/*--------------------------------*- C++ -*----------------------------------*\
| =========                 |                                                 |
| \\      /  F ield         | OpenFOAM: The Open Source CFD Toolbox           |
|  \\    /   O peration     | Version:  4.1                                   |
|   \\  /    A nd           | Web:      www.OpenFOAM.org                      |
|    \\/     M anipulation  |                                                 |
\*---------------------------------------------------------------------------*/
FoamFile
{
    version     2.0;
    format      ascii;
    class       surfaceVectorField;
    location    "2.3";
    object      Uf;
}
// * * * * * * * * * * * * * * * * * * * * * * * * * * * * * * * * * * * * * //

dimensions      [0 1 -1 0 0 0 0];

internalField   nonuniform List<vector> 
5457
(
(9.91192 1.56372e-19 0.0229607)
(9.97307 3.27447e-19 0.0367785)
(9.81547 -8.68241e-20 0.0284126)
(9.93015 1.32312e-19 0.0416315)
(9.70927 -6.06339e-20 0.0327344)
(9.8634 2.0128e-20 0.0476698)
(9.59068 -1.60415e-21 0.0372315)
(9.77962 -1.51616e-19 0.0553515)
(9.45998 -2.2331e-20 0.0418227)
(9.68281 -2.27867e-20 0.0633879)
(9.31763 -5.02581e-20 0.0465365)
(9.57362 0 0.0716771)
(9.16363 4.18536e-21 0.051508)
(9.45178 1.91763e-19 0.0804725)
(8.99761 1.05538e-19 0.0568591)
(9.3169 -1.47449e-19 0.089987)
(8.81899 -3.43027e-21 0.0626895)
(9.16857 -2.05938e-19 0.100376)
(8.62707 -8.38994e-20 0.0691016)
(9.00629 1.58382e-19 0.111791)
(8.42094 -2.85086e-20 0.0762165)
(8.82929 -5.69095e-20 0.124416)
(8.19952 -1.46465e-19 0.0841725)
(8.6366 0 0.138468)
(7.96154 -6.74457e-21 0.0931204)
(8.42713 8.51321e-20 0.154182)
(7.70556 1.29972e-19 0.103227)
(8.19958 -1.18869e-19 0.171814)
(7.42998 0 0.114681)
(7.95245 0 0.19165)
(7.133 0 0.127696)
(7.68409 0 0.214004)
(6.8127 8.33966e-20 0.142504)
(7.39264 5.85849e-19 0.239218)
(6.46701 -7.67804e-21 0.159358)
(7.07611 -4.47029e-19 0.267631)
(6.09379 -8.54822e-20 0.178549)
(6.73232 -6.61113e-21 0.299598)
(5.69077 0 0.200391)
(6.35901 -1.36804e-18 0.335502)
(5.2557 0 0.225187)
(5.95383 1.42024e-18 0.375678)
(4.78646 -2.28584e-19 0.253199)
(5.51434 0 0.420316)
(4.28131 7.69508e-19 0.284619)
(5.03823 -2.39144e-20 0.469359)
(3.73907 -8.49919e-20 0.319545)
(4.5233 1.40589e-18 0.522435)
(3.15936 -4.54696e-19 0.357743)
(3.96786 -1.03821e-18 0.578728)
(2.54319 5.62205e-19 0.397981)
(3.37062 4.02984e-18 0.636357)
(1.8941 0 0.435887)
(2.73028 5.33978e-18 0.691025)
(1.22139 7.15337e-19 0.456426)
(2.0458 -9.01385e-18 0.732234)
(0.542097 6.95629e-19 0.3866)
(1.28728 -1.09485e-18 0.737209)
(0.657471 2.87746e-18 0.619399)
(10.0031 2.99923e-19 0.0448377)
(10.0042 -4.64787e-19 0.0354372)
(9.97471 2.36827e-19 0.0575324)
(9.99054 1.0532e-20 0.0538411)
(9.92951 -7.44909e-20 0.0683201)
(9.95658 6.32791e-20 0.0679036)
(9.8695 -1.70164e-19 0.0799007)
(9.90581 -3.46542e-19 0.0832988)
(9.7949 0 0.0920813)
(9.84098 1.78632e-19 0.0995025)
(9.70607 2.45764e-19 0.104885)
(9.76289 1.84631e-19 0.116347)
(9.60308 3.36322e-20 0.118601)
(9.67154 -4.64803e-20 0.134225)
(9.48573 -4.60046e-19 0.13351)
(9.56667 -1.00813e-19 0.15353)
(9.35358 -3.73747e-20 0.149853)
(9.44799 -5.38922e-20 0.174582)
(9.20603 1.81469e-19 0.167881)
(9.31508 2.49559e-21 0.197695)
(9.04227 -2.73754e-20 0.18789)
(9.1673 2.72744e-20 0.223233)
(8.86131 2.33121e-19 0.210215)
(9.00379 4.61067e-19 0.251622)
(8.662 -3.05644e-20 0.235227)
(8.82358 -2.1411e-19 0.283337)
(8.44297 -2.46805e-19 0.263331)
(8.62552 2.48264e-19 0.318898)
(8.20268 0 0.294982)
(8.40824 -5.28884e-19 0.358889)
(7.93938 5.95794e-19 0.330678)
(8.17021 0 0.403968)
(7.65112 3.80862e-20 0.370942)
(7.9097 1.722e-18 0.454859)
(7.33578 -4.38732e-19 0.416304)
(7.6248 -1.99248e-18 0.512296)
(6.99109 -1.31088e-18 0.467334)
(7.31329 -1.16534e-18 0.577041)
(6.6146 9.55797e-20 0.52461)
(6.9729 -8.37921e-20 0.649956)
(6.2037 1.39867e-18 0.588587)
(6.6012 1.41977e-18 0.731887)
(5.75567 2.04629e-19 0.659475)
(6.19529 3.56492e-19 0.823475)
(5.26775 6.32589e-19 0.737111)
(5.75219 -3.59289e-18 0.925016)
(4.73723 4.22794e-19 0.820909)
(5.26823 3.18552e-18 1.03625)
(4.1613 3.49266e-18 0.909584)
(4.73942 -6.78188e-18 1.15637)
(3.53645 8.80832e-18 1.00034)
(4.16096 2.46641e-18 1.28365)
(2.85658 -3.68546e-18 1.08792)
(3.52486 1.188e-17 1.41452)
(2.10654 -1.08723e-17 1.16547)
(2.81847 7.19159e-18 1.54316)
(1.23469 1.19463e-18 1.22899)
(1.99286 -1.76864e-17 1.66988)
(1.17334 2.8039e-18 1.79132)
(9.99617 -7.45307e-19 0.0475556)
(10.0021 3.32762e-19 0.0370425)
(9.97177 -1.6197e-19 0.0674356)
(9.98595 -1.42088e-19 0.0644093)
(9.93054 -2.1737e-19 0.0856348)
(9.95319 -4.18378e-20 0.0864739)
(9.87572 1.30538e-20 0.104886)
(9.90562 -8.59215e-20 0.108959)
(9.80788 3.63414e-19 0.125211)
(9.84469 4.45889e-19 0.132495)
(9.72718 -1.12145e-19 0.14671)
(9.77115 -3.66568e-19 0.157093)
(9.63369 -1.81995e-19 0.169778)
(9.68526 9.20868e-20 0.183199)
(9.52729 3.06296e-19 0.194829)
(9.58688 2.95359e-19 0.211331)
(9.40766 -1.2946e-20 0.22225)
(9.47582 6.1456e-19 0.241955)
(9.2743 -1.51311e-19 0.252455)
(9.35177 -6.29791e-19 0.275535)
(9.12655 5.23516e-19 0.285925)
(9.21421 4.93925e-19 0.312597)
(8.96356 1.86619e-21 0.323211)
(9.06248 1.17417e-20 0.353755)
(8.78433 7.26814e-20 0.364923)
(8.89579 -3.8475e-19 0.399696)
(8.58769 -4.71797e-20 0.411743)
(8.71318 4.99595e-19 0.451177)
(8.37229 -5.19941e-19 0.464439)
(8.51355 -5.13143e-19 0.509049)
(8.13662 1.1552e-18 0.523875)
(8.29564 -6.58424e-20 0.574284)
(7.87892 -3.70031e-19 0.590977)
(8.05799 1.27346e-18 0.647983)
(7.5972 -2.70539e-18 0.666685)
(7.7991 -1.31953e-18 0.731314)
(7.28932 7.79137e-20 0.752015)
(7.51692 -9.47191e-19 0.825437)
(6.95292 1.26432e-18 0.848104)
(7.20935 9.72107e-19 0.931707)
(6.58521 3.61551e-19 0.956004)
(6.8743 -2.31299e-18 1.05169)
(6.18299 -3.4929e-18 1.0765)
(6.50883 -3.30613e-20 1.18678)
(5.74245 -9.55601e-19 1.20988)
(6.10964 5.54958e-18 1.33817)
(5.2589 -4.1192e-18 1.35593)
(5.6722 2.84658e-18 1.50654)
(4.72632 -7.71532e-18 1.5141)
(5.19043 -6.67137e-18 1.69221)
(4.13574 5.59118e-18 1.68348)
(4.65641 -6.69917e-18 1.89575)
(3.4717 2.26409e-17 1.86321)
(4.05765 4.81495e-18 2.1183)
(2.70515 6.94985e-19 2.05403)
(3.37445 1.4239e-17 2.3637)
(1.79563 -1.52678e-17 2.29509)
(2.57572 -1.56899e-17 2.63461)
(1.60942 -1.11283e-19 3.03989)
(9.99169 9.27101e-19 0.0543224)
(10.0008 2.9774e-19 0.0405181)
(9.96739 -1.97845e-20 0.0827062)
(9.9826 -6.07271e-20 0.0749453)
(9.92699 8.86662e-20 0.108986)
(9.94949 8.29581e-20 0.104688)
(9.87319 3.57806e-19 0.135787)
(9.90295 8.73989e-20 0.13417)
(9.80683 -3.00299e-19 0.163688)
(9.84344 9.08694e-20 0.164806)
(9.72809 -1.53415e-19 0.193035)
(9.77151 -7.33279e-19 0.196895)
(9.63711 5.73434e-19 0.224355)
(9.68766 3.81991e-19 0.230919)
(9.53388 6.09616e-19 0.258206)
(9.59187 -7.76774e-19 0.267488)
(9.41821 -2.51859e-20 0.295127)
(9.48401 8.09281e-19 0.307193)
(9.28975 3.57466e-20 0.335692)
(9.36386 -4.18638e-19 0.350627)
(9.14802 -2.64996e-20 0.380558)
(9.23104 1.52151e-18 0.39846)
(8.99238 -3.82076e-19 0.43047)
(9.08502 -3.27106e-19 0.451463)
(8.82205 5.758e-20 0.486256)
(8.92521 -9.19042e-19 0.5105)
(8.63615 1.61524e-20 0.548835)
(8.75089 1.02678e-18 0.576519)
(8.43365 -5.13387e-20 0.619251)
(8.56122 -9.73669e-19 0.650588)
(8.2134 7.46665e-20 0.698693)
(8.35526 -2.08705e-18 0.733933)
(7.97408 2.81097e-19 0.788504)
(8.13192 -3.07391e-20 0.827961)
(7.7141 4.44639e-19 0.890058)
(7.89015 2.36414e-18 0.934278)
(7.43164 -2.2411e-20 1.0048)
(7.62843 6.29965e-21 1.05446)
(7.1248 -2.65305e-18 1.13448)
(7.34478 2.94081e-19 1.19021)
(6.79121 -2.67525e-18 1.28101)
(7.03766 -2.94193e-18 1.34383)
(6.42778 9.06644e-18 1.44617)
(6.70484 -1.04108e-18 1.51772)
(6.03058 9.32257e-18 1.63153)
(6.34302 8.64551e-18 1.71416)
(5.59395 1.87427e-19 1.83833)
(5.94802 9.31184e-20 1.93558)
(5.10992 -5.64445e-18 2.06803)
(5.51314 -6.5866e-18 2.18433)
(4.56685 -7.40064e-18 2.32329)
(5.02924 4.05649e-19 2.46385)
(3.94677 -3.48255e-18 2.61005)
(4.48335 -9.78069e-20 2.77981)
(3.21567 -1.8041e-18 2.92977)
(3.84968 -1.24566e-19 3.14606)
(2.3815 -6.80358e-20 3.3385)
(3.16043 0 3.52822)
(2.08011 -1.96759e-18 4.19539)
(9.98935 -6.97228e-19 0.0618088)
(10.0001 -8.25532e-20 0.0449718)
(9.96451 4.51282e-20 0.0972571)
(9.9807 6.41088e-19 0.0857177)
(9.92479 8.17914e-20 0.130493)
(9.94738 8.29847e-20 0.122608)
(9.87198 -1.7955e-19 0.164053)
(9.90172 -1.68389e-19 0.158937)
(9.80693 -3.58524e-19 0.198968)
(9.8436 -7.02882e-19 0.196501)
(9.72992 -1.76229e-19 0.235769)
(9.77338 -1.8382e-19 0.23586)
(9.64109 -9.90526e-19 0.275056)
(9.69162 1.12266e-18 0.277553)
(9.54049 -5.47906e-19 0.31748)
(9.59837 -1.36229e-18 0.322276)
(9.42797 3.93449e-19 0.363692)
(9.49356 9.9667e-19 0.370733)
(9.30325 1.10215e-18 0.414383)
(9.37701 8.28447e-19 0.423639)
(9.16595 1.18847e-18 0.47034)
(9.24838 -1.89672e-19 0.48178)
(9.01556 -8.74392e-19 0.532451)
(9.10727 -8.74104e-19 0.546055)
(8.85151 8.32269e-20 0.6017)
(8.95321 -9.89768e-19 0.61747)
(8.67313 3.48564e-21 0.679183)
(8.7857 1.96487e-18 0.697126)
(8.47968 -3.02835e-18 0.766149)
(8.60408 -9.90078e-19 0.786262)
(8.27031 -2.15978e-18 0.864028)
(8.4077 -2.03794e-18 0.88631)
(8.04412 2.09004e-18 0.974485)
(8.19576 -2.33401e-19 0.998901)
(7.80001 1.89017e-18 1.09934)
(7.96752 1.61052e-19 1.12599)
(7.53653 3.26477e-19 1.24041)
(7.72223 1.67044e-18 1.26964)
(7.25216 -4.16506e-20 1.39989)
(7.45803 5.0343e-18 1.43189)
(6.94521 -1.2823e-18 1.58055)
(7.17368 -9.74238e-18 1.61551)
(6.61319 -1.33019e-18 1.78527)
(6.86804 4.98104e-18 1.82393)
(6.25262 -6.71181e-19 2.01715)
(6.53821 -2.12639e-20 2.06066)
(5.85839 -6.71441e-18 2.27957)
(6.18085 -6.67101e-19 2.32989)
(5.42259 -5.41463e-19 2.57663)
(5.79029 -6.63878e-18 2.63648)
(4.93378 7.67467e-18 2.91397)
(5.35836 6.06122e-18 2.98671)
(4.37726 3.22822e-18 3.30256)
(4.87531 1.58667e-18 3.38795)
(3.71391 1.66321e-18 3.73865)
(4.3028 1.62796e-18 3.8658)
(3.00175 -1.96363e-18 4.27657)
(3.77731 -7.18893e-19 4.31409)
(2.60263 -2.71595e-17 5.19926)
(9.98807 1.26989e-18 0.0697009)
(9.99972 1.5222e-21 0.0499599)
(9.9629 6.67042e-19 0.111674)
(9.97974 8.22471e-20 0.096638)
(9.92395 -1.72519e-19 0.151677)
(9.94658 -8.2115e-20 0.14019)
(9.87233 -7.02704e-19 0.192038)
(9.90187 5.09559e-19 0.183167)
(9.80887 -5.17976e-19 0.233999)
(9.84528 -1.77023e-19 0.227455)
(9.73389 1.14053e-18 0.278209)
(9.77705 -3.62131e-19 0.273831)
(9.64757 7.0442e-19 0.325333)
(9.69768 1.12005e-18 0.322925)
(9.54995 2.26119e-19 0.37611)
(9.6073 -6.29862e-21 0.37551)
(9.44092 1.42885e-18 0.431301)
(9.50589 -3.94418e-19 0.432396)
(9.32025 -4.81689e-19 0.491711)
(9.3933 1.63927e-18 0.494404)
(9.18762 -2.26538e-18 0.558238)
(9.26928 -1.27274e-18 0.562424)
(9.04265 -9.91769e-19 0.631895)
(9.13346 -1.24069e-19 0.637458)
(8.88489 9.42129e-19 0.713801)
(8.98554 -6.96535e-22 0.720631)
(8.71385 9.22448e-19 0.805195)
(8.82517 -1.56625e-19 0.813161)
(8.529 -1.60357e-20 0.9075)
(8.65183 -5.96775e-20 0.916429)
(8.32975 -8.1978e-20 1.02234)
(8.46508 -2.52439e-22 1.03204)
(8.11546 -2.15583e-18 1.15161)
(8.26439 -1.14764e-21 1.16183)
(7.88547 -3.90654e-20 1.29754)
(8.04914 -2.19385e-18 1.30793)
(7.63886 6.42552e-18 1.46239)
(7.81922 2.23825e-18 1.47291)
(7.37437 -4.85467e-18 1.64869)
(7.57325 4.42882e-18 1.65923)
(7.09084 -3.30894e-18 1.85989)
(7.3101 -4.69839e-18 1.86995)
(6.78665 6.23406e-18 2.09999)
(7.02942 5.08906e-18 2.10932)
(6.45911 -2.17997e-20 2.37348)
(6.72933 -4.88834e-18 2.38213)
(6.10433 -6.49352e-19 2.68569)
(6.40737 -2.35395e-20 2.69402)
(5.71634 1.32042e-20 3.04333)
(6.05968 2.78013e-20 3.05182)
(5.28575 0 3.45415)
(5.68022 3.25318e-19 3.46443)
(4.80411 0 3.93129)
(5.26625 -1.05974e-17 3.93817)
(4.22485 -7.00945e-19 4.46192)
(4.75635 -2.57264e-19 4.51443)
(3.64108 -2.71777e-17 5.08209)
(4.41739 1.16455e-17 4.9888)
(3.16106 -2.51332e-17 6.04605)
(9.98746 -1.18506e-18 0.0778061)
(9.99956 -5.8522e-19 0.0552022)
(9.96231 -6.7072e-19 0.125942)
(9.97947 -5.99873e-19 0.107557)
(9.92426 6.12496e-19 0.172426)
(9.94677 7.35299e-19 0.157383)
(9.874 1.02172e-18 0.219363)
(9.90316 5.10898e-19 0.206784)
(9.81232 -2.46514e-20 0.268081)
(9.8483 1.91245e-21 0.25757)
(9.73963 -3.54528e-19 0.319362)
(9.78232 -3.62919e-19 0.310693)
(9.65609 3.88045e-19 0.37396)
(9.70565 -5.05338e-21 0.366897)
(9.56177 -6.3403e-19 0.432706)
(9.6185 3.79969e-19 0.427026)
(9.45661 -1.48155e-19 0.496466)
(9.52089 -1.38073e-18 0.491974)
(9.34045 7.97341e-19 0.566147)
(9.41273 1.21215e-18 0.562663)
(9.21305 8.89503e-19 0.642742)
(9.29386 2.08629e-19 0.640081)
(9.07411 8.70126e-19 0.727357)
(9.16396 6.61003e-19 0.725308)
(8.92335 -1.1025e-18 0.821224)
(9.02285 1.08984e-20 0.819551)
(8.7604 -1.13843e-18 0.925712)
(8.87034 -1.20833e-18 0.924157)
(8.58488 -4.29893e-20 1.04239)
(8.70603 -1.77203e-18 1.04063)
(8.39639 8.05867e-20 1.17304)
(8.52965 3.82627e-18 1.17074)
(8.19449 -7.15945e-20 1.31973)
(8.3409 -1.91914e-18 1.31646)
(7.97882 1.47841e-19 1.48497)
(8.13937 -4.2106e-18 1.48009)
(7.74893 2.71669e-19 1.67147)
(7.92515 4.62031e-18 1.66449)
(7.50401 4.46178e-18 1.88214)
(7.69758 0 1.87267)
(7.24331 3.8215e-18 2.1209)
(7.45586 -3.78474e-19 2.10796)
(6.96602 -6.11799e-18 2.39266)
(7.19996 9.23883e-18 2.37514)
(6.67057 -4.85866e-18 2.70325)
(6.92924 -9.62354e-18 2.6801)
(6.3545 6.53158e-19 3.05947)
(6.6424 -8.67154e-18 3.02975)
(6.0143 3.38515e-19 3.46975)
(6.33755 2.00119e-17 3.43221)
(5.64348 -1.01721e-17 3.94302)
(6.01037 -1.94377e-17 3.89816)
(5.24058 -1.09158e-17 4.49354)
(5.6683 -8.57287e-19 4.43057)
(4.75047 1.14407e-17 5.09836)
(5.21721 4.40085e-20 5.09258)
(4.27878 1.10759e-17 5.76234)
(5.06488 1.10531e-17 5.56624)
(3.73563 2.35874e-19 6.75299)
(9.98733 0 0.0859449)
(9.9996 0 0.0605002)
(9.96248 8.3522e-19 0.139953)
(9.9797 0 0.118351)
(9.92546 6.29029e-19 0.192627)
(9.94769 -6.45826e-19 0.174126)
(9.8768 -5.19649e-19 0.245892)
(9.90543 -6.69305e-19 0.229678)
(9.81721 -3.4363e-19 0.301103)
(9.85258 -1.03527e-18 0.286706)
(9.74713 -6.45753e-21 0.359165)
(9.78918 3.52859e-19 0.346284)
(9.66675 -6.06044e-21 0.420926)
(9.71561 -1.09756e-18 0.409273)
(9.57617 -3.98649e-19 0.487295)
(9.63211 -2.77103e-21 0.47659)
(9.47537 2.57905e-20 0.559219)
(9.53877 7.71702e-19 0.549203)
(9.36428 6.05872e-19 0.637701)
(9.43555 -7.86665e-19 0.628103)
(9.24274 -1.2461e-20 0.723821)
(9.32235 1.02936e-18 0.714382)
(9.11051 -2.09717e-19 0.818755)
(9.19901 -2.9503e-18 0.809203)
(8.96742 -1.14374e-19 0.923826)
(9.06539 3.46451e-18 0.913812)
(8.81328 -1.85058e-18 1.04052)
(8.92141 -1.44011e-18 1.02966)
(8.64785 2.18233e-18 1.17053)
(8.76681 -1.82925e-18 1.15839)
(8.47092 1.74449e-18 1.3158)
(8.60153 3.87405e-18 1.30185)
(8.2823 -6.09219e-18 1.47855)
(8.42552 -1.98549e-18 1.46219)
(8.08182 3.75697e-19 1.66145)
(8.23864 -4.17485e-18 1.64186)
(7.86938 4.29416e-18 1.86759)
(8.041 4.21956e-18 1.84393)
(7.64465 -4.83938e-18 2.10031)
(7.83269 0 2.07182)
(7.40736 5.11652e-18 2.36385)
(7.61325 -4.58525e-18 2.32921)
(7.15739 5.5937e-18 2.66387)
(7.38292 9.77502e-18 2.62124)
(6.89437 -1.34123e-17 3.00716)
(7.14219 -4.0848e-18 2.95463)
(6.61748 1.06892e-17 3.40172)
(6.89101 -9.60065e-18 3.3372)
(6.32546 3.86937e-19 3.85705)
(6.62957 1.99532e-17 3.77805)
(6.01433 -1.03592e-17 4.38209)
(6.3544 -1.07867e-17 4.28928)
(5.68897 1.00887e-17 4.99201)
(6.08476 9.51216e-18 4.8682)
(5.28713 -8.42458e-19 5.65544)
(5.68746 -8.13825e-18 5.60464)
(4.90334 -4.53541e-19 6.34068)
(5.7087 -1.16581e-18 6.06589)
(4.31422 1.80649e-17 7.34981)
(9.98749 0 0.0939815)
(9.99976 -7.68115e-20 0.0657301)
(9.96321 -1.4955e-18 0.153616)
(9.98025 7.84705e-20 0.128908)
(9.92743 -1.94543e-18 0.212183)
(9.94916 -8.1732e-19 0.19033)
(9.88065 -1.1925e-18 0.271491)
(9.9085 1.63962e-19 0.251717)
(9.82351 -3.11722e-19 0.332903)
(9.85796 3.38955e-19 0.314685)
(9.75645 -7.65902e-19 0.397427)
(9.79746 5.59249e-21 0.3804)
(9.67968 -1.07456e-18 0.466002)
(9.72736 -1.09862e-18 0.449827)
(9.5933 1.18204e-18 0.539609)
(9.64792 3.6519e-19 0.523959)
(9.49734 -6.78095e-20 0.619256)
(9.55927 1.92164e-18 0.603824)
(9.3918 -3.32861e-19 0.706017)
(9.46143 -4.02496e-19 0.690458)
(9.27664 -1.97532e-18 0.801064)
(9.35434 1.23111e-18 0.785017)
(9.15176 8.27528e-19 0.905649)
(9.23806 -3.14853e-18 0.888762)
(9.01701 2.06352e-18 1.02115)
(9.11258 3.89201e-18 1.00301)
(8.87233 -1.42516e-18 1.14915)
(8.97781 -3.08593e-18 1.12928)
(8.71766 -5.33863e-20 1.29141)
(8.83368 1.66796e-18 1.26926)
(8.55302 5.84578e-20 1.45003)
(8.68025 -1.69388e-19 1.42489)
(8.37849 -9.49276e-20 1.62737)
(8.51779 0 1.59846)
(8.19414 -2.22949e-19 1.82626)
(8.34637 -6.34187e-20 1.79257)
(8.00019 -1.2741e-19 2.05009)
(8.16623 -1.28906e-19 2.01045)
(7.79672 2.05909e-19 2.30257)
(7.97815 -1.24926e-19 2.25589)
(7.58387 2.02422e-19 2.58819)
(7.78209 -3.84666e-18 2.53291)
(7.36225 0 2.91312)
(7.57843 4.1438e-18 2.84684)
(7.13254 -3.02089e-19 3.28493)
(7.36878 -8.65535e-18 3.20502)
(6.89551 -3.01642e-19 3.71232)
(7.15423 8.10959e-18 3.61592)
(6.65209 8.84982e-18 4.20574)
(6.93685 8.82777e-18 4.08915)
(6.39997 8.91729e-18 4.77362)
(6.71342 6.84788e-19 4.63861)
(6.14875 -8.51315e-18 5.43188)
(6.51559 -5.97462e-18 5.25453)
(5.83247 -8.57317e-18 6.14362)
(6.16891 -2.68306e-18 6.05548)
(5.51388 1.88047e-17 6.84483)
(6.34455 -1.35584e-17 6.5074)
(4.89451 3.00597e-17 7.87335)
(9.98783 4.53472e-21 0.101816)
(9.99997 -1.2953e-18 0.0708181)
(9.96434 7.38093e-19 0.166833)
(9.98098 7.85176e-20 0.139133)
(9.93 1.31347e-18 0.230986)
(9.95101 8.08489e-19 0.205906)
(9.88533 1.69986e-18 0.296017)
(9.91217 5.01358e-19 0.272799)
(9.83091 6.50248e-19 0.363304)
(9.86412 1.02739e-18 0.341383)
(9.76717 -3.47823e-19 0.433946)
(9.80674 -1.04456e-18 0.412898)
(9.69433 3.68561e-19 0.508965)
(9.74038 -7.19954e-19 0.488397)
(9.61251 1.13249e-18 0.589406)
(9.66529 -1.10137e-18 0.568945)
(9.52178 1.54733e-18 0.676325)
(9.5817 1.50978e-18 0.655623)
(9.4222 1.19007e-18 0.770828)
(9.48971 1.17849e-18 0.7495)
(9.31385 -1.28569e-20 0.874148)
(9.38922 -3.82358e-19 0.851745)
(9.19681 2.79824e-20 0.987626)
(9.28049 8.19394e-19 0.963678)
(9.07108 -1.36741e-18 1.11273)
(9.16365 -1.65379e-18 1.08673)
(8.93665 7.77508e-20 1.25108)
(9.03872 -3.69039e-18 1.22248)
(8.79357 1.52774e-18 1.4045)
(8.90581 1.76933e-18 1.37268)
(8.64207 -2.2587e-19 1.57517)
(8.76509 1.77784e-18 1.53928)
(8.48243 3.07442e-20 1.76559)
(8.61695 3.67574e-18 1.72466)
(8.315 3.00367e-20 1.9787)
(8.46179 -7.43689e-18 1.93161)
(8.14038 -1.26231e-19 2.21814)
(8.30002 3.78696e-18 2.16337)
(7.95919 -4.21013e-18 2.48799)
(8.13297 4.11034e-18 2.42405)
(7.77194 1.40362e-19 2.79296)
(7.96125 -8.19575e-18 2.71809)
(7.57987 -4.55814e-18 3.13946)
(7.78541 4.14894e-18 3.05087)
(7.38469 -2.43637e-19 3.53566)
(7.60796 -8.41457e-18 3.4301)
(7.18841 1.7236e-17 3.99079)
(7.43127 9.38207e-18 3.86486)
(6.99393 7.57141e-19 4.51597)
(7.2588 7.39582e-18 4.36497)
(6.80013 -1.40812e-17 5.11961)
(7.08715 -8.20664e-18 4.94652)
(6.61913 -1.89021e-19 5.81846)
(6.95999 -7.02381e-19 5.59293)
(6.38642 -7.48876e-18 6.57368)
(6.66454 -2.47615e-18 6.44948)
(6.1187 3.22277e-18 7.30163)
(6.97487 -1.35053e-17 6.90755)
(5.48432 1.43204e-17 8.36248)
(9.98824 -1.19554e-18 0.109384)
(10.0002 -3.99147e-21 0.0757359)
(9.9657 1.64332e-19 0.179527)
(9.98184 0 0.148957)
(9.93295 -1.04617e-20 0.248956)
(9.95319 1.60957e-19 0.220784)
(9.89053 -1.61351e-19 0.31938)
(9.91635 -4.92769e-19 0.29286)
(9.839 -7.07924e-19 0.392201)
(9.87095 3.35118e-19 0.366724)
(9.77877 -1.41109e-18 0.468594)
(9.81689 -4.30531e-21 0.443677)
(9.71011 -2.19795e-18 0.549655)
(9.7545 -2.13101e-18 0.524856)
(9.63316 -6.79413e-19 0.63648)
(9.68402 -7.43103e-19 0.611382)
(9.54809 1.13509e-18 0.730168)
(9.60583 9.85849e-21 0.704367)
(9.455 -4.20588e-19 0.831851)
(9.52008 1.53739e-18 0.804917)
(9.35403 4.69036e-19 0.942786)
(9.42669 -7.83137e-19 0.914234)
(9.24532 -9.00417e-19 1.06437)
(9.32602 -3.57427e-19 1.03366)
(9.12909 -4.00963e-18 1.19815)
(9.21823 -3.72208e-18 1.16465)
(9.0055 -1.92248e-18 1.34583)
(9.10355 1.40741e-18 1.30889)
(8.87475 2.01847e-18 1.50927)
(8.98242 -1.71614e-18 1.46817)
(8.73717 5.70811e-18 1.69065)
(8.85507 -1.4862e-18 1.64447)
(8.59323 -3.92064e-18 1.8926)
(8.72196 1.03366e-17 1.84024)
(8.44357 -3.57069e-18 2.11815)
(8.58378 -1.06278e-17 2.05831)
(8.28909 8.03349e-18 2.37105)
(8.4413 1.27107e-19 2.30202)
(8.13097 4.06357e-20 2.65569)
(8.29604 1.14021e-17 2.57555)
(7.9703 -4.12372e-18 2.97703)
(8.14946 -8.08687e-18 2.88376)
(7.80882 2.50028e-19 3.34165)
(8.00249 0 3.23218)
(7.6493 1.21436e-18 3.75808)
(7.85828 2.4987e-19 3.62858)
(7.49488 -4.57186e-19 4.23605)
(7.72051 -7.19755e-18 4.08257)
(7.34997 -1.44905e-18 4.7874)
(7.59405 1.35783e-17 4.60427)
(7.2146 5.07474e-18 5.42128)
(7.47494 1.49518e-18 5.21228)
(7.10077 -2.96898e-18 6.15598)
(7.41767 -1.28919e-18 5.88539)
(6.95249 -8.29681e-18 6.9542)
(7.17958 -2.43096e-18 6.78871)
(6.73451 1.79951e-18 7.73312)
(7.60804 -1.00098e-17 7.27755)
(6.10074 1.2996e-17 8.84727)
(9.98874 1.19239e-18 0.116637)
(10.0005 1.21595e-18 0.0804456)
(9.96732 0 0.191631)
(9.98287 0 0.158307)
(9.93635 -3.34957e-19 0.266019)
(9.9557 1.26355e-18 0.234879)
(9.89638 2.02083e-20 0.341504)
(9.92109 1.29349e-18 0.311804)
(9.84794 1.03301e-18 0.419505)
(9.87855 -6.61448e-19 0.390599)
(9.79146 -7.63063e-19 0.501264)
(9.82805 1.37243e-18 0.472617)
(9.72721 -6.50759e-19 0.587937)
(9.76983 -1.41661e-18 0.559073)
(9.65542 -4.00706e-20 0.680658)
(9.70421 2.87356e-18 0.651118)
(9.57632 4.37067e-19 0.780558)
(9.63171 -7.42322e-19 0.749877)
(9.4901 1.13837e-18 0.888805)
(9.55245 2.64331e-18 0.856502)
(9.39692 -1.60382e-18 1.00669)
(9.46645 3.94552e-19 0.972233)
(9.29699 -3.23207e-18 1.13561)
(9.37422 -1.19664e-18 1.09843)
(9.1906 1.77257e-18 1.27713)
(9.27589 -3.25119e-18 1.23656)
(9.07822 1.57573e-18 1.43302)
(9.17186 4.56863e-18 1.38824)
(8.96028 -5.224e-18 1.60521)
(9.06288 -3.29882e-20 1.55537)
(8.83721 3.27787e-18 1.79592)
(8.94929 -2.21466e-18 1.74003)
(8.70964 3.40947e-18 2.0078)
(8.83171 6.5498e-19 1.94466)
(8.5785 -6.82573e-18 2.24393)
(8.7111 -1.20757e-19 2.17208)
(8.44498 3.57518e-18 2.50808)
(8.58855 -3.67686e-18 2.42565)
(8.31074 3.16226e-18 2.80485)
(8.46577 7.17705e-18 2.70958)
(8.17757 -3.93128e-18 3.13943)
(8.34491 3.26903e-20 3.02896)
(8.04768 0 3.5185)
(8.22779 -3.51755e-18 3.38956)
(7.92472 -8.15047e-18 3.95082)
(8.11799 6.04425e-18 3.79905)
(7.81315 6.68488e-18 4.44653)
(8.02003 -2.16757e-17 4.26733)
(7.71864 1.66911e-17 5.01865)
(7.94057 2.16025e-17 4.80512)
(7.64318 -4.77536e-18 5.67778)
(7.87561 -3.04712e-18 5.43329)
(7.59612 -8.86824e-19 6.44535)
(7.8885 -9.20915e-18 6.13028)
(7.53796 -4.06796e-18 7.28817)
(7.72065 3.1664e-18 7.06966)
(7.38313 5.10399e-18 8.15324)
(8.25579 -1.44118e-17 7.62054)
(6.76831 1.13903e-17 9.3427)
(9.98936 0 0.123515)
(10.0008 -7.49651e-20 0.0848967)
(9.96922 1.29091e-18 0.203061)
(9.98404 -9.92512e-19 0.167112)
(9.94023 2.89392e-18 0.282081)
(9.9585 1.63331e-19 0.248106)
(9.90291 5.73684e-19 0.362281)
(9.92628 3.33314e-19 0.329535)
(9.8578 -2.84132e-19 0.445099)
(9.88681 6.51753e-19 0.4129)
(9.80529 6.68502e-19 0.531836)
(9.84003 4.22463e-21 0.499613)
(9.74568 2.18506e-18 0.623687)
(9.78615 -6.94423e-19 0.590938)
(9.67929 2.11095e-18 0.721809)
(9.72563 2.14542e-18 0.688025)
(9.60639 1.52054e-18 0.827361)
(9.65904 -7.26272e-19 0.792033)
(9.52721 1.86432e-18 0.94153)
(9.58649 2.22955e-18 0.904151)
(9.44206 7.7917e-19 1.06563)
(9.50815 3.85543e-19 1.0256)
(9.35127 -1.24379e-18 1.20109)
(9.42458 3.94189e-19 1.15777)
(9.25518 -3.48174e-19 1.34943)
(9.33612 -8.29757e-19 1.30215)
(9.15439 2.8995e-18 1.51241)
(9.24321 3.22542e-18 1.46027)
(9.04956 2.95843e-18 1.69205)
(9.14664 5.70639e-20 1.63405)
(8.94132 -4.80916e-18 1.89061)
(9.04704 1.70626e-18 1.82569)
(8.83052 -2.8977e-18 2.11072)
(8.94529 -6.44828e-18 2.03757)
(8.71834 3.01145e-18 2.35543)
(8.84258 3.04094e-18 2.27248)
(8.60628 0 2.62852)
(8.74032 -3.37892e-18 2.53374)
(8.49643 4.00671e-18 2.93459)
(8.64046 2.53924e-18 2.8255)
(8.39142 4.53948e-19 3.2791)
(8.54558 6.52054e-18 3.15284)
(8.29417 2.52175e-18 3.66877)
(8.45879 -8.49416e-18 3.52176)
(8.20883 -7.35892e-18 4.1123)
(8.38426 6.8929e-18 3.93989)
(8.14099 -7.15136e-18 4.6202)
(8.3271 -1.35484e-17 4.41709)
(8.09787 2.13675e-18 5.2069)
(8.29569 9.48362e-18 4.9647)
(8.08491 -7.33882e-18 5.88513)
(8.28725 3.63927e-18 5.60493)
(8.10787 -5.35412e-18 6.68152)
(8.37141 -5.31497e-18 6.32108)
(8.15183 -6.99122e-18 7.56968)
(8.29338 -2.60289e-18 7.28088)
(8.08852 -4.07646e-18 8.56813)
(8.93042 -3.18376e-19 7.92794)
(7.51772 -6.07416e-18 9.8585)
(9.99005 -1.08542e-18 0.129969)
(10.0012 -2.45064e-18 0.0890612)
(9.97128 -2.09678e-18 0.213752)
(9.98528 -9.88357e-19 0.175334)
(9.94437 -2.39605e-18 0.29706)
(9.96143 -1.10211e-18 0.260419)
(9.90985 4.17278e-19 0.381615)
(9.93172 -1.56703e-20 0.345992)
(9.8682 9.28743e-19 0.468881)
(9.89544 3.39529e-19 0.43356)
(9.81981 -1.37255e-18 0.5602)
(9.8525 -7.21064e-21 0.524594)
(9.76502 -6.86227e-19 0.656775)
(9.80315 -1.37746e-18 0.620362)
(9.70423 -7.42246e-19 0.759779)
(9.74791 -3.89591e-21 0.721994)
(9.63776 2.95584e-20 0.870405)
(9.6874 -7.26779e-19 0.830699)
(9.56591 7.211e-19 0.989848)
(9.62179 2.28892e-21 0.947692)
(9.48906 0 1.11941)
(9.55136 1.48861e-18 1.07417)
(9.40769 7.92276e-19 1.26054)
(9.47661 -7.54346e-19 1.2115)
(9.32229 2.80175e-18 1.41474)
(9.39825 7.74788e-19 1.36118)
(9.23344 3.41288e-19 1.58372)
(9.31679 2.00632e-18 1.52474)
(9.14194 -1.1811e-18 1.76951)
(9.23283 -4.78975e-18 1.70403)
(9.04872 -1.38131e-20 1.9744)
(9.14741 2.81064e-18 1.90125)
(8.95491 -4.15698e-19 2.20097)
(9.06167 -3.64967e-18 2.11874)
(8.86195 -3.40938e-18 2.4522)
(8.97703 4.04166e-18 2.35921)
(8.77163 -8.09571e-19 2.73179)
(8.8952 -9.49084e-19 2.62591)
(8.68639 5.07236e-18 3.0442)
(8.8185 9.31612e-19 2.92285)
(8.60957 -2.44854e-18 3.39492)
(8.74981 6.52925e-18 3.25482)
(8.54518 -4.16236e-18 3.7908)
(8.69313 -6.54323e-18 3.62783)
(8.49818 8.29071e-19 4.2404)
(8.65374 -5.2071e-18 4.04951)
(8.47519 2.89418e-18 4.75438)
(8.6377 8.7516e-18 4.52947)
(8.48489 1.10845e-17 5.34791)
(8.65509 2.64737e-18 5.07915)
(8.53749 5.89543e-18 6.03613)
(8.7058 3.15944e-18 5.7204)
(8.6372 -2.6039e-18 6.85156)
(8.86213 1.66588e-18 6.44511)
(8.80121 4.04378e-18 7.77901)
(8.89784 -3.98232e-18 7.3999)
(8.8775 -2.53042e-18 8.97697)
(9.64077 4.04227e-18 8.16927)
(8.39176 -7.73251e-18 10.412)
(9.99078 -2.32642e-18 0.135976)
(10.0017 -1.805e-19 0.0929197)
(9.97343 4.78032e-21 0.223681)
(9.9866 1.2929e-18 0.18296)
(9.94865 1.30186e-18 0.310925)
(9.9645 1.47115e-19 0.271795)
(9.917 -8.65321e-20 0.399464)
(9.93745 -2.01154e-19 0.361137)
(9.87892 -6.03883e-19 0.490796)
(9.90446 -2.86958e-18 0.452534)
(9.83481 -3.58418e-20 0.586285)
(9.86546 9.97619e-19 0.547483)
(9.78502 -6.71461e-19 0.687122)
(9.82083 -1.33545e-18 0.647248)
(9.73 0 0.794489)
(9.77107 6.5188e-19 0.752944)
(9.67013 -7.4274e-19 0.909606)
(9.71679 0 0.865796)
(9.60579 7.92217e-19 1.03368)
(9.65828 6.16492e-19 0.987044)
(9.5374 7.02678e-19 1.16796)
(9.59596 -1.24574e-18 1.11787)
(9.46557 -7.5202e-19 1.31388)
(9.53028 -7.73614e-19 1.25956)
(9.39098 -7.12969e-21 1.47296)
(9.46216 -1.45937e-20 1.4136)
(9.31426 -3.21067e-18 1.64686)
(9.39227 -7.18496e-19 1.58157)
(9.2363 -7.14605e-19 1.83756)
(9.32119 4.15611e-19 1.76523)
(9.15826 -8.89513e-19 2.04729)
(9.25019 2.47591e-19 1.96666)
(9.08152 8.72787e-19 2.27855)
(9.18066 -6.2669e-18 2.18815)
(9.00782 6.48147e-18 2.53423)
(9.11418 3.3826e-18 2.43228)
(8.93935 8.07345e-19 2.81785)
(9.05285 3.98219e-18 2.70215)
(8.8789 2.39794e-18 3.13366)
(8.99942 -9.31355e-19 3.00151)
(8.83017 2.44407e-18 3.48687)
(8.9571 6.99025e-18 3.33485)
(8.798 -7.59785e-18 3.88416)
(8.93033 4.00319e-18 3.70785)
(8.78871 2.62266e-18 4.33386)
(8.92545 -1.16629e-17 4.12766)
(8.81056 8.59839e-18 4.84645)
(8.94954 1.41462e-17 4.6032)
(8.87396 -5.33795e-18 5.43654)
(9.01508 -3.86741e-19 5.1453)
(8.99424 -1.00928e-18 6.12066)
(9.12597 -5.25079e-18 5.77299)
(9.17865 2.96076e-19 6.93342)
(9.35309 4.48749e-18 6.4859)
(9.48276 -3.98828e-18 7.87797)
(9.52417 -7.66115e-19 7.39252)
(9.79278 -1.48917e-18 9.37047)
(10.4476 8.66732e-19 8.23212)
(10.4427 -5.12077e-20 10.8792)
(0.0100447 0 -0.0197567)
(-0.0217219 9.1168e-20 -0.00976691)
(0.0965256 0 -0.0345829)
(0.0145902 3.35473e-19 -0.0563334)
(0.235382 0 -0.0366949)
(0.146546 -1.72591e-21 -0.0740361)
(0.39024 -6.27807e-20 -0.0315821)
(0.301029 -2.63742e-19 -0.0705443)
(0.528561 -6.29079e-20 -0.0244104)
(0.453676 2.47319e-19 -0.0582238)
(0.639467 0 -0.0188504)
(0.585669 -3.79367e-19 -0.0467072)
(0.727968 0 -0.0155656)
(0.693535 1.46177e-19 -0.03908)
(0.801704 -1.6898e-20 -0.0137464)
(0.781549 -4.74066e-20 -0.0345793)
(0.865011 -1.62194e-20 -0.0123583)
(0.8549 3.30121e-20 -0.0313998)
(0.918793 0 -0.0109038)
(0.91676 0 -0.0279561)
(0.96391 3.053e-20 -0.00965657)
(0.968241 0 -0.0243517)
(1.00337 3.74159e-20 -0.00825032)
(1.01118 5.99976e-20 -0.0219665)
(1.03504 1.21976e-23 -0.00548733)
(1.0474 7.16533e-21 -0.0180374)
(1.05363 2.57037e-20 -0.00188725)
(1.07454 1.95664e-20 -0.0106879)
(1.06152 5.78261e-20 0.000394482)
(1.08959 -1.94912e-20 -0.00443933)
(1.06614 4.2809e-20 0.00101011)
(1.09567 2.52728e-22 -0.00254097)
(1.06547 1.79107e-20 0.00202972)
(1.09855 -1.71456e-20 0.000691661)
(1.0526 -2.1561e-20 0.00475326)
(1.09682 1.14617e-20 0.00836458)
(1.02887 -2.42477e-20 0.00722891)
(1.08371 -2.53488e-22 0.0153288)
(1.00083 -9.85109e-23 0.00744689)
(1.0566 -7.58397e-21 0.0181746)
(0.976711 2.52525e-21 0.00613542)
(1.02485 1.2328e-20 0.0157399)
(0.966473 -8.79658e-21 0.00330848)
(0.998263 -4.77686e-21 0.00680049)
(0.972418 -7.89255e-21 -0.00143301)
(0.982566 7.75245e-23 -0.00379221)
(0.994447 2.11286e-23 -0.00734509)
(0.978699 2.90409e-21 -0.0144951)
(1.03046 1.16019e-20 -0.0157152)
(0.987946 -2.87e-21 -0.0239749)
(1.08468 2.33304e-20 -0.0280085)
(1.00597 4.03282e-22 -0.0364683)
(1.16263 1.02862e-20 -0.0423436)
(1.03539 3.41676e-22 -0.0529584)
(1.26685 -2.35539e-22 -0.0553401)
(1.08584 9.435e-23 -0.0715094)
(1.39635 2.49553e-22 -0.0643085)
(1.16468 2.59937e-22 -0.0898314)
(1.30766 -5.57686e-23 -0.103754)
(-0.0231234 4.17338e-19 -0.0467525)
(-0.0435778 -8.40614e-22 -0.011729)
(0.0552221 3.57527e-19 -0.100509)
(-0.0344612 9.86009e-19 -0.111733)
(0.19859 -2.4888e-19 -0.113393)
(0.0866965 -5.69962e-19 -0.150032)
(0.365475 3.94388e-20 -0.103291)
(0.233672 -2.64343e-19 -0.144462)
(0.520925 -8.68083e-20 -0.0859062)
(0.385089 6.51553e-20 -0.121938)