/*--------------------------------*- C++ -*----------------------------------*\
| =========                 |                                                 |
| \\      /  F ield         | OpenFOAM: The Open Source CFD Toolbox           |
|  \\    /   O peration     | Version:  5.x                                   |
|   \\  /    A nd           | Web:      www.OpenFOAM.org                      |
|    \\/     M anipulation  |                                                 |
\*---------------------------------------------------------------------------*/
FoamFile
{
    version     2.0;
    format      ascii;
    class       volVectorField;
    location    "1.8";
    object      Force;
}
// * * * * * * * * * * * * * * * * * * * * * * * * * * * * * * * * * * * * * //

dimensions      [1 1 -2 0 0 0 0];

internalField   uniform (0 0 0);

boundaryField
{
    inlet
    {
        type            calculated;
        value           uniform (0 0 0);
    }
    outlet
    {
        type            calculated;
        value           uniform (0 0 0);
    }
    flap
    {
        type            calculated;
        value           nonuniform List<vector> 
33
(
(2.51592 4.91103e-19 -0.20871)
(2.45736 -2.00682e-18 -0.513462)
(2.30613 5.54858e-21 -0.783535)
(2.08504 -1.96805e-18 -0.959023)
(1.83669 -1.93004e-18 -1.04788)
(1.59279 1.18064e-17 -1.07252)
(1.37005 -8.97123e-18 -1.05429)
(1.17674 3.59716e-18 -1.00901)
(1.01328 7.29826e-18 -0.947134)
(0.876002 -1.68849e-18 -0.874526)
(0.758032 0 -0.793968)
(0.649047 -1.56389e-18 -0.704094)
(0.540069 6.14503e-21 -0.600928)
(0.423999 -2.21842e-21 -0.477693)
(0.289445 2.3592e-18 -0.326673)
(0.604076 1.87425e-18 0.5249)
(0.384643 -1.36598e-18 0.33278)
(0.175034 1.05362e-18 0.153083)
(0.0619848 4.74443e-20 -0.0053766)
(0.0616843 -2.23777e-18 -0.013013)
(0.0608004 -1.90356e-19 -0.0209207)
(0.0592602 1.49194e-22 -0.0275082)
(0.0572056 1.91585e-19 -0.0329429)
(0.0549284 -1.90112e-19 -0.0373562)
(0.0526748 3.68992e-24 -0.0409567)
(0.0505978 3.26875e-22 -0.0438917)
(0.0489099 1.80266e-18 -0.0463033)
(0.0476453 1.17549e-37 -0.0482137)
(0.046818 7.05297e-38 -0.0497744)
(0.0460464 8.09045e-22 -0.0506851)
(0.0464511 6.21354e-22 -0.052649)
(0.0457098 1.99286e-18 -0.0519078)
(0.0596199 -1.2587e-21 -0.068464)
)
;
    }
    upperWall
    {
        type            calculated;
        value           uniform (0 0 0);
    }
    lowerWall
    {
        type            calculated;
        value           uniform (0 0 0);
    }
    frontAndBack
    {
        type            empty;
    }
}


// ************************************************************************* //
