/*--------------------------------*- C++ -*----------------------------------*\
| =========                 |                                                 |
| \\      /  F ield         | OpenFOAM: The Open Source CFD Toolbox           |
|  \\    /   O peration     | Version:  5.x                                   |
|   \\  /    A nd           | Web:      www.OpenFOAM.org                      |
|    \\/     M anipulation  |                                                 |
\*---------------------------------------------------------------------------*/
FoamFile
{
    version     2.0;
    format      ascii;
    class       surfaceVectorField;
    location    "1.8";
    object      Uf;
}
// * * * * * * * * * * * * * * * * * * * * * * * * * * * * * * * * * * * * * //

dimensions      [0 1 -1 0 0 0 0];

internalField   nonuniform List<vector> 
5457
(
(9.91457 1.20062e-19 0.0219378)
(9.96807 -3.67752e-21 0.0354386)
(9.82346 1.36803e-19 0.0267592)
(9.9328 3.93496e-21 0.039032)
(9.7251 1.27293e-19 0.0304316)
(9.87532 -2.56044e-19 0.0438096)
(9.61671 0 0.0342762)
(9.80092 0 0.0501875)
(9.49829 0 0.0382259)
(9.71512 6.90843e-20 0.056971)
(9.37011 0 0.0422846)
(9.61918 -7.10157e-20 0.0640267)
(9.2321 4.03413e-20 0.046565)
(9.51257 7.33979e-20 0.0715405)
(9.08385 3.90214e-20 0.0511887)
(9.39474 3.92537e-20 0.0797076)
(8.92474 2.03342e-22 0.0562685)
(9.26525 -3.95596e-20 0.0887055)
(8.75392 0 0.0619156)
(9.12343 1.66391e-19 0.0987144)
(8.57039 0 0.0682464)
(8.96845 2.39208e-21 0.109919)
(8.37298 0 0.0753913)
(8.79929 -1.77906e-19 0.122519)
(8.16036 0 0.0835041)
(8.61475 0 0.136753)
(7.93096 -1.10984e-19 0.0927654)
(8.41345 2.4385e-20 0.1529)
(7.68303 7.59664e-21 0.103385)
(8.19378 3.02053e-19 0.171287)
(7.41457 1.10791e-19 0.115607)
(7.95389 -3.11894e-19 0.192283)
(7.12335 0 0.129713)
(7.69172 -4.5467e-19 0.216304)
(6.8069 0 0.146031)
(7.40492 4.68686e-19 0.243824)
(6.4625 2.94693e-19 0.164935)
(7.0909 0 0.275363)
(6.08724 -1.77057e-19 0.186851)
(6.74681 2.89857e-19 0.311485)
(5.67797 -4.47819e-19 0.212261)
(6.36951 -5.93549e-19 0.352776)
(5.23145 1.77756e-19 0.241704)
(5.95563 -1.19725e-18 0.399826)
(4.74434 5.5505e-19 0.275784)
(5.50155 3.8085e-18 0.453182)
(4.21334 -4.03076e-20 0.315172)
(5.00344 -2.61167e-18 0.513278)
(3.63521 1.40196e-18 0.360564)
(4.45711 6.63123e-19 0.580334)
(3.00692 -2.10202e-18 0.412474)
(3.85793 4.88221e-18 0.654145)
(2.32542 -2.8038e-18 0.470425)
(3.20006 -4.58491e-19 0.733466)
(1.58784 1.03927e-18 0.529862)
(2.47523 -6.01357e-18 0.814012)
(0.784549 -4.13642e-18 0.553069)
(1.64176 7.63601e-18 0.887217)
(0.889401 -1.4075e-17 0.908685)
(10.0062 -1.19338e-19 0.0418768)
(9.99933 -6.2113e-19 0.0328435)
(9.98332 -3.94614e-19 0.0526853)
(9.99348 1.55465e-20 0.0487481)
(9.94622 -3.77814e-19 0.0615467)
(9.96893 -1.29642e-19 0.0602544)
(9.89668 7.05246e-20 0.0712153)
(9.92754 0 0.0730411)
(9.83462 -4.78283e-21 0.0815313)
(9.87367 6.90916e-20 0.086731)
(9.76024 5.24152e-21 0.092448)
(9.80877 7.05573e-20 0.101086)
(9.67356 7.1662e-20 0.104198)
(9.73255 -2.20691e-19 0.116379)
(9.5743 -4.08385e-20 0.117063)
(9.64459 3.79676e-19 0.132981)
(9.46197 1.30491e-19 0.131313)
(9.54454 -3.90895e-20 0.151244)
(9.33587 1.65735e-19 0.14722)
(9.43183 2.48065e-19 0.171518)
(9.1951 -1.78838e-19 0.165072)
(9.30573 3.44522e-19 0.194168)
(9.03861 -1.74711e-19 0.185198)
(9.16539 -9.72856e-19 0.2196)
(8.86518 2.482e-20 0.207987)
(9.00973 7.35791e-19 0.248295)
(8.67333 4.42318e-19 0.233893)
(8.83751 -1.70806e-20 0.280818)
(8.46137 -2.81596e-20 0.263439)
(8.64728 -7.88277e-19 0.317832)
(8.22738 -8.79825e-19 0.297219)
(8.43738 4.29924e-19 0.360092)
(7.96914 2.97467e-20 0.335908)
(8.20587 3.74315e-19 0.408462)
(7.68417 4.60837e-19 0.380264)
(7.95058 -4.38803e-19 0.463929)
(7.3697 0 0.431126)
(7.66904 0 0.527608)
(7.02262 -1.40647e-19 0.489396)
(7.35846 2.51506e-19 0.600733)
(6.63949 -1.35156e-18 0.556017)
(7.01568 1.284e-19 0.684644)
(6.2165 2.50456e-18 0.631945)
(6.6371 -2.9024e-18 0.78077)
(5.74944 5.55063e-19 0.718104)
(6.21858 6.55118e-18 0.8906)
(5.23348 -1.86833e-18 0.815353)
(5.75534 -2.98454e-18 1.01563)
(4.66283 4.18669e-18 0.924519)
(5.24137 1.05978e-18 1.15736)
(4.02986 6.47594e-18 1.04641)
(4.6688 -2.53906e-18 1.31745)
(3.32251 -3.64452e-18 1.18247)
(4.02628 1.06819e-17 1.49823)
(2.51605 4.37725e-19 1.33847)
(3.29596 -6.19292e-18 1.70504)
(1.55053 -3.02218e-18 1.55972)
(2.43364 2.07069e-17 1.95474)
(1.47935 -2.33214e-17 2.34247)
(9.99926 -4.73754e-19 0.042754)
(9.9971 -1.62541e-20 0.033168)
(9.98046 2.7748e-19 0.0595042)
(9.98889 -4.48535e-19 0.0568456)
(9.94722 2.51115e-19 0.0745009)
(9.9656 7.35343e-19 0.0751235)
(9.9026 0 0.0905713)
(9.92716 0 0.0937829)
(9.84692 1.44461e-19 0.107778)
(9.87686 0 0.113618)
(9.78021 -1.61156e-19 0.126111)
(9.8162 6.17284e-22 0.134527)
(9.70247 9.8968e-20 0.145885)
(9.74507 -1.47769e-19 0.156809)
(9.6135 3.73487e-19 0.16752)
(9.66316 2.29966e-19 0.180961)
(9.51289 8.38519e-20 0.191443)
(9.57018 -1.55736e-19 0.207493)
(9.40004 4.28603e-19 0.218085)
(9.46567 5.86634e-22 0.23691)
(9.27419 -4.73497e-19 0.247915)
(9.34904 3.42222e-19 0.269733)
(9.13445 -3.16958e-20 0.281475)
(9.21956 -7.07738e-19 0.306547)
(8.97977 6.80581e-19 0.319407)
(9.07637 7.35978e-19 0.348034)
(8.8089 -1.26122e-18 0.362467)
(8.91845 2.92674e-20 0.395013)
(8.6204 -3.09333e-19 0.411531)
(8.74465 -1.19046e-18 0.448442)
(8.4126 1.68312e-18 0.467604)
(8.5536 8.29007e-19 0.509427)
(8.18359 -1.07553e-19 0.531836)
(8.3437 8.8263e-19 0.579241)
(7.93117 -8.92492e-19 0.605542)
(8.11318 -7.96092e-19 0.659358)
(7.65286 2.55469e-19 0.69021)
(7.86001 0 0.751477)
(7.34578 5.17975e-19 0.78749)
(7.58184 6.0681e-21 0.85754)
(7.00656 -1.46795e-18 0.899202)
(7.27591 2.66168e-19 0.979739)
(6.63126 1.27824e-18 1.02733)
(6.93895 2.08669e-18 1.12055)
(6.21511 2.88361e-18 1.174)
(6.56694 -2.09192e-18 1.28278)
(5.75218 -8.13736e-21 1.34151)
(6.15497 -4.16421e-18 1.46967)
(5.23439 -5.66785e-18 1.53274)
(5.6964 4.86061e-18 1.68507)
(4.65006 1.72444e-18 1.75209)
(5.1819 -5.59697e-18 1.93426)
(3.98104 8.08859e-18 2.00823)
(4.59818 4.58217e-18 2.22568)
(3.19319 1.36623e-17 2.31303)
(3.92115 7.78955e-19 2.5776)
(2.27895 -1.34279e-18 2.76762)
(3.167 1.22515e-17 2.98598)
(2.0534 -1.46155e-17 3.77181)
(9.99469 6.6997e-22 0.0476179)
(9.99565 4.83427e-19 0.0353897)
(9.97602 3.53761e-20 0.0716588)
(9.98543 5.84284e-19 0.0648936)
(9.94353 4.68501e-19 0.0935544)
(9.96185 -9.38103e-20 0.0896764)
(9.89968 0 0.116008)
(9.92416 0 0.114198)
(9.84521 -1.43845e-19 0.139618)
(9.87494 0 0.139963)
(9.78022 1.11116e-20 0.164605)
(9.81567 1.38668e-19 0.167156)
(9.70473 -9.45928e-21 0.191412)
(9.74632 4.37269e-19 0.196131)
(9.61861 -3.06709e-19 0.220606)
(9.66668 -7.49107e-19 0.227481)
(9.52157 -2.36123e-19 0.252773)
(9.57651 1.51749e-19 0.261845)
(9.41313 -7.96138e-20 0.288506)
(9.47546 2.41766e-19 0.299865)
(9.2927 8.89818e-20 0.328437)
(9.36305 -1.166e-18 0.342196)
(9.15957 8.58601e-20 0.373289)
(9.23871 7.72595e-19 0.389566)
(9.01292 7.19827e-20 0.423913)
(9.10176 0 0.442822)
(8.85182 7.88643e-20 0.481324)
(8.9514 -7.25648e-19 0.502975)
(8.67515 -1.7094e-20 0.546703)
(8.78678 1.54386e-18 0.571233)
(8.48165 2.92516e-20 0.621414)
(8.60688 -2.4588e-18 0.648994)
(8.26984 1.65828e-19 0.707033)
(8.41051 1.66139e-18 0.737864)
(8.03806 1.09498e-19 0.805388)
(8.19634 1.86592e-21 0.839716)
(7.78442 -2.48955e-19 0.918608)
(7.96291 -1.8343e-18 0.956748)
(7.50668 -2.4153e-19 1.04913)
(7.70852 1.63083e-18 1.09154)
(7.20215 3.84055e-18 1.19976)
(7.43115 0 1.24712)
(6.86743 -1.32514e-18 1.37376)
(7.12832 3.7846e-18 1.427)
(6.4983 -9.15116e-18 1.57499)
(6.79683 -4.99648e-18 1.63543)
(6.08908 7.77239e-19 1.80809)
(6.43274 -4.71103e-18 1.87763)
(5.63179 4.83094e-18 2.07907)
(6.03051 4.26237e-18 2.16024)
(5.11469 -2.66808e-18 2.39672)
(5.5821 0 2.49226)
(4.52168 -2.68456e-18 2.77759)
(5.07792 -1.12016e-17 2.8864)
(3.81284 -6.77364e-19 3.22885)
(4.48201 1.96981e-17 3.37599)
(3.07319 -2.34234e-18 3.86824)
(3.94189 -9.76989e-18 3.8696)
(2.6988 -1.5767e-18 4.98841)
(9.99219 1.06914e-18 0.0532337)
(9.99486 0 0.0386455)
(9.97298 4.40115e-19 0.0831387)
(9.98337 5.57221e-19 0.0731795)
(9.94105 -5.60471e-19 0.110873)
(9.95954 -5.72825e-19 0.103992)
(9.8979 0 0.138954)
(9.9225 0 0.134305)
(9.84445 2.85384e-19 0.168382)
(9.8744 0 0.165835)
(9.7809 5.70826e-19 0.199601)
(9.81657 5.58379e-19 0.19909)
(9.70724 -3.25305e-19 0.233145)
(9.74899 4.76885e-21 0.23454)
(9.62336 -2.73671e-19 0.269676)
(9.6715 -5.99209e-19 0.272847)
(9.52903 6.31532e-19 0.309891)
(9.58393 -2.65006e-22 0.314756)
(9.42385 -8.70352e-19 0.354501)
(9.48598 6.38821e-19 0.361022)
(9.30737 -4.47921e-19 0.404259)
(9.37728 -1.00203e-18 0.412418)
(9.17901 6.73343e-19 0.460021)
(9.25737 5.15786e-19 0.469795)
(9.03813 -8.10348e-19 0.522791)
(9.12571 7.10844e-19 0.534133)
(8.88401 7.78034e-19 0.593769)
(8.98168 -1.52318e-18 0.606596)
(8.71586 -9.64611e-19 0.674372)
(8.82463 1.58268e-18 0.688572)
(8.53276 -7.59755e-19 0.766242)
(8.65389 -2.42161e-18 0.7817)
(8.33365 1.47127e-18 0.871281)
(8.46863 1.65944e-18 0.887862)
(8.11737 -1.96994e-18 0.991713)
(8.26795 -3.72473e-21 1.00924)
(7.88263 9.57576e-20 1.13018)
(8.05088 -1.83385e-18 1.14844)
(7.62794 1.84911e-18 1.2898)
(7.81633 -1.82141e-18 1.30855)
(7.35148 0 1.47424)
(7.56315 3.76972e-18 1.49329)
(7.05089 0 1.68796)
(7.28981 -4.88234e-19 1.70711)
(6.72316 -5.65074e-19 1.93646)
(6.99437 0 1.9555)
(6.36422 -1.14087e-18 2.22671)
(6.67444 -9.01675e-18 2.24543)
(5.96831 -5.79322e-19 2.56779)
(6.32692 7.99796e-18 2.58592)
(5.52696 -8.4805e-18 2.9716)
(5.94676 8.80942e-18 2.98897)
(5.03317 1.07218e-17 3.45944)
(5.53333 -2.61456e-17 3.46706)
(4.43601 1.15994e-17 4.02516)
(5.0247 2.81781e-17 4.075)
(3.90203 -8.45853e-18 4.76931)
(4.75272 -9.07507e-18 4.57781)
(3.4031 0 5.947)
(9.99082 -5.01278e-19 0.059292)
(9.99452 -9.81047e-19 0.0424669)
(9.97115 -4.80825e-19 0.0945289)
(9.98231 -5.22366e-19 0.0816656)
(9.93985 0 0.127955)
(9.9584 6.28656e-20 0.118037)
(9.8977 0 0.161747)
(9.9222 0 0.153962)
(9.84558 2.84221e-19 0.197057)
(9.87548 0 0.191087)
(9.78375 -1.86583e-20 0.234505)
(9.81938 2.21848e-21 0.230194)
(9.7122 -2.80773e-19 0.274713)
(9.75387 -2.86309e-19 0.271893)
(9.63085 -3.14489e-19 0.318418)
(9.67888 -2.95639e-19 0.316908)
(9.53951 1.85622e-20 0.366413)
(9.59425 -6.44899e-21 0.366071)
(9.43788 4.77817e-19 0.419514)
(9.49979 3.15955e-19 0.420233)
(9.32558 -1.10293e-20 0.478589)
(9.3952 1.6473e-19 0.480269)
(9.20217 5.56438e-19 0.544615)
(9.28013 -1.68989e-19 0.547136)
(9.06714 -3.98772e-20 0.618728)
(9.15417 8.84393e-19 0.621931)
(8.91996 -6.66408e-19 0.702279)
(9.01683 -2.35443e-18 0.705942)
(8.76004 5.90766e-20 0.796867)
(8.86766 2.88603e-18 0.800693)
(8.58681 6.43164e-20 0.904361)
(8.7062 3.60954e-20 0.90799)
(8.3996 1.57842e-19 1.02693)
(8.53198 -1.53286e-18 1.02994)
(8.19769 1.04119e-19 1.1671)
(8.3445 1.82055e-21 1.16898)
(7.98029 -3.74642e-18 1.32793)
(8.14324 0 1.32802)
(7.7466 1.68055e-19 1.51308)
(7.92768 -1.28752e-19 1.51056)
(7.49574 3.23042e-18 1.72694)
(7.69744 3.82046e-18 1.72084)
(7.22655 -4.83009e-19 1.97494)
(7.45204 -7.30985e-18 1.96406)
(6.93754 -8.5043e-18 2.26384)
(7.19093 3.84452e-18 2.24663)
(6.62694 1.72385e-19 2.60233)
(6.91353 -8.42544e-18 2.57671)
(6.29248 1.73304e-17 3.00158)
(6.61961 1.65852e-17 2.96483)
(5.93004 -8.59677e-18 3.47456)
(6.30745 4.31224e-19 3.4249)
(5.54475 -9.31013e-18 4.04455)
(5.98958 -9.59039e-18 3.96445)
(5.07141 8.81248e-18 4.68876)
(5.5621 9.1237e-19 4.66931)
(4.7216 -1.25608e-19 5.46579)
(5.56514 -1.34401e-19 5.1256)
(4.1292 -1.4722e-17 6.66971)
(9.9902 -9.93214e-19 0.0656064)
(9.99448 -9.7888e-19 0.0465452)
(9.97033 3.43471e-20 0.105839)
(9.98193 9.39695e-19 0.090241)
(9.93974 6.15407e-20 0.144666)
(9.95814 6.28965e-20 0.131771)
(9.89886 0 0.183954)
(9.92297 0 0.173045)
(9.84838 -2.82078e-19 0.2249)
(9.87789 0 0.215577)
(9.78857 -2.71187e-19 0.268284)
(9.82376 -8.23652e-19 0.260319)
(9.71948 -3.01324e-19 0.314832)
(9.76065 5.63905e-19 0.308013)
(9.64107 1.7836e-20 0.365361)
(9.68851 2.8959e-19 0.35945)
(9.55318 2.97008e-19 0.42075)
(9.60726 -2.95743e-19 0.41554)
(9.4556 0 0.481909)
(9.51675 0 0.47721)
(9.34806 9.00987e-22 0.549803)
(9.41679 0 0.545419)
(9.23023 1.76957e-19 0.625511)
(9.30717 8.32173e-19 0.621219)
(9.10174 -1.48491e-18 0.710282)
(9.18756 -5.06649e-19 0.705804)
(8.9622 1.28379e-18 0.805581)
(9.05763 -1.62762e-18 0.800572)
(8.81122 2.81912e-18 0.913135)
(8.91708 2.93241e-18 0.907166)
(8.64845 -1.58524e-18 1.03497)
(8.76567 1.17393e-19 1.0275)
(8.47359 -1.66679e-18 1.17348)
(8.60318 -1.58515e-18 1.16382)
(8.28634 -1.02422e-19 1.33144)
(8.42949 -1.16347e-19 1.3188)
(8.08642 3.61079e-18 1.51218)
(8.24454 0 1.49555)
(7.87365 3.57962e-18 1.71978)
(8.04835 6.8906e-18 1.69786)
(7.64805 -6.83051e-18 1.95917)
(7.84122 9.85876e-20 1.93034)
(7.40969 -2.89426e-18 2.23645)
(7.6237 -6.99959e-18 2.19869)
(7.15875 3.81905e-18 2.55921)
(7.39667 7.76943e-18 2.50997)
(6.89583 8.04537e-18 2.93707)
(7.16138 -1.48372e-17 2.87298)
(6.62235 -1.75767e-19 3.38222)
(6.92036 1.54606e-17 3.29875)
(6.33834 -5.78197e-19 3.90667)
(6.67427 -1.53715e-17 3.80235)
(6.06032 4.40797e-19 4.53418)
(6.45202 2.21398e-17 4.3821)
(5.70988 -7.93293e-18 5.22678)
(6.09581 -1.24596e-18 5.16345)
(5.50144 -1.57133e-17 5.98922)
(6.34956 -1.15533e-18 5.54358)
(4.84519 -2.76326e-17 7.19555)
(9.99 9.92069e-19 0.0720096)
(9.99459 5.39484e-21 0.0507058)
(9.97019 9.49248e-19 0.116985)
(9.98197 3.5134e-21 0.098794)
(9.94042 0 0.160899)
(9.95853 8.68526e-19 0.145153)
(9.901 0 0.205427)
(9.92454 1.27826e-19 0.191473)
(9.85241 -5.58053e-19 0.251782)
(9.88126 0 0.239185)
(9.79491 3.83569e-20 0.300858)
(9.82937 2.69565e-19 0.289327)
(9.72862 1.15017e-18 0.353472)
(9.76897 -2.7534e-19 0.342736)
(9.65351 -3.46517e-20 0.410514)
(9.7 5.85933e-19 0.400281)
(9.56949 -5.87894e-19 0.472936)
(9.62247 -6.03322e-19 0.462938)
(9.47645 0 0.541713)
(9.53634 6.09485e-19 0.531689)
(9.37423 8.45843e-19 0.617893)
(9.44147 -6.34888e-19 0.607552)
(9.26262 1.26335e-19 0.702649)
(9.33781 1.69876e-19 0.691672)
(9.14135 -6.67843e-19 0.797321)
(9.22515 4.85195e-19 0.78534)
(9.01019 9.4252e-20 0.903475)
(9.10327 -1.6941e-19 0.890028)
(8.86897 1.85223e-19 1.02294)
(8.97208 -8.58071e-20 1.00747)
(8.71752 9.23133e-20 1.15785)
(8.83152 1.43743e-21 1.13966)
(8.55585 -1.26354e-20 1.31073)
(8.68163 0 1.28896)
(8.38404 -1.23005e-20 1.48456)
(8.52256 -3.03536e-18 1.45814)
(8.20233 3.36516e-18 1.68287)
(8.35473 3.17647e-18 1.65051)
(8.01116 3.33745e-18 1.90998)
(8.17869 3.42944e-18 1.87001)
(7.81131 -1.41969e-19 2.17115)
(7.99536 3.1141e-20 2.12149)
(7.60406 3.77259e-18 2.47292)
(7.80622 -1.86629e-19 2.41091)
(7.39125 -1.09324e-17 2.82331)
(7.61341 1.06268e-17 2.74565)
(7.1757 -7.42529e-18 3.23216)
(7.42002 -2.1723e-17 3.13476)
(6.96204 4.38117e-19 3.71181)
(7.23109 7.41655e-18 3.58902)
(6.75327 6.76157e-18 4.27223)
(7.04791 -7.89682e-18 4.12448)
(6.57533 2.06254e-17 4.93631)
(6.91762 1.2622e-17 4.72703)
(6.34023 6.74173e-18 5.65528)
(6.62403 6.3312e-18 5.56636)
(6.22651 -1.76795e-17 6.38177)
(7.08844 -1.14301e-18 5.86512)
(5.53136 -1.26334e-18 7.57291)
(9.99002 -9.83729e-19 0.0783852)
(9.99479 9.40867e-19 0.0548567)
(9.97053 -5.85525e-20 0.127889)
(9.98228 -9.67879e-19 0.107217)
(9.94172 9.80976e-19 0.176589)
(9.9594 -1.10689e-18 0.158121)
(9.9039 1.2526e-19 0.226084)
(9.92673 1.14318e-18 0.209184)
(9.8574 8.33425e-19 0.277599)
(9.88539 0 0.261809)
(9.80249 -5.45067e-20 0.332101)
(9.83595 5.47401e-19 0.317083)
(9.73929 -8.24425e-19 0.390479)
(9.7785 -1.10494e-20 0.375914)
(9.6678 -4.51418e-21 0.453688)
(9.71301 5.72953e-19 0.439241)
(9.58801 6.16236e-19 0.522731)
(9.63954 -2.35325e-18 0.508079)
(9.49989 -4.68271e-20 0.598631)
(9.55818 6.09229e-19 0.583453)
(9.40341 -1.29831e-18 0.682503)
(9.46885 -3.25663e-19 0.666422)
(9.2985 5.33506e-19 0.775613)
(9.37157 -9.8188e-19 0.758205)
(9.18502 9.74524e-19 0.879382)
(9.26635 1.16714e-18 0.860194)
(9.06289 -3.484e-19 0.995444)
(9.15309 1.69316e-19 0.973908)
(8.93213 -2.68539e-19 1.12571)
(9.03185 -2.5658e-21 1.10113)
(8.79282 -9.10389e-20 1.27238)
(8.90283 -3.3279e-18 1.24395)
(8.6452 -3.06345e-18 1.43805)
(8.76627 2.92146e-18 1.40475)
(8.4897 2.26881e-19 1.62581)
(8.62263 -3.12056e-18 1.58638)
(8.32706 3.24764e-18 1.83933)
(8.47269 3.36994e-18 1.79224)
(8.15828 8.92573e-20 2.08306)
(8.31752 1.03304e-19 2.02637)
(7.98489 -1.28605e-20 2.36243)
(8.15866 -3.20599e-18 2.29371)
(7.80921 6.72415e-18 2.68409)
(7.99842 3.22208e-18 2.60027)
(7.63455 -2.24267e-19 3.05622)
(7.84 6.69402e-18 2.95348)
(7.46566 -6.94516e-18 3.48851)
(7.68798 -8.77246e-19 3.36238)
(7.30982 -8.12345e-19 3.99279)
(7.5498 -7.32584e-20 3.83714)
(7.17158 -2.36687e-18 4.57689)
(7.42578 -6.18189e-18 4.3949)
(7.08335 -1.60291e-18 5.26198)
(7.38123 5.47221e-18 5.00779)
(6.95388 0 5.99454)
(7.14477 -5.20719e-18 5.88941)
(6.89455 1.28347e-17 6.68514)
(7.77669 0 6.1214)
(6.18159 1.03718e-17 7.85575)
(9.99022 9.20017e-19 0.084649)
(9.99506 8.80409e-19 0.0589257)
(9.97123 -2.01985e-18 0.138479)
(9.98283 -5.97423e-20 0.115431)
(9.9435 -8.97886e-19 0.191682)
(9.96072 -9.9478e-19 0.170618)
(9.90739 9.95017e-19 0.245856)
(9.92949 1.1383e-18 0.226125)
(9.86315 -2.75671e-19 0.302251)
(9.89022 -2.60272e-19 0.283377)
(9.81103 5.80324e-19 0.36188)
(9.8434 -5.36924e-19 0.343489)
(9.75116 1.3983e-18 0.425695)
(9.78911 8.27652e-19 0.407422)
(9.6836 -1.8291e-18 0.494696)
(9.72734 7.0989e-21 0.476163)
(9.60843 -2.31007e-18 0.569922)
(9.65829 -1.19221e-18 0.550752)
(9.52569 3.14464e-19 0.652435)
(9.58209 5.96895e-19 0.632253)
(9.4354 -1.92337e-20 0.743394)
(9.49877 3.08059e-21 0.721769)
(9.33762 -3.13988e-19 0.844137)
(9.40832 -3.53306e-21 0.82056)
(9.2324 3.45657e-19 0.956152)
(9.31097 0 0.930072)
(9.11985 5.13125e-19 1.08111)
(9.20681 1.67391e-18 1.05187)
(9.00013 -3.11028e-18 1.22098)
(9.09599 -1.17757e-18 1.18777)
(8.87357 -2.33725e-19 1.37801)
(8.97898 -5.69064e-18 1.33992)
(8.74068 2.7917e-18 1.55482)
(8.85628 8.6264e-18 1.51071)
(8.60221 9.93688e-20 1.75455)
(8.72864 -3.35297e-18 1.70301)
(8.45929 1.89221e-19 1.98092)
(8.59715 2.98091e-18 1.92021)
(8.31352 -3.21834e-18 2.23841)
(8.46337 -2.99877e-18 2.16639)
(8.1671 6.01348e-20 2.53246)
(8.32941 -3.19568e-18 2.44645)
(8.02325 3.21471e-18 2.86964)
(8.1983 9.71241e-18 2.76633)
(7.88648 6.02613e-18 3.25802)
(8.07419 -1.73862e-20 3.13331)
(7.76304 6.01639e-18 3.70696)
(7.96272 4.06809e-19 3.55623)
(7.66228 -5.35581e-18 4.22775)
(7.87346 -1.49672e-18 4.04452)
(7.58976 1.39596e-18 4.82617)
(7.80491 -5.35519e-18 4.61668)
(7.57999 1.96957e-18 5.5227)
(7.83871 7.00799e-18 5.23263)
(7.5479 -5.39447e-18 6.26432)
(7.65784 3.3144e-18 6.14344)
(7.5163 -1.29582e-18 6.93545)
(8.41948 -4.40974e-18 6.33778)
(6.80257 4.54863e-18 8.0925)
(9.99057 -1.17939e-19 0.090727)
(9.99532 1.78797e-18 0.0628484)
(9.97229 9.45907e-19 0.148688)
(9.9836 -5.97828e-20 0.123348)
(9.94581 1.08714e-18 0.206122)
(9.96251 9.83285e-19 0.182573)
(9.91153 -1.458e-19 0.264683)
(9.93291 -6.30242e-19 0.242231)
(9.86971 -5.27048e-19 0.32566)
(9.89587 5.09849e-19 0.303813)
(9.82056 -2.64118e-19 0.390099)
(9.85186 -2.67106e-19 0.368455)
(9.76424 -5.79545e-19 0.458989)
(9.80093 -5.50352e-19 0.437147)
(9.70091 6.23544e-19 0.533358)
(9.74312 -7.63415e-21 0.510894)
(9.63071 1.7483e-18 0.614278)
(9.67875 5.90182e-19 0.59076)
(9.55376 2.75705e-19 0.702856)
(9.60801 5.98565e-19 0.677855)
(9.47012 1.84934e-20 0.800285)
(9.531 -3.07658e-19 0.773332)
(9.37994 3.11053e-19 0.90793)
(9.44772 3.16192e-19 0.878457)
(9.28342 1.35403e-18 1.02732)
(9.35863 0 0.994694)
(9.18082 -5.7387e-20 1.16014)
(9.26395 1.33542e-18 1.12365)
(9.07251 -3.82096e-18 1.30839)
(9.16388 -2.26019e-20 1.26714)
(8.9591 3.35341e-18 1.47434)
(9.05925 -6.52508e-18 1.42729)
(8.84135 2.34427e-18 1.66063)
(8.95074 8.46164e-18 1.60651)
(8.72034 -4.0831e-19 1.87035)
(8.83943 -2.90969e-18 1.80764)
(8.59758 -2.55421e-19 2.1072)
(8.72673 2.7946e-18 2.03403)
(8.47514 -2.98187e-18 2.3756)
(8.61459 -5.88678e-18 2.28968)
(8.35588 6.51623e-18 2.68089)
(8.50567 2.88717e-18 2.57938)
(8.24378 6.47965e-18 3.02944)
(8.40361 6.13294e-18 2.9089)
(8.14426 -5.6176e-18 3.42903)
(8.31333 -1.74091e-20 3.28525)
(8.06474 -7.09383e-18 3.88863)
(8.24134 -1.11378e-17 3.71696)
(8.01603 -1.44641e-18 4.41923)
(8.19889 5.29398e-18 4.2128)
(8.00486 0 5.02508)
(8.18275 2.41551e-18 4.79267)
(8.06331 8.20544e-18 5.72854)
(8.28741 -6.08211e-20 5.40913)
(8.12501 5.82545e-18 6.4798)
(8.16543 4.53833e-18 6.3365)
(8.11048 2.49051e-18 7.15941)
(9.02763 -1.51744e-18 6.5325)
(7.40983 7.27238e-18 8.31511)
(9.99103 1.81085e-18 0.0965421)
(9.99554 6.57867e-21 0.0665822)
(9.97371 0 0.158417)
(9.98453 0 0.130862)
(9.94872 -7.68656e-19 0.219817)
(9.96469 9.64873e-19 0.193874)
(9.91651 4.84098e-20 0.282475)
(9.93689 -7.53256e-19 0.257405)
(9.87731 7.55352e-19 0.347728)
(9.90224 -5.07095e-19 0.323019)
(9.83134 -5.58742e-19 0.416649)
(9.86121 2.60778e-19 0.391876)
(9.77879 3.16189e-20 0.490234)
(9.81384 -1.26791e-20 0.464977)
(9.71989 -3.06458e-20 0.569525)
(9.76022 1.66195e-18 0.543323)
(9.65485 -5.61101e-19 0.655627)
(9.70072 -8.20243e-21 0.627998)
(9.58387 0 0.749693)
(9.63562 -1.16205e-18 0.720154)
(9.50708 0 0.852934)
(9.56507 1.1809e-18 0.820985)
(9.42476 0 0.966719)
(9.48923 0 0.931731)
(9.33727 0 1.0926)
(9.40864 0 1.05385)
(9.24497 1.3518e-18 1.23229)
(9.32366 0 1.18901)
(9.14841 -2.80873e-18 1.38772)
(9.23472 1.33511e-18 1.33899)
(9.04844 -1.2421e-18 1.56116)
(9.14275 -4.73244e-18 1.50583)
(8.9461 3.08279e-18 1.7552)
(9.04868 -5.90795e-19 1.69191)
(8.84279 3.51244e-19 1.9729)
(8.95387 3.05712e-18 1.90003)
(8.74036 -2.90652e-18 2.21786)
(8.86005 0 2.13345)
(8.64132 3.0407e-20 2.49436)
(8.76956 -2.88992e-18 2.39603)
(8.54909 2.51758e-18 2.80752)
(8.6855 2.89438e-18 2.69232)
(8.46824 -3.66153e-19 3.16351)
(8.61204 -3.66212e-19 3.02791)
(8.40503 -5.47297e-18 3.5697)
(8.55479 -6.5923e-18 3.40946)
(8.36772 1.06106e-18 4.03471)
(8.52093 -3.47629e-19 3.84519)
(8.36814 9.2231e-18 4.56933)
(8.52313 6.73854e-18 4.34328)
(8.41497 2.42564e-18 5.17794)
(8.55727 -4.17829e-18 4.92499)
(8.53391 -4.11318e-18 5.88696)
(8.72586 4.2516e-18 5.54257)
(8.69186 -1.26625e-18 6.64946)
(8.67216 -3.96648e-18 6.47146)
(8.69762 4.37298e-18 7.37603)
(9.61185 -7.90054e-18 6.71789)
(8.03372 7.23182e-18 8.54209)
(9.99153 -1.80565e-18 0.102037)
(9.99575 -1.84208e-18 0.0701103)
(9.97531 9.86226e-19 0.167575)
(9.98554 0 0.137911)
(9.95197 9.45177e-19 0.232674)
(9.96708 2.44514e-19 0.204455)
(9.92194 -1.30437e-18 0.299141)
(9.94117 7.92957e-22 0.27159)
(9.88548 -9.87893e-19 0.368361)
(9.90898 -2.54035e-18 0.340943)
(9.84283 8.02527e-19 0.441417)
(9.87101 1.29555e-18 0.413681)
(9.79427 1.64869e-18 0.51931)
(9.82735 3.73282e-21 0.490806)
(9.74002 1.65662e-18 0.603087)
(9.77813 5.57489e-19 0.573333)
(9.68034 -6.28228e-19 0.693876)
(9.72372 5.60055e-19 0.662357)
(9.61549 5.61851e-20 0.792856)
(9.66445 -1.98136e-20 0.759048)
(9.54576 1.16383e-18 0.901249)
(9.60058 2.12948e-20 0.864603)
(9.47151 0 1.0204)
(9.53247 5.9261e-19 0.980254)
(9.39322 0 1.15187)
(9.46059 -1.21941e-18 1.10743)
(9.31149 0 1.29736)
(9.38546 2.47608e-18 1.24779)
(9.22699 -6.62369e-19 1.45876)
(9.30783 -1.2552e-18 1.4031)
(9.14069 -4.03531e-18 1.63825)
(9.22867 -1.15438e-20 1.57532)
(9.05391 -5.89029e-19 1.83835)
(9.14914 -3.34572e-18 1.76674)
(8.96833 2.68414e-18 2.06203)
(9.07083 2.70955e-18 1.98004)
(8.88614 0 2.31275)
(8.99577 6.49989e-19 2.21835)
(8.81027 0 2.59457)
(8.92665 -6.48841e-19 2.48531)
(8.74458 0 2.91234)
(8.86698 5.19121e-18 2.78525)
(8.6942 -6.58281e-18 3.27195)
(8.82135 -5.1353e-18 3.12341)
(8.66603 -1.52705e-18 3.68038)
(8.79599 -4.3797e-19 3.50607)
(8.66912 5.25296e-18 4.14585)
(8.79866 -1.93432e-18 3.94105)
(8.71602 -6.46948e-18 4.67928)
(8.84328 8.80383e-18 4.43628)
(8.81876 -2.70985e-18 5.28697)
(8.92628 -1.07202e-17 5.01369)
(8.99447 4.46773e-18 6.00014)
(9.15272 7.90627e-18 5.63236)
(9.25529 -1.04966e-17 6.77342)
(9.1827 -2.58187e-18 6.54254)
(9.31334 -1.18583e-18 7.60002)
(10.1785 -1.44839e-17 6.89158)
(8.72957 7.74511e-18 8.78869)
(9.99209 0 0.10718)
(9.99596 1.80801e-18 0.0734078)
(9.97704 -7.37126e-19 0.176122)
(9.98664 1.15957e-19 0.144467)
(9.9554 -7.05726e-19 0.244659)
(9.96963 1.09071e-19 0.214293)
(9.92757 -1.28577e-18 0.314654)
(9.94561 7.93745e-22 0.284775)
(9.89389 -1.83099e-19 0.387517)
(9.91592 -2.57977e-19 0.357563)
(9.85467 4.7293e-19 0.464332)
(9.88115 5.15346e-19 0.433818)
(9.81024 -1.07949e-18 0.546114)
(9.84133 -9.12874e-21 0.514555)
(9.76083 -5.40731e-19 0.633926)
(9.79664 -5.4655e-19 0.600824)
(9.70673 1.16004e-18 0.7289)
(9.74748 -1.65065e-18 0.693721)
(9.64827 -5.34955e-20 0.832209)
(9.69422 1.94145e-20 0.7944)
(9.58588 -5.43277e-19 0.945072)
(9.63725 -2.09035e-20 0.904025)
(9.52 -6.53195e-19 1.06882)
(9.57701 1.76053e-18 1.02385)
(9.45113 1.30734e-18 1.20496)
(9.514 -2.4081e-18 1.15529)
(9.38001 1.17602e-18 1.35517)
(9.44884 3.69452e-18 1.29991)
(9.30757 -5.90515e-19 1.52129)
(9.38249 -2.48213e-18 1.45943)
(9.23496 6.48117e-19 1.70541)
(9.31612 6.45293e-19 1.63573)
(9.1637 9.99992e-21 1.90991)
(9.25106 1.26383e-18 1.83097)
(9.0957 6.55587e-19 2.1376)
(9.18909 0 2.04768)
(9.03344 -5.46274e-21 2.39177)
(9.13248 2.53465e-18 2.28878)
(8.98022 4.56575e-18 2.67619)
(9.08422 -2.58401e-20 2.55766)
(8.94028 6.85116e-20 2.99541)
(9.04815 3.95318e-18 2.85834)
(8.91922 9.97297e-19 3.35491)
(9.02927 -3.66649e-19 3.19565)
(8.9245 -8.14965e-19 3.76121)
(9.03428 1.52784e-18 3.57533)
(8.96595 1.41457e-18 4.2222)
(9.07154 -5.09754e-18 4.00472)
(9.05683 5.04416e-18 4.74909)
(9.15593 7.911e-19 4.4916)
(9.21377 -7.66304e-19 5.35054)
(9.28628 -4.11614e-18 5.05657)
(9.44672 1.19707e-18 6.06108)
(9.56462 3.59928e-18 5.67041)
(9.81559 -6.74017e-18 6.83954)
(9.69582 -7.20005e-18 6.53478)
(10.0037 -1.41372e-19 7.8348)
(10.7283 3.91389e-19 7.01911)
(9.55117 2.13272e-18 9.07022)
(9.9927 1.89188e-18 0.111945)
(9.9962 -1.6133e-18 0.0764569)
(9.97889 9.62699e-19 0.184036)
(9.9878 1.72621e-19 0.150498)
(9.95898 8.14136e-19 0.255762)
(9.97233 1.95797e-18 0.223378)
(9.93339 1.02451e-18 0.328996)
(9.95027 -4.58296e-19 0.296945)
(9.90261 4.55697e-19 0.405157)
(9.92322 1.25869e-18 0.372823)
(9.86698 2.32992e-20 0.485346)
(9.89179 -1.49446e-18 0.452216)
(9.8268 5.15472e-19 0.570598)
(9.85592 2.00788e-18 0.536173)
(9.78234 -1.67556e-18 0.661989)
(9.81587 -5.01343e-19 0.625751)
(9.73394 -2.76709e-18 0.760634)
(9.77206 -1.67961e-18 0.722037)
(9.68201 5.09003e-20 0.867683)
(9.72492 -1.05707e-19 0.826147)
(9.62703 2.31194e-18 0.984333)
(9.67495 6.35657e-19 0.93923)
(9.56951 -5.16817e-20 1.11191)
(9.6226 2.27463e-18 1.06252)
(9.51011 5.7914e-20 1.25187)
(9.56845 -2.31212e-18 1.19741)
(9.44965 -3.97499e-20 1.40582)
(9.51337 1.23914e-18 1.3454)
(9.38922 -1.21217e-18 1.57549)
(9.45839 -3.52027e-18 1.50806)
(9.33021 1.26731e-18 1.76286)
(9.40483 4.57285e-18 1.68716)
(9.27426 1.24522e-18 1.97016)
(9.35415 -3.89845e-18 1.88477)
(9.2235 1.89732e-18 2.20001)
(9.30832 4.60731e-18 2.10323)
(9.18065 2.50867e-18 2.45543)
(9.26981 3.05574e-18 2.34519)
(9.14927 -6.35406e-19 2.73986)
(9.24184 -1.63829e-18 2.61371)
(9.13395 3.53048e-18 3.05747)
(9.22849 -3.52075e-18 2.91242)
(9.14069 1.65774e-19 3.41316)
(9.23512 4.91154e-18 3.2456)
(9.17739 -2.69051e-18 3.81293)
(9.26879 -4.80859e-18 3.6184)
(9.25466 -5.84131e-18 4.26424)
(9.33831 5.93171e-18 4.03735)
(9.38659 -8.31096e-18 4.77761)
(9.45922 -8.27545e-18 4.5094)
(9.59463 0 5.36324)
(9.63401 6.23016e-18 5.05125)
(9.88646 -4.47705e-18 6.05398)
(9.95624 0 5.64583)
(10.3617 -6.70904e-19 6.81951)
(10.1989 1.19205e-18 6.42865)
(10.7885 4.0083e-18 8.03576)
(11.2984 2.97234e-18 6.98931)
(11.3587 -3.72381e-19 9.21723)
(0.0786601 -1.64795e-19 -0.0490942)
(0.0199314 -8.23055e-19 -0.0582431)
(0.216482 -1.49026e-22 -0.047652)
(0.1075 7.35907e-19 -0.0775823)
(0.392436 0 -0.0387181)
(0.276861 -2.46597e-19 -0.0728945)
(0.597136 0 -0.0329064)
(0.477664 0 -0.0677287)
(0.797201 0 -0.0295546)
(0.689946 1.20915e-19 -0.0621336)
(0.970309 4.24373e-20 -0.0278953)
(0.881353 -2.72535e-19 -0.0577525)
(1.11728 -5.8093e-21 -0.0270873)
(1.04402 2.89816e-19 -0.0550815)
(1.24499 -4.14039e-20 -0.0265326)
(1.18218 -4.14981e-20 -0.0532075)
(1.35782 0 -0.0258269)
(1.30002 -8.69668e-20 -0.0511903)
(1.45798 0 -0.0248039)
(1.40117 0 -0.0486416)
(1.54681 4.50773e-20 -0.0235392)
(1.4885 -4.45982e-20 -0.0455979)
(1.62598 4.48717e-20 -0.0220554)
(1.56412 4.55334e-20 -0.0425479)
(1.69626 0 -0.0200134)
(1.62985 0 -0.0392651)
(1.75619 -4.48217e-20 -0.0172484)
(1.68658 0 -0.0346326)
(1.80466 -7.19117e-21 -0.014479)
(1.73343 -5.63989e-21 -0.0288859)
(1.84442 4.25831e-20 -0.0126792)
(1.76974 7.62865e-20 -0.0243841)
(1.8804 4.51325e-21 -0.011703)
(1.79827 4.51349e-21 -0.0226288)
(1.9141 0 -0.0105157)
(1.82396 7.83525e-21 -0.0216611)
(1.94304 -2.77625e-20 -0.00888969)
(1.84852 5.18405e-20 -0.0190374)
(1.96621 -4.92776e-20 -0.00785387)
(1.86908 5.19752e-20 -0.0156412)
(1.98742 -2.25856e-20 -0.00828786)
(1.88361 1.66653e-21 -0.0146339)
(2.01212 -7.9581e-24 -0.00994853)
(1.89548 -1.10939e-21 -0.0171974)
(2.04341 1.09162e-21 -0.0123123)
(1.90997 2.89212e-21 -0.0219068)
(2.0822 0 -0.0155707)
(1.92972 -1.77595e-21 -0.0273959)
(2.12936 0 -0.0206275)
(1.9548 -9.64989e-22 -0.0336476)
(2.18782 -3.32938e-21 -0.0286826)
(1.98502 9.50908e-22 -0.042187)
(2.26281 -3.3626e-21 -0.040323)
(2.02233 5.73146e-22 -0.0547578)
(2.36066 -2.55725e-22 -0.0544117)
(2.07376 -1.81124e-23 -0.0723602)
(2.48582 -2.49942e-22 -0.0670765)
(2.14862 -1.8291e-22 -0.0939452)
(2.28964 1.71852e-21 -0.113163)
(0.0291565 8.25457e-21 -0.0959384)
(-0.0145222 -6.5472e-19 -0.0987795)
(0.154589 5.98961e-19 -0.115286)
(0.0400502 1.66887e-19 -0.146513)
(0.343698 -2.61647e-19 -0.109362)
(0.198989 -2.48268e-19 -0.147207)
(0.56919 1.23093e-19 -0.102691)
(0.390852 -4.73736e-21 -0.139608)
(0.787538 -1.74264e-19 -0.0961778)
(0.597132 6.03061e-19 -0.129178)
(0.971131 5.77308e-21 -0.0909263)
(0.779285 -2.77009e-19 -0.119878)
(1.12056 2.43485e-19 -0.0866814)
(0.927762 3.91765e-19 -0.113198)
(1.24372 -8.80543e-20 -0.0827648)
(1.04626 -1.64687e-19 -0.107767)
(1.34683 -8.63217e-20 -0.0785457)
(1.13971 -8.88363e-20 -0.102239)
(1.43366 -4.53578e-20 -0.073727)
(1.21294 -9.03428e-20 -0.0960307)
(1.50646 -4.47561e-20 -0.0686453)
(1.2698 1.35505e-19 -0.0890145)
(1.56819 8.90076e-23 -0.0635788)
(1.31333 -1.34695e-19 -0.0823448)
(1.62125 0 -0.0575409)