# vtk DataFile Version 2.0

ASCII

DATASET UNSTRUCTURED_GRID

POINTS 101 double 

0.0000000000000000e+00  0.0000000000000000e+00  0.0000000000000000e+00
1.0000000000000001e-01  0.0000000000000000e+00  0.0000000000000000e+00
2.0000000000000001e-01  0.0000000000000000e+00  0.0000000000000000e+00
3.0000000000000004e-01  0.0000000000000000e+00  0.0000000000000000e+00
4.0000000000000002e-01  0.0000000000000000e+00  0.0000000000000000e+00
5.0000000000000000e-01  0.0000000000000000e+00  0.0000000000000000e+00
6.0000000000000009e-01  0.0000000000000000e+00  0.0000000000000000e+00
7.0000000000000007e-01  0.0000000000000000e+00  0.0000000000000000e+00
8.0000000000000004e-01  0.0000000000000000e+00  0.0000000000000000e+00
9.0000000000000002e-01  0.0000000000000000e+00  0.0000000000000000e+00
1.0000000000000000e+00  0.0000000000000000e+00  0.0000000000000000e+00
1.1000000000000001e+00  0.0000000000000000e+00  0.0000000000000000e+00
1.2000000000000002e+00  0.0000000000000000e+00  0.0000000000000000e+00
1.3000000000000000e+00  0.0000000000000000e+00  0.0000000000000000e+00
1.4000000000000001e+00  0.0000000000000000e+00  0.0000000000000000e+00
1.5000000000000000e+00  0.0000000000000000e+00  0.0000000000000000e+00
1.6000000000000001e+00  0.0000000000000000e+00  0.0000000000000000e+00
1.7000000000000002e+00  0.0000000000000000e+00  0.0000000000000000e+00
1.8000000000000000e+00  0.0000000000000000e+00  0.0000000000000000e+00
1.9000000000000001e+00  0.0000000000000000e+00  0.0000000000000000e+00
2.0000000000000000e+00  0.0000000000000000e+00  0.0000000000000000e+00
2.1000000000000001e+00  0.0000000000000000e+00  0.0000000000000000e+00
2.2000000000000002e+00  0.0000000000000000e+00  0.0000000000000000e+00
2.3000000000000003e+00  0.0000000000000000e+00  0.0000000000000000e+00
2.4000000000000004e+00  0.0000000000000000e+00  0.0000000000000000e+00
2.5000000000000000e+00  0.0000000000000000e+00  0.0000000000000000e+00
2.6000000000000001e+00  0.0000000000000000e+00  0.0000000000000000e+00
2.7000000000000002e+00  0.0000000000000000e+00  0.0000000000000000e+00
2.8000000000000003e+00  0.0000000000000000e+00  0.0000000000000000e+00
2.9000000000000004e+00  0.0000000000000000e+00  0.0000000000000000e+00
3.0000000000000000e+00  0.0000000000000000e+00  0.0000000000000000e+00
3.1000000000000001e+00  0.0000000000000000e+00  0.0000000000000000e+00
3.2000000000000002e+00  0.0000000000000000e+00  0.0000000000000000e+00
3.3000000000000003e+00  0.0000000000000000e+00  0.0000000000000000e+00
3.4000000000000004e+00  0.0000000000000000e+00  0.0000000000000000e+00
3.5000000000000000e+00  0.0000000000000000e+00  0.0000000000000000e+00
3.6000000000000001e+00  0.0000000000000000e+00  0.0000000000000000e+00
3.7000000000000002e+00  0.0000000000000000e+00  0.0000000000000000e+00
3.8000000000000003e+00  0.0000000000000000e+00  0.0000000000000000e+00
3.9000000000000004e+00  0.0000000000000000e+00  0.0000000000000000e+00
4.0000000000000000e+00  0.0000000000000000e+00  0.0000000000000000e+00
4.1000000000000005e+00  0.0000000000000000e+00  0.0000000000000000e+00
4.2000000000000002e+00  0.0000000000000000e+00  0.0000000000000000e+00
4.2999999999999998e+00  0.0000000000000000e+00  0.0000000000000000e+00
4.4000000000000004e+00  0.0000000000000000e+00  0.0000000000000000e+00
4.5000000000000000e+00  0.0000000000000000e+00  0.0000000000000000e+00
4.6000000000000005e+00  0.0000000000000000e+00  0.0000000000000000e+00
4.7000000000000002e+00  0.0000000000000000e+00  0.0000000000000000e+00
4.8000000000000007e+00  0.0000000000000000e+00  0.0000000000000000e+00
4.9000000000000004e+00  0.0000000000000000e+00  0.0000000000000000e+00
5.0000000000000000e+00  0.0000000000000000e+00  0.0000000000000000e+00
5.1000000000000005e+00  0.0000000000000000e+00  0.0000000000000000e+00
5.2000000000000002e+00  0.0000000000000000e+00  0.0000000000000000e+00
5.3000000000000007e+00  0.0000000000000000e+00  0.0000000000000000e+00
5.4000000000000004e+00  0.0000000000000000e+00  0.0000000000000000e+00
5.5000000000000000e+00  0.0000000000000000e+00  0.0000000000000000e+00
5.6000000000000005e+00  0.0000000000000000e+00  0.0000000000000000e+00
5.7000000000000002e+00  0.0000000000000000e+00  0.0000000000000000e+00
5.8000000000000007e+00  0.0000000000000000e+00  0.0000000000000000e+00
5.9000000000000004e+00  0.0000000000000000e+00  0.0000000000000000e+00
6.0000000000000000e+00  0.0000000000000000e+00  0.0000000000000000e+00
6.1000000000000005e+00  0.0000000000000000e+00  0.0000000000000000e+00
6.2000000000000002e+00  0.0000000000000000e+00  0.0000000000000000e+00
6.3000000000000007e+00  0.0000000000000000e+00  0.0000000000000000e+00
6.4000000000000004e+00  0.0000000000000000e+00  0.0000000000000000e+00
6.5000000000000000e+00  0.0000000000000000e+00  0.0000000000000000e+00
6.6000000000000005e+00  0.0000000000000000e+00  0.0000000000000000e+00
6.7000000000000002e+00  0.0000000000000000e+00  0.0000000000000000e+00
6.8000000000000007e+00  0.0000000000000000e+00  0.0000000000000000e+00
6.9000000000000004e+00  0.0000000000000000e+00  0.0000000000000000e+00
7.0000000000000000e+00  0.0000000000000000e+00  0.0000000000000000e+00
7.1000000000000005e+00  0.0000000000000000e+00  0.0000000000000000e+00
7.2000000000000002e+00  0.0000000000000000e+00  0.0000000000000000e+00
7.3000000000000007e+00  0.0000000000000000e+00  0.0000000000000000e+00
7.4000000000000004e+00  0.0000000000000000e+00  0.0000000000000000e+00
7.5000000000000000e+00  0.0000000000000000e+00  0.0000000000000000e+00
7.6000000000000005e+00  0.0000000000000000e+00  0.0000000000000000e+00
7.7000000000000002e+00  0.0000000000000000e+00  0.0000000000000000e+00
7.8000000000000007e+00  0.0000000000000000e+00  0.0000000000000000e+00
7.9000000000000004e+00  0.0000000000000000e+00  0.0000000000000000e+00
8.0000000000000000e+00  0.0000000000000000e+00  0.0000000000000000e+00
8.0999999999999996e+00  0.0000000000000000e+00  0.0000000000000000e+00
8.2000000000000011e+00  0.0000000000000000e+00  0.0000000000000000e+00
8.3000000000000007e+00  0.0000000000000000e+00  0.0000000000000000e+00
8.4000000000000004e+00  0.0000000000000000e+00  0.0000000000000000e+00
8.5000000000000000e+00  0.0000000000000000e+00  0.0000000000000000e+00
8.5999999999999996e+00  0.0000000000000000e+00  0.0000000000000000e+00
8.7000000000000011e+00  0.0000000000000000e+00  0.0000000000000000e+00
8.8000000000000007e+00  0.0000000000000000e+00  0.0000000000000000e+00
8.9000000000000004e+00  0.0000000000000000e+00  0.0000000000000000e+00
9.0000000000000000e+00  0.0000000000000000e+00  0.0000000000000000e+00
9.0999999999999996e+00  0.0000000000000000e+00  0.0000000000000000e+00
9.2000000000000011e+00  0.0000000000000000e+00  0.0000000000000000e+00
9.3000000000000007e+00  0.0000000000000000e+00  0.0000000000000000e+00
9.4000000000000004e+00  0.0000000000000000e+00  0.0000000000000000e+00
9.5000000000000000e+00  0.0000000000000000e+00  0.0000000000000000e+00
9.6000000000000014e+00  0.0000000000000000e+00  0.0000000000000000e+00
9.7000000000000011e+00  0.0000000000000000e+00  0.0000000000000000e+00
9.8000000000000007e+00  0.0000000000000000e+00  0.0000000000000000e+00
9.9000000000000004e+00  0.0000000000000000e+00  0.0000000000000000e+00
1.0000000000000000e+01  0.0000000000000000e+00  0.0000000000000000e+00

CELLS 0 0


CELL_TYPES 0


POINT_DATA 101

VECTORS VertexNormals double

0.0000000000000000e+00 0.0000000000000000e+00 0
0.0000000000000000e+00 0.0000000000000000e+00 0
0.0000000000000000e+00 0.0000000000000000e+00 0
0.0000000000000000e+00 0.0000000000000000e+00 0
0.0000000000000000e+00 0.0000000000000000e+00 0
0.0000000000000000e+00 0.0000000000000000e+00 0
0.0000000000000000e+00 0.0000000000000000e+00 0
0.0000000000000000e+00 0.0000000000000000e+00 0
0.0000000000000000e+00 0.0000000000000000e+00 0
0.0000000000000000e+00 0.0000000000000000e+00 0
0.0000000000000000e+00 0.0000000000000000e+00 0
0.0000000000000000e+00 0.0000000000000000e+00 0
0.0000000000000000e+00 0.0000000000000000e+00 0
0.0000000000000000e+00 0.0000000000000000e+00 0
0.0000000000000000e+00 0.0000000000000000e+00 0
0.0000000000000000e+00 0.0000000000000000e+00 0
0.0000000000000000e+00 0.0000000000000000e+00 0
0.0000000000000000e+00 0.0000000000000000e+00 0
0.0000000000000000e+00 0.0000000000000000e+00 0
0.0000000000000000e+00 0.0000000000000000e+00 0
0.0000000000000000e+00 0.0000000000000000e+00 0
0.0000000000000000e+00 0.0000000000000000e+00 0
0.0000000000000000e+00 0.0000000000000000e+00 0
0.0000000000000000e+00 0.0000000000000000e+00 0
0.0000000000000000e+00 0.0000000000000000e+00 0
0.0000000000000000e+00 0.0000000000000000e+00 0
0.0000000000000000e+00 0.0000000000000000e+00 0
0.0000000000000000e+00 0.0000000000000000e+00 0
0.0000000000000000e+00 0.0000000000000000e+00 0
0.0000000000000000e+00 0.0000000000000000e+00 0
0.0000000000000000e+00 0.0000000000000000e+00 0
0.0000000000000000e+00 0.0000000000000000e+00 0
0.0000000000000000e+00 0.0000000000000000e+00 0
0.0000000000000000e+00 0.0000000000000000e+00 0
0.0000000000000000e+00 0.0000000000000000e+00 0
0.0000000000000000e+00 0.0000000000000000e+00 0
0.0000000000000000e+00 0.0000000000000000e+00 0
0.0000000000000000e+00 0.0000000000000000e+00 0
0.0000000000000000e+00 0.0000000000000000e+00 0
0.0000000000000000e+00 0.0000000000000000e+00 0
0.0000000000000000e+00 0.0000000000000000e+00 0
0.0000000000000000e+00 0.0000000000000000e+00 0
0.0000000000000000e+00 0.0000000000000000e+00 0
0.0000000000000000e+00 0.0000000000000000e+00 0
0.0000000000000000e+00 0.0000000000000000e+00 0
0.0000000000000000e+00 0.0000000000000000e+00 0
0.0000000000000000e+00 0.0000000000000000e+00 0
0.0000000000000000e+00 0.0000000000000000e+00 0
0.0000000000000000e+00 0.0000000000000000e+00 0
0.0000000000000000e+00 0.0000000000000000e+00 0
0.0000000000000000e+00 0.0000000000000000e+00 0
0.0000000000000000e+00 0.0000000000000000e+00 0
0.0000000000000000e+00 0.0000000000000000e+00 0
0.0000000000000000e+00 0.0000000000000000e+00 0
0.0000000000000000e+00 0.0000000000000000e+00 0
0.0000000000000000e+00 0.0000000000000000e+00 0
0.0000000000000000e+00 0.0000000000000000e+00 0
0.0000000000000000e+00 0.0000000000000000e+00 0
0.0000000000000000e+00 0.0000000000000000e+00 0
0.0000000000000000e+00 0.0000000000000000e+00 0
0.0000000000000000e+00 0.0000000000000000e+00 0
0.0000000000000000e+00 0.0000000000000000e+00 0
0.0000000000000000e+00 0.0000000000000000e+00 0
0.0000000000000000e+00 0.0000000000000000e+00 0
0.0000000000000000e+00 0.0000000000000000e+00 0
0.0000000000000000e+00 0.0000000000000000e+00 0
0.0000000000000000e+00 0.0000000000000000e+00 0
0.0000000000000000e+00 0.0000000000000000e+00 0
0.0000000000000000e+00 0.0000000000000000e+00 0
0.0000000000000000e+00 0.0000000000000000e+00 0
0.0000000000000000e+00 0.0000000000000000e+00 0
0.0000000000000000e+00 0.0000000000000000e+00 0
0.0000000000000000e+00 0.0000000000000000e+00 0
0.0000000000000000e+00 0.0000000000000000e+00 0
0.0000000000000000e+00 0.0000000000000000e+00 0
0.0000000000000000e+00 0.0000000000000000e+00 0
0.0000000000000000e+00 0.0000000000000000e+00 0
0.0000000000000000e+00 0.0000000000000000e+00 0
0.0000000000000000e+00 0.0000000000000000e+00 0
0.0000000000000000e+00 0.0000000000000000e+00 0
0.0000000000000000e+00 0.0000000000000000e+00 0
0.0000000000000000e+00 0.0000000000000000e+00 0
0.0000000000000000e+00 0.0000000000000000e+00 0
0.0000000000000000e+00 0.0000000000000000e+00 0
0.0000000000000000e+00 0.0000000000000000e+00 0
0.0000000000000000e+00 0.0000000000000000e+00 0
0.0000000000000000e+00 0.0000000000000000e+00 0
0.0000000000000000e+00 0.0000000000000000e+00 0
0.0000000000000000e+00 0.0000000000000000e+00 0
0.0000000000000000e+00 0.0000000000000000e+00 0
0.0000000000000000e+00 0.0000000000000000e+00 0
0.0000000000000000e+00 0.0000000000000000e+00 0
0.0000000000000000e+00 0.0000000000000000e+00 0
0.0000000000000000e+00 0.0000000000000000e+00 0
0.0000000000000000e+00 0.0000000000000000e+00 0
0.0000000000000000e+00 0.0000000000000000e+00 0
0.0000000000000000e+00 0.0000000000000000e+00 0
0.0000000000000000e+00 0.0000000000000000e+00 0
0.0000000000000000e+00 0.0000000000000000e+00 0
0.0000000000000000e+00 0.0000000000000000e+00 0
0.0000000000000000e+00 0.0000000000000000e+00 0

SCALARS CrossSectionLength double
LOOKUP_TABLE default
9.7448864429276572e-01
9.7409080434569162e-01
9.7369320797916881e-01
9.7334900607601826e-01
9.7300752965576454e-01
9.7271737131745051e-01
9.7243241015223159e-01
9.7219649974640976e-01
9.7196817385429946e-01
9.7178650816713963e-01
9.7161467190159445e-01
9.7148703713260287e-01
9.7137128939607864e-01
9.7129726110721537e-01
9.7123695636160667e-01
9.7121590198348706e-01
9.7121016214901579e-01
9.7124124569818338e-01
9.7128897294473471e-01
9.7137116164149262e-01
9.7147105201220263e-01
9.7160312451536257e-01
9.7175368227419467e-01
9.7193423827469505e-01
9.7213379083240270e-01
9.7236126177270987e-01
9.7260797502175522e-01
9.7288063572720695e-01
9.7317252960844813e-01
9.7348851062990316e-01
9.7382347475852082e-01
9.7418077523618729e-01
9.7455658442707993e-01
9.7495308529530422e-01
9.7536741484613798e-01
9.7580089220915645e-01
9.7625133282070942e-01
9.7671947133930825e-01
9.7720354357756034e-01
9.7770394971519958e-01
9.7821911794665861e-01
9.7874933293246802e-01
9.7929301868941632e-01
9.7985053106801401e-01
9.8042012582027227e-01
9.8100238347529123e-01
9.8159526080033033e-01
9.8219968235695310e-01
9.8281320951325024e-01
9.8343719504284233e-01
9.8406874396225485e-01
9.8470968493016053e-01
9.8535664265184997e-01
9.8601193106919804e-01
9.8667170963904505e-01
9.8733874640118346e-01
9.8800879225727856e-01
9.8868499467397919e-01
9.8936279753246270e-01
9.9004560607646674e-01
9.9072870732475804e-01
9.9141559164403648e-01
9.9210159224122141e-01
9.9279005649707885e-01
9.9347662437243611e-01
9.9416421198275240e-01
9.9484908891065504e-01
9.9553338679666437e-01
9.9621439471017192e-01
9.9689303716332844e-01
9.9756808385419538e-01
9.9823875615260727e-01
9.9890584029523111e-01
9.9956628220670329e-01
1.0002234976350979e+00
1.0008715069512899e+00
1.0015170461060847e+00
1.0021504823637262e+00
1.0027826388100065e+00
1.0033994273674061e+00
1.0040165972701611e+00
1.0046147339135125e+00
1.0052154163513283e+00
1.0057929726027188e+00
1.0063757686013641e+00
1.0069308978928992e+00
1.0074945080636291e+00
1.0080254529335069e+00
1.0085686736051571e+00
1.0090737740598528e+00
1.0095954918038021e+00
1.0100731949702895e+00
1.0105723794379387e+00
1.0110212505984018e+00
1.0114969456223886e+00
1.0119156806827514e+00
1.0123669936337434e+00
1.0127544330278946e+00
1.0131805224683936e+00
1.0135356664409383e+00
1.0139357281774677e+00

SCALARS Pressure double
LOOKUP_TABLE default
-2.3050843829352439e+02
-2.3417468053758435e+02
-2.3784092278164431e+02
-2.4101662782341558e+02
-2.4416885178427444e+02
-2.4684865460707658e+02
-2.4948162542004192e+02
-2.5166225515089016e+02
-2.5377353367369935e+02
-2.5545388720794372e+02
-2.5704375521055823e+02
-2.5822493397744722e+02
-2.5929630708937748e+02
-2.5998162105355715e+02
-2.6053994776756053e+02
-2.6073489030782196e+02
-2.6078803654935473e+02
-2.6050023356659409e+02
-2.6005835326772876e+02
-2.5929748970493353e+02
-2.5837288252192042e+02
-2.5715060936390898e+02
-2.5575756721043473e+02
-2.5408739190094227e+02
-2.5224203638064347e+02
-2.5013919944324562e+02
-2.4785931252637221e+02
-2.4534065305134476e+02
-2.4264550342843486e+02
-2.3972931599413198e+02
-2.3663948348840000e+02
-2.3334536899361359e+02
-2.2988256926657417e+02
-2.2623128204245742e+02
-2.2241819361395071e+02
-2.1843148705459549e+02
-2.1429158239862238e+02
-2.0999205520651239e+02
-2.0554943738319199e+02
-2.0096038238243131e+02
-1.9623962833874734e+02
-1.9138488565383850e+02
-1.8641089701230172e+02
-1.8131471321458463e+02
-1.7611257510460672e+02
-1.7079946968972189e+02
-1.6539431795700926e+02
-1.5988895826461592e+02
-1.5430585519892225e+02
-1.4863294064245676e+02
-1.4289675919420648e+02
-1.3708091542839421e+02
-1.3121623175906996e+02
-1.2528191516333086e+02
-1.1931290930413010e+02
-1.1328432190087595e+02
-1.0723468627328471e+02
-1.0113570094392517e+02
-9.5028556507795997e+01
-8.8882652133275244e+01
-8.2740471953785402e+01
-7.6570677904385946e+01
-7.0415217960552653e+01
-6.4244067185891069e+01
-5.8096304293493212e+01
-5.1945794095037741e+01
-4.5825870906643793e+01
-3.9717430297872241e+01
-3.3644607464635563e+01
-2.7599069862844953e+01
-2.1591685555928667e+01
-1.5629265441946895e+01
-9.7047025084813949e+00
-3.8449746353254408e+00
1.9803642711243408e+00
7.7184845910352378e+00
1.3429193464597677e+01
1.9027470548290374e+01
2.4609147488582671e+01
3.0050047592564315e+01
3.5489292561187405e+01
4.0756009994280923e+01
4.6040412108232047e+01
5.1116900788629522e+01
5.6235014390486207e+01
6.1106026407932859e+01
6.6047335168557723e+01
7.0698467826674744e+01
7.5453336156784815e+01
7.9871088861833002e+01
8.4430699974728000e+01
8.8602542158292096e+01
9.2958822279474106e+01
9.6873273271344218e+01
1.0101880173440277e+02
1.0466552315269898e+02
1.0859342843776476e+02
1.1196332924760077e+02
1.1566717140833602e+02
1.1875252530676535e+02
1.2222616570710123e+02

