# vtk DataFile Version 2.0

ASCII

DATASET UNSTRUCTURED_GRID

POINTS 101 float 

0.0000000000000000e+00  0.0000000000000000e+00  0.0000000000000000e+00
1.0000000000000001e-01  0.0000000000000000e+00  0.0000000000000000e+00
2.0000000000000001e-01  0.0000000000000000e+00  0.0000000000000000e+00
3.0000000000000004e-01  0.0000000000000000e+00  0.0000000000000000e+00
4.0000000000000002e-01  0.0000000000000000e+00  0.0000000000000000e+00
5.0000000000000000e-01  0.0000000000000000e+00  0.0000000000000000e+00
6.0000000000000009e-01  0.0000000000000000e+00  0.0000000000000000e+00
7.0000000000000007e-01  0.0000000000000000e+00  0.0000000000000000e+00
8.0000000000000004e-01  0.0000000000000000e+00  0.0000000000000000e+00
9.0000000000000002e-01  0.0000000000000000e+00  0.0000000000000000e+00
1.0000000000000000e+00  0.0000000000000000e+00  0.0000000000000000e+00
1.1000000000000001e+00  0.0000000000000000e+00  0.0000000000000000e+00
1.2000000000000002e+00  0.0000000000000000e+00  0.0000000000000000e+00
1.3000000000000000e+00  0.0000000000000000e+00  0.0000000000000000e+00
1.4000000000000001e+00  0.0000000000000000e+00  0.0000000000000000e+00
1.5000000000000000e+00  0.0000000000000000e+00  0.0000000000000000e+00
1.6000000000000001e+00  0.0000000000000000e+00  0.0000000000000000e+00
1.7000000000000002e+00  0.0000000000000000e+00  0.0000000000000000e+00
1.8000000000000000e+00  0.0000000000000000e+00  0.0000000000000000e+00
1.9000000000000001e+00  0.0000000000000000e+00  0.0000000000000000e+00
2.0000000000000000e+00  0.0000000000000000e+00  0.0000000000000000e+00
2.1000000000000001e+00  0.0000000000000000e+00  0.0000000000000000e+00
2.2000000000000002e+00  0.0000000000000000e+00  0.0000000000000000e+00
2.3000000000000003e+00  0.0000000000000000e+00  0.0000000000000000e+00
2.4000000000000004e+00  0.0000000000000000e+00  0.0000000000000000e+00
2.5000000000000000e+00  0.0000000000000000e+00  0.0000000000000000e+00
2.6000000000000001e+00  0.0000000000000000e+00  0.0000000000000000e+00
2.7000000000000002e+00  0.0000000000000000e+00  0.0000000000000000e+00
2.8000000000000003e+00  0.0000000000000000e+00  0.0000000000000000e+00
2.9000000000000004e+00  0.0000000000000000e+00  0.0000000000000000e+00
3.0000000000000000e+00  0.0000000000000000e+00  0.0000000000000000e+00
3.1000000000000001e+00  0.0000000000000000e+00  0.0000000000000000e+00
3.2000000000000002e+00  0.0000000000000000e+00  0.0000000000000000e+00
3.3000000000000003e+00  0.0000000000000000e+00  0.0000000000000000e+00
3.4000000000000004e+00  0.0000000000000000e+00  0.0000000000000000e+00
3.5000000000000000e+00  0.0000000000000000e+00  0.0000000000000000e+00
3.6000000000000001e+00  0.0000000000000000e+00  0.0000000000000000e+00
3.7000000000000002e+00  0.0000000000000000e+00  0.0000000000000000e+00
3.8000000000000003e+00  0.0000000000000000e+00  0.0000000000000000e+00
3.9000000000000004e+00  0.0000000000000000e+00  0.0000000000000000e+00
4.0000000000000000e+00  0.0000000000000000e+00  0.0000000000000000e+00
4.1000000000000005e+00  0.0000000000000000e+00  0.0000000000000000e+00
4.2000000000000002e+00  0.0000000000000000e+00  0.0000000000000000e+00
4.2999999999999998e+00  0.0000000000000000e+00  0.0000000000000000e+00
4.4000000000000004e+00  0.0000000000000000e+00  0.0000000000000000e+00
4.5000000000000000e+00  0.0000000000000000e+00  0.0000000000000000e+00
4.6000000000000005e+00  0.0000000000000000e+00  0.0000000000000000e+00
4.7000000000000002e+00  0.0000000000000000e+00  0.0000000000000000e+00
4.8000000000000007e+00  0.0000000000000000e+00  0.0000000000000000e+00
4.9000000000000004e+00  0.0000000000000000e+00  0.0000000000000000e+00
5.0000000000000000e+00  0.0000000000000000e+00  0.0000000000000000e+00
5.1000000000000005e+00  0.0000000000000000e+00  0.0000000000000000e+00
5.2000000000000002e+00  0.0000000000000000e+00  0.0000000000000000e+00
5.3000000000000007e+00  0.0000000000000000e+00  0.0000000000000000e+00
5.4000000000000004e+00  0.0000000000000000e+00  0.0000000000000000e+00
5.5000000000000000e+00  0.0000000000000000e+00  0.0000000000000000e+00
5.6000000000000005e+00  0.0000000000000000e+00  0.0000000000000000e+00
5.7000000000000002e+00  0.0000000000000000e+00  0.0000000000000000e+00
5.8000000000000007e+00  0.0000000000000000e+00  0.0000000000000000e+00
5.9000000000000004e+00  0.0000000000000000e+00  0.0000000000000000e+00
6.0000000000000000e+00  0.0000000000000000e+00  0.0000000000000000e+00
6.1000000000000005e+00  0.0000000000000000e+00  0.0000000000000000e+00
6.2000000000000002e+00  0.0000000000000000e+00  0.0000000000000000e+00
6.3000000000000007e+00  0.0000000000000000e+00  0.0000000000000000e+00
6.4000000000000004e+00  0.0000000000000000e+00  0.0000000000000000e+00
6.5000000000000000e+00  0.0000000000000000e+00  0.0000000000000000e+00
6.6000000000000005e+00  0.0000000000000000e+00  0.0000000000000000e+00
6.7000000000000002e+00  0.0000000000000000e+00  0.0000000000000000e+00
6.8000000000000007e+00  0.0000000000000000e+00  0.0000000000000000e+00
6.9000000000000004e+00  0.0000000000000000e+00  0.0000000000000000e+00
7.0000000000000000e+00  0.0000000000000000e+00  0.0000000000000000e+00
7.1000000000000005e+00  0.0000000000000000e+00  0.0000000000000000e+00
7.2000000000000002e+00  0.0000000000000000e+00  0.0000000000000000e+00
7.3000000000000007e+00  0.0000000000000000e+00  0.0000000000000000e+00
7.4000000000000004e+00  0.0000000000000000e+00  0.0000000000000000e+00
7.5000000000000000e+00  0.0000000000000000e+00  0.0000000000000000e+00
7.6000000000000005e+00  0.0000000000000000e+00  0.0000000000000000e+00
7.7000000000000002e+00  0.0000000000000000e+00  0.0000000000000000e+00
7.8000000000000007e+00  0.0000000000000000e+00  0.0000000000000000e+00
7.9000000000000004e+00  0.0000000000000000e+00  0.0000000000000000e+00
8.0000000000000000e+00  0.0000000000000000e+00  0.0000000000000000e+00
8.0999999999999996e+00  0.0000000000000000e+00  0.0000000000000000e+00
8.2000000000000011e+00  0.0000000000000000e+00  0.0000000000000000e+00
8.3000000000000007e+00  0.0000000000000000e+00  0.0000000000000000e+00
8.4000000000000004e+00  0.0000000000000000e+00  0.0000000000000000e+00
8.5000000000000000e+00  0.0000000000000000e+00  0.0000000000000000e+00
8.5999999999999996e+00  0.0000000000000000e+00  0.0000000000000000e+00
8.7000000000000011e+00  0.0000000000000000e+00  0.0000000000000000e+00
8.8000000000000007e+00  0.0000000000000000e+00  0.0000000000000000e+00
8.9000000000000004e+00  0.0000000000000000e+00  0.0000000000000000e+00
9.0000000000000000e+00  0.0000000000000000e+00  0.0000000000000000e+00
9.0999999999999996e+00  0.0000000000000000e+00  0.0000000000000000e+00
9.2000000000000011e+00  0.0000000000000000e+00  0.0000000000000000e+00
9.3000000000000007e+00  0.0000000000000000e+00  0.0000000000000000e+00
9.4000000000000004e+00  0.0000000000000000e+00  0.0000000000000000e+00
9.5000000000000000e+00  0.0000000000000000e+00  0.0000000000000000e+00
9.6000000000000014e+00  0.0000000000000000e+00  0.0000000000000000e+00
9.7000000000000011e+00  0.0000000000000000e+00  0.0000000000000000e+00
9.8000000000000007e+00  0.0000000000000000e+00  0.0000000000000000e+00
9.9000000000000004e+00  0.0000000000000000e+00  0.0000000000000000e+00
1.0000000000000000e+01  0.0000000000000000e+00  0.0000000000000000e+00

CELLS 0 0


CELL_TYPES 0


POINT_DATA 101

VECTORS VertexNormals float

0.0000000000000000e+00 0.0000000000000000e+00 0
0.0000000000000000e+00 0.0000000000000000e+00 0
0.0000000000000000e+00 0.0000000000000000e+00 0
0.0000000000000000e+00 0.0000000000000000e+00 0
0.0000000000000000e+00 0.0000000000000000e+00 0
0.0000000000000000e+00 0.0000000000000000e+00 0
0.0000000000000000e+00 0.0000000000000000e+00 0
0.0000000000000000e+00 0.0000000000000000e+00 0
0.0000000000000000e+00 0.0000000000000000e+00 0
0.0000000000000000e+00 0.0000000000000000e+00 0
0.0000000000000000e+00 0.0000000000000000e+00 0
0.0000000000000000e+00 0.0000000000000000e+00 0
0.0000000000000000e+00 0.0000000000000000e+00 0
0.0000000000000000e+00 0.0000000000000000e+00 0
0.0000000000000000e+00 0.0000000000000000e+00 0
0.0000000000000000e+00 0.0000000000000000e+00 0
0.0000000000000000e+00 0.0000000000000000e+00 0
0.0000000000000000e+00 0.0000000000000000e+00 0
0.0000000000000000e+00 0.0000000000000000e+00 0
0.0000000000000000e+00 0.0000000000000000e+00 0
0.0000000000000000e+00 0.0000000000000000e+00 0
0.0000000000000000e+00 0.0000000000000000e+00 0
0.0000000000000000e+00 0.0000000000000000e+00 0
0.0000000000000000e+00 0.0000000000000000e+00 0
0.0000000000000000e+00 0.0000000000000000e+00 0
0.0000000000000000e+00 0.0000000000000000e+00 0
0.0000000000000000e+00 0.0000000000000000e+00 0
0.0000000000000000e+00 0.0000000000000000e+00 0
0.0000000000000000e+00 0.0000000000000000e+00 0
0.0000000000000000e+00 0.0000000000000000e+00 0
0.0000000000000000e+00 0.0000000000000000e+00 0
0.0000000000000000e+00 0.0000000000000000e+00 0
0.0000000000000000e+00 0.0000000000000000e+00 0
0.0000000000000000e+00 0.0000000000000000e+00 0
0.0000000000000000e+00 0.0000000000000000e+00 0
0.0000000000000000e+00 0.0000000000000000e+00 0
0.0000000000000000e+00 0.0000000000000000e+00 0
0.0000000000000000e+00 0.0000000000000000e+00 0
0.0000000000000000e+00 0.0000000000000000e+00 0
0.0000000000000000e+00 0.0000000000000000e+00 0
0.0000000000000000e+00 0.0000000000000000e+00 0
0.0000000000000000e+00 0.0000000000000000e+00 0
0.0000000000000000e+00 0.0000000000000000e+00 0
0.0000000000000000e+00 0.0000000000000000e+00 0
0.0000000000000000e+00 0.0000000000000000e+00 0
0.0000000000000000e+00 0.0000000000000000e+00 0
0.0000000000000000e+00 0.0000000000000000e+00 0
0.0000000000000000e+00 0.0000000000000000e+00 0
0.0000000000000000e+00 0.0000000000000000e+00 0
0.0000000000000000e+00 0.0000000000000000e+00 0
0.0000000000000000e+00 0.0000000000000000e+00 0
0.0000000000000000e+00 0.0000000000000000e+00 0
0.0000000000000000e+00 0.0000000000000000e+00 0
0.0000000000000000e+00 0.0000000000000000e+00 0
0.0000000000000000e+00 0.0000000000000000e+00 0
0.0000000000000000e+00 0.0000000000000000e+00 0
0.0000000000000000e+00 0.0000000000000000e+00 0
0.0000000000000000e+00 0.0000000000000000e+00 0
0.0000000000000000e+00 0.0000000000000000e+00 0
0.0000000000000000e+00 0.0000000000000000e+00 0
0.0000000000000000e+00 0.0000000000000000e+00 0
0.0000000000000000e+00 0.0000000000000000e+00 0
0.0000000000000000e+00 0.0000000000000000e+00 0
0.0000000000000000e+00 0.0000000000000000e+00 0
0.0000000000000000e+00 0.0000000000000000e+00 0
0.0000000000000000e+00 0.0000000000000000e+00 0
0.0000000000000000e+00 0.0000000000000000e+00 0
0.0000000000000000e+00 0.0000000000000000e+00 0
0.0000000000000000e+00 0.0000000000000000e+00 0
0.0000000000000000e+00 0.0000000000000000e+00 0
0.0000000000000000e+00 0.0000000000000000e+00 0
0.0000000000000000e+00 0.0000000000000000e+00 0
0.0000000000000000e+00 0.0000000000000000e+00 0
0.0000000000000000e+00 0.0000000000000000e+00 0
0.0000000000000000e+00 0.0000000000000000e+00 0
0.0000000000000000e+00 0.0000000000000000e+00 0
0.0000000000000000e+00 0.0000000000000000e+00 0
0.0000000000000000e+00 0.0000000000000000e+00 0
0.0000000000000000e+00 0.0000000000000000e+00 0
0.0000000000000000e+00 0.0000000000000000e+00 0
0.0000000000000000e+00 0.0000000000000000e+00 0
0.0000000000000000e+00 0.0000000000000000e+00 0
0.0000000000000000e+00 0.0000000000000000e+00 0
0.0000000000000000e+00 0.0000000000000000e+00 0
0.0000000000000000e+00 0.0000000000000000e+00 0
0.0000000000000000e+00 0.0000000000000000e+00 0
0.0000000000000000e+00 0.0000000000000000e+00 0
0.0000000000000000e+00 0.0000000000000000e+00 0
0.0000000000000000e+00 0.0000000000000000e+00 0
0.0000000000000000e+00 0.0000000000000000e+00 0
0.0000000000000000e+00 0.0000000000000000e+00 0
0.0000000000000000e+00 0.0000000000000000e+00 0
0.0000000000000000e+00 0.0000000000000000e+00 0
0.0000000000000000e+00 0.0000000000000000e+00 0
0.0000000000000000e+00 0.0000000000000000e+00 0
0.0000000000000000e+00 0.0000000000000000e+00 0
0.0000000000000000e+00 0.0000000000000000e+00 0
0.0000000000000000e+00 0.0000000000000000e+00 0
0.0000000000000000e+00 0.0000000000000000e+00 0
0.0000000000000000e+00 0.0000000000000000e+00 0
0.0000000000000000e+00 0.0000000000000000e+00 0

SCALARS CrossSectionLength float
LOOKUP_TABLE default
1.0260866056070375e+00
1.0264999728135062e+00
1.0269135898627346e+00
1.0272736644488800e+00
1.0276296167970529e+00
1.0279362367564007e+00
1.0282346427719096e+00
1.0284877421371941e+00
1.0287289440312599e+00
1.0289285764871170e+00
1.0291131106778670e+00
1.0292594669929225e+00
1.0293880407832283e+00
1.0294814606917841e+00
1.0295549344245916e+00
1.0295959138181880e+00
1.0296152875435307e+00
1.0296044818657908e+00
1.0295708855693575e+00
1.0295091102510121e+00
1.0294237967641640e+00
1.0293120254420749e+00
1.0291763652560815e+00
1.0290157263975814e+00
1.0288312037334162e+00
1.0286229761490817e+00
1.0283911857683383e+00
1.0281367933656835e+00
1.0278594377256163e+00
1.0275604437511623e+00
1.0272393301970004e+00
1.0268974311367429e+00
1.0265344688931934e+00
1.0261514881410700e+00
1.0257486849234811e+00
1.0253265662763194e+00
1.0248860243931779e+00
1.0244268253901683e+00
1.0239507372495276e+00
1.0234566223464565e+00
1.0229472653100851e+00
1.0224204988609364e+00
1.0218802294142049e+00
1.0213231684237822e+00
1.0207544156466313e+00
1.0201695022577868e+00
1.0195747605933791e+00
1.0189645142781754e+00
1.0183463356060665e+00
1.0177133450358127e+00
1.0170743300702803e+00
1.0164212446427527e+00
1.0157640336929521e+00
1.0150935546997319e+00
1.0144208178422065e+00
1.0137356892677427e+00
1.0130501159923735e+00
1.0123531149479572e+00
1.0116574033476875e+00
1.0109513301552617e+00
1.0102481757395874e+00
1.0095358436909190e+00
1.0088279279133250e+00
1.0081121527392065e+00
1.0074021313392501e+00
1.0066857204309074e+00
1.0059762117018105e+00
1.0052619531332874e+00
1.0045555262340429e+00
1.0038461776411860e+00
1.0031453410773923e+00
1.0024436184554264e+00
1.0017508088569105e+00
1.0010593753415837e+00
1.0003769466699830e+00
9.9969840136514299e-01
9.9902861469047011e-01
9.9836548159992411e-01
9.9771049558800695e-01
9.9706521270557436e-01
9.9642707495534655e-01
9.9580198356447425e-01
9.9518262292758541e-01
9.9457995715698388e-01
9.9398117716663414e-01
9.9340305383757044e-01
9.9282652737066601e-01
9.9227493615570539e-01
9.9172220145000500e-01
9.9119899534579470e-01
9.9067145348872587e-01
9.9017833958904899e-01
9.8967725358730785e-01
9.8921578412621991e-01
9.8874227965721162e-01
9.8831384327411453e-01
9.8786891121336096e-01
9.8747472437177741e-01
9.8705922518540856e-01
9.8670032365518889e-01
9.8631499374392195e-01

SCALARS Pressure float
LOOKUP_TABLE default
8.9140077185091127e+02
8.9853096101856192e+02
9.0566115018621258e+02
9.1361779234006463e+02
9.2149035770215335e+02
9.3015810747973239e+02
9.3865982552993250e+02
9.4792385091106735e+02
9.5694170696730350e+02
9.6668794766968540e+02
9.7610944941396076e+02
9.8622486783581667e+02
9.9593834785005515e+02
1.0063111744558506e+03
1.0162060822439172e+03
1.0267260566877017e+03
1.0366932409327985e+03
1.0472518498179393e+03
1.0571838317284733e+03
1.0676745435907737e+03
1.0774657822148754e+03
1.0877842800618957e+03
1.0973314304050164e+03
1.1073758419463052e+03
1.1165780066197717e+03
1.1262491321640143e+03
1.1350081071447007e+03
1.1442096450037741e+03
1.1524301599150760e+03
1.1610689290233991e+03
1.1686588821762832e+03
1.1766450414917852e+03
1.1835157297612941e+03
1.1907629938651978e+03
1.1968293373134402e+03
1.2032551874856483e+03
1.2084359484667843e+03
1.2139618383896798e+03
1.2181798346889900e+03
1.2227313898202879e+03
1.2259137011997493e+03
1.2294209107469646e+03
1.2314990781051729e+03
1.2338964784254863e+03
1.2348066946373954e+03
1.2360335427790262e+03
1.2357168341594447e+03
1.2357172701658003e+03
1.2341196673902023e+03
1.2328428639215217e+03
1.2299155611319302e+03
1.2273158589261575e+03
1.2230153596562561e+03
1.2190523873431566e+03
1.2133406358308328e+03
1.2079794126224949e+03
1.2008239090468228e+03
1.1940349288576165e+03
1.1854088270351106e+03
1.1771681226464984e+03
1.1670503087405232e+03
1.1573394947273289e+03
1.1457146455647633e+03
1.1345209388370829e+03
1.1213795584930351e+03
1.1086957754765717e+03
1.0940342088844054e+03
1.0798587385587325e+03
1.0636791610281475e+03
1.0480159132664558e+03
1.0303262949432092e+03
1.0131846238488201e+03
9.9399866831914926e+02
9.7539327053541808e+02
9.5473032695797883e+02
9.3468111523862842e+02
9.1256606357280589e+02
8.9109801623011083e+02
8.6756112532619409e+02
8.4470411250871916e+02
8.1978087103787857e+02
7.9556945911640162e+02
7.6930037954063027e+02
7.4377361520273485e+02
7.1620401119870155e+02
6.8940518717761768e+02
6.6058492511744055e+02
6.3256132980752795e+02
6.0254455506231250e+02
5.7334720858618402e+02
5.4219204756359909e+02
5.1187542713625248e+02
4.7964366609522443e+02
4.4826542377288098e+02
4.1502216556791899e+02
3.8264284167945954e+02
3.4845614166079946e+02
3.1513887740349463e+02
2.8007935973061211e+02
2.4588961256714745e+02
2.1003006818435549e+02

