# vtk DataFile Version 2.0

ASCII

DATASET UNSTRUCTURED_GRID

POINTS 101 double 

0.0000000000000000e+00  0.0000000000000000e+00  0.0000000000000000e+00
1.0000000000000001e-01  0.0000000000000000e+00  0.0000000000000000e+00
2.0000000000000001e-01  0.0000000000000000e+00  0.0000000000000000e+00
3.0000000000000004e-01  0.0000000000000000e+00  0.0000000000000000e+00
4.0000000000000002e-01  0.0000000000000000e+00  0.0000000000000000e+00
5.0000000000000000e-01  0.0000000000000000e+00  0.0000000000000000e+00
6.0000000000000009e-01  0.0000000000000000e+00  0.0000000000000000e+00
7.0000000000000007e-01  0.0000000000000000e+00  0.0000000000000000e+00
8.0000000000000004e-01  0.0000000000000000e+00  0.0000000000000000e+00
9.0000000000000002e-01  0.0000000000000000e+00  0.0000000000000000e+00
1.0000000000000000e+00  0.0000000000000000e+00  0.0000000000000000e+00
1.1000000000000001e+00  0.0000000000000000e+00  0.0000000000000000e+00
1.2000000000000002e+00  0.0000000000000000e+00  0.0000000000000000e+00
1.3000000000000000e+00  0.0000000000000000e+00  0.0000000000000000e+00
1.4000000000000001e+00  0.0000000000000000e+00  0.0000000000000000e+00
1.5000000000000000e+00  0.0000000000000000e+00  0.0000000000000000e+00
1.6000000000000001e+00  0.0000000000000000e+00  0.0000000000000000e+00
1.7000000000000002e+00  0.0000000000000000e+00  0.0000000000000000e+00
1.8000000000000000e+00  0.0000000000000000e+00  0.0000000000000000e+00
1.9000000000000001e+00  0.0000000000000000e+00  0.0000000000000000e+00
2.0000000000000000e+00  0.0000000000000000e+00  0.0000000000000000e+00
2.1000000000000001e+00  0.0000000000000000e+00  0.0000000000000000e+00
2.2000000000000002e+00  0.0000000000000000e+00  0.0000000000000000e+00
2.3000000000000003e+00  0.0000000000000000e+00  0.0000000000000000e+00
2.4000000000000004e+00  0.0000000000000000e+00  0.0000000000000000e+00
2.5000000000000000e+00  0.0000000000000000e+00  0.0000000000000000e+00
2.6000000000000001e+00  0.0000000000000000e+00  0.0000000000000000e+00
2.7000000000000002e+00  0.0000000000000000e+00  0.0000000000000000e+00
2.8000000000000003e+00  0.0000000000000000e+00  0.0000000000000000e+00
2.9000000000000004e+00  0.0000000000000000e+00  0.0000000000000000e+00
3.0000000000000000e+00  0.0000000000000000e+00  0.0000000000000000e+00
3.1000000000000001e+00  0.0000000000000000e+00  0.0000000000000000e+00
3.2000000000000002e+00  0.0000000000000000e+00  0.0000000000000000e+00
3.3000000000000003e+00  0.0000000000000000e+00  0.0000000000000000e+00
3.4000000000000004e+00  0.0000000000000000e+00  0.0000000000000000e+00
3.5000000000000000e+00  0.0000000000000000e+00  0.0000000000000000e+00
3.6000000000000001e+00  0.0000000000000000e+00  0.0000000000000000e+00
3.7000000000000002e+00  0.0000000000000000e+00  0.0000000000000000e+00
3.8000000000000003e+00  0.0000000000000000e+00  0.0000000000000000e+00
3.9000000000000004e+00  0.0000000000000000e+00  0.0000000000000000e+00
4.0000000000000000e+00  0.0000000000000000e+00  0.0000000000000000e+00
4.1000000000000005e+00  0.0000000000000000e+00  0.0000000000000000e+00
4.2000000000000002e+00  0.0000000000000000e+00  0.0000000000000000e+00
4.2999999999999998e+00  0.0000000000000000e+00  0.0000000000000000e+00
4.4000000000000004e+00  0.0000000000000000e+00  0.0000000000000000e+00
4.5000000000000000e+00  0.0000000000000000e+00  0.0000000000000000e+00
4.6000000000000005e+00  0.0000000000000000e+00  0.0000000000000000e+00
4.7000000000000002e+00  0.0000000000000000e+00  0.0000000000000000e+00
4.8000000000000007e+00  0.0000000000000000e+00  0.0000000000000000e+00
4.9000000000000004e+00  0.0000000000000000e+00  0.0000000000000000e+00
5.0000000000000000e+00  0.0000000000000000e+00  0.0000000000000000e+00
5.1000000000000005e+00  0.0000000000000000e+00  0.0000000000000000e+00
5.2000000000000002e+00  0.0000000000000000e+00  0.0000000000000000e+00
5.3000000000000007e+00  0.0000000000000000e+00  0.0000000000000000e+00
5.4000000000000004e+00  0.0000000000000000e+00  0.0000000000000000e+00
5.5000000000000000e+00  0.0000000000000000e+00  0.0000000000000000e+00
5.6000000000000005e+00  0.0000000000000000e+00  0.0000000000000000e+00
5.7000000000000002e+00  0.0000000000000000e+00  0.0000000000000000e+00
5.8000000000000007e+00  0.0000000000000000e+00  0.0000000000000000e+00
5.9000000000000004e+00  0.0000000000000000e+00  0.0000000000000000e+00
6.0000000000000000e+00  0.0000000000000000e+00  0.0000000000000000e+00
6.1000000000000005e+00  0.0000000000000000e+00  0.0000000000000000e+00
6.2000000000000002e+00  0.0000000000000000e+00  0.0000000000000000e+00
6.3000000000000007e+00  0.0000000000000000e+00  0.0000000000000000e+00
6.4000000000000004e+00  0.0000000000000000e+00  0.0000000000000000e+00
6.5000000000000000e+00  0.0000000000000000e+00  0.0000000000000000e+00
6.6000000000000005e+00  0.0000000000000000e+00  0.0000000000000000e+00
6.7000000000000002e+00  0.0000000000000000e+00  0.0000000000000000e+00
6.8000000000000007e+00  0.0000000000000000e+00  0.0000000000000000e+00
6.9000000000000004e+00  0.0000000000000000e+00  0.0000000000000000e+00
7.0000000000000000e+00  0.0000000000000000e+00  0.0000000000000000e+00
7.1000000000000005e+00  0.0000000000000000e+00  0.0000000000000000e+00
7.2000000000000002e+00  0.0000000000000000e+00  0.0000000000000000e+00
7.3000000000000007e+00  0.0000000000000000e+00  0.0000000000000000e+00
7.4000000000000004e+00  0.0000000000000000e+00  0.0000000000000000e+00
7.5000000000000000e+00  0.0000000000000000e+00  0.0000000000000000e+00
7.6000000000000005e+00  0.0000000000000000e+00  0.0000000000000000e+00
7.7000000000000002e+00  0.0000000000000000e+00  0.0000000000000000e+00
7.8000000000000007e+00  0.0000000000000000e+00  0.0000000000000000e+00
7.9000000000000004e+00  0.0000000000000000e+00  0.0000000000000000e+00
8.0000000000000000e+00  0.0000000000000000e+00  0.0000000000000000e+00
8.0999999999999996e+00  0.0000000000000000e+00  0.0000000000000000e+00
8.2000000000000011e+00  0.0000000000000000e+00  0.0000000000000000e+00
8.3000000000000007e+00  0.0000000000000000e+00  0.0000000000000000e+00
8.4000000000000004e+00  0.0000000000000000e+00  0.0000000000000000e+00
8.5000000000000000e+00  0.0000000000000000e+00  0.0000000000000000e+00
8.5999999999999996e+00  0.0000000000000000e+00  0.0000000000000000e+00
8.7000000000000011e+00  0.0000000000000000e+00  0.0000000000000000e+00
8.8000000000000007e+00  0.0000000000000000e+00  0.0000000000000000e+00
8.9000000000000004e+00  0.0000000000000000e+00  0.0000000000000000e+00
9.0000000000000000e+00  0.0000000000000000e+00  0.0000000000000000e+00
9.0999999999999996e+00  0.0000000000000000e+00  0.0000000000000000e+00
9.2000000000000011e+00  0.0000000000000000e+00  0.0000000000000000e+00
9.3000000000000007e+00  0.0000000000000000e+00  0.0000000000000000e+00
9.4000000000000004e+00  0.0000000000000000e+00  0.0000000000000000e+00
9.5000000000000000e+00  0.0000000000000000e+00  0.0000000000000000e+00
9.6000000000000014e+00  0.0000000000000000e+00  0.0000000000000000e+00
9.7000000000000011e+00  0.0000000000000000e+00  0.0000000000000000e+00
9.8000000000000007e+00  0.0000000000000000e+00  0.0000000000000000e+00
9.9000000000000004e+00  0.0000000000000000e+00  0.0000000000000000e+00
1.0000000000000000e+01  0.0000000000000000e+00  0.0000000000000000e+00

CELLS 0 0


CELL_TYPES 0


POINT_DATA 101

VECTORS VertexNormals double

0.0000000000000000e+00 0.0000000000000000e+00 0
0.0000000000000000e+00 0.0000000000000000e+00 0
0.0000000000000000e+00 0.0000000000000000e+00 0
0.0000000000000000e+00 0.0000000000000000e+00 0
0.0000000000000000e+00 0.0000000000000000e+00 0
0.0000000000000000e+00 0.0000000000000000e+00 0
0.0000000000000000e+00 0.0000000000000000e+00 0
0.0000000000000000e+00 0.0000000000000000e+00 0
0.0000000000000000e+00 0.0000000000000000e+00 0
0.0000000000000000e+00 0.0000000000000000e+00 0
0.0000000000000000e+00 0.0000000000000000e+00 0
0.0000000000000000e+00 0.0000000000000000e+00 0
0.0000000000000000e+00 0.0000000000000000e+00 0
0.0000000000000000e+00 0.0000000000000000e+00 0
0.0000000000000000e+00 0.0000000000000000e+00 0
0.0000000000000000e+00 0.0000000000000000e+00 0
0.0000000000000000e+00 0.0000000000000000e+00 0
0.0000000000000000e+00 0.0000000000000000e+00 0
0.0000000000000000e+00 0.0000000000000000e+00 0
0.0000000000000000e+00 0.0000000000000000e+00 0
0.0000000000000000e+00 0.0000000000000000e+00 0
0.0000000000000000e+00 0.0000000000000000e+00 0
0.0000000000000000e+00 0.0000000000000000e+00 0
0.0000000000000000e+00 0.0000000000000000e+00 0
0.0000000000000000e+00 0.0000000000000000e+00 0
0.0000000000000000e+00 0.0000000000000000e+00 0
0.0000000000000000e+00 0.0000000000000000e+00 0
0.0000000000000000e+00 0.0000000000000000e+00 0
0.0000000000000000e+00 0.0000000000000000e+00 0
0.0000000000000000e+00 0.0000000000000000e+00 0
0.0000000000000000e+00 0.0000000000000000e+00 0
0.0000000000000000e+00 0.0000000000000000e+00 0
0.0000000000000000e+00 0.0000000000000000e+00 0
0.0000000000000000e+00 0.0000000000000000e+00 0
0.0000000000000000e+00 0.0000000000000000e+00 0
0.0000000000000000e+00 0.0000000000000000e+00 0
0.0000000000000000e+00 0.0000000000000000e+00 0
0.0000000000000000e+00 0.0000000000000000e+00 0
0.0000000000000000e+00 0.0000000000000000e+00 0
0.0000000000000000e+00 0.0000000000000000e+00 0
0.0000000000000000e+00 0.0000000000000000e+00 0
0.0000000000000000e+00 0.0000000000000000e+00 0
0.0000000000000000e+00 0.0000000000000000e+00 0
0.0000000000000000e+00 0.0000000000000000e+00 0
0.0000000000000000e+00 0.0000000000000000e+00 0
0.0000000000000000e+00 0.0000000000000000e+00 0
0.0000000000000000e+00 0.0000000000000000e+00 0
0.0000000000000000e+00 0.0000000000000000e+00 0
0.0000000000000000e+00 0.0000000000000000e+00 0
0.0000000000000000e+00 0.0000000000000000e+00 0
0.0000000000000000e+00 0.0000000000000000e+00 0
0.0000000000000000e+00 0.0000000000000000e+00 0
0.0000000000000000e+00 0.0000000000000000e+00 0
0.0000000000000000e+00 0.0000000000000000e+00 0
0.0000000000000000e+00 0.0000000000000000e+00 0
0.0000000000000000e+00 0.0000000000000000e+00 0
0.0000000000000000e+00 0.0000000000000000e+00 0
0.0000000000000000e+00 0.0000000000000000e+00 0
0.0000000000000000e+00 0.0000000000000000e+00 0
0.0000000000000000e+00 0.0000000000000000e+00 0
0.0000000000000000e+00 0.0000000000000000e+00 0
0.0000000000000000e+00 0.0000000000000000e+00 0
0.0000000000000000e+00 0.0000000000000000e+00 0
0.0000000000000000e+00 0.0000000000000000e+00 0
0.0000000000000000e+00 0.0000000000000000e+00 0
0.0000000000000000e+00 0.0000000000000000e+00 0
0.0000000000000000e+00 0.0000000000000000e+00 0
0.0000000000000000e+00 0.0000000000000000e+00 0
0.0000000000000000e+00 0.0000000000000000e+00 0
0.0000000000000000e+00 0.0000000000000000e+00 0
0.0000000000000000e+00 0.0000000000000000e+00 0
0.0000000000000000e+00 0.0000000000000000e+00 0
0.0000000000000000e+00 0.0000000000000000e+00 0
0.0000000000000000e+00 0.0000000000000000e+00 0
0.0000000000000000e+00 0.0000000000000000e+00 0
0.0000000000000000e+00 0.0000000000000000e+00 0
0.0000000000000000e+00 0.0000000000000000e+00 0
0.0000000000000000e+00 0.0000000000000000e+00 0
0.0000000000000000e+00 0.0000000000000000e+00 0
0.0000000000000000e+00 0.0000000000000000e+00 0
0.0000000000000000e+00 0.0000000000000000e+00 0
0.0000000000000000e+00 0.0000000000000000e+00 0
0.0000000000000000e+00 0.0000000000000000e+00 0
0.0000000000000000e+00 0.0000000000000000e+00 0
0.0000000000000000e+00 0.0000000000000000e+00 0
0.0000000000000000e+00 0.0000000000000000e+00 0
0.0000000000000000e+00 0.0000000000000000e+00 0
0.0000000000000000e+00 0.0000000000000000e+00 0
0.0000000000000000e+00 0.0000000000000000e+00 0
0.0000000000000000e+00 0.0000000000000000e+00 0
0.0000000000000000e+00 0.0000000000000000e+00 0
0.0000000000000000e+00 0.0000000000000000e+00 0
0.0000000000000000e+00 0.0000000000000000e+00 0
0.0000000000000000e+00 0.0000000000000000e+00 0
0.0000000000000000e+00 0.0000000000000000e+00 0
0.0000000000000000e+00 0.0000000000000000e+00 0
0.0000000000000000e+00 0.0000000000000000e+00 0
0.0000000000000000e+00 0.0000000000000000e+00 0
0.0000000000000000e+00 0.0000000000000000e+00 0
0.0000000000000000e+00 0.0000000000000000e+00 0
0.0000000000000000e+00 0.0000000000000000e+00 0

SCALARS CrossSectionLength double
LOOKUP_TABLE default
1.0260336723434857e+00
1.0253335766225067e+00
1.0246341972038295e+00
1.0239064464401495e+00
1.0231750137099942e+00
1.0224219146394284e+00
1.0216619754377363e+00
1.0208859902325815e+00
1.0201010475165371e+00
1.0193047754626898e+00
1.0184982927199044e+00
1.0176844509594549e+00
1.0168598558934046e+00
1.0160312599890271e+00
1.0151919468796586e+00
1.0143514916228946e+00
1.0135008220618742e+00
1.0126514627332059e+00
1.0117927646303606e+00
1.0109374987899367e+00
1.0100740636747851e+00
1.0092159134921315e+00
1.0083509922146947e+00
1.0074929873136618e+00
1.0066297842980041e+00
1.0057749450858040e+00
1.0049166113184795e+00
1.0040679327755597e+00
1.0032175577263795e+00
1.0023779936503230e+00
1.0015385963295356e+00
1.0007110440463247e+00
9.9988556340359280e-01
9.9907284898016147e-01
9.9826413384848978e-01
9.9746899785948628e-01
9.9667979664237893e-01
9.9590488056034587e-01
9.9513783085328900e-01
9.9438566414436380e-01
9.9364328247238287e-01
9.9291627048868003e-01
9.9220094233053835e-01
9.9150135509519599e-01
9.9081532535185157e-01
9.9014528733351048e-01
9.8949065138361392e-01
9.8885213235422642e-01
9.8823082782274729e-01
9.8762563488631883e-01
9.8703943423426965e-01
9.8646920510461578e-01
9.8591970912856253e-01
9.8538590672208060e-01
9.8487453903181565e-01
9.8437844742730085e-01
9.8390644994909082e-01
9.8344917175108737e-01
9.8301760128312798e-01
9.8260005640841552e-01
9.8220978223509581e-01
9.8183270812435319e-01
9.8148441067678793e-01
9.8114836391612492e-01
9.8084253444829805e-01
9.8054789376869644e-01
9.8028483500222796e-01
9.8003180560880543e-01
9.7981163328565968e-01
9.7960025245302829e-01
9.7942289772492674e-01
9.7925304158003756e-01
9.7911825415587861e-01
9.7898964555608048e-01
9.7889699752438786e-01
9.7880921492587081e-01
9.7875810516855855e-01
9.7871059236860181e-01
9.7870025148550721e-01
9.7869232811072548e-01
9.7872182378128492e-01
9.7875269638348150e-01
9.7882093910232004e-01
9.7888971271351333e-01
9.7899546185036701e-01
9.7910115183879154e-01
9.7924302199004731e-01
9.7938456604911150e-01
9.7956103366799108e-01
9.7973730376033397e-01
9.7994671407471245e-01
9.8015652814391463e-01
9.8039710239410882e-01
9.8063923564759503e-01
9.8090907870046096e-01
9.8118227425888704e-01
9.8147938267841628e-01
9.8178236137983876e-01
9.8210463205711385e-01
9.8243610119917901e-01
9.8278134066492950e-01

SCALARS Pressure double
LOOKUP_TABLE default
4.2292923010155528e+03
4.2242062977044880e+03
4.2191202943934222e+03
4.2125483910042021e+03
4.2059637131897880e+03
4.1978418277498195e+03
4.1896984181201296e+03
4.1799685394418875e+03
4.1702120707595786e+03
4.1588223546309500e+03
4.1474044125688379e+03
4.1343092770646836e+03
4.1211875233649798e+03
4.1063477399478688e+03
4.0914860553838407e+03
4.0748688325667249e+03
4.0582374389139104e+03
4.0398164953845740e+03
4.0213920553865505e+03
4.0011476796378020e+03
3.9809133737883890e+03
3.9588324674597329e+03
3.9367780463228687e+03
3.9128541486423355e+03
3.8889759593938643e+03
3.8632092503153544e+03
3.8375102362185148e+03
3.8099075160819298e+03
3.7823971876994674e+03
3.7529718314996053e+03
3.7236662085966955e+03
3.6924380932338308e+03
3.6613596165322656e+03
3.6283550197322334e+03
3.5955324319318192e+03
3.5607839018642571e+03
3.5262520976456290e+03
3.4897982926315694e+03
3.4535981376887898e+03
3.4154836357675385e+03
3.3776617552807056e+03
3.3379368337948049e+03
3.2985453711327928e+03
3.2572657568825625e+03
3.2163621037137132e+03
3.1735886946217843e+03
3.1312351939962227e+03
3.0870337535992599e+03
3.0432973779407898e+03
2.9977382043823268e+03
2.9526902106806615e+03
2.9058477822083232e+03
2.8595633470245625e+03
2.8115159462896354e+03
2.7640737834716820e+03
2.7149031031826335e+03
2.6663850674254759e+03
2.6161758001153539e+03
2.5666664796869832e+03
2.5155058945151063e+03
2.4650921965974626e+03
2.4130697062162435e+03
2.3618404383800230e+03
2.3090471589565668e+03
2.2570926102986928e+03
2.2036209177887208e+03
2.1510324432117973e+03
2.0969755289441409e+03
2.0438451399486207e+03
1.9892965684971605e+03
1.9357165336918654e+03
1.8807698058934193e+03
1.8268322642131939e+03
1.7715803880400417e+03
1.7173769773961360e+03
1.6619120492176185e+03
1.6075335530021500e+03
1.5519463515791822e+03
1.4974823651053580e+03
1.4418619604624896e+03
1.3874005790539352e+03
1.3318339581725156e+03
1.2774614882254648e+03
1.2220331993050131e+03
1.1678338932428228e+03
1.1126257100925807e+03
1.0586815257188696e+03
1.0037721336736101e+03
9.5016251801432873e+02
8.9562722262176908e+02
8.4242891993436115e+02
7.8833937953803456e+02
7.3562626276415756e+02
6.8205024600636148e+02
6.2989317055910431e+02
5.7689433975377995e+02
5.2536101816622079e+02
4.7299873943992105e+02
4.2215363506478872e+02
3.7048281613192967e+02
3.2038705377788074e+02

