# vtk DataFile Version 2.0

ASCII

DATASET UNSTRUCTURED_GRID

POINTS 101 double 

0.0000000000000000e+00  0.0000000000000000e+00  0.0000000000000000e+00
1.0000000000000001e-01  0.0000000000000000e+00  0.0000000000000000e+00
2.0000000000000001e-01  0.0000000000000000e+00  0.0000000000000000e+00
3.0000000000000004e-01  0.0000000000000000e+00  0.0000000000000000e+00
4.0000000000000002e-01  0.0000000000000000e+00  0.0000000000000000e+00
5.0000000000000000e-01  0.0000000000000000e+00  0.0000000000000000e+00
6.0000000000000009e-01  0.0000000000000000e+00  0.0000000000000000e+00
7.0000000000000007e-01  0.0000000000000000e+00  0.0000000000000000e+00
8.0000000000000004e-01  0.0000000000000000e+00  0.0000000000000000e+00
9.0000000000000002e-01  0.0000000000000000e+00  0.0000000000000000e+00
1.0000000000000000e+00  0.0000000000000000e+00  0.0000000000000000e+00
1.1000000000000001e+00  0.0000000000000000e+00  0.0000000000000000e+00
1.2000000000000002e+00  0.0000000000000000e+00  0.0000000000000000e+00
1.3000000000000000e+00  0.0000000000000000e+00  0.0000000000000000e+00
1.4000000000000001e+00  0.0000000000000000e+00  0.0000000000000000e+00
1.5000000000000000e+00  0.0000000000000000e+00  0.0000000000000000e+00
1.6000000000000001e+00  0.0000000000000000e+00  0.0000000000000000e+00
1.7000000000000002e+00  0.0000000000000000e+00  0.0000000000000000e+00
1.8000000000000000e+00  0.0000000000000000e+00  0.0000000000000000e+00
1.9000000000000001e+00  0.0000000000000000e+00  0.0000000000000000e+00
2.0000000000000000e+00  0.0000000000000000e+00  0.0000000000000000e+00
2.1000000000000001e+00  0.0000000000000000e+00  0.0000000000000000e+00
2.2000000000000002e+00  0.0000000000000000e+00  0.0000000000000000e+00
2.3000000000000003e+00  0.0000000000000000e+00  0.0000000000000000e+00
2.4000000000000004e+00  0.0000000000000000e+00  0.0000000000000000e+00
2.5000000000000000e+00  0.0000000000000000e+00  0.0000000000000000e+00
2.6000000000000001e+00  0.0000000000000000e+00  0.0000000000000000e+00
2.7000000000000002e+00  0.0000000000000000e+00  0.0000000000000000e+00
2.8000000000000003e+00  0.0000000000000000e+00  0.0000000000000000e+00
2.9000000000000004e+00  0.0000000000000000e+00  0.0000000000000000e+00
3.0000000000000000e+00  0.0000000000000000e+00  0.0000000000000000e+00
3.1000000000000001e+00  0.0000000000000000e+00  0.0000000000000000e+00
3.2000000000000002e+00  0.0000000000000000e+00  0.0000000000000000e+00
3.3000000000000003e+00  0.0000000000000000e+00  0.0000000000000000e+00
3.4000000000000004e+00  0.0000000000000000e+00  0.0000000000000000e+00
3.5000000000000000e+00  0.0000000000000000e+00  0.0000000000000000e+00
3.6000000000000001e+00  0.0000000000000000e+00  0.0000000000000000e+00
3.7000000000000002e+00  0.0000000000000000e+00  0.0000000000000000e+00
3.8000000000000003e+00  0.0000000000000000e+00  0.0000000000000000e+00
3.9000000000000004e+00  0.0000000000000000e+00  0.0000000000000000e+00
4.0000000000000000e+00  0.0000000000000000e+00  0.0000000000000000e+00
4.1000000000000005e+00  0.0000000000000000e+00  0.0000000000000000e+00
4.2000000000000002e+00  0.0000000000000000e+00  0.0000000000000000e+00
4.2999999999999998e+00  0.0000000000000000e+00  0.0000000000000000e+00
4.4000000000000004e+00  0.0000000000000000e+00  0.0000000000000000e+00
4.5000000000000000e+00  0.0000000000000000e+00  0.0000000000000000e+00
4.6000000000000005e+00  0.0000000000000000e+00  0.0000000000000000e+00
4.7000000000000002e+00  0.0000000000000000e+00  0.0000000000000000e+00
4.8000000000000007e+00  0.0000000000000000e+00  0.0000000000000000e+00
4.9000000000000004e+00  0.0000000000000000e+00  0.0000000000000000e+00
5.0000000000000000e+00  0.0000000000000000e+00  0.0000000000000000e+00
5.1000000000000005e+00  0.0000000000000000e+00  0.0000000000000000e+00
5.2000000000000002e+00  0.0000000000000000e+00  0.0000000000000000e+00
5.3000000000000007e+00  0.0000000000000000e+00  0.0000000000000000e+00
5.4000000000000004e+00  0.0000000000000000e+00  0.0000000000000000e+00
5.5000000000000000e+00  0.0000000000000000e+00  0.0000000000000000e+00
5.6000000000000005e+00  0.0000000000000000e+00  0.0000000000000000e+00
5.7000000000000002e+00  0.0000000000000000e+00  0.0000000000000000e+00
5.8000000000000007e+00  0.0000000000000000e+00  0.0000000000000000e+00
5.9000000000000004e+00  0.0000000000000000e+00  0.0000000000000000e+00
6.0000000000000000e+00  0.0000000000000000e+00  0.0000000000000000e+00
6.1000000000000005e+00  0.0000000000000000e+00  0.0000000000000000e+00
6.2000000000000002e+00  0.0000000000000000e+00  0.0000000000000000e+00
6.3000000000000007e+00  0.0000000000000000e+00  0.0000000000000000e+00
6.4000000000000004e+00  0.0000000000000000e+00  0.0000000000000000e+00
6.5000000000000000e+00  0.0000000000000000e+00  0.0000000000000000e+00
6.6000000000000005e+00  0.0000000000000000e+00  0.0000000000000000e+00
6.7000000000000002e+00  0.0000000000000000e+00  0.0000000000000000e+00
6.8000000000000007e+00  0.0000000000000000e+00  0.0000000000000000e+00
6.9000000000000004e+00  0.0000000000000000e+00  0.0000000000000000e+00
7.0000000000000000e+00  0.0000000000000000e+00  0.0000000000000000e+00
7.1000000000000005e+00  0.0000000000000000e+00  0.0000000000000000e+00
7.2000000000000002e+00  0.0000000000000000e+00  0.0000000000000000e+00
7.3000000000000007e+00  0.0000000000000000e+00  0.0000000000000000e+00
7.4000000000000004e+00  0.0000000000000000e+00  0.0000000000000000e+00
7.5000000000000000e+00  0.0000000000000000e+00  0.0000000000000000e+00
7.6000000000000005e+00  0.0000000000000000e+00  0.0000000000000000e+00
7.7000000000000002e+00  0.0000000000000000e+00  0.0000000000000000e+00
7.8000000000000007e+00  0.0000000000000000e+00  0.0000000000000000e+00
7.9000000000000004e+00  0.0000000000000000e+00  0.0000000000000000e+00
8.0000000000000000e+00  0.0000000000000000e+00  0.0000000000000000e+00
8.0999999999999996e+00  0.0000000000000000e+00  0.0000000000000000e+00
8.2000000000000011e+00  0.0000000000000000e+00  0.0000000000000000e+00
8.3000000000000007e+00  0.0000000000000000e+00  0.0000000000000000e+00
8.4000000000000004e+00  0.0000000000000000e+00  0.0000000000000000e+00
8.5000000000000000e+00  0.0000000000000000e+00  0.0000000000000000e+00
8.5999999999999996e+00  0.0000000000000000e+00  0.0000000000000000e+00
8.7000000000000011e+00  0.0000000000000000e+00  0.0000000000000000e+00
8.8000000000000007e+00  0.0000000000000000e+00  0.0000000000000000e+00
8.9000000000000004e+00  0.0000000000000000e+00  0.0000000000000000e+00
9.0000000000000000e+00  0.0000000000000000e+00  0.0000000000000000e+00
9.0999999999999996e+00  0.0000000000000000e+00  0.0000000000000000e+00
9.2000000000000011e+00  0.0000000000000000e+00  0.0000000000000000e+00
9.3000000000000007e+00  0.0000000000000000e+00  0.0000000000000000e+00
9.4000000000000004e+00  0.0000000000000000e+00  0.0000000000000000e+00
9.5000000000000000e+00  0.0000000000000000e+00  0.0000000000000000e+00
9.6000000000000014e+00  0.0000000000000000e+00  0.0000000000000000e+00
9.7000000000000011e+00  0.0000000000000000e+00  0.0000000000000000e+00
9.8000000000000007e+00  0.0000000000000000e+00  0.0000000000000000e+00
9.9000000000000004e+00  0.0000000000000000e+00  0.0000000000000000e+00
1.0000000000000000e+01  0.0000000000000000e+00  0.0000000000000000e+00

CELLS 0 0


CELL_TYPES 0


POINT_DATA 101

VECTORS VertexNormals double

0.0000000000000000e+00 0.0000000000000000e+00 0
0.0000000000000000e+00 0.0000000000000000e+00 0
0.0000000000000000e+00 0.0000000000000000e+00 0
0.0000000000000000e+00 0.0000000000000000e+00 0
0.0000000000000000e+00 0.0000000000000000e+00 0
0.0000000000000000e+00 0.0000000000000000e+00 0
0.0000000000000000e+00 0.0000000000000000e+00 0
0.0000000000000000e+00 0.0000000000000000e+00 0
0.0000000000000000e+00 0.0000000000000000e+00 0
0.0000000000000000e+00 0.0000000000000000e+00 0
0.0000000000000000e+00 0.0000000000000000e+00 0
0.0000000000000000e+00 0.0000000000000000e+00 0
0.0000000000000000e+00 0.0000000000000000e+00 0
0.0000000000000000e+00 0.0000000000000000e+00 0
0.0000000000000000e+00 0.0000000000000000e+00 0
0.0000000000000000e+00 0.0000000000000000e+00 0
0.0000000000000000e+00 0.0000000000000000e+00 0
0.0000000000000000e+00 0.0000000000000000e+00 0
0.0000000000000000e+00 0.0000000000000000e+00 0
0.0000000000000000e+00 0.0000000000000000e+00 0
0.0000000000000000e+00 0.0000000000000000e+00 0
0.0000000000000000e+00 0.0000000000000000e+00 0
0.0000000000000000e+00 0.0000000000000000e+00 0
0.0000000000000000e+00 0.0000000000000000e+00 0
0.0000000000000000e+00 0.0000000000000000e+00 0
0.0000000000000000e+00 0.0000000000000000e+00 0
0.0000000000000000e+00 0.0000000000000000e+00 0
0.0000000000000000e+00 0.0000000000000000e+00 0
0.0000000000000000e+00 0.0000000000000000e+00 0
0.0000000000000000e+00 0.0000000000000000e+00 0
0.0000000000000000e+00 0.0000000000000000e+00 0
0.0000000000000000e+00 0.0000000000000000e+00 0
0.0000000000000000e+00 0.0000000000000000e+00 0
0.0000000000000000e+00 0.0000000000000000e+00 0
0.0000000000000000e+00 0.0000000000000000e+00 0
0.0000000000000000e+00 0.0000000000000000e+00 0
0.0000000000000000e+00 0.0000000000000000e+00 0
0.0000000000000000e+00 0.0000000000000000e+00 0
0.0000000000000000e+00 0.0000000000000000e+00 0
0.0000000000000000e+00 0.0000000000000000e+00 0
0.0000000000000000e+00 0.0000000000000000e+00 0
0.0000000000000000e+00 0.0000000000000000e+00 0
0.0000000000000000e+00 0.0000000000000000e+00 0
0.0000000000000000e+00 0.0000000000000000e+00 0
0.0000000000000000e+00 0.0000000000000000e+00 0
0.0000000000000000e+00 0.0000000000000000e+00 0
0.0000000000000000e+00 0.0000000000000000e+00 0
0.0000000000000000e+00 0.0000000000000000e+00 0
0.0000000000000000e+00 0.0000000000000000e+00 0
0.0000000000000000e+00 0.0000000000000000e+00 0
0.0000000000000000e+00 0.0000000000000000e+00 0
0.0000000000000000e+00 0.0000000000000000e+00 0
0.0000000000000000e+00 0.0000000000000000e+00 0
0.0000000000000000e+00 0.0000000000000000e+00 0
0.0000000000000000e+00 0.0000000000000000e+00 0
0.0000000000000000e+00 0.0000000000000000e+00 0
0.0000000000000000e+00 0.0000000000000000e+00 0
0.0000000000000000e+00 0.0000000000000000e+00 0
0.0000000000000000e+00 0.0000000000000000e+00 0
0.0000000000000000e+00 0.0000000000000000e+00 0
0.0000000000000000e+00 0.0000000000000000e+00 0
0.0000000000000000e+00 0.0000000000000000e+00 0
0.0000000000000000e+00 0.0000000000000000e+00 0
0.0000000000000000e+00 0.0000000000000000e+00 0
0.0000000000000000e+00 0.0000000000000000e+00 0
0.0000000000000000e+00 0.0000000000000000e+00 0
0.0000000000000000e+00 0.0000000000000000e+00 0
0.0000000000000000e+00 0.0000000000000000e+00 0
0.0000000000000000e+00 0.0000000000000000e+00 0
0.0000000000000000e+00 0.0000000000000000e+00 0
0.0000000000000000e+00 0.0000000000000000e+00 0
0.0000000000000000e+00 0.0000000000000000e+00 0
0.0000000000000000e+00 0.0000000000000000e+00 0
0.0000000000000000e+00 0.0000000000000000e+00 0
0.0000000000000000e+00 0.0000000000000000e+00 0
0.0000000000000000e+00 0.0000000000000000e+00 0
0.0000000000000000e+00 0.0000000000000000e+00 0
0.0000000000000000e+00 0.0000000000000000e+00 0
0.0000000000000000e+00 0.0000000000000000e+00 0
0.0000000000000000e+00 0.0000000000000000e+00 0
0.0000000000000000e+00 0.0000000000000000e+00 0
0.0000000000000000e+00 0.0000000000000000e+00 0
0.0000000000000000e+00 0.0000000000000000e+00 0
0.0000000000000000e+00 0.0000000000000000e+00 0
0.0000000000000000e+00 0.0000000000000000e+00 0
0.0000000000000000e+00 0.0000000000000000e+00 0
0.0000000000000000e+00 0.0000000000000000e+00 0
0.0000000000000000e+00 0.0000000000000000e+00 0
0.0000000000000000e+00 0.0000000000000000e+00 0
0.0000000000000000e+00 0.0000000000000000e+00 0
0.0000000000000000e+00 0.0000000000000000e+00 0
0.0000000000000000e+00 0.0000000000000000e+00 0
0.0000000000000000e+00 0.0000000000000000e+00 0
0.0000000000000000e+00 0.0000000000000000e+00 0
0.0000000000000000e+00 0.0000000000000000e+00 0
0.0000000000000000e+00 0.0000000000000000e+00 0
0.0000000000000000e+00 0.0000000000000000e+00 0
0.0000000000000000e+00 0.0000000000000000e+00 0
0.0000000000000000e+00 0.0000000000000000e+00 0
0.0000000000000000e+00 0.0000000000000000e+00 0
0.0000000000000000e+00 0.0000000000000000e+00 0

SCALARS CrossSectionLength double
LOOKUP_TABLE default
9.8134704379973936e-01
9.8070607405794763e-01
9.8006573208807612e-01
9.7947134135427572e-01
9.7887917143030656e-01
9.7833271912826247e-01
9.7779030395085431e-01
9.7729299234177736e-01
9.7680164616023180e-01
9.7635450230050225e-01
9.7591527581202242e-01
9.7551913761346343e-01
9.7513282251385025e-01
9.7478832842856100e-01
9.7445546213434464e-01
9.7416304406993648e-01
9.7388391499101667e-01
9.7364379412113411e-01
9.7341844774532416e-01
9.7323063292183853e-01
9.7305887887382747e-01
9.7292316737646523e-01
9.7280458753119003e-01
9.7272056791072847e-01
9.7265452557392729e-01
9.7262158235881646e-01
9.7260723247394232e-01
9.7262455252028279e-01
9.7266085281884718e-01
9.7272743309200915e-01
9.7281315607332097e-01
9.7292781265591644e-01
9.7306155826221019e-01
9.7322293638826407e-01
9.7340314523029414e-01
9.7360973015132957e-01
9.7383469713556825e-01
9.7408482563108889e-01
9.7435271384257283e-01
9.7464458619420113e-01
9.7495344089806213e-01
9.7528513315413479e-01
9.7563289579115786e-01
9.7600237215862451e-01
9.7638689422361025e-01
9.7679201943672411e-01
9.7721107614252289e-01
9.7764962767213848e-01
9.7810093131651998e-01
9.7857061129973988e-01
9.7905182426554893e-01
9.7955027105327241e-01
9.8005901838373333e-01
9.8058381762296154e-01
9.8111769912343905e-01
9.8166639431146441e-01
9.8222299613601460e-01
9.8279309860509367e-01
9.8337000428988297e-01
9.8395900260387104e-01
9.8455380351000410e-01
9.8515917227777572e-01
9.8576947740435661e-01
9.8638868553724746e-01
9.8701213066263283e-01
9.8764264912410371e-01
9.8827690522914147e-01
9.8891621434482579e-01
9.8955899526604929e-01
9.9020459168141828e-01
9.9085366093520810e-01
9.9150306432536761e-01
9.9215624103725186e-01
9.9280700068782946e-01
9.9346216455527137e-01
9.9411186594468104e-01
9.9476696115705310e-01
9.9541323267872694e-01
9.9606627071492893e-01
9.9670679068306389e-01
9.9735585190631659e-01
9.9798835598936164e-01
9.9863158996128976e-01
9.9925387918284692e-01
9.9988950362610807e-01
1.0004994530624656e+00
1.0011257514135361e+00
1.0017213197002393e+00
1.0023366372121629e+00
1.0029158769483251e+00
1.0035186153278546e+00
1.0040796844357580e+00
1.0046682950310712e+00
1.0052094690893532e+00
1.0057824446842121e+00
1.0063021302049331e+00
1.0068579955234556e+00
1.0073547440862918e+00
1.0078920451694273e+00
1.0083645682607218e+00
1.0088818609399137e+00

SCALARS Pressure double
LOOKUP_TABLE default
3.9594923065378714e+02
3.8684261843691348e+02
3.7773600622003977e+02
3.6728357577290245e+02
3.5690537844106296e+02
3.4520742750829424e+02
3.3365811461135934e+02
3.2081825183641928e+02
3.0820170587470557e+02
2.9432638293493591e+02
2.8074938266781254e+02
2.6594740640406729e+02
2.5151909546299535e+02
2.3590112494051164e+02
2.2073247014863657e+02
2.0441050366498075e+02
1.8861374772505178e+02
1.7170060478358289e+02
1.5538871813102321e+02
1.3799752131975532e+02
1.2128365795276552e+02
1.0352731951277237e+02
8.6524281509622583e+01
6.8514999152377314e+01
5.1334714375708351e+01
3.3183480622063570e+01
1.5936497805404308e+01
-2.2473732229418815e+00
-1.9452368194251729e+01
-3.7561692985930016e+01
-5.4618336234974791e+01
-7.2548489974770249e+01
-8.9353171365803888e+01
-1.0700248920668061e+02
-1.2345475430390040e+02
-1.4072490359246757e+02
-1.5672782402866059e+02
-1.7352414571192253e+02
-1.8898465667666193e+02
-2.0521647457209784e+02
-2.2004567863661521e+02
-2.3562657568961873e+02
-2.4974001265958219e+02
-2.6458807373735709e+02
-2.7790595665554360e+02
-2.9194397782766953e+02
-3.0439139563054755e+02
-3.1754706025769781e+02
-3.2905414791870191e+02
-3.4126017020936001e+02
-3.5176224747431945e+02
-3.6295648447185329e+02
-3.7239416450963137e+02
-3.8251969773545574e+02
-3.9083896719193268e+02
-3.9984415539409292e+02
-4.0699642745161083e+02
-4.1483493209448841e+02
-4.2077707420312112e+02
-4.2740785948605327e+02
-4.3210219745130968e+02
-4.3748950676320158e+02
-4.4090380685306451e+02
-4.4501711765764179e+02
-4.4712454833637253e+02
-4.4993850754116329e+02
-4.5071758235258073e+02
-4.5221192424868542e+02
-4.5164642726086009e+02
-4.5180587613513478e+02
-4.4988477122535261e+02
-4.4869893074516250e+02
-4.4541625585417341e+02
-4.4287948730871506e+02
-4.3823423463299952e+02
-4.3434552608550621e+02
-4.2834150901052692e+02
-4.2310433737494913e+02
-4.1575004478432049e+02
-4.0917223279100148e+02
-4.0048067122017272e+02
-3.9257424117747178e+02
-3.8256276512290856e+02
-3.7334379131186478e+02
-3.6203392186692753e+02
-3.5152238331913037e+02
-3.3893961519318202e+02
-3.2715925049574139e+02
-3.1333284738735210e+02
-3.0031101303244884e+02
-2.8527379127458602e+02
-2.7104132492107925e+02
-2.5482942530348103e+02
-2.3942051513625961e+02
-2.2207316284869179e+02
-2.0552522399874150e+02
-1.8708447673746014e+02
-1.6943803545691418e+02
-1.4994851989888303e+02
-1.3124710586967402e+02
-1.1075574294534577e+02

