# vtk DataFile Version 2.0

ASCII

DATASET UNSTRUCTURED_GRID

POINTS 101 float 

0.0000000000000000e+00  0.0000000000000000e+00  0.0000000000000000e+00
1.0000000000000001e-01  0.0000000000000000e+00  0.0000000000000000e+00
2.0000000000000001e-01  0.0000000000000000e+00  0.0000000000000000e+00
3.0000000000000004e-01  0.0000000000000000e+00  0.0000000000000000e+00
4.0000000000000002e-01  0.0000000000000000e+00  0.0000000000000000e+00
5.0000000000000000e-01  0.0000000000000000e+00  0.0000000000000000e+00
6.0000000000000009e-01  0.0000000000000000e+00  0.0000000000000000e+00
7.0000000000000007e-01  0.0000000000000000e+00  0.0000000000000000e+00
8.0000000000000004e-01  0.0000000000000000e+00  0.0000000000000000e+00
9.0000000000000002e-01  0.0000000000000000e+00  0.0000000000000000e+00
1.0000000000000000e+00  0.0000000000000000e+00  0.0000000000000000e+00
1.1000000000000001e+00  0.0000000000000000e+00  0.0000000000000000e+00
1.2000000000000002e+00  0.0000000000000000e+00  0.0000000000000000e+00
1.3000000000000000e+00  0.0000000000000000e+00  0.0000000000000000e+00
1.4000000000000001e+00  0.0000000000000000e+00  0.0000000000000000e+00
1.5000000000000000e+00  0.0000000000000000e+00  0.0000000000000000e+00
1.6000000000000001e+00  0.0000000000000000e+00  0.0000000000000000e+00
1.7000000000000002e+00  0.0000000000000000e+00  0.0000000000000000e+00
1.8000000000000000e+00  0.0000000000000000e+00  0.0000000000000000e+00
1.9000000000000001e+00  0.0000000000000000e+00  0.0000000000000000e+00
2.0000000000000000e+00  0.0000000000000000e+00  0.0000000000000000e+00
2.1000000000000001e+00  0.0000000000000000e+00  0.0000000000000000e+00
2.2000000000000002e+00  0.0000000000000000e+00  0.0000000000000000e+00
2.3000000000000003e+00  0.0000000000000000e+00  0.0000000000000000e+00
2.4000000000000004e+00  0.0000000000000000e+00  0.0000000000000000e+00
2.5000000000000000e+00  0.0000000000000000e+00  0.0000000000000000e+00
2.6000000000000001e+00  0.0000000000000000e+00  0.0000000000000000e+00
2.7000000000000002e+00  0.0000000000000000e+00  0.0000000000000000e+00
2.8000000000000003e+00  0.0000000000000000e+00  0.0000000000000000e+00
2.9000000000000004e+00  0.0000000000000000e+00  0.0000000000000000e+00
3.0000000000000000e+00  0.0000000000000000e+00  0.0000000000000000e+00
3.1000000000000001e+00  0.0000000000000000e+00  0.0000000000000000e+00
3.2000000000000002e+00  0.0000000000000000e+00  0.0000000000000000e+00
3.3000000000000003e+00  0.0000000000000000e+00  0.0000000000000000e+00
3.4000000000000004e+00  0.0000000000000000e+00  0.0000000000000000e+00
3.5000000000000000e+00  0.0000000000000000e+00  0.0000000000000000e+00
3.6000000000000001e+00  0.0000000000000000e+00  0.0000000000000000e+00
3.7000000000000002e+00  0.0000000000000000e+00  0.0000000000000000e+00
3.8000000000000003e+00  0.0000000000000000e+00  0.0000000000000000e+00
3.9000000000000004e+00  0.0000000000000000e+00  0.0000000000000000e+00
4.0000000000000000e+00  0.0000000000000000e+00  0.0000000000000000e+00
4.1000000000000005e+00  0.0000000000000000e+00  0.0000000000000000e+00
4.2000000000000002e+00  0.0000000000000000e+00  0.0000000000000000e+00
4.2999999999999998e+00  0.0000000000000000e+00  0.0000000000000000e+00
4.4000000000000004e+00  0.0000000000000000e+00  0.0000000000000000e+00
4.5000000000000000e+00  0.0000000000000000e+00  0.0000000000000000e+00
4.6000000000000005e+00  0.0000000000000000e+00  0.0000000000000000e+00
4.7000000000000002e+00  0.0000000000000000e+00  0.0000000000000000e+00
4.8000000000000007e+00  0.0000000000000000e+00  0.0000000000000000e+00
4.9000000000000004e+00  0.0000000000000000e+00  0.0000000000000000e+00
5.0000000000000000e+00  0.0000000000000000e+00  0.0000000000000000e+00
5.1000000000000005e+00  0.0000000000000000e+00  0.0000000000000000e+00
5.2000000000000002e+00  0.0000000000000000e+00  0.0000000000000000e+00
5.3000000000000007e+00  0.0000000000000000e+00  0.0000000000000000e+00
5.4000000000000004e+00  0.0000000000000000e+00  0.0000000000000000e+00
5.5000000000000000e+00  0.0000000000000000e+00  0.0000000000000000e+00
5.6000000000000005e+00  0.0000000000000000e+00  0.0000000000000000e+00
5.7000000000000002e+00  0.0000000000000000e+00  0.0000000000000000e+00
5.8000000000000007e+00  0.0000000000000000e+00  0.0000000000000000e+00
5.9000000000000004e+00  0.0000000000000000e+00  0.0000000000000000e+00
6.0000000000000000e+00  0.0000000000000000e+00  0.0000000000000000e+00
6.1000000000000005e+00  0.0000000000000000e+00  0.0000000000000000e+00
6.2000000000000002e+00  0.0000000000000000e+00  0.0000000000000000e+00
6.3000000000000007e+00  0.0000000000000000e+00  0.0000000000000000e+00
6.4000000000000004e+00  0.0000000000000000e+00  0.0000000000000000e+00
6.5000000000000000e+00  0.0000000000000000e+00  0.0000000000000000e+00
6.6000000000000005e+00  0.0000000000000000e+00  0.0000000000000000e+00
6.7000000000000002e+00  0.0000000000000000e+00  0.0000000000000000e+00
6.8000000000000007e+00  0.0000000000000000e+00  0.0000000000000000e+00
6.9000000000000004e+00  0.0000000000000000e+00  0.0000000000000000e+00
7.0000000000000000e+00  0.0000000000000000e+00  0.0000000000000000e+00
7.1000000000000005e+00  0.0000000000000000e+00  0.0000000000000000e+00
7.2000000000000002e+00  0.0000000000000000e+00  0.0000000000000000e+00
7.3000000000000007e+00  0.0000000000000000e+00  0.0000000000000000e+00
7.4000000000000004e+00  0.0000000000000000e+00  0.0000000000000000e+00
7.5000000000000000e+00  0.0000000000000000e+00  0.0000000000000000e+00
7.6000000000000005e+00  0.0000000000000000e+00  0.0000000000000000e+00
7.7000000000000002e+00  0.0000000000000000e+00  0.0000000000000000e+00
7.8000000000000007e+00  0.0000000000000000e+00  0.0000000000000000e+00
7.9000000000000004e+00  0.0000000000000000e+00  0.0000000000000000e+00
8.0000000000000000e+00  0.0000000000000000e+00  0.0000000000000000e+00
8.0999999999999996e+00  0.0000000000000000e+00  0.0000000000000000e+00
8.2000000000000011e+00  0.0000000000000000e+00  0.0000000000000000e+00
8.3000000000000007e+00  0.0000000000000000e+00  0.0000000000000000e+00
8.4000000000000004e+00  0.0000000000000000e+00  0.0000000000000000e+00
8.5000000000000000e+00  0.0000000000000000e+00  0.0000000000000000e+00
8.5999999999999996e+00  0.0000000000000000e+00  0.0000000000000000e+00
8.7000000000000011e+00  0.0000000000000000e+00  0.0000000000000000e+00
8.8000000000000007e+00  0.0000000000000000e+00  0.0000000000000000e+00
8.9000000000000004e+00  0.0000000000000000e+00  0.0000000000000000e+00
9.0000000000000000e+00  0.0000000000000000e+00  0.0000000000000000e+00
9.0999999999999996e+00  0.0000000000000000e+00  0.0000000000000000e+00
9.2000000000000011e+00  0.0000000000000000e+00  0.0000000000000000e+00
9.3000000000000007e+00  0.0000000000000000e+00  0.0000000000000000e+00
9.4000000000000004e+00  0.0000000000000000e+00  0.0000000000000000e+00
9.5000000000000000e+00  0.0000000000000000e+00  0.0000000000000000e+00
9.6000000000000014e+00  0.0000000000000000e+00  0.0000000000000000e+00
9.7000000000000011e+00  0.0000000000000000e+00  0.0000000000000000e+00
9.8000000000000007e+00  0.0000000000000000e+00  0.0000000000000000e+00
9.9000000000000004e+00  0.0000000000000000e+00  0.0000000000000000e+00
1.0000000000000000e+01  0.0000000000000000e+00  0.0000000000000000e+00

CELLS 0 0


CELL_TYPES 0


POINT_DATA 101

VECTORS VertexNormals float

0.0000000000000000e+00 0.0000000000000000e+00 0
0.0000000000000000e+00 0.0000000000000000e+00 0
0.0000000000000000e+00 0.0000000000000000e+00 0
0.0000000000000000e+00 0.0000000000000000e+00 0
0.0000000000000000e+00 0.0000000000000000e+00 0
0.0000000000000000e+00 0.0000000000000000e+00 0
0.0000000000000000e+00 0.0000000000000000e+00 0
0.0000000000000000e+00 0.0000000000000000e+00 0
0.0000000000000000e+00 0.0000000000000000e+00 0
0.0000000000000000e+00 0.0000000000000000e+00 0
0.0000000000000000e+00 0.0000000000000000e+00 0
0.0000000000000000e+00 0.0000000000000000e+00 0
0.0000000000000000e+00 0.0000000000000000e+00 0
0.0000000000000000e+00 0.0000000000000000e+00 0
0.0000000000000000e+00 0.0000000000000000e+00 0
0.0000000000000000e+00 0.0000000000000000e+00 0
0.0000000000000000e+00 0.0000000000000000e+00 0
0.0000000000000000e+00 0.0000000000000000e+00 0
0.0000000000000000e+00 0.0000000000000000e+00 0
0.0000000000000000e+00 0.0000000000000000e+00 0
0.0000000000000000e+00 0.0000000000000000e+00 0
0.0000000000000000e+00 0.0000000000000000e+00 0
0.0000000000000000e+00 0.0000000000000000e+00 0
0.0000000000000000e+00 0.0000000000000000e+00 0
0.0000000000000000e+00 0.0000000000000000e+00 0
0.0000000000000000e+00 0.0000000000000000e+00 0
0.0000000000000000e+00 0.0000000000000000e+00 0
0.0000000000000000e+00 0.0000000000000000e+00 0
0.0000000000000000e+00 0.0000000000000000e+00 0
0.0000000000000000e+00 0.0000000000000000e+00 0
0.0000000000000000e+00 0.0000000000000000e+00 0
0.0000000000000000e+00 0.0000000000000000e+00 0
0.0000000000000000e+00 0.0000000000000000e+00 0
0.0000000000000000e+00 0.0000000000000000e+00 0
0.0000000000000000e+00 0.0000000000000000e+00 0
0.0000000000000000e+00 0.0000000000000000e+00 0
0.0000000000000000e+00 0.0000000000000000e+00 0
0.0000000000000000e+00 0.0000000000000000e+00 0
0.0000000000000000e+00 0.0000000000000000e+00 0
0.0000000000000000e+00 0.0000000000000000e+00 0
0.0000000000000000e+00 0.0000000000000000e+00 0
0.0000000000000000e+00 0.0000000000000000e+00 0
0.0000000000000000e+00 0.0000000000000000e+00 0
0.0000000000000000e+00 0.0000000000000000e+00 0
0.0000000000000000e+00 0.0000000000000000e+00 0
0.0000000000000000e+00 0.0000000000000000e+00 0
0.0000000000000000e+00 0.0000000000000000e+00 0
0.0000000000000000e+00 0.0000000000000000e+00 0
0.0000000000000000e+00 0.0000000000000000e+00 0
0.0000000000000000e+00 0.0000000000000000e+00 0
0.0000000000000000e+00 0.0000000000000000e+00 0
0.0000000000000000e+00 0.0000000000000000e+00 0
0.0000000000000000e+00 0.0000000000000000e+00 0
0.0000000000000000e+00 0.0000000000000000e+00 0
0.0000000000000000e+00 0.0000000000000000e+00 0
0.0000000000000000e+00 0.0000000000000000e+00 0
0.0000000000000000e+00 0.0000000000000000e+00 0
0.0000000000000000e+00 0.0000000000000000e+00 0
0.0000000000000000e+00 0.0000000000000000e+00 0
0.0000000000000000e+00 0.0000000000000000e+00 0
0.0000000000000000e+00 0.0000000000000000e+00 0
0.0000000000000000e+00 0.0000000000000000e+00 0
0.0000000000000000e+00 0.0000000000000000e+00 0
0.0000000000000000e+00 0.0000000000000000e+00 0
0.0000000000000000e+00 0.0000000000000000e+00 0
0.0000000000000000e+00 0.0000000000000000e+00 0
0.0000000000000000e+00 0.0000000000000000e+00 0
0.0000000000000000e+00 0.0000000000000000e+00 0
0.0000000000000000e+00 0.0000000000000000e+00 0
0.0000000000000000e+00 0.0000000000000000e+00 0
0.0000000000000000e+00 0.0000000000000000e+00 0
0.0000000000000000e+00 0.0000000000000000e+00 0
0.0000000000000000e+00 0.0000000000000000e+00 0
0.0000000000000000e+00 0.0000000000000000e+00 0
0.0000000000000000e+00 0.0000000000000000e+00 0
0.0000000000000000e+00 0.0000000000000000e+00 0
0.0000000000000000e+00 0.0000000000000000e+00 0
0.0000000000000000e+00 0.0000000000000000e+00 0
0.0000000000000000e+00 0.0000000000000000e+00 0
0.0000000000000000e+00 0.0000000000000000e+00 0
0.0000000000000000e+00 0.0000000000000000e+00 0
0.0000000000000000e+00 0.0000000000000000e+00 0
0.0000000000000000e+00 0.0000000000000000e+00 0
0.0000000000000000e+00 0.0000000000000000e+00 0
0.0000000000000000e+00 0.0000000000000000e+00 0
0.0000000000000000e+00 0.0000000000000000e+00 0
0.0000000000000000e+00 0.0000000000000000e+00 0
0.0000000000000000e+00 0.0000000000000000e+00 0
0.0000000000000000e+00 0.0000000000000000e+00 0
0.0000000000000000e+00 0.0000000000000000e+00 0
0.0000000000000000e+00 0.0000000000000000e+00 0
0.0000000000000000e+00 0.0000000000000000e+00 0
0.0000000000000000e+00 0.0000000000000000e+00 0
0.0000000000000000e+00 0.0000000000000000e+00 0
0.0000000000000000e+00 0.0000000000000000e+00 0
0.0000000000000000e+00 0.0000000000000000e+00 0
0.0000000000000000e+00 0.0000000000000000e+00 0
0.0000000000000000e+00 0.0000000000000000e+00 0
0.0000000000000000e+00 0.0000000000000000e+00 0
0.0000000000000000e+00 0.0000000000000000e+00 0
0.0000000000000000e+00 0.0000000000000000e+00 0

SCALARS CrossSectionLength float
LOOKUP_TABLE default
9.9984501129113745e-01
9.9891788948272575e-01
9.9799205660883294e-01
9.9708555324317527e-01
9.9617960938889150e-01
9.9529625569761715e-01
9.9441348664025286e-01
9.9355580898060714e-01
9.9269930540747786e-01
9.9186979309939216e-01
9.9104245472935604e-01
9.9024353172043134e-01
9.8944806847798661e-01
9.8868206834398586e-01
9.8792099937962286e-01
9.8719014328100996e-01
9.8646579452183925e-01
9.8577217183033317e-01
9.8508667264737027e-01
9.8443222402915231e-01
9.8378750352067279e-01
9.8317400631806262e-01
9.8257178962924174e-01
9.8200084542358890e-01
9.8144265044943446e-01
9.8091567471676799e-01
9.8040280946797598e-01
9.7992102325644947e-01
9.7945458410704134e-01
9.7901900767219951e-01
9.7859987865381670e-01
9.7821132698648894e-01
9.7784018024539254e-01
9.7749926042131552e-01
9.7717655790849500e-01
9.7688366818133510e-01
9.7660966460361021e-01
9.7636499515434860e-01
9.7613974217646238e-01
9.7594327742193121e-01
9.7576662907750711e-01
9.7561815142976482e-01
9.7548977067231701e-01
9.7538886563041116e-01
9.7530823193310845e-01
9.7525429438122013e-01
9.7522071227506335e-01
9.7521295385672524e-01
9.7522556228153046e-01
9.7526301971776930e-01
9.7532080204973171e-01
9.7540234626910238e-01
9.7550414088242476e-01
9.7562848683364878e-01
9.7577299805020334e-01
9.7593871507459595e-01
9.7612452435368957e-01
9.7633004700460935e-01
9.7655562422482001e-01
9.7679926343353085e-01
9.7706297812111675e-01
9.7734293262157268e-01
9.7764306498477360e-01
9.7795743292410420e-01
9.7829218455841493e-01
9.7863897523582888e-01
9.7900647937120955e-01
9.7938362506505572e-01
9.7978195623246866e-01
9.8018732409187526e-01
9.8061450709430542e-01
9.8104591108696282e-01
9.8149992916940187e-01
9.8195514209015788e-01
9.8243394421388885e-01
9.8291070976932671e-01
9.8341221690843228e-01
9.8390826189980074e-01
9.8443037229259156e-01
9.8494341892272252e-01
9.8548401222785131e-01
9.8601179055674948e-01
9.8656873088350261e-01
9.8710899145131337e-01
9.8768012925688231e-01
9.8823065588088210e-01
9.8881382875519452e-01
9.8937245148884734e-01
9.8996548387956407e-01
9.9053009209741816e-01
9.9113079406281857e-01
9.9169934960611261e-01
9.9230551472133299e-01
9.9287606500541670e-01
9.9348546758874245e-01
9.9405615853398255e-01
9.9466655040500118e-01
9.9523563900859602e-01
9.9584474603710071e-01
9.9641061235716599e-01
9.9701613110751419e-01

SCALARS Pressure float
LOOKUP_TABLE default
-1.3737113537244507e+00
-9.5977448355039332e+00
-1.7821778317283414e+01
-2.5885206440806130e+01
-3.3954651309544190e+01
-4.1833487016690498e+01
-4.9717593839259244e+01
-5.7387668193584410e+01
-6.5057160586359714e+01
-7.2494429398322083e+01
-7.9921506028961502e+01
-8.7102327932050500e+01
-9.4260692018548312e+01
-1.0116208139936192e+02
-1.0802699046812702e+02
-1.1462684765430839e+02
-1.2117517713544943e+02
-1.2745249741769108e+02
-1.3366281239615387e+02
-1.3959787482067654e+02
-1.4545050493918086e+02
-1.5102504133139007e+02
-1.5650215448173546e+02
-1.6169949882427522e+02
-1.6678516988295161e+02
-1.7159038795643642e+02
-1.7627065941893099e+02
-1.8067065851512356e+02
-1.8493359045130819e+02
-1.8891720898024766e+02
-1.9275291626605244e+02
-1.9631099317926086e+02
-1.9971166846847754e+02
-2.0283709257443704e+02
-2.0579701397272117e+02
-2.0848475340072878e+02
-2.1100027628794282e+02
-2.1324738855433523e+02
-2.1531692145253254e+02
-2.1712254479831032e+02
-2.1874650958562941e+02
-2.2011183647710843e+02
-2.2129261360093125e+02
-2.2222084749550473e+02
-2.2296270714833796e+02
-2.2345900380622754e+02
-2.2376802429843747e+02
-2.2383941906049449e+02
-2.2372339384864705e+02
-2.2337871640386322e+02
-2.2284705140213950e+02
-2.2209682963999344e+02
-2.2116043255591029e+02
-2.2001678713067895e+02
-2.1868795063848100e+02
-2.1716448185468707e+02
-2.1545676246137248e+02
-2.1356843102332152e+02
-2.1149652549134612e+02
-2.0925952855968248e+02
-2.0683914972080950e+02
-2.0427079359699877e+02
-2.0151854732792665e+02
-1.9863711794342140e+02
-1.9557038298985785e+02
-1.9239501520764844e+02
-1.8903182744894718e+02
-1.8558237399843193e+02
-1.8194131663791256e+02
-1.7823821731477287e+02
-1.7433831835627393e+02
-1.7040246993987012e+02
-1.6626310816897174e+02
-1.6211573534714762e+02
-1.5775655587839731e+02
-1.5341908332948822e+02
-1.4885992360867283e+02
-1.4435384928075283e+02
-1.3961467624200603e+02
-1.3496144579580113e+02
-1.3006230466726674e+02
-1.2528318701520314e+02
-1.2024416204266551e+02
-1.1536012592888059e+02
-1.1020131303710038e+02
-1.0523290467170504e+02
-9.9974395801146812e+01
-9.4941617689843454e+01
-8.9603496235320534e+01
-8.4525687524075366e+01
-7.9128033972603774e+01
-7.4023752846616432e+01
-6.8586659368803922e+01
-6.3473568306975316e+01
-5.8017160691887355e+01
-5.2911915689124136e+01
-4.7456380623165352e+01
-4.2374525845268678e+01
-3.6940141137424035e+01
-3.1896010839913004e+01
-2.6503175817011382e+01

