/*--------------------------------*- C++ -*----------------------------------*\
| =========                 |                                                 |
| \\      /  F ield         | OpenFOAM: The Open Source CFD Toolbox           |
|  \\    /   O peration     | Version:  2006                                  |
|   \\  /    A nd           | Website:  www.openfoam.com                      |
|    \\/     M anipulation  |                                                 |
\*---------------------------------------------------------------------------*/
FoamFile
{
    version     2.0;
    format      ascii;
    class       surfaceScalarField;
    location    "9.2";
    object      phi;
}
// * * * * * * * * * * * * * * * * * * * * * * * * * * * * * * * * * * * * * //

dimensions      [0 3 -1 0 0 0 0];
oriented        oriented;


internalField   nonuniform List<scalar> 
5457
(
0.198418
0.00158239
0.19648
0.00193739
0.194192
0.00228812
0.191508
0.00268363
0.188427
0.00308126
0.18495
0.00347685
0.181072
0.00387868
0.176778
0.00429414
0.172049
0.00472837
0.166864
0.00518539
0.161195
0.0056687
0.155014
0.00618125
0.148289
0.0067252
0.140987
0.00730159
0.133077
0.00790977
0.124531
0.00854671
0.115324
0.00920615
0.105447
0.00987742
0.0949027
0.0105443
0.083719
0.0111837
0.0719543
0.0117647
0.059706
0.0122483
0.0471173
0.0125886
0.0343773
0.01274
0.0216825
0.0126948
0.00903262
0.0126499
-0.00291928
0.0119519
-0.00847329
0.00555401
-0.0080434
-0.00042989
-0.0080434
0.199928
0.00165425
0.199176
0.00268986
0.197965
0.0034991
0.196331
0.00431687
0.194271
0.00514139
0.191781
0.00596701
0.188854
0.00680576
0.185477
0.00767113
0.181632
0.00857343
0.177296
0.00952097
0.172444
0.010521
0.167046
0.0115798
0.161069
0.0127022
0.154479
0.0138908
0.147244
0.0151451
0.139331
0.0164601
0.130712
0.0178244
0.121372
0.0192178
0.111307
0.0206094
0.100537
0.0219537
0.0891122
0.0231893
0.0771245
0.024236
0.0647186
0.0249945
0.0521113
0.0253473
0.0396514
0.0251548
0.028102
0.0241993
0.0185916
0.0214623
0.00879389
0.0153517
0.00118187
0.00718213
-0.00686152
0.199781
0.0018737
0.199087
0.00338373
0.197946
0.00464007
0.196409
0.00585354
0.194483
0.00706759
0.192164
0.00828615
0.189446
0.00952331
0.186321
0.0107967
0.182772
0.0121215
0.178783
0.01351
0.174331
0.0149733
0.16939
0.0165211
0.163931
0.018161
0.157924
0.0198982
0.151335
0.0217336
0.144133
0.0236622
0.136287
0.0256701
0.127773
0.027732
0.118576
0.0298065
0.108698
0.0318319
0.0981658
0.0337214
0.0870434
0.0353584
0.0754467
0.0365912
0.0635697
0.0372243
0.0517282
0.0369963
0.0403935
0.035534
0.0297357
0.0321201
0.0191637
0.0259237
0.00959621
0.0167496
0.00273468
0.199703
0.00217065
0.199008
0.00407907
0.197887
0.00576064
0.196376
0.0073645
0.194488
0.00895577
0.192222
0.0105522
0.189574
0.0121711
0.186538
0.0138328
0.183103
0.0155561
0.179257
0.0173567
0.174982
0.0192485
0.170259
0.0212439
0.165067
0.023353
0.159382
0.0255827
0.15318
0.0279357
0.146435
0.0304076
0.13912
0.0329848
0.131213
0.0356396
0.122693
0.038326
0.113552
0.040973
0.103795
0.0434785
0.0934521
0.0457011
0.0825909
0.0474525
0.0713282
0.048487
0.0598366
0.0484879
0.0483131
0.0470575
0.0368078
0.0436254
0.0251856
0.0375459
0.0133344
0.0286008
0.0160691
0.199667
0.00250325
0.198964
0.00478236
0.197863
0.00686199
0.196381
0.00884624
0.194532
0.0108046
0.192317
0.012767
0.189734
0.014755
0.186775
0.0167916
0.183433
0.0188979
0.179697
0.0210926
0.175554
0.0233917
0.170989
0.0258092
0.165985
0.028357
0.160524
0.0310432
0.154588
0.0338715
0.148157
0.0368385
0.141211
0.0399309
0.13373
0.0431215
0.125692
0.0463632
0.117083
0.0495827
0.107889
0.0526722
0.0981097
0.0554803
0.0877597
0.0578025
0.0768738
0.0593729
0.065504
0.0598576
0.0537038
0.0588578
0.0414505
0.0558787
0.0285852
0.0504111
0.014851
0.042335
0.0309201
0.199653
0.00285047
0.198949
0.00548644
0.197871
0.00793998
0.196426
0.0102905
0.194626
0.0126047
0.192473
0.0149205
0.189963
0.0172647
0.187092
0.0196625
0.183853
0.0221374
0.180235
0.02471
0.176229
0.0273984
0.17182
0.0302181
0.166995
0.033182
0.161738
0.0362994
0.156035
0.0395747
0.149868
0.0430054
0.14322
0.0465795
0.13607
0.0502712
0.128397
0.0540358
0.120177
0.0578027
0.111383
0.0614669
0.101984
0.0648794
0.0919492
0.0678369
0.0812484
0.0700737
0.0698488
0.0712572
0.057712
0.0709946
0.0447566
0.0688341
0.0308461
0.0643215
0.0158716
0.0573096
0.0467917
0.19965
0.00320042
0.198954
0.00618245
0.197904
0.00898964
0.196505
0.0116902
0.194762
0.014347
0.19268
0.0170026
0.190256
0.0196884
0.187487
0.0224322
0.184365
0.0252595
0.180882
0.028193
0.177027
0.0312525
0.172791
0.0344549
0.168158
0.0378144
0.163116
0.0413413
0.15765
0.0450412
0.151742
0.0489133
0.145374
0.0529475
0.138524
0.0571212
0.131165
0.0613945
0.123264
0.065704
0.114777
0.0699541
0.105649
0.0740076
0.0958105
0.077675
0.0851798
0.0807044
0.073662
0.0827751
0.0611556
0.0835009
0.0475503
0.0824394
0.032755
0.0791168
0.0167809
0.0732837
0.0635726
0.199655
0.00354578
0.198975
0.00686259
0.197959
0.0100054
0.19661
0.013039
0.194934
0.0160231
0.192933
0.0190033
0.190607
0.0220146
0.187952
0.0250876
0.184962
0.0282496
0.181629
0.0315253
0.177946
0.0349361
0.1739
0.0385005
0.16948
0.0422341
0.164673
0.046149
0.159462
0.0502525
0.153829
0.054546
0.147753
0.0590231
0.141208
0.0636664
0.134159
0.0684434
0.126562
0.0733014
0.118356
0.0781598
0.109463
0.082901
0.0997793
0.0873583
0.0891798
0.0913039
0.0775176
0.0944372
0.0646403
0.0963783
0.0504113
0.0966684
0.0347636
0.0947646
0.0177873
0.0902599
0.08136
0.199664
0.00388162
0.199006
0.00752041
0.19803
0.0109817
0.196739
0.0143305
0.195137
0.0176252
0.193227
0.0209131
0.191009
0.0242325
0.18848
0.0276163
0.185636
0.0310937
0.18247
0.0346911
0.178974
0.0384317
0.175139
0.0423356
0.170953
0.0464203
0.166403
0.0506997
0.161471
0.0551839
0.156139
0.0598778
0.150383
0.0647799
0.144169
0.0698799
0.137457
0.0751555
0.13019
0.0805686
0.122291
0.0860583
0.113659
0.0915329
0.10416
0.0968575
0.0936251
0.101839
0.0818556
0.106207
0.0686406
0.109593
0.0537941
0.111515
0.0372306
0.111328
0.0190801
0.10841
0.10044
0.199677
0.00420441
0.199047
0.00815067
0.198116
0.0119131
0.196887
0.0155588
0.195366
0.0191461
0.193556
0.0227238
0.191456
0.0263324
0.189065
0.0300071
0.18638
0.0337791
0.183395
0.0376761
0.180103
0.041723
0.176497
0.0459419
0.172565
0.0503521
0.168295
0.0549701
0.163669
0.059809
0.158669
0.0648785
0.153266
0.0701831
0.147424
0.0757214
0.141096
0.0814839
0.134214
0.0874502
0.126689
0.0935836
0.118397
0.0998249
0.109174
0.10608
0.0988091
0.112204
0.0870415
0.117974
0.0735788
0.123056
0.0581383
0.126955
0.0405438
0.128923
0.0208968
0.128057
0.121337
0.199693
0.00451149
0.199095
0.00874907
0.198213
0.0127947
0.197053
0.0167185
0.19562
0.0205795
0.193916
0.0244277
0.191943
0.0283055
0.1897
0.0322501
0.187185
0.0362942
0.184394
0.0404671
0.181321
0.0447954
0.177961
0.0493026
0.174303
0.0540103
0.170335
0.0589376
0.166043
0.0641015
0.161405
0.0695163
0.156394
0.0751939
0.150972
0.0811431
0.145087
0.0873687
0.138667
0.0938704
0.131611
0.10064
0.12378
0.107656
0.114985
0.114875
0.10497
0.122219
0.0934055
0.129539
0.0798839
0.136578
0.0639543
0.142885
0.0452235
0.147653
0.023605
0.149676
0.144942
0.199711
0.0048008
0.199148
0.00931209
0.19832
0.0136223
0.197234
0.0178048
0.195894
0.0219197
0.194303
0.0260181
0.192465
0.0301441
0.190378
0.0343363
0.188044
0.038629
0.185458
0.0430528
0.182618
0.0476355
0.179518
0.0524025
0.176151
0.0573772
0.172507
0.0625815
0.168573
0.0680358
0.164329
0.0737599
0.15975
0.079773
0.154799
0.0860943
0.149424
0.0927435
0.143553
0.0997414
0.137083
0.10711
0.129868
0.11487
0.121704
0.12304
0.1123
0.131622
0.101257
0.140583
0.0880272
0.149807
0.0719045
0.159008
0.0520699
0.167488
0.0278752
0.173871
0.172817
0.19973
0.00507074
0.199205
0.00983688
0.198435
0.0143923
0.197427
0.0188134
0.196185
0.0231617
0.194713
0.0274893
0.193016
0.0318415
0.191094
0.0362582
0.188948
0.0407749
0.186578
0.0454232
0.183981
0.0502322
0.181155
0.0552285
0.178095
0.0604373
0.174793
0.0658829
0.17124
0.0715892
0.167419
0.0775805
0.16331
0.0838829
0.158879
0.0905252
0.154081
0.0975413
0.14885
0.104972
0.143092
0.112868
0.136669
0.121294
0.129379
0.13033
0.120925
0.140076
0.110863
0.150645
0.0985199
0.16215
0.0828756
0.174652
0.0624109
0.187953
0.0351073
0.201174
0.207924
0.199751
0.00532003
0.199266
0.0103211
0.198557
0.0151017
0.197629
0.019741
0.19649
0.0243016
0.195142
0.0288366
0.193591
0.0333924
0.19184
0.0380097
0.18989
0.0427249
0.187743
0.0475705
0.185399
0.0525763
0.182857
0.0577699
0.180116
0.063178
0.177173
0.0688266
0.17402
0.0747422
0.170647
0.0809531
0.167039
0.0874906
0.163173
0.0943916
0.159013
0.101701
0.154509
0.109476
0.149586
0.117792
0.144131
0.126748
0.137978
0.136483
0.130867
0.147187
0.122383
0.159129
0.111831
0.172702
0.0979819
0.188501
0.0784981
0.207437
0.0486312
0.231041
0.256556
0.199772
0.00554773
0.19933
0.010763
0.198684
0.0157482
0.19784
0.0205845
0.196806
0.025336
0.195586
0.0300563
0.194186
0.0347924
0.19261
0.039586
0.190861
0.0444737
0.188943
0.0494886
0.186859
0.0546608
0.18461
0.0600188
0.182198
0.0655897
0.179624
0.0714008
0.176886
0.0774802
0.17398
0.0838585
0.1709
0.0905707
0.167633
0.0976584
0.164161
0.105174
0.160453
0.113184
0.156466
0.121778
0.152134
0.13108
0.147357
0.141261
0.141974
0.152569
0.135724
0.16538
0.128134
0.180292
0.118263
0.198372
0.10386
0.221839
0.077621
0.25728
0.334177
0.00384975
-0.00384975
0.00752121
-0.00367145
0.0105456
-0.00302444
0.0128997
-0.00235402
0.0146559
-0.00175628
0.0158926
-0.00123666
0.0166756
-0.000782968
0.0170603
-0.000384735
0.0171061
-4.58191e-05
0.0168469
0.000259196
0.0163499
0.000496993
0.0156694
0.00068051
0.0148593
0.000810134
0.0139748
0.000884458
0.0130709
0.000903928
0.0121974
0.000873502
0.0113951
0.000802332
0.0106921
0.000702995
0.0101017
0.000590411
0.00962124
0.000480422
0.0092349
0.000386336
0.00892023
0.00031467
0.00865684
0.000263392
0.0084311
0.000225747
0.0082362
0.000194897
0.00806933
0.000166867
0.00792795
0.000141382
0.0078073
0.000120652
0.00770124
0.000106056
8.4417e-05
0.0035766
-0.00742635
0.00701119
-0.00710604
0.0099043
-0.00591755
0.0122452
-0.00469488
0.0141064
-0.00361753
0.0155604
-0.00269062
0.0166664
-0.00188896
0.0174695
-0.00118783
0.0179882
-0.000564562
0.0182596
-1.22271e-05
0.0182625
0.000494143
0.0180603
0.000882678
0.0177057
0.00116473
0.017255
0.00133521
0.0167639
0.001395
0.0162829
0.00135447
0.0158528
0.00123242
0.0155009
0.00105495
0.0152388
0.000852476
0.0150623
0.000656972
0.0149542
0.000494369
0.0148929
0.000376036
0.0148603
0.000295984
0.0148459
0.000240111
0.0148456
0.000195167
0.0148582
0.000154282
0.0148816
0.000117956
0.0149112
9.1063e-05
0.0149395
7.78104e-05
8.05285e-05
0.00304592
-0.0104723
0.0058812
-0.00994132
0.00823325
-0.0082696
0.0101349
-0.00659652
0.0116617
-0.0051443
0.0128739
-0.00390282
0.0138186
-0.00283369
0.0145329
-0.0019021
0.0150498
-0.00108145
0.0153912
-0.000353634
0.0155857
0.000299613
0.0156231
0.000845228
0.0155423
0.00124556
0.015388
0.00148951
0.0152034
0.00157963
0.0150259
0.00153199
0.0148846
0.00137374
0.0147984
0.00114106
0.0147736
0.000877287
0.0148025
0.000628139
0.0148663
0.000430488
0.0149438
0.000298553
0.0150204
0.000219446
0.0150891
0.000171394
0.0151492
0.000135043
0.015202
0.000101497
0.0152479
7.20772e-05
0.015285
5.3943e-05
0.0153085
5.43286e-05
8.34605e-05
0.00246212
-0.0129344
0.00459091
-0.0120701
0.0062836
-0.00996229
0.0076405
-0.00795342
0.00873655
-0.00624036
0.00961601
-0.00478228
0.0103113
-0.00352894
0.0108459
-0.00243678
0.0112404
-0.00147593
0.0115187
-0.000631897
0.0116997
0.00011859
0.0117696
0.000775323
0.0117621
0.00125306
0.0117188
0.0015328
0.0116714
0.00162701
0.0116426
0.00156081
0.0116471
0.00136927
0.0116909
0.00109723
0.0117703
0.000797896
0.0118699
0.00052855
0.0119645
0.000335892
0.0120297
0.00023335
0.0120559
0.000193255
0.0120433
0.000184016
0.0119985
0.000179834
0.0119295
0.000170477
0.0118429
0.00015871
0.0117432
0.000153611
0.0116339
0.000163579
0.000186931
0.00178543
-0.0147198
0.00312822
-0.0134129
0.00409184
-0.0109259
0.00484329
-0.00870487
0.00544631
-0.00684337
0.00593003
-0.005266
0.00631507
-0.00391398
0.0066146
-0.00273631
0.00683613
-0.00169746
0.00698638
-0.000782145
0.00709683
8.14244e-06
0.00712026
0.000751892
0.00711022
0.00126311
0.00709743
0.00154559
0.00709808
0.00162636
0.00711783
0.00154106
0.00715362
0.00133348
0.00719529
0.00105556
0.00722821
0.000764981
0.0072312
0.000525563
0.00717689
0.000390199
0.00704613
0.000364105
0.00684779
0.000391597
0.00659983
0.000431977
0.00632028
0.00045939
0.00602397
0.000466784
0.005719
0.000463682
0.00540903
0.000463577
0.00510599
0.000466621
0.000424836
0.00101579
-0.0157356
0.00148713
-0.0138842
0.00167739
-0.0111162
0.00177684
-0.00880432
0.00182205
-0.00688858
0.00183772
-0.00528168
0.00183635
-0.00391261
0.00182743
-0.00272739
0.00182503
-0.00169506
0.00183988
-0.000796993
0.00177611
7.19131e-05
0.00170987
0.000818133
0.00164404
0.00132894
0.00159013
0.00159949
0.0015351
0.00168139
0.00145184
0.00162432
0.00130909
0.00147623
0.00108126
0.00128339
0.000759392
0.00108685
0.000362721
0.000922234
-6.46417e-05
0.000817561
-0.000476636
0.000776099
-0.000867565
0.000782526
-0.0012338
0.000798215
-0.00157252
0.000798106
-0.00188745
0.000781714
-0.00218474
0.000760968
-0.00246935
0.00074819
-0.00273071
0.000727985
0.000648232
7.48496e-05
-0.0158105
-0.000341508
-0.0134679
-0.000948373
-0.0105093
-0.00155874
-0.00819396
-0.00214898
-0.00629833
-0.00268903
-0.00474162
-0.00316658
-0.00343505
-0.00358035
-0.00231362
-0.00395652
-0.00131889
-0.0043448
-0.000408712
-0.00465441
0.000381523
-0.00484394
0.00100766
-0.00498259
0.00146758
-0.00513766
0.00175456
-0.00533848
0.00188221
-0.00560022
0.00188605
-0.00592529
0.0018013
-0.00630435
0.00166245
-0.00672167
0.00150418
-0.00715836
0.00135892
-0.00759378
0.00125299
-0.00800896
0.00119128
-0.00838605
0.00115961
-0.00871732
0.00112949
-0.009003
0.00108378
-0.00924741
0.00102612
-0.00945884
0.000972403
-0.00964268
0.000932028
-0.00980092
0.000886224
0.000822724
-0.000890712
-0.0149197
-0.00230824
-0.0120504
-0.00376602
-0.00905152
-0.00517944
-0.00678054
-0.00647483
-0.00500294
-0.00763162
-0.00358483
-0.00864654
-0.00242014
-0.00952488
-0.00143529
-0.0102819
-0.000561829
-0.0108888
0.000198137
-0.0113096
0.000802334
-0.0115985
0.00129658
-0.0118286
0.00169767
-0.0120478
0.00197375
-0.0122898
0.00212422
-0.0125683
0.00216451
-0.0128829
0.00211593
-0.0132265
0.00200602
-0.0135905
0.00186819
-0.013967
0.00173548
-0.0143447
0.00163069
-0.0147089
0.00155547
-0.0150416
0.00149233
-0.0153292
0.00141709
-0.0155658
0.00132034
-0.0157546
0.00121489
-0.0159054
0.00112329
-0.0160289
0.0010555
-0.0161413
0.000998563
0.000957005
-0.00200877
-0.012911
-0.00444607
-0.00961306
-0.00686216
-0.00663542
-0.00910011
-0.00454259
-0.011077
-0.00302604
-0.0127748
-0.00188703
-0.0142106
-0.00098431
-0.0154037
-0.000242248
-0.0163245
0.000359023
-0.016974
0.000847592
-0.0174436
0.00127192
-0.0178034
0.00165645
-0.018082
0.00197628
-0.0183202
0.00221187
-0.0185527
0.00235678
-0.0187999
0.00241171
-0.0190679
0.00238391
-0.0193545
0.00229261
-0.0196559
0.00216963
-0.0199696
0.00204914
-0.0202905
0.00195161
-0.020608
0.00187292
-0.0209045
0.00178883
-0.0211616
0.00167419
-0.0213672
0.00152601
-0.0215217
0.00136932
-0.0216361
0.00123772
-0.0217262
0.00114565
-0.0218132
0.00108555
0.00106197
-0.00333686
-0.00957411
-0.00694864
-0.00600128
-0.0103699
-0.00321418
-0.013382
-0.00153042
-0.0159329
-0.000475178
-0.0180094
0.000189468
-0.0196202
0.000626474
-0.0208111
0.000948692
-0.021686
0.00123387
-0.0223553
0.00151694
-0.0228794
0.00179604
-0.023279
0.00205599
-0.0235819
0.00227918
-0.0238254
0.00245542
-0.0240464
0.00257769
-0.0242695
0.00263481
-0.0245037
0.00261815
-0.0247478
0.0025367
-0.0249999
0.00242173
-0.0252623
0.00231159
-0.0255374
0.00222673
-0.0258199
0.00215538
-0.0260928
0.00206167
-0.026332
0.00191345
-0.0265182
0.00171219
-0.0266478
0.00149893
-0.0267348
0.00132476
-0.0268011
0.0012119
-0.0268683
0.00115277
0.00114254
-0.0051357
-0.00443841
-0.0105697
-0.000567312
-0.0149969
0.00121305
-0.0184291
0.00190178
-0.0210006
0.00209633
-0.0229209
0.00210978
-0.0243884
0.00209397
-0.0255367
0.00209696
-0.0264364
0.00213354
-0.0271381
0.00221868
-0.0276831
0.00234107
-0.0280982
0.00247109
-0.0284083
0.00258925
-0.0286484
0.00269554
-0.0288586
0.00278788
-0.0290673
0.00284354
-0.0292824
0.00283315
-0.0294981
0.00275245
-0.0297118
0.00263538
-0.0299314
0.00253123
-0.0301691
0.00246442
-0.0304267
0.00241299
-0.0306873
0.00232223
-0.0309191
0.00214531
-0.0310926
0.0018857
-0.0311999
0.00160616
-0.0312602
0.00138505
-0.0313039
0.00125562
-0.0313526
0.00120154
0.00120141
-0.0079464
0.00350799
-0.0144641
0.00595039
-0.0191528
0.00590177
-0.0226228
0.00537177
-0.0252272
0.00470077
-0.0271906
0.00407312
-0.02869
0.00359337
-0.0298434
0.00325037
-0.0307285
0.00301867
-0.0314112
0.00290134
-0.0319441
0.00287401
-0.0323533
0.00288029
-0.0326536
0.00288949
-0.0328765
0.00291852
-0.0330699
0.00298122
-0.0332682
0.00304189
-0.0334746
0.00303951
-0.0336723
0.00295017
-0.0338531
0.00281618
-0.0340322
0.00271034
-0.0342359
0.00266814
-0.0344763
0.00265331
-0.0347354
0.00258139
-0.0349704
0.00238026
-0.0351366
0.00205194
-0.0352198
0.00168937
-0.0352484
0.00141361
-0.0352667
0.00127395
-0.0352976
0.0012324
0.00124099
-0.0100799
0.0135879
-0.0178367
0.0137072
-0.0232017
0.0112668
-0.0268906
0.00906059
-0.0295001
0.00731035
-0.0313628
0.0059358
-0.0327503
0.00498089
-0.0338173
0.00431738
-0.0346207
0.003822
-0.0352296
0.00351027
-0.0357163
0.00336068
-0.0361024
0.00326641
-0.0363772
0.00316429
-0.0365633
0.00310462
-0.0367255
0.00314345
-0.036913
0.00322942
-0.0371204
0.00324691
-0.0373089
0.00313868
-0.0374574
0.00296466
-0.0375909
0.00284382
-0.0377583
0.00283551
-0.0379867
0.00288175
-0.0382563
0.00285101
-0.0385069
0.00263086
-0.0386717
0.00221667
-0.0387259
0.00174357
-0.038712
0.00139974
-0.0386987
0.00126063
-0.0387132
0.0012469
0.001265
-0.0133535
0.0269414
-0.0229772
0.023331
-0.0283996
0.0166892
-0.0316769
0.0123379
-0.0339839
0.00961739
-0.035492
0.0074438
-0.0365764
0.00606532
-0.0374656
0.00520663
-0.0381271
0.00448351
-0.0386035
0.00398659
-0.0390102
0.00376739
-0.0393678
0.00362403
-0.0396066
0.00340315
-0.0397265
0.00322448
-0.0398312
0.00324813
-0.0400044
0.00340258
-0.0402268
0.00346934
-0.0404178
0.00332975
-0.0405301
0.00307692
-0.0406032
0.00291693
-0.0407243
0.0029566
-0.0409445
0.00310199
-0.0412391
0.00314554
-0.0415219
0.00291368
-0.0416927
0.00238746
-0.0417089
0.00175982
-0.0416339
0.00132472
-0.0415781
0.00120486
-0.041581
0.00124978
0.00128203
-0.0190011
0.0459425
-0.0306743
0.0350042
-0.0354528
0.0214677
-0.0370944
0.0139794
-0.0387596
0.0112826
-0.0395177
0.00820192
-0.0400152
0.00656279
-0.0407248
0.00591619
-0.0412628
0.00502159
-0.0415272
0.0042509
-0.0417961
0.00403629
-0.0421284
0.00395633
-0.0423294
0.00360424
-0.042342
0.00323704
-0.0423446
0.00325073
-0.0425012
0.00355923
-0.0427663
0.00373437
-0.0429811
0.00354455
-0.0430471
0.00314296
-0.0430285
0.00289825
-0.0430806
0.00300874
-0.0432937
0.0033151
-0.0436311
0.00348297
-0.0439682
0.00325076
-0.0441555
0.00257471
-0.0441196
0.00172392
-0.043952
0.00115711
-0.0438352
0.00108806
-0.0438373
0.00125193
0.00131284
0.207447
0.00576049
0.207034
0.0111756
0.206432
0.0163507
0.205647
0.021369
0.204688
0.0262952
0.203561
0.0311837
0.202271
0.0360819
0.200825
0.0410317
0.199229
0.04607
0.197488
0.0512299
0.195607
0.0565417
0.193592
0.0620337
0.191448
0.0677333
0.189181
0.0736679
0.186796
0.079866
0.184295
0.086359
0.181683
0.0931827
0.178961
0.10038
0.176129
0.108005
0.173186
0.116127
0.170127
0.124838
0.166946
0.13426
0.16364
0.144567
0.160208
0.156001
0.156673
0.168915
0.153126
0.183839
0.149931
0.201567
0.148754
0.223016
0.160358
0.245676
0.25891
0.235625
0.21249
0.00595291
0.212118
0.0115485
0.211574
0.0168943
0.210868
0.0220749
0.210008
0.0271557
0.209
0.0321912
0.207853
0.037229
0.206574
0.0423109
0.20517
0.0474736
0.20365
0.0527499
0.202022
0.0581697
0.200295
0.0637606
0.198479
0.0695494
0.196585
0.0755626
0.194623
0.0818278
0.192607
0.0883751
0.190551
0.0952385
0.188473
0.102459
0.186394
0.110085
0.184342
0.118179
0.182357
0.126822
0.180501
0.136117
0.178871
0.146197
0.177639
0.157233
0.177125
0.169429
0.177982
0.182982
0.18162
0.197929
0.190635
0.214001
0.206031
0.23028
0.245855
0.219086
0.217658
0.00612283
0.217329
0.0118774
0.21685
0.0173729
0.21623
0.0226945
0.215478
0.027908
0.214601
0.0330678
0.213609
0.0382211
0.212511
0.0434095
0.211315
0.0486689
0.210034
0.0540314
0.208678
0.0595259
0.20726
0.0651787
0.205794
0.071015
0.204297
0.0770597
0.202787
0.0833377
0.201286
0.089876
0.19982
0.0967043
0.198422
0.103857
0.197134
0.111373
0.196011
0.119302
0.195131
0.127702
0.194608
0.13664
0.194611
0.146194
0.195403
0.156441
0.197394
0.167437
0.201195
0.179182
0.207573
0.191551
0.217193
0.204381
0.229782
0.217691
0.228907
0.24673
0.222951
0.00626828
0.22267
0.0121587
0.222262
0.0177811
0.221736
0.0232208
0.2211
0.0285435
0.220365
0.0338032
0.219539
0.0390467
0.218634
0.0443144
0.217662
0.0496415
0.216634
0.0550587
0.215567
0.0605932
0.214476
0.0662697
0.21338
0.072111
0.212301
0.078139
0.211263
0.084375
0.210298
0.0908411
0.209442
0.0975605
0.208741
0.104558
0.208252
0.111862
0.208053
0.119501
0.208246
0.127509
0.208971
0.135915
0.210422
0.144743
0.212861
0.154001
0.216636
0.163663
0.222166
0.173653
0.229901
0.183815
0.240416
0.193866
0.254629
0.203478
0.210399
0.273137
0.228374
0.00638738
0.228144
0.0123887
0.227812
0.0181136
0.227385
0.0236471
0.226875
0.0290542
0.22629
0.0343883
0.225641
0.0396951
0.224942
0.045014
0.224204
0.0503787
0.223445
0.0558181
0.222681
0.0613575
0.221931
0.0670192
0.221219
0.0728228
0.220572
0.0787865
0.22002
0.0849272
0.2196
0.0912607
0.219358
0.0978023
0.21935
0.104567
0.219644
0.111568
0.220328
0.118817
0.221516
0.126321
0.223353
0.134078
0.226023
0.142073
0.229757
0.150267
0.234836
0.158584
0.241589
0.1669
0.250395
0.175009
0.261703
0.182559
0.275986
0.189194
0.19383
0.292556
0.233929
0.00647846
0.233754
0.0125641
0.233502
0.0183657
0.233182
0.0239673
0.232803
0.0294329
0.232376
0.0348148
0.231914
0.0401574
0.23143
0.0454984
0.230938
0.05087
0.230457
0.056299
0.230007
0.0618082
0.229609
0.0674168
0.229291
0.0731412
0.229082
0.0789953
0.229019
0.0849905
0.229143
0.0911361
0.229506
0.0974393
0.230169
0.103904
0.231206
0.110531
0.232709
0.117314
0.234788
0.124241
0.237582
0.131285
0.241252
0.138403
0.245993
0.145526
0.252024
0.152553
0.259589
0.159335
0.26893
0.165667
0.280228
0.171261
0.29358
0.175842
0.178897
0.308513
0.23962
0.00654002
0.239502
0.0126822
0.239334
0.0185334
0.239125
0.0241763
0.238884
0.0296735
0.238623
0.0350757
0.238355
0.0404258
0.238094
0.0457598
0.237856
0.0511075
0.237661
0.0564936
0.237532
0.061938
0.237491
0.0674569
0.23757
0.0730628
0.2378
0.078765
0.238221
0.0845696
0.238878
0.0904794
0.239824
0.0964933
0.241122
0.102606
0.242846
0.108806
0.245085
0.115075
0.247942
0.121384
0.251535
0.127691
0.256001
0.133936
0.26149
0.140037
0.268158
0.145885
0.276155
0.151337
0.285603
0.156219
0.296548
0.160316
0.30898
0.163411
0.165236
0.322641
0.245448
0.0065708
0.24539
0.0127404
0.24531
0.0186133
0.245217
0.0242698
0.245119
0.029771
0.245029
0.0351657
0.24496
0.0404948
0.244928
0.0457924
0.244949
0.0510859
0.245045
0.0563975
0.245239
0.0617441
0.245558
0.0671387
0.24603
0.0725899
0.246693
0.0781026
0.247585
0.0836775
0.248753
0.0893116
0.250249
0.0949967
0.252136
0.10072
0.254482
0.10646
0.257368
0.112189
0.260884
0.117869
0.265126
0.123449
0.270202
0.128861
0.276216
0.134023
0.28327
0.138831
0.291444
0.143162
0.300787
0.146876
0.311288
0.149815
0.32288
0.151819
0.152755
0.335361
0.251418
0.00656978
0.251422
0.0127369
0.251432
0.0186025
0.251458
0.0242445
0.251507
0.0297216
0.251592
0.0350807
0.251726
0.0403606
0.251926
0.0455929
0.252209
0.0508028
0.252597
0.0560096
0.253113
0.0612276
0.253786
0.0664661
0.254646
0.0717303
0.255727
0.0770209
0.257071
0.0823341
0.258721
0.0876615
0.260728
0.0929895
0.263149
0.0982987
0.266046
0.103563
0.269488
0.108747
0.273548
0.113809
0.278302
0.118694
0.283827
0.123337
0.290191
0.127659
0.297451
0.131571
0.305642
0.134972
0.314765
0.137753
0.324776
0.139804
0.335574
0.14102
0.141339
0.34699
0.257532
0.00653622
0.257599
0.0126702
0.257702
0.0184992
0.257849
0.024098
0.258048
0.0295229
0.25831
0.0348186
0.258649
0.0400214
0.259081
0.0451605
0.259625
0.0502586
0.260303
0.0553324
0.261137
0.0603932
0.262156
0.0654475
0.263389
0.0704969
0.264871
0.0755386
0.266641
0.0805651
0.268738
0.0855638
0.271211
0.0905171
0.274108
0.0954016
0.277483
0.100187
0.281392
0.104838
0.285892
0.109309
0.291038
0.113548
0.29688
0.117495
0.303457
0.121082
0.310795
0.124233
0.318896
0.126871
0.327732
0.128917
0.337239
0.130297
0.347314
0.130945
0.130841
0.357813
0.263794
0.00646965
0.263925
0.0125394
0.264122
0.0183021
0.264391
0.0238292
0.26474
0.0291741
0.265179
0.0343789
0.265723
0.0394775
0.266387
0.0444967
0.267189
0.0494566
0.26815
0.0543713
0.269294
0.0592496
0.270646
0.0640952
0.272236
0.0689068
0.274096
0.0736788
0.276261
0.0784005
0.278767
0.0830569
0.281657
0.0876276
0.284971
0.0920873
0.288754
0.096405
0.293047
0.100544
0.297894
0.104463
0.303329
0.108113
0.309381
0.111442
0.316069
0.114394
0.323394
0.116909
0.331336
0.118929
0.339854
0.1204
0.348876
0.121275
0.358305
0.121516
0.121125
0.36802
0.270207
0.00636988
0.270402
0.0123443
0.270693
0.0180112
0.271084
0.023438
0.271583
0.0286753
0.272199
0.0337626
0.272945
0.0387311
0.273837
0.0436052
0.274891
0.0484026
0.276127
0.053135
0.277568
0.0578087
0.279238
0.0624251
0.281164
0.0669808
0.283375
0.0714679
0.285902
0.0758737
0.288777
0.0801816
0.292035
0.0843702
0.295708
0.0884138
0.299831
0.0922822
0.304434
0.095941
0.309545
0.0993521
0.315185
0.102474
0.321365
0.105262
0.328086
0.107672
0.335335
0.10966
0.34308
0.111184
0.351272
0.112208
0.359841
0.112705
0.368698
0.112659
0.11208
0.377743
0.276774
0.00623702
0.277033
0.0120851
0.277417
0.0176267
0.27793
0.0229254
0.278577
0.0280285
0.279367
0.0329726
0.280311
0.0377865
0.281424
0.0424922
0.282722
0.047105
0.284223
0.0516344
0.285946
0.056085
0.287915
0.060456
0.290154
0.0647423
0.292687
0.0689347
0.295541
0.0730195
0.298744
0.0769795
0.302321
0.0807933
0.306298
0.0844362
0.3107
0.0878802
0.315547
0.0910944
0.320853
0.0940456
0.326628
0.096699
0.332871
0.0990195
0.33957
0.100973
0.346703
0.102527
0.354231
0.103655
0.362104
0.104335
0.370257
0.104553
0.37861
0.104306
0.10361
0.38708
0.283498
0.00607146
0.283821
0.0117625
0.284297
0.0171501
0.284929
0.0222934
0.285721
0.0272365
0.286681
0.0320131
0.287818
0.0366496
0.289144
0.0411655
0.290675
0.045574
0.292427
0.049883
0.294416
0.0540951
0.296664
0.0582083
0.29919
0.0622164
0.302016
0.0661093
0.305162
0.0698732
0.30865
0.073491
0.312501
0.0769427
0.316732
0.0802054
0.321358
0.083254
0.32639
0.0860618
0.331835
0.0886011
0.33769
0.090844
0.343946
0.0927635
0.350584
0.0943346
0.357576
0.0955357
0.364881
0.0963498
0.372449
0.096766
0.380222
0.0967805
0.388131
0.0963967
0.095635
0.396107
0.290384
0.00587383
0.290769
0.011378
0.291335
0.0165835
0.292084
0.0215451
0.293016
0.0263035
0.29414
0.0308898
0.295462
0.0353277
0.296992
0.0396346
0.298745
0.0438219
0.300732
0.0478957
0.30297
0.0518574
0.305474
0.0557041
0.308261
0.059429
0.311349
0.0630219
0.314752
0.0664693
0.318488
0.0697553
0.322569
0.0728615
0.327007
0.0757675
0.33181
0.0784518
0.336979
0.0808921
0.342514
0.083066
0.348406
0.084952
0.35464
0.0865303
0.36119
0.0877838
0.368027
0.0886989
0.37511
0.0892665
0.382393
0.0894832
0.389823
0.0893513
0.39734
0.088879
0.0880877
0.404888
0.297435
0.005645
0.297879
0.0109331
0.298534
0.0159294
0.299394
0.0206842
0.300463
0.0252348
0.301744
0.0296094
0.303242
0.0338295
0.304966
0.0379104
0.306926
0.0418618
0.309133
0.0456885
0.3116
0.0493911
0.314338
0.052966
0.317361
0.0564063
0.32068
0.0597021
0.324309
0.0628411
0.328255
0.0658086
0.332528
0.0685885
0.337133
0.0711632
0.342069
0.0735149
0.347336
0.0756255
0.352924
0.0774779
0.35882
0.079056
0.365004
0.0803461
0.371451
0.0813373
0.378127
0.0820224
0.384996
0.082398
0.392013
0.0824657
0.399133
0.0822318
0.406305
0.0817072
0.0809127
0.41348
0.304654
0.00538603
0.305157
0.01043
0.305895
0.0151912
0.306864
0.0197152
0.308063
0.0240362
0.309493
0.0281796
0.311158
0.0321645
0.313064
0.0360045
0.315218
0.0397078
0.317628
0.0432782
0.320303
0.0467156
0.323253
0.0500162
0.326486
0.0531735
0.33001
0.0561783
0.333832
0.0590193
0.337956
0.0616839
0.342387
0.0641582
0.347122
0.0664277
0.352159
0.068478
0.357489
0.0702951
0.363101
0.0718662
0.368977
0.0731802
0.375095
0.0742283
0.381427
0.0750045
0.387944
0.0755061
0.394608
0.075734
0.401381
0.0756928
0.408221
0.0753912
0.415087
0.0748413
0.0740628
0.421937
0.312046
0.00509815
0.312605
0.0098712
0.313424
0.0143725
0.314496
0.0186433
0.315818
0.0227143
0.317389
0.0266085
0.31921
0.0303429
0.321286
0.0339291
0.323619
0.0373743
0.326216
0.0406815
0.329081
0.0438502
0.332221
0.0468766
0.33564
0.0497548
0.339341
0.0524765
0.343329
0.0550321
0.347602
0.0574106
0.352159
0.0596007
0.356996
0.0615907
0.362105
0.0633694
0.367474
0.0649265
0.373087
0.0662531
0.378925
0.0673418
0.384965
0.0681879
0.391181
0.068789
0.397542
0.0691456
0.404014
0.0692614
0.410564
0.0691431
0.417154
0.0688005
0.42375
0.068246
0.0674977
0.430315
0.319615
0.00478266
0.320227
0.00925917
0.321122
0.0134771
0.322292
0.0174736
0.32373
0.0212761
0.325434
0.0249049
0.327402
0.028375
0.329634
0.0316966
0.332133
0.0348758
0.334899
0.0379149
0.337936
0.0408133
0.341245
0.0435676
0.344828
0.0461723
0.348684
0.0486206
0.352812
0.0509041
0.357208
0.0530139
0.361868
0.054941
0.366782
0.0566764
0.37194
0.0582116
0.377327
0.0595395
0.382926
0.0606542
0.388716
0.0615517
0.394674
0.0622301
0.400773
0.0626896
0.406986
0.0629331
0.413281
0.0629659
0.419629
0.0627959
0.425996
0.0624331
0.432352
0.0618897
0.061182
0.438668
0.327365
0.00444094
0.328028
0.00859664
0.328995
0.0125093
0.330257
0.0162118
0.331805
0.0197285
0.333632
0.0230774
0.335736
0.0262713
0.338113
0.0293192
0.340763
0.0322261
0.343684
0.034994
0.346875
0.0376222
0.350335
0.0401078
0.354061
0.0424461
0.35805
0.0446313
0.362298
0.0466567
0.366797
0.0485152
0.371538
0.0501998
0.37651
0.0517038