/*--------------------------------*- C++ -*----------------------------------*\
| =========                 |                                                 |
| \\      /  F ield         | OpenFOAM: The Open Source CFD Toolbox           |
|  \\    /   O peration     | Version:  5.x                                   |
|   \\  /    A nd           | Web:      www.OpenFOAM.org                      |
|    \\/     M anipulation  |                                                 |
\*---------------------------------------------------------------------------*/
FoamFile
{
    version     2.0;
    format      ascii;
    class       surfaceVectorField;
    location    "2.8";
    object      Uf;
}
// * * * * * * * * * * * * * * * * * * * * * * * * * * * * * * * * * * * * * //

dimensions      [0 1 -1 0 0 0 0];

internalField   nonuniform List<vector> 
5457
(
(9.91048 6.90664e-21 0.0246753)
(9.97396 0 0.0388136)
(9.80703 -4.40531e-22 0.0313419)
(9.9247 -1.00834e-19 0.0463197)
(9.68937 -6.84765e-21 0.0368051)
(9.84709 -6.97708e-21 0.0546314)
(9.55529 0 0.0424413)
(9.74875 5.71083e-20 0.0645212)
(9.40523 1.40181e-22 0.0482059)
(9.63379 -5.84832e-20 0.0748084)
(9.23981 -3.23488e-20 0.0541248)
(9.50283 9.11936e-20 0.0853903)
(9.05916 -6.52111e-20 0.0603336)
(9.35559 -9.41989e-20 0.0965067)
(8.86304 -3.27e-20 0.0669672)
(9.19184 1.29109e-19 0.108386)
(8.65097 0 0.0741416)
(9.01129 3.48836e-20 0.12121)
(8.42227 0 0.0819679)
(8.81345 -1.3826e-19 0.135151)
(8.17611 4.99036e-21 0.0905621)
(8.59761 0 0.150385)
(7.91149 4.17503e-21 0.100048)
(8.3629 -3.11677e-19 0.167099)
(7.6273 -6.31928e-22 0.110556)
(8.10827 3.11164e-19 0.185486)
(7.32233 0 0.122225)
(7.8326 -3.39575e-19 0.205748)
(6.99527 0 0.135199)
(7.53462 3.39662e-19 0.228081)
(6.64478 5.1301e-20 0.149623)
(7.21301 0 0.252676)
(6.26954 -3.34306e-19 0.165637)
(6.8664 3.44331e-21 0.279693)
(5.86833 -3.7909e-19 0.183362)
(6.49346 3.71145e-19 0.309242)
(5.44015 4.8141e-19 0.20288)
(6.09298 -8.36662e-19 0.341347)
(4.98432 4.73459e-19 0.224215)
(5.66397 4.80869e-19 0.375901)
(4.50064 0 0.247297)
(5.20576 0 0.412609)
(3.98968 -3.02834e-19 0.27191)
(4.71825 -1.75758e-18 0.450907)
(3.45302 -6.21155e-19 0.297608)
(4.20206 4.21236e-18 0.48984)
(2.89367 -6.71788e-19 0.323566)
(3.65888 -4.57685e-18 0.5279)
(2.31651 -3.45204e-19 0.348277)
(3.09182 2.37264e-18 0.562758)
(1.72913 0 0.368644)
(2.50571 -5.24842e-18 0.590676)
(1.14391 -8.99137e-19 0.376292)
(1.90768 1.12547e-17 0.604967)
(0.583771 -5.68519e-18 0.337513)
(1.30791 -6.1914e-18 0.590516)
(0.100648 1.94998e-18 0.031952)
(0.699912 -3.97277e-18 0.501465)
(0.277649 6.42745e-18 0.116471)
(9.9979 -1.09466e-19 0.0499508)
(10.0038 0 0.0397085)
(9.96047 -1.05596e-19 0.0662459)
(9.98258 -2.71278e-20 0.0630649)
(9.90207 5.81672e-20 0.0804293)
(9.93678 8.27756e-20 0.0817289)
(9.82505 -3.4743e-21 0.0953608)
(9.87065 1.13858e-19 0.101566)
(9.72977 3.52412e-20 0.110949)
(9.78706 -5.84878e-20 0.122292)
(9.61668 2.60799e-20 0.127213)
(9.6868 -2.90883e-20 0.143749)
(9.48599 1.03982e-19 0.144445)
(9.56984 -1.86895e-19 0.166308)
(9.33758 1.95085e-19 0.162954)
(9.43609 3.53941e-19 0.190397)
(9.17105 -1.0631e-19 0.183012)
(9.28534 -2.64649e-19 0.216382)
(8.98583 -1.35958e-19 0.204882)
(9.11717 1.34577e-19 0.244609)
(8.78115 -3.21843e-19 0.228836)
(8.931 -3.21619e-19 0.275436)
(8.55608 5.56447e-21 0.255158)
(8.72605 4.3844e-21 0.309242)
(8.30957 -3.84031e-20 0.284145)
(8.50137 9.27203e-19 0.346427)
(8.04042 1.11221e-20 0.316096)
(8.25592 -3.40818e-19 0.387403)
(7.74733 3.34211e-19 0.351305)
(7.9885 -9.91847e-19 0.432589)
(7.42894 -4.78367e-20 0.390038)
(7.69785 6.89976e-19 0.482392)
(7.08382 7.14699e-19 0.432511)
(7.38259 1.41716e-18 0.537178)
(6.71064 -1.05355e-19 0.478836)
(7.04133 -5.71621e-19 0.597225)
(6.30819 -8.16907e-19 0.528967)
(6.67272 -8.29891e-19 0.662655)
(5.87545 0 0.582637)
(6.27547 2.09244e-19 0.733356)
(5.41181 -1.78354e-18 0.639251)
(5.84847 3.55998e-18 0.808869)
(4.91721 2.84182e-18 0.697733)
(5.39091 -5.69406e-18 0.888227)
(4.39241 1.41412e-19 0.756329)
(4.9024 4.511e-18 0.969728)
(3.83927 -1.44651e-18 0.812283)
(4.38316 -8.45456e-18 1.05061)
(3.2611 -2.60974e-18 0.861251)
(3.83405 1.56716e-18 1.12657)
(2.66299 6.13467e-18 0.896007)
(3.25662 -5.37558e-19 1.19074)
(2.05231 5.88731e-18 0.903187)
(2.6524 -1.7689e-19 1.23162)
(1.43732 -4.487e-18 0.856041)
(2.02242 5.55323e-18 1.22776)
(0.801018 7.99494e-19 0.69222)
(1.32755 8.13555e-19 1.14654)
(0.783148 -1.70577e-18 0.908694)
(9.99079 8.19119e-20 0.0560172)
(10.0016 -2.09435e-19 0.043706)
(9.95717 1.63356e-19 0.0817508)
(9.97794 8.05419e-20 0.0781365)
(9.90277 1.39054e-19 0.105588)
(9.93342 8.27856e-20 0.10702)
(9.83107 5.57181e-20 0.130425)
(9.87053 -5.61447e-20 0.136114)
(9.74285 -1.223e-19 0.156427)
(9.79102 5.13099e-22 0.166321)
(9.63847 -2.44855e-19 0.183703)
(9.69571 -1.19661e-19 0.19769)
(9.51813 7.2394e-20 0.21266)
(9.58481 1.22718e-19 0.230668)
(9.38178 -1.16346e-19 0.243761)
(9.45834 1.30401e-19 0.265828)
(9.22916 -1.70438e-20 0.277437)
(9.3162 -7.5895e-19 0.303703)
(9.05979 -5.86556e-20 0.314118)
(9.1581 5.42762e-19 0.344799)
(8.87305 1.0017e-20 0.354256)
(8.98359 -2.8658e-19 0.38964)
(8.66813 9.41296e-19 0.398327)
(8.79207 -3.18884e-19 0.438781)
(8.44412 6.04225e-19 0.446834)
(8.58279 1.82519e-18 0.49281)
(8.19995 -1.35442e-18 0.500296)
(8.3549 -6.04237e-19 0.552344)
(7.93444 -6.0942e-19 0.559231)
(8.10741 -2.60413e-18 0.618018)
(7.64632 2.16684e-18 0.62413)
(7.83926 3.40425e-18 0.690467)
(7.33421 9.98405e-20 0.695412)
(7.54925 1.49034e-19 0.77029)
(6.99669 -1.30065e-18 0.773363)
(7.23614 -1.50631e-18 0.857993)
(6.63233 2.12457e-19 0.858031)
(6.89858 -1.92123e-19 0.953905)
(6.23976 3.8193e-18 0.949124)
(6.53518 7.16377e-21 1.05806)
(5.81766 -4.82546e-19 1.04585)
(6.14448 3.56088e-18 1.17008)
(5.36492 -3.88232e-18 1.14669)
(5.72502 -3.4951e-18 1.28891)
(4.88071 -4.2548e-18 1.24909)
(5.27525 -3.28472e-18 1.41259)
(4.36441 -5.32142e-18 1.34904)
(4.79349 6.72953e-19 1.53781)
(3.81556 3.60246e-18 1.44042)
(4.27771 -1.15124e-19 1.65944)
(3.23301 -6.80775e-18 1.51384)
(3.7249 3.60759e-18 1.76972)
(2.61262 -5.16581e-19 1.55497)
(3.12958 -1.02077e-17 1.85739)
(1.94017 1.08442e-17 1.54488)
(2.4841 1.07706e-17 1.9061)
(1.17017 -1.75139e-18 1.46677)
(1.73753 -1.32185e-18 1.90521)
(1.03879 -2.62246e-17 1.83307)
(9.98647 -2.05869e-19 0.0662794)
(10.0003 -3.40161e-22 0.0495771)
(9.95303 0 0.102675)
(9.9748 2.13138e-19 0.0931382)
(9.89963 -1.1498e-19 0.136758)
(9.93014 0 0.131859)
(9.82909 -1.10326e-19 0.171268)
(9.86842 -1.12906e-19 0.170118)
(9.74261 1.00017e-21 0.206933)
(9.79055 -3.46006e-19 0.209513)
(9.6406 2.52184e-19 0.244149)
(9.69723 3.55463e-19 0.250438)
(9.52331 1.80881e-19 0.283486)
(9.58883 -1.19964e-19 0.293437)
(9.3908 -5.2735e-19 0.32557)
(9.46548 1.89466e-19 0.339187)
(9.24296 -1.77326e-19 0.371002)
(9.32717 -5.24486e-19 0.388355)
(9.07947 3.01133e-19 0.420381)
(9.17372 2.69933e-19 0.441589)
(8.89992 -6.16039e-19 0.474329)
(9.00482 -3.40157e-20 0.49955)
(8.70372 5.99742e-19 0.533506)
(8.82004 -5.68644e-19 0.562939)
(8.4902 5.77576e-19 0.598607)
(8.61882 1.21022e-18 0.632499)
(8.25858 -1.88615e-18 0.670359)
(8.40054 6.35468e-19 0.709015)
(8.00798 1.50517e-18 0.749501)
(8.16446 -2.58096e-18 0.793305)
(7.73741 1.33576e-18 0.836762)
(7.90979 2.7156e-18 0.886203)
(7.4458 -1.48368e-18 0.932815)
(7.63562 1.56413e-19 0.988523)
(7.13195 -3.77158e-19 1.0382)
(7.34097 -1.78691e-18 1.10101)
(6.79457 -3.94474e-19 1.15323)
(7.02473 -3.01136e-18 1.22427)
(6.43221 -1.99246e-19 1.27783)
(6.68561 2.88695e-18 1.35859)
(6.04327 4.47562e-19 1.41135)
(6.3221 0 1.50386)
(5.62585 -2.89159e-18 1.55235)
(5.93235 6.83692e-18 1.65929)
(5.17776 1.68324e-18 1.69815)
(5.51404 -1.83349e-17 1.82316)
(4.69606 5.8679e-18 1.84455)
(5.06405 1.13103e-17 1.9924)
(4.1765 -6.8782e-20 1.98528)
(4.57795 -6.77895e-18 2.16219)
(3.61225 8.78589e-20 2.11151)
(4.04921 1.62681e-17 2.32565)
(2.99154 1.15939e-18 2.21134)
(3.46769 1.22984e-18 2.47372)
(2.29397 -1.31024e-18 2.2712)
(2.82209 -2.73536e-17 2.59438)
(1.49084 -2.62726e-17 2.29073)
(2.07095 1.98039e-17 2.67858)
(1.27324 -2.4214e-17 2.73373)
(9.9843 4.2239e-19 0.0771827)
(9.99975 -2.06824e-19 0.0563902)
(9.95048 2.09139e-19 0.122734)
(9.97317 4.24999e-19 0.108312)
(9.89798 0 0.165913)
(9.92852 -2.17452e-19 0.156294)
(9.82868 -3.52823e-19 0.209297)
(9.86796 -2.2393e-19 0.203543)
(9.74385 2.09185e-20 0.254037)
(9.79185 1.11362e-19 0.251905)
(9.64397 -2.49846e-20 0.300775)
(9.70066 2.37188e-19 0.302114)
(9.5293 -1.06157e-19 0.350196)
(9.59483 -4.89534e-19 0.354844)
(9.39993 1.80387e-19 0.403025)
(9.47454 4.99042e-19 0.410864)
(9.25579 -6.39235e-20 0.459979)
(9.33982 -6.5018e-20 0.470951)
(9.09669 -7.03079e-20 0.521773)
(9.19056 5.32598e-19 0.535872)
(8.92231 4.77327e-21 0.58915)
(9.02653 7.3476e-20 0.606408)
(8.73221 7.05191e-20 0.662898)
(8.84739 -1.66093e-18 0.683383)
(8.5259 1.25884e-18 0.743848)
(8.65273 2.37085e-18 0.767667)
(8.30279 -1.09352e-19 0.832876)
(8.44205 3.99361e-20 0.860183)
(8.06223 -1.28843e-18 0.930889)
(8.21479 -1.27026e-18 0.961897)
(7.8035 1.49607e-18 1.0388)
(7.97036 8.06404e-20 1.07381)
(7.52578 -1.74952e-19 1.15751)
(7.70805 1.30604e-18 1.19691)
(7.22817 -4.44055e-18 1.28779)
(7.42709 1.37401e-18 1.33219)
(6.90958 3.541e-19 1.43024)
(7.12657 -5.69134e-18 1.48049)
(6.56866 3.04759e-18 1.58513)
(6.80536 3.0916e-18 1.64247)
(6.20372 6.48025e-18 1.75218)
(6.462 3.87791e-19 1.81838)
(5.81248 -8.91397e-18 1.9304)
(6.09448 1.29222e-17 2.00796)
(5.39179 -8.37667e-18 2.11764)
(5.70001 -2.13339e-17 2.21009)
(4.9372 -1.5055e-18 2.31025)
(5.2746 6.43869e-18 2.4225)
(4.44212 9.70029e-18 2.50281)
(4.81246 -7.80728e-18 2.64133)
(3.89662 1.73347e-17 2.68802)
(4.30514 1.73213e-17 2.86096)
(3.28654 -2.72439e-17 2.85631)
(3.74062 1.66007e-17 3.07382)
(2.59231 -6.47194e-18 2.99329)
(3.10557 -4.39385e-17 3.26915)
(1.80537 2.04468e-17 3.09543)
(2.38108 2.04708e-17 3.42326)
(1.51264 -6.14755e-19 3.56408)
(9.98326 -1.93476e-19 0.0884273)
(9.99955 -5.27272e-20 0.0636519)
(9.94929 -1.37288e-20 0.142572)
(9.97253 -1.58824e-19 0.123561)
(9.89784 -4.41558e-19 0.194617)
(9.92823 -1.09257e-19 0.180254)
(9.83015 2.46391e-19 0.24687)
(9.86906 -1.13286e-19 0.236215)
(9.74736 3.29949e-19 0.300667)
(9.79502 2.29704e-19 0.293302)
(9.65002 -2.40033e-19 0.356834)
(9.70638 1.1499e-19 0.352515)
(9.53837 1.32588e-19 0.416159)
(9.60355 -1.22083e-19 0.414677)
(9.41253 2.44187e-19 0.479458)
(9.48679 2.48398e-19 0.480645)
(9.27248 5.41509e-19 0.547553)
(9.35615 1.26738e-19 0.55129)
(9.11805 6.69086e-19 0.621271)
(9.21156 1.05858e-18 0.627485)
(8.94902 -1.6205e-18 0.701473)
(9.05285 -5.95144e-19 0.71012)
(8.76504 7.03366e-19 0.789064)
(8.87975 -1.80306e-18 0.800127)
(8.5657 1.1158e-18 0.885004)
(8.69193 2.33672e-18 0.89849)
(8.35054 -1.1422e-18 0.990302)
(8.48898 -1.21915e-18 1.00626)
(8.11904 1.20256e-19 1.10601)
(8.27044 1.97017e-20 1.12452)
(7.87062 -9.13205e-20 1.23321)
(8.0358 1.54876e-21 1.25442)
(7.60464 2.85609e-18 1.373)
(7.78449 -1.68394e-19 1.39715)
(7.32031 2.50032e-20 1.5264)
(7.51583 2.98044e-18 1.55387)
(7.01671 -2.83196e-18 1.69432)
(7.22901 -2.87296e-18 1.72573)
(6.69258 3.93022e-19 1.87739)
(6.92297 -5.45819e-18 1.9137)
(6.3462 6.98891e-18 2.07585)
(6.59627 5.9598e-18 2.11856)
(5.97508 1.02308e-19 2.28935)
(6.24683 6.52891e-18 2.34063)
(5.57556 -6.2186e-18 2.51665)
(5.87158 -6.28368e-18 2.57965)
(5.14238 0 2.75515)
(5.46612 4.1233e-19 2.83442)
(4.66792 0 3.00053)
(5.02403 7.34524e-18 3.10226)
(4.14127 1.65612e-17 3.24651)
(4.53601 -7.11315e-18 3.37853)
(3.54828 -1.84072e-19 3.48414)
(3.98978 1.1549e-18 3.65586)
(2.86936 -1.72078e-17 3.6937)
(3.36795 -1.39477e-18 3.92363)
(2.10455 -1.10157e-18 3.85493)
(2.68034 -1.04871e-18 4.13626)
(1.75555 -4.93917e-20 4.3268)
(9.98288 -1.99111e-20 0.0998024)
(9.99957 -4.90514e-20 0.0710775)
(9.94913 -2.53453e-19 0.162145)
(9.97256 -3.7081e-19 0.138723)
(9.89891 2.19051e-19 0.222683)
(9.92895 5.38466e-19 0.203656)
(9.83314 -1.23819e-19 0.283502)
(9.87143 5.51217e-19 0.267987)
(9.75278 1.26424e-20 0.346028)
(9.79979 -2.83952e-21 0.333515)
(9.65841 2.28952e-19 0.411258)
(9.71408 2.33017e-19 0.401422)
(9.55028 0 0.480101)
(9.61472 4.77606e-19 0.472681)
(9.42852 1.28874e-19 0.553465)
(9.502 -2.4275e-19 0.548234)
(9.29314 6.59124e-19 0.632269)
(9.37602 7.55759e-19 0.629038)
(9.14404 -2.32606e-19 0.717444)
(9.23674 1.24691e-20 0.716059)
(8.98103 -7.96866e-19 0.809955)
(9.08403 -1.6725e-18 0.810289)
(8.80384 -1.04681e-19 0.910815)
(8.91771 1.08581e-18 0.912759)
(8.61213 -5.40838e-20 1.0211)
(8.73749 1.09519e-18 1.02456)
(8.40549 -3.77242e-20 1.14194)
(8.54302 -2.31751e-18 1.14688)
(8.18347 -9.93637e-20 1.27452)
(8.33389 1.13947e-18 1.28091)
(7.94559 -7.80667e-20 1.42007)
(8.10965 2.3771e-18 1.42795)
(7.69125 0 1.57988)
(7.86979 3.05897e-20 1.58933)
(7.41972 0 1.75523)
(7.61368 -2.59985e-18 1.7665)
(7.1301 -5.53233e-18 1.94732)
(7.34053 2.71294e-18 1.96084)
(6.82114 2.47764e-19 2.15726)
(7.04922 -1.41722e-17 2.17372)
(6.49107 5.51122e-18 2.38589)
(6.73827 1.12787e-17 2.40645)
(6.13727 0 2.63357)
(6.40555 -5.93964e-18 2.66007)
(5.75587 4.16083e-19 2.90004)
(6.04783 6.05811e-18 2.93517)
(5.34121 7.80838e-18 3.184)
(5.66045 1.77549e-20 3.23171)
(4.88522 1.61557e-19 3.48222)
(5.23674 6.94175e-18 3.54833)
(4.37684 -2.24594e-17 3.78873)
(4.76685 -7.11164e-18 3.88117)
(3.80219 -6.52387e-20 4.09401)
(4.23882 -1.52706e-17 4.22221)
(3.13941 1.46884e-17 4.37194)
(3.62787 1.37438e-18 4.56158)
(2.38415 3.26443e-20 4.57811)
(2.97302 2.94305e-17 4.8319)
(1.99903 -1.59001e-17 5.05673)
(9.98292 -4.05572e-19 0.111116)
(9.99974 -4.11525e-19 0.0784881)
(9.94974 4.3836e-19 0.18131)
(9.97305 0 0.153636)
(9.90098 8.70995e-19 0.249951)
(9.93047 -2.13173e-19 0.226393)
(9.83742 6.62411e-19 0.318997)
(9.87488 2.20424e-19 0.298722)
(9.75987 2.21755e-19 0.389928)
(9.80593 1.12016e-21 0.37236)
(9.6689 4.85903e-19 0.463884)
(9.72353 0 0.448617)
(9.56477 2.22814e-19 0.541883)
(9.62808 9.50748e-19 0.5286)
(9.44765 4.00664e-19 0.624919)
(9.51991 -1.45125e-18 0.613334)
(9.31756 9.69543e-20 0.713995)
(9.39916 8.74631e-19 0.703849)
(9.17447 -1.45484e-18 0.810135)
(9.26582 -5.13937e-19 0.801201)
(9.01823 2.53714e-19 0.9144)
(9.11983 -1.06509e-18 0.906473)
(8.84863 2.28692e-18 1.0279)
(8.96105 2.36892e-18 1.02079)
(8.6654 -1.21994e-18 1.15184)
(8.78927 -1.02365e-19 1.14535)
(8.46817 -1.09026e-18 1.28747)
(8.60418 -2.23104e-18 1.28147)
(8.25651 3.63585e-18 1.4361)
(8.40542 1.13304e-18 1.43048)
(8.02999 2.45499e-18 1.59913)
(8.19256 7.91187e-20 1.59379)
(7.78807 -2.60615e-18 1.77805)
(7.96511 2.47866e-18 1.77294)
(7.53003 1.81789e-19 1.9744)
(7.72252 -2.5252e-18 1.96961)
(7.2549 -6.13716e-18 2.18971)
(7.46398 2.79802e-18 2.18552)
(6.96136 -2.8463e-18 2.42558)
(7.18828 -1.42544e-17 2.42242)
(6.64755 -3.6233e-19 2.68352)
(6.89383 5.48396e-18 2.6822)
(6.31073 2.29138e-19 2.96474)
(6.57847 -1.82697e-19 2.96673)
(5.94694 5.61627e-18 3.26995)
(6.2388 1.03653e-19 3.27752)
(5.55028 -8.02314e-19 3.59911)
(5.86993 5.48124e-18 3.61562)
(5.11233 -4.05167e-19 3.9502)
(5.46498 -5.008e-19 3.9811)
(4.62154 5.31763e-20 4.31742)
(5.0134 0 4.37119)
(4.06353 -1.38224e-17 4.69058)
(4.50349 -1.9206e-19 4.77724)
(3.41293 1.61246e-17 5.03851)
(3.90029 -1.44596e-17 5.19148)
(2.65255 1.17301e-17 5.29196)
(3.26892 2.99496e-17 5.52889)
(2.24715 -1.45938e-18 5.79813)
(9.98322 1.15248e-21 0.122227)
(10 4.11057e-19 0.0857673)
(9.95093 -6.55735e-19 0.199943)
(9.97389 0 0.168159)
(9.9039 -8.56107e-19 0.276298)
(9.93261 -6.43763e-19 0.248346)
(9.84282 -4.45018e-19 0.353209)
(9.87924 -6.54709e-19 0.328283)
(9.76842 -2.20773e-19 0.432191)
(9.81328 -2.24739e-19 0.409668)
(9.68124 4.81062e-19 0.514497)
(9.73453 0 0.493901)
(9.58158 -7.63687e-19 0.601245)
(9.64339 9.41214e-19 0.582199)
(9.46961 -9.39684e-19 0.693503)
(9.54024 -1.685e-18 0.675662)
(9.34541 2.41444e-19 0.792354)
(9.42527 -7.37434e-19 0.775393)
(9.20898 -1.3234e-19 0.898908)
(9.29846 -8.77749e-21 0.882531)
(9.06023 1.10357e-18 1.01431)
(9.15984 1.27835e-18 0.998237)
(8.89904 -5.86087e-20 1.13977)
(9.00935 1.08181e-18 1.12371)
(8.72519 -1.14559e-18 1.27662)
(8.84682 -9.65874e-19 1.26028)
(8.53834 4.20867e-20 1.42625)
(8.67202 1.39107e-19 1.4094)
(8.33809 -2.44186e-18 1.59008)
(8.48468 -2.27582e-18 1.57254)
(8.12402 1.31946e-19 1.76966)
(8.28434 -7.57131e-20 1.75121)
(7.89567 2.49823e-18 1.96673)
(8.07048 1.59339e-20 1.94713)
(7.65233 1.59539e-19 2.18315)
(7.84269 2.42917e-18 2.16229)
(7.39298 -5.52184e-18 2.42083)
(7.60022 2.24395e-21 2.3988)
(7.11623 -5.70935e-18 2.68181)
(7.34178 -5.4231e-18 2.65882)
(6.82012 5.6033e-18 2.96834)
(7.06566 -5.35203e-18 2.94478)
(6.50176 -2.96247e-19 3.28261)
(6.76964 1.62364e-17 3.25952)
(6.15698 -6.78859e-21 3.62639)
(6.45028 -1.12215e-17 3.60565)
(5.77977 5.75563e-18 4.00094)
(6.10226 5.91104e-18 3.98534)
(5.3612 -9.30049e-20 4.40573)
(5.71849 -4.78605e-21 4.40037)
(4.88845 -2.46064e-19 4.83578)
(5.28739 0 4.84982)
(4.34549 -8.51557e-19 5.28089)
(4.79718 2.95188e-19 5.32507)
(3.70298 -6.02213e-19 5.70715)
(4.20105 -2.30936e-19 5.82203)
(2.92886 1.55344e-17 6.02475)
(3.58592 0 6.24307)
(2.51163 1.49618e-17 6.58607)
(9.98373 4.02951e-19 0.13302)
(10.0004 4.10046e-19 0.0928255)
(9.95258 0 0.217924)
(9.97502 8.2704e-19 0.182178)
(9.90751 -4.42436e-19 0.301599)
(9.93526 -4.22197e-19 0.269408)
(9.84919 -4.26787e-19 0.385988)
(9.88438 -1.82623e-21 0.35654)
(9.77828 0 0.472638)
(9.82171 0 0.445281)
(9.69525 4.76096e-19 0.562885)
(9.74691 4.50322e-19 0.537087)
(9.60046 -2.34003e-20 0.657929)
(9.66046 4.68352e-19 0.633255)
(9.49414 -1.46746e-18 0.758912)
(9.56277 -7.11627e-19 0.73495)
(9.37638 -9.76701e-19 0.866994)
(9.45407 -2.54703e-19 0.843361)
(9.24721 1.42244e-18 0.983356)
(9.33436 -9.93151e-19 0.959701)
(9.10662 1.25401e-18 1.10921)
(9.20376 1.15654e-18 1.08518)
(8.95458 1.4398e-19 1.24588)
(9.06224 1.25463e-19 1.22107)
(8.79094 3.35938e-19 1.39483)
(8.90966 1.37675e-19 1.36882)
(8.61543 -2.21386e-18 1.55758)
(8.746 -6.73749e-20 1.53004)
(8.42772 1.20516e-19 1.73569)
(8.57104 -4.47733e-18 1.70632)
(8.22735 -1.88738e-19 1.93083)
(8.38442 4.70611e-18 1.89935)
(8.01389 -2.76527e-20 2.14496)
(8.18554 -9.60991e-21 2.11096)
(7.78677 2.24601e-18 2.38035)
(7.97403 1.09881e-20 2.34339)
(7.54498 4.48378e-20 2.63935)
(7.74934 -1.53449e-19 2.59926)
(7.28706 -5.06131e-18 2.92447)
(7.51031 2.36044e-19 2.88125)
(7.01105 5.46913e-18 3.23873)
(7.25496 -1.82428e-19 3.19229)
(6.71392 5.10207e-18 3.58546)
(6.98122 1.04766e-17 3.53626)
(6.39126 -5.1962e-18 3.96763)
(6.68579 -1.5638e-17 3.91709)
(6.03683 1.10604e-19 4.38808)
(6.36275 5.15451e-18 4.33829)
(5.64108 8.8478e-20 4.84843)
(6.00484 8.90136e-20 4.80386)
(5.18933 5.43544e-19 5.34557)
(5.59925 -9.83169e-18 5.31589)
(4.66272 9.15624e-19 5.87065)
(5.13365 1.14297e-17 5.8672)
(4.02734 3.72225e-19 6.38936)
(4.5486 -2.77539e-19 6.45899)
(3.23774 0 6.79774)
(3.94819 0 6.98529)
(2.81021 -3.64275e-19 7.4445)
(9.98442 8.41349e-19 0.143404)
(10.0008 5.06938e-20 0.0995864)
(9.95461 3.815e-19 0.23515)
(9.97639 7.73014e-19 0.195604)
(9.91171 2.61657e-20 0.325738)
(9.93837 -4.20843e-19 0.289478)
(9.85643 4.25229e-19 0.417192)
(9.89019 8.60988e-19 0.383367)
(9.78928 4.58204e-19 0.511104)
(9.83105 4.39006e-19 0.479055)
(9.71073 4.42913e-19 0.608853)
(9.76048 -4.43189e-19 0.578011)
(9.62121 -2.39368e-19 0.7117)
(9.67905 0 0.681564)
(9.52098 5.09146e-19 0.820867)
(9.58722 -1.17061e-18 0.790951)
(9.41018 -2.82163e-19 0.937595)
(9.48522 1.91813e-18 0.907457)
(9.28887 -1.22747e-18 1.06312)
(9.37315 -1.9627e-18 1.03236)
(9.1571 1.17534e-20 1.19872)
(9.25122 7.36714e-19 1.16692)
(9.01487 1.19432e-19 1.34578)
(9.11934 -1.01652e-18 1.31245)
(8.86216 -2.68957e-19 1.50589)
(8.97742 8.99417e-19 1.4705)
(8.69885 -2.39108e-18 1.68074)
(8.82563 -3.99335e-19 1.64279)
(8.5247 2.28272e-19 1.87206)
(8.6639 -2.22898e-18 1.8311)
(8.33935 4.8297e-18 2.08166)
(8.49203 2.39682e-18 2.03727)
(8.14232 3.19352e-20 2.31165)
(8.3096 2.36541e-18 2.26333)
(7.93311 -2.3969e-18 2.56464)
(8.11606 -2.34929e-18 2.51165)
(7.71093 4.1778e-20 2.84358)
(7.91102 -2.08917e-21 2.78532)
(7.47434 5.12089e-18 3.15151)
(7.69375 4.10274e-20 3.08766)
(7.22143 4.91867e-18 3.49222)
(7.46209 5.04548e-18 3.42219)
(6.94928 -1.04707e-17 3.87034)
(7.21429 -5.00603e-18 3.7938)
(6.65335 -5.17047e-18 4.29031)
(6.94744 -5.17764e-18 4.20795)
(6.3271 5.11748e-18 4.75699)
(6.65521 5.15118e-18 4.66989)
(5.96031 -9.89116e-18 5.27517)
(6.33039 -1.01747e-17 5.18659)
(5.53636 1.15214e-18 5.84516)
(5.95904 -8.90111e-19 5.7645)
(5.03251 1.01681e-17 6.4616)
(5.52812 1.08997e-17 6.40023)
(4.40874 -6.46766e-19 7.09245)
(4.96519 -6.26058e-19 7.10281)
(3.6063 -3.7976e-19 7.62794)
(4.38658 0 7.76293)
(3.16825 -1.04176e-17 8.3985)
(9.98521 -5.40697e-21 0.153301)
(10.0011 5.07167e-20 0.106006)
(9.95698 -5.18002e-20 0.251529)
(9.97795 -8.74505e-19 0.208332)
(9.91646 4.37401e-19 0.348614)
(9.94191 4.1967e-19 0.308463)
(9.86439 8.67435e-19 0.446703)
(9.89657 1.7911e-21 0.408677)
(9.80123 -4.77732e-19 0.547442)
(9.84112 4.39272e-19 0.510873)
(9.72747 -8.7922e-19 0.652222)
(9.77507 -4.52701e-19 0.616519)
(9.64355 -9.50523e-19 0.762344)
(9.69899 4.50505e-19 0.726942)
(9.5498 2.87108e-19 0.879111)
(9.61336 -1.16427e-18 0.843456)
(9.44641 1.77964e-19 1.00384)
(9.51843 2.46255e-19 0.967425)
(9.33355 4.25829e-20 1.13783)
(9.41446 -2.29428e-20 1.10018)
(9.21125 -3.17049e-19 1.28241)
(9.30172 2.53959e-19 1.24304)
(9.07954 -2.10086e-19 1.43903)
(9.18014 7.16616e-19 1.39742)
(8.93847 7.52217e-19 1.60935)
(9.04961 2.28004e-20 1.56486)
(8.78809 -2.60008e-19 1.79517)
(8.91041 2.52802e-19 1.74718)
(8.62837 -1.52587e-21 1.9984)
(8.76274 0 1.94625)
(8.4592 -7.27496e-20 2.22108)
(8.60651 -2.27784e-18 2.16409)
(8.28017 -6.96601e-20 2.46551)
(8.44174 2.08779e-18 2.40303)
(8.09074 7.35314e-20 2.73453)
(8.26784 0 2.66564)
(7.89034 -2.38279e-21 3.03161)
(8.08443 7.28965e-20 2.95524)
(7.67785 2.08948e-21 3.36046)
(7.8913 -4.83056e-18 3.27578)
(7.45154 -4.96763e-18 3.72567)
(7.68654 -2.16635e-19 3.6315)
(7.20883 2.97994e-19 4.1332)
(7.46893 4.26903e-18 4.02823)
(6.9455 5.22011e-18 4.5893)
(7.23605 4.41381e-18 4.47304)
(6.65495 -1.02389e-17 5.10153)
(6.98193 -4.46484e-18 4.97344)
(6.32661 -1.11734e-18 5.67896)
(6.70012 -1.01981e-17 5.54013)
(5.94243 8.91869e-18 6.32745)
(6.37623 1.86897e-17 6.18535)
(5.47528 5.40443e-21 7.04887)
(5.99734 -1.86037e-17 6.91315)
(4.87667 2.92501e-20 7.8185)
(5.47894 9.00428e-18 7.74512)
(4.07002 -1.04776e-17 8.53544)
(4.94475 8.14088e-18 8.5791)
(3.62788 -1.02805e-17 9.48956)
(9.98606 -8.3428e-19 0.162642)
(10.0016 -7.99258e-19 0.112056)
(9.95964 -3.78916e-19 0.266963)
(9.97963 -8.20487e-19 0.220262)
(9.92167 -2.36134e-20 0.370142)
(9.94578 1.24542e-18 0.326275)
(9.87294 -4.19079e-19 0.474426)
(9.90343 -8.48029e-19 0.432402)
(9.814 4.49341e-19 0.581522)
(9.85185 0 0.540625)
(9.74532 8.92666e-19 0.692828)
(9.79059 2.49962e-21 0.652452)
(9.66734 2.11195e-19 0.809677)
(9.72017 2.94613e-21 0.769215)
(9.5804 -1.18355e-18 0.933432)
(9.64106 6.81572e-19 0.892281)
(9.4848 4.08532e-20 1.06547)
(9.55354 -9.4429e-19 1.02305)
(9.38077 1.92914e-19 1.20715)
(9.45805 9.56512e-19 1.1629)
(9.26848 1.29467e-18 1.35988)
(9.35485 -2.54921e-19 1.31324)
(9.14797 9.41371e-19 1.52516)
(9.24403 1.02139e-18 1.47555)
(9.01929 -4.74912e-19 1.70468)
(9.12555 -1.01261e-18 1.65142)
(8.88263 5.10348e-19 1.90031)
(8.9997 -2.01087e-18 1.84266)
(8.7382 -2.30587e-18 2.11404)
(8.86695 2.0396e-18 2.05118)
(8.58616 -6.82385e-20 2.34816)
(8.72729 -2.28102e-18 2.27911)
(8.42641 2.13822e-18 2.60526)
(8.5811 1.90315e-18 2.52906)
(8.2585 0 2.8884)
(8.42815 0 2.80397)
(8.08205 -4.80466e-18 3.20138)
(8.26828 2.63722e-19 3.10725)
(7.89653 -5.0238e-18 3.54854)
(8.10155 -8.77496e-18 3.44321)
(7.70065 9.06957e-18 3.9354)
(7.9269 4.76927e-18 3.81687)
(7.49239 8.40549e-18 4.36909)
(7.74388 9.84346e-18 4.23503)
(7.26845 -5.33157e-18 4.85785)
(7.55072 -4.50329e-18 4.70605)
(7.02301 -4.43706e-18 5.41259)
(7.34309 -3.37072e-19 5.24007)
(6.74624 9.75754e-18 6.04766)
(7.11646 4.53701e-18 5.85195)
(6.42041 -9.0774e-18 6.77716)
(6.85813 4.77331e-18 6.56086)
(6.01513 -9.33673e-18 7.6163)
(6.55825 -1.86011e-17 7.38284)
(5.47239 1.71287e-17 8.55902)
(6.12581 9.00588e-18 8.36014)
(4.68986 7.27664e-18 9.54894)
(5.69247 1.59498e-18 9.42174)
(4.26825 6.50183e-18 10.7898)
(9.98705 -7.85815e-19 0.171372)
(10.0021 -1.80614e-21 0.11768)
(9.96249 8.42736e-19 0.281377)
(9.98141 8.06427e-19 0.231367)
(9.92724 3.83314e-19 0.390242)
(9.94988 -8.1846e-19 0.342844)
(9.88205 -4.14135e-19 0.500267)
(9.91071 -2.11602e-19 0.454453)
(9.82754 -4.47062e-19 0.61321)
(9.86315 -6.40178e-19 0.568209)
(9.76421 -8.87861e-19 0.730503)
(9.80689 -4.39629e-19 0.685676)
(9.69247 4.84148e-19 0.853511)
(9.74239 -4.48253e-19 0.808219)
(9.61269 8.96651e-19 0.98363)
(9.67007 4.60096e-19 0.937234)
(9.52521 0 1.12227)
(9.59033 -4.55794e-19 1.07414)
(9.43034 4.91045e-19 1.27083)
(9.50363 0 1.22035)
(9.32837 -5.11018e-19 1.43079)
(9.41029 7.21434e-19 1.37729)
(9.2195 -9.61824e-19 1.60374)
(9.31054 -4.98122e-19 1.54653)
(9.10387 -2.56269e-18 1.79137)
(9.2045 0 1.72974)
(8.98173 -4.33131e-19 1.99555)
(9.09268 -3.09123e-19 1.92868)
(8.85349 2.01793e-18 2.21831)
(8.97561 -1.94282e-18 2.14525)
(8.7195 -2.63255e-19 2.46208)
(8.8534 2.00799e-18 2.38163)
(8.58002 -2.57843e-19 2.72976)
(8.72661 2.27855e-18 2.64062)
(8.43504 2.66496e-19 3.02467)
(8.59564 6.07597e-21 2.92544)
(8.28451 -3.78062e-18 3.35074)
(8.46088 -2.54083e-18 3.23964)
(8.12858 1.12254e-18 3.71281)
(8.32251 -3.51091e-18 3.58761)
(7.96675 5.56833e-18 4.11727)
(8.18071 8.6158e-18 3.97502)
(7.79798 -3.16118e-18 4.57218)
(8.03618 -4.4943e-18 4.40943)
(7.62063 5.20305e-19 5.08761)
(7.88817 -3.67241e-18 4.90001)
(7.43098 8.68569e-18 5.67792)
(7.73535 4.16449e-18 5.45923)
(7.22209 -4.63356e-19 6.36289)
(7.57692 5.44422e-18 6.10559)
(6.98039 -4.86927e-18 7.16706)
(7.40557 -1.5088e-18 6.86474)
(6.678 5.45325e-20 8.12631)
(7.22153 -2.45894e-18 7.76755)
(6.25479 -6.68e-18 9.27515)
(6.94442 -7.20538e-19 8.88557)
(5.5837 1.01392e-18 10.6996)
(6.74224 -8.97368e-18 10.2241)
(5.22685 1.28736e-17 12.414)
(9.98808 1.60479e-18 0.179458)
(10.0026 8.13221e-19 0.122864)
(9.96549 -8.85449e-19 0.294727)
(9.98324 2.50982e-19 0.241604)
(9.9331 -1.40301e-18 0.408849)
(9.95416 -1.28948e-18 0.358112)
(9.89159 -4.45052e-19 0.524143)
(9.91833 1.19532e-18 0.474761)
(9.84167 -6.29464e-19 0.642402)
(9.87496 -6.5248e-19 0.59355)
(9.78388 1.68787e-22 0.765116)
(9.82387 4.08736e-19 0.716094)
(9.71863 -4.58236e-19 0.893685)
(9.76552 4.15013e-19 0.843832)
(9.64628 -9.07233e-19 1.02952)
(9.70025 -1.72344e-18 0.978176)
(9.56724 -4.49302e-19 1.17404)
(9.62858 -4.01868e-20 1.12054)
(9.48186 2.40591e-19 1.32868)
(9.55102 -4.47456e-21 1.27234)
(9.39052 7.18213e-19 1.49495)
(9.46797 1.55873e-18 1.43504)
(9.29357 4.71459e-19 1.67447)
(9.37965 -1.30662e-18 1.61022)
(9.19139 2.25295e-18 1.86899)
(9.28642 2.252e-18 1.79957)
(9.08438 -1.83858e-18 2.08036)
(9.18922 2.2691e-18 2.00488)
(8.97304 -1.91285e-18 2.31058)
(9.0885 -4.06914e-18 2.22799)
(8.8579 4.55765e-18 2.56217)
(8.98453 2.05017e-18 2.47113)
(8.73958 2.52439e-18 2.83819)
(8.87808 4.22654e-18 2.7371)
(8.61864 -2.82697e-18 3.14213)
(8.77013 -1.86241e-18 3.02925)
(8.4956 -2.27728e-18 3.47797)
(8.66183 -2.39483e-18 3.35122)
(8.3713 4.06955e-18 3.85082)
(8.55361 3.75546e-18 3.70728)
(8.24639 -1.53467e-18 4.26763)
(8.44694 3.88455e-19 4.10345)
(8.12135 -5.00389e-18 4.73694)
(8.34404 -4.67593e-18 4.54756)
(7.99694 0 5.27002)
(8.24574 -2.62987e-18 5.04884)
(7.87316 9.12699e-19 5.88362)
(8.15467 3.43378e-18 5.62085)
(7.7491 4.3845e-18 6.60133)
(8.07568 8.91894e-19 6.28351)
(7.62167 9.22698e-19 7.45653)
(8.01126 5.75273e-19 7.06498)
(7.47928 -3.22145e-18 8.50653)
(7.98189 9.60107e-19 8.00538)
(7.28959 -3.17593e-18 9.84674)
(7.95483 -1.19225e-18 9.19698)
(6.96104 4.02752e-18 12.0162)
(8.33737 -1.43091e-18 10.7504)
(8.0535 6.24322e-18 14.4576)
(0.0292561 3.72752e-20 -0.0289467)
(-0.00429251 -4.22568e-20 -0.0251616)
(0.135724 4.93351e-20 -0.0508155)
(0.067141 8.20772e-20 -0.0835815)
(0.278229 -6.05372e-21 -0.053703)
(0.197106 -3.75295e-20 -0.10222)
(0.415342 -2.92479e-20 -0.0438142)
(0.335359 1.06792e-19 -0.0925222)
(0.524054 -3.187e-20 -0.0295489)
(0.460099 -1.26775e-19 -0.0707404)
(0.597577 2.95516e-20 -0.0160347)
(0.556045 -2.5192e-20 -0.0469938)
(0.638971 3.0618e-21 -0.00551309)
(0.619472 5.39318e-20 -0.0263054)
(0.656019 3.06296e-21 0.00156378)
(0.654736 -2.7395e-23 -0.0108174)
(0.657145 0 0.00571616)
(0.669495 0 -0.000649787)
(0.647579 0 0.0080725)
(0.670768 0 0.00626716)
(0.630668 -2.3516e-21 0.00934831)
(0.662963 -1.94181e-20 0.0110791)
(0.609971 -4.56135e-21 0.00973791)
(0.64863 1.92904e-20 0.0135854)
(0.58804 -4.26705e-21 0.0101865)
(0.630552 -1.28716e-20 0.0144147)
(0.56334 -3.99299e-21 0.0117041)
(0.61042 8.43589e-21 0.016224)
(0.532595 -1.94036e-21 0.0135708)
(0.586403 4.3719e-24 0.0201317)
(0.497449 0 0.0140559)
(0.555982 3.54876e-21 0.0229083)
(0.463209 -8.22471e-22 0.0132381)
(0.521849 -6.95459e-21 0.0222039)
(0.429523 1.01193e-23 0.0131186)
(0.488106 5.73409e-21 0.0217227)
(0.389137 1.60591e-21 0.0142375)
(0.452657 -2.41483e-21 0.025861)
(0.340797 5.99432e-23 0.014461)
(0.409938 -7.51269e-22 0.03072)
(0.293009 -7.84836e-22 0.0119082)
(0.361234 -5.40478e-21 0.0301438)
(0.256733 0 0.00676651)
(0.315789 3.08006e-21 0.0227223)
(0.240415 0 0.000284574)
(0.282646 0 0.0101746)
(0.245616 -1.17094e-21 -0.00651685)
(0.264345 2.90541e-21 -0.00315695)
(0.270038 -1.33461e-21 -0.0134737)
(0.258118 1.25179e-22 -0.014913)
(0.311685 -4.44341e-23 -0.0203686)
(0.262633 -1.56612e-22 -0.0253159)
(0.368864 -6.9954e-23 -0.0268345)
(0.28358 3.46746e-22 -0.0345702)
(0.442298 4.01372e-22 -0.0327112)
(0.323186 -4.24138e-22 -0.0441471)
(0.533211 6.0799e-22 -0.0372472)
(0.380186 1.67737e-22 -0.0543718)
(0.484506 0 -0.0611685)
(0.0225601 -6.72297e-22 -0.0838546)
(-0.00711972 -6.61493e-22 -0.0570071)
(0.122235 0 -0.143026)
(0.053405 0 -0.167117)
(0.255404 7.1748e-20 -0.150874)
(0.16382 0 -0.198699)
(0.387769 7.65127e-21 -0.128739)
(0.283411 1.93555e-19 -0.180784)
(0.499032 -1.19437e-19 -0.0954962)
(0.393422 -1.87011e-19 -0.141594)
(0.581529 2.10917e-22 -0.0624144)
(0.480165 -5.29961e-20 -0.098443)
(0.635974 5.09654e-20 -0.0349464)
(0.539816 5.40088e-20 -0.0601225)
(0.667741 -3.05872e-21 -0.0148276)
(0.575246 -3.06094e-21 -0.0307068)