# vtk DataFile Version 2.0

ASCII

DATASET UNSTRUCTURED_GRID

POINTS 58 double 

5.0000000000000003e-02  0.0000000000000000e+00  1.0000000000000000e+00
-5.0000000000000003e-02  0.0000000000000000e+00  1.0000000000000000e+00
-5.0000000000000003e-02  2.9999999999999999e-01  1.0000000000000000e+00
5.0000000000000003e-02  2.9999999999999999e-01  1.0000000000000000e+00
5.0000000000000003e-02  0.0000000000000000e+00  8.0000000000000004e-01
-5.0000000000000003e-02  0.0000000000000000e+00  8.0000000000000004e-01
-5.0000000000000003e-02  2.9999999999999999e-01  8.0000000000000004e-01
5.0000000000000003e-02  2.9999999999999999e-01  8.0000000000000004e-01
0.0000000000000000e+00  0.0000000000000000e+00  1.0000000000000000e+00
-5.0000000000000003e-02  1.4999999999999999e-01  1.0000000000000000e+00
0.0000000000000000e+00  2.9999999999999999e-01  1.0000000000000000e+00
5.0000000000000003e-02  1.4999999999999999e-01  1.0000000000000000e+00
5.0000000000000003e-02  0.0000000000000000e+00  9.0000000000000002e-01
-5.0000000000000003e-02  0.0000000000000000e+00  9.0000000000000002e-01
-5.0000000000000003e-02  2.9999999999999999e-01  9.0000000000000002e-01
5.0000000000000003e-02  2.9999999999999999e-01  9.0000000000000002e-01
-5.0000000000000003e-02  1.4999999999999999e-01  8.0000000000000004e-01
5.0000000000000003e-02  1.4999999999999999e-01  8.0000000000000004e-01
5.0000000000000003e-02  0.0000000000000000e+00  5.9999999999999998e-01
-5.0000000000000003e-02  0.0000000000000000e+00  5.9999999999999998e-01
-5.0000000000000003e-02  2.9999999999999999e-01  5.9999999999999998e-01
5.0000000000000003e-02  2.9999999999999999e-01  5.9999999999999998e-01
5.0000000000000003e-02  0.0000000000000000e+00  6.9999999999999996e-01
-5.0000000000000003e-02  0.0000000000000000e+00  6.9999999999999996e-01
-5.0000000000000003e-02  2.9999999999999999e-01  6.9999999999999996e-01
5.0000000000000003e-02  2.9999999999999999e-01  6.9999999999999996e-01
-5.0000000000000003e-02  1.4999999999999999e-01  5.9999999999999998e-01
5.0000000000000003e-02  1.4999999999999999e-01  5.9999999999999998e-01
5.0000000000000003e-02  0.0000000000000000e+00  4.0000000000000002e-01
-5.0000000000000003e-02  0.0000000000000000e+00  4.0000000000000002e-01
-5.0000000000000003e-02  2.9999999999999999e-01  4.0000000000000002e-01
5.0000000000000003e-02  2.9999999999999999e-01  4.0000000000000002e-01
5.0000000000000003e-02  0.0000000000000000e+00  5.0000000000000000e-01
-5.0000000000000003e-02  0.0000000000000000e+00  5.0000000000000000e-01
-5.0000000000000003e-02  2.9999999999999999e-01  5.0000000000000000e-01
5.0000000000000003e-02  2.9999999999999999e-01  5.0000000000000000e-01
-5.0000000000000003e-02  1.4999999999999999e-01  4.0000000000000002e-01
5.0000000000000003e-02  1.4999999999999999e-01  4.0000000000000002e-01
5.0000000000000003e-02  0.0000000000000000e+00  2.0000000000000001e-01
-5.0000000000000003e-02  0.0000000000000000e+00  2.0000000000000001e-01
-5.0000000000000003e-02  2.9999999999999999e-01  2.0000000000000001e-01
5.0000000000000003e-02  2.9999999999999999e-01  2.0000000000000001e-01
5.0000000000000003e-02  0.0000000000000000e+00  2.9999999999999999e-01
-5.0000000000000003e-02  0.0000000000000000e+00  2.9999999999999999e-01
-5.0000000000000003e-02  2.9999999999999999e-01  2.9999999999999999e-01
5.0000000000000003e-02  2.9999999999999999e-01  2.9999999999999999e-01
-5.0000000000000003e-02  1.4999999999999999e-01  2.0000000000000001e-01
5.0000000000000003e-02  1.4999999999999999e-01  2.0000000000000001e-01
5.0000000000000003e-02  0.0000000000000000e+00  0.0000000000000000e+00
-5.0000000000000003e-02  0.0000000000000000e+00  0.0000000000000000e+00
-5.0000000000000003e-02  2.9999999999999999e-01  0.0000000000000000e+00
5.0000000000000003e-02  2.9999999999999999e-01  0.0000000000000000e+00
5.0000000000000003e-02  0.0000000000000000e+00  1.0000000000000001e-01
-5.0000000000000003e-02  0.0000000000000000e+00  1.0000000000000001e-01
-5.0000000000000003e-02  2.9999999999999999e-01  1.0000000000000001e-01
5.0000000000000003e-02  2.9999999999999999e-01  1.0000000000000001e-01
-5.0000000000000003e-02  1.4999999999999999e-01  0.0000000000000000e+00
5.0000000000000003e-02  1.4999999999999999e-01  0.0000000000000000e+00

CELLS 0 0


CELL_TYPES 0


POINT_DATA 58

VECTORS VertexNormals double

0.0000000000000000e+00 0.0000000000000000e+00 0.0000000000000000e+00 
0.0000000000000000e+00 0.0000000000000000e+00 0.0000000000000000e+00 
0.0000000000000000e+00 0.0000000000000000e+00 0.0000000000000000e+00 
0.0000000000000000e+00 0.0000000000000000e+00 0.0000000000000000e+00 
0.0000000000000000e+00 0.0000000000000000e+00 0.0000000000000000e+00 
0.0000000000000000e+00 0.0000000000000000e+00 0.0000000000000000e+00 
0.0000000000000000e+00 0.0000000000000000e+00 0.0000000000000000e+00 
0.0000000000000000e+00 0.0000000000000000e+00 0.0000000000000000e+00 
0.0000000000000000e+00 0.0000000000000000e+00 0.0000000000000000e+00 
0.0000000000000000e+00 0.0000000000000000e+00 0.0000000000000000e+00 
0.0000000000000000e+00 0.0000000000000000e+00 0.0000000000000000e+00 
0.0000000000000000e+00 0.0000000000000000e+00 0.0000000000000000e+00 
0.0000000000000000e+00 0.0000000000000000e+00 0.0000000000000000e+00 
0.0000000000000000e+00 0.0000000000000000e+00 0.0000000000000000e+00 
0.0000000000000000e+00 0.0000000000000000e+00 0.0000000000000000e+00 
0.0000000000000000e+00 0.0000000000000000e+00 0.0000000000000000e+00 
0.0000000000000000e+00 0.0000000000000000e+00 0.0000000000000000e+00 
0.0000000000000000e+00 0.0000000000000000e+00 0.0000000000000000e+00 
0.0000000000000000e+00 0.0000000000000000e+00 0.0000000000000000e+00 
0.0000000000000000e+00 0.0000000000000000e+00 0.0000000000000000e+00 
0.0000000000000000e+00 0.0000000000000000e+00 0.0000000000000000e+00 
0.0000000000000000e+00 0.0000000000000000e+00 0.0000000000000000e+00 
0.0000000000000000e+00 0.0000000000000000e+00 0.0000000000000000e+00 
0.0000000000000000e+00 0.0000000000000000e+00 0.0000000000000000e+00 
0.0000000000000000e+00 0.0000000000000000e+00 0.0000000000000000e+00 
0.0000000000000000e+00 0.0000000000000000e+00 0.0000000000000000e+00 
0.0000000000000000e+00 0.0000000000000000e+00 0.0000000000000000e+00 
0.0000000000000000e+00 0.0000000000000000e+00 0.0000000000000000e+00 
0.0000000000000000e+00 0.0000000000000000e+00 0.0000000000000000e+00 
0.0000000000000000e+00 0.0000000000000000e+00 0.0000000000000000e+00 
0.0000000000000000e+00 0.0000000000000000e+00 0.0000000000000000e+00 
0.0000000000000000e+00 0.0000000000000000e+00 0.0000000000000000e+00 
0.0000000000000000e+00 0.0000000000000000e+00 0.0000000000000000e+00 
0.0000000000000000e+00 0.0000000000000000e+00 0.0000000000000000e+00 
0.0000000000000000e+00 0.0000000000000000e+00 0.0000000000000000e+00 
0.0000000000000000e+00 0.0000000000000000e+00 0.0000000000000000e+00 
0.0000000000000000e+00 0.0000000000000000e+00 0.0000000000000000e+00 
0.0000000000000000e+00 0.0000000000000000e+00 0.0000000000000000e+00 
0.0000000000000000e+00 0.0000000000000000e+00 0.0000000000000000e+00 
0.0000000000000000e+00 0.0000000000000000e+00 0.0000000000000000e+00 
0.0000000000000000e+00 0.0000000000000000e+00 0.0000000000000000e+00 
0.0000000000000000e+00 0.0000000000000000e+00 0.0000000000000000e+00 
0.0000000000000000e+00 0.0000000000000000e+00 0.0000000000000000e+00 
0.0000000000000000e+00 0.0000000000000000e+00 0.0000000000000000e+00 
0.0000000000000000e+00 0.0000000000000000e+00 0.0000000000000000e+00 
0.0000000000000000e+00 0.0000000000000000e+00 0.0000000000000000e+00 
0.0000000000000000e+00 0.0000000000000000e+00 0.0000000000000000e+00 
0.0000000000000000e+00 0.0000000000000000e+00 0.0000000000000000e+00 
0.0000000000000000e+00 0.0000000000000000e+00 0.0000000000000000e+00 
0.0000000000000000e+00 0.0000000000000000e+00 0.0000000000000000e+00 
0.0000000000000000e+00 0.0000000000000000e+00 0.0000000000000000e+00 
0.0000000000000000e+00 0.0000000000000000e+00 0.0000000000000000e+00 
0.0000000000000000e+00 0.0000000000000000e+00 0.0000000000000000e+00 
0.0000000000000000e+00 0.0000000000000000e+00 0.0000000000000000e+00 
0.0000000000000000e+00 0.0000000000000000e+00 0.0000000000000000e+00 
0.0000000000000000e+00 0.0000000000000000e+00 0.0000000000000000e+00 
0.0000000000000000e+00 0.0000000000000000e+00 0.0000000000000000e+00 
0.0000000000000000e+00 0.0000000000000000e+00 0.0000000000000000e+00 

VECTORS DisplacementDeltas0 double
0.0000000000000000e+00 0.0000000000000000e+00 0.0000000000000000e+00 
2.7705767667096017e-02 0.0000000000000000e+00 -7.1587038285467718e-03 
2.7369632461019242e-02 0.0000000000000000e+00 -6.9285748677120366e-03 
2.3008874419382035e-02 0.0000000000000000e+00 -1.3817127388676877e-02 
1.0060975924120297e-02 0.0000000000000000e+00 -6.0184680899038213e-03 
1.3562789978679685e-02 0.0000000000000000e+00 2.7973183190665649e-04 
1.3017368762586894e-02 0.0000000000000000e+00 4.7422920159558273e-04 
9.8662484048268571e-03 0.0000000000000000e+00 -5.6315587512961365e-03 
2.5614530989582183e-02 0.0000000000000000e+00 -1.0604256468094538e-02 
2.7463160232609890e-02 0.0000000000000000e+00 -7.3037990405103361e-03 
2.5216581749977048e-02 0.0000000000000000e+00 -1.0423835237860557e-02 
2.3535276191627617e-02 0.0000000000000000e+00 -1.4273790152315216e-02 
1.6919376371150263e-02 0.0000000000000000e+00 -1.0095106975913632e-02 
2.1040714892864867e-02 0.0000000000000000e+00 -3.4740516047789406e-03 
2.0434973433654219e-02 0.0000000000000000e+00 -2.8482844113091070e-03 
1.6322402608121338e-02 0.0000000000000000e+00 -9.4858096958475337e-03 
1.3299065623907161e-02 0.0000000000000000e+00 2.8955689943524921e-04 
9.7648879868110598e-03 0.0000000000000000e+00 -6.0047917045159965e-03 
1.3900224009716061e-03 0.0000000000000000e+00 -1.0206458423141899e-03 
2.0221702603097102e-03 0.0000000000000000e+00 2.0254645102527652e-03 
1.9494444278690451e-03 0.0000000000000000e+00 1.8188429356021251e-03 
1.4775469747892408e-03 0.0000000000000000e+00 -9.7056801166512069e-04 
4.7609155676387183e-03 0.0000000000000000e+00 -2.7857014999909712e-03 
6.4562675724867090e-03 0.0000000000000000e+00 2.0757841189533773e-03 
6.3167739690915391e-03 0.0000000000000000e+00 2.0604980967183035e-03 
4.7188001826219961e-03 0.0000000000000000e+00 -2.7183363247700642e-03 
1.9431815029067878e-03 0.0000000000000000e+00 1.5857333418782902e-03 
1.5219315642902493e-03 0.0000000000000000e+00 -9.1506633137970750e-04 
-3.4803011778795695e-04 0.0000000000000000e+00 3.3584757664159809e-04 
-3.3685162609866336e-04 0.0000000000000000e+00 2.3638520459227978e-04 
-4.0484145116950494e-04 0.0000000000000000e+00 2.4669614881976714e-04 
-4.4818112482518640e-04 0.0000000000000000e+00 1.3177437516364334e-04 
-1.8205493881526518e-04 0.0000000000000000e+00 -1.7346298712196675e-04 
-6.8338468215734666e-05 0.0000000000000000e+00 9.2563952291218059e-04 
-1.5102703283454821e-05 0.0000000000000000e+00 8.8509852712841976e-04 
-1.5101308517759433e-04 0.0000000000000000e+00 -1.3448499090463654e-04 
-4.8819743445284230e-04 0.0000000000000000e+00 3.7169436449506824e-04 
-5.4636648002168251e-04 0.0000000000000000e+00 1.4834789887794854e-04 
-1.5394619898475171e-04 0.0000000000000000e+00 -5.3866961394123452e-05 
-1.4085753586134345e-04 0.0000000000000000e+00 -1.5822153614760483e-04 
-5.5274686330427942e-05 0.0000000000000000e+00 -2.0544841548983308e-04 
-1.2293321820849379e-04 0.0000000000000000e+00 -5.6669936450886205e-05 
-3.1873446922125450e-04 0.0000000000000000e+00 1.5395421176976260e-04 
-2.5394725181432072e-04 0.0000000000000000e+00 5.7516575568242979e-05 
-2.5878858630324015e-04 0.0000000000000000e+00 1.7269189653156366e-05 
-2.8012395346245413e-04 0.0000000000000000e+00 1.1820537728599755e-04 
-1.6025239380342872e-04 0.0000000000000000e+00 -3.8215475777295788e-05 
-1.9535599186708968e-04 0.0000000000000000e+00 1.1324271456434866e-04 
0.0000000000000000e+00 0.0000000000000000e+00 0.0000000000000000e+00 
0.0000000000000000e+00 0.0000000000000000e+00 0.0000000000000000e+00 
0.0000000000000000e+00 0.0000000000000000e+00 0.0000000000000000e+00 
0.0000000000000000e+00 0.0000000000000000e+00 0.0000000000000000e+00 
-3.2253717103601859e-05 0.0000000000000000e+00 5.2366316876133114e-05 
-5.3960810828296030e-05 0.0000000000000000e+00 -3.6584129975087429e-05 
-1.2502418383857268e-04 0.0000000000000000e+00 -6.7110067710864421e-05 
-9.6622038760237408e-05 0.0000000000000000e+00 -2.6106984296366117e-05 
0.0000000000000000e+00 0.0000000000000000e+00 0.0000000000000000e+00 
0.0000000000000000e+00 0.0000000000000000e+00 0.0000000000000000e+00 

VECTORS Forces0 double
7.3760389826874322e+00 -3.0125427096248831e+00 -4.0108421602527317e-01 
-2.4388165279618823e-01 -5.6949513238027201e-03 9.3205072777362452e-02 
-1.7784853487742642e+00 -5.7825958678182146e-02 1.8541932766294420e+00 
3.2359814835917842e+00 -1.3235344203052219e+00 -1.8653390476280288e-01 
-1.5479083496364499e+00 9.9060634255096869e-02 1.2075023224887607e-01 
-9.8105500176922611e-01 -1.0649283424997531e-02 4.1981575478116290e-01 
2.5588769757747204e-01 2.7789336553196279e-03 -1.0864871719267552e-01 
-1.5134348505370985e+00 1.0258856490067580e-01 4.6437023760326224e-01 
0.0000000000000000e+00 0.0000000000000000e+00 0.0000000000000000e+00 
0.0000000000000000e+00 0.0000000000000000e+00 0.0000000000000000e+00 
0.0000000000000000e+00 0.0000000000000000e+00 0.0000000000000000e+00 
0.0000000000000000e+00 0.0000000000000000e+00 0.0000000000000000e+00 
0.0000000000000000e+00 0.0000000000000000e+00 0.0000000000000000e+00 
0.0000000000000000e+00 0.0000000000000000e+00 0.0000000000000000e+00 
0.0000000000000000e+00 0.0000000000000000e+00 0.0000000000000000e+00 
0.0000000000000000e+00 0.0000000000000000e+00 0.0000000000000000e+00 
0.0000000000000000e+00 0.0000000000000000e+00 0.0000000000000000e+00 
0.0000000000000000e+00 0.0000000000000000e+00 0.0000000000000000e+00 
1.3733001568392549e+00 1.3902027771272615e-03 -2.2101133198283793e-01 
3.3388286965731937e+00 4.5448422328729903e-03 -5.7019406543009432e-01 
3.1602858135289145e+00 4.3054052457348127e-03 -5.2494791131471574e-01 
1.7136427586994363e+00 1.7199387612021849e-03 -2.6832947285639192e-01 
0.0000000000000000e+00 0.0000000000000000e+00 0.0000000000000000e+00 
0.0000000000000000e+00 0.0000000000000000e+00 0.0000000000000000e+00 
0.0000000000000000e+00 0.0000000000000000e+00 0.0000000000000000e+00 
0.0000000000000000e+00 0.0000000000000000e+00 0.0000000000000000e+00 
0.0000000000000000e+00 0.0000000000000000e+00 0.0000000000000000e+00 
0.0000000000000000e+00 0.0000000000000000e+00 0.0000000000000000e+00 
1.2185011517262967e+00 -1.9515963384924071e-04 -1.6213848611240349e-02 
1.6564878192992987e+00 -1.2781604966094606e-04 -2.6252006313339071e-02 
1.6456344162988215e+00 -1.2691280711206110e-04 -2.6329459468504811e-02 
1.1576921637160997e+00 -1.8542405885392852e-04 -1.5732155496737683e-02 
0.0000000000000000e+00 0.0000000000000000e+00 0.0000000000000000e+00 
0.0000000000000000e+00 0.0000000000000000e+00 0.0000000000000000e+00 
0.0000000000000000e+00 0.0000000000000000e+00 0.0000000000000000e+00 
0.0000000000000000e+00 0.0000000000000000e+00 0.0000000000000000e+00 
0.0000000000000000e+00 0.0000000000000000e+00 0.0000000000000000e+00 
0.0000000000000000e+00 0.0000000000000000e+00 0.0000000000000000e+00 
7.3314006427344736e-01 5.9892258026771351e-05 -7.2437558317553965e-03 
3.0280160555549305e+00 2.5160998021917235e-04 -3.1383760331769296e-02 
3.0270193756480537e+00 2.5154296658696297e-04 -3.1458260757326849e-02 
7.4520510369184034e-01 6.0887432774694067e-05 -7.4011516915361304e-03 
0.0000000000000000e+00 0.0000000000000000e+00 0.0000000000000000e+00 
0.0000000000000000e+00 0.0000000000000000e+00 0.0000000000000000e+00 
0.0000000000000000e+00 0.0000000000000000e+00 0.0000000000000000e+00 
0.0000000000000000e+00 0.0000000000000000e+00 0.0000000000000000e+00 
0.0000000000000000e+00 0.0000000000000000e+00 0.0000000000000000e+00 
0.0000000000000000e+00 0.0000000000000000e+00 0.0000000000000000e+00 
5.8001278847937754e-01 1.9593420970739588e-05 -1.3179332074653010e-02 
1.3242096812107531e+00 4.1164406504447380e-05 -3.1473772571428443e-02 
1.3229577907245069e+00 4.1124237007668158e-05 -3.1321220626003690e-02 
5.7394758549874481e-01 1.9384764512122980e-05 -1.2983192002338807e-02 
0.0000000000000000e+00 0.0000000000000000e+00 0.0000000000000000e+00 
0.0000000000000000e+00 0.0000000000000000e+00 0.0000000000000000e+00 
0.0000000000000000e+00 0.0000000000000000e+00 0.0000000000000000e+00 
0.0000000000000000e+00 0.0000000000000000e+00 0.0000000000000000e+00 
0.0000000000000000e+00 0.0000000000000000e+00 0.0000000000000000e+00 
0.0000000000000000e+00 0.0000000000000000e+00 0.0000000000000000e+00 

