# vtk DataFile Version 2.0

ASCII

DATASET UNSTRUCTURED_GRID

POINTS 58 double 

5.0000000000000003e-02  0.0000000000000000e+00  1.0000000000000000e+00
-5.0000000000000003e-02  0.0000000000000000e+00  1.0000000000000000e+00
-5.0000000000000003e-02  2.9999999999999999e-01  1.0000000000000000e+00
5.0000000000000003e-02  2.9999999999999999e-01  1.0000000000000000e+00
5.0000000000000003e-02  0.0000000000000000e+00  8.0000000000000004e-01
-5.0000000000000003e-02  0.0000000000000000e+00  8.0000000000000004e-01
-5.0000000000000003e-02  2.9999999999999999e-01  8.0000000000000004e-01
5.0000000000000003e-02  2.9999999999999999e-01  8.0000000000000004e-01
0.0000000000000000e+00  0.0000000000000000e+00  1.0000000000000000e+00
-5.0000000000000003e-02  1.4999999999999999e-01  1.0000000000000000e+00
0.0000000000000000e+00  2.9999999999999999e-01  1.0000000000000000e+00
5.0000000000000003e-02  1.4999999999999999e-01  1.0000000000000000e+00
5.0000000000000003e-02  0.0000000000000000e+00  9.0000000000000002e-01
-5.0000000000000003e-02  0.0000000000000000e+00  9.0000000000000002e-01
-5.0000000000000003e-02  2.9999999999999999e-01  9.0000000000000002e-01
5.0000000000000003e-02  2.9999999999999999e-01  9.0000000000000002e-01
-5.0000000000000003e-02  1.4999999999999999e-01  8.0000000000000004e-01
5.0000000000000003e-02  1.4999999999999999e-01  8.0000000000000004e-01
5.0000000000000003e-02  0.0000000000000000e+00  5.9999999999999998e-01
-5.0000000000000003e-02  0.0000000000000000e+00  5.9999999999999998e-01
-5.0000000000000003e-02  2.9999999999999999e-01  5.9999999999999998e-01
5.0000000000000003e-02  2.9999999999999999e-01  5.9999999999999998e-01
5.0000000000000003e-02  0.0000000000000000e+00  6.9999999999999996e-01
-5.0000000000000003e-02  0.0000000000000000e+00  6.9999999999999996e-01
-5.0000000000000003e-02  2.9999999999999999e-01  6.9999999999999996e-01
5.0000000000000003e-02  2.9999999999999999e-01  6.9999999999999996e-01
-5.0000000000000003e-02  1.4999999999999999e-01  5.9999999999999998e-01
5.0000000000000003e-02  1.4999999999999999e-01  5.9999999999999998e-01
5.0000000000000003e-02  0.0000000000000000e+00  4.0000000000000002e-01
-5.0000000000000003e-02  0.0000000000000000e+00  4.0000000000000002e-01
-5.0000000000000003e-02  2.9999999999999999e-01  4.0000000000000002e-01
5.0000000000000003e-02  2.9999999999999999e-01  4.0000000000000002e-01
5.0000000000000003e-02  0.0000000000000000e+00  5.0000000000000000e-01
-5.0000000000000003e-02  0.0000000000000000e+00  5.0000000000000000e-01
-5.0000000000000003e-02  2.9999999999999999e-01  5.0000000000000000e-01
5.0000000000000003e-02  2.9999999999999999e-01  5.0000000000000000e-01
-5.0000000000000003e-02  1.4999999999999999e-01  4.0000000000000002e-01
5.0000000000000003e-02  1.4999999999999999e-01  4.0000000000000002e-01
5.0000000000000003e-02  0.0000000000000000e+00  2.0000000000000001e-01
-5.0000000000000003e-02  0.0000000000000000e+00  2.0000000000000001e-01
-5.0000000000000003e-02  2.9999999999999999e-01  2.0000000000000001e-01
5.0000000000000003e-02  2.9999999999999999e-01  2.0000000000000001e-01
5.0000000000000003e-02  0.0000000000000000e+00  2.9999999999999999e-01
-5.0000000000000003e-02  0.0000000000000000e+00  2.9999999999999999e-01
-5.0000000000000003e-02  2.9999999999999999e-01  2.9999999999999999e-01
5.0000000000000003e-02  2.9999999999999999e-01  2.9999999999999999e-01
-5.0000000000000003e-02  1.4999999999999999e-01  2.0000000000000001e-01
5.0000000000000003e-02  1.4999999999999999e-01  2.0000000000000001e-01
5.0000000000000003e-02  0.0000000000000000e+00  0.0000000000000000e+00
-5.0000000000000003e-02  0.0000000000000000e+00  0.0000000000000000e+00
-5.0000000000000003e-02  2.9999999999999999e-01  0.0000000000000000e+00
5.0000000000000003e-02  2.9999999999999999e-01  0.0000000000000000e+00
5.0000000000000003e-02  0.0000000000000000e+00  1.0000000000000001e-01
-5.0000000000000003e-02  0.0000000000000000e+00  1.0000000000000001e-01
-5.0000000000000003e-02  2.9999999999999999e-01  1.0000000000000001e-01
5.0000000000000003e-02  2.9999999999999999e-01  1.0000000000000001e-01
-5.0000000000000003e-02  1.4999999999999999e-01  0.0000000000000000e+00
5.0000000000000003e-02  1.4999999999999999e-01  0.0000000000000000e+00

CELLS 0 0


CELL_TYPES 0


POINT_DATA 58

VECTORS VertexNormals double

0.0000000000000000e+00 0.0000000000000000e+00 0.0000000000000000e+00 
0.0000000000000000e+00 0.0000000000000000e+00 0.0000000000000000e+00 
0.0000000000000000e+00 0.0000000000000000e+00 0.0000000000000000e+00 
0.0000000000000000e+00 0.0000000000000000e+00 0.0000000000000000e+00 
0.0000000000000000e+00 0.0000000000000000e+00 0.0000000000000000e+00 
0.0000000000000000e+00 0.0000000000000000e+00 0.0000000000000000e+00 
0.0000000000000000e+00 0.0000000000000000e+00 0.0000000000000000e+00 
0.0000000000000000e+00 0.0000000000000000e+00 0.0000000000000000e+00 
0.0000000000000000e+00 0.0000000000000000e+00 0.0000000000000000e+00 
0.0000000000000000e+00 0.0000000000000000e+00 0.0000000000000000e+00 
0.0000000000000000e+00 0.0000000000000000e+00 0.0000000000000000e+00 
0.0000000000000000e+00 0.0000000000000000e+00 0.0000000000000000e+00 
0.0000000000000000e+00 0.0000000000000000e+00 0.0000000000000000e+00 
0.0000000000000000e+00 0.0000000000000000e+00 0.0000000000000000e+00 
0.0000000000000000e+00 0.0000000000000000e+00 0.0000000000000000e+00 
0.0000000000000000e+00 0.0000000000000000e+00 0.0000000000000000e+00 
0.0000000000000000e+00 0.0000000000000000e+00 0.0000000000000000e+00 
0.0000000000000000e+00 0.0000000000000000e+00 0.0000000000000000e+00 
0.0000000000000000e+00 0.0000000000000000e+00 0.0000000000000000e+00 
0.0000000000000000e+00 0.0000000000000000e+00 0.0000000000000000e+00 
0.0000000000000000e+00 0.0000000000000000e+00 0.0000000000000000e+00 
0.0000000000000000e+00 0.0000000000000000e+00 0.0000000000000000e+00 
0.0000000000000000e+00 0.0000000000000000e+00 0.0000000000000000e+00 
0.0000000000000000e+00 0.0000000000000000e+00 0.0000000000000000e+00 
0.0000000000000000e+00 0.0000000000000000e+00 0.0000000000000000e+00 
0.0000000000000000e+00 0.0000000000000000e+00 0.0000000000000000e+00 
0.0000000000000000e+00 0.0000000000000000e+00 0.0000000000000000e+00 
0.0000000000000000e+00 0.0000000000000000e+00 0.0000000000000000e+00 
0.0000000000000000e+00 0.0000000000000000e+00 0.0000000000000000e+00 
0.0000000000000000e+00 0.0000000000000000e+00 0.0000000000000000e+00 
0.0000000000000000e+00 0.0000000000000000e+00 0.0000000000000000e+00 
0.0000000000000000e+00 0.0000000000000000e+00 0.0000000000000000e+00 
0.0000000000000000e+00 0.0000000000000000e+00 0.0000000000000000e+00 
0.0000000000000000e+00 0.0000000000000000e+00 0.0000000000000000e+00 
0.0000000000000000e+00 0.0000000000000000e+00 0.0000000000000000e+00 
0.0000000000000000e+00 0.0000000000000000e+00 0.0000000000000000e+00 
0.0000000000000000e+00 0.0000000000000000e+00 0.0000000000000000e+00 
0.0000000000000000e+00 0.0000000000000000e+00 0.0000000000000000e+00 
0.0000000000000000e+00 0.0000000000000000e+00 0.0000000000000000e+00 
0.0000000000000000e+00 0.0000000000000000e+00 0.0000000000000000e+00 
0.0000000000000000e+00 0.0000000000000000e+00 0.0000000000000000e+00 
0.0000000000000000e+00 0.0000000000000000e+00 0.0000000000000000e+00 
0.0000000000000000e+00 0.0000000000000000e+00 0.0000000000000000e+00 
0.0000000000000000e+00 0.0000000000000000e+00 0.0000000000000000e+00 
0.0000000000000000e+00 0.0000000000000000e+00 0.0000000000000000e+00 
0.0000000000000000e+00 0.0000000000000000e+00 0.0000000000000000e+00 
0.0000000000000000e+00 0.0000000000000000e+00 0.0000000000000000e+00 
0.0000000000000000e+00 0.0000000000000000e+00 0.0000000000000000e+00 
0.0000000000000000e+00 0.0000000000000000e+00 0.0000000000000000e+00 
0.0000000000000000e+00 0.0000000000000000e+00 0.0000000000000000e+00 
0.0000000000000000e+00 0.0000000000000000e+00 0.0000000000000000e+00 
0.0000000000000000e+00 0.0000000000000000e+00 0.0000000000000000e+00 
0.0000000000000000e+00 0.0000000000000000e+00 0.0000000000000000e+00 
0.0000000000000000e+00 0.0000000000000000e+00 0.0000000000000000e+00 
0.0000000000000000e+00 0.0000000000000000e+00 0.0000000000000000e+00 
0.0000000000000000e+00 0.0000000000000000e+00 0.0000000000000000e+00 
0.0000000000000000e+00 0.0000000000000000e+00 0.0000000000000000e+00 
0.0000000000000000e+00 0.0000000000000000e+00 0.0000000000000000e+00 

VECTORS DisplacementDeltas0 double
0.0000000000000000e+00 0.0000000000000000e+00 0.0000000000000000e+00 
1.0377470307806863e-02 0.0000000000000000e+00 -3.1018800900518536e-04 
1.0305072458404160e-02 0.0000000000000000e+00 1.2722759349860112e-04 
1.0362986566849079e-02 0.0000000000000000e+00 -2.9923180906635707e-03 
3.6190056960628677e-03 0.0000000000000000e+00 -1.7757176268616277e-03 
4.5195643591222452e-03 0.0000000000000000e+00 7.3750505506390857e-04 
4.2326153340022099e-03 0.0000000000000000e+00 1.0208453582813298e-03 
3.3780842603420083e-03 0.0000000000000000e+00 -1.5592516318723613e-03 
1.0427421367650690e-02 0.0000000000000000e+00 -1.4797713756117248e-03 
1.0968490520149237e-02 0.0000000000000000e+00 -2.1755618414279936e-04 
1.0337554263872357e-02 0.0000000000000000e+00 -1.3223969968812533e-03 
1.0144682099801201e-02 0.0000000000000000e+00 -3.2448411352148931e-03 
7.1525315335323782e-03 0.0000000000000000e+00 -2.6341053999103421e-03 
7.5519239550129770e-03 0.0000000000000000e+00 5.4110555564266128e-04 
7.2732930001635360e-03 0.0000000000000000e+00 6.4948386267953476e-04 
6.8481604649406839e-03 0.0000000000000000e+00 -2.3838658328107385e-03 
4.4942765783313821e-03 0.0000000000000000e+00 1.1665618638110743e-03 
3.9680367973145662e-03 0.0000000000000000e+00 -1.7806853209415803e-03 
5.1476909276558535e-04 0.0000000000000000e+00 -5.9550869741555696e-04 
4.5779105573766723e-04 0.0000000000000000e+00 5.0899767892453982e-04 
5.5914995206431486e-04 0.0000000000000000e+00 4.4463541544531609e-04 
6.3869632290246476e-04 0.0000000000000000e+00 -4.9766799055378573e-04 
1.7376901673215013e-03 0.0000000000000000e+00 -1.1491621367971517e-03 
1.9052090631525237e-03 0.0000000000000000e+00 8.8389852555682651e-04 
1.8705394690184704e-03 0.0000000000000000e+00 9.4742828683648875e-04 
1.6917659755962583e-03 0.0000000000000000e+00 -1.1081455777436494e-03 
6.1286927604518524e-04 0.0000000000000000e+00 3.9531524555164079e-04 
5.1716496376346505e-04 0.0000000000000000e+00 -1.9273314321130851e-04 
7.2670635405751175e-05 0.0000000000000000e+00 4.5105325628412834e-05 
-1.1646136111583103e-04 0.0000000000000000e+00 -2.1981028290566956e-05 
-1.0280383270063788e-04 0.0000000000000000e+00 9.9809579179676271e-06 
7.3714145772416388e-05 0.0000000000000000e+00 3.9495560177022892e-05 
2.3596535931975221e-04 0.0000000000000000e+00 -2.0403147872112180e-04 
2.0768297108817823e-04 0.0000000000000000e+00 4.2944196110616056e-06 
1.5551220023190290e-04 0.0000000000000000e+00 1.1754047965174201e-06 
1.8356969958195093e-04 0.0000000000000000e+00 -1.5479217030091053e-04 
1.3995624454744013e-04 0.0000000000000000e+00 7.1818286971341055e-05 
2.0492630660483204e-04 0.0000000000000000e+00 1.9821644280313994e-05 
3.3421703456823211e-04 0.0000000000000000e+00 -1.6452016863421030e-04 
2.8905326999270858e-04 0.0000000000000000e+00 -9.8368867389623930e-05 
2.3526770678442910e-04 0.0000000000000000e+00 -1.2077599766385728e-04 
3.0124434640892736e-04 0.0000000000000000e+00 -1.8095770043520678e-04 
1.8014426643802564e-04 0.0000000000000000e+00 9.7283137260502914e-06 
2.5684062677254244e-04 0.0000000000000000e+00 -7.7035391294751738e-05 
2.9875109441658033e-04 0.0000000000000000e+00 -1.0197228351288090e-04 
2.0784238278591057e-04 0.0000000000000000e+00 -3.4737397748128436e-05 
3.1944027587934177e-04 0.0000000000000000e+00 -1.8465278171348495e-04 
3.6379827809130110e-04 0.0000000000000000e+00 -3.2085254346830557e-04 
0.0000000000000000e+00 0.0000000000000000e+00 0.0000000000000000e+00 
0.0000000000000000e+00 0.0000000000000000e+00 0.0000000000000000e+00 
0.0000000000000000e+00 0.0000000000000000e+00 0.0000000000000000e+00 
0.0000000000000000e+00 0.0000000000000000e+00 0.0000000000000000e+00 
1.4075005018329668e-04 0.0000000000000000e+00 -9.9427693664088540e-05 
7.8314275063808762e-05 0.0000000000000000e+00 4.2749629978408869e-06 
8.3015756694496210e-05 0.0000000000000000e+00 -3.1043530894705172e-05 
1.3668599386460086e-04 0.0000000000000000e+00 -1.1991282635118202e-04 
0.0000000000000000e+00 0.0000000000000000e+00 0.0000000000000000e+00 
0.0000000000000000e+00 0.0000000000000000e+00 0.0000000000000000e+00 

VECTORS Forces0 double
7.3202706233568398e+00 -9.3396977580780050e-01 2.1945698493732233e+00 
-2.2046861830757641e-01 -6.6817444269042805e-04 1.0717239162484687e-01 
-1.0323202375610501e+00 -3.7796035378211720e-03 6.7601934725492541e-01 
6.0364304407148612e+00 -7.7083160740831325e-01 1.7979776820372824e+00 
-1.8783153122103575e+00 3.7688603163337470e-02 4.7687389455458355e-02 
2.4949954571635100e+00 9.4279576299428139e-03 -3.2376498216640209e-01 
3.0022763795848482e+00 1.1351236974872054e-02 -3.8672483420708753e-01 
-1.7178012782285645e+00 3.4771132649394125e-02 1.6480533281298432e-01 
0.0000000000000000e+00 0.0000000000000000e+00 0.0000000000000000e+00 
0.0000000000000000e+00 0.0000000000000000e+00 0.0000000000000000e+00 
0.0000000000000000e+00 0.0000000000000000e+00 0.0000000000000000e+00 
0.0000000000000000e+00 0.0000000000000000e+00 0.0000000000000000e+00 
0.0000000000000000e+00 0.0000000000000000e+00 0.0000000000000000e+00 
0.0000000000000000e+00 0.0000000000000000e+00 0.0000000000000000e+00 
0.0000000000000000e+00 0.0000000000000000e+00 0.0000000000000000e+00 
0.0000000000000000e+00 0.0000000000000000e+00 0.0000000000000000e+00 
0.0000000000000000e+00 0.0000000000000000e+00 0.0000000000000000e+00 
0.0000000000000000e+00 0.0000000000000000e+00 0.0000000000000000e+00 
1.3415672440899733e+00 7.3078867559514830e-04 -5.2753513208261660e-02 
2.3619106296255326e+00 1.2854165107032823e-03 -9.8170486079605268e-02 
2.2972199884556694e+00 1.2516010306427253e-03 -9.1381333038469723e-02 
1.4207887964493007e+00 7.7256127439713821e-04 -5.3293194408791676e-02 
0.0000000000000000e+00 0.0000000000000000e+00 0.0000000000000000e+00 
0.0000000000000000e+00 0.0000000000000000e+00 0.0000000000000000e+00 
0.0000000000000000e+00 0.0000000000000000e+00 0.0000000000000000e+00 
0.0000000000000000e+00 0.0000000000000000e+00 0.0000000000000000e+00 
0.0000000000000000e+00 0.0000000000000000e+00 0.0000000000000000e+00 
0.0000000000000000e+00 0.0000000000000000e+00 0.0000000000000000e+00 
8.7353651245551378e-01 -9.6895588165917418e-05 -4.6998201545945883e-04 
1.7346816191081531e+00 -1.8899904099997202e-04 -6.1526433394968168e-05 
1.7163920540379358e+00 -1.8700527600381213e-04 -1.2893297113562507e-04 
8.3939986919491816e-01 -9.3118231088068533e-05 -4.8545236185764708e-04 
0.0000000000000000e+00 0.0000000000000000e+00 0.0000000000000000e+00 
0.0000000000000000e+00 0.0000000000000000e+00 0.0000000000000000e+00 
0.0000000000000000e+00 0.0000000000000000e+00 0.0000000000000000e+00 
0.0000000000000000e+00 0.0000000000000000e+00 0.0000000000000000e+00 
0.0000000000000000e+00 0.0000000000000000e+00 0.0000000000000000e+00 
0.0000000000000000e+00 0.0000000000000000e+00 0.0000000000000000e+00 
4.6178352809464096e-01 1.9962736116332589e-05 -5.1774468547240108e-03 
3.0101537381463181e+00 1.3331273617140282e-04 -3.4726752570946651e-02 
3.0221398778183541e+00 1.3382715260429562e-04 -3.5042754411196794e-02 
4.7188907007928760e-01 2.0399590624719914e-05 -5.3190364038451614e-03 
0.0000000000000000e+00 0.0000000000000000e+00 0.0000000000000000e+00 
0.0000000000000000e+00 0.0000000000000000e+00 0.0000000000000000e+00 
0.0000000000000000e+00 0.0000000000000000e+00 0.0000000000000000e+00 
0.0000000000000000e+00 0.0000000000000000e+00 0.0000000000000000e+00 
0.0000000000000000e+00 0.0000000000000000e+00 0.0000000000000000e+00 
0.0000000000000000e+00 0.0000000000000000e+00 0.0000000000000000e+00 
4.4500651099253258e-01 9.4135066459117082e-06 -7.6491261706509890e-03 
1.3089916240533366e+00 2.7641776833018365e-05 -2.3894771471757989e-02 
1.3060393089949274e+00 2.7581030277187084e-05 -2.3758658319333093e-02 
4.4026898202809694e-01 9.3128955330138236e-06 -7.5396800917376617e-03 
0.0000000000000000e+00 0.0000000000000000e+00 0.0000000000000000e+00 
0.0000000000000000e+00 0.0000000000000000e+00 0.0000000000000000e+00 
0.0000000000000000e+00 0.0000000000000000e+00 0.0000000000000000e+00 
0.0000000000000000e+00 0.0000000000000000e+00 0.0000000000000000e+00 
0.0000000000000000e+00 0.0000000000000000e+00 0.0000000000000000e+00 
0.0000000000000000e+00 0.0000000000000000e+00 0.0000000000000000e+00 

