# vtk DataFile Version 2.0

ASCII

DATASET UNSTRUCTURED_GRID

POINTS 58 float 

5.0000000000000003e-02  0.0000000000000000e+00  1.0000000000000000e+00
-5.0000000000000003e-02  0.0000000000000000e+00  1.0000000000000000e+00
-5.0000000000000003e-02  2.9999999999999999e-01  1.0000000000000000e+00
5.0000000000000003e-02  2.9999999999999999e-01  1.0000000000000000e+00
5.0000000000000003e-02  0.0000000000000000e+00  8.0000000000000004e-01
-5.0000000000000003e-02  0.0000000000000000e+00  8.0000000000000004e-01
-5.0000000000000003e-02  2.9999999999999999e-01  8.0000000000000004e-01
5.0000000000000003e-02  2.9999999999999999e-01  8.0000000000000004e-01
0.0000000000000000e+00  0.0000000000000000e+00  1.0000000000000000e+00
-5.0000000000000003e-02  1.4999999999999999e-01  1.0000000000000000e+00
0.0000000000000000e+00  2.9999999999999999e-01  1.0000000000000000e+00
5.0000000000000003e-02  1.4999999999999999e-01  1.0000000000000000e+00
5.0000000000000003e-02  0.0000000000000000e+00  9.0000000000000002e-01
-5.0000000000000003e-02  0.0000000000000000e+00  9.0000000000000002e-01
-5.0000000000000003e-02  2.9999999999999999e-01  9.0000000000000002e-01
5.0000000000000003e-02  2.9999999999999999e-01  9.0000000000000002e-01
-5.0000000000000003e-02  1.4999999999999999e-01  8.0000000000000004e-01
5.0000000000000003e-02  1.4999999999999999e-01  8.0000000000000004e-01
5.0000000000000003e-02  0.0000000000000000e+00  5.9999999999999998e-01
-5.0000000000000003e-02  0.0000000000000000e+00  5.9999999999999998e-01
-5.0000000000000003e-02  2.9999999999999999e-01  5.9999999999999998e-01
5.0000000000000003e-02  2.9999999999999999e-01  5.9999999999999998e-01
5.0000000000000003e-02  0.0000000000000000e+00  6.9999999999999996e-01
-5.0000000000000003e-02  0.0000000000000000e+00  6.9999999999999996e-01
-5.0000000000000003e-02  2.9999999999999999e-01  6.9999999999999996e-01
5.0000000000000003e-02  2.9999999999999999e-01  6.9999999999999996e-01
-5.0000000000000003e-02  1.4999999999999999e-01  5.9999999999999998e-01
5.0000000000000003e-02  1.4999999999999999e-01  5.9999999999999998e-01
5.0000000000000003e-02  0.0000000000000000e+00  4.0000000000000002e-01
-5.0000000000000003e-02  0.0000000000000000e+00  4.0000000000000002e-01
-5.0000000000000003e-02  2.9999999999999999e-01  4.0000000000000002e-01
5.0000000000000003e-02  2.9999999999999999e-01  4.0000000000000002e-01
5.0000000000000003e-02  0.0000000000000000e+00  5.0000000000000000e-01
-5.0000000000000003e-02  0.0000000000000000e+00  5.0000000000000000e-01
-5.0000000000000003e-02  2.9999999999999999e-01  5.0000000000000000e-01
5.0000000000000003e-02  2.9999999999999999e-01  5.0000000000000000e-01
-5.0000000000000003e-02  1.4999999999999999e-01  4.0000000000000002e-01
5.0000000000000003e-02  1.4999999999999999e-01  4.0000000000000002e-01
5.0000000000000003e-02  0.0000000000000000e+00  2.0000000000000001e-01
-5.0000000000000003e-02  0.0000000000000000e+00  2.0000000000000001e-01
-5.0000000000000003e-02  2.9999999999999999e-01  2.0000000000000001e-01
5.0000000000000003e-02  2.9999999999999999e-01  2.0000000000000001e-01
5.0000000000000003e-02  0.0000000000000000e+00  2.9999999999999999e-01
-5.0000000000000003e-02  0.0000000000000000e+00  2.9999999999999999e-01
-5.0000000000000003e-02  2.9999999999999999e-01  2.9999999999999999e-01
5.0000000000000003e-02  2.9999999999999999e-01  2.9999999999999999e-01
-5.0000000000000003e-02  1.4999999999999999e-01  2.0000000000000001e-01
5.0000000000000003e-02  1.4999999999999999e-01  2.0000000000000001e-01
5.0000000000000003e-02  0.0000000000000000e+00  0.0000000000000000e+00
-5.0000000000000003e-02  0.0000000000000000e+00  0.0000000000000000e+00
-5.0000000000000003e-02  2.9999999999999999e-01  0.0000000000000000e+00
5.0000000000000003e-02  2.9999999999999999e-01  0.0000000000000000e+00
5.0000000000000003e-02  0.0000000000000000e+00  1.0000000000000001e-01
-5.0000000000000003e-02  0.0000000000000000e+00  1.0000000000000001e-01
-5.0000000000000003e-02  2.9999999999999999e-01  1.0000000000000001e-01
5.0000000000000003e-02  2.9999999999999999e-01  1.0000000000000001e-01
-5.0000000000000003e-02  1.4999999999999999e-01  0.0000000000000000e+00
5.0000000000000003e-02  1.4999999999999999e-01  0.0000000000000000e+00

CELLS 0 0


CELL_TYPES 0


POINT_DATA 58

VECTORS VertexNormals float

0.0000000000000000e+00 0.0000000000000000e+00 0.0000000000000000e+00 
0.0000000000000000e+00 0.0000000000000000e+00 0.0000000000000000e+00 
0.0000000000000000e+00 0.0000000000000000e+00 0.0000000000000000e+00 
0.0000000000000000e+00 0.0000000000000000e+00 0.0000000000000000e+00 
0.0000000000000000e+00 0.0000000000000000e+00 0.0000000000000000e+00 
0.0000000000000000e+00 0.0000000000000000e+00 0.0000000000000000e+00 
0.0000000000000000e+00 0.0000000000000000e+00 0.0000000000000000e+00 
0.0000000000000000e+00 0.0000000000000000e+00 0.0000000000000000e+00 
0.0000000000000000e+00 0.0000000000000000e+00 0.0000000000000000e+00 
0.0000000000000000e+00 0.0000000000000000e+00 0.0000000000000000e+00 
0.0000000000000000e+00 0.0000000000000000e+00 0.0000000000000000e+00 
0.0000000000000000e+00 0.0000000000000000e+00 0.0000000000000000e+00 
0.0000000000000000e+00 0.0000000000000000e+00 0.0000000000000000e+00 
0.0000000000000000e+00 0.0000000000000000e+00 0.0000000000000000e+00 
0.0000000000000000e+00 0.0000000000000000e+00 0.0000000000000000e+00 
0.0000000000000000e+00 0.0000000000000000e+00 0.0000000000000000e+00 
0.0000000000000000e+00 0.0000000000000000e+00 0.0000000000000000e+00 
0.0000000000000000e+00 0.0000000000000000e+00 0.0000000000000000e+00 
0.0000000000000000e+00 0.0000000000000000e+00 0.0000000000000000e+00 
0.0000000000000000e+00 0.0000000000000000e+00 0.0000000000000000e+00 
0.0000000000000000e+00 0.0000000000000000e+00 0.0000000000000000e+00 
0.0000000000000000e+00 0.0000000000000000e+00 0.0000000000000000e+00 
0.0000000000000000e+00 0.0000000000000000e+00 0.0000000000000000e+00 
0.0000000000000000e+00 0.0000000000000000e+00 0.0000000000000000e+00 
0.0000000000000000e+00 0.0000000000000000e+00 0.0000000000000000e+00 
0.0000000000000000e+00 0.0000000000000000e+00 0.0000000000000000e+00 
0.0000000000000000e+00 0.0000000000000000e+00 0.0000000000000000e+00 
0.0000000000000000e+00 0.0000000000000000e+00 0.0000000000000000e+00 
0.0000000000000000e+00 0.0000000000000000e+00 0.0000000000000000e+00 
0.0000000000000000e+00 0.0000000000000000e+00 0.0000000000000000e+00 
0.0000000000000000e+00 0.0000000000000000e+00 0.0000000000000000e+00 
0.0000000000000000e+00 0.0000000000000000e+00 0.0000000000000000e+00 
0.0000000000000000e+00 0.0000000000000000e+00 0.0000000000000000e+00 
0.0000000000000000e+00 0.0000000000000000e+00 0.0000000000000000e+00 
0.0000000000000000e+00 0.0000000000000000e+00 0.0000000000000000e+00 
0.0000000000000000e+00 0.0000000000000000e+00 0.0000000000000000e+00 
0.0000000000000000e+00 0.0000000000000000e+00 0.0000000000000000e+00 
0.0000000000000000e+00 0.0000000000000000e+00 0.0000000000000000e+00 
0.0000000000000000e+00 0.0000000000000000e+00 0.0000000000000000e+00 
0.0000000000000000e+00 0.0000000000000000e+00 0.0000000000000000e+00 
0.0000000000000000e+00 0.0000000000000000e+00 0.0000000000000000e+00 
0.0000000000000000e+00 0.0000000000000000e+00 0.0000000000000000e+00 
0.0000000000000000e+00 0.0000000000000000e+00 0.0000000000000000e+00 
0.0000000000000000e+00 0.0000000000000000e+00 0.0000000000000000e+00 
0.0000000000000000e+00 0.0000000000000000e+00 0.0000000000000000e+00 
0.0000000000000000e+00 0.0000000000000000e+00 0.0000000000000000e+00 
0.0000000000000000e+00 0.0000000000000000e+00 0.0000000000000000e+00 
0.0000000000000000e+00 0.0000000000000000e+00 0.0000000000000000e+00 
0.0000000000000000e+00 0.0000000000000000e+00 0.0000000000000000e+00 
0.0000000000000000e+00 0.0000000000000000e+00 0.0000000000000000e+00 
0.0000000000000000e+00 0.0000000000000000e+00 0.0000000000000000e+00 
0.0000000000000000e+00 0.0000000000000000e+00 0.0000000000000000e+00 
0.0000000000000000e+00 0.0000000000000000e+00 0.0000000000000000e+00 
0.0000000000000000e+00 0.0000000000000000e+00 0.0000000000000000e+00 
0.0000000000000000e+00 0.0000000000000000e+00 0.0000000000000000e+00 
0.0000000000000000e+00 0.0000000000000000e+00 0.0000000000000000e+00 
0.0000000000000000e+00 0.0000000000000000e+00 0.0000000000000000e+00 
0.0000000000000000e+00 0.0000000000000000e+00 0.0000000000000000e+00 

VECTORS DisplacementDeltas0 float
-3.5128067419312629e-318 0.0000000000000000e+00 0.0000000000000000e+00 
-3.1105094886290652e-02 0.0000000000000000e+00 -7.2817307654960250e-02 
-2.9469393715007342e-02 0.0000000000000000e+00 -7.1789317508702655e-02 
-2.8618945423259823e-02 0.0000000000000000e+00 -6.4574655244629908e-02 
-1.0610297947736769e-02 0.0000000000000000e+00 -6.7360659139611645e-02 
-1.1245210153000618e-02 0.0000000000000000e+00 -7.5761021640413817e-02 
-1.1621346582450343e-02 0.0000000000000000e+00 -7.5972412651736709e-02 
-1.1100204776381101e-02 0.0000000000000000e+00 -6.6706484193762960e-02 
-3.0279962953148082e-02 0.0000000000000000e+00 -6.7776500162099851e-02 
-3.0151343059570263e-02 0.0000000000000000e+00 -7.2110092239666634e-02 
-2.9098674479103054e-02 0.0000000000000000e+00 -6.8235783854491527e-02 
-2.8833694739026472e-02 0.0000000000000000e+00 -6.3515384545522302e-02 
-1.9854205404150810e-02 0.0000000000000000e+00 -6.5366490318611359e-02 
-2.1218922307783938e-02 0.0000000000000000e+00 -7.3793744172675368e-02 
-2.1345954787211407e-02 0.0000000000000000e+00 -7.3617734369409216e-02 
-2.0207770792206287e-02 0.0000000000000000e+00 -6.5585975277648367e-02 
-1.1231903305328417e-02 0.0000000000000000e+00 -7.5952602770588018e-02 
-1.0707877681528061e-02 0.0000000000000000e+00 -6.7306823426011908e-02 
1.3498637364938823e-02 0.0000000000000000e+00 -6.2472529563503978e-02 
1.9785634096832289e-02 0.0000000000000000e+00 -7.4350239805422019e-02 
2.0053860675337959e-02 0.0000000000000000e+00 -7.4108016656658171e-02 
1.3692051265993363e-02 0.0000000000000000e+00 -6.2224792509989107e-02 
8.6989925140160129e-04 0.0000000000000000e+00 -6.6646005942675113e-02 
2.3019595965244333e-03 0.0000000000000000e+00 -7.7665249834458300e-02 
2.2451576744696999e-03 0.0000000000000000e+00 -7.7646783470428277e-02 
5.8540740949639125e-04 0.0000000000000000e+00 -6.6144374604606010e-02 
1.9936024107368888e-02 0.0000000000000000e+00 -7.3924005397770720e-02 
1.2880423577890557e-02 0.0000000000000000e+00 -6.2383552555040370e-02 
3.0003930693333021e-02 0.0000000000000000e+00 -3.8550218747294210e-02 
4.4352755100727934e-02 0.0000000000000000e+00 -3.5942130986176671e-02 
4.4354492288717795e-02 0.0000000000000000e+00 -3.5888594790173263e-02 
2.9898764591414689e-02 0.0000000000000000e+00 -3.8298515704670272e-02 
2.3260186406195441e-02 0.0000000000000000e+00 -5.2129678953367266e-02 
3.7329811516012626e-02 0.0000000000000000e+00 -5.9627951448286184e-02 
3.7434669036567544e-02 0.0000000000000000e+00 -5.9300897276772235e-02 
2.3372169151133659e-02 0.0000000000000000e+00 -5.2010248584226156e-02 
4.4141954031050291e-02 0.0000000000000000e+00 -3.6398614390011616e-02 
2.9607536084124760e-02 0.0000000000000000e+00 -3.8969499040057073e-02 
2.2047361499506236e-02 0.0000000000000000e+00 -1.5342135950422836e-02 
2.5542830685183399e-02 0.0000000000000000e+00 -5.4657685934756776e-03 
2.5502712057389351e-02 0.0000000000000000e+00 -5.5104261615139642e-03 
2.2068485750678334e-02 0.0000000000000000e+00 -1.5395865575642282e-02 
2.8552803614102885e-02 0.0000000000000000e+00 -2.6127306337395826e-02 
3.7545317866724423e-02 0.0000000000000000e+00 -1.6841167420361562e-02 
3.7402513437795867e-02 0.0000000000000000e+00 -1.6794681634653343e-02 
2.8430968284027129e-02 0.0000000000000000e+00 -2.6100116864629874e-02 
2.5570177920383637e-02 0.0000000000000000e+00 -5.5569243984250408e-03 
2.2619375239476089e-02 0.0000000000000000e+00 -1.5967577410348658e-02 
0.0000000000000000e+00 0.0000000000000000e+00 0.0000000000000000e+00 
0.0000000000000000e+00 0.0000000000000000e+00 0.0000000000000000e+00 
0.0000000000000000e+00 0.0000000000000000e+00 0.0000000000000000e+00 
0.0000000000000000e+00 0.0000000000000000e+00 0.0000000000000000e+00 
1.1258611396175559e-02 0.0000000000000000e+00 -8.2842796873697673e-03 
1.1026086261195110e-02 0.0000000000000000e+00 4.3637848966876502e-04 
1.1025825434179910e-02 0.0000000000000000e+00 3.9707749263628161e-04 
1.1254504939269584e-02 0.0000000000000000e+00 -8.1926974068480783e-03 
0.0000000000000000e+00 0.0000000000000000e+00 0.0000000000000000e+00 
0.0000000000000000e+00 0.0000000000000000e+00 0.0000000000000000e+00 

VECTORS Forces0 float
-1.6098849515600547e-01 -3.0892510066866781e-02 -5.2984564424868361e-02 
1.8296916308313090e+01 2.2183923860454819e+00 9.3613048296193107e+00 
2.4841995394249459e+00 2.7525775822380685e+00 5.9093890105125091e+00 
4.0469063416434938e+00 8.2985660565311359e-01 1.3463222338557979e+00 
4.7996901511888588e+00 7.3612151153762395e-01 2.2618697356473580e+00 
-1.2620546105947367e+01 1.5865113427814764e-01 -8.8769740878750480e-01 
-6.4876217442492186e+00 8.1760700580302659e-02 -4.7304029873462172e-01 
-7.6239308337849432e-01 4.8930990236458755e-01 4.2795911003190262e-01 
0.0000000000000000e+00 0.0000000000000000e+00 0.0000000000000000e+00 
0.0000000000000000e+00 0.0000000000000000e+00 0.0000000000000000e+00 
0.0000000000000000e+00 0.0000000000000000e+00 0.0000000000000000e+00 
0.0000000000000000e+00 0.0000000000000000e+00 0.0000000000000000e+00 
0.0000000000000000e+00 0.0000000000000000e+00 0.0000000000000000e+00 
0.0000000000000000e+00 0.0000000000000000e+00 0.0000000000000000e+00 
0.0000000000000000e+00 0.0000000000000000e+00 0.0000000000000000e+00 
0.0000000000000000e+00 0.0000000000000000e+00 0.0000000000000000e+00 
0.0000000000000000e+00 0.0000000000000000e+00 0.0000000000000000e+00 
0.0000000000000000e+00 0.0000000000000000e+00 0.0000000000000000e+00 
1.6020988614445745e+01 -7.6415472166943596e-02 1.0470489473027301e+01 
1.6196365568497684e-01 -1.2776908437904029e-03 1.2542015915576121e-01 
1.9304056388644155e+00 -1.5417530619059084e-02 1.5190308569990549e+00 
1.7205831280016756e+01 -8.2902175310021003e-02 1.1409491269401849e+01 
0.0000000000000000e+00 0.0000000000000000e+00 0.0000000000000000e+00 
0.0000000000000000e+00 0.0000000000000000e+00 0.0000000000000000e+00 
0.0000000000000000e+00 0.0000000000000000e+00 0.0000000000000000e+00 
0.0000000000000000e+00 0.0000000000000000e+00 0.0000000000000000e+00 
0.0000000000000000e+00 0.0000000000000000e+00 0.0000000000000000e+00 
0.0000000000000000e+00 0.0000000000000000e+00 0.0000000000000000e+00 
-1.9137121171566061e+00 -6.3406316165811587e-03 1.1640160408108931e+01 
-9.5456480184574610e-01 -7.9339609449319837e-03 6.9340252022746238e+00 
-9.4092324946271177e-01 -7.6957929413454078e-03 6.7137061528498574e+00 
-1.8513260812457455e+00 -6.0387074302843159e-03 1.1084400309338196e+01 
0.0000000000000000e+00 0.0000000000000000e+00 0.0000000000000000e+00 
0.0000000000000000e+00 0.0000000000000000e+00 0.0000000000000000e+00 
0.0000000000000000e+00 0.0000000000000000e+00 0.0000000000000000e+00 
0.0000000000000000e+00 0.0000000000000000e+00 0.0000000000000000e+00 
0.0000000000000000e+00 0.0000000000000000e+00 0.0000000000000000e+00 
0.0000000000000000e+00 0.0000000000000000e+00 0.0000000000000000e+00 
-1.4085242482751728e+01 3.2944659288874057e-03 6.3087676308190428e+00 
3.0757735546077822e+00 -2.5059822609029811e-04 -1.7233958669147984e+00 
3.4038595130509757e+00 -2.7709745912662628e-04 -1.9059824616954675e+00 
-1.4151507815112932e+01 3.3097429406143295e-03 6.3377786904537334e+00 
0.0000000000000000e+00 0.0000000000000000e+00 0.0000000000000000e+00 
0.0000000000000000e+00 0.0000000000000000e+00 0.0000000000000000e+00 
0.0000000000000000e+00 0.0000000000000000e+00 0.0000000000000000e+00 
0.0000000000000000e+00 0.0000000000000000e+00 0.0000000000000000e+00 
0.0000000000000000e+00 0.0000000000000000e+00 0.0000000000000000e+00 
0.0000000000000000e+00 0.0000000000000000e+00 0.0000000000000000e+00 
-7.5352062184476845e+00 4.6816151311648174e-04 8.5832372411724200e-01 
2.1748735685310359e+00 -9.5107009951566287e-05 -3.7072505894705676e-01 
2.1333629039458044e+00 -9.3303127407315896e-05 -3.6387829314297321e-01 
-7.5464323821031947e+00 4.6892041443542137e-04 8.6094376714463972e-01 
0.0000000000000000e+00 0.0000000000000000e+00 0.0000000000000000e+00 
0.0000000000000000e+00 0.0000000000000000e+00 0.0000000000000000e+00 
0.0000000000000000e+00 0.0000000000000000e+00 0.0000000000000000e+00 
0.0000000000000000e+00 0.0000000000000000e+00 0.0000000000000000e+00 
0.0000000000000000e+00 0.0000000000000000e+00 0.0000000000000000e+00 
0.0000000000000000e+00 0.0000000000000000e+00 0.0000000000000000e+00 

