# vtk DataFile Version 2.0

ASCII

DATASET UNSTRUCTURED_GRID

POINTS 58 float 

5.0000000000000003e-02  0.0000000000000000e+00  1.0000000000000000e+00
-5.0000000000000003e-02  0.0000000000000000e+00  1.0000000000000000e+00
-5.0000000000000003e-02  2.9999999999999999e-01  1.0000000000000000e+00
5.0000000000000003e-02  2.9999999999999999e-01  1.0000000000000000e+00
5.0000000000000003e-02  0.0000000000000000e+00  8.0000000000000004e-01
-5.0000000000000003e-02  0.0000000000000000e+00  8.0000000000000004e-01
-5.0000000000000003e-02  2.9999999999999999e-01  8.0000000000000004e-01
5.0000000000000003e-02  2.9999999999999999e-01  8.0000000000000004e-01
0.0000000000000000e+00  0.0000000000000000e+00  1.0000000000000000e+00
-5.0000000000000003e-02  1.4999999999999999e-01  1.0000000000000000e+00
0.0000000000000000e+00  2.9999999999999999e-01  1.0000000000000000e+00
5.0000000000000003e-02  1.4999999999999999e-01  1.0000000000000000e+00
5.0000000000000003e-02  0.0000000000000000e+00  9.0000000000000002e-01
-5.0000000000000003e-02  0.0000000000000000e+00  9.0000000000000002e-01
-5.0000000000000003e-02  2.9999999999999999e-01  9.0000000000000002e-01
5.0000000000000003e-02  2.9999999999999999e-01  9.0000000000000002e-01
-5.0000000000000003e-02  1.4999999999999999e-01  8.0000000000000004e-01
5.0000000000000003e-02  1.4999999999999999e-01  8.0000000000000004e-01
5.0000000000000003e-02  0.0000000000000000e+00  5.9999999999999998e-01
-5.0000000000000003e-02  0.0000000000000000e+00  5.9999999999999998e-01
-5.0000000000000003e-02  2.9999999999999999e-01  5.9999999999999998e-01
5.0000000000000003e-02  2.9999999999999999e-01  5.9999999999999998e-01
5.0000000000000003e-02  0.0000000000000000e+00  6.9999999999999996e-01
-5.0000000000000003e-02  0.0000000000000000e+00  6.9999999999999996e-01
-5.0000000000000003e-02  2.9999999999999999e-01  6.9999999999999996e-01
5.0000000000000003e-02  2.9999999999999999e-01  6.9999999999999996e-01
-5.0000000000000003e-02  1.4999999999999999e-01  5.9999999999999998e-01
5.0000000000000003e-02  1.4999999999999999e-01  5.9999999999999998e-01
5.0000000000000003e-02  0.0000000000000000e+00  4.0000000000000002e-01
-5.0000000000000003e-02  0.0000000000000000e+00  4.0000000000000002e-01
-5.0000000000000003e-02  2.9999999999999999e-01  4.0000000000000002e-01
5.0000000000000003e-02  2.9999999999999999e-01  4.0000000000000002e-01
5.0000000000000003e-02  0.0000000000000000e+00  5.0000000000000000e-01
-5.0000000000000003e-02  0.0000000000000000e+00  5.0000000000000000e-01
-5.0000000000000003e-02  2.9999999999999999e-01  5.0000000000000000e-01
5.0000000000000003e-02  2.9999999999999999e-01  5.0000000000000000e-01
-5.0000000000000003e-02  1.4999999999999999e-01  4.0000000000000002e-01
5.0000000000000003e-02  1.4999999999999999e-01  4.0000000000000002e-01
5.0000000000000003e-02  0.0000000000000000e+00  2.0000000000000001e-01
-5.0000000000000003e-02  0.0000000000000000e+00  2.0000000000000001e-01
-5.0000000000000003e-02  2.9999999999999999e-01  2.0000000000000001e-01
5.0000000000000003e-02  2.9999999999999999e-01  2.0000000000000001e-01
5.0000000000000003e-02  0.0000000000000000e+00  2.9999999999999999e-01
-5.0000000000000003e-02  0.0000000000000000e+00  2.9999999999999999e-01
-5.0000000000000003e-02  2.9999999999999999e-01  2.9999999999999999e-01
5.0000000000000003e-02  2.9999999999999999e-01  2.9999999999999999e-01
-5.0000000000000003e-02  1.4999999999999999e-01  2.0000000000000001e-01
5.0000000000000003e-02  1.4999999999999999e-01  2.0000000000000001e-01
5.0000000000000003e-02  0.0000000000000000e+00  0.0000000000000000e+00
-5.0000000000000003e-02  0.0000000000000000e+00  0.0000000000000000e+00
-5.0000000000000003e-02  2.9999999999999999e-01  0.0000000000000000e+00
5.0000000000000003e-02  2.9999999999999999e-01  0.0000000000000000e+00
5.0000000000000003e-02  0.0000000000000000e+00  1.0000000000000001e-01
-5.0000000000000003e-02  0.0000000000000000e+00  1.0000000000000001e-01
-5.0000000000000003e-02  2.9999999999999999e-01  1.0000000000000001e-01
5.0000000000000003e-02  2.9999999999999999e-01  1.0000000000000001e-01
-5.0000000000000003e-02  1.4999999999999999e-01  0.0000000000000000e+00
5.0000000000000003e-02  1.4999999999999999e-01  0.0000000000000000e+00

CELLS 0 0


CELL_TYPES 0


POINT_DATA 58

VECTORS VertexNormals float

0.0000000000000000e+00 0.0000000000000000e+00 0.0000000000000000e+00 
0.0000000000000000e+00 0.0000000000000000e+00 0.0000000000000000e+00 
0.0000000000000000e+00 0.0000000000000000e+00 0.0000000000000000e+00 
0.0000000000000000e+00 0.0000000000000000e+00 0.0000000000000000e+00 
0.0000000000000000e+00 0.0000000000000000e+00 0.0000000000000000e+00 
0.0000000000000000e+00 0.0000000000000000e+00 0.0000000000000000e+00 
0.0000000000000000e+00 0.0000000000000000e+00 0.0000000000000000e+00 
0.0000000000000000e+00 0.0000000000000000e+00 0.0000000000000000e+00 
0.0000000000000000e+00 0.0000000000000000e+00 0.0000000000000000e+00 
0.0000000000000000e+00 0.0000000000000000e+00 0.0000000000000000e+00 
0.0000000000000000e+00 0.0000000000000000e+00 0.0000000000000000e+00 
0.0000000000000000e+00 0.0000000000000000e+00 0.0000000000000000e+00 
0.0000000000000000e+00 0.0000000000000000e+00 0.0000000000000000e+00 
0.0000000000000000e+00 0.0000000000000000e+00 0.0000000000000000e+00 
0.0000000000000000e+00 0.0000000000000000e+00 0.0000000000000000e+00 
0.0000000000000000e+00 0.0000000000000000e+00 0.0000000000000000e+00 
0.0000000000000000e+00 0.0000000000000000e+00 0.0000000000000000e+00 
0.0000000000000000e+00 0.0000000000000000e+00 0.0000000000000000e+00 
0.0000000000000000e+00 0.0000000000000000e+00 0.0000000000000000e+00 
0.0000000000000000e+00 0.0000000000000000e+00 0.0000000000000000e+00 
0.0000000000000000e+00 0.0000000000000000e+00 0.0000000000000000e+00 
0.0000000000000000e+00 0.0000000000000000e+00 0.0000000000000000e+00 
0.0000000000000000e+00 0.0000000000000000e+00 0.0000000000000000e+00 
0.0000000000000000e+00 0.0000000000000000e+00 0.0000000000000000e+00 
0.0000000000000000e+00 0.0000000000000000e+00 0.0000000000000000e+00 
0.0000000000000000e+00 0.0000000000000000e+00 0.0000000000000000e+00 
0.0000000000000000e+00 0.0000000000000000e+00 0.0000000000000000e+00 
0.0000000000000000e+00 0.0000000000000000e+00 0.0000000000000000e+00 
0.0000000000000000e+00 0.0000000000000000e+00 0.0000000000000000e+00 
0.0000000000000000e+00 0.0000000000000000e+00 0.0000000000000000e+00 
0.0000000000000000e+00 0.0000000000000000e+00 0.0000000000000000e+00 
0.0000000000000000e+00 0.0000000000000000e+00 0.0000000000000000e+00 
0.0000000000000000e+00 0.0000000000000000e+00 0.0000000000000000e+00 
0.0000000000000000e+00 0.0000000000000000e+00 0.0000000000000000e+00 
0.0000000000000000e+00 0.0000000000000000e+00 0.0000000000000000e+00 
0.0000000000000000e+00 0.0000000000000000e+00 0.0000000000000000e+00 
0.0000000000000000e+00 0.0000000000000000e+00 0.0000000000000000e+00 
0.0000000000000000e+00 0.0000000000000000e+00 0.0000000000000000e+00 
0.0000000000000000e+00 0.0000000000000000e+00 0.0000000000000000e+00 
0.0000000000000000e+00 0.0000000000000000e+00 0.0000000000000000e+00 
0.0000000000000000e+00 0.0000000000000000e+00 0.0000000000000000e+00 
0.0000000000000000e+00 0.0000000000000000e+00 0.0000000000000000e+00 
0.0000000000000000e+00 0.0000000000000000e+00 0.0000000000000000e+00 
0.0000000000000000e+00 0.0000000000000000e+00 0.0000000000000000e+00 
0.0000000000000000e+00 0.0000000000000000e+00 0.0000000000000000e+00 
0.0000000000000000e+00 0.0000000000000000e+00 0.0000000000000000e+00 
0.0000000000000000e+00 0.0000000000000000e+00 0.0000000000000000e+00 
0.0000000000000000e+00 0.0000000000000000e+00 0.0000000000000000e+00 
0.0000000000000000e+00 0.0000000000000000e+00 0.0000000000000000e+00 
0.0000000000000000e+00 0.0000000000000000e+00 0.0000000000000000e+00 
0.0000000000000000e+00 0.0000000000000000e+00 0.0000000000000000e+00 
0.0000000000000000e+00 0.0000000000000000e+00 0.0000000000000000e+00 
0.0000000000000000e+00 0.0000000000000000e+00 0.0000000000000000e+00 
0.0000000000000000e+00 0.0000000000000000e+00 0.0000000000000000e+00 
0.0000000000000000e+00 0.0000000000000000e+00 0.0000000000000000e+00 
0.0000000000000000e+00 0.0000000000000000e+00 0.0000000000000000e+00 
0.0000000000000000e+00 0.0000000000000000e+00 0.0000000000000000e+00 
0.0000000000000000e+00 0.0000000000000000e+00 0.0000000000000000e+00 

VECTORS DisplacementDeltas0 float
0.0000000000000000e+00 0.0000000000000000e+00 0.0000000000000000e+00 
5.3526862212545621e-03 0.0000000000000000e+00 8.2861539890630035e-04 
4.7453311310727934e-03 0.0000000000000000e+00 5.6416978414691450e-04 
4.5384026102520559e-03 0.0000000000000000e+00 -9.9461942505264843e-04 
1.8297230307312866e-03 0.0000000000000000e+00 -1.1500885342993093e-03 
1.7935328041255914e-03 0.0000000000000000e+00 8.0246929138889196e-04 
1.7641369021485476e-03 0.0000000000000000e+00 7.8762372073103149e-04 
1.7071045981807119e-03 0.0000000000000000e+00 -1.1361729285536526e-03 
4.7739997510291904e-03 0.0000000000000000e+00 -4.1087744491547765e-05 
5.1090183926512560e-03 0.0000000000000000e+00 3.3215647650617665e-04 
4.6689555430504091e-03 0.0000000000000000e+00 -1.7784630438769566e-05 
4.8056514959153350e-03 0.0000000000000000e+00 -1.0510201911542857e-03 
3.4465678551476343e-03 0.0000000000000000e+00 -1.0974765114572080e-03 
3.5811891359682347e-03 0.0000000000000000e+00 8.0225517990813568e-04 
3.2886978721997856e-03 0.0000000000000000e+00 8.8184603624544364e-04 
3.3254210915588888e-03 0.0000000000000000e+00 -1.2807730826079335e-03 
1.8542818939051423e-03 0.0000000000000000e+00 5.6763931778534729e-04 
2.0071423647799250e-03 0.0000000000000000e+00 -7.6135021906335995e-04 
1.6685755140318826e-04 0.0000000000000000e+00 -8.5206373409244142e-05 
1.3624828743637565e-04 0.0000000000000000e+00 -1.4431626366943277e-04 
1.4841563172119407e-04 0.0000000000000000e+00 -1.6856125891778870e-04 
2.4561499190206809e-04 0.0000000000000000e+00 -1.4084082467762823e-04 
7.0858822097282892e-04 0.0000000000000000e+00 -4.6903970798070215e-04 
8.3220429292028386e-04 0.0000000000000000e+00 4.0944487631943294e-04 
7.8816957536298536e-04 0.0000000000000000e+00 2.4651803289182114e-04 
6.6579967266919770e-04 0.0000000000000000e+00 -3.5777607806489859e-04 
1.4306329760654474e-04 0.0000000000000000e+00 1.3001480642983881e-04 
1.5060329360274473e-04 0.0000000000000000e+00 -1.3975280215208210e-04 
4.6719492369689804e-04 0.0000000000000000e+00 1.1145151350381477e-04 
4.0774275984316994e-04 0.0000000000000000e+00 7.2146462596166068e-05 
3.5335122057082594e-04 0.0000000000000000e+00 2.8244260723159550e-05 
4.2963713919534402e-04 0.0000000000000000e+00 1.0991049677237645e-04 
3.3159452782923501e-04 0.0000000000000000e+00 1.3763216943511879e-04 
1.7916997662864012e-04 0.0000000000000000e+00 -1.2007374697414432e-04 
1.9412569155643708e-04 0.0000000000000000e+00 -5.8560461723312777e-05 
3.2030260057024985e-04 0.0000000000000000e+00 1.0569537241670251e-04 
5.8979081699256125e-04 0.0000000000000000e+00 -5.6197545986432163e-06 
5.3656729767927126e-04 0.0000000000000000e+00 1.0854867104781563e-04 
2.5739472073806275e-04 0.0000000000000000e+00 8.0379849328825962e-05 
3.2610052399373237e-04 0.0000000000000000e+00 2.9303096586068657e-04 
3.4317881341734018e-04 0.0000000000000000e+00 3.1871946410524682e-04 
2.4375364173981860e-04 0.0000000000000000e+00 8.4969916933556893e-05 
4.5960236696303129e-04 0.0000000000000000e+00 8.3116510311896102e-05 
3.6443061394127564e-04 0.0000000000000000e+00 2.0317931197298038e-04 
3.7727124788540056e-04 0.0000000000000000e+00 2.2342079762336758e-04 
4.8848827368751365e-04 0.0000000000000000e+00 1.2615387753667958e-04 
2.8486597759942256e-04 0.0000000000000000e+00 2.8760820203455495e-04 
2.3530322992421169e-04 0.0000000000000000e+00 2.3229704658556214e-05 
0.0000000000000000e+00 0.0000000000000000e+00 0.0000000000000000e+00 
0.0000000000000000e+00 0.0000000000000000e+00 0.0000000000000000e+00 
0.0000000000000000e+00 0.0000000000000000e+00 0.0000000000000000e+00 
0.0000000000000000e+00 0.0000000000000000e+00 0.0000000000000000e+00 
5.6948639245374866e-05 0.0000000000000000e+00 4.2979007873228013e-06 
1.1353781727313771e-04 0.0000000000000000e+00 1.6045010725564509e-04 
1.0075197103373497e-04 0.0000000000000000e+00 1.5582530220934227e-04 
4.5680118923344950e-05 0.0000000000000000e+00 -2.1701760196666576e-06 
0.0000000000000000e+00 0.0000000000000000e+00 0.0000000000000000e+00 
0.0000000000000000e+00 0.0000000000000000e+00 0.0000000000000000e+00 

VECTORS Forces0 float
7.5434170265356135e+00 -3.7569052800276587e-01 3.1494487278145313e+00 
-3.3035814536308844e-01 -3.7685264176642771e-04 1.6539744440385215e-01 
-6.9581422451359620e-01 -8.7958094493306282e-04 3.9065685299328606e-01 
7.0606409574809739e+00 -3.5180032780887732e-01 2.9397069174807871e+00 
-7.6513825781730016e-01 5.6849010379757476e-03 6.7613304812348162e-03 
3.2069809752257359e+00 5.2941072525655355e-03 -1.5189264159839824e-01 
3.4231340440519515e+00 5.6525484355956744e-03 -1.6086987230123839e-01 
-6.7583820142517981e-01 5.0231084001585175e-03 2.4212315543514537e-02 
0.0000000000000000e+00 0.0000000000000000e+00 0.0000000000000000e+00 
0.0000000000000000e+00 0.0000000000000000e+00 0.0000000000000000e+00 
0.0000000000000000e+00 0.0000000000000000e+00 0.0000000000000000e+00 
0.0000000000000000e+00 0.0000000000000000e+00 0.0000000000000000e+00 
0.0000000000000000e+00 0.0000000000000000e+00 0.0000000000000000e+00 
0.0000000000000000e+00 0.0000000000000000e+00 0.0000000000000000e+00 
0.0000000000000000e+00 0.0000000000000000e+00 0.0000000000000000e+00 
0.0000000000000000e+00 0.0000000000000000e+00 0.0000000000000000e+00 
0.0000000000000000e+00 0.0000000000000000e+00 0.0000000000000000e+00 
0.0000000000000000e+00 0.0000000000000000e+00 0.0000000000000000e+00 
2.5425540595105378e+00 5.2733047945264112e-04 -2.5497191048972422e-02 
1.4725072011562581e+00 2.9193181873662699e-04 -1.6964390813504426e-02 
1.4384663998991427e+00 2.8493076044747352e-04 -1.5440816450406215e-02 
2.5529283747526366e+00 5.2882882302201833e-04 -2.3509888831424432e-02 
0.0000000000000000e+00 0.0000000000000000e+00 0.0000000000000000e+00 
0.0000000000000000e+00 0.0000000000000000e+00 0.0000000000000000e+00 
0.0000000000000000e+00 0.0000000000000000e+00 0.0000000000000000e+00 
0.0000000000000000e+00 0.0000000000000000e+00 0.0000000000000000e+00 
0.0000000000000000e+00 0.0000000000000000e+00 0.0000000000000000e+00 
0.0000000000000000e+00 0.0000000000000000e+00 0.0000000000000000e+00 
1.8921180272948364e+00 -6.7117272336945124e-05 1.3883356293159423e-03 
1.2916144631673383e+00 -4.3998619609519279e-05 2.1392831024246916e-03 
1.2969195671219651e+00 -4.4176906623015620e-05 2.0831860801932638e-03 
1.8887295163772384e+00 -6.6985172511298483e-05 1.2879502468048287e-03 
0.0000000000000000e+00 0.0000000000000000e+00 0.0000000000000000e+00 
0.0000000000000000e+00 0.0000000000000000e+00 0.0000000000000000e+00 
0.0000000000000000e+00 0.0000000000000000e+00 0.0000000000000000e+00 
0.0000000000000000e+00 0.0000000000000000e+00 0.0000000000000000e+00 
0.0000000000000000e+00 0.0000000000000000e+00 0.0000000000000000e+00 
0.0000000000000000e+00 0.0000000000000000e+00 0.0000000000000000e+00 
1.6727643726604438e+00 7.3291251051113654e-05 -1.0965969298360363e-02 
2.6534274436850085e+00 9.5487668953189774e-05 -1.7499648606133910e-02 
2.6517436838136108e+00 9.5427646519072890e-05 -1.7529100266434599e-02 
1.6732669681253178e+00 7.3314570818894400e-05 -1.0997627173821332e-02 
0.0000000000000000e+00 0.0000000000000000e+00 0.0000000000000000e+00 
0.0000000000000000e+00 0.0000000000000000e+00 0.0000000000000000e+00 
0.0000000000000000e+00 0.0000000000000000e+00 0.0000000000000000e+00 
0.0000000000000000e+00 0.0000000000000000e+00 0.0000000000000000e+00 
0.0000000000000000e+00 0.0000000000000000e+00 0.0000000000000000e+00 
0.0000000000000000e+00 0.0000000000000000e+00 0.0000000000000000e+00 
9.8984390278831336e-01 1.6331178457511562e-05 -1.0537518603863292e-02 
1.0595942036929638e+00 1.4506555997205376e-05 -1.1990019936363764e-02 
1.0599981659415716e+00 1.4512205275660769e-05 -1.1951182098720167e-02 
9.8850723164644383e-01 1.6309376502576118e-05 -1.0474298036391565e-02 
0.0000000000000000e+00 0.0000000000000000e+00 0.0000000000000000e+00 
0.0000000000000000e+00 0.0000000000000000e+00 0.0000000000000000e+00 
0.0000000000000000e+00 0.0000000000000000e+00 0.0000000000000000e+00 
0.0000000000000000e+00 0.0000000000000000e+00 0.0000000000000000e+00 
0.0000000000000000e+00 0.0000000000000000e+00 0.0000000000000000e+00 
0.0000000000000000e+00 0.0000000000000000e+00 0.0000000000000000e+00 

