# vtk DataFile Version 2.0

ASCII

DATASET UNSTRUCTURED_GRID

POINTS 58 double 

5.0000000000000003e-02  0.0000000000000000e+00  1.0000000000000000e+00
-5.0000000000000003e-02  0.0000000000000000e+00  1.0000000000000000e+00
-5.0000000000000003e-02  2.9999999999999999e-01  1.0000000000000000e+00
5.0000000000000003e-02  2.9999999999999999e-01  1.0000000000000000e+00
5.0000000000000003e-02  0.0000000000000000e+00  8.0000000000000004e-01
-5.0000000000000003e-02  0.0000000000000000e+00  8.0000000000000004e-01
-5.0000000000000003e-02  2.9999999999999999e-01  8.0000000000000004e-01
5.0000000000000003e-02  2.9999999999999999e-01  8.0000000000000004e-01
0.0000000000000000e+00  0.0000000000000000e+00  1.0000000000000000e+00
-5.0000000000000003e-02  1.4999999999999999e-01  1.0000000000000000e+00
0.0000000000000000e+00  2.9999999999999999e-01  1.0000000000000000e+00
5.0000000000000003e-02  1.4999999999999999e-01  1.0000000000000000e+00
5.0000000000000003e-02  0.0000000000000000e+00  9.0000000000000002e-01
-5.0000000000000003e-02  0.0000000000000000e+00  9.0000000000000002e-01
-5.0000000000000003e-02  2.9999999999999999e-01  9.0000000000000002e-01
5.0000000000000003e-02  2.9999999999999999e-01  9.0000000000000002e-01
-5.0000000000000003e-02  1.4999999999999999e-01  8.0000000000000004e-01
5.0000000000000003e-02  1.4999999999999999e-01  8.0000000000000004e-01
5.0000000000000003e-02  0.0000000000000000e+00  5.9999999999999998e-01
-5.0000000000000003e-02  0.0000000000000000e+00  5.9999999999999998e-01
-5.0000000000000003e-02  2.9999999999999999e-01  5.9999999999999998e-01
5.0000000000000003e-02  2.9999999999999999e-01  5.9999999999999998e-01
5.0000000000000003e-02  0.0000000000000000e+00  6.9999999999999996e-01
-5.0000000000000003e-02  0.0000000000000000e+00  6.9999999999999996e-01
-5.0000000000000003e-02  2.9999999999999999e-01  6.9999999999999996e-01
5.0000000000000003e-02  2.9999999999999999e-01  6.9999999999999996e-01
-5.0000000000000003e-02  1.4999999999999999e-01  5.9999999999999998e-01
5.0000000000000003e-02  1.4999999999999999e-01  5.9999999999999998e-01
5.0000000000000003e-02  0.0000000000000000e+00  4.0000000000000002e-01
-5.0000000000000003e-02  0.0000000000000000e+00  4.0000000000000002e-01
-5.0000000000000003e-02  2.9999999999999999e-01  4.0000000000000002e-01
5.0000000000000003e-02  2.9999999999999999e-01  4.0000000000000002e-01
5.0000000000000003e-02  0.0000000000000000e+00  5.0000000000000000e-01
-5.0000000000000003e-02  0.0000000000000000e+00  5.0000000000000000e-01
-5.0000000000000003e-02  2.9999999999999999e-01  5.0000000000000000e-01
5.0000000000000003e-02  2.9999999999999999e-01  5.0000000000000000e-01
-5.0000000000000003e-02  1.4999999999999999e-01  4.0000000000000002e-01
5.0000000000000003e-02  1.4999999999999999e-01  4.0000000000000002e-01
5.0000000000000003e-02  0.0000000000000000e+00  2.0000000000000001e-01
-5.0000000000000003e-02  0.0000000000000000e+00  2.0000000000000001e-01
-5.0000000000000003e-02  2.9999999999999999e-01  2.0000000000000001e-01
5.0000000000000003e-02  2.9999999999999999e-01  2.0000000000000001e-01
5.0000000000000003e-02  0.0000000000000000e+00  2.9999999999999999e-01
-5.0000000000000003e-02  0.0000000000000000e+00  2.9999999999999999e-01
-5.0000000000000003e-02  2.9999999999999999e-01  2.9999999999999999e-01
5.0000000000000003e-02  2.9999999999999999e-01  2.9999999999999999e-01
-5.0000000000000003e-02  1.4999999999999999e-01  2.0000000000000001e-01
5.0000000000000003e-02  1.4999999999999999e-01  2.0000000000000001e-01
5.0000000000000003e-02  0.0000000000000000e+00  0.0000000000000000e+00
-5.0000000000000003e-02  0.0000000000000000e+00  0.0000000000000000e+00
-5.0000000000000003e-02  2.9999999999999999e-01  0.0000000000000000e+00
5.0000000000000003e-02  2.9999999999999999e-01  0.0000000000000000e+00
5.0000000000000003e-02  0.0000000000000000e+00  1.0000000000000001e-01
-5.0000000000000003e-02  0.0000000000000000e+00  1.0000000000000001e-01
-5.0000000000000003e-02  2.9999999999999999e-01  1.0000000000000001e-01
5.0000000000000003e-02  2.9999999999999999e-01  1.0000000000000001e-01
-5.0000000000000003e-02  1.4999999999999999e-01  0.0000000000000000e+00
5.0000000000000003e-02  1.4999999999999999e-01  0.0000000000000000e+00

CELLS 0 0


CELL_TYPES 0


POINT_DATA 58

VECTORS VertexNormals double

0.0000000000000000e+00 0.0000000000000000e+00 0.0000000000000000e+00 
0.0000000000000000e+00 0.0000000000000000e+00 0.0000000000000000e+00 
0.0000000000000000e+00 0.0000000000000000e+00 0.0000000000000000e+00 
0.0000000000000000e+00 0.0000000000000000e+00 0.0000000000000000e+00 
0.0000000000000000e+00 0.0000000000000000e+00 0.0000000000000000e+00 
0.0000000000000000e+00 0.0000000000000000e+00 0.0000000000000000e+00 
0.0000000000000000e+00 0.0000000000000000e+00 0.0000000000000000e+00 
0.0000000000000000e+00 0.0000000000000000e+00 0.0000000000000000e+00 
0.0000000000000000e+00 0.0000000000000000e+00 0.0000000000000000e+00 
0.0000000000000000e+00 0.0000000000000000e+00 0.0000000000000000e+00 
0.0000000000000000e+00 0.0000000000000000e+00 0.0000000000000000e+00 
0.0000000000000000e+00 0.0000000000000000e+00 0.0000000000000000e+00 
0.0000000000000000e+00 0.0000000000000000e+00 0.0000000000000000e+00 
0.0000000000000000e+00 0.0000000000000000e+00 0.0000000000000000e+00 
0.0000000000000000e+00 0.0000000000000000e+00 0.0000000000000000e+00 
0.0000000000000000e+00 0.0000000000000000e+00 0.0000000000000000e+00 
0.0000000000000000e+00 0.0000000000000000e+00 0.0000000000000000e+00 
0.0000000000000000e+00 0.0000000000000000e+00 0.0000000000000000e+00 
0.0000000000000000e+00 0.0000000000000000e+00 0.0000000000000000e+00 
0.0000000000000000e+00 0.0000000000000000e+00 0.0000000000000000e+00 
0.0000000000000000e+00 0.0000000000000000e+00 0.0000000000000000e+00 
0.0000000000000000e+00 0.0000000000000000e+00 0.0000000000000000e+00 
0.0000000000000000e+00 0.0000000000000000e+00 0.0000000000000000e+00 
0.0000000000000000e+00 0.0000000000000000e+00 0.0000000000000000e+00 
0.0000000000000000e+00 0.0000000000000000e+00 0.0000000000000000e+00 
0.0000000000000000e+00 0.0000000000000000e+00 0.0000000000000000e+00 
0.0000000000000000e+00 0.0000000000000000e+00 0.0000000000000000e+00 
0.0000000000000000e+00 0.0000000000000000e+00 0.0000000000000000e+00 
0.0000000000000000e+00 0.0000000000000000e+00 0.0000000000000000e+00 
0.0000000000000000e+00 0.0000000000000000e+00 0.0000000000000000e+00 
0.0000000000000000e+00 0.0000000000000000e+00 0.0000000000000000e+00 
0.0000000000000000e+00 0.0000000000000000e+00 0.0000000000000000e+00 
0.0000000000000000e+00 0.0000000000000000e+00 0.0000000000000000e+00 
0.0000000000000000e+00 0.0000000000000000e+00 0.0000000000000000e+00 
0.0000000000000000e+00 0.0000000000000000e+00 0.0000000000000000e+00 
0.0000000000000000e+00 0.0000000000000000e+00 0.0000000000000000e+00 
0.0000000000000000e+00 0.0000000000000000e+00 0.0000000000000000e+00 
0.0000000000000000e+00 0.0000000000000000e+00 0.0000000000000000e+00 
0.0000000000000000e+00 0.0000000000000000e+00 0.0000000000000000e+00 
0.0000000000000000e+00 0.0000000000000000e+00 0.0000000000000000e+00 
0.0000000000000000e+00 0.0000000000000000e+00 0.0000000000000000e+00 
0.0000000000000000e+00 0.0000000000000000e+00 0.0000000000000000e+00 
0.0000000000000000e+00 0.0000000000000000e+00 0.0000000000000000e+00 
0.0000000000000000e+00 0.0000000000000000e+00 0.0000000000000000e+00 
0.0000000000000000e+00 0.0000000000000000e+00 0.0000000000000000e+00 
0.0000000000000000e+00 0.0000000000000000e+00 0.0000000000000000e+00 
0.0000000000000000e+00 0.0000000000000000e+00 0.0000000000000000e+00 
0.0000000000000000e+00 0.0000000000000000e+00 0.0000000000000000e+00 
0.0000000000000000e+00 0.0000000000000000e+00 0.0000000000000000e+00 
0.0000000000000000e+00 0.0000000000000000e+00 0.0000000000000000e+00 
0.0000000000000000e+00 0.0000000000000000e+00 0.0000000000000000e+00 
0.0000000000000000e+00 0.0000000000000000e+00 0.0000000000000000e+00 
0.0000000000000000e+00 0.0000000000000000e+00 0.0000000000000000e+00 
0.0000000000000000e+00 0.0000000000000000e+00 0.0000000000000000e+00 
0.0000000000000000e+00 0.0000000000000000e+00 0.0000000000000000e+00 
0.0000000000000000e+00 0.0000000000000000e+00 0.0000000000000000e+00 
0.0000000000000000e+00 0.0000000000000000e+00 0.0000000000000000e+00 
0.0000000000000000e+00 0.0000000000000000e+00 0.0000000000000000e+00 

VECTORS DisplacementDeltas0 double
0.0000000000000000e+00 0.0000000000000000e+00 0.0000000000000000e+00 
1.4637051935584570e-02 0.0000000000000000e+00 -8.4291865209934350e-04 
1.4708556162428089e-02 0.0000000000000000e+00 -6.5333006593017206e-04 
1.3168652212839992e-02 0.0000000000000000e+00 -4.7474282862490069e-03 
5.6440845154663542e-03 0.0000000000000000e+00 -2.5761401525567352e-03 
6.3220143974338713e-03 0.0000000000000000e+00 1.4282016712886471e-03 
6.0984683565815483e-03 0.0000000000000000e+00 1.4084547499567056e-03 
5.5421200663673988e-03 0.0000000000000000e+00 -2.3942681978565178e-03 
1.4040043561486106e-02 0.0000000000000000e+00 -2.7162940217117194e-03 
1.4320124559857140e-02 0.0000000000000000e+00 -7.5910220239261200e-04 
1.3927755296361671e-02 0.0000000000000000e+00 -2.8513580901611854e-03 
1.3503212383092093e-02 0.0000000000000000e+00 -4.8167696102527236e-03 
9.5377819715061138e-03 0.0000000000000000e+00 -3.7743467922530319e-03 
1.0701959603835895e-02 0.0000000000000000e+00 1.9391667596129619e-04 
1.0414336146031072e-02 0.0000000000000000e+00 6.2467002855596610e-04 
9.0566900925056048e-03 0.0000000000000000e+00 -3.5460393616177045e-03 
6.0725218517241955e-03 0.0000000000000000e+00 9.7714805274102482e-04 
5.1810787809744799e-03 0.0000000000000000e+00 -2.3999099724735882e-03 
8.3889687179994083e-04 0.0000000000000000e+00 -4.5076922420555896e-04 
1.0251767010693270e-03 0.0000000000000000e+00 3.7441998128329211e-04 
1.0120485141079378e-03 0.0000000000000000e+00 4.7760999970266932e-04 
7.6204370030800951e-04 0.0000000000000000e+00 -3.6804325396284470e-04 
2.4480028815272131e-03 0.0000000000000000e+00 -1.2355439032084878e-03 
2.8267551020092411e-03 0.0000000000000000e+00 1.1571021397100262e-03 
2.7295744855001976e-03 0.0000000000000000e+00 1.0227170983209567e-03 
2.4467788221228287e-03 0.0000000000000000e+00 -1.0477122656188135e-03 
8.7055940178955792e-04 0.0000000000000000e+00 5.6847572283955539e-04 
7.8891268384662246e-04 0.0000000000000000e+00 -7.3132474570871385e-04 
1.8794850019375519e-04 0.0000000000000000e+00 -1.7497787709297577e-04 
4.6237843033130211e-04 0.0000000000000000e+00 -1.5890611319428072e-04 
4.0709557370705420e-04 0.0000000000000000e+00 -1.3879650937142709e-04 
1.1633826305703244e-04 0.0000000000000000e+00 -1.1040868069221905e-04 
1.5750304186468449e-04 0.0000000000000000e+00 -1.7967122517981605e-04 
2.5616617566033778e-04 0.0000000000000000e+00 1.7748268770512803e-04 
2.9734906719229483e-04 0.0000000000000000e+00 2.9440179439427520e-04 
2.1542812051491785e-04 0.0000000000000000e+00 -2.3588614845485251e-04 
9.0794523899397333e-05 0.0000000000000000e+00 -1.2483294143506742e-04 
-1.8959677839057269e-05 0.0000000000000000e+00 -9.3957127238758356e-05 
3.1052944765687699e-04 0.0000000000000000e+00 -4.5949451292278223e-05 
2.8920451603119081e-04 0.0000000000000000e+00 -8.5236690718017215e-05 
3.6804107453375888e-04 0.0000000000000000e+00 -2.3030350679898804e-05 
3.6892195529311992e-04 0.0000000000000000e+00 -7.3679142898780452e-05 
2.5229800949244782e-04 0.0000000000000000e+00 -1.8372554016095316e-04 
2.3677137599281825e-04 0.0000000000000000e+00 -2.1790698601691669e-04 
2.4527585859231886e-04 0.0000000000000000e+00 -2.3325810025670704e-04 
2.6086160978908753e-04 0.0000000000000000e+00 -1.0633562954309640e-04 
1.7598168123053874e-04 0.0000000000000000e+00 -3.4316670502814134e-05 
1.6483117729368347e-04 0.0000000000000000e+00 8.4593813946258099e-05 
0.0000000000000000e+00 0.0000000000000000e+00 0.0000000000000000e+00 
0.0000000000000000e+00 0.0000000000000000e+00 0.0000000000000000e+00 
0.0000000000000000e+00 0.0000000000000000e+00 0.0000000000000000e+00 
0.0000000000000000e+00 0.0000000000000000e+00 0.0000000000000000e+00 
2.7387536492209713e-04 0.0000000000000000e+00 -1.5504236282757976e-04 
2.8937915542626234e-04 0.0000000000000000e+00 -3.5504533770183764e-05 
2.2780752754054652e-04 0.0000000000000000e+00 -5.1197360781713862e-06 
2.1684768225970082e-04 0.0000000000000000e+00 -1.6788421290155205e-04 
0.0000000000000000e+00 0.0000000000000000e+00 0.0000000000000000e+00 
0.0000000000000000e+00 0.0000000000000000e+00 0.0000000000000000e+00 

VECTORS Forces0 double
7.5873995301334016e+00 -1.3650903361026869e+00 1.7145214269578399e+00 
-2.3938386427936614e-01 -1.2593113173891433e-03 1.1322932987040719e-01 
-1.2331933141724920e+00 -8.0780987657492580e-03 8.8960398429893861e-01 
5.7161937808935193e+00 -1.0294509403553809e+00 1.2785604497710497e+00 
-1.8685764830449254e+00 5.3488149615160852e-02 6.7552743837985152e-02 
2.4136578447200585e+00 1.2398784328083560e-02 -4.4758253067463499e-01 
3.0498433244776697e+00 1.5677024381139729e-02 -5.6121791269619170e-01 
-1.6842933674406031e+00 4.8917921648824948e-02 2.2922088294431600e-01 
0.0000000000000000e+00 0.0000000000000000e+00 0.0000000000000000e+00 
0.0000000000000000e+00 0.0000000000000000e+00 0.0000000000000000e+00 
0.0000000000000000e+00 0.0000000000000000e+00 0.0000000000000000e+00 
0.0000000000000000e+00 0.0000000000000000e+00 0.0000000000000000e+00 
0.0000000000000000e+00 0.0000000000000000e+00 0.0000000000000000e+00 
0.0000000000000000e+00 0.0000000000000000e+00 0.0000000000000000e+00 
0.0000000000000000e+00 0.0000000000000000e+00 0.0000000000000000e+00 
0.0000000000000000e+00 0.0000000000000000e+00 0.0000000000000000e+00 
0.0000000000000000e+00 0.0000000000000000e+00 0.0000000000000000e+00 
0.0000000000000000e+00 0.0000000000000000e+00 0.0000000000000000e+00 
1.2721041541219806e+00 7.3479756747680104e-04 -7.7921181889873251e-02 
2.8426589473207216e+00 1.6339664162297995e-03 -1.8279842279936911e-01 
2.7574574344631091e+00 1.5851816103642669e-03 -1.7086772876376063e-01 
1.4039297029331050e+00 8.0815298335532373e-04 -8.2764526848785408e-02 
0.0000000000000000e+00 0.0000000000000000e+00 0.0000000000000000e+00 
0.0000000000000000e+00 0.0000000000000000e+00 0.0000000000000000e+00 
0.0000000000000000e+00 0.0000000000000000e+00 0.0000000000000000e+00 
0.0000000000000000e+00 0.0000000000000000e+00 0.0000000000000000e+00 
0.0000000000000000e+00 0.0000000000000000e+00 0.0000000000000000e+00 
0.0000000000000000e+00 0.0000000000000000e+00 0.0000000000000000e+00 
5.9325353797050984e-01 1.7747383214481252e-06 -1.1814935020944780e-03 
1.5635851211556608e+00 -4.5900821521594192e-05 -2.7768126329863439e-03 
1.5724900597143034e+00 -4.6176552728270888e-05 -3.0109300053225850e-03 
5.8240532759936103e-01 1.7473347291122341e-06 -1.2313179081741266e-03 
0.0000000000000000e+00 0.0000000000000000e+00 0.0000000000000000e+00 
0.0000000000000000e+00 0.0000000000000000e+00 0.0000000000000000e+00 
0.0000000000000000e+00 0.0000000000000000e+00 0.0000000000000000e+00 
0.0000000000000000e+00 0.0000000000000000e+00 0.0000000000000000e+00 
0.0000000000000000e+00 0.0000000000000000e+00 0.0000000000000000e+00 
0.0000000000000000e+00 0.0000000000000000e+00 0.0000000000000000e+00 
1.5674937352474627e-01 6.6094204592693958e-06 -1.8790745088428876e-03 
2.7943804962373555e+00 1.4201818911670455e-04 -3.4681354385600015e-02 
2.7871216862750190e+00 1.4164779307414697e-04 -3.4591701256277550e-02 
1.4823722220864693e-01 6.2509609126601356e-06 -1.7747550746356564e-03 
0.0000000000000000e+00 0.0000000000000000e+00 0.0000000000000000e+00 
0.0000000000000000e+00 0.0000000000000000e+00 0.0000000000000000e+00 
0.0000000000000000e+00 0.0000000000000000e+00 0.0000000000000000e+00 
0.0000000000000000e+00 0.0000000000000000e+00 0.0000000000000000e+00 
0.0000000000000000e+00 0.0000000000000000e+00 0.0000000000000000e+00 
0.0000000000000000e+00 0.0000000000000000e+00 0.0000000000000000e+00 
2.9933668326234358e-01 3.5697066415282158e-06 -6.0874112959286592e-03 
1.1709894942032268e+00 1.9502649914904761e-05 -2.5249480514464805e-02 
1.1738604098761591e+00 1.9552200276412813e-05 -2.5253053102583977e-02 
2.9872811563582874e-01 3.5629818741486553e-06 -6.0643049196250891e-03 
0.0000000000000000e+00 0.0000000000000000e+00 0.0000000000000000e+00 
0.0000000000000000e+00 0.0000000000000000e+00 0.0000000000000000e+00 
0.0000000000000000e+00 0.0000000000000000e+00 0.0000000000000000e+00 
0.0000000000000000e+00 0.0000000000000000e+00 0.0000000000000000e+00 
0.0000000000000000e+00 0.0000000000000000e+00 0.0000000000000000e+00 
0.0000000000000000e+00 0.0000000000000000e+00 0.0000000000000000e+00 

