# vtk DataFile Version 2.0

ASCII

DATASET UNSTRUCTURED_GRID

POINTS 24 double 

-5.0000000000000003e-02  0.0000000000000000e+00  0.0000000000000000e+00
-5.0000000000000003e-02  0.0000000000000000e+00  1.9999999999955789e-01
-5.0000000000000003e-02  2.9999999999999999e-01  1.9999999999955789e-01
-5.0000000000000003e-02  2.9999999999999999e-01  0.0000000000000000e+00
-5.0000000000000003e-02  0.0000000000000000e+00  3.9999999999897490e-01
-5.0000000000000003e-02  2.9999999999999999e-01  3.9999999999897490e-01
-5.0000000000000003e-02  0.0000000000000000e+00  5.9999999999894682e-01
-5.0000000000000003e-02  2.9999999999999999e-01  5.9999999999894682e-01
-5.0000000000000003e-02  0.0000000000000000e+00  7.9999999999947335e-01
-5.0000000000000003e-02  2.9999999999999999e-01  7.9999999999947335e-01
-5.0000000000000003e-02  0.0000000000000000e+00  1.0000000000000000e+00
-5.0000000000000003e-02  2.9999999999999999e-01  1.0000000000000000e+00
5.0000000000000003e-02  0.0000000000000000e+00  1.0000000000000000e+00
5.0000000000000003e-02  2.9999999999999999e-01  1.0000000000000000e+00
5.0000000000000003e-02  0.0000000000000000e+00  7.9999999999999982e-01
5.0000000000000003e-02  2.9999999999999999e-01  7.9999999999999982e-01
5.0000000000000003e-02  0.0000000000000000e+00  6.0000000000138687e-01
5.0000000000000003e-02  2.9999999999999999e-01  6.0000000000138687e-01
5.0000000000000003e-02  0.0000000000000000e+00  4.0000000000166441e-01
5.0000000000000003e-02  2.9999999999999999e-01  4.0000000000166441e-01
5.0000000000000003e-02  0.0000000000000000e+00  2.0000000000083221e-01
5.0000000000000003e-02  2.9999999999999999e-01  2.0000000000083221e-01
5.0000000000000003e-02  0.0000000000000000e+00  0.0000000000000000e+00
5.0000000000000003e-02  2.9999999999999999e-01  0.0000000000000000e+00

CELLS 0 0


CELL_TYPES 0


POINT_DATA 24

VECTORS VertexNormals double

0.0000000000000000e+00 0.0000000000000000e+00 0.0000000000000000e+00 
0.0000000000000000e+00 0.0000000000000000e+00 0.0000000000000000e+00 
0.0000000000000000e+00 0.0000000000000000e+00 0.0000000000000000e+00 
0.0000000000000000e+00 0.0000000000000000e+00 0.0000000000000000e+00 
0.0000000000000000e+00 0.0000000000000000e+00 0.0000000000000000e+00 
0.0000000000000000e+00 0.0000000000000000e+00 0.0000000000000000e+00 
0.0000000000000000e+00 0.0000000000000000e+00 0.0000000000000000e+00 
0.0000000000000000e+00 0.0000000000000000e+00 0.0000000000000000e+00 
0.0000000000000000e+00 0.0000000000000000e+00 0.0000000000000000e+00 
0.0000000000000000e+00 0.0000000000000000e+00 0.0000000000000000e+00 
0.0000000000000000e+00 0.0000000000000000e+00 0.0000000000000000e+00 
0.0000000000000000e+00 0.0000000000000000e+00 0.0000000000000000e+00 
0.0000000000000000e+00 0.0000000000000000e+00 0.0000000000000000e+00 
0.0000000000000000e+00 0.0000000000000000e+00 0.0000000000000000e+00 
0.0000000000000000e+00 0.0000000000000000e+00 0.0000000000000000e+00 
0.0000000000000000e+00 0.0000000000000000e+00 0.0000000000000000e+00 
0.0000000000000000e+00 0.0000000000000000e+00 0.0000000000000000e+00 
0.0000000000000000e+00 0.0000000000000000e+00 0.0000000000000000e+00 
0.0000000000000000e+00 0.0000000000000000e+00 0.0000000000000000e+00 
0.0000000000000000e+00 0.0000000000000000e+00 0.0000000000000000e+00 
0.0000000000000000e+00 0.0000000000000000e+00 0.0000000000000000e+00 
0.0000000000000000e+00 0.0000000000000000e+00 0.0000000000000000e+00 
0.0000000000000000e+00 0.0000000000000000e+00 0.0000000000000000e+00 
0.0000000000000000e+00 0.0000000000000000e+00 0.0000000000000000e+00 

VECTORS Forces0 double
1.7553283880305823e+00 5.3072090685781788e-06 5.8050431438814325e-02 
3.8162484912583747e+00 -2.9891360807867286e-05 -5.9377151830594232e-03 
3.7894981794876754e+00 -2.9702241891973016e-05 -6.0214607460706681e-03 
1.7423129321212347e+00 5.2682607964870216e-06 5.7634858109349547e-02 
7.3560306166594494e+00 1.0536144862378278e-03 -2.5582190818313717e+00 
7.5518797967791160e+00 1.0835989705745663e-03 -2.6196855340399336e+00 
-8.0449624025751088e-01 -1.0895782662368235e-02 1.5547226771978544e+00 
-7.7424485730447745e-01 -1.0254808304526686e-02 1.4532484109824475e+00 
2.1439959048047190e+00 -2.7212929104903788e-01 9.1508020383959803e+00 
2.2843796707387560e+00 -3.0063182825111123e-01 1.0096236530382873e+01 
7.9562635341394250e+00 1.8523765701556767e+00 6.8108477249679042e+00 
-5.1228587944326243e-01 5.1015560961882156e-01 -3.1876190088832929e-01 
-9.5328234063529332e-02 -1.2521841241639391e+00 -1.0150777137433475e+00 
6.8637924494267177e-01 8.3549422674613449e+00 6.8386084835023624e+00 
3.5094796958712005e+00 -5.0932122707648109e-01 -2.7440339381430612e-01 
-5.9814881465516889e-01 6.4516060266534336e-01 4.5334297508674748e+00 
-1.4618816595463633e+00 -1.4150163387675765e-02 2.8246027232753761e+00 
6.5267218435885355e-01 6.0400994272860522e-03 -1.2207760240497829e+00 
5.6631465478428795e-02 -3.9054899519160014e-05 -1.5945964199593994e-02 
1.2436263106861643e-01 -8.5825527332894012e-05 -3.5140165671544689e-02 
-9.3219791157132248e-01 8.9821718220127109e-05 -1.9804754208784338e-02 
-9.2966805128109342e-01 8.9619887999021358e-05 -1.9597167322057515e-02 
-5.2356341284537311e-01 5.7371072016211088e-06 -2.7381098995895987e-02 
-5.1671875220973718e-01 5.6629647736633952e-06 -2.7007542407514962e-02 

VECTORS DisplacementDeltas0 double
0.0000000000000000e+00 0.0000000000000000e+00 0.0000000000000000e+00 
-2.5946234125369077e-03 0.0000000000000000e+00 4.4421260505928626e-03 
-2.5468420075157828e-03 0.0000000000000000e+00 4.4816340889271685e-03 
0.0000000000000000e+00 0.0000000000000000e+00 0.0000000000000000e+00 
6.0958736215109303e-03 0.0000000000000000e+00 1.1103515077658241e-02 
6.0795441320597738e-03 0.0000000000000000e+00 1.1068669457577346e-02 
3.3981118866191228e-02 0.0000000000000000e+00 -6.1750853741980374e-03 
3.3941609447428758e-02 0.0000000000000000e+00 -5.9997923929560638e-03 
3.2620780282964862e-02 0.0000000000000000e+00 -4.8682177532321139e-02 
3.4420449546560150e-02 0.0000000000000000e+00 -4.8305054544038370e-02 
1.3946130676326052e-02 0.0000000000000000e+00 -7.8825444447755522e-02 
1.4776342867985848e-02 0.0000000000000000e+00 -8.0051763003763987e-02 
0.0000000000000000e+00 0.0000000000000000e+00 0.0000000000000000e+00 
1.7403438302338869e-03 0.0000000000000000e+00 -7.0061033137558404e-02 
1.9614328782178087e-02 0.0000000000000000e+00 -4.1433477471316607e-02 
2.1117024632626422e-02 0.0000000000000000e+00 -4.1440834126885803e-02 
2.0663814976633093e-02 0.0000000000000000e+00 -1.0973776492593528e-02 
2.0833291722688680e-02 0.0000000000000000e+00 -1.1085208144703068e-02 
2.7708223078539108e-03 0.0000000000000000e+00 3.4089039816398064e-03 
2.7442848545013972e-03 0.0000000000000000e+00 3.3773944612949811e-03 
-3.8300292465337045e-03 0.0000000000000000e+00 4.5596523795651493e-03 
-3.8092596600856421e-03 0.0000000000000000e+00 4.4687486643692643e-03 
0.0000000000000000e+00 0.0000000000000000e+00 0.0000000000000000e+00 
0.0000000000000000e+00 0.0000000000000000e+00 0.0000000000000000e+00 

