# vtk DataFile Version 2.0

ASCII

DATASET UNSTRUCTURED_GRID

POINTS 24 double 

-5.0000000000000003e-02  0.0000000000000000e+00  0.0000000000000000e+00
-5.0000000000000003e-02  0.0000000000000000e+00  1.9999999999955789e-01
-5.0000000000000003e-02  2.9999999999999999e-01  1.9999999999955789e-01
-5.0000000000000003e-02  2.9999999999999999e-01  0.0000000000000000e+00
-5.0000000000000003e-02  0.0000000000000000e+00  3.9999999999897490e-01
-5.0000000000000003e-02  2.9999999999999999e-01  3.9999999999897490e-01
-5.0000000000000003e-02  0.0000000000000000e+00  5.9999999999894682e-01
-5.0000000000000003e-02  2.9999999999999999e-01  5.9999999999894682e-01
-5.0000000000000003e-02  0.0000000000000000e+00  7.9999999999947335e-01
-5.0000000000000003e-02  2.9999999999999999e-01  7.9999999999947335e-01
-5.0000000000000003e-02  0.0000000000000000e+00  1.0000000000000000e+00
-5.0000000000000003e-02  2.9999999999999999e-01  1.0000000000000000e+00
5.0000000000000003e-02  0.0000000000000000e+00  1.0000000000000000e+00
5.0000000000000003e-02  2.9999999999999999e-01  1.0000000000000000e+00
5.0000000000000003e-02  0.0000000000000000e+00  7.9999999999999982e-01
5.0000000000000003e-02  2.9999999999999999e-01  7.9999999999999982e-01
5.0000000000000003e-02  0.0000000000000000e+00  6.0000000000138687e-01
5.0000000000000003e-02  2.9999999999999999e-01  6.0000000000138687e-01
5.0000000000000003e-02  0.0000000000000000e+00  4.0000000000166441e-01
5.0000000000000003e-02  2.9999999999999999e-01  4.0000000000166441e-01
5.0000000000000003e-02  0.0000000000000000e+00  2.0000000000083221e-01
5.0000000000000003e-02  2.9999999999999999e-01  2.0000000000083221e-01
5.0000000000000003e-02  0.0000000000000000e+00  0.0000000000000000e+00
5.0000000000000003e-02  2.9999999999999999e-01  0.0000000000000000e+00

CELLS 0 0


CELL_TYPES 0


POINT_DATA 24

VECTORS VertexNormals double

0.0000000000000000e+00 0.0000000000000000e+00 0.0000000000000000e+00 
0.0000000000000000e+00 0.0000000000000000e+00 0.0000000000000000e+00 
0.0000000000000000e+00 0.0000000000000000e+00 0.0000000000000000e+00 
0.0000000000000000e+00 0.0000000000000000e+00 0.0000000000000000e+00 
0.0000000000000000e+00 0.0000000000000000e+00 0.0000000000000000e+00 
0.0000000000000000e+00 0.0000000000000000e+00 0.0000000000000000e+00 
0.0000000000000000e+00 0.0000000000000000e+00 0.0000000000000000e+00 
0.0000000000000000e+00 0.0000000000000000e+00 0.0000000000000000e+00 
0.0000000000000000e+00 0.0000000000000000e+00 0.0000000000000000e+00 
0.0000000000000000e+00 0.0000000000000000e+00 0.0000000000000000e+00 
0.0000000000000000e+00 0.0000000000000000e+00 0.0000000000000000e+00 
0.0000000000000000e+00 0.0000000000000000e+00 0.0000000000000000e+00 
0.0000000000000000e+00 0.0000000000000000e+00 0.0000000000000000e+00 
0.0000000000000000e+00 0.0000000000000000e+00 0.0000000000000000e+00 
0.0000000000000000e+00 0.0000000000000000e+00 0.0000000000000000e+00 
0.0000000000000000e+00 0.0000000000000000e+00 0.0000000000000000e+00 
0.0000000000000000e+00 0.0000000000000000e+00 0.0000000000000000e+00 
0.0000000000000000e+00 0.0000000000000000e+00 0.0000000000000000e+00 
0.0000000000000000e+00 0.0000000000000000e+00 0.0000000000000000e+00 
0.0000000000000000e+00 0.0000000000000000e+00 0.0000000000000000e+00 
0.0000000000000000e+00 0.0000000000000000e+00 0.0000000000000000e+00 
0.0000000000000000e+00 0.0000000000000000e+00 0.0000000000000000e+00 
0.0000000000000000e+00 0.0000000000000000e+00 0.0000000000000000e+00 
0.0000000000000000e+00 0.0000000000000000e+00 0.0000000000000000e+00 

VECTORS Forces0 double
1.1508633998390019e+00 -2.2584022155985823e-05 -2.6059681608805989e-02 
2.8637433974578967e+00 -1.2924908828027432e-04 -3.6823358465674715e-02 
2.8493551339797540e+00 -1.2860327003115822e-04 -3.6519064990821082e-02 
1.1531106253620294e+00 -2.2628007175983068e-05 -2.6178110335102690e-02 
1.6865414395873739e+00 7.1303008430762468e-05 -6.0861157597477235e-03 
1.6892295715117727e+00 7.1427073884162737e-05 -6.2017518710338225e-03 
2.8901122400423374e+00 2.1376019395622442e-03 -2.2883765760485492e-01 
2.7950255278749783e+00 2.0673690229496677e-03 -2.1404756102127348e-01 
1.6570818497448461e+00 9.7174283885610360e-03 -3.6420780553642146e-01 
2.3397768554150216e+00 1.3729276433336544e-02 -5.1065194494915811e-01 
-2.0325880038313779e-01 -1.3777375424751900e-03 9.4041210735057071e-02 
-1.3287502817935055e+00 -1.1562721069081090e-02 1.0151748578516953e+00 
7.8664358127959888e+00 -1.6750347812667714e+00 1.4396795327592853e+00 
5.5648978132528866e+00 -1.1863907874910529e+00 1.0035818159195928e+00 
-1.5383958087365279e+00 5.2417550745795308e-02 6.5266125429254238e-02 
-1.5245098965866719e+00 5.2958993096576222e-02 2.4548475003937378e-01 
1.6380220197210755e+00 1.1930793542906755e-03 -1.2346733232110982e-01 
1.7616820542947522e+00 1.2772539241541461e-03 -1.2829831631623367e-01 
1.0663898832172749e+00 6.4118651244736915e-05 -3.7378125008504315e-03 
1.0364412490287149e+00 6.2339056319955671e-05 -3.6990893310923458e-03 
5.1105956467793556e-01 -1.9647080402071448e-05 -6.3056226269178027e-03 
5.0349351869733183e-01 -1.9352584891926525e-05 -6.1873501902766116e-03 
4.4665308244611668e-01 -8.3548656865388346e-06 -9.7020938681979078e-03 
4.4808791050166646e-01 -8.3826426646751731e-06 -9.7585172071393729e-03 

VECTORS DisplacementDeltas0 double
0.0000000000000000e+00 0.0000000000000000e+00 0.0000000000000000e+00 
2.0864445777808759e-05 0.0000000000000000e+00 -1.5179599236623523e-04 
7.3431092727247209e-05 0.0000000000000000e+00 -8.9992953115178471e-05 
0.0000000000000000e+00 0.0000000000000000e+00 0.0000000000000000e+00 
2.6223215364112960e-05 0.0000000000000000e+00 -5.9608625935247131e-05 
1.7083791584188157e-05 0.0000000000000000e+00 4.8859889280432008e-05 
1.1534214446487904e-03 0.0000000000000000e+00 8.0832219048857564e-04 
1.0736963445113444e-03 0.0000000000000000e+00 6.7502623110794714e-04 
7.6020214515613149e-03 0.0000000000000000e+00 1.0685943205620786e-03 
7.3499499496160522e-03 0.0000000000000000e+00 1.3965337319146874e-03 
1.6031255622567183e-02 0.0000000000000000e+00 -1.8622466183411462e-03 
1.6097942487772653e-02 0.0000000000000000e+00 -1.4447354741458705e-03 
0.0000000000000000e+00 0.0000000000000000e+00 0.0000000000000000e+00 
1.5140076134586400e-02 0.0000000000000000e+00 -5.9155668137178411e-03 
6.1266901629236769e-03 0.0000000000000000e+00 -3.2326132924878903e-03 
5.9302427300937412e-03 0.0000000000000000e+00 -2.9755973869693021e-03 
1.1463550876273248e-03 0.0000000000000000e+00 -6.6772771499409346e-04 
1.1262795040745952e-03 0.0000000000000000e+00 -4.6580621649897611e-04 
9.8945022323039707e-05 0.0000000000000000e+00 3.4721403963167640e-05 
1.1445321133659930e-04 0.0000000000000000e+00 -5.7828745728134737e-05 
1.7958118786419257e-04 0.0000000000000000e+00 -1.0927641923685156e-04 
2.2407418499137974e-04 0.0000000000000000e+00 -1.0637158266540634e-05 
0.0000000000000000e+00 0.0000000000000000e+00 0.0000000000000000e+00 
0.0000000000000000e+00 0.0000000000000000e+00 0.0000000000000000e+00 

