# vtk DataFile Version 2.0

ASCII

DATASET UNSTRUCTURED_GRID

POINTS 24 double 

-5.0000000000000003e-02  0.0000000000000000e+00  0.0000000000000000e+00
-5.0000000000000003e-02  0.0000000000000000e+00  1.9999999999955789e-01
-5.0000000000000003e-02  2.9999999999999999e-01  1.9999999999955789e-01
-5.0000000000000003e-02  2.9999999999999999e-01  0.0000000000000000e+00
-5.0000000000000003e-02  0.0000000000000000e+00  3.9999999999897490e-01
-5.0000000000000003e-02  2.9999999999999999e-01  3.9999999999897490e-01
-5.0000000000000003e-02  0.0000000000000000e+00  5.9999999999894682e-01
-5.0000000000000003e-02  2.9999999999999999e-01  5.9999999999894682e-01
-5.0000000000000003e-02  0.0000000000000000e+00  7.9999999999947335e-01
-5.0000000000000003e-02  2.9999999999999999e-01  7.9999999999947335e-01
-5.0000000000000003e-02  0.0000000000000000e+00  1.0000000000000000e+00
-5.0000000000000003e-02  2.9999999999999999e-01  1.0000000000000000e+00
5.0000000000000003e-02  0.0000000000000000e+00  1.0000000000000000e+00
5.0000000000000003e-02  2.9999999999999999e-01  1.0000000000000000e+00
5.0000000000000003e-02  0.0000000000000000e+00  7.9999999999999982e-01
5.0000000000000003e-02  2.9999999999999999e-01  7.9999999999999982e-01
5.0000000000000003e-02  0.0000000000000000e+00  6.0000000000138687e-01
5.0000000000000003e-02  2.9999999999999999e-01  6.0000000000138687e-01
5.0000000000000003e-02  0.0000000000000000e+00  4.0000000000166441e-01
5.0000000000000003e-02  2.9999999999999999e-01  4.0000000000166441e-01
5.0000000000000003e-02  0.0000000000000000e+00  2.0000000000083221e-01
5.0000000000000003e-02  2.9999999999999999e-01  2.0000000000083221e-01
5.0000000000000003e-02  0.0000000000000000e+00  0.0000000000000000e+00
5.0000000000000003e-02  2.9999999999999999e-01  0.0000000000000000e+00

CELLS 0 0


CELL_TYPES 0


POINT_DATA 24

VECTORS VertexNormals double

0.0000000000000000e+00 0.0000000000000000e+00 0.0000000000000000e+00 
0.0000000000000000e+00 0.0000000000000000e+00 0.0000000000000000e+00 
0.0000000000000000e+00 0.0000000000000000e+00 0.0000000000000000e+00 
0.0000000000000000e+00 0.0000000000000000e+00 0.0000000000000000e+00 
0.0000000000000000e+00 0.0000000000000000e+00 0.0000000000000000e+00 
0.0000000000000000e+00 0.0000000000000000e+00 0.0000000000000000e+00 
0.0000000000000000e+00 0.0000000000000000e+00 0.0000000000000000e+00 
0.0000000000000000e+00 0.0000000000000000e+00 0.0000000000000000e+00 
0.0000000000000000e+00 0.0000000000000000e+00 0.0000000000000000e+00 
0.0000000000000000e+00 0.0000000000000000e+00 0.0000000000000000e+00 
0.0000000000000000e+00 0.0000000000000000e+00 0.0000000000000000e+00 
0.0000000000000000e+00 0.0000000000000000e+00 0.0000000000000000e+00 
0.0000000000000000e+00 0.0000000000000000e+00 0.0000000000000000e+00 
0.0000000000000000e+00 0.0000000000000000e+00 0.0000000000000000e+00 
0.0000000000000000e+00 0.0000000000000000e+00 0.0000000000000000e+00 
0.0000000000000000e+00 0.0000000000000000e+00 0.0000000000000000e+00 
0.0000000000000000e+00 0.0000000000000000e+00 0.0000000000000000e+00 
0.0000000000000000e+00 0.0000000000000000e+00 0.0000000000000000e+00 
0.0000000000000000e+00 0.0000000000000000e+00 0.0000000000000000e+00 
0.0000000000000000e+00 0.0000000000000000e+00 0.0000000000000000e+00 
0.0000000000000000e+00 0.0000000000000000e+00 0.0000000000000000e+00 
0.0000000000000000e+00 0.0000000000000000e+00 0.0000000000000000e+00 
0.0000000000000000e+00 0.0000000000000000e+00 0.0000000000000000e+00 
0.0000000000000000e+00 0.0000000000000000e+00 0.0000000000000000e+00 

VECTORS Forces0 double
1.8269306859973222e+00 1.0996907287613734e-06 -7.3024098074564257e-03 
4.1957061909368534e+00 3.1233404565549091e-06 -6.0113567850553383e-03 
4.1956053665151014e+00 3.1232076549664862e-06 -6.0246704815327245e-03 
1.8266666411129269e+00 1.0995331623326235e-06 -7.2980566179789890e-03 
2.9183620143471383e+00 -3.3347306454450708e-05 2.2012936606836770e-03 
2.9200565358123423e+00 -3.3367604204455593e-05 2.1532306695921603e-03 
2.4396100005646164e+00 1.7801180301257679e-04 -4.7016409110718273e-03 
2.4311775748022932e+00 1.7750176735850667e-04 -3.9054678603693167e-03 
5.1811000258823228e+00 3.7323406551736985e-03 -3.9733684840744993e-02 
5.2351242456678664e+00 3.7719442481755883e-03 -3.8641135007248258e-02 
3.8214772012587428e-01 3.7858973757664676e-04 -1.9153256477919275e-01 
2.8982519171781718e-01 2.8859213670303496e-04 -1.4874797209240856e-01 
6.8093944264691926e+00 -7.9374153359933475e-02 3.2804629219894705e+00 
6.6507786794565584e+00 -7.7528141362471215e-02 3.2028854744207127e+00 
-1.5069628525010641e+00 1.9577243730349875e-03 2.2363549449589369e-03 
-1.4220140321924108e+00 1.8446550682833822e-03 1.0352139637928427e-02 
1.4165187701219646e+00 5.6217964124249052e-05 -2.4961405711425918e-04 
1.4113981440668675e+00 5.6032963841896827e-05 2.1957606242260392e-04 
1.0598943681559547e+00 -1.7678470234120782e-05 5.6725757379475504e-05 
1.0592475709410865e+00 -1.7667882004489584e-05 1.8975257510337442e-05 
7.6927217355083832e-01 1.0849803276283562e-06 -9.2779205219033364e-04 
7.6757940388267332e-01 1.0825973337018415e-06 -9.2789194937343948e-04 
5.4400747559228180e-01 4.2494115228142711e-07 -1.6164701622271040e-03 
5.4323708401389614e-01 4.2433887598381558e-07 -1.6129075782673856e-03 

VECTORS DisplacementDeltas0 double
0.0000000000000000e+00 0.0000000000000000e+00 0.0000000000000000e+00 
1.1856826064907033e-04 0.0000000000000000e+00 -5.3711134617605814e-05 
1.1705930458925137e-04 0.0000000000000000e+00 -5.3343596623345279e-05 
0.0000000000000000e+00 0.0000000000000000e+00 0.0000000000000000e+00 
1.1218438394134211e-04 0.0000000000000000e+00 2.3925656802854273e-05 
1.1001658031135450e-04 0.0000000000000000e+00 1.9651539347857641e-05 
1.6816153227821874e-04 0.0000000000000000e+00 1.4978063859044248e-04 
2.1438108356669353e-04 0.0000000000000000e+00 8.4628124629633792e-05 
4.3628878225339358e-04 0.0000000000000000e+00 1.9266882921233541e-04 
4.5657216065020275e-04 0.0000000000000000e+00 3.5419536872808032e-04 
1.2978358992283578e-03 0.0000000000000000e+00 -9.4039889621489381e-04 
9.8267599729932962e-04 0.0000000000000000e+00 -1.1374316273086496e-03 
0.0000000000000000e+00 0.0000000000000000e+00 0.0000000000000000e+00 
1.9518205550626223e-03 0.0000000000000000e+00 5.6111980980892392e-04 
1.5108268720547674e-04 0.0000000000000000e+00 -2.7483164676604779e-04 
1.3969523262291633e-04 0.0000000000000000e+00 -3.2821785027601166e-04 
2.0808101288802972e-04 0.0000000000000000e+00 1.3156595655610539e-04 
2.5188066648307447e-04 0.0000000000000000e+00 1.2005588951937808e-04 
1.3502254366883908e-04 0.0000000000000000e+00 1.6979392948239554e-05 
1.2799880588732477e-04 0.0000000000000000e+00 2.0544608326560100e-05 
3.9539881030482160e-05 0.0000000000000000e+00 -3.7090666429958478e-06 
3.7337487073146354e-05 0.0000000000000000e+00 -3.7823924649306327e-06 
0.0000000000000000e+00 0.0000000000000000e+00 0.0000000000000000e+00 
0.0000000000000000e+00 0.0000000000000000e+00 0.0000000000000000e+00 

