# vtk DataFile Version 2.0

ASCII

DATASET UNSTRUCTURED_GRID

POINTS 24 float 

-5.0000000000000003e-02  0.0000000000000000e+00  0.0000000000000000e+00
-5.0000000000000003e-02  0.0000000000000000e+00  1.9999999999955789e-01
-5.0000000000000003e-02  2.9999999999999999e-01  1.9999999999955789e-01
-5.0000000000000003e-02  2.9999999999999999e-01  0.0000000000000000e+00
-5.0000000000000003e-02  0.0000000000000000e+00  3.9999999999897490e-01
-5.0000000000000003e-02  2.9999999999999999e-01  3.9999999999897490e-01
-5.0000000000000003e-02  0.0000000000000000e+00  5.9999999999894682e-01
-5.0000000000000003e-02  2.9999999999999999e-01  5.9999999999894682e-01
-5.0000000000000003e-02  0.0000000000000000e+00  7.9999999999947335e-01
-5.0000000000000003e-02  2.9999999999999999e-01  7.9999999999947335e-01
-5.0000000000000003e-02  0.0000000000000000e+00  1.0000000000000000e+00
-5.0000000000000003e-02  2.9999999999999999e-01  1.0000000000000000e+00
5.0000000000000003e-02  0.0000000000000000e+00  1.0000000000000000e+00
5.0000000000000003e-02  2.9999999999999999e-01  1.0000000000000000e+00
5.0000000000000003e-02  0.0000000000000000e+00  7.9999999999999982e-01
5.0000000000000003e-02  2.9999999999999999e-01  7.9999999999999982e-01
5.0000000000000003e-02  0.0000000000000000e+00  6.0000000000138687e-01
5.0000000000000003e-02  2.9999999999999999e-01  6.0000000000138687e-01
5.0000000000000003e-02  0.0000000000000000e+00  4.0000000000166441e-01
5.0000000000000003e-02  2.9999999999999999e-01  4.0000000000166441e-01
5.0000000000000003e-02  0.0000000000000000e+00  2.0000000000083221e-01
5.0000000000000003e-02  2.9999999999999999e-01  2.0000000000083221e-01
5.0000000000000003e-02  0.0000000000000000e+00  0.0000000000000000e+00
5.0000000000000003e-02  2.9999999999999999e-01  0.0000000000000000e+00

CELLS 0 0


CELL_TYPES 0


POINT_DATA 24

VECTORS VertexNormals float

0.0000000000000000e+00 0.0000000000000000e+00 0.0000000000000000e+00 
0.0000000000000000e+00 0.0000000000000000e+00 0.0000000000000000e+00 
0.0000000000000000e+00 0.0000000000000000e+00 0.0000000000000000e+00 
0.0000000000000000e+00 0.0000000000000000e+00 0.0000000000000000e+00 
0.0000000000000000e+00 0.0000000000000000e+00 0.0000000000000000e+00 
0.0000000000000000e+00 0.0000000000000000e+00 0.0000000000000000e+00 
0.0000000000000000e+00 0.0000000000000000e+00 0.0000000000000000e+00 
0.0000000000000000e+00 0.0000000000000000e+00 0.0000000000000000e+00 
0.0000000000000000e+00 0.0000000000000000e+00 0.0000000000000000e+00 
0.0000000000000000e+00 0.0000000000000000e+00 0.0000000000000000e+00 
0.0000000000000000e+00 0.0000000000000000e+00 0.0000000000000000e+00 
0.0000000000000000e+00 0.0000000000000000e+00 0.0000000000000000e+00 
0.0000000000000000e+00 0.0000000000000000e+00 0.0000000000000000e+00 
0.0000000000000000e+00 0.0000000000000000e+00 0.0000000000000000e+00 
0.0000000000000000e+00 0.0000000000000000e+00 0.0000000000000000e+00 
0.0000000000000000e+00 0.0000000000000000e+00 0.0000000000000000e+00 
0.0000000000000000e+00 0.0000000000000000e+00 0.0000000000000000e+00 
0.0000000000000000e+00 0.0000000000000000e+00 0.0000000000000000e+00 
0.0000000000000000e+00 0.0000000000000000e+00 0.0000000000000000e+00 
0.0000000000000000e+00 0.0000000000000000e+00 0.0000000000000000e+00 
0.0000000000000000e+00 0.0000000000000000e+00 0.0000000000000000e+00 
0.0000000000000000e+00 0.0000000000000000e+00 0.0000000000000000e+00 
0.0000000000000000e+00 0.0000000000000000e+00 0.0000000000000000e+00 
0.0000000000000000e+00 0.0000000000000000e+00 0.0000000000000000e+00 

VECTORS Forces0 float
1.0878847847693369e+00 3.1523457715518485e-05 -2.5886269306633469e-02 
2.5219599198402127e+00 1.7875705988857482e-04 -2.8367532410943561e-02 
2.5417465463849971e+00 1.8018310928794400e-04 -2.8701549909765509e-02 
1.0846553504782888e+00 3.1427121836662364e-05 -2.5715588117109306e-02 
1.3202238203446506e+00 -1.5420285824408638e-04 -1.5705696226241288e-02 
1.2984761154638851e+00 -1.5160762848185063e-04 -1.5665380842981694e-02 
2.8672494762615006e+00 3.2861339195213606e-03 -4.0740657216377318e-01 
2.7166124798276696e+00 3.1130039149529702e-03 -3.7487933215301233e-01 
-4.3063748760855319e-01 -3.9983003871701004e-03 1.5589370046600998e-01 
6.3215724875402202e-01 5.8727679957234630e-03 -2.2719055404857030e-01 
-4.1885839658783436e-01 -7.0837477405856775e-03 1.7217836206605303e-01 
-1.7953567669248955e+00 -4.1106557709856828e-02 1.7057269204242780e+00 
7.8187736690114038e+00 -2.7119170238691206e+00 1.2979531426375523e-01 
4.1007022447408756e+00 -1.4244002059326546e+00 5.4609685786131679e-02 
-1.5623570656987189e+00 8.5964259141713933e-02 1.0520152277151155e-01 
-1.4880100101581144e+00 8.5549448219977217e-02 3.8906924927985087e-01 
1.5644798170901275e+00 1.4971902394777569e-03 -2.0998181093227580e-01 
1.8636212524435574e+00 1.7715716867231395e-03 -2.4295406634854402e-01 
1.3740643812338356e+00 -2.2973310262321088e-04 -1.3939603165231358e-02 
1.3156092653978251e+00 -2.1990185191551553e-04 -1.3609811749448905e-02 
7.8927686594868718e-01 3.5772404279953470e-05 -8.5973318488549218e-03 
8.1781935892774227e-01 3.7081313624284813e-05 -8.9591234046561170e-03 
6.3597135992604603e-01 1.4579397121118352e-05 -1.4722900567729428e-02 
6.2879449434203105e-01 1.4412236912434119e-05 -1.4513373783914783e-02 

VECTORS DisplacementDeltas0 float
0.0000000000000000e+00 0.0000000000000000e+00 0.0000000000000000e+00 
1.0883572389152338e-04 0.0000000000000000e+00 1.4813309667626438e-04 
4.1506902568589493e-05 0.0000000000000000e+00 1.3192017806325419e-04 
0.0000000000000000e+00 0.0000000000000000e+00 0.0000000000000000e+00 
-3.4549721874540000e-04 0.0000000000000000e+00 1.0299286064229188e-04 
-3.5354155376319260e-04 0.0000000000000000e+00 1.1898923152875410e-04 
1.4603572360933773e-03 0.0000000000000000e+00 1.1729391344209564e-03 
1.4482786542049145e-03 0.0000000000000000e+00 1.0191948158363448e-03 
1.1678810467028573e-02 0.0000000000000000e+00 8.2704555193896783e-04 
1.1328472240971374e-02 0.0000000000000000e+00 1.1905930782023554e-03 
2.4241592356523185e-02 0.0000000000000000e+00 -5.3319258210783064e-03 
2.4066168157881707e-02 0.0000000000000000e+00 -5.0538139204323691e-03 
0.0000000000000000e+00 0.0000000000000000e+00 0.0000000000000000e+00 
2.0868303266491160e-02 0.0000000000000000e+00 -1.1126800701301896e-02 
8.5604467239320699e-03 0.0000000000000000e+00 -5.0405163990434347e-03 
8.3512737035455441e-03 0.0000000000000000e+00 -4.6264284994619112e-03 
1.0140722644218620e-03 0.0000000000000000e+00 -1.0493379397907125e-03 
1.0561595777778669e-03 0.0000000000000000e+00 -9.5767764378107737e-04 
-5.0435277956633771e-04 0.0000000000000000e+00 2.7713152969159756e-05 
-4.5785036134212689e-04 0.0000000000000000e+00 -2.5247163986624516e-05 
-1.1965165567668018e-04 0.0000000000000000e+00 1.9240939965209928e-04 
-1.5893892821488382e-04 0.0000000000000000e+00 1.8227465999368330e-04 
0.0000000000000000e+00 0.0000000000000000e+00 0.0000000000000000e+00 
0.0000000000000000e+00 0.0000000000000000e+00 0.0000000000000000e+00 

