# vtk DataFile Version 2.0

ASCII

DATASET UNSTRUCTURED_GRID

POINTS 24 double 

-5.0000000000000003e-02  0.0000000000000000e+00  0.0000000000000000e+00
-5.0000000000000003e-02  0.0000000000000000e+00  1.9999999999955789e-01
-5.0000000000000003e-02  2.9999999999999999e-01  1.9999999999955789e-01
-5.0000000000000003e-02  2.9999999999999999e-01  0.0000000000000000e+00
-5.0000000000000003e-02  0.0000000000000000e+00  3.9999999999897490e-01
-5.0000000000000003e-02  2.9999999999999999e-01  3.9999999999897490e-01
-5.0000000000000003e-02  0.0000000000000000e+00  5.9999999999894682e-01
-5.0000000000000003e-02  2.9999999999999999e-01  5.9999999999894682e-01
-5.0000000000000003e-02  0.0000000000000000e+00  7.9999999999947335e-01
-5.0000000000000003e-02  2.9999999999999999e-01  7.9999999999947335e-01
-5.0000000000000003e-02  0.0000000000000000e+00  1.0000000000000000e+00
-5.0000000000000003e-02  2.9999999999999999e-01  1.0000000000000000e+00
5.0000000000000003e-02  0.0000000000000000e+00  1.0000000000000000e+00
5.0000000000000003e-02  2.9999999999999999e-01  1.0000000000000000e+00
5.0000000000000003e-02  0.0000000000000000e+00  7.9999999999999982e-01
5.0000000000000003e-02  2.9999999999999999e-01  7.9999999999999982e-01
5.0000000000000003e-02  0.0000000000000000e+00  6.0000000000138687e-01
5.0000000000000003e-02  2.9999999999999999e-01  6.0000000000138687e-01
5.0000000000000003e-02  0.0000000000000000e+00  4.0000000000166441e-01
5.0000000000000003e-02  2.9999999999999999e-01  4.0000000000166441e-01
5.0000000000000003e-02  0.0000000000000000e+00  2.0000000000083221e-01
5.0000000000000003e-02  2.9999999999999999e-01  2.0000000000083221e-01
5.0000000000000003e-02  0.0000000000000000e+00  0.0000000000000000e+00
5.0000000000000003e-02  2.9999999999999999e-01  0.0000000000000000e+00

CELLS 0 0


CELL_TYPES 0


POINT_DATA 24

VECTORS VertexNormals double

0.0000000000000000e+00 0.0000000000000000e+00 0.0000000000000000e+00 
0.0000000000000000e+00 0.0000000000000000e+00 0.0000000000000000e+00 
0.0000000000000000e+00 0.0000000000000000e+00 0.0000000000000000e+00 
0.0000000000000000e+00 0.0000000000000000e+00 0.0000000000000000e+00 
0.0000000000000000e+00 0.0000000000000000e+00 0.0000000000000000e+00 
0.0000000000000000e+00 0.0000000000000000e+00 0.0000000000000000e+00 
0.0000000000000000e+00 0.0000000000000000e+00 0.0000000000000000e+00 
0.0000000000000000e+00 0.0000000000000000e+00 0.0000000000000000e+00 
0.0000000000000000e+00 0.0000000000000000e+00 0.0000000000000000e+00 
0.0000000000000000e+00 0.0000000000000000e+00 0.0000000000000000e+00 
0.0000000000000000e+00 0.0000000000000000e+00 0.0000000000000000e+00 
0.0000000000000000e+00 0.0000000000000000e+00 0.0000000000000000e+00 
0.0000000000000000e+00 0.0000000000000000e+00 0.0000000000000000e+00 
0.0000000000000000e+00 0.0000000000000000e+00 0.0000000000000000e+00 
0.0000000000000000e+00 0.0000000000000000e+00 0.0000000000000000e+00 
0.0000000000000000e+00 0.0000000000000000e+00 0.0000000000000000e+00 
0.0000000000000000e+00 0.0000000000000000e+00 0.0000000000000000e+00 
0.0000000000000000e+00 0.0000000000000000e+00 0.0000000000000000e+00 
0.0000000000000000e+00 0.0000000000000000e+00 0.0000000000000000e+00 
0.0000000000000000e+00 0.0000000000000000e+00 0.0000000000000000e+00 
0.0000000000000000e+00 0.0000000000000000e+00 0.0000000000000000e+00 
0.0000000000000000e+00 0.0000000000000000e+00 0.0000000000000000e+00 
0.0000000000000000e+00 0.0000000000000000e+00 0.0000000000000000e+00 
0.0000000000000000e+00 0.0000000000000000e+00 0.0000000000000000e+00 

VECTORS Forces0 double
1.1434282709185923e+00 -3.3047500750641267e-05 -2.4402493315433212e-02 
2.8007550131625352e+00 -1.9766517520788680e-04 -2.2590844215144370e-02 
2.7973872142789928e+00 -1.9741988522479372e-04 -2.2431956084000136e-02 
1.1441599964754061e+00 -3.3069385812958009e-05 -2.4516884501995861e-02 
1.6304578238176011e+00 5.1699640010111566e-05 -4.5867644770570322e-02 
1.6218842461340890e+00 5.1387141137897662e-05 -4.5766915339775303e-02 
3.9400422547829002e+00 7.2074093387486200e-03 -9.6292270104960054e-01 
3.6800355516612719e+00 6.7346890416662922e-03 -8.7671017302091314e-01 
-2.7685313507158762e+00 -4.2076815973655521e-02 1.6675147859057970e+00 
-1.1290080395507094e+00 -1.7156098924231523e-02 6.7394648473915719e-01 
1.9263849808195072e-01 8.3585033586030880e-03 -5.6567790027301848e-02 
-1.6902724157909261e+00 -1.1462885075600045e-01 2.2137861664754155e+00 
6.2875896564428393e+00 -3.5836790501243714e+00 -1.4292439287564447e+00 
1.5368396608274835e+00 -8.7710224127954195e-01 -3.5452626276719862e-01 
-1.0277314658611059e+00 8.7554942763031149e-02 1.0475254913461572e-01 
-1.1858831841599036e+00 1.1125229692349173e-01 5.0050745849934619e-01 
9.7743752192712763e-01 1.3314335908724214e-03 -2.2452203733277284e-01 
1.5158015505043914e+00 2.0440316205495145e-03 -3.3986226258575880e-01 
1.1679495768540349e+00 -7.4853573753643645e-05 -2.6617244492302815e-02 
1.0832927418788534e+00 -6.9445159542232991e-05 -2.4928651931398316e-02 
4.6079704680685485e-01 -4.3129353199660904e-05 -3.2314329282608933e-03 
4.6619547183121879e-01 -4.3631548878855462e-05 -3.2597854066236387e-03 
4.2678153734671720e-01 -1.4575621509047085e-05 -8.5770704114411268e-03 
4.2227675597228836e-01 -1.4423615740407135e-05 -8.5298844411335929e-03 

VECTORS DisplacementDeltas0 double
0.0000000000000000e+00 0.0000000000000000e+00 0.0000000000000000e+00 
-4.6932720459853805e-04 0.0000000000000000e+00 2.0241386840876290e-04 
-5.1282461949952530e-04 0.0000000000000000e+00 1.9890510357122867e-04 
0.0000000000000000e+00 0.0000000000000000e+00 0.0000000000000000e+00 
-7.0102367178490423e-04 0.0000000000000000e+00 8.1851373136724648e-04 
-7.0567156665196943e-04 0.0000000000000000e+00 7.2734454173115917e-04 
3.0798684373769458e-03 0.0000000000000000e+00 2.6545487159403084e-03 
3.0896192865280140e-03 0.0000000000000000e+00 2.6479797705874532e-03 
1.8144520013519128e-02 0.0000000000000000e+00 -1.3674299998087426e-03 
1.7655345019492043e-02 0.0000000000000000e+00 -7.0207921193102783e-04 
3.3690297796746732e-02 0.0000000000000000e+00 -1.3913249375497120e-02 
3.3541564192634793e-02 0.0000000000000000e+00 -1.3469654953081514e-02 
0.0000000000000000e+00 0.0000000000000000e+00 0.0000000000000000e+00 
2.6763279934356912e-02 0.0000000000000000e+00 -2.0592762320227186e-02 
1.2181489353390439e-02 0.0000000000000000e+00 -8.5392820369685225e-03 
1.2076086315864293e-02 0.0000000000000000e+00 -7.8262936791922352e-03 
1.9980272472626959e-03 0.0000000000000000e+00 -1.0140466695369855e-03 
2.0113184501167093e-03 0.0000000000000000e+00 -9.7248212332514457e-04 
-9.5891825274080117e-04 0.0000000000000000e+00 4.6535543249930046e-04 
-8.7382801005343562e-04 0.0000000000000000e+00 5.0186239164031659e-04 
-6.0394852007836881e-04 0.0000000000000000e+00 4.2725939265439970e-04 
-5.7137246415296921e-04 0.0000000000000000e+00 3.1385040004091544e-04 
0.0000000000000000e+00 0.0000000000000000e+00 0.0000000000000000e+00 
0.0000000000000000e+00 0.0000000000000000e+00 0.0000000000000000e+00 

