# vtk DataFile Version 2.0

ASCII

DATASET UNSTRUCTURED_GRID

POINTS 24 double 

-5.0000000000000003e-02  0.0000000000000000e+00  0.0000000000000000e+00
-5.0000000000000003e-02  0.0000000000000000e+00  1.9999999999955789e-01
-5.0000000000000003e-02  2.9999999999999999e-01  1.9999999999955789e-01
-5.0000000000000003e-02  2.9999999999999999e-01  0.0000000000000000e+00
-5.0000000000000003e-02  0.0000000000000000e+00  3.9999999999897490e-01
-5.0000000000000003e-02  2.9999999999999999e-01  3.9999999999897490e-01
-5.0000000000000003e-02  0.0000000000000000e+00  5.9999999999894682e-01
-5.0000000000000003e-02  2.9999999999999999e-01  5.9999999999894682e-01
-5.0000000000000003e-02  0.0000000000000000e+00  7.9999999999947335e-01
-5.0000000000000003e-02  2.9999999999999999e-01  7.9999999999947335e-01
-5.0000000000000003e-02  0.0000000000000000e+00  1.0000000000000000e+00
-5.0000000000000003e-02  2.9999999999999999e-01  1.0000000000000000e+00
5.0000000000000003e-02  0.0000000000000000e+00  1.0000000000000000e+00
5.0000000000000003e-02  2.9999999999999999e-01  1.0000000000000000e+00
5.0000000000000003e-02  0.0000000000000000e+00  7.9999999999999982e-01
5.0000000000000003e-02  2.9999999999999999e-01  7.9999999999999982e-01
5.0000000000000003e-02  0.0000000000000000e+00  6.0000000000138687e-01
5.0000000000000003e-02  2.9999999999999999e-01  6.0000000000138687e-01
5.0000000000000003e-02  0.0000000000000000e+00  4.0000000000166441e-01
5.0000000000000003e-02  2.9999999999999999e-01  4.0000000000166441e-01
5.0000000000000003e-02  0.0000000000000000e+00  2.0000000000083221e-01
5.0000000000000003e-02  2.9999999999999999e-01  2.0000000000083221e-01
5.0000000000000003e-02  0.0000000000000000e+00  0.0000000000000000e+00
5.0000000000000003e-02  2.9999999999999999e-01  0.0000000000000000e+00

CELLS 0 0


CELL_TYPES 0


POINT_DATA 24

VECTORS VertexNormals double

0.0000000000000000e+00 0.0000000000000000e+00 0.0000000000000000e+00 
0.0000000000000000e+00 0.0000000000000000e+00 0.0000000000000000e+00 
0.0000000000000000e+00 0.0000000000000000e+00 0.0000000000000000e+00 
0.0000000000000000e+00 0.0000000000000000e+00 0.0000000000000000e+00 
0.0000000000000000e+00 0.0000000000000000e+00 0.0000000000000000e+00 
0.0000000000000000e+00 0.0000000000000000e+00 0.0000000000000000e+00 
0.0000000000000000e+00 0.0000000000000000e+00 0.0000000000000000e+00 
0.0000000000000000e+00 0.0000000000000000e+00 0.0000000000000000e+00 
0.0000000000000000e+00 0.0000000000000000e+00 0.0000000000000000e+00 
0.0000000000000000e+00 0.0000000000000000e+00 0.0000000000000000e+00 
0.0000000000000000e+00 0.0000000000000000e+00 0.0000000000000000e+00 
0.0000000000000000e+00 0.0000000000000000e+00 0.0000000000000000e+00 
0.0000000000000000e+00 0.0000000000000000e+00 0.0000000000000000e+00 
0.0000000000000000e+00 0.0000000000000000e+00 0.0000000000000000e+00 
0.0000000000000000e+00 0.0000000000000000e+00 0.0000000000000000e+00 
0.0000000000000000e+00 0.0000000000000000e+00 0.0000000000000000e+00 
0.0000000000000000e+00 0.0000000000000000e+00 0.0000000000000000e+00 
0.0000000000000000e+00 0.0000000000000000e+00 0.0000000000000000e+00 
0.0000000000000000e+00 0.0000000000000000e+00 0.0000000000000000e+00 
0.0000000000000000e+00 0.0000000000000000e+00 0.0000000000000000e+00 
0.0000000000000000e+00 0.0000000000000000e+00 0.0000000000000000e+00 
0.0000000000000000e+00 0.0000000000000000e+00 0.0000000000000000e+00 
0.0000000000000000e+00 0.0000000000000000e+00 0.0000000000000000e+00 
0.0000000000000000e+00 0.0000000000000000e+00 0.0000000000000000e+00 

VECTORS Forces0 double
3.3732441302732177e+00 3.5331757273072403e-04 -2.6047317187205481e+00 
-4.1951204586906543e-01 -4.5133994500947213e-04 7.8121221935586049e-01 
-2.5160253466310117e-01 -2.7038984670604355e-04 4.6769509144225496e-01 
3.3585767037810967e+00 3.5175809256899086e-04 -2.5923851720999598e+00 
4.7679856565557328e+00 -2.3426558182675562e-02 7.6260409701219345e+00 
4.9891338765205866e+00 -2.4691308306113831e-02 8.0389522275827510e+00 
-1.7085862163256365e+01 9.6681093957076580e-02 -1.3522334502804458e+00 
-1.4591499597107118e+01 8.2850862923212060e-02 -1.2058523535762040e+00 
-2.3363019058003719e+01 6.8479198178369755e-02 6.9759407170134491e+00 
-2.2933578915786605e+01 6.5685556004998133e-02 6.9238553218236643e+00 
3.9839794770702724e+01 4.2961500380337352e+00 1.3484683157051446e+01 
1.2251611465876959e+01 6.6673115195632002e+00 1.3844525342132890e+01 
4.1696656531438245e+00 -9.7746968328143269e-01 2.7261884956124327e-01 
9.8509311080989281e+00 -2.4145571611938315e+00 6.2113050276914639e-01 
-7.0863350506997547e+00 -1.2402406025875345e+00 -2.9926385389340955e+00 
-1.0913545895753913e+00 2.7613729154879429e+00 4.1787183419018810e+00 
3.7124924154000425e+01 -1.6252100306303285e-01 -4.9785776123585750e-02 
4.0253167141488248e+01 -1.7637000868645994e-01 6.4429716775450369e-02 
4.3740539656519282e+01 -1.5335004010334063e-01 6.5474171820185305e+01 
4.2811476792952313e+01 -1.5110128722206478e-01 6.4684886319369468e+01 
-3.3846727416531714e+01 -3.5413090426263526e-02 5.9606121443002792e+01 
-3.4168256837753965e+01 -3.5728160792170192e-02 6.0120216750519198e+01 
-3.3984829514300728e+01 -5.4445799317332242e-03 2.6097043680206262e+01 
-3.3931237959027406e+01 -5.4335116542346303e-03 2.6031733463645423e+01 

VECTORS DisplacementDeltas0 double
0.0000000000000000e+00 0.0000000000000000e+00 0.0000000000000000e+00 
3.4872299261865664e-02 0.0000000000000000e+00 -1.7454946756454467e-02 
3.4920937488170788e-02 0.0000000000000000e+00 -1.7459732310433781e-02 
0.0000000000000000e+00 0.0000000000000000e+00 0.0000000000000000e+00 
4.0772234195026097e-02 0.0000000000000000e+00 -6.9624373197600203e-02 
4.0997451573632104e-02 0.0000000000000000e+00 -6.9568132438546010e-02 
-1.3219045370689575e-03 0.0000000000000000e+00 -8.4170377078207737e-02 
-8.7553163695733294e-04 0.0000000000000000e+00 -8.4499655656011891e-02 
-2.0944457599466532e-02 0.0000000000000000e+00 -7.5811413518855730e-02 
-2.1438272811538317e-02 0.0000000000000000e+00 -7.6078169623249092e-02 
-2.3261683059564081e-02 0.0000000000000000e+00 -7.1121334382854062e-02 
-2.6819284283795708e-02 0.0000000000000000e+00 -7.0836258623179660e-02 
0.0000000000000000e+00 0.0000000000000000e+00 0.0000000000000000e+00 
-2.6369974231055707e-02 0.0000000000000000e+00 -6.9269943201619943e-02 
-1.9479341700700870e-02 0.0000000000000000e+00 -7.1760987480646965e-02 
-1.8847386093438695e-02 0.0000000000000000e+00 -7.0692325960889424e-02 
2.8197661686219788e-03 0.0000000000000000e+00 -7.2273032388220138e-02 
3.1895476500815867e-03 0.0000000000000000e+00 -7.2800695929948339e-02 
3.3581112875133518e-02 0.0000000000000000e+00 -4.9895246143416137e-02 
3.3620310026132763e-02 0.0000000000000000e+00 -4.9879781074498739e-02 
1.3466212032431670e-02 0.0000000000000000e+00 -1.7515196519733982e-02 
1.3642834986884175e-02 0.0000000000000000e+00 -1.7495330201778441e-02 
0.0000000000000000e+00 0.0000000000000000e+00 0.0000000000000000e+00 
0.0000000000000000e+00 0.0000000000000000e+00 0.0000000000000000e+00 

