# vtk DataFile Version 2.0

ASCII

DATASET UNSTRUCTURED_GRID

POINTS 24 float 

-5.0000000000000003e-02  0.0000000000000000e+00  0.0000000000000000e+00
-5.0000000000000003e-02  0.0000000000000000e+00  1.9999999999955789e-01
-5.0000000000000003e-02  2.9999999999999999e-01  1.9999999999955789e-01
-5.0000000000000003e-02  2.9999999999999999e-01  0.0000000000000000e+00
-5.0000000000000003e-02  0.0000000000000000e+00  3.9999999999897490e-01
-5.0000000000000003e-02  2.9999999999999999e-01  3.9999999999897490e-01
-5.0000000000000003e-02  0.0000000000000000e+00  5.9999999999894682e-01
-5.0000000000000003e-02  2.9999999999999999e-01  5.9999999999894682e-01
-5.0000000000000003e-02  0.0000000000000000e+00  7.9999999999947335e-01
-5.0000000000000003e-02  2.9999999999999999e-01  7.9999999999947335e-01
-5.0000000000000003e-02  0.0000000000000000e+00  1.0000000000000000e+00
-5.0000000000000003e-02  2.9999999999999999e-01  1.0000000000000000e+00
5.0000000000000003e-02  0.0000000000000000e+00  1.0000000000000000e+00
5.0000000000000003e-02  2.9999999999999999e-01  1.0000000000000000e+00
5.0000000000000003e-02  0.0000000000000000e+00  7.9999999999999982e-01
5.0000000000000003e-02  2.9999999999999999e-01  7.9999999999999982e-01
5.0000000000000003e-02  0.0000000000000000e+00  6.0000000000138687e-01
5.0000000000000003e-02  2.9999999999999999e-01  6.0000000000138687e-01
5.0000000000000003e-02  0.0000000000000000e+00  4.0000000000166441e-01
5.0000000000000003e-02  2.9999999999999999e-01  4.0000000000166441e-01
5.0000000000000003e-02  0.0000000000000000e+00  2.0000000000083221e-01
5.0000000000000003e-02  2.9999999999999999e-01  2.0000000000083221e-01
5.0000000000000003e-02  0.0000000000000000e+00  0.0000000000000000e+00
5.0000000000000003e-02  2.9999999999999999e-01  0.0000000000000000e+00

CELLS 0 0


CELL_TYPES 0


POINT_DATA 24

VECTORS VertexNormals float

0.0000000000000000e+00 0.0000000000000000e+00 0.0000000000000000e+00 
0.0000000000000000e+00 0.0000000000000000e+00 0.0000000000000000e+00 
0.0000000000000000e+00 0.0000000000000000e+00 0.0000000000000000e+00 
0.0000000000000000e+00 0.0000000000000000e+00 0.0000000000000000e+00 
0.0000000000000000e+00 0.0000000000000000e+00 0.0000000000000000e+00 
0.0000000000000000e+00 0.0000000000000000e+00 0.0000000000000000e+00 
0.0000000000000000e+00 0.0000000000000000e+00 0.0000000000000000e+00 
0.0000000000000000e+00 0.0000000000000000e+00 0.0000000000000000e+00 
0.0000000000000000e+00 0.0000000000000000e+00 0.0000000000000000e+00 
0.0000000000000000e+00 0.0000000000000000e+00 0.0000000000000000e+00 
0.0000000000000000e+00 0.0000000000000000e+00 0.0000000000000000e+00 
0.0000000000000000e+00 0.0000000000000000e+00 0.0000000000000000e+00 
0.0000000000000000e+00 0.0000000000000000e+00 0.0000000000000000e+00 
0.0000000000000000e+00 0.0000000000000000e+00 0.0000000000000000e+00 
0.0000000000000000e+00 0.0000000000000000e+00 0.0000000000000000e+00 
0.0000000000000000e+00 0.0000000000000000e+00 0.0000000000000000e+00 
0.0000000000000000e+00 0.0000000000000000e+00 0.0000000000000000e+00 
0.0000000000000000e+00 0.0000000000000000e+00 0.0000000000000000e+00 
0.0000000000000000e+00 0.0000000000000000e+00 0.0000000000000000e+00 
0.0000000000000000e+00 0.0000000000000000e+00 0.0000000000000000e+00 
0.0000000000000000e+00 0.0000000000000000e+00 0.0000000000000000e+00 
0.0000000000000000e+00 0.0000000000000000e+00 0.0000000000000000e+00 
0.0000000000000000e+00 0.0000000000000000e+00 0.0000000000000000e+00 
0.0000000000000000e+00 0.0000000000000000e+00 0.0000000000000000e+00 

VECTORS Forces0 float
3.1333033660829765e+00 2.9738587789127438e-04 -1.7941147048708719e+00 
4.4532874568534614e-01 3.2794566182747743e-04 -5.8116628544146498e-01 
6.7891803447395283e-01 4.9973997843620263e-04 -8.8473336101241795e-01 
3.1084482411683676e+00 2.9503268127988502e-04 -1.7790805069982034e+00 
3.5106114091404175e+00 -2.1958664751716941e-02 8.8683019840126480e+00 
3.5817755669730826e+00 -2.2635262668188740e-02 9.1343850654112853e+00 
-1.0435159019978483e+01 6.0400410853129673e-02 -2.2997302507457515e+00 
-8.0463610756148096e+00 4.6847639320229131e-02 -1.8128952468326067e+00 
-1.8957516664713026e+01 1.0356883311185280e-01 4.2044062693873139e+00 
-1.7331495944201542e+01 9.4626651393931352e-02 3.8400548458463137e+00 
3.0075378815667698e+01 3.0977845758614340e+00 1.1341817279275611e+01 
8.6695278508756708e+00 5.1648590723236429e+00 1.1288717907691558e+01 
1.8858148636500565e+00 -3.5825571455816357e-01 1.9832022390889364e-01 
7.3262530265042995e+00 -1.2804309155408780e+00 7.9484389737579386e-01 
-1.8619805221351509e+00 -3.2752419633528512e-01 -8.2122467249095066e-01 
-1.3294322619278216e+00 2.1808415772193386e+00 3.1067860094725797e+00 
2.2065668145968502e+01 -9.1183602169010516e-02 3.0643879592392018e+00 
2.5389237024194880e+01 -1.0531813023712530e-01 3.6224890039005220e+00 
1.2141197542896585e+01 -5.5396891754967773e-02 2.9187331086867463e+01 
1.1610475987284515e+01 -5.3539747228848834e-02 2.8260705817706356e+01 
-1.8273693747453198e+01 -1.3194884133936925e-02 2.1492686241318697e+01 
-1.8627185866344949e+01 -1.3447560009035360e-02 2.1896107339415227e+01 
-1.4324005100262807e+01 -2.1976635537306719e-03 7.9936623646346625e+00 
-1.4335050569187279e+01 -2.1988251243892352e-03 7.9913088732196318e+00 

VECTORS DisplacementDeltas0 float
0.0000000000000000e+00 0.0000000000000000e+00 0.0000000000000000e+00 
3.3892645278032957e-02 0.0000000000000000e+00 -1.3492281761472609e-02 
3.3942385178746301e-02 0.0000000000000000e+00 -1.3419965851732503e-02 
0.0000000000000000e+00 0.0000000000000000e+00 0.0000000000000000e+00 
4.5906968087328928e-02 0.0000000000000000e+00 -6.0811676411963167e-02 
4.6137422776698120e-02 0.0000000000000000e+00 -6.0682801222932847e-02 
3.7255722005615777e-03 0.0000000000000000e+00 -8.4120834825076568e-02 
4.1525467172442432e-03 0.0000000000000000e+00 -8.4256822800238884e-02 
-1.9519120603666840e-02 0.0000000000000000e+00 -7.5854736212918827e-02 
-1.9630623110819340e-02 0.0000000000000000e+00 -7.6134458851179421e-02 
-2.6824528969807859e-02 0.0000000000000000e+00 -7.0374448712546500e-02 
-2.8546978507491827e-02 0.0000000000000000e+00 -6.9971918049650417e-02 
0.0000000000000000e+00 0.0000000000000000e+00 0.0000000000000000e+00 
-2.7606748323330571e-02 0.0000000000000000e+00 -6.6807089126507457e-02 
-1.7675583877315382e-02 0.0000000000000000e+00 -7.0530645685686344e-02 
-1.7345391126334486e-02 0.0000000000000000e+00 -6.9818914453585901e-02 
3.2580323635463537e-03 0.0000000000000000e+00 -7.0464090569134052e-02 
3.9332185384748919e-03 0.0000000000000000e+00 -7.0684425966436260e-02 
3.0059116890110454e-02 0.0000000000000000e+00 -4.9973160182772106e-02 
3.0053208761942674e-02 0.0000000000000000e+00 -4.9899076919349278e-02 
1.7774969478153914e-02 0.0000000000000000e+00 -2.2347583533806996e-02 
1.7817247477822349e-02 0.0000000000000000e+00 -2.2288738423558600e-02 
0.0000000000000000e+00 0.0000000000000000e+00 0.0000000000000000e+00 
0.0000000000000000e+00 0.0000000000000000e+00 0.0000000000000000e+00 

