# vtk DataFile Version 2.0

ASCII

DATASET UNSTRUCTURED_GRID

POINTS 32 float 

1.5624999999999997e-02  0.0000000000000000e+00  4.9999999999999992e-03
4.6875000000000000e-02  0.0000000000000000e+00  4.9999999999999992e-03
7.8125000000000000e-02  0.0000000000000000e+00  4.9999999999999992e-03
1.0937499999999999e-01  0.0000000000000000e+00  4.9999999999999992e-03
1.4062500000000000e-01  0.0000000000000000e+00  4.9999999999999992e-03
1.7187500000000000e-01  0.0000000000000000e+00  4.9999999999999992e-03
2.0312500000000000e-01  0.0000000000000000e+00  4.9999999999999992e-03
2.3437500000000000e-01  0.0000000000000000e+00  4.9999999999999992e-03
2.6562499999999994e-01  0.0000000000000000e+00  4.9999999999999992e-03
2.9687500000000000e-01  0.0000000000000000e+00  4.9999999999999992e-03
3.2812500000000000e-01  0.0000000000000000e+00  4.9999999999999992e-03
3.5937500000000000e-01  0.0000000000000000e+00  4.9999999999999992e-03
3.9062500000000000e-01  0.0000000000000000e+00  4.9999999999999992e-03
4.2187500000000000e-01  0.0000000000000000e+00  4.9999999999999992e-03
4.5312499999999994e-01  0.0000000000000000e+00  4.9999999999999992e-03
4.8437500000000000e-01  0.0000000000000000e+00  4.9999999999999992e-03
5.1562499999999989e-01  0.0000000000000000e+00  4.9999999999999992e-03
5.4687500000000000e-01  0.0000000000000000e+00  4.9999999999999992e-03
5.7812500000000000e-01  0.0000000000000000e+00  4.9999999999999992e-03
6.0937499999999989e-01  0.0000000000000000e+00  4.9999999999999992e-03
6.4062500000000000e-01  0.0000000000000000e+00  4.9999999999999992e-03
6.7187500000000000e-01  0.0000000000000000e+00  4.9999999999999992e-03
7.0312500000000000e-01  0.0000000000000000e+00  4.9999999999999992e-03
7.3437499999999989e-01  0.0000000000000000e+00  4.9999999999999992e-03
7.6562500000000000e-01  0.0000000000000000e+00  4.9999999999999992e-03
7.9687500000000000e-01  0.0000000000000000e+00  4.9999999999999992e-03
8.2812500000000000e-01  0.0000000000000000e+00  4.9999999999999992e-03
8.5937500000000000e-01  0.0000000000000000e+00  4.9999999999999992e-03
8.9062499999999989e-01  0.0000000000000000e+00  4.9999999999999992e-03
9.2187499999999989e-01  0.0000000000000000e+00  4.9999999999999992e-03
9.5312500000000000e-01  0.0000000000000000e+00  4.9999999999999992e-03
9.8437500000000000e-01  0.0000000000000000e+00  4.9999999999999992e-03

CELLS 0 0


CELL_TYPES 0


POINT_DATA 32

VECTORS VertexNormals float

0.0000000000000000e+00 0.0000000000000000e+00 0.0000000000000000e+00 
0.0000000000000000e+00 0.0000000000000000e+00 0.0000000000000000e+00 
0.0000000000000000e+00 0.0000000000000000e+00 0.0000000000000000e+00 
0.0000000000000000e+00 0.0000000000000000e+00 0.0000000000000000e+00 
0.0000000000000000e+00 0.0000000000000000e+00 0.0000000000000000e+00 
0.0000000000000000e+00 0.0000000000000000e+00 0.0000000000000000e+00 
0.0000000000000000e+00 0.0000000000000000e+00 0.0000000000000000e+00 
0.0000000000000000e+00 0.0000000000000000e+00 0.0000000000000000e+00 
0.0000000000000000e+00 0.0000000000000000e+00 0.0000000000000000e+00 
0.0000000000000000e+00 0.0000000000000000e+00 0.0000000000000000e+00 
0.0000000000000000e+00 0.0000000000000000e+00 0.0000000000000000e+00 
0.0000000000000000e+00 0.0000000000000000e+00 0.0000000000000000e+00 
0.0000000000000000e+00 0.0000000000000000e+00 0.0000000000000000e+00 
0.0000000000000000e+00 0.0000000000000000e+00 0.0000000000000000e+00 
0.0000000000000000e+00 0.0000000000000000e+00 0.0000000000000000e+00 
0.0000000000000000e+00 0.0000000000000000e+00 0.0000000000000000e+00 
0.0000000000000000e+00 0.0000000000000000e+00 0.0000000000000000e+00 
0.0000000000000000e+00 0.0000000000000000e+00 0.0000000000000000e+00 
0.0000000000000000e+00 0.0000000000000000e+00 0.0000000000000000e+00 
0.0000000000000000e+00 0.0000000000000000e+00 0.0000000000000000e+00 
0.0000000000000000e+00 0.0000000000000000e+00 0.0000000000000000e+00 
0.0000000000000000e+00 0.0000000000000000e+00 0.0000000000000000e+00 
0.0000000000000000e+00 0.0000000000000000e+00 0.0000000000000000e+00 
0.0000000000000000e+00 0.0000000000000000e+00 0.0000000000000000e+00 
0.0000000000000000e+00 0.0000000000000000e+00 0.0000000000000000e+00 
0.0000000000000000e+00 0.0000000000000000e+00 0.0000000000000000e+00 
0.0000000000000000e+00 0.0000000000000000e+00 0.0000000000000000e+00 
0.0000000000000000e+00 0.0000000000000000e+00 0.0000000000000000e+00 
0.0000000000000000e+00 0.0000000000000000e+00 0.0000000000000000e+00 
0.0000000000000000e+00 0.0000000000000000e+00 0.0000000000000000e+00 
0.0000000000000000e+00 0.0000000000000000e+00 0.0000000000000000e+00 
0.0000000000000000e+00 0.0000000000000000e+00 0.0000000000000000e+00 

SCALARS Temperature float
LOOKUP_TABLE default
3.0189512043256178e+02
3.0222419798914325e+02
3.0235301970957630e+02
3.0244536378005904e+02
3.0250391005407960e+02
3.0254221187862333e+02
3.0256717484153052e+02
3.0258348795970011e+02
3.0259420168443660e+02
3.0260128631258817e+02
3.0260601084577524e+02
3.0260916627638761e+02
3.0261127853461710e+02
3.0261267197080588e+02
3.0261354860435875e+02
3.0261404049512851e+02
3.0261421263717779e+02
3.0261409381038180e+02
3.0261367432185682e+02
3.0261290163346354e+02
3.0261168038824712e+02
3.0260983146803744e+02
3.0260709176193529e+02
3.0260298301433625e+02
3.0259678469890946e+02
3.0258728473696146e+02
3.0257245588529361e+02
3.0254889935865657e+02
3.0251093331620933e+02
3.0244647462677119e+02
3.0235059472479617e+02
3.0207089996699142e+02

