# vtk DataFile Version 2.0

ASCII

DATASET UNSTRUCTURED_GRID

POINTS 32 float 

1.5624999999999997e-02  0.0000000000000000e+00  4.9999999999999992e-03
4.6875000000000000e-02  0.0000000000000000e+00  4.9999999999999992e-03
7.8125000000000000e-02  0.0000000000000000e+00  4.9999999999999992e-03
1.0937499999999999e-01  0.0000000000000000e+00  4.9999999999999992e-03
1.4062500000000000e-01  0.0000000000000000e+00  4.9999999999999992e-03
1.7187500000000000e-01  0.0000000000000000e+00  4.9999999999999992e-03
2.0312500000000000e-01  0.0000000000000000e+00  4.9999999999999992e-03
2.3437500000000000e-01  0.0000000000000000e+00  4.9999999999999992e-03
2.6562499999999994e-01  0.0000000000000000e+00  4.9999999999999992e-03
2.9687500000000000e-01  0.0000000000000000e+00  4.9999999999999992e-03
3.2812500000000000e-01  0.0000000000000000e+00  4.9999999999999992e-03
3.5937500000000000e-01  0.0000000000000000e+00  4.9999999999999992e-03
3.9062500000000000e-01  0.0000000000000000e+00  4.9999999999999992e-03
4.2187500000000000e-01  0.0000000000000000e+00  4.9999999999999992e-03
4.5312499999999994e-01  0.0000000000000000e+00  4.9999999999999992e-03
4.8437500000000000e-01  0.0000000000000000e+00  4.9999999999999992e-03
5.1562499999999989e-01  0.0000000000000000e+00  4.9999999999999992e-03
5.4687500000000000e-01  0.0000000000000000e+00  4.9999999999999992e-03
5.7812500000000000e-01  0.0000000000000000e+00  4.9999999999999992e-03
6.0937499999999989e-01  0.0000000000000000e+00  4.9999999999999992e-03
6.4062500000000000e-01  0.0000000000000000e+00  4.9999999999999992e-03
6.7187500000000000e-01  0.0000000000000000e+00  4.9999999999999992e-03
7.0312500000000000e-01  0.0000000000000000e+00  4.9999999999999992e-03
7.3437499999999989e-01  0.0000000000000000e+00  4.9999999999999992e-03
7.6562500000000000e-01  0.0000000000000000e+00  4.9999999999999992e-03
7.9687500000000000e-01  0.0000000000000000e+00  4.9999999999999992e-03
8.2812500000000000e-01  0.0000000000000000e+00  4.9999999999999992e-03
8.5937500000000000e-01  0.0000000000000000e+00  4.9999999999999992e-03
8.9062499999999989e-01  0.0000000000000000e+00  4.9999999999999992e-03
9.2187499999999989e-01  0.0000000000000000e+00  4.9999999999999992e-03
9.5312500000000000e-01  0.0000000000000000e+00  4.9999999999999992e-03
9.8437500000000000e-01  0.0000000000000000e+00  4.9999999999999992e-03

CELLS 0 0


CELL_TYPES 0


POINT_DATA 32

VECTORS VertexNormals float

0.0000000000000000e+00 0.0000000000000000e+00 0.0000000000000000e+00 
0.0000000000000000e+00 0.0000000000000000e+00 0.0000000000000000e+00 
0.0000000000000000e+00 0.0000000000000000e+00 0.0000000000000000e+00 
0.0000000000000000e+00 0.0000000000000000e+00 0.0000000000000000e+00 
0.0000000000000000e+00 0.0000000000000000e+00 0.0000000000000000e+00 
0.0000000000000000e+00 0.0000000000000000e+00 0.0000000000000000e+00 
0.0000000000000000e+00 0.0000000000000000e+00 0.0000000000000000e+00 
0.0000000000000000e+00 0.0000000000000000e+00 0.0000000000000000e+00 
0.0000000000000000e+00 0.0000000000000000e+00 0.0000000000000000e+00 
0.0000000000000000e+00 0.0000000000000000e+00 0.0000000000000000e+00 
0.0000000000000000e+00 0.0000000000000000e+00 0.0000000000000000e+00 
0.0000000000000000e+00 0.0000000000000000e+00 0.0000000000000000e+00 
0.0000000000000000e+00 0.0000000000000000e+00 0.0000000000000000e+00 
0.0000000000000000e+00 0.0000000000000000e+00 0.0000000000000000e+00 
0.0000000000000000e+00 0.0000000000000000e+00 0.0000000000000000e+00 
0.0000000000000000e+00 0.0000000000000000e+00 0.0000000000000000e+00 
0.0000000000000000e+00 0.0000000000000000e+00 0.0000000000000000e+00 
0.0000000000000000e+00 0.0000000000000000e+00 0.0000000000000000e+00 
0.0000000000000000e+00 0.0000000000000000e+00 0.0000000000000000e+00 
0.0000000000000000e+00 0.0000000000000000e+00 0.0000000000000000e+00 
0.0000000000000000e+00 0.0000000000000000e+00 0.0000000000000000e+00 
0.0000000000000000e+00 0.0000000000000000e+00 0.0000000000000000e+00 
0.0000000000000000e+00 0.0000000000000000e+00 0.0000000000000000e+00 
0.0000000000000000e+00 0.0000000000000000e+00 0.0000000000000000e+00 
0.0000000000000000e+00 0.0000000000000000e+00 0.0000000000000000e+00 
0.0000000000000000e+00 0.0000000000000000e+00 0.0000000000000000e+00 
0.0000000000000000e+00 0.0000000000000000e+00 0.0000000000000000e+00 
0.0000000000000000e+00 0.0000000000000000e+00 0.0000000000000000e+00 
0.0000000000000000e+00 0.0000000000000000e+00 0.0000000000000000e+00 
0.0000000000000000e+00 0.0000000000000000e+00 0.0000000000000000e+00 
0.0000000000000000e+00 0.0000000000000000e+00 0.0000000000000000e+00 
0.0000000000000000e+00 0.0000000000000000e+00 0.0000000000000000e+00 

SCALARS Temperature float
LOOKUP_TABLE default
3.0247386900310642e+02
3.0286924183572222e+02
3.0305326630474315e+02
3.0320072845526715e+02
3.0331020695259554e+02
3.0339375267296793e+02
3.0345740174462969e+02
3.0350573406598846e+02
3.0354222925591432e+02
3.0356958395720915e+02
3.0358993448288214e+02
3.0360488354523341e+02
3.0361574811583819e+02
3.0362348785436166e+02
3.0362879867602561e+02
3.0363222317579368e+02
3.0363407351681042e+02
3.0363455163111041e+02
3.0363370975296357e+02
3.0363145290451041e+02
3.0362757244077284e+02
3.0362162994134582e+02
3.0361303497168956e+02
3.0360076326660419e+02
3.0358348331638365e+02
3.0355921037376658e+02
3.0352507465575957e+02
3.0347690894193465e+02
3.0340848900652406e+02
3.0330769071621188e+02
3.0317186059434465e+02
3.0284382122794887e+02

