# vtk DataFile Version 2.0

ASCII

DATASET UNSTRUCTURED_GRID

POINTS 32 double 

1.5624999999999997e-02  0.0000000000000000e+00  4.9999999999999992e-03
4.6875000000000000e-02  0.0000000000000000e+00  4.9999999999999992e-03
7.8125000000000000e-02  0.0000000000000000e+00  4.9999999999999992e-03
1.0937499999999999e-01  0.0000000000000000e+00  4.9999999999999992e-03
1.4062500000000000e-01  0.0000000000000000e+00  4.9999999999999992e-03
1.7187500000000000e-01  0.0000000000000000e+00  4.9999999999999992e-03
2.0312500000000000e-01  0.0000000000000000e+00  4.9999999999999992e-03
2.3437500000000000e-01  0.0000000000000000e+00  4.9999999999999992e-03
2.6562499999999994e-01  0.0000000000000000e+00  4.9999999999999992e-03
2.9687500000000000e-01  0.0000000000000000e+00  4.9999999999999992e-03
3.2812500000000000e-01  0.0000000000000000e+00  4.9999999999999992e-03
3.5937500000000000e-01  0.0000000000000000e+00  4.9999999999999992e-03
3.9062500000000000e-01  0.0000000000000000e+00  4.9999999999999992e-03
4.2187500000000000e-01  0.0000000000000000e+00  4.9999999999999992e-03
4.5312499999999994e-01  0.0000000000000000e+00  4.9999999999999992e-03
4.8437500000000000e-01  0.0000000000000000e+00  4.9999999999999992e-03
5.1562499999999989e-01  0.0000000000000000e+00  4.9999999999999992e-03
5.4687500000000000e-01  0.0000000000000000e+00  4.9999999999999992e-03
5.7812500000000000e-01  0.0000000000000000e+00  4.9999999999999992e-03
6.0937499999999989e-01  0.0000000000000000e+00  4.9999999999999992e-03
6.4062500000000000e-01  0.0000000000000000e+00  4.9999999999999992e-03
6.7187500000000000e-01  0.0000000000000000e+00  4.9999999999999992e-03
7.0312500000000000e-01  0.0000000000000000e+00  4.9999999999999992e-03
7.3437499999999989e-01  0.0000000000000000e+00  4.9999999999999992e-03
7.6562500000000000e-01  0.0000000000000000e+00  4.9999999999999992e-03
7.9687500000000000e-01  0.0000000000000000e+00  4.9999999999999992e-03
8.2812500000000000e-01  0.0000000000000000e+00  4.9999999999999992e-03
8.5937500000000000e-01  0.0000000000000000e+00  4.9999999999999992e-03
8.9062499999999989e-01  0.0000000000000000e+00  4.9999999999999992e-03
9.2187499999999989e-01  0.0000000000000000e+00  4.9999999999999992e-03
9.5312500000000000e-01  0.0000000000000000e+00  4.9999999999999992e-03
9.8437500000000000e-01  0.0000000000000000e+00  4.9999999999999992e-03

CELLS 0 0


CELL_TYPES 0


POINT_DATA 32

VECTORS VertexNormals double

0.0000000000000000e+00 0.0000000000000000e+00 0.0000000000000000e+00 
0.0000000000000000e+00 0.0000000000000000e+00 0.0000000000000000e+00 
0.0000000000000000e+00 0.0000000000000000e+00 0.0000000000000000e+00 
0.0000000000000000e+00 0.0000000000000000e+00 0.0000000000000000e+00 
0.0000000000000000e+00 0.0000000000000000e+00 0.0000000000000000e+00 
0.0000000000000000e+00 0.0000000000000000e+00 0.0000000000000000e+00 
0.0000000000000000e+00 0.0000000000000000e+00 0.0000000000000000e+00 
0.0000000000000000e+00 0.0000000000000000e+00 0.0000000000000000e+00 
0.0000000000000000e+00 0.0000000000000000e+00 0.0000000000000000e+00 
0.0000000000000000e+00 0.0000000000000000e+00 0.0000000000000000e+00 
0.0000000000000000e+00 0.0000000000000000e+00 0.0000000000000000e+00 
0.0000000000000000e+00 0.0000000000000000e+00 0.0000000000000000e+00 
0.0000000000000000e+00 0.0000000000000000e+00 0.0000000000000000e+00 
0.0000000000000000e+00 0.0000000000000000e+00 0.0000000000000000e+00 
0.0000000000000000e+00 0.0000000000000000e+00 0.0000000000000000e+00 
0.0000000000000000e+00 0.0000000000000000e+00 0.0000000000000000e+00 
0.0000000000000000e+00 0.0000000000000000e+00 0.0000000000000000e+00 
0.0000000000000000e+00 0.0000000000000000e+00 0.0000000000000000e+00 
0.0000000000000000e+00 0.0000000000000000e+00 0.0000000000000000e+00 
0.0000000000000000e+00 0.0000000000000000e+00 0.0000000000000000e+00 
0.0000000000000000e+00 0.0000000000000000e+00 0.0000000000000000e+00 
0.0000000000000000e+00 0.0000000000000000e+00 0.0000000000000000e+00 
0.0000000000000000e+00 0.0000000000000000e+00 0.0000000000000000e+00 
0.0000000000000000e+00 0.0000000000000000e+00 0.0000000000000000e+00 
0.0000000000000000e+00 0.0000000000000000e+00 0.0000000000000000e+00 
0.0000000000000000e+00 0.0000000000000000e+00 0.0000000000000000e+00 
0.0000000000000000e+00 0.0000000000000000e+00 0.0000000000000000e+00 
0.0000000000000000e+00 0.0000000000000000e+00 0.0000000000000000e+00 
0.0000000000000000e+00 0.0000000000000000e+00 0.0000000000000000e+00 
0.0000000000000000e+00 0.0000000000000000e+00 0.0000000000000000e+00 
0.0000000000000000e+00 0.0000000000000000e+00 0.0000000000000000e+00 
0.0000000000000000e+00 0.0000000000000000e+00 0.0000000000000000e+00 

SCALARS Temperature double
LOOKUP_TABLE default
3.0263779976409830e+02
3.0304896876796408e+02
3.0324683851812324e+02
3.0340845617447849e+02
3.0353200713793433e+02
3.0362925318236853e+02
3.0370581902395185e+02
3.0376597688773779e+02
3.0381301327152420e+02
3.0384953246590931e+02
3.0387766982838070e+02
3.0389907430863417e+02
3.0391517385290246e+02
3.0392705050991344e+02
3.0393551957538608e+02
3.0394125990551254e+02
3.0394467605382755e+02
3.0394605721551915e+02
3.0394550766432383e+02
3.0394294957170985e+02
3.0393817571827555e+02
3.0393070185550971e+02
3.0391988905017752e+02
3.0390461516004905e+02
3.0388346867513599e+02
3.0385437444514685e+02
3.0381439540039310e+02
3.0375934973956373e+02
3.0368307825901167e+02
3.0357367745318021e+02
3.0342908253466908e+02
3.0309256925912484e+02

