# vtk DataFile Version 2.0

ASCII

DATASET UNSTRUCTURED_GRID

POINTS 32 float 

1.5624999999999997e-02  0.0000000000000000e+00  4.9999999999999992e-03
4.6875000000000000e-02  0.0000000000000000e+00  4.9999999999999992e-03
7.8125000000000000e-02  0.0000000000000000e+00  4.9999999999999992e-03
1.0937499999999999e-01  0.0000000000000000e+00  4.9999999999999992e-03
1.4062500000000000e-01  0.0000000000000000e+00  4.9999999999999992e-03
1.7187500000000000e-01  0.0000000000000000e+00  4.9999999999999992e-03
2.0312500000000000e-01  0.0000000000000000e+00  4.9999999999999992e-03
2.3437500000000000e-01  0.0000000000000000e+00  4.9999999999999992e-03
2.6562499999999994e-01  0.0000000000000000e+00  4.9999999999999992e-03
2.9687500000000000e-01  0.0000000000000000e+00  4.9999999999999992e-03
3.2812500000000000e-01  0.0000000000000000e+00  4.9999999999999992e-03
3.5937500000000000e-01  0.0000000000000000e+00  4.9999999999999992e-03
3.9062500000000000e-01  0.0000000000000000e+00  4.9999999999999992e-03
4.2187500000000000e-01  0.0000000000000000e+00  4.9999999999999992e-03
4.5312499999999994e-01  0.0000000000000000e+00  4.9999999999999992e-03
4.8437500000000000e-01  0.0000000000000000e+00  4.9999999999999992e-03
5.1562499999999989e-01  0.0000000000000000e+00  4.9999999999999992e-03
5.4687500000000000e-01  0.0000000000000000e+00  4.9999999999999992e-03
5.7812500000000000e-01  0.0000000000000000e+00  4.9999999999999992e-03
6.0937499999999989e-01  0.0000000000000000e+00  4.9999999999999992e-03
6.4062500000000000e-01  0.0000000000000000e+00  4.9999999999999992e-03
6.7187500000000000e-01  0.0000000000000000e+00  4.9999999999999992e-03
7.0312500000000000e-01  0.0000000000000000e+00  4.9999999999999992e-03
7.3437499999999989e-01  0.0000000000000000e+00  4.9999999999999992e-03
7.6562500000000000e-01  0.0000000000000000e+00  4.9999999999999992e-03
7.9687500000000000e-01  0.0000000000000000e+00  4.9999999999999992e-03
8.2812500000000000e-01  0.0000000000000000e+00  4.9999999999999992e-03
8.5937500000000000e-01  0.0000000000000000e+00  4.9999999999999992e-03
8.9062499999999989e-01  0.0000000000000000e+00  4.9999999999999992e-03
9.2187499999999989e-01  0.0000000000000000e+00  4.9999999999999992e-03
9.5312500000000000e-01  0.0000000000000000e+00  4.9999999999999992e-03
9.8437500000000000e-01  0.0000000000000000e+00  4.9999999999999992e-03

CELLS 0 0


CELL_TYPES 0


POINT_DATA 32

VECTORS VertexNormals float

0.0000000000000000e+00 0.0000000000000000e+00 0.0000000000000000e+00 
0.0000000000000000e+00 0.0000000000000000e+00 0.0000000000000000e+00 
0.0000000000000000e+00 0.0000000000000000e+00 0.0000000000000000e+00 
0.0000000000000000e+00 0.0000000000000000e+00 0.0000000000000000e+00 
0.0000000000000000e+00 0.0000000000000000e+00 0.0000000000000000e+00 
0.0000000000000000e+00 0.0000000000000000e+00 0.0000000000000000e+00 
0.0000000000000000e+00 0.0000000000000000e+00 0.0000000000000000e+00 
0.0000000000000000e+00 0.0000000000000000e+00 0.0000000000000000e+00 
0.0000000000000000e+00 0.0000000000000000e+00 0.0000000000000000e+00 
0.0000000000000000e+00 0.0000000000000000e+00 0.0000000000000000e+00 
0.0000000000000000e+00 0.0000000000000000e+00 0.0000000000000000e+00 
0.0000000000000000e+00 0.0000000000000000e+00 0.0000000000000000e+00 
0.0000000000000000e+00 0.0000000000000000e+00 0.0000000000000000e+00 
0.0000000000000000e+00 0.0000000000000000e+00 0.0000000000000000e+00 
0.0000000000000000e+00 0.0000000000000000e+00 0.0000000000000000e+00 
0.0000000000000000e+00 0.0000000000000000e+00 0.0000000000000000e+00 
0.0000000000000000e+00 0.0000000000000000e+00 0.0000000000000000e+00 
0.0000000000000000e+00 0.0000000000000000e+00 0.0000000000000000e+00 
0.0000000000000000e+00 0.0000000000000000e+00 0.0000000000000000e+00 
0.0000000000000000e+00 0.0000000000000000e+00 0.0000000000000000e+00 
0.0000000000000000e+00 0.0000000000000000e+00 0.0000000000000000e+00 
0.0000000000000000e+00 0.0000000000000000e+00 0.0000000000000000e+00 
0.0000000000000000e+00 0.0000000000000000e+00 0.0000000000000000e+00 
0.0000000000000000e+00 0.0000000000000000e+00 0.0000000000000000e+00 
0.0000000000000000e+00 0.0000000000000000e+00 0.0000000000000000e+00 
0.0000000000000000e+00 0.0000000000000000e+00 0.0000000000000000e+00 
0.0000000000000000e+00 0.0000000000000000e+00 0.0000000000000000e+00 
0.0000000000000000e+00 0.0000000000000000e+00 0.0000000000000000e+00 
0.0000000000000000e+00 0.0000000000000000e+00 0.0000000000000000e+00 
0.0000000000000000e+00 0.0000000000000000e+00 0.0000000000000000e+00 
0.0000000000000000e+00 0.0000000000000000e+00 0.0000000000000000e+00 
0.0000000000000000e+00 0.0000000000000000e+00 0.0000000000000000e+00 

SCALARS Temperature float
LOOKUP_TABLE default
3.0261459619530956e+02
3.0302358374021964e+02
3.0321951800425120e+02
3.0337916748157073e+02
3.0350075600682055e+02
3.0359606638574900e+02
3.0367077819607488e+02
3.0372920992068498e+02
3.0377468031396171e+02
3.0380981282830521e+02
3.0383674949006422e+02
3.0385713893916949e+02
3.0387239891360133e+02
3.0388359843299389e+02
3.0389153914546762e+02
3.0389688234037214e+02
3.0390002052343755e+02
3.0390123040434798e+02
3.0390060821573104e+02
3.0389807262273132e+02
3.0389341450523665e+02
3.0388615434971427e+02
3.0387565772208120e+02
3.0386081374599337e+02
3.0384021905836732e+02
3.0381180786605273e+02
3.0377264893751874e+02
3.0371855889915935e+02
3.0364336585451406e+02
3.0353513116568627e+02
3.0339170882104463e+02
3.0305625974469774e+02

