# vtk DataFile Version 2.0

ASCII

DATASET UNSTRUCTURED_GRID

POINTS 66 double 

0.0000000000000000e+00  0.0000000000000000e+00  0.0000000000000000e+00
0.0000000000000000e+00  0.0000000000000000e+00  1.0000000000000000e-02
3.1250000000000000e-02  0.0000000000000000e+00  1.0000000000000000e-02
3.1250000000000000e-02  0.0000000000000000e+00  0.0000000000000000e+00
6.2500000000000000e-02  0.0000000000000000e+00  1.0000000000000000e-02
6.2500000000000000e-02  0.0000000000000000e+00  0.0000000000000000e+00
9.3750000000000000e-02  0.0000000000000000e+00  1.0000000000000000e-02
9.3750000000000000e-02  0.0000000000000000e+00  0.0000000000000000e+00
1.2500000000000000e-01  0.0000000000000000e+00  1.0000000000000000e-02
1.2500000000000000e-01  0.0000000000000000e+00  0.0000000000000000e+00
1.5625000000000000e-01  0.0000000000000000e+00  1.0000000000000000e-02
1.5625000000000000e-01  0.0000000000000000e+00  0.0000000000000000e+00
1.8750000000000000e-01  0.0000000000000000e+00  1.0000000000000000e-02
1.8750000000000000e-01  0.0000000000000000e+00  0.0000000000000000e+00
2.1875000000000000e-01  0.0000000000000000e+00  1.0000000000000000e-02
2.1875000000000000e-01  0.0000000000000000e+00  0.0000000000000000e+00
2.5000000000000000e-01  0.0000000000000000e+00  1.0000000000000000e-02
2.5000000000000000e-01  0.0000000000000000e+00  0.0000000000000000e+00
2.8125000000000000e-01  0.0000000000000000e+00  1.0000000000000000e-02
2.8125000000000000e-01  0.0000000000000000e+00  0.0000000000000000e+00
3.1250000000000000e-01  0.0000000000000000e+00  1.0000000000000000e-02
3.1250000000000000e-01  0.0000000000000000e+00  0.0000000000000000e+00
3.4375000000000000e-01  0.0000000000000000e+00  1.0000000000000000e-02
3.4375000000000000e-01  0.0000000000000000e+00  0.0000000000000000e+00
3.7500000000000000e-01  0.0000000000000000e+00  1.0000000000000000e-02
3.7500000000000000e-01  0.0000000000000000e+00  0.0000000000000000e+00
4.0625000000000000e-01  0.0000000000000000e+00  1.0000000000000000e-02
4.0625000000000000e-01  0.0000000000000000e+00  0.0000000000000000e+00
4.3750000000000000e-01  0.0000000000000000e+00  1.0000000000000000e-02
4.3750000000000000e-01  0.0000000000000000e+00  0.0000000000000000e+00
4.6875000000000000e-01  0.0000000000000000e+00  1.0000000000000000e-02
4.6875000000000000e-01  0.0000000000000000e+00  0.0000000000000000e+00
5.0000000000000000e-01  0.0000000000000000e+00  1.0000000000000000e-02
5.0000000000000000e-01  0.0000000000000000e+00  0.0000000000000000e+00
5.3125000000000000e-01  0.0000000000000000e+00  1.0000000000000000e-02
5.3125000000000000e-01  0.0000000000000000e+00  0.0000000000000000e+00
5.6250000000000000e-01  0.0000000000000000e+00  1.0000000000000000e-02
5.6250000000000000e-01  0.0000000000000000e+00  0.0000000000000000e+00
5.9375000000000000e-01  0.0000000000000000e+00  1.0000000000000000e-02
5.9375000000000000e-01  0.0000000000000000e+00  0.0000000000000000e+00
6.2500000000000000e-01  0.0000000000000000e+00  1.0000000000000000e-02
6.2500000000000000e-01  0.0000000000000000e+00  0.0000000000000000e+00
6.5625000000000000e-01  0.0000000000000000e+00  1.0000000000000000e-02
6.5625000000000000e-01  0.0000000000000000e+00  0.0000000000000000e+00
6.8750000000000000e-01  0.0000000000000000e+00  1.0000000000000000e-02
6.8750000000000000e-01  0.0000000000000000e+00  0.0000000000000000e+00
7.1875000000000000e-01  0.0000000000000000e+00  1.0000000000000000e-02
7.1875000000000000e-01  0.0000000000000000e+00  0.0000000000000000e+00
7.5000000000000000e-01  0.0000000000000000e+00  1.0000000000000000e-02
7.5000000000000000e-01  0.0000000000000000e+00  0.0000000000000000e+00
7.8125000000000000e-01  0.0000000000000000e+00  1.0000000000000000e-02
7.8125000000000000e-01  0.0000000000000000e+00  0.0000000000000000e+00
8.1250000000000000e-01  0.0000000000000000e+00  1.0000000000000000e-02
8.1250000000000000e-01  0.0000000000000000e+00  0.0000000000000000e+00
8.4375000000000000e-01  0.0000000000000000e+00  1.0000000000000000e-02
8.4375000000000000e-01  0.0000000000000000e+00  0.0000000000000000e+00
8.7500000000000000e-01  0.0000000000000000e+00  1.0000000000000000e-02
8.7500000000000000e-01  0.0000000000000000e+00  0.0000000000000000e+00
9.0625000000000000e-01  0.0000000000000000e+00  1.0000000000000000e-02
9.0625000000000000e-01  0.0000000000000000e+00  0.0000000000000000e+00
9.3750000000000000e-01  0.0000000000000000e+00  1.0000000000000000e-02
9.3750000000000000e-01  0.0000000000000000e+00  0.0000000000000000e+00
9.6875000000000000e-01  0.0000000000000000e+00  1.0000000000000000e-02
9.6875000000000000e-01  0.0000000000000000e+00  0.0000000000000000e+00
1.0000000000000000e+00  0.0000000000000000e+00  1.0000000000000000e-02
1.0000000000000000e+00  0.0000000000000000e+00  0.0000000000000000e+00

CELLS 64 256

3 0 1 2 
3 2 3 0 
3 3 2 4 
3 4 5 3 
3 5 4 6 
3 6 7 5 
3 7 6 8 
3 8 9 7 
3 9 8 10 
3 10 11 9 
3 11 10 12 
3 12 13 11 
3 13 12 14 
3 14 15 13 
3 15 14 16 
3 16 17 15 
3 17 16 18 
3 18 19 17 
3 19 18 20 
3 20 21 19 
3 21 20 22 
3 22 23 21 
3 23 22 24 
3 24 25 23 
3 25 24 26 
3 26 27 25 
3 27 26 28 
3 28 29 27 
3 29 28 30 
3 30 31 29 
3 31 30 32 
3 32 33 31 
3 33 32 34 
3 34 35 33 
3 35 34 36 
3 36 37 35 
3 37 36 38 
3 38 39 37 
3 39 38 40 
3 40 41 39 
3 41 40 42 
3 42 43 41 
3 43 42 44 
3 44 45 43 
3 45 44 46 
3 46 47 45 
3 47 46 48 
3 48 49 47 
3 49 48 50 
3 50 51 49 
3 51 50 52 
3 52 53 51 
3 53 52 54 
3 54 55 53 
3 55 54 56 
3 56 57 55 
3 57 56 58 
3 58 59 57 
3 59 58 60 
3 60 61 59 
3 61 60 62 
3 62 63 61 
3 63 62 64 
3 64 65 63 

CELL_TYPES 64

5
5
5
5
5
5
5
5
5
5
5
5
5
5
5
5
5
5
5
5
5
5
5
5
5
5
5
5
5
5
5
5
5
5
5
5
5
5
5
5
5
5
5
5
5
5
5
5
5
5
5
5
5
5
5
5
5
5
5
5
5
5
5
5

POINT_DATA 66

VECTORS VertexNormals double

0.0000000000000000e+00 1.0000000000000000e+00 0.0000000000000000e+00 
0.0000000000000000e+00 1.0000000000000000e+00 0.0000000000000000e+00 
0.0000000000000000e+00 1.0000000000000000e+00 0.0000000000000000e+00 
0.0000000000000000e+00 1.0000000000000000e+00 0.0000000000000000e+00 
0.0000000000000000e+00 1.0000000000000000e+00 0.0000000000000000e+00 
0.0000000000000000e+00 1.0000000000000000e+00 0.0000000000000000e+00 
0.0000000000000000e+00 1.0000000000000000e+00 0.0000000000000000e+00 
0.0000000000000000e+00 1.0000000000000000e+00 0.0000000000000000e+00 
0.0000000000000000e+00 1.0000000000000000e+00 0.0000000000000000e+00 
0.0000000000000000e+00 1.0000000000000000e+00 0.0000000000000000e+00 
0.0000000000000000e+00 1.0000000000000000e+00 0.0000000000000000e+00 
0.0000000000000000e+00 1.0000000000000000e+00 0.0000000000000000e+00 
0.0000000000000000e+00 1.0000000000000000e+00 0.0000000000000000e+00 
0.0000000000000000e+00 1.0000000000000000e+00 0.0000000000000000e+00 
0.0000000000000000e+00 1.0000000000000000e+00 0.0000000000000000e+00 
0.0000000000000000e+00 1.0000000000000000e+00 0.0000000000000000e+00 
0.0000000000000000e+00 1.0000000000000000e+00 0.0000000000000000e+00 
0.0000000000000000e+00 1.0000000000000000e+00 0.0000000000000000e+00 
0.0000000000000000e+00 1.0000000000000000e+00 0.0000000000000000e+00 
0.0000000000000000e+00 1.0000000000000000e+00 0.0000000000000000e+00 
0.0000000000000000e+00 1.0000000000000000e+00 0.0000000000000000e+00 
0.0000000000000000e+00 1.0000000000000000e+00 0.0000000000000000e+00 
0.0000000000000000e+00 1.0000000000000000e+00 0.0000000000000000e+00 
0.0000000000000000e+00 1.0000000000000000e+00 0.0000000000000000e+00 
0.0000000000000000e+00 1.0000000000000000e+00 0.0000000000000000e+00 
0.0000000000000000e+00 1.0000000000000000e+00 0.0000000000000000e+00 
0.0000000000000000e+00 1.0000000000000000e+00 0.0000000000000000e+00 
0.0000000000000000e+00 1.0000000000000000e+00 0.0000000000000000e+00 
0.0000000000000000e+00 1.0000000000000000e+00 0.0000000000000000e+00 
0.0000000000000000e+00 1.0000000000000000e+00 0.0000000000000000e+00 
0.0000000000000000e+00 1.0000000000000000e+00 0.0000000000000000e+00 
0.0000000000000000e+00 1.0000000000000000e+00 0.0000000000000000e+00 
0.0000000000000000e+00 1.0000000000000000e+00 0.0000000000000000e+00 
0.0000000000000000e+00 1.0000000000000000e+00 0.0000000000000000e+00 
0.0000000000000000e+00 1.0000000000000000e+00 0.0000000000000000e+00 
0.0000000000000000e+00 1.0000000000000000e+00 0.0000000000000000e+00 
0.0000000000000000e+00 1.0000000000000000e+00 0.0000000000000000e+00 
0.0000000000000000e+00 1.0000000000000000e+00 0.0000000000000000e+00 
0.0000000000000000e+00 1.0000000000000000e+00 0.0000000000000000e+00 
0.0000000000000000e+00 1.0000000000000000e+00 0.0000000000000000e+00 
0.0000000000000000e+00 1.0000000000000000e+00 0.0000000000000000e+00 
0.0000000000000000e+00 1.0000000000000000e+00 0.0000000000000000e+00 
0.0000000000000000e+00 1.0000000000000000e+00 0.0000000000000000e+00 
0.0000000000000000e+00 1.0000000000000000e+00 0.0000000000000000e+00 
0.0000000000000000e+00 1.0000000000000000e+00 0.0000000000000000e+00 
0.0000000000000000e+00 1.0000000000000000e+00 0.0000000000000000e+00 
0.0000000000000000e+00 1.0000000000000000e+00 0.0000000000000000e+00 
0.0000000000000000e+00 1.0000000000000000e+00 0.0000000000000000e+00 
0.0000000000000000e+00 1.0000000000000000e+00 0.0000000000000000e+00 
0.0000000000000000e+00 1.0000000000000000e+00 0.0000000000000000e+00 
0.0000000000000000e+00 1.0000000000000000e+00 0.0000000000000000e+00 
0.0000000000000000e+00 1.0000000000000000e+00 0.0000000000000000e+00 
0.0000000000000000e+00 1.0000000000000000e+00 0.0000000000000000e+00 
0.0000000000000000e+00 1.0000000000000000e+00 0.0000000000000000e+00 
0.0000000000000000e+00 1.0000000000000000e+00 0.0000000000000000e+00 
0.0000000000000000e+00 1.0000000000000000e+00 0.0000000000000000e+00 
0.0000000000000000e+00 1.0000000000000000e+00 0.0000000000000000e+00 
0.0000000000000000e+00 1.0000000000000000e+00 0.0000000000000000e+00 
0.0000000000000000e+00 1.0000000000000000e+00 0.0000000000000000e+00 
0.0000000000000000e+00 1.0000000000000000e+00 0.0000000000000000e+00 
0.0000000000000000e+00 1.0000000000000000e+00 0.0000000000000000e+00 
0.0000000000000000e+00 1.0000000000000000e+00 0.0000000000000000e+00 
0.0000000000000000e+00 1.0000000000000000e+00 0.0000000000000000e+00 
0.0000000000000000e+00 1.0000000000000000e+00 0.0000000000000000e+00 
0.0000000000000000e+00 1.0000000000000000e+00 0.0000000000000000e+00 
0.0000000000000000e+00 1.0000000000000000e+00 0.0000000000000000e+00 

SCALARS Heat-Flux double
LOOKUP_TABLE default
4.1198612386280738e+03
4.1198612386280738e+03
3.4253887584050972e+03
3.4253887584050972e+03
2.6888618561119079e+03
2.6888618561119079e+03
2.5922698824040713e+03
2.5922698824040713e+03
2.5134108825895973e+03
2.5134108825895973e+03
2.4748561961503592e+03
2.4748561961503592e+03
2.4529868792651550e+03
2.4529868792651550e+03
2.4416837881130059e+03
2.4416837881130059e+03
2.4367609821423694e+03
2.4367609821423694e+03
2.4356967963347424e+03
2.4356967963347424e+03
2.4368056175633692e+03
2.4368056175633692e+03
2.4390775020947340e+03
2.4390775020947340e+03
2.4418173247740933e+03
2.4418173247740933e+03
2.4444658105923745e+03
2.4444658105923745e+03
2.4468262425401927e+03
2.4468262425401927e+03
2.4486816004256989e+03
2.4486816004256989e+03
2.4499060522579393e+03
2.4499060522579393e+03
2.4504718007523488e+03
2.4504718007523488e+03
2.4502824611525293e+03
2.4502824611525293e+03
2.4493339913293321e+03
2.4493339913293321e+03
2.4475471184265198e+03
2.4475471184265198e+03
2.4449111891906805e+03
2.4449111891906805e+03
2.4413622584488630e+03
2.4413622584488630e+03
2.4370423944110380e+03
2.4370423944110380e+03
2.4323020407460726e+03
2.4323020407460726e+03
2.4276596209441786e+03
2.4276596209441786e+03
2.4244956132719390e+03
2.4244956132719390e+03
2.4254724945065400e+03
2.4254724945065400e+03
2.4354835809994265e+03
2.4354835809994265e+03
2.4745862083018446e+03
2.4745862083018446e+03
2.5252298015551796e+03
2.5252298015551796e+03
3.1306546084233528e+03
3.1306546084233528e+03
3.7164866224404259e+03
3.7164866224404259e+03

