# vtk DataFile Version 2.0

ASCII

DATASET UNSTRUCTURED_GRID

POINTS 32 float 

1.5624999999999997e-02  0.0000000000000000e+00  4.9999999999999992e-03
4.6875000000000000e-02  0.0000000000000000e+00  4.9999999999999992e-03
7.8125000000000000e-02  0.0000000000000000e+00  4.9999999999999992e-03
1.0937499999999999e-01  0.0000000000000000e+00  4.9999999999999992e-03
1.4062500000000000e-01  0.0000000000000000e+00  4.9999999999999992e-03
1.7187500000000000e-01  0.0000000000000000e+00  4.9999999999999992e-03
2.0312500000000000e-01  0.0000000000000000e+00  4.9999999999999992e-03
2.3437500000000000e-01  0.0000000000000000e+00  4.9999999999999992e-03
2.6562499999999994e-01  0.0000000000000000e+00  4.9999999999999992e-03
2.9687500000000000e-01  0.0000000000000000e+00  4.9999999999999992e-03
3.2812500000000000e-01  0.0000000000000000e+00  4.9999999999999992e-03
3.5937500000000000e-01  0.0000000000000000e+00  4.9999999999999992e-03
3.9062500000000000e-01  0.0000000000000000e+00  4.9999999999999992e-03
4.2187500000000000e-01  0.0000000000000000e+00  4.9999999999999992e-03
4.5312499999999994e-01  0.0000000000000000e+00  4.9999999999999992e-03
4.8437500000000000e-01  0.0000000000000000e+00  4.9999999999999992e-03
5.1562499999999989e-01  0.0000000000000000e+00  4.9999999999999992e-03
5.4687500000000000e-01  0.0000000000000000e+00  4.9999999999999992e-03
5.7812500000000000e-01  0.0000000000000000e+00  4.9999999999999992e-03
6.0937499999999989e-01  0.0000000000000000e+00  4.9999999999999992e-03
6.4062500000000000e-01  0.0000000000000000e+00  4.9999999999999992e-03
6.7187500000000000e-01  0.0000000000000000e+00  4.9999999999999992e-03
7.0312500000000000e-01  0.0000000000000000e+00  4.9999999999999992e-03
7.3437499999999989e-01  0.0000000000000000e+00  4.9999999999999992e-03
7.6562500000000000e-01  0.0000000000000000e+00  4.9999999999999992e-03
7.9687500000000000e-01  0.0000000000000000e+00  4.9999999999999992e-03
8.2812500000000000e-01  0.0000000000000000e+00  4.9999999999999992e-03
8.5937500000000000e-01  0.0000000000000000e+00  4.9999999999999992e-03
8.9062499999999989e-01  0.0000000000000000e+00  4.9999999999999992e-03
9.2187499999999989e-01  0.0000000000000000e+00  4.9999999999999992e-03
9.5312500000000000e-01  0.0000000000000000e+00  4.9999999999999992e-03
9.8437500000000000e-01  0.0000000000000000e+00  4.9999999999999992e-03

CELLS 0 0


CELL_TYPES 0


POINT_DATA 32

VECTORS VertexNormals float

0.0000000000000000e+00 0.0000000000000000e+00 0.0000000000000000e+00 
0.0000000000000000e+00 0.0000000000000000e+00 0.0000000000000000e+00 
0.0000000000000000e+00 0.0000000000000000e+00 0.0000000000000000e+00 
0.0000000000000000e+00 0.0000000000000000e+00 0.0000000000000000e+00 
0.0000000000000000e+00 0.0000000000000000e+00 0.0000000000000000e+00 
0.0000000000000000e+00 0.0000000000000000e+00 0.0000000000000000e+00 
0.0000000000000000e+00 0.0000000000000000e+00 0.0000000000000000e+00 
0.0000000000000000e+00 0.0000000000000000e+00 0.0000000000000000e+00 
0.0000000000000000e+00 0.0000000000000000e+00 0.0000000000000000e+00 
0.0000000000000000e+00 0.0000000000000000e+00 0.0000000000000000e+00 
0.0000000000000000e+00 0.0000000000000000e+00 0.0000000000000000e+00 
0.0000000000000000e+00 0.0000000000000000e+00 0.0000000000000000e+00 
0.0000000000000000e+00 0.0000000000000000e+00 0.0000000000000000e+00 
0.0000000000000000e+00 0.0000000000000000e+00 0.0000000000000000e+00 
0.0000000000000000e+00 0.0000000000000000e+00 0.0000000000000000e+00 
0.0000000000000000e+00 0.0000000000000000e+00 0.0000000000000000e+00 
0.0000000000000000e+00 0.0000000000000000e+00 0.0000000000000000e+00 
0.0000000000000000e+00 0.0000000000000000e+00 0.0000000000000000e+00 
0.0000000000000000e+00 0.0000000000000000e+00 0.0000000000000000e+00 
0.0000000000000000e+00 0.0000000000000000e+00 0.0000000000000000e+00 
0.0000000000000000e+00 0.0000000000000000e+00 0.0000000000000000e+00 
0.0000000000000000e+00 0.0000000000000000e+00 0.0000000000000000e+00 
0.0000000000000000e+00 0.0000000000000000e+00 0.0000000000000000e+00 
0.0000000000000000e+00 0.0000000000000000e+00 0.0000000000000000e+00 
0.0000000000000000e+00 0.0000000000000000e+00 0.0000000000000000e+00 
0.0000000000000000e+00 0.0000000000000000e+00 0.0000000000000000e+00 
0.0000000000000000e+00 0.0000000000000000e+00 0.0000000000000000e+00 
0.0000000000000000e+00 0.0000000000000000e+00 0.0000000000000000e+00 
0.0000000000000000e+00 0.0000000000000000e+00 0.0000000000000000e+00 
0.0000000000000000e+00 0.0000000000000000e+00 0.0000000000000000e+00 
0.0000000000000000e+00 0.0000000000000000e+00 0.0000000000000000e+00 
0.0000000000000000e+00 0.0000000000000000e+00 0.0000000000000000e+00 

SCALARS Temperature float
LOOKUP_TABLE default
3.0163944547704591e+02
3.0185137765783401e+02
3.0187028519898661e+02
3.0187781124273221e+02
3.0187978839481593e+02
3.0188065963778712e+02
3.0188105746717429e+02
3.0188126692880337e+02
3.0188138104045822e+02
3.0188144619158817e+02
3.0188148113779744e+02
3.0188149542388430e+02
3.0188150118038391e+02
3.0188150202114440e+02
3.0188149803963449e+02
3.0188149258825729e+02
3.0188148708214470e+02
3.0188147619534914e+02
3.0188146706713229e+02
3.0188145531675639e+02
3.0188144077719778e+02
3.0188142073270461e+02
3.0188138800229081e+02
3.0188133659820596e+02
3.0188124654649812e+02
3.0188108528170812e+02
3.0188078345848226e+02
3.0188014556171794e+02
3.0187871007754302e+02
3.0187344552465265e+02
3.0186029929688215e+02
3.0169575749617013e+02

