/*--------------------------------*- C++ -*----------------------------------*\
| =========                 |                                                 |
| \\      /  F ield         | OpenFOAM: The Open Source CFD Toolbox           |
|  \\    /   O peration     | Version:  2006                                  |
|   \\  /    A nd           | Website:  www.openfoam.com                      |
|    \\/     M anipulation  |                                                 |
\*---------------------------------------------------------------------------*/
FoamFile
{
    version     2.0;
    format      ascii;
    class       surfaceVectorField;
    location    "7.3";
    object      Uf;
}
// * * * * * * * * * * * * * * * * * * * * * * * * * * * * * * * * * * * * * //

dimensions      [0 1 -1 0 0 0 0];


internalField   nonuniform List<vector> 
5457
(
(9.92088 0.0251095 0)
(9.97125 0.0387457 0)
(9.82401 0.0328268 0)
(9.92859 0.0485851 0)
(9.70961 0.039312 0)
(9.85548 0.058768 0)
(9.57544 0.0460116 0)
(9.7568 0.0705933 0)
(9.42138 0.052949 0)
(9.63753 0.0830135 0)
(9.24755 0.0601664 0)
(9.49861 0.0959367 0)
(9.05362 0.0678112 0)
(9.3393 0.109613 0)
(8.83892 0.076035 0)
(9.15874 0.12429 0)
(8.60252 0.0849709 0)
(8.95609 0.140168 0)
(8.34326 0.0947459 0)
(8.73038 0.157435 0)
(8.05984 0.105488 0)
(8.4804 0.176272 0)
(7.75079 0.117329 0)
(8.20476 0.19686 0)
(7.41454 0.130398 0)
(7.90194 0.219365 0)
(7.04948 0.144813 0)
(7.57029 0.243928 0)
(6.65401 0.160676 0)
(7.20816 0.270638 0)
(6.22668 0.178048 0)
(6.81397 0.299507 0)
(5.76639 0.196932 0)
(6.3863 0.330421 0)
(5.27253 0.217238 0)
(5.92413 0.363092 0)
(4.74533 0.23874 0)
(5.42706 0.396984 0)
(4.18615 0.261037 0)
(4.89561 0.431244 0)
(3.59792 0.283492 0)
(4.33159 0.464626 0)
(2.9855 0.305205 0)
(3.73855 0.49543 0)
(2.35606 0.325071 0)
(3.12222 0.521515 0)
(1.71905 0.342549 0)
(2.49101 0.540558 0)
(1.0843 0.361882 0)
(1.8558 0.551672 0)
(0.451787 0.348671 0)
(1.24543 0.563019 0)
(-0.14587 0.102446 0)
(0.608861 0.544864 0)
(-0.423632 -0.207098 0)
(0.0946464 0.259352 0)
(-0.40216 -0.361254 0)
(-0.133698 -0.0205335 0)
(-0.119681 -0.393891 0)
(9.99641 0.0516723 0)
(9.99705 0.0405045 0)
(9.95879 0.0708614 0)
(9.97851 0.0674542 0)
(9.89824 0.0879867 0)
(9.93377 0.0898697 0)
(9.81659 0.105985 0)
(9.86453 0.113555 0)
(9.71359 0.124922 0)
(9.77438 0.138515 0)
(9.58909 0.144854 0)
(9.66435 0.164646 0)
(9.44274 0.166091 0)
(9.53397 0.192333 0)
(9.2739 0.188969 0)
(9.3825 0.222032 0)
(9.08166 0.213785 0)
(9.20919 0.254151 0)
(8.86489 0.240818 0)
(9.01316 0.289067 0)
(8.62229 0.270341 0)
(8.79331 0.327157 0)
(8.35238 0.302612 0)
(8.54835 0.368792 0)
(8.05354 0.337864 0)
(8.27682 0.414324 0)
(7.7241 0.37627 0)
(7.97715 0.464056 0)
(7.36234 0.417911 0)
(7.64769 0.5182 0)
(6.96669 0.462718 0)
(7.2868 0.576819 0)
(6.53579 0.510397 0)
(6.89292 0.63974 0)
(6.06878 0.560344 0)
(6.46477 0.706442 0)
(5.56554 0.611531 0)
(6.00155 0.775924 0)
(5.02705 0.662394 0)
(5.50321 0.846538 0)
(4.45582 0.710716 0)
(4.97083 0.915818 0)
(3.85643 0.753545 0)
(4.40712 0.980316 0)
(3.23613 0.787198 0)
(3.81698 1.03546 0)
(2.60576 0.807499 0)
(3.2084 1.07549 0)
(1.98274 0.810462 0)
(2.59333 1.09314 0)
(1.40524 0.776886 0)
(1.99615 1.07707 0)
(0.929709 0.646383 0)
(1.41945 0.978389 0)
(0.439816 0.384314 0)
(0.93754 0.716775 0)
(0.0591527 -0.118635 0)
(0.443755 0.343497 0)
(0.174913 -0.335955 0)
(9.98903 0.0594306 0)
(9.99481 0.0458773 0)
(9.95434 0.0894762 0)
(9.97368 0.0848539 0)
(9.89729 0.118031 0)
(9.92984 0.119173 0)
(9.82047 0.147898 0)
(9.86357 0.153976 0)
(9.72416 0.179422 0)
(9.77736 0.190408 0)
(9.60821 0.212776 0)
(9.67227 0.228637 0)
(9.47234 0.248394 0)
(9.5481 0.26913 0)
(9.31607 0.286776 0)
(9.40432 0.312498 0)
(9.13868 0.3284 0)
(9.24034 0.359328 0)
(8.93924 0.373726 0)
(9.05549 0.410178 0)
(8.71664 0.423211 0)
(8.84889 0.465604 0)
(8.46959 0.477302 0)
(8.6195 0.52616 0)
(8.19666 0.536407 0)
(8.36614 0.592381 0)
(7.8963 0.600851 0)
(8.0875 0.664748 0)
(7.56689 0.670821 0)
(7.78217 0.74363 0)
(7.2068 0.746268 0)
(7.44871 0.829203 0)
(6.81453 0.826794 0)
(7.08565 0.921333 0)
(6.38883 0.911495 0)
(6.69167 1.01942 0)
(5.92899 0.99877 0)
(6.26567 1.12219 0)
(5.43509 1.0861 0)
(5.80707 1.22744 0)
(4.90849 1.16983 0)
(5.31602 1.33176 0)
(4.35237 1.2449 0)
(4.79392 1.4302 0)
(3.77253 1.30455 0)
(4.24392 1.51588 0)
(3.17867 1.33984 0)
(3.67176 1.57943 0)
(2.58658 1.33811 0)
(3.08627 1.60774 0)
(2.01982 1.27296 0)
(2.50288 1.58157 0)
(1.48691 1.09539 0)
(1.9287 1.46423 0)
(0.958272 0.769143 0)
(1.38522 1.21037 0)
(0.479863 0.202417 0)
(0.829522 0.801002 0)
(0.433721 0.134041 0)
(9.98515 0.0716135 0)
(9.99367 0.0531476 0)
(9.95039 0.11363 0)
(9.97087 0.10229 0)
(9.89437 0.154133 0)
(9.92691 0.147953 0)
(9.81882 0.195573 0)
(9.86185 0.193721 0)
(9.72442 0.238811 0)
(9.77746 0.241277 0)
(9.61112 0.284325 0)
(9.67467 0.291164 0)
(9.47874 0.332722 0)
(9.55343 0.343957 0)
(9.32695 0.384677 0)
(9.41336 0.400374 0)
(9.15523 0.44085 0)
(9.254 0.461143 0)
(8.96291 0.501889 0)
(9.07483 0.526966 0)
(8.74916 0.568435 0)
(8.87519 0.598543 0)
(8.51303 0.641121 0)
(8.65429 0.676571 0)
(8.25345 0.720541 0)
(8.41121 0.761732 0)
(7.96924 0.807202 0)
(8.14498 0.854649 0)
(7.65915 0.901451 0)
(7.85452 0.955834 0)
(7.32189 1.00336 0)
(7.53872 1.06559 0)
(6.95617 1.11259 0)
(7.19643 1.18386 0)
(6.5608 1.22815 0)
(6.82649 1.3101 0)
(6.13484 1.34818 0)
(6.42785 1.44294 0)
(5.67779 1.46961 0)
(5.99962 1.57992 0)
(5.18994 1.58778 0)
(5.54129 1.7171 0)
(4.67281 1.69603 0)
(5.053 1.84855 0)
(4.12974 1.78515 0)
(4.5359 1.96584 0)
(3.5666 1.84252 0)
(3.99267 2.0573 0)
(2.992 1.85071 0)
(3.42754 2.10713 0)
(2.4158 1.78246 0)
(2.84758 2.09446 0)
(1.84051 1.60042 0)
(2.25619 1.9887 0)
(1.25936 1.27839 0)
(1.66028 1.753 0)
(0.666763 0.789494 0)
(1.02394 1.36771 0)
(0.523028 0.787094 0)
(9.98337 0.0844069 0)
(9.99316 0.061291 0)
(9.94821 0.136836 0)
(9.96958 0.119926 0)
(9.89315 0.188031 0)
(9.92575 0.176239 0)
(9.81906 0.240168 0)
(9.86199 0.232697 0)
(9.72663 0.294467 0)
(9.77964 0.291086 0)
(9.6159 0.351659 0)
(9.6794 0.352274 0)
(9.48671 0.412471 0)
(9.56128 0.416977 0)
(9.33879 0.477678 0)
(9.42497 0.48601 0)
(9.17171 0.548054 0)
(9.27009 0.560207 0)
(8.98492 0.624359 0)
(9.0962 0.640391 0)
(8.77778 0.70735 0)
(8.90274 0.727374 0)
(8.54953 0.797773 0)
(8.68906 0.821965 0)
(8.29934 0.896337 0)
(8.45443 0.924953 0)
(8.02633 1.00367 0)
(8.19806 1.03707 0)
(7.72955 1.12022 0)
(7.9191 1.15893 0)
(7.40802 1.24618 0)
(7.61666 1.29094 0)
(7.06073 1.38129 0)
(7.28982 1.43317 0)
(6.68665 1.52461 0)
(6.93759 1.58513 0)
(6.2848 1.67421 0)
(6.55894 1.74553 0)
(5.85433 1.82681 0)
(6.15282 1.91191 0)
(5.39465 1.97727 0)
(5.71816 2.08018 0)
(4.90569 2.11806 0)
(5.25401 2.2441 0)
(4.38819 2.23861 0)
(4.75967 2.39461 0)
(3.84388 2.32453 0)
(4.23488 2.51919 0)
(3.27538 2.35693 0)
(3.67982 2.60122 0)
(2.68534 2.31056 0)
(3.09566 2.61967 0)
(2.07265 2.15496 0)
(2.48164 2.54727 0)
(1.42935 1.86734 0)
(1.83988 2.35366 0)
(0.742597 1.41951 0)
(1.13134 2.02446 0)
(0.543295 1.51442 0)
(9.98264 0.0974969 0)
(9.99299 0.0697922 0)
(9.94744 0.159774 0)
(9.96925 0.137582 0)
(9.89354 0.221346 0)
(9.92597 0.203925 0)
(9.82134 0.284091 0)
(9.86381 0.270686 0)
(9.73134 0.349347 0)
(9.78386 0.339581 0)
(9.62367 0.418018 0)
(9.68665 0.411696 0)
(9.49819 0.490938 0)
(9.57218 0.487902 0)
(9.35465 0.568976 0)
(9.44022 0.569105 0)
(9.19269 0.653007 0)
(9.29043 0.656236 0)
(9.01183 0.743903 0)
(9.12242 0.750218 0)
(8.81151 0.842524 0)
(8.93571 0.851964 0)
(8.59108 0.94972 0)
(8.72972 0.962376 0)
(8.34984 1.0663 0)
(8.50381 1.08234 0)
(8.08704 1.19298 0)
(8.25727 1.21266 0)
(7.8019 1.33033 0)
(7.98936 1.35407 0)
(7.49357 1.47862 0)
(7.69927 1.50705 0)
(7.16115 1.63771 0)
(7.38614 1.67179 0)
(6.80368 1.80678 0)
(7.04899 1.84795 0)
(6.42006 1.984 0)
(6.6867 2.03439 0)
(6.00907 2.16616 0)
(6.29796 2.22887 0)
(5.56934 2.34813 0)
(5.88113 2.42751 0)
(5.09939 2.52222 0)
(5.43427 2.62428 0)
(4.59767 2.67757 0)
(4.95504 2.81031 0)
(4.06263 2.79948 0)
(4.44077 2.97322 0)
(3.49263 2.86908 0)
(3.88844 3.09661 0)
(2.88577 2.86288 0)
(3.29516 3.15986 0)
(2.23796 2.75387 0)
(2.65683 3.13785 0)
(1.5424 2.52096 0)
(1.97479 3.00312 0)
(0.793629 2.13126 0)
(1.20721 2.74051 0)
(0.556722 2.29173 0)
(9.9825 0.110625 0)
(9.99302 0.0783606 0)
(9.94771 0.182323 0)
(9.96954 0.155036 0)
(9.89523 0.253815 0)
(9.92722 0.230884 0)
(9.82524 0.326765 0)
(9.86697 0.307506 0)
(9.73813 0.402553 0)
(9.78978 0.38652 0)
(9.63404 0.482232 0)
(9.69606 0.469146 0)
(9.51286 0.566757 0)
(9.58579 0.556396 0)
(9.37438 0.657094 0)
(9.4588 0.649271 0)
(9.21828 0.754216 0)
(9.31481 0.748789 0)
(9.04414 0.85909 0)
(9.15347 0.855967 0)
(8.85145 0.972671 0)
(8.97434 0.971808 0)
(8.63962 1.0959 0)
(8.77691 1.09731 0)
(8.40802 1.22966 0)
(8.56058 1.23343 0)
(8.15594 1.37477 0)
(8.32469 1.3811 0)
(7.88262 1.53189 0)
(8.06851 1.54111 0)
(7.58725 1.70141 0)
(7.79123 1.71408 0)
(7.26886 1.88333 0)
(7.49193 1.90034 0)
(6.92638 2.07701 0)
(7.16951 2.09974 0)
(6.55846 2.28089 0)
(6.82261 2.31143 0)
(6.16341 2.49209 0)
(6.44954 2.53353 0)
(5.73906 2.70587 0)
(6.04803 2.76269 0)
(5.28266 2.91501 0)
(5.61517 2.9935 0)
(4.79075 3.10917 0)
(5.14716 3.21787 0)
(4.25922 3.27419 0)
(4.6393 3.42428 0)
(3.68331 3.39183 0)
(4.08597 3.59713 0)
(3.05797 3.43964 0)
(3.48123 3.7165 0)
(2.37767 3.39172 0)
(2.81829 3.75806 0)
(1.63786 3.22608 0)
(2.09909 3.69389 0)
(0.839106 2.90074 0)
(1.27888 3.50437 0)
(0.573341 3.11359 0)
(9.98273 0.12358 0)
(9.99316 0.0868164 0)
(9.94873 0.204307 0)
(9.97027 0.172091 0)
(9.89794 0.285249 0)
(9.92927 0.256972 0)
(9.83051 0.367962 0)
(9.87124 0.342985 0)
(9.74671 0.453849 0)
(9.79716 0.431675 0)
(9.64669 0.544075 0)
(9.70735 0.524348 0)
(9.53039 0.639706 0)
(9.60181 0.622133 0)
(9.39763 0.7418 0)
(9.48039 0.726125 0)
(9.24813 0.851418 0)
(9.34287 0.837426 0)
(9.08153 0.969613 0)
(9.18895 0.957136 0)
(8.89737 1.09743 0)
(9.01825 1.08635 0)
(8.6951 1.2359 0)
(8.8303 1.22615 0)
(8.47413 1.386 0)
(8.62455 1.3776 0)
(8.23376 1.54865 0)
(8.40036 1.54171 0)
(7.97321 1.72463 0)
(8.15701 1.71941 0)
(7.69159 1.91448 0)
(7.89362 1.91146 0)
(7.38783 2.11839 0)
(7.60918 2.1184 0)
(7.06058 2.33601 0)
(7.30239 2.34034 0)
(6.70816 2.56617 0)
(6.97161 2.57681 0)
(6.32831 2.80653 0)
(6.61467 2.82648 0)
(5.91803 3.05309 0)
(6.22865 3.08675 0)
(5.47338 3.29956 0)
(5.80967 3.35321 0)
(4.98922 3.53667 0)
(5.35257 3.61901 0)
(4.45925 3.75141 0)
(4.85078 3.87401 0)
(3.87613 3.92644 0)
(4.29632 4.10393 0)
(3.23224 4.0398 0)
(3.68045 4.28965 0)
(2.52075 4.0649 0)
(2.99341 4.4067 0)
(1.73831 3.97602 0)
(2.23729 4.42447 0)
(0.88944 3.71862 0)
(1.3633 4.31615 0)
(0.598726 3.98474 0)
(9.98321 0.136202 0)
(9.99339 0.0950391 0)
(9.95032 0.225569 0)
(9.97131 0.188587 0)
(9.90151 0.315493 0)
(9.93193 0.282046 0)
(9.83694 0.4075 0)
(9.87643 0.376956 0)
(9.75684 0.503009 0)
(9.80579 0.474836 0)
(9.66136 0.603274 0)
(9.72031 0.577046 0)
(9.55047 0.709457 0)
(9.61996 0.684811 0)
(9.42404 0.822701 0)
(9.50466 0.799314 0)
(9.28185 0.944148 0)
(9.37423 0.921735 0)
(9.12357 1.07494 0)
(9.22844 1.05325 0)
(8.9488 1.2162 0)
(9.06696 1.19504 0)
(8.75706 1.36906 0)
(8.88939 1.34829 0)
(8.54777 1.5346 0)
(8.69521 1.51414 0)
(8.32025 1.71387 0)
(8.48382 1.69373 0)
(8.07369 1.90777 0)
(8.2545 1.88813 0)
(7.80712 2.11706 0)
(8.00635 2.0983 0)
(7.5193 2.3422 0)
(7.73824 2.32501 0)
(7.20865 2.5832 0)
(7.44871 2.56873 0)
(6.87306 2.83944 0)
(7.13582 2.8295 0)
(6.50972 3.10932 0)
(6.79697 3.10669 0)
(6.11482 3.38985 0)
(6.42862 3.39867 0)
(5.68324 3.67606 0)
(6.02597 3.70235 0)
(5.20829 3.96023 0)
(5.58259 4.01253 0)
(4.68155 4.23099 0)
(5.09011 4.32099 0)
(4.09307 4.47229 0)
(4.53804 4.61538 0)
(3.4323 4.66248 0)
(3.91446 4.87782 0)
(2.68994 4.77304 0)
(3.20545 5.08348 0)
(1.8617 4.77224 0)
(2.41107 5.19781 0)
(0.954099 4.58953 0)
(1.47614 5.1841 0)
(0.639126 4.91922 0)
(9.98386 0.148367 0)
(9.99368 0.102942 0)
(9.95235 0.245968 0)
(9.97261 0.204391 0)
(9.90579 0.344395 0)
(9.9351 0.305966 0)
(9.84438 0.445194 0)
(9.88241 0.409266 0)
(9.76833 0.549807 0)
(9.81552 0.515811 0)
(9.67781 0.659555 0)
(9.73472 0.627006 0)
(9.57282 0.775685 0)
(9.64 0.744154 0)
(9.45329 0.899417 0)
(9.53131 0.868514 0)
(9.31903 1.03197 0)
(9.40854 1.00134 0)
(9.16979 1.17456 0)
(9.27153 1.14388 0)
(9.00524 1.32841 0)
(9.12 1.29739 0)
(8.82493 1.49473 0)
(8.95362 1.46314 0)
(8.62835 1.67472 0)
(8.77195 1.64238 0)
(8.41485 1.86957 0)
(8.57444 1.83639 0)
(8.18361 2.08036 0)
(8.36038 2.04638 0)
(7.9336 2.30809 0)
(8.12889 2.27354 0)
(7.66346 2.55355 0)
(7.8788 2.51893 0)
(7.37141 2.81723 0)
(7.60852 2.78345 0)
(7.05501 3.09918 0)
(7.31595 3.06775 0)
(6.71096 3.39871 0)
(6.99815 3.37203 0)
(6.33472 3.71414 0)
(6.65111 3.69585 0)
(5.92015 4.04215 0)
(6.2693 4.03773 0)
(5.45903 4.3771 0)
(5.84517 4.39458 0)
(4.94079 4.7099 0)
(5.36862 4.76076 0)
(4.35242 5.02651 0)
(4.82648 5.12674 0)
(3.67927 5.3061 0)
(4.20283 5.47701 0)
(2.90721 5.51802 0)
(3.47755 5.78735 0)
(2.02742 5.62278 0)
(2.64471 6.01929 0)
(1.04497 5.52917 0)
(1.63748 6.12362 0)
(0.704357 5.9427 0)
(9.98465 0.159979 0)
(9.99402 0.110461 0)
(9.95473 0.265378 0)
(9.97409 0.219397 0)
(9.91065 0.371816 0)
(9.93868 0.328608 0)
(9.85267 0.480879 0)
(9.88905 0.439771 0)
(9.78101 0.59404 0)
(9.82619 0.554428 0)
(9.69582 0.712677 0)
(9.75039 0.67402 0)
(9.59717 0.838105 0)
(9.66168 0.799912 0)
(9.48503 0.971614 0)
(9.56004 0.933432 0)
(9.35929 1.11449 0)
(9.44544 1.07589 0)
(9.21974 1.26803 0)
(9.31778 1.22861 0)
(9.06614 1.43353 0)
(9.17686 1.39292 0)
(8.89812 1.6123 0)
(9.02242 1.57016 0)
(8.71523 1.80565 0)
(8.85411 1.7617 0)
(8.51686 2.01492 0)
(8.67147 1.96893 0)
(8.30226 2.2414 0)
(8.47386 2.19324 0)
(8.07039 2.48635 0)
(8.26045 2.43605 0)
(7.81987 2.75095 0)
(8.03011 2.69876 0)
(7.54881 3.03625 0)
(7.78129 2.98274 0)
(7.2546 3.34305 0)
(7.5118 3.28929 0)
(6.93362 3.67178 0)
(7.21863 3.61957 0)
(6.58085 4.02226 0)
(6.89755 3.97449 0)
(6.18935 4.39322 0)
(6.54263 4.35445 0)
(5.74962 4.7817 0)
(6.14557 4.75891 0)
(5.24892 5.18179 0)
(5.69488 5.18565 0)
(4.67069 5.58282 0)
(5.17482 5.62929 0)
(3.99461 5.96649 0)
(4.56477 6.07881 0)
(3.1981 6.30155 0)
(3.83596 6.5135 0)
(2.26149 6.5404 0)
(2.97044 6.89383 0)
(1.18043 6.5647 0)
(1.87881 7.15745 0)
(0.812637 7.09886 0)
(9.98554 0.170961 0)
(9.9944 0.117545 0)
(9.95739 0.283695 0)
(9.97572 0.233516 0)
(9.91601 0.39763 0)
(9.94259 0.349864 0)
(9.8617 0.514406 0)
(9.89624 0.468345 0)
(9.79469 0.635529 0)
(9.83765 0.590533 0)
(9.71518 0.762423 0)
(9.76714 0.717903 0)
(9.62326 0.896462 0)
(9.68477 0.851869 0)
(9.51896 1.039 0)
(9.59057 0.993814 0)
(9.40223 1.19138 0)
(9.48458 1.1451 0)
(9.27295 1.35495 0)
(9.36675 1.30711 0)
(9.13096 1.53109 0)
(9.23701 1.48124 0)
(8.97598 1.72121 0)
(9.09517 1.66888 0)
(8.80765 1.92672 0)
(8.94098 1.87152 0)
(8.62548 2.14911 0)
(8.7741 2.09065 0)
(8.42878 2.38988 0)
(8.59402 2.32785 0)
(8.21662 2.65057 0)
(8.40003 2.58475 0)
(7.98769 2.93278 0)
(8.19114 2.8631 0)
(7.74016 3.23812 0)
(7.96594 3.16473 0)
(7.47145 3.56825 0)
(7.72241 3.49163 0)
(7.17794 3.92479 0)
(7.45771 3.84594 0)
(6.85447 4.30924 0)
(7.16777 4.22999 0)
(6.49378 4.72275 0)
(6.84677 4.64623 0)
(6.08559 5.16563 0)
(6.48637 5.09711 0)
(5.61547 5.63638 0)
(6.07453 5.58459 0)
(5.06333 6.12984 0)
(5.59378 6.10916 0)
(4.40189 6.63371 0)
(5.01927 6.66759 0)
(3.59574 7.12101 0)
(4.31212 7.24843 0)
(2.60394 7.54024 0)
(3.43517 7.8199 0)
(1.39403 7.73985 0)
(2.25599 8.31448 0)
(1.00234 8.46422 0)
(9.9865 0.181249 0)
(9.9948 0.124154 0)
(9.96027 0.300827 0)
(9.97747 0.246675 0)
(9.92177 0.421727 0)
(9.94676 0.36964 0)
(9.87134 0.545643 0)
(9.90388 0.494878 0)
(9.80924 0.674115 0)
(9.84978 0.623995 0)
(9.73569 0.808606 0)
(9.7848 0.758497 0)
(9.65082 0.950536 0)
(9.70904 0.899837 0)
(9.55473 1.10131 0)
(9.6226 1.04944 0)
(9.44744 1.26231 0)
(9.52557 1.20872 0)
(9.32893 1.43495 0)
(9.41801 1.37908 0)
(9.19911 1.62068 0)
(9.29991 1.56198 0)
(9.05782 1.82095 0)
(9.17121 1.75888 0)
(8.90483 2.03732 0)
(9.0318 1.97133 0)
(8.73977 2.27137 0)
(8.88145 2.20094 0)
(8.56213 2.52483 0)
(8.71983 2.44942 0)
(8.37112 2.7995 0)
(8.54644 2.71863 0)
(8.16566 3.09736 0)
(8.36052 3.01059 0)
(7.94414 3.42062 0)
(8.16095 3.32759 0)
(7.70429 3.77173 0)
(7.94609 3.67223 0)
(7.44281 4.15352 0)
(7.71358 4.0476 0)
(7.15495 4.56924 0)
(7.45996 4.45735 0)
(6.83384 5.02262 0)
(7.18022 4.906 0)
(6.46942 5.51778 0)
(6.86697 5.39905 0)
(6.0468 6.05885 0)
(6.50914 5.94321 0)
(5.54376 6.64883 0)
(6.08977 6.54635 0)
(4.92667 7.28699 0)
(5.58272 7.21689 0)
(4.14449 7.96124 0)
(4.94195 7.96152 0)
(3.1212 8.6331 0)
(4.10859 8.77536 0)
(1.75581 9.127 0)
(2.8777 9.62021 0)
(1.36424 10.1839 0)
(9.98754 0.190795 0)
(9.99523 0.130257 0)
(9.96333 0.316701 0)
(9.97932 0.258819 0)
(9.92786 0.444014 0)
(9.95115 0.387861 0)
(9.88148 0.57448 0)
(9.91188 0.519276 0)
(9.82449 0.709669 0)
(9.86244 0.654704 0)
(9.75713 0.851076 0)
(9.80318 0.795672 0)
(9.6796 1.00015 0)
(9.73427 0.943664 0)
(9.59203 1.15834 0)
(9.65584 1.10013 0)
(9.49453 1.32707 0)
(9.56807 1.26652 0)
(9.38718 1.50778 0)
(9.4711 1.44427 0)
(9.26999 1.70196 0)
(9.36502 1.63487 0)
(9.14293 1.91115 0)
(9.2499 1.83982 0)
(9.00591 2.13697 0)
(9.12575 2.06072 0)
(8.85874 2.38112 0)
(8.99254 2.29927 0)
(8.70111 2.64547 0)
(8.85015 2.55729 0)
(8.5325 2.93208 0)
(8.69831 2.8368 0)
(8.35214 3.24326 0)
(8.53661 3.14006 0)
(8.15886 3.5817 0)
(8.36434 3.46969 0)
(7.95091 3.95057 0)
(8.18044 3.82882 0)
(7.72575 4.35377 0)
(7.98334 4.22124 0)
(7.47963 4.79615 0)
(7.77065 4.65176 0)
(7.20698 5.2839 0)
(7.53888 5.12657 0)
(6.8994 5.82499 0)
(7.28279 5.65389 0)
(6.54395 6.42977 0)
(6.99439 6.24485 0)
(6.11985 7.11163 0)
(6.66094 6.91494 0)
(5.59239 7.8877 0)
(6.26187 7.6864 0)
(4.90006 8.77777 0)
(5.75672 8.59269 0)
(3.92591 9.801 0)
(5.08619 9.68495 0)
(2.43236 10.8555 0)
(3.97813 11.0485 0)
(2.14521 12.5663 0)
(9.98862 0.199559 0)
(9.99567 0.135832 0)
(9.96652 0.331255 0)
(9.98124 0.2699 0)
(9.9342 0.46441 0)
(9.95571 0.404463 0)
(9.89203 0.600811 0)
(9.92017 0.541465 0)
(9.84031 0.742055 0)
(9.87553 0.682571 0)
(9.77933 0.889658 0)
(9.82217 0.829325 0)
(9.70933 1.0451 0)
(9.76029 0.98323 0)
(9.63053 1.20984 0)
(9.69012 1.14576 0)
(9.54309 1.38533 0)
(9.61188 1.31836 0)
(9.4472 1.57305 0)
(9.5258 1.50251 0)
(9.34298 1.77451 0)
(9.43209 1.69968 0)
(9.23055 1.99128 0)
(9.33096 1.91143 0)
(9.10998 2.22504 0)
(9.22257 2.13938 0)
(8.98129 2.47757 0)
(9.10708 2.38526 0)
(8.84441 2.75085 0)
(8.9846 2.65097 0)
(8.69916 3.0471 0)
(8.85519 2.93861 0)
(8.54518 3.36889 0)
(8.71882 3.25059 0)
(8.38188 3.71923 0)
(8.57532 3.58976 0)
(8.20828 4.10185 0)
(8.42436 3.95953 0)
(8.02294 4.5214 0)
(8.26535 4.36418 0)
(7.82366 4.98392 0)
(8.09739 4.80916 0)
(7.60715 5.49746 0)
(7.91911 5.30173 0)
(7.36837 6.07306 0)
(7.72852 5.85173 0)
(7.09939 6.72637 0)
(7.52276 6.4731 0)
(6.78704 7.48058 0)
(7.29754 7.18641 0)
(6.40774 8.37238 0)
(7.04739 8.02403 0)
(5.91446 9.46615 0)
(6.76205 9.0424 0)
(5.19461 10.908 0)
(6.46044 10.3571 0)
(3.88272 13.1769 0)
(6.18719 12.3031 0)
(5.25473 16.3692 0)
(0.190894 -0.113618 0)
(0.111986 -0.186969 0)
(0.372141 -0.0959625 0)
(0.272095 -0.173328 0)
(0.520388 -0.0723838 0)
(0.431239 -0.138421 0)
(0.634298 -0.0509573 0)
(0.564234 -0.103847 0)
(0.717622 -0.0331508 0)
(0.666268 -0.0741695 0)
(0.774866 -0.0188319 0)
(0.741135 -0.0497516 0)
(0.810367 -0.0075834 0)
(0.793888 -0.0301253 0)
(0.828192 0.000969094 0)
(0.82893 -0.0147694 0)
(0.832347 0.00696229 0)
(0.849925 -0.00336081 0)
(0.825883 0.0106068 0)
(0.859989 0.00510566 0)
(0.812291 0.0124945 0)
(0.86193 0.0104818 0)
(0.794313 0.0131821 0)
(0.857795 0.0135376 0)
(0.774077 0.0130099 0)
(0.850014 0.0148782 0)
(0.753267 0.0122435 0)
(0.840491 0.0149381 0)
(0.733132 0.0111153 0)
(0.830665 0.0141125 0)
(0.714523 0.00982226 0)
(0.821541 0.0127346 0)
(0.697962 0.00851703 0)
(0.813762 0.0110658 0)
(0.683688 0.0072991 0)
(0.807664 0.00931239 0)
(0.671721 0.00621856 0)
(0.803334 0.00762285 0)
(0.661905 0.00528738 0)
(0.80067 0.00610521 0)
(0.653996 0.00449739 0)
(0.79945 0.00480274 0)
(0.6477 0.00386812 0)
(0.799397 0.00373248 0)
(0.642572 0.00344915 0)
(0.800261 0.0029692 0)
(0.63803 0.00326839 0)
(0.801673 0.00256712 0)
(0.633416 0.00329835 0)
(0.803111 0.00254634 0)
(0.628124 0.00345149 0)
(0.804011 0.00285169 0)
(0.621698 0.00361079 0)
(0.803796 0.00338089 0)
(0.614112 0.00362946 0)
(0.802189 0.00389688 0)
(0.605959 0.00318729 0)
(0.79941 0.00408919 0)
(0.795673 0.00327521 0)
(0.176465 -0.271439 0)
(0.0934467 -0.359806 0)
(0.345768 -0.236748 0)
(0.241722 -0.335232 0)
(0.487777 -0.185924 0)
(0.381329 -0.271018 0)
(0.601577 -0.138795 0)
(0.499626 -0.207595 0)
(0.690739 -0.0992102 0)
(0.592951 -0.153535 0)
(0.759281 -0.0670574 0)
(0.664922 -0.109322 0)
(0.810934 -0.0414911 0)
(0.719669 -0.0739577 0)
(0.848989 -0.0216431 0)
(0.760698 -0.0462995 0)
(0.875996 -0.00676705 0)
(0.790903 -0.0252088 0)
(0.894476 0.00387704 0)
(0.812728 -0.00949056 0)
(0.906274 0.0109294 0)
(0.828239 0.00138262 0)
(0.912627 0.0149775 0)
(0.839405 0.00875381 0)
(0.91585 0.0167085 0)
(0.847196 0.0125089 0)
(0.917536 0.0167471 0)
(0.852922 0.0137273 0)
(0.918884 0.0156235 0)
(0.857682 0.0131678 0)
(0.920694 0.0137707 0)
(0.862211 0.0114962 0)
(0.923436 0.0115444 0)
(0.866941 0.00923347 0)
(0.927299 0.00922736 0)
(0.872051 0.00679227 0)
(0.932274 0.00705557 0)
(0.877541 0.00445383 0)
(0.938185 0.00518435 0)
(0.883336 0.00242873 0)
(0.944789 0.00368671 0)
(0.889548 0.000792778 0)
(0.951943 0.00260218 0)
(0.896219 -0.000509074 0)
(0.959429 0.00194781 0)
(0.9033 -0.0013649 0)
(0.966907 0.00177248 0)
(0.910642 -0.00165959 0)
(0.973876 0.00213722 0)
(0.917992 -0.00129996 0)
(0.979807 0.00294936 0)
(0.924997 -0.000343715 0)
(0.984269 0.00389419 0)
(0.93131 0.00103314 0)
(0.987308 0.00456459 0)
(0.936749 0.00233545 0)
(0.989478 0.00447716 0)
(0.941295 0.0030011 0)
(0.945511 0.0028632 0)
(0.149295 -0.430097 0)
(0.0731036 -0.506031 0)
(0.288248 -0.376477 0)
(0.197635 -0.468113 0)
(0.403259 -0.299194 0)
(0.304076 -0.378406 0)
(0.49534 -0.227899 0)
(0.394856 -0.291542 0)
(0.567995 -0.168172 0)
(0.465985 -0.218209 0)
(0.624533 -0.119754 0)
(0.521417 -0.15846 0)
(0.667967 -0.0813838 0)
(0.564168 -0.110814 0)
(0.700945 -0.0516895 0)
(0.596738 -0.0736235 0)
(0.725805 -0.0293036 0)
(0.621298 -0.0453194 0)
(0.744875 -0.0129912 0)
(0.639821 -0.0245535 0)
(0.760005 -0.00174105 0)
(0.65397 -0.0102856 0)
(0.772929 0.00530891 0)
(0.66583 -0.000978017 0)
(0.783549 0.00897546 0)
(0.676055 0.00470042 0)
(0.792595 0.0100648 0)
(0.684951 0.00723358 0)
(0.800706 0.00933919 0)
(0.692631 0.00748327 0)
(0.808273 0.00750558 0)
(0.699445 0.00631796 0)
(0.815439 0.00517174 0)
(0.705536 0.00444522 0)
(0.822184 0.00279232 0)
(0.710927 0.00239194 0)
(0.828521 0.000561318 0)
(0.715631 0.00041704 0)
(0.834576 -0.00143727 0)
(0.719816 -0.00133696 0)
(0.840845 -0.00304907 0)
(0.723686 -0.00301445 0)
(0.84748 -0.00416589 0)
(0.727458 -0.00444274 0)
(0.854502 -0.00473535 0)
(0.731228 -0.00543013 0)
(0.861817 -0.00467169 0)
(0.735039 -0.00579447 0)
(0.869266 -0.0038827 0)
(0.738931 -0.00541051 0)
(0.876578 -0.00247723 0)
(0.7428 -0.00428402 0)
(0.88368 -0.000808695 0)
(0.746526 -0.0027033 0)
(0.890517 0.000684698 0)
(0.750002 -0.00117704 0)
(0.896754 0.00162368 0)
(0.752949 -0.00012687 0)
(0.755404 0.00101528 0)
(0.119343 -0.553682 0)
(0.0526532 -0.62292 0)
(0.222283 -0.48008 0)
(0.147602 -0.566556 0)
(0.304118 -0.380611 0)
(0.214442 -0.454817 0)
(0.369025 -0.290831 0)
(0.273911 -0.350716 0)
(0.42032 -0.216256 0)
(0.318601 -0.263868 0)
(0.460435 -0.155967 0)
(0.353874 -0.193324 0)
(0.491517 -0.108228 0)
(0.381322 -0.13719 0)
(0.515346 -0.0712584 0)
(0.402352 -0.0933666 0)
(0.533418 -0.0434821 0)
(0.418235 -0.0599388 0)
(0.547178 -0.023666 0)
(0.430125 -0.0354225 0)
(0.558136 -0.0104704 0)
(0.439069 -0.0187367 0)
(0.56776 -0.0023168 0)
(0.446161 -0.00822465 0)
(0.576614 0.00217093 0)
(0.452623 -0.00180936 0)
(0.584403 0.00406875 0)
(0.458484 0.00164226 0)
(0.591021 0.0041754 0)
(0.463088 0.0028451 0)
(0.596533 0.00317831 0)
(0.466166 0.00254608 0)
(0.600963 0.00167112 0)
(0.467879 0.00148489 0)
(0.604382 1.02087e-05 0)
(0.46825 0.000161576 0)
(0.606873 -0.00165518 0)
(0.467267 -0.00116974 0)
(0.608807 -0.00322978 0)
(0.46512 -0.0025397 0)
(0.610177 -0.00462535 0)
(0.461917 -0.00384685 0)
(0.611116 -0.00573872 0)
(0.457835 -0.00499901 0)
(0.611795 -0.00640096 0)
(0.45306 -0.00582328 0)
(0.612358 -0.00641697 0)
(0.447776 -0.00611274 0)
(0.612824 -0.00570525 0)
(0.442289 -0.00566765 0)
(0.612943 -0.00451416 0)
(0.436436 -0.00434828 0)
(0.612739 -0.00330958 0)
(0.429583 -0.00259591 0)
(0.612158 -0.00225914 0)
(0.421529 -0.000878696 0)
(0.610985 -0.00102481 0)
(0.412676 0.000461533 0)
(0.403688 0.00166096 0)
(0.0844548 -0.643833 0)
(0.0310916 -0.705638 0)
(0.147034 -0.549709 0)
(0.0908563 -0.6264 0)
(0.191901 -0.433197 0)
(0.11306 -0.49671 0)
(0.226373 -0.33135 0)
(0.138772 -0.382143 0)
(0.253265 -0.247606 0)
(0.153701 -0.287805 0)
(0.27426 -0.180179 0)
(0.16589 -0.211572 0)
(0.290676 -0.126881 0)
(0.175126 -0.151121 0)
(0.30337 -0.085564 0)
(0.181968 -0.103884 0)
(0.312867 -0.0544695 0)
(0.186826 -0.0676218 0)
(0.319695 -0.0322698 0)
(0.190057 -0.0408156 0)
(0.324981 -0.0172049 0)
(0.191878 -0.0228131 0)
(0.329516 -0.00741651 0)
(0.192465 -0.0116395 0)
(0.333525 -0.00193517 0)
(0.192319 -0.00475693 0)
(0.336571 0.000428992 0)
(0.189498 -0.00054425 0)
(0.337843 0.00101998 0)
(0.184644 0.00195311 0)
(0.337393 0.000629295 0)
(0.177918 0.00285459 0)
(0.335266 -0.000184231 0)
(0.169109 0.00290549 0)
(0.331329 -0.001224 0)
(0.158359 0.00273046 0)
(0.325621 -0.00244205 0)
(0.145453 0.00246579 0)
(0.318242 -0.00373543 0)
(0.130413 0.00204995 0)
(0.309485 -0.00495705 0)
(0.113651 0.00147051 0)
(0.299656 -0.00588301 0)
(0.0958218 0.000828821 0)
(0.289085 -0.00631105 0)
(0.077736 0.000296628 0)
(0.278188 -0.00598243 0)
(0.0600399 4.65789e-05 0)
(0.266822 -0.0045751 0)
(0.043165 0.000605103 0)
(0.253688 -0.00217036 0)
(0.0280102 0.00272901 0)
(0.238085 0.000352351 0)
(0.0149928 0.00561333 0)
(0.221349 0.00223788 0)
(0.00208532 0.00771852 0)
(0.205887 0.0034486 0)
(-0.0119254 0.00821639 0)
(-0.0249301 0.00709322 0)
(0.0443744 -0.695402 0)
(0.00730283 -0.7491 0)
(0.0620826 -0.580794 0)
(0.0262231 -0.643335 0)
(0.0671675 -0.452421 0)
(0.00100481 -0.501458 0)
(0.0686393 -0.344419 0)
(-0.0103123 -0.383485 0)
(0.0678803 -0.256491 0)
(-0.0282632 -0.28713 0)
(0.0663358 -0.186304 0)
(-0.0433072 -0.210229 0)
(0.0648253 -0.131184 0)
(-0.0568536 -0.149839 0)
(0.0634156 -0.0884781 0)
(-0.0688227 -0.102716 0)
(0.0616151 -0.0561798 0)
(-0.0795617 -0.0661652 0)
(0.0591017 -0.0336763 0)
(-0.0896792 -0.0388303 0)
(0.0570045 -0.0200705 0)
(-0.10146 -0.0211957 0)
(0.053637 -0.0115721 0)
(-0.120615 -0.00910379 0)
(0.0466606 -0.00465625 0)
(-0.138478 0.000372182 0)
(0.0368913 0.000651884 0)
(-0.155593 0.00646868 0)
(0.0244299 0.00372572 0)
(-0.172911 0.0106872 0)
(0.00971613 0.00525615 0)
(-0.190764 0.0129238 0)
(-0.00736213 0.00612781 0)
(-0.209614 0.0143168 0)
(-0.0269837 0.0068584 0)
(-0.22918 0.0155315 0)
(-0.0492902 0.00750402 0)
(-0.249589 0.0166748 0)
(-0.0739485 0.0078593 0)
(-0.271014 0.017386 0)
(-0.100021 0.00778652 0)
(-0.293485 0.0173028 0)
(-0.126215 0.0073615 0)
(-0.31663 0.0163595 0)
(-0.151293 0.00683447 0)
(-0.339532 0.0148148 0)
(-0.174309 0.00671569 0)
(-0.361208 0.0130559 0)
(-0.194111 0.00764715 0)
(-0.381035 0.0115337 0)
(-0.209515 0.00964951 0)
(-0.397487 0.0110293 0)
(-0.221545 0.0117539 0)
(-0.409202 0.0119427 0)
(-0.232168 0.0125417 0)
(-0.418551 0.0131755 0)
(-0.241886 0.0112184 0)
(-0.427976 0.0130905 0)
(-0.435361 0.0112199 0)
(-0.00451534 -0.701753 0)
(-0.0210782 -0.744678 0)
(-0.0326901 -0.56801 0)
(-0.0480171 -0.616391 0)
(-0.0689186 -0.433814 0)
(-0.12067 -0.467631 0)
(-0.104401 -0.326049 0)
(-0.174047 -0.351136 0)
(-0.137438 -0.240028 0)
(-0.228313 -0.257722 0)
(-0.166745 -0.173067 0)
(-0.276082 -0.184759 0)
(-0.191958 -0.121687 0)
(-0.318795 -0.128443 0)
(-0.213525 -0.0821841 0)
(-0.356899 -0.0848462 0)
(-0.232945 -0.0509581 0)
(-0.391094 -0.0504549 0)
(-0.254045 -0.0257242 0)
(-0.422434 -0.022164 0)
(-0.282153 -0.00699219 0)
(-0.450775 0.000481239 0)
(-0.313627 0.00478172 0)
(-0.479625 0.014596 0)
(-0.341556 0.0121528 0)
(-0.506747 0.020906 0)
(-0.366105 0.0170736 0)
(-0.530332 0.0240912 0)
(-0.388366 0.019946 0)
(-0.552368 0.02629 0)
(-0.409865 0.021662 0)
(-0.573768 0.0276366 0)
(-0.430834 0.0229452 0)
(-0.594633 0.0283277 0)
(-0.451146 0.0240923 0)
(-0.614676 0.0287828 0)
(-0.470869 0.024958 0)
(-0.63375 0.0292382 0)
(-0.490396 0.0251445 0)
(-0.652118 0.0295307 0)
(-0.510097 0.0243749 0)
(-0.670337 0.0292666 0)
(-0.529927 0.0226799 0)
(-0.688775 0.0281169 0)
(-0.549278 0.0203365 0)
(-0.707193 0.026017 0)
(-0.567252 0.0177629 0)
(-0.72487 0.0232157 0)
(-0.583113 0.0156097 0)
(-0.740974 0.0202868 0)
(-0.596307 0.0145953 0)
(-0.754627 0.0181391 0)
(-0.606599 0.0147014 0)
(-0.765203 0.0173574 0)
(-0.61459 0.0147481 0)
(-0.773448 0.0172807 0)
(-0.621404 0.01372 0)
(-0.780389 0.0165079 0)
(-0.784764 0.0148847 0)
(-0.0548195 -0.657777 0)
(-0.0557945 -0.690986 0)
(-0.135231 -0.511154 0)
(-0.131334 -0.539493 0)
(-0.216624 -0.378308 0)
(-0.252998 -0.391632 0)
(-0.294187 -0.275621 0)
(-0.352516 -0.280426 0)
(-0.3648 -0.195624 0)
(-0.445244 -0.194867 0)
(-0.428105 -0.133868 0)
(-0.526481 -0.12974 0)
(-0.484702 -0.0858913 0)
(-0.597328 -0.0804158 0)
(-0.535776 -0.0478256 0)
(-0.658837 -0.0425294 0)
(-0.582143 -0.0174378 0)
(-0.710512 -0.0129457 0)
(-0.621416 0.00548757 0)
(-0.752431 0.00885638 0)
(-0.650808 0.0202836 0)
(-0.785332 0.0231488 0)
(-0.673645 0.0279345 0)
(-0.809794 0.0317927 0)
(-0.695372 0.0314251 0)
(-0.832829 0.0368796 0)
(-0.716933 0.0333198 0)
(-0.854658 0.039569 0)
(-0.737934 0.0344771 0)
(-0.875601 0.0410092 0)
(-0.758316 0.0349553 0)
(-0.895896 0.0415847 0)
(-0.778041 0.0350023 0)
(-0.915565 0.0415079 0)
(-0.796916 0.034934 0)
(-0.934368 0.0410965 0)
(-0.814842 0.0348736 0)
(-0.952076 0.0406569 0)
(-0.832056 0.0346337 0)
(-0.968808 0.0402369 0)
(-0.848991 0.0338343 0)
(-0.985047 0.0395504 0)
(-0.865879 0.0321481 0)
(-1.00125 0.0381301 0)
(-0.882453 0.0295186 0)
(-1.01743 0.0356115 0)
(-0.898016 0.0262808 0)
(-1.03302 0.0320126 0)
(-0.911826 0.023166 0)
(-1.04717 0.0279085 0)
(-0.923298 0.0209309 0)
(-1.05904 0.0243208 0)