/*--------------------------------*- C++ -*----------------------------------*\
| =========                 |                                                 |
| \\      /  F ield         | OpenFOAM: The Open Source CFD Toolbox           |
|  \\    /   O peration     | Version:  5.x                                   |
|   \\  /    A nd           | Web:      www.OpenFOAM.org                      |
|    \\/     M anipulation  |                                                 |
\*---------------------------------------------------------------------------*/
FoamFile
{
    version     2.0;
    format      ascii;
    class       volVectorField;
    location    "2.7";
    object      Force;
}
// * * * * * * * * * * * * * * * * * * * * * * * * * * * * * * * * * * * * * //

dimensions      [1 1 -2 0 0 0 0];

internalField   uniform (0 0 0);

boundaryField
{
    inlet
    {
        type            calculated;
        value           uniform (0 0 0);
    }
    outlet
    {
        type            calculated;
        value           uniform (0 0 0);
    }
    flap
    {
        type            calculated;
        value           nonuniform List<vector> 
33
(
(3.41432 -4.08267e-21 -0.195411)
(3.38051 -1.57374e-20 -0.444187)
(3.3121 -4.20338e-21 -0.690206)
(3.20934 1.04299e-17 -0.882627)
(3.08574 -2.94101e-23 -1.01981)
(2.95479 -8.31133e-18 -1.10823)
(2.82316 4.58265e-18 -1.1593)
(2.69358 1.7049e-18 -1.18111)
(2.56515 3.35305e-18 -1.17676)
(2.43632 1.64881e-18 -1.14817)
(2.30205 -6.8726e-18 -1.09903)
(2.14743 8.0278e-18 -1.0312)
(1.94976 -9.28013e-22 -0.939863)
(1.6753 7.49854e-21 -0.808235)
(1.26144 2.26302e-22 -0.609102)
(0.372651 1.02212e-18 0.759854)
(0.234449 -1.7313e-18 0.481789)
(0.0905865 -1.04168e-18 0.187953)
(0.00811536 1.17754e-24 -0.000454554)
(0.00789928 1.3599e-18 -0.00106527)
(0.00773792 2.51417e-24 -0.00165533)
(0.00788831 -1.43536e-18 -0.00223324)
(0.00839098 -1.4692e-18 -0.00287209)
(0.00902383 1.00674e-23 -0.00352439)
(0.00951362 -1.81438e-23 -0.00408529)
(0.00974467 -3.18425e-23 -0.00448323)
(0.00966803 0 -0.00465906)
(0.00932425 1.59719e-18 -0.00460202)
(0.00876349 1.61334e-18 -0.00433665)
(0.00861174 -2.93874e-39 -0.00413614)
(0.0100406 1.64184e-18 -0.0046773)
(0.0147895 1.79024e-18 -0.00656362)
(0.0321152 -5.87747e-39 -0.0154994)
)
;
    }
    upperWall
    {
        type            calculated;
        value           uniform (0 0 0);
    }
    lowerWall
    {
        type            calculated;
        value           uniform (0 0 0);
    }
    frontAndBack
    {
        type            empty;
    }
}


// ************************************************************************* //
