/*--------------------------------*- C++ -*----------------------------------*\
| =========                 |                                                 |
| \\      /  F ield         | OpenFOAM: The Open Source CFD Toolbox           |
|  \\    /   O peration     | Version:  4.1                                   |
|   \\  /    A nd           | Web:      www.OpenFOAM.org                      |
|    \\/     M anipulation  |                                                 |
\*---------------------------------------------------------------------------*/
FoamFile
{
    version     2.0;
    format      ascii;
    class       volVectorField;
    location    "2";
    object      U;
}
// * * * * * * * * * * * * * * * * * * * * * * * * * * * * * * * * * * * * * //

dimensions      [0 1 -1 0 0 0 0];

internalField   nonuniform List<vector> 
2790
(
(9.93587 0 0.0191043)
(9.86744 0 0.025406)
(9.77505 1.84232e-20 0.0291838)
(9.66645 1.33504e-19 0.03316)
(9.54748 0 0.0372691)
(9.41923 0 0.0414265)
(9.2811 0 0.0457452)
(9.13251 -8.90399e-20 0.0503574)
(8.97298 0 0.0553686)
(8.80188 0 0.0608766)
(8.61838 -2.03565e-19 0.0669906)
(8.42149 2.09976e-19 0.0738419)
(8.20997 2.78493e-19 0.0815733)
(7.98244 -2.30463e-19 0.0903339)
(7.73738 -1.90551e-21 0.100297)
(7.47307 3.2096e-20 0.111663)
(7.18753 0 0.124684)
(6.8787 5.78858e-19 0.139682)
(6.54414 -4.49831e-19 0.156982)
(6.18115 0 0.17691)
(5.78709 0 0.199875)
(5.35919 0 0.22635)
(4.89459 0 0.256842)
(4.3905 2.55368e-18 0.291911)
(3.84434 -1.80771e-18 0.332173)
(3.25383 0 0.378226)
(2.61706 4.31594e-18 0.430291)
(1.93309 -4.61766e-18 0.48679)
(1.17322 0 0.542885)
(0.568985 0 0.540967)
(10.0014 0 0.0359141)
(9.99431 -3.52531e-20 0.0497723)
(9.96521 -2.54529e-19 0.0588308)
(9.91774 1.50302e-19 0.0687188)
(9.85673 0 0.0793328)
(9.78353 3.22331e-19 0.0904194)
(9.69787 0 0.102199)
(9.59935 2.59861e-19 0.114968)
(9.48763 -3.61921e-19 0.128971)
(9.36218 -4.54444e-21 0.14445)
(9.22228 7.78207e-19 0.161671)
(9.06706 1.06926e-19 0.180953)
(8.89544 -4.72319e-19 0.20266)
(8.70612 0 0.227173)
(8.49763 9.0057e-21 0.254922)
(8.26831 -1.00617e-18 0.286405)
(8.01614 -1.45363e-19 0.322199)
(7.73911 1.05687e-18 0.363044)
(7.43496 2.1293e-18 0.409705)
(7.10073 -2.0522e-18 0.462877)
(6.73344 2.5333e-18 0.523354)
(6.32997 -5.31405e-18 0.592002)
(5.88677 2.79277e-18 0.669635)
(5.39988 -7.51328e-19 0.756989)
(4.86479 6.4646e-18 0.854735)
(4.27578 -8.4896e-18 0.963566)
(3.62449 1.295e-17 1.08443)
(2.89736 -2.75316e-17 1.21962)
(2.04121 1.24987e-17 1.38236)
(1.20044 -4.92548e-18 1.62171)
(9.99879 0 0.0343229)
(9.98947 -5.61453e-19 0.0543803)
(9.96316 2.90012e-19 0.0699809)
(9.92079 -8.98558e-19 0.0864505)
(9.86588 1.5546e-19 0.104077)
(9.79985 -4.80399e-19 0.122661)
(9.72263 0 0.142488)
(9.6339 1.71498e-19 0.163972)
(9.53337 3.5845e-19 0.187498)
(9.4206 -3.67687e-19 0.213462)
(9.29498 -7.73306e-19 0.242299)
(9.15574 6.93249e-19 0.274504)
(9.00203 0 0.310666)
(8.83278 8.72686e-19 0.351445)
(8.64666 -8.74515e-19 0.397583)
(8.44225 1.9025e-18 0.449939)
(8.21771 1.59002e-19 0.509465)
(7.97119 3.85294e-20 0.577324)
(7.70099 -4.59787e-18 0.654908)
(7.40439 1.96472e-18 0.743606)
(7.07831 0 0.844875)
(6.71961 0 0.960393)
(6.32436 1.31624e-18 1.09196)
(5.88779 0 1.24147)
(5.40375 0 1.41105)
(4.8637 1.7935e-20 1.60357)
(4.25488 4.91151e-18 1.8242)
(3.5575 -3.48971e-18 2.08419)
(2.74492 3.64882e-18 2.38864)
(1.73251 1.20257e-19 2.93539)
(9.99695 -1.12346e-18 0.0359746)
(9.98516 -5.23555e-19 0.0636815)
(9.95861 5.77144e-19 0.0870493)
(9.91726 1.04338e-18 0.110364)
(9.86364 1.53696e-19 0.134645)
(9.79916 -6.36855e-19 0.160061)
(9.72394 -6.5874e-19 0.187034)
(9.63781 -3.41508e-19 0.216108)
(9.54053 0 0.247819)
(9.4318 3.71398e-19 0.282717)
(9.31118 -7.55484e-19 0.321398)
(9.17804 1.9694e-19 0.364521)
(9.03168 0 0.412852)
(8.87131 -1.06355e-19 0.467289)
(8.69593 -1.87302e-18 0.528852)
(8.50446 1.83429e-18 0.598719)
(8.29557 1.20163e-19 0.678195)
(8.06768 2.50712e-19 0.768789)
(7.81946 2.63528e-19 0.872426)
(7.54903 -5.46961e-19 0.991265)
(7.25388 0 1.12758)
(6.93135 1.19578e-18 1.284)
(6.57792 -1.41087e-20 1.46361)
(6.18907 1.06276e-17 1.67007)
(5.75872 -1.09278e-17 1.90788)
(5.27823 1.44955e-18 2.18313)
(4.73544 -3.02071e-18 2.50486)
(4.10406 3.05366e-18 2.8955)
(3.44962 3.11015e-18 3.30329)
(2.30463 3.60863e-18 4.15294)
(9.99599 1.08701e-18 0.0391636)
(9.98261 1.25533e-18 0.0729601)
(9.95565 -1.86795e-18 0.102802)
(9.915 -5.94012e-19 0.132094)
(9.86249 0 0.162366)
(9.79932 3.19201e-19 0.194134)
(9.72576 9.8324e-19 0.227921)
(9.64168 -6.76273e-19 0.264347)
(9.54691 6.99701e-19 0.304046)
(9.44121 1.09316e-18 0.347677)
(9.32424 -3.72132e-19 0.395957)
(9.19551 1.37453e-18 0.44968)
(9.05442 -1.60644e-18 0.509749)
(8.90035 1.05157e-19 0.577222)
(8.73257 5.46425e-20 0.653318)
(8.55027 3.64403e-18 0.739447)
(8.35258 -1.72614e-19 0.837216)
(8.13835 -1.7887e-19 0.948456)
(7.9065 7.14793e-20 1.07544)
(7.65584 6.09805e-19 1.2209)
(7.38473 -3.84643e-18 1.38788)
(7.09128 -1.1612e-18 1.57994)
(6.77295 -1.08998e-17 1.80139)
(6.42635 9.90503e-18 2.05756)
(6.0468 1.2808e-18 2.35524)
(5.62779 -1.3203e-18 2.70349)
(5.16267 1.35103e-18 3.11237)
(4.60821 -2.80688e-18 3.61849)
(4.17134 -2.13585e-18 4.06301)
(2.92407 0 5.15012)
(9.9955 6.7608e-20 0.043124)
(9.98119 -2.08225e-19 0.0823373)
(9.95404 2.43133e-18 0.118273)
(9.91419 -2.95994e-19 0.153586)
(9.86299 -1.83465e-21 0.18995)
(9.80142 9.43336e-19 0.228108)
(9.72978 2.16126e-21 0.268672)
(9.64803 -1.34141e-18 0.312324)
(9.55603 6.88639e-19 0.359787)
(9.4536 -7.16543e-19 0.41182)
(9.34046 -3.72086e-19 0.469252)
(9.21623 0 0.533004)
(9.08048 2.00242e-18 0.60411)
(8.9327 -1.64058e-18 0.683762)
(8.77235 3.45251e-18 0.773339)
(8.59885 -3.51388e-18 0.874435)
(8.41157 1.44375e-19 0.988895)
(8.20982 -3.74165e-18 1.11885)
(7.9929 3.94276e-18 1.26685)
(7.76008 -8.31699e-18 1.43603)
(7.51045 1.65721e-17 1.63006)
(7.24303 -1.88264e-17 1.85327)
(6.95647 9.09952e-18 2.11103)
(6.64892 -1.1702e-18 2.41004)
(6.31788 -2.42614e-18 2.75868)
(5.95932 1.25288e-18 3.16785)
(5.57605 1.87144e-17 3.64494)
(5.09472 -1.97738e-17 4.24689)
(4.87929 -6.18576e-19 4.67713)
(3.55475 4.10319e-17 5.90888)
(9.99529 0 0.0474855)
(9.98053 1.38201e-19 0.0918139)
(9.95348 -1.28151e-18 0.133476)
(9.91456 -1.17234e-18 0.174601)
(9.86487 6.07364e-19 0.216841)
(9.80518 1.25168e-18 0.261118)
(9.7358 5.15189e-21 0.308149)
(9.65675 6.72273e-19 0.358693)
(9.56794 6.95046e-19 0.413561)
(9.46924 -7.01328e-19 0.473607)
(9.36043 7.31856e-19 0.539754)
(9.24126 0 0.613023)
(9.11139 -3.93238e-19 0.694557)
(8.97048 4.04502e-19 0.785665)
(8.81816 0 0.887856)
(8.65402 0 1.00287)
(8.47769 3.54329e-18 1.13271)
(8.28878 -1.12671e-17 1.27976)
(8.08698 -1.16116e-19 1.44682)
(7.87198 7.91311e-18 1.63732)
(7.64353 0 1.85535)
(7.40145 1.06877e-18 2.10588)
(7.14558 0 2.395)
(6.87562 1.90666e-17 2.73035)
(6.59146 -1.69344e-17 3.12126)
(6.29081 -2.8172e-19 3.57965)
(5.98796 0 4.10661)
(5.5702 3.70957e-17 4.78607)
(5.54656 -6.71518e-17 5.18102)
(4.16261 3.96946e-17 6.4765)
(9.99525 0 0.0520271)
(9.98039 -2.19365e-18 0.101279)
(9.95374 0 0.148327)
(9.91595 1.16786e-18 0.194997)
(9.86797 0 0.242889)
(9.81045 -1.86323e-18 0.293044)
(9.74368 6.36703e-19 0.346282)
(9.66773 -6.57677e-19 0.403432)
(9.58256 -1.369e-18 0.46538)
(9.4881 1.39583e-18 0.533061)
(9.38421 -2.18143e-18 0.607473)
(9.27069 1.48598e-18 0.689716)
(9.14737 -3.49025e-18 0.781025)
(9.014 2.76735e-18 0.882803)
(8.87037 0 0.99667)
(8.71634 -2.11428e-19 1.12449)
(8.5517 3.58804e-18 1.26841)
(8.37638 3.75093e-18 1.43098)
(8.19039 -7.41445e-18 1.61522)
(7.99385 1.19251e-19 1.82476)
(7.78708 8.1952e-18 2.06399)
(7.57064 -1.61968e-17 2.33829)
(7.34537 -8.64399e-18 2.65431)
(7.1124 1.68647e-17 3.02018)
(6.87364 -1.30373e-19 3.44555)
(6.62744 2.67214e-19 3.94332)
(6.40027 0 4.50583)
(6.03602 1.81505e-18 5.24839)
(6.16527 0 5.61236)
(4.73389 2.9636e-17 6.9298)
(9.99533 2.12661e-18 0.0566066)
(9.98063 1.91357e-18 0.110614)
(9.95463 2.24517e-18 0.162748)
(9.91814 1.44589e-18 0.21469)
(9.87207 -5.92923e-19 0.267985)
(9.81697 -6.1283e-19 0.323754)
(9.75312 0 0.382903)
(9.6806 1.96369e-18 0.446326)
(9.59946 -1.34127e-18 0.514974)
(9.50968 0 0.589845)
(9.41119 7.11525e-19 0.672008)
(9.30391 0 0.762632)
(9.18774 -2.66994e-18 0.863031)
(9.06259 2.32842e-18 0.974684)
(8.92838 4.00654e-19 1.09928)
(8.78514 3.95823e-18 1.23879)
(8.63296 -3.39282e-18 1.39547)
(8.472 1.07734e-19 1.57198)
(8.30261 0 1.77148)
(8.12532 7.32253e-18 1.99779)
(7.94096 -7.7643e-18 2.25549)
(7.75071 2.38564e-19 2.55024)
(7.55628 5.43421e-21 2.88903)
(7.35997 -1.24608e-19 3.28034)
(7.16543 -1.55543e-17 3.73378)
(6.96988 1.73519e-17 4.26348)
(6.81253 0 4.85219)
(6.49482 -3.544e-18 5.64854)
(6.74612 3.16078e-17 5.99923)
(5.27712 2.082e-18 7.34201)
(9.99549 -2.1207e-18 0.06113)
(9.98113 -1.89565e-18 0.119722)
(9.95598 -2.51711e-18 0.176669)
(9.92096 -1.15212e-18 0.233601)
(9.87698 5.92249e-19 0.292026)
(9.82452 6.07601e-19 0.353119)
(9.76383 -1.25882e-18 0.417858)
(9.69504 1.29414e-18 0.487196)
(9.61825 -6.63538e-19 0.562136)
(9.5335 0 0.643728)
(9.44081 2.1217e-18 0.733098)
(9.3402 -3.59986e-18 0.831475)
(9.2317 2.9932e-18 0.940235)
(9.11533 8.02446e-19 1.06092)
(8.99119 -3.52443e-18 1.19527)
(8.85945 -4.0608e-19 1.34529)
(8.72042 0 1.51333)
(8.57457 2.08373e-19 1.70213)
(8.42252 0 1.91498)
(8.2652 7.13651e-18 2.1558)
(8.10389 -7.19716e-18 2.4293)
(7.94034 -1.40075e-17 2.74132)
(7.777 1.49349e-17 3.09905)
(7.61707 0 3.51124)
(7.46597 1.78523e-18 3.98759)
(7.31861 1.66023e-18 4.54393)
(7.22621 0 5.15408)
(6.95294 0 5.99866)
(7.30959 -6.01271e-18 6.3575)
(5.81451 -9.05903e-18 7.75779)
(9.99571 2.10144e-18 0.065533)
(9.98183 2.1604e-18 0.128525)
(9.95769 2.77942e-19 0.190025)
(9.92431 -8.572e-19 0.251663)
(9.88257 -2.93747e-21 0.314926)
(9.83293 2.41311e-18 0.381032)
(9.77562 -6.18844e-19 0.451022)
(9.71081 -2.12351e-21 0.525901)
(9.63865 -1.32554e-18 0.606706)
(9.55927 1.34224e-18 0.694532)
(9.47275 -2.78265e-18 0.790543)
(9.37921 3.54464e-18 0.896009)
(9.27877 -2.20811e-18 1.01235)
(9.17165 3.72726e-18 1.14114)
(9.05811 -3.08869e-18 1.28418)
(8.93844 3.13162e-18 1.44349)
(8.81317 7.99943e-19 1.62147)
(8.683 -1.23037e-18 1.82092)
(8.54888 -5.90005e-18 2.04519)
(8.41208 7.92915e-19 2.29826)
(8.27431 6.01601e-18 2.58494)
(8.13783 8.3777e-19 2.91115)
(8.00574 -1.38431e-17 3.28418)
(7.88191 2.73628e-17 3.71304)
(7.77319 -1.84231e-18 4.20763)
(7.67352 -9.77088e-18 4.78647)
(7.64411 -1.216e-17 5.41678)
(7.41896 1.04761e-17 6.30492)
(7.87499 -1.90324e-17 6.69382)
(6.37028 1.88572e-18 8.18905)
(9.99598 -1.96465e-18 0.0697678)
(9.98269 -4.0201e-19 0.136956)
(9.95972 2.475e-18 0.202755)
(9.92815 0 0.268811)
(9.8888 0 0.33661)
(9.84215 -1.1989e-18 0.407407)
(9.78842 -1.23287e-18 0.482294)
(9.72782 -8.77773e-21 0.562309)
(9.66058 1.29031e-18 0.648521)
(9.58687 -2.6686e-18 0.742054)
(9.50685 1.35648e-18 0.844102)
(9.42074 -1.39162e-18 0.955962)
(9.32876 -2.14381e-18 1.07907)
(9.23126 -7.36117e-19 1.21503)
(9.12867 0 1.36567)
(9.02147 0 1.53304)
(8.91036 -7.85709e-19 1.71953)
(8.79629 7.17927e-18 1.92795)
(8.6805 -8.83661e-18 2.16167)
(8.5646 5.71191e-18 2.42471)
(8.45069 -5.71597e-18 2.72191)
(8.34152 -1.65813e-18 3.05924)
(8.24084 0 3.44406)
(8.15306 0 3.88553)
(8.08601 3.01049e-18 4.39375)
(8.03452 -5.49202e-18 4.99034)
(8.06822 1.61185e-17 5.64094)
(7.90156 -2.82993e-17 6.56591)
(8.4547 9.70633e-18 7.01002)
(6.9658 -1.29543e-17 8.63439)
(9.99629 4.01917e-18 0.0737958)
(9.98368 -2.25748e-18 0.144951)
(9.96206 -1.37084e-18 0.214785)
(9.93247 -5.61167e-19 0.284965)
(9.89572 -2.88244e-18 0.356987)
(9.85225 5.91055e-19 0.432143)
(9.80231 0 0.511556)
(9.74614 0 0.596285)
(9.68403 0 0.687422)
(9.61622 0 0.786116)
(9.54297 4.03738e-18 0.893582)
(9.46455 -1.35571e-18 1.01113)
(9.38132 1.40877e-18 1.14021)
(9.29373 0 1.28241)
(9.20234 0 1.43958)
(9.10785 0 1.61374)
(9.01116 1.50233e-18 1.80726)
(8.91345 1.52171e-18 2.02294)
(8.81622 -4.64797e-18 2.26411)
(8.72143 6.22114e-18 2.53478)
(8.63153 1.54141e-18 2.83976)
(8.5498 1.5403e-17 3.18503)
(8.48077 -1.21895e-17 3.57796)
(8.42936 0 4.02784)
(8.4048 -2.86135e-18 4.54499)
(8.40296 -1.02556e-17 5.1532)
(8.50021 1.40985e-17 5.82303)
(8.40836 0 6.77236)
(9.05653 7.94358e-18 7.30264)
(7.62428 -3.19008e-18 9.10455)
(9.99663 -4.13728e-18 0.0775876)
(9.98476 2.38165e-18 0.152459)
(9.9646 -2.71148e-19 0.226048)
(9.93714 0 0.300042)
(9.90311 2.29316e-18 0.375962)
(9.86297 0 0.45513)
(9.81699 0 0.538683)
(9.76545 0 0.627697)
(9.70867 0 0.723274)
(9.64696 0 0.826577)
(9.58065 1.31322e-18 0.938837)
(9.51013 1.34076e-18 1.06136)
(9.43586 -2.75787e-18 1.19557)
(9.35839 -1.41235e-18 1.34306)
(9.27844 2.839e-18 1.50565)
(9.19685 -7.23987e-18 1.68532)
(9.1147 2.91321e-18 1.88437)
(9.03343 -5.95304e-18 2.10556)
(8.95481 5.94151e-18 2.35214)
(8.88114 0 2.62806)
(8.81523 -1.49697e-18 2.93802)
(8.7609 8.67086e-18 3.28784)
(8.72341 -1.14218e-17 3.68482)
(8.70871 0 4.13823)
(8.7279 0 4.65856)
(8.77833 0 5.27047)
(8.94026 -8.68418e-18 5.95454)
(8.94542 6.91149e-18 6.90655)
(9.68954 1.19314e-17 7.55452)
(8.39162 2.78911e-18 9.63052)
(9.99702 0 0.081122)
(9.98589 2.62507e-19 0.159444)
(9.96728 -8.08529e-19 0.236499)
(9.94205 5.52072e-19 0.314)
(9.9108 0 0.393495)
(9.87407 2.31707e-18 0.476319)
(9.83216 2.37158e-18 0.563621)
(9.78537 -1.22003e-18 0.656489)
(9.73407 1.24029e-18 0.756029)
(9.67862 0 0.863405)
(9.61942 -1.30161e-18 0.979838)
(9.55695 -1.3275e-18 1.10662)
(9.49179 -1.33916e-18 1.24513)
(9.42455 1.37545e-18 1.39696)
(9.35612 -6.94772e-18 1.56389)
(9.28751 7.02241e-18 1.74784)
(9.21992 2.83804e-18 1.95099)
(9.15502 -1.43944e-18 2.17598)
(9.09484 0 2.42599)
(9.04199 -8.50564e-18 2.70478)
(8.99977 8.4202e-18 3.01685)
(8.97249 0 3.36768)
(8.96593 5.31014e-18 3.76414)
(8.98771 -2.34799e-19 4.21515)
(9.05071 4.2985e-18 4.73122)
(9.15542 -8.73641e-18 5.33578)
(9.38229 -7.29201e-18 6.02084)
(9.50937 -1.22877e-17 6.94023)
(10.3527 4.29206e-18 7.70911)
(9.33719 6.0432e-18 10.269)
(0.0265236 -5.66422e-20 -0.0316102)
(0.106264 0 -0.0389697)
(0.250645 0 -0.0352094)
(0.417439 -7.62593e-20 -0.0299104)
(0.573293 4.09241e-20 -0.0235754)
(0.699104 -4.42466e-20 -0.0186456)
(0.799045 0 -0.0158589)
(0.880781 3.08817e-20 -0.0145064)
(0.949937 1.05974e-21 -0.0137097)
(1.00932 0 -0.0128287)
(1.05987 3.66029e-20 -0.0117171)
(1.1024 0 -0.0104284)
(1.13703 0 -0.00859778)
(1.16233 0 -0.00571495)
(1.17603 3.65422e-20 -0.00176336)
(1.17712 -3.50815e-20 0.00214413)
(1.16829 -3.29856e-20 0.00411848)
(1.15383 0 0.00458561)
(1.13464 3.27342e-21 0.0057276)
(1.10878 -4.65462e-21 0.00807635)
(1.07544 -1.94402e-20 0.0101459)
(1.03779 1.58481e-20 0.0104951)
(1.00316 9.07751e-22 0.00867198)
(0.979945 0 0.0047474)
(0.975155 0 -0.00248945)
(0.995007 1.66768e-23 -0.0135031)
(1.04401 -2.10887e-21 -0.0273539)
(1.12343 -3.67547e-21 -0.0425321)
(1.23295 -3.77814e-21 -0.0574092)
(1.41132 -4.50782e-23 -0.0698985)
(-2.79673e-05 2.81455e-19 -0.0540352)
(0.0615694 -4.00781e-19 -0.0965514)
(0.211653 1.68136e-19 -0.104055)
(0.393149 2.28088e-19 -0.0972432)
(0.568262 -2.38213e-19 -0.0824555)
(0.710527 1.6936e-20 -0.0685787)
(0.82153 1.14063e-19 -0.0591988)
(0.90885 0 -0.0531564)
(0.978457 -9.72228e-20 -0.0485365)
(1.0339 -6.93327e-20 -0.0438796)
(1.07751 -3.59907e-20 -0.0389442)
(1.11062 0 -0.0339805)
(1.13446 3.74521e-20 -0.0280436)
(1.14999 -3.6943e-20 -0.0198431)
(1.15642 -3.6314e-20 -0.00939158)
(1.15204 1.78271e-20 0.00109469)
(1.13699 4.98818e-20 0.00967875)
(1.11497 -7.35035e-21 0.0163108)
(1.08906 7.27155e-21 0.0230147)
(1.05531 0 0.0311975)
(1.01021 2.09418e-20 0.0371544)
(0.956929 -1.68686e-20 0.0363776)
(0.901671 2.5098e-20 0.0273448)
(0.850493 0 0.0121477)
(0.806894 2.99959e-22 -0.00650156)
(0.764406 -1.26204e-21 -0.0278348)
(0.740179 -2.47645e-21 -0.0502666)
(0.745778 3.8537e-21 -0.0755529)
(0.788082 3.70068e-21 -0.10719)
(0.913994 0 -0.154655)
(-0.0184313 0 -0.074994)
(0.00653524 -5.73868e-19 -0.150373)
(0.125867 3.30563e-19 -0.168443)
(0.274839 -1.50828e-21 -0.157466)
(0.420917 1.5851e-19 -0.134079)
(0.538048 1.90353e-19 -0.112064)
(0.624544 -3.26998e-19 -0.096764)
(0.685637 1.15354e-19 -0.0860511)
(0.726448 6.51372e-20 -0.0771182)
(0.750104 6.97925e-20 -0.0678589)
(0.759052 0 -0.0583305)
(0.755555 -7.63994e-20 -0.0497843)
(0.740882 3.73606e-20 -0.0401153)
(0.717037 3.83131e-20 -0.0251751)
(0.685277 0 -0.0067627)
(0.645404 0 0.00687896)
(0.5931 0 0.0105662)
(0.520687 1.57102e-20 0.0150781)
(0.43424 -2.98341e-20 0.0264529)
(0.336866 -3.99084e-20 0.0447481)
(0.227518 -4.63898e-20 0.0645437)
(0.101965 -4.15154e-20 0.0778606)
(-0.0331316 -2.61351e-20 0.0788228)
(-0.163904 2.79098e-21 0.0664508)
(-0.25754 0 0.0445671)
(-0.299577 2.46031e-21 0.0139427)
(-0.313594 8.39e-22 -0.0380202)
(-0.254983 -8.24902e-21 -0.113308)
(-0.143058 3.15602e-22 -0.208864)
(0.06248 2.04976e-22 -0.312519)
(-0.0284999 4.58217e-19 -0.0856322)
(-0.0349263 -1.85557e-19 -0.188942)
(0.0477402 3.20546e-19 -0.215037)
(0.156726 3.13918e-19 -0.200098)
(0.262821 -2.42778e-19 -0.170702)
(0.342867 -2.19648e-19 -0.142526)
(0.392665 2.10733e-19 -0.121825)
(0.415029 1.2595e-19 -0.105757)
(0.415033 7.33749e-21 -0.0913282)
(0.395286 -2.85122e-19 -0.0760792)
(0.358783 0 -0.0601352)
(0.308377 -7.96567e-20 -0.0477408)
(0.242317 7.97732e-20 -0.0402717)
(0.164471 -4.09951e-20 -0.0298429)
(0.0798787 4.10191e-20 -0.00221078)
(-0.0427685 1.60178e-19 0.0381304)
(-0.232089 3.58382e-20 0.0738817)
(-0.446171 -3.45418e-20 0.0930489)
(-0.622749 1.43601e-20 0.111497)
(-0.756342 1.327e-19 0.132704)
(-0.858865 5.59331e-20 0.148389)
(-0.940687 1.0705e-19 0.151335)
(-1.00405 5.4151e-20 0.136577)
(-1.04064 3.68274e-20 0.10098)
(-1.04263 -7.02148e-22 0.0436843)
(-1.00926 -7.52276e-22 -0.0338872)
(-0.926238 8.16662e-21 -0.129678)
(-0.822382 7.30271e-21 -0.236622)
(-0.711864 -4.03226e-22 -0.343385)
(-0.624256 0 -0.420675)
(-0.0372332 -4.51513e-19 -0.0958438)
(-0.0717308 3.71905e-19 -0.218293)
(-0.0275517 -3.19804e-19 -0.245168)
(0.0381043 -1.5748e-19 -0.22436)
(0.0969932 -8.59758e-20 -0.189325)
(0.130262 0 -0.154938)
(0.132862 0 -0.127237)
(0.103705 0 -0.104196)
(0.0511384 0 -0.0836063)
(-0.0239631 3.01153e-19 -0.0649374)
(-0.115807 2.41351e-21 -0.0444037)
(-0.238364 2.80871e-21 -0.012056)
(-0.42396 -1.6347e-19 0.0168175)
(-0.633122 0 0.0450466)
(-0.826024 0 0.0879846)
(-0.951945 2.00765e-21 0.133782)
(-1.0509 3.29335e-20 0.163576)
(-1.16123 -1.57599e-19 0.170269)
(-1.26963 0 0.167951)
(-1.36313 -1.9997e-19 0.166965)
(-1.43498 0 0.165053)
(-1.4811 -7.57751e-20 0.153436)
(-1.50098 -4.36991e-20 0.123423)
(-1.495 5.62737e-21 0.0706733)
(-1.46575 0 -0.00413704)
(-1.42056 -2.73959e-22 -0.0975163)
(-1.36028 3.43549e-22 -0.202077)
(-1.29994 -1.12127e-22 -0.309665)
(-1.25338 -7.94797e-23 -0.407073)
(-1.23377 8.70669e-23 -0.473951)
(-0.0475183 -2.32585e-19 -0.108199)
(-0.11072 3.5341e-19 -0.236143)
(-0.106304 0 -0.254322)
(-0.0884613 1.62101e-19 -0.224018)
(-0.0859692 -3.75861e-19 -0.181557)
(-0.111411 4.07513e-19 -0.14038)
(-0.168011 5.97302e-20 -0.102654)
(-0.271069 -2.73026e-19 -0.0690749)
(-0.399743 2.76349e-19 -0.0380624)
(-0.567543 -1.48163e-19 -0.00209417)
(-0.76391 1.51139e-19 0.0382974)
(-0.946901 9.13537e-22 0.0777464)
(-1.08685 1.50486e-19 0.106312)
(-1.21129 -7.52839e-20 0.124584)
(-1.32987 7.36093e-20 0.141198)
(-1.43596 -3.27916e-20 0.167481)
(-1.52548 -9.80583e-20 0.194183)
(-1.60673 1.47528e-19 0.206655)
(-1.68192 8.26972e-20 0.205932)
(-1.74653 9.63755e-20 0.197988)
(-1.79499 -8.73933e-20 0.18303)
(-1.82384 -8.21626e-20 0.155984)
(-1.83359 -4.62375e-20 0.111202)
(-1.82751 -4.56535e-20 0.0460511)
(-1.81025 0 -0.0382885)
(-1.78609 0 -0.137897)
(-1.75945 -3.52807e-21 -0.245384)
(-1.73779 1.35406e-22 -0.351122)
(-1.72844 0 -0.4433)
(-1.73037 3.26824e-21 -0.504066)
(-0.0605673 1.37712e-18 -0.12124)
(-0.155071 -3.77615e-19 -0.236054)
(-0.19352 3.224e-19 -0.235713)
(-0.231794 -3.3852e-19 -0.191599)
(-0.301078 0 -0.135721)
(-0.403952 -2.69399e-20 -0.0859352)
(-0.539043 -6.01066e-20 -0.0376865)
(-0.708873 1.28913e-19 0.00988062)
(-0.903721 1.35573e-19 0.0546135)
(-1.07566 1.40528e-19 0.0905017)
(-1.21306 1.41218e-19 0.115938)
(-1.33804 4.33777e-19 0.135355)
(-1.45491 -1.42392e-19 0.154277)
(-1.5642 -1.45745e-19 0.172819)
(-1.66569 -6.97947e-20 0.190816)
(-1.7564 -1.35366e-19 0.210265)
(-1.83396 -9.84795e-20 0.227469)
(-1.90111 1.73989e-21 0.234919)
(-1.9604 -7.89214e-20 0.230964)
(-2.01083 2.33139e-20 0.217297)
(-2.04998 1.51677e-19 0.193454)
(-2.07668 7.20064e-20 0.156268)
(-2.09221 5.17638e-20 0.102343)
(-2.09955 4.25139e-21 0.0302972)
(-2.10173 4.83337e-20 -0.0585809)
(-2.09982 -1.99598e-21 -0.160473)
(-2.09879 2.27659e-20 -0.268905)
(-2.10205 -3.08823e-20 -0.374009)
(-2.11307 2.0419e-20 -0.463286)
(-2.12434 -3.28421e-21 -0.519218)
(-0.0759101 6.57085e-19 -0.130346)
(-0.205703 -1.02978e-18 -0.206836)
(-0.296622 6.37271e-19 -0.179748)
(-0.408451 -5.17774e-19 -0.117423)
(-0.547889 0 -0.0552496)
(-0.716583 4.24008e-19 0.00751281)
(-0.913209 -4.56313e-19 0.0685098)
(-1.08598 -1.24893e-19 0.112513)
(-1.22929 -1.29815e-19 0.138667)
(-1.36343 -4.03693e-19 0.158296)
(-1.48767 -1.33817e-19 0.176647)
(-1.60227 -5.55719e-19 0.193162)
(-1.70806 1.38127e-19 0.207911)
(-1.80566 2.07043e-19 0.222143)
(-1.8948 6.8364e-20 0.236517)
(-1.97379 0 0.250515)
(-2.04166 1.24724e-19 0.260638)
(-2.10004 0 0.262376)
(-2.15106 0 0.254001)
(-2.19532 1.03812e-19 0.235493)
(-2.23256 -8.78605e-20 0.205906)
(-2.26309 9.36602e-21 0.162878)
(-2.28839 -7.54289e-20 0.103993)
(-2.31048 -7.96626e-21 0.0282407)
(-2.33078 -4.24962e-20 -0.063281)
(-2.34853 2.06773e-21 -0.166899)
(-2.3677 -2.4282e-20 -0.276452)
(-2.38951 3.07226e-20 -0.382128)
(-2.41439 -2.04878e-20 -0.470103)
(-2.43137 1.67252e-20 -0.52278)
(-0.0911331 2.11333e-19 -0.123985)
(-0.267523 0 -0.140864)
(-0.418268 -3.24384e-19 -0.0837648)
(-0.596561 0 -0.00833243)
(-0.797494 0 0.0688495)
(-0.992328 -3.96418e-19 0.13438)
(-1.15075 4.4652e-19 0.170867)
(-1.2975 0 0.195265)
(-1.4341 0 0.214182)
(-1.56081 2.60411e-19 0.229054)
(-1.67708 0 0.241221)
(-1.78298 2.77467e-19 0.251847)
(-1.87898 -1.39845e-19 0.261403)
(-1.96577 1.36904e-19 0.270604)
(-2.04364 6.80085e-20 0.279833)
(-2.11224 2.03916e-19 0.288098)
(-2.17169 0 0.292379)
(-2.22337 -2.47539e-19 0.289368)
(-2.26913 -2.32545e-19 0.277352)
(-2.31042 -1.01876e-19 0.255605)
(-2.34832 1.14696e-20 0.222989)
(-2.3841 -1.83654e-19 0.17745)
(-2.41936 -1.03132e-19 0.116782)
(-2.45546 -1.48957e-19 0.0398067)
(-2.49248 -1.35848e-19 -0.0528133)
(-2.52855 1.18125e-19 -0.157851)
(-2.56516 1.11872e-21 -0.269202)
(-2.60221 -1.91018e-21 -0.377079)
(-2.63757 1.03035e-21 -0.465925)
(-2.65861 -1.71209e-20 -0.517434)
(-0.114223 -2.1607e-20 -0.0878766)
(-0.332296 -6.05756e-19 -0.0425903)
(-0.544844 6.33981e-19 0.0474933)
(-0.772289 0 0.145398)
(-0.967208 -4.16805e-19 0.207015)
(-1.13811 4.13861e-19 0.242325)
(-1.29513 -2.36429e-19 0.267397)
(-1.43919 3.51389e-19 0.284103)
(-1.57089 0 0.294798)
(-1.69057 1.3315e-19 0.301928)
(-1.79832 -2.66825e-19 0.306757)
(-1.89451 -1.36726e-19 0.310374)
(-1.97989 1.40488e-19 0.313652)
(-2.05556 -4.21775e-19 0.317277)
(-2.12247 -2.81847e-19 0.32127)
(-2.18108 -2.6593e-19 0.324319)
(-2.23219 2.67636e-19 0.323785)
(-2.27743 2.13448e-19 0.317047)
(-2.31857 2.59526e-19 0.302522)
(-2.35765 0 0.27925)
(-2.3967 0 0.246005)
(-2.43735 1.80345e-19 0.200767)
(-2.48152 3.48384e-19 0.141149)
(-2.53051 1.46854e-19 0.0653748)
(-2.58339 1.30379e-19 -0.0267805)
(-2.63753 -2.58976e-19 -0.132925)
(-2.68968 3.3446e-21 -0.247202)
(-2.73999 -1.00088e-19 -0.359075)
(-2.78383 6.74042e-20 -0.451439)
(-2.80805 3.19735e-20 -0.504145)
(-0.145031 -9.11592e-19 -0.0234998)
(-0.397387 -2.96745e-19 0.115308)
(-0.640863 2.07053e-19 0.229006)
(-0.859839 3.53612e-19 0.292375)
(-1.05423 0 0.332906)
(-1.22818 -2.24484e-19 0.357914)
(-1.38448 1.03221e-19 0.371386)
(-1.52436 1.24193e-19 0.376991)
(-1.6491 4.48696e-21 0.377581)
(-1.75971 -5.16586e-19 0.375386)
(-1.8571 0 0.371698)
(-1.94201 0 0.367533)
(-2.01547 0 0.363932)
(-2.07906 -8.34091e-20 0.361704)
(-2.13454 4.19838e-19 0.360699)
(-2.18299 -6.98502e-20 0.359326)
(-2.22537 -2.65181e-19 0.355073)
(-2.26345 0 0.345746)
(-2.29911 2.84433e-19 0.330031)
(-2.33494 -2.98349e-20 0.307044)
(-2.3739 -2.26943e-19 0.275489)
(-2.41805 0 0.233195)
(-2.46952 -1.77526e-19 0.177423)
(-2.52969 -2.02013e-19 0.105459)
(-2.59697 0 0.0156148)
(-2.66771 3.19801e-19 -0.0911799)
(-2.73645 -2.3121e-21 -0.209729)
(-2.79837 -2.88123e-20 -0.327576)
(-2.84924 -6.73702e-20 -0.426434)
(-2.87615 -3.21779e-20 -0.483018)
(-0.130856 6.61205e-19 0.165531)
(-0.395422 -1.31106e-20 0.303598)
(-0.665068 4.06435e-19 0.394646)
(-0.897565 0 0.445515)
(-1.09807 -1.06074e-19 0.471934)
(-1.27275 0 0.481555)
(-1.4248 1.13654e-19 0.479879)
(-1.55668 -2.38355e-19 0.471622)
(-1.67101 2.49623e-19 0.460262)
(-1.76984 2.60908e-19 0.447701)
(-1.85471 0 0.434774)
(-1.9266 0 0.422241)
(-1.98663 0 0.411335)
(-2.0368 2.89616e-19 0.40322)
(-2.0797 3.03518e-19 0.397754)
(-2.11725 2.99754e-19 0.392946)
(-2.15033 2.92531e-19 0.386044)
(-2.18006 3.3667e-20 0.375112)
(-2.20828 -3.19513e-19 0.359368)
(-2.23806 -2.23436e-19 0.338367)
(-2.27345 2.12493e-19 0.310857)
(-2.31785 2.47037e-19 0.274358)
(-2.37384 0 0.22545)
(-2.44247 1.9559e-19 0.160141)
(-2.52165 -2.1792e-19 0.0749349)
(-2.60707 -1.74399e-19 -0.0311671)
(-2.69149 6.27998e-22 -0.154077)
(-2.76517 2.89585e-19 -0.281018)
(-2.82158 2.61539e-22 -0.389831)
(-2.85068 -5.18478e-20 -0.453686)
(-0.112499 7.98368e-20 0.263915)
(-0.364021 0 0.519833)
(-0.660074 -3.87603e-19 0.591752)
(-0.90408 3.8402e-19 0.619468)
(-1.10566 3.30429e-19 0.622865)
(-1.2755 -1.0063e-19 0.610797)
(-1.41787 -2.46712e-19 0.589397)
(-1.53653 3.67397e-19 0.564405)
(-1.63587 0 0.539503)
(-1.71951 0 0.515926)
(-1.78936 0 0.493533)
(-1.84615 0 0.472504)
(-1.89075 0 0.454263)
(-1.9256 -3.20835e-19 0.440655)
(-1.95434 -2.2625e-19 0.431804)
(-1.97967 -3.78248e-19 0.42491)
(-2.00207 -2.94187e-19 0.416328)
(-2.02137 -3.00039e-19 0.404328)
(-2.03887 0 0.389188)
(-2.05818 2.573e-19 0.3715)
(-2.08459 0 0.350369)
(-2.12342 -4.85215e-19 0.322834)
(-2.17841 -3.7237e-21 0.28426)
(-2.25054 1.84019e-21 0.228924)
(-2.3372 2.20747e-19 0.151292)
(-2.43294 0 0.0481331)
(-2.52888 0 -0.0784147)
(-2.6135 4.01909e-20 -0.216272)
(-2.67258 -7.57541e-22 -0.33915)
(-2.70203 -1.23059e-20 -0.41501)
(-0.0277198 -1.88394e-20 0.911945)
(-0.26752 -3.86475e-19 0.745652)
(-0.642138 3.94277e-19 0.820825)
(-0.887655 1.12341e-19 0.799703)
(-1.08215 1.66999e-20 0.772351)
(-1.23977 -1.00831e-19 0.73334)
(-1.36505 1.52724e-20 0.688784)
(-1.46328 -3.77007e-19 0.6462)
(-1.54144 2.75764e-19 0.60913)
(-1.60505 -2.92432e-19 0.577089)
(-1.65619 0 0.547621)
(-1.69447 0 0.519367)
(-1.71989 8.30964e-20 0.493921)
(-1.73552 2.42104e-19 0.474886)
(-1.747 0 0.46368)
(-1.75804 0 0.455984)
(-1.76761 0 0.446049)
(-1.7731 3.05124e-19 0.432512)
(-1.77461 -1.8308e-20 0.417658)
(-1.77638 1.81529e-20 0.403984)
(-1.78553 0 0.391343)
(-1.80962 2.55631e-19 0.376098)
(-1.85428 0 0.351834)
(-1.92123 0 0.310506)
(-2.0073 0 0.244101)
(-2.10526 -3.02377e-19 0.146977)
(-2.20399 3.52889e-22 0.0192327)
(-2.28904 -2.05132e-19 -0.128627)
(-2.34556 1.77684e-19 -0.270422)
(-2.36906 1.43875e-19 -0.365064)
(0.36424 -9.62405e-20 0.109198)
(-0.410412 4.87165e-20 0.891775)
(-0.624969 3.79186e-19 1.09892)
(-0.869484 9.91768e-21 1.02577)
(-1.03707 1.18094e-19 0.972141)
(-1.17258 -2.49745e-19 0.888351)
(-1.26961 0 0.805443)
(-1.33594 0 0.737049)
(-1.38345 -2.77198e-19 0.684522)
(-1.42027 1.38303e-19 0.641917)
(-1.44796 7.14794e-20 0.601389)
(-1.46329 8.26032e-20 0.559442)
(-1.46356 0 0.520444)
(-1.45241 4.64928e-19 0.493928)
(-1.43999 -1.36011e-19 0.483448)
(-1.43268 9.01234e-20 0.479121)
(-1.42604 3.20712e-19 0.469521)
(-1.41245 -3.51196e-19 0.454082)
(-1.39008 -9.90853e-21 0.438705)
(-1.36402 1.45499e-20 0.42914)
(-1.34345 -4.66822e-21 0.426713)
(-1.33828 2.88927e-19 0.427263)
(-1.35657 0 0.422164)
(-1.40192 4.84525e-21 0.40004)
(-1.47163 -3.42309e-19 0.349328)
(-1.55664 6.68548e-19 0.261703)
(-1.6412 0 0.136353)
(-1.70566 0 -0.0174857)
(-1.73495 -1.89039e-19 -0.178339)
(-1.73406 -7.79785e-20 -0.298323)
(9.99747 3.91824e-18 0.0844433)
(9.98707 -4.25855e-18 0.166005)
(9.97018 7.73575e-19 0.246286)
(9.94733 -5.2802e-19 0.327065)
(9.91897 -2.1614e-18 0.409881)
(9.88582 -4.43676e-18 0.49606)
(9.84818 -4.53806e-18 0.586769)
(9.80639 0 0.683106)
(9.76086 2.35952e-18 0.786175)
(9.71199 0 0.897123)
(9.66025 0 1.01715)
(9.6062 0 1.14751)
(9.55053 1.33419e-20 1.28958)
(9.49386 5.17802e-18 1.44488)
(9.43732 -3.90231e-18 1.61511)
(9.38217 0 1.80211)
(9.32961 3.98089e-18 2.00793)
(9.28152 -8.01398e-18 2.23508)
(9.24013 5.31828e-18 2.48653)
(9.20839 7.92332e-18 2.76574)
(9.19023 -1.81473e-17 3.07684)
(9.19031 -4.85558e-18 3.42483)
(9.21505 1.46996e-17 3.81571)
(9.27343 0 4.2574)
(9.37962 -4.31537e-18 4.7597)
(9.539 0 5.34157)
(9.82799 5.92629e-19 6.00228)
(10.0991 5.68709e-18 6.83379)
(11.1873 -8.74309e-18 7.59569)
(12.4247 -5.80212e-18 10.5588)
(9.99792 -3.81804e-18 0.0875451)
(9.9884 3.90383e-18 0.172134)
(9.9733 0 0.255386)
(9.95295 1.53044e-18 0.339206)
(9.92768 1.57645e-18 0.425082)
(9.89829 2.14818e-18 0.514295)
(9.86509 3.29392e-18 0.608039)
(9.82849 2.23071e-18 0.707426)
(9.78891 -2.29136e-18 0.813552)
(9.74681 -1.51328e-20 0.927538)
(9.70271 -1.07868e-20 1.05055)
(9.65728 4.79058e-18 1.1838)
(9.61127 -1.21734e-18 1.32862)
(9.56534 4.9168e-18 1.48644)
(9.52084 2.5159e-18 1.65883)
(9.47917 -5.01483e-18 1.84753)
(9.44163 0 2.05446)
(9.41029 -1.00651e-17 2.28194)
(9.38755 1.68592e-20 2.53261)
(9.37676 9.87345e-18 2.80946)
(9.3819 -7.91397e-20 3.11606)
(9.40837 4.75081e-18 3.45676)
(9.46335 8.83214e-18 3.83632)
(9.5558 -1.26269e-17 4.26091)
(9.70027 1.54226e-17 4.73812)
(9.90592 -6.60227e-18 5.27925)
(10.2369 3.38709e-18 5.88162)
(10.5903 1.47697e-18 6.56775)
(11.3344 9.2917e-19 7.18247)
(12.237 9.69781e-19 8.23971)
(9.99826 -3.56909e-18 0.0903804)
(9.98988 -3.54115e-19 0.177736)
(9.97658 2.4189e-19 0.263689)
(9.95879 -1.98936e-18 0.350259)
(9.93684 0 0.438888)
(9.91139 -1.03915e-18 0.530795)
(9.88282 -3.64453e-21 0.62719)
(9.85156 -1.08958e-18 0.7292)
(9.81807 -2.19104e-18 0.837907)
(9.78287 -2.24748e-18 0.954396)
(9.74654 0 1.07977)
(9.70986 -2.31769e-18 1.21518)
(9.67354 -2.33726e-18 1.36191)
(9.63854 -2.3955e-18 1.5213)
(9.60622 7.13803e-18 1.69473)