/*--------------------------------*- C++ -*----------------------------------*\
| =========                 |                                                 |
| \\      /  F ield         | OpenFOAM: The Open Source CFD Toolbox           |
|  \\    /   O peration     | Version:  5.x                                   |
|   \\  /    A nd           | Web:      www.OpenFOAM.org                      |
|    \\/     M anipulation  |                                                 |
\*---------------------------------------------------------------------------*/
FoamFile
{
    version     2.0;
    format      ascii;
    class       volVectorField;
    location    "0.4";
    object      U;
}
// * * * * * * * * * * * * * * * * * * * * * * * * * * * * * * * * * * * * * //

dimensions      [0 1 -1 0 0 0 0];

internalField   nonuniform List<vector> 
12013
(
(0.0999931 4.00175e-06 0)
(0.0999211 1.13716e-05 0)
(0.0997596 1.87659e-05 0)
(0.0995386 2.27962e-05 0)
(0.0993037 2.29795e-05 0)
(0.0990875 2.09666e-05 0)
(0.0988999 1.86542e-05 0)
(0.0987353 1.71028e-05 0)
(0.0985834 1.65058e-05 0)
(0.098436 1.66101e-05 0)
(0.0982884 1.7084e-05 0)
(0.0981388 1.7686e-05 0)
(0.097987 1.82887e-05 0)
(0.0978334 1.88464e-05 0)
(0.0976787 1.93552e-05 0)
(0.0975232 1.98265e-05 0)
(0.0973673 2.02737e-05 0)
(0.0972113 2.07069e-05 0)
(0.0970553 2.11322e-05 0)
(0.0968995 2.15529e-05 0)
(0.0967438 2.19696e-05 0)
(0.0965885 2.23824e-05 0)
(0.0964337 2.27904e-05 0)
(0.0962793 2.31924e-05 0)
(0.0961257 2.35886e-05 0)
(0.0959728 2.39779e-05 0)
(0.0958207 2.43612e-05 0)
(0.0956696 2.47393e-05 0)
(0.0955195 2.51137e-05 0)
(0.0953705 2.54852e-05 0)
(0.0952228 2.58561e-05 0)
(0.0950762 2.62279e-05 0)
(0.0949309 2.6602e-05 0)
(0.0947869 2.69802e-05 0)
(0.0946442 2.73645e-05 0)
(0.0945028 2.7756e-05 0)
(0.0943627 2.81568e-05 0)
(0.094224 2.85694e-05 0)
(0.0940865 2.89962e-05 0)
(0.0939503 2.94408e-05 0)
(0.0938153 2.99073e-05 0)
(0.0936815 3.0401e-05 0)
(0.0935487 3.0928e-05 0)
(0.0934168 3.14966e-05 0)
(0.0932857 3.21162e-05 0)
(0.0931552 3.27976e-05 0)
(0.0930251 3.35544e-05 0)
(0.092895 3.4403e-05 0)
(0.0927647 3.53624e-05 0)
(0.0926339 3.64555e-05 0)
(0.0925019 3.77094e-05 0)
(0.0923683 3.91564e-05 0)
(0.0922324 4.08351e-05 0)
(0.0920934 4.27915e-05 0)
(0.0919506 4.50815e-05 0)
(0.0918028 4.77722e-05 0)
(0.0916487 5.09449e-05 0)
(0.091487 5.4699e-05 0)
(0.091316 5.91565e-05 0)
(0.0911335 6.44686e-05 0)
(0.0909371 7.08236e-05 0)
(0.0907239 7.84585e-05 0)
(0.0904903 8.7674e-05 0)
(0.0902321 9.88562e-05 0)
(0.0899438 0.000112506 0)
(0.089619 0.000129284 0)
(0.0892493 0.000150066 0)
(0.0888244 0.000176044 0)
(0.0883307 0.000208854 0)
(0.0877508 0.000250789 0)
(0.0870613 0.000305122 0)
(0.0862311 0.000376623 0)
(0.0852171 0.000472385 0)
(0.083959 0.000603186 0)
(0.082371 0.000785776 0)
(0.0803283 0.00104674 0)
(0.0776458 0.00142924 0)
(0.0740305 0.00200686 0)
(0.0690273 0.00292736 0)
(0.0621 0.00460221 0)
(0.0542914 0.00888059 0)
(0.0999943 1.2145e-05 0)
(0.099924 3.47275e-05 0)
(0.099765 5.74133e-05 0)
(0.0995462 6.98265e-05 0)
(0.0993128 7.04583e-05 0)
(0.0990972 6.43423e-05 0)
(0.0989095 5.72828e-05 0)
(0.0987445 5.2535e-05 0)
(0.0985923 5.06991e-05 0)
(0.0984446 5.10077e-05 0)
(0.0982969 5.24479e-05 0)
(0.0981474 5.42824e-05 0)
(0.0979957 5.61226e-05 0)
(0.0978423 5.78275e-05 0)
(0.0976879 5.9384e-05 0)
(0.0975327 6.0827e-05 0)
(0.0973772 6.21972e-05 0)
(0.0972216 6.35249e-05 0)
(0.0970659 6.48294e-05 0)
(0.0969104 6.61197e-05 0)
(0.0967551 6.73985e-05 0)
(0.0966002 6.86653e-05 0)
(0.0964456 6.99175e-05 0)
(0.0962917 7.11523e-05 0)
(0.0961383 7.23687e-05 0)
(0.0959857 7.35654e-05 0)
(0.0958339 7.47444e-05 0)
(0.0956831 7.59076e-05 0)
(0.0955332 7.70591e-05 0)
(0.0953845 7.82036e-05 0)
(0.0952369 7.9346e-05 0)
(0.0950904 8.04915e-05 0)
(0.0949452 8.16454e-05 0)
(0.0948013 8.2812e-05 0)
(0.0946586 8.39977e-05 0)
(0.0945172 8.52065e-05 0)
(0.0943771 8.64447e-05 0)
(0.0942383 8.77192e-05 0)
(0.0941007 8.90382e-05 0)
(0.0939643 9.04124e-05 0)
(0.093829 9.18545e-05 0)
(0.0936949 9.33807e-05 0)
(0.0935618 9.50105e-05 0)
(0.0934295 9.6768e-05 0)
(0.0932979 9.86821e-05 0)
(0.0931669 0.000100787 0)
(0.0930363 0.000103124 0)
(0.0929056 0.000105743 0)
(0.0927747 0.000108702 0)
(0.0926431 0.000112071 0)
(0.0925104 0.000115933 0)
(0.092376 0.000120386 0)
(0.0922394 0.000125549 0)
(0.0920996 0.000131562 0)
(0.091956 0.000138594 0)
(0.0918074 0.000146849 0)
(0.0916526 0.000156576 0)
(0.0914903 0.000168075 0)
(0.0913187 0.000181717 0)
(0.0911359 0.00019796 0)
(0.0909395 0.000217372 0)
(0.0907266 0.000240668 0)
(0.090494 0.000268752 0)
(0.0902374 0.000302783 0)
(0.0899519 0.00034426 0)
(0.0896313 0.000395144 0)
(0.0892679 0.000458041 0)
(0.0888523 0.000536456 0)
(0.0883721 0.00063518 0)
(0.087812 0.000760867 0)
(0.0871517 0.00092292 0)
(0.086365 0.00113485 0)
(0.0854167 0.00141643 0)
(0.0842602 0.00179702 0)
(0.0828328 0.00232085 0)
(0.0810513 0.00305516 0)
(0.0788069 0.00410165 0)
(0.0759569 0.00561192 0)
(0.0723429 0.00780694 0)
(0.0680182 0.0109398 0)
(0.064257 0.0148638 0)
(0.0999953 2.03661e-05 0)
(0.0999286 5.8994e-05 0)
(0.0997753 9.79163e-05 0)
(0.0995621 0.000119452 0)
(0.0993325 0.00012087 0)
(0.0991184 0.000110658 0)
(0.0989305 9.87051e-05 0)
(0.0987646 9.06019e-05 0)
(0.0986114 8.74229e-05 0)
(0.0984631 8.78929e-05 0)
(0.0983152 9.03033e-05 0)
(0.0981657 9.34012e-05 0)
(0.0980144 9.65233e-05 0)
(0.0978616 9.94259e-05 0)
(0.0977077 0.000102084 0)
(0.0975533 0.000104553 0)
(0.0973985 0.000106901 0)
(0.0972436 0.000109179 0)
(0.0970888 0.000111419 0)
(0.0969341 0.000113637 0)
(0.0967796 0.000115836 0)
(0.0966254 0.000118015 0)
(0.0964716 0.000120171 0)
(0.0963184 0.000122299 0)
(0.0961658 0.000124396 0)
(0.0960139 0.000126462 0)
(0.0958627 0.0001285 0)
(0.0957125 0.000130512 0)
(0.0955632 0.000132507 0)
(0.095415 0.000134491 0)
(0.0952679 0.000136474 0)
(0.0951219 0.000138465 0)
(0.094977 0.000140472 0)
(0.0948333 0.000142504 0)
(0.0946909 0.000144569 0)
(0.0945496 0.000146678 0)
(0.0944095 0.000148839 0)
(0.0942706 0.000151065 0)
(0.0941329 0.00015337 0)
(0.0939963 0.000155773 0)
(0.0938608 0.000158295 0)
(0.0937263 0.000160964 0)
(0.0935926 0.000163814 0)
(0.0934598 0.000166886 0)
(0.0933276 0.000170229 0)
(0.0931959 0.000173904 0)
(0.0930643 0.000177978 0)
(0.0929328 0.000182539 0)
(0.0928008 0.000187685 0)
(0.0926682 0.000193535 0)
(0.0925343 0.000200231 0)
(0.0923987 0.00020794 0)
(0.0922607 0.000216862 0)
(0.0921197 0.000227235 0)
(0.0919748 0.000239347 0)
(0.0918249 0.000253542 0)
(0.091669 0.000270237 0)
(0.0915057 0.000289939 0)
(0.0913333 0.000313268 0)
(0.0911501 0.000340989 0)
(0.0909538 0.000374048 0)
(0.0907418 0.00041363 0)
(0.0905109 0.000461226 0)
(0.0902575 0.000518735 0)
(0.089977 0.000588595 0)
(0.089664 0.000673977 0)
(0.0893119 0.000779044 0)
(0.0889125 0.000909335 0)
(0.088456 0.00107231 0)
(0.0879299 0.00127817 0)
(0.0873191 0.00154099 0)
(0.0866048 0.00188049 0)
(0.0857639 0.00232453 0)
(0.0847689 0.00291271 0)
(0.0835883 0.0037013 0)
(0.0821897 0.00476903 0)
(0.0805486 0.00622169 0)
(0.078664 0.00818895 0)
(0.0766012 0.0107989 0)
(0.0746204 0.0140571 0)
(0.0734112 0.017367 0)
(0.0999962 2.84113e-05 0)
(0.0999348 8.36076e-05 0)
(0.0997907 0.000139548 0)
(0.0995867 0.000171095 0)
(0.0993634 0.000173972 0)
(0.099152 0.000159996 0)
(0.098964 0.000143203 0)
(0.0987967 0.00013165 0)
(0.098642 0.000126997 0)
(0.0984926 0.000127522 0)
(0.0983442 0.000130841 0)
(0.0981949 0.00013518 0)
(0.0980442 0.000139592 0)
(0.0978923 0.00014372 0)
(0.0977395 0.000147518 0)
(0.0975862 0.00015106 0)
(0.0974326 0.000154436 0)
(0.097279 0.000157719 0)
(0.0971254 0.00016095 0)
(0.096972 0.000164151 0)
(0.0968188 0.000167329 0)
(0.0966659 0.000170482 0)
(0.0965134 0.000173604 0)
(0.0963614 0.00017669 0)
(0.0962099 0.000179735 0)
(0.0960592 0.00018274 0)
(0.0959092 0.000185706 0)
(0.09576 0.000188642 0)
(0.0956117 0.000191556 0)
(0.0954644 0.00019446 0)
(0.0953181 0.000197367 0)
(0.0951729 0.000200289 0)
(0.0950287 0.000203239 0)
(0.0948856 0.000206229 0)
(0.0947436 0.000209273 0)
(0.0946027 0.000212383 0)
(0.0944629 0.000215574 0)
(0.0943242 0.000218863 0)
(0.0941865 0.000222272 0)
(0.0940499 0.000225826 0)
(0.0939142 0.000229558 0)
(0.0937794 0.000233508 0)
(0.0936453 0.000237724 0)
(0.093512 0.000242266 0)
(0.0933791 0.000247204 0)
(0.0932466 0.000252623 0)
(0.0931142 0.000258626 0)
(0.0929817 0.000265332 0)
(0.0928487 0.000272884 0)
(0.0927149 0.000281452 0)
(0.0925797 0.000291236 0)
(0.0924429 0.000302476 0)
(0.0923036 0.000315453 0)
(0.0921613 0.000330506 0)
(0.0920151 0.000348039 0)
(0.0918641 0.000368537 0)
(0.0917072 0.000392583 0)
(0.0915432 0.000420887 0)
(0.0913706 0.00045431 0)
(0.0911878 0.00049391 0)
(0.0909926 0.000540989 0)
(0.0907828 0.000597166 0)
(0.0905557 0.000664465 0)
(0.0903081 0.00074544 0)
(0.0900362 0.000843339 0)
(0.0897356 0.000962331 0)
(0.0894011 0.00110782 0)
(0.0890266 0.00128686 0)
(0.0886049 0.00150877 0)
(0.088128 0.00178598 0)
(0.0875864 0.00213513 0)
(0.0869702 0.00257866 0)
(0.0862696 0.00314684 0)
(0.0854761 0.00388021 0)
(0.0845866 0.00483195 0)
(0.0836094 0.00606886 0)
(0.0825753 0.00766683 0)
(0.0815539 0.00969285 0)
(0.0806767 0.0121581 0)
(0.0801632 0.0149047 0)
(0.0802828 0.0173592 0)
(0.0999971 3.60459e-05 0)
(0.0999427 0.000107871 0)
(0.0998108 0.000181391 0)
(0.0996196 0.000223989 0)
(0.0994053 0.000229386 0)
(0.0991978 0.000212377 0)
(0.0990099 0.000191052 0)
(0.0988409 0.000176046 0)
(0.0986842 0.000169765 0)
(0.0985335 0.000170167 0)
(0.0983846 0.000174253 0)
(0.0982356 0.000179748 0)
(0.0980858 0.000185411 0)
(0.0979351 0.000190761 0)
(0.0977837 0.000195719 0)
(0.0976321 0.000200368 0)
(0.0974802 0.000204816 0)
(0.0973284 0.000209151 0)
(0.0971766 0.000213426 0)
(0.0970249 0.000217667 0)
(0.0968735 0.000221883 0)
(0.0967224 0.00022607 0)
(0.0965717 0.000230222 0)
(0.0964215 0.000234332 0)
(0.0962718 0.000238396 0)
(0.0961227 0.000242413 0)
(0.0959743 0.000246387 0)
(0.0958267 0.000250328 0)
(0.0956799 0.000254249 0)
(0.095534 0.000258163 0)
(0.0953889 0.000262088 0)
(0.0952448 0.000266042 0)
(0.0951017 0.000270038 0)
(0.0949596 0.000274096 0)
(0.0948184 0.000278231 0)
(0.0946782 0.000282462 0)
(0.094539 0.000286806 0)
(0.0944008 0.000291289 0)
(0.0942635 0.000295938 0)
(0.094127 0.000300787 0)
(0.0939914 0.00030588 0)
(0.0938566 0.000311269 0)
(0.0937224 0.000317018 0)
(0.0935887 0.000323207 0)
(0.0934555 0.000329927 0)
(0.0933224 0.000337291 0)
(0.0931894 0.000345432 0)
(0.0930561 0.000354506 0)
(0.0929222 0.000364702 0)
(0.0927874 0.000376238 0)
(0.0926514 0.000389376 0)
(0.0925135 0.000404423 0)
(0.0923733 0.000421747 0)
(0.09223 0.00044178 0)
(0.0920831 0.000465041 0)
(0.0919316 0.000492148 0)
(0.0917745 0.000523843 0)
(0.0916108 0.000561021 0)
(0.0914391 0.000604765 0)
(0.091258 0.000656394 0)
(0.0910658 0.000717521 0)
(0.0908606 0.000790133 0)
(0.0906402 0.000876687 0)
(0.090402 0.000980249 0)
(0.0901433 0.00110466 0)
(0.0898608 0.00125479 0)
(0.0895512 0.00143679 0)
(0.0892104 0.00165856 0)
(0.0888347 0.00193023 0)
(0.0884202 0.00226487 0)
(0.0879638 0.00267934 0)
(0.0874636 0.00319532 0)
(0.0869211 0.00384038 0)
(0.086343 0.00464885 0)
(0.0857455 0.00566156 0)
(0.0851594 0.00692301 0)
(0.0846379 0.00847245 0)
(0.084264 0.0103234 0)
(0.0841531 0.0124239 0)
(0.0844376 0.0145899 0)
(0.0851939 0.0164225 0)
(0.099998 4.30031e-05 0)
(0.0999517 0.000131029 0)
(0.0998347 0.000222434 0)
(0.0996592 0.000277244 0)
(0.0994564 0.000286622 0)
(0.0992544 0.000267735 0)
(0.0990672 0.000242479 0)
(0.0988964 0.000224133 0)
(0.0987376 0.000216064 0)
(0.0985854 0.000216096 0)
(0.0984361 0.000220726 0)
(0.0982876 0.00022722 0)
(0.0981389 0.000234045 0)
(0.0979898 0.000240578 0)
(0.0978404 0.000246694 0)
(0.0976908 0.000252469 0)
(0.0975412 0.000258023 0)
(0.0973916 0.000263453 0)
(0.0972422 0.00026882 0)
(0.0970929 0.000274154 0)
(0.0969438 0.000279463 0)
(0.0967951 0.000284745 0)
(0.0966467 0.000289992 0)
(0.0964988 0.000295196 0)
(0.0963513 0.000300352 0)
(0.0962044 0.000305461 0)
(0.0960582 0.000310528 0)
(0.0959126 0.000315565 0)
(0.0957677 0.000320587 0)
(0.0956236 0.000325613 0)
(0.0954803 0.000330665 0)
(0.0953379 0.000335761 0)
(0.0951962 0.000340923 0)
(0.0950555 0.000346171 0)
(0.0949156 0.000351525 0)
(0.0947765 0.00035701 0)
(0.0946383 0.000362648 0)
(0.0945008 0.00036847 0)
(0.0943642 0.00037451 0)
(0.0942284 0.000380814 0)
(0.0940932 0.000387433 0)
(0.0939587 0.000394436 0)
(0.0938246 0.000401901 0)
(0.093691 0.000409928 0)
(0.0935577 0.00041863 0)
(0.0934245 0.000428149 0)
(0.0932912 0.000438646 0)
(0.0931576 0.000450318 0)
(0.0930233 0.000463393 0)
(0.0928881 0.000478141 0)
(0.0927516 0.000494881 0)
(0.0926133 0.000513989 0)
(0.0924728 0.000535908 0)
(0.0923295 0.000561162 0)
(0.0921827 0.000590372 0)
(0.0920317 0.000624279 0)
(0.0918756 0.000663763 0)
(0.0917136 0.00070988 0)
(0.0915445 0.000763896 0)
(0.0913673 0.000827341 0)
(0.0911805 0.000902066 0)
(0.0909828 0.000990325 0)
(0.0907725 0.00109487 0)
(0.090548 0.00121909 0)
(0.0903075 0.00136713 0)
(0.0900492 0.00154416 0)
(0.0897714 0.00175655 0)
(0.0894726 0.00201225 0)
(0.089152 0.00232111 0)
(0.0888098 0.00269535 0)
(0.0884479 0.00314999 0)
(0.088071 0.00370327 0)
(0.0876885 0.00437681 0)
(0.087316 0.00519512 0)
(0.0869786 0.00618387 0)
(0.0867142 0.00736558 0)
(0.0865761 0.00875087 0)
(0.0866336 0.0103229 0)
(0.0869651 0.0120136 0)
(0.0876362 0.0136743 0)
(0.0886496 0.0150589 0)
(0.0999989 4.90322e-05 0)
(0.0999613 0.000152368 0)
(0.0998607 0.000261673 0)
(0.0997032 0.000329918 0)
(0.099514 0.000345082 0)
(0.099319 0.000325887 0)
(0.0991334 0.000297601 0)
(0.0989613 0.000276174 0)
(0.0988006 0.000266173 0)
(0.0986472 0.00026554 0)
(0.0984977 0.000270423 0)
(0.0983498 0.000277694 0)
(0.0982026 0.000285539 0)
(0.0980556 0.000293181 0)
(0.0979085 0.000300427 0)
(0.0977615 0.000307332 0)
(0.0976146 0.000314014 0)
(0.0974678 0.000320574 0)
(0.0973212 0.000327076 0)
(0.0971747 0.000333551 0)
(0.0970285 0.000340008 0)
(0.0968827 0.000346445 0)
(0.0967371 0.000352852 0)
(0.096592 0.000359221 0)
(0.0964473 0.000365547 0)
(0.0963031 0.000371832 0)
(0.0961595 0.000378083 0)
(0.0960164 0.000384315 0)
(0.095874 0.000390544 0)
(0.0957322 0.000396795 0)
(0.0955911 0.00040309 0)
(0.0954506 0.000409453 0)
(0.0953109 0.00041591 0)
(0.0951719 0.000422483 0)
(0.0950337 0.000429199 0)
(0.0948961 0.000436084 0)
(0.0947593 0.000443168 0)
(0.0946231 0.000450486 0)
(0.0944876 0.000458083 0)
(0.0943527 0.00046601 0)
(0.0942184 0.000474333 0)
(0.0940846 0.000483132 0)
(0.0939512 0.000492504 0)
(0.0938181 0.000502564 0)
(0.0936852 0.000513452 0)
(0.0935523 0.000525332 0)
(0.0934192 0.000538399 0)
(0.0932858 0.000552882 0)
(0.0931518 0.000569052 0)
(0.0930168 0.000587226 0)
(0.0928806 0.000607775 0)
(0.0927428 0.000631136 0)
(0.0926029 0.000657821 0)
(0.0924605 0.000688432 0)
(0.092315 0.00072368 0)
(0.0921659 0.000764402 0)
(0.0920124 0.000811591 0)
(0.0918539 0.000866421 0)
(0.0916896 0.000930294 0)
(0.0915186 0.00100488 0)
(0.0913401 0.00109216 0)
(0.0911531 0.00119455 0)
(0.0909568 0.00131491 0)
(0.0907503 0.0014567 0)
(0.0905329 0.0016241 0)
(0.0903042 0.00182213 0)
(0.0900642 0.00205685 0)
(0.0898135 0.0023355 0)
(0.0895539 0.00266675 0)
(0.0892888 0.0030608 0)
(0.0890236 0.00352951 0)
(0.0887672 0.00408625 0)
(0.0885327 0.00474546 0)
(0.0883391 0.00552157 0)
(0.0882126 0.00642674 0)
(0.088188 0.007467 0)
(0.0883083 0.00863586 0)
(0.088622 0.009905 0)
(0.0891749 0.011213 0)
(0.0899937 0.0124559 0)
(0.0910594 0.0134902 0)
(0.0999997 5.39544e-05 0)
(0.0999707 0.000171317 0)
(0.099887 0.000298247 0)
(0.0997485 0.000381121 0)
(0.0995744 0.00040411 0)
(0.099388 0.000386504 0)
(0.0992053 0.000356374 0)
(0.099033 0.000332291 0)
(0.0988711 0.000320273 0)
(0.0987168 0.000318664 0)
(0.0985674 0.000323462 0)
(0.0984207 0.000331237 0)
(0.0982753 0.000339917 0)
(0.0981306 0.00034856 0)
(0.0979864 0.000356884 0)
(0.0978424 0.000364906 0)
(0.0976986 0.000372728 0)
(0.097555 0.000380444 0)
(0.0974117 0.000388117 0)
(0.0972685 0.000395779 0)
(0.0971257 0.000403437 0)
(0.0969831 0.000411087 0)
(0.0968409 0.00041872 0)
(0.096699 0.000426328 0)
(0.0965575 0.000433907 0)
(0.0964164 0.000441458 0)
(0.0962758 0.000448991 0)
(0.0961357 0.000456523 0)
(0.0959961 0.000464074 0)
(0.095857 0.000471669 0)
(0.0957185 0.000479336 0)
(0.0955805 0.000487102 0)
(0.0954431 0.000494993 0)
(0.0953063 0.000503038 0)
(0.0951701 0.000511266 0)
(0.0950345 0.000519708 0)
(0.0948994 0.000528399 0)
(0.0947649 0.000537381 0)
(0.0946309 0.000546704 0)
(0.0944974 0.000556432 0)
(0.0943644 0.000566639 0)
(0.0942317 0.00057742 0)
(0.0940994 0.000588885 0)
(0.0939673 0.00060117 0)
(0.0938353 0.000614435 0)
(0.0937033 0.000628869 0)
(0.0935711 0.000644696 0)
(0.0934386 0.000662175 0)
(0.0933055 0.000681615 0)
(0.0931715 0.000703372 0)
(0.0930365 0.000727865 0)
(0.0929001 0.000755579 0)
(0.092762 0.000787083 0)
(0.0926217 0.00082304 0)
(0.092479 0.000864226 0)
(0.0923333 0.000911548 0)
(0.0921842 0.000966068 0)
(0.0920312 0.00102903 0)
(0.0918739 0.00110191 0)
(0.0917118 0.00118642 0)
(0.0915444 0.00128458 0)
(0.0913715 0.00139879 0)
(0.0911927 0.00153186 0)
(0.0910081 0.00168707 0)
(0.0908181 0.00186832 0)
(0.0906233 0.00208012 0)
(0.0904252 0.00232771 0)
(0.0902261 0.00261713 0)
(0.0900297 0.0029552 0)
(0.0898411 0.00334951 0)
(0.089668 0.00380818 0)
(0.0895207 0.00433954 0)
(0.089413 0.00495136 0)
(0.0893632 0.00564966 0)
(0.0893939 0.00643688 0)
(0.0895323 0.00730901 0)
(0.0898086 0.00825192 0)
(0.0902528 0.00923683 0)
(0.0908883 0.0102161 0)
(0.0917225 0.0111222 0)
(0.0927345 0.0118733 0)
(0.1 5.76998e-05 0)
(0.0999792 0.000187536 0)
(0.0999115 0.000331549 0)
(0.0997919 0.000430113 0)
(0.0996338 0.000463034 0)
(0.0994574 0.000449123 0)
(0.0992792 0.00041856 0)
(0.0991081 0.00039242 0)
(0.098946 0.000378396 0)
(0.0987917 0.000375533 0)
(0.098643 0.0003799 0)
(0.0984978 0.00038788 0)
(0.0983547 0.000397181 0)
(0.0982128 0.00040669 0)
(0.0980716 0.000416021 0)
(0.097931 0.000425131 0)
(0.0977907 0.000434091 0)
(0.0976508 0.000442982 0)
(0.0975111 0.000451859 0)
(0.0973716 0.00046075 0)
(0.0972325 0.000469659 0)
(0.0970936 0.000478582 0)
(0.096955 0.00048751 0)
(0.0968167 0.000496433 0)
(0.0966788 0.000505349 0)
(0.0965412 0.000514261 0)
(0.096404 0.000523182 0)
(0.0962672 0.000532127 0)
(0.0961307 0.000541121 0)
(0.0959947 0.000550191 0)
(0.0958591 0.000559366 0)
(0.095724 0.000568677 0)
(0.0955892 0.000578152 0)
(0.095455 0.000587824 0)
(0.0953212 0.000597722 0)
(0.0951878 0.000607884 0)
(0.0950549 0.000618349 0)
(0.0949224 0.000629164 0)
(0.0947903 0.000640389 0)
(0.0946587 0.000652092 0)
(0.0945273 0.000664361 0)
(0.0943963 0.000677301 0)
(0.0942656 0.000691038 0)
(0.094135 0.000705724 0)
(0.0940045 0.000721537 0)
(0.093874 0.000738687 0)
(0.0937434 0.000757424 0)
(0.0936124 0.000778033 0)
(0.093481 0.000800853 0)
(0.093349 0.000826271 0)
(0.0932161 0.00085474 0)
(0.0930822 0.000886783 0)
(0.092947 0.000923006 0)
(0.0928102 0.00096411 0)
(0.0926717 0.00101091 0)
(0.0925311 0.00106433 0)
(0.0923882 0.00112547 0)
(0.0922429 0.00119559 0)
(0.0920949 0.00127614 0)
(0.0919441 0.00136879 0)
(0.0917907 0.00147549 0)
(0.0916347 0.00159847 0)
(0.0914765 0.0017403 0)
(0.091317 0.00190389 0)
(0.0911573 0.00209258 0)
(0.090999 0.00231007 0)
(0.0908446 0.00256051 0)
(0.0906976 0.00284838 0)
(0.0905624 0.00317844 0)
(0.0904454 0.00355551 0)
(0.0903544 0.00398421 0)
(0.0902994 0.00446846 0)
(0.0902932 0.0050108 0)
(0.0903506 0.0056114 0)
(0.0904889 0.00626684 0)
(0.0907272 0.00696842 0)
(0.0910843 0.0077004 0)
(0.0915768 0.00843833 0)
(0.0922148 0.00914819 0)
(0.0929971 0.00978759 0)
(0.0939063 0.0103103 0)
(0.100001 6.03186e-05 0)
(0.0999863 0.000200959 0)
(0.0999329 0.000361295 0)
(0.099831 0.000476387 0)
(0.0996888 0.000521237 0)
(0.0995236 0.00051317 0)
(0.0993517 0.000483732 0)
(0.0991833 0.000456298 0)
(0.0990225 0.000440409 0)
(0.0988692 0.000436092 0)
(0.0987219 0.000439717 0)
(0.0985787 0.00044761 0)
(0.0984383 0.000457307 0)
(0.0982995 0.000467533 0)
(0.0981618 0.000477784 0)
(0.0980248 0.000487941 0)
(0.0978884 0.00049803 0)
(0.0977523 0.000508108 0)
(0.0976166 0.000518218 0)
(0.0974812 0.000528376 0)
(0.097346 0.000538588 0)
(0.0972111 0.000548844 0)
(0.0970764 0.000559137 0)
(0.0969421 0.000569456 0)
(0.096808 0.0005798 0)
(0.0966741 0.000590174 0)
(0.0965406 0.000600591 0)
(0.0964073 0.000611069 0)
(0.0962743 0.000621635 0)
(0.0961416 0.000632316 0)
(0.0960092 0.000643144 0)
(0.0958771 0.000654149 0)
(0.0957454 0.000665363 0)
(0.0956139 0.000676819 0)
(0.0954828 0.000688551 0)
(0.0953521 0.000700599 0)
(0.0952216 0.000713005 0)
(0.0950915 0.000725823 0)
(0.0949618 0.000739116 0)
(0.0948323 0.000752964 0)
(0.0947032 0.000767462 0)
(0.0945742 0.000782724 0)
(0.0944456 0.000798889 0)
(0.094317 0.000816123 0)
(0.0941886 0.000834618 0)
(0.0940602 0.000854604 0)
(0.0939318 0.000876344 0)
(0.0938032 0.000900148 0)
(0.0936744 0.00092637 0)
(0.0935452 0.000955421 0)
(0.0934155 0.000987773 0)
(0.0932851 0.00102397 0)
(0.0931541 0.00106462 0)
(0.0930222 0.00111045 0)
(0.0928894 0.00116226 0)
(0.0927556 0.00122099 0)
(0.0926208 0.00128768 0)
(0.092485 0.00136355 0)
(0.0923484 0.00144995 0)
(0.0922113 0.00154843 0)
(0.092074 0.00166073 0)
(0.0919373 0.00178881 0)
(0.0918021 0.00193482 0)
(0.0916696 0.00210115 0)
(0.0915416 0.0022904 0)
(0.0914205 0.00250533 0)
(0.0913093 0.00274882 0)
(0.0912118 0.00302376 0)
(0.0911329 0.0033329 0)
(0.0910787 0.00367863 0)
(0.0910565 0.00406266 0)
(0.091075 0.00448562 0)
(0.0911443 0.00494654 0)
(0.0912756 0.0054422 0)
(0.0914808 0.00596641 0)
(0.0917717 0.00650929 0)
(0.0921591 0.00705659 0)
(0.0926508 0.0075894 0)
(0.0932495 0.00808452 0)
(0.0939509 0.00851583 0)
(0.0947417 0.00885714 0)
(0.100001 6.19616e-05 0)
(0.0999917 0.000211771 0)
(0.0999502 0.000387527 0)
(0.0998642 0.000519694 0)
(0.0997373 0.00057821 0)
(0.0995839 0.000578025 0)
(0.0994197 0.000551313 0)
(0.0992559 0.000523482 0)
(0.0990978 0.000506018 0)
(0.0989467 0.000500167 0)
(0.0988017 0.000502814 0)
(0.0986612 0.000510363 0)
(0.0985238 0.000520246 0)
(0.0983884 0.00053104 0)
(0.0982545 0.000542118 0)
(0.0981214 0.000553271 0)
(0.097989 0.000564474 0)
(0.0978571 0.000575747 0)
(0.0977256 0.000587112 0)
(0.0975943 0.00059858 0)
(0.0974634 0.000610145 0)
(0.0973326 0.000621798 0)
(0.0972021 0.000633529 0)
(0.0970719 0.000645329 0)
(0.0969418 0.000657197 0)
(0.0968119 0.000669139 0)
(0.0966822 0.000681168 0)
(0.0965526 0.000693305 0)
(0.0964233 0.000705576 0)
(0.0962941 0.000718009 0)
(0.0961652 0.000730636 0)
(0.0960364 0.000743487 0)
(0.0959078 0.000756597 0)
(0.0957795 0.000769997 0)
(0.0956514 0.000783725 0)
(0.0955235 0.00079782 0)
(0.0953959 0.00081233 0)
(0.0952685 0.000827311 0)
(0.0951414 0.000842832 0)
(0.0950145 0.000858978 0)
(0.0948879 0.00087585 0)
(0.0947616 0.000893571 0)
(0.0946355 0.000912289 0)
(0.0945095 0.000932178 0)
(0.0943838 0.000953441 0)
(0.0942582 0.000976318 0)
(0.0941327 0.00100108 0)
(0.0940072 0.00102806 0)
(0.0938818 0.0010576 0)
(0.0937564 0.00109013 0)
(0.0936309 0.00112611 0)
(0.0935053 0.0011661 0)
(0.0933797 0.00121069 0)
(0.093254 0.00126058 0)
(0.0931284 0.00131654 0)
(0.0930029 0.00137943 0)
(0.0928778 0.00145024 0)
(0.0927533 0.00153005 0)
(0.0926299 0.00162006 0)
(0.0925082 0.00172159 0)
(0.0923889 0.00183611 0)
(0.092273 0.00196517 0)
(0.0921618 0.00211044 0)
(0.0920571 0.00227368 0)
(0.0919608 0.00245667 0)
(0.0918756 0.0026612 0)
(0.0918047 0.00288893 0)
(0.0917519 0.00314129 0)
(0.0917218 0.00341935 0)
(0.0917198 0.00372357 0)
(0.0917519 0.00405359 0)
(0.0918251 0.00440792 0)
(0.0919465 0.00478363 0)
(0.092124 0.00517597 0)
(0.0923648 0.00557811 0)
(0.0926758 0.00598086 0)
(0.0930621 0.00637264 0)
(0.0935263 0.00673966 0)
(0.0940677 0.00706649 0)
(0.0946812 0.00733718 0)
(0.0953568 0.00753679 0)
(0.100001 6.28393e-05 0)
(0.0999955 0.000220341 0)
(0.0999634 0.000410542 0)
(0.0998909 0.000560034 0)
(0.0997782 0.000633589 0)
(0.0996369 0.000643086 0)
(0.0994816 0.000620651 0)
(0.0993239 0.000593409 0)
(0.0991701 0.000574806 0)
(0.0990224 0.000567479 0)
(0.0988804 0.000569014 0)
(0.0987431 0.000576029 0)
(0.0986092 0.000585919 0)
(0.0984776 0.000597145 0)
(0.0983476 0.000608957 0)
(0.0982187 0.000621058 0)
(0.0980905 0.000633353 0)
(0.0979629 0.000645826 0)
(0.0978357 0.000658473 0)
(0.0977088 0.000671289 0)
(0.0975822 0.000684262 0)
(0.0974558 0.000697378 0)
(0.0973296 0.000710626 0)
(0.0972035 0.000723997 0)
(0.0970776 0.000737489 0)
(0.0969518 0.00075111 0)
(0.0968261 0.000764872 0)
(0.0967004 0.000778797 0)
(0.0965749 0.000792909 0)
(0.0964494 0.000807237 0)
(0.096324 0.00082181 0)
(0.0961987 0.00083666 0)
(0.0960736 0.000851819 0)
(0.0959485 0.000867318 0)
(0.0958237 0.000883196 0)
(0.0956989 0.000899492 0)
(0.0955744 0.000916255 0)
(0.0954501 0.000933545 0)
(0.095326 0.000951432 0)
(0.0952021 0.000970003 0)
(0.0950785 0.000989366 0)
(0.0949552 0.00100965 0)
(0.0948322 0.001031 0)
(0.0947094 0.00105359 0)
(0.094587 0.00107764 0)
(0.0944648 0.00110339 0)
(0.094343 0.00113111 0)
(0.0942215 0.00116112 0)
(0.0941003 0.00119377 0)
(0.0939796 0.00122947 0)
(0.0938594 0.00126868 0)
(0.0937396 0.00131191 0)
(0.0936206 0.00135972 0)
(0.0935024 0.00141275 0)
(0.0933853 0.00147169 0)
(0.0932695 0.00153733 0)
(0.0931555 0.00161049 0)
(0.0930438 0.00169209 0)
(0.092935 0.00178312 0)
(0.0928298 0.00188462 0)
(0.0927294 0.00199769 0)
(0.092635 0.00212344 0)
(0.092548 0.00226303 0)
(0.0924703 0.00241755 0)
(0.0924041 0.00258801 0)
(0.092352 0.00277527 0)
(0.092317 0.00297995 0)
(0.0923025 0.00320232 0)
(0.0923126 0.00344216 0)
(0.0923514 0.00369862 0)
(0.0924238 0.00397006 0)
(0.0925345 0.00425387 0)
(0.0926886 0.00454632 0)
(0.0928907 0.0048424 0)
(0.0931451 0.00513576 0)
(0.0934549 0.00541876 0)
(0.0938221 0.00568255 0)
(0.0942466 0.00591745 0)
(0.0947261 0.00611342 0)
(0.0952559 0.00626075 0)
(0.0958285 0.00635088 0)
(0.100001 6.3177e-05 0)
(0.0999979 0.000227129 0)
(0.0999729 0.000430805 0)
(0.0999115 0.000597598 0)
(0.0998115 0.000687166 0)
(0.0996821 0.000707833 0)
(0.0995366 0.000691097 0)
(0.0993862 0.000665465 0)
(0.0992379 0.00064628 0)
(0.0990946 0.000637673 0)
(0.0989566 0.000638079 0)
(0.0988231 0.000644448 0)
(0.0986931 0.000654216 0)
(0.0985655 0.000665762 0)
(0.0984397 0.00067823 0)
(0.0983151 0.000691229 0)
(0.0981913 0.000704599 0)
(0.0980681 0.000718276 0)
(0.0979454 0.00073223 0)
(0.097823 0.000746437 0)
(0.0977008 0.000760876 0)
(0.0975788 0.000775526 0)
(0.0974569 0.000790375 0)
(0.0973352 0.000805411 0)
(0.0972135 0.000820632 0)
(0.0970918 0.000836046 0)
(0.0969702 0.000851665 0)
(0.0968485 0.000867508 0)
(0.0967269 0.000883598 0)
(0.0966052 0.000899961 0)
(0.0964836 0.000916626 0)
(0.096362 0.00093362 0)
(0.0962404 0.000950973 0)
(0.0961189 0.000968716 0)
(0.0959975 0.000986885 0)
(0.0958762 0.00100552 0)
(0.0957551 0.00102467 0)
(0.0956341 0.00104438 0)
(0.0955134 0.00106474 0)
(0.095393 0.00108584 0)
(0.0952728 0.00110776 0)
(0.095153 0.00113065 0)
(0.0950336 0.00115465 0)
(0.0949146 0.00117995 0)
(0.094796 0.00120673 0)
(0.094678 0.00123523 0)
(0.0945606 0.00126573 0)
(0.0944438 0.00129851 0)
(0.0943279 0.00133393 0)
(0.0942128 0.00137234 0)
(0.0940987 0.00141417 0)
(0.0939859 0.00145988 0)
(0.0938746 0.00150997 0)
(0.093765 0.00156498 0)
(0.0936575 0.00162551 0)
(0.0935526 0.00169218 0)
(0.0934508 0.00176567 0)
(0.0933528 0.00184668 0)
(0.0932593 0.00193593 0)
(0.0931714 0.00203416 0)
(0.0930901 0.00214207 0)
(0.0930168 0.00226035 0)
(0.0929531 0.00238961 0)
(0.0929007 0.00253036 0)
(0.0928619 0.00268291 0)
(0.0928388 0.00284737 0)
(0.0928342 0.00302356 0)
(0.092851 0.00321088 0)
(0.0928922 0.0034083 0)
(0.092961 0.00361418 0)
(0.0930609 0.00382627 0)
(0.093195 0.00404157 0)
(0.0933663 0.00425628 0)
(0.0935775 0.00446583 0)
(0.0938306 0.00466489 0)
(0.0941267 0.00484747 0)
(0.0944658 0.00500714 0)
(0.0948466 0.00513727 0)
(0.0952667 0.00523143 0)
(0.0957217 0.00528374 0)
(0.0962062 0.00528931 0)
(0.100001 6.31795e-05 0)
(0.0999992 0.000232604 0)
(0.0999793 0.000448847 0)
(0.0999268 0.000632698 0)
(0.099838 0.000738879 0)
(0.09972 0.000771864 0)
(0.0995845 0.000762067 0)
(0.0994423 0.000739043 0)
(0.0993006 0.000719917 0)
(0.0991626 0.00071035 0)
(0.0990293 0.000709724 0)
(0.0989002 0.000715422 0)
(0.0987744 0.000724995 0)
(0.0986512 0.000736783 0)
(0.0985297 0.000749845 0)
(0.0984095 0.000763704 0)
(0.0982902 0.000778135 0)
(0.0981716 0.000793025 0)
(0.0980534 0.000808314 0)
(0.0979355 0.000823957 0)
(0.0978179 0.000839922 0)
(0.0977003 0.000856182 0)
(0.0975829 0.000872717 0)
(0.0974655 0.000889517 0)
(0.0973481 0.000906576 0)
(0.0972307 0.0009239 0)
(0.0971132 0.000941498 0)
(0.0969957 0.000959387 0)
(0.096878 0.000977588 0)
(0.0967604 0.000996122 0)
(0.0966426 0.00101501 0)
(0.0965248 0.00103429 0)
(0.0964071 0.00105397 0)
(0.0962893 0.00107408 0)
(0.0961716 0.00109466 0)
(0.096054 0.00111575 0)
(0.0959366 0.00113738 0)
(0.0958194 0.00115961 0)
(0.0957025 0.00118251 0)
(0.0955858 0.00120617 0)
(0.0954696 0.00123068 0)
(0.0953538 0.00125617 0)
(0.0952385 0.00128278 0)
(0.0951238 0.00131066 0)
(0.0950099 0.00134002 0)
(0.0948967 0.00137107 0)
(0.0947844 0.00140404 0)
(0.0946732 0.00143922 0)
(0.0945633 0.00147689 0)
(0.0944547 0.00151738 0)
(0.0943478 0.00156106 0)
(0.0942429 0.00160831 0)
(0.0941402 0.00165953 0)
(0.0940401 0.00171516 0)
(0.0939432 0.00177565 0)
(0.09385 0.00184148 0)
(0.0937611 0.0019131 0)
(0.0936773 0.00199101 0)
(0.0935995 0.00207563 0)
(0.0935286 0.00216738 0)
(0.0934659 0.00226661 0)
(0.0934127 0.00237359 0)
(0.0933704 0.00248847 0)
(0.0933408 0.00261123 0)
(0.0933257 0.00274166 0)
(0.0933271 0.00287931 0)
(0.093347 0.00302343 0)
(0.0933878 0.0031729 0)
(0.0934517 0.00332622 0)
(0.0935409 0.00348143 0)
(0.0936577 0.00363612 0)
(0.0938039 0.00378734 0)
(0.0939812 0.00393168 0)
(0.0941908 0.00406528 0)
(0.0944333 0.00418392 0)
(0.0947087 0.00428313 0)
(0.0950162 0.00435836 0)
(0.0953541 0.00440518 0)
(0.09572 0.00441955 0)
(0.0961104 0.00439793 0)
(0.0965212 0.00433756 0)
(0.100001 6.3012e-05 0)
(0.0999998 0.000237196 0)
(0.0999834 0.000465196 0)
(0.0999379 0.000665713 0)
(0.0998588 0.00078878 0)
(0.0997513 0.000834902 0)
(0.0996259 0.000833072 0)
(0.0994924 0.00081359 0)
(0.099358 0.000795204 0)
(0.0992261 0.000785086 0)
(0.0990981 0.000783623 0)