# vtk DataFile Version 2.0

ASCII

DATASET UNSTRUCTURED_GRID

POINTS 100 float 

0.0000000000000000e+00  0.0000000000000000e+00  0.0000000000000000e+00
1.0000000000000000e+00  0.0000000000000000e+00  0.0000000000000000e+00
2.0000000000000000e+00  0.0000000000000000e+00  0.0000000000000000e+00
3.0000000000000000e+00  0.0000000000000000e+00  0.0000000000000000e+00
4.0000000000000000e+00  0.0000000000000000e+00  0.0000000000000000e+00
5.0000000000000000e+00  0.0000000000000000e+00  0.0000000000000000e+00
6.0000000000000000e+00  0.0000000000000000e+00  0.0000000000000000e+00
7.0000000000000000e+00  0.0000000000000000e+00  0.0000000000000000e+00
8.0000000000000000e+00  0.0000000000000000e+00  0.0000000000000000e+00
9.0000000000000000e+00  0.0000000000000000e+00  0.0000000000000000e+00
1.0000000000000000e+01  0.0000000000000000e+00  0.0000000000000000e+00
1.1000000000000000e+01  0.0000000000000000e+00  0.0000000000000000e+00
1.2000000000000000e+01  0.0000000000000000e+00  0.0000000000000000e+00
1.3000000000000000e+01  0.0000000000000000e+00  0.0000000000000000e+00
1.4000000000000000e+01  0.0000000000000000e+00  0.0000000000000000e+00
1.5000000000000000e+01  0.0000000000000000e+00  0.0000000000000000e+00
1.6000000000000000e+01  0.0000000000000000e+00  0.0000000000000000e+00
1.7000000000000000e+01  0.0000000000000000e+00  0.0000000000000000e+00
1.8000000000000000e+01  0.0000000000000000e+00  0.0000000000000000e+00
1.9000000000000000e+01  0.0000000000000000e+00  0.0000000000000000e+00
2.0000000000000000e+01  0.0000000000000000e+00  0.0000000000000000e+00
2.1000000000000000e+01  0.0000000000000000e+00  0.0000000000000000e+00
2.2000000000000000e+01  0.0000000000000000e+00  0.0000000000000000e+00
2.3000000000000000e+01  0.0000000000000000e+00  0.0000000000000000e+00
2.4000000000000000e+01  0.0000000000000000e+00  0.0000000000000000e+00
2.5000000000000000e+01  0.0000000000000000e+00  0.0000000000000000e+00
2.6000000000000000e+01  0.0000000000000000e+00  0.0000000000000000e+00
2.7000000000000000e+01  0.0000000000000000e+00  0.0000000000000000e+00
2.8000000000000000e+01  0.0000000000000000e+00  0.0000000000000000e+00
2.9000000000000000e+01  0.0000000000000000e+00  0.0000000000000000e+00
3.0000000000000000e+01  0.0000000000000000e+00  0.0000000000000000e+00
3.1000000000000000e+01  0.0000000000000000e+00  0.0000000000000000e+00
3.2000000000000000e+01  0.0000000000000000e+00  0.0000000000000000e+00
3.3000000000000000e+01  0.0000000000000000e+00  0.0000000000000000e+00
3.4000000000000000e+01  0.0000000000000000e+00  0.0000000000000000e+00
3.5000000000000000e+01  0.0000000000000000e+00  0.0000000000000000e+00
3.6000000000000000e+01  0.0000000000000000e+00  0.0000000000000000e+00
3.7000000000000000e+01  0.0000000000000000e+00  0.0000000000000000e+00
3.8000000000000000e+01  0.0000000000000000e+00  0.0000000000000000e+00
3.9000000000000000e+01  0.0000000000000000e+00  0.0000000000000000e+00
4.0000000000000000e+01  0.0000000000000000e+00  0.0000000000000000e+00
4.1000000000000000e+01  0.0000000000000000e+00  0.0000000000000000e+00
4.2000000000000000e+01  0.0000000000000000e+00  0.0000000000000000e+00
4.3000000000000000e+01  0.0000000000000000e+00  0.0000000000000000e+00
4.4000000000000000e+01  0.0000000000000000e+00  0.0000000000000000e+00
4.5000000000000000e+01  0.0000000000000000e+00  0.0000000000000000e+00
4.6000000000000000e+01  0.0000000000000000e+00  0.0000000000000000e+00
4.7000000000000000e+01  0.0000000000000000e+00  0.0000000000000000e+00
4.8000000000000000e+01  0.0000000000000000e+00  0.0000000000000000e+00
4.9000000000000000e+01  0.0000000000000000e+00  0.0000000000000000e+00
5.0000000000000000e+01  0.0000000000000000e+00  0.0000000000000000e+00
5.1000000000000000e+01  0.0000000000000000e+00  0.0000000000000000e+00
5.2000000000000000e+01  0.0000000000000000e+00  0.0000000000000000e+00
5.3000000000000000e+01  0.0000000000000000e+00  0.0000000000000000e+00
5.4000000000000000e+01  0.0000000000000000e+00  0.0000000000000000e+00
5.5000000000000000e+01  0.0000000000000000e+00  0.0000000000000000e+00
5.6000000000000000e+01  0.0000000000000000e+00  0.0000000000000000e+00
5.7000000000000000e+01  0.0000000000000000e+00  0.0000000000000000e+00
5.8000000000000000e+01  0.0000000000000000e+00  0.0000000000000000e+00
5.9000000000000000e+01  0.0000000000000000e+00  0.0000000000000000e+00
6.0000000000000000e+01  0.0000000000000000e+00  0.0000000000000000e+00
6.1000000000000000e+01  0.0000000000000000e+00  0.0000000000000000e+00
6.2000000000000000e+01  0.0000000000000000e+00  0.0000000000000000e+00
6.3000000000000000e+01  0.0000000000000000e+00  0.0000000000000000e+00
6.4000000000000000e+01  0.0000000000000000e+00  0.0000000000000000e+00
6.5000000000000000e+01  0.0000000000000000e+00  0.0000000000000000e+00
6.6000000000000000e+01  0.0000000000000000e+00  0.0000000000000000e+00
6.7000000000000000e+01  0.0000000000000000e+00  0.0000000000000000e+00
6.8000000000000000e+01  0.0000000000000000e+00  0.0000000000000000e+00
6.9000000000000000e+01  0.0000000000000000e+00  0.0000000000000000e+00
7.0000000000000000e+01  0.0000000000000000e+00  0.0000000000000000e+00
7.1000000000000000e+01  0.0000000000000000e+00  0.0000000000000000e+00
7.2000000000000000e+01  0.0000000000000000e+00  0.0000000000000000e+00
7.3000000000000000e+01  0.0000000000000000e+00  0.0000000000000000e+00
7.4000000000000000e+01  0.0000000000000000e+00  0.0000000000000000e+00
7.5000000000000000e+01  0.0000000000000000e+00  0.0000000000000000e+00
7.6000000000000000e+01  0.0000000000000000e+00  0.0000000000000000e+00
7.7000000000000000e+01  0.0000000000000000e+00  0.0000000000000000e+00
7.8000000000000000e+01  0.0000000000000000e+00  0.0000000000000000e+00
7.9000000000000000e+01  0.0000000000000000e+00  0.0000000000000000e+00
8.0000000000000000e+01  0.0000000000000000e+00  0.0000000000000000e+00
8.1000000000000000e+01  0.0000000000000000e+00  0.0000000000000000e+00
8.2000000000000000e+01  0.0000000000000000e+00  0.0000000000000000e+00
8.3000000000000000e+01  0.0000000000000000e+00  0.0000000000000000e+00
8.4000000000000000e+01  0.0000000000000000e+00  0.0000000000000000e+00
8.5000000000000000e+01  0.0000000000000000e+00  0.0000000000000000e+00
8.6000000000000000e+01  0.0000000000000000e+00  0.0000000000000000e+00
8.7000000000000000e+01  0.0000000000000000e+00  0.0000000000000000e+00
8.8000000000000000e+01  0.0000000000000000e+00  0.0000000000000000e+00
8.9000000000000000e+01  0.0000000000000000e+00  0.0000000000000000e+00
9.0000000000000000e+01  0.0000000000000000e+00  0.0000000000000000e+00
9.1000000000000000e+01  0.0000000000000000e+00  0.0000000000000000e+00
9.2000000000000000e+01  0.0000000000000000e+00  0.0000000000000000e+00
9.3000000000000000e+01  0.0000000000000000e+00  0.0000000000000000e+00
9.4000000000000000e+01  0.0000000000000000e+00  0.0000000000000000e+00
9.5000000000000000e+01  0.0000000000000000e+00  0.0000000000000000e+00
9.6000000000000000e+01  0.0000000000000000e+00  0.0000000000000000e+00
9.7000000000000000e+01  0.0000000000000000e+00  0.0000000000000000e+00
9.8000000000000000e+01  0.0000000000000000e+00  0.0000000000000000e+00
9.9000000000000000e+01  0.0000000000000000e+00  0.0000000000000000e+00

POINT_DATA 100

VECTORS velocity float
1.0034549150281237e-02  0.0000000000000000e+00  0.0000000000000000e+00
1.0034548469907270e-02  0.0000000000000000e+00  0.0000000000000000e+00
1.0034547812001566e-02  0.0000000000000000e+00  0.0000000000000000e+00
1.0034547163918170e-02  0.0000000000000000e+00  0.0000000000000000e+00
1.0034546520320865e-02  0.0000000000000000e+00  0.0000000000000000e+00
1.0034545878958521e-02  0.0000000000000000e+00  0.0000000000000000e+00
1.0034545238883388e-02  0.0000000000000000e+00  0.0000000000000000e+00
1.0034544599695359e-02  0.0000000000000000e+00  0.0000000000000000e+00
1.0034543961225547e-02  0.0000000000000000e+00  0.0000000000000000e+00
1.0034543323403049e-02  0.0000000000000000e+00  0.0000000000000000e+00
1.0034542686199223e-02  0.0000000000000000e+00  0.0000000000000000e+00
1.0034542049601297e-02  0.0000000000000000e+00  0.0000000000000000e+00
1.0034541413603503e-02  0.0000000000000000e+00  0.0000000000000000e+00
1.0034540778204074e-02  0.0000000000000000e+00  0.0000000000000000e+00
1.0034540143401448e-02  0.0000000000000000e+00  0.0000000000000000e+00
1.0034539509196442e-02  0.0000000000000000e+00  0.0000000000000000e+00
1.0034538875588599e-02  0.0000000000000000e+00  0.0000000000000000e+00
1.0034538242577051e-02  0.0000000000000000e+00  0.0000000000000000e+00
1.0034537610162583e-02  0.0000000000000000e+00  0.0000000000000000e+00
1.0034536978345072e-02  0.0000000000000000e+00  0.0000000000000000e+00
1.0034536347123821e-02  0.0000000000000000e+00  0.0000000000000000e+00
1.0034535716499159e-02  0.0000000000000000e+00  0.0000000000000000e+00
1.0034535086471277e-02  0.0000000000000000e+00  0.0000000000000000e+00
1.0034534457040278e-02  0.0000000000000000e+00  0.0000000000000000e+00
1.0034533828206144e-02  0.0000000000000000e+00  0.0000000000000000e+00
1.0034533199968443e-02  0.0000000000000000e+00  0.0000000000000000e+00
1.0034532572327632e-02  0.0000000000000000e+00  0.0000000000000000e+00
1.0034531945284251e-02  0.0000000000000000e+00  0.0000000000000000e+00
1.0034531318837222e-02  0.0000000000000000e+00  0.0000000000000000e+00
1.0034530692986501e-02  0.0000000000000000e+00  0.0000000000000000e+00
1.0034530067732696e-02  0.0000000000000000e+00  0.0000000000000000e+00
1.0034529443075486e-02  0.0000000000000000e+00  0.0000000000000000e+00
1.0034528819015030e-02  0.0000000000000000e+00  0.0000000000000000e+00
1.0034528195551532e-02  0.0000000000000000e+00  0.0000000000000000e+00
1.0034527572684464e-02  0.0000000000000000e+00  0.0000000000000000e+00
1.0034526950414489e-02  0.0000000000000000e+00  0.0000000000000000e+00
1.0034526328741748e-02  0.0000000000000000e+00  0.0000000000000000e+00
1.0034525707665193e-02  0.0000000000000000e+00  0.0000000000000000e+00
1.0034525087185367e-02  0.0000000000000000e+00  0.0000000000000000e+00
1.0034524467302774e-02  0.0000000000000000e+00  0.0000000000000000e+00
1.0034523848017474e-02  0.0000000000000000e+00  0.0000000000000000e+00
1.0034523229328809e-02  0.0000000000000000e+00  0.0000000000000000e+00
1.0034522611236898e-02  0.0000000000000000e+00  0.0000000000000000e+00
1.0034521993742759e-02  0.0000000000000000e+00  0.0000000000000000e+00
1.0034521376845041e-02  0.0000000000000000e+00  0.0000000000000000e+00
1.0034520760543996e-02  0.0000000000000000e+00  0.0000000000000000e+00
1.0034520144840270e-02  0.0000000000000000e+00  0.0000000000000000e+00
1.0034519529733076e-02  0.0000000000000000e+00  0.0000000000000000e+00
1.0034518915222918e-02  0.0000000000000000e+00  0.0000000000000000e+00
1.0034518301310082e-02  0.0000000000000000e+00  0.0000000000000000e+00
1.0034517687994009e-02  0.0000000000000000e+00  0.0000000000000000e+00
1.0034517075274786e-02  0.0000000000000000e+00  0.0000000000000000e+00
1.0034516463152439e-02  0.0000000000000000e+00  0.0000000000000000e+00
1.0034515851627747e-02  0.0000000000000000e+00  0.0000000000000000e+00
1.0034515240700067e-02  0.0000000000000000e+00  0.0000000000000000e+00
1.0034514630368961e-02  0.0000000000000000e+00  0.0000000000000000e+00
1.0034514020635404e-02  0.0000000000000000e+00  0.0000000000000000e+00
1.0034513411498365e-02  0.0000000000000000e+00  0.0000000000000000e+00
1.0034512802958343e-02  0.0000000000000000e+00  0.0000000000000000e+00
1.0034512195015518e-02  0.0000000000000000e+00  0.0000000000000000e+00
1.0034511587669371e-02  0.0000000000000000e+00  0.0000000000000000e+00
1.0034510980920650e-02  0.0000000000000000e+00  0.0000000000000000e+00
1.0034510374769455e-02  0.0000000000000000e+00  0.0000000000000000e+00
1.0034509769215272e-02  0.0000000000000000e+00  0.0000000000000000e+00
1.0034509164257651e-02  0.0000000000000000e+00  0.0000000000000000e+00
1.0034508559896654e-02  0.0000000000000000e+00  0.0000000000000000e+00
1.0034507956133277e-02  0.0000000000000000e+00  0.0000000000000000e+00
1.0034507352967497e-02  0.0000000000000000e+00  0.0000000000000000e+00
1.0034506750398733e-02  0.0000000000000000e+00  0.0000000000000000e+00
1.0034506148426920e-02  0.0000000000000000e+00  0.0000000000000000e+00
1.0034505547052973e-02  0.0000000000000000e+00  0.0000000000000000e+00
1.0034504946276326e-02  0.0000000000000000e+00  0.0000000000000000e+00
1.0034504346096403e-02  0.0000000000000000e+00  0.0000000000000000e+00
1.0034503746513755e-02  0.0000000000000000e+00  0.0000000000000000e+00
1.0034503147528063e-02  0.0000000000000000e+00  0.0000000000000000e+00
1.0034502549139462e-02  0.0000000000000000e+00  0.0000000000000000e+00
1.0034501951348321e-02  0.0000000000000000e+00  0.0000000000000000e+00
1.0034501354154342e-02  0.0000000000000000e+00  0.0000000000000000e+00
1.0034500757557203e-02  0.0000000000000000e+00  0.0000000000000000e+00
1.0034500161557160e-02  0.0000000000000000e+00  0.0000000000000000e+00
1.0034499566154121e-02  0.0000000000000000e+00  0.0000000000000000e+00
1.0034498971348461e-02  0.0000000000000000e+00  0.0000000000000000e+00
1.0034498377140299e-02  0.0000000000000000e+00  0.0000000000000000e+00
1.0034497783529599e-02  0.0000000000000000e+00  0.0000000000000000e+00
1.0034497190516866e-02  0.0000000000000000e+00  0.0000000000000000e+00
1.0034496598101508e-02  0.0000000000000000e+00  0.0000000000000000e+00
1.0034496006282645e-02  0.0000000000000000e+00  0.0000000000000000e+00
1.0034495415061268e-02  0.0000000000000000e+00  0.0000000000000000e+00
1.0034494824437612e-02  0.0000000000000000e+00  0.0000000000000000e+00
1.0034494234411129e-02  0.0000000000000000e+00  0.0000000000000000e+00
1.0034493644982118e-02  0.0000000000000000e+00  0.0000000000000000e+00
1.0034493056150630e-02  0.0000000000000000e+00  0.0000000000000000e+00
1.0034492467915736e-02  0.0000000000000000e+00  0.0000000000000000e+00
1.0034491880279982e-02  0.0000000000000000e+00  0.0000000000000000e+00
1.0034491293238452e-02  0.0000000000000000e+00  0.0000000000000000e+00
1.0034490706801685e-02  0.0000000000000000e+00  0.0000000000000000e+00
1.0034490120944697e-02  0.0000000000000000e+00  0.0000000000000000e+00
1.0034489535727924e-02  0.0000000000000000e+00  0.0000000000000000e+00
1.0034488951005264e-02  0.0000000000000000e+00  0.0000000000000000e+00
1.0034488367128431e-02  0.0000000000000000e+00  0.0000000000000000e+00

SCALARS pressure float
LOOKUP_TABLE default
3.1467687783188863e-05
3.1497861423949784e-05
3.1528035064710698e-05
3.1558209016467578e-05
3.1588383410436487e-05
3.1618558301955341e-05
3.1648733714394673e-05
3.1678909657641385e-05
3.1709086135896786e-05
3.1739263150983679e-05
3.1769440703707238e-05
3.1799618794451428e-05
3.1829797423420295e-05
3.1859976590773474e-05
3.1890156296596475e-05
3.1920336540992793e-05
3.1950517324049068e-05
3.1980698645841885e-05
3.2010880506465184e-05
3.2041062905997021e-05
3.2071245844521835e-05
3.2101429322127277e-05
3.2131613338898558e-05
3.2161797894907567e-05
3.2191982990235844e-05
3.2222168624964378e-05
3.2252354799186452e-05
3.2282541512987229e-05
3.2312728766441316e-05
3.2342916559640423e-05
3.2373104892666415e-05
3.2403293765591613e-05
3.2433483178490978e-05
3.2463673131450784e-05
3.2493863624548010e-05
3.2524054657872950e-05
3.2554246231516656e-05
3.2584438345552068e-05
3.2614631000063456e-05
3.2644824195129166e-05
3.2675017930830270e-05
3.2705212207249609e-05
3.2735407024481791e-05
3.2765602382604676e-05
3.2795798281703632e-05
3.2825994721856301e-05
3.2856191703148763e-05
3.2886389225655866e-05
3.2916587289471023e-05
3.2946785894675962e-05
3.2976985041351686e-05
3.3007184729577871e-05
3.3037384959445806e-05
3.3067585731034212e-05
3.3097787044420893e-05
3.3127988899688899e-05
3.3158191296936581e-05
3.3188394236227900e-05
3.3218597717663070e-05
3.3248801741310661e-05
3.3279006307243611e-05
3.3309211415557257e-05
3.3339417066334445e-05
3.3369623259653264e-05
3.3399829995597706e-05
3.3430037274258275e-05
3.3460245095709754e-05
3.3490453460032239e-05
3.3520662367306346e-05
3.3550871817618188e-05
3.3581081811068068e-05
3.3611292347733248e-05
3.3641503427693696e-05
3.3671715051035835e-05
3.3701927217835641e-05
3.3732139928179220e-05
3.3762353182146384e-05
3.3792566979814448e-05
3.3822781321275293e-05
3.3852996206603186e-05
3.3883211635880425e-05
3.3913427609183412e-05
3.3943644126592217e-05
3.3973861188200777e-05
3.4004078794094013e-05
3.4034296944349311e-05
3.4064515639058318e-05
3.4094734878301626e-05
3.4124954662162901e-05
3.4155174990714465e-05
3.4185395864043116e-05
3.4215617282242252e-05
3.4245839245384784e-05
3.4276061753558113e-05
3.4306284806826919e-05
3.4336508405317863e-05
3.4366732549018464e-05
3.4396957238253555e-05
3.4427182472510552e-05
3.4457408253319936e-05

SCALARS diameter float
LOOKUP_TABLE default
1.0000285261810298e+00
1.0000285558059006e+00
1.0000285854307724e+00
1.0000286150559414e+00
1.0000286446815350e+00
1.0000286743076048e+00
1.0000287039341731e+00
1.0000287335612512e+00
1.0000287631888414e+00
1.0000287928169453e+00
1.0000288224455642e+00
1.0000288520746996e+00
1.0000288817043508e+00
1.0000289113345175e+00
1.0000289409652006e+00
1.0000289705964001e+00
1.0000290002281151e+00
1.0000290298603467e+00
1.0000290594930958e+00
1.0000290891263606e+00
1.0000291187601422e+00
1.0000291483944410e+00
1.0000291780292574e+00
1.0000292076645902e+00
1.0000292373004405e+00
1.0000292669368069e+00
1.0000292965736923e+00
1.0000293262110951e+00
1.0000293558490156e+00
1.0000293854874529e+00
1.0000294151264082e+00
1.0000294447658824e+00
1.0000294744058738e+00
1.0000295040463838e+00
1.0000295336874117e+00
1.0000295633289584e+00
1.0000295929710230e+00
1.0000296226136061e+00
1.0000296522567080e+00
1.0000296819003287e+00
1.0000297115444678e+00
1.0000297411891261e+00
1.0000297708343036e+00
1.0000298004800006e+00
1.0000298301262172e+00
1.0000298597729524e+00
1.0000298894202075e+00
1.0000299190679827e+00
1.0000299487162767e+00
1.0000299783650908e+00
1.0000300080144253e+00
1.0000300376642803e+00
1.0000300673146538e+00
1.0000300969655485e+00
1.0000301266169633e+00
1.0000301562688989e+00
1.0000301859213554e+00
1.0000302155743324e+00
1.0000302452278300e+00
1.0000302748818488e+00
1.0000303045363883e+00
1.0000303341914485e+00
1.0000303638470300e+00
1.0000303935031332e+00
1.0000304231597577e+00
1.0000304528169039e+00
1.0000304824745716e+00
1.0000305121327613e+00
1.0000305417914732e+00
1.0000305714507063e+00
1.0000306011104607e+00
1.0000306307707389e+00
1.0000306604315385e+00
1.0000306900928606e+00
1.0000307197547058e+00
1.0000307494170728e+00
1.0000307790799630e+00
1.0000308087433756e+00
1.0000308384073118e+00
1.0000308680717702e+00
1.0000308977367516e+00
1.0000309274022565e+00
1.0000309570682853e+00
1.0000309867348371e+00
1.0000310164019113e+00
1.0000310460695101e+00
1.0000310757376325e+00
1.0000311054062789e+00
1.0000311350754498e+00
1.0000311647451436e+00
1.0000311944153624e+00
1.0000312240861060e+00
1.0000312537573735e+00
1.0000312834291638e+00
1.0000313131014800e+00
1.0000313427743208e+00
1.0000313724476873e+00
1.0000314021215779e+00
1.0000314317959935e+00
1.0000314614709342e+00

