/*--------------------------------*- C++ -*----------------------------------*\
| =========                 |                                                 |
| \\      /  F ield         | OpenFOAM: The Open Source CFD Toolbox           |
|  \\    /   O peration     | Version:  4.1                                   |
|   \\  /    A nd           | Web:      www.OpenFOAM.org                      |
|    \\/     M anipulation  |                                                 |
\*---------------------------------------------------------------------------*/
FoamFile
{
    version     2.0;
    format      ascii;
    class       pointVectorField;
    location    "0.7";
    object      pointDisplacement;
}
// * * * * * * * * * * * * * * * * * * * * * * * * * * * * * * * * * * * * * //

dimensions      [0 1 0 0 0 0 0];

internalField   nonuniform List<vector> 
5828
(
(0 0 0)
(0.015301 0 0)
(0.0289796 0 0)
(0.040655 0 0)
(0.0504955 0 0)
(0.0586678 0 0)
(0.0653221 0 0)
(0.0705905 0 0)
(0.0745892 0 0)
(0.0774214 0 0)
(0.0791796 0 0)
(0.0799464 0 0)
(0.079795 0 0)
(0.0787917 0 0)
(0.0769974 0 0)
(0.0744699 0 0)
(0.0712657 0 0)
(0.0674419 0 0)
(0.0630554 0 0)
(0.0581655 0 0)
(0.0528378 0 0)
(0.0471471 0 0)
(0.0411782 0 0)
(0.0350303 0 0)
(0.0288248 0 0)
(0.0227125 0 0)
(0.0168809 0 0)
(0.0115732 0 0)
(0.00711971 0 0)
(0.00404729 0 0)
(-1.15186e-15 0 0)
(0 0 0)
(0.0153113 4.85775e-05 0)
(0.0290016 9.39107e-05 0)
(0.0406887 0.000136125 0)
(0.0505411 0.000176607 0)
(0.0587263 0.000216504 0)
(0.0653949 0.000256809 0)
(0.0706795 0.000298356 0)
(0.0746963 0.000341856 0)
(0.0775487 0.000387779 0)
(0.0793298 0.000436605 0)
(0.0801225 0.00048894 0)
(0.0800005 0.000545297 0)
(0.0790302 0.000606141 0)
(0.0772731 0.000671912 0)
(0.0747872 0.000743048 0)
(0.0716292 0.000820037 0)
(0.0678573 0.00090356 0)
(0.0635293 0.000993361 0)
(0.0587036 0.00108917 0)
(0.0534469 0.00119153 0)
(0.0478344 0.00130058 0)
(0.0419518 0.00141633 0)
(0.0358971 0.00153861 0)
(0.0297924 0.00166871 0)
(0.0237906 0.00180804 0)
(0.0180807 0.00195732 0)
(0.0129116 0.00211789 0)
(0.00862257 0.00228825 0)
(0.00574126 0.00245635 0)
(0.00211897 0.00259094 0)
(0 0 0)
(0.0153469 9.69656e-05 0)
(0.0290725 0.000187458 0)
(0.0407947 0.000271732 0)
(0.0506826 0.000352534 0)
(0.0589058 0.000432138 0)
(0.0656172 0.00051254 0)
(0.0709498 0.000595405 0)
(0.0750204 0.000682208 0)
(0.0779328 0.00077381 0)
(0.0797816 0.00087112 0)
(0.0806514 0.000975426 0)
(0.0806166 0.00108774 0)
(0.0797448 0.00120898 0)
(0.0780984 0.00134 0)
(0.0757363 0.00148166 0)
(0.0727155 0.0016348 0)
(0.0690962 0.00180031 0)
(0.06494 0.00197819 0)
(0.0603056 0.00216855 0)
(0.0552596 0.0023721 0)
(0.0498802 0.00258914 0)
(0.0442567 0.00281972 0)
(0.0384864 0.00306376 0)
(0.0326879 0.00332234 0)
(0.0270169 0.00359643 0)
(0.0216658 0.00388679 0)
(0.0168974 0.00419686 0)
(0.0130761 0.00452533 0)
(0.0107309 0.00485031 0)
(0.00747193 0.00514882 0)
(0 0 0)
(0.0154068 0.000144986 0)
(0.0291918 0.000280297 0)
(0.0409728 0.000406333 0)
(0.0509195 0.000527137 0)
(0.0592059 0.00064607 0)
(0.065988 0.000766158 0)
(0.0714005 0.000889868 0)
(0.0755596 0.00101915 0)
(0.07857 0.00115541 0)
(0.0805302 0.0013003 0)
(0.081527 0.00145563 0)
(0.081636 0.00162283 0)
(0.0809265 0.00180326 0)
(0.0794627 0.00199817 0)
(0.0773053 0.00220874 0)
(0.074513 0.00243605 0)
(0.0711467 0.00268063 0)
(0.0672717 0.00294346 0)
(0.062951 0.00322568 0)
(0.0582515 0.00352756 0)
(0.0532547 0.00384963 0)
(0.0480547 0.00419217 0)
(0.0427543 0.00455536 0)
(0.037472 0.00493826 0)
(0.0323626 0.00533961 0)
(0.027615 0.00575964 0)
(0.0234898 0.00620029 0)
(0.0203888 0.00666003 0)
(0.0188568 0.00710941 0)
(0.0162667 0.0075228 0)
(0 0 0)
(0.0154903 0.000192458 0)
(0.0293587 0.000372065 0)
(0.0412216 0.000539237 0)
(0.0512489 0.000699315 0)
(0.0596219 0.000856864 0)
(0.0665021 0.00101587 0)
(0.0720241 0.00117957 0)
(0.0763041 0.00134999 0)
(0.0794501 0.00152937 0)
(0.081565 0.00172042 0)
(0.0827371 0.00192514 0)
(0.0830443 0.00214539 0)
(0.0825584 0.0023829 0)
(0.0813463 0.0026393 0)
(0.0794717 0.00291611 0)
(0.0769968 0.00321469 0)
(0.0739846 0.00353582 0)
(0.0705015 0.00388094 0)
(0.0666148 0.00425131 0)
(0.0623927 0.0046469 0)
(0.057921 0.00506868 0)
(0.0532988 0.00551699 0)
(0.0486349 0.0059909 0)
(0.044058 0.00648829 0)
(0.0397272 0.00700631 0)
(0.035831 0.0075424 0)
(0.0326013 0.00809102 0)
(0.0304408 0.00864538 0)
(0.0299207 0.00917137 0)
(0.0281461 0.00964982 0)
(0 0 0)
(0.0155967 0.000239065 0)
(0.0295689 0.000462103 0)
(0.0415334 0.000669427 0)
(0.0516639 0.000867749 0)
(0.0601484 0.00106288 0)
(0.0671529 0.00125964 0)
(0.0728122 0.00146183 0)
(0.0772438 0.00167198 0)
(0.0805623 0.00189309 0)
(0.0828732 0.00212848 0)
(0.0842665 0.0023805 0)
(0.0848236 0.00265138 0)
(0.0846196 0.00294323 0)
(0.083725 0.00325802 0)
(0.0822067 0.00359758 0)
(0.0801318 0.00396377 0)
(0.0775683 0.00435809 0)
(0.0745848 0.00478175 0)
(0.0712524 0.00523566 0)
(0.0676429 0.00572019 0)
(0.0638416 0.00623599 0)
(0.0599503 0.00678202 0)
(0.0560808 0.00735577 0)
(0.0523739 0.00795472 0)
(0.0490016 0.00857417 0)
(0.0461565 0.00920577 0)
(0.0440507 0.00983611 0)
(0.0430241 0.0104473 0)
(0.0436355 0.0110026 0)
(0.0427733 0.0114821 0)
(0 0 0)
(0.0157246 0.000284465 0)
(0.0298202 0.000549771 0)
(0.0419052 0.000796109 0)
(0.05216 0.0010315 0)
(0.0607789 0.00126294 0)
(0.0679316 0.001496 0)
(0.0737544 0.0017349 0)
(0.0783687 0.00198306 0)
(0.081894 0.00224413 0)
(0.0844386 0.00252162 0)
(0.0860957 0.00281832 0)
(0.0869506 0.00313685 0)
(0.0870827 0.00347967 0)
(0.0865666 0.00384902 0)
(0.085472 0.00424693 0)
(0.0838728 0.00467597 0)
(0.0818437 0.00513818 0)
(0.0794564 0.00563462 0)
(0.0767873 0.00616628 0)
(0.0739182 0.00673419 0)
(0.0709324 0.00733747 0)
(0.0679278 0.007973 0)
(0.0650188 0.0086374 0)
(0.0623437 0.00932599 0)
(0.0600867 0.0100306 0)
(0.0584461 0.0107367 0)
(0.0576185 0.0114231 0)
(0.0578623 0.0120607 0)
(0.0596726 0.0126116 0)
(0.0596612 0.0130123 0)
(0 0 0)
(0.0158728 0.000328434 0)
(0.0301103 0.000634631 0)
(0.0423328 0.000918594 0)
(0.0527314 0.00118966 0)
(0.0615065 0.00145594 0)
(0.0688297 0.00172364 0)
(0.0748408 0.00199748 0)
(0.0796659 0.0022816 0)
(0.0834291 0.00258022 0)
(0.086242 0.00289712 0)
(0.0882015 0.00323543 0)
(0.0893977 0.00359811 0)
(0.0899149 0.00398793 0)
(0.0898332 0.00440739 0)
(0.0892283 0.00485901 0)
(0.0881778 0.00534574 0)
(0.0867617 0.00586961 0)
(0.0850579 0.00643171 0)
(0.083146 0.0070332 0)
(0.0811184 0.00767532 0)
(0.0790695 0.00835666 0)
(0.0770976 0.00907308 0)
(0.0753152 0.00981965 0)
(0.0738398 0.0105879 0)
(0.0728504 0.0113659 0)
(0.0725522 0.0121339 0)
(0.0731133 0.0128624 0)
(0.0747122 0.0135164 0)
(0.0777539 0.0140579 0)
(0.0784432 0.0143635 0)
(0 0 0)
(0.0160403 0.000370754 0)
(0.0304363 0.000716176 0)
(0.042811 0.00103616 0)
(0.0533717 0.00134138 0)
(0.0623232 0.00164086 0)
(0.0698373 0.00194133 0)
(0.0760588 0.00224801 0)
(0.0811198 0.00256571 0)
(0.085149 0.00289923 0)
(0.0882607 0.00325247 0)
(0.0905568 0.00362888 0)
(0.0921321 0.00403171 0)
(0.0930768 0.00446402 0)
(0.0934778 0.00492866 0)
(0.0934202 0.00542883 0)
(0.0929831 0.00596708 0)
(0.0922495 0.0065451 0)
(0.0913085 0.00716452 0)
(0.0902455 0.00782673 0)
(0.0891539 0.00853271 0)
(0.0881424 0.00928126 0)
(0.087322 0.0100682 0)
(0.0868044 0.0108866 0)
(0.0866962 0.0117261 0)
(0.0871329 0.0125705 0)
(0.0883061 0.0133956 0)
(0.0903682 0.0141677 0)
(0.0934092 0.01485 0)
(0.0977241 0.0154041 0)
(0.0990394 0.0157464 0)
(0 0 0)
(0.0162222 0.000411151 0)
(0.030792 0.000793932 0)
(0.043337 0.00114825 0)
(0.0540766 0.00148597 0)
(0.0632207 0.00181676 0)
(0.0709434 0.00214797 0)
(0.0773958 0.00248536 0)
(0.082717 0.00283434 0)
(0.0870377 0.00319993 0)
(0.0904755 0.0035862 0)
(0.0931378 0.00399688 0)
(0.0951249 0.00443544 0)
(0.0965327 0.00490514 0)
(0.0974549 0.00540919 0)
(0.0979839 0.00595078 0)
(0.0982036 0.00653219 0)
(0.0982063 0.0071556 0)
(0.0980918 0.00782313 0)
(0.0979583 0.00853628 0)
(0.0978998 0.00929563 0)
(0.0980236 0.0100997 0)
(0.0984497 0.0109444 0)
(0.0993036 0.0118227 0)
(0.100702 0.0127238 0)
(0.10272 0.0136288 0)
(0.105509 0.0145114 0)
(0.10921 0.015336 0)
(0.113826 0.0160643 0)
(0.119495 0.0166504 0)
(0.121643 0.0170733 0)
(0 0 0)
(0.0164173 0.000449466 0)
(0.0311748 0.000867681 0)
(0.0439051 0.00125448 0)
(0.0548381 0.00162273 0)
(0.0641896 0.00198282 0)
(0.0721376 0.00234262 0)
(0.0788399 0.00270852 0)
(0.0844405 0.00308619 0)
(0.0890727 0.0034807 0)
(0.0928585 0.0038964 0)
(0.0959109 0.00433719 0)
(0.0983356 0.00480664 0)
(0.100234 0.00530813 0)
(0.101707 0.00584496 0)
(0.102853 0.00642008 0)
(0.103766 0.00703607 0)
(0.104547 0.0076956 0)
(0.105301 0.00840053 0)
(0.106141 0.00915243 0)
(0.107179 0.00995204 0)
(0.108517 0.0107973 0)
(0.11027 0.0116846 0)
(0.112583 0.0126086 0)
(0.115584 0.0135583 0)
(0.119332 0.014516 0)
(0.123908 0.0154562 0)
(0.1294 0.0163406 0)
(0.135762 0.0171266 0)
(0.142884 0.0177467 0)
(0.145941 0.0182068 0)
(0 0 0)
(0.0166238 0.000485538 0)
(0.0315806 0.000937075 0)
(0.044509 0.00135433 0)
(0.055648 0.00175107 0)
(0.0652194 0.00213827 0)
(0.0734064 0.00252431 0)
(0.0803725 0.00291604 0)
(0.0862664 0.00331932 0)
(0.0912249 0.00373931 0)
(0.0953745 0.00418048 0)
(0.0988337 0.00464685 0)
(0.101714 0.00514197 0)
(0.10412 0.00566915 0)
(0.106162 0.00623186 0)
(0.107948 0.00683293 0)
(0.109582 0.00747504 0)
(0.11117 0.00816034 0)
(0.11282 0.00889034 0)
(0.114653 0.00966695 0)
(0.116801 0.0104908 0)
(0.119385 0.0113598 0)
(0.122527 0.0122715 0)
(0.126362 0.0132223 0)
(0.131027 0.0142022 0)
(0.136611 0.0151975 0)
(0.14312 0.0161863 0)
(0.15057 0.0171303 0)
(0.158847 0.0179787 0)
(0.167535 0.018632 0)
(0.171732 0.0191611 0)
(0 0 0)
(0.0168398 0.000519236 0)
(0.0320053 0.00100184 0)
(0.0451421 0.00144741 0)
(0.0564977 0.00187045 0)
(0.0662992 0.00228247 0)
(0.0747355 0.00269225 0)
(0.081976 0.00310699 0)
(0.0881736 0.0035327 0)
(0.0934689 0.00397455 0)
(0.0979926 0.00443708 0)
(0.101869 0.00492434 0)
(0.105215 0.00543972 0)
(0.108142 0.00598653 0)
(0.110766 0.00656816 0)
(0.113197 0.00718703 0)
(0.115553 0.00784547 0)
(0.117948 0.00854512 0)
(0.1205 0.00928719 0)
(0.123334 0.0100733 0)
(0.126584 0.0109035 0)
(0.130398 0.0117764 0)
(0.134926 0.0126896 0)
(0.14029 0.0136404 0)
(0.146625 0.0146226 0)
(0.154057 0.0156261 0)
(0.162581 0.0166371 0)
(0.172144 0.0176246 0)
(0.182504 0.0185324 0)
(0.192899 0.0192234 0)
(0.198724 0.0198755 0)
(0 0 0)
(0.0170634 0.000550439 0)
(0.0324442 0.00106171 0)
(0.0457975 0.00153334 0)
(0.0573782 0.00198044 0)
(0.0674173 0.00241487 0)
(0.0761104 0.0028458 0)
(0.0836326 0.00328066 0)
(0.0901408 0.00372555 0)
(0.0957787 0.00418559 0)
(0.100681 0.00466526 0)
(0.104979 0.00516866 0)
(0.108795 0.00569906 0)
(0.112247 0.00625952 0)
(0.115453 0.00685277 0)
(0.118527 0.00748074 0)
(0.121593 0.00814542 0)
(0.124772 0.00884778 0)
(0.128195 0.00958835 0)
(0.132001 0.0103676 0)
(0.13632 0.0111849 0)
(0.141304 0.0120387 0)
(0.147128 0.0129256 0)
(0.153937 0.0138421 0)
(0.161858 0.0147846 0)
(0.171036 0.0157466 0)
(0.18152 0.0167233 0)
(0.193208 0.0177004 0)
(0.205731 0.0186356 0)
(0.217996 0.0193665 0)
(0.226528 0.0203061 0)
(0 0 0)
(0.0172925 0.000579026 0)
(0.032892 0.00111645 0)
(0.0464685 0.00161185 0)
(0.0582809 0.0020807 0)
(0.0685622 0.00253507 0)
(0.0775165 0.00298447 0)
(0.0853245 0.00343654 0)
(0.0921465 0.00389737 0)
(0.0981288 0.0043719 0)
(0.103412 0.00486463 0)
(0.108132 0.00537963 0)
(0.112414 0.00591974 0)
(0.116379 0.0064874 0)
(0.120149 0.00708483 0)
(0.12385 0.00771365 0)
(0.127604 0.00837471 0)
(0.131532 0.00906792 0)
(0.135772 0.00979328 0)
(0.140473 0.0105495 0)
(0.145776 0.0113339 0)
(0.151825 0.0121436 0)
(0.158794 0.0129734 0)
(0.16685 0.0138159 0)
(0.176127 0.0146648 0)
(0.18677 0.0155113 0)
(0.198866 0.016349 0)
(0.212286 0.0171774 0)
(0.226632 0.0179976 0)
(0.240793 0.0187063 0)
(0.254675 0.0204852 0)
(0 0 0)
(0.0175235 0.000605019 0)
(0.0333508 0.0011664 0)
(0.0471576 0.00168346 0)
(0.0592053 0.00217179 0)
(0.0697327 0.0026437 0)
(0.0789519 0.003109 0)
(0.0870493 0.00357549 0)
(0.0941882 0.00404918 0)
(0.100517 0.0045348 0)
(0.106182 0.00503679 0)
(0.111322 0.00555883 0)
(0.11606 0.00610307 0)
(0.120523 0.00667152 0)
(0.124837 0.00726615 0)
(0.129133 0.00788772 0)
(0.133534 0.00853552 0)
(0.138166 0.00920829 0)
(0.143162 0.00990477 0)
(0.148664 0.010622 0)
(0.154822 0.0113543 0)
(0.161782 0.0120952 0)
(0.169693 0.0128365 0)
(0.178704 0.0135636 0)
(0.188948 0.0142602 0)
(0.200531 0.0149023 0)
(0.213466 0.015452 0)
(0.227541 0.0158519 0)
(0.242209 0.0159798 0)
(0.256578 0.0154504 0)
(0.282919 0.0205352 0)
(0 0 0)
(0.015301 0 0)
(0.0289796 0 0)
(0.040655 0 0)
(0.0504955 0 0)
(0.0586678 0 0)
(0.0653221 0 0)
(0.0705905 0 0)
(0.0745892 0 0)
(0.0774214 0 0)
(0.0791796 0 0)
(0.0799464 0 0)
(0.079795 0 0)
(0.0787917 0 0)
(0.0769974 0 0)
(0.0744699 0 0)
(0.0712657 0 0)
(0.0674419 0 0)
(0.0630554 0 0)
(0.0581655 0 0)
(0.0528378 0 0)
(0.0471471 0 0)
(0.0411782 0 0)
(0.0350303 0 0)
(0.0288248 0 0)
(0.0227125 0 0)
(0.0168809 0 0)
(0.0115732 0 0)
(0.00711971 0 0)
(0.00404729 0 0)
(-5.89806e-17 0 0)
(0 0 0)
(0.0153113 4.85775e-05 0)
(0.0290016 9.39107e-05 0)
(0.0406887 0.000136125 0)
(0.0505411 0.000176607 0)
(0.0587263 0.000216504 0)
(0.0653949 0.000256809 0)
(0.0706795 0.000298356 0)
(0.0746963 0.000341856 0)
(0.0775487 0.000387779 0)
(0.0793298 0.000436605 0)
(0.0801225 0.00048894 0)
(0.0800005 0.000545297 0)
(0.0790302 0.000606141 0)
(0.0772731 0.000671912 0)
(0.0747872 0.000743048 0)
(0.0716292 0.000820037 0)
(0.0678573 0.00090356 0)
(0.0635293 0.000993361 0)
(0.0587036 0.00108917 0)
(0.0534469 0.00119153 0)
(0.0478344 0.00130058 0)
(0.0419518 0.00141633 0)
(0.0358971 0.00153861 0)
(0.0297924 0.00166871 0)
(0.0237906 0.00180804 0)
(0.0180807 0.00195732 0)
(0.0129116 0.00211789 0)
(0.00862257 0.00228825 0)
(0.00574126 0.00245635 0)
(0.00211897 0.00259094 0)
(0 0 0)
(0.0153469 9.69656e-05 0)
(0.0290725 0.000187458 0)
(0.0407947 0.000271732 0)
(0.0506826 0.000352534 0)
(0.0589058 0.000432138 0)
(0.0656172 0.00051254 0)
(0.0709498 0.000595405 0)
(0.0750204 0.000682208 0)
(0.0779328 0.00077381 0)
(0.0797816 0.00087112 0)
(0.0806514 0.000975426 0)
(0.0806166 0.00108774 0)
(0.0797448 0.00120898 0)
(0.0780984 0.00134 0)
(0.0757363 0.00148166 0)
(0.0727155 0.0016348 0)
(0.0690962 0.00180031 0)
(0.06494 0.00197819 0)
(0.0603056 0.00216855 0)
(0.0552596 0.0023721 0)
(0.0498802 0.00258914 0)
(0.0442567 0.00281972 0)
(0.0384864 0.00306376 0)
(0.0326879 0.00332234 0)
(0.0270169 0.00359643 0)
(0.0216658 0.00388679 0)
(0.0168974 0.00419686 0)
(0.0130761 0.00452533 0)
(0.0107309 0.00485031 0)
(0.00747193 0.00514882 0)
(0 0 0)
(0.0154068 0.000144986 0)
(0.0291918 0.000280297 0)
(0.0409728 0.000406333 0)
(0.0509195 0.000527137 0)
(0.0592059 0.00064607 0)
(0.065988 0.000766158 0)
(0.0714005 0.000889868 0)
(0.0755596 0.00101915 0)
(0.07857 0.00115541 0)
(0.0805302 0.0013003 0)
(0.081527 0.00145563 0)
(0.081636 0.00162283 0)
(0.0809265 0.00180326 0)
(0.0794627 0.00199817 0)
(0.0773053 0.00220874 0)
(0.074513 0.00243605 0)
(0.0711467 0.00268063 0)
(0.0672717 0.00294346 0)
(0.062951 0.00322568 0)
(0.0582515 0.00352756 0)
(0.0532547 0.00384963 0)
(0.0480547 0.00419217 0)
(0.0427543 0.00455536 0)
(0.037472 0.00493826 0)
(0.0323626 0.00533961 0)
(0.027615 0.00575964 0)
(0.0234898 0.00620029 0)
(0.0203888 0.00666003 0)
(0.0188568 0.00710941 0)
(0.0162667 0.0075228 0)
(0 0 0)
(0.0154903 0.000192458 0)
(0.0293587 0.000372065 0)
(0.0412216 0.000539237 0)
(0.0512489 0.000699315 0)
(0.0596219 0.000856864 0)
(0.0665021 0.00101587 0)
(0.0720241 0.00117957 0)
(0.0763041 0.00134999 0)
(0.0794501 0.00152937 0)
(0.081565 0.00172042 0)
(0.0827371 0.00192514 0)
(0.0830443 0.00214539 0)
(0.0825584 0.0023829 0)
(0.0813463 0.0026393 0)
(0.0794717 0.00291611 0)
(0.0769968 0.00321469 0)
(0.0739846 0.00353582 0)
(0.0705015 0.00388094 0)
(0.0666148 0.00425131 0)
(0.0623927 0.0046469 0)
(0.057921 0.00506868 0)
(0.0532988 0.00551699 0)
(0.0486349 0.0059909 0)
(0.044058 0.00648829 0)
(0.0397272 0.00700631 0)
(0.035831 0.0075424 0)
(0.0326013 0.00809102 0)
(0.0304408 0.00864538 0)
(0.0299207 0.00917137 0)
(0.0281461 0.00964982 0)
(0 0 0)
(0.0155967 0.000239065 0)
(0.0295689 0.000462103 0)
(0.0415334 0.000669427 0)
(0.0516639 0.000867749 0)
(0.0601484 0.00106288 0)
(0.0671529 0.00125964 0)
(0.0728122 0.00146183 0)
(0.0772438 0.00167198 0)
(0.0805623 0.00189309 0)
(0.0828732 0.00212848 0)
(0.0842665 0.0023805 0)
(0.0848236 0.00265138 0)
(0.0846196 0.00294323 0)
(0.083725 0.00325802 0)
(0.0822067 0.00359758 0)
(0.0801318 0.00396377 0)
(0.0775683 0.00435809 0)
(0.0745848 0.00478175 0)
(0.0712524 0.00523566 0)
(0.0676429 0.00572019 0)
(0.0638416 0.00623599 0)
(0.0599503 0.00678202 0)
(0.0560808 0.00735577 0)
(0.0523739 0.00795472 0)
(0.0490016 0.00857417 0)
(0.0461565 0.00920577 0)
(0.0440507 0.00983611 0)
(0.0430241 0.0104473 0)
(0.0436355 0.0110026 0)
(0.0427733 0.0114821 0)
(0 0 0)
(0.0157246 0.000284465 0)
(0.0298202 0.000549771 0)
(0.0419052 0.000796109 0)
(0.05216 0.0010315 0)
(0.0607789 0.00126294 0)
(0.0679316 0.001496 0)
(0.0737544 0.0017349 0)
(0.0783687 0.00198306 0)
(0.081894 0.00224413 0)
(0.0844386 0.00252162 0)
(0.0860957 0.00281832 0)
(0.0869506 0.00313685 0)
(0.0870827 0.00347967 0)
(0.0865666 0.00384902 0)
(0.085472 0.00424693 0)
(0.0838728 0.00467597 0)
(0.0818437 0.00513818 0)
(0.0794564 0.00563462 0)
(0.0767873 0.00616628 0)
(0.0739182 0.00673419 0)
(0.0709324 0.00733747 0)
(0.0679278 0.007973 0)
(0.0650188 0.0086374 0)
(0.0623437 0.00932599 0)
(0.0600867 0.0100306 0)
(0.0584461 0.0107367 0)
(0.0576185 0.0114231 0)
(0.0578623 0.0120607 0)
(0.0596726 0.0126116 0)
(0.0596612 0.0130123 0)
(0 0 0)
(0.0158728 0.000328434 0)
(0.0301103 0.000634631 0)
(0.0423328 0.000918594 0)
(0.0527314 0.00118966 0)
(0.0615065 0.00145594 0)
(0.0688297 0.00172364 0)
(0.0748408 0.00199748 0)
(0.0796659 0.0022816 0)
(0.0834291 0.00258022 0)
(0.086242 0.00289712 0)
(0.0882015 0.00323543 0)
(0.0893977 0.00359811 0)
(0.0899149 0.00398793 0)
(0.0898332 0.00440739 0)
(0.0892283 0.00485901 0)
(0.0881778 0.00534574 0)
(0.0867617 0.00586961 0)
(0.0850579 0.00643171 0)
(0.083146 0.0070332 0)
(0.0811184 0.00767532 0)
(0.0790695 0.00835666 0)
(0.0770976 0.00907308 0)
(0.0753152 0.00981965 0)
(0.0738398 0.0105879 0)
(0.0728504 0.0113659 0)
(0.0725522 0.0121339 0)
(0.0731133 0.0128624 0)
(0.0747122 0.0135164 0)
(0.0777539 0.0140579 0)
(0.0784432 0.0143635 0)
(0 0 0)
(0.0160403 0.000370754 0)
(0.0304363 0.000716176 0)
(0.042811 0.00103616 0)
(0.0533717 0.00134138 0)
(0.0623232 0.00164086 0)
(0.0698373 0.00194133 0)
(0.0760588 0.00224801 0)
(0.0811198 0.00256571 0)
(0.085149 0.00289923 0)
(0.0882607 0.00325247 0)
(0.0905568 0.00362888 0)
(0.0921321 0.00403171 0)
(0.0930768 0.00446402 0)
(0.0934778 0.00492866 0)
(0.0934202 0.00542883 0)
(0.0929831 0.00596708 0)
(0.0922495 0.0065451 0)
(0.0913085 0.00716452 0)
(0.0902455 0.00782673 0)
(0.0891539 0.00853271 0)
(0.0881424 0.00928126 0)
(0.087322 0.0100682 0)
(0.0868044 0.0108866 0)
(0.0866962 0.0117261 0)
(0.0871329 0.0125705 0)
(0.0883061 0.0133956 0)
(0.0903682 0.0141677 0)
(0.0934092 0.01485 0)
(0.0977241 0.0154041 0)
(0.0990394 0.0157464 0)
(0 0 0)
(0.0162222 0.000411151 0)
(0.030792 0.000793932 0)
(0.043337 0.00114825 0)
(0.0540766 0.00148597 0)
(0.0632207 0.00181676 0)
(0.0709434 0.00214797 0)
(0.0773958 0.00248536 0)
(0.082717 0.00283434 0)
(0.0870377 0.00319993 0)
(0.0904755 0.0035862 0)
(0.0931378 0.00399688 0)
(0.0951249 0.00443544 0)
(0.0965327 0.00490514 0)
(0.0974549 0.00540919 0)
(0.0979839 0.00595078 0)
(0.0982036 0.00653219 0)
(0.0982063 0.0071556 0)
(0.0980918 0.00782313 0)
(0.0979583 0.00853628 0)
(0.0978998 0.00929563 0)
(0.0980236 0.0100997 0)
(0.0984497 0.0109444 0)
(0.0993036 0.0118227 0)
(0.100702 0.0127238 0)
(0.10272 0.0136288 0)
(0.105509 0.0145114 0)
(0.10921 0.015336 0)
(0.113826 0.0160643 0)
(0.119495 0.0166504 0)
(0.121643 0.0170733 0)
(0 0 0)
(0.0164173 0.000449466 0)
(0.0311748 0.000867681 0)
(0.0439051 0.00125448 0)
(0.0548381 0.00162273 0)
(0.0641896 0.00198282 0)
(0.0721376 0.00234262 0)
(0.0788399 0.00270852 0)
(0.0844405 0.00308619 0)
(0.0890727 0.0034807 0)
(0.0928585 0.0038964 0)
(0.0959109 0.00433719 0)
(0.0983356 0.00480664 0)
(0.100234 0.00530813 0)
(0.101707 0.00584496 0)
(0.102853 0.00642008 0)
(0.103766 0.00703607 0)
(0.104547 0.0076956 0)
(0.105301 0.00840053 0)
(0.106141 0.00915243 0)
(0.107179 0.00995204 0)
(0.108517 0.0107973 0)
(0.11027 0.0116846 0)
(0.112583 0.0126086 0)
(0.115584 0.0135583 0)
(0.119332 0.014516 0)
(0.123908 0.0154562 0)
(0.1294 0.0163406 0)
(0.135762 0.0171266 0)
(0.142884 0.0177467 0)
(0.145941 0.0182068 0)
(0 0 0)
(0.0166238 0.000485538 0)
(0.0315806 0.000937075 0)
(0.044509 0.00135433 0)
(0.055648 0.00175107 0)
(0.0652194 0.00213827 0)
(0.0734064 0.00252431 0)
(0.0803725 0.00291604 0)
(0.0862664 0.00331932 0)
(0.0912249 0.00373931 0)
(0.0953745 0.00418048 0)
(0.0988337 0.00464685 0)
(0.101714 0.00514197 0)
(0.10412 0.00566915 0)
(0.106162 0.00623186 0)
(0.107948 0.00683293 0)
(0.109582 0.00747504 0)
(0.11117 0.00816034 0)
(0.11282 0.00889034 0)
(0.114653 0.00966695 0)
(0.116801 0.0104908 0)
(0.119385 0.0113598 0)
(0.122527 0.0122715 0)
(0.126362 0.0132223 0)
(0.131027 0.0142022 0)
(0.136611 0.0151975 0)
(0.14312 0.0161863 0)
(0.15057 0.0171303 0)
(0.158847 0.0179787 0)
(0.167535 0.018632 0)
(0.171732 0.0191611 0)
(0 0 0)
(0.0168398 0.000519236 0)
(0.0320053 0.00100184 0)
(0.0451421 0.00144741 0)
(0.0564977 0.00187045 0)
(0.0662992 0.00228247 0)
(0.0747355 0.00269225 0)
(0.081976 0.00310699 0)
(0.0881736 0.0035327 0)
(0.0934689 0.00397455 0)
(0.0979926 0.00443708 0)
(0.101869 0.00492434 0)
(0.105215 0.00543972 0)
(0.108142 0.00598653 0)
(0.110766 0.00656816 0)
(0.113197 0.00718703 0)
(0.115553 0.00784547 0)
(0.117948 0.00854512 0)
(0.1205 0.00928719 0)
(0.123334 0.0100733 0)
(0.126584 0.0109035 0)
(0.130398 0.0117764 0)
(0.134926 0.0126896 0)
(0.14029 0.0136404 0)
(0.146625 0.0146226 0)
(0.154057 0.0156261 0)
(0.162581 0.0166371 0)
(0.172144 0.0176246 0)
(0.182504 0.0185324 0)
(0.192899 0.0192234 0)
(0.198724 0.0198755 0)
(0 0 0)
(0.0170634 0.000550439 0)
(0.0324442 0.00106171 0)
(0.0457975 0.00153334 0)
(0.0573782 0.00198044 0)
(0.0674173 0.00241487 0)
(0.0761104 0.0028458 0)
(0.0836326 0.00328066 0)
(0.0901408 0.00372555 0)
(0.0957787 0.00418559 0)
(0.100681 0.00466526 0)
(0.104979 0.00516866 0)
(0.108795 0.00569906 0)
(0.112247 0.00625952 0)
(0.115453 0.00685277 0)
(0.118527 0.00748074 0)
(0.121593 0.00814542 0)
(0.124772 0.00884778 0)
(0.128195 0.00958835 0)
(0.132001 0.0103676 0)
(0.13632 0.0111849 0)
(0.141304 0.0120387 0)
(0.147128 0.0129256 0)
(0.153937 0.0138421 0)
(0.161858 0.0147846 0)
(0.171036 0.0157466 0)
(0.18152 0.0167233 0)
(0.193208 0.0177004 0)
(0.205731 0.0186356 0)
(0.217996 0.0193665 0)
(0.226528 0.0203061 0)
(0 0 0)
(0.0172925 0.000579026 0)
(0.032892 0.00111645 0)
(0.0464685 0.00161185 0)
(0.0582809 0.0020807 0)
(0.0685622 0.00253507 0)
(0.0775165 0.00298447 0)
(0.0853245 0.00343654 0)
(0.0921465 0.00389737 0)
(0.0981288 0.0043719 0)
(0.103412 0.00486463 0)
(0.108132 0.00537963 0)
(0.112414 0.00591974 0)
(0.116379 0.0064874 0)
(0.120149 0.00708483 0)
(0.12385 0.00771365 0)
(0.127604 0.00837471 0)
(0.131532 0.00906792 0)
(0.135772 0.00979328 0)
(0.140473 0.0105495 0)
(0.145776 0.0113339 0)
(0.151825 0.0121436 0)
(0.158794 0.0129734 0)
(0.16685 0.0138159 0)
(0.176127 0.0146648 0)
(0.18677 0.0155113 0)
(0.198866 0.016349 0)
(0.212286 0.0171774 0)
(0.226632 0.0179976 0)
(0.240793 0.0187063 0)
(0.254675 0.0204852 0)
(0 0 0)
(0.0175235 0.000605019 0)
(0.0333508 0.0011664 0)
(0.0471576 0.00168346 0)
(0.0592053 0.00217179 0)
(0.0697327 0.0026437 0)
(0.0789519 0.003109 0)
(0.0870493 0.00357549 0)
(0.0941882 0.00404918 0)
(0.100517 0.0045348 0)
(0.106182 0.00503679 0)
(0.111322 0.00555883 0)
(0.11606 0.00610307 0)
(0.120523 0.00667152 0)
(0.124837 0.00726615 0)
(0.129133 0.00788772 0)
(0.133534 0.00853552 0)
(0.138166 0.00920829 0)
(0.143162 0.00990477 0)
(0.148664 0.010622 0)
(0.154822 0.0113543 0)
(0.161782 0.0120952 0)
(0.169693 0.0128365 0)
(0.178704 0.0135636 0)
(0.188948 0.0142602 0)
(0.200531 0.0149023 0)
(0.213466 0.015452 0)
(0.227541 0.0158519 0)
(0.242209 0.0159798 0)
(0.256578 0.0154504 0)
(0.282919 0.0205352 0)
(-8.32667e-17 0 0)
(0.00572005 0 0)
(0.0115746 0 0)
(0.0210384 0 0)
(0.033427 0 0)
(0.0477429 0 0)
(0.0629144 0 0)
(0.077986 0 0)
(0.0922204 0 0)
(0.105107 0 0)
(0.11635 0 0)
(0.125825 0 0)
(0.133508 0 0)
(0.139425 0 0)
(0.143628 0 0)
(0.146189 0 0)
(0.147186 0 0)
(0.146679 0 0)
(0.144701 0 0)
(0.141272 0 0)
(0.136399 0 0)
(0.13007 0 0)
(0.122257 0 0)
(0.112913 0 0)
(0.101993 0 0)
(0.0894504 0 0)
(0.0752035 0 0)
(0.0591638 0 0)
(0.0412599 0 0)
(0.0214044 0 0)
(0 0 0)
(0.00212294 -0.00268834 0)
(0.00755678 -0.002654 0)
(0.0134996 -0.00269715 0)
(0.0230091 -0.00268888 0)
(0.0353857 -0.00264011 0)
(0.0496212 -0.00255353 0)
(0.0646587 -0.00243561 0)
(0.0795665 -0.00229367 0)
(0.093624 -0.00213766 0)
(0.106329 -0.00197497 0)
(0.117396 -0.00181017 0)
(0.12671 -0.00164869 0)
(0.13425 -0.00149556 0)
(0.14004 -0.00135342 0)
(0.144132 -0.00121979 0)
(0.146602 -0.00109511 0)
(0.147526 -0.00098125 0)
(0.146958 -0.000877661 0)
(0.144931 -0.000784045 0)
(0.141463 -0.000697694 0)
(0.136556 -0.000617738 0)
(0.130197 -0.00054463 0)
(0.122362 -0.000477107 0)
(0.113003 -0.000413765 0)
(0.102071 -0.000353103 0)
(0.0895142 -0.000294643 0)
(0.0752527 -0.000237878 0)
(0.0592013 -0.000181314 0)
(0.0412863 -0.000123613 0)
(0.0214185 -6.32719e-05 0)
(0 0 0)
(0.0075008 -0.00531245 0)
(0.0129642 -0.00523303 0)
(0.0192015 -0.00531362 0)
(0.0288547 -0.00529641 0)
(0.0411745 -0.00519877 0)
(0.055159 -0.00502455 0)
(0.0698122 -0.00478951 0)
(0.0842473 -0.00451007 0)
(0.0977762 -0.00420196 0)
(0.109937 -0.00388152 0)
(0.12048 -0.00355885 0)
(0.129315 -0.0032426 0)
(0.136427 -0.00294012 0)
(0.14184 -0.00265676 0)
(0.145612 -0.00239339 0)
(0.147819 -0.00215013 0)
(0.148529 -0.0019285 0)
(0.147783 -0.00172618 0)
(0.14561 -0.00154172 0)
(0.142025 -0.00137321 0)
(0.137021 -0.00121771 0)
(0.13058 -0.00107389 0)
(0.122677 -0.000940731 0)
(0.113268 -0.000816371 0)
(0.102296 -0.000697677 0)
(0.0896979 -0.000583098 0)
(0.0753968 -0.00047112 0)
(0.059311 -0.000359287 0)
(0.0413627 -0.00024505 0)
(0.021459 -0.000125469 0)
(0 0 0)
(0.0162814 -0.00778718 0)
(0.0217249 -0.00766074 0)
(0.028425 -0.00776867 0)
(0.038272 -0.0077408 0)
(0.0504547 -0.00759348 0)
(0.0640366 -0.00733778 0)
(0.0780827 -0.00699433 0)
(0.0917452 -0.00658518 0)
(0.104412 -0.00613299 0)
(0.115697 -0.0056629 0)
(0.125402 -0.0051928 0)
(0.13347 -0.00473444 0)
(0.139899 -0.00429496 0)
(0.144718 -0.00388068 0)
(0.147991 -0.00349791 0)
(0.149786 -0.00314656 0)
(0.150151 -0.00282506 0)
(0.149118 -0.00253093 0)
(0.14671 -0.00226209 0)
(0.142934 -0.00201665 0)
(0.137776 -0.00179058 0)
(0.131205 -0.00158078 0)
(0.12319 -0.00138584 0)
(0.113693 -0.00120361 0)
(0.102651 -0.00103001 0)
(0.089989 -0.000862019 0)
(0.075628 -0.000697081 0)
(0.0594869 -0.000531957 0)
(0.0414845 -0.000363004 0)
(0.021523 -0.00018593 0)
(0 0 0)
(0.0281967 -0.0100121 0)
(0.0335654 -0.00987534 0)
(0.0408029 -0.0100017 0)
(0.0508432 -0.00996533 0)
(0.062821 -0.00977452 0)
(0.0758671 -0.00944594 0)
(0.0890707 -0.00900172 0)
(0.101666 -0.00847023 0)
(0.113175 -0.00788637 0)
(0.123295 -0.00728063 0)
(0.131893 -0.00667702 0)
(0.138952 -0.00609179 0)
(0.144485 -0.00553285 0)
(0.148535 -0.00500636 0)
(0.151159 -0.0045189 0)
(0.152409 -0.00407163 0)
(0.152319 -0.00366067 0)
(0.150907 -0.00328357 0)
(0.148188 -0.00293862 0)
(0.144156 -0.00262257 0)
(0.138788 -0.00233139 0)
(0.132043 -0.00206109 0)
(0.12388 -0.00180892 0)
(0.114261 -0.00157217 0)
(0.103121 -0.00134664 0)
(0.0903737 -0.00112815 0)
(0.0759337 -0.000913043 0)
(0.0597189 -0.000697228 0)
(0.0416444 -0.000476035 0)
(0.0216066 -0.000243913 0)
(0 0 0)
(0.0427952 -0.01198 0)
(0.048133 -0.0118465 0)
(0.055939 -0.0119927 0)
(0.0661601 -0.0119532 0)
(0.0778663 -0.0117254 0)
(0.0902033 -0.0113254 0)
(0.10231 -0.0107826 0)
(0.113583 -0.0101376 0)
(0.123673 -0.00943442 0)
(0.132376 -0.00870943 0)
(0.139648 -0.00799074 0)
(0.145498 -0.00729549 0)
(0.14997 -0.00663475 0)
(0.153114 -0.00601487 0)
(0.154963 -0.00543858 0)
(0.155563 -0.00490824 0)
(0.154931 -0.00442055 0)
(0.153068 -0.00397166 0)
(0.149977 -0.00356015 0)
(0.145638 -0.00318178 0)
(0.140017 -0.00283218 0)
(0.133061 -0.00250724 0)
(0.124722 -0.00220324 0)
(0.114956 -0.00191658 0)
(0.103692 -0.00164286 0)
(0.0908374 -0.00137751 0)
(0.076301 -0.00111576 0)
(0.0599969 -0.000852605 0)
(0.0418354 -0.000582434 0)
(0.021706 -0.000298541 0)
(0 0 0)
(0.0597194 -0.0136258 0)
(0.0650786 -0.0135898 0)
(0.0734855 -0.0137609 0)
(0.0838505 -0.0137149 0)
(0.0951591 -0.0134424 0)
(0.106562 -0.0129632 0)
(0.117317 -0.01232 0)
(0.127023 -0.0115689 0)
(0.135456 -0.0107587 0)
(0.142543 -0.0099314 0)
(0.148317 -0.00911733 0)
(0.152816 -0.00833232 0)
(0.156116 -0.00758914 0)
(0.158251 -0.00689336 0)
(0.15924 -0.00624524 0)
(0.159117 -0.00564664 0)
(0.157882 -0.00509555 0)
(0.155519 -0.00458728 0)
(0.15201 -0.00411923 0)
(0.147328 -0.00368762 0)
(0.14142 -0.00328763 0)
(0.134224 -0.00291467 0)
(0.125685 -0.00256453 0)
(0.115755 -0.0022333 0)
(0.104347 -0.00191628 0)
(0.0913657 -0.00160825 0)
(0.0767182 -0.00130374 0)
(0.0603119 -0.000996965 0)
(0.0420509 -0.000681434 0)
(0.0218178 -0.000349419 0)
(0 0 0)
(0.0784564 -0.0150896 0)
(0.0841487 -0.0151683 0)
(0.0931703 -0.0153469 0)
(0.103555 -0.0152672 0)
(0.114233 -0.014923 0)
(0.124418 -0.0143472 0)
(0.133558 -0.0135995 0)
(0.141453 -0.0127468 0)
(0.148035 -0.0118437 0)
(0.153367 -0.0109337 0)
(0.157538 -0.0100456 0)
(0.160616 -0.00919391 0)
(0.162677 -0.00838912 0)
(0.163748 -0.0076363 0)
(0.163835 -0.00693462 0)
(0.162949 -0.00628394 0)
(0.161077 -0.00568321 0)
(0.158181 -0.00512786 0)
(0.154226 -0.00461363 0)
(0.149171 -0.00413777 0)
(0.142955 -0.00369573 0)
(0.135503 -0.00328204 0)
(0.126751 -0.00289202 0)
(0.116634 -0.00252171 0)
(0.105066 -0.00216638 0)
(0.091945 -0.00182006 0)
(0.0771748 -0.00147681 0)
(0.0606558 -0.00113017 0)
(0.0422856 -0.000772945 0)
(0.021939 -0.000396498 0)
(0 0 0)
(0.0990897 -0.0165752 0)
(0.105176 -0.0166338 0)
(0.114722 -0.016774 0)
(0.124877 -0.0166119 0)
(0.134581 -0.016156 0)