/*--------------------------------*- C++ -*----------------------------------*\
| =========                 |                                                 |
| \\      /  F ield         | OpenFOAM: The Open Source CFD Toolbox           |
|  \\    /   O peration     | Version:  4.1                                   |
|   \\  /    A nd           | Web:      www.OpenFOAM.org                      |
|    \\/     M anipulation  |                                                 |
\*---------------------------------------------------------------------------*/
FoamFile
{
    version     2.0;
    format      ascii;
    class       volVectorField;
    location    "0.7";
    object      U;
}
// * * * * * * * * * * * * * * * * * * * * * * * * * * * * * * * * * * * * * //

dimensions      [0 1 -1 0 0 0 0];

internalField   nonuniform List<vector> 
2790
(
(9.92914 0.0200239 5.38524e-20)
(9.86505 0.0275997 0)
(9.77053 0.0327283 0)
(9.65087 0.0381498 5.79779e-20)
(9.51434 0.043839 0)
(9.36333 0.0497439 -6.18856e-20)
(9.19724 0.0559905 6.35473e-20)
(9.01507 0.0627156 6.60033e-20)
(8.81607 0.070036 -6.84649e-20)
(8.59948 0.0780689 0)
(8.3644 0.0869385 1.49086e-19)
(8.10974 0.0967722 -1.5369e-19)
(7.83426 0.107703 0)
(7.53665 0.119871 0)
(7.21549 0.133419 0)
(6.86939 0.14848 0)
(6.49692 0.165174 9.87037e-20)
(6.09686 0.183619 8.42548e-19)
(5.66818 0.203888 -8.81333e-19)
(5.21006 0.225957 0)
(4.72228 0.249703 0)
(4.20534 0.274897 -1.09065e-18)
(3.6607 0.301129 1.45118e-18)
(3.09089 0.327647 2.84927e-18)
(2.5 0.353211 -2.38051e-18)
(1.89428 0.375628 0)
(1.28178 0.389337 -3.25233e-18)
(0.677444 0.369666 -8.97723e-21)
(0.0780679 0.171176 8.10681e-18)
(-0.10344 -0.361667 -1.24804e-17)
(9.99001 0.038567 -2.69288e-20)
(9.98275 0.0563814 -2.73543e-20)
(9.94757 0.0696912 1.11666e-19)
(9.88559 0.0840252 -1.7197e-19)
(9.80389 0.0993879 1.17309e-19)
(9.70508 0.115625 1.20841e-19)
(9.58885 0.132989 0)
(9.45436 0.151777 -3.22349e-19)
(9.30096 0.172255 3.30706e-19)
(9.12797 0.1947 1.37296e-19)
(8.93457 0.219403 0)
(8.71973 0.24665 0)
(8.48227 0.276737 0)
(8.22085 0.309958 6.46294e-19)
(7.93409 0.346591 -6.65793e-19)
(7.62054 0.386862 1.41376e-18)
(7.27862 0.430914 -3.03675e-18)
(6.90695 0.478824 3.09612e-18)
(6.50433 0.530511 -1.61973e-18)
(6.06958 0.58557 0)
(5.60202 0.643218 -3.67981e-18)
(5.10161 0.702259 3.37405e-18)
(4.56932 0.760943 -2.5895e-19)
(4.00717 0.816552 -4.72829e-18)
(3.41863 0.864939 4.43212e-18)
(2.81 0.899787 0)
(2.19091 0.909756 -6.88543e-19)
(1.57435 0.869303 -7.45099e-19)
(0.955667 0.714875 -4.07586e-19)
(0.534538 0.349057 0)
(9.98707 0.0388262 1.6087e-19)
(9.97699 0.0652352 1.63597e-19)
(9.94391 0.0878793 -1.11201e-19)
(9.88652 0.111741 -1.13945e-19)
(9.81056 0.13725 -4.68516e-19)
(9.71883 0.164389 -1.20711e-19)
(9.61132 0.193495 0)
(9.48733 0.224986 0)
(9.34636 0.259285 0)
(9.18785 0.296855 4.09897e-19)
(9.01113 0.338172 -2.74079e-19)
(8.81537 0.383718 -5.78186e-19)
(8.59957 0.433993 1.21454e-18)
(8.3626 0.489512 -1.24557e-18)
(8.10321 0.550772 0)
(7.82008 0.618215 1.36964e-18)
(7.5117 0.69216 -1.40956e-18)
(7.1765 0.772795 2.99118e-18)
(6.81312 0.860113 4.48709e-20)
(6.42006 0.953639 -3.24306e-18)
(5.99587 1.05225 4.28208e-19)
(5.53942 1.15409 -6.83622e-18)
(5.05023 1.25636 -5.67587e-19)
(4.52856 1.35479 8.06812e-18)
(3.97498 1.44271 -8.12226e-18)
(3.39114 1.51021 9.15952e-18)
(2.77851 1.54187 2.9143e-21)
(2.13541 1.51176 6.64769e-19)
(1.42314 1.38327 -2.47143e-17)
(0.783825 1.11131 2.71678e-17)
(9.98531 0.042935 -2.1442e-19)
(9.97285 0.0793053 -4.35477e-19)
(9.93955 0.112364 2.22321e-19)
(9.88332 0.145903 0)
(9.8088 0.181044 3.22794e-22)
(9.71882 0.218178 -2.4044e-19)
(9.61368 0.257802 2.44264e-19)
(9.49286 0.300462 -5.07601e-19)
(9.35594 0.346758 5.18398e-19)
(9.20248 0.397342 -2.68159e-19)
(9.03208 0.452857 1.67002e-18)
(8.84418 0.513952 -1.4267e-18)
(8.63805 0.581322 0)
(8.41292 0.655692 2.47794e-18)
(8.16789 0.737783 -5.10992e-18)
(7.902 0.828277 2.63638e-18)
(7.61412 0.927749 0)
(7.30295 1.0366 2.53824e-18)
(6.96729 1.15502 -8.27317e-18)
(6.60578 1.28274 -8.58159e-20)
(6.2167 1.4187 1.26948e-17)
(5.79818 1.5609 -6.82064e-18)
(5.34838 1.70613 1.34825e-18)
(4.86543 1.84948 0)
(4.34655 1.98342 -1.65528e-17)
(3.78792 2.09712 1.68513e-17)
(3.18296 2.1758 1.86263e-17)
(2.52128 2.19919 -1.80543e-17)
(1.75569 2.15002 1.31075e-18)
(0.988714 2.01436 1.50023e-18)
(9.9844 0.0484802 4.27261e-19)
(9.97052 0.0931664 2.17342e-19)
(9.93698 0.135198 0)
(9.8817 0.177478 0)
(9.80859 0.22157 6.96679e-19)
(9.72033 0.268202 -2.34608e-19)
(9.6174 0.317993 2.47448e-19)
(9.49935 0.371575 -1.25591e-18)
(9.36566 0.429664 1.02713e-18)
(9.21606 0.493031 5.31103e-19)
(9.05033 0.562417 -8.40653e-22)
(8.86801 0.638578 1.13848e-18)
(8.66858 0.722335 -3.5132e-18)
(8.4515 0.814558 2.40245e-18)
(8.21614 0.916128 2.51936e-18)
(7.96183 1.0279 -5.83424e-18)
(7.68778 1.15065 2.67217e-18)
(7.39309 1.28502 3.50053e-19)
(7.07678 1.4314 -5.05142e-21)
(6.73775 1.58982 6.07447e-18)
(6.37437 1.75955 -6.2421e-18)
(5.98445 1.93886 0)
(5.56543 2.12484 1.28773e-17)
(5.11364 2.31288 1.43597e-19)
(4.62368 2.49602 -2.9914e-17)
(4.08817 2.66474 1.5665e-17)
(3.4962 2.80722 1.66699e-17)
(2.83484 2.90917 -2.12319e-18)
(2.06419 2.95959 -2.00734e-17)
(1.20545 2.97337 -1.34792e-18)
(9.9839 0.0547227 -8.08032e-22)
(9.96937 0.107125 0)
(9.93589 0.157722 2.20872e-19)
(9.88166 0.20873 2.26431e-19)
(9.81027 0.261822 3.28585e-22)
(9.72416 0.317913 -1.51643e-21)
(9.62386 0.377728 1.69598e-18)
(9.50894 0.442008 -2.23688e-18)
(9.37885 0.511562 1.01697e-18)
(9.23348 0.587249 2.68417e-19)
(9.07268 0.669908 -1.3467e-18)
(8.89607 0.76041 8.34903e-19)
(8.70323 0.859684 2.8852e-18)
(8.49374 0.968717 -2.35829e-18)
(8.2672 1.08853 0)
(8.02308 1.22015 6.35003e-19)
(7.76076 1.3645 5.27385e-18)
(7.4796 1.52244 -6.06293e-18)
(7.17884 1.69463 -7.04482e-19)
(6.85747 1.8814 6.57624e-18)
(6.51406 2.08252 7.15236e-20)
(6.14637 2.29679 6.35899e-18)
(5.75155 2.52209 -1.29188e-17)
(5.3251 2.75489 0)
(4.8601 2.98956 0)
(4.34754 3.21867 0)
(3.77502 3.4332 -1.54214e-17)
(3.12889 3.62276 5.06668e-17)
(2.39037 3.76963 -3.32035e-17)
(1.45356 3.92835 3.81648e-17)
(9.98354 0.0612889 -4.25792e-19)
(9.96895 0.121107 -4.31061e-19)
(9.93596 0.179853 2.19948e-19)
(9.88294 0.239279 -2.2399e-19)
(9.81352 0.301054 -4.60514e-19)
(9.72994 0.366244 2.33028e-19)
(9.63266 0.435696 2.39032e-19)
(9.52132 0.510271 0)
(9.39541 0.590866 0)
(9.2549 0.678404 -5.18891e-21)
(9.09969 0.773824 1.59354e-18)
(8.92944 0.878101 -5.4972e-19)
(8.74382 0.992253 -5.65985e-19)
(8.5425 1.11735 -2.91981e-18)
(8.32519 1.25456 2.38342e-18)
(8.09144 1.40506 4.97379e-18)
(7.84071 1.56991 -5.06801e-18)
(7.57249 1.75014 -4.63217e-18)
(7.2862 1.94669 -7.39527e-19)
(6.98085 2.16028 5.56367e-18)
(6.65511 2.39122 0)
(6.30683 2.63912 0)
(5.93282 2.90275 1.3167e-17)
(5.52873 3.18006 -1.27101e-17)
(5.0875 3.46729 -1.24354e-17)
(4.5994 3.75883 1.28039e-17)
(4.05222 4.0476 -2.85087e-17)
(3.42953 4.32613 -5.78706e-20)
(2.74747 4.55987 3.01491e-17)
(1.73676 4.85698 5.22724e-19)
(9.98326 0.0679695 3.17563e-19)
(9.96901 0.134957 1.1823e-18)
(9.9369 0.201464 -2.18739e-19)
(9.88536 0.268976 -4.46827e-19)
(9.81813 0.33912 4.53371e-19)
(9.73739 0.413082 -4.64699e-19)
(9.64356 0.49182 -4.76877e-19)
(9.53628 0.576307 0)
(9.4151 0.667513 1.00343e-18)
(9.28006 0.766415 -1.53373e-18)
(9.13111 0.874045 -2.6401e-18)
(8.96797 0.99148 4.31899e-18)
(8.79039 1.11982 5.76119e-19)
(8.59806 1.26023 -6.28015e-18)
(8.3907 1.41401 9.37469e-18)
(8.16801 1.58247 -9.63989e-18)
(7.92957 1.76685 5.54556e-18)
(7.67484 1.96834 5.12661e-18)
(7.40335 2.18816 -9.8275e-18)
(7.11419 2.42745 4.68567e-18)
(6.80596 2.68711 0)
(6.47675 2.96769 1.14474e-17)
(6.12314 3.2689 -6.44452e-19)
(5.74112 3.59017 -1.05131e-17)
(5.32438 3.92975 -1.16705e-17)
(4.86328 4.2837 1.51075e-17)
(4.34682 4.64589 -2.62821e-17)
(3.75191 5.01267 5.25672e-17)
(3.1435 5.32485 -2.64377e-17)
(2.05714 5.76257 -4.82734e-19)
(9.98309 0.074627 5.26415e-19)
(9.96942 0.148537 -5.35817e-19)
(9.93847 0.222442 -1.02589e-21)
(9.88867 0.297706 4.43134e-19)
(9.82389 0.375886 -4.53068e-19)
(9.74633 0.458254 4.62622e-19)
(9.65632 0.545883 9.46968e-19)
(9.55349 0.639847 -4.75094e-19)
(9.43754 0.741172 9.99198e-19)
(9.30857 0.85089 -4.87564e-19)
(9.16652 0.970121 1.85154e-20)
(9.01122 1.10004 -1.58452e-18)
(8.84245 1.24185 -5.45883e-19)
(8.65996 1.39679 -5.55887e-19)
(8.46342 1.56625 -5.69838e-19)
(8.25282 1.75172 4.71989e-18)
(8.02779 1.95462 -5.99271e-18)
(7.7877 2.17637 0)
(7.53204 2.41846 0)
(7.26002 2.68245 -1.28642e-18)
(6.97036 2.96988 1.06524e-17)
(6.66141 3.28222 -1.08118e-17)
(6.32991 3.62031 -1.11301e-17)
(5.97179 3.98482 2.12477e-17)
(5.58182 4.37586 -1.16029e-17)
(5.15111 4.79126 -3.73305e-20)
(4.67074 5.22501 0)
(4.10672 5.67889 2.58331e-20)
(3.588 6.06091 2.43007e-17)
(2.4209 6.64164 -2.77011e-17)
(9.98302 0.0811612 -8.43003e-19)
(9.9701 0.16174 -2.13113e-19)
(9.94051 0.242691 -2.17178e-19)
(9.89271 0.325348 -8.81732e-19)
(9.83065 0.411199 4.48615e-19)
(9.75658 0.50158 0)
(9.6707 0.597677 0)
(9.57273 0.700638 4.78614e-19)
(9.46252 0.81154 -1.47272e-18)
(9.34016 0.931474 2.98582e-18)
(9.20562 1.06164 -2.04958e-18)
(9.05881 1.20332 2.07503e-18)
(8.8996 1.3578 4.82274e-18)
(8.72778 1.52641 -3.80056e-18)
(8.5431 1.71061 5.60969e-19)
(8.34568 1.91203 0)
(8.13512 2.13235 5.87036e-19)
(7.91099 2.37325 -4.79503e-18)
(7.67269 2.63651 3.6423e-18)
(7.41938 2.92407 1.12326e-17)
(7.15015 3.23814 -1.90082e-17)
(6.86363 3.58106 1.02848e-17)
(6.55695 3.95494 -9.20838e-18)
(6.22603 4.36162 9.3153e-18)
(5.8665 4.80284 -2.29547e-17)
(5.47037 5.27848 4.23494e-17)
(5.0317 5.78204 -2.35601e-17)
(4.50013 6.32246 2.08244e-18)
(4.07937 6.76929 0)
(2.82511 7.4912 2.42831e-17)
(9.98301 0.0875005 -8.3712e-19)
(9.97098 0.174479 0)
(9.94294 0.262119 4.3009e-19)
(9.89738 0.351787 9.9184e-23)
(9.8383 0.444918 2.35091e-22)
(9.76796 0.542895 0)
(9.68658 0.646997 4.62245e-19)
(9.5939 0.758431 -1.89611e-18)
(9.48988 0.878327 1.43914e-18)
(9.37461 1.00783 -4.93418e-19)
(9.24813 1.14823 2.0173e-18)
(9.11044 1.30086 -3.06841e-18)
(8.96156 1.46713 -4.7312e-18)
(8.80128 1.64845 4.78764e-18)
(8.62946 1.84636 4.37942e-18)
(8.4461 2.06261 -4.42749e-18)
(8.25097 2.29909 4.54964e-18)
(8.04411 2.55782 4.66704e-18)
(7.8249 2.84089 -1.87485e-17)
(7.59246 3.15064 8.31733e-18)
(7.34614 3.48984 -1.21852e-18)
(7.08466 3.86164 9.79939e-18)
(6.80595 4.26949 -1.97904e-17)
(6.50661 4.7167 1.1223e-17)
(6.18237 5.20633 0)
(5.82609 5.74079 -2.0024e-17)
(5.43566 6.31318 2.15402e-17)
(4.93874 6.9416 -1.28568e-18)
(4.61871 7.45654 0)
(3.27098 8.3261 0)
(9.98304 0.0935917 9.40405e-19)
(9.97203 0.186671 -1.15964e-18)
(9.94572 0.280635 6.40372e-19)
(9.90261 0.376917 0)
(9.84673 0.476917 8.85527e-19)
(9.78037 0.58204 9.0328e-19)
(9.7038 0.693641 -1.37561e-18)
(9.6168 0.81299 0)
(9.51937 0.94127 1.43608e-18)
(9.41166 1.07967 -1.93464e-18)
(9.29375 1.22952 -4.92667e-19)
(9.16577 1.39225 1.00735e-18)
(9.02784 1.56934 4.12097e-18)
(8.87978 1.76232 -5.20824e-18)
(8.72164 1.97284 -1.05764e-18)
(8.5533 2.20268 5.41458e-18)
(8.37486 2.45393 -5.46727e-18)
(8.18649 2.72884 0)
(7.98781 3.02991 9.06787e-18)
(7.77848 3.35999 -7.95404e-18)
(7.55778 3.72234 9.21822e-18)
(7.32446 4.12071 -1.85236e-17)
(7.07751 4.55987 8.12277e-18)
(6.81477 5.0449 0)
(6.53198 5.58026 0)
(6.22227 6.1713 -1.12731e-18)
(5.88832 6.81224 1.11125e-18)
(5.43268 7.53286 1.08764e-18)
(5.21446 8.13141 1.73657e-17)
(3.76932 9.17288 -1.86322e-17)
(9.98309 0.0993934 0)
(9.97323 0.198245 3.01353e-21)
(9.9488 0.298156 -2.12971e-18)
(9.90832 0.400646 4.32218e-19)
(9.85584 0.507079 -8.78837e-19)
(9.79371 0.618866 0)
(9.72224 0.73743 0)
(9.64123 0.864109 -4.60882e-19)
(9.55077 1.00012 4.71564e-19)
(9.45105 1.14669 -4.76733e-19)
(9.34219 1.30519 4.88274e-19)
(9.2244 1.47713 -9.89414e-19)
(9.09781 1.66404 5.00594e-19)
(8.96245 1.86753 -3.58693e-18)
(8.81866 2.08937 5.17549e-18)
(8.66637 2.33141 -2.10176e-18)
(8.50595 2.59587 -4.2538e-18)
(8.3374 2.88516 4.29085e-18)
(8.16064 3.20203 1.77523e-20)
(7.9762 3.54993 0)
(7.78367 3.93266 -8.76497e-18)
(7.58209 4.35453 1.75211e-17)
(7.37118 4.82119 -4.15667e-20)
(7.1503 5.33961 -2.69729e-17)
(6.91621 5.91625 1.71641e-17)
(6.66186 6.55965 1.06715e-18)
(6.39578 7.26836 -1.04459e-18)
(5.99713 8.08641 -1.01506e-18)
(5.88532 8.80094 4.64041e-19)
(4.34566 10.0751 0)
(9.98314 0.104869 -8.25501e-19)
(9.97459 0.209127 1.46236e-18)
(9.95217 0.314614 2.15127e-19)
(9.91442 0.422895 0)
(9.86552 0.535292 8.7206e-19)
(9.80786 0.653229 4.45544e-19)
(9.74174 0.7782 -4.45178e-19)
(9.66699 0.911597 9.22893e-19)
(9.58383 1.05466 -3.25187e-18)
(9.49244 1.20864 1.88459e-18)
(9.39292 1.37498 4.76915e-19)
(9.28567 1.5552 -1.46152e-18)
(9.17093 1.75088 -2.48368e-18)
(9.04889 1.96366 3.98327e-18)
(8.92001 2.19537 0)
(8.78444 2.44796 1.02816e-18)
(8.64289 2.72379 1.03829e-18)
(8.49551 3.02546 -7.28941e-18)
(8.34235 3.35577 9.38731e-18)
(8.1843 3.71839 0)
(8.02209 4.11784 -7.29988e-18)
(7.85555 4.55895 8.30491e-18)
(7.68494 5.04791 0)
(7.51115 5.59301 3.27219e-20)
(7.33346 6.20309 0)
(7.14596 6.89058 1.39731e-17)
(6.9642 7.6615 -1.4752e-17)
(6.65393 8.57581 1.2438e-17)
(6.67121 9.45423 -2.60893e-17)
(5.05989 11.1189 7.89132e-19)
(9.98328 0.109988 8.24531e-19)
(9.97603 0.21927 -4.18618e-19)
(9.95569 0.329956 2.10389e-18)
(9.92083 0.443594 0)
(9.87571 0.561456 -1.30003e-18)
(9.82272 0.685005 1.75466e-18)
(9.76213 0.81581 2.46088e-21)
(9.69387 0.955299 2.71481e-18)
(9.61823 1.10472 -2.28952e-18)
(9.53528 1.26536 -1.8605e-18)
(9.44532 1.43865 -1.30792e-20)
(9.34901 1.62614 3.81789e-18)
(9.24668 1.82946 -5.80045e-18)
(9.13855 2.05027 2.92552e-18)
(9.02505 2.2904 0)
(8.90677 2.55181 0)
(8.7845 2.83692 0)
(8.65902 3.14857 8.01297e-18)
(8.53087 3.48965 2.53381e-22)
(8.40078 3.86362 -8.01004e-18)
(8.27048 4.27534 6.91993e-18)
(8.14133 4.73023 -7.87473e-18)
(8.01464 5.23464 0)
(7.89273 5.79719 3.18802e-20)
(7.77865 6.42849 0)
(7.67087 7.14417 -5.83088e-18)
(7.59419 7.958 6.19289e-18)
(7.42419 8.94156 7.63713e-19)
(7.6402 10.0101 0)
(6.00381 12.5478 0)
(0.0503797 0.0888293 1.22034e-18)
(-0.495858 0.370537 -1.10125e-18)
(-1.26454 0.437447 0)
(-2.15856 0.453854 0)
(-3.13571 0.449174 -6.03366e-19)
(-4.16049 0.433576 5.44607e-19)
(-5.20226 0.411517 0)
(-6.23643 0.38522 2.5852e-19)
(-7.24431 0.35591 -2.41915e-19)
(-8.2114 0.324221 0)
(-9.1265 0.290435 1.33095e-20)
(-9.98091 0.254684 -5.34064e-20)
(-10.7669 0.21705 6.04548e-20)
(-11.4765 0.177548 0)
(-12.1014 0.136174 0)
(-12.6333 0.0928898 0)
(-13.0631 0.0475766 8.84721e-20)
(-13.3812 4.5069e-05 -8.70821e-20)
(-13.5765 -0.0501422 -9.14951e-23)
(-13.6361 -0.104666 9.77378e-20)
(-13.5481 -0.168646 0)
(-13.2926 -0.241133 0)
(-12.8496 -0.324817 0)
(-12.1977 -0.423098 0)
(-11.3113 -0.541008 0)
(-10.1504 -0.68713 2.62529e-21)
(-8.63621 -0.880474 -2.78136e-21)
(-6.63915 -1.16168 0)
(-4.00024 -1.56618 9.12438e-21)
(-0.0580408 -1.946 8.58452e-21)
(-0.225179 0.489815 0)
(-0.773079 0.821297 -3.87903e-18)
(-1.55032 0.964439 6.55312e-18)
(-2.44144 1.03786 -2.82467e-18)
(-3.4186 1.07153 0)
(-4.44683 1.07986 0)
(-5.49518 1.07039 0)
(-6.53841 1.04759 0)
(-7.55695 1.01407 0)
(-8.53566 0.971227 0)
(-9.46278 0.919719 -2.13865e-21)
(-10.3294 0.859899 0)
(-11.1274 0.79182 -1.53377e-20)
(-11.8487 0.715275 0)
(-12.4851 0.630079 2.71758e-19)
(-13.0281 0.535999 -2.66056e-19)
(-13.4689 0.432701 0)
(-13.7978 0.319838 0)
(-14.0049 0.196984 1.46591e-19)
(-14.0806 0.0628775 -2.42915e-19)
(-14.0102 -0.0855128 9.34659e-20)
(-13.7874 -0.247203 -4.69122e-20)
(-13.3995 -0.423128 -1.16578e-19)
(-12.8311 -0.616597 7.54481e-20)
(-12.066 -0.83299 -2.80402e-20)
(-11.0828 -1.08147 -1.92351e-20)
(-9.84211 -1.38419 0)
(-8.27609 -1.78811 3.78417e-21)
(-6.35939 -2.31488 -1.10369e-20)
(-4.58416 -2.76723 -7.50772e-21)
(-0.236818 1.05043 8.38566e-18)
(-0.797517 1.4342 -1.41895e-17)
(-1.58188 1.63216 6.03582e-18)
(-2.45241 1.74306 0)
(-3.39656 1.79507 0)
(-4.38516 1.80559 0)
(-5.39117 1.78512 0)
(-6.3919 1.7405 1.18106e-19)
(-7.36992 1.67589 0)
(-8.31166 1.59362 0)
(-9.20656 1.49509 -4.3467e-21)
(-10.0467 1.3812 -2.03406e-19)
(-10.8245 1.25232 1.26116e-19)
(-11.5324 1.10849 0)
(-12.1628 0.949903 1.30401e-19)
(-12.7074 0.776803 -3.2383e-19)
(-13.1574 0.589501 6.79545e-19)
(-13.5035 0.388422 -8.38816e-19)
(-13.7358 0.174317 3.85397e-19)
(-13.8443 -0.0516816 0)
(-13.8189 -0.288017 1.9438e-19)
(-13.6561 -0.543449 -2.37437e-19)
(-13.3455 -0.8197 1.27705e-19)
(-12.8785 -1.11914 -6.39652e-20)
(-12.2475 -1.446 4.3174e-20)
(-11.4449 -1.80643 2.33241e-20)
(-10.4575 -2.21244 0)
(-9.25687 -2.68553 2.82487e-21)
(-7.86979 -3.23206 -2.84536e-21)
(-6.76966 -3.75507 -1.13219e-20)
(-0.132339 1.66604 -1.53837e-17)
(-0.664374 2.08138 6.5237e-18)
(-1.44885 2.30489 -2.06634e-20)
(-2.28876 2.43366 0)
(-3.18672 2.49329 -1.13908e-19)
(-4.11926 2.50199 0)
(-5.06452 2.47185 0)
(-6.00407 2.41115 -1.14144e-19)
(-6.92406 2.32514 8.22692e-19)
(-7.81307 2.21692 -8.94405e-19)
(-8.6624 2.08843 8.93117e-20)
(-9.46512 1.94082 4.735e-19)
(-10.2138 1.77439 -3.90588e-19)
(-10.9012 1.58907 -1.11681e-19)
(-11.5196 1.38456 4.63749e-19)
(-12.0606 1.16046 -1.27358e-18)
(-12.5149 0.916273 8.67982e-19)
(-12.8732 0.651381 9.72466e-20)
(-13.1261 0.365581 0)
(-13.2646 0.0590691 -4.36123e-19)
(-13.2794 -0.268965 6.38016e-19)
(-13.1682 -0.615926 -1.01525e-19)
(-12.9285 -0.9846 -8.70848e-20)
(-12.5559 -1.37775 0)
(-12.0488 -1.79966 0)
(-11.4084 -2.25487 1.27235e-19)
(-10.6346 -2.74708 -3.63268e-20)
(-9.71947 -3.27825 0)
(-8.70724 -3.84351 0)
(-7.96748 -4.36959 6.05864e-21)
(0.0431404 2.30955 7.05154e-18)
(-0.426452 2.73431 5.46582e-18)
(-1.20158 2.96256 -1.93222e-17)
(-2.00038 3.09421 4.45489e-18)
(-2.84415 3.15317 3.47027e-18)
(-3.7128 3.15649 0)
(-4.58936 3.11583 1.97616e-18)
(-5.46013 3.03974 -1.77023e-18)
(-6.31442 2.93339 6.15883e-19)
(-7.14308 2.79972 -6.04968e-19)
(-7.93916 2.6406 -4.23215e-21)
(-8.69588 2.45667 0)
(-9.40637 2.24793 -9.24727e-20)
(-10.0635 2.01417 1.12748e-19)
(-10.6592 1.7549 -6.43877e-19)
(-11.1856 1.46995 -1.02134e-19)
(-11.6334 1.1595 5.46144e-19)
(-11.9932 0.824127 -2.20936e-19)
(-12.2568 0.465435 -2.35262e-19)
(-12.4164 0.0861937 0)
(-12.4646 -0.310775 6.96932e-19)
(-12.3993 -0.727642 -3.40048e-19)
(-12.2235 -1.1664 8.19773e-20)
(-11.9367 -1.62833 -1.80178e-19)
(-11.5426 -2.11667 1.22433e-19)
(-11.0474 -2.63369 -2.24749e-19)
(-10.4571 -3.17639 0)
(-9.77432 -3.73443 0)
(-9.04543 -4.29252 1.46331e-20)
(-8.53839 -4.77675 4.20737e-21)
(0.269121 2.96122 -1.25743e-19)
(-0.113331 3.37743 0)
(-0.871231 3.59799 -8.43359e-18)
(-1.61892 3.72232 1.47155e-17)
(-2.40192 3.77432 -1.18595e-17)
(-3.20094 3.76906 5.3026e-18)
(-4.00345 3.7172 1.24354e-18)
(-4.80016 3.62711 -1.52293e-18)
(-5.58282 3.50309 3.17142e-19)
(-6.34491 3.34798 -3.50188e-19)
(-7.08077 3.16337 0)
(-7.78378 2.94948 -1.46243e-19)
(-8.44843 2.7065 3.08013e-19)
(-9.06764 2.43396 0)
(-9.63322 2.1312 0)
(-10.1378 1.79796 -8.09509e-19)
(-10.5727 1.43412 1.70561e-18)
(-10.9283 1.0401 -1.88079e-18)
(-11.1966 0.617549 9.63723e-19)
(-11.3706 0.170017 2.53965e-19)
(-11.4446 -0.297637 -7.68385e-19)
(-11.4165 -0.782938 0)
(-11.2957 -1.28634 -1.04535e-19)
(-11.085 -1.8082 -1.73594e-19)
(-10.7921 -2.35102 1.68636e-19)
(-10.4258 -2.91539 5.64578e-20)
(-9.99434 -3.49374 0)
(-9.50451 -4.06747 0)
(-8.99707 -4.61014 -4.06504e-20)
(-8.65607 -5.04506 -8.47638e-21)
(0.530897 3.59679 -1.12138e-17)
(0.254143 3.99484 9.63406e-18)
(-0.478843 4.20123 0)
(-1.16579 4.31197 0)
(-1.88164 4.3527 4.93816e-18)
(-2.60545 4.33657 -4.71756e-18)
(-3.32922 4.27342 2.13467e-19)
(-4.04725 4.17049 -1.08396e-19)
(-4.75369 4.03086 3.26287e-20)
(-5.44441 3.85719 4.52025e-19)
(-6.11486 3.6503 -4.42806e-19)
(-6.75931 3.41003 1.4929e-19)
(-7.37296 3.13632 2.86125e-20)
(-7.94885 2.82815 0)
(-8.47923 2.48466 0)
(-8.95667 2.10552 8.93126e-19)
(-9.37277 1.69073 -8.96209e-19)
(-9.71839 1.24127 1.31811e-18)
(-9.98521 0.759915 -2.49711e-19)
(-10.1669 0.251881 7.23223e-21)
(-10.2598 -0.275588 2.9646e-19)
(-10.2613 -0.817277 0)
(-10.1867 -1.37203 2.47557e-19)
(-10.0417 -1.93897 0)
(-9.83779 -2.5202 -1.81287e-19)
(-9.58558 -3.11584 -8.40637e-20)
(-9.29321 -3.71641 4.86718e-20)
(-8.96721 -4.29808 7.05733e-20)
(-8.63893 -4.82362 2.65839e-20)
(-8.42627 -5.21411 8.3918e-21)
(0.822542 4.19609 -1.03621e-17)
(0.666187 4.57313 -8.02095e-18)
(-0.0386469 4.7629 6.7874e-19)
(-0.655994 4.85603 1.16382e-17)
(-1.29833 4.88287 -9.47497e-18)
(-1.94122 4.85469 3.93879e-18)
(-2.58161 4.78065 0)
(-3.21674 4.66607 1.10059e-19)
(-3.84329 4.51293 3.74736e-20)
(-4.45903 4.3234 0)
(-5.0605 4.09762 1.31333e-18)
(-5.64321 3.83509 -3.4723e-19)
(-6.20234 3.53504 3.6288e-20)
(-6.73151 3.19608 -1.21838e-18)
(-7.22362 2.81728 0)
(-7.67106 2.39808 -2.4174e-19)
(-8.06578 1.93858 -2.70292e-19)
(-8.39873 1.44011 -1.18243e-18)
(-8.66067 0.906135 2.45968e-18)
(-8.84486 0.343362 -1.60619e-18)
(-8.94959 -0.238265 -9.58008e-19)
(-8.97222 -0.829211 -2.80043e-19)
(-8.93364 -1.42571 2.93043e-19)
(-8.84239 -2.02549 2.19008e-19)
(-8.71387 -2.63111 -2.23536e-19)
(-8.56068 -3.24403 1.49469e-19)
(-8.38999 -3.85577 -1.10111e-19)
(-8.20531 -4.44048 -7.20312e-20)
(-8.02714 -4.9519 0)
(-7.92164 -5.30687 0)
(1.13932 4.7575 9.30096e-18)
(1.11473 5.1057 0)
(0.437098 5.2757 0)
(-0.101366 5.3477 4.90283e-18)
(-0.663451 5.35924 -8.29595e-18)
(-1.21942 5.31891 1.19743e-18)
(-1.77166 5.23462 2.68459e-18)
(-2.32007 5.10992 2.21054e-19)
(-2.86387 4.94585 -1.76622e-19)
(-3.40218 4.7437 1.01682e-18)
(-3.93247 4.50291 -2.62296e-18)
(-4.45116 4.22246 7.45219e-19)
(-4.95361 3.9008 1.42783e-18)
(-5.43421 3.53624 -4.00648e-19)
(-5.88652 3.12749 1.95446e-18)
(-6.30301 2.6736 -2.24694e-18)
(-6.67577 2.17466 2.85189e-19)
(-6.9956 1.63217 3.2868e-19)
(-7.25168 1.0502 0)
(-7.43544 0.43729 1.10518e-18)
(-7.54613 -0.192964 -7.37987e-19)
(-7.58185 -0.826038 3.28857e-19)
(-7.56924 -1.45518 0)
(-7.51936 -2.07619 -2.45808e-19)
(-7.45176 -2.6927 4.69765e-19)
(-7.38152 -3.30944 -1.46973e-19)
(-7.31529 -3.92171 1.51028e-19)
(-7.25292 -4.50518 9.54859e-20)
(-7.20409 -5.00765 4.64952e-20)
(-7.19543 -5.33728 -1.29159e-20)
(1.47245 5.28388 4.52265e-20)
(1.58676 5.58859 0)
(0.934981 5.73274 -1.6273e-19)
(0.487572 5.78027 3.99015e-18)
(0.0132 5.77574 -7.21472e-18)
(-0.449402 5.72397 5.33987e-18)
(-0.909002 5.63062 -2.74374e-18)
(-1.36758 5.498 4.36794e-19)
(-1.82654 5.32634 -6.56668e-20)
(-2.28574 5.11543 -1.41569e-19)
(-2.74329 4.86398 1.95539e-18)
(-3.19621 4.57025 -2.20144e-18)
(-3.64032 4.23205 -7.19306e-19)
(-4.07081 3.84738 2.31909e-18)
(-4.48211 3.41453 -1.9e-18)
(-4.8672 2.93176 5.69935e-19)
(-5.21834 2.39898 3.33764e-19)
(-5.52603 1.81763 -7.17161e-19)
(-5.77733 1.19195 -1.56847e-18)
(-5.96003 0.532242 8.0862e-19)
(-6.0732 -0.14315 0)
(-6.11599 -0.813051 0)
(-6.12177 -1.46746 6.46502e-19)
(-6.10267 -2.09946 -6.10661e-19)
(-6.08219 -2.7146 -4.8958e-19)
(-6.07813 -3.32237 3.70565e-19)
(-6.09794 -3.9242 -2.34551e-19)
(-6.13937 -4.50079 -1.45745e-19)
(-6.20251 -4.99891 -4.71746e-20)
(-6.28829 -5.31404 1.14692e-20)
(1.81097 5.77108 -5.96771e-20)
(2.06707 6.01393 0)
(1.44065 6.12519 1.63809e-19)
(1.10129 6.1459 0)
(0.722208 6.12506 0)
(0.359733 6.06343 -3.56e-20)
(-0.00339371 5.96359 1.31725e-19)
(-0.370028 5.82641 0)
(-0.742702 5.65138 -3.12571e-20)
(-1.1217 5.43595 1.49732e-19)
(-1.50529 5.17835 0)
(-1.89081 4.87621 1.82733e-18)
(-2.27456 4.52683 -1.07952e-18)
(-2.65251 4.12786 0)
(-3.02029 3.67742 0)
(-3.37193 3.17233 0)
(-3.70037 2.61204 1.15586e-18)
(-3.99634 1.99746 -1.56865e-18)
(-4.24437 1.33229 0)
(-4.42671 0.62785 9.32677e-19)
(-4.54155 -0.091309 -1.43452e-18)
(-4.58892 -0.794426 2.14799e-18)
(-4.61118 -1.46814 -7.80165e-19)
(-4.61742 -2.10267 -3.08705e-19)
(-4.634 -2.70629 3.05604e-19)
(-4.68089 -3.29398 2.402e-19)
(-4.76753 -3.87457 1.72217e-19)
(-4.8927 -4.43625 -6.51675e-21)
(-5.04877 -4.93118 7.12328e-20)
(-5.23204 -5.24269 0)
(2.13981 6.22056 -6.44096e-18)
(2.54194 6.36345 0)
(1.93848 6.4444 0)
(1.73122 6.43446 0)
(1.45331 6.399 0)
(1.19788 6.33081 4.48708e-19)
(0.934362 6.22919 -6.42075e-19)
(0.660728 6.09202 7.18151e-19)
(0.37493 5.91784 -5.46479e-19)
(0.0765986 5.70219 -2.18468e-19)
(-0.232459 5.44258 0)
(-0.549035 5.13698 -3.66134e-19)
(-0.869665 4.78195 0)
(-1.19108 4.37439 -2.39301e-18)
(-1.51035 3.91324 2.40917e-18)
(-1.82298 3.39245 0)
(-2.12304 2.81123 4.14764e-19)
(-2.40373 2.16898 4.45428e-19)
(-2.64776 1.4682 0)
(-2.82904 0.721102 5.36368e-19)
(-2.94769 -0.0393061 -4.92122e-21)
(-3.00164 -0.772493 9.66046e-19)
(-3.04626 -1.45952 -8.80316e-19)
(-3.08042 -2.08989 0)
(-3.13107 -2.67491 0)
(-3.21863 -3.23483 0)
(-3.3545 -3.78549 -1.8509e-19)
(-3.54233 -4.32293 1.29078e-19)
(-3.76645 -4.81004 3.49146e-21)
(-4.05172 -5.12749 0)
(2.41244 6.62062 0)
(2.99142 6.63264 4.59287e-18)
(2.41099 6.67839 -4.19448e-18)
(2.36222 6.63155 -1.97569e-19)
(2.19374 6.58699 -1.38391e-19)
(2.05129 6.51802 -3.641e-19)
(1.89009 6.42201 1.36458e-19)
(1.71047 6.29197 1.06302e-19)
(1.51198 6.12481 0)
(1.29523 5.91575 2.30156e-19)
(1.06259 5.66133 3.45782e-19)
(0.814169 5.35497 0)
(0.557938 4.99803 0)
(0.297487 4.58725 3.1664e-19)
(0.0330541 4.11936 0)
(-0.232429 3.59022 4.14765e-19)
(-0.492908 2.99614 8.58597e-21)
(-0.748583 2.3351 0)
(-0.981123 1.60728 0)
(-1.14907 0.819906 1.21825e-18)
(-1.28226 0.0193935 -3.23944e-18)
(-1.3484 -0.7404 -1.07937e-18)
(-1.42726 -1.43552 1.48894e-18)
(-1.50022 -2.05811 0)
(-1.59018 -2.6218 0)
(-1.71532 -3.15127 -2.77093e-19)
(-1.88787 -3.66851 0)
(-2.11922 -4.17511 -2.99686e-20)
(-2.38107 -4.64432 1.18689e-19)
(-2.76605 -4.97315 0)
(2.61371 6.95681 0)
(3.33776 6.81089 -2.7512e-19)
(2.87732 6.79281 -2.43716e-19)
(2.96977 6.71643 1.57891e-18)
(2.93572 6.67406 -3.29954e-19)
(2.90482 6.61532 -8.97694e-19)
(2.84494 6.53333 1.78464e-19)
(2.75748 6.4178 5.60815e-19)
(2.64419 6.26333 -5.63734e-19)
(2.50756 6.06523 -1.12827e-18)
(2.35102 5.81971 8.10635e-19)
(2.17634 5.52186 0)
(1.98833 5.16963 2.56362e-19)
(1.79146 4.76175 5.10083e-21)
(1.58748 4.29344 0)
(1.37917 3.76442 4.31534e-21)
(1.17061 3.16967 -2.41191e-18)
(0.959158 2.50655 4.24219e-18)
(0.756296 1.77543 -2.34631e-18)
(0.619609 0.984679 -6.69552e-19)
(0.489768 0.143997 0)
(0.370913 -0.664619 -1.25559e-18)
(0.244267 -1.37318 -4.92971e-19)
(0.116871 -1.99197 4.86129e-19)
(-0.0229049 -2.54025 3.85737e-19)
(-0.188951 -3.04324 3.05978e-19)
(-0.392831 -3.53059 0)
(-0.652338 -4.00622 3.34386e-20)
(-0.925721 -4.44727 -2.22841e-19)
(-1.3864 -4.78536 0)
(2.69848 7.3267 0)
(3.46369 6.88151 0)
(3.30332 6.75718 -1.51195e-18)
(3.54415 6.67402 1.30498e-18)
(3.66495 6.64938 3.56201e-19)
(3.74554 6.61661 -2.46958e-19)
(3.78417 6.56014 -3.95539e-20)
(3.78572 6.46805 0)
(3.75469 6.33327 -3.7679e-21)
(3.6956 6.15114 0)
(3.61304 5.91812 0)
(3.51017 5.63024 0)
(3.3907 5.28491 1.02813e-18)
(3.25872 4.88079 -1.59999e-18)
(3.11723 4.41472 0)
(2.9692 3.8854 -3.71826e-19)
(2.81786 3.28931 -4.20356e-19)
(2.66221 2.62315 2.39939e-18)
(2.50815 1.88688 -3.11267e-18)
(2.38454 1.0936 1.71941e-18)
(2.26571 0.260051 -6.24896e-19)
(2.11233 -0.546451 1.12898e-18)
(1.93957 -1.26292 9.63073e-19)
(1.75296 -1.8826 -8.61223e-19)
(1.55702 -2.42203 3.31083e-19)
(1.34529 -2.90992 -6.06184e-19)
(1.1104 -3.37304 0)
(0.836029 -3.82166 -3.61878e-19)
(0.559343 -4.2316 2.23766e-19)
(0.0808425 -4.56872 8.30028e-21)
(9.98357 0.114808 0)
(9.97748 0.228836 -7.98068e-19)
(9.95932 0.344394 -8.0794e-19)
(9.92769 0.463017 -8.17485e-19)
(9.88668 0.585957 1.65358e-18)
(9.83861 0.714713 -1.25824e-18)
(9.78378 0.850901 2.1319e-18)
(9.72234 0.995965 -2.15565e-18)
(9.65461 1.15118 1.75205e-18)
(9.58065 1.31781 -1.32317e-18)
(9.50095 1.49728 -3.87511e-21)
(9.41629 1.69114 0)
(9.327 1.90102 4.55552e-19)
(9.23349 2.12869 9.29533e-19)
(9.13651 2.37591 4.65487e-18)
(9.03675 2.64457 -3.74045e-18)
(8.93497 2.93698 0)
(8.83254 3.25607 -1.63337e-20)
(8.73099 3.6049 8.41665e-18)
(8.63113 3.98665 -1.4888e-17)
(8.53512 4.40587 7.38353e-18)
(8.44616 4.86818 6.73741e-18)
(8.3671 5.37959 -7.1021e-18)
(8.30217 5.94792 -6.26556e-18)
(8.2588 6.58357 6.59109e-18)
(8.24303 7.30148 0)
(8.29354 8.1165 3.6119e-19)
(8.34041 9.08536 0)
(9.09595 10.1447 1.61575e-18)
(9.52472 12.6133 -1.37096e-18)
(9.98389 0.119338 7.64372e-19)
(9.97901 0.237861 0)
(9.96321 0.357914 7.80476e-19)
(9.93501 0.481103 0)
(9.89829 0.608727 -1.60561e-18)
(9.85529 0.74227 1.62985e-18)
(9.80645 0.883327 -8.22834e-19)
(9.75213 1.03335 0)
(9.69268 1.19365 -4.20458e-19)
(9.62818 1.3655 4.25154e-19)
(9.5592 1.55027 -8.63033e-19)
(9.48652 1.74946 4.33526e-19)
(9.41053 1.96473 -4.4186e-19)
(9.33206 2.19782 4.39804e-19)
(9.25218 2.45046 -1.33757e-18)
(9.17159 2.72446 -3.57078e-18)
(9.09121 3.02195 3.5719e-18)
(9.01269 3.34563 -8.99015e-19)
(8.93825 3.69853 -4.56229e-19)
(8.86938 4.0836 6.98019e-18)
(8.80882 4.50477 -6.92775e-18)
(8.76085 4.96692 1.1941e-20)
(8.72982 5.47496 0)
(8.72215 6.03492 5.92228e-19)
(8.7484 6.654 0)
(8.82034 7.34076 0)
(8.98195 8.09925 -3.0647e-19)
(9.17643 8.94215 -1.01515e-18)
(9.77404 9.80081 7.05457e-20)
(10.2973 10.8348 6.17517e-19)
(9.98417 0.123494 -9.31357e-19)
(9.98075 0.246191 1.87877e-19)
(9.96747 0.370329 -7.61117e-19)
(9.94268 0.497646 7.66397e-19)
(9.91032 0.629514 1.72003e-21)
(9.87265 0.767371 7.87149e-19)
(9.83019 0.912743 -7.94271e-19)
(9.78334 1.06709 0)
(9.73242 1.23176 4.09126e-19)
(9.67759 1.40802 -3.63305e-21)
(9.6196 1.59718 2.08141e-18)
(9.55922 1.80069 -2.5112e-18)
(9.49698 2.02013 4.192e-19)
(9.43397 2.25716 2.96534e-18)
(9.37137 2.51344 -2.54951e-18)
(9.31022 2.79068 0)
(9.25166 3.09083 0)
(9.19762 3.41624 4.18441e-19)
(9.15046 3.76949 -3.75887e-18)
(9.11234 4.15316 -3.6611e-18)
(9.08707 4.57047 6.51242e-18)
(9.079 5.02478 7.88665e-19)
(9.09348 5.51935 0)
(9.13813 6.05753 -1.85207e-19)
(9.2233 6.64175 -2.6738e-18)
(9.35902 7.27241 5.07229e-18)
(9.57458 7.94195 -1.28127e-18)
(9.81974 8.62866 -1.07622e-18)
(10.2099 9.30482 4.33574e-19)
(10.72 10.0406 -1.1273e-18)
(9.98436 0.127216 -9.00517e-19)
(9.9826 0.253704 5.46228e-19)
(9.97194 0.381518 -3.68615e-19)
(9.95062 0.512489 -7.45001e-19)
(9.92279 0.64806 -7.53891e-19)
(9.89071 0.789636 -7.60161e-19)
(9.8549 0.938697 3.08534e-18)
(9.8157 1.09669 -1.55726e-18)
(9.77341 1.26495 3.91713e-19)
(9.72844 1.44473 -3.98737e-19)
(9.68171 1.63727 -3.97994e-19)
(9.63392 1.84394 -2.81801e-18)
(9.58572 2.06622 2.82873e-18)
(9.53842 2.30565 0)
(9.49327 2.56371 -4.09428e-19)
(9.45153 2.84197 -4.02609e-19)