/*--------------------------------*- C++ -*----------------------------------*\
| =========                 |                                                 |
| \\      /  F ield         | OpenFOAM: The Open Source CFD Toolbox           |
|  \\    /   O peration     | Version:  2006                                  |
|   \\  /    A nd           | Website:  www.openfoam.com                      |
|    \\/     M anipulation  |                                                 |
\*---------------------------------------------------------------------------*/
FoamFile
{
    version     2.0;
    format      ascii;
    class       surfaceScalarField;
    location    "0.1";
    object      meshPhi;
}
// * * * * * * * * * * * * * * * * * * * * * * * * * * * * * * * * * * * * * //

dimensions      [0 3 -1 0 0 0 0];
oriented        oriented;


internalField   nonuniform List<scalar> 
5457
(
4.86921e-09
4.33794e-12
1.42482e-08
1.82059e-11
3.64521e-08
5.39748e-11
8.8611e-08
1.50763e-10
2.06271e-07
4.04135e-10
4.6039e-07
1.04129e-09
9.85754e-07
2.5803e-09
2.02551e-06
6.15206e-09
3.99554e-06
1.41197e-08
7.56883e-06
3.12102e-08
1.37725e-05
6.64783e-08
2.40782e-05
1.36538e-07
4.04513e-05
2.70613e-07
6.53097e-05
5.18025e-07
0.000101333
9.58762e-07
0.000151072
1.71765e-06
0.000216335
2.98238e-06
0.000297374
5.02508e-06
0.000391974
8.2254e-06
0.000494633
1.30901e-05
0.000596081
2.02574e-05
0.000683493
3.04659e-05
0.000741743
4.44556e-05
0.000756034
6.27743e-05
0.000715926
8.5489e-05
0.000620198
0.000111875
0.000480972
0.000140204
0.000325207
0.000167603
0.000195133
0.000189567
0.000205918
4.11727e-09
7.76415e-12
1.21893e-08
3.27095e-11
3.15226e-08
9.74033e-11
7.74123e-08
2.73203e-10
1.82013e-07
7.3533e-10
4.10262e-07
1.90228e-09
8.86955e-07
4.73257e-09
1.83986e-06
1.13276e-08
3.66319e-06
2.60968e-08
7.00254e-06
5.78941e-08
1.28555e-05
1.23737e-07
2.26702e-05
2.5494e-07
3.84087e-05
5.06699e-07
6.25255e-05
9.72286e-07
9.78022e-05
1.80299e-06
0.000146983
3.23471e-06
0.00021218
5.62159e-06
0.00029408
9.47601e-06
0.000391026
1.55119e-05
0.000498183
2.46827e-05
0.000607005
3.81956e-05
0.000705348
5.74642e-05
0.000778552
8.39428e-05
0.000811811
0.000118773
0.000793944
0.000162211
0.00072221
0.000212905
0.000606959
0.000267266
0.000474097
0.000319227
0.000365215
0.00036073
0.000379549
3.50721e-09
1.05263e-11
1.05072e-08
4.44725e-11
2.74676e-08
1.3283e-10
6.81481e-08
3.73554e-10
1.61843e-07
1.00799e-09
3.68397e-07
2.61419e-09
8.04153e-07
6.51967e-09
1.68392e-06
1.56422e-08
3.38389e-06
3.61177e-08
6.52764e-06
8.02904e-08
1.2091e-05
1.71916e-07
2.15104e-05
3.54731e-07
3.67621e-05
7.05784e-07
6.03662e-05
1.35505e-06
9.52533e-05
2.51269e-06
0.000144439
4.50483e-06
0.00021047
7.81807e-06
0.000294667
1.31516e-05
0.000396244
2.14733e-05
0.000511479
3.40711e-05
0.000633164
5.25801e-05
0.000750612
7.89441e-05
0.000850487
0.000115244
0.000918679
0.000163294
0.000943331
0.000223909
0.000918875
0.000295776
0.00085052
0.000373981
0.000758065
0.000448383
0.000678494
0.000503535
0.000543885
3.1592e-09
1.3018e-11
9.52865e-09
5.5053e-11
2.50738e-08
1.64529e-10
6.26159e-08
4.62825e-10
1.49674e-07
1.24913e-09
3.42919e-07
3.24021e-09
7.53412e-07
8.08229e-09
1.58795e-06
1.93933e-08
3.21185e-06
4.47789e-08
6.23639e-06
9.95273e-08
1.1628e-05
2.13017e-07
2.08254e-05
4.39204e-07
3.58357e-05
8.72807e-07
5.92629e-05
1.67278e-06
9.42099e-05
3.0943e-06
0.000143998
5.52972e-06
0.000211665
9.55761e-06
0.000299271
1.5998e-05
0.00040707
2.59698e-05
0.000532739
4.09423e-05
0.000670849
6.27667e-05
0.000812822
9.36564e-05
0.000947548
0.000136061
0.00106272
0.000192351
0.00114682
0.000264183
0.0011914
0.000351379
0.0011936
0.000449916
0.00115926
0.000548391
0.00111087
0.000624035
0.000628569
2.85236e-09
1.53368e-11
8.65481e-09
6.48375e-11
2.29213e-08
1.93574e-10
5.76132e-08
5.43811e-10
1.38614e-07
1.46571e-09
3.19652e-07
3.79684e-09
7.06879e-07
9.45763e-09
1.49962e-06
2.26608e-08
3.05314e-06
5.22428e-08
5.96748e-06
1.15919e-07
1.12011e-05
2.47614e-07
2.01977e-05
5.0936e-07
3.49989e-05
1.00941e-06
5.82998e-05
1.92803e-06
9.3388e-05
3.55166e-06
0.000143912
6.3148e-06
0.000213438
1.08474e-05
0.000304817
1.80234e-05
0.000419427
2.90055e-05
0.00055646
4.52781e-05
0.000712443
6.86591e-05
0.000881209
0.000101272
0.00105442
0.000145453
0.00122264
0.000203558
0.00137648
0.000277633
0.00150723
0.000368888
0.00160609
0.000476697
0.00166261
0.000595941
0.00167186
0.000709166
0.000811226
2.58181e-09
1.75622e-11
7.87669e-09
7.41524e-11
2.09899e-08
2.2091e-10
5.30933e-08
6.19104e-10
1.28553e-07
1.66454e-09
2.98341e-07
4.30128e-09
6.63971e-07
1.06876e-08
1.41763e-06
2.55429e-08
2.9048e-06
5.87324e-08
5.7144e-06
1.29955e-07
1.07966e-05
2.76754e-07
1.95984e-05
5.67381e-07
3.41934e-05
1.12005e-06
5.73621e-05
2.12974e-06
9.25691e-05
3.90236e-06
0.000143777
6.89431e-06
0.000215061
1.17528e-05
0.000310028
1.93504e-05
0.00043112
3.08044e-05
0.000578949
4.74731e-05
0.000751852
7.09165e-05
0.000945899
0.000102809
0.00115545
0.000144784
0.00137426
0.000198217
0.00159658
0.000263977
0.00181736
0.000342285
0.00202974
0.000432763
0.00221871
0.000533932
0.00235495
0.000637127
0.000767006
2.34341e-09
1.97561e-11
7.18492e-09
8.32595e-11
1.9258e-08
2.47321e-10
4.90052e-08
6.90918e-10
1.19373e-07
1.85168e-09
2.78718e-07
4.76954e-09
6.24078e-07
1.1813e-08
1.3406e-06
2.81406e-08
2.76383e-06
6.44893e-08
5.47072e-06
1.42196e-07
1.04008e-05
3.01704e-07
1.89997e-05
6.16043e-07
3.33636e-05
1.21068e-06
5.63429e-05
2.29034e-06
9.15525e-05
4.17184e-06
0.000143228
7.31913e-06
0.000215885
1.23737e-05
0.000313783
2.01703e-05
0.000440262
3.17262e-05
0.000597078
4.81892e-05
0.00078396
7.07314e-05
0.000998571
0.000100363
0.00123708
0.000137635
0.00149535
0.000182212
0.00177041
0.000232308
0.00206117
0.000284188
0.00236605
0.000332029
0.00267407
0.000368442
0.0029434
0.000385832
0.000368847
2.13365e-09
2.19663e-11
6.57066e-09
9.23615e-11
1.77047e-08
2.7342e-10
4.53003e-08
7.61026e-10
1.10962e-07
2.03208e-09
2.60532e-07
5.21509e-09
5.86639e-07
1.28693e-08
1.2673e-06
3.05444e-08
2.62757e-06
6.97368e-08
5.23077e-06
1.53176e-07
1.0002e-05
3.23698e-07
1.83779e-05
6.58127e-07
3.2463e-05
1.28735e-06
5.51534e-05
2.4227e-06
9.0175e-05
4.38669e-06
0.000141974
7.64277e-06
0.00021541
1.28151e-05
0.000315251
2.06852e-05
0.000445504
3.21514e-05
0.000608725
4.81334e-05
0.000805482
6.94043e-05
0.00103417
9.63209e-05
0.00129138
0.000128407
0.00157292
0.000163733
0.00187524
0.00019807
0.0021962
0.000224035
0.00253235
0.000230983
0.00286776
0.000207374
0.00315012
0.000149958
5.09968e-05
1.94967e-09
2.42306e-11
6.02644e-09
1.01616e-10
1.63124e-08
2.99677e-10
4.19387e-08
8.30774e-10
1.03232e-07
2.20951e-09
2.43584e-07
5.64819e-09
5.51227e-07
1.38839e-08
1.19681e-06
3.28245e-08
2.49406e-06
7.46508e-08
4.99043e-06
1.63323e-07
9.59175e-06
3.43739e-07
1.77161e-05
6.95909e-07
3.14587e-05
1.35508e-06
5.37322e-05
2.5375e-06
8.83259e-05
4.56896e-06
0.000139824
7.90942e-06
0.000213326
1.31629e-05
0.000313946
2.1058e-05
0.000446139
3.23822e-05
0.000612935
4.78552e-05
0.000815259
6.79242e-05
0.00105151
9.24619e-05
0.00131759
0.000120333
0.00160738
0.000148794
0.00191368
0.000172744
0.00222832
0.000184187
0.00253902
0.000173037
0.002818
0.000131818
0.00300855
6.71352e-05
-4.27084e-06
1.78936e-09
2.65811e-11
5.54678e-09
1.11152e-10
1.50688e-08
3.26454e-10
3.88935e-08
9.01129e-10
9.61248e-08
2.38654e-09
2.27758e-07
6.07559e-09
5.17598e-07
1.4874e-08
1.12864e-06
3.50253e-08
2.36226e-06
7.93415e-08
4.74761e-06
1.72902e-07
9.16577e-06
3.62455e-07
1.70056e-05
7.30817e-07
3.03344e-05
1.41702e-06
5.20491e-05
2.64145e-06
8.5953e-05
4.73244e-06
0.000136695
8.14647e-06
0.000209506
1.34698e-05
0.000309712
2.13857e-05
0.000442028
3.2591e-05
0.000609727
4.76495e-05
0.000813811
6.67758e-05
0.00105235
8.95464e-05
0.00132015
0.000114538
0.00160876
0.000138909
0.0019068
0.000158034
0.00219992
0.0001656
0.00246838
0.000155296
0.00267953
0.000126069
0.00278615
9.02893e-05
7.38975e-05
1.65139e-09
2.90519e-11
5.12842e-09
1.21096e-10
1.39673e-08
3.54072e-10
3.61523e-08
9.72859e-10
8.96207e-08
2.56494e-09
2.13023e-07
6.50135e-09
4.85716e-07
1.58491e-08
1.06275e-06
3.71677e-08
2.23217e-06
8.3856e-08
4.5023e-06
1.82019e-07
8.7241e-06
3.8008e-07
1.62465e-05
7.63368e-07
2.90898e-05
1.47427e-06
5.01036e-05
2.73687e-06
8.30564e-05
4.88184e-06
0.000132591
8.36308e-06
0.000203978
1.37526e-05
0.000302637
2.16977e-05
0.000433412
3.28242e-05
0.000599692
4.75794e-05
0.000802475
6.60168e-05
0.00103954
8.75397e-05
0.00130486
0.000110633
0.00158841
0.000132642
0.00187627
0.000149737
0.00215093
0.000157463
0.00239056
0.000152671
0.0025661
0.000137751
0.00264474
0.000124509
0.000126965
1.53525e-09
3.16864e-11
4.7704e-09
1.31611e-10
1.30071e-08
3.82921e-10
3.37185e-08
1.04682e-09
8.37373e-08
2.74647e-09
1.99441e-07
6.92877e-09
4.55754e-07
1.68145e-08
9.99567e-07
3.92594e-08
2.10478e-06
8.82013e-08
4.25666e-06
1.90668e-07
8.27098e-06
3.96562e-07
1.54469e-05
7.93382e-07
2.77395e-05
1.52635e-06
4.79216e-05
2.82259e-06
7.96811e-05
5.01462e-06
0.000127591
8.55402e-06
0.00019688
1.4001e-05
0.000292965
2.19736e-05
0.000420732
3.30418e-05
0.000583634
4.75637e-05
0.000782702
6.54764e-05
0.00101564
8.60718e-05
0.00127615
0.000107803
0.00155369
0.000128184
0.00183371
0.000143892
0.00209836
0.000151382
0.002327
0.000148542
0.00249567
0.000137814
0.00258016
0.000128246
0.000131969
1.44118e-09
3.45486e-11
4.47411e-09
1.42933e-10
1.2194e-08
4.13582e-10
3.16107e-08
1.12431e-09
7.85304e-08
2.93377e-09
1.87163e-07
7.36275e-09
4.28093e-07
1.77783e-08
9.39998e-07
4.13102e-08
1.98208e-06
9.238e-08
4.01483e-06
1.98816e-07
7.81468e-06
4.11745e-07
1.46223e-05
8.20377e-07
2.6312e-05
1.57201e-06
4.55525e-05
2.89566e-06
7.59107e-05
5.12436e-06
0.000121832
8.70623e-06
0.000188431
1.41899e-05
0.000281044
2.21677e-05
0.000404532
3.31631e-05
0.000562389
4.74641e-05
0.000755753
6.49212e-05
0.000982489
8.47526e-05
0.00123653
0.000105403
0.00150767
0.0001245
0.0017819
0.000138942
0.00204228
0.000145295
0.00226974
0.000140936
0.00244255
0.000126673
0.00253786
0.000109724
9.45313e-05
1.37022e-09
3.77305e-11
4.24316e-09
1.55408e-10
1.15393e-08
4.46925e-10
2.9862e-08
1.20732e-09
7.40908e-08
3.13121e-09
1.76422e-07
7.81216e-09
4.03303e-07
1.87569e-08
8.85354e-07
4.3347e-08
1.86695e-06
9.64276e-08
3.78277e-06
2.06484e-07
7.36702e-06
4.25567e-07
1.37952e-05
8.44003e-07
2.48475e-05
1.61012e-06
4.30662e-05
2.95319e-06
7.18609e-05
5.20441e-06
0.000115499
8.80576e-06
0.000178915
1.42921e-05
0.000267295
2.22303e-05
0.000385413
3.31031e-05
0.000536777
4.71428e-05
0.000722681
6.41398e-05
0.000941327
8.32751e-05
0.00118721
0.000103027
0.00145095
0.000121162
0.00171965
0.000134777
0.00197767
0.000140391
0.00220681
0.000134539
0.00238465
0.000116133
0.00248447
9.1397e-05
7.45464e-05
1.32396e-09
4.13944e-11
4.08271e-09
1.69659e-10
1.10578e-08
4.84561e-10
2.85135e-08
1.29973e-09
7.05255e-08
3.34759e-09
1.67488e-07
8.29598e-09
3.82021e-07
1.97891e-08
8.37078e-07
4.54443e-08
1.7625e-06
1.00477e-07
3.56694e-06
2.13888e-07
6.94065e-06
4.38325e-07
1.29893e-05
8.64559e-07
2.33887e-05
1.64069e-06
4.05356e-05
2.99412e-06
6.76513e-05
5.25099e-06
0.000108779
8.84292e-06
0.000168612
1.42866e-05
0.000252114
2.21207e-05
0.000363901
3.27894e-05
0.000507446
4.64808e-05
0.000684195
6.29497e-05
0.000892748
8.13799e-05
0.00112831
0.000100339
0.00138255
0.000117823
0.00164398
0.000131301
0.00189846
0.000137652
0.00212896
0.000133354
0.00231317
0.000116437
0.00241968
9.259e-05
6.25156e-05
0.000105079
-4.98897e-05
0.00027341
-5.13588e-05
0.000478329
-5.15683e-05
0.000653973
-4.79148e-05
0.000764506
-4.05691e-05
0.000803708
-3.13005e-05
0.000780961
-2.23089e-05
0.000712104
-1.48649e-05
0.000614524
-9.31992e-06
0.00050438
-5.50142e-06
0.000394903
-3.03916e-06
0.0002955
-1.54773e-06
0.000211595
-7.03245e-07
0.000145116
-2.62479e-07
9.53778e-05
-5.66768e-08
6.01018e-05
2.33088e-08
3.63206e-05
4.30213e-08
2.10529e-05
3.85145e-08
1.17056e-05
2.74808e-08
6.24293e-06
1.72233e-08
3.19354e-06
9.83275e-09
1.56672e-06
5.20394e-09
7.37025e-07
2.57845e-09
3.32399e-07
1.20334e-09
1.43688e-07
5.31091e-10
5.95111e-08
2.22282e-10
2.3579e-08
8.83665e-11
8.84293e-09
3.32922e-11
2.86013e-09
1.1538e-11
2.7316e-12
0.000261582
-9.82462e-05
0.000425145
-0.000101092
0.000612877
-9.65882e-05
0.000763072
-8.67363e-05
0.000846157
-7.14907e-05
0.000860527
-5.40393e-05
0.000817696
-3.78917e-05
0.000733868
-2.48802e-05
0.000625888
-1.53563e-05
0.000509036
-8.88408e-06
0.000395622
-4.76336e-06
0.000294217
-2.30635e-06
0.000209555
-9.47366e-07
0.000143036
-2.65716e-07
9.36062e-05
2.87138e-08
5.87501e-05
1.22155e-07
3.53705e-05
1.24994e-07
2.0429e-05
9.65009e-08
1.13197e-05
6.43959e-08
6.01709e-06
3.88757e-08
3.06807e-06
2.16798e-08
1.50042e-06
1.12951e-08
7.03647e-07
5.53531e-09
3.16379e-07
2.5629e-09
1.36354e-07
1.12458e-09
5.63073e-08
4.68665e-10
2.2248e-08
1.85734e-10
8.32851e-09
6.98372e-11
2.70033e-09
2.42069e-11
5.74677e-12
0.000576765
-0.000153062
0.000719598
-0.000134716
0.000868179
-0.000126099
0.000968004
-0.000108113
0.000999738
-8.48569e-05
0.000969009
-6.1552e-05
0.000890304
-4.16442e-05
0.000779908
-2.63877e-05
0.000653372
-1.56097e-05
0.00052426
-8.50357e-06
0.000403216
-4.12511e-06
0.000297388
-1.62784e-06
0.000210395
-3.42409e-07
0.000142813
2.18783e-07
9.30226e-05
3.86599e-07
5.81497e-05
3.6907e-07
3.48869e-05
2.85206e-07
2.00877e-05
1.94678e-07
1.11001e-05
1.21373e-07
5.8858e-06
7.02548e-08
2.9944e-06
3.81041e-08
1.46138e-06
1.94753e-08
6.84041e-07
9.41587e-09
3.07021e-07
4.31778e-09
1.32102e-07
1.88165e-09
5.44675e-08
7.80425e-10
2.14919e-08
3.08308e-10
8.04e-09
1.1573e-10
2.61168e-09
4.01334e-11
9.55347e-12
0.00102577
-0.00013597
0.00113429
-0.000162052
0.00121919
-0.000139225
0.00124365
-0.000107185
0.00120395
-7.5922e-05
0.00111329
-5.0264e-05
0.00098808
-3.10679e-05
0.00084358
-1.76611e-05
0.00069318
-8.88384e-06
0.000548083
-3.53452e-06
0.000416794
-5.64442e-07
0.000304707
8.57898e-07
0.000214085
1.34878e-06
0.000144523
1.33803e-06
9.37265e-05
1.1051e-06
5.83857e-05
8.1513e-07
3.49313e-05
5.5229e-07
2.0069e-05
3.4857e-07
1.10706e-05
2.06556e-07
5.86238e-06
1.15492e-07
2.9795e-06
6.1132e-08
1.45307e-06
3.0705e-08
6.79824e-07
1.46601e-08
3.05044e-07
6.66249e-09
1.31239e-07
2.88527e-09
5.41147e-08
1.19168e-09
2.13573e-08
4.69601e-10
7.99319e-09
1.761e-10
2.59829e-09
6.11204e-11
1.45836e-11
0.00160926
-0.000264557
0.00164671
-0.00019302
0.00163099
-0.000130932
0.00155477
-7.91719e-05
0.0014295
-4.31442e-05
0.00127137
-2.03955e-05
0.00109531
-6.82592e-06
0.00091388
7.57415e-07
0.000737593
4.51814e-06
0.000575018
5.9089e-06
0.000432401
5.91307e-06
0.000313296
5.19167e-06
0.000218539
4.17704e-06
0.000146672
3.13629e-06
9.4673e-05
2.21699e-06
5.87506e-05
1.48225e-06
3.50415e-05
9.39838e-07
2.00827e-05
5.66115e-07
1.10565e-05
3.24343e-07
5.846e-06
1.76915e-07
2.96776e-06
9.19442e-08
1.44613e-06
4.55597e-08
6.76199e-07
2.15377e-08
3.03319e-07
9.71903e-09
1.3048e-07
4.18864e-09
5.38052e-08
1.72482e-09
2.124e-08
6.78698e-10
7.95254e-09
2.54488e-10
2.58648e-09
8.8454e-11
2.11564e-11
0.00230931
-0.00022852
0.00220357
-0.00012192
0.00204676
-5.70249e-05
0.00185581
-1.1923e-05
0.0016437
1.32423e-05
0.00142101
2.45596e-05
0.00119735
2.76755e-05
0.000981379
2.63973e-05
0.000780667
2.30297e-05
0.000601398
1.89157e-05
0.000447825
1.48135e-05
0.000321854
1.1123e-05
0.000223011
8.02425e-06
0.000148848
5.56279e-06
9.56405e-05
3.70326e-06
5.91293e-05
2.36506e-06
3.516e-05
1.44758e-06
2.01011e-05
8.48461e-07
1.10451e-05
4.75941e-07
5.83112e-06
2.55411e-07
2.95685e-06
1.311e-07
1.43966e-06
6.43594e-08
6.72828e-07
3.02194e-08
3.01729e-07
1.3573e-08
1.29792e-07
5.83256e-09
5.35303e-08
2.39837e-09
2.11388e-08
9.43631e-10
7.91866e-09
3.54215e-10
2.57689e-09
1.23401e-10
2.95966e-11
0.00289557
0.000107915
0.0026527
8.63214e-05
0.00237566
8.6586e-05
0.0020941
8.69982e-05
0.00181534
8.40011e-05
0.001543
7.68922e-05
0.00128203
6.68512e-05
0.00103827
5.55238e-05
0.000817404
4.42889e-05
0.00062406
3.40575e-05
0.000461105
2.53064e-05
0.000329196
1.81869e-05
0.000226805
1.264e-05
0.000150655
8.48785e-06
9.64116e-05
5.4996e-06
5.94069e-05
3.43321e-06
3.52283e-05
2.062e-06
2.00957e-05
1.19002e-06
1.1023e-05
6.59271e-07
5.81179e-06
3.50337e-07
2.94426e-06
1.78477e-07
1.43265e-06
8.71354e-08
6.69339e-07
4.07595e-08
3.00148e-07
1.82661e-08
1.29136e-07
7.84229e-09
5.3281e-08
3.22582e-09
2.10527e-08
1.27098e-09
7.89221e-09
4.78252e-10
2.57011e-09
1.67175e-10
4.02268e-11
0.00308581
0.00034974
0.00283807
0.000268981
0.00254061
0.000216006
0.00223156
0.000177046
0.0019243
0.000148854
0.0016256
0.000125551
0.00134186
0.000104147
0.00107955
8.40552e-05
0.000844406
6.57214e-05
0.000640733
4.97275e-05
0.00047076
3.64116e-05
0.000334388
2.58027e-05
0.000229354
1.76909e-05
0.000151759
1.17268e-05
9.67991e-05
7.50747e-06
5.94821e-05
4.63617e-06
3.5194e-05
2.75828e-06
2.00407e-05
1.5792e-06
1.0978e-05
8.69216e-07
5.78257e-06
4.59583e-07
2.92771e-06
2.33281e-07
1.42421e-06
1.13626e-07
6.65408e-07
5.30922e-08
2.98472e-07
2.37932e-08
1.28484e-07
1.02262e-08
5.30528e-08
4.21506e-09
2.09829e-08
1.66569e-09
7.87477e-09
6.29178e-10
2.56699e-09
2.20926e-10
5.33702e-11
0.00292598
0.000361551
0.00278044
0.000316682
0.0025495
0.000268805
0.0022702
0.000226195
0.00197006
0.000191562
0.0016672
0.000161806
0.00137487
0.000134403
0.00110328
0.000108687
0.000860032
8.51314e-05
0.000650142
6.44674e-05
0.000475869
4.71813e-05
0.000336804
3.33738e-05
0.000230256
2.28151e-05
0.000151917
1.50683e-05
9.66619e-05
9.6083e-06
5.92773e-05
5.91014e-06
3.50166e-05
3.50359e-06
1.99157e-05
1.99986e-06
1.09007e-05
1.09823e-06
5.73927e-06
5.79824e-07
2.90547e-06
2.94142e-07
1.41368e-06
1.43313e-07
6.60822e-07
6.70426e-08
2.96647e-07
3.01068e-08
1.27832e-07
1.29773e-08
5.28516e-08
5.3689e-09
2.09349e-08
2.13125e-09
7.86964e-09
8.09262e-10
2.56897e-09
2.85784e-10
6.93577e-11
0.00269264
0.000278242
0.00263575
0.000279787
0.00247905
0.000262337
0.00224557
0.000237697
0.00196851
0.000211065
0.00167454
0.00018368
0.00138358
0.000155656
0.0011101
0.000127711
0.000864143
0.000101132
0.0006519
7.72171e-05
0.000476037
5.68513e-05
0.000336128
4.03789e-05
0.000229287
2.76751e-05
0.000150985
1.83045e-05
9.59128e-05
1.168e-05
5.87436e-05
7.18674e-06
3.46701e-05
4.2614e-06
1.97082e-05
2.43341e-06
1.07853e-05
1.33735e-06
5.67948e-06
7.06964e-07
2.87665e-06
3.59303e-07
1.40082e-06
1.75499e-07
6.55549e-07
8.23601e-08
2.94699e-07
3.7129e-08
1.27209e-07
1.60777e-08
5.26982e-08
6.68695e-09
2.09206e-08
2.67046e-09
7.88272e-09
1.02076e-09
2.57839e-09
3.62965e-10
8.85603e-11
0.0025526
0.000222396
0.00252021
0.000237548
0.00239854
0.000240298
0.00219553
0.000232187
0.00193929
0.000216174
0.00165746
0.000194497
0.00137272
0.000168799
0.00110215
0.000140989
0.000857604
0.00011321
0.000646285
8.73979e-05
0.000471298
6.4915e-05
0.000332312
4.64283e-05
0.000226389
3.19968e-05
0.000148914
2.12557e-05
9.45213e-05
1.36119e-05
5.78635e-05
8.40141e-06
3.4146e-05
4.99603e-06
1.94144e-05
2.86119e-06
1.06305e-05
1.57732e-06
5.60305e-06
8.36675e-07
2.84149e-06
4.26871e-07
1.38588e-06
2.09415e-07
6.49797e-07
9.87631e-08
2.92763e-07
4.4771e-08
1.26695e-07
1.95068e-08
5.26346e-08
8.16865e-09
2.09608e-08
3.2866e-09
7.92357e-09
1.26638e-09
2.59885e-09
4.53957e-10
1.11434e-10
0.00249684
0.000206603
0.00245204
0.000221246
0.00233251
0.000226192
0.00214003
0.000224641
0.00189577
0.00021537
0.00162403
0.000198629
0.00134687
0.000175843
0.00108192
0.000149257
0.000841729
0.000121462
0.00063397
9.48309e-05
0.000461987
7.11129e-05
0.000325522
5.12776e-05
0.000221643
3.55869e-05
0.000145748
2.3785e-05
9.25109e-05
1.53145e-05
5.66511e-05
9.49977e-06
3.3453e-05
5.6764e-06
1.90401e-05
3.26645e-06
1.04401e-05
1.80965e-06
5.51242e-06
9.64927e-07
2.80147e-06
4.95062e-07
1.36976e-06
2.44338e-07
6.44063e-07
1.15989e-07
2.91109e-07
5.29539e-08
1.26428e-07
2.32498e-08
5.27297e-08
9.81693e-09
2.10879e-08
3.98498e-09
8.00647e-09
1.54991e-09
2.63565e-09
5.60751e-10
1.38583e-10
0.00246265
0.000224877
0.00240374
0.000214136
0.0022755
0.000216988
0.00208248
0.000217673
0.00184319
0.000212103
0.00157874
0.000198756
0.00130927
0.000178471
0.00105156
0.000153408
0.00081787
0.000126258
0.000615795
9.95883e-05
0.000448623
7.53765e-05
0.000316074
5.48124e-05
0.000215243
3.83342e-05
0.000141604
2.58041e-05
8.99533e-05
1.67259e-05
5.51496e-05
1.04419e-05
3.26173e-05
6.27878e-06
1.86007e-05
3.63606e-06
1.02232e-05
2.02755e-06
5.41273e-06
1.08846e-06
2.75948e-06
5.62441e-07
1.35402e-06
2.797e-07
6.3918e-07
1.33848e-07
2.90163e-07
6.16325e-08
1.26619e-07
2.73079e-08
5.30846e-08
1.16426e-08
2.13485e-08
4.77472e-09
8.15166e-09
1.87697e-09
2.69623e-09
6.86153e-10
1.70843e-10
0.00242172
0.000179945
0.00235493
0.000195509
0.00221693
0.000204483
0.00201946
0.000209385
0.00178179
0.000206889
0.00152319
0.000196006
0.00126171
0.000177715
0.00101261
0.000154167
0.000787244
0.000128025
0.00059265
0.000101873
0.000431829
7.77698e-05
0.000304394
5.70245e-05
0.000207469
4.02029e-05
0.000136664
2.72736e-05
8.6962e-05
1.78134e-05
5.3429e-05
1.1205e-05
3.16806e-05
6.78872e-06
1.81208e-05
3.96169e-06
9.99375e-06
2.22667e-06
5.31188e-06
1.20522e-06
2.71982e-06
6.28138e-07
1.34096e-06
3.15197e-07
6.36343e-07
1.52271e-07
2.90529e-07
7.0819e-08
1.27565e-07
3.17095e-08
5.3839e-08
1.36692e-08
2.18062e-08
5.67096e-09
8.38671e-09
2.25594e-09
2.79076e-09
8.34159e-10
2.09385e-10
0.00237824
0.00016739
0.00229808
0.00018173
0.00214777
0.000194286
0.00194506
0.000201425
0.0017089
0.00020047
0.00145677
0.000191013
0.0012046
0.000174181
0.00096588
0.000152052
0.00075068
0.000127147
0.000565251
0.000101937
0.000412165
7.84371e-05
0.000290889
5.79856e-05
0.000198607
4.12218e-05
0.000131116
2.82007e-05
8.36592e-05
1.8576e-05
5.15656e-05
1.17856e-05
3.06897e-05
7.20349e-06
1.76283e-05
4.24179e-06
9.76812e-06
2.40638e-06
5.21911e-06
1.31512e-06
2.68765e-06
6.92337e-07
1.33337e-06
3.51071e-07
6.37018e-07
1.71467e-07
2.92956e-07
8.06625e-08
1.29638e-07
3.65498e-08
5.51714e-08
1.59524e-08
2.25437e-08
6.70382e-09
8.74779e-09
2.70199e-09
2.9327e-09
1.01161e-09
2.56157e-10
1.34853e-09
4.5343e-11
4.13483e-09
1.84872e-10
1.11341e-08
5.24148e-10
2.85569e-08
1.39522e-09
7.02908e-08
3.56657e-09
1.66202e-07
8.77388e-09
3.77605e-07
2.07793e-08
8.24513e-07
4.73848e-08
1.73068e-06
1.04054e-07
3.49306e-06
2.20035e-07
6.78093e-06
4.4802e-07
1.26649e-05
8.78182e-07
2.27666e-05
1.65654e-06
3.94044e-05
3.00562e-06
6.56957e-05
5.24207e-06
0.000105558
8.78134e-06
0.000163552
1.41158e-05
0.000244517
2.1751e-05
0.00035299
3.20932e-05
0.000492457
4.52968e-05
0.000664507
6.1105e-05
0.000868048
7.87414e-05
0.0010988
9.69098e-05
0.00134921
0.000113908
0.00160871
0.000127737
0.00186445
0.000136064
0.00210094
0.000136195
0.00229842
0.000126345
0.00242617
0.000110908
0.000102437
0.00246374
1.36392e-09
4.90211e-11
4.15442e-09
1.98833e-10
1.11086e-08
5.59562e-10
2.83029e-08
1.47791e-09
6.9237e-08
3.74878e-09
1.62781e-07
9.15219e-09
3.67905e-07
2.15139e-08
7.99495e-07
4.87018e-08
1.67085e-06
1.06181e-07
3.35895e-06
2.22961e-07
6.49731e-06
4.50879e-07
1.20964e-05
8.77925e-07
2.16832e-05
1.64544e-06
3.74367e-05
2.96709e-06
6.22834e-05
5.14445e-06
9.99004e-05
8.57e-06
0.000154571
1.37047e-05
0.000230845
2.10166e-05
0.000333004
3.08744e-05
0.000464377
4.34087e-05
0.000626578
5.83744e-05
0.000818713
7.50643e-05
0.00103692
9.23359e-05
0.00127442
0.000108782
0.00152155
0.000122917
0.00176653
0.000133215
0.00199572
0.000138008
0.00219263
0.000135969
0.00233332
0.000129283
0.000126409
0.00239168
1.37677e-09
5.20608e-11
4.16385e-09
2.10072e-10
1.10476e-08
5.86777e-10
2.79368e-08
1.5375e-09
6.78602e-08
3.86916e-09
1.58493e-07
9.37251e-09
3.56014e-07
2.18628e-08
7.69236e-07
4.91178e-08
1.5991e-06
1.06292e-07
3.19899e-06
2.21568e-07
6.16004e-06
4.44865e-07
1.14213e-05
8.60191e-07
2.03963e-05
1.60134e-06
3.50959e-05
2.86886e-06
5.82132e-05
4.94348e-06
9.31254e-05
8.18758e-06
0.000143768
1.30242e-05
0.000214304
1.98795e-05
0.000308636
2.90844e-05
0.000429795
4.07517e-05
0.000579311
5.46657e-05
0.000756386
7.02132e-05
0.000957366
8.64068e-05
0.001176
0.000102067
0.0014034
0.00011606
0.00162826
0.000127401
0.00183778
0.000135193
0.00201718
0.000138699
0.0021468
0.000138871
0.000139812
0.00219865
1.38027e-09
5.4197e-11
4.14352e-09
2.17548e-10
1.09023e-08
6.03029e-10
2.73453e-08
1.56724e-09
6.59094e-08
3.9119e-09
1.52812e-07
9.39979e-09
3.40888e-07
2.17522e-08
7.31788e-07
4.84863e-08
1.51202e-06
1.04115e-07
3.00761e-06
2.15377e-07
5.76086e-06
4.29209e-07
1.06286e-05
8.2387e-07
1.88941e-05
1.52287e-06
3.23743e-05
2.7097e-06
5.34909e-05
4.63888e-06
8.52657e-05
7.63586e-06
0.000131225
1.20793e-05
0.000195081
1.83509e-05
0.000280249
2.67443e-05
0.00038934
3.73592e-05
0.000523658
5.00148e-05
0.000682426
6.41964e-05
0.000862148
7.9074e-05
0.00105687
9.36548e-05
0.0012583
0.000107011
0.00145577
0.000118418
0.00163689
0.000127347
0.00178758
0.000133439
0.00188982
0.000137121
0.000139937
0.00192275
1.36923e-09
5.51942e-11
4.0789e-09
2.20372e-10
1.06383e-08
6.06071e-10
2.64517e-08
1.56189e-09
6.32249e-08
3.8657e-09
1.45426e-07
9.21116e-09
3.2197e-07
2.11396e-08
6.86244e-07
4.67358e-08
1.40834e-06
9.95464e-08
2.78354e-06
2.0429e-07
5.29963e-06
4.03935e-07
9.72243e-06
7.69439e-07
1.71917e-05
1.41172e-06
2.93109e-05
2.49404e-06
4.82035e-05
4.24079e-06
7.64988e-05
6.93651e-06
0.000117257
1.09098e-05
0.000173686
1.64912e-05
0.000248671
2.39358e-05
0.000344353
3.33363e-05
0.00046167
4.45479e-05
0.000599734
5.71457e-05
0.000755283
7.04482e-05
0.000922691
8.36346e-05
0.00109421
9.59177e-05
0.00126001
0.000106683
0.0014085
0.000115519
0.00152647
0.000122182
0.00159837
0.000126783
0.000129677
0.001612
1.34004e-09
5.49448e-11
3.96044e-09
2.18165e-10
1.02345e-08
5.95123e-10
2.52145e-08
1.52025e-09
5.97338e-08
3.72949e-09
1.36228e-07
8.8089e-09
2.99156e-07
2.00412e-08
6.32672e-07
4.39275e-08
1.28881e-06
9.27706e-08
2.52936e-06
1.8879e-07
4.78354e-06
3.70211e-07
8.72005e-06
6.99513e-07
1.53268e-05
1.27337e-06
2.59832e-05
2.23268e-06
4.25022e-05
3.76937e-06
6.71113e-05
6.12501e-06
0.000102367
9.57538e-06
0.000150921
1.43946e-05
0.000215133
2.07969e-05
0.000296673
2.8866e-05
0.000396089
3.84914e-05
0.000512331
4.93327e-05
0.000642356
6.08394e-05
0.000781019
7.23349e-05
0.000921221
8.3145e-05
0.00105411
9.27115e-05
0.00116938
0.000100636
0.00125555
0.000106662
0.0013004
0.000110695
0.000112671
0.00129849
1.29086e-09
5.33739e-11
3.78408e-09
2.10728e-10
9.6854e-09
5.70004e-10
2.36321e-08
1.44285e-09
5.54608e-08
3.50719e-09
1.25341e-07
8.20836e-09
2.72856e-07
1.8506e-08
5.72235e-07
4.01985e-08
1.15636e-06
8.41408e-08
2.25202e-06
1.69723e-07
4.22779e-06
3.29936e-07
7.65296e-06
6.18113e-07
1.33613e-05
1.11587e-06
2.25068e-05
1.9409e-06
3.65928e-05
3.25182e-06
5.7449e-05
5.24634e-06
8.71363e-05
8.14782e-06
0.000127755
1.21765e-05
0.000181143
1.75042e-05
0.000248515
2.41996e-05
0.000330088
3.21773e-05
0.0004247
4.11697e-05
0.000529527
5.07381e-05
0.000639976
6.03315e-05
0.000749801
6.93766e-05
0.000851358
7.73651e-05
0.00093597
8.38983e-05
0.000994433
8.86851e-05
0.0010178
9.15359e-05
9.2316e-05
0.00100522
1.22092e-09
5.04986e-11
3.54933e-09
1.98225e-10
8.99497e-09
5.31539e-10
2.17279e-08
1.33283e-09
5.04929e-08
3.20899e-09
1.1303e-07
7.43941e-09
2.43797e-07
1.66148e-08
5.06762e-07
3.57538e-08
1.0153e-06
7.41449e-08
1.96101e-06
1.4819e-07
3.65228e-06
2.85471e-07
6.56078e-06
5.30055e-07
1.13705e-05
9.4859e-07
1.90185e-05
1.63604e-06
3.07119e-05
2.71892e-06
4.79013e-05
4.35311e-06
7.21928e-05
6.71264e-06
0.000105186
9.96705e-06
0.000148228
1.4247e-05
0.000202125
1.9603e-05
0.000266826
2.59667e-05
0.000341138
3.31288e-05
0.00042252
4.07448e-05
0.000507014
4.83734e-05
0.000589367
5.55391e-05
0.000663303
6.1796e-05
0.000721942
6.67697e-05
0.000758371
7.01696e-05
0.000766439
7.1788e-05
7.15533e-05
0.000748055
1.13162e-09
4.6508e-11
3.26195e-09
1.81471e-10
8.18275e-09
4.8226e-10
1.95611e-08
1.19747e-09
4.49945e-08
2.85465e-09
9.97228e-08
6.55285e-09
2.13023e-07
1.44917e-08
4.38656e-07
3.08821e-08
8.70892e-07
6.34246e-08
1.66736e-06
1.25552e-07
3.07905e-06
2.39576e-07
5.48571e-06
4.40696e-07
9.43188e-06
7.81475e-07
1.56549e-05
1.33584e-06
2.5092e-05
2.20099e-06
3.88526e-05
3.49505e-06
5.81406e-05
5.34802e-06
8.41195e-05
7.8844e-06
0.00011772
1.11977e-05
0.000159411
1.53202e-05
0.00020896
2.01951e-05
0.00026522
2.56595e-05
0.000325997
3.1447e-05
0.000388026
3.72133e-05
0.000447096
4.25783e-05
0.000498326
4.71732e-05
0.00053657
5.06769e-05
0.000556946
5.28362e-05
0.000555476
5.34738e-05
5.2603e-05
0.000535414
1.02646e-09
4.16538e-11
2.93335e-09
1.61536e-10
7.28159e-09
4.25314e-10
1.72202e-08
1.04539e-09
3.91907e-08
2.46658e-09
8.59614e-08
5.60414e-09
1.81775e-07
1.22676e-08
3.70639e-07
2.58782e-08
7.2883e-07
5.26142e-08
1.38243e-06
1.03115e-07
2.52986e-06
1.94822e-07
4.46777e-06
3.54885e-07
7.61624e-06
6.23289e-07
1.25365e-05
1.05548e-06
1.99312e-05
1.72327e-06
3.06173e-05
2.71258e-06
4.54602e-05
4.11626e-06
6.52662e-05
6.02115e-06
9.06349e-05
8.48979e-06
0.000121787
1.1539e-05
0.000158389
1.51204e-05
0.000199412
1.91086e-05
0.000243048
2.33025e-05
0.000286724
2.74421e-05
0.000327233
3.12377e-05
0.000360979
3.44036e-05
0.000384326
3.66886e-05
0.000394025
3.78971e-05
0.000387673
3.79014e-05
3.6775e-05
0.000368858
9.09997e-10
3.62488e-11
2.57771e-09
1.3969e-10
6.33008e-09
3.64285e-10
1.48041e-08
8.86007e-10
3.33221e-08
2.06828e-09
7.23026e-08
4.64931e-09
1.51284e-07
1.00699e-08
3.05298e-07
2.10192e-08
5.94325e-07
4.22893e-08
1.11628e-06
8.20215e-08
2.02332e-06
1.53379e-07
3.53995e-06
2.76557e-07
5.97977e-06
4.80867e-07
9.75542e-06
8.06317e-07
1.53748e-05
1.30389e-06
2.34161e-05
2.03344e-06
3.44747e-05
3.05824e-06
4.90804e-05
4.43567e-06
6.75883e-05
6.20439e-06
9.00552e-05
8.36986e-06
0.000116121
1.08914e-05
0.000144916
1.36744e-05
0.000175024
1.65716e-05
0.000204514
1.93946e-05
0.000231064
2.19337e-05
0.000252162
2.39823e-05
0.000265381
2.53599e-05
0.000268684
2.59307e-05
0.000260726
2.56149e-05
2.4512e-05
0.000244815
7.87569e-10
3.0625e-11
2.21098e-09
1.17258e-10
5.36961e-09
3.02777e-10
1.24142e-08
7.28422e-10
2.76251e-08
1.68168e-09
5.92713e-08
3.73865e-09
1.22659e-07
8.00881e-09
2.44879e-07
1.65349e-08
4.71704e-07
3.2907e-08
8.76877e-07
6.31385e-08
1.57343e-06
1.1681e-07
2.72579e-06
2.08399e-07
4.56017e-06
3.58586e-07
7.36931e-06
5.95125e-07
1.15066e-05
9.52734e-07
1.73648e-05