/*--------------------------------*- C++ -*----------------------------------*\
| =========                 |                                                 |
| \\      /  F ield         | OpenFOAM: The Open Source CFD Toolbox           |
|  \\    /   O peration     | Version:  2006                                  |
|   \\  /    A nd           | Website:  www.openfoam.com                      |
|    \\/     M anipulation  |                                                 |
\*---------------------------------------------------------------------------*/
FoamFile
{
    version     2.0;
    format      ascii;
    class       volScalarField;
    location    "0.1";
    object      p;
}
// * * * * * * * * * * * * * * * * * * * * * * * * * * * * * * * * * * * * * //

dimensions      [0 2 -2 0 0 0 0];


internalField   nonuniform List<scalar> 
2790
(
70.8412
70.7294
70.9528
71.4579
72.1516
73.0019
74.0055
75.1607
76.4635
77.909
79.4934
81.2134
83.065
85.0431
87.1403
89.3466
91.6485
94.0287
96.4651
98.9307
101.393
103.815
106.153
108.359
110.382
112.173
113.685
114.905
115.629
116.448
70.6441
70.643
70.8919
71.3948
72.0858
72.9345
73.9354
75.0867
76.3845
77.824
79.4017
81.1142
82.9577
84.9272
87.0157
89.2136
91.5078
93.8814
96.3132
98.7768
101.241
103.667
106.014
108.234
110.274
112.084
113.611
114.867
115.556
116.397
70.4568
70.5257
70.7942
71.2878
71.9674
72.8058
73.7952
74.9329
76.2149
77.6368
79.1947
80.8854
82.7051
84.649
86.7102
88.8798
91.1451
93.4903
95.8949
98.3339
100.777
103.189
105.527
107.745
109.791
111.612
113.148
114.44
115.074
115.93
70.2487
70.3488
70.6307
71.1171
71.7843
72.6092
73.5827
74.701
75.9601
77.3557
78.8839
80.5413
82.3243
84.2281
86.2464
88.3704
90.5885
92.8855
95.2425
97.6359
100.037
102.413
104.723
106.922
108.958
110.778
112.31
113.627
114.203
115.064
70.0103
70.1248
70.4159
70.8962
71.5488
72.3553
73.3064
74.3979
75.6256
76.9851
78.4726
80.0846
81.8174
83.6664
85.6255
87.6863
89.8379
92.0663
94.3539
96.6792
99.0159
101.333
103.593
105.752
107.762
109.568
111.088
112.428
112.968
113.859
69.7371
69.8577
70.1521
70.6239
71.2586
72.0418
72.9649
74.0229
75.2115
76.5262
77.9629
79.5181
81.1879
82.9677
84.8514
86.8312
88.8967
91.0348
93.2295
95.4611
97.706
99.936
102.118
104.212
106.171
107.947
109.446
110.809
111.333
112.256
69.4273
69.5493
69.8417
70.3019
70.9159
71.6716
72.5613
73.5796
74.7217
75.983
77.3592
78.8465
80.4407
82.137
83.9295
85.8102
87.7692
89.7944
91.8706
93.9801
96.1019
98.2112
100.279
102.271
104.147
105.866
107.329
108.711
109.25
110.259
69.0805
69.201
69.4872
69.9326
70.5228
71.247
72.0983
73.0709
74.1596
75.3595
76.6659
78.0747
79.5812
81.1804
82.8659
84.6296
86.4616
88.3499
90.2803
92.2363
94.1989
96.1466
98.0552
99.897
101.64
103.257
104.649
106.031
106.6
107.75
68.6971
68.8142
69.0909
69.5185
70.0817
70.7708
71.5789
72.5003
73.5292
74.6602
75.8883
77.2087
78.6163
80.1053
81.6686
83.2976
84.9819
86.7091
88.4649
90.2329
91.9954
93.733
95.4254
97.0516
98.589
100.028
101.279
102.596
103.159
104.421
68.2781
68.3905
68.655
69.0619
69.5953
70.2457
71.0065
71.8717
72.8349
73.8903
75.0323
76.2554
77.5535
78.9201
80.347
81.8245
83.341
84.8829
86.4343
87.9781
89.4954
90.9667
92.3731
93.6978
94.9264
96.0677
97.05
98.1757
98.6391
99.9606
67.8251
67.9316
68.182
68.5656
69.0665
69.6751
70.3849
71.1893
72.0818
73.0556
74.1046
75.2222
76.4016
77.6348
78.9124
80.2229
81.5527
82.8859
84.204
85.4865
86.7109
87.8538
88.8923
89.8077
90.5869
91.2517
91.7551
92.4593
92.6464
93.9742
67.3396
67.4395
67.674
68.0323
68.4983
69.0624
69.7178
70.4578
71.275
72.1622
73.1122
74.1176
75.1702
76.2606
77.3775
78.5073
79.6337
80.7371
81.7949
82.7808
83.665
84.4147
84.9953
85.374
85.523
85.4573
85.1435
85.0057
84.5158
85.6855
66.8238
66.9165
67.1338
67.4648
67.8939
68.4112
69.0096
69.6819
70.4202
71.2165
72.0627
72.9503
73.8697
74.8097
75.7568
76.6947
77.6037
78.4599
79.2344
79.8929
80.3942
80.6899
80.7226
80.4277
79.7339
78.6018
76.9516
75.1995
73.0741
73.419
66.2797
66.3647
66.5638
66.8662
67.2566
67.7252
68.2645
68.8666
69.5232
70.2255
70.9643
71.7299
72.5113
73.2952
74.0658
74.8038
75.4855
76.0815
76.556
76.8641
76.9501
76.7433
76.1526
75.0601
73.3096
70.7243
67.0238
62.3261
56.3023
53.2718
65.7098
65.7868
65.9668
66.2394
66.5899
67.0084
67.4868
68.0171
68.5899
69.1959
69.8249
70.4659
71.1061
71.7306
72.3208
72.8544
73.3032
73.6324
73.798
73.7442
73.3983
72.6636
71.4077
69.4423
66.4865
62.1259
55.6226
46.0739
31.1634
13.5845
-102.274
-101.74
-101.723
-100.835
-99.4363
-97.1447
-93.7626
-89.1584
-83.3232
-76.407
-68.7109
-60.6148
-52.3746
-44.2033
-36.4909
-29.5855
-23.6046
-18.5623
-14.4078
-11.0492
-8.37515
-6.27092
-4.62834
-3.35159
-2.3594
-1.58505
-0.975259
-0.488498
-0.0936364
0.23168
-102.711
-102.191
-102.29
-101.472
-100.175
-97.9486
-94.5869
-89.9554
-84.0592
-77.0596
-69.2689
-61.083
-52.7643
-44.5165
-36.7381
-29.7851
-23.7675
-18.6963
-14.5187
-11.1413
-8.45188
-6.33471
-4.68118
-3.3951
-2.39493
-1.61377
-0.998142
-0.506208
-0.105884
0.232959
-103.673
-103.264
-103.539
-102.869
-101.745
-99.6289
-96.2926
-91.6003
-85.5654
-78.3683
-70.3528
-61.9504
-53.4476
-45.0232
-37.0865
-30.027
-23.9374
-18.8184
-14.6098
-11.2125
-8.50981
-6.38331
-4.72255
-3.43036
-2.4247
-1.63846
-1.01805
-0.521475
-0.116114
0.231755
-105.263
-105.054
-105.578
-105.167
-104.314
-102.385
-99.1019
-94.3173
-88.0474
-80.5069
-72.1018
-63.322
-54.4902
-45.7699
-37.5826
-30.3564
-24.1578
-18.97
-14.7197
-11.2975
-8.57963
-6.443
-4.77445
-3.47541
-2.46323
-1.67065
-1.04409
-0.541539
-0.130233
0.225727
-107.631
-107.685
-108.571
-108.574
-108.137
-106.506
-103.321
-98.4049
-91.7671
-83.6855
-74.6742
-65.3126
-55.9612
-46.793
-38.2535
-30.7901
-24.4378
-19.1548
-14.848
-11.3934
-8.65685
-6.50851
-4.83141
-3.52498
-2.50573
-1.70618
-1.07281
-0.563672
-0.146136
0.217211
-110.921
-111.353
-112.765
-113.401
-113.587
-112.405
-109.37
-104.248
-97.0343
-88.1323
-78.2285
-68.0287
-57.9163
-48.1138
-39.1189
-31.3435
-24.7894
-19.3824
-15.0029
-11.5072
-8.74719
-6.58458
-4.89731
-3.58222
-2.55476
-1.74715
-1.10592
-0.589321
-0.164977
0.205627
-115.424
-116.338
-118.482
-120.041
-121.118
-120.566
-117.708
-112.223
-104.11
-94.0143
-82.8623
-71.5164
-60.3686
-49.7269
-40.1786
-32.0194
-25.2164
-19.6572
-15.1887
-11.6425
-8.85364
-6.67334
-4.9735
-3.6479
-2.61066
-1.79361
-1.14337
-0.61839
-0.186617
0.191183
-121.366
-122.895
-126.027
-128.86
-131.143
-131.401
-128.667
-122.555
-113.091
-101.35
-88.5527
-75.706
-63.2519
-51.6009
-41.4078
-32.8032
-25.7124
-19.9777
-15.4066
-11.8016
-8.97862
-6.77688
-5.06162
-3.72319
-2.67423
-1.84615
-1.18558
-0.651203
-0.211293
0.173723
-128.725
-131.099
-135.522
-140.021
-143.857
-145.078
-142.333
-135.133
-123.785
-109.929
-95.11
-80.3987
-66.3951
-53.676
-42.7544
-33.6605
-26.2583
-20.335
-15.6533
-11.9842
-9.12285
-6.89618
-5.16249
-3.80865
-2.74583
-1.90495
-1.23266
-0.687836
-0.239046
0.15323
-137.284
-140.698
-146.696
-153.252
-158.973
-161.238
-158.174
-149.37
-135.625
-119.282
-102.11
-85.3007
-69.6256
-55.8095
-44.1282
-34.536
-26.8227
-20.7125
-15.9209
-12.1867
-9.28502
-7.03082
-5.27599
-3.90424
-2.82539
-1.96994
-1.28456
-0.728249
-0.269847
0.129742
-146.336
-150.839
-158.634
-167.594
-175.457
-178.68
-175.02
-164.177
-147.707
-128.703
-108.979
-89.9719
-72.7141
-57.8107
-45.4078
-35.3571
-27.3638
-21.0869
-16.1967
-12.4024
-9.46146
-7.17868
-5.40077
-4.00901
-2.91222
-2.04062
-1.34089
-0.772193
-0.30352
0.103413
-154.244
-159.8
-169.56
-181.154
-191.154
-194.936
-190.738
-177.927
-158.968
-137.188
-114.956
-93.9434
-75.2824
-59.4483
-46.4536
-36.0411
-27.833
-21.4301
-16.4643
-12.6215
-9.64593
-7.33565
-5.53404
-4.12099
-3.00491
-2.11599
-1.40099
-0.819204
-0.339751
0.0745138
-158.494
-165.163
-176.995
-191.115
-203.379
-207.9
-203.522
-188.899
-167.711
-143.448
-119.119
-96.6072
-76.9486
-60.4911
-47.1275
-36.5055
-28.181
-21.7117
-16.7043
-12.8311
-9.82972
-7.49561
-5.67139
-4.23702
-3.10119
-2.19443
-1.46373
-0.868526
-0.378027
0.0434596
-156.905
-165.216
-179.735
-196.299
-210.299
-215.858
-210.945
-194.723
-171.773
-146.085
-120.67
-97.4513
-77.3945
-60.747
-47.3133
-36.6791
-28.3623
-21.9017
-16.8961
-13.0166
-10.0024
-7.65101
-5.80738
-4.35316
-3.19825
-2.27394
-1.52769
-0.919152
-0.417626
0.0108606
-147.576
-159.234
-177.354
-195.735
-210.637
-216.212
-210.426
-193.623
-170.302
-144.494
-119.162
-96.1792
-76.4326
-60.0979
-46.9346
-36.5092
-28.3391
-21.9718
-17.0186
-13.1625
-10.1526
-7.79388
-5.93656
-4.46582
-3.29381
-2.35317
-1.59212
-0.970725
-0.4584
-0.0230946
65.1051
65.1736
65.3336
65.5752
65.8842
66.2506
66.6662
67.1221
67.6086
68.1154
68.6314
69.1443
69.6397
70.1006
70.5062
70.8306
71.0417
71.0989
70.9505
70.5295
69.7468
68.4804
66.5563
63.7149
59.5421
53.3446
43.7504
27.9674
-3.46594
-93.809
64.4589
64.5185
64.6575
64.8664
65.1321
65.4445
65.7948
66.1738
66.5712
66.9758
67.3755
67.7569
68.104
68.398
68.6155
68.7279
68.6991
68.4837
68.0232
67.2416
66.0368
64.2682
61.734
58.1314
52.9783
45.4685
34.1001
16.3033
-10.4791
-49.9522
63.7762
63.8266
63.9438
64.1192
64.3403
64.5972
64.8808
65.1813
65.4878
65.7886
66.0708
66.3195
66.5177
66.6447
66.6753
66.5783
66.3149
65.8357
65.0782
63.9607
62.3753
60.175
57.155
53.0215
47.3443
39.505
28.6507
13.837
-4.61411
-26.1155
63.0585
63.0995
63.1945
63.3356
63.5113
63.7118
63.9278
64.1491
64.3643
64.5611
64.7258
64.8427
64.8936
64.8566
64.7051
64.4062
63.9193
63.1934
62.1644
60.75
58.844
56.3068
52.9533
48.5379
42.7396
35.1644
25.3723
12.8686
-2.7502
-22.0559
62.3077
62.3392
62.4116
62.518
62.648
62.7918
62.9401
63.0823
63.2066
63.3004
63.3493
63.3372
63.2449
63.0498
62.7245
62.2355
61.5419
60.593
59.3261
57.6631
55.5059
52.7312
49.1847
44.6756
38.9744
31.8156
22.9048
11.893
-1.58924
-17.3141
61.5261
61.5479
61.5978
61.6694
61.7536
61.8411
61.9222
61.9862
62.0213
62.0143
61.9508
61.814
61.5848
61.2401
60.7525
60.089
59.2098
58.0664
56.6004
54.7408
52.402
49.481
45.8556
41.3837
35.9048
29.2456
21.2332
11.7207
0.632242
-11.5869
60.7163
60.7286
60.7559
60.7931
60.8321
60.864
60.8792
60.8669
60.8152
60.711
60.5397
60.2846
59.9266
59.4431
58.8075
57.988
56.9472
55.6407
54.0159
52.0115
49.556
46.5675
42.954
38.6158
33.4496
27.3578
20.2645
12.1399
3.00753
-6.79856
59.8813
59.8842
59.8895
59.8929
59.8876
59.8653
59.8165
59.7306
59.5957
59.3989
59.1258
58.7602
58.2834
57.6738
56.9062
55.9512
54.7746
53.3371
51.5935
49.4927
46.9778
43.987
40.455
36.3171
31.5138
25.9994
19.7528
12.7911
5.16833
-2.8551
59.0247
59.0185
59.0023
58.9728
58.9246
58.8501
58.74
58.5837
58.37
58.0863
57.7186
57.2515
56.6672
55.9455
55.0634
53.9942
52.708
51.1711
49.3459
47.1919
44.6659
41.7237
38.3225
34.4239
29.9991
25.0345
19.539
13.5515
7.14149
0.514895
58.1504
58.1353
58.0983
58.0373
57.948
57.8237
57.6554
57.4331
57.1458
56.7816
56.3274
55.7687
55.0891
54.2703
53.2915
52.1296
50.7591
49.1521
47.2789
45.1086
42.6102
39.7544
36.5154
32.8745
28.8232
24.3674
19.5317
14.3642
8.93517
3.4016
57.2624
57.2389
57.1822
57.0911
56.963
56.7918
56.569
56.2852
55.9302
55.4928
54.9609
54.3212
53.559
52.658
51.6003
50.3664
48.9353
47.2849
45.3926
43.2362
40.795
38.0514
34.9927
31.6136
27.9185
23.9242
19.6625
15.1817
10.5455
5.87254
56.3655
56.334
56.2587
56.1394
55.9749
55.76
55.4869
55.1469
54.7304
54.2274
53.6269
52.9171
52.0851
51.1168
49.9974
48.7107
47.2404
45.5697
43.6823
41.5635
39.2009
36.5858
33.7149
30.5917
27.2284
23.6469
19.8803
15.9736
11.9815
7.99389
55.4643
55.4254
55.3328
55.1873
54.9892
54.7342
54.4153
54.0245
53.5532
52.9925
52.3327
51.5636
50.6742
49.6529
48.4875
47.1657
45.6749
44.0033
42.1401
40.0767
37.8069
35.3289
32.6457
29.7662
26.7065
23.4902
20.1492
16.7229
13.2573
9.82047
54.564
54.5183
54.4098
54.2403
54.0116
53.7203
53.3602
52.9243
52.4049
51.7944
51.0845
50.2666
49.3318
48.2706
47.0738
45.7321
44.2368
42.5802
40.756
38.7602
36.5919
34.2537
31.7526
29.1006
26.3153
23.4201
20.4438
17.4203
14.3874
11.397
53.67
53.618
53.4951
53.304
53.0477
52.724
52.3276
51.8522
51.2915
50.639
49.8878
49.0311
48.0617
46.9727
45.7571
44.4087
42.922
41.2927
39.5182
37.5983
35.5353
33.3351
31.0069
28.5643
26.025
23.4105
20.7465
18.0615
15.3862
12.7604
52.7877
52.7302
52.5944
52.3839
52.1032
51.7511
51.323
50.8139
50.2184
49.5313
48.7472
47.8608
46.8669
45.7605
44.5371
43.193
41.7252
40.1325
38.415
36.5752
34.6178
32.5506
30.3842
28.1322
25.8116
23.4419
21.0452
18.6453
16.2672
13.9412
51.9229
51.8605
51.7133
51.4859
51.1838
50.8071
50.3521
49.8146
49.1905
48.4758
47.6664
46.7587
45.749
44.6344
43.4123
42.0811
40.6402
39.0905
37.4343
35.6759
33.8219
31.8807
29.8635
27.7836
25.6565
23.4996
21.3317
19.1727
17.0425
14.9649
51.0814
51.0146
50.8576
50.6155
50.2952
49.8976
49.4201
48.8594
48.2124
47.4764
46.6487
45.7269
44.7091
43.5937
42.3802
41.0686
39.6603
38.1576
36.5646
34.8869
33.1317
31.3082
29.4273
27.5016
25.545
23.5727
21.6008
19.6457
17.7234
15.8525
50.269
50.1985
50.033
49.7785
49.4429
49.028
48.532
47.9528
47.2882
46.5366
45.6966
44.767
43.7472
42.6373
41.438
40.1509
38.7788
37.3252
35.7954
34.1956
32.5337
30.8188
29.0612
27.2727
25.4657
23.6535
21.8494
20.0672
18.3198
16.6216
49.4917
49.4181
49.2456
48.9806
48.6323
48.2033
47.6927
47.0992
46.4217
45.6594
44.8122
43.88
42.8634
41.7636
40.5827
39.3233
37.9893
36.5852
35.1169
33.5912
32.0159
30.4
28.7533
27.0863
25.4101
23.7362
22.0758
20.4403
18.8403
17.2871
48.7556
48.6795
48.501
48.2275
47.8689
47.4287
46.9068
46.3027
45.6162
44.8476
43.9974
43.0667
42.0572
40.971
39.8111
38.5812
37.2858
35.9303
34.5207
33.0641
31.5683
30.0419
28.4939
26.9338
25.3715
23.8168
22.2793
20.7684
19.2928
17.8614
48.0669
47.9886
47.8053
47.5248
47.1579
46.7091
46.1788
45.5673
44.8752
44.1035
43.2538
42.3278
41.3281
40.2578
39.1205
37.9206
36.6631
35.3539
33.9993
32.6064
31.1826
29.7362
28.2753
26.8088
25.3451
23.8928
22.46
21.0547
19.684
18.355
47.4317
47.3516
47.1643
46.8782
46.5048
46.0494
45.5132
44.8969
44.2018
43.4298
42.5829
41.6639
40.6759
39.6225
38.5082
37.3377
36.1165
34.8507
33.5466
32.2112
30.8519
29.4761
28.0916
26.706
25.3271
23.9623
22.6185
21.3023
20.0198
18.7767
46.8565
46.7749
46.5841
46.2933
45.9148
45.4545
44.9142
44.2952
43.5992
42.8287
41.9866
41.0759
40.1004
39.0642
37.9723
36.8297
35.6423
34.4161
33.1575
31.8734
30.5708
29.2566
27.938
26.6219
25.3153
24.0244
22.7555
21.5141
20.3053
19.1337
46.348
46.2648
46.0707
45.7757
45.3931
44.9292
44.3863
43.766
43.0705
42.3029
41.4664
40.5646
39.6017
38.5822
37.5113
36.3944
35.2375
34.0465
32.8281
31.5887
30.3349
29.0735
27.8109
26.5536
25.3076
24.0786
22.872
21.6926
20.5446
19.4321
45.9132
45.8282
45.6304
45.3312
44.9452
44.4788
43.9343
43.3138
42.6198
41.8557
41.0251
40.1321
39.181
38.1768
37.1248
36.0307
34.9004
33.74
32.5558
31.3542
30.1417
28.9243
27.7083
26.4994
25.3033
24.125
22.9692
21.8402
20.7416
19.677
45.5602
45.4724
45.269
44.9646
44.5751
44.1067
43.5613
42.9411
42.2491
41.4887
40.664
39.7791
38.8387
37.8479
36.8122
35.7373
34.6292
33.4941
32.3381
31.1675
29.9882
28.8064
27.6277
26.4575
25.301
24.1628
23.0471
21.9578
20.8981
19.871
45.2985
45.2056
44.9944
44.685
44.293
43.823
43.2767
42.6567
41.9663
41.2091
40.3893
39.511
38.5793
37.5993
36.5765
35.5168
34.4261
33.3106
32.1763
31.0293
29.8755
28.7207
27.5701
26.4291
25.3023
24.1941
23.1084
22.0487
21.018
20.0188
45.14
45.0252
44.798
44.4845
44.0922
43.6221
43.0761
42.4573
41.7691
41.0151
40.1995
39.3266
38.4014
37.4292
36.4157
35.3667
34.2881
33.1862
32.0668
30.9359
29.7994
28.6628
27.5313
26.4099
25.3031
24.215
23.1494
22.1095
21.0981
20.1175
45.1492
44.9664
44.711
44.3921
43.9981
43.5261
42.9789
42.3601
41.6731
40.9212
40.1082
39.2387
38.3175
37.35
36.3417
35.2986
34.2266
33.1317
32.0201
30.8976
29.7698
28.6424
27.5204
26.4087
25.3118
24.2336
23.1778
22.1476
21.1456
20.174
-239.816
-215.464
-169.885
-81.382
-88.7942
-91.465
-51.4859
-69.7211
-83.3874
-45.3745
-61.3925
-73.2648
-34.1446
-45.8725
-55.2339
-24.1299
-33.0971
-40.515
-16.6272
-23.6073
-29.3834
-10.6327
-16.0925
-20.6082
-5.71486
-10.0556
-13.6568
-1.67034
-5.18205
-8.10847
1.68257
-1.20182
-3.61917
4.48653
2.08385
0.0566672
6.84782
4.81993
3.09639
8.84805
7.11545
5.63157
10.5508
9.05346
7.7611
12.006
10.698
9.5603
13.2532
12.0989
11.0874
14.3243
13.2957
12.3878
15.2449
14.3197
13.4976
16.036
15.1964
14.4456
16.7148
15.9461
15.2548
17.2953
16.5856
15.944
17.7893
17.1284
16.5283
18.2062
17.5857
17.02
18.5536
17.9661
17.4288
18.838
18.2771
17.7626
19.0628
18.5227
18.0262
19.2337
18.7089
18.2257
19.3475
18.8332
18.359
19.4128
18.9044
18.4346
-127.672
-149.552
-172.336
-190.754
-204.895
-209.961
-202.999
-186.001
-163.297
-138.57
-114.488
-92.7119
-74.007
-58.5011
-45.955
-35.9636
-28.0829
-21.8979
-17.0522
-13.2534
-10.2686
-7.91565
-6.05283
-4.57077
-3.38501
-2.43024
-1.65587
-1.02259
-0.50002
-0.0582655
-105.203
-138.387
-163.701
-181.773
-193.584
-196.031
-187.623
-171.296
-150.552
-128.293
-106.68
-87.076
-70.1211
-55.9376
-44.3413
-35.0032
-27.5546
-21.6448
-16.967
-13.2651
-10.3318
-8.00191
-6.14533
-4.65996
-3.46597
-2.50092
-1.71593
-1.07266
-0.541152
-0.0938308
-102.101
-128.588
-149.423
-164.007
-171.754
-171.458
-163.602
-150.076
-133.045
-114.611
-96.4773
-79.7737
-65.0818
-52.576
-42.1735
-33.6566
-26.7562
-21.2022
-16.7486
-13.1833
-10.3294
-8.04251
-6.2062
-4.72749
-3.53238
-2.56214
-1.77019
-1.11957
-0.580982
-0.129264
-87.9283
-106.558
-123.293
-135.492
-141.51
-141.581
-136.205
-126.473
-113.748
-99.5435
-85.1801
-71.5976
-59.3455
-48.6625
-39.5736
-31.9758
-25.7027
-20.5674
-16.3871
-12.996
-10.2499
-8.02718
-6.22696
-4.7666
-3.579
-2.60995
-1.81574
-1.16122
-0.618092
-0.163664
-66.9784
-81.0088
-95.0166
-106.022
-112.127
-113.384
-110.454
-104.095
-95.2083
-84.8271
-73.9249
-63.2615
-53.3415
-44.4437
-36.6756
-30.0283
-24.4237
-19.7492
-15.8808
-12.6968
-10.0855
-7.94846
-6.20098
-4.77176
-3.60142
-2.64093
-1.85004
-1.19582
-0.651309
-0.196343
-49.5953
-60.2932
-71.6074
-81.0575
-86.9821
-89.2337
-88.2335
-84.5201
-78.6832
-71.4072
-63.3906
-55.2336
-47.3803
-40.1175
-33.6
-27.8836
-22.9563
-18.7651
-15.2356
-12.2853
-9.83271
-7.80148
-6.12329
-4.73843
-3.59574
-2.65191
-1.87061
-1.22155
-0.679394
-0.226563
-36.3371
-44.5003
-53.4124
-61.2674
-66.7615
-69.6174
-69.9664
-68.1368
-64.5281
-59.603
-53.8565
-47.7472
-41.6461
-35.821
-30.4435
-25.606
-21.3405
-17.6379
-14.4629
-11.7659
-9.49158
-7.58419
-5.99085
-4.66334
-3.5589
-2.64024
-1.87531
-1.23675
-0.701206
-0.253656
-26.0494
-32.4427
-39.529
-46.0387
-50.9764
-54.0294
-55.1848
-54.611
-52.5714
-49.3772
-45.3715
-40.894
-36.2417
-31.6491
-27.284
-23.254
-19.6174
-16.3945
-13.5789
-11.1471
-9.06584
-7.29726
-5.80262
-4.54465
-3.48879
-2.60388
-1.86234
-1.24001
-0.715724
-0.277021
-18.0279
-23.1886
-28.9237
-34.3356
-38.6755
-41.6699
-43.2548
-43.4908
-42.5357
-40.5935
-37.8992
-34.6988
-31.223
-27.6669
-24.1825
-20.8789
-17.8263
-15.0629
-12.6024
-10.4407
-8.56207
-6.94377
-5.5595
-4.38194
-3.38433
-2.54152
-1.83041
-1.23019
-0.722102
-0.296149
-11.6957
-15.9585
-20.6796
-25.2137
-28.9999
-31.8189
-33.5977
-34.3353
-34.1159
-33.069
-31.3528
-29.1419
-26.6101
-23.9141
-21.1847
-18.5234
-16.003
-13.6711
-11.5537
-9.6605
-7.98913
-6.52894
-5.26414
-4.17621
-3.24553
-2.4526
-1.77875
-1.20653
-0.719701
-0.310645
-6.61539
-10.2023
-14.1541
-17.9956
-21.303
-23.9058
-25.7398
-26.7734
-27.045
-26.6327
-25.6401
-24.1888
-22.4066
-20.4159
-18.3248
-16.2229
-14.1798
-12.2457
-10.4535
-8.82177
-7.35759
-6.05967
-4.92075
-3.92975
-3.07339
-2.33736
-1.70716
-1.16863
-0.708123
-0.320241
-2.48495
-5.55132
-8.91031
-12.204
-15.1076
-17.4948
-19.3043
-20.4998
-21.0925
-21.1254
-20.6642
-19.7916
-18.5999
-17.182
-15.6249
-14.0044
-12.3834
-10.8107
-9.32169
-7.93998
-6.67897
-5.5441
-4.53478
-3.64602
-2.86992
-2.1968
-1.616
-1.11652
-0.68723
-0.324806
0.910665
-1.74672
-4.64148
-7.49869
-10.0662
-12.2471
-13.9935
-15.2675
-16.0652
-16.4075
-16.334
-15.8998
-15.17
-14.2138
-13.099
-11.8883
-10.6361
-9.38733
-8.17692
-7.03052
-5.96528
-4.99125
-4.11268
-3.32941
-2.63797
-2.03265
-1.50624
-1.05063
-0.657153
-0.32435
3.72872
1.3979
-1.128
-3.63434
-5.9227
-7.91731
-9.58162
-10.8815
-11.805
-12.3592
-12.5666
-12.4625
-12.0917
-11.5049
-10.7539
-9.88886
-8.95558
-7.9937
-7.03594
-6.10792
-5.2285
-4.41051
-3.66157
-2.98508
-2.38112
-1.84728
-1.37933
-0.971792
-0.618285
-0.31902
6.08599
4.01948
1.79043
-0.431019
-2.48662
-4.31652
-5.89264
-7.18642
-8.18227
-8.87916
-9.28822
-9.4311
-9.33799
-9.04491
-8.59084
-8.01507
-7.35506
-6.64475
-5.91353
-5.18565
-4.48022
-3.8114
-3.18893
-2.61872
-2.10353
-1.6436
-1.23721
-0.881199
-0.571272
-0.309092
8.07063
6.2205
4.2331
2.24515
0.3845
-1.30109
-2.79009
-4.05906
-5.09155
-5.88199
-6.43433
-6.76091
-6.88129
-6.82059
-6.60741
-6.27196
-5.84421
-5.35248
-4.82232
-4.27583
-3.73131
-3.20322
-2.7024
-2.23636
-1.80979
-1.42497
-1.08223
-0.780374
-0.516987
-0.294962
9.75016
8.07893
6.29016
4.49515
2.79849
1.23863
-0.167631
-1.40154
-2.44714
-3.29655
-3.94928
-4.41144
-4.6951
-4.81724
-4.79842
-4.66136
-4.4296
-4.12623
-3.7729
-3.38914
-2.99179
-2.59487
-2.20953
-1.84418
-1.50477
-1.19508
-0.917041
-0.671114
-0.456504
-0.277125
11.177
9.65489
8.03073
6.39632
4.83821
3.38781
2.058
0.863988
-0.179473
-1.0636
-1.78531
-2.34665
-2.75446
-3.01976
-3.15693
-3.18274
-3.11528
-2.97302
-2.77392
-2.53478
-2.27066
-1.99464
-1.71762
-1.44834
-1.19347
-0.957823
-0.744554
-0.555434
-0.391059
-0.256162
12.3923
10.9953
9.50854
8.00856
6.56794
5.21259
3.95243
2.79979
1.76802
0.865971
0.0981351
-0.534951
-1.03652
-1.41333
-1.67509
-1.83387
-1.90332
-1.89793
-1.83231
-1.72059
-1.57594
-1.41019
-1.23361
-1.05486
-0.880918
-0.717232
-0.567831
-0.43551
-0.322019
-0.23272
13.4287
12.1373
10.7657
9.3788
8.03811
6.76525
5.56778
4.45585
3.44143
2.53292
1.73546
1.05121
0.479328
0.0161334
-0.344649
-0.611448
-0.794335
-0.904461
-0.9535
-0.953137
-0.914621
-0.848421
-0.763969
-0.669514
-0.572055
-0.477357
-0.390025
-0.313627
-0.250839
-0.207491
14.3124
13.1103
11.8356
10.544
9.28841
8.08698
6.94546
5.87242
4.87826
3.97086
3.15557
2.43548
1.81134
1.2816
0.842516
0.488426
0.21209
0.005093
-0.141728
-0.23787
-0.292786
-0.315561
-0.314666
-0.297777
-0.271672
-0.242202
-0.214313
-0.192122
-0.179033
-0.181196
15.0643
13.9378
12.7448
11.5336
10.3504
9.21053
8.11874
7.08186
6.10899
5.20747
4.38264
3.63805
2.97546
2.39479
1.89412
1.46987
1.11701
0.829326
0.599752
0.420687
0.284305
0.182841
0.108816
0.0552244
0.0156495
-0.0156721
-0.0438423
-0.0733452
-0.108138
-0.15457
15.7014
14.6387
13.5144
12.3709
11.249
10.1621
9.11388
8.10994
7.15816
6.26533
5.43664
4.67584
3.98531
3.36595
2.81715
2.33687
1.92177
1.56739
1.26838
1.01874
0.812077
0.641825
0.501471
0.384708
0.285562
0.19847
0.118311
0.0403777
-0.0396907
-0.128343
16.2372
15.2281
14.1613
13.0746
12.0044
10.9625
9.95199
8.97739
8.04556
7.16277
6.33394
5.5629
4.85235
4.20386
3.61772
3.09303
2.62774
2.21874
1.86206
1.55304
1.28649
1.05692
0.858706
0.686216
0.533951
0.396618
0.269163
0.146769
0.0247929
-0.103234
16.6825
15.718
14.6987
13.659
12.6319
11.6279
10.6494
9.70042
8.78677
7.91426
7.08757
6.31046
5.58583
4.91564
4.30083
3.74132
3.236
2.78282
2.3789
2.02064
1.70388
1.42404
1.17628
0.955588
0.75694
0.575335
0.405847
0.243627
0.0838423
-0.0799374
17.046
16.1177
15.1371
14.1356
13.1437
12.1709
11.2191
10.2917
9.39395
8.53114
7.70771
6.92732
6.19295
5.50681
4.87028
4.28386
3.74712
3.25883
2.81693
2.41868
2.06074
1.73928
1.45013
1.18883
0.950787
0.731287
0.525563
0.328783
0.136
-0.0591366
17.333
16.4336
15.4834
14.5121
13.548
12.6
11.6697
10.7599
9.87548
9.02124
8.20141
7.41954
6.67864
5.98107
5.32848
4.72178
4.16106
3.64565
3.17413
2.7444
2.35378
1.99903
1.67652
1.38228
1.11205
0.861407
0.625733
0.40025
0.179948
-0.041423
17.5497
16.6715
15.744
14.795
13.8517
12.9223
12.0081
11.1117
10.2375
9.38997
8.57323
7.79073
7.04546
6.33987
5.67581
5.05442
4.47616
3.94077
3.44727
2.99405
2.57887
2.19899
1.85116
1.53178
1.23689
0.962278
0.703483
0.455795
0.214189
-0.0274494
17.695
16.831
15.9187
14.9849
14.0556
13.1388
12.2357
11.3487
10.4819
9.63943
8.82519
8.04264
7.29475
6.58405
5.91248
5.28138
4.69143
4.14263
3.63432
3.1652
2.73335
2.33632
1.97118
1.63454
1.32269
1.03156
0.756811
0.493825
0.237649
-0.0175149
17.7751
16.9167
16.0115
15.0851
14.1627
13.2518
12.3537
11.4707
10.6067
9.76613
8.95271
8.16977
7.42026
6.7067
6.0311
5.39487
4.79881
4.24307
3.72712
3.24985
2.8095
2.40379
2.02991
1.68463
1.36431
1.06499
0.78239
0.511957
0.248868
-0.0120917
)
;

boundaryField
{
    inlet
    {
        type            zeroGradient;
    }
    outlet
    {
        type            fixedValue;
        value           uniform 0;
    }
    flap
    {
        type            zeroGradient;
    }
    upperWall
    {
        type            zeroGradient;
    }
    lowerWall
    {
        type            zeroGradient;
    }
    frontAndBack
    {
        type            empty;
    }
}


// ************************************************************************* //
