/*--------------------------------*- C++ -*----------------------------------*\
| =========                 |                                                 |
| \\      /  F ield         | OpenFOAM: The Open Source CFD Toolbox           |
|  \\    /   O peration     | Version:  4.1                                   |
|   \\  /    A nd           | Web:      www.OpenFOAM.org                      |
|    \\/     M anipulation  |                                                 |
\*---------------------------------------------------------------------------*/
FoamFile
{
    version     2.0;
    format      ascii;
    class       volVectorField;
    location    "0.1";
    object      U;
}
// * * * * * * * * * * * * * * * * * * * * * * * * * * * * * * * * * * * * * //

dimensions      [0 1 -1 0 0 0 0];

internalField   nonuniform List<vector> 
2790
(
(9.93963 0.0198925 1.96125e-21)
(9.87731 0.0282433 0)
(9.78365 0.0338482 0)
(9.6643 0.039396 0)
(9.52648 0.0448318 2.69313e-22)
(9.37257 0.0499911 -5.53177e-22)
(9.20302 0.0549393 2.84276e-22)
(9.01827 0.0598307 0)
(8.81894 0.0648423 0)
(8.6054 0.0701632 0)
(8.37752 0.0759866 0)
(8.1347 0.0824968 0)
(7.87593 0.0898594 -2.96842e-21)
(7.59989 0.0982155 0)
(7.30506 0.107679 3.34648e-21)
(6.98986 0.118336 -3.55167e-21)
(6.6527 0.130242 1.47442e-20)
(6.29219 0.143415 0)
(5.90719 0.157833 0)
(5.49699 0.17343 -1.84912e-20)
(5.06141 0.190085 3.81552e-20)
(4.60093 0.207624 0)
(4.11679 0.225828 -4.57458e-20)
(3.61106 0.244452 9.57586e-20)
(3.08656 0.263264 0)
(2.54678 0.282096 2.29364e-19)
(1.98868 0.301843 -2.4653e-19)
(1.54134 0.310066 0)
(0.532281 0.350173 0)
(0.87054 0.376016 6.58427e-19)
(9.99419 0.0390718 -1.9575e-21)
(9.98229 0.0594087 -2.47462e-22)
(9.9408 0.075269 -2.53042e-22)
(9.87005 0.0920549 -3.59532e-21)
(9.77487 0.109592 0)
(9.65703 0.127232 0)
(9.51692 0.144805 -4.47676e-21)
(9.35518 0.162404 4.34308e-21)
(9.17287 0.180249 5.11237e-21)
(8.97102 0.198677 0)
(8.75025 0.218104 7.87896e-21)
(8.5107 0.238983 -2.71237e-21)
(8.25202 0.261752 -2.86413e-21)
(7.97344 0.286797 6.20697e-21)
(7.67387 0.314424 -1.25889e-20)
(7.352 0.344843 6.90195e-21)
(7.00643 0.378147 -6.97988e-21)
(6.63579 0.41429 0)
(6.23889 0.453075 0)
(5.81488 0.494125 -1.71716e-20)
(5.36334 0.536876 3.66029e-20)
(4.88453 0.580575 -3.92308e-20)
(4.3794 0.624303 3.83714e-19)
(3.8498 0.667038 -3.60469e-19)
(3.29843 0.707761 0)
(2.72917 0.745585 8.58501e-19)
(2.13413 0.781295 -9.19981e-19)
(1.65572 0.799146 2.02878e-18)
(0.615978 0.851405 -4.67332e-18)
(0.889311 0.86976 1.20806e-18)
(9.99129 0.0407605 0)
(9.97644 0.071329 7.75696e-21)
(9.93686 0.0991749 1.25132e-22)
(9.87047 0.128925 3.96438e-21)
(9.78048 0.160465 -4.05343e-21)
(9.6684 0.192773 -4.57013e-21)
(9.53451 0.225277 9.70873e-21)
(9.37925 0.257843 -6.32018e-21)
(9.20353 0.29065 -5.98499e-21)
(9.00825 0.324147 -4.67707e-23)
(8.79402 0.35898 -2.60946e-21)
(8.561 0.395907 0)
(8.30889 0.435699 -5.60355e-21)
(8.03695 0.479067 6.10282e-21)
(7.74411 0.52661 -2.47007e-20)
(7.42902 0.578772 1.30704e-20)
(7.09019 0.635809 -1.38693e-20)
(6.7261 0.69775 0)
(6.3353 0.764362 0)
(5.91658 0.835106 1.33755e-19)
(5.46912 0.909108 -1.74197e-19)
(4.99262 0.985135 -3.71751e-20)
(4.4875 1.06161 -8.05696e-20)
(3.95503 1.13666 -1.71858e-19)
(3.39743 1.20827 1.84941e-19)
(2.81897 1.27433 0)
(2.20595 1.33526 0)
(1.71792 1.37216 -4.70306e-19)
(0.675055 1.43969 2.30911e-18)
(0.896585 1.45889 -2.23555e-18)
(9.98972 0.0461847 7.63743e-21)
(9.97268 0.0880576 -7.50183e-21)
(9.93296 0.128529 7.71702e-21)
(9.86792 0.17088 -1.27593e-22)
(9.77985 0.215357 4.42499e-21)
(9.67016 0.261 4.14208e-21)
(9.53922 0.307048 -3.2944e-21)
(9.38749 0.353244 1.16123e-21)
(9.21581 0.399785 -1.40765e-20)
(9.02504 0.447251 7.3422e-21)
(8.81576 0.496514 -2.02763e-20)
(8.58811 0.548611 5.23796e-21)
(8.34177 0.60462 -1.03937e-22)
(8.07601 0.665563 2.30562e-20)
(7.78973 0.732322 1.21791e-20)
(7.48156 0.80559 -3.82333e-20)
(7.14991 0.885817 0)
(6.79311 0.97316 -5.74663e-20)
(6.40947 1.06743 5.92079e-20)
(5.99747 1.16802 0)
(5.55582 1.27386 2.72862e-19)
(5.08371 1.38334 1.4993e-19)
(4.58091 1.49433 -3.02228e-19)
(4.04805 1.60413 8.23605e-19)
(3.48675 1.70967 -1.57535e-18)
(2.90188 1.80741 -7.69348e-19)
(2.27387 1.89701 1.61155e-18)
(1.77765 1.95726 2.20618e-18)
(0.737657 2.03787 1.20309e-20)
(0.902892 2.05438 3.12656e-18)
(9.98898 0.0530331 -7.75464e-21)
(9.97077 0.104628 7.81043e-21)
(9.93099 0.156297 -2.70184e-23)
(9.86721 0.210395 0)
(9.78119 0.267271 0)
(9.67411 0.325942 -8.44142e-21)
(9.54638 0.385395 7.58136e-21)
(9.39847 0.445168 1.11299e-21)
(9.23119 0.505405 9.28956e-21)
(9.04539 0.566778 0)
(8.8416 0.630358 1.00035e-20)
(8.61997 0.697451 1.04978e-20)
(8.38018 0.769441 -1.05493e-20)
(8.1215 0.847666 -1.11889e-20)
(7.8428 0.933313 0)
(7.54265 1.02735 5.04837e-20)
(7.21937 1.13047 -2.55705e-20)
(6.8711 1.24302 -5.55089e-20)
(6.49591 1.36491 5.70261e-20)
(6.09189 1.49558 6.05292e-20)
(5.65726 1.63384 3.24696e-19)
(5.19058 1.77783 -3.38313e-19)
(4.69088 1.92486 0)
(4.15802 2.07147 7.65071e-20)
(3.59277 2.21336 0)
(3.00064 2.34521 0)
(2.35639 2.46521 1.87747e-19)
(1.84576 2.55034 0)
(0.80685 2.64167 1.77235e-18)
(0.905244 2.64879 -2.64187e-18)
(9.98867 0.0605073 -1.53791e-20)
(9.97 0.121197 -7.79964e-21)
(9.93056 0.183516 -8.14927e-21)
(9.86829 0.249153 2.50008e-22)
(9.78467 0.318231 0)
(9.68068 0.389622 8.3943e-21)
(9.55671 0.462081 -8.61792e-21)
(9.41325 0.534971 -8.82338e-21)
(9.25113 0.608406 4.6065e-21)
(9.07115 0.683165 -4.68552e-21)
(8.87386 0.760526 -9.75828e-21)
(8.65939 0.842069 2.02653e-20)
(8.42744 0.929489 1.06305e-20)
(8.17727 1.02445 0)
(7.90774 1.12845 -2.29098e-20)
(7.61736 1.24278 2.64679e-22)
(7.30433 1.36839 -5.03786e-20)
(6.96662 1.5059 0)
(6.602 1.65543 2.75186e-20)
(6.20812 1.81653 -8.38232e-22)
(5.78263 1.98807 -1.22627e-19)
(5.32329 2.16801 2.61792e-19)
(4.82823 2.35329 5.84516e-21)
(4.29623 2.53965 -9.45244e-19)
(3.72681 2.72154 6.10231e-19)
(3.1258 2.8916 0)
(2.46257 3.04564 -1.76984e-19)
(1.92839 3.15923 0)
(0.885826 3.26293 0)
(0.904149 3.25637 1.96674e-19)
(9.98859 0.0682122 1.53692e-20)
(9.96998 0.137649 -1.56824e-20)
(9.93129 0.21008 1.5873e-20)
(9.87082 0.286802 1.6123e-20)
(9.78997 0.36763 -2.50464e-22)
(9.68955 0.451244 1.70433e-20)
(9.56993 0.536195 -5.2782e-22)
(9.43164 0.621692 8.75502e-21)
(9.27548 0.707815 0)
(9.10226 0.795437 4.6852e-21)
(8.91253 0.886033 4.88408e-21)
(8.70644 0.981449 -2.00064e-20)
(8.4837 1.08369 0)
(8.24359 1.19474 2.17374e-20)
(7.98498 1.31644 2.25955e-20)
(7.70633 1.45042 2.34598e-20)
(7.40575 1.59798 4.8627e-20)
(7.08103 1.76004 1.02832e-19)
(6.72963 1.93705 -1.31789e-19)
(6.34874 2.12885 -5.6047e-20)
(5.93534 2.33449 -3.0264e-20)
(5.48629 2.55201 1.21016e-19)
(4.99852 2.77817 -2.5999e-19)
(4.46939 3.0081 2.68626e-19)
(3.89658 3.2351 3.54189e-20)
(3.28545 3.44971 -3.06592e-19)
(2.60033 3.64468 -4.32928e-21)
(2.03195 3.79411 7.39359e-19)
(0.976136 3.91663 2.67929e-21)
(0.899631 3.89795 -5.85429e-19)
(9.98867 0.0759156 -1.52065e-20)
(9.97046 0.1538 1.54187e-20)
(9.9329 0.235831 -1.51057e-20)
(9.87457 0.32313 -5.80681e-22)
(9.79686 0.415217 -1.60074e-20)
(9.70049 0.510541 -1.04326e-22)
(9.58581 0.607446 0)
(9.45335 0.704988 0)
(9.30394 0.803211 4.45871e-21)
(9.13839 0.903077 -2.26752e-20)
(8.95726 1.00625 9.50213e-21)
(8.76074 1.11483 -9.65197e-21)
(8.54857 1.23112 0)
(8.32008 1.35746 3.61517e-22)
(8.07416 1.49602 -2.13896e-20)
(7.80927 1.64881 -2.23092e-20)
(7.52348 1.8175 -7.10118e-20)
(7.21441 2.00345 4.82349e-20)
(6.87926 2.20754 2.5121e-20)
(6.51476 2.43004 0)
(6.1172 2.67045 -2.78654e-20)
(5.68241 2.92715 0)
(5.20591 3.19708 0)
(4.68322 3.47517 -1.55617e-20)
(4.10945 3.75392 -3.01401e-19)
(3.48835 4.02203 2.78231e-19)
(2.77935 4.2688 -3.65822e-20)
(2.16623 4.46654 -4.03481e-20)
(1.08443 4.6209 0)
(0.895583 4.60638 -1.79752e-19)
(9.98884 0.0834686 1.51967e-20)
(9.97131 0.169481 -1.52259e-20)
(9.93521 0.260621 0)
(9.87934 0.357963 -3.17587e-20)
(9.80513 0.460769 1.64357e-20)
(9.71327 0.567236 -1.62466e-20)
(9.60408 0.67549 0)
(9.47811 0.784443 1.68685e-20)
(9.3362 0.8941 0)
(9.17918 1.0055 1.34669e-20)
(9.00763 1.12048 4.57267e-21)
(8.8218 1.2414 0)
(8.6215 1.37086 -3.93519e-20)
(8.40613 1.5115 -9.60707e-23)
(8.17465 1.66588 2.08201e-20)
(7.92557 1.83638 -4.397e-20)
(7.65696 2.02513 1.1248e-19)
(7.36636 2.23397 -1.16508e-19)
(7.05079 2.46432 7.23545e-20)
(6.70657 2.71713 -1.51042e-19)
(6.32935 2.99256 -2.03704e-21)
(5.91391 3.28976 8.04321e-20)
(5.45421 3.60632 0)
(4.94353 3.93764 1.32759e-19)
(4.37371 4.27613 -1.24925e-19)
(3.74537 4.6094 -3.22365e-20)
(3.01291 4.92335 6.79183e-20)
(2.34683 5.18787 0)
(1.2281 5.39379 0)
(0.90434 5.40907 -2.51275e-19)
(9.98908 0.090768 1.54733e-20)
(9.97244 0.184549 1.47318e-20)
(9.93809 0.284305 0)
(9.88498 0.391129 1.65087e-20)
(9.81463 0.504066 -1.47232e-21)
(9.7277 0.621054 4.97648e-22)
(9.62451 0.739998 0)
(9.50563 0.859666 -1.77978e-20)
(9.3719 0.980019 -1.08973e-21)
(9.2242 1.10217 2.40356e-20)
(9.06315 1.22811 -1.35649e-20)
(8.88907 1.36043 9.2087e-21)
(8.70185 1.502 1.9257e-20)
(8.50102 1.6558 1.98655e-20)
(8.28565 1.82474 2.01475e-20)
(8.05437 2.0116 0)
(7.80533 2.21898 -4.32514e-20)
(7.53611 2.44927 5.12724e-22)
(7.24364 2.70459 0)
(6.92402 2.98667 -4.78944e-20)
(6.57236 3.29671 2.4438e-20)
(6.18254 3.63503 7.65088e-20)
(5.74692 4.00055 -5.16734e-20)
(5.25637 4.39006 5.41728e-20)
(4.69882 4.79707 -5.18005e-20)
(4.07005 5.20948 -1.41198e-20)
(3.3186 5.61069 0)
(2.59435 5.96758 0)
(1.42691 6.2524 -1.65976e-20)
(0.938445 6.31966 -7.7202e-20)
(9.98938 0.0977382 1.47877e-20)
(9.97377 0.198886 0)
(9.94141 0.306749 -1.5106e-20)
(9.89136 0.422469 9.61072e-22)
(9.82518 0.544906 -9.68105e-22)
(9.74356 0.671746 -1.57132e-20)
(9.64684 0.800672 1.5995e-20)
(9.53558 0.930302 -5.15686e-22)
(9.41067 1.06055 5.21165e-22)
(9.273 1.19258 -1.7284e-20)
(9.12328 1.32854 0)
(8.96188 1.4712 1.79649e-20)
(8.78886 1.62372 9.37379e-21)
(8.60388 1.78936 -9.48239e-21)
(8.40617 1.97138 -1.98284e-20)
(8.19458 2.17295 0)
(7.96742 2.39716 2.09739e-20)
(7.72246 2.64699 2.15578e-20)
(7.45671 2.9253 0)
(7.16627 3.23484 0)
(6.846 3.57806 2.33167e-20)
(6.48917 3.95692 4.72521e-20)
(6.08686 4.37247 -4.77499e-20)
(5.62761 4.82404 -2.99489e-21)
(5.0952 5.308 -1.26381e-20)
(4.47881 5.81496 1.99163e-20)
(3.71949 6.32834 -1.20299e-19)
(2.93682 6.8132 6.18794e-21)
(1.70427 7.21996 1.33812e-19)
(1.01119 7.36983 3.12077e-20)
(9.98972 0.104322 -2.20111e-22)
(9.97528 0.212394 -2.87729e-20)
(9.94511 0.327832 1.31979e-20)
(9.89836 0.451837 9.46247e-22)
(9.83664 0.58311 0)
(9.76068 0.719093 1.436e-22)
(9.67082 0.857245 -1.59068e-20)
(9.56766 0.996036 -1.61011e-20)
(9.45211 1.13532 1.09899e-21)
(9.3251 1.27631 -1.04558e-21)
(9.18741 1.42125 0)
(9.03954 1.57313 -3.5268e-20)
(8.88169 1.73529 0)
(8.71369 1.91129 0)
(8.53504 2.10469 0)
(8.34484 2.31903 0)
(8.1417 2.55787 0)
(7.92372 2.82477 0)
(7.68823 3.12339 -2.08342e-20)
(7.43162 3.45754 2.4839e-22)
(7.14895 3.83114 -1.10378e-20)
(6.83338 4.24822 2.16592e-20)
(6.4754 4.71265 -5.52303e-21)
(6.06196 5.22764 1.95691e-20)
(5.5732 5.79471 -1.05632e-20)
(4.99084 6.41096 5.40569e-20)
(4.24651 7.06542 -1.2654e-19)
(3.41789 7.72786 -5.83128e-21)
(2.10512 8.33069 1.98523e-19)
(1.1516 8.63579 -1.36189e-19)
(9.99009 0.110474 -2.95291e-20)
(9.97692 0.224994 2.87474e-20)
(9.94911 0.34745 2.79127e-21)
(9.90587 0.479107 -1.86867e-20)
(9.84885 0.61852 -1.10976e-23)
(9.77884 0.7629 1.73446e-20)
(9.6962 0.909485 0)
(9.60153 1.05659 1.59396e-20)
(9.4958 1.20401 0)
(9.37997 1.35297 -1.63541e-20)
(9.25492 1.50581 -2.11477e-21)
(9.12127 1.66566 1.94533e-20)
(8.97938 1.83606 0)
(8.82934 2.02079 2.67622e-20)
(8.67091 2.22367 -9.09336e-21)
(8.50355 2.44857 1.84248e-20)
(8.32629 2.69944 1.87364e-20)
(8.1377 2.9804 -1.94133e-20)
(7.93571 3.29585 1.9496e-20)
(7.71735 3.65062 3.01322e-20)
(7.4784 4.05018 -3.01859e-20)
(7.21273 4.50078 2.31459e-22)
(6.9114 5.00965 0)
(6.56129 5.58502 1.99615e-20)
(6.14103 6.23596 1.88759e-20)
(5.62629 6.97104 -2.96015e-21)
(4.93992 7.79467 3.73972e-20)
(4.10712 8.69866 -1.53773e-19)
(2.7198 9.62428 7.80746e-20)
(1.42829 10.2673 -2.23292e-21)
(9.99048 0.11616 -9.10839e-22)
(9.97867 0.236621 -9.15263e-22)
(9.95335 0.365518 -2.74693e-20)
(9.91379 0.504173 2.78016e-20)
(9.86169 0.651009 1.86719e-21)
(9.79786 0.803016 0)
(9.7227 0.957215 -1.92545e-21)
(9.63686 1.11177 1.74149e-20)
(9.5413 1.26639 0)
(9.43708 1.42229 1.62307e-20)
(9.32513 1.58188 1.5766e-20)
(9.20622 1.74841 1.7096e-20)
(9.08093 1.92556 0)
(8.94958 2.11727 -2.18906e-20)
(8.81228 2.32756 8.82232e-21)
(8.66888 2.56057 -2.26108e-20)
(8.51895 2.82054 -2.75461e-20)
(8.3617 3.11202 9.14974e-21)
(8.19587 3.44002 0)
(8.01954 3.81026 4.65446e-21)
(7.82978 4.22955 -5.81018e-21)
(7.62215 4.70621 1.50469e-20)
(7.3898 5.25078 1.34364e-20)
(7.12212 5.8769 1.76961e-20)
(6.8004 6.60268 -1.75579e-20)
(6.4004 7.45259 3.20345e-20)
(5.84511 8.45865 -1.96383e-21)
(5.11077 9.66622 -8.35032e-20)
(3.73442 11.111 1.06223e-19)
(2.01137 12.5903 -5.36156e-20)
(9.9909 0.121352 0)
(9.9805 0.247223 0)
(9.95777 0.381961 2.92632e-20)
(9.92202 0.526935 -1.47287e-20)
(9.875 0.680444 0)
(9.81754 0.839266 -1.484e-20)
(9.75009 1.00022 -1.50056e-20)
(9.67331 1.1613 3.6427e-21)
(9.5882 1.32212 -1.92768e-20)
(9.49586 1.4839 1.76215e-20)
(9.39735 1.64906 -1.81471e-20)
(9.29356 1.82091 -1.66848e-20)
(9.18527 2.00324 -1.66301e-20)
(9.0731 2.20009 5.22355e-22)
(8.95751 2.41562 2.13412e-21)
(8.83881 2.65409 -4.30088e-21)
(8.71717 2.91997 1.92592e-20)
(8.59256 3.21804 1.49793e-20)
(8.46473 3.5537 2.18535e-21)
(8.3331 3.93323 0)
(8.19659 4.36436 0)
(8.05337 4.85686 -3.1967e-22)
(7.90032 5.42373 -1.69228e-20)
(7.73239 6.08291 0)
(7.53957 6.86033 0)
(7.30978 7.79602 3.1879e-21)
(6.99208 8.95447 -2.18671e-20)
(6.56917 10.462 3.85149e-20)
(5.57159 12.6041 -1.55441e-20)
(3.38085 16.4638 1.21849e-20)
(0.636832 0.218635 -1.77752e-18)
(-1.38292 0.209489 -1.37461e-18)
(-0.856129 0.210819 -5.07993e-19)
(-1.76364 0.187216 2.41487e-19)
(-2.07373 0.158897 4.1602e-21)
(-2.40592 0.110699 4.19975e-19)
(-2.62708 0.0535258 -1.49931e-19)
(-2.70677 -0.0102201 -4.61834e-20)
(-2.62939 -0.0795879 4.07494e-20)
(-2.38751 -0.147203 -9.77341e-20)
(-1.9941 -0.206937 3.78485e-20)
(-1.45156 -0.253734 -4.08927e-21)
(-0.804484 -0.283432 0)
(-0.0781995 -0.297527 -5.17438e-21)
(0.677336 -0.297823 4.77594e-21)
(1.45085 -0.287725 0)
(2.21271 -0.270534 5.41124e-22)
(2.94408 -0.248909 -5.07158e-22)
(3.63231 -0.224963 0)
(4.26942 -0.200326 2.7117e-23)
(4.85123 -0.17618 -2.58785e-23)
(5.37652 -0.153317 1.32528e-22)
(5.84619 -0.132218 9.66507e-23)
(6.26261 -0.113118 1.50547e-23)
(6.62906 -0.0960731 8.4485e-23)
(6.94922 -0.0810184 -7.50477e-23)
(7.22694 -0.0678136 -3.6935e-23)
(7.46594 -0.0562885 0)
(7.66983 -0.0463077 0)
(7.87832 -0.0385688 5.29982e-24)
(0.682124 0.687333 5.63946e-19)
(-1.38584 0.703297 2.60012e-19)
(-0.91744 0.657928 -2.45111e-19)
(-1.84935 0.606668 0)
(-2.18665 0.516782 0)
(-2.54342 0.380221 -5.04916e-19)
(-2.77586 0.212264 5.45622e-19)
(-2.85989 0.0223544 2.21251e-19)
(-2.77337 -0.180109 -1.28268e-20)
(-2.51083 -0.374252 -1.39104e-19)
(-2.08322 -0.545148 0)
(-1.50281 -0.676536 2.48712e-20)
(-0.814706 -0.762745 -2.87923e-20)
(-0.0521294 -0.806698 0)
(0.734995 -0.813801 7.30382e-21)
(1.53656 -0.7923 -6.80243e-21)
(2.32307 -0.750909 -5.74347e-22)
(3.07654 -0.696663 0)
(3.78503 -0.635182 0)
(4.44111 -0.570845 0)
(5.04097 -0.506879 0)
(5.58366 -0.445515 -3.57277e-22)
(6.07023 -0.388158 -1.2082e-22)
(6.50308 -0.335572 0)
(6.88545 -0.28804 8.82183e-23)
(7.22097 -0.245512 7.64177e-23)
(7.51339 -0.207716 4.27593e-23)
(7.76631 -0.174274 4.87042e-23)
(7.98288 -0.144849 0)
(8.20278 -0.120037 -5.2023e-24)
(0.603801 1.1785 0)
(-1.39695 1.22752 0)
(-1.05263 1.14293 2.30256e-19)
(-2.00841 1.05543 2.20058e-19)
(-2.40364 0.890101 6.10818e-19)
(-2.80458 0.653324 -6.03869e-19)
(-3.06285 0.35964 2.22769e-21)
(-3.15704 0.0273976 9.06731e-20)
(-3.05597 -0.325829 -1.54163e-19)
(-2.76026 -0.66203 1.51447e-19)
(-2.27666 -0.955149 -1.64251e-20)
(-1.64613 -1.17423 6.14939e-20)
(-0.905553 -1.31593 -7.76803e-20)
(-0.094364 -1.38431 2.07447e-20)
(0.726136 -1.39052 1.39177e-20)
(1.55308 -1.34992 -7.7226e-21)
(2.35661 -1.27683 -4.37776e-21)
(3.12053 -1.1829 -1.4676e-21)
(3.83444 -1.07746 1.39882e-21)
(4.49221 -0.967733 0)
(5.09119 -0.859038 -3.00608e-22)
(5.6313 -0.755015 6.51963e-22)
(6.11431 -0.657941 2.23901e-22)
(6.54316 -0.569031 5.39997e-23)
(6.92145 -0.488711 -3.98375e-22)
(7.25308 -0.416859 -1.25721e-24)
(7.54191 -0.35299 0)
(7.79161 -0.296423 -4.81879e-23)
(8.0052 -0.246416 0)
(8.2226 -0.202655 0)
(0.482976 1.75866 -5.60372e-18)
(-1.4167 1.81735 1.85846e-18)
(-1.28055 1.70136 0)
(-2.25821 1.56799 -1.64256e-18)
(-2.74219 1.31846 1.79303e-18)
(-3.20069 0.96741 -1.9065e-19)
(-3.48982 0.52932 -1.90346e-19)
(-3.5824 0.0295894 -1.76063e-19)
(-3.44729 -0.496436 -3.9824e-20)
(-3.08514 -0.993902 -1.31765e-19)
(-2.51956 -1.41414 1.46412e-19)
(-1.81173 -1.71944 -5.14031e-20)
(-0.997326 -1.91037 5.48033e-20)
(-0.123754 -1.99237 1.19005e-21)
(0.739026 -1.98626 0)
(1.5969 -1.91781 0)
(2.42023 -1.80636 0)
(3.19526 -1.66789 1.58681e-21)
(3.91373 -1.51518 0)
(4.57135 -1.35805 0)
(5.16694 -1.2036 0)
(5.70167 -1.05663 -4.95785e-22)
(6.17824 -0.920068 3.72089e-24)
(6.60026 -0.795394 0)
(6.97182 -0.683029 -1.97028e-22)
(7.29711 -0.582671 4.73321e-24)
(7.58018 -0.493545 -3.40808e-24)
(7.82477 -0.414607 0)
(8.03383 -0.344685 0)
(8.24697 -0.28287 1.92411e-23)
(0.335814 2.45363 -7.22667e-19)
(-1.46938 2.49843 1.11308e-19)
(-1.5892 2.35751 0)
(-2.60246 2.16191 -1.93276e-19)
(-3.1942 1.81009 0)
(-3.7119 1.3179 0)
(-4.02024 0.704204 1.88555e-19)
(-4.08445 0.00135057 8.46791e-20)
(-3.87812 -0.727787 3.73008e-20)
(-3.41433 -1.40169 1.44502e-19)
(-2.74812 -1.94717 -2.38051e-19)
(-1.94083 -2.33285 1.13307e-19)
(-1.04153 -2.56102 -1.37006e-21)
(-0.104638 -2.64198 0)
(0.801814 -2.61069 -1.76385e-21)
(1.68919 -2.50461 0)
(2.5297 -2.34743 0)
(3.31241 -2.15896 1.20214e-21)
(4.03157 -1.95511 -2.61609e-21)
(4.68497 -1.74796 1.73509e-21)
(5.2732 -1.54613 2.86696e-22)
(5.79878 -1.35533 1.17667e-21)
(6.26541 -1.1789 -2.7906e-22)
(6.67746 -1.01842 -6.28465e-23)
(7.03951 -0.874186 3.65615e-22)
(7.35604 -0.745615 2.69295e-22)
(7.63126 -0.631576 0)
(7.86899 -0.530623 0)
(8.07212 -0.441144 3.8569e-23)
(8.27955 -0.361726 -1.91007e-23)
(0.157792 3.28153 1.66461e-19)
(-1.5622 3.30264 -9.32651e-19)
(-1.9578 3.12975 -7.04322e-21)
(-3.01851 2.8484 -2.55928e-21)
(-3.71232 2.36628 7.34529e-19)
(-4.2719 1.69514 4.7799e-20)
(-4.56913 0.858502 -4.29096e-20)
(-4.56551 -0.0885896 3.32711e-19)
(-4.24714 -1.04982 -3.12242e-19)
(-3.65815 -1.90407 -1.40595e-19)
(-2.87363 -2.56909 2.24207e-20)
(-1.96362 -3.02016 1.61221e-19)
(-0.982019 -3.26694 -8.8704e-21)
(0.00373269 -3.329 -3.87163e-20)
(0.946461 -3.25931 1.65292e-21)
(1.85395 -3.10535 0)
(2.70272 -2.89471 0)
(3.48474 -2.65067 0)
(4.19689 -2.39189 -2.235e-21)
(4.83917 -2.13237 -3.36175e-21)
(5.41394 -1.8819 2.80443e-22)
(5.92507 -1.64678 -1.01166e-21)
(6.37725 -1.43055 -2.83985e-22)
(6.7755 -1.23469 6.2084e-22)
(7.12481 -1.05921 -3.99167e-22)
(7.42989 -0.903147 -2.65558e-22)
(7.69504 -0.764943 0)
(7.92408 -0.642702 0)
(8.1198 -0.534363 -3.8218e-23)
(8.32005 -0.43803 0)
(-0.0400254 4.24616 -1.03038e-21)
(-1.68844 4.23644 1.00475e-19)
(-2.33628 4.01441 0)
(-3.43889 3.62096 3.62149e-19)
(-4.20453 2.96935 6.28607e-22)
(-4.77123 2.0687 -7.85045e-19)
(-5.01576 0.958518 3.50363e-19)
(-4.89578 -0.276166 0)
(-4.43788 -1.48423 -1.34248e-19)
(-3.71407 -2.51194 1.39124e-19)
(-2.81212 -3.28054 -7.01912e-21)
(-1.81336 -3.77488 -4.99349e-20)
(-0.766653 -4.0166 4.13694e-20)
(0.241077 -4.04135 0)
(1.20364 -3.92224 3.24978e-21)
(2.11447 -3.71142 -1.37023e-20)
(2.95656 -3.44066 8.42634e-21)
(3.72476 -3.13652 0)
(4.41847 -2.82005 4.31262e-21)
(5.03988 -2.50676 1.62841e-21)
(5.59302 -2.20724 -1.24919e-21)
(6.08294 -1.92808 0)
(6.51512 -1.67275 0)
(6.89506 -1.44244 -5.1914e-22)
(7.22798 -1.23675 3.88648e-22)
(7.51866 -1.05425 -1.01204e-23)
(7.77136 -0.892876 -3.54875e-22)
(7.98981 -0.750272 -2.22277e-22)
(8.17663 -0.623919 8.63666e-23)
(8.36824 -0.51145 -4.12065e-25)
(-0.229968 5.32273 1.66076e-18)
(-1.80549 5.2774 -7.93221e-20)
(-2.6384 4.9829 -1.1105e-20)
(-3.75711 4.44548 0)
(-4.54833 3.5816 0)
(-5.07878 2.40175 1.919e-19)
(-5.22502 0.97009 -1.86474e-19)
(-4.94723 -0.58631 -1.19634e-20)
(-4.34172 -2.03905 -1.95889e-20)
(-3.48967 -3.22157 -1.26427e-19)
(-2.49346 -4.06677 2.42236e-19)
(-1.43564 -4.57779 -1.11046e-19)
(-0.358969 -4.78838 5.13791e-21)
(0.640837 -4.76072 0)
(1.59814 -4.58423 -1.40824e-20)
(2.48977 -4.30979 6.83754e-21)
(3.30533 -3.97411 1.1769e-20)
(4.04257 -3.60707 2.76445e-21)
(4.70333 -3.23175 -4.19062e-21)
(5.2918 -2.86472 -7.09686e-22)
(5.8134 -2.51699 3.13716e-21)
(6.27412 -2.19511 -9.32654e-22)
(6.67992 -1.90224 -3.83965e-23)
(7.03649 -1.63911 4.15147e-23)
(7.34902 -1.40479 -3.51847e-24)
(7.62215 -1.19732 0)
(7.85994 -1.01413 -1.0625e-23)
(8.06585 -0.852354 2.11165e-22)
(8.24227 -0.709051 6.10543e-24)
(8.42377 -0.58139 0)
(-0.368137 6.45982 -8.6576e-19)
(-1.84059 6.37506 0)
(-2.76511 5.98231 0)
(-3.85361 5.27213 0)
(-4.61446 4.15824 1.00769e-19)
(-5.05928 2.65449 0)
(-5.05402 0.857037 1.38011e-19)
(-4.60811 -1.03152 -4.26079e-19)
(-3.86671 -2.70769 1.82614e-19)
(-2.91625 -4.01204 1.83765e-20)
(-1.86659 -4.90041 -7.34174e-21)
(-0.785905 -5.39715 0)
(0.25037 -5.552 0)
(1.22576 -5.46686 0)
(2.14618 -5.22677 0)
(2.992 -4.88429 -4.57354e-21)
(3.75766 -4.48134 -6.51928e-21)
(4.44398 -4.05094 3.0797e-21)
(5.05517 -3.61772 2.02461e-21)
(5.59709 -3.19884 0)
(6.07623 -2.80532 9.61259e-22)
(6.49905 -2.44334 1.07036e-21)
(6.87164 -2.11554 1.19441e-22)
(7.1995 -1.82204 -1.07452e-21)
(7.4875 -1.56132 0)
(7.73988 -1.33084 0)
(7.96027 -1.12753 3.83958e-22)
(8.15172 -0.948072 -2.44474e-22)
(8.31626 -0.789096 -1.88828e-22)
(8.48625 -0.647352 1.1345e-24)
(-0.419468 7.59305 -7.40934e-20)
(-1.71968 7.4509 -1.8563e-19)
(-2.62413 6.94176 1.78193e-19)
(-3.61828 6.04303 0)
(-4.28942 4.6526 -2.09391e-19)
(-4.59834 2.78998 0)
(-4.37999 0.595444 1.30424e-19)
(-3.78418 -1.60563 -5.10903e-21)
(-2.94808 -3.46272 4.65429e-20)
(-1.95119 -4.84714 -1.81306e-20)
(-0.905514 -5.74125 9.11449e-20)
(0.127174 -6.18886 -2.25874e-20)
(1.08957 -6.28244 -4.29432e-20)
(2.00639 -6.13693 -7.50644e-21)
(2.85503 -5.8287 0)
(3.62505 -5.41648 1.2062e-20)
(4.31515 -4.9469 -7.64435e-21)
(4.92912 -4.45551 2.64678e-21)
(5.47322 -3.96787 0)
(5.95455 -3.50121 -6.8178e-22)
(6.38012 -3.0661 -4.05274e-21)
(6.75636 -2.66807 1.83335e-21)
(7.08898 -2.30906 -1.40084e-21)
(7.38293 -1.98851 -2.34941e-23)
(7.6424 -1.70427 0)
(7.87095 -1.45327 0)
(8.07157 -1.23194 -1.90713e-23)
(8.24675 -1.03655 1.95433e-23)
(8.39802 -0.863394 8.61213e-23)
(8.5552 -0.70884 0)
(-0.360882 8.61537 -2.31116e-20)
(-1.38784 8.39817 0)
(-2.13879 7.77088 0)
(-2.95747 6.68217 0)
(-3.46626 4.99642 1.75534e-19)
(-3.56397 2.74779 0)
(-3.09779 0.181254 -7.13578e-20)
(-2.40744 -2.27748 -5.1397e-21)
(-1.54886 -4.2587 -4.73023e-20)
(-0.578319 -5.67992 0)
(0.380316 -6.53105 -6.2692e-20)
(1.29349 -6.91428 3.61041e-20)
(2.16719 -6.95369 -1.64884e-20)
(2.98073 -6.74401 8.55561e-21)
(3.72062 -6.36646 0)
(4.38315 -5.8865 0)
(4.9713 -5.35461 9.41913e-21)
(5.49156 -4.80789 -8.97148e-21)
(5.95163 -4.27213 1.11541e-21)
(6.35911 -3.76404 -3.35438e-22)
(6.72082 -3.29337 2.78411e-21)
(7.04257 -2.8648 -1.91576e-21)
(7.32917 -2.47943 2.84639e-21)
(7.58458 -2.136 9.06406e-22)
(7.81198 -1.83177 8.52361e-22)
(8.01399 -1.56319 0)
(8.19277 -1.32628 -3.93892e-22)
(8.35007 -1.117 2.31123e-22)
(8.48686 -0.931348 -1.10773e-22)
(8.63005 -0.765408 0)
(-0.186324 9.37428 0)
(-0.816936 9.08498 -1.22912e-20)
(-1.26537 8.36182 2.63392e-20)
(-1.83414 7.11001 5.97249e-20)
(-2.11209 5.1972 -6.81742e-20)
(-1.86064 2.59415 -1.46236e-19)
(-1.14221 -0.313848 4.52631e-20)
(-0.464914 -2.98178 6.60199e-20)
(0.33098 -5.05169 0)
(1.143 -6.40589 0)
(1.95638 -7.2124 5.84222e-20)
(2.73901 -7.55353 -4.48517e-20)
(3.46972 -7.53432 1.75322e-20)
(4.13378 -7.25867 2.52093e-20)
(4.72636 -6.81522 -1.184e-20)
(5.24991 -6.27429 0)
(5.71109 -5.68866 -3.4356e-21)
(6.11818 -5.09591 -1.71439e-21)
(6.47937 -4.52126 -1.09306e-21)
(6.80178 -3.98041 -1.65456e-22)
(7.09121 -3.482 1.58092e-22)
(7.35215 -3.0297 8.07268e-24)
(7.58798 -2.6238 -1.3741e-21)
(7.80124 -2.26239 9.56856e-22)
(7.99382 -1.94224 -6.67381e-22)
(8.16719 -1.65942 0)
(8.32248 -1.40968 4.29811e-22)
(8.46062 -1.18874 -5.13258e-23)
(8.58193 -0.992449 3.59291e-22)
(8.71015 -0.816669 -1.73626e-24)
(0.0882565 9.72126 0)
(-0.0260333 9.40809 1.26229e-20)
(-0.00789786 8.70149 -2.79488e-20)
(-0.245396 7.40736 -6.6441e-20)
(-0.0702241 5.12864 8.99047e-20)
(0.591585 2.08062 -2.49993e-19)
(1.36909 -0.935371 4.76084e-20)
(1.92439 -3.58003 3.60444e-20)
(2.54808 -5.61736 -2.45274e-20)
(3.20108 -6.99567 -1.64015e-20)
(3.83928 -7.77647 -2.66365e-20)
(4.43121 -8.06631 4.18139e-20)
(4.9635 -7.98679 -1.61528e-20)
(5.43243 -7.65031 0)
(5.84138 -7.1508 0)
(6.1979 -6.56126 1.72676e-21)
(6.51106 -5.93513 -1.74122e-21)
(6.78959 -5.30934 -4.79174e-21)
(7.0408 -4.70785 -2.08443e-22)
(7.27025 -4.14497 -2.75058e-21)
(7.48178 -3.62811 0)
(7.67787 -3.15997 1.99515e-22)
(7.85997 -2.74012 -2.00396e-22)
(8.02888 -2.36616 -1.17346e-21)
(8.18495 -2.03453 2.04534e-22)
(8.32833 -1.74108 -1.49397e-22)
(8.45907 -1.48145 1.03549e-22)
(8.57718 -1.25127 -4.12658e-23)
(8.6823 -1.04629 -2.38569e-22)
(8.79483 -0.862313 3.92947e-24)
(0.467074 9.47822 0)
(1.00412 9.21398 -2.07966e-19)
(1.58757 8.59984 2.09236e-19)
(1.87726 7.2339 1.95693e-19)
(2.54058 4.86792 -7.57034e-20)
(3.42716 1.87876 9.78474e-20)
(4.1091 -1.28194 -3.31803e-20)
(4.6159 -4.01865 2.77505e-20)
(5.10351 -6.08425 -1.17986e-21)
(5.55879 -7.44025 3.61247e-20)
(5.96122 -8.1736 -9.04348e-21)
(6.3034 -8.40868 -1.3912e-20)
(6.5882 -8.27542 -3.41451e-21)
(6.82355 -7.89127 7.39082e-22)
(7.02021 -7.35254 4.80709e-21)
(7.18929 -6.73256 -4.72495e-22)
(7.34053 -6.0837 -7.57717e-21)
(7.48142 -5.4412 4.63883e-21)
(7.61697 -4.82726 3.69621e-21)
(7.74997 -4.25466 5.81481e-21)
(7.8815 -3.72968 0)
(8.01145 -3.25423 -2.01475e-21)
(8.139 -2.82741 1.61711e-21)
(8.26295 -2.44656 -1.3289e-21)
(8.38202 -2.10804 4.14721e-22)
(8.49498 -1.80769 -1.13632e-22)
(8.60075 -1.54118 -6.3551e-23)
(8.69844 -1.30419 -5.11652e-22)
(8.78701 -1.09255 -2.01267e-23)
(8.88339 -0.90206 -4.4011e-24)
(1.08595 8.27445 0)
(2.38213 8.40535 1.12837e-20)
(3.47896 8.01907 1.04899e-19)
(4.29008 6.66463 -1.66885e-19)
(5.2428 4.33184 6.88318e-20)
(6.32602 1.31604 7.58227e-20)
(7.05223 -1.78451 -1.72523e-19)
(7.53113 -4.43298 2.40411e-20)
(7.86413 -6.41222 -5.40155e-20)
(8.0805 -7.69436 0)
(8.20197 -8.36339 0)
(8.25292 -8.54562 -1.75721e-20)
(8.25719 -8.37249 0)
(8.23549 -7.96128 -1.11645e-20)
(8.20492 -7.40667 5.01635e-22)
(8.1783 -6.77946 -7.6282e-21)
(8.16405 -6.12926 5.87059e-21)
(8.16665 -5.48882 -4.95992e-21)
(8.18749 -4.87833 -3.35202e-21)
(8.2257 -4.30922 -2.86531e-21)
(8.27904 -3.78689 -2.80469e-21)
(8.34449 -3.31286 2.30031e-21)
(8.41882 -2.88609 -1.39579e-21)
(8.49883 -2.50401 1.07802e-21)
(8.58161 -2.16314 0)
(8.66461 -1.85955 0)
(8.74567 -1.58911 -4.77727e-22)
(8.82303 -1.34771 2.12331e-23)
(8.89503 -1.13136 0)
(8.9751 -0.935992 -4.3129e-23)
(9.99134 0.126113 0)
(9.98242 0.256941 0)
(9.96242 0.397018 0)
(9.93067 0.547756 -2.77939e-20)
(9.88896 0.707327 0)
(9.83818 0.872306 2.83918e-20)
(9.7788 1.0393 1.08381e-20)
(9.71151 1.20613 -1.09957e-20)
(9.63735 1.37232 1.48131e-20)
(9.55748 1.53901 -1.50284e-20)
(9.47303 1.70865 0)
(9.38507 1.88456 1.9225e-21)
(9.29459 2.07056 1.57126e-20)
(9.20249 2.27075 -1.95861e-21)
(9.10962 2.48931 1.6658e-20)
(9.01681 2.73056 -1.67613e-20)
(8.92486 2.99898 -1.63464e-20)
(8.83462 3.29944 -1.84056e-20)
(8.74698 3.63739 2.00698e-21)
(8.66294 4.01925 0)
(8.58365 4.45296 0)
(8.51058 4.94871 7.35763e-21)
(8.44563 5.52017 0)
(8.3919 6.18653 6.55561e-21)
(8.35384 6.97609 -2.6691e-20)
(8.34551 7.93356 -2.17835e-21)
(8.38344 9.13195 2.28587e-20)
(8.62256 10.707 -1.72684e-21)
(9.57292 12.8602 -8.57678e-21)
(10.4667 16.398 -9.52291e-21)
(9.9918 0.130447 0)
(9.98443 0.265768 0)
(9.96728 0.410656 -3.35698e-21)
(9.9397 0.566546 3.04863e-20)
(9.9035 0.731492 -3.03717e-20)
(9.85961 0.901872 -2.39292e-20)
(9.80855 1.07408 0)
(9.75103 1.24578 -6.98607e-21)
(9.68811 1.41636 7.02786e-21)
(9.62101 1.58689 7.14857e-21)
(9.55095 1.75978 -1.08115e-20)
(9.47915 1.93832 3.63921e-21)
(9.4068 2.12632 -1.82678e-20)
(9.33511 2.32784 3.71245e-21)
(9.26531 2.54702 -1.5192e-20)
(9.19871 2.78807 -3.28378e-21)
(9.1368 3.05536 3.76272e-21)
(9.08126 3.35354 0)
(9.03415 3.6878 0)
(8.99805 4.06417 -7.11682e-21)
(8.97636 4.48996 -6.90963e-21)
(8.97376 4.97437 -7.07447e-21)
(8.99713 5.52938 0)
(9.05732 6.17109 -6.27084e-21)
(9.17205 6.9215 -2.18881e-21)
(9.37664 7.81122 2.3902e-21)
(9.72483 8.87875 -7.29008e-22)
(10.3129 10.1724 0)
(11.4558 11.6221 0)
(12.6448 12.8051 -1.42273e-20)
(9.99229 0.134273 -2.56154e-20)
(9.98652 0.273555 3.22729e-21)
(9.97231 0.422666 -3.23866e-21)
(9.94904 0.583057 2.58544e-20)
(9.9185 0.752662 2.63145e-20)
(9.8817 0.927666 2.63162e-20)
(9.83915 1.10426 0)
(9.79161 1.27991 -1.32676e-20)
(9.74015 1.45389 -1.33838e-20)
(9.68601 1.62717 6.82861e-21)
(9.63053 1.80205 2.3391e-23)
(9.57503 1.98179 1.94594e-23)
(9.52091 2.17009 1.39984e-20)
(9.46965 2.37091 7.03355e-21)
(9.42282 2.58823 -2.09694e-20)
(9.38222 2.82606 2.14315e-20)
(9.34991 3.08845 1.38148e-20)
(9.32835 3.37964 1.36623e-20)
(9.32062 3.7042 -1.3608e-20)
(9.33062 4.06724 2.04134e-20)
(9.36355 4.4747 6.6767e-21)
(9.42651 4.93361 0)
(9.52956 5.45236 -5.54948e-21)
(9.68751 6.04078 -4.87305e-21)
(9.922 6.70955 2.27413e-20)
(10.2664 7.46807 -5.2302e-21)
(10.7635 8.31527 -8.75265e-21)
(11.4436 9.23408 5.47654e-22)
(12.4306 10.1558 -9.44646e-22)
(13.7759 10.8194 4.78899e-21)
(9.99279 0.137544 4.81829e-20)
(9.98867 0.280199 1.55932e-21)
(9.97747 0.432885 6.24934e-21)
(9.95858 0.597053 -5.64206e-20)
(9.93383 0.770522 0)
(9.90422 0.949291 -1.9087e-20)
(9.87032 1.12935 -6.27827e-21)
(9.83288 1.30798 1.29344e-20)
(9.79298 1.48431 1.30426e-20)
(9.75189 1.65916 0)
(9.711 1.83474 1.31327e-20)
(9.67176 2.01418 -1.46345e-22)
(9.63572 2.20106 -1.34475e-20)
(9.60457 2.39913 0)
(9.58022 2.61214 1.35235e-20)
(9.56481 2.84378 -1.30415e-20)
(9.5609 3.09764 -1.34141e-20)
(9.57156 3.37734 -1.32598e-20)