# vtk DataFile Version 4.2
vtk output
ASCII
DATASET STRUCTURED_POINTS
DIMENSIONS 102 2 2
SPACING 0.1 0 0
ORIGIN 0 0 0
CELL_DATA 101
FIELD FieldData 3
velocity 1 101 double
7 7.0151444559 7.0344144841 7.0550493947 7.0795653097 7.1054793984 7.1350155777 7.1659739413 7.2002868319 
7.2360341659 7.2748647969 7.3151286222 7.3582050906 7.4026989213 7.4497388111 7.4981652112 7.5488779133 7.6009313969 
7.6550203064 7.7103900444 7.7675546208 7.8259269266 7.8858646061 7.9469251814 8.0093331361 8.072769069 8.1373458094 
8.2028473234 8.2692941454 8.336556104 8.4045783829 8.4733015628 8.5426098975 8.6125020443 8.6828132585 8.7535899452 
8.82462795 8.8960132578 8.9675097851 9.0392368273 9.110932043 9.1827433518 9.2543863574 9.3260341546 9.3973833877 
9.4686297571 9.539453302 9.6100702794 9.6801460977 9.7499156949 9.8190317879 9.8877459637 9.9557004746 10.023161065 
10.089762333 10.15578095 10.220847525 10.285245435 10.348606055 10.411214042 10.472707595 10.533365817 10.592841275 
10.651399121 10.708715462 10.76503141 10.820057536 10.873999024 10.92661366 10.978056965 11.028148565 11.076978706 
11.124445339 11.170555995 11.215305239 11.258598693 11.300547516 11.340934626 11.380009257 11.41740946 11.453545248 
11.487886595 11.521027862 11.552247087 11.582346955 11.610389585 11.637409788 11.662230297 11.686140964 11.707702964 
11.728482382 11.746758856 11.764393198 11.779366785 11.793849811 11.805513124 11.816845849 11.825201838 11.833392171 
11.838454522 11.843516874 
pressure 1 101 double
-287.69134082 -285.99560768 -284.29987455 -282.1025461 -279.87497283 -277.19564263 -274.459888 -271.32014496 -268.10205125 
-264.52524443 -260.85247546 -256.86347136 -252.7651586 -248.39009658 -243.89649902 -239.16254961 -234.30473252 -229.23986216 
-224.04939889 -218.68214407 -213.19084403 -207.55009706 -201.7897618 -195.90456997 -189.90677839 -183.80615786 -177.60208051 
-171.31484593 -164.93508741 -158.48969803 -151.96416603 -145.38858872 -138.7463876 -132.06797696 -125.33732346 -118.58271902 
-111.79087746 -104.98591764 -98.159152016 -91.328804363 -84.492344762 -77.660651676 -70.838672505 -64.028711651 -57.244319433 
-50.47817772 -43.753406399 -37.05216641 -30.407978317 -23.791715955 -17.248006834 -10.735798908 -4.3114056207 2.0786539169 
8.3659442101 14.616720644 20.75016081 26.845448934 32.809322516 38.733812017 44.513424863 50.252661997 55.834335392 
61.374682061 66.745747755 72.07433906 77.22313642 82.327837792 87.243713115 92.113078099 96.786385998 101.40961576 
105.83172239 110.198628 114.36191574 118.46288434 122.36075733 126.18672339 129.81361301 133.35603588 136.70740539 
139.95825444 143.03060136 145.98234995 148.7732051 151.41883478 153.92675623 156.2597726 158.48433283 160.4987944 
162.44055893 164.13112048 165.79161595 167.15358735 168.53525731 169.56467919 170.67082551 171.36456245 172.1992708 
172.55512279 173.12317045 
crossSection 1 101 double
0.96831110417 0.96849345018 0.9686758477 0.96891227479 0.96915204451 0.969440558 0.9697352803 0.97007368984 0.97042072809 
0.97080666842 0.97120320277 0.97163415507 0.97207721534 0.97255052894 0.97303702619 0.97354993998 0.97407669631 0.97462635979 
0.97519013603 0.97577362959 0.97637115069 0.9769855051 0.97761348292 0.9782556978 0.97891085132 0.97957791251 0.98025698552 
0.98094588122 0.9816456574 0.98235339309 0.98307070885 0.98379432084 0.98452607591 0.98526264352 0.98600580966 0.98675246601 
0.98750409402 0.98825803539 0.98901526061 0.98977375448 0.99053380112 0.99129419272 0.99205437718 0.99281409487 0.99357182825 
0.99432838757 0.99508117759 0.99583218416 0.99657763663 0.99732078802 0.99805660802 0.99878969456 0.99951368742 1.0002345922 
1.0009446645 1.0016513627 1.002345523 1.0030360804 1.0037124404 1.0043850114 1.0050417871 1.0056946123 1.0063301253 
1.0069615288 1.0075742078 1.0081825944 1.0087709769 1.0093548288 1.0099175629 1.010475437 1.011011284 1.0115418084 
1.0120496445 1.0125515166 1.0130303354 1.013502319 1.013951234 1.0143921576 1.0148104043 1.0152191601 1.015606098 
1.0159816415 1.0163367556 1.0166781059 1.0170010081 1.0173072497 1.0175976788 1.0178679648 1.0181257862 1.0183593421 
1.0185845457 1.0187806758 1.018973373 1.0191314679 1.019291887 1.0194114328 1.019539912 1.0196205022 1.0197174814 
1.0197588297 1.0198248393 
