# vtk DataFile Version 4.2
vtk output
ASCII
DATASET STRUCTURED_POINTS
DIMENSIONS 102 2 2
SPACING 0.1 0 0
ORIGIN 0 0 0
CELL_DATA 101
FIELD FieldData 3
velocity 1 101 double
7.1468304511 7.1897821502 7.2363172901 7.2837908167 7.3344958407 7.3861690828 7.4407271074 7.4962675043 7.5543559674 
7.6134238491 7.6747168172 7.7369685105 7.8011387746 7.8662294387 7.9329504039 8.0005365721 8.0694839479 8.1392257621 
8.2100790645 8.2816421999 8.354086077 8.4271433626 8.5008687563 8.5751015077 8.6498066602 8.7249057472 8.8002970624 
8.8759637362 8.9517565105 9.0277030162 9.1036220474 9.1795720542 9.2553521373 9.3310410199 9.4064273393 9.4816023369 
9.5563507696 9.6307710484 9.704648392 9.7780850362 9.8508691728 9.9231051274 9.9945851351 10.065415121 10.135391347 
10.204621762 10.272905872 10.340354692 10.406769701 10.47226639 10.536646697 10.600032134 10.662223556 10.723349983 
10.783209806 10.841940802 10.899337843 10.955548324 11.010363013 11.063939252 11.116063742 11.166903407 11.216241697 
11.264253906 11.310721982 11.355827364 11.399353357 11.441484109 11.482008454 11.5211084 11.558583993 11.594608622 
11.629000967 11.661917451 11.693204788 11.722991968 11.751165367 11.777813706 11.802877122 11.826388609 11.848358882 
11.868746893 11.887653684 11.904942799 11.920828441 11.935054204 11.947973474 11.959182113 11.96920189 11.977449987 
11.9846488 11.990002939 11.994470382 11.997006765 11.998842773 11.998646821 11.997960794 11.995126762 11.992036527 
11.986667125 11.981297722 
pressure 1 101 double
-273.27848808 -268.94171656 -264.60494504 -259.86646232 -255.10078075 -249.98959225 -244.82941562 -239.37533599 -233.85576563 
-228.08918415 -222.24565398 -216.19731489 -210.06527172 -203.76607031 -197.3806909 -190.86148539 -184.25743173 -177.54887096 
-170.76008387 -163.89245045 -156.95198032 -149.95504917 -142.89492159 -135.79783366 -128.648947 -121.48009797 -114.27214943 
-107.05909315 -99.820529442 -92.589895782 -85.347884449 -78.125311188 -70.905728656 -63.715806692 -56.543239488 -49.409470403 
-42.307226298 -35.251991139 -28.242117205 -21.286655334 -14.389960261 -7.5543569248 -0.79043544285 5.9063834359 12.519125747 
19.059393056 25.503715982 31.870818547 38.130625662 44.309096201 50.369416382 56.344923357 62.191895999 67.951232234 
73.572096539 79.10316728 84.486255825 89.778066627 94.912803254 99.955447866 104.83234983 109.61699798 114.22768219 
118.74656695 123.08376008 127.33016424 131.38771638 135.35595721 139.12885875 142.81427038 146.29867137 149.69758415 
152.89081574 156.00053177 158.90112889 161.71989303 164.32761766 166.85458341 169.17044763 171.4056374 173.43192525 
175.37618502 177.11647184 178.77142033 180.23058845 181.59856145 182.78281043 183.86680124 184.78365103 185.58724862 
186.24553326 186.77286028 187.18270979 187.43836311 187.61117044 187.60016776 187.54853768 187.27627384 187.01395011 
186.48616782 186.02793474 
crossSection 1 101 double
0.96986259382 0.97033016089 0.97079806615 0.97130970007 0.97182467884 0.97237744833 0.97293599439 0.97352687631 0.97412540152 
0.97475130161 0.97538616922 0.97604394165 0.9767114966 0.97739796233 0.97809455833 0.97880652229 0.97952854545 0.98026281267 
0.98100670166 0.98176009224 0.9825223552 0.98329171818 0.98406894638 0.98485117257 0.9856400512 0.98643208489 0.98722940129 
0.98802825079 0.98883090043 0.98963364761 0.99043863817 0.99124244673 0.99204690075 0.99284902345 0.99365017973 0.9944479646 
0.99524317879 0.99603407431 0.99682081886 0.99760237823 0.99837824211 0.99914812676 0.99991081488 1.0006667973 1.0014141301 
1.0021540961 1.0028840094 1.0036059598 1.0043165044 1.0050185569 1.0057078994 1.0063882894 1.0070547126 1.0077117946 
1.0083536986 1.0089859471 1.0096018511 1.0102078614 1.0107964056 1.0113748949 1.0119348428 1.0124846505 1.0130148919 
1.0135349804 1.0140345344 1.0145239893 1.0149920077 1.0154500377 1.0158858085 1.0163117451 1.0167146966 1.0171079927 
1.017477697 1.0178379258 1.0181741028 1.018500955 1.0188034761 1.019096757 1.0193656486 1.0196252741 1.0198607206 
1.0200867125 1.0202890592 1.0204815393 1.0206512942 1.0208104782 1.0209483133 1.0210745038 1.0211812551 1.021274834 
1.0213515008 1.0214129218 1.0214606634 1.0214904451 1.0215105765 1.0215092947 1.0215032799 1.0214715628 1.0214410049 
1.0213795283 1.0213261573 
