# vtk DataFile Version 4.2
vtk output
ASCII
DATASET STRUCTURED_POINTS
DIMENSIONS 102 2 2
SPACING 0.1 0 0
ORIGIN 0 0 0
CELL_DATA 101
FIELD FieldData 3
velocity 1 101 double
8.2366442431 8.3191076993 8.4029913856 8.4867222834 8.5714771787 8.6561000137 8.7413905333 8.8265437043 8.9120475014 
8.997384587 9.082792685 9.1679833502 9.2530002031 9.3377307679 9.4220742709 9.5060479826 9.5894494493 9.6723865063 
9.7545906202 9.8362279941 9.9169927393 9.9970838466 10.076180419 10.154494688 10.231707393 10.308029769 10.383155904 
10.45728633 10.530136069 10.60188898 10.672285256 10.741489105 10.809267511 10.875764355 10.940773065 11.004418221 
11.066517943 11.127179736 11.186243701 11.243803286 11.299717284 11.354068565 11.406731019 11.45778065 11.507102737 
11.554770184 11.60067599 11.644893666 11.687320374 11.728033809 11.766931904 11.804099944 11.839433422 11.873028437 
11.904775013 11.934783089 11.962934372 11.989355476 12.01391711 12.036765197 12.057756953 12.077060011 12.094515798 
12.110315802 12.124283611 12.136636381 12.147178128 12.15615307 12.16334435 12.169024084 12.17295381 12.175433663 
12.176203612 12.175590985 12.173315231 12.169728832 12.164533083 12.158102036 12.150122878 12.140985701 12.130369755 
12.118673236 12.105576244 12.091474205 12.076060056 12.059712033 12.042151739 12.023721597 12.004192235 11.983846722 
11.962530359 11.940437643 11.917520245 11.893848443 11.86951878 11.844434515 11.818883074 11.79255009 11.765967983 
11.738545849 11.711123715 
pressure 1 101 double
-168.5217531 -160.54325407 -152.56475505 -144.50380401 -136.42771037 -128.31522201 -120.17921022 -112.04503491 -103.88484709 
-95.757743567 -87.607107152 -79.514716085 -71.405309117 -63.374126636 -55.335582046 -47.390933664 -39.450875227 -31.616891152 
-23.800993721 -16.100586888 -8.432653765 -0.88750184614 6.610447259 13.979914996 21.287551168 28.462161791 35.560754121 
42.522593905 49.394920671 56.127333557 62.757600418 69.245183086 75.618950481 81.84754531 87.951666499 93.908353781 
99.730924258 105.40401496 110.93433342 116.31336362 121.54190408 126.61763192 131.53602623 136.30043196 140.90146152 
145.34775071 149.625346 153.7479558 157.69720212 161.49180989 165.10895746 168.57249101 171.85496781 174.98561587 
177.93204131 180.7292631 183.33946076 185.80399299 188.07900094 190.21286067 192.15493773 193.96141962 195.57404641 
197.05771259 198.3455864 199.51224762 200.48127016 201.3379569 201.9952146 202.5501368 202.90387351 203.16636806 
203.22595021 203.2064153 202.98229004 202.69210578 202.19575289 201.6471878 200.89106637 200.09716959 199.09466075 
198.06914007 196.83448732 195.59157326 194.13982192 192.69411862 191.04105608 189.40737975 187.5694782 185.7626845 
183.75704744 181.7918494 179.63616326 177.52694197 175.23943337 173.0000441 170.59944294 168.24302018 165.74852779 
163.28729354 160.71855413 
crossSection 1 101 double
0.9812521549 0.98212781941 0.98300465659 0.9838917483 0.98478171117 0.98567690086 0.98657591279 0.98747595189 0.98838010737 
0.9892818319 0.9901874074 0.99108774225 0.99199120263 0.9928871662 0.99378516716 0.99467387634 0.9955632637 0.99644193896 
0.99731974534 0.99818571578 0.99904915553 0.99989986366 1.0007463266 1.0015793327 1.0024063772 1.0032193635 1.0040247095 
1.0048154831 1.0055970057 1.0063635018 1.0071192253 1.0078595098 1.0085876022 1.0092998736 1.0099986431 1.010681235 
1.0113491271 1.0120005097 1.0126361052 1.0132548879 1.0138569025 1.0144418357 1.0150091206 1.0155590984 1.0160906413 
1.0166047041 1.0170996315 1.0175769688 1.0180345484 1.0184745015 1.0188941452 1.0192962105 1.0196774775 1.0200413085 
1.0203839079 1.0207093181 1.0210131116 1.0213000761 1.0215650801 1.0218137363 1.0220401232 1.0222507714 1.0224388697 
1.0226119719 1.0227622662 1.0228984437 1.0230115726 1.0231116025 1.0231883562 1.0232531661 1.0232944826 1.0233251436 
1.0233321033 1.0233298214 1.023303642 1.0232697478 1.0232117766 1.023147713 1.0230594201 1.0229667284 1.0228496981 
1.0227300022 1.022585925 1.0224409144 1.0222715778 1.0221029886 1.0219102694 1.0217198639 1.0215057195 1.0212952652 
1.0210617259 1.0208329731 1.0205821356 1.0203367942 1.0200708147 1.0198105309 1.0195316202 1.0192579536 1.018968372 
1.0186827723 1.0183848258 
