# vtk DataFile Version 4.2
vtk output
ASCII
DATASET STRUCTURED_POINTS
DIMENSIONS 102 2 2
SPACING 0.1 0 0
ORIGIN 0 0 0
CELL_DATA 101
FIELD FieldData 3
velocity 1 101 double
9.0729490169 9.1630988877 9.2534150482 9.3430118028 9.43243482 9.5211509395 9.6094020299 9.6969298535 9.7837459938 
9.8697978029 9.9549311509 10.039238966 10.12245636 10.204771507 10.285854038 10.365946537 10.444689174 10.522347009 
10.598558274 10.67358659 10.747088247 10.819308518 10.889935283 10.95918448 11.026783739 11.092913529 11.157345047 
11.220221036 11.281356676 11.340857711 11.398581141 11.454598682 11.508805097 11.561242653 11.611838494 11.660611132 
11.707513823 11.752547742 11.795685445 11.836917615 11.876229004 11.913606866 11.949040931 11.982522151 12.014038031 
12.043590301 12.071157149 12.096758043 12.120354924 12.141991782 12.161607607 12.179277467 12.194910956 12.208620507 
12.220280195 12.230045761 12.237750018 12.243597558 12.247374655 12.249339779 12.249227965 12.247355957 12.243403561 
12.237749406 12.230014955 12.220643361 12.2091957 12.196181111 12.181099535 12.164526124 12.145900504 12.12586214 
12.103793041 12.080393225 12.054992008 12.028343767 11.999732666 11.969958406 11.938270576 11.905501872 11.870881393 
11.835258728 11.79786057 11.759533005 11.719522926 11.678647701 11.636202092 11.592944159 11.548249805 11.502781286 
11.456035049 11.408534626 11.359943035 11.310595274 11.26037401 11.209368625 11.157741892 11.105272959 11.052472734 
10.998737874 10.945003013 
pressure 1 101 double
-89.451106484 -80.844554026 -72.238001568 -63.717666558 -55.189893308 -46.780800481 -38.363297933 -30.089259437 -21.811032387 
-13.694676175 -5.5823190671 2.3548974357 10.277093531 18.014880593 25.724799874 33.244039198 40.721600643 48.004351768 
55.231363778 62.260869895 69.220886176 75.981576963 82.659758301 89.13724827 95.520233532 101.70131518 107.77710362 
113.64973541 119.40758137 124.9608711 130.39119143 135.61537595 140.70966982 145.59609214 150.34687273 154.88795779 
159.2886949 163.47792511 167.5229978 171.35488934 175.03954757 178.50962847 181.82996287 184.93475325 187.88767231 
190.62466729 193.20788114 195.57553672 197.78754685 199.78526874 201.62536312 203.25349838 204.72175147 205.98158265 
207.07885998 207.9726012 208.70056816 209.23136253 209.59249692 209.76441466 209.76202294 209.5800592 209.21829591 
208.68836748 207.97225765 207.10119767 206.03666176 204.83221139 203.42609234 201.89688847 200.15698049 198.31253825 
196.24761711 194.09830615 191.71816029 189.27517388 186.59063598 183.86595189 180.88893019 177.89526261 174.63877146 
171.38951308 167.86770196 164.37685568 160.60503604 156.88713596 152.8818049 148.95182641 144.73068636 140.60394562 
136.18591879 131.87796223 127.28319867 122.80968355 118.05956129 113.4361288 108.55324442 103.79538763 98.803535376 
93.926464597 88.850601766 
crossSection 1 101 double
0.98998242127 0.99093970423 0.99189837635 0.99284881583 0.99380145356 0.99474217673 0.99568517904 0.99661341671 0.9975434239 
0.99845651034 0.9993704002 1.0002657747 1.0011606552 1.0020358649 1.0029090645 1.0037617681 1.0046108243 1.0054387964 
1.0062614437 1.007062578 1.0078567358 1.0086290497 1.0093928099 1.0101344468 1.0108660633 1.0115752955 1.0122731738 
1.0129484036 1.0136110916 1.0142508529 1.0148770335 1.0154799917 1.0160684759 1.0166334279 1.0171831494 1.0177090235 
1.018219034 1.0187048888 1.0191743547 1.0196193784 1.0200475779 1.0204510878 1.0208374089 1.02119885 1.0215427892 
1.0218617341 1.0221628957 1.0224390436 1.0226971391 1.0229303157 1.0231451644 1.0233353212 1.0235068502 1.0236540646 
1.0237823101 1.0238867849 1.0239718932 1.0240339562 1.024076185 1.024096289 1.0240960093 1.0240747306 1.0240324283 
1.0239704667 1.0238867448 1.0237849211 1.0236605015 1.0235197564 1.0233554823 1.0231768733 1.0229737112 1.0227584091 
1.0225174511 1.0222667359 1.0219892017 1.0217044576 1.0213916964 1.0210744049 1.0207278974 1.0203796303 1.0200009901 
1.0196234008 1.0192143756 1.0188091895 1.018371662 1.0179406649 1.0174766534 1.0170216798 1.0165333382 1.0160562576 
1.0155458744 1.015048577 1.014518574 1.0140029556 1.0134558856 1.0129238315 1.012362375 1.0118157437 1.0112427044 
1.0106833114 1.0101016101 
