# vtk DataFile Version 4.2
vtk output
ASCII
DATASET STRUCTURED_POINTS
DIMENSIONS 102 2 2
SPACING 0.1 0 0
ORIGIN 0 0 0
CELL_DATA 101
FIELD FieldData 3
velocity 1 101 double
10 9.9119488982 9.8242237462 9.7375918122 9.651619474 9.5667379336 9.4828101443 9.4000020246 9.31840724 
9.2379857292 9.1590065788 9.0812732742 9.0051840456 8.9304271304 8.8574913213 8.7859837215 8.7164516934 8.6484492608 
8.5825560314 8.5182958029 8.456259009 8.3959575864 8.3379756499 8.2818277431 8.2280782673 8.1762554351 8.1268938543 
8.0795434743 8.0347019745 7.9919464629 7.9517331857 7.9136694831 7.8781680176 7.8448673467 7.8141365094 7.7856444056 
7.7597182995 7.7360549059 7.7149432475 7.6961038619 7.6797925562 7.6657484108 7.654200353 7.6448996027 7.6380556797 
7.6334245744 7.631204838 7.6311490483 7.6334540293 7.6378600987 7.6445722303 7.653309123 7.6642942442 7.6772149598 
7.6923238684 7.7092670973 7.7283371247 7.7491289189 7.771985502 7.796440939 7.8228991651 7.8508239858 7.8806900922 
7.9118822958 7.9449551067 7.97920649 8.015278777 8.0523764063 8.0912361633 8.1309637721 8.1723953968 8.2145347019 
8.2583200809 8.3026520132 8.3485715086 8.3948773576 8.4427106964 8.4907731658 8.5403002356 8.5899044115 8.6409059664 
8.691840198 8.7440984833 8.7961551776 8.8494544793 8.9024308106 8.9565579401 9.0102564757 9.0650011997 9.1192304424 
9.1743858668 9.2289607156 9.2843236355 9.3390657651 9.3944369894 9.4491751488 9.5043598114 9.558930042 9.6137379076 
9.6679836819 9.7222294562 
pressure 1 101 double
-1.8185528864 -10.052915087 -18.287277289 -26.379576827 -34.478113268 -42.402448333 -50.331926434 -58.061882986 -65.79025836 
-73.299265501 -80.795759174 -88.05742889 -95.292632097 -102.28108267 -109.22708204 -115.91724395 -122.54775984 -128.91566245 
-135.20619365 -141.22923073 -147.15719875 -152.81437064 -158.35925776 -163.63138803 -168.77486349 -173.64478794 -178.3708178 
-182.82354412 -187.11848076 -191.14131741 -194.99396581 -198.5766192 -201.9782779 -205.11291758 -208.05739305 -210.73868526 
-213.22227935 -215.44738967 -217.46886072 -219.23742742 -220.79792594 -222.11200592 -223.214987 -224.07897679 -224.73009125 
-225.15062578 -225.35759305 -225.34342525 -225.11589081 -224.67775523 -224.02713599 -223.17759956 -222.11692035 -220.87022352 
-219.41394799 -217.78583919 -215.94969826 -213.9572646 -211.75808542 -209.41958203 -206.87512021 -204.20980062 -201.33857817 
-198.36652747 -195.18767878 -191.92965103 -188.46277882 -184.94003999 -181.20508274 -177.43925983 -173.45637224 -169.46930918 
-165.25875641 -161.07237702 -156.6544437 -152.29062144 -147.68553592 -143.1659704 -138.39384433 -133.73994411 -128.82072755 
-124.0534987 -119.00695034 -114.14689038 -108.99256232 -104.05955905 -98.816795448 -93.830030148 -88.517978665 -83.495833534 
-78.133468284 -73.093437874 -67.699592341 -62.658199221 -57.251607245 -52.224322231 -46.823665038 -41.824832541 -36.448789548 
-31.491558923 -26.158859767 
crossSection 1 101 double
0.99979482986 0.99886661434 0.99793969086 0.99703001553 0.99612088379 0.99523251079 0.99434475027 0.99348047047 0.99261749347 
0.99178008843 0.9909451355 0.99013734201 0.98933347463 0.98855795178 0.98778804308 0.98704734195 0.98631406625 0.98561060217 
0.98491642401 0.98425245163 0.98359961493 0.98297720604 0.98236772398 0.98178874833 0.98122439444 0.98069050354 0.98017280435 
0.97968541836 0.97921564805 0.97877594581 0.97835512297 0.97796403505 0.97759292176 0.97725112664 0.97693022991 0.97663815306 
0.97636772858 0.97612554431 0.97590560255 0.97571323846 0.97554355282 0.9754006966 0.97528081358 0.97518692196 0.97511617292 
0.97507048241 0.97504799688 0.97504953608 0.9750742562 0.97512185938 0.97519255523 0.97528487686 0.97540016241 0.9755356924 
0.97569404172 0.97587112114 0.97607088477 0.97628772174 0.97652714276 0.97678182842 0.97705905814 0.97734958241 0.97766269543 
0.97798696251 0.97833397097 0.97868981443 0.97906868125 0.97945387867 0.97986252965 0.98027481671 0.98071115149 0.98114823555 
0.98161013711 0.98206971027 0.98255505311 0.98303480474 0.98354146161 0.98403909042 0.98456493755 0.98507816329 0.98562108413 
0.98614765886 0.98670554637 0.98724326552 0.98781402305 0.98836073613 0.98894227689 0.98949589808 0.99008614343 0.99064466183 
0.99124153836 0.99180302822 0.99240446387 0.99296709441 0.99357101382 0.99413305889 0.99473737809 0.99529722537 0.9958998462 
0.99645600592 0.99705481037 
