/*--------------------------------*- C++ -*----------------------------------*\
| =========                 |                                                 |
| \\      /  F ield         | OpenFOAM: The Open Source CFD Toolbox           |
|  \\    /   O peration     | Version:  4.1                                   |
|   \\  /    A nd           | Web:      www.OpenFOAM.org                      |
|    \\/     M anipulation  |                                                 |
\*---------------------------------------------------------------------------*/
FoamFile
{
    version     2.0;
    format      ascii;
    class       surfaceScalarField;
    location    "1.7";
    object      phi;
}
// * * * * * * * * * * * * * * * * * * * * * * * * * * * * * * * * * * * * * //

dimensions      [0 3 -1 0 0 0 0];

internalField   nonuniform List<scalar> 
5457
(
0.197498
0.00247504
0.194982
0.00249532
0.192426
0.00253989
0.189755
0.00265716
0.186955
0.00278775
0.184022
0.00292212
0.180948
0.0030644
0.177721
0.00321847
0.174328
0.00338682
0.17075
0.00357254
0.166971
0.00377617
0.162969
0.00400068
0.158719
0.00425063
0.154194
0.00452804
0.149361
0.00483697
0.144186
0.00518226
0.138625
0.00556946
0.13263
0.00600499
0.126147
0.00649606
0.119113
0.00705053
0.111457
0.00767639
0.103101
0.00838226
0.093955
0.00917854
0.0839178
0.0100777
0.0728721
0.0110939
0.0606857
0.0122423
0.0472032
0.0135434
0.0322496
0.0150102
0.0155568
0.0167123
0.0156451
0.199318
0.00313009
0.198148
0.00364498
0.19679
0.0038811
0.195264
0.00416967
0.193555
0.00448496
0.191658
0.00480877
0.189568
0.00514554
0.187276
0.00550248
0.184772
0.0058844
0.182046
0.00629353
0.179078
0.00674089
0.175845
0.00723242
0.172329
0.00776815
0.168503
0.00835675
0.164338
0.00900711
0.159797
0.00972942
0.15484
0.0105354
0.149416
0.011439
0.143469
0.012456
0.136929
0.013606
0.129716
0.0149093
0.121734
0.0163886
0.112869
0.0180743
0.102976
0.0200083
0.091863
0.0222519
0.0792651
0.0248894
0.0647948
0.0280648
0.0477592
0.0320917
0.0263758
0.0381053
0.0420892
0.199181
0.0039224
0.19809
0.0047151
0.196808
0.0051474
0.195376
0.005588
0.193787
0.00606175
0.192034
0.00655167
0.19011
0.00706054
0.188007
0.00759732
0.185717
0.00816897
0.183226
0.0087797
0.180519
0.00944422
0.17758
0.0101706
0.174388
0.0109605
0.170922
0.0118267
0.167151
0.0127824
0.163044
0.0138434
0.15856
0.0150279
0.153652
0.0163578
0.148262
0.0178585
0.142314
0.0195679
0.135715
0.0215253
0.128353
0.0237729
0.120079
0.0263748
0.110697
0.0294225
0.0999247
0.0330632
0.0873181
0.0375374
0.0721709
0.0432488
0.053393
0.0508928
0.0296014
0.0618915
0.0717604
0.19909
0.00480551
0.198003
0.00578137
0.196737
0.00639796
0.195319
0.00699334
0.193748
0.00761943
0.192022
0.00826784
0.190131
0.00894166
0.18807
0.00965069
0.185828
0.0104038
0.183394
0.0112091
0.180756
0.0120788
0.177902
0.0130231
0.174812
0.0140504
0.171467
0.015175
0.16784
0.0164141
0.1639
0.0177888
0.159611
0.0193245
0.154926
0.021052
0.149789
0.0230065
0.144129
0.0252401
0.137847
0.0278219
0.13081
0.0308274
0.122844
0.0343609
0.113695
0.038596
0.103007
0.0437784
0.0902568
0.0503174
0.0745588
0.0589711
0.0542601
0.0711926
0.0293481
0.0867858
0.10115
0.199041
0.00573767
0.197943
0.00685839
0.196687
0.00763925
0.195278
0.00838957
0.19372
0.00916439
0.192011
0.00996662
0.190141
0.0108017
0.188104
0.0116799
0.18589
0.0126113
0.183487
0.0136064
0.180885
0.0146774
0.17807
0.0158362
0.175025
0.0170956
0.17173
0.0184724
0.168161
0.0199878
0.164287
0.0216687
0.16007
0.0235469
0.155463
0.025665
0.150407
0.0280709
0.144838
0.0308193
0.138652
0.0340184
0.131696
0.0377949
0.12378
0.0422895
0.114621
0.047767
0.103791
0.0546192
0.0906776
0.0634388
0.0745055
0.0751454
0.0531529
0.0925284
0.0277191
0.1122
0.128825
0.199019
0.00669245
0.197911
0.0079463
0.19666
0.00887459
0.195262
0.00977367
0.193721
0.0106939
0.19203
0.0116465
0.190183
0.0126397
0.188171
0.0136844
0.185984
0.0147916
0.183612
0.015974
0.181041
0.0172447
0.178258
0.0186166
0.175246
0.0201068
0.171987
0.0217344
0.168455
0.0235259
0.164615
0.0255139
0.160432
0.0277339
0.155854
0.0302461
0.150815
0.0331138
0.145241
0.0363992
0.139028
0.0402364
0.13202
0.0448063
0.123994
0.0503166
0.114663
0.0570968
0.103585
0.0656896
0.0900518
0.0769519
0.073263
0.0919017
0.0511104
0.114638
0.0255881
0.137712
0.154294
0.199013
0.00765457
0.1979
0.009038
0.196659
0.0101
0.195279
0.0111396
0.193759
0.0122017
0.192094
0.0133015
0.190275
0.0144496
0.188293
0.0156577
0.186141
0.0169376
0.183804
0.0183052
0.181269
0.0197749
0.178522
0.0213596
0.175545
0.0230805
0.172325
0.0249583
0.16883
0.0270292
0.165015
0.0293327
0.160843
0.031907
0.156268
0.0348219
0.151224
0.0381571
0.145611
0.0420108
0.139327
0.0465185
0.132216
0.0519117
0.12403
0.0584902
0.114459
0.0666497
0.103033
0.0770869
0.0890966
0.0908444
0.0717098
0.10923
0.0488102
0.137477
0.0232783
0.163252
0.177486
0.199015
0.00861532
0.197907
0.010125
0.19668
0.0113099
0.195323
0.0124825
0.19383
0.013682
0.192195
0.0149254
0.19041
0.0162251
0.188467
0.0175932
0.186355
0.0190415
0.184061
0.0205928
0.181569
0.0222616
0.178865
0.0240585
0.175928
0.0260087
0.172744
0.0281396
0.169282
0.0304949
0.165496
0.0331182
0.161338
0.0360631
0.156765
0.0393922
0.151718
0.0431987
0.146083
0.0476386
0.139728
0.0528627
0.132493
0.059131
0.124133
0.0668264
0.114316
0.0764339
0.102565
0.0887919
0.0881635
0.105188
0.0704286
0.126904
0.0470159
0.160849
0.0211287
0.189188
0.198673
0.199025
0.00956796
0.197926
0.0112019
0.196717
0.0125011
0.195385
0.0137989
0.193924
0.0151309
0.192324
0.0165141
0.190577
0.017962
0.188675
0.0194869
0.186604
0.0211041
0.184353
0.0228371
0.181909
0.0246993
0.179258
0.0267054
0.176377
0.0288831
0.173235
0.0312712
0.169809
0.0339131
0.166071
0.0368517
0.161962
0.0401677
0.157417
0.0439291
0.152371
0.0482354
0.14672
0.0532757
0.14032
0.0592446
0.132994
0.0664329
0.124492
0.0752956
0.114443
0.086441
0.102413
0.100774
0.0875892
0.119961
0.0695508
0.144906
0.0456712
0.184748
0.0193323
0.21563
0.218182
0.199037
0.010509
0.197952
0.0122649
0.196763
0.0136713
0.19546
0.0150869
0.194033
0.0165458
0.192471
0.0180644
0.190766
0.0196564
0.188909
0.0213354
0.186882
0.0231226
0.18468
0.0250318
0.182294
0.0270786
0.179709
0.0292898
0.176902
0.0316954
0.173831
0.0343371
0.170466
0.0372652
0.166779
0.0405312
0.162722
0.0442158
0.15823
0.0484104
0.153212
0.0532382
0.147572
0.0588972
0.141169
0.0656224
0.13382
0.0737509
0.125254
0.0838252
0.115095
0.0965598
0.10285
0.11298
0.087807
0.13498
0.0692498
0.163477
0.0447086
0.209385
0.018191
0.242294
0.236542
0.199049
0.0114372
0.197983
0.0133094
0.196819
0.0148168
0.195547
0.0163439
0.194157
0.0179237
0.192638
0.0195723
0.190981
0.0213031
0.189177
0.0231311
0.187212
0.0250782
0.185077
0.0271577
0.182758
0.0293897
0.180248
0.031802
0.177519
0.0344345
0.174523
0.0373318
0.171232
0.0405453
0.167611
0.0441424
0.163623
0.0481922
0.159214
0.0528057
0.154275
0.0581586
0.1487
0.0644478
0.142357
0.0719358
0.135049
0.0810243
0.126522
0.0923167
0.116386
0.106665
0.104098
0.125249
0.0888989
0.150191
0.0695261
0.18292
0.0444749
0.234587
0.018151
0.268783
0.254751
0.199066
0.0123476
0.198025
0.0143287
0.196892
0.0159311
0.195658
0.0175637
0.194311
0.0192582
0.192841
0.0210312
0.191238
0.0228954
0.189495
0.024865
0.187603
0.0269607
0.185542
0.0292068
0.183295
0.0316228
0.180862
0.0342333
0.178209
0.0370899
0.175292
0.0402417
0.172095
0.0437308
0.168595
0.0476317
0.164731
0.0520431
0.160429
0.0570902
0.155598
0.0629676
0.150154
0.0698632
0.14396
0.0780978
0.136792
0.0881591
0.128423
0.100654
0.118472
0.116595
0.10635
0.137373
0.0910055
0.165579
0.0710908
0.202942
0.0465916
0.259251
0.0209128
0.294622
0.275632
0.199088
0.0132343
0.198077
0.0153179
0.19698
0.0170091
0.195789
0.0187405
0.194492
0.0205427
0.193077
0.0224352
0.191533
0.0244282
0.189855
0.0265326
0.188031
0.0287751
0.186042
0.0311822
0.183884
0.0337693
0.181535
0.0365727
0.17897
0.0396439
0.176174
0.0430258
0.173114
0.0467789
0.169749
0.0509836
0.166028
0.0557491
0.161882
0.0612175
0.157238
0.0675857
0.152007
0.0750637
0.14605
0.0840228
0.139184
0.094995
0.131158
0.108657
0.121644
0.126099
0.110012
0.149025
0.0952392
0.180418
0.0763242
0.221976
0.0545086
0.281217
0.0305733
0.3187
0.30618
0.199114
0.0140939
0.198135
0.0162739
0.197077
0.0180477
0.195933
0.0198709
0.194686
0.0217769
0.193325
0.0237847
0.191844
0.0258979
0.190237
0.0281302
0.188485
0.0305168
0.186582
0.0330731
0.184529
0.0358192
0.182292
0.0388032
0.179846
0.0420735
0.177181
0.0456772
0.174262
0.0496837
0.171046
0.0541865
0.167504
0.0592748
0.163584
0.0651189
0.159201
0.0719392
0.154268
0.0799626
0.148677
0.0895854
0.14229
0.101358
0.134903
0.116031
0.126211
0.134793
0.115768
0.159502
0.103102
0.19316
0.0876012
0.237592
0.0718851
0.29707
0.0526524
0.338066
0.358884
0.199135
0.0149313
0.198184
0.0172006
0.197161
0.0190508
0.196058
0.0209599
0.194858
0.0229656
0.193552
0.0250795
0.192137
0.0273017
0.190602
0.0296547
0.188936
0.0321728
0.187133
0.0348668
0.185182
0.0377687
0.183053
0.040928
0.180724
0.0443877
0.178181
0.0482051
0.175412
0.0524383
0.172386
0.0571979
0.169056
0.0625908
0.165373
0.0687857
0.161275
0.0760044
0.156702
0.0844958
0.151584
0.0946794
0.145827
0.107101
0.139314
0.12254
0.131902
0.142218
0.123518
0.167927
0.114437
0.202315
0.105247
0.246889
0.100492
0.301952
0.0951663
0.34352
0.45415
0.00168709
-0.00184956
0.00391774
-0.00226143
0.00625436
-0.00226551
0.00894727
-0.00246522
0.0117912
-0.00266439
0.0144602
-0.00257449
0.0169761
-0.00242205
0.0194138
-0.0023598
0.0217899
-0.00232289
0.0241348
-0.00230622
0.0264327
-0.0022663
0.0286576
-0.00219624
0.0307877
-0.00210249
0.0327804
-0.00196465
0.0346182
-0.00180844
0.0363328
-0.00168358
0.0379439
-0.00157799
0.039415
-0.00143561
0.0407198
-0.00126681
0.0419059
-0.00114599
0.0430372
-0.00108948
0.0441331
-0.00105309
0.0452133
-0.0010366
0.0463433
-0.00108536
0.0476304
-0.00124116
0.0492041
-0.00152655
0.0512146
-0.00196237
0.0538212
-0.00255771
0.0571815
-0.00331124
-0.00409847
0.00096434
-0.00291793
0.00304875
-0.00437957
0.00574005
-0.00488446
0.00887776
-0.00530989
0.0119874
-0.00544223
0.0147425
-0.00515237
0.0172258
-0.0048025
0.0195202
-0.00457842
0.0216835
-0.00443431
0.023744
-0.00432852
0.0256989
-0.0041898
0.027556
-0.00402493
0.0293214
-0.00384047
0.0309565
-0.00357192
0.0324326
-0.00325542
0.0337884
-0.00300864
0.0350653
-0.00282189
0.0362149
-0.00254991
0.0371637
-0.00217766
0.0379341
-0.00187623
0.0385773
-0.0016908
0.0390747
-0.00150794
0.0393975
-0.00131609
0.0395356
-0.00117927
0.0395445
-0.00120445
0.0395668
-0.0015018
0.0398613
-0.00220867
0.0407723
-0.00341996
0.0427607
-0.00525052
-0.00780625
0.000479741
-0.00339845
0.00219196
-0.00612052
0.00466101
-0.00728257
0.00741026
-0.00778882
0.00997167
-0.00766469
0.0121154
-0.00709503
0.013932
-0.00651079
0.0154848
-0.00605844
0.0168255
-0.00572484
0.0179786
-0.00544456
0.0189612
-0.00514198
0.0198172
-0.00485354
0.0205686
-0.00456534
0.0211692
-0.00414548
0.0215471
-0.00360502
0.0217423
-0.00317374
0.0218657
-0.00291304
0.0218608
-0.00251013
0.021423
-0.00170219
0.0203594
-0.000772317
0.0188987
-0.000188242
0.0173763
5.66731e-05
0.0161409
-3.84068e-05
0.0153321
-0.00032718
0.0150341
-0.000861319
0.0153552
-0.00177616
0.01659
-0.00339546
0.0188919
-0.00567302
0.022362
-0.00867157
-0.0124561
0.00030103
-0.0035589
0.00178582
-0.00759835
0.00387389
-0.0092998
0.00592537
-0.00963924
0.00765577
-0.00913799
0.00894601
-0.00820826
0.00986693
-0.00732756
0.0104727
-0.00659676
0.0108002
-0.00600611
0.0108831
-0.00549309
0.0107442
-0.00497497
0.0104241
-0.00450795
0.00997197
-0.00408833
0.00941312
-0.00356113
0.00854373
-0.0027087
0.00704673
-0.00164783
0.00500812
-0.000843167
0.00288901
-0.00035699
0.00117292
5.11602e-05
7.52943e-06
0.000433687
-0.000769663
0.000631072
-0.00124432
0.000572602
-0.00143819
0.000196123
-0.00123958
-0.000483975
-0.000463004
-0.00159368
0.0010609
-0.00325354
0.0032348
-0.00552137
0.00605134
-0.00844085
0.00933677
-0.0119081
-0.0159417
0.000305018
-0.00364508
0.00159681
-0.00882963
0.00309961
-0.0107277
0.00423868
-0.0106142
0.00493714
-0.00962722
0.00517745
-0.00829183
0.0050222
-0.00707654
0.00451348
-0.00602812
0.00370149
-0.00515383
0.00263894
-0.00440056
0.00133846
-0.00364965
-0.00035459
-0.00279219
-0.00242814
-0.00199232
-0.00455329
-0.0014126
-0.00645754
-0.000779372
-0.00802039
-5.77442e-05
-0.00924085
0.000407044
-0.0102137
0.000648612
-0.01097
0.000844072
-0.0114618
0.000966952
-0.0116924
0.000904763
-0.0116621
0.000582269
-0.0113663
-6.19164e-05
-0.0107175
-0.00109342
-0.00966843
-0.00259952
-0.00818334
-0.00469212
-0.0062864
-0.00737019
-0.00412693
-0.0105516
-0.00207334
-0.0139128
-0.0170998
0.000362871
-0.00384819
0.00132977
-0.00969019
0.00198887
-0.0112985
0.00202647
-0.0104976
0.00151784
-0.00893944
0.000519408
-0.00715805
-0.000888302
-0.00558462
-0.00260566
-0.0042589
-0.0046126
-0.00311268
-0.0068033
-0.00218468
-0.00900313
-0.00142894
-0.0110327
-0.000743258
-0.0128431
-0.000162416
-0.0145078
0.000272899
-0.0159207
0.000656326
-0.0169715
0.00101822
-0.0177804
0.0012438
-0.0184237
0.00132281
-0.0188558
0.00131157
-0.0190344
0.0011892
-0.0189706
0.000886671
-0.0187028
0.000352108
-0.0182428
-0.000489064
-0.0175681
-0.00173282
-0.0166501
-0.0034757
-0.0155241
-0.00577108
-0.0142745
-0.00857113
-0.0131113
-0.0116661
-0.0123136
-0.0146618
-0.0171392
0.000363797
-0.00417035
0.000715261
-0.00990062
0.000262888
-0.0107251
-0.00104495
-0.00903168
-0.00285679
-0.00697417
-0.00503553
-0.00486868
-0.00742601
-0.00312502
-0.0098737
-0.00176831
-0.0122364
-0.000721786
-0.0144811
8.02768e-05
-0.0165744
0.000680962
-0.0184155
0.00111342
-0.0199697
0.00140796
-0.0212831
0.0016042
-0.0223631
0.00175648
-0.023185
0.00186295
-0.0237772
0.00186148
-0.0241715
0.00174554
-0.0243695
0.00154202
-0.0243541
0.00123154
-0.0241509
0.000758399
-0.0238316
7.98871e-05
-0.0234207
-0.000874542
-0.0229168
-0.00220721
-0.0223291
-0.00402428
-0.0216949
-0.00635765
-0.0211047
-0.00911205
-0.0207088
-0.0120133
-0.0207217
-0.0146004
-0.0164467
0.000190869
-0.00436592
-0.00045495
-0.00908963
-0.00226966
-0.0087496
-0.00477853
-0.00636665
-0.0076103
-0.00401511
-0.0104548
-0.00193745
-0.0132219
-0.000303961
-0.0158392
0.000882671
-0.0182068
0.0016677
-0.0202711
0.00215987
-0.0220439
0.00246605
-0.0235726
0.00265378
-0.0248974
0.00274541
-0.0260197
0.00274131
-0.0269087
0.00266308
-0.0275394
0.00251406
-0.0279325
0.00227768
-0.0281256
0.00196377
-0.0281535
0.00159492
-0.0280216
0.00116076
-0.0277652
0.000604568
-0.0274783
-0.000138748
-0.0272001
-0.00112484
-0.0269308
-0.00244936
-0.0266911
-0.00422869
-0.0265072
-0.00649562
-0.0264422
-0.00912825
-0.026597
-0.0118101
-0.0271289
-0.0140205
-0.0153924
-0.000299534
-0.00399943
-0.00223343
-0.00698598
-0.00525527
-0.0055544
-0.00862132
-0.00286507
-0.011999
-0.000539252
-0.0151216
0.00124985
-0.0178616
0.00247645
-0.0202316
0.00327761
-0.0223164
0.00376815
-0.0241665
0.00402015
-0.0257856
0.00409298
-0.0271673
0.00404337
-0.0283176
0.00390498
-0.0292439
0.00367952
-0.029928
0.0033621
-0.0303566
0.00296074
-0.0305544
0.0024965
-0.0305669
0.00199914
-0.0304472
0.00149663
-0.0302308
0.000985412
-0.0299654
0.000414337
-0.0297395
-0.000299423
-0.0296037
-0.00122264
-0.0295662
-0.00245603
-0.0296462
-0.00411493
-0.0298563
-0.0062428
-0.030221
-0.00871673
-0.0307921
-0.0111916
-0.0316608
-0.0131045
-0.0141617
-0.00109769
-0.00273576
-0.00427229
-0.00365662
-0.00822845
-0.0014502
-0.0120752
0.00108275
-0.015435
0.00288916
-0.0183113
0.00417101
-0.0208524
0.00504542
-0.0231239
0.00556564
-0.0251175
0.00577109
-0.0268232
0.00573103
-0.0282568
0.00553028
-0.0294366
0.0052274
-0.0303751
0.00484963
-0.0310802
0.00439365
-0.0315431
0.00383735
-0.0317595
0.00319299
-0.0317561
0.00251222
-0.0315894
0.00185409
-0.0313267
0.00125781
-0.0310315
0.000720782
-0.0307672
0.000193825
-0.0306091
-0.000409479
-0.0306101
-0.00118028
-0.030791
-0.00223949
-0.0311632
-0.00370703
-0.0317245
-0.0056407
-0.0324586
-0.00793795
-0.0333616
-0.0102426
-0.0344585
-0.0119612
-0.0128323
-0.00207747
-0.000469587
-0.00641013
0.000804612
-0.0107185
0.00296248
-0.0143605
0.00478959
-0.0175087
0.00608028
-0.0203099
0.00700017
-0.0227926
0.00754476
-0.0249477
0.00772938
-0.0267698
0.00759654
-0.0282605
0.00722211
-0.0294434
0.00671291
-0.0303654
0.00615021
-0.0310621
0.00554943
-0.0315388
0.00487656
-0.0317801
0.00408849
-0.0317792
0.00320572
-0.031566
0.00231625
-0.0312128
0.00152157
-0.030807
0.000876223
-0.0304315
0.000375492
-0.0301616
-3.79252e-05
-0.0300705
-0.000458383
-0.0302096
-0.00100057
-0.0306007
-0.00181052
-0.0312448
-0.00302523
-0.0321238
-0.00472141
-0.0331901
-0.00682841
-0.0343781
-0.00900973
-0.0356469
-0.0106469
-0.0114473
-0.00335063
0.00300572
-0.00800948
0.00555732
-0.0121048
0.00711647
-0.0155887
0.00830784
-0.0186523
0.00916617
-0.0213447
0.00970659
-0.0236788
0.00988561
-0.02564
0.00969206
-0.027211
0.00916528
-0.0284019
0.00840909
-0.0292626
0.00756959
-0.0298744
0.00675952
-0.0303046
0.00597977
-0.0305584
0.00513395
-0.0305914
0.00412901
-0.0303723
0.00299823
-0.0299351
0.00189458
-0.0293828
0.00098867
-0.0288312
0.000348269
-0.028381
-4.58971e-05
-0.0281105
-0.000273752
-0.0280873
-0.00044325
-0.0283633
-0.000685737
-0.0289648
-0.00117072
-0.029876
-0.00207554
-0.0310557
-0.00350153
-0.0324319
-0.00541003
-0.0338869
-0.00751095
-0.0353063
-0.00918296
-0.0100347
-0.00454694
0.0076098
-0.00877416
0.0098447
-0.0126306
0.0109954
-0.0159522
0.0116418
-0.018835
0.0120557
-0.0213314
0.0122056
-0.0234347
0.0119874
-0.0251201
0.0113725
-0.0263548
0.0103929
-0.0271443
0.00919064
-0.0275867
0.00800463
-0.0278243
0.00699171
-0.027969
0.00612204
-0.0280154
0.00518164
-0.027852
0.00397107
-0.0273978
0.00255369
-0.0266929
0.00120356
-0.025906
0.000220004
-0.0251977
-0.000337491
-0.0246855
-0.000530823
-0.0244387
-0.000488504
-0.0245057
-0.000340728
-0.0249302
-0.000224005
-0.0257515
-0.0003116
-0.0269493
-0.000839283
-0.0284456
-0.00196529
-0.0301171
-0.00369704
-0.0318426
-0.00574262
-0.0334201
-0.0075618
-0.00861194
-0.00509664
0.0127284
-0.00808317
0.0128698
-0.0122115
0.0151236
-0.0152548
0.0146835
-0.017882
0.0146791
-0.0201481
0.0144657
-0.0219872
0.0138183
-0.0233481
0.0127234
-0.0241621
0.0111956
-0.0244124
0.00942963
-0.0242892
0.00787126
-0.024039
0.00673356
-0.0238696
0.00594796
-0.0237411
0.00505245
-0.0233857
0.0036192
-0.0226269
0.00180284
-0.0215159
0.000104934
-0.0203859
-0.000893118
-0.0194793
-0.00122281
-0.0189079
-0.00107645
-0.0187136
-0.000652877
-0.0189184
-0.000102507
-0.0195362
0.000429398
-0.0205967
0.000785889
-0.0220924
0.000694487
-0.0239584
-5.98812e-05
-0.0259999
-0.00161461
-0.0280017
-0.00369888
-0.0297679
-0.00575282
-0.00719997
0.00212065
0.0105903
-0.00615095
0.0211702
-0.0115627
0.0205276
-0.0137996
0.0169124
-0.0161466
0.0170162
-0.0181444
0.016452
-0.0195941
0.015255
-0.0204797
0.0135949
-0.0206923
0.0113937
-0.0201732
0.00889668
-0.0192271
0.00691274
-0.0182838
0.00578049
-0.0178044
0.00546217
-0.017622
0.00486777
-0.0170713
0.00307056
-0.0157456
0.000483731
-0.0139179
-0.0017116
-0.0122356
-0.00255976
-0.0110259
-0.00241252
-0.0103464
-0.0017316
-0.0101779
-0.000793031
-0.0105224
0.000273679
-0.0113674
0.00130857
-0.012752
0.00220642
-0.0145816
0.00256161
-0.016808
0.00220535
-0.019308
0.000925589
-0.0217241
-0.00124153
-0.0237145
-0.0037205
-0.00585326
0.206802
0.0157595
0.20586
0.0181145
0.204853
0.0200378
0.203769
0.0220293
0.202597
0.0241262
0.201326
0.0263383
0.19995
0.0286672
0.198458
0.0311347
0.196845
0.0337752
0.195093
0.0366079
0.19319
0.0396639
0.19112
0.0429894
0.188873
0.0466199
0.186446
0.0506155
0.183807
0.0550596
0.180933
0.0600561
0.177792
0.0657181
0.174351
0.0722188
0.17056
0.0797654
0.166401
0.0886206
0.161862
0.099205
0.156913
0.112042
0.151588
0.12787
0.146004
0.147824
0.140566
0.17341
0.136669
0.206282
0.137299
0.246355
0.150453
0.288916
0.18279
0.311304
0.293508
0.34353
0.211841
0.0165698
0.210919
0.0190045
0.209939
0.0209955
0.208895
0.0230614
0.20777
0.0252393
0.206552
0.0275445
0.205231
0.029976
0.2038
0.0325533
0.20225
0.0353131
0.200569
0.0382766
0.198754
0.0414677
0.196802
0.0449284
0.194698
0.0487087
0.192423
0.0528721
0.189947
0.0575159
0.187277
0.0627079
0.184405
0.0685757
0.181288
0.0753224
0.177928
0.0831054
0.174357
0.0921813
0.170581
0.102977
0.166693
0.11593
0.162898
0.131675
0.159569
0.151178
0.157787
0.175235
0.160056
0.204076
0.170921
0.235575
0.198907
0.261034
0.246184
0.264129
0.25243
0.287333
0.217014
0.0173515
0.216118
0.0198605
0.215176
0.0219136
0.214182
0.0240456
0.21311
0.0263006
0.211948
0.0286943
0.210692
0.0312189
0.209334
0.0338984
0.207869
0.0367636
0.206299
0.0398321
0.204614
0.0431379
0.202805
0.0467223
0.200859
0.0506379
0.198762
0.0549499
0.196513
0.0597416
0.19412
0.065078
0.191572
0.0711032
0.188866
0.0779952
0.186067
0.0858807
0.183211
0.0950372
0.180381
0.105808
0.177792
0.118524
0.175771
0.133708
0.175096
0.151877
0.177351
0.173019
0.185187
0.196298
0.20232
0.218519
0.231416
0.232029
0.26563
0.229997
0.215429
0.302684
0.222319
0.0180993
0.221447
0.0206799
0.220551
0.0227866
0.219615
0.0249776
0.2186
0.0273049
0.217507
0.0297743
0.216335
0.0323784
0.215076
0.035143
0.213728
0.0380948
0.212284
0.041258
0.210736
0.0446686
0.209079
0.0483635
0.207321
0.0523775
0.20546
0.0567905
0.203488
0.0616859
0.201416
0.0671217
0.199262
0.0732315
0.197064
0.0801558
0.194897
0.0880228
0.19285
0.0970809
0.191112
0.107548
0.189951
0.119691
0.189896
0.133776
0.19199
0.149806
0.197723
0.167322
0.209202
0.184871
0.228518
0.199272
0.254966
0.205656
0.284007
0.201021
0.184932
0.314544
0.227746
0.0188166
0.226911
0.021454
0.226074
0.0235994
0.225205
0.0258444
0.224265
0.028234
0.223263
0.0307637
0.222191
0.0334358
0.221045
0.0362747
0.219818
0.0393038
0.218503
0.042551
0.217112
0.0460381
0.215656
0.0498025
0.21413
0.0538869
0.21253
0.0583704
0.210864
0.0633186
0.209166
0.068784
0.207481
0.0748918
0.205863
0.0817475
0.204405
0.0894623
0.203278
0.0982012
0.202686
0.10814
0.203008
0.119373
0.204926
0.13187
0.20934
0.145412
0.217458
0.159237
0.230729
0.171648
0.249801
0.180258
0.272863
0.182654
0.296369
0.177565
0.163082
0.318249
0.233302
0.0194931
0.232533
0.0221673
0.231768
0.02434
0.230974
0.0266305
0.230123
0.0290714
0.229217
0.031656
0.228248
0.0343903
0.227219
0.0372899
0.226131
0.0403728
0.22498
0.0436719
0.22378
0.0472119
0.222546
0.0510215
0.221275
0.0551459
0.219971
0.0596565
0.218651
0.0646019
0.217375
0.0700269
0.216211
0.0760385
0.215225
0.0827142
0.214546
0.0901258
0.214343
0.0983963
0.214889
0.107592
0.216664
0.117601
0.220236
0.128308
0.226327
0.13934
0.235892
0.149701
0.249603
0.157976
0.267079
0.162828
0.28653
0.163249
0.305507
0.158625
0.14606
0.322551
0.239005
0.0201097
0.238318
0.0228123
0.237633
0.0250052
0.236917
0.0273316
0.236153
0.0298183
0.235346
0.0324474
0.234499
0.0352232
0.233621
0.0381563
0.232698
0.0412758
0.231719
0.0446143
0.230721
0.0481851
0.22973
0.0520026
0.228745
0.0561224
0.227764
0.060618
0.226828
0.0655014
0.226025
0.0708074
0.225414
0.0766386
0.225084
0.0830283
0.225168
0.0900279
0.225868
0.097688
0.227545
0.10591
0.230567
0.11458
0.235377
0.123505
0.242622
0.132112
0.252842
0.139506
0.26602
0.144832
0.281444
0.14744
0.297871
0.146857
0.313778
0.142745
0.131947
0.327906
0.244846
0.0206624
0.24425
0.0233835
0.243654
0.0255905
0.243021
0.0279434
0.242358
0.0304597
0.241677
0.0331116
0.240976
0.0359076
0.240258
0.0388653
0.239496
0.0420171
0.238704
0.0453665
0.237948
0.0489198
0.237229
0.0527134
0.236539
0.0568001
0.235902
0.0612239
0.235391
0.0659747
0.235075
0.0711053
0.235022
0.0766781
0.235341
0.0826942
0.236167
0.0891887
0.237771
0.0960731
0.240433
0.103243
0.244411
0.110602
0.250144
0.117779
0.258062
0.124208
0.268253
0.129336
0.2804
0.132711
0.293916
0.13395
0.307987
0.132811
0.321606
0.129144
0.119919
0.333644
0.25084
0.0211409
0.250343
0.0238625
0.249846
0.0260798
0.249307
0.0284492
0.248766
0.0309736
0.248226
0.0336332
0.247668
0.036445
0.247101
0.0394171
0.246528
0.0425626
0.245975
0.0458816
0.245476
0.0493972
0.245027
0.053148
0.244649
0.0571573
0.244391
0.0614473
0.244307
0.0660237
0.24447
0.0709207
0.244982
0.0761493
0.245925
0.0817347
0.247472
0.0876273
0.249869
0.0936642
0.253298
0.099807
0.258034
0.105864
0.264402
0.111416
0.272514
0.116105
0.282234
0.119631
0.293266
0.121696
0.305174
0.12206
0.317374
0.120627
0.329186
0.117344
0.109435
0.339675
0.257021
0.0215301
0.256623
0.0242405
0.256224
0.0264605
0.255783
0.0288375
0.255366
0.0313596
0.25497
0.0340136
0.254566
0.03682
0.254179
0.0397787
0.253824
0.0428898
0.253515
0.0461572
0.253273
0.0496164
0.253112
0.0532884
0.253073
0.0571722
0.253201
0.061289
0.253543
0.0656507
0.254195
0.0702441
0.25524
0.0750836
0.256766
0.0801911
0.258959
0.0854185
0.261997
0.0906138
0.266058
0.095738
0.271362
0.100556
0.278016
0.104764
0.285963
0.108164
0.295059
0.110544
0.305067
0.111699
0.315636
0.111502
0.326341
0.109931
0.336717
0.106975
0.10014
0.346013
0.263372
0.0218214
0.263072
0.0245272
0.262766
0.0267408
0.262438
0.0290983
0.262163
0.0315976
0.261923
0.0342341
0.261682
0.0370189
0.261492
0.0399406
0.261369
0.0429951
0.261309
0.046191
0.261339
0.0495615
0.261487
0.0531165
0.261794
0.0568396
0.262301
0.0607524
0.263065
0.0648563
0.264178
0.069105
0.26571
0.0735285
0.267775
0.0781072
0.270531
0.0826458
0.274112
0.0870193
0.278664
0.0911758
0.284278
0.0949368
0.290931
0.0981087
0.298553
0.100543
0.30702
0.10208
0.316121
0.102602
0.325581
0.102047
0.335086
0.100429
0.344308
0.0977538
0.0918023
0.352644
0.269857
0.0220199
0.269663
0.024704
0.269485
0.0268959
0.269303
0.0292162
0.269169
0.0316844
0.269082
0.0342929
0.269022
0.0370307
0.269046
0.0398872
0.269163
0.0428657
0.269358
0.0459719
0.269668
0.0492256
0.270128
0.0526298
0.270779
0.0561609
0.271652
0.0598492
0.272815
0.0636634
0.274354
0.0675383
0.276342
0.0715164
0.278903
0.0755257
0.282153
0.0793782
0.286166
0.082991
0.291013
0.086317
0.296709
0.0892319
0.303217
0.0915952
0.310469
0.093287
0.318342
0.0942065
0.326656
0.0942868
0.335195
0.093507
0.343726
0.0918963
0.352011
0.0894663
0.0842487
0.359559
0.276499
0.0221151
0.276424
0.0247504
0.276384
0.0269144
0.276352
0.0291987
0.276367
0.031615
0.276454
0.0341674
0.276602
0.0368386
0.276848
0.039609
0.277199
0.0424952
0.277651
0.0454932
0.278243
0.048606
0.279011
0.0518331
0.279994
0.0551484
0.281225
0.0585875
0.282771
0.0620862
0.284711
0.06557
0.287127
0.0690763
0.290125
0.0725051
0.293764
0.0757205
0.298056
0.0786816
0.30303
0.0813287
0.308689
0.0835612
0.314993
0.0852809
0.321868
0.0864046
0.329198
0.0868704
0.336835
0.086645
0.344607
0.0857293
0.352339
0.0841582
0.359855
0.0819443
0.0773449
0.366751
0.283309
0.0220921
0.283354
0.0246693
0.28344
0.0267927
0.283574
0.0290245
0.283787
0.031367
0.284065
0.0338449
0.284417
0.0364357
0.284882
0.0391092
0.285466
0.0418827
0.28618
0.0447489
0.287052
0.0477035
0.288125
0.0507292
0.289428
0.0538144
0.291003
0.05698
0.292919
0.060139
0.295236
0.0632236
0.298038
0.0662478
0.301382
0.0691382
0.30527
0.0718108
0.309712
0.0742196
0.314725
0.0762994
0.320292
0.0779788
0.326369
0.0791909
0.332881
0.0798818
0.339725
0.0800161
0.346779
0.0795814
0.353909
0.07859
0.36098
0.0770774
0.367858
0.0750558
0.0709835
0.374209
0.290287
0.0219419
0.290467
0.0244481
0.290694
0.0265085
0.291006
0.0286707
0.291425
0.0309397
0.291898
0.033333
0.292455
0.0358203
0.293141
0.038384
0.293958
0.0410312
0.294934
0.0437391
0.296086
0.0465176
0.297446
0.0493361
0.299058
0.0521702
0.300974
0.0550309
0.303245
0.0578358
0.305909
0.0605295
0.309016
0.0631126
0.312591
0.065538
0.316635
0.0677425
0.321158
0.0696748
0.326155
0.0712831
0.331599
0.0725166
0.337442
0.0733313
0.343614
0.0736944
0.350028
0.0735886
0.356582
0.0730139
0.363171
0.0719881
0.369691
0.0705452
0.376038
0.0686958
0.0650785
0.38193
0.297439
0.0216547
0.297776
0.0240747
0.298174
0.0260533
0.298657
0.0281375
0.299251
0.0303292
0.299925
0.0326213
0.300698
0.0349948
0.301608
0.0374324
0.30267
0.0399321
0.303905
0.0424681
0.305333
0.0450537
0.306979
0.0476554
0.308895
0.05022
0.311135
0.0527567
0.313722
0.0552161
0.316666
0.0575535
0.319996
0.0597533
0.323732
0.0617739
0.327879
0.0635689
0.332434
0.0650956
0.33738
0.0663146
0.342685
0.0671908
0.3483
0.0676964
0.354163
0.0678134
0.360198
0.0675362
0.366323
0.0668719
0.372455
0.0658408
0.37851
0.0644739
0.38441
0.0627804
0.0595598
0.389914
0.304765
0.0212203
0.305287
0.0235407
0.30586
0.0254314
0.306508
0.0274267
0.307273
0.0295262
0.308149
0.0317039
0.309148
0.0339495
0.310295
0.0362434
0.311603
0.0385846
0.313085
0.0409479
0.314786
0.0433151
0.316735
0.0456702
0.318949
0.0479704
0.321465
0.0502053
0.324299
0.0523482
0.327457
0.0543615
0.330961
0.0562182
0.33482
0.0578852
0.339032
0.0593278
0.343587
0.0605137
0.348462
0.0614143
0.353623
0.0620064
0.359023
0.0622736
0.364607
0.0622082
0.370311
0.0618116
0.376069
0.0610952
0.381811
0.0600794
0.387475
0.058792
0.392996
0.057241
0.0543695
0.39817
0.312277
0.0206282
0.312984
0.0228379
0.313725
0.0246488
0.314542
0.0265403
0.3155
0.0285218
0.316591
0.0305694
0.317818
0.032678
0.319195
0.0348243
0.32075
0.0369882
0.3225
0.0391586
0.324472
0.0413041
0.326693
0.0434113
0.329167
0.0454588
0.331913
0.0474219
0.33495
0.0492755
0.338286
0.050991
0.341928
0.0525421
0.345879
0.0539024
0.35013
0.0550457
0.354666
0.0559486
0.359461
0.0565914
0.364481
0.0569598
0.369684
0.0570457
0.37502
0.0568477
0.380436
0.0563719
0.385878
0.0556315
0.39129
0.0546461
0.396621
0.0534402
0.401821
0.0520207
0.0494595
0.406712
0.319981
0.0198817
0.320827
0.0219677
0.32175
0.0236848
0.322778
0.0254573
0.323946
0.0273098
0.325247
0.0292243
0.326703
0.0311782
0.328324
0.0331606
0.330131
0.0351399
0.332143
0.0371054
0.334367
0.0390391
0.33682
0.0409187
0.339515
0.0427239
0.342466
0.0444327
0.345682
0.0460222
0.349167
0.0474692
0.352922
0.0487516
0.356941
0.0498483
0.361214
0.0507401
0.36572
0.0514106
0.370434
0.0518472
0.375323
0.0520421
0.380348
0.0519926
0.385467
0.0517018
0.390635
0.051178
0.395807
0.050435
0.400938
0.0494912
0.405987
0.0483681
0.410914
0.0470715
0.0447886
0.415565
0.327883
0.0189753
0.328842
0.0209245
0.329955
0.022522
0.331214
0.0241705
0.332601
0.0258844
0.33413
0.0276528
0.33582
0.0294448
0.337687
0.0312495
0.339736
0.033048
0.341979
0.0348193
0.34443
0.0365452
0.347101
0.0382064
0.35