/*--------------------------------*- C++ -*----------------------------------*\
| =========                 |                                                 |
| \\      /  F ield         | OpenFOAM: The Open Source CFD Toolbox           |
|  \\    /   O peration     | Version:  5.x                                   |
|   \\  /    A nd           | Web:      www.OpenFOAM.org                      |
|    \\/     M anipulation  |                                                 |
\*---------------------------------------------------------------------------*/
FoamFile
{
    version     2.0;
    format      ascii;
    class       volVectorField;
    location    "1.7";
    object      U;
}
// * * * * * * * * * * * * * * * * * * * * * * * * * * * * * * * * * * * * * //

dimensions      [0 1 -1 0 0 0 0];

internalField   nonuniform List<vector> 
2790
(
(9.93707 0 0.018766)
(9.87108 -2.60549e-19 0.0248251)
(9.78221 1.34824e-19 0.0283692)
(9.67806 3.50527e-20 0.0321217)
(9.56431 -3.61641e-20 0.0360305)
(9.4418 0 0.0400059)
(9.30984 2.35075e-19 0.0441464)
(9.16778 8.05559e-22 0.0485811)
(9.01509 -8.43021e-20 0.0534197)
(8.85108 8.82969e-20 0.0587636)
(8.67489 9.21544e-20 0.0647252)
(8.48542 0 0.0714346)
(8.28139 2.03357e-19 0.0790369)
(8.06135 -1.96655e-19 0.0876944)
(7.82364 -3.46924e-21 0.0975967)
(7.56637 -2.92075e-20 0.108971)
(7.28743 -4.36532e-19 0.122087)
(6.98445 3.86119e-19 0.137257)
(6.65482 0 0.154843)
(6.29566 -5.9339e-19 0.175244)
(5.9039 9.31185e-19 0.198909)
(5.47634 0 0.226348)
(5.0097 -3.57906e-19 0.258136)
(4.50068 -7.70161e-19 0.294908)
(3.94604 0 0.337335)
(3.3428 0 0.386033)
(2.68817 3.95435e-18 0.441192)
(1.98026 1.12381e-18 0.500753)
(1.19442 -1.38785e-17 0.554338)
(0.535674 -3.96806e-20 0.506302)
(10.0021 0 0.0349181)
(9.99718 7.75621e-19 0.0480214)
(9.97137 -1.33437e-19 0.0563756)
(9.9282 -6.91346e-20 0.0656012)
(9.87229 2.14189e-19 0.0756291)
(9.80478 -1.47064e-19 0.0861889)
(9.72527 6.84294e-22 0.0974594)
(9.63329 -1.57677e-19 0.109729)
(9.52843 4.94836e-19 0.123255)
(9.4101 -4.24787e-19 0.138287)
(9.27756 -2.66075e-19 0.155099)
(9.12985 3.72261e-19 0.174013)
(8.9658 -2.86197e-19 0.195397)
(8.78405 7.98482e-19 0.219663)
(8.58302 -8.30639e-19 0.247292)
(8.36087 8.61521e-19 0.278842)
(8.11554 -1.90618e-18 0.314958)
(7.84467 1.08321e-18 0.356379)
(7.54561 2.32191e-18 0.403927)
(7.21537 -1.86711e-18 0.458472)
(6.85063 -2.8557e-19 0.520922)
(6.44775 2.44589e-18 0.59222)
(6.00272 -2.22142e-18 0.673298)
(5.5111 6.85118e-19 0.765031)
(4.96768 -5.90271e-18 0.86817)
(4.36606 6.19576e-18 0.983255)
(3.69729 0 1.1106)
(2.94697 1.3618e-17 1.25107)
(2.06149 -3.28197e-17 1.41412)
(1.18284 4.45698e-18 1.62616)
(9.99952 1.00391e-18 0.0326954)
(9.99226 -5.803e-19 0.0514385)
(9.96918 6.64192e-20 0.0658485)
(9.93099 1.37692e-19 0.0812168)
(9.881 -1.41502e-19 0.097866)
(9.82047 0 0.115564)
(9.7492 0 0.134536)
(9.6668 0 0.155186)
(9.57291 -1.62905e-19 0.177916)
(9.46706 -5.10982e-19 0.203125)
(9.34861 1.57803e-18 0.231261)
(9.21672 -1.45741e-18 0.262843)
(9.07042 -1.06154e-19 0.298472)
(8.90854 1.57872e-18 0.338842)
(8.72972 -2.47599e-18 0.384752)
(8.53242 1.81043e-18 0.437144)
(8.31485 -1.11933e-19 0.497105)
(8.07494 -2.34231e-19 0.565892)
(7.81039 1.74319e-18 0.644951)
(7.51847 -2.30572e-18 0.735867)
(7.19594 -5.40726e-19 0.840346)
(6.83918 4.62034e-18 0.960261)
(6.44385 -4.76836e-18 1.0976)
(6.00475 0 1.25451)
(5.51508 0 1.43335)
(4.96546 1.14422e-17 1.63705)
(4.34221 -1.19024e-17 1.87029)
(3.62421 0 2.14309)
(2.77671 -1.60278e-18 2.465)
(1.72585 -1.13673e-17 3.0249)
(9.99763 -1.06459e-18 0.0337488)
(9.9879 -9.62458e-19 0.0595768)
(9.96461 0 0.0812891)
(9.92736 -1.37086e-19 0.103111)
(9.87855 1.4081e-19 0.126056)
(9.81951 0 0.150242)
(9.7502 0 0.176029)
(9.67033 -6.27271e-19 0.203955)
(9.57964 3.20195e-19 0.234565)
(9.47776 -1.67482e-19 0.268408)
(9.3642 -6.98555e-19 0.306095)
(9.23831 1.69873e-19 0.348328)
(9.09931 5.56048e-19 0.395909)
(8.94631 1.56745e-18 0.449759)
(8.77825 -1.60518e-18 0.510946)
(8.59398 -5.27674e-20 0.580741)
(8.39214 3.65572e-18 0.660625)
(8.17113 -7.33187e-18 0.75231)
(7.92928 -7.27887e-20 0.857832)
(7.66457 3.96237e-18 0.979528)
(7.37435 1.04495e-18 1.11999)
(7.0556 8.83613e-18 1.28219)
(6.70457 1.74622e-19 1.46958)
(6.31638 -9.49039e-18 1.6862)
(5.88454 -1.0099e-17 1.9371)
(5.3997 1.03755e-17 2.22896)
(4.84869 -2.18807e-17 2.57178)
(4.20437 2.24372e-17 2.98917)
(3.52681 -1.99566e-17 3.43844)
(2.33134 3.22875e-17 4.37333)
(9.99665 0 0.0363618)
(9.98529 1.15217e-18 0.0676973)
(9.9616 -1.18575e-18 0.0954092)
(9.92499 1.08741e-18 0.122829)
(9.87723 -2.81798e-19 0.151399)
(9.81949 2.89083e-19 0.181569)
(9.75182 -5.98513e-19 0.213824)
(9.674 -1.24102e-18 0.248781)
(9.58582 1.59775e-18 0.287075)
(9.48696 -3.30922e-19 0.329358)
(9.37704 3.42633e-19 0.376363)
(9.25554 1.25466e-18 0.428927)
(9.12185 -1.28094e-18 0.488006)
(8.97529 -1.90933e-19 0.554687)
(8.81505 0 0.630232)
(8.64025 2.57408e-20 0.716159)
(8.44997 3.46813e-18 0.814259)
(8.24306 -3.54466e-18 0.926587)
(8.01832 4.63055e-19 1.05561)
(7.77458 3.91164e-18 1.20428)
(7.51011 -3.50363e-18 1.37601)
(7.22273 1.04154e-18 1.57479)
(6.90991 1.08157e-18 1.80548)
(6.56807 -9.12886e-18 2.07402)
(6.19254 6.9939e-18 2.3881)
(5.7767 0 2.75807)
(5.31393 1.98343e-17 3.19658)
(4.75917 -3.98906e-17 3.74695)
(4.34367 2.00471e-17 4.2455)
(3.02292 0 5.5177)
(9.99621 0 0.0397512)
(9.9839 -1.27476e-19 0.0759258)
(9.95995 2.49366e-18 0.10926)
(9.92411 -1.35379e-18 0.142329)
(9.87764 -8.35435e-19 0.176626)
(9.82147 2.91225e-19 0.212815)
(9.75571 2.86459e-21 0.251499)
(9.68023 1.22845e-18 0.293364)
(9.59484 -6.35601e-19 0.33912)
(9.4993 3.28584e-19 0.389513)
(9.39328 -3.39928e-19 0.445388)
(9.27639 0 0.507697)
(9.14816 1.46487e-18 0.577532)
(9.00811 -1.30781e-18 0.656136)
(8.85559 0 0.744927)
(8.68997 -3.2911e-18 0.845615)
(8.51068 3.33437e-18 0.960232)
(8.31701 2.18827e-19 1.09112)
(8.10814 3.64228e-18 1.24107)
(7.88352 -3.72054e-18 1.41348)
(7.64242 6.85998e-18 1.61244)
(7.38367 -8.99715e-18 1.8428)
(7.1062 -1.93178e-20 2.11058)
(6.80842 -1.05789e-18 2.42326)
(6.48841 -1.54033e-17 2.79044)
(6.14297 -9.67322e-20 3.22505)
(5.77757 1.79484e-17 3.73774)
(5.31032 0 4.40217)
(5.19316 -2.1545e-18 4.87311)
(3.76915 0 6.41027)
(9.99609 2.03529e-18 0.0435306)
(9.98327 -6.33223e-20 0.0842675)
(9.9593 -1.04542e-18 0.122873)
(9.92435 0 0.161368)
(9.87937 1.11097e-18 0.201168)
(9.82503 1.14265e-18 0.243097)
(9.76149 0 0.287889)
(9.68869 -6.09776e-19 0.336313)
(9.60651 6.27235e-19 0.389155)
(9.51474 0 0.447244)
(9.41314 6.68673e-19 0.511522)
(9.30142 0 0.583034)
(9.17922 2.8836e-18 0.662966)
(9.04633 -3.3119e-18 0.752707)
(8.90223 1.90768e-19 0.853823)
(8.74637 3.19382e-18 0.968137)
(8.57861 -3.25596e-18 1.09785)
(8.39863 1.05422e-19 1.24553)
(8.20606 -4.40905e-19 1.41424)
(8.00082 0 1.60767)
(7.78298 0 1.83037)
(7.55253 -9.52841e-19 2.08779)
(7.3098 7.91749e-18 2.38674)
(7.05543 1.01834e-17 2.73576)
(6.79059 -1.63089e-17 3.14551)
(6.51496 0 3.63053)
(6.25042 0 4.19411)
(5.8618 0 4.95211)
(6.03539 1.91033e-18 5.34235)
(4.53109 0 7.06839)
(9.99614 -1.96832e-18 0.047484)
(9.9831 -1.8875e-18 0.0926254)
(9.95938 -1.2965e-19 0.136174)
(9.92549 0 0.179818)
(9.88217 0 0.224887)
(9.82992 -3.42511e-21 0.272319)
(9.76891 0 0.322955)
(9.69915 -6.01947e-19 0.37764)
(9.6206 -6.22982e-19 0.437225)
(9.53308 0 0.502616)
(9.43638 -6.63009e-19 0.574834)
(9.33039 0 0.654992)
(9.21479 -2.83517e-18 0.744313)
(9.08964 3.61699e-18 0.844322)
(8.95466 2.83367e-18 0.956766)
(8.80944 4.17639e-20 1.08353)
(8.65405 -3.17473e-18 1.22688)
(8.48854 -1.0357e-19 1.38958)
(8.3131 0 1.57486)
(8.12809 0 1.78663)
(7.93426 0 2.0297)
(7.73268 4.72419e-19 2.30989)
(7.52502 -9.45484e-19 2.63443)
(7.31394 -9.59399e-19 3.01231)
(7.1036 2.33641e-19 3.45442)
(6.89538 1.49512e-17 3.97652)
(6.7303 -1.37907e-17 4.56983)
(6.4115 0 5.4007)
(6.8407 0 5.68644)
(5.27869 0 7.53002)
(9.99632 0 0.0514764)
(9.98328 2.25844e-18 0.100898)
(9.96004 -2.57731e-19 0.1491)
(9.92739 0 0.197604)
(9.88591 0 0.24769)
(9.83598 -1.12822e-18 0.300368)
(9.77777 0 0.356558)
(9.71135 1.78991e-18 0.417161)
(9.63677 0 0.483091)
(9.55389 -6.4135e-19 0.55533)
(9.46261 -6.63772e-19 0.634967)
(9.36292 1.33695e-18 0.723166)
(9.25463 0 0.821171)
(9.13773 -3.57848e-19 0.930556)
(9.0124 -2.59004e-18 1.05324)
(8.87861 -3.7169e-20 1.19119)
(8.73641 2.89816e-18 1.34669)
(8.58617 6.23306e-18 1.52258)
(8.42862 -6.52319e-18 1.72222)
(8.26465 0 1.94965)
(8.09559 -6.89276e-18 2.2098)
(7.92349 -6.61322e-18 2.50861)
(7.75124 1.40838e-17 2.85342)
(7.58316 1.41603e-17 3.25326)
(7.4261 -1.43087e-17 3.7186)
(7.28153 -1.52571e-17 4.26637)
(7.21054 1.55644e-17 4.87258)
(6.95476 5.70155e-18 5.75606)
(7.5901 1.05636e-17 5.94067)
(5.98842 0 7.83473)
(9.99656 0 0.0554091)
(9.98377 2.49396e-19 0.108987)
(9.96125 -2.56094e-19 0.16158)
(9.93 0 0.214651)
(9.89052 -5.44403e-19 0.269481)
(9.84312 1.11726e-18 0.327122)
(9.78796 -1.72581e-18 0.388549)
(9.72518 -1.18573e-18 0.454712)
(9.65487 -1.22091e-18 0.526568)
(9.57695 6.18168e-19 0.605158)
(9.49151 6.44798e-19 0.691627)
(9.39864 -6.58838e-19 0.787187)
(9.29832 6.77118e-19 0.893138)
(9.19036 0 1.01105)
(9.07516 -2.53366e-18 1.14284)
(8.95327 2.93167e-18 1.29063)
(8.82484 1.90058e-19 1.45675)
(8.69057 5.79041e-19 1.644)
(8.5515 0 1.85577)
(8.40908 0 2.09617)
(8.26529 0 2.37012)
(8.12296 0 2.6835)
(7.98608 0 3.04353)
(7.8602 -1.3171e-17 3.45906)
(7.75453 1.30186e-17 3.93968)
(7.66912 4.63666e-18 4.50382)
(7.68418 -2.99546e-18 5.11166)
(7.48714 -5.29241e-18 6.02884)
(8.27593 -9.78158e-18 6.13855)
(6.64657 4.1486e-18 8.02904)
(9.99671 -1.80867e-18 0.0592239)
(9.98444 1.60556e-18 0.116786)
(9.96292 2.54396e-19 0.173522)
(9.93324 0 0.230885)
(9.89592 -2.15023e-18 0.290172)
(9.85124 -1.66017e-18 0.352469)
(9.79938 5.67203e-19 0.418789)
(9.74055 1.17169e-18 0.490132)
(9.67482 0 0.567489)
(9.60218 -1.23881e-18 0.651913)
(9.52285 1.26114e-18 0.744583)
(9.43714 3.26536e-18 0.846769)
(9.34507 -6.00724e-18 0.959853)
(9.24651 2.72336e-18 1.08539)
(9.14207 -1.40192e-18 1.22523)
(9.03247 0 1.38152)
(8.91827 5.89703e-18 1.55666)
(8.80048 -6.34063e-18 1.75344)
(8.68036 -7.55779e-19 1.97514)
(8.55979 7.65929e-19 2.22584)
(8.44141 0 2.51035)
(8.32872 0 2.83439)
(8.22659 1.24575e-17 3.20492)
(8.14154 -1.38488e-17 3.63047)
(8.0847 0 4.11971)
(8.05394 -1.67118e-17 4.69248)
(8.14526 5.53715e-18 5.29645)
(8.00567 -1.72753e-17 6.22997)
(8.90209 1.66546e-17 6.30766)
(7.25529 -7.42392e-18 8.17002)
(9.99682 1.92399e-18 0.0628959)
(9.9852 -1.72458e-18 0.124217)
(9.96487 1.76685e-18 0.184842)
(9.93691 0 0.246227)
(9.90192 -5.2703e-19 0.30968)
(9.86014 2.7412e-18 0.376305)
(9.81177 0 0.447153)
(9.75707 -1.15281e-18 0.523265)
(9.69618 1.19036e-18 0.605669)
(9.62912 -1.21166e-18 0.69542)
(9.55612 -1.24231e-18 0.793674)
(9.47775 -1.27253e-18 0.901752)
(9.39408 0 1.02112)
(9.30527 -2.02334e-18 1.15332)
(9.21205 5.4814e-18 1.3001)
(9.11515 -2.78207e-18 1.46357)
(9.0155 0 1.64612)
(8.9144 -7.17923e-19 1.85051)
(8.81344 -5.86818e-18 2.07997)
(8.71483 3.69563e-18 2.33838)
(8.62172 1.47047e-18 2.63036)
(8.53817 0 2.96139)
(8.46972 1.16555e-17 3.33807)
(8.42367 -1.28342e-17 3.76858)
(8.41267 2.67887e-18 4.26083)
(8.43275 2.60481e-18 4.83582)
(8.59016 1.36836e-17 5.43529)
(8.51125 0 6.36755)
(9.47999 0 6.46748)
(7.84302 3.29073e-18 8.313)
(9.997 1.19336e-19 0.0663965)
(9.98607 -2.07262e-18 0.131233)
(9.96701 -2.01227e-18 0.195481)
(9.94091 -5.16847e-19 0.260608)
(9.9084 4.23409e-18 0.327922)
(9.86967 -5.46963e-19 0.398547)
(9.82492 0 0.47356)
(9.77446 2.28473e-18 0.554025)
(9.71857 1.16698e-18 0.640993)
(9.65729 -1.19467e-18 0.735539)
(9.59098 2.45362e-18 0.838792)
(9.52011 1.25996e-18 0.952049)
(9.44501 0 1.07683)
(9.36624 -1.96036e-18 1.21465)
(9.28445 -4.68727e-18 1.36721)
(9.20049 4.06498e-18 1.53653)
(9.11552 1.36966e-18 1.72494)
(9.03109 -4.89704e-18 1.9351)
(8.94913 6.3392e-18 2.17013)
(8.87226 1.43065e-18 2.43373)
(8.80396 -1.27222e-17 2.73021)
(8.7487 1.12209e-17 3.06476)
(8.71261 0 3.44358)
(8.70347 2.69174e-18 3.87446)
(8.73523 -2.55076e-18 4.36479)
(8.80332 0 4.93622)
(9.01782 -8.35327e-18 5.53291)
(9.00942 1.26392e-17 6.44318)
(10.0218 -1.20758e-18 6.62582)
(8.4692 0 8.49463)
(9.99723 -3.90314e-18 0.069691)
(9.98703 2.06551e-18 0.137802)
(9.96931 0 0.205402)
(9.94518 0 0.273973)
(9.91526 -2.63031e-18 0.344828)
(9.87969 5.36988e-19 0.419123)
(9.83868 -3.30486e-18 0.49794)
(9.79266 -1.13178e-18 0.582335)
(9.7419 9.40651e-23 0.673366)
(9.68657 1.20088e-18 0.772128)
(9.62725 -4.82028e-18 0.879758)
(9.56417 0 0.997498)
(9.4978 0 1.1268)
(9.42911 1.35926e-20 1.26921)
(9.35874 -1.29353e-18 1.42637)
(9.28773 1.32918e-18 1.60023)
(9.21739 -1.34649e-18 1.793)
(9.14948 0 2.00715)
(9.08615 5.41942e-18 2.24562)
(9.03043 -5.41551e-18 2.51193)
(8.9861 -2.65637e-18 2.81007)
(8.95795 0 3.14482)
(8.95255 -2.52905e-18 3.52198)
(8.97813 0 3.94883)
(9.04958 1.34352e-17 4.43248)
(9.16349 -8.44528e-18 4.9938)
(9.42759 0 5.58704)
(9.50519 0 6.45101)
(10.5377 -1.08664e-18 6.76473)
(9.20008 7.0397e-18 8.73312)
(9.9975 3.77388e-18 0.0727514)
(9.98809 0 0.143894)
(9.97177 1.47926e-18 0.214577)
(9.9497 5.06945e-19 0.286288)
(9.92246 5.21337e-19 0.360365)
(9.89015 5.363e-19 0.437992)
(9.85304 1.09898e-18 0.520233)
(9.81163 3.34332e-18 0.608124)
(9.76618 0 0.702732)
(9.71692 1.16815e-18 0.805139)
(9.66456 4.7566e-18 0.916496)
(9.60938 -1.2085e-18 1.03802)
(9.55192 -1.22524e-18 1.17105)
(9.49326 1.37235e-20 1.31709)
(9.43424 1.27671e-18 1.47777)
(9.37602 -1.27519e-18 1.65492)
(9.32011 0 1.85058)
(9.26842 0 2.06706)
(9.22308 0 2.30701)
(9.18758 0 2.57368)
(9.16615 -2.50195e-18 2.87078)
(9.16357 5.01967e-18 3.20256)
(9.18683 2.44402e-18 3.5743)
(9.24457 -4.47606e-18 3.99261)
(9.35224 4.26766e-18 4.46414)
(9.50932 0 5.00682)
(9.81577 1.82923e-17 5.58895)
(9.9939 -7.92833e-19 6.37984)
(11.0279 -2.31777e-17 6.82891)
(10.0652 -4.38629e-18 9.02634)
(0.0638419 -1.17133e-19 -0.0655696)
(0.193601 3.2052e-19 -0.0624732)
(0.37754 0 -0.0483473)
(0.58533 0 -0.040638)
(0.815517 -1.49868e-19 -0.0371776)
(1.04122 0 -0.0360656)
(1.24142 1.00843e-20 -0.0354135)
(1.41457 0 -0.034668)
(1.56552 0 -0.0338258)
(1.69921 3.41631e-20 -0.032847)
(1.81891 7.69104e-21 -0.0316042)
(1.92688 -7.51824e-21 -0.0301387)
(2.02444 0 -0.0282442)
(2.11144 -1.93736e-20 -0.0256119)
(2.18713 -3.14155e-21 -0.0227447)
(2.25259 -3.11006e-21 -0.0204737)
(2.31038 -2.52582e-20 -0.0185193)
(2.36112 0 -0.0160844)
(2.40299 0 -0.0135049)
(2.43607 -1.73385e-21 -0.0117523)
(2.46379 -2.61986e-20 -0.0107012)
(2.48912 0 -0.00987504)
(2.51298 2.86771e-20 -0.0101297)
(2.53695 -2.66654e-20 -0.0126432)
(2.56508 -1.72871e-21 -0.0182468)
(2.60316 0 -0.0270992)
(2.65769 0 -0.038538)
(2.73527 -1.89231e-20 -0.0514953)
(2.84114 -4.99377e-22 -0.0645796)
(3.01357 0 -0.073951)
(0.01588 -2.33418e-19 -0.109924)
(0.120321 -6.21688e-19 -0.134905)
(0.308351 3.42168e-19 -0.122953)
(0.530759 -3.02333e-19 -0.11624)
(0.781964 -4.48834e-19 -0.11344)
(1.01923 0 -0.111533)
(1.22099 -9.88056e-21 -0.108368)
(1.38841 -7.3157e-20 -0.104095)
(1.52765 3.84633e-21 -0.0994482)
(1.64479 -9.93564e-20 -0.0947115)
(1.74525 6.07512e-20 -0.0898191)
(1.83307 2.79292e-20 -0.0850933)
(1.91083 -2.73213e-20 -0.079818)
(1.97968 2.57433e-20 -0.0726104)
(2.03841 0 -0.0647459)
(2.08663 3.69015e-20 -0.0590612)
(2.12773 -1.9141e-20 -0.054414)
(2.16424 1.29446e-20 -0.0470355)
(2.19217 -6.49434e-21 -0.0381418)
(2.20781 -7.03579e-21 -0.0330523)
(2.21421 3.53311e-20 -0.0329585)
(2.21397 0 -0.0327484)
(2.20589 -2.94085e-20 -0.0305647)
(2.18813 2.92866e-20 -0.0277896)
(2.16074 5.81407e-20 -0.0276849)
(2.12874 0 -0.0330401)
(2.1024 -1.44129e-21 -0.0460011)
(2.09758 2.07286e-20 -0.0688528)
(2.13229 1.44305e-21 -0.104681)
(2.25994 1.28044e-20 -0.152687)
(-0.0146 1.15274e-18 -0.147276)
(0.0428501 -1.43322e-20 -0.201377)
(0.199821 -6.63543e-19 -0.196596)
(0.385846 1.1669e-18 -0.189231)
(0.599321 -3.07618e-19 -0.185182)
(0.792787 0 -0.180974)
(0.948368 0 -0.174558)
(1.06821 -1.43555e-19 -0.166331)
(1.1584 1.51218e-19 -0.157744)
(1.22507 7.14063e-20 -0.149387)
(1.27432 1.54636e-21 -0.141088)
(1.31064 1.1323e-19 -0.133975)
(1.33656 0 -0.126957)
(1.355 -2.61007e-20 -0.115963)
(1.36436 5.17831e-20 -0.102155)
(1.35844 -1.95096e-19 -0.0929894)
(1.34104 6.67955e-20 -0.0908771)
(1.32442 9.75057e-20 -0.0848073)
(1.30021 1.39911e-20 -0.0666199)
(1.24013 -6.083e-20 -0.0420812)
(1.1428 0 -0.0213759)
(1.03522 0 -0.00884501)
(0.940858 0 -0.00115689)
(0.872743 0 0.00154376)
(0.831758 -2.76697e-21 -0.0028539)
(0.817366 4.01805e-21 -0.0200904)
(0.842857 0 -0.0596106)
(0.921253 0 -0.123762)
(1.05362 0 -0.214514)
(1.27471 1.2976e-20 -0.33213)
(-0.0315817 0 -0.159107)
(-0.0117909 0 -0.240092)
(0.10803 0 -0.24698)
(0.248178 0 -0.241513)
(0.410716 2.83761e-19 -0.238157)
(0.546688 -3.92377e-19 -0.231448)
(0.643472 0 -0.220865)
(0.704035 -1.4274e-19 -0.207504)
(0.734769 1.47334e-19 -0.194098)
(0.741492 -1.30538e-19 -0.181597)
(0.730797 0 -0.168944)
(0.708039 -2.33948e-19 -0.157729)
(0.669244 0 -0.149426)
(0.624831 -1.08703e-19 -0.137383)
(0.583787 0 -0.115609)
(0.514796 1.96331e-19 -0.0870151)
(0.390526 5.94206e-20 -0.0622709)
(0.244645 -1.55159e-19 -0.0400405)
(0.131685 -1.17181e-19 -0.0118394)
(0.0505146 3.3855e-20 0.0156366)
(-0.0047599 1.75781e-20 0.0306759)
(-0.0402665 9.41496e-21 0.0287468)
(-0.0615802 1.93877e-22 0.015006)
(-0.0603197 -1.61354e-19 -0.00704889)
(-0.0403177 -6.35764e-20 -0.0376675)
(0.0187063 -4.67332e-21 -0.0857553)
(0.118613 1.17202e-19 -0.161532)
(0.248053 -9.72274e-20 -0.259294)
(0.404343 0 -0.380032)
(0.581136 -2.83477e-20 -0.525446)
(-0.0442437 0 -0.158554)
(-0.0543992 7.13033e-19 -0.264463)
(0.0247543 6.06025e-19 -0.281736)
(0.114384 -6.01241e-19 -0.276433)
(0.216357 0 -0.271326)
(0.284476 7.85392e-20 -0.258869)
(0.312585 3.73683e-19 -0.241687)
(0.30546 -3.1517e-19 -0.221849)
(0.270298 -2.79702e-19 -0.202675)
(0.211087 1.43535e-19 -0.185901)
(0.13673 -1.26186e-19 -0.168562)
(0.0567751 1.83264e-19 -0.146414)
(-0.0685899 -1.23708e-21 -0.124627)
(-0.203309 -1.13006e-19 -0.103415)
(-0.320306 8.40626e-20 -0.0737144)
(-0.413069 -1.41431e-19 -0.0423511)
(-0.490328 -1.19453e-19 -0.0209097)
(-0.550372 0 -0.0127499)
(-0.593144 1.4345e-19 -0.00782276)
(-0.620953 -1.62501e-20 -0.000780138)
(-0.635281 0 0.00257638)
(-0.635679 0 -0.00373752)
(-0.620828 1.46814e-19 -0.0224155)
(-0.590059 1.4293e-19 -0.0539924)
(-0.539068 1.39734e-19 -0.1032)
(-0.464403 0 -0.172456)
(-0.369753 -1.12887e-19 -0.262363)
(-0.258101 9.21366e-20 -0.374358)
(-0.144557 -6.14157e-20 -0.502994)
(-0.0639626 0 -0.639358)
(-0.0561041 -1.34255e-18 -0.153245)
(-0.0939642 -6.69353e-19 -0.276305)
(-0.0585019 6.19657e-19 -0.297579)
(-0.0249561 -5.8202e-19 -0.287781)
(0.00649124 6.42874e-19 -0.276249)
(-0.00154506 0 -0.253444)
(-0.050535 -8.07117e-20 -0.226175)
(-0.13306 -1.50833e-19 -0.199026)
(-0.237601 2.83785e-19 -0.173033)
(-0.362319 1.32099e-19 -0.149997)
(-0.493629 1.21762e-19 -0.128032)
(-0.613067 -5.56584e-20 -0.105447)
(-0.719198 5.46511e-20 -0.0868963)
(-0.815164 1.05715e-19 -0.0732691)
(-0.896081 -5.40062e-20 -0.0585627)
(-0.955221 2.49213e-20 -0.0417544)
(-0.996539 2.52508e-20 -0.0270238)
(-1.02801 0 -0.0180118)
(-1.04783 0 -0.013337)
(-1.0542 0 -0.0123854)
(-1.04746 -1.73904e-20 -0.0179943)
(-1.02869 1.72442e-20 -0.0331751)
(-0.999125 2.91625e-21 -0.0603197)
(-0.959581 8.62016e-21 -0.102742)
(-0.906135 -1.42056e-19 -0.163949)
(-0.84167 0 -0.245941)
(-0.768096 -1.0272e-19 -0.348278)
(-0.694738 -2.98149e-21 -0.465406)
(-0.643286 -4.67629e-20 -0.584766)
(-0.630572 -6.07218e-22 -0.680179)
(-0.0679746 -4.35134e-19 -0.151138)
(-0.135069 0 -0.273661)
(-0.148087 -5.99709e-19 -0.288896)
(-0.179363 6.40274e-19 -0.267531)
(-0.230174 6.18061e-19 -0.243702)
(-0.318397 -6.30571e-19 -0.209305)
(-0.43433 0 -0.175749)
(-0.567167 1.47279e-19 -0.146844)
(-0.701226 -2.6413e-19 -0.122701)
(-0.82877 1.27548e-19 -0.10392)
(-0.948987 0 -0.0886561)
(-1.05592 -1.03848e-19 -0.0746158)
(-1.1439 -9.65673e-20 -0.0622749)
(-1.21513 0 -0.052238)
(-1.27068 -1.99698e-19 -0.0425798)
(-1.31166 0 -0.0334781)
(-1.33872 1.09419e-19 -0.0278228)
(-1.35363 -2.3814e-19 -0.0264351)
(-1.35704 3.21692e-20 -0.0283403)
(-1.34934 -3.18184e-20 -0.0341564)
(-1.33175 0 -0.046174)
(-1.30605 1.24687e-19 -0.0670858)
(-1.27473 -1.21693e-19 -0.0998587)
(-1.23811 1.37523e-19 -0.148041)
(-1.19598 0 -0.214554)
(-1.15082 0 -0.301184)
(-1.10527 1.01759e-19 -0.405507)
(-1.0693 0 -0.519122)
(-1.05755 1.00711e-19 -0.62718)
(-1.06598 5.39345e-22 -0.703839)
(-0.0783759 8.884e-19 -0.153345)
(-0.178952 0 -0.251402)
(-0.250096 6.09218e-19 -0.248318)
(-0.352107 -6.61825e-19 -0.21201)
(-0.473626 0 -0.176622)
(-0.613975 -4.07046e-20 -0.138778)
(-0.758953 0 -0.106895)
(-0.904468 2.74334e-19 -0.0821313)
(-1.04204 0 -0.0646022)
(-1.16225 2.22848e-19 -0.0532548)
(-1.26307 0 -0.0459731)
(-1.34706 1.89903e-19 -0.0410894)
(-1.41829 6.63052e-21 -0.0375364)
(-1.47659 0 -0.0350104)
(-1.52109 3.81883e-19 -0.032956)
(-1.55067 0 -0.0320375)
(-1.56588 -2.19049e-19 -0.033962)
(-1.56861 4.6872e-19 -0.0390571)
(-1.5608 -3.24546e-20 -0.0468415)
(-1.54457 3.21724e-20 -0.0579204)
(-1.52211 0 -0.0741454)
(-1.49561 1.48673e-19 -0.0980826)
(-1.46807 -8.66277e-21 -0.13313)
(-1.44025 -1.25594e-19 -0.183044)
(-1.41297 -2.43894e-19 -0.250992)
(-1.3877 -1.05782e-20 -0.338269)
(-1.36715 -1.80386e-19 -0.441306)
(-1.35934 8.79379e-22 -0.549805)
(-1.37202 -8.60675e-22 -0.646776)
(-1.39062 0 -0.708172)
(-0.085959 0 -0.150547)
(-0.223651 1.26778e-18 -0.20258)
(-0.355952 -1.31423e-18 -0.175989)
(-0.517136 -3.31873e-19 -0.128068)
(-0.680758 0 -0.0874317)
(-0.846918 0 -0.0497315)
(-1.00235 0 -0.0227483)
(-1.13804 -1.04812e-20 -0.00830986)
(-1.25713 0 -0.0031318)
(-1.36316 -3.15516e-19 -0.00311481)
(-1.45482 9.9079e-20 -0.00542246)
(-1.53173 -3.55958e-19 -0.0085778)
(-1.59418 9.08289e-21 -0.0125713)
(-1.64235 4.50728e-20 -0.0176738)
(-1.67602 -4.09327e-19 -0.024005)
(-1.69489 1.96449e-19 -0.0319397)
(-1.69972 2.14132e-19 -0.0418278)
(-1.69267 -2.3283e-19 -0.0533327)
(-1.6766 3.31306e-20 -0.0660266)
(-1.6547 -3.28908e-20 -0.0805082)
(-1.63012 -1.79381e-20 -0.0985868)
(-1.60561 -2.83585e-19 -0.122966)
(-1.58399 3.07527e-19 -0.157361)
(-1.56655 -8.15799e-21 -0.205774)
(-1.55408 5.91583e-21 -0.271864)
(-1.54765 0 -0.357003)
(-1.54899 3.57406e-19 -0.457065)
(-1.56344 -1.55889e-21 -0.560418)
(-1.59305 7.02807e-20 -0.64838)
(-1.61799 -2.4821e-20 -0.699004)
(-0.0873747 -1.71929e-18 -0.130129)
(-0.26099 -1.25627e-18 -0.126134)
(-0.447455 1.38188e-18 -0.0790978)
(-0.647296 3.52614e-19 -0.0212311)
(-0.828914 0 0.0243594)
(-0.98815 -1.52031e-19 0.049887)
(-1.13258 0 0.0617071)
(-1.26459 -2.49818e-19 0.0647188)
(-1.38176 0 0.0605318)
(-1.48254 -9.17462e-20 0.051012)
(-1.56632 1.74577e-19 0.0388053)
(-1.63385 8.51538e-20 0.0260027)
(-1.68629 2.04572e-19 0.0130551)
(-1.72423 1.17161e-19 -0.000648882)
(-1.74758 1.77009e-19 -0.015851)
(-1.75631 -1.42117e-19 -0.0327287)
(-1.75144 -2.67481e-19 -0.0505331)
(-1.7356 2.44364e-19 -0.0680065)
(-1.71249 -3.42897e-20 -0.0844378)
(-1.68611 3.40755e-20 -0.100419)
(-1.66037 3.04495e-19 -0.11793)
(-1.6387 0 -0.140071)
(-1.62385 -2.96334e-19 -0.170988)
(-1.6172 8.81741e-21 -0.215087)
(-1.61919 2.50889e-19 -0.276549)
(-1.6305 2.11224e-19 -0.357343)
(-1.65162 -1.72019e-19 -0.453537)
(-1.68488 -1.12512e-21 -0.552654)
(-1.72758 -7.06646e-20 -0.634608)
(-1.75722 4.81903e-20 -0.678633)
(-0.0774258 1.72745e-18 -0.0992489)
(-0.280856 -3.51441e-21 -0.0225058)
(-0.504224 -6.85787e-19 0.0514846)
(-0.710296 7.29666e-19 0.107077)
(-0.887276 7.89325e-19 0.1349)
(-1.04857 -4.67857e-19 0.150546)
(-1.19498 -2.43856e-19 0.154077)
(-1.32531 2.37922e-19 0.146374)
(-1.43733 0 0.129786)
(-1.52973 0 0.107727)
(-1.60286 0 0.0838837)
(-1.65876 0 0.0608133)
(-1.6999 1.33972e-19 0.0387866)
(-1.72749 -1.55185e-19 0.0163475)
(-1.74113 4.42439e-20 -0.00797124)
(-1.74029 1.41529e-19 -0.0339844)
(-1.72601 -2.35587e-21 -0.0596463)
(-1.70156 -2.43724e-19 -0.082446)
(-1.67168 2.84544e-19 -0.10124)
(-1.64129 0 -0.116727)
(-1.61487 -3.24009e-19 -0.131252)
(-1.59623 1.96364e-20 -0.148443)
(-1.58838 3.19482e-19 -0.173021)
(-1.59287 2.96479e-19 -0.210143)
(-1.60941 1.8619e-21 -0.264615)
(-1.63739 -4.34751e-19 -0.33906)
(-1.67691 1.68258e-19 -0.430738)
(-1.72719 1.15163e-19 -0.526976)
(-1.78138 -2.52354e-24 -0.606347)
(-1.81529 -2.31365e-20 -0.64752)
(-0.0224503 -1.73849e-18 0.0632665)
(-0.246797 1.42506e-18 0.111197)
(-0.500303 7.92466e-19 0.193451)
(-0.71047 -7.22107e-19 0.236351)
(-0.892034 -3.14086e-19 0.257855)
(-1.0547 2.59735e-19 0.263565)
(-1.19924 -4.73853e-19 0.254727)
(-1.32414 2.86911e-20 0.233035)
(-1.42713 1.83196e-19 0.201423)
(-1.50718 -1.33294e-19 0.164574)
(-1.5659 1.18579e-19 0.127808)
(-1.60727 1.12162e-19 0.0944769)
(-1.63556 -1.00837e-19 0.0642575)
(-1.65262 3.90423e-21 0.0339051)
(-1.65713 -3.58103e-20 0.000534485)
(-1.64712 -1.85827e-19 -0.035077)
(-1.62319 2.19022e-19 -0.0688118)
(-1.58968 2.65698e-19 -0.0961741)
(-1.55291 -4.31213e-22 -0.115645)
(-1.51894 3.99588e-20 -0.128386)
(-1.49265 3.3325e-19 -0.137468)
(-1.47774 0 -0.147084)
(-1.47714 -3.21417e-19 -0.162442)
(-1.49277 -2.98936e-19 -0.189801)
(-1.52428 -2.79349e-19 -0.235161)
(-1.56901 4.4916e-19 -0.301799)
(-1.62587 -1.70542e-19 -0.388272)
(-1.69243 -1.15465e-19 -0.482986)
(-1.75796 0 -0.56341)
(-1.79656 0 -0.605531)
(-0.0117514 1.72232e-18 0.0614081)
(-0.210026 -1.45612e-18 0.290247)
(-0.45441 -9.30973e-20 0.356396)
(-0.669313 0 0.387902)
(-0.850998 4.2992e-19 0.395847)
(-1.01042 -2.69265e-19 0.386915)
(-1.14869 0 0.361598)
(-1.26388 0 0.321944)
(-1.3532 0 0.271758)
(-1.41558 2.86882e-20 0.21751)
(-1.45431 -2.70405e-20 0.167055)
(-1.4766 -1.12409e-19 0.124727)
(-1.48971 6.33504e-20 0.0889447)
(-1.49609 1.63038e-19 0.0528643)
(-1.49202 -3.19041e-20 0.0106851)
(-1.47244 1.74075e-19 -0.0356112)
(-1.43709 -2.28903e-19 -0.0780899)
(-1.39249 -2.69958e-19 -0.108776)
(-1.34777 -6.24714e-19 -0.126421)
(-1.3105 -2.10782e-20 -0.13358)
(-1.28565 -3.59135e-19 -0.134568)
(-1.27617 3.97801e-19 -0.134222)
(-1.28411 1.37792e-21 -0.137968)
(-1.3112 -2.60081e-21 -0.152754)
(-1.35829 2.85266e-19 -0.18683)
(-1.42222 1.28422e-20 -0.245082)
(-1.49583 1.80248e-19 -0.325279)
(-1.57826 1.15456e-19 -0.419329)
(-1.65608 0 -0.504437)
(-1.70057 0 -0.551936)
(0.142743 0 0.683502)
(-0.0439273 6.98336e-19 0.437943)
(-0.374295 -7.26574e-19 0.551318)
(-0.591466 0 0.54302)
(-0.767625 3.79194e-19 0.530387)
(-0.919438 -2.4291e-19 0.50263)
(-1.0478 -1.70093e-19 0.457798)
(-1.14924 6.39842e-20 0.399488)
(-1.21951 -1.56918e-19 0.331774)
(-1.2567 1.75418e-19 0.261666)
(-1.26673 -9.23065e-20 0.199468)
(-1.26244 0 0.151786)
(-1.25644 -9.22605e-20 0.115756)
(-1.25195 -7.84098e-20 0.0771745)
(-1.23964 -4.56868e-20 0.024815)
(-1.20809 -1.85285e-19 -0.0353174)
(-1.15562 2.6078e-19 -0.0875786)
(-1.093 -2.07026e-20 -0.120181)
(-1.03653 3.65261e-19 -0.131772)
(-0.995361 -4.23818e-19 -0.128926)
(-0.972795 -4.48657e-19 -0.11842)
(-0.970993 -4.07063e-19 -0.105689)
(-0.990362 4.34352e-19 -0.0961575)
(-1.03156 0 -0.0963033)
(-1.09397 -3.34751e-19 -0.115977)
(-1.17699 -2.59685e-19 -0.163325)
(-1.27541 -1.81741e-19 -0.239841)
(-1.37264 -2.38396e-19 -0.333394)
(-1.46405 1.35932e-21 -0.426053)
(-1.51641 0 -0.484308)
(0.612374 -8.91847e-19 -0.099276)
(-0.144411 5.42164e-19 0.423929)
(-0.280406 1.375e-19 0.78928)
(-0.508055 -1.31127e-19 0.750457)
(-0.658117 -3.48657e-19 0.740514)
(-0.796448 3.07109e-19 0.689242)
(-0.908788 3.05959e-19 0.61844)
(-0.988746 -1.38748e-19 0.534266)
(-1.03148 1.7474e-19 0.432159)
(-1.03315 -9.00278e-20 0.316864)
(-1.00208 2.36634e-20 0.212461)
(-0.959659 3.05539e-20 0.145042)
(-0.929691 2.37265e-20 0.110533)
(-0.916696 1.0283e-20 0.0740323)
(-0.897797 -1.0294e-20 0.017997)
(-0.847547 0 -0.0479043)
(-0.758812 0 -0.105911)
(-0.666034 3.43983e-19 -0.134193)
(-0.590833 -4.24178e-19 -0.131255)
(-0.540926 -5.15603e-20 -0.111086)
(-0.518825 9.91306e-19 -0.0839407)
(-0.52377 0 -0.0551115)
(-0.555472 -4.35238e-19 -0.0301847)
(-0.614124 -1.39784e-20 -0.0140803)
(-0.697014 3.5843e-19 -0.0188052)
(-0.799339 -1.01108e-20 -0.0518905)
(-0.918263 0 -0.12059)
(-1.04532 1.23377e-19 -0.219258)
(-1.14924 -2.74862e-22 -0.321694)
(-1.21175 3.04085e-22 -0.396751)
(9.99781 3.4859e-18 0.0756101)
(9.98923 3.7964e-18 0.149583)
(9.97447 -3.78704e-18 0.223128)
(9.9546 0 0.297732)
(9.93016 0 0.374763)
(9.90128 0 0.455428)
(9.86829 -3.1188e-18 0.54075)
(9.83167 -1.07246e-18 0.631751)
(9.79171 2.16318e-18 0.729504)
(9.74878 0 0.835071)
(9.70353 -1.13226e-18 0.94958)
(9.65647 -2.29396e-18 1.07422)
(9.60828 -1.16426e-18 1.21023)
(9.55996 3.54638e-18 1.35903)
(9.51256 1.18775e-18 1.52217)
(9.4674 1.21516e-18 1.70137)
(9.42612 4.85525e-18 1.89851)
(9.39084 -3.27487e-21 2.11574)
(9.36359 -2.45134e-18 2.35533)
(9.34812 0 2.6201)
(9.34897 0 2.91344)
(9.37099 0 3.23906)
(9.42145 -4.31958e-18 3.60148)
(9.50929 -1.22659e-17 4.00626)
(9.64994 1.50688e-17 4.45897)
(9.84669 6.48766e-18 4.97239)
(10.1868 -1.14377e-17 5.5273)
(10.4737 -8.47241e-18 6.21294)
(11.6016 6.78655e-18 6.69302)
(12.7583 2.50237e-18 9.26922)
(9.99815 -1.59383e-20 0.0782595)
(9.99045 -3.58603e-18 0.154848)
(9.97735 2.29941e-18 0.231024)
(9.95981 -4.69894e-19 0.308267)
(9.93827 0 0.387978)
(9.91296 -9.77319e-19 0.471366)
(9.88422 1.01394e-18 0.559421)
(9.85249 -2.0464e-18 0.653139)
(9.81816 -2.10113e-18 0.753585)
(9.78171 -2.12292e-18 0.861802)
(9.74376 0 0.97887)
(9.70494 1.10644e-18 1.10591)
(9.66606 0 1.24407)
(9.62812 -2.24513e-18 1.39466)
(9.59232 -7.97665e-18 1.55915)
(9.56007 4.58673e-18 1.73912)
(9.53317 -6.88349e-18 1.93624)
(9.5137 9.18831e-18 2.15242)
(9.50419 -6.87889e-18 2.38969)
(9.50817 -2.22608e-18 2.65031)
(9.52984 4.34711e-18 2.93705)
(9.57457 -8.41451e-18 3.25311)
(9.6496 1.23035e-17 3.60202)
(9.76376 -7.40081e-18 3.98784)
(9.93158 2.07475e-20 4.41428)
(10.1588 -3.8551e-19 4.88755)
(10.5136 -5.30583e-18 5.39307)
(10.8543 8.1701e-18 5.94642)
(11.5769 0 6.34555)
(12.3446 1.15276e-18 7.15151)
(9.99852 -3.40118e-18 0.0806594)
(9.99168 0 0.159616)
(9.98033 3.54888e-18 0.238156)
(9.96521 0 0.317765)
(9.94665 9.25582e-19 0.399859)
(9.92501 8.86063e-21 0.485638)
(9.90062 -9.66979e-19 0.576059)
(9.87393 9.96287e-19 0.67209)
(9.84538 3.02861e-18 0.774758)
(9.81552 1.21489e-20 0.885085)
(9.78499 2.07374e-18 1.00409)
(9.7545 -2.10141e-18 1.1328)
(9.72492 0 1.27228)
(9.69732 -2.14734e-18 1.42375)