/*--------------------------------*- C++ -*----------------------------------*\
| =========                 |                                                 |
| \\      /  F ield         | OpenFOAM: The Open Source CFD Toolbox           |
|  \\    /   O peration     | Version:  4.1                                   |
|   \\  /    A nd           | Web:      www.OpenFOAM.org                      |
|    \\/     M anipulation  |                                                 |
\*---------------------------------------------------------------------------*/
FoamFile
{
    version     2.0;
    format      ascii;
    class       volVectorField;
    location    "3.5";
    object      cellDisplacement;
}
// * * * * * * * * * * * * * * * * * * * * * * * * * * * * * * * * * * * * * //

dimensions      [0 1 0 0 0 0 0];

internalField   nonuniform List<vector> 
2790
(
(0.00712597 1.04775e-05 0)
(0.0203887 3.03878e-05 0)
(0.0318005 4.86078e-05 0)
(0.0415003 6.57558e-05 0)
(0.0496412 8.23192e-05 0)
(0.0563649 9.87448e-05 0)
(0.0617972 0.000115416 0)
(0.0660492 0.000132672 0)
(0.0692191 0.000150813 0)
(0.0713946 0.000170029 0)
(0.0726545 0.000190657 0)
(0.0730677 0.000213017 0)
(0.0726953 0.000237432 0)
(0.0715921 0.000264247 0)
(0.0698082 0.00029385 0)
(0.067391 0.000326709 0)
(0.0643869 0.000363369 0)
(0.0608381 0.000403814 0)
(0.0567892 0.00044869 0)
(0.0522887 0.000498572 0)
(0.0473902 0.000554036 0)
(0.0421555 0.000615691 0)
(0.0366572 0.000684185 0)
(0.0309831 0.000760202 0)
(0.0252435 0.000844646 0)
(0.0195861 0.000939199 0)
(0.0142037 0.00104445 0)
(0.00936272 0.00116008 0)
(0.00545201 0.00128197 0)
(0.00319878 0.00139544 0)
(0.00713609 3.13977e-05 0)
(0.0204189 9.10627e-05 0)
(0.0318506 0.000145663 0)
(0.0415701 0.000197055 0)
(0.0497312 0.000246678 0)
(0.0564774 0.000295878 0)
(0.0619351 0.000345802 0)
(0.0662158 0.000397473 0)
(0.0694176 0.000451818 0)
(0.0716291 0.000509315 0)
(0.0729303 0.000571023 0)
(0.0733908 0.000637897 0)
(0.0730722 0.000710891 0)
(0.0720302 0.000791023 0)
(0.0703157 0.000879424 0)
(0.0679768 0.000977473 0)
(0.0650633 0.00108718 0)
(0.0616169 0.00120779 0)
(0.0576835 0.0013416 0)
(0.0533133 0.00149028 0)
(0.0485621 0.00165546 0)
(0.0434939 0.0018389 0)
(0.0381842 0.00204239 0)
(0.0327228 0.00226761 0)
(0.0272177 0.00251611 0)
(0.0218272 0.00279383 0)
(0.0167512 0.00310093 0)
(0.0122768 0.00343648 0)
(0.00881196 0.00378628 0)
(0.00705483 0.00410141 0)
(0.00715593 5.22049e-05 0)
(0.020478 0.000151409 0)
(0.0319493 0.000242194 0)
(0.0417075 0.000327664 0)
(0.0499086 0.000410122 0)
(0.0566994 0.000491851 0)
(0.0622076 0.000574747 0)
(0.0665454 0.00066051 0)
(0.069811 0.000750828 0)
(0.0720941 0.000846114 0)
(0.0734776 0.000948357 0)
(0.0740323 0.0010591 0)
(0.0738213 0.0011799 0)
(0.0729016 0.00131239 0)
(0.0713255 0.00145833 0)
(0.069141 0.00161971 0)
(0.066402 0.00179821 0)
(0.0631582 0.00199593 0)
(0.0594527 0.00221547 0)
(0.05534 0.00245912 0)
(0.0508794 0.00272943 0)
(0.0461399 0.00302916 0)
(0.0412043 0.00336124 0)
(0.0361717 0.00372818 0)
(0.0311466 0.00413305 0)
(0.026279 0.00457723 0)
(0.0217798 0.00505999 0)
(0.0179747 0.00558391 0)
(0.0152842 0.00612325 0)
(0.0143405 0.00659783 0)
(0.00718559 7.28132e-05 0)
(0.0205664 0.000211176 0)
(0.0320971 0.000337793 0)
(0.0419133 0.000457061 0)
(0.050173 0.000571952 0)
(0.0570302 0.00068578 0)
(0.0626136 0.000801154 0)
(0.0670369 0.000920389 0)
(0.0703947 0.00104486 0)
(0.0727827 0.00117672 0)
(0.0742879 0.00131822 0)
(0.0749817 0.00147135 0)
(0.0749291 0.00163817 0)
(0.0741897 0.00182087 0)
(0.0728187 0.00202171 0)
(0.0708679 0.00224301 0)
(0.068389 0.00248649 0)
(0.0654399 0.00275701 0)
(0.0620695 0.00305683 0)
(0.058335 0.00338877 0)
(0.0542998 0.00375594 0)
(0.0500375 0.00416175 0)
(0.0456415 0.00461016 0)
(0.0412187 0.005104 0)
(0.036899 0.00564582 0)
(0.0328279 0.00623155 0)
(0.0291927 0.00686088 0)
(0.026286 0.00752381 0)
(0.0246258 0.0081954 0)
(0.0247438 0.00876923 0)
(0.007225 9.31371e-05 0)
(0.0206834 0.000270108 0)
(0.0322942 0.000432025 0)
(0.0421856 0.00058409 0)
(0.0505206 0.000730593 0)
(0.057465 0.00087568 0)
(0.0631467 0.00102258 0)
(0.0676781 0.00117423 0)
(0.071157 0.00133154 0)
(0.0736864 0.00149859 0)
(0.0753516 0.00167763 0)
(0.0762274 0.00187106 0)
(0.0763821 0.00208142 0)
(0.0758785 0.00231135 0)
(0.0747754 0.0025636 0)
(0.0731292 0.00284105 0)
(0.070997 0.00314681 0)
(0.0684367 0.00348475 0)
(0.0655051 0.00385798 0)
(0.0622645 0.00426966 0)
(0.058783 0.00472289 0)
(0.0551337 0.00522066 0)
(0.0514277 0.00576805 0)
(0.0477769 0.00636584 0)
(0.0443257 0.00701436 0)
(0.0412412 0.00770938 0)
(0.0387253 0.00844298 0)
(0.0369796 0.00919339 0)
(0.0364933 0.0099261 0)
(0.037801 0.0105273 0)
(0.00727387 0.000112987 0)
(0.0208269 0.000327629 0)
(0.0325275 0.000523835 0)
(0.0425116 0.000707859 0)
(0.0509463 0.000885097 0)
(0.0579983 0.00106037 0)
(0.0638016 0.00123756 0)
(0.0684639 0.00141958 0)
(0.0720919 0.00160889 0)
(0.074793 0.00180939 0)
(0.0766533 0.00202382 0)
(0.077751 0.00225501 0)
(0.0781579 0.00250588 0)
(0.0779412 0.00277946 0)
(0.0771639 0.00307888 0)
(0.0758864 0.00340743 0)
(0.0741735 0.00376908 0)
(0.0720863 0.0041673 0)
(0.0696879 0.00460548 0)
(0.0670491 0.00508693 0)
(0.0642469 0.0056144 0)
(0.0613583 0.00619124 0)
(0.0584801 0.00681858 0)
(0.0557381 0.00749527 0)
(0.053301 0.00822038 0)
(0.0513429 0.00898434 0)
(0.0500571 0.00977052 0)
(0.0496509 0.0105523 0)
(0.050425 0.0112761 0)
(0.052895 0.0118348 0)
(0.00733156 0.000132256 0)
(0.0209957 0.000383435 0)
(0.0328059 0.000612917 0)
(0.0428986 0.00082785 0)
(0.0514459 0.0010346 0)
(0.0586233 0.00123879 0)
(0.0645643 0.0014447 0)
(0.0693817 0.00165562 0)
(0.0731873 0.00187506 0)
(0.0760888 0.00210681 0)
(0.0781765 0.00235406 0)
(0.0795323 0.00261995 0)
(0.0802323 0.00290771 0)
(0.0803484 0.00322066 0)
(0.0799489 0.00356215 0)
(0.0790961 0.00393549 0)
(0.0778675 0.00434582 0)
(0.0763264 0.00479588 0)
(0.0745418 0.00528905 0)
(0.0725953 0.0058289 0)
(0.0705703 0.00641769 0)
(0.0685621 0.00705723 0)
(0.0666531 0.00774439 0)
(0.0649655 0.00847759 0)
(0.0636507 0.00924961 0)
(0.0629222 0.0100459 0)
(0.0629419 0.0108404 0)
(0.0638817 0.011597 0)
(0.0659257 0.0122581 0)
(0.0694113 0.0127229 0)
(0.0073981 0.000150859 0)
(0.021188 0.000437254 0)
(0.0331151 0.000698597 0)
(0.0433315 0.000943166 0)
(0.0520129 0.00117823 0)
(0.0593333 0.0014099 0)
(0.0654333 0.00164303 0)
(0.0704257 0.00188111 0)
(0.0744291 0.00212838 0)
(0.0775565 0.00238893 0)
(0.0799 0.00266611 0)
(0.0815457 0.00296329 0)
(0.0825745 0.00328391 0)
(0.0830635 0.00363151 0)
(0.0830893 0.00400963 0)
(0.0827244 0.00442271 0)
(0.08204 0.00487432 0)
(0.0811103 0.00536691 0)
(0.0800051 0.00590372 0)
(0.078826 0.00648897 0)
(0.0776568 0.00712327 0)
(0.0766019 0.00780659 0)
(0.0757598 0.00853494 0)
(0.0752452 0.00930199 0)
(0.0751634 0.0100951 0)
(0.0757366 0.0108944 0)
(0.0770896 0.0116638 0)
(0.0793323 0.0123595 0)
(0.0825425 0.0129238 0)
(0.0868098 0.0132717 0)
(0.0074734 0.000168707 0)
(0.0214029 0.000488827 0)
(0.0334631 0.000780666 0)
(0.0438163 0.00105346 0)
(0.0526418 0.00131527 0)
(0.0601199 0.00157281 0)
(0.0663912 0.00183124 0)
(0.0715764 0.00209426 0)
(0.0758017 0.00236717 0)
(0.0791773 0.00265379 0)
(0.0818011 0.00295769 0)
(0.0837637 0.00328239 0)
(0.0851506 0.0036314 0)
(0.0860441 0.00400842 0)
(0.08653 0.00441759 0)
(0.0866928 0.00486325 0)
(0.0865994 0.00534718 0)
(0.0863365 0.00587238 0)
(0.0859862 0.00644275 0)
(0.0856357 0.00706017 0)
(0.085379 0.00772412 0)
(0.0853484 0.00843437 0)
(0.0856386 0.00918421 0)
(0.0863535 0.00996353 0)
(0.0875908 0.0107577 0)
(0.0895106 0.011539 0)
(0.0921911 0.0122648 0)
(0.0956593 0.0128877 0)
(0.0998734 0.0133541 0)
(0.104692 0.0136036 0)
(0.00755862 0.000185827 0)
(0.0216388 0.000537951 0)
(0.0338335 0.000858445 0)
(0.0443364 0.00115784 0)
(0.0533252 0.00144498 0)
(0.0609749 0.00172663 0)
(0.0674343 0.00200865 0)
(0.0728309 0.0022951 0)
(0.0772947 0.00259125 0)
(0.0809382 0.00290112 0)
(0.0838636 0.00322843 0)
(0.0861662 0.00357672 0)
(0.0879362 0.00394944 0)
(0.0892579 0.00435009 0)
(0.0902288 0.00478336 0)
(0.0909357 0.00525252 0)
(0.0914612 0.00575993 0)
(0.0918974 0.0063082 0)
(0.0923415 0.00690012 0)
(0.0928671 0.00753499 0)
(0.0935786 0.00821392 0)
(0.0946182 0.0089348 0)
(0.0960825 0.00968804 0)
(0.0980676 0.0104619 0)
(0.100656 0.0112406 0)
(0.10393 0.0119923 0)
(0.107913 0.0126725 0)
(0.11253 0.013235 0)
(0.117607 0.0136356 0)
(0.122869 0.0138364 0)
(0.00764136 0.000201856 0)
(0.021882 0.000584098 0)
(0.0342321 0.000931825 0)
(0.0448989 0.00125656 0)
(0.05406 0.00156742 0)
(0.061893 0.00187136 0)
(0.0685498 0.00217444 0)
(0.0741677 0.00248171 0)
(0.0788828 0.00279837 0)
(0.082808 0.00312841 0)
(0.0860498 0.00347555 0)
(0.0887085 0.00384329 0)
(0.0908793 0.00423481 0)
(0.0926575 0.00465417 0)
(0.0941305 0.00510474 0)
(0.0954009 0.00558975 0)
(0.0965615 0.00611138 0)
(0.0977097 0.00667154 0)
(0.0989456 0.0072715 0)
(0.100364 0.0079106 0)
(0.102074 0.00858956 0)
(0.104196 0.00930386 0)
(0.106841 0.0100431 0)
(0.110099 0.010795 0)
(0.114043 0.0115446 0)
(0.11864 0.0122619 0)
(0.123907 0.0129057 0)
(0.129642 0.0134349 0)
(0.135548 0.0138125 0)
(0.141272 0.0139977 0)
(0.00772051 0.00021666 0)
(0.0221313 0.000627259 0)
(0.0346556 0.00100078 0)
(0.0454981 0.00134917 0)
(0.0548356 0.00168151 0)
(0.0628509 0.0020053 0)
(0.0697151 0.00232723 0)
(0.0755694 0.00265305 0)
(0.0805456 0.00298742 0)
(0.084762 0.00333439 0)
(0.0883297 0.00369766 0)
(0.0913539 0.00408063 0)
(0.0939364 0.00448651 0)
(0.0961804 0.0049187 0)
(0.0981734 0.00537996 0)
(0.100012 0.00587297 0)
(0.101808 0.00639957 0)
(0.103664 0.00696082 0)
(0.105688 0.00755685 0)
(0.107986 0.00818632 0)
(0.110676 0.00884894 0)
(0.113838 0.0095391 0)
(0.117624 0.0102466 0)
(0.122107 0.01096 0)
(0.127339 0.0116653 0)
(0.133245 0.0123418 0)
(0.139793 0.0129574 0)
(0.14668 0.0134778 0)
(0.153501 0.013866 0)
(0.159715 0.0140424 0)
(0.00780713 0.000230503 0)
(0.0223964 0.00066757 0)
(0.0350994 0.001065 0)
(0.0461175 0.00143493 0)
(0.0556341 0.00178641 0)
(0.0638457 0.00212826 0)
(0.0709291 0.00246738 0)
(0.077026 0.00280926 0)
(0.0822702 0.00315854 0)
(0.0867841 0.00351924 0)
(0.090683 0.00389494 0)
(0.0940763 0.00428886 0)
(0.0970703 0.00470393 0)
(0.0997703 0.00514292 0)
(0.102279 0.00560806 0)
(0.104688 0.00610123 0)
(0.107101 0.00662379 0)
(0.109643 0.00717577 0)
(0.112423 0.00775614 0)
(0.115552 0.00836266 0)
(0.119148 0.00899229 0)
(0.123288 0.00964051 0)
(0.128129 0.0102977 0)
(0.133729 0.0109519 0)
(0.140128 0.0115932 0)
(0.147289 0.0122115 0)
(0.155087 0.0127887 0)
(0.163172 0.0133065 0)
(0.171043 0.0137347 0)
(0.177798 0.0139337 0)
(0.00789858 0.000243333 0)
(0.0226734 0.000704835 0)
(0.0355603 0.00112425 0)
(0.046749 0.00151327 0)
(0.0564496 0.00188216 0)
(0.0648696 0.00224032 0)
(0.0721773 0.00259435 0)
(0.0785205 0.00294975 0)
(0.0840355 0.00331111 0)
(0.0888486 0.00368233 0)
(0.0930783 0.00406678 0)
(0.0968377 0.0044674 0)
(0.100236 0.00488671 0)
(0.103381 0.00532683 0)
(0.106379 0.00578935 0)
(0.109335 0.00627517 0)
(0.112347 0.00678485 0)
(0.115528 0.00731794 0)
(0.119008 0.00787158 0)
(0.122891 0.00844194 0)
(0.127285 0.00902416 0)
(0.132301 0.00961361 0)
(0.138054 0.0101999 0)
(0.144602 0.0107706 0)
(0.151987 0.0113183 0)
(0.160198 0.0118401 0)
(0.169078 0.0123338 0)
(0.178284 0.0128101 0)
(0.187286 0.0132858 0)
(0.194818 0.0135814 0)
(0.00799242 0.000255055 0)
(0.0229588 0.000738901 0)
(0.0360222 0.0011778 0)
(0.0473846 0.00158391 0)
(0.0572821 0.00196875 0)
(0.0659119 0.00234112 0)
(0.0734458 0.00270777 0)
(0.0800357 0.00307416 0)
(0.0858208 0.00344479 0)
(0.0909301 0.00382336 0)
(0.0954851 0.00421299 0)
(0.0996015 0.00461624 0)
(0.103391 0.0050351 0)
(0.106961 0.00547107 0)
(0.110421 0.00592496 0)
(0.113878 0.00639685 0)
(0.117439 0.00688592 0)
(0.121209 0.00739103 0)
(0.125316 0.00790832 0)
(0.129851 0.00843131 0)
(0.134923 0.00895351 0)
(0.140648 0.0094687 0)
(0.147111 0.0099648 0)
(0.154354 0.010427 0)
(0.162415 0.0108445 0)
(0.171287 0.0112109 0)
(0.180803 0.011525 0)
(0.190658 0.011813 0)
(0.200438 0.0121877 0)
(0.208983 0.0126472 0)
(0.00402905 -0.00134578 0)
(0.00798494 -0.00136087 0)
(0.015313 -0.00132263 0)
(0.0252394 -0.00125562 0)
(0.0367561 -0.00117097 0)
(0.0489195 -0.00108028 0)
(0.0609597 -0.00098498 0)
(0.0723429 -0.000891196 0)
(0.0827132 -0.000802596 0)
(0.0918627 -0.000719685 0)
(0.0996964 -0.00064529 0)
(0.106185 -0.000576358 0)
(0.111361 -0.000513795 0)
(0.11525 -0.000456076 0)
(0.117899 -0.000405474 0)
(0.119359 -0.000360691 0)
(0.119652 -0.000320926 0)
(0.118791 -0.000285263 0)
(0.116775 -0.000252974 0)
(0.113603 -0.000222925 0)
(0.109256 -0.000196435 0)
(0.103694 -0.000172348 0)
(0.0968781 -0.000150128 0)
(0.0887619 -0.000129427 0)
(0.0792881 -0.000109607 0)
(0.0683869 -9.03245e-05 0)
(0.0559898 -7.12801e-05 0)
(0.0420305 -5.20568e-05 0)
(0.0264392 -3.2148e-05 0)
(0.00911861 -1.0989e-05 0)
(0.00781393 -0.00396387 0)
(0.0119104 -0.00400281 0)
(0.0192372 -0.003892 0)
(0.0290429 -0.00370107 0)
(0.0403074 -0.0034546 0)
(0.0521235 -0.00318014 0)
(0.0637894 -0.00290064 0)
(0.0748069 -0.00262668 0)
(0.0848308 -0.00236864 0)
(0.0936605 -0.0021253 0)
(0.101204 -0.00190187 0)
(0.107436 -0.00169838 0)
(0.112395 -0.00151523 0)
(0.116102 -0.00134711 0)
(0.118604 -0.00119848 0)
(0.119942 -0.00106684 0)
(0.120135 -0.000949923 0)
(0.119191 -0.000844915 0)
(0.117109 -0.00074999 0)
(0.11388 -0.000662903 0)
(0.109483 -0.000584743 0)
(0.103881 -0.000513387 0)
(0.0970309 -0.000447412 0)
(0.0888878 -0.000385981 0)
(0.0793931 -0.000326986 0)
(0.0684718 -0.000269517 0)
(0.0560551 -0.000212746 0)
(0.0420787 -0.00015542 0)
(0.0264706 -9.59986e-05 0)
(0.00912974 -3.28183e-05 0)
(0.0150002 -0.00637585 0)
(0.0194429 -0.00642394 0)
(0.0268179 -0.00624878 0)
(0.0363487 -0.00594158 0)
(0.047069 -0.00555097 0)
(0.0582286 -0.00511422 0)
(0.0692268 -0.00467426 0)
(0.0795565 -0.00424088 0)
(0.0888997 -0.00382634 0)
(0.0971005 -0.00343836 0)
(0.104095 -0.00308077 0)
(0.109854 -0.0027542 0)
(0.114397 -0.00245826 0)
(0.117756 -0.00219081 0)
(0.119975 -0.0019524 0)
(0.121077 -0.00174068 0)
(0.121074 -0.00155249 0)
(0.119967 -0.00138262 0)
(0.117752 -0.00122899 0)
(0.114412 -0.00108925 0)
(0.109922 -0.000962205 0)
(0.104243 -0.000845645 0)
(0.0973243 -0.000737432 0)
(0.0891272 -0.000635812 0)
(0.079594 -0.000538886 0)
(0.0686335 -0.000444283 0)
(0.0561782 -0.000350852 0)
(0.0421695 -0.000256456 0)
(0.0265301 -0.000158452 0)
(0.00915094 -5.41775e-05 0)
(0.0252926 -0.00849429 0)
(0.0301451 -0.00851944 0)
(0.0375122 -0.00828084 0)
(0.0465679 -0.00787348 0)
(0.0565483 -0.0073677 0)
(0.0668467 -0.00680909 0)
(0.076899 -0.00624032 0)
(0.0862369 -0.00567734 0)
(0.0946307 -0.00513222 0)
(0.101983 -0.00462143 0)
(0.108214 -0.00415132 0)
(0.113295 -0.00372051 0)
(0.117257 -0.00332697 0)
(0.120135 -0.00297262 0)
(0.12195 -0.00265526 0)
(0.122716 -0.00237258 0)
(0.122427 -0.00211846 0)
(0.121086 -0.0018896 0)
(0.118677 -0.0016823 0)
(0.115178 -0.00149373 0)
(0.110555 -0.00132145 0)
(0.104765 -0.00116278 0)
(0.0977589 -0.00101503 0)
(0.0894848 -0.00087545 0)
(0.079887 -0.000742533 0)
(0.0688701 -0.000613091 0)
(0.0563549 -0.000484429 0)
(0.0422991 -0.000353923 0)
(0.0266161 -0.00021873 0)
(0.00918128 -7.48e-05 0)
(0.0382183 -0.0102213 0)
(0.0434282 -0.0102104 0)
(0.0506466 -0.00991821 0)
(0.0591054 -0.00944914 0)
(0.0682151 -0.00887058 0)
(0.0774719 -0.00822955 0)
(0.0863312 -0.00756333 0)
(0.0944701 -0.00690192 0)
(0.101735 -0.00626038 0)
(0.108052 -0.00565537 0)
(0.113328 -0.00509176 0)
(0.117584 -0.00457584 0)
(0.120845 -0.00410463 0)
(0.123127 -0.00367797 0)
(0.124439 -0.00329374 0)
(0.12478 -0.00294937 0)
(0.124135 -0.00263797 0)
(0.1225 -0.00235706 0)
(0.119848 -0.00210225 0)
(0.116147 -0.00186992 0)
(0.111357 -0.00165689 0)
(0.105428 -0.00146 0)
(0.0983064 -0.00127612 0)
(0.0899335 -0.00110222 0)
(0.0802441 -0.000935713 0)
(0.0691561 -0.000773587 0)
(0.0565976 -0.000611987 0)
(0.0424865 -0.000447529 0)
(0.0267286 -0.000276589 0)
(0.00922029 -9.4601e-05 0)
(0.0531762 -0.0115118 0)
(0.0586354 -0.0114718 0)
(0.0655791 -0.0111556 0)
(0.0733618 -0.0106645 0)
(0.0814983 -0.0100511 0)
(0.0895514 -0.00936215 0)
(0.0970745 -0.00863582 0)
(0.103882 -0.00790754 0)
(0.109874 -0.00719703 0)
(0.115006 -0.00652378 0)
(0.119214 -0.00589361 0)
(0.122546 -0.00531329 0)
(0.125009 -0.00478186 0)
(0.126609 -0.00429826 0)
(0.127347 -0.00386112 0)
(0.127192 -0.00346486 0)
(0.126141 -0.00310702 0)
(0.124165 -0.00278235 0)
(0.12123 -0.00248673 0)
(0.117293 -0.00221623 0)
(0.112306 -0.00196722 0)
(0.106213 -0.00173619 0)
(0.0989536 -0.00151969 0)
(0.0904631 -0.00131435 0)
(0.08067 -0.00111694 0)
(0.0694942 -0.000923972 0)
(0.0568582 -0.000731496 0)
(0.0426857 -0.000535715 0)
(0.0268648 -0.000331565 0)
(0.00926785 -0.000113433 0)
(0.069561 -0.0124024 0)
(0.0751459 -0.012345 0)
(0.0817399 -0.0120363 0)
(0.0887912 -0.0115524 0)
(0.095864 -0.0109316 0)
(0.102593 -0.0102188 0)
(0.1087 -0.00946078 0)
(0.114077 -0.0086934 0)
(0.118696 -0.00794032 0)
(0.122553 -0.00722231 0)
(0.125638 -0.00655008 0)
(0.127981 -0.00592688 0)
(0.129587 -0.00535332 0)
(0.130449 -0.00482806 0)
(0.130559 -0.00435109 0)
(0.129874 -0.0039166 0)
(0.128377 -0.00352173 0)
(0.126028 -0.00316177 0)
(0.12278 -0.00283246 0)
(0.118581 -0.00252981 0)
(0.113375 -0.00224995 0)
(0.107097 -0.00198918 0)
(0.0996827 -0.00174385 0)
(0.0910599 -0.00151032 0)
(0.0811516 -0.00128494 0)
(0.0698759 -0.00106386 0)
(0.0571503 -0.000842859 0)
(0.0428896 -0.000617485 0)
(0.0269987 -0.000382561 0)
(0.00932285 -0.000131076 0)
(0.0868638 -0.0129755 0)
(0.0924688 -0.0129172 0)
(0.0986818 -0.0126334 0)
(0.104946 -0.0121664 0)
(0.110865 -0.0115476 0)
(0.11619 -0.0108256 0)
(0.120795 -0.0100529 0)
(0.124678 -0.00926751 0)
(0.127876 -0.00849472 0)
(0.130428 -0.00775554 0)
(0.132359 -0.00706181 0)
(0.133688 -0.00641549 0)
(0.134412 -0.00581743 0)
(0.134512 -0.00526616 0)
(0.133964 -0.00476158 0)
(0.132733 -0.00430114 0)
(0.130773 -0.00387955 0)
(0.128031 -0.00349288 0)
(0.124452 -0.00313718 0)
(0.119974 -0.00280856 0)
(0.114532 -0.00250319 0)
(0.108057 -0.00221729 0)
(0.100474 -0.00194711 0)
(0.0917081 -0.00168887 0)
(0.0816758 -0.00143865 0)
(0.0702916 -0.00119232 0)
(0.0574678 -0.000945398 0)
(0.0431127 -0.000692943 0)
(0.0271256 -0.000429263 0)
(0.00936168 -0.000147057 0)
(0.104704 -0.0133361 0)
(0.110291 -0.0132893 0)
(0.116084 -0.0130221 0)
(0.121453 -0.0125578 0)
(0.126093 -0.0119331 0)
(0.129912 -0.0112043 0)
(0.132953 -0.0104277 0)
(0.135315 -0.00964128 0)
(0.137091 -0.00886878 0)
(0.138349 -0.008129 0)
(0.139141 -0.00743305 0)
(0.139472 -0.00678179 0)
(0.139325 -0.00617574 0)
(0.13867 -0.00561342 0)
(0.137465 -0.0050942 0)
(0.135687 -0.00461835 0)
(0.133258 -0.0041797 0)
(0.130117 -0.00377466 0)
(0.126199 -0.00339972 0)
(0.121433 -0.00305131 0)
(0.115748 -0.00272577 0)
(0.109066 -0.0024194 0)
(0.101308 -0.00212847 0)
(0.0923909 -0.00184911 0)
(0.0822285 -0.00157729 0)
(0.0707303 -0.00130869 0)
(0.0578032 -0.00103859 0)
(0.0433498 -0.000761704 0)
(0.0272658 -0.000471968 0)
(0.00940752 -0.000161666 0)
(0.122892 -0.0135947 0)
(0.128449 -0.0135392 0)
(0.133672 -0.0132498 0)
(0.13794 -0.0127558 0)
(0.141122 -0.0121081 0)
(0.143324 -0.0113707 0)
(0.144771 -0.0105992 0)
(0.145634 -0.0098274 0)
(0.146037 -0.00907384 0)
(0.146053 -0.00835212 0)
(0.145769 -0.00767152 0)
(0.145152 -0.00703181 0)
(0.144178 -0.00643274 0)
(0.142805 -0.00587324 0)
(0.140974 -0.00535169 0)
(0.138655 -0.00486961 0)
(0.135767 -0.00442293 0)
(0.132231 -0.00400732 0)
(0.127976 -0.00361998 0)
(0.122922 -0.00325773 0)
(0.116991 -0.00291724 0)
(0.110099 -0.00259499 0)
(0.102162 -0.00228735 0)
(0.0930914 -0.00199049 0)
(0.0827956 -0.00170035 0)
(0.0711801 -0.00141249 0)
(0.058147 -0.00112204 0)
(0.0435938 -0.000823474 0)
(0.0274126 -0.000510445 0)
(0.00945679 -0.000174865 0)
(0.141382 -0.0137899 0)
(0.146781 -0.0136817 0)
(0.151101 -0.013319 0)
(0.153956 -0.0127602 0)
(0.155482 -0.012076 0)
(0.155987 -0.0113332 0)
(0.15587 -0.0105795 0)
(0.155313 -0.00983969 0)
(0.154449 -0.00912391 0)
(0.153339 -0.00843779 0)
(0.152059 -0.00778773 0)
(0.150573 -0.00717429 0)
(0.14884 -0.00659515 0)
(0.146804 -0.00604991 0)
(0.144398 -0.00553747 0)
(0.141563 -0.0050583 0)
(0.138236 -0.00461115 0)
(0.134322 -0.00419205 0)
(0.12974 -0.00379864 0)
(0.124406 -0.00342819 0)
(0.118233 -0.00307771 0)
(0.111134 -0.002744 0)
(0.103018 -0.0024236 0)
(0.0937932 -0.0021128 0)
(0.0833633 -0.00180757 0)
(0.0716299 -0.00150347 0)
(0.0584903 -0.00119552 0)
(0.0438378 -0.00087806 0)
(0.0275603 -0.000544544 0)
(0.00950677 -0.000186584 0)
(0.160108 -0.013881 0)
(0.164977 -0.0136806 0)
(0.167879 -0.0131956 0)
(0.168945 -0.0125465 0)
(0.168664 -0.0118276 0)
(0.167506 -0.0110955 0)
(0.165907 -0.0103805 0)
(0.164069 -0.00969393 0)
(0.162092 -0.00903402 0)
(0.160016 -0.00840048 0)
(0.157854 -0.00779571 0)
(0.155602 -0.00722006 0)
(0.153197 -0.00667149 0)
(0.150571 -0.00615013 0)
(0.14765 -0.00565581 0)
(0.144355 -0.00518845 0)
(0.14062 -0.00474777 0)
(0.136352 -0.00433158 0)
(0.131462 -0.00393786 0)
(0.125859 -0.00356437 0)
(0.119453 -0.00320854 0)
(0.112152 -0.00286749 0)
(0.103861 -0.00253804 0)
(0.094484 -0.00221666 0)
(0.0839215 -0.00189943 0)
(0.0720711 -0.00158196 0)
(0.0588263 -0.00125927 0)
(0.044076 -0.000925612 0)
(0.0277045 -0.000574332 0)
(0.00955563 -0.000196837 0)
(0.178824 -0.013835 0)
(0.182458 -0.0134778 0)
(0.183259 -0.0128141 0)
(0.182211 -0.0120733 0)
(0.180109 -0.0113486 0)
(0.177458 -0.0106637 0)
(0.174573 -0.0100205 0)
(0.171665 -0.00941051 0)
(0.168776 -0.00882396 0)
(0.165911 -0.00825713 0)
(0.163045 -0.00770948 0)
(0.160159 -0.00718093 0)
(0.157187 -0.00667151 0)
(0.154054 -0.00618186 0)
(0.15068 -0.00571259 0)
(0.146985 -0.00526417 0)
(0.142886 -0.00483668 0)
(0.138294 -0.00442918 0)
(0.133117 -0.00404034 0)
(0.127261 -0.00366846 0)
(0.120634 -0.00331145 0)
(0.113138 -0.00296685 0)
(0.104678 -0.00263177 0)
(0.0951534 -0.00230294 0)
(0.0844614 -0.00197661 0)
(0.0724966 -0.0016485 0)
(0.0591492 -0.00131367 0)
(0.0443043 -0.000966383 0)
(0.0278424 -0.000599951 0)
(0.00960225 -0.000205667 0)
(0.196817 -0.0135976 0)
(0.198039 -0.0129267 0)
(0.196088 -0.0120572 0)
(0.192907 -0.0112915 0)
(0.189255 -0.0106373 0)
(0.185459 -0.0100576 0)
(0.181666 -0.00952258 0)
(0.177989 -0.00901135 0)
(0.174436 -0.00851297 0)
(0.170982 -0.00802314 0)
(0.167589 -0.00754117 0)
(0.16421 -0.0070679 0)
(0.16078 -0.00660469 0)
(0.157226 -0.00615314 0)
(0.153468 -0.00571476 0)
(0.149421 -0.00529074 0)
(0.145001 -0.00488179 0)
(0.140117 -0.00448786 0)
(0.134678 -0.00410837 0)
(0.128589 -0.00374219 0)
(0.121754 -0.00338777 0)
(0.114076 -0.00304305 0)
(0.105455 -0.00270551 0)
(0.0957886 -0.00237215 0)
(0.0849724 -0.00203946 0)
(0.0728979 -0.0017033 0)
(0.0594523 -0.00135885 0)
(0.0445175 -0.00100045 0)
(0.0279705 -0.000621433 0)
(0.00964541 -0.000213083 0)
(0.211502 -0.0128531 0)
(0.209444 -0.0116212 0)
(0.205112 -0.0107308 0)
(0.200488 -0.0101472 0)
(0.195915 -0.00969718 0)
(0.191473 -0.00929517 0)
(0.187193 -0.00890522 0)
(0.183077 -0.00851469 0)
(0.179109 -0.00811775 0)
(0.17526 -0.00771368 0)
(0.171488 -0.00730423 0)
(0.16774 -0.00689214 0)
(0.163956 -0.00648035 0)
(0.160063 -0.0060717 0)
(0.155984 -0.00566871 0)
(0.151638 -0.00527341 0)
(0.146939 -0.00488722 0)
(0.141799 -0.00451089 0)
(0.136125 -0.00414451 0)
(0.129823 -0.00378757 0)
(0.122798 -0.00343902 0)
(0.114949 -0.00309724 0)
(0.106177 -0.00276011 0)
(0.0963781 -0.00242493 0)
(0.0854449 -0.00208842 0)
(0.073267 -0.00174668 0)
(0.0597292 -0.00139503 0)
(0.044711 -0.00102794 0)
(0.0280858 -0.000638854 0)
(0.00968402 -0.000219107 0)
(0.0080877 0.00026578 0)
(0.0232423 0.000769843 0)
(0.0364896 0.00122646 0)
(0.0480415 0.0016485 0)
(0.0581384 0.00204745 0)
(0.0669808 0.0024321 0)
(0.0747441 0.00280927 0)
(0.0815828 0.00318433 0)
(0.0876385 0.00356159 0)
(0.0930428 0.00394455 0)
(0.097919 0.00433599 0)
(0.102384 0.004738 0)
(0.106551 0.00515203 0)
(0.110528 0.00557884 0)
(0.114423 0.00601845 0)
(0.118341 0.00647003 0)
(0.12239 0.00693175 0)
(0.126698 0.00740119 0)
(0.131342 0.00787283 0)
(0.136418 0.00833852 0)
(0.142023 0.00878975 0)
(0.148266 0.00921754 0)
(0.155191 0.00960745 0)
(0.162815 0.00993994 0)
(0.171138 0.0101951 0)
(0.180113 0.0103474 0)
(0.1895 0.010357 0)
(0.198972 0.0101299 0)
(0.208017 0.00944607 0)
(0.21624 0.007716 0)
(0.00818424 0.000275502 0)
(0.0235236 0.000797654 0)
(0.0369658 0.00127058 0)
(0.0487202 0.00170705 0)
(0.0590191 0.00211824 0)
(0.0680768 0.00251319 0)
(0.0760723 0.00289876 0)
(0.0831615 0.00328012 0)
(0.0894879 0.00366137 0)
(0.0951845 0.00404573 0)
(0.100376 0.00443557 0)
(0.105179 0.00483249 0)
(0.109706 0.00523733 0)
(0.114066 0.00565014 0)
(0.118362 0.00607002 0)
(0.122695 0.00649527 0)
(0.12719 0.00692367 0)
(0.131943 0.0073506 0)
(0.137014 0.00776874 0)
(0.142496 0.00816938 0)
(0.148465 0.00854187 0)
(0.155004 0.00887402 0)
(0.162105 0.00915009 0)
(0.169746 0.0093466 0)
(0.17787 0.00943631 0)
(0.186325 0.00938203 0)
(0.194804 0.00913104 0)
(0.202932 0.00858607 0)
(0.210277 0.00758216 0)
(0.216243 0.00590582 0)
(0.00828142 0.000284092 0)
(0.02381 0.000822285 0)
(0.03744 0.0013093 0)
(0.049399 0.00175824 0)
(0.059908 0.00217984 0)
(0.069179 0.00258291 0)
(0.0774054 0.00297462 0)
(0.084742 0.00335983 0)
(0.091333 0.00374238 0)
(0.0973123 0.00412515 0)
(0.102804 0.00451009 0)
(0.107925 0.00489828 0)
(0.112786 0.00529 0)
(0.117493 0.00568454 0)
(0.122145 0.00608007 0)
(0.126852 0.00647473 0)
(0.131715 0.00686475 0)
(0.136796 0.00724392 0)
(0.14217 0.00760449 0)
(0.147904 0.0079368 0)
(0.154051 0.00822904 0)
(0.160645 0.00846678 0)
(0.167643 0.0086335 0)
(0.17499 0.0087056 0)
(0.182571 0.00865471 0)
(0.19019 0.0084444 0)
(0.197564 0.00802482 0)
(0.204377 0.00732117 0)
(0.210204 0.00625017 0)
(0.214634 0.00470792 0)
(0.00837816 0.000291445 0)
(0.0240961 0.000843359 0)
(0.0379139 0.00134227 0)
(0.0500659 0.00180127 0)
(0.0607806 0.00223107 0)
(0.0702713 0.00264043 0)
(0.0787251 0.00303602 0)
(0.086302 0.00342262 0)
(0.0931473 0.00380381 0)
(0.0993944 0.0041821 0)
(0.105167 0.00455903 0)
(0.110579 0.00493521 0)
(0.11574 0.00531035 0)
(0.120752 0.00568319 0)
(0.125712 0.00605139 0)
(0.130717 0.00641177 0)
(0.135841 0.00675986 0)
(0.14115 0.00708901 0)
(0.146701 0.0073909 0)
(0.15254 0.00765544 0)
(0.15869 0.00787051 0)
(0.165148 0.00802168 0)
(0.171859 0.00809186 0)
(0.178737 0.00805963 0)
(0.185644 0.00789934 0)
(0.192389 0.00758025 0)
(0.19874 0.00706321 0)
(0.204397 0.00630861 0)
(0.20906 0.00527854 0)
(0.212484 0.00390786 0)
(0.00847251 0.000297448 0)
(0.0243759 0.000860528 0)
(0.0383774 0.00136899 0)
(0.0507183 0.0018358 0)
(0.0616337 0.00227166 0)
(0.0713347 0.00268499 0)
(0.080007 0.00308215 0)
(0.0878123 0.00346772 0)
(0.0948962 0.003845 0)
(0.101391 0.00421616 0)
(0.107418 0.00458233 0)
(0.113091 0.00494369 0)
(0.118512 0.00529947 0)
(0.123778 0.00564791 0)
(0.12898 0.0059862 0)
(0.1342 0.0063105 0)
(0.139503 0.00661565 0)
(0.144944 0.00689479 0)
(0.150564 0.00713954 0)
(0.156387 0.00733987 0)
(0.162416 0.00748409 0)
(0.168623 0.00755862 0)
(0.174942 0.0075479 0)
(0.18128 0.0074337 0)
(0.187502 0.00719398 0)
(0.193436 0.00680691 0)
(0.198873 0.00625054 0)
(0.203591 0.00550671 0)
(0.207407 0.00455275 0)
(0.210168 0.00336774 0)
(0.00856272 0.000302031 0)
(0.024644 0.000873592 0)
(0.0388222 0.00138914 0)
(0.0513446 0.00186143 0)
(0.0624501 0.00230102 0)
(0.0723494 0.00271601 0)
(0.081227 0.00311245 0)
(0.089245 0.00349469 0)
(0.0965479 0.00386574 0)
(0.103267 0.00422742 0)
(0.10952 0.00458052 0)
(0.115416 0.00492484 0)
(0.121054 0.0052592 0)
(0.126525 0.00558146 0)
(0.131909 0.00588846 0)
(0.137277 0.00617596 0)
(0.142685 0.00643852 0)
(0.148176 0.00666935 0)
(0.153776 0.00686032 0)
(0.159494 0.007002 0)
(0.165317 0.00708373 0)
(0.171203 0.00709335 0)
(0.177085 0.00701791 0)
(0.182881 0.00684155 0)
(0.188458 0.00655018 0)
(0.193653 0.00613096 0)
(0.198317 0.00557305 0)
(0.202304 0.00486638 0)
(0.205496 0.00400425 0)
(0.207804 0.00299008 0)
(0.00864691 0.000305132 0)
(0.0248951 0.000882383 0)
(0.0392401 0.00140248 0)
(0.0519337 0.0018779 0)
(0.0632172 0.00231891 0)
(0.073301 0.00273331 0)
(0.0823687 0.00312686 0)
(0.0905813 0.00350364 0)
(0.098082 0.00386636 0)
(0.104999 0.00421655 0)
(0.111447 0.00455468 0)
(0.117531 0.00488025 0)
(0.123345 0.0051918 0)
(0.128971 0.0054869 0)
(0.134482 0.0057622 0)
(0.139939 0.00601333 0)
(0.145388 0.0062349 0)
(0.15086 0.00642038 0)
(0.156373 0.00656233 0)
(0.161923 0.00665213 0)
(0.167488 0.0066808 0)
(0.173026 0.00663738 0)
(0.178474 0.00651163 0)
(0.183744 0.006293 0)
(0.188714 0.00597441 0)
(0.193271 0.00554763 0)
(0.197306 0.00500742 0)
(0.200723 0.00435152 0)
(0.203446 0.00358285 0)
(0.205427 0.00271464 0)
(0.00872329 0.000306706 0)
(0.0251241 0.000886776 0)
(0.0396232 0.00140886 0)
(0.0524752 0.00188501 0)
(0.0639228 0.00232519 0)
(0.0741758 0.00273686 0)
(0.0834166 0.00312548 0)
(0.0918045 0.00349486 0)
(0.0994801 0.00384743 0)
(0.106568 0.00418445 0)
(0.113181 0.00450616 0)
(0.119418 0.00481182 0)
(0.125367 0.00509977 0)
(0.131103 0.00536747 0)
(0.136692 0.00561155 0)
(0.142185 0.00582769 0)
(0.147621 0.00601082 0)
(0.153024 0.00615486 0)
(0.1584 0.00625347 0)
(0.163742 0.00629853 0)
(0.169031 0.00628267 0)
(0.174219 0.00619803 0)
(0.179235 0.00603709 0)
(0.184004 0.00579442 0)
(0.188441 0.00546487 0)
(0.19246 0.0050449 0)
(0.195984 0.00453363 0)
(0.19895 0.00393361 0)
(0.20131 0.00325244 0)
(0.203044 0.00250552 0)
(0.0087902 0.000306724 0)
(0.0253262 0.000886697 0)
(0.0399642 0.00140817 0)
(0.0529598 0.0018827 0)
(0.0645559 0.00231985 0)
(0.0749613 0.00272676 0)
(0.0843568 0.00310858 0)
(0.0928995 0.00346884 0)
(0.100727 0.00380971 0)
(0.10796 0.00413224 0)
(0.114707 0.00443649 0)
(0.121062 0.00472159 0)
(0.127108 0.00498577 0)
(0.132914 0.00522649 0)
(0.138538 0.00544054 0)
(0.144025 0.00562377 0)
(0.149407 0.00577182 0)
(0.1547 0.0058787 0)
(0.159915 0.00593909 0)
(0.165038 0.00594692 0)
(0.170034 0.00589593 0)
(0.174862 0.00578165 0)
(0.179467 0.00559886 0)
(0.18379 0.00534403 0)
(0.187766 0.00501492 0)
(0.191334 0.00461107 0)
(0.19444 0.0041345 0)
(0.197043 0.00359033 0)
(0.199118 0.00298767 0)
(0.200655 0.00234093 0)
(0.0088461 0.000305174 0)
(0.0254972 0.000882121 0)
(0.0402564 0.00140039 0)
(0.0533788 0.00187098 0)
(0.0651062 0.00230301 0)