/*--------------------------------*- C++ -*----------------------------------*\
  =========                 |
  \\      /  F ield         | OpenFOAM: The Open Source CFD Toolbox
   \\    /   O peration     | Website:  https://openfoam.org
    \\  /    A nd           | Version:  6
     \\/     M anipulation  |
\*---------------------------------------------------------------------------*/
FoamFile
{
    version     2.0;
    format      ascii;
    class       surfaceScalarField;
    location    "1";
    object      phi;
}
// * * * * * * * * * * * * * * * * * * * * * * * * * * * * * * * * * * * * * //

dimensions      [1 0 -1 0 0 0 0];

internalField   nonuniform List<scalar> 
23692
(
1.16368e-05
-1.81804e-09
1.16397e-05
-2.88359e-09
1.16428e-05
-3.114e-09
1.16452e-05
-2.40627e-09
1.16461e-05
-8.48157e-10
1.16448e-05
1.31375e-09
1.16412e-05
3.71126e-09
1.16353e-05
5.95197e-09
1.16276e-05
7.72767e-09
1.16188e-05
8.87802e-09
1.16095e-05
9.39353e-09
1.16002e-05
9.37652e-09
1.15914e-05
8.9814e-09
1.15831e-05
8.36309e-09
1.15756e-05
7.64631e-09
1.15689e-05
6.9134e-09
1.15628e-05
6.20738e-09
1.15575e-05
5.54243e-09
1.15527e-05
4.9162e-09
1.15486e-05
4.31814e-09
1.15451e-05
3.7367e-09
1.15422e-05
3.16167e-09
1.15399e-05
2.58646e-09
1.15382e-05
2.00673e-09
1.1537e-05
1.42126e-09
1.15365e-05
8.3007e-10
1.15366e-05
2.34689e-10
1.15373e-05
-3.62818e-10
1.15386e-05
-9.59679e-10
1.15406e-05
-1.55315e-09
1.15431e-05
-2.14005e-09
1.15463e-05
-2.71714e-09
1.155e-05
-3.28083e-09
1.15542e-05
-3.82741e-09
1.15591e-05
-4.35338e-09
1.15644e-05
-4.85434e-09
1.15702e-05
-5.3264e-09
1.15765e-05
-5.76492e-09
1.15832e-05
-6.16558e-09
1.15902e-05
-6.52334e-09
1.15976e-05
-6.83332e-09
1.16052e-05
-7.09016e-09
1.16131e-05
-7.28807e-09
1.16211e-05
-7.42115e-09
1.16292e-05
-7.48287e-09
1.16372e-05
-7.46633e-09
1.16452e-05
-7.36368e-09
1.1653e-05
-7.16681e-09
1.16605e-05
-6.86633e-09
1.16676e-05
-6.45184e-09
1.16741e-05
-5.91153e-09
1.168e-05
-5.23223e-09
1.1685e-05
-4.39865e-09
1.16891e-05
-3.39316e-09
1.16919e-05
-2.19555e-09
1.16934e-05
-7.8183e-10
1.16931e-05
8.76432e-10
1.1691e-05
2.81244e-09
1.16866e-05
5.06648e-09
1.16796e-05
7.68688e-09
1.16695e-05
1.07328e-08
1.16559e-05
1.42768e-08
1.16381e-05
1.84095e-08
1.16156e-05
2.32445e-08
1.15873e-05
2.89264e-08
1.15523e-05
3.56418e-08
1.15093e-05
4.36344e-08
1.14567e-05
5.32279e-08
1.13925e-05
6.48592e-08
1.13141e-05
7.91292e-08
1.12178e-05
9.68801e-08
1.10991e-05
1.19316e-07
1.09516e-05
1.48198e-07
1.0766e-05
1.86152e-07
1.05295e-05
2.3718e-07
1.02226e-05
3.07492e-07
9.81639e-06
4.06833e-07
9.26625e-06
5.50739e-07
8.50105e-06
7.65799e-07
7.3992e-06
1.10244e-06
1.69503e-06
5.70476e-06
1.24518e-05
-3.74336e-09
1.24549e-05
-5.97723e-09
1.24583e-05
-6.46985e-09
1.2461e-05
-5.01475e-09
1.24619e-05
-1.79996e-09
1.24606e-05
2.6681e-09
1.24568e-05
7.62831e-09
1.24505e-05
1.22695e-08
1.24424e-05
1.59524e-08
1.2433e-05
1.83433e-08
1.24231e-05
1.94219e-08
1.24131e-05
1.93976e-08
1.24037e-05
1.8589e-08
1.23948e-05
1.73174e-08
1.23868e-05
1.58402e-08
1.23795e-05
1.43277e-08
1.23731e-05
1.28698e-08
1.23673e-05
1.14969e-08
1.23622e-05
1.02036e-08
1.23578e-05
8.96903e-09
1.2354e-05
7.76871e-09
1.23508e-05
6.58255e-09
1.23483e-05
5.3958e-09
1.23464e-05
4.20074e-09
1.23452e-05
2.99398e-09
1.23446e-05
1.776e-09
1.23446e-05
5.49689e-10
1.23453e-05
-6.80531e-10
1.23466e-05
-1.90897e-09
1.23486e-05
-3.13e-09
1.23512e-05
-4.33717e-09
1.23545e-05
-5.52368e-09
1.23583e-05
-6.68226e-09
1.23628e-05
-7.80507e-09
1.23678e-05
-8.88467e-09
1.23734e-05
-9.91272e-09
1.23795e-05
-1.08804e-08
1.2386e-05
-1.17789e-08
1.2393e-05
-1.25985e-08
1.24004e-05
-1.33294e-08
1.24081e-05
-1.39612e-08
1.24161e-05
-1.44827e-08
1.24243e-05
-1.48827e-08
1.24327e-05
-1.51485e-08
1.24411e-05
-1.52667e-08
1.24495e-05
-1.52231e-08
1.24578e-05
-1.50019e-08
1.24658e-05
-1.4586e-08
1.24736e-05
-1.39562e-08
1.24809e-05
-1.30913e-08
1.24876e-05
-1.19673e-08
1.24936e-05
-1.05568e-08
1.24988e-05
-8.82887e-09
1.25028e-05
-6.74763e-09
1.25056e-05
-4.27139e-09
1.25069e-05
-1.35137e-09
1.25064e-05
2.06974e-09
1.25038e-05
6.05975e-09
1.24989e-05
1.06998e-08
1.24912e-05
1.60873e-08
1.24803e-05
2.23414e-08
1.24657e-05
2.96078e-08
1.24468e-05
3.80671e-08
1.24228e-05
4.79451e-08
1.23929e-05
5.9528e-08
1.2356e-05
7.31816e-08
1.2311e-05
8.93807e-08
1.22562e-05
1.0875e-07
1.21896e-05
1.32123e-07
1.21088e-05
1.60629e-07
1.20105e-05
1.95823e-07
1.18906e-05
2.39883e-07
1.17436e-05
2.959e-07
1.15621e-05
3.68321e-07
1.13364e-05
4.63599e-07
1.10534e-05
5.91085e-07
1.06969e-05
7.64051e-07
1.02478e-05
1.00045e-06
9.69131e-06
1.32292e-06
9.0442e-06
1.7502e-06
2.2307e-06
8.50915e-06
1.3324e-05
-5.77843e-09
1.33273e-05
-9.29856e-09
1.3331e-05
-1.0088e-08
1.33339e-05
-7.86284e-09
1.3335e-05
-2.90519e-09
1.33337e-05
4.00394e-09
1.33297e-05
1.16896e-08
1.33232e-05
1.88956e-08
1.33146e-05
2.46296e-08
1.33046e-05
2.83689e-08
1.32941e-05
3.00766e-08
1.32835e-05
3.00731e-08
1.32734e-05
2.88483e-08
1.32639e-05
2.68993e-08
1.32553e-05
2.46248e-08
1.32475e-05
2.22908e-08
1.32405e-05
2.00375e-08
1.32343e-05
1.79136e-08
1.32289e-05
1.59123e-08
1.32241e-05
1.40021e-08
1.32199e-05
1.21462e-08
1.32165e-05
1.03128e-08
1.32137e-05
8.48069e-09
1.32116e-05
6.63656e-09
1.32102e-05
4.77579e-09
1.32094e-05
2.89902e-09
1.32093e-05
1.01031e-09
1.32099e-05
-8.83017e-10
1.32112e-05
-2.77289e-09
1.32131e-05
-4.65015e-09
1.32158e-05
-6.50488e-09
1.3219e-05
-8.32631e-09
1.3223e-05
-1.01037e-08
1.32275e-05
-1.18251e-08
1.32326e-05
-1.34783e-08
1.32383e-05
-1.50508e-08
1.32445e-05
-1.65291e-08
1.32512e-05
-1.78992e-08
1.32584e-05
-1.91464e-08
1.32659e-05
-2.02556e-08
1.32738e-05
-2.12106e-08
1.32819e-05
-2.19944e-08
1.32903e-05
-2.25891e-08
1.32988e-05
-2.29758e-08
1.33073e-05
-2.31338e-08
1.33158e-05
-2.30409e-08
1.33242e-05
-2.26732e-08
1.33323e-05
-2.20042e-08
1.33401e-05
-2.10048e-08
1.33473e-05
-1.96424e-08
1.3354e-05
-1.78802e-08
1.33598e-05
-1.56767e-08
1.33647e-05
-1.29846e-08
1.33685e-05
-9.74934e-09
1.33709e-05
-5.90779e-09
1.33716e-05
-1.38604e-09
1.33706e-05
3.90192e-09
1.33673e-05
1.00582e-08
1.33616e-05
1.72037e-08
1.33529e-05
2.54844e-08
1.3341e-05
3.50765e-08
1.33251e-05
4.61951e-08
1.33049e-05
5.91051e-08
1.32794e-05
7.41349e-08
1.3248e-05
9.1697e-08
1.32096e-05
1.12314e-07
1.31631e-05
1.36655e-07
1.3107e-05
1.65587e-07
1.30396e-05
2.00247e-07
1.29589e-05
2.42141e-07
1.28621e-05
2.9329e-07
1.27463e-05
3.56425e-07
1.26077e-05
4.35263e-07
1.24418e-05
5.34864e-07
1.22441e-05
6.62059e-07
1.20101e-05
8.25802e-07
1.17378e-05
1.03706e-06
1.14317e-05
1.30722e-06
1.11124e-05
1.64293e-06
1.08342e-05
2.02902e-06
2.38021e-06
1.06854e-05
1.42573e-05
-7.93269e-09
1.42608e-05
-1.28618e-08
1.42648e-05
-1.39983e-08
1.42679e-05
-1.09979e-08
1.42693e-05
-4.23015e-09
1.42681e-05
5.24027e-09
1.42641e-05
1.58063e-08
1.42573e-05
2.57442e-08
1.42483e-05
3.3685e-08
1.42379e-05
3.89004e-08
1.42267e-05
4.13281e-08
1.42155e-05
4.13965e-08
1.42048e-05
3.97736e-08
1.41947e-05
3.71385e-08
1.41854e-05
3.40412e-08
1.41771e-05
3.08488e-08
1.41695e-05
2.77588e-08
1.41628e-05
2.48415e-08
1.41569e-05
2.20911e-08
1.41517e-05
1.94662e-08
1.41472e-05
1.69175e-08
1.41434e-05
1.44026e-08
1.41403e-05
1.18916e-08
1.41379e-05
9.36745e-09
1.41362e-05
6.82302e-09
1.41353e-05
4.25908e-09
1.4135e-05
1.68161e-09
1.41354e-05
-9.00157e-10
1.41366e-05
-3.47507e-09
1.41384e-05
-6.03036e-09
1.4141e-05
-8.55263e-09
1.41442e-05
-1.10277e-08
1.4148e-05
-1.34396e-08
1.41525e-05
-1.57728e-08
1.41576e-05
-1.80107e-08
1.41633e-05
-2.01355e-08
1.41695e-05
-2.21291e-08
1.41762e-05
-2.39723e-08
1.41833e-05
-2.5645e-08
1.41909e-05
-2.71263e-08
1.41987e-05
-2.83942e-08
1.42068e-05
-2.94256e-08
1.42151e-05
-3.0196e-08
1.42235e-05
-3.06794e-08
1.4232e-05
-3.0848e-08
1.42403e-05
-3.06716e-08
1.42485e-05
-3.01174e-08
1.42564e-05
-2.91497e-08
1.42639e-05
-2.77291e-08
1.42709e-05
-2.58114e-08
1.42771e-05
-2.33472e-08
1.42825e-05
-2.02807e-08
1.42868e-05
-1.65483e-08
1.429e-05
-1.20772e-08
1.42916e-05
-6.78313e-09
1.42916e-05
-5.6819e-10
1.42897e-05
6.68172e-09
1.42854e-05
1.50998e-08
1.42786e-05
2.48451e-08
1.42688e-05
3.6107e-08
1.42556e-05
4.91133e-08
1.42384e-05
6.41396e-08
1.42168e-05
8.15216e-08
1.41901e-05
1.01673e-07
1.41575e-05
1.25104e-07
1.41182e-05
1.52454e-07
1.40711e-05
1.84526e-07
1.40151e-05
2.22342e-07
1.3949e-05
2.67204e-07
1.38711e-05
3.20792e-07
1.37799e-05
3.85272e-07
1.36737e-05
4.63449e-07
1.35508e-05
5.58929e-07
1.34101e-05
6.76287e-07
1.32518e-05
8.21139e-07
1.30784e-05
9.99924e-07
1.28973e-05
1.21893e-06
1.27236e-05
1.48171e-06
1.2584e-05
1.78329e-06
1.25154e-05
2.09828e-06
2.36111e-06
1.25353e-05
1.52559e-05
-1.02147e-08
1.52597e-05
-1.66827e-08
1.5264e-05
-1.82351e-08
1.52675e-05
-1.44767e-08
1.52692e-05
-5.85761e-09
1.52682e-05
6.2716e-09
1.52642e-05
1.98598e-08
1.52573e-05
3.26959e-08
1.52481e-05
4.30126e-08
1.52372e-05
4.98556e-08
1.52256e-05
5.3122e-08
1.52138e-05
5.33439e-08
1.52023e-05
5.13662e-08
1.51916e-05
4.80564e-08
1.51817e-05
4.41231e-08
1.51727e-05
4.00441e-08
1.51646e-05
3.60801e-08
1.51573e-05
3.23282e-08
1.51509e-05
2.8787e-08
1.51452e-05
2.54074e-08
1.51403e-05
2.21285e-08
1.51361e-05
1.88976e-08
1.51327e-05
1.5677e-08
1.513e-05
1.24439e-08
1.5128e-05
9.18978e-09
1.51267e-05
5.91505e-09
1.51262e-05
2.62717e-09
1.51264e-05
-6.62307e-10
1.51274e-05
-3.93915e-09
1.5129e-05
-7.18734e-09
1.51314e-05
-1.03897e-08
1.51344e-05
-1.35271e-08
1.51381e-05
-1.65808e-08
1.51425e-05
-1.95298e-08
1.51474e-05
-2.23527e-08
1.5153e-05
-2.50273e-08
1.5159e-05
-2.75299e-08
1.51655e-05
-2.9836e-08
1.51725e-05
-3.192e-08
1.51798e-05
-3.37552e-08
1.51874e-05
-3.53136e-08
1.51953e-05
-3.65655e-08
1.52033e-05
-3.74799e-08
1.52114e-05
-3.80235e-08
1.52195e-05
-3.81611e-08
1.52275e-05
-3.78544e-08
1.52352e-05
-3.70622e-08
1.52426e-05
-3.57392e-08
1.52496e-05
-3.38357e-08
1.52559e-05
-3.12964e-08
1.52614e-05
-2.80594e-08
1.5266e-05
-2.40551e-08
1.52695e-05
-1.92045e-08
1.52717e-05
-1.34172e-08
1.52724e-05
-6.58958e-09
1.52713e-05
1.39839e-09
1.52681e-05
1.06849e-08
1.52627e-05
2.14319e-08
1.52546e-05
3.383e-08
1.52434e-05
4.81052e-08
1.52289e-05
6.45262e-08
1.52105e-05
8.34149e-08
1.51877e-05
1.05159e-07
1.516e-05
1.30227e-07
1.51268e-05
1.59192e-07
1.50874e-05
1.92754e-07
1.5041e-05
2.31774e-07
1.49868e-05
2.77317e-07
1.49242e-05
3.30702e-07
1.48523e-05
3.93558e-07
1.47705e-05
4.679e-07
1.46786e-05
5.56189e-07
1.4577e-05
6.61375e-07
1.44672e-05
7.86876e-07
1.43528e-05
9.36391e-07
1.42401e-05
1.11337e-06
1.414e-05
1.31982e-06
1.40685e-05
1.55404e-06
1.4046e-05
1.80659e-06
1.40906e-05
2.05444e-06
2.25531e-06
1.41972e-05
1.63245e-05
-1.26342e-08
1.63286e-05
-2.07803e-08
1.63332e-05
-2.28372e-08
1.63371e-05
-1.83666e-08
1.63392e-05
-7.88622e-09
1.63386e-05
6.96988e-09
1.63348e-05
2.37017e-08
1.6328e-05
3.9598e-08
1.63186e-05
5.24719e-08
1.63075e-05
6.11191e-08
1.62953e-05
6.53769e-08
1.6283e-05
6.5868e-08
1.62709e-05
6.36097e-08
1.62594e-05
5.96617e-08
1.62489e-05
5.48972e-08
1.62392e-05
4.99135e-08
1.62305e-05
4.50427e-08
1.62226e-05
4.04169e-08
1.62157e-05
3.60431e-08
1.62095e-05
3.18682e-08
1.62041e-05
2.78218e-08
1.61995e-05
2.38412e-08
1.61957e-05
1.98805e-08
1.61926e-05
1.59127e-08
1.61903e-05
1.19265e-08
1.61887e-05
7.92216e-09
1.61879e-05
3.90798e-09
1.61878e-05
-1.02156e-10
1.61885e-05
-4.09079e-09
1.61899e-05
-8.03856e-09
1.6192e-05
-1.1924e-08
1.61947e-05
-1.57248e-08
1.61982e-05
-1.94168e-08
1.62022e-05
-2.29749e-08
1.62069e-05
-2.63725e-08
1.62121e-05
-2.95825e-08
1.62179e-05
-3.25759e-08
1.62241e-05
-3.53228e-08
1.62307e-05
-3.77915e-08
1.62376e-05
-3.99498e-08
1.62448e-05
-4.17631e-08
1.62522e-05
-4.31956e-08
1.62598e-05
-4.42093e-08
1.62673e-05
-4.47644e-08
1.62748e-05
-4.48174e-08
1.62821e-05
-4.43227e-08
1.62891e-05
-4.32304e-08
1.62957e-05
-4.14862e-08
1.63018e-05
-3.90305e-08
1.63072e-05
-3.57974e-08
1.63117e-05
-3.17135e-08
1.63153e-05
-2.66963e-08
1.63176e-05
-2.06529e-08
1.63186e-05
-1.34777e-08
1.6318e-05
-5.04985e-09
1.63155e-05
4.76867e-09
1.6311e-05
1.61358e-08
1.63041e-05
2.92358e-08
1.62946e-05
4.42833e-08
1.62821e-05
6.15298e-08
1.62663e-05
8.12708e-08
1.62468e-05
1.03855e-07
1.62232e-05
1.29696e-07
1.6195e-05
1.59285e-07
1.61619e-05
1.93208e-07
1.61234e-05
2.32167e-07
1.60791e-05
2.76998e-07
1.60287e-05
3.28701e-07
1.59718e-05
3.88465e-07
1.59086e-05
4.57695e-07
1.58394e-05
5.38024e-07
1.57651e-05
6.31312e-07
1.56878e-05
7.39592e-07
1.56106e-05
8.64934e-07
1.55387e-05
1.00915e-06
1.54797e-05
1.17325e-06
1.54439e-05
1.35647e-06
1.54441e-05
1.55473e-06
1.54929e-05
1.75857e-06
1.55973e-05
1.95095e-06
2.10672e-06
1.57467e-05
1.74679e-05
-1.52002e-08
1.74723e-05
-2.51744e-08
1.74773e-05
-2.78475e-08
1.74818e-05
-2.27405e-08
1.74843e-05
-1.04276e-08
1.74842e-05
7.1869e-09
1.74808e-05
2.71585e-08
1.74742e-05
4.62683e-08
1.74649e-05
6.18902e-08
1.74536e-05
7.25444e-08
1.74411e-05
7.79826e-08
1.74283e-05
7.88974e-08
1.74156e-05
7.64691e-08
1.74035e-05
7.19478e-08
1.73922e-05
6.63777e-08
1.73818e-05
6.04841e-08
1.73725e-05
5.46816e-08
1.7364e-05
4.91451e-08
1.73564e-05
4.38979e-08
1.73497e-05
3.88868e-08
1.73439e-05
3.40353e-08
1.73388e-05
2.92716e-08
1.73345e-05
2.4543e-08
1.7331e-05
1.98174e-08
1.73283e-05
1.50807e-08
1.73264e-05
1.03327e-08
1.73252e-05
5.58241e-09
1.73248e-05
8.46269e-10
1.73251e-05
-3.85598e-09
1.73261e-05
-8.50122e-09
1.73279e-05
-1.30644e-08
1.73303e-05
-1.75186e-08
1.73333e-05
-2.18353e-08
1.7337e-05
-2.59846e-08
1.73413e-05
-2.99352e-08
1.73461e-05
-3.36544e-08
1.73513e-05
-3.71081e-08
1.7357e-05
-4.02605e-08
1.73631e-05
-4.30748e-08
1.73694e-05
-4.55121e-08
1.7376e-05
-4.75323e-08
1.73828e-05
-4.90928e-08
1.73896e-05
-5.01496e-08
1.73963e-05
-5.0655e-08
1.74029e-05
-5.05594e-08
1.74093e-05
-4.98091e-08
1.74153e-05
-4.83463e-08
1.74209e-05
-4.61084e-08
1.74258e-05
-4.30268e-08
1.743e-05
-3.90261e-08
1.74333e-05
-3.40225e-08
1.74354e-05
-2.7923e-08
1.74364e-05
-2.06229e-08
1.74359e-05
-1.20043e-08
1.74337e-05
-1.93327e-09
1.74298e-05
9.74053e-09
1.74237e-05
2.31891e-08
1.74153e-05
3.86107e-08
1.74043e-05
5.62333e-08
1.73905e-05
7.63199e-08
1.73736e-05
9.91752e-08
1.73533e-05
1.25152e-07
1.73294e-05
1.54661e-07
1.73015e-05
1.88179e-07
1.72694e-05
2.26258e-07
1.7233e-05
2.69541e-07
1.71922e-05
3.18765e-07
1.71471e-05
3.74776e-07
1.7098e-05
4.38531e-07
1.70456e-05
5.11089e-07
1.6991e-05
5.93595e-07
1.6936e-05
6.87223e-07
1.68835e-05
7.93086e-07
1.68373e-05
9.12063e-07
1.68029e-05
1.04453e-06
1.67871e-05
1.18992e-06
1.67984e-05
1.34614e-06
1.68453e-05
1.50874e-06
1.69347e-05
1.67004e-06
1.70679e-05
1.81868e-06
1.94036e-06
1.72351e-05
1.86914e-05
-1.79207e-08
1.86961e-05
-2.98845e-08
1.87016e-05
-3.33088e-08
1.87066e-05
-2.76747e-08
1.87098e-05
-1.35992e-08
1.87103e-05
6.76437e-09
1.87075e-05
3.00402e-08
1.87014e-05
5.25025e-08
1.86923e-05
7.10699e-08
1.8681e-05
8.3958e-08
1.86683e-05
9.0801e-08
1.86551e-05
9.23349e-08
1.86418e-05
8.98863e-08
1.86291e-05
8.48893e-08
1.86171e-05
7.85631e-08
1.86061e-05
7.17713e-08
1.8596e-05
6.50214e-08
1.85869e-05
5.85424e-08
1.85787e-05
5.23828e-08
1.85715e-05
4.64958e-08
1.85651e-05
4.0802e-08
1.85595e-05
3.52235e-08
1.85548e-05
2.9701e-08
1.85508e-05
2.41979e-08
1.85477e-05
1.86972e-08
1.85453e-05
1.31971e-08
1.85437e-05
7.70814e-09
1.85429e-05
2.24768e-09
1.85428e-05
-3.16149e-09
1.85434e-05
-8.49299e-09
1.85446e-05
-1.37178e-08
1.85466e-05
-1.88049e-08
1.85492e-05
-2.37215e-08
1.85523e-05
-2.84326e-08
1.8556e-05
-3.2902e-08
1.85602e-05
-3.70918e-08
1.85649e-05
-4.09626e-08
1.85699e-05
-4.44731e-08
1.85752e-05
-4.75807e-08
1.85808e-05
-5.02409e-08
1.85866e-05
-5.24075e-08
1.85924e-05
-5.40322e-08
1.85982e-05
-5.5064e-08
1.86039e-05
-5.54495e-08
1.86095e-05
-5.51322e-08
1.86147e-05
-5.40515e-08
1.86194e-05
-5.21425e-08
1.86236e-05
-4.93354e-08
1.86272e-05
-4.55539e-08
1.86299e-05
-4.07148e-08
1.86316e-05
-3.47265e-08
1.86322e-05
-2.74874e-08
1.86315e-05
-1.88847e-08
1.86293e-05
-8.79208e-09
1.86255e-05
2.93089e-09
1.86198e-05
1.64415e-08
1.86122e-05
3.1918e-08
1.86023e-05
4.95625e-08
1.859e-05
6.96034e-08
1.8575e-05
9.23002e-08
1.85573e-05
1.17947e-07
1.85367e-05
1.46878e-07
1.85129e-05
1.7947e-07
1.8486e-05
2.16151e-07
1.84559e-05
2.57398e-07
1.84228e-05
3.03744e-07
1.83868e-05
3.55776e-07
1.83485e-05
4.14128e-07
1.83086e-05
4.79469e-07
1.82683e-05
5.52478e-07
1.82291e-05
6.33802e-07
1.81933e-05
7.23992e-07
1.8164e-05
8.23401e-07
1.81451e-05
9.32045e-07
1.81412e-05
1.0494e-06
1.8158e-05
1.17415e-06
1.82012e-05
1.30384e-06
1.82763e-05
1.43461e-06
1.83865e-05
1.5609e-06
1.85305e-05
1.67556e-06
1.77065e-06
1.87012e-05
2.00006e-05
-2.0803e-08
2.00057e-05
-3.4928e-08
2.00117e-05
-3.92602e-08
2.00173e-05
-3.32414e-08
2.00212e-05
-1.75147e-08
2.00225e-05
5.54393e-09
2.00205e-05
3.21531e-08
2.0015e-05
5.80875e-08
2.00064e-05
7.97978e-08
1.99953e-05
9.51667e-08
1.99826e-05
1.03673e-07
1.99691e-05
1.0606e-07
1.99554e-05
1.0378e-07
1.9942e-05
9.84393e-08
1.99294e-05
9.14344e-08
1.99176e-05
8.37749e-08
1.99069e-05
7.60748e-08
1.98971e-05
6.86296e-08
1.98883e-05
6.15229e-08
1.98804e-05
5.47228e-08
1.98735e-05
4.81519e-08
1.98674e-05
4.17292e-08
1.98621e-05
3.53906e-08
1.98577e-05
2.90946e-08
1.98541e-05
2.2821e-08
1.98513e-05
1.65676e-08
1.98492e-05
1.03441e-08
1.98479e-05
4.16979e-09
1.98473e-05
-1.93026e-09
1.98473e-05
-7.92678e-09
1.98481e-05
-1.37869e-08
1.98495e-05
-1.94755e-08
1.98514e-05
-2.49551e-08
1.9854e-05
-3.01866e-08
1.9857e-05
-3.51285e-08
1.98604e-05
-3.97379e-08
1.98643e-05
-4.397e-08
1.98684e-05
-4.77784e-08
1.98729e-05
-5.11152e-08
1.98775e-05
-5.39304e-08
1.98822e-05
-5.61721e-08
1.98869e-05
-5.77863e-08
1.98915e-05
-5.87166e-08
1.98959e-05
-5.8904e-08
1.99001e-05
-5.82858e-08
1.99039e-05
-5.6796e-08
1.99071e-05
-5.43639e-08
1.99098e-05
-5.09137e-08
1.99116e-05
-4.63637e-08
1.99126e-05
-4.06249e-08
1.99126e-05
-3.36006e-08
1.99114e-05
-2.51846e-08
1.99089e-05
-1.526e-08
1.99049e-05
-3.6976e-09
1.98993e-05
9.64378e-09
1.98919e-05
2.49207e-08
1.98827e-05
4.23086e-08
1.98714e-05
6.2002e-08
1.98579e-05
8.42168e-08
1.98421e-05
1.09193e-07
1.9824e-05
1.37195e-07
1.98035e-05
1.68515e-07
1.97806e-05
2.03475e-07
1.97555e-05
2.42421e-07
1.97283e-05
2.85727e-07
1.96994e-05
3.33787e-07
1.96693e-05
3.87007e-07
1.96387e-05
4.45789e-07
1.96088e-05
5.10515e-07
1.95809e-05
5.81506e-07
1.95568e-05
6.58986e-07
1.95389e-05
7.43022e-07
1.95299e-05
8.33441e-07
1.95333e-05
9.29738e-07
1.95528e-05
1.03096e-06
1.95925e-05
1.13558e-06
1.9656e-05
1.24135e-06
1.97464e-05
1.34529e-06
1.98647e-05
1.44359e-06
2.00094e-05
1.53194e-06
1.60599e-06
2.0175e-05
2.14015e-05
-2.38526e-08
2.14069e-05
-4.03182e-08
2.14134e-05
-4.57337e-08
2.14197e-05
-3.95015e-08
2.14246e-05
-2.22743e-08
2.14268e-05
3.38403e-09
2.14257e-05
3.33177e-08
2.14211e-05
6.28188e-08
2.14132e-05
8.78638e-08
2.14025e-05
1.05971e-07
2.13899e-05
1.16423e-07
2.13762e-05
1.19934e-07
2.13622e-05
1.18046e-07
2.13483e-05
1.12529e-07
2.1335e-05
1.0495e-07
2.13226e-05
9.64768e-08
2.13111e-05
8.78401e-08
2.13007e-05
7.9416e-08
2.12912e-05
7.13357e-08
2.12828e-05
6.3591e-08
2.12752e-05
5.61131e-08
2.12686e-05
4.88213e-08
2.12628e-05
4.16488e-08
2.12578e-05
3.455e-08
2.12537e-05
2.75022e-08
2.12503e-05
2.05007e-08
2.12477e-05
1.35558e-08
2.12458e-05
6.68719e-09
2.12446e-05
-7.79777e-11
2.12441e-05
-6.70734e-09
2.12442e-05
-1.31651e-08
2.12449e-05
-1.94121e-08
2.12462e-05
-2.54064e-08
2.12479e-05
-3.11043e-08
2.12501e-05
-3.646e-08
2.12526e-05
-4.14256e-08
2.12555e-05
-4.59514e-08
2.12586e-05
-4.99862e-08
2.12619e-05
-5.3477e-08
2.12653e-05
-5.63686e-08
2.12688e-05
-5.86046e-08
2.12721e-05
-6.01261e-08
2.12753e-05
-6.08719e-08
2.12783e-05
-6.07781e-08
2.12808e-05
-5.97778e-08
2.12829e-05
-5.78005e-08
2.12844e-05
-5.47715e-08
2.12853e-05
-5.06114e-08
2.12853e-05
-4.52351e-08
2.12843e-05
-3.85513e-08
2.12824e-05
-3.04613e-08
2.12792e-05
-2.08585e-08
2.12748e-05
-9.62663e-09
2.12689e-05
3.35933e-09
2.12615e-05
1.82348e-08
2.12525e-05
3.51485e-08
2.12417e-05
5.4263e-08
2.12292e-05
7.57541e-08
2.12148e-05
9.98121e-08
2.11986e-05
1.26643e-07
2.11805e-05
1.56466e-07
2.11607e-05
1.89515e-07
2.11394e-05
2.26034e-07
2.11167e-05
2.66275e-07
2.10932e-05
3.10491e-07
2.10692e-05
3.58926e-07
2.10456e-05
4.11805e-07
2.10233e-05
4.69314e-07
2.10034e-05
5.31579e-07
2.09875e-05
5.98637e-07
2.09773e-05
6.70398e-07
2.09748e-05
7.46607e-07
2.09827e-05
8.2679e-07
2.10033e-05
9.10206e-07
2.10397e-05
9.95791e-07
2.10943e-05
1.08212e-06
2.11694e-05
1.16738e-06
2.12664e-05
1.24938e-06
2.13854e-05
1.32566e-06
2.15248e-05
1.39365e-06
1.45098e-06
2.16809e-05
2.29005e-05
-2.70726e-08
2.29063e-05
-4.60625e-08
2.29134e-05
-5.27493e-08
2.29204e-05
-4.6496e-08
2.29261e-05
-2.79492e-08
2.29294e-05
1.76057e-10
2.29295e-05
3.33887e-08
2.29259e-05
6.65234e-08
2.29188e-05
9.50778e-08
2.29087e-05
1.16181e-07
2.28964e-05
1.28876e-07
2.28828e-05
1.33803e-07
2.28685e-05
1.32564e-07
2.28542e-05
1.27067e-07
2.28403e-05
1.1905e-07
2.28273e-05
1.0984e-07
2.28151e-05
1.003e-07
2.2804e-05
9.09001e-08
2.27939e-05
8.18314e-08
2.27848e-05
7.31201e-08
2.27766e-05
6.47131e-08
2.27694e-05
5.65352e-08
2.2763e-05
4.85183e-08
2.27575e-05
4.06148e-08
2.27528e-05
3.27989e-08
2.27488e-05
2.50644e-08
2.27456e-05
1.74201e-08
2.27431e-05
9.88702e-09
2.27412e-05
2.49351e-09
2.274e-05
-4.7259e-09
2.27393e-05
-1.17318e-08
2.27392e-05
-1.84817e-08
2.27395e-05
-2.49301e-08
2.27403e-05
-3.10288e-08
2.27415e-05
-3.67275e-08
2.2743e-05
-4.19742e-08
2.27447e-05
-4.67148e-08
2.27466e-05
-5.08937e-08
2.27486e-05
-5.44535e-08
2.27506e-05
-5.73352e-08
2.27525e-05
-5.9478e-08
2.27543e-05
-6.08191e-08
2.27558e-05
-6.1294e-08
2.2757e-05
-6.08354e-08
2.27578e-05
-5.93736e-08
2.2758e-05
-5.68354e-08
2.27575e-05
-5.31447e-08
2.27563e-05
-4.82205e-08
2.27543e-05
-4.19777e-08
2.27513e-05
-3.43257e-08
2.27472e-05
-2.51684e-08
2.2742e-05
-1.44031e-08
2.27356e-05
-1.92032e-09
2.27278e-05
1.23948e-08
2.27187e-05
2.86659e-08
2.27081e-05
4.70256e-08
2.2696e-05
6.76136e-08
2.26825e-05
9.05775e-08
2.26675e-05
1.16072e-07
2.26512e-05
1.44256e-07
2.26337e-05
1.75294e-07
2.26151e-05
2.09349e-07
2.25959e-05
2.46581e-07
2.25763e-05
2.8714e-07
2.25569e-05
3.31157e-07
2.25384e-05
3.78738e-07
2.25216e-05
4.29943e-07
2.25074e-05
4.84781e-07
2.2497e-05
5.43183e-07
2.2492e-05
6.04984e-07
2.24937e-05
6.69898e-07
2.25041e-05
7.37496e-07
2.25249e-05
8.07181e-07
2.25582e-05
8.78166e-07
2.26058e-05
9.49463e-07
2.26692e-05
1.01988e-06
2.27498e-05
1.08805e-06
2.28479e-05
1.15246e-06
2.29632e-05
1.21153e-06
2.30943e-05
1.26375e-06
1.30786e-06
2.32386e-05
2.45045e-05
-3.0462e-08
2.45107e-05
-5.21598e-08
2.45183e-05
-6.03109e-08
2.45261e-05
-5.42402e-08
2.45328e-05
-3.45747e-08
2.45372e-05
-4.14301e-09
2.45384e-05
3.22719e-08
2.45359e-05
6.90747e-08
2.45299e-05
1.01291e-07
2.45206e-05
1.25633e-07
2.45088e-05
1.40868e-07
2.44953e-05
1.47517e-07
2.44809e-05
1.47202e-07
2.44662e-05
1.41947e-07
2.44519e-05
1.33653e-07
2.44383e-05
1.23811e-07
2.44255e-05
1.13424e-07
2.44137e-05
1.03071e-07
2.44029e-05
9.30159e-08
2.43932e-05
8.333e-08
2.43844e-05
7.39842e-08
2.43765e-05
6.49133e-08
2.43695e-05
5.60521e-08
2.43633e-05
4.73517e-08
2.4358e-05
3.87841e-08
2.43533e-05
3.03413e-08
2.43494e-05
2.20312e-08
2.43461e-05
1.38746e-08
2.43435e-05
5.90078e-09
2.43414e-05
-1.85316e-09
2.43398e-05
-9.34588e-09
2.43387e-05
-1.65316e-08
2.43381e-05
-2.3361e-08
2.43377e-05
-2.97827e-08
2.43377e-05
-3.57426e-08
2.43379e-05
-4.11848e-08
2.43383e-05
-4.60514e-08
2.43387e-05
-5.02834e-08
2.43392e-05
-5.38201e-08
2.43395e-05
-5.65991e-08
2.43397e-05
-5.8557e-08
2.43397e-05
-5.96285e-08
2.43393e-05
-5.97468e-08
2.43386e-05
-5.88433e-08
2.43373e-05
-5.68473e-08
2.43354e-05
-5.36855e-08
2.43328e-05
-4.92822e-08
2.43294e-05
-4.35585e-08
2.43251e-05
-3.64323e-08
2.43199e-05
-2.7818e-08
2.43137e-05
-1.76256e-08
2.43064e-05
-5.76168e-09
2.42979e-05
7.86992e-09
2.42883e-05
2.33696e-08
2.42775e-05
4.08427e-08
2.42655e-05
6.03976e-08
2.42524e-05
8.21444e-08
2.42381e-05
1.06195e-07
2.42229e-05
1.32659e-07
2.42069e-05
1.61645e-07
2.41903e-05
1.93254e-07
2.41735e-05
2.27577e-07
2.41568e-05
2.64689e-07
2.41406e-05
3.04644e-07
2.41257e-05
3.47466e-07
2.41127e-05
3.9314e-07
2.41024e-05
4.41601e-07
2.40958e-05
4.92726e-07
2.40941e-05
5.46317e-07
2.40983e-05
6.02089e-07
2.41099e-05
6.59661e-07
2.41302e-05
7.18543e-07
2.41606e-05
7.78131e-07
2.42024e-05
8.37703e-07
2.42567e-05
8.9643e-07
2.43245e-05
9.53385e-07
2.44063e-05
1.00758e-06
2.4502e-05
1.05799e-06
2.46112e-05
1.10364e-06
2.47325e-05
1.14365e-06
1.17734e-06
2.48643e-05
2.62209e-05
-3.40172e-08
2.62273e-05
-5.86008e-08
2.62355e-05
-6.84048e-08
2.6244e-05
-6.27198e-08
2.62517e-05
-4.21417e-08
2.62572e-05
-9.57906e-09
2.62596e-05
2.9936e-08
2.62584e-05
7.04115e-08
2.62535e-05
1.06408e-07
2.6245e-05
1.3421e-07
2.62338e-05
1.52266e-07
2.62207e-05
1.60937e-07
2.62063e-05
1.61828e-07
2.61914e-05
1.57056e-07
2.61767e-05
1.48669e-07
2.61626e-05
1.38322e-07
2.61492e-05
1.27171e-07
2.61367e-05
1.15911e-07
2.61253e-05
1.04893e-07
2.61148e-05
9.42429e-08
2.61054e-05
8.39645e-08
2.60968e-05
7.40088e-08
2.60891e-05
6.43165e-08
2.60823e-05
5.48398e-08
2.60761e-05
4.55493e-08
2.60707e-05
3.64354e-08
2.6066e-05
2.7505e-08
2.60618e-05
1.87781e-08
2.60583e-05
1.02851e-08
2.60552e-05
2.06389e-09
2.60526e-05
-5.84192e-09
2.60503e-05
-1.33837e-08
2.60484e-05
-2.05099e-08
2.60468e-05
-2.71659e-08
2.60454e-05
-3.32944e-08
2.60441e-05
-3.88369e-08
2.60429e-05
-4.37331e-08
2.60416e-05
-4.79207e-08
2.60403e-05
-5.13372e-08
2.60388e-05
-5.39184e-08
2.6037e-05
-5.55992e-08
2.60349e-05
-5.63138e-08
2.60324e-05
-5.5995e-08
2.60295e-05
-5.45748e-08
2.60259e-05
-5.19836e-08
2.60217e-05
-4.81508e-08
2.60168e-05
-4.30042e-08
2.6011e-05
-3.64698e-08
2.60045e-05
-2.84721e-08
2.5997e-05
-1.89341e-08
2.59885e-05
-7.77698e-09
2.59791e-05
5.0779e-09
2.59687e-05
1.97101e-08
2.59573e-05
3.62009e-08
2.5945e-05
5.46308e-08
2.59318e-05
7.50787e-08
2.59178e-05
9.76201e-08
2.59031e-05
1.22326e-07
2.5888e-05
1.4926e-07
2.58726e-05
1.78475e-07
2.58573e-05
2.10012e-07
2.58425e-05
2.43892e-07
2.58286e-05
2.80116e-07
2.5816e-05
3.18654e-07
2.58055e-05
3.59444e-07
2.57978e-05
4.02382e-07
2.57935e-05
4.47317e-07
2.57937e-05
4.94041e-07
2.57991e-05
5.42286e-07
2.5811e-05
5.91719e-07
2.58301e-05
6.41934e-07
2.58576e-05
6.92454e-07
2.58945e-05
7.42735e-07
2.59414e-05
7.92171e-07
2.59991e-05
8.40107e-07
2.60681e-05
8.85856e-07
2.61483e-05
9.28728e-07
2.62396e-05
9.68054e-07
2.63414e-05
1.00323e-06
2.64526e-05
1.03374e-06
1.05925e-06
2.65721e-05
2.80574e-05
-3.77303e-08
2.80642e-05
-6.53664e-08
2.80728e-05
-7.69993e-08
2.80821e-05
-7.18907e-08
2.80906e-05
-5.05987e-08
2.80972e-05
-1.60823e-08
2.81008e-05
2.64164e-08
2.81009e-05
7.05418e-08
2.8097e-05
1.10404e-07
2.80896e-05
1.41847e-07
2.80791e-05
1.62976e-07
2.80663e-05
1.73951e-07
2.80521e-05
1.76327e-07
2.80371e-05
1.72283e-07
2.80221e-05
1.64004e-07
2.80075e-05
1.53306e-07
2.79935e-05
1.41496e-07
2.79805e-05
1.29402e-07
2.79684e-05
1.17468e-07
2.79572e-05
1.05888e-07
2.7947e-05
9.47037e-08
2.79377e-05
8.38894e-08
2.79292e-05
7.33959e-08
2.79216e-05
6.31788e-08
2.79146e-05
5.32088e-08
2.79083e-05
4.34751e-08
2.79026e-05
3.39831e-08
2.78974e-05
2.47526e-08
2.78927e-05
1.58139e-08
2.78885e-05
7.20557e-09
2.78846e-05
-1.02697e-09
2.7881e-05
-8.834e-09
2.78777e-05
-1.61617e-08
2.78745e-05
-2.29532e-08
2.78715e-05
-2.91498e-08
2.78685e-05
-3.46905e-08
2.78654e-05
-3.95133e-08
2.78622e-05
-4.35555e-08
2.78589e-05
-4.67532e-08
2.78552e-05
-4.9042e-08
2.78513e-05
-5.03574e-08
2.78469e-05
-5.06343e-08
2.78421e-05
-4.98075e-08
2.78367e-05
-4.78116e-08
2.78307e-05
-4.45813e-08
2.7824e-05
-4.00508e-08
2.78166e-05
-3.41544e-08
2.78084e-05
-2.68264e-08
2.77994e-05
-1.80016e-08
2.77895e-05
-7.61516e-09
2.77789e-05
4.39559e-09
2.77674e-05
1.80917e-08
2.77551e-05
3.35335e-08
2.7742e-05
5.07776e-08
2.77283e-05
6.98762e-08
2.77141e-05
9.08758e-08
2.76995e-05
1.13815e-07
2.76846e-05
1.38723e-07
2.76699e-05
1.65618e-07
2.76554e-05
1.94502e-07
2.76416e-05
2.25359e-07
2.7629e-05
2.58153e-07
2.76178e-05
2.92821e-07
2.76088e-05
3.29273e-07
2.76024e-05
3.67384e-07
2.75994e-05
4.06993e-07
2.76004e-05
4.47897e-07
2.76061e-05
4.8985e-07
2.76174e-05
5.3256e-07
2.7635e-05
5.75691e-07
2.76596e-05
6.1886e-07
2.76919e-05
6.61647e-07
2.77326e-05
7.03594e-07
2.7782e-05
7.44221e-07
2.78406e-05
7.83034e-07
2.79084e-05
8.19544e-07
2.79853e-05
8.53279e-07
2.80711e-05
8.8381e-07
2.8165e-05
9.10768e-07
2.82663e-05
9.33869e-07
9.52947e-07
2.8374e-05
3.00226e-05
-4.15892e-08
3.00297e-05
-7.24282e-08
3.00388e-05
-8.60466e-08
3.00486e-05
-8.16833e-08
3.00579e-05
-5.98558e-08
3.00655e-05
-2.35525e-08
3.00703e-05
2.18085e-08
3.00714e-05
6.95391e-08
3.00687e-05
1.13317e-07
3.00622e-05
1.48542e-07
3.00524e-05
1.72956e-07
3.00401e-05
1.86489e-07
3.00261e-05
1.9061e-07
3.00112e-05
1.87539e-07
2.99959e-05
1.79578e-07
2.99809e-05
1.68697e-07
2.99665e-05
1.56362e-07
2.99528e-05
1.43531e-07
2.994e-05
1.30757e-07
2.99281e-05
1.18304e-07
2.99171e-05
1.06265e-07
2.9907e-05
9.46392e-08
2.98976e-05
8.33937e-08
2.9889e-05
7.24898e-08
2.98811e-05
6.19001e-08
2.98737e-05
5.1613e-08
2.98669e-05
4.16334e-08
2.98605e-05
3.19797e-08
2.98546e-05
2.26821e-08
2.98489e-05
1.37794e-08
2.98436e-05
5.31741e-09
2.98384e-05
-2.65309e-09
2.98334e-05
-1.00774e-08
2.98285e-05
-1.68979e-08
2.98235e-05
-2.30547e-08
2.98185e-05
-2.84867e-08
2.98134e-05
-3.31316e-08
2.9808e-05
-3.69267e-08
2.98024e-05
-3.9809e-08
2.97964e-05
-4.17161e-08
2.979e-05
-4.25851e-08
2.97831e-05
-4.23545e-08
2.97757e-05
-4.0963e-08
2.97677e-05
-3.83507e-08
2.9759e-05
-3.44582e-08
2.97497e-05
-2.9228e-08
2.97397e-05
-2.26036e-08
2.97289e-05
-1.45308e-08
2.97174e-05
-4.95784e-09
2.97053e-05
6.16366e-09
2.96924e-05
1.88788e-08
2.96788e-05
3.32295e-08
2.96648e-05
4.9252e-08
2.96502e-05
6.69766e-08
2.96353e-05
8.64256e-08
2.96202e-05
1.07613e-07
2.96052e-05
1.30541e-07
2.95903e-05
1.552e-07
2.95761e-05
1.81567e-07
2.95627e-05
2.09598e-07
2.95505e-05
2.39234e-07
2.95399e-05
2.70393e-07
2.95314e-05
3.02967e-07
2.95256e-05
3.36824e-07
2.95228e-05
3.71801e-07
2.95238e-05
4.07709e-07
2.9529e-05
4.44323e-07
2.95392e-05
4.81393e-07
2.95547e-05
5.18634e-07
2.95763e-05
5.55738e-07
2.96045e-05
5.92371e-07
2.96396e-05
6.28181e-07
2.9682e-05
6.62806e-07
2.97319e-05
6.95881e-07
2.97895e-05
7.27047e-07
2.98547e-05
7.55962e-07
2.99273e-05
7.82316e-07
3.00068e-05
8.05835e-07