/*--------------------------------*- C++ -*----------------------------------*\
| =========                 |                                                 |
| \\      /  F ield         | OpenFOAM: The Open Source CFD Toolbox           |
|  \\    /   O peration     | Version:  2006                                  |
|   \\  /    A nd           | Website:  www.openfoam.com                      |
|    \\/     M anipulation  |                                                 |
\*---------------------------------------------------------------------------*/
FoamFile
{
    version     2.0;
    format      ascii;
    class       surfaceScalarField;
    location    "8.7";
    object      phi;
}
// * * * * * * * * * * * * * * * * * * * * * * * * * * * * * * * * * * * * * //

dimensions      [0 3 -1 0 0 0 0];
oriented        oriented;


internalField   nonuniform List<scalar> 
5457
(
0.198418
0.00158239
0.19648
0.00193738
0.194192
0.0022881
0.191509
0.0026836
0.188427
0.00308122
0.184951
0.0034768
0.181072
0.00387862
0.176778
0.00429407
0.17205
0.0047283
0.166864
0.00518531
0.161196
0.00566862
0.155014
0.00618116
0.148289
0.00672511
0.140988
0.0073015
0.133078
0.00790968
0.124532
0.00854663
0.115325
0.00920607
0.105448
0.00987735
0.0949039
0.0105442
0.0837202
0.0111836
0.0719555
0.0117647
0.0597072
0.0122483
0.0471185
0.0125887
0.0343784
0.0127401
0.0216836
0.0126949
0.00903357
0.01265
-0.00291871
0.0119523
-0.0084731
0.00555439
-0.00804335
-0.000429753
-0.00804335
0.199928
0.00165423
0.199176
0.00268983
0.197965
0.00349905
0.196332
0.0043168
0.194271
0.0051413
0.191781
0.00596691
0.188854
0.00680565
0.185477
0.007671
0.181632
0.00857329
0.177297
0.00952082
0.172445
0.0105209
0.167046
0.0115797
0.161069
0.012702
0.15448
0.0138906
0.147245
0.0151449
0.139332
0.0164599
0.130713
0.0178242
0.121373
0.0192177
0.111308
0.0206092
0.100538
0.0219536
0.0891135
0.0231893
0.0771258
0.024236
0.0647199
0.0249946
0.0521125
0.0253475
0.0396524
0.025155
0.0281028
0.0241996
0.0185924
0.0214627
0.00879464
0.0153521
0.00118224
0.00718265
-0.00686111
0.199781
0.00187368
0.199087
0.00338368
0.197946
0.00463999
0.196409
0.00585344
0.194483
0.00706747
0.192164
0.008286
0.189446
0.00952314
0.186321
0.0107966
0.182773
0.0121213
0.178784
0.0135098
0.174332
0.0149731
0.16939
0.0165208
0.163932
0.0181608
0.157924
0.019898
0.151336
0.0217334
0.144134
0.0236619
0.136288
0.0256699
0.127774
0.0277318
0.118577
0.0298063
0.108699
0.0318317
0.098167
0.0337213
0.0870446
0.0353584
0.0754479
0.0365913
0.0635708
0.0372245
0.0517292
0.0369966
0.0403944
0.0355344
0.0297365
0.0321206
0.0191642
0.0259244
0.00959653
0.0167503
0.00273542
0.199703
0.00217061
0.199008
0.004079
0.197887
0.00576054
0.196376
0.00736437
0.194488
0.00895561
0.192222
0.010552
0.189574
0.0121709
0.186538
0.0138326
0.183104
0.0155558
0.179257
0.0173564
0.174982
0.0192482
0.170259
0.0212436
0.165067
0.0233526
0.159383
0.0255823
0.153181
0.0279353
0.146436
0.0304073
0.139121
0.0329845
0.131214
0.0356393
0.122694
0.0383257
0.113553
0.0409728
0.103796
0.0434784
0.0934534
0.0457011
0.0825921
0.0474526
0.0713294
0.0484872
0.0598376
0.0484883
0.048314
0.0470581
0.0368085
0.0436261
0.0251861
0.0375467
0.0133347
0.0286018
0.0160701
0.199667
0.00250321
0.198964
0.00478227
0.197863
0.00686187
0.196381
0.00884607
0.194532
0.0108044
0.192318
0.0127667
0.189734
0.0147547
0.186775
0.0167912
0.183433
0.0188976
0.179698
0.0210922
0.175554
0.0233913
0.170989
0.0258088
0.165985
0.0283565
0.160525
0.0310428
0.154589
0.033871
0.148158
0.0368381
0.141212
0.0399305
0.133731
0.0431211
0.125693
0.0463628
0.117084
0.0495824
0.10789
0.0526721
0.098111
0.0554803
0.0877609
0.0578027
0.0768749
0.0593732
0.0655051
0.0598581
0.0537047
0.0588585
0.0414513
0.0558796
0.0285858
0.0504122
0.0148513
0.0423362
0.0309214
0.199653
0.00285041
0.198949
0.00548634
0.197871
0.00793983
0.196427
0.0102903
0.194627
0.0126044
0.192473
0.0149202
0.189963
0.0172644
0.187092
0.0196621
0.183853
0.022137
0.180236
0.0247095
0.176229
0.0273979
0.17182
0.0302176
0.166995
0.0331815
0.161739
0.0362989
0.156036
0.0395741
0.149869
0.0430049
0.143221
0.046579
0.136071
0.0502708
0.128399
0.0540354
0.120179
0.0578024
0.111384
0.0614667
0.101985
0.0648793
0.0919505
0.067837
0.0812497
0.0700741
0.06985
0.0712578
0.057713
0.0709955
0.0447574
0.0688352
0.0308467
0.0643229
0.0158719
0.0573111
0.0467933
0.19965
0.00320036
0.198954
0.00618233
0.197904
0.00898946
0.196505
0.01169
0.194762
0.0143467
0.19268
0.0170023
0.190257
0.0196881
0.187487
0.0224318
0.184365
0.0252591
0.180882
0.0281925
0.177028
0.0312519
0.172791
0.0344543
0.168159
0.0378138
0.163117
0.0413407
0.157651
0.0450406
0.151743
0.0489127
0.145375
0.0529469
0.138525
0.0571206
0.131166
0.0613941
0.123265
0.0657036
0.114778
0.0699538
0.10565
0.0740075
0.0958119
0.0776752
0.0851811
0.0807048
0.0736632
0.0827757
0.0611568
0.0835019
0.0475512
0.0824408
0.0327557
0.0791184
0.0167813
0.0732855
0.0635746
0.199655
0.00354571
0.198975
0.00686245
0.197959
0.0100052
0.19661
0.0130387
0.194934
0.0160228
0.192933
0.0190029
0.190607
0.0220142
0.187952
0.0250871
0.184962
0.0282491
0.18163
0.0315247
0.177946
0.0349354
0.173901
0.0384998
0.169481
0.0422334
0.164673
0.0461483
0.159462
0.0502517
0.15383
0.0545453
0.147754
0.0590224
0.141209
0.0636657
0.13416
0.0684428
0.126563
0.0733009
0.118357
0.0781595
0.109464
0.0829008
0.0997809
0.0873584
0.0891814
0.0913043
0.0775191
0.094438
0.0646416
0.0963794
0.0504124
0.09667
0.0347644
0.0947665
0.0177878
0.0902621
0.0813623
0.199664
0.00388154
0.199006
0.00752026
0.19803
0.0109815
0.196739
0.0143302
0.195137
0.0176248
0.193227
0.0209127
0.191009
0.0242321
0.18848
0.0276157
0.185636
0.0310931
0.18247
0.0346905
0.178975
0.038431
0.17514
0.0423349
0.170954
0.0464195
0.166403
0.0506989
0.161472
0.055183
0.15614
0.059877
0.150384
0.0647791
0.14417
0.0698791
0.137458
0.0751548
0.130191
0.080568
0.122293
0.0860579
0.113661
0.0915327
0.104162
0.0968575
0.0936269
0.101839
0.0818574
0.106208
0.0686422
0.109595
0.0537955
0.111517
0.0372316
0.11133
0.0190807
0.108413
0.100443
0.199677
0.00420432
0.199047
0.00815051
0.198116
0.0119128
0.196887
0.0155585
0.195366
0.0191457
0.193556
0.0227233
0.191456
0.0263319
0.189065
0.0300065
0.18638
0.0337784
0.183395
0.0376754
0.180104
0.0417223
0.176497
0.0459411
0.172566
0.0503513
0.168295
0.0549692
0.16367
0.0598081
0.15867
0.0648775
0.153267
0.0701821
0.147425
0.0757205
0.141097
0.0814831
0.134216
0.0874494
0.126691
0.093583
0.118399
0.0998245
0.109176
0.10608
0.0988111
0.112204
0.0870435
0.117975
0.0735808
0.123057
0.05814
0.126957
0.0405452
0.128925
0.0208975
0.128061
0.121341
0.199693
0.0045114
0.199095
0.00874889
0.198213
0.0127944
0.197053
0.0167181
0.19562
0.0205791
0.193916
0.0244272
0.191943
0.028305
0.1897
0.0322494
0.187185
0.0362934
0.184394
0.0404663
0.181322
0.0447945
0.177961
0.0493017
0.174303
0.0540094
0.170336
0.0589366
0.166043
0.0641004
0.161406
0.0695152
0.156395
0.0751928
0.150973
0.0811421
0.145089
0.0873677
0.138669
0.0938694
0.131613
0.100639
0.123782
0.107655
0.114987
0.114875
0.104973
0.122219
0.093408
0.12954
0.0798864
0.136579
0.0639566
0.142887
0.0452254
0.147657
0.023606
0.14968
0.144947
0.199711
0.00480071
0.199148
0.0093119
0.19832
0.013622
0.197234
0.0178044
0.195894
0.0219192
0.194303
0.0260175
0.192465
0.0301435
0.190379
0.0343356
0.188044
0.0386282
0.185458
0.0430519
0.182618
0.0476346
0.179518
0.0524015
0.176152
0.0573761
0.172508
0.0625803
0.168574
0.0680346
0.16433
0.0737587
0.159751
0.0797718
0.1548
0.0860931
0.149426
0.0927423
0.143555
0.0997403
0.137085
0.107109
0.12987
0.11487
0.121706
0.12304
0.112303
0.131622
0.10126
0.140583
0.0880303
0.149808
0.0719076
0.15901
0.0520725
0.167492
0.0278768
0.173876
0.172823
0.19973
0.00507063
0.199205
0.00983667
0.198435
0.014392
0.197427
0.0188131
0.196185
0.0231613
0.194713
0.0274887
0.193016
0.0318408
0.191094
0.0362575
0.188948
0.0407741
0.186578
0.0454223
0.183981
0.0502312
0.181155
0.0552274
0.178095
0.0604362
0.174794
0.0658817
0.171241
0.0715879
0.16742
0.0775791
0.163311
0.0838815
0.15888
0.0905238
0.154082
0.0975399
0.148852
0.104971
0.143094
0.112867
0.136671
0.121293
0.129382
0.130329
0.120929
0.140075
0.110867
0.150645
0.0985239
0.162151
0.0828798
0.174654
0.0624147
0.187957
0.0351099
0.20118
0.207933
0.199751
0.00531992
0.199266
0.0103209
0.198557
0.0151014
0.19763
0.0197406
0.19649
0.0243011
0.195142
0.028836
0.193592
0.0333917
0.19184
0.0380089
0.18989
0.042724
0.187743
0.0475695
0.185399
0.0525752
0.182858
0.0577688
0.180117
0.0631768
0.177173
0.0688253
0.17402
0.0747408
0.170648
0.0809515
0.16704
0.087489
0.163174
0.09439
0.159015
0.101699
0.154511
0.109474
0.149588
0.11779
0.144134
0.126747
0.137981
0.136482
0.13087
0.147186
0.122387
0.159129
0.111836
0.172702
0.0979876
0.188502
0.078504
0.20744
0.0486359
0.231049
0.256569
0.199772
0.00554761
0.19933
0.0107628
0.198684
0.0157478
0.19784
0.0205841
0.196806
0.0253355
0.195586
0.0300556
0.194186
0.0347917
0.19261
0.0395852
0.190861
0.0444728
0.188943
0.0494876
0.186859
0.0546597
0.18461
0.0600176
0.182199
0.0655884
0.179624
0.0713993
0.176887
0.0774786
0.173981
0.0838569
0.170901
0.0905689
0.167635
0.0976566
0.164162
0.105172
0.160455
0.113182
0.156468
0.121776
0.152137
0.131078
0.14736
0.141259
0.141978
0.152567
0.135729
0.165378
0.12814
0.180291
0.118271
0.198371
0.10387
0.221841
0.0776308
0.257288
0.3342
0.00383446
-0.00383446
0.00749595
-0.0036615
0.010517
-0.00302105
0.0128728
-0.00235578
0.0146343
-0.00176157
0.015879
-0.00124469
0.0166734
-0.000794361
0.0170749
-0.000401469
0.0171435
-6.86822e-05
0.0169181
0.000225439
0.0164665
0.000451582
0.0158432
0.00062335
0.0151005
0.000742697
0.014292
0.000808445
0.0134702
0.000821844
0.0126817
0.000788494
0.0119636
0.000718067
0.0113406
0.000623067
0.0108227
0.000517869
0.0104055
0.000417203
0.0100728
0.000332689
0.00980332
0.00026948
0.00957729
0.000226029
0.00938124
0.000196058
0.00920907
0.000172161
0.00905898
0.000150091
0.00892883
0.000130158
0.00881352
0.000115304
0.008707
0.000106521
8.66833e-05
0.00355928
-0.00739374
0.00698048
-0.0070827
0.009867
-0.00590756
0.0122068
-0.00469562
0.0140709
-0.00362562
0.0155305
-0.0027043
0.0166452
-0.00190901
0.0174617
-0.001218
0.0180051
-0.0006121
0.0183082
-7.76753e-05
0.0183669
0.000392872
0.0182315
0.000758787
0.0179547
0.00101948
0.0175908
0.00117233
0.017193
0.00121968
0.0168085
0.00117302
0.0164741
0.00105244
0.0162137
0.000883476
0.0160362
0.000695374
0.0159356
0.000517824
0.0158948
0.000373433
0.0158932
0.000271076
0.0159127
0.000206505
0.0159423
0.000166537
0.0159779
0.00013648
0.0160192
0.000108811
0.0160646
8.48065e-05
0.0161096
7.02399e-05
0.0161479
6.82421e-05
7.68932e-05
0.00302553
-0.0104193
0.00584236
-0.00989953
0.00818333
-0.00824853
0.0100799
-0.00659221
0.0116057
-0.00515143
0.01282
-0.00391861
0.0137699
-0.00285884
0.0144931
-0.00194119
0.0150248
-0.0011438
0.0153991
-0.000452016
0.015639
0.000152992
0.0157314
0.000666363
0.015713
0.00103784
0.015626
0.00125935
0.0155109
0.0013348
0.0154021
0.00128177
0.0153262
0.0011284
0.0152995
0.000910182
0.0153263
0.000668541
0.0153979
0.000446219
0.0154963
0.00027506
0.0156018
0.000165596
0.0156982
0.000110075
0.0157771
8.76076e-05
0.0158389
7.46644e-05
0.0158881
5.9665e-05
0.0159295
4.34055e-05
0.0159651
3.46496e-05
0.0159919
4.14528e-05
7.22769e-05
0.00243698
-0.0128562
0.00454066
-0.0120032
0.00621609
-0.00992396
0.00756176
-0.00793788
0.00865079
-0.00624045
0.00952697
-0.0047948
0.0102229
-0.00355478
0.0107624
-0.00248063
0.0111667
-0.0015482
0.0114643
-0.000749526
0.0116744
-5.71976e-05
0.0117944
0.00054642
0.0118411
0.000991093
0.0118492
0.00125129
0.0118469
0.00133709
0.011854
0.00127467
0.0118837
0.00109872
0.0119418
0.000852072
0.0120251
0.000585208
0.0121186
0.00035277
0.0122006
0.000193061
0.0122534
0.000112783
0.0122656
9.78437e-05
0.012237
0.000116194
0.012177
0.000134669
0.0120965
0.000140158
0.0120052
0.000134726
0.0119086
0.000131286
0.0118083
0.000141779
0.000164496
0.00175445
-0.0146107
0.00306388
-0.0133126
0.00400219
-0.0108623
0.00473349
-0.00866918
0.00532055
-0.00682751
0.00579328
-0.00526753
0.00617373
-0.00393522
0.00647491
-0.00278181
0.00670482
-0.00177811
0.00687231
-0.000917019
0.00701482
-0.000199701
0.00711146
0.000449781
0.0071457
0.000956851
0.00715632
0.00124067
0.00716148
0.00133192
0.00716678
0.00126938
0.00717114
0.00109436
0.0071697
0.000853514
0.00715487
0.000600037
0.0071085
0.000399134
0.00701283
0.000288736
0.00686155
0.000264059
0.00665561
0.000303784
0.00640301
0.000368792
0.00611704
0.000420645
0.00581159
0.000445604
0.00549736
0.000448957
0.00518077
0.000447871
0.00487614
0.000446409
0.000399087
0.000979015
-0.0155897
0.00140706
-0.0137407
0.00156138
-0.0110166
0.00163002
-0.00873782
0.00164757
-0.00684506
0.00164166
-0.00526163
0.00162734
-0.0039209
0.00161599
-0.00277046
0.00161895
-0.00178107
0.00164834
-0.000946406
0.00164793
-0.000199291
0.00161935
0.00047836
0.00155195
0.00102425
0.00146095
0.00133167
0.00134059
0.00145229
0.00117091
0.00143905
0.000931653
0.00133362
0.000611318
0.00117385
0.00021486
0.000996495
-0.000221416
0.000835409
-0.000661762
0.000729083
-0.00108315
0.000685447
-0.00147003
0.000690668
-0.00182127
0.000720028
-0.00214255
0.000741921
-0.00244112
0.000744175
-0.00272503
0.000732867
-0.00299653
0.000719373
-0.00324256
0.000692437
0.000611519
1.59339e-05
-0.0156056
-0.000437463
-0.0132873
-0.00108701
-0.010367
-0.00174305
-0.00808177
-0.00237422
-0.00621389
-0.00294892
-0.00468693
-0.00345091
-0.00341891
-0.00387734
-0.00234403
-0.00425333
-0.00140508
-0.00463488
-0.000564856
-0.00501045
0.000176278
-0.00529979
0.000767703
-0.00548909
0.00121355
-0.00568785
0.00153043
-0.00593483
0.00169927
-0.0062389
0.00174312
-0.00659709
0.0016918
-0.00699874
0.0015755
-0.00742933
0.00142709
-0.0078753
0.00128137
-0.00831567
0.00116945
-0.0087322
0.00110198
-0.00910958
0.00106805
-0.00943629
0.00104673
-0.00971257
0.0010182
-0.00994601
0.000977614
-0.0101473
0.000934174
-0.0103231
0.000895143
-0.010476
0.000845378
0.000780153
-0.000941098
-0.0146645
-0.00241093
-0.0118175
-0.00392523
-0.00885273
-0.005393
-0.006614
-0.00674008
-0.00486682
-0.00794643
-0.00348057
-0.00900606
-0.00235928
-0.00992256
-0.00142753
-0.0107142
-0.000613401
-0.0113764
9.7309e-05
-0.0118522
0.000652115
-0.0121879
0.00110334
-0.0124651
0.00149075
-0.0127172
0.00178252
-0.01298
0.00196215
-0.0132708
0.00203388
-0.0135915
0.0020125
-0.0139376
0.00192157
-0.0143033
0.00179282
-0.0146828
0.00166084
-0.0150652
0.00155189
-0.0154353
0.00147208
-0.0157752
0.00140796
-0.0160682
0.0013397
-0.0163063
0.00125632
-0.0164934
0.0011647
-0.0166412
0.00108198
-0.0167622
0.00101615
-0.0168735
0.000956689
0.000912469
-0.00206359
-0.012601
-0.00455232
-0.00932873
-0.00702801
-0.00637705
-0.00931682
-0.00432519
-0.0113355
-0.00284809
-0.0130729
-0.00174326
-0.0145452
-0.00088695
-0.0157733
-0.000199404
-0.0167343
0.000347562
-0.0174225
0.00078551
-0.0179333
0.0011629
-0.0183406
0.00151072
-0.0186637
0.00181386
-0.0189351
0.00205384
-0.0191891
0.00221622
-0.0194488
0.00229356
-0.0197233
0.00228701
-0.0200134
0.00221162
-0.0203178
0.00209724
-0.0206356
0.00197867
-0.0209628
0.00187904
-0.0212886
0.0017979
-0.0215953
0.00171461
-0.021862
0.00160646
-0.0220747
0.00146903
-0.022233
0.00132301
-0.0223491
0.00119804
-0.0224403
0.0011073
-0.0225284
0.00104486
0.0010181
-0.0034018
-0.00919916
-0.00705587
-0.00567466
-0.0105386
-0.00289434
-0.0136005
-0.00126324
-0.0161903
-0.000258296
-0.0182798
0.0003462
-0.0198937
0.000726965
-0.0210986
0.00100549
-0.0219998
0.0012488
-0.0227038
0.00148952
-0.0232686
0.00172761
-0.0237129
0.00195502
-0.0240589
0.00215993
-0.0243382
0.00233307
-0.0245853
0.00246339
-0.0248262
0.00253444
-0.0250719
0.00253271
-0.0253236
0.00246331
-0.0255817
0.00235532
-0.0258502
0.00224719
-0.0261326
0.00216147
-0.0264242
0.00208949
-0.0267079
0.00199829
-0.0269582
0.0018568
-0.0271539
0.00166473
-0.0272904
0.00145953
-0.027382
0.00128956
-0.0274513
0.00117667
-0.0275212
0.00111471
0.00110107
-0.00523761
-0.00396155
-0.0107543
-0.000158003
-0.0151608
0.0015122
-0.0185661
0.00214203
-0.0211194
0.00229498
-0.0230439
0.00227073
-0.0245374
0.00222051
-0.0257154
0.00218342
-0.0266459
0.00217936
-0.0273811
0.00222466
-0.0279639
0.00231045
-0.0284202
0.00241129
-0.028771
0.00251074
-0.029047
0.00260909
-0.0292858
0.00270219
-0.0295157
0.00276434
-0.0297458
0.00276282
-0.0299725
0.00268998
-0.0301946
0.00257743
-0.0304217
0.0024743
-0.0306671
0.00240691
-0.0309338
0.00235612
-0.031205
0.0022695
-0.0314484
0.00210021
-0.0316328
0.00184914
-0.0317489
0.00157562
-0.0318155
0.00135622
-0.0318638
0.00122488
-0.0319162
0.00116713
0.0011635
-0.00795557
0.00399402
-0.0144392
0.00632567
-0.0191191
0.00619208
-0.0226068
0.00562971
-0.0252346
0.00492278
-0.0272229
0.00425907
-0.0287452
0.00374275
-0.0299233
0.00336154
-0.0308354
0.00309152
-0.031548
0.0029372
-0.0321145
0.00287701
-0.0325606
0.00285731
-0.0328983
0.00284844
-0.0331557
0.00286651
-0.0333777
0.00292424
-0.0335984
0.00298505
-0.0338218
0.00298617
-0.0340325
0.00290069
-0.0342234
0.00276837
-0.0344109
0.00266171
-0.0346223
0.00261832
-0.0348711
0.00260491
-0.0351404
0.00253883
-0.0353871
0.00234693
-0.0355654
0.00202743
-0.0356591
0.00166931
-0.0356954
0.00139255
-0.0357191
0.00124859
-0.0357542
0.00120222
0.0012073
-0.00999565
0.0139897
-0.0177297
0.0140597
-0.0231022
0.0115645
-0.0267982
0.00932571
-0.0294227
0.0075473
-0.0313046
0.00614103
-0.0327114
0.00514949
-0.0337985
0.00444868
-0.0346243
0.00391734
-0.0352584
0.00357129
-0.0357736
0.00339217
-0.0361918
0.00327555
-0.0365007
0.00315728
-0.0367192
0.00308507
-0.0369091
0.00311415
-0.0371187
0.00319462
-0.0373436
0.00321107
-0.0375463
0.00310335
-0.037706
0.00292808
-0.0378481
0.00280384
-0.0380227
0.00279289
-0.0382587
0.0028409
-0.0385378
0.002818
-0.0388005
0.00260964
-0.0389787
0.00220557
-0.039045
0.00173564
-0.0390401
0.00138761
-0.0390326
0.00124113
-0.0390515
0.00122114
0.00123575
-0.0132506
0.0272403
-0.0228255
0.0236346
-0.0282346
0.0169736
-0.0315067
0.0125979
-0.033821
0.00986151
-0.0353444
0.00766452
-0.0364441
0.00624915
-0.0373478
0.00535234
-0.0380268
0.00459632
-0.0385228
0.00406733
-0.0389521
0.00382144
-0.0393369
0.00366039
-0.0396069
0.00342729
-0.0397578
0.003236
-0.0398889
0.00324516
-0.0400827
0.00338843
-0.0403221
0.00345048
-0.0405279
0.00330918
-0.0406522
0.00305241
-0.040734
0.00288556
-0.0408613
0.00292019
-0.0410877
0.00306738
-0.041391
0.0031213
-0.0416865
0.00290514
-0.0418726
0.00239164
-0.0419031
0.00176611
-0.0418381
0.00132262
-0.0417882
0.00119126
-0.0417952
0.00122815
0.00125694
-0.0188602
0.0461005
-0.0304759
0.0352503
-0.0352208
0.0217185
-0.0368357
0.0142128
-0.0385034
0.0115292
-0.0392831
0.00844429
-0.0397953
0.00676129
-0.0405092
0.00606627
-0.0410586
0.00514573
-0.0413375
0.00434624
-0.0416223
0.00410619
-0.0419771
0.00401523
-0.0422079
0.00365807
-0.0422518
0.00327994
-0.0422798
0.0032731
-0.0424547
0.00356332
-0.0427353
0.0037311
-0.0429654
0.00353927
-0.0430446
0.00313166
-0.0430344
0.00287529
-0.0430911
0.00297693
-0.0433086
0.00328493
-0.0436539
0.00346658
-0.0440047
0.00325588
-0.04421
0.00259702
-0.0441913
0.00174734
-0.0440349
0.00116623
-0.0439235
0.00107982
-0.0439289
0.00123358
0.00129112
0.207447
0.00576037
0.207034
0.0111754
0.206432
0.0163504
0.205647
0.0213685
0.204688
0.0262947
0.203561
0.0311831
0.202271
0.0360812
0.200826
0.0410308
0.199229
0.046069
0.197488
0.0512288
0.195607
0.0565405
0.193592
0.0620324
0.191449
0.0677319
0.189182
0.0736663
0.186796
0.0798643
0.184296
0.0863572
0.181684
0.0931808
0.178962
0.100378
0.176131
0.108003
0.173188
0.116125
0.170129
0.124835
0.166949
0.134258
0.163643
0.144564
0.160213
0.155998
0.156678
0.168912
0.153134
0.183836
0.149941
0.201564
0.148769
0.223013
0.160384
0.245672
0.258898
0.235686
0.21249
0.00595278
0.212118
0.0115482
0.211574
0.0168939
0.210868
0.0220744
0.210008
0.0271551
0.209
0.0321905
0.207853
0.0372282
0.206574
0.04231
0.205171
0.0474726
0.203651
0.0527488
0.202023
0.0581684
0.200296
0.0637592
0.19848
0.0695479
0.196585
0.075561
0.194623
0.081826
0.192608
0.0883731
0.190552
0.0952364
0.188474
0.102456
0.186395
0.110082
0.184344
0.118177
0.182359
0.126819
0.180504
0.136114
0.178875
0.146193
0.177644
0.157229
0.177131
0.169424
0.17799
0.182977
0.181631
0.197923
0.190652
0.213992
0.206056
0.230268
0.245836
0.219118
0.217658
0.00612271
0.217329
0.0118772
0.21685
0.0173725
0.21623
0.0226941
0.215478
0.0279074
0.214601
0.0330671
0.213609
0.0382203
0.212511
0.0434085
0.211316
0.0486679
0.210034
0.0540303
0.208678
0.0595245
0.20726
0.0651772
0.205794
0.0710135
0.204297
0.0770579
0.202788
0.0833358
0.201287
0.089874
0.199821
0.096702
0.198423
0.103854
0.197135
0.111371
0.196012
0.119299
0.195133
0.127699
0.19461
0.136636
0.194614
0.14619
0.195407
0.156436
0.1974
0.167432
0.201201
0.179176
0.207582
0.191542
0.217204
0.20437
0.229795
0.217677
0.228889
0.246743
0.222951
0.00626815
0.22267
0.0121584
0.222262
0.0177807
0.221736
0.0232203
0.2211
0.0285429
0.220365
0.0338025
0.219539
0.0390458
0.218634
0.0443134
0.217662
0.0496404
0.216634
0.0550575
0.215567
0.0605918
0.214476
0.0662682
0.21338
0.0721094
0.212301
0.0781372
0.211264
0.084373
0.210299
0.0908389
0.209443
0.0975581
0.208741
0.104556
0.208253
0.111859
0.208054
0.119498
0.208248
0.127505
0.208974
0.135911
0.210425
0.144738
0.212865
0.153996
0.21664
0.163657
0.222171
0.173645
0.229907
0.183806
0.240422
0.193855
0.254636
0.203464
0.210381
0.273143
0.228374
0.00638725
0.228144
0.0123884
0.227812
0.0181132
0.227386
0.0236465
0.226875
0.0290536
0.22629
0.0343876
0.225641
0.0396943
0.224942
0.045013
0.224205
0.0503776
0.223445
0.0558169
0.222681
0.0613562
0.221931
0.0670176
0.22122
0.0728211
0.220572
0.0787847
0.22002
0.0849251
0.219601
0.0912584
0.219359
0.0977998
0.21935
0.104564
0.219644
0.111565
0.220329
0.118813
0.221518
0.126317
0.223354
0.134074
0.226025
0.142068
0.229759
0.150261
0.234839
0.158577
0.241592
0.166892
0.250398
0.175
0.261705
0.182547
0.275988
0.189181
0.193814
0.292556
0.233929
0.00647832
0.233754
0.0125639
0.233502
0.0183653
0.233182
0.0239668
0.232803
0.0294323
0.232376
0.034814
0.231914
0.0401565
0.23143
0.0454974
0.230938
0.0508689
0.230458
0.0562977
0.230007
0.0618067
0.229609
0.0674152
0.229291
0.0731395
0.229082
0.0789934
0.229019
0.0849884
0.229144
0.0911338
0.229507
0.0974367
0.23017
0.103901
0.231207
0.110528
0.232709
0.117311
0.234789
0.124237
0.237582
0.13128
0.241253
0.138398
0.245994
0.14552
0.252025
0.152546
0.25959
0.159327
0.268931
0.165659
0.280228
0.17125
0.293579
0.17583
0.178884
0.308509
0.23962
0.00653988
0.239502
0.0126819
0.239334
0.0185331
0.239125
0.0241758
0.238884
0.0296729
0.238623
0.035075
0.238355
0.0404249
0.238094
0.0457588
0.237856
0.0511064
0.237662
0.0564923
0.237532
0.0619366
0.237492
0.0674553
0.23757
0.0730611
0.2378
0.0787631
0.238221
0.0845675
0.238878
0.0904771
0.239824
0.0964908
0.241122
0.102603
0.242846
0.108803
0.245085
0.115072
0.247942
0.121381
0.251535
0.127687
0.256001
0.133931
0.26149
0.140032
0.268157
0.145879
0.276155
0.15133
0.285602
0.156211
0.296545
0.160307
0.308975
0.1634
0.165225
0.322635
0.245448
0.00657066
0.24539
0.0127402
0.24531
0.0186129
0.245217
0.0242693
0.245119
0.0297703
0.245029
0.0351649
0.24496
0.040494
0.244928
0.0457914
0.244949
0.0510848
0.245045
0.0563962
0.245239
0.0617427
0.245558
0.0671372
0.24603
0.0725882
0.246693
0.0781007
0.247585
0.0836754
0.248753
0.0893093
0.250249
0.0949942
0.252136
0.100717
0.254482
0.106457
0.257368
0.112186
0.260883
0.117865
0.265126
0.123444
0.270201
0.128856
0.276215
0.134018
0.283268
0.138825
0.291442
0.143156
0.300784
0.146869
0.311284
0.149807
0.322874
0.15181
0.152746
0.335353
0.251418
0.00656965
0.251422
0.0127366
0.251432
0.0186021
0.251458
0.024244
0.251507
0.0297209
0.251592
0.03508
0.251726
0.0403597
0.251926
0.0455919
0.252209
0.0508017
0.252597
0.0560084
0.253113
0.0612262
0.253786
0.0664646
0.254646
0.0717286
0.255727
0.077019
0.257071
0.082332
0.258721
0.0876593
0.260728
0.0929871
0.263148
0.098296
0.266046
0.10356
0.269487
0.108744
0.273547
0.113806
0.278301
0.11869
0.283825
0.123332
0.290189
0.127654
0.297448
0.131566
0.305638
0.134966
0.314761
0.137747
0.32477
0.139798
0.335567
0.141013
0.141332
0.346981
0.257532
0.00653609
0.257599
0.0126699
0.257702
0.0184988
0.257849
0.0240975
0.258048
0.0295223
0.25831
0.0348179
0.258649
0.0400205
0.259081
0.0451595
0.259625
0.0502575
0.260303
0.0553311
0.261137
0.0603918
0.262156
0.0654459
0.263389
0.0704952
0.264871
0.0755368
0.26664
0.080563
0.268738
0.0855616
0.27121
0.0905147
0.274107
0.095399
0.277482
0.100185
0.281391
0.104835
0.285891
0.109306
0.291036
0.113545
0.296878
0.117491
0.303455
0.121077
0.310792
0.124228
0.318892
0.126866
0.327727
0.128912
0.337233
0.130292
0.347306
0.13094
0.130835
0.357803
0.263794
0.00646951
0.263925
0.0125391
0.264122
0.0183018
0.264391
0.0238287
0.26474
0.0291735
0.265179
0.0343781
0.265723
0.0394766
0.266387
0.0444957
0.267189
0.0494555
0.26815
0.0543701
0.269294
0.0592483
0.270646
0.0640937
0.272236
0.0689052
0.274096
0.073677
0.27626
0.0783986
0.278767
0.0830548
0.281656
0.0876254
0.28497
0.0920848
0.288753
0.0964024
0.293046
0.100542
0.297892
0.10446
0.303327
0.10811
0.309379
0.111439
0.316066
0.11439
0.32339
0.116905
0.331332
0.118925
0.339848
0.120395
0.348869
0.12127
0.358297
0.121512
0.121121
0.368011
0.270207
0.00636975
0.270402
0.012344
0.270693
0.0180108
0.271084
0.0234375
0.271583
0.0286747
0.272199
0.0337619
0.272945
0.0387303
0.273837
0.0436043
0.274891
0.0484015
0.276127
0.0531338
0.277568
0.0578074
0.279238
0.0624237
0.281164
0.0669793
0.283375
0.0714662
0.285901
0.0758719
0.288776
0.0801797
0.292034
0.0843682
0.295707
0.0884116
0.299829
0.0922798
0.304433
0.0959385
0.309543
0.0993494
0.315182
0.102471
0.321362
0.105259
0.328083
0.107669
0.335331
0.109657
0.343075
0.11118
0.351266
0.112205
0.359834
0.112702
0.36869
0.112656
0.112078
0.377734
0.276774
0.00623689
0.277033
0.0120848
0.277417
0.0176264
0.27793
0.0229249
0.278577
0.0280279
0.279367
0.0329719
0.280311
0.0377858
0.281424
0.0424913
0.282722
0.047104
0.284222
0.0516333
0.285946
0.0560838
0.287915
0.0604546
0.290153
0.0647409
0.292687
0.0689331
0.295541
0.0730179
0.298743
0.0769777
0.302319
0.0807914
0.306297
0.0844342
0.310699
0.0878781
0.315545
0.0910921
0.320851
0.0940432
0.326625
0.0966965
0.332868
0.099017
0.339566
0.10097
0.346698
0.102525
0.354226
0.103652
0.362098
0.104332
0.37025
0.104551
0.378602
0.104304
0.103609
0.387071
0.283498
0.00607134
0.283821
0.0117623
0.284297
0.0171498
0.284929
0.022293
0.285721
0.0272359
0.286681
0.0320125
0.287817
0.0366489
0.289144
0.0411646
0.290675
0.0455731
0.292426
0.049882
0.294416
0.054094
0.296664
0.0582071
0.29919
0.0622151
0.302015
0.0661078
0.305161
0.0698717
0.308649
0.0734894
0.3125
0.076941
0.31673
0.0802036
0.321356
0.0832522
0.326388
0.0860599
0.331832
0.0885991
0.337687
0.090842
0.343942
0.0927614
0.35058
0.0943326
0.357571
0.0955337
0.364876
0.096348
0.372444
0.0967643
0.380216
0.096779
0.388124
0.0963954
0.0956341
0.396098
0.290384
0.00587371
0.290769
0.0113777
0.291335
0.0165832
0.292083
0.0215447
0.293016
0.026303
0.29414
0.0308892
0.295461
0.035327
0.296992
0.0396338
0.298744
0.043821
0.300732
0.0478948
0.302969
0.0518564
0.305473
0.055703
0.308261
0.0594278
0.311348
0.0630206
0.314751
0.066468
0.318487
0.0697539
0.322568
0.07286
0.327006
0.075766
0.331808
0.0784502
0.336977
0.0808905
0.342512
0.0830644
0.348403
0.0849504
0.354636
0.0865288
0.361186
0.0877823
0.368023
0.0886974
0.375105
0.0892652
0.382388
0.0894821
0.389816
0.0893504
0.397333
0.0888785
0.0880875
0.40488
0.297435
0.00564489
0.297879
0.0109329
0.298534
0.0159291
0.299394
0.0206838
0.300463
0.0252343
0.301743
0.0296089
0.303242
0.0338289
0.304966
0.0379097
0.306926
0.041861
0.309133
0.0456877
0.311599
0.0493901
0.314337
0.0529649
0.31736
0.0564052
0.320679
0.059701
0.324308
0.0628399
0.328254
0.0658074
0.332527
0.0685872
0.337131
0.0711619
0.342068
0.0735136
0.347334
0.0756242
0.352922
0.0774766
0.358817
0.0790547
0.365001
0.0803449
0.371447
0.0813363
0.378123
0.0820215
0.384991
0.0823973
0.392008
0.0824652
0.399127
0.0822315
0.406298
0.0817072
0.080913
0.413473
0.304654
0.00538593
0.305157
0.0104299
0.305895
0.0151909
0.306864
0.0197149
0.308063
0.0240357
0.309493
0.0281791
0.311158
0.0321639
0.313063
0.0360038
0.315217
0.039707
0.317628
0.0432774
0.320303
0.0467147
0.323253
0.0500153
0.326485
0.0531725
0.330009
0.0561773
0.333831
0.0590183
0.337955
0.0616829
0.342385
0.0641571
0.34712
0.0664266
0.352157
0.0684769
0.357487
0.070294
0.363099
0.0718652
0.368974
0.0731793
0.375091
0.0742275
0.381424
0.0750039
0.38794
0.0755056
0.394603
0.0757336
0.401376
0.0756926
0.408216
0.0753913
0.415082
0.0748417
0.0740635
0.421931
0.312046
0.00509805
0.312605
0.00987102
0.313424
0.0143722
0.314496
0.0186429
0.315817
0.0227139
0.317388
0.0266081
0.31921
0.0303423
0.321285
0.0339285
0.323619
0.0373737
0.326215
0.0406808
0.329081
0.0438494
0.33222
0.0468758
0.335639
0.0497539
0.33934
0.0524756
0.343328
0.0550312
0.347601
0.0574097
0.352158
0.0595998
0.356995
0.0615898
0.362103
0.0633686
0.367471
0.0649258
0.373084
0.0662524
0.378922
0.0673412
0.384962
0.0681874
0.391178
0.0687886
0.397538
0.0691454
0.40401
0.0692614
0.410559
0.0691433
0.41715
0.068801
0.423745
0.0682467
0.0674987
0.430309
0.319615
0.00478258
0.320227
0.00925901
0.321122
0.0134769
0.322292
0.0174733
0.32373
0.0212757
0.325434
0.0249045
0.327402
0.0283745
0.329634
0.0316961
0.332132
0.0348752
0.334899
0.0379143
0.337936
0.0408126
0.341245
0.0435669
0.344827
0.0461716
0.348683
0.0486198
0.352811
0.0509033
0.357207
0.0530132
0.361867
0.0549403
0.366781
0.0566757
0.371938
0.058211
0.377325
0.059539
0.382924
0.0606538
0.388713
0.0615514
0.394671
0.0622298
0.40077
0.0626895
0.406982
0.0629332
0.413278
0.0629662
0.419625
0.0627964
0.425992
0.0624338
0.432348
0.0618906
0.0611832
0.438663
0.327365
0.00444087
0.328028
0.00859649
0.328995
0.0125091
0.330257
0.0162115
0.331805
0.0197282
0.333632
0.023077
0.335736
0.0262709
0.338113
0.0293187
0.340763
0.0322256
0.343684
0.0349935
0.346875
0.0376217
0.350334
0.0401072
0.35406
0.0424455
0.35805
0.0446307
0.362297
0.0466561
0.366795
0.0485147
0.371536
0.0501993
0.376509
0.0517034