# vtk DataFile Version 4.2
vtk output
ASCII
DATASET STRUCTURED_POINTS
DIMENSIONS 102 2 2
SPACING 0.1 0 0
ORIGIN 0 0 0
CELL_DATA 101
FIELD FieldData 3
velocity 1 101 double
10.927050983 11.006150694 11.083168848 11.15872458 11.232057521 11.303907357 11.373436039 11.441437782 11.50705435 
11.571084241 11.632691725 11.692643186 11.750155349 11.805937822 11.859279153 11.910817136 11.959922994 12.007155328 
12.051972243 12.09485168 12.135337847 12.173830914 12.209956852 12.244043992 12.275793376 12.305469339 12.332839937 
12.358114368 12.381119054 12.40201721 12.420684977 12.437248496 12.451625405 12.463913062 12.47406306 12.482151417 
12.488156968 12.492140858 12.494103323 12.494096111 12.492135852 12.488269413 12.482525574 12.474949971 12.46557994 
12.454462774 12.441641303 12.427166738 12.411084743 12.393452218 12.374315282 12.353737931 12.331764529 12.308467343 
12.283886842 12.258104622 12.23115509 12.203130227 12.174056111 12.144036262 12.113085976 12.081321672 12.048745164 
12.01548741 11.981533743 11.947031672 11.911946677 11.876445284 11.84046933 11.804207345 11.767573264 11.730781193 
11.693712393 11.656610758 11.619319552 11.582117351 11.54480353 11.507696931 11.47054658 11.433717861 11.396902448 
11.360519173 11.324194891 11.288409327 11.252716705 11.217665457 11.182729227 11.148533077 11.114462283 11.081226207 
11.04811455 11.015927891 10.983854301 10.952791056 10.921820458 10.891939661 10.862123949 10.833470099 10.804849282 
10.777452795 10.750056308 
pressure 1 101 double
86.431551352 93.747982158 101.06441296 108.03921803 114.99791319 121.62114939 128.20902609 134.47137598 140.67752863 
146.57036241 152.38581819 157.90126021 163.31875667 168.4497517 173.46354586 178.20392456 182.80963958 187.15418506 
191.34869763 195.29321587 199.07458482 202.61598088 205.98341505 209.1197756 212.07363699 214.8043182 217.34615449 
219.67187256 221.80447194 223.72739238 225.45485269 226.978674 228.30647751 229.43650435 230.37159007 231.11479146 
231.66561704 232.03066515 232.20725187 232.2045381 232.01849325 231.66011872 231.12463149 230.42437042 229.5541787 
228.52741368 227.33874083 226.00237048 224.51283219 222.88515228 221.11363517 219.21419552 217.18070984 215.03014975 
212.75565969 210.37552551 207.88176091 205.29430978 202.60356383 199.83155779 196.96647528 194.03297049 191.01633132 
187.94446658 184.79896923 181.61175841 178.35980781 175.07994009 171.74344398 168.39309565 164.99327313 161.59393414 
158.15113961 154.72345754 151.25702278 147.82066614 144.34876267 140.9223048 137.46182833 134.06265265 130.62913062 
127.27335704 123.88088014 120.5833119 117.24448989 114.01857937 110.74452141 107.60235273 104.40267221 101.35495791 
98.237801618 95.293890025 92.265991774 89.433881213 86.500639859 83.786995268 80.952577664 78.362744735 75.630214253 
73.168225853 70.539697575 
crossSection 1 101 double
1.00982456 1.0106628486 1.0115021813 1.012303297 1.0131035112 1.013866031 1.0146253342 1.015347909 1.0160647614 
1.0167461262 1.0174192162 1.0180581999 1.0186864225 1.0192819582 1.0198643955 1.0204155301 1.0209514363 1.0214573406 
1.0219461311 1.0224061097 1.0228473547 1.0232608565 1.0236542788 1.0240209085 1.0243663848 1.024685914 1.0249834801 
1.0252558593 1.0255057166 1.0257310861 1.0259336107 1.0261123107 1.0262680617 1.0264006414 1.0265103692 1.0265975928 
1.0266622461 1.026705097 1.0267258264 1.0267255079 1.0267036681 1.0266616007 1.0265987478 1.0265165632 1.0264144489 
1.0262939809 1.026154543 1.0259978133 1.0258231623 1.025632365 1.0254247676 1.0252022493 1.024964108 1.0247123463 
1.0244461773 1.0241677565 1.0238761653 1.0235737511 1.0232594062 1.0229357196 1.0226013258 1.022259116 1.0219073873 
1.021549406 1.0211830388 1.0208120141 1.0204336613 1.0200522735 1.0196645202 1.0192753795 1.0188807201 1.0184863459 
1.0180871636 1.0176899666 1.0172885154 1.0168907819 1.016489171 1.0160930502 1.0156932316 1.0153007253 1.014904484 
1.0145174392 1.0141263862 1.01374649 1.0133620586 1.0129908355 1.0126142803 1.0122530914 1.0118854901 1.0115355339 
1.0111777917 1.0108401063 1.0104929635 1.0101684292 1.0098324711 1.0095218136 1.0091974831 1.008901276 1.0085888895 
1.008307556 1.0080073218 
