# vtk DataFile Version 4.2
vtk output
ASCII
DATASET STRUCTURED_POINTS
DIMENSIONS 102 2 2
SPACING 0.1 0 0
ORIGIN 0 0 0
CELL_DATA 101
FIELD FieldData 3
velocity 1 101 double
7.1468304511 7.1896231694 7.2360294922 7.2833450498 7.3339223595 7.3854395412 7.4398718139 7.4952589439 7.5532244589 
7.6121427383 7.6733163704 7.7354229802 7.7994782822 7.8644292166 7.9310402945 7.9984928994 8.0673360892 8.1369512929 
8.2077066495 8.2791508819 8.3515034923 8.4244503001 8.4980914327 8.5722228042 8.6468509044 8.721858326 8.7971798699 
8.8727651381 8.9484953533 9.0243711701 9.1002346327 9.1761250151 9.2518561316 9.3274966614 9.4028400459 9.4779779897 
9.5526887448 9.6270830663 9.700926979 9.7743482684 9.8471019315 9.9193322712 9.9907831391 10.061615922 10.131562315 
10.200802033 10.269053096 10.336515103 10.402890736 10.468401009 10.532731772 10.59612666 10.658253663 10.719379649 
10.779154444 10.83786791 10.895152374 10.951319387 11.005985618 11.059481727 11.111411951 11.162122005 11.211208499 
11.259026492 11.30517152 11.350000455 11.39311623 11.434868006 11.474876662 11.513471997 11.550305582 11.585673952 
11.619274433 11.651354046 11.681673329 11.710411121 11.737411075 11.762762737 11.786415217 11.80834525 11.828632119 
11.847113918 11.864027052 11.87904302 11.892584295 11.904125984 11.914307232 11.922375514 11.929218443 11.933823713 
11.937359775 11.938522188 11.938792392 11.936542122 11.933596782 11.927974319 11.921872726 11.912929199 11.903739209 
11.891536743 11.879334277 
pressure 1 101 double
-273.67069474 -269.33257186 -264.99444898 -260.25498663 -255.4873964 -250.37562153 -245.21300485 -239.75875914 -234.23625171 
-228.46995602 -222.62303414 -216.57546766 -210.43962793 -204.1417227 -197.75219855 -191.23484954 -184.62636608 -177.92025672 
-171.12682389 -164.26226695 -157.31701002 -150.32380358 -143.25882861 -136.16612729 -129.0124187 -121.84861979 -114.63596661 
-107.42861129 -100.18555818 -92.961247533 -85.715066863 -78.499392524 -71.276073581 -64.093562665 -56.917814637 -49.791888288 
-42.68715377 -35.640098611 -28.628574887 -21.68152645 -14.784192138 -7.9571292385 -1.193774265 5.4944767642 12.105219558 
18.636971969 25.077594913 31.43628118 37.690370634 43.860515797 49.91272268 55.879912455 61.715925182 67.466769824 
73.073290241 78.595385088 83.960107859 89.241991392 94.353587183 99.384697345 104.23280011 109.00342953 113.57862811 
118.07987879 122.37371303 126.59745103 130.60241236 134.54122304 138.25075959 141.89790383 145.30642981 148.65580191 
151.75871101 154.80479865 157.59848106 160.33632809 162.81819051 165.24336324 167.41185103 169.52040892 171.37502953 
173.16350111 174.70484738 176.17021267 177.39998472 178.53966514 179.46068906 180.2725464 180.88878777 181.37113352 
181.6877036 181.83932042 181.86247261 181.6826494 181.41976329 180.90834571 180.36789611 179.52535409 178.71686212 
177.54437608 176.47833953 
crossSection 1 101 double
0.9698203249 0.97028800714 0.97075602775 0.97126773425 0.97178288595 0.97233568322 0.9728944575 0.97348531957 0.97408412507 
0.97470995434 0.9753451502 0.97600279707 0.9766707233 0.97735700471 0.97805400929 0.97876572613 0.97948818868 0.98022214207 
0.98096649408 0.98171950066 0.98248224234 0.98325114842 0.98402886243 0.98481055708 0.98559991928 0.98639134633 0.98718913403 
0.98798730292 0.98879040073 0.98959239622 0.99039780014 0.99120079076 0.99200561062 0.99280685599 0.9936083167 0.99440517361 
0.99520061545 0.99599054276 0.99677742099 0.99755798343 0.99833386745 0.99910273837 0.99986531061 1.0006202737 1.0013673284 
1.0021062786 1.0028357203 1.0035566638 1.0042665069 1.0049675604 1.0056559273 1.006335317 1.0070004379 1.0076564976 
1.00829671 1.0089278785 1.0095416272 1.010146446 1.0107322832 1.0113093938 1.0118659796 1.0124141198 1.0129402237 
1.0134582246 1.0139527266 1.014439509 1.0149014015 1.0153559726 1.0157843629 1.0162058122 1.016599925 1.0169874214 
1.0173466017 1.0176993897 1.0180231063 1.0183405028 1.0186283516 1.0189097433 1.0191614508 1.0194062913 1.0196217182 
1.0198295261 1.0200086708 1.0201790283 1.0203220295 1.0204545816 1.0205617213 1.0206561761 1.0207278808 1.020784011 
1.0208208525 1.020838498 1.0208411925 1.0208202643 1.0207896703 1.0207301567 1.0206672703 1.0205692442 1.020475193 
1.0203388217 1.0202148553 
