# vtk DataFile Version 4.2
vtk output
ASCII
DATASET STRUCTURED_POINTS
DIMENSIONS 102 2 2
SPACING 0.1 0 0
ORIGIN 0 0 0
CELL_DATA 101
FIELD FieldData 3
velocity 1 101 double
10 10.088916083 10.17679979 10.263508674 10.348935387 10.433186299 10.515954656 10.597518135 10.677441144 
10.756108241 10.833012611 10.908593935 10.982319552 11.054644229 11.12504375 11.193958341 11.260896871 11.326264314 
11.389619124 11.451317724 11.510978002 11.568900495 11.624767118 11.678819822 11.730805136 11.780907211 11.828934811 
11.875017611 11.91902214 11.961028665 12.000955612 12.038840061 12.07464558 12.108372976 12.140023721 12.169569629 
12.197042608 12.222392914 12.245675371 12.266826123 12.285915444 12.30287275 12.317776393 12.330556361 12.341291818 
12.349920532 12.356515314 12.361028838 12.36352048 12.36396489 12.36240098 12.358832401 12.353270618 12.345755276 
12.336263444 12.324877711 12.311533852 12.296364286 12.279256675 12.26040004 12.239627256 12.217190515 12.192861469 
12.16696175 12.139195698 12.109960213 12.078886743 12.046452654 12.012211632 11.976725865 11.939467349 11.901086333 
11.860970437 11.819859775 11.77705648 11.733390536 11.688079447 11.642040846 11.594410886 11.546189923 11.49643897 
11.446232923 11.394567375 11.342579723 11.289213998 11.235653541 11.180809514 11.125889399 11.069795768 11.013732428 
10.956624021 10.89963603 10.841753046 10.784059901 10.725647095 10.667467948 10.608773752 10.550326092 10.491601686 
10.433100009 10.374598332 
pressure 1 101 double
-1.6420306597 6.7204056787 15.082842017 23.213225951 31.340662191 39.221633213 47.091438145 54.706612977 62.298675069 
69.632639868 76.92917637 83.96749523 90.952854089 97.682086037 104.34255004 110.75026834 117.0738686 123.14867798 
129.12502173 134.85657073 140.4766864 145.85567353 151.11187469 156.13004803 161.01581633 165.66596732 170.17585377 
174.45180615 178.58134947 182.47794502 186.22360531 189.7366877 193.09579386 196.22219217 199.19290126 201.9304143 
204.51168126 206.8590638 209.05061995 211.00757164 212.80991069 214.37706821 215.79143868 216.97037128 217.99877426 
218.79198277 219.43717425 219.84809336 220.11359036 220.14659372 220.03668357 219.69709123 219.21684344 218.5109308 
217.66621094 216.60121853 215.39870356 213.98284666 212.43004125 210.6725183 208.7777716 206.68877026 204.4612927 
202.05199245 199.50187203 196.78444198 193.92265954 190.91025034 187.74869336 184.45542185 181.00689638 177.44782163 
173.72606189 169.9171515 165.9368268 161.89491225 157.67163079 153.4143507 148.96466016 144.51039045 139.85177499 
135.21954507 130.3704188 125.5798131 120.55950979 115.63055418 110.45931329 105.41234626 100.11129528 94.966823932 
89.557957214 84.336498497 78.842652691 73.564560739 68.009386912 62.694667863 57.102600277 51.770716425 46.166937815 
40.836603528 35.24700653 
crossSection 1 101 double
0.99981474243 1.0007587481 1.0017040913 1.0026244867 1.0035458169 1.0044404209 1.0053349516 1.0062016776 1.0070668892 
1.0079037475 1.0087373705 1.0095424727 1.0103424704 1.0111140347 1.0118785848 1.0126149411 1.0133424192 1.0140420144 
1.0147309772 1.0153923795 1.0160415509 1.016663453 1.0172717108 1.0178529331 1.0184192984 1.0189587898 1.0194824179 
1.0199792576 1.0204594302 1.0209128272 1.0213489468 1.0217582405 1.0221498253 1.0225144847 1.0228611655 1.0231807886 
1.0234823061 1.0237566193 1.0240128223 1.0242416803 1.0244525248 1.0246359097 1.0248014582 1.02493948 1.0250599015 
1.0251527972 1.0252283674 1.025276502 1.0253076039 1.0253114702 1.0252985944 1.0252588134 1.0252025595 1.0251198807 
1.0250209574 1.024896259 1.0247554856 1.0245897743 1.0244080808 1.0242024916 1.0239809198 1.0237367152 1.0234764189 
1.0231949871 1.0228972325 1.0225800856 1.022246251 1.021895022 1.0215265979 1.0211430366 1.0207416246 1.0203275927 
1.0198949049 1.0194523699 1.018990227 1.0185212547 1.0180315845 1.0175383298 1.0170231651 1.016507862 1.0159693375 
1.0154342873 1.0148746371 1.014322195 1.0137437486 1.0131763087 1.012581488 1.0120014668 1.0113927815 1.0108026002 
1.0101826439 1.009584709 1.0089561547 1.0083528376 1.0077184327 1.0071120482 1.0064746102 1.0058673939 1.0052298052 
1.004623891 1.0039890939 
