/*--------------------------------*- C++ -*----------------------------------*\
| =========                 |                                                 |
| \\      /  F ield         | OpenFOAM: The Open Source CFD Toolbox           |
|  \\    /   O peration     | Version:  5.x                                   |
|   \\  /    A nd           | Web:      www.OpenFOAM.org                      |
|    \\/     M anipulation  |                                                 |
\*---------------------------------------------------------------------------*/
FoamFile
{
    version     2.0;
    format      ascii;
    class       volVectorField;
    location    "0.2";
    object      Force;
}
// * * * * * * * * * * * * * * * * * * * * * * * * * * * * * * * * * * * * * //

dimensions      [1 1 -2 0 0 0 0];

internalField   uniform (0 0 0);

boundaryField
{
    inlet
    {
        type            calculated;
        value           uniform (0 0 0);
    }
    outlet
    {
        type            calculated;
        value           uniform (0 0 0);
    }
    flap
    {
        type            calculated;
        value           nonuniform List<vector> 
33
(
(2.25213 1.46937e-38 -0.0517373)
(2.237 -4.12254e-18 -0.092206)
(2.21449 -3.32278e-22 -0.121549)
(2.18508 0 -0.130791)
(2.15144 3.08096e-18 -0.125153)
(2.11299 2.32945e-18 -0.1083)
(2.06901 8.94047e-19 -0.0832354)
(2.01796 2.49913e-18 -0.0539359)
(1.95656 -1.59337e-18 -0.02402)
(1.87855 1.6081e-18 0.00247448)
(1.7754 8.19036e-23 0.0222108)
(1.63026 -1.33941e-18 0.030751)
(1.41508 -1.61981e-18 0.0340061)
(1.07253 -2.44713e-23 0.0350528)
(0.402688 1.78518e-18 0.020079)
(-0.0473401 -5.38024e-22 1.77648)
(-0.0487716 5.37076e-19 1.5725)
(-0.0349454 1.27027e-22 1.26646)
(1.87619 3.23275e-19 -0.0412047)
(1.88873 1.57714e-18 -0.0784346)
(1.90845 2.33165e-21 -0.104748)
(1.93816 5.87747e-39 -0.11591)
(1.97894 -1.64388e-18 -0.114684)
(2.03388 4.00228e-18 -0.10352)
(2.10282 -2.37532e-18 -0.083956)
(2.18164 1.67534e-18 -0.0576704)
(2.26214 1.67458e-18 -0.02749)
(2.33113 -3.33943e-18 0.00264093)
(2.37508 1.85947e-18 0.0280902)
(2.38661 1.6504e-18 0.0421703)
(2.36415 2.04439e-18 0.0514963)
(2.29985 1.63711e-18 0.0639266)
(2.18666 2.35379e-18 0.0676246)
)
;
    }
    upperWall
    {
        type            calculated;
        value           uniform (0 0 0);
    }
    lowerWall
    {
        type            calculated;
        value           uniform (0 0 0);
    }
    frontAndBack
    {
        type            empty;
    }
}


// ************************************************************************* //
