/*--------------------------------*- C++ -*----------------------------------*\
| =========                 |                                                 |
| \\      /  F ield         | OpenFOAM: The Open Source CFD Toolbox           |
|  \\    /   O peration     | Version:  2006                                  |
|   \\  /    A nd           | Website:  www.openfoam.com                      |
|    \\/     M anipulation  |                                                 |
\*---------------------------------------------------------------------------*/
FoamFile
{
    version     2.0;
    format      ascii;
    class       volVectorField;
    location    "0.2";
    object      Force;
}
// * * * * * * * * * * * * * * * * * * * * * * * * * * * * * * * * * * * * * //

dimensions      [1 1 -2 0 0 0 0];


internalField   uniform (0 0 0);

boundaryField
{
    inlet
    {
        type            calculated;
        value           uniform (0 0 0);
    }
    outlet
    {
        type            calculated;
        value           uniform (0 0 0);
    }
    flap
    {
        type            calculated;
        value           nonuniform List<vector> 
33
(
(2.26109 1.9531e-22 -0.0519299)
(2.24586 2.69706e-21 -0.0925567)
(2.22321 -3.30856e-18 -0.122018)
(2.19366 -1.57786e-19 -0.131301)
(2.15987 3.08728e-18 -0.125648)
(2.12127 -7.18805e-19 -0.108737)
(2.07717 2.50304e-18 -0.0835804)
(2.02601 8.73583e-22 -0.0541695)
(1.96449 -1.60022e-18 -0.0241357)
(1.88634 -1.00762e-20 0.00246688)
(1.78307 -1.51401e-19 0.0222877)
(1.63802 5.27408e-23 0.0308727)
(1.42358 -1.61726e-18 0.034169)
(1.08257 -4.45221e-22 0.035284)
(0.415607 3.58185e-23 0.0203531)
(-0.0471371 4.9073e-22 1.76936)
(-0.0485393 2.63159e-19 1.56518)
(-0.0346202 8.06258e-19 1.25577)
(1.85941 -1.17549e-38 -0.0408155)
(1.87181 -9.57266e-19 -0.0777044)
(1.89144 2.25531e-18 -0.103783)
(1.92115 -1.63063e-18 -0.114863)
(1.96212 -1.64008e-18 -0.113687)
(2.01743 1.73336e-21 -0.10267)
(2.08694 1.66197e-18 -0.083319)
(2.16644 -2.45371e-23 -0.0572734)
(2.24757 -3.83612e-23 -0.0273209)
(2.31693 1.26753e-23 0.0026206)
(2.36088 1.98048e-19 0.0279257)
(2.37212 1.25134e-18 0.041926)
(2.34931 2.04273e-18 0.0511941)
(2.28446 2.02863e-18 0.0635356)
(2.16999 1.63038e-18 0.0671579)
)
;
    }
    upperWall
    {
        type            calculated;
        value           uniform (0 0 0);
    }
    lowerWall
    {
        type            calculated;
        value           uniform (0 0 0);
    }
    frontAndBack
    {
        type            empty;
    }
}


// ************************************************************************* //
