/*--------------------------------*- C++ -*----------------------------------*\
| =========                 |                                                 |
| \\      /  F ield         | OpenFOAM: The Open Source CFD Toolbox           |
|  \\    /   O peration     | Version:  2006                                  |
|   \\  /    A nd           | Website:  www.openfoam.com                      |
|    \\/     M anipulation  |                                                 |
\*---------------------------------------------------------------------------*/
FoamFile
{
    version     2.0;
    format      ascii;
    class       volVectorField;
    location    "0.2";
    object      U;
}
// * * * * * * * * * * * * * * * * * * * * * * * * * * * * * * * * * * * * * //

dimensions      [0 1 -1 0 0 0 0];


internalField   nonuniform List<vector> 
2790
(
(9.9449 0 0.0199844)
(9.87971 -5.22926e-23 0.0284719)
(9.78467 6.08064e-23 0.034275)
(9.66658 0 0.0402119)
(9.53097 0 0.0463565)
(9.37875 0 0.0526255)
(9.20917 -1.37677e-22 0.0591036)
(9.02152 0 0.065891)
(8.81528 2.41091e-21 0.0730472)
(8.58993 -2.4695e-21 0.080604)
(8.34497 0 0.0885836)
(8.07986 -1.37167e-21 0.0970078)
(7.79416 -8.82272e-21 0.105903)
(7.48744 1.2064e-20 0.115304)
(7.15936 0 0.125252)
(6.80964 0 0.135796)
(6.43807 0 0.14698)
(6.04463 1.55331e-20 0.158836)
(5.62951 0 0.171367)
(5.19325 0 0.184532)
(4.73694 -4.83202e-22 0.198227)
(4.26233 4.06745e-20 0.212275)
(3.772 -1.7942e-19 0.226421)
(3.26949 1.90322e-19 0.240356)
(2.75922 4.20112e-19 0.253771)
(2.24635 -6.76259e-19 0.266463)
(1.7349 0 0.278874)
(1.24827 -5.40843e-19 0.287716)
(0.665029 8.71924e-19 0.308796)
(0.424082 9.54834e-19 0.326447)
(9.99941 -7.29343e-24 0.0390402)
(9.98545 -7.40665e-24 0.0590267)
(9.94521 1.21038e-22 0.0740698)
(9.88124 -1.22863e-22 0.0898125)
(9.79757 -4.46181e-22 0.106521)
(9.69503 3.8775e-22 0.12401)
(9.57285 1.21947e-21 0.142478)
(9.43009 -1.10496e-21 0.162186)
(9.2659 0 0.183303)
(9.07942 4.86954e-21 0.205921)
(8.86971 -4.97594e-21 0.230089)
(8.63588 9.34375e-21 0.255832)
(8.37707 -2.48663e-20 0.283157)
(8.09251 5.68053e-21 0.312067)
(7.78153 0 0.342554)
(7.44356 0 0.374596)
(7.0782 0 0.40814)
(6.68521 -1.45906e-20 0.443068)
(6.26461 4.7706e-22 0.47917)
(5.8168 -9.88458e-20 0.516094)
(5.34266 -1.79047e-19 0.553313)
(4.84371 1.5048e-19 0.590092)
(4.32223 -3.30952e-19 0.625488)
(3.78133 3.50067e-19 0.658395)
(3.22491 0 0.68766)
(2.65759 2.07758e-19 0.71229)
(2.08164 1.36667e-18 0.732199)
(1.52191 -2.45854e-18 0.744576)
(0.861092 -4.04817e-18 0.766012)
(0.499603 -1.48576e-18 0.768815)
(9.99648 7.29309e-24 0.0404027)
(9.97944 -4.43258e-23 0.0696644)
(9.94098 2.99779e-23 0.094919)
(9.88141 6.20712e-23 0.121107)
(9.8034 -6.25026e-23 0.148944)
(9.70784 -1.31072e-22 0.178402)
(9.59419 -1.46101e-24 0.209788)
(9.46158 0 0.243498)
(9.30912 1.15363e-21 0.27983)
(9.13584 -1.17519e-21 0.318969)
(8.94069 2.50014e-21 0.361026)
(8.72259 -7.72858e-21 0.406061)
(8.48044 4.03664e-21 0.454102)
(8.21321 -7.02339e-21 0.505155)
(7.9199 0 0.559212)
(7.59962 -1.23037e-20 0.616239)
(7.25155 -1.30815e-20 0.676152)
(6.87501 0 0.738776)
(6.4695 -9.06807e-20 0.803788)
(6.03479 1.88262e-19 0.870655)
(5.57103 -2.72716e-19 0.938564)
(5.07888 2.8462e-19 1.00637)
(4.55964 6.23334e-19 1.07257)
(4.01538 -6.56431e-19 1.13538)
(3.44894 -1.44114e-18 1.19282)
(2.86417 1.53474e-18 1.24301)
(2.26184 4.20484e-19 1.28524)
(1.66998 0 1.31602)
(0.976167 4.96561e-19 1.35161)
(0.548748 -8.19934e-18 1.35904)
(9.9949 -1.45262e-23 0.0456149)
(9.97563 7.35775e-23 0.0854494)
(9.93691 -2.98417e-23 0.121941)
(9.87847 6.11149e-23 0.158711)
(9.80207 -2.49925e-22 0.197102)
(9.70851 2.58507e-22 0.237541)
(9.59746 -5.30549e-22 0.280544)
(9.4682 5.41177e-22 0.326688)
(9.31993 1.12615e-21 0.376451)
(9.15176 -2.33554e-21 0.430176)
(8.96275 3.65812e-21 0.488101)
(8.75186 3.82932e-21 0.550387)
(8.51805 9.88615e-21 0.617144)
(8.26025 2.28364e-20 0.688446)
(7.97742 2.90273e-20 0.764341)
(7.66856 3.08164e-20 0.844844)
(7.33264 1.33388e-20 0.929913)
(6.96872 -2.67487e-20 1.01939)
(6.5759 0 1.11296)
(6.15344 -1.20596e-19 1.21002)
(5.70082 -2.60364e-19 1.30961)
(5.21787 -2.82992e-19 1.41033)
(4.70494 8.67987e-19 1.51029)
(4.16305 -1.57187e-18 1.6071)
(3.59401 9.95886e-19 1.69799)
(3.00109 0 1.78006)
(2.38395 0 1.85154)
(1.77454 -2.98568e-18 1.90732)
(1.06528 3.21936e-18 1.96121)
(0.59249 -2.51707e-19 1.97492)
(9.99416 1.44255e-23 0.0522627)
(9.97369 -1.46636e-23 0.101072)
(9.93478 3.34706e-25 0.147295)
(9.87735 6.14733e-23 0.193653)
(9.8026 8.0589e-25 0.241867)
(9.7111 0 0.292767)
(9.6026 -5.27593e-22 0.347048)
(9.47643 -8.94676e-24 0.405408)
(9.33185 -1.69013e-21 0.468442)
(9.16802 2.29134e-21 0.536601)
(8.98406 -1.21604e-21 0.61021)
(8.77898 -1.2594e-21 0.689498)
(8.5518 -9.04505e-21 0.774638)
(8.3015 -2.4473e-20 0.865767)
(8.02703 -1.99347e-20 0.963002)
(7.72733 2.35967e-20 1.06644)
(7.40129 5.04076e-20 1.17613)
(7.04775 3.30841e-22 1.292)
(6.66555 0 1.41382)
(6.25349 1.37608e-21 1.54104)
(5.81048 -1.21951e-19 1.67269)
(5.33563 0 1.80726)
(4.82837 -2.77861e-19 1.94256)
(4.28875 2.95958e-19 2.07565)
(3.71764 -9.5204e-19 2.20292)
(3.11793 -1.37885e-18 2.32009)
(2.48829 6.17333e-18 2.4237)
(1.86421 -3.52902e-18 2.50607)
(1.14392 0 2.57651)
(0.633505 2.35696e-19 2.58956)
(9.99385 -1.64697e-26 0.0595437)
(9.97288 -4.37365e-23 0.116735)
(9.9342 2.97597e-23 0.172205)
(9.87804 -1.21064e-22 0.228064)
(9.80529 3.68095e-22 0.28608)
(9.71632 0 0.347334)
(9.61086 -5.16406e-22 0.412687)
(9.48831 -1.0627e-21 0.48295)
(9.34798 0 0.558837)
(9.18906 -1.14791e-21 0.64091)
(9.01069 -4.71224e-21 0.729593)
(8.81196 6.07054e-21 0.825203)
(8.59191 9.78159e-21 0.927995)
(8.34952 1.09412e-20 1.03819)
(8.08376 -1.076e-20 1.15601)
(7.7935 -8.06808e-20 1.28166)
(7.47753 -2.40367e-20 1.41532)
(7.1345 -1.00788e-19 1.5571)
(6.76295 5.24912e-20 1.70691)
(6.36128 1.11885e-19 1.86436)
(5.9278 1.81815e-21 2.0286)
(5.46087 0 2.19811)
(4.95899 1.05383e-18 2.37052)
(4.42117 -2.21113e-18 2.54239)
(3.84719 8.74515e-19 2.70915)
(3.23941 -3.10939e-19 2.86484)
(2.5954 -3.39625e-19 3.00355)
(1.95304 0 3.11433)
(1.21747 0 3.2004)
(0.670454 6.72301e-18 3.20557)
(9.99378 0 0.0670623)
(9.97282 -2.90141e-23 0.132319)
(9.93477 8.81835e-23 0.196554)
(9.88017 0 0.261533)
(9.80976 -1.33475e-24 0.328981)
(9.72375 0 0.400169)
(9.62187 1.02946e-21 0.476137)
(9.50358 1.06393e-21 0.557832)
(9.3682 1.62124e-21 0.646082)
(9.215 0 0.741557)
(9.04316 9.23905e-21 0.844772)
(8.85177 -4.80457e-21 0.956128)
(8.63992 -1.983e-20 1.07596)
(8.40662 0 1.20459)
(8.15079 2.69537e-20 1.34234)
(7.87127 3.90567e-20 1.48957)
(7.56672 4.67877e-20 1.64664)
(7.23562 7.52291e-22 1.81388)
(6.87618 -1.53612e-19 1.99145)
(6.48638 3.19372e-19 2.17925)
(6.0639 1.16947e-19 2.37666)
(5.60624 -3.46118e-19 2.58233)
(5.11086 4.95467e-19 2.79388)
(4.57546 -5.12481e-19 3.0075)
(3.99835 2.76497e-19 3.21765)
(3.38081 1.5027e-19 3.41651)
(2.7189 0 3.59514)
(2.05118 2.68994e-18 3.73865)
(1.2902 -2.81085e-18 3.84299)
(0.702661 2.01866e-19 3.83656)
(9.99385 1.42389e-23 0.0745878)
(9.97325 1.44559e-23 0.147643)
(9.9362 -2.90903e-23 0.220189)
(9.88346 1.18198e-22 0.29386)
(9.81572 -2.42453e-22 0.370348)
(9.73311 0 0.451061)
(9.63534 0 0.537204)
(9.52191 0 0.629853)
(9.39222 -3.21857e-21 0.729944)
(9.24556 1.08929e-21 0.838243)
(9.08116 -4.55263e-21 0.955356)
(8.89819 0 1.08177)
(8.69575 2.05741e-20 1.2179)
(8.47288 1.86665e-20 1.36418)
(8.2285 0 1.52108)
(7.9614 -2.17154e-20 1.68912)
(7.67015 -4.43912e-20 1.8689)
(7.35304 8.39348e-22 2.06102)
(7.00802 0 2.26601)
(6.6326 0 2.48414)
(6.22383 2.12608e-19 2.71526)
(5.77826 6.99878e-21 2.95838)
(5.29209 2.36276e-19 3.21137)
(4.76136 -4.77547e-19 3.47032)
(4.18231 0 3.72894)
(3.55421 1.35718e-19 3.97763)
(2.87075 -7.01091e-20 4.20402)
(2.16899 -2.45935e-18 4.3886)
(1.36803 2.56617e-18 4.51886)
(0.73106 0 4.50263)
(9.99401 0 0.0819732)
(9.97404 0 0.162543)
(9.93831 -5.76469e-23 0.242971)
(9.88772 -2.34975e-22 0.32489)
(9.82299 -2.3843e-22 0.409985)
(9.74417 -2.45707e-22 0.499768)
(9.65099 2.48209e-22 0.595588)
(9.54301 1.01842e-21 0.698641)
(9.41967 0 0.809967)
(9.28034 -2.14559e-21 0.930425)
(9.12431 0 1.06071)
(8.95079 0 1.20138)
(8.75896 -9.49418e-21 1.35296)
(8.54788 -3.89477e-20 1.51599)
(8.31652 0 1.69109)
(8.06366 1.53683e-20 1.87899)
(7.78781 3.79152e-20 2.08056)
(7.48713 7.76635e-20 2.29675)
(7.15934 2.28715e-20 2.52854)
(6.80156 -4.94363e-20 2.77675)
(6.4102 -1.87641e-21 3.04185)
(5.98086 4.14609e-19 3.32357)
(5.5083 -2.12426e-19 3.62039)
(4.98654 5.48163e-20 3.9288)
(4.40902 4.1262e-19 4.24232)
(3.77168 -4.71484e-19 4.55003)
(3.06434 1.10829e-18 4.83615)
(2.31986 -1.10309e-18 5.07581)
(1.46097 1.20818e-18 5.24663)
(0.759533 -1.36778e-18 5.23156)
(9.99425 0 0.0891175)
(9.97509 -2.83882e-23 0.176879)
(9.94095 8.57582e-23 0.264766)
(9.8928 1.75728e-22 0.354469)
(9.83138 -1.16077e-22 0.447696)
(9.75674 0 0.546047)
(9.66861 -9.80809e-22 0.650991)
(9.5666 -9.60344e-24 0.763839)
(9.45024 0 0.885726)
(9.31896 2.12773e-21 1.0176)
(9.17213 0 1.16022)
(9.00905 2.25325e-21 1.31426)
(8.82896 -2.27637e-21 1.4803)
(8.63101 3.78115e-20 1.65903)
(8.41424 -2.45825e-21 1.8512)
(8.17744 -1.77704e-20 2.05779)
(7.91917 0 2.27996)
(7.63753 -5.38779e-20 2.51907)
(7.3301 -1.12869e-20 2.77664)
(6.99373 -2.34521e-20 3.05419)
(6.62432 4.71023e-20 3.35306)
(6.21661 -4.60892e-22 3.67402)
(5.76388 1.00138e-19 4.01673)
(5.25787 5.24947e-20 4.37887)
(4.68853 -1.57355e-19 4.75476)
(4.04692 -2.91273e-19 5.13331)
(3.31673 2.31698e-19 5.49618)
(2.52283 -2.48851e-19 5.81261)
(1.58685 6.27457e-20 6.04795)
(0.797446 3.3459e-19 6.05424)
(9.99453 2.07771e-23 0.0959474)
(9.97635 3.48397e-23 0.19054)
(9.94402 -8.56668e-23 0.285449)
(9.89858 2.88746e-22 0.382452)
(9.84075 1.18435e-22 0.483303)
(9.77062 -4.74286e-22 0.589676)
(9.68794 4.87219e-22 0.703147)
(9.5924 -1.49028e-21 0.825126)
(9.48358 0 0.956839)
(9.36101 4.12304e-21 1.09931)
(9.22415 0 1.25337)
(9.0724 0 1.41975)
(8.90511 -8.86242e-21 1.59916)
(8.72154 -3.23841e-22 1.79235)
(8.52082 -2.81327e-20 2.00028)
(8.30187 -9.53122e-21 2.22413)
(8.06332 3.9191e-20 2.46539)
(7.80337 -4.01628e-20 2.72586)
(7.5196 -4.1132e-20 3.00767)
(7.20877 0 3.31315)
(6.86652 1.72292e-22 3.64475)
(6.48694 -4.30209e-20 4.00467)
(6.06211 8.3671e-21 4.39441)
(5.58156 0 4.81386)
(5.03133 0 5.25973)
(4.39611 -4.52026e-20 5.72295)
(3.65036 9.94771e-20 6.18499)
(2.80496 0 6.61034)
(1.77129 -1.16395e-19 6.94856)
(0.85895 0 7.00693)
(9.99486 -2.18189e-25 0.102407)
(9.97778 -4.19586e-23 0.203432)
(9.94745 -7.04766e-23 0.304908)
(9.90493 1.70316e-22 0.408709)
(9.85096 -2.30254e-22 0.516645)
(9.78563 7.0403e-22 0.630459)
(9.70877 1.19035e-21 0.751818)
(9.62012 9.92771e-22 0.88222)
(9.51934 -9.89228e-22 1.02297)
(9.40606 -1.01766e-20 1.17514)
(9.27985 -3.01123e-23 1.33965)
(9.14023 -2.17171e-21 1.51729)
(8.98668 2.16814e-20 1.70881)
(8.8186 -1.79374e-20 1.91511)
(8.63529 1.83638e-20 2.13727)
(8.43583 4.2976e-22 2.37669)
(8.21906 -1.9331e-20 2.63518)
(7.98336 -1.81712e-20 2.91498)
(7.72652 7.90953e-20 3.21885)
(7.44549 0 3.55003)
(7.13597 -1.00001e-21 3.9122)
(6.79191 -4.2063e-20 4.30936)
(6.40478 7.32597e-20 4.74548)
(5.96247 4.14334e-20 5.22386)
(5.44757 0 5.74572)
(4.83768 5.25164e-19 6.30748)
(4.09475 -6.21772e-19 6.89572)
(3.20648 0 7.47595)
(2.05423 -7.4324e-19 7.98264)
(0.967733 -3.2075e-20 8.15323)
(9.99522 -2.74975e-23 0.108452)
(9.97933 0 0.215477)
(9.95117 2.79266e-23 0.323046)
(9.91176 -1.41332e-22 0.433125)
(9.86187 1.14852e-22 0.547583)
(9.80162 -3.50707e-22 0.668226)
(9.73088 -1.04365e-23 0.796797)
(9.64947 1.91828e-21 0.934869)
(9.55715 9.57642e-22 1.08381)
(9.45366 8.94961e-21 1.24475)
(9.33868 4.02585e-21 1.41864)
(9.21187 1.23702e-20 1.60633)
(9.07287 -1.27072e-20 1.80863)
(8.92125 -8.66278e-21 2.02651)
(8.75652 2.60484e-20 2.26119)
(8.57801 5.36871e-20 2.51424)
(8.38483 -1.8064e-20 2.78775)
(8.17571 7.3824e-20 3.08438)
(7.94888 -3.80654e-20 3.40746)
(7.70173 3.71493e-20 3.76112)
(7.43053 -5.77178e-20 4.15035)
(7.12977 0 4.58107)
(6.79126 0 5.0602)
(6.40274 -3.96753e-20 5.59548)
(5.94506 3.04411e-19 6.19488)
(5.39038 -3.85416e-19 6.86496)
(4.68735 1.59031e-19 7.60646)
(3.79054 1.39771e-19 8.40207)
(2.51352 6.31777e-19 9.19245)
(1.1791 -6.6674e-19 9.62848)
(9.9956 -2.36162e-23 0.11405)
(9.98099 -4.41132e-23 0.226616)
(9.95511 6.83236e-23 0.339783)
(9.91899 2.77891e-23 0.455602)
(9.87335 2.24428e-22 0.575999)
(9.81839 0 0.702837)
(9.75402 -1.38996e-21 0.83792)
(9.68015 4.66682e-22 0.98288)
(9.59665 -2.88237e-21 1.13913)
(9.50334 -1.96543e-21 1.30785)
(9.40006 1.95119e-21 1.49001)
(9.28661 -1.21362e-20 1.68649)
(9.16281 0 1.89813)
(9.02843 1.64697e-20 2.12596)
(8.88324 -3.38157e-20 2.37128)
(8.72686 -1.73767e-20 2.6358)
(8.55878 3.48834e-20 2.9218)
(8.37822 -7.06528e-20 3.23228)
(8.184 0 3.57107)
(7.97434 -3.62815e-20 3.94301)
(7.74653 8.28472e-22 4.35427)
(7.49641 8.61834e-21 4.81257)
(7.21751 -8.49043e-21 5.32774)
(6.89962 -3.31592e-20 5.91234)
(6.52561 2.64151e-19 6.58253)
(6.06793 -2.63047e-19 7.35915)
(5.46963 0 8.2685)
(4.65447 3.22728e-19 9.34038)
(3.31543 -3.71123e-19 10.5995)
(1.63914 4.11318e-20 11.7511)
(9.996 2.53558e-25 0.119174)
(9.98272 5.43328e-23 0.236798)
(9.95924 -2.04374e-22 0.355051)
(9.92652 9.57925e-23 0.476053)
(9.8853 -1.12134e-22 0.601782)
(9.83579 -3.38658e-22 0.734147)
(9.77799 2.05459e-21 0.875001)
(9.71189 -9.32375e-22 1.02602)
(9.63746 0 1.18866)
(9.55464 1.91605e-21 1.3641)
(9.46341 -5.82473e-21 1.55335)
(9.36372 -3.82737e-21 1.75726)
(9.2556 -3.95681e-21 1.97672)
(9.13904 -2.42551e-20 2.21275)
(9.01407 1.62305e-20 2.46667)
(8.88069 1.64016e-20 2.74028)
(8.73882 0 3.03599)
(8.58826 0 3.35696)
(8.42861 0 3.70734)
(8.25916 0 4.09249)
(8.07867 1.69536e-20 4.51932)
(7.88511 -1.62952e-20 4.99689)
(7.67512 8.22398e-21 5.53722)
(7.44316 2.5085e-21 6.15676)
(7.17938 2.81272e-19 6.87887)
(6.86745 -3.23523e-19 7.73855)
(6.46855 0 8.79225)
(5.92773 -3.4931e-19 10.1432)
(4.85281 1.99275e-19 12.0458)
(2.78343 -3.86839e-19 15.3199)
(-0.136272 -2.6401e-19 0.323595)
(-0.954296 2.38782e-19 0.365204)
(-1.56076 0 0.401703)
(-2.38712 0 0.415372)
(-3.2257 3.81473e-19 0.417888)
(-4.09311 -3.52855e-19 0.404314)
(-4.95281 3.38476e-19 0.37581)
(-5.77055 0 0.332713)
(-6.50862 0 0.275999)
(-7.12743 0 0.207279)
(-7.58774 0 0.128695)
(-7.85404 -1.832e-20 0.0425907)
(-7.89985 3.41168e-22 -0.0490679)
(-7.70623 4.26374e-21 -0.14342)
(-7.27145 6.87941e-21 -0.232794)
(-6.6136 -6.62533e-21 -0.309691)
(-5.76683 0 -0.368866)
(-4.77633 0 -0.407572)
(-3.69144 0 -0.425513)
(-2.55449 2.20288e-22 -0.424814)
(-1.40665 0 -0.40761)
(-0.255892 -3.42914e-22 -0.375952)
(0.786464 3.72632e-22 -0.338825)
(1.78212 0 -0.300229)
(2.7005 0 -0.263692)
(3.53516 0 -0.229659)
(4.28795 3.15441e-25 -0.198601)
(4.96329 0 -0.171053)
(5.56669 1.28131e-25 -0.147511)
(6.23196 0 -0.13393)
(-0.160614 4.62962e-18 0.842709)
(-1.03216 -4.17431e-18 0.948284)
(-1.69886 1.54794e-18 1.03553)
(-2.56261 1.45326e-18 1.09417)
(-3.42991 1.40251e-18 1.12568)
(-4.32038 -7.89044e-19 1.11938)
(-5.19667 -7.83101e-19 1.07159)
(-6.02475 0 0.979566)
(-6.76614 1.53951e-19 0.842908)
(-7.38019 -2.99649e-19 0.663957)
(-7.82669 1.479e-19 0.448162)
(-8.06982 1.80259e-20 0.20415)
(-8.08234 -2.58606e-20 -0.0570862)
(-7.84992 3.90764e-21 -0.319984)
(-7.37537 0 -0.562727)
(-6.67901 -7.94216e-22 -0.767675)
(-5.79647 -5.06276e-21 -0.923668)
(-4.77331 3.1239e-21 -1.02635)
(-3.65818 1.74765e-21 -1.07721)
(-2.48998 -6.223e-22 -1.08119)
(-1.31895 0 -1.04777)
(-0.138968 -5.75267e-23 -0.981274)
(0.91877 1.78788e-22 -0.898212)
(1.93586 -8.20066e-23 -0.809981)
(2.87713 -4.11849e-24 -0.72376)
(3.73743 0 -0.641448)
(4.51824 1.74814e-24 -0.564792)
(5.22352 -1.93358e-24 -0.495483)
(5.85603 -7.83679e-25 -0.435033)
(6.54884 2.33487e-25 -0.392443)
(-0.174807 3.13149e-18 1.49412)
(-1.04746 6.44696e-18 1.65702)
(-1.76892 -2.17375e-18 1.78299)
(-2.66033 -6.88041e-19 1.86947)
(-3.54919 0 1.90857)
(-4.45551 0 1.88526)
(-5.3419 0 1.7923)
(-6.17484 0 1.62509)
(-6.9154 1.50606e-19 1.3831)
(-7.52195 0 1.07044)
(-7.95272 1.46737e-19 0.696729)
(-8.17033 -1.48459e-19 0.277905)
(-8.14839 -4.97716e-20 -0.164622)
(-7.87662 6.49954e-20 -0.604416)
(-7.36097 0 -1.00555)
(-6.62678 3.82487e-22 -1.33966)
(-5.7134 1.77283e-21 -1.58967)
(-4.66806 -4.74307e-21 -1.75021)
(-3.5396 2.32242e-21 -1.82512)
(-2.36933 6.26431e-22 -1.82338)
(-1.19649 3.10877e-22 -1.76344)
(-0.0304628 0 -1.65111)
(1.02028 -5.21112e-23 -1.51241)
(2.02771 7.56851e-24 -1.36811)
(2.95858 3.9042e-24 -1.22548)
(3.80907 0 -1.0884)
(4.58061 -4.84307e-25 -0.960243)
(5.27706 4.40216e-25 -0.843835)
(5.89943 2.27916e-25 -0.741253)
(6.58419 1.72826e-25 -0.660429)
(-0.177605 0 2.21889)
(-1.03739 3.39728e-18 2.42514)
(-1.81102 -3.40825e-18 2.57575)
(-2.72362 6.37125e-19 2.67911)
(-3.6295 0 2.71714)
(-4.54749 1.51003e-18 2.67075)
(-5.44058 -1.14236e-18 2.52874)
(-6.27542 2.96467e-19 2.28403)
(-7.01194 -1.43997e-19 1.93505)
(-7.60654 -7.58061e-20 1.48681)
(-8.01478 -7.69921e-20 0.952145)
(-8.19698 0 0.353276)
(-8.1261 -1.81091e-20 -0.279076)
(-7.80193 -3.02826e-20 -0.900164)
(-7.23516 2.96634e-20 -1.45947)
(-6.45688 7.886e-22 -1.91952)
(-5.51052 -4.20525e-21 -2.25898)
(-4.44468 5.08638e-21 -2.47255)
(-3.30796 1.35204e-22 -2.56691)
(-2.14541 8.48384e-23 -2.55796)
(-0.97101 -1.0109e-21 -2.4666)
(0.154162 -2.00817e-24 -2.306)
(1.19361 -1.30291e-23 -2.1107)
(2.18109 -2.99818e-23 -1.90965)
(3.09226 6.56987e-24 -1.7106)
(3.9242 -8.9751e-26 -1.5193)
(4.67837 8.6357e-26 -1.34055)
(5.35868 6.51354e-25 -1.17809)
(5.9647 3.78454e-25 -1.0344)
(6.63379 0 -0.916454)
(-0.170491 0 3.00126)
(-1.01038 0 3.23528)
(-1.82414 6.61931e-19 3.39942)
(-2.74401 -2.5012e-18 3.51027)
(-3.65422 2.31427e-18 3.53915)
(-4.57134 -2.83398e-19 3.46252)
(-5.45917 2.92561e-19 3.26455)
(-6.2843 -5.7882e-19 2.93492)
(-7.00535 0 2.47039)
(-7.57646 3.77641e-19 1.87666)
(-7.95019 -2.34542e-19 1.17055)
(-8.08458 4.14435e-20 0.382742)
(-7.95318 -9.81826e-22 -0.442681)
(-7.57024 0 -1.2427)
(-6.94955 0 -1.95319)
(-6.12866 -7.62309e-22 -2.52907)
(-5.15464 0 -2.9466)
(-4.07702 0 -3.20224)
(-2.94452 8.38555e-22 -3.30743)
(-1.79603 -2.46421e-21 -3.28512)
(-0.640306 5.83925e-22 -3.15435)
(0.433909 0 -2.94394)
(1.44929 1.33161e-22 -2.69521)
(2.40544 0 -2.43872)
(3.28662 -1.60612e-24 -2.1845)
(4.09056 1.36848e-24 -1.94028)
(4.81883 1.76648e-25 -1.71218)
(5.47545 -1.31384e-25 -1.50473)
(6.05892 -9.77619e-25 -1.3208)
(6.70531 -3.37973e-25 -1.16629)
(-0.154585 -5.91965e-18 3.823)
(-0.963467 0 4.0692)
(-1.79272 -9.39729e-19 4.23792)
(-2.69728 2.43447e-18 4.34838)
(-3.59093 -2.26411e-18 4.3615)
(-4.48753 -2.91443e-19 4.24895)
(-5.3522 -2.80254e-19 3.98994)
(-6.15179 7.31981e-19 3.57038)
(-6.84377 -5.92192e-19 2.9848)
(-7.37979 -3.16996e-19 2.23911)
(-7.70858 3.29487e-19 1.35418)
(-7.78446 -2.12618e-19 0.370209)
(-7.58604 1.02249e-19 -0.652567)
(-7.14305 1.03341e-19 -1.62797)
(-6.4721 -3.52061e-20 -2.48107)
(-5.61682 0 -3.16123)
(-4.62674 5.62176e-21 -3.64439)
(-3.55129 0 -3.93087)
(-2.43826 -8.51319e-22 -4.03835)
(-1.31385 2.58744e-21 -3.99372)
(-0.206281 -2.04167e-22 -3.81761)
(0.814741 4.44274e-22 -3.5573)
(1.79132 -1.32363e-22 -3.25778)
(2.70456 2.5641e-24 -2.94742)
(3.54499 3.60071e-24 -2.63952)
(4.311 -4.3793e-24 -2.34398)
(5.00439 5.13275e-25 -2.0682)
(5.62938 -4.8388e-25 -1.81736)
(6.18374 6.33466e-25 -1.59466)
(6.79979 2.90696e-25 -1.4048)
(-0.129625 2.86354e-18 4.64966)
(-0.888535 -5.23982e-18 4.89637)
(-1.69703 2.4215e-18 5.06385)
(-2.55631 -2.71138e-18 5.16892)
(-3.4063 2.25495e-18 5.16264)
(-4.25807 1.4613e-18 5.01148)
(-5.07854 -5.37664e-19 4.68932)
(-5.83519 -4.41277e-19 4.17754)
(-6.48439 0 3.46746)
(-6.97427 0 2.56436)
(-7.24768 0 1.49381)
(-7.25249 0 0.307728)
(-6.98839 -8.03371e-20 -0.911352)
(-6.4891 7.51649e-20 -2.05404)
(-5.77849 3.79452e-21 -3.0371)
(-4.90408 6.8887e-21 -3.80731)
(-3.91583 -1.13417e-20 -4.34241)
(-2.86155 0 -4.64828)
(-1.78466 -4.91847e-21 -4.74861)
(-0.69963 8.98889e-22 -4.67015)
(0.326118 0 -4.44843)
(1.29613 -7.8903e-22 -4.1402)
(2.21904 2.59923e-22 -3.79181)
(3.078 6.39662e-24 -3.42954)
(3.86697 -2.44053e-23 -3.07013)
(4.58519 -5.68919e-24 -2.72565)
(5.23486 -7.59001e-25 -2.40462)
(5.82042 0 -2.11273)
(6.33927 -4.02028e-25 -1.85343)
(6.91754 -1.52171e-26 -1.63004)
(-0.0943861 -2.8098e-18 5.4327)
(-0.776064 0 5.67521)
(-1.51888 -9.47035e-19 5.84081)
(-2.29765 1.45388e-18 5.94007)
(-3.07235 0 5.91519)
(-3.85157 0 5.72722)
(-4.60434 0 5.34418)
(-5.29914 -6.51123e-19 4.74198)
(-5.89117 5.72825e-19 3.90742)
(-6.32382 4.72176e-20 2.84398)
(-6.53199 -1.98899e-19 1.58287)
(-6.45626 2.10747e-19 0.192148)
(-6.12754 7.55781e-20 -1.21755)
(-5.58264 -8.08361e-20 -2.5135)
(-4.85054 3.27026e-20 -3.60951)
(-3.97959 -1.54998e-20 -4.45376)
(-3.01692 -7.10469e-22 -5.02663)
(-2.00756 0 -5.34063)
(-0.985225 4.42862e-21 -5.42342)
(0.0257936 -4.50058e-22 -5.30311)
(0.965524 0 -5.03852)
(1.87328 3.88412e-22 -4.6865)
(2.7288 -2.60629e-22 -4.29065)
(3.52205 0 -3.87874)
(4.24906 2.23198e-23 -3.47061)
(4.91005 2.36898e-23 -3.08023)
(5.50769 0 -2.71705)
(6.04657 -1.35698e-26 -2.38709)
(6.524 4.20387e-25 -2.09392)
(7.05761 0 -1.83938)
(-0.0466593 1.40608e-18 6.11341)
(-0.61701 0 6.35782)
(-1.2449 0 6.52718)
(-1.90495 0 6.62546)
(-2.56944 -6.21143e-19 6.58797)
(-3.24526 6.75131e-19 6.37004)
(-3.90375 3.30115e-19 5.9333)
(-4.51496 -3.2971e-19 5.24705)
(-5.03317 4.6467e-19 4.29201)
(-5.39573 -6.52155e-19 3.06832)
(-5.5267 2.11646e-19 1.6143)
(-5.35984 -1.1491e-19 0.0214593)
(-4.9764 6.59783e-20 -1.56594)
(-4.40474 4.39915e-20 -2.99324)
(-3.67807 -6.37344e-22 -4.18074)
(-2.84035 -7.68669e-21 -5.08236)
(-1.93161 1.97923e-20 -5.67954)
(-0.993655 5.88167e-22 -5.99086)
(-0.0459138 -5.78611e-22 -6.04355)
(0.844918 0 -5.88574)
(1.71197 0 -5.58196)
(2.53922 0 -5.18874)
(3.31425 -1.35502e-23 -4.74732)
(4.0303 1.33553e-23 -4.28877)
(4.68523 -1.23056e-24 -3.83553)
(5.28021 3.86527e-24 -3.4031)
(5.81831 -3.01761e-25 -3.00159)
(6.30409 -2.09671e-27 -2.63719)
(6.73498 2.07375e-27 -2.31341)
(7.21802 0 -2.03068)
(0.017867 3.39693e-19 6.63714)
(-0.403046 0 6.89686)
(-0.868708 0 7.08003)
(-1.37148 0 7.18659)
(-1.88869 3.25215e-19 7.1473)
(-2.42734 -3.94303e-19 6.91114)
(-2.96116 -3.54689e-19 6.43309)
(-3.46326 1.79229e-19 5.67437)
(-3.88863 4.32849e-19 4.60765)
(-4.16791 -2.25667e-19 3.22806)
(-4.20719 1.62254e-20 1.58355)
(-3.9334 0 -0.204206)
(-3.51856 5.70406e-20 -1.94191)
(-2.94989 0 -3.47168)
(-2.26387 0 -4.72927)
(-1.49252 -1.57725e-20 -5.67256)
(-0.669613 -2.62642e-20 -6.281)
(0.172517 -3.63868e-22 -6.57724)
(0.984194 0 -6.59814)
(1.78344 0 -6.40959)
(2.55477 0 -6.07171)
(3.28534 -7.81436e-22 -5.63865)
(3.9665 0 -5.15462)
(4.59405 -1.76581e-22 -4.65353)
(5.1674 -4.42311e-24 -4.15982)
(5.68849 -1.4309e-23 -3.69007)
(6.16058 0 -3.25483)
(6.58794 -1.43783e-24 -2.86023)
(6.96812 -8.47739e-26 -2.50965)
(7.39588 0 -2.20214)
(0.10008 -3.40691e-19 6.96321)
(-0.133736 0 7.25065)
(-0.394162 -4.0802e-20 7.45872)
(-0.703135 0 7.58493)
(-1.03595 4.30657e-20 7.55798)
(-1.4023 -4.20416e-20 7.3177)
(-1.77763 0 6.81273)
(-2.14047 -1.25207e-20 5.99342)
(-2.44852 -1.45647e-19 4.82178)
(-2.62105 1.36753e-19 3.29152)
(-2.53145 0 1.46896)
(-2.16199 9.46576e-21 -0.476729)
(-1.7574 -6.9496e-20 -2.32214)
(-1.2349 3.06096e-21 -3.92104)
(-0.629934 4.057e-20 -5.23107)
(0.0483246 3.90163e-21 -6.20609)
(0.738031 -4.06387e-21 -6.80077)
(1.44022 0 -7.07945)
(2.14047 0 -7.08241)
(2.82541 0 -6.86778)
(3.48161 0 -6.49724)
(4.09963 7.38578e-22 -6.02744)
(4.67392 0 -5.50543)
(5.20244 1.73275e-22 -4.96731)
(5.68581 0 -4.43893)
(6.12639 0 -3.93758)
(6.52727 9.96492e-24 -3.47395)
(6.89211 1.40106e-24 -3.05402)
(7.21856 8.32576e-26 -2.68088)
(7.58771 4.09557e-25 -2.35242)
(0.194711 -1.38317e-18 7.05807)
(0.180454 1.33594e-18 7.38293)
(0.163323 9.01255e-19 7.63118)
(0.0791235 -4.97569e-19 7.79386)
(-0.0362316 -1.77969e-19 7.79483)
(-0.199062 3.92515e-19 7.57129)
(-0.383679 -6.08871e-19 7.06406)
(-0.57878 3.37786e-19 6.21702)
(-0.743707 1.31234e-19 4.98876)
(-0.763369 4.54356e-21 3.36349)
(-0.468197 -2.07734e-19 1.3835)
(-0.0759706 1.86861e-19 -0.752057)
(0.271486 -3.33581e-20 -2.6967)
(0.696059 8.06619e-20 -4.33029)
(1.18063 -4.92774e-20 -5.65174)
(1.70853 3.31182e-20 -6.61662)
(2.26613 1.87585e-20 -7.22586)
(2.83679 0 -7.50065)
(3.40293 0 -7.48698)
(3.95227 0 -7.24786)
(4.47538 2.22508e-22 -6.84805)
(4.96631 -2.21677e-22 -6.34678)
(5.42221 5.743e-22 -5.79325)
(5.84278 -2.35511e-23 -5.2251)
(6.22942 -4.04069e-24 -4.66907)
(6.58446 -5.45688e-25 -4.14278)
(6.91049 -9.93499e-24 -3.65687)
(7.21014 0 -3.217)
(7.48103 4.07048e-25 -2.82595)
(7.7897 -4.02741e-25 -2.48067)
(0.302834 1.36439e-18 6.89272)
(0.535334 1.48879e-18 7.26557)
(0.784113 -1.5892e-18 7.56923)
(0.942145 1.88756e-19 7.77974)
(1.06357 -4.89577e-19 7.8215)
(1.13123 0 7.6334)
(1.1663 4.19961e-19 7.14608)
(1.18016 -7.96484e-19 6.29047)
(1.22802 2.46969e-19 4.9991)
(1.44098 -3.21253e-19 3.24409)
(1.84813 5.81338e-19 1.17124)
(2.17978 -1.55079e-19 -0.934786)
(2.43055 0 -2.892)
(2.74118 -4.64556e-20 -4.59177)
(3.10413 1.72844e-20 -5.95562)
(3.49893 -7.40281e-20 -6.94719)
(3.9123 0 -7.56122)
(4.33103 0 -7.82773)
(4.74258 1.54425e-21 -7.79834)
(5.13858 -1.52356e-21 -7.53835)
(5.51387 -2.0208e-21 -7.11502)
(5.86601 8.30311e-22 -6.58961)
(6.19465 -5.8884e-23 -6.01277)
(6.50082 1.93508e-22 -5.42302)
(6.78624 0 -4.84749)
(7.0528 1.02173e-24 -4.30378)
(7.3021 -1.40333e-23 -3.80229)
(7.53546 0 -3.34832)
(7.75023 -4.21086e-25 -2.94428)
(7.99799 2.15904e-26 -2.5865)
(0.445797 -2.25981e-20 6.41058)
(0.948015 2.34155e-18 6.88114)
(1.46285 -1.4669e-19 7.2628)
(1.86521 -6.62595e-19 7.52803)
(2.22593 1.22434e-18 7.62055)
(2.53357 1.66896e-19 7.4746)
(2.80513 1.8233e-19 7.01223)
(3.05864 -2.05424e-19 6.15538)
(3.34395 -2.48879e-19 4.83922)
(3.71744 4.02329e-19 3.08466)
(4.12651 -1.64499e-19 1.03558)
(4.43593 1.31397e-19 -1.09873)
(4.64746 1.01018e-19 -3.08484)
(4.8695 -1.27679e-19 -4.80233)
(5.11259 3.58491e-20 -6.18019)
(5.3674 2.69211e-20 -7.1783)
(5.62544 0 -7.79115)
(5.8791 -8.46751e-21 -8.04891)
(6.12248 -1.47544e-21 -8.0062)
(6.35298 3.46699e-21 -7.73065)
(6.57051 4.45912e-21 -7.29141)
(6.77643 -6.42728e-22 -6.75095)
(6.97271 -1.12363e-21 -6.16053)
(7.16135 -2.16812e-22 -5.55884)
(7.34393 0 -4.97286)
(7.52144 0 -4.4199)
(7.69415 1.40464e-23 -3.90994)
(7.86177 -1.32227e-24 -3.44794)
(8.02115 0 -3.03597)
(8.20891 3.07369e-26 -2.67006)
(0.683815 1.37694e-18 5.4125)
(1.46796 -1.20449e-18 6.24933)
(2.19784 5.83119e-19 6.74757)
(2.82641 1.19479e-18 7.06232)
(3.41707 -5.20169e-19 7.20625)
(3.95529 -9.07157e-19 7.10597)
(4.45495 -8.72794e-19 6.67226)
(4.93559 8.98784e-19 5.82397)
(5.41975 -2.08525e-19 4.51302)
(5.89397 1.22429e-19 2.78677)
(6.36661 1.36582e-19 0.781849)
(6.65262 -3.33988e-19 -1.28668)
(6.83338 3.68499e-19 -3.23494)
(6.98625 -7.85926e-20 -4.94028)
(7.12456 -2.86889e-20 -6.31451)
(7.24559 2.68775e-20 -7.30743)
(7.34761 1.98432e-20 -7.91168)
(7.43156 1.59327e-20 -8.15845)
(7.50065 0 -8.10478)
(7.56011 -1.91447e-21 -7.81988)
(7.61593 -2.64512e-21 -7.37365)
(7.67352 9.33986e-22 -6.82856)
(7.737 1.07133e-21 -6.23545)
(7.80894 -5.18875e-24 -5.63236)
(7.89036 -1.36236e-22 -5.04562)
(7.98093 4.84564e-23 -4.49192)
(8.0793 0 -3.98081)
(8.18336 0 -3.51691)
(8.28932 -1.34472e-25 -3.10205)
(8.41918 1.05048e-25 -2.73226)
(9.99642 2.57618e-23 0.123884)
(9.98454 0 0.246155)
(9.96358 1.04472e-22 0.369062)
(9.93444 -1.0546e-22 0.494786)
(9.89784 0 0.625344)
(9.85405 2.15125e-22 0.762682)
(9.80315 -1.52535e-21 0.908691)
(9.7452 1.30983e-21 1.06508)
(9.6803 -8.93614e-22 1.2333)
(9.60851 8.97301e-22 1.41457)
(9.52995 3.66467e-21 1.60986)
(9.44478 -3.52547e-21 1.82001)
(9.35318 0 2.04587)
(9.25544 2.27665e-20 2.28844)
(9.15187 -3.05801e-20 2.54903)
(9.04286 -3.06652e-20 2.82942)
(8.92883 -1.56979e-20 3.13201)
(8.81024 1.53054e-19 3.46001)
(8.6876 -6.13266e-20 3.81762)
(8.56145 -2.96226e-20 4.21034)
(8.43237 0 4.64533)
(8.30101 7.50865e-21 5.13207)
(8.16819 0 5.68333)
(8.03523 2.77591e-20 6.3169)
(7.90444 -9.8113e-20 7.05868)
(7.78289 4.52343e-19 7.9486)
(7.68631 -3.09482e-19 9.05271)
(7.73038 6.02587e-20 10.4871)
(8.34846 1.88376e-19 12.4416)
(8.83867 -1.18675e-19 15.5392)
(9.99686 -2.46231e-23 0.128188)
(9.98647 -4.95207e-23 0.254687)
(9.96814 9.97284e-23 0.381799)
(9.94273 0 0.511745)
(9.91095 0 0.646577)
(9.87309 0 0.788264)
(9.82931 -8.28179e-22 0.938718)
(9.77978 -8.49839e-22 1.09966)
(9.72468 -1.71129e-21 1.27255)
(9.66423 1.71745e-21 1.45858)
(9.59871 6.94051e-21 1.65869)
(9.52842 -3.34962e-21 1.87368)
(9.4538 1.42118e-20 2.10433)
(9.37537 -1.42369e-20 2.35156)
(9.29376 1.45807e-20 2.61659)
(9.20974 2.31343e-23 2.90109)
(9.12427 -1.00739e-19 3.20734)
(9.03847 -1.48607e-20 3.53839)
(8.95378 -5.57528e-20 3.89823)
(8.87199 2.51063e-19 4.29207)
(8.7955 -3.1089e-19 4.72663)
(8.72766 2.12521e-19 5.21068)
(8.67336 0 5.75575)
(8.64052 -5.51552e-21 6.37736)
(8.64267 4.40859e-20 7.09661)
(8.70615 -2.53894e-19 7.94232)
(8.87609 2.39959e-19 8.95204)
(9.22654 0 10.1678)
(10.0397 0 11.5297)
(10.7889 -3.47512e-20 12.6656)
(9.99732 2.40422e-23 0.132004)
(9.98846 5.71779e-25 0.262244)
(9.97287 -9.73479e-23 0.393053)
(9.95133 4.88539e-23 0.526682)
(9.92451 -4.90853e-23 0.665198)
(9.89276 -3.94157e-22 0.810583)
(9.8563 8.07563e-22 0.964756)
(9.81539 0 1.12943)
(9.77032 1.61826e-21 1.30605)
(9.72145 1.63105e-21 1.49577)
(9.66919 3.25802e-21 1.69946)
(9.61403 1.01272e-20 1.91784)
(9.55662 -2.01742e-20 2.1516)
(9.49771 2.69807e-20 2.40153)
(9.43826 2.14417e-22 2.66869)
(9.37941 -1.36676e-20 2.95455)
(9.32258 -3.97619e-20 3.26113)
(9.26954 9.26337e-20 3.59112)
(9.22253 -1.81923e-19 3.94805)
(9.18443 1.0316e-19 4.33641)
(9.15914 -1.2744e-20 4.76189)
(9.15204 0 5.23156)
(9.17071 -1.59935e-19 5.75413)
(9.22652 1.74266e-19 6.34016)
(9.33652 2.61004e-19 7.00165)
(9.52647 -2.85595e-19 7.74993)
(9.83136 0 8.5888)
(10.2682 8.67653e-20 9.50665)
(10.9615 -8.31243e-20 10.4442)
(11.8547 1.75071e-20 11.1618)
(9.99779 -4.58276e-23 0.135285)
(9.99051 9.27064e-23 0.268728)
(9.97773 2.33502e-23 0.402675)
(9.96015 1.16101e-22 0.539386)
(9.9384 4.72606e-23 0.680935)
(9.91288 3.84573e-22 0.829301)
(9.88387 0 0.98639)
(9.85171 0 1.1539)
(9.81681 -1.57744e-21 1.33323)
(9.77964 -1.58929e-21 1.52546)
(9.74074 -3.1996e-21 1.73141)
(9.70078 0 1.95167)
(9.66059 0 2.18679)
(9.62115 0 2.43738)
(9.58368 2.53964e-20 2.70427)
(9.54967 1.21752e-20 2.98867)