/*--------------------------------*- C++ -*----------------------------------*\
| =========                 |                                                 |
| \\      /  F ield         | OpenFOAM: The Open Source CFD Toolbox           |
|  \\    /   O peration     | Version:  5.x                                   |
|   \\  /    A nd           | Web:      www.OpenFOAM.org                      |
|    \\/     M anipulation  |                                                 |
\*---------------------------------------------------------------------------*/
FoamFile
{
    version     2.0;
    format      ascii;
    class       surfaceVectorField;
    location    "0.2";
    object      Uf;
}
// * * * * * * * * * * * * * * * * * * * * * * * * * * * * * * * * * * * * * //

dimensions      [0 1 -1 0 0 0 0];

internalField   nonuniform List<vector> 
5457
(
(9.92194 -1.86925e-21 0.0242527)
(9.96546 1.52028e-23 0.0376197)
(9.82839 -9.29701e-22 0.0313234)
(9.92901 -1.93584e-23 0.0462235)
(9.71942 0 0.0371684)
(9.86319 -1.9016e-21 0.0552295)
(9.59267 0 0.0432048)
(9.77144 -9.7202e-22 0.0658755)
(9.44804 0 0.0494256)
(9.66025 0 0.0770877)
(9.28563 0 0.0558372)
(9.53134 8.23947e-24 0.0887561)
(9.10524 0 0.0625337)
(9.38397 6.12819e-24 0.101084)
(8.90638 -5.97e-22 0.0695955)
(9.21713 0 0.11424)
(8.68852 -1.84614e-21 0.07707)
(9.03005 -1.15967e-21 0.128319)
(8.45109 1.40831e-21 0.0849866)
(8.82203 -6.06836e-21 0.143373)
(8.19357 1.22639e-21 0.0933701)
(8.59237 8.78518e-21 0.159428)
(7.91548 -1.31644e-21 0.102247)
(8.34037 7.93828e-21 0.1765)
(7.61645 -6.24378e-21 0.111649)
(8.06542 -2.19741e-20 0.194593)
(7.29616 6.98436e-21 0.121614)
(7.767 1.10377e-20 0.21371)
(6.95438 5.89574e-21 0.132182)
(7.44468 1.29138e-20 0.233843)
(6.59101 -1.40865e-20 0.14339)
(7.09817 -6.77243e-21 0.254971)
(6.20608 3.27668e-20 0.155258)
(6.72733 -1.41565e-20 0.27704)
(5.79985 5.54936e-21 0.167781)
(6.33219 -2.719e-20 0.299946)
(5.37288 -3.26057e-20 0.180908)
(5.91307 2.86347e-20 0.323502)
(4.92617 0 0.19453)
(5.47064 0 0.347418)
(4.46126 -4.31137e-20 0.208473)
(5.00605 -1.44923e-19 0.371272)
(3.98036 -4.39721e-20 0.222491)
(4.521 7.10775e-20 0.3945)
(3.48645 -1.03091e-19 0.236286)
(4.01792 -3.36395e-19 0.416398)
(2.98325 4.34228e-19 0.249554)
(3.49992 -1.06627e-19 0.436162)
(2.47514 2.89917e-19 0.262065)
(2.97082 9.09202e-19 0.452962)
(1.96688 -2.23892e-19 0.273984)
(2.43505 -2.26685e-19 0.466065)
(1.46262 0 0.283953)
(1.89518 -2.26992e-19 0.475412)
(0.969964 0 0.297627)
(1.37553 0 0.476911)
(0.477627 3.27537e-19 0.317999)
(0.753263 0 0.487155)
(0.46071 -2.35422e-18 0.482953)
(9.99856 1.86116e-21 0.0491277)
(9.99165 9.40095e-22 0.0383128)
(9.96484 -1.01588e-21 0.0665124)
(9.97962 2.78458e-21 0.0628885)
(9.91009 -2.86191e-21 0.081878)
(9.94236 -5.0445e-24 0.0829768)
(9.83602 -9.59823e-22 0.098128)
(9.88008 -3.43691e-24 0.104373)
(9.74227 8.34256e-24 0.115297)
(9.79783 1.4213e-23 0.127057)
(9.62853 1.41271e-23 0.133403)
(9.69737 3.09309e-21 0.150919)
(9.49431 6.05188e-24 0.152684)
(9.57805 -1.03638e-21 0.176293)
(9.33888 -5.77051e-22 0.173355)
(9.43878 2.1731e-21 0.203535)
(9.16136 -5.44284e-21 0.195552)
(9.27861 5.60433e-22 0.232879)
(8.96081 1.49385e-21 0.219349)
(9.09662 7.01871e-21 0.264471)
(8.73634 1.54862e-20 0.244786)
(8.89184 -1.34242e-20 0.298396)
(8.48709 -1.30919e-20 0.271882)
(8.66329 -6.44533e-21 0.334702)
(8.2123 -4.28202e-21 0.30064)
(8.41005 -7.6005e-22 0.373409)
(7.91135 1.69905e-20 0.331052)
(8.13128 3.44093e-20 0.414518)
(7.58371 0 0.363085)
(7.82624 2.4704e-20 0.458008)
(7.22906 -6.92656e-21 0.396675)
(7.49433 -6.20128e-20 0.503822)
(6.84722 -7.42795e-20 0.431692)
(7.13511 6.46556e-21 0.551846)
(6.43829 -3.42014e-21 0.467913)
(6.74828 -6.6688e-20 0.601865)
(6.00267 6.08801e-20 0.504985)
(6.33383 6.16647e-20 0.65352)
(5.54119 -1.46775e-19 0.542386)
(5.89202 0 0.706258)
(5.05517 -2.81501e-20 0.579408)
(5.42354 1.30232e-19 0.759284)
(4.54654 -2.26761e-19 0.61515)
(4.92957 -1.73844e-19 0.811541)
(4.01793 -3.3731e-19 0.648555)
(4.41188 -2.56907e-19 0.86171)
(3.4726 3.80651e-19 0.678504)
(3.8729 -6.82916e-19 0.908279)
(2.91441 3.7786e-19 0.703981)
(3.31571 1.00759e-18 0.949683)
(2.34749 -2.29705e-19 0.724527)
(2.74411 1.56987e-18 0.984538)
(1.77552 -2.24374e-19 0.739022)
(2.15909 -3.60256e-18 1.01255)
(1.20018 0 0.753141)
(1.58712 -1.55829e-20 1.03089)
(0.620261 -2.71498e-18 0.767611)
(0.910944 1.98893e-18 1.05725)
(0.522953 -2.67142e-18 1.06652)
(9.99116 1.88638e-21 0.0552181)
(9.98939 -3.66772e-21 0.0425738)
(9.96032 3.76109e-21 0.0823764)
(9.97474 -3.70931e-21 0.078127)
(9.90889 2.85471e-21 0.108085)
(9.93829 1.89749e-21 0.109039)
(9.83937 9.71152e-22 0.135156)
(9.87881 9.68919e-22 0.140508)
(9.75187 3.13752e-21 0.163934)
(9.80023 3.97241e-21 0.17369)
(9.64601 1.99057e-21 0.194576)
(9.7043 3.12063e-21 0.20877)
(9.52126 1.1706e-21 0.227443)
(9.5906 -5.19452e-21 0.246194)
(9.37688 3.2904e-21 0.262892)
(9.45814 1.48931e-23 0.286479)
(9.21194 1.31021e-20 0.301169)
(9.30601 1.01422e-20 0.330025)
(9.02541 -8.15332e-21 0.34243)
(9.13326 3.42046e-22 0.377105)
(8.81621 -3.52689e-20 0.386764)
(8.93891 -9.53502e-23 0.427904)
(8.58327 5.95719e-21 0.434219)
(8.72193 -5.19446e-21 0.48254)
(8.32558 3.83721e-20 0.48481)
(8.48127 -2.08847e-20 0.541083)
(8.04222 4.20057e-20 0.538526)
(8.21595 -5.68541e-21 0.603568)
(7.73233 -3.83853e-20 0.595324)
(7.92505 1.28918e-19 0.669998)
(7.3952 -4.77763e-20 0.655102)
(7.60772 -8.57819e-20 0.740327)
(7.03024 1.31315e-20 0.71767)
(7.26321 -9.09246e-20 0.81443)
(6.63704 0 0.782689)
(6.89088 1.07262e-19 0.892052)
(6.21544 0 0.849621)
(6.49021 -2.04506e-19 0.972748)
(5.76558 2.78645e-19 0.917665)
(6.06092 1.80336e-19 1.0558)
(5.28799 -1.92066e-20 0.985713)
(5.60299 2.7518e-19 1.14017)
(4.78373 -2.05146e-19 1.05233)
(5.11679 -2.87402e-19 1.22442)
(4.25442 -6.08047e-19 1.11579)
(4.60316 5.26466e-19 1.30672)
(3.70236 -3.53963e-20 1.1742)
(4.06354 -1.45827e-18 1.38491)
(3.13046 2.20609e-18 1.2257)
(3.50004 7.93304e-19 1.45667)
(2.54217 -1.86256e-18 1.26909)
(2.91586 1.00764e-19 1.51977)
(1.94089 -3.35654e-18 1.30286)
(2.31071 -2.99807e-18 1.57336)
(1.33009 1.99632e-18 1.33188)
(1.71441 3.39356e-18 1.61398)
(0.713896 1.95968e-18 1.35588)
(1.01533 3.84881e-18 1.65734)
(0.569816 -3.78937e-18 1.67536)
(9.98722 -9.26354e-21 0.0657713)
(9.98822 -2.20821e-24 0.0487339)
(9.95627 -5.50164e-21 0.103856)
(9.97185 1.36461e-21 0.0934203)
(9.90576 0 0.140474)
(9.93518 4.69011e-22 0.134637)
(9.83736 4.00739e-21 0.17813)
(9.87678 -3.82006e-21 0.17606)
(9.75153 3.94475e-21 0.217723)
(9.79983 9.83313e-21 0.219431)
(9.648 -4.16842e-21 0.259745)
(9.70594 -1.96127e-21 0.265348)
(9.52628 -6.28469e-21 0.304757)
(9.59483 -6.22126e-21 0.3144)
(9.38571 6.9929e-21 0.353299)
(9.46561 -2.15791e-21 0.367235)
(9.22547 -2.73987e-21 0.405792)
(9.31743 9.01212e-21 0.424402)
(9.04462 8.39392e-21 0.462536)
(9.14945 -1.14969e-20 0.486306)
(8.84216 2.99158e-20 0.523737)
(8.96073 1.95067e-20 0.553235)
(8.61707 -3.2231e-20 0.589537)
(8.7503 5.56996e-21 0.625391)
(8.36834 -6.47558e-20 0.660024)
(8.51717 -3.69721e-20 0.702916)
(8.09501 8.28957e-20 0.735247)
(8.26036 -2.2894e-20 0.785909)
(7.79613 7.88633e-20 0.815211)
(7.97891 8.16678e-20 0.874431)
(7.47082 -1.28993e-19 0.899849)
(7.67188 -1.31613e-19 0.968496)
(7.11825 5.64929e-21 0.988983)
(7.33836 1.8833e-20 1.06803)
(6.73767 -1.01128e-19 1.08226)
(6.97744 8.12122e-20 1.17282)
(6.32844 -1.94518e-20 1.17906)
(6.58829 -2.32325e-19 1.28242)
(5.89012 1.78098e-19 1.27845)
(6.17013 1.8106e-19 1.39608)
(5.42252 0 1.37906)
(5.72233 -6.14653e-20 1.51263)
(4.92582 4.54427e-19 1.47907)
(5.2445 0 1.63039)
(4.4007 -3.48064e-19 1.57621)
(4.73661 1.08338e-18 1.74713)
(3.84848 -6.02138e-19 1.66786)
(4.19917 -1.36939e-18 1.86007)
(3.27125 -1.31913e-18 1.75123)
(3.63338 8.53106e-21 1.96603)
(2.67208 -1.07303e-18 1.82409)
(3.04204 -1.46774e-18 2.06158)
(2.05489 3.81049e-18 1.88386)
(2.42385 1.66447e-18 2.14455)
(1.4254 5.24784e-18 1.93329)
(1.81211 1.82797e-18 2.2094)
(0.792272 -1.96903e-18 1.96863)
(1.10101 1.9669e-18 2.26804)
(0.612596 -4.01505e-18 2.28633)
(9.98536 1.0643e-20 0.0769455)
(9.98768 3.43827e-21 0.0557912)
(9.95394 7.32425e-21 0.124414)
(9.97045 7.15063e-21 0.108946)
(9.90427 -3.40504e-21 0.170711)
(9.93381 4.69012e-22 0.159805)
(9.83716 2.17691e-21 0.218105)
(9.87655 -1.10704e-23 0.21094)
(9.75309 3.77964e-21 0.267899)
(9.80143 1.98326e-21 0.264242)
(9.65185 -4.06799e-21 0.320879)
(9.70983 -2.03416e-21 0.320677)
(9.53296 -2.044e-21 0.37776)
(9.60151 1.99173e-21 0.381015)
(9.3958 0 0.439205)
(9.47566 4.19532e-21 0.446033)
(9.23959 0 0.505751)
(9.33146 -8.7699e-21 0.516406)
(9.06345 0 0.577798)
(9.1681 2.25876e-20 0.592661)
(8.86645 -5.01312e-21 0.655634)
(8.98473 -3.7288e-20 0.675185)
(8.64762 3.01862e-22 0.739466)
(8.7804 -5.37722e-21 0.764265)
(8.406 5.06579e-21 0.829449)
(8.55418 1.99956e-20 0.860121)
(8.14062 -2.28286e-20 0.925698)
(8.30509 -3.20868e-20 0.962929)
(7.85052 -1.31449e-19 1.02829)
(8.03217 1.31632e-19 1.07284)
(7.53472 1.806e-20 1.13723)
(7.73442 -2.09984e-19 1.18995)
(7.19224 9.51693e-20 1.25243)
(7.4108 1.96352e-19 1.3143)
(6.82206 -5.388e-20 1.37359)
(7.06022 -1.00426e-19 1.44579)
(6.42319 -2.67481e-20 1.50013)
(6.68153 -2.42829e-19 1.58406)
(5.99468 -6.15295e-20 1.63109)
(6.27351 5.04175e-19 1.72844)
(5.53569 -6.07191e-20 1.76499)
(5.83498 -4.73645e-19 1.87775)
(5.04563 6.422e-19 1.89974)
(5.36482 1.84562e-19 2.03018)
(4.5243 3.30017e-20 2.0326)
(4.86216 5.6926e-19 2.1832)
(3.97214 -7.42093e-19 2.16016)
(4.32657 -4.46327e-19 2.33345)
(3.39056 -1.58043e-19 2.27853)
(3.75833 -1.36008e-18 2.47673)
(2.78238 1.30414e-18 2.38394)
(3.15988 1.41805e-18 2.60808)
(2.15227 -3.13404e-19 2.47184)
(2.52894 1.28915e-18 2.72321)
(1.50771 -1.44961e-18 2.54171)
(1.90148 -1.57382e-18 2.81372)
(0.860973 -1.32199e-19 2.58339)
(1.17828 1.04478e-19 2.88628)
(0.651767 -2.34446e-19 2.89722)
(9.98455 -6.7632e-24 0.0884531)
(9.98747 6.99966e-21 0.0632392)
(9.95298 2.11589e-22 0.144765)
(9.96999 -1.0752e-20 0.124541)
(9.90435 3.85682e-21 0.200462)
(9.93378 0 0.184453)
(9.83892 -1.79663e-22 0.257543)
(9.87793 3.8089e-21 0.244946)
(9.75704 -3.88066e-21 0.317471)
(9.80498 -7.73027e-21 0.307885)
(9.65855 4.07625e-21 0.381249)
(9.71612 -7.91338e-21 0.3745)
(9.54301 8.25853e-21 0.449734)
(9.61112 4.06154e-21 0.445759)
(9.40979 -4.7354e-21 0.52371)
(9.48921 2.8141e-23 0.522562)
(9.25817 1.42065e-20 0.603834)
(9.34962 8.5052e-21 0.605708)
(9.0873 -1.54417e-20 0.690615)
(9.1916 9.50347e-21 0.695832)
(8.8963 -3.72582e-20 0.784435)
(9.0143 -3.72892e-20 0.793419)
(8.68423 1.46306e-20 0.88559)
(8.81685 -4.25267e-22 0.898842)
(8.45016 -1.77989e-20 0.994321)
(8.59831 1.48675e-20 1.0124)
(8.19311 1.24389e-19 1.11084)
(8.35774 -4.23737e-20 1.13437)
(7.91209 4.89077e-20 1.23532)
(8.09414 1.54058e-19 1.26501)
(7.60602 -2.67015e-20 1.36791)
(7.80646 -1.80947e-19 1.40453)
(7.27374 -2.87836e-21 1.50862)
(7.49352 1.42013e-19 1.55315)
(6.91402 -2.91127e-19 1.65733)
(7.15402 1.46258e-19 1.71092)
(6.52548 2.97122e-19 1.81357)
(6.78651 -6.46979e-19 1.87768)
(6.10667 8.03332e-20 1.97648)
(6.38934 6.61488e-19 2.05294)
(5.65611 -2.20589e-19 2.14456)
(5.96072 -6.38588e-19 2.23564)
(5.1724 1.1633e-19 2.31558)
(5.49877 4.18606e-19 2.42399)
(4.65442 7.80404e-20 2.48636)
(5.00167 5.85703e-20 2.61528)
(4.10164 -1.07458e-18 2.65272)
(4.46792 -4.52237e-19 2.8056)
(3.51466 2.46283e-19 2.80937)
(3.89663 -6.50401e-19 2.9897)
(2.89587 1.40195e-18 2.95052)
(3.28954 2.45585e-18 3.16079)
(2.25038 0 3.06882)
(2.64313 -1.32772e-18 3.31182)
(1.58694 -1.73062e-21 3.15958)
(1.99466 8.34094e-20 3.43096)
(0.920468 -1.69196e-21 3.20315)
(1.25206 -4.87651e-20 3.51853)
(0.68632 1.58671e-18 3.51675)
(9.98433 -3.9656e-21 0.100045)
(9.98745 4.65781e-24 0.0707922)
(9.95305 -1.08277e-20 0.164799)
(9.97015 -3.67698e-21 0.139998)
(9.90567 0 0.22947)
(9.93475 7.33899e-21 0.208465)
(9.84224 -3.88635e-21 0.295866)
(9.8806 -1.85127e-21 0.277911)
(9.76297 -1.17651e-20 0.365536)
(9.81016 -5.71361e-21 0.350134)
(9.66774 -7.7784e-21 0.439673)
(9.72449 -3.96763e-21 0.426548)
(9.55612 -4.21883e-21 0.519299)
(9.62333 3.97567e-21 0.508303)
(9.42753 1.3374e-20 0.605326)
(9.50599 -8.24645e-21 0.596433)
(9.28127 3.81427e-21 0.698524)
(9.37175 1.72757e-20 0.691849)
(9.11655 -1.29237e-20 0.799504)
(9.21988 -1.74048e-20 0.795291)
(8.93251 0 0.908742)
(9.0496 0 0.907339)
(8.72826 0 1.02662)
(8.86006 3.2847e-20 1.02845)
(8.50286 -1.04107e-20 1.15347)
(8.65038 -3.79846e-20 1.15903)
(8.25536 -1.02939e-20 1.2896)
(8.4196 -1.02848e-20 1.29944)
(7.98468 -7.99057e-20 1.43534)
(8.16671 -2.07838e-20 1.45007)
(7.68966 -8.29477e-21 1.59097)
(7.8906 -7.88138e-20 1.61131)
(7.369 2.91217e-19 1.75673)
(7.58998 1.81695e-19 1.78357)
(7.02116 -2.19145e-19 1.93269)
(7.26333 1.05097e-19 1.96715)
(6.6444 -2.66962e-19 2.11864)
(6.90889 -4.31493e-19 2.16218)
(6.23674 -7.29726e-20 2.31392)
(6.52456 4.20939e-21 2.36846)
(5.79597 1.29915e-20 2.51719)
(6.10792 -1.68228e-20 2.58522)
(5.31979 3.56636e-19 2.72621)
(5.65622 7.37812e-19 2.81089)
(4.80594 -4.77488e-19 2.93753)
(5.16651 1.31315e-19 3.04274)
(4.25267 -3.0914e-20 3.1462)
(4.63592 -9.54834e-19 3.2765)
(3.65927 1.59314e-18 3.34547)
(4.06192 6.12983e-19 3.50598)
(3.02712 -3.1569e-19 3.52709)
(3.44484 1.51819e-18 3.72242)
(2.36109 -1.2277e-18 3.68025)
(2.77929 -1.82817e-18 3.91556)
(1.67062 3.46392e-20 3.79529)
(2.10197 -3.29175e-20 4.06943)
(0.972628 1.55554e-18 3.83985)
(1.32753 -8.93067e-20 4.17697)
(0.716413 1.32138e-19 4.1606)
(9.98447 2.47284e-22 0.111519)
(9.98756 -8.79615e-23 0.0782742)
(9.95385 1.46287e-20 0.184353)
(9.97074 9.44179e-23 0.155131)
(9.90798 5.37215e-21 0.257559)
(9.93649 1.45373e-23 0.231713)
(9.84687 -3.72659e-21 0.332864)
(9.88434 3.70105e-21 0.309672)
(9.77062 2.1054e-21 0.411876)
(9.81674 3.79166e-21 0.390772)
(9.67912 7.88525e-21 0.495948)
(9.73467 3.47353e-23 0.476553)
(9.572 -2.03588e-22 0.586253)
(9.63788 1.18694e-20 0.568327)
(9.44871 -4.02888e-21 0.683824)
(9.52571 -1.618e-20 0.667261)
(9.30859 -4.37292e-21 0.789538)
(9.39751 4.10385e-21 0.77437)
(9.15091 -4.26638e-21 0.904104)
(9.25261 -1.29953e-20 0.890497)
(8.97485 3.32516e-20 1.02809)
(9.09029 1.7399e-20 1.01631)
(8.77957 -6.00609e-21 1.16196)
(8.90975 7.8458e-20 1.15237)
(8.56416 -3.75208e-20 1.30616)
(8.71013 -7.96473e-20 1.29915)
(8.32764 -2.09015e-20 1.46112)
(8.49054 4.86448e-20 1.45715)
(8.06894 -2.03983e-20 1.62733)
(8.24995 -5.01593e-20 1.62691)
(7.7868 1.14335e-19 1.80529)
(7.98721 0 1.80901)
(7.47975 -5.33983e-21 1.99547)
(7.70093 1.12972e-19 2.00412)
(7.14601 -1.13695e-19 2.19826)
(7.38945 -1.04556e-19 2.21285)
(6.78347 -1.55131e-19 2.41381)
(7.05069 2.3862e-20 2.43573)
(6.38957 6.00156e-20 2.64182)
(6.68213 -1.53793e-19 2.67299)
(5.96134 7.16784e-19 2.88131)
(6.28069 2.09597e-19 2.92436)
(5.49538 5.05697e-19 3.13027)
(5.84268 2.94079e-19 3.18871)
(4.98808 -3.5817e-19 3.38521)
(5.36385 1.67103e-19 3.46365)
(4.43592 -2.93655e-19 3.64066)
(4.83958 -4.18976e-19 3.74492)
(3.83622 5.48072e-19 3.88851)
(4.26503 3.2111e-21 4.02568)
(3.18833 -3.14942e-20 4.11787)
(3.63803 4.30903e-20 4.29547)
(2.49562 -6.12451e-19 4.31391)
(2.95022 -5.14872e-19 4.54057)
(1.76723 -1.57645e-19 4.46107)
(2.23536 4.77034e-19 4.74009)
(1.02134 -1.50977e-18 4.51085)
(1.41271 -4.22731e-20 4.87838)
(0.744471 -7.12555e-19 4.8523)
(9.98487 -2.38534e-22 0.12272)
(9.98774 -7.30041e-21 0.0855675)
(9.95521 -1.45206e-20 0.203278)
(9.97165 2.14998e-22 0.169786)
(9.91112 -1.61015e-21 0.284585)
(9.93884 -7.32423e-21 0.25406)
(9.85262 1.12202e-20 0.368362)
(9.88898 2.57896e-23 0.340075)
(9.77977 1.674e-21 0.456273)
(9.82454 7.52748e-21 0.429597)
(9.69247 4.16653e-21 0.549802)
(9.74646 -1.14888e-20 0.524264)
(9.59038 -4.45526e-21 0.650257)
(9.65451 7.14683e-23 0.625529)
(9.47302 -7.79659e-21 0.758788)
(9.54808 -4.20084e-21 0.734679)
(9.33979 -4.72974e-21 0.876375)
(9.42659 8.19672e-21 0.852836)
(9.19001 9.04383e-21 1.00382)
(9.28943 -1.28776e-20 0.980931)
(9.02293 6.33556e-20 1.14177)
(9.13596 1.73996e-20 1.11972)
(8.83776 2.88187e-21 1.2908)
(8.96544 4.11661e-20 1.26985)
(8.63364 8.08671e-21 1.45145)
(8.7771 -4.15938e-20 1.43191)
(8.40964 1.81876e-20 1.62431)
(8.57008 3.92004e-20 1.6065)
(8.16466 -2.91539e-20 1.81004)
(8.34341 -2.47249e-20 1.79433)
(7.8974 0 2.00938)
(8.09592 0 1.99623)
(7.60628 1.11484e-20 2.22313)
(7.82621 0 2.21313)
(7.28934 3.45411e-20 2.45208)
(7.53248 -1.02509e-20 2.44605)
(6.9441 2.31023e-20 2.69684)
(7.21247 2.33791e-20 2.69601)
(6.56749 0 2.95769)
(6.86328 0 2.96384)
(6.15573 -2.12175e-19 3.23424)
(6.48123 -1.89338e-19 3.24998)
(5.70426 -4.59381e-20 3.52507)
(6.06172 -1.7304e-20 3.5541)
(5.20778 9.99071e-20 3.82709)
(5.59905 1.59693e-19 3.87461)
(4.66049 -1.17438e-19 4.13479)
(5.0865 -5.73483e-20 4.20786)
(4.05676 -5.01366e-19 4.43918)
(4.51625 -6.00652e-20 4.54713)
(3.39243 -4.46359e-19 4.72697)
(3.88223 -6.63527e-19 4.88097)
(2.66745 5.85579e-19 4.97886)
(3.17129 2.28501e-19 5.19251)
(1.8887 5.85449e-19 5.17231)
(2.41109 8.30112e-19 5.45529)
(1.07448 7.48694e-19 5.23953)
(1.52164 -2.68661e-19 5.64345)
(0.77716 6.6623e-19 5.62399)
(9.98543 -6.75248e-21 0.133529)
(9.98799 -7.57651e-21 0.092588)
(9.957 7.31594e-21 0.221441)
(9.9728 9.99611e-22 0.183836)
(9.91494 -5.59571e-21 0.310405)
(9.94168 4.50534e-22 0.275375)
(9.85934 -3.57389e-21 0.402185)
(9.89439 -1.01748e-21 0.368971)
(9.79025 -5.87242e-21 0.498506)
(9.8334 3.70023e-21 0.466422)
(9.70756 -1.54397e-20 0.600961)
(9.75968 -6.54009e-23 0.56945)
(9.61101 2.72682e-22 0.71098)
(9.67301 -1.54913e-20 0.679625)
(9.50018 1.19458e-20 0.829822)
(9.57283 1.95673e-20 0.798349)
(9.37452 -2.1073e-22 0.95856)
(9.45865 4.09256e-21 0.926837)
(9.23343 -4.14952e-21 1.09808)
(9.32994 -4.20118e-21 1.06611)
(9.07627 -4.4992e-21 1.24912)
(9.18615 -1.69251e-20 1.21699)
(8.9023 -4.32106e-21 1.41234)
(9.02663 8.36631e-21 1.38022)
(8.71076 -9.49399e-21 1.58841)
(8.8507 4.52441e-21 1.55647)
(8.50075 -4.4862e-21 1.77804)
(8.65759 -4.61029e-20 1.74649)
(8.27124 4.73007e-21 1.98212)
(8.4464 3.70875e-20 1.95115)
(8.02094 0 2.20165)
(8.21604 0 2.17151)
(7.74824 -2.15208e-20 2.4378)
(7.96515 -4.87143e-21 2.40883)
(7.45105 -2.10149e-20 2.69183)
(7.69192 -1.59967e-20 2.66459)
(7.12667 0 2.96499)
(7.39399 0 2.94036)
(6.77161 -1.91552e-19 3.25829)
(7.06826 0 3.23776)
(6.38135 7.47991e-21 3.57227)
(6.7106 -9.94884e-20 3.55816)
(5.95018 1.90295e-19 3.90653)
(6.31562 1.93651e-19 3.90245)
(5.47097 0 4.25904)
(5.87629 -9.76727e-20 4.27043)
(4.93515 0 4.62513)
(5.38364 -8.388e-20 4.65997)
(4.33306 -2.28972e-19 4.99596)
(4.82627 9.72553e-20 5.06572)
(3.65513 2.18715e-20 5.35675)
(4.1927 -2.76987e-19 5.47682)
(2.89484 4.79255e-19 5.6839)
(3.46245 2.98165e-19 5.87462)
(2.05341 -3.99289e-20 5.94636)
(2.65238 3.02546e-19 6.22702)
(1.14797 -3.42193e-19 6.05227)
(1.67631 -1.80868e-19 6.49474)
(0.826453 -2.19703e-19 6.50526)
(9.98613 2.83998e-22 0.143854)
(9.98829 6.85819e-21 0.0992726)
(9.95913 -5.8731e-21 0.238722)
(9.97413 -6.354e-21 0.197177)
(9.91934 5.01072e-21 0.334884)
(9.94492 1.34034e-21 0.295539)
(9.86691 6.31469e-21 0.434172)
(9.90043 -5.41271e-21 0.396222)
(9.80188 9.46014e-21 0.538374)
(9.84318 3.65825e-21 0.501077)
(9.7242 -3.0878e-22 0.649179)
(9.77415 3.86047e-21 0.6119)
(9.63364 4.2374e-21 0.768125)
(9.69314 -1.21376e-22 0.730362)
(9.52986 1.15231e-20 0.896569)
(9.59968 7.79737e-21 0.857964)
(9.4124 0 1.03567)
(9.49336 -7.90321e-21 0.996006)
(9.28075 -1.7133e-20 1.18638)
(9.37375 7.96737e-21 1.14558)
(9.13436 -3.75165e-21 1.34953)
(9.24038 -2.09941e-20 1.30759)
(8.97261 1.7165e-20 1.52586)
(9.09273 2.11989e-20 1.48283)
(8.79482 -3.27012e-20 1.71614)
(8.93024 3.90784e-20 1.67207)
(8.60023 -3.52637e-21 1.92125)
(8.75227 -6.938e-20 1.87618)
(8.38788 3.19122e-20 2.14226)
(8.55804 3.23026e-20 2.09619)
(8.1566 -4.93007e-21 2.38048)
(8.34661 0 2.33341)
(7.90481 5.1825e-22 2.63747)
(8.11673 -9.26872e-23 2.58944)
(7.63047 5.20672e-21 2.91503)
(7.86673 1.01642e-20 2.8662)
(7.33079 0 3.21513)
(7.59433 -7.94068e-20 3.16593)
(7.00207 9.09255e-20 3.53973)
(7.29642 8.25027e-20 3.4911)
(6.6393 9.00338e-20 3.89062)
(6.96874 8.85759e-20 3.84428)
(6.2358 -9.76341e-20 4.26896)
(6.60543 1.15683e-21 4.22792)
(5.78273 -1.81404e-19 4.67462)
(6.19849 -9.22469e-20 4.64394)
(5.26856 1.54494e-20 5.10507)
(5.73701 -9.49515e-20 5.09288)
(4.67875 4.49888e-20 5.55344)
(5.20591 9.72597e-20 5.57258)
(3.9961 6.19673e-21 6.00568)
(4.5872 -5.05678e-20 6.07552)
(3.20322 1.21544e-19 6.43553)
(3.84995 9.87064e-20 6.58475)
(2.2887 1.53839e-19 6.80217)
(2.99299 -1.22047e-19 7.06504)
(1.26235 -5.68477e-20 6.98032)
(1.9099 2.60345e-19 7.46045)
(0.911719 -1.17319e-19 7.53872)
(9.98693 5.63422e-23 0.153618)
(9.98862 0 0.105572)
(9.96153 9.55988e-22 0.25502)
(9.97561 7.06062e-21 0.209724)
(9.92422 -9.16673e-21 0.357901)
(9.94848 1.33014e-21 0.314447)
(9.87519 -7.9565e-21 0.464175)
(9.90702 -1.03649e-20 0.421705)
(9.81452 -1.9389e-21 0.575696)
(9.85375 -5.35143e-21 0.53341)
(9.74218 3.99824e-21 0.694237)
(9.78969 7.29598e-21 0.651427)
(9.65802 3.53705e-21 0.821427)
(9.71469 1.1077e-22 0.777511)
(9.56177 -1.18225e-20 0.958707)
(9.62836 -3.82616e-21 0.913249)
(9.45306 2.58626e-22 1.10731)
(9.53037 -1.55628e-20 1.06001)
(9.33151 3.75157e-21 1.26826)
(9.4204 -3.93788e-21 1.21895)
(9.19665 4.47046e-21 1.44245)
(9.29811 1.389e-20 1.39103)
(9.04801 4.33301e-20 1.63068)
(9.16311 4.26806e-21 1.5771)
(8.88506 1.08952e-21 1.83383)
(9.01497 3.46247e-20 1.77801)
(8.70717 -3.23274e-20 2.05291)
(8.85322 -3.48725e-20 1.99471)
(8.51356 0 2.2892)
(8.67729 0 2.22841)
(8.30321 4.83545e-21 2.54428)
(8.48641 -3.56234e-20 2.48061)
(8.07476 9.67329e-21 2.82012)
(8.27959 4.89197e-21 2.75323)
(7.82632 -7.55159e-20 3.11908)
(8.0554 3.91146e-20 3.04867)
(7.55528 4.97512e-21 3.4439)
(7.81187 -7.94146e-20 3.36979)
(7.258 8.02186e-20 3.79765)
(7.54617 8.93599e-20 3.71998)
(6.92938 -1.29188e-21 4.18362)
(7.25429 -3.95929e-20 4.10314)
(6.56229 5.4954e-21 4.60507)
(6.93052 9.57527e-20 4.5236)
(6.14671 -5.81907e-21 5.06471)
(6.5666 -1.4479e-20 4.98596)
(5.66859 -1.09308e-20 5.56381)
(6.15062 -1.10603e-20 5.49466)
(5.1084 0 6.10025)
(5.66484 3.708e-20 6.05303)
(4.43956 4.37744e-20 6.66496)
(5.08504 0 6.66099)
(3.62824 -1.47612e-19 7.23438)
(4.36778 2.96126e-21 7.31022)
(2.63748 -9.1389e-21 7.76095)
(3.48465 -1.87995e-19 7.97192)
(1.44849 1.97748e-19 8.07341)
(2.28114 2.07484e-19 8.57935)
(1.07258 -2.22999e-20 8.81314)
(9.98781 7.09186e-21 0.162762)
(9.98899 0 0.111448)
(9.96416 7.36218e-21 0.270246)
(9.97722 7.39148e-23 0.221407)
(9.92951 -1.42594e-23 0.37935)
(9.95231 4.94686e-22 0.332008)
(9.88408 -7.69767e-21 0.492066)
(9.91406 6.55064e-21 0.445311)
(9.82801 4.04061e-21 0.610315)
(9.86498 7.949e-21 0.56329)
(9.76131 3.31951e-21 0.73594)
(9.80613 6.46163e-21 0.68787)
(9.68389 -7.30064e-21 0.870649)
(9.73744 -3.801e-21 0.820879)
(9.59557 -7.71014e-21 1.01596)
(9.65857 3.82529e-21 0.963972)
(9.4961 -1.96173e-20 1.17315)
(9.56931 -1.14169e-20 1.11858)
(9.38519 6.41628e-21 1.34331)
(9.46945 -1.76795e-20 1.28589)
(9.26253 1.35705e-20 1.52736)
(9.35878 1.79916e-20 1.46692)
(9.12778 -4.06839e-21 1.72619)
(9.23707 -2.01122e-20 1.66255)
(8.98059 -2.17441e-21 1.94073)
(9.10405 8.07634e-22 1.87368)
(8.82052 -2.12243e-21 2.17211)
(8.95945 1.44574e-20 2.10134)
(8.64703 -3.60532e-20 2.42178)
(8.80292 0 2.34685)
(8.45934 -3.50945e-20 2.69157)
(8.634 -6.9742e-20 2.61189)
(8.25642 3.47291e-20 2.98382)
(8.45199 -2.86598e-21 2.89865)
(8.03674 3.38157e-20 3.30142)
(8.2559 7.11235e-20 3.20992)
(7.79809 6.93136e-21 3.64788)
(8.04425 -8.62281e-21 3.54914)
(7.53732 -3.19698e-20 4.0274)
(7.81483 -2.1876e-21 3.92057)
(7.24977 5.90249e-20 4.44491)
(7.56439 -3.82893e-20 4.32939)
(6.92867 7.45061e-20 4.90609)
(7.28808 7.5353e-20 4.78188)
(6.56397 -1.96764e-20 5.41735)
(6.97856 -3.58524e-20 5.28563)
(6.14056 3.75247e-20 5.98542)
(6.62472 3.42289e-20 5.84982)
(5.63549 3.66318e-20 6.61641)
(6.20877 -3.24682e-20 6.48536)
(5.01337 -4.08059e-20 7.31303)
(5.7037 0 7.20448)
(4.2199 -3.98047e-20 8.06682)
(5.05665 -1.32676e-19 8.0184)
(3.17413 3.57062e-20 8.84168)
(4.20799 1.21336e-19 8.92749)
(1.77674 -1.53278e-20 9.42247)
(2.91062 4.55256e-21 9.89319)
(1.40786 6.15046e-20 10.513)
(9.98875 -7.017e-21 0.171236)
(9.98937 -1.35547e-20 0.116869)
(9.96696 -6.78825e-21 0.284328)
(9.97891 -5.99717e-23 0.232169)
(9.93512 7.13579e-21 0.399137)
(9.95636 5.43553e-23 0.348145)
(9.89348 2.22144e-20 0.517734)
(9.92147 -6.8958e-21 0.466948)
(9.84221 1.03515e-20 0.642097)
(9.87675 7.61976e-21 0.590606)
(9.78139 -7.85953e-22 0.774132)
(9.82332 -1.43921e-21 0.721097)
(9.711 7.41894e-21 0.915608)
(9.76115 9.10962e-22 0.860305)
(9.63095 -6.84163e-23 1.06809)
(9.69003 3.83099e-21 1.00994)
(9.5411 -9.55559e-21 1.23292)
(9.60981 -8.3918e-23 1.17147)
(9.44129 -5.66974e-21 1.41121)
(9.52043 -3.88077e-21 1.34613)
(9.33135 -1.61566e-20 1.60391)
(9.42182 -5.70555e-21 1.53492)
(9.21112 -1.49856e-20 1.81193)
(9.31389 -9.25713e-21 1.73877)
(9.08044 1.76011e-20 2.03627)
(9.19658 -1.83108e-22 1.95859)
(8.93912 1.64057e-20 2.27813)
(9.06984 1.63553e-20 2.19545)
(8.78686 -3.45277e-20 2.53907)
(8.9336 0 2.45074)
(8.62328 -3.67371e-20 2.82113)
(8.78771 -1.77916e-20 2.72626)
(8.44772 3.43813e-20 3.12693)
(8.63191 -3.37152e-20 3.02439)
(8.25922 2.77348e-20 3.4598)
(8.46574 5.3385e-20 3.34818)
(8.05627 -1.76614e-20 3.82393)
(8.28842 -8.28629e-21 3.70154)
(7.83657 -8.92591e-21 4.22449)
(8.09866 -9.03369e-21 4.0894)
(7.59661 -2.06347e-20 4.66798)
(7.89446 0 4.51797)
(7.33101 -3.62562e-20 5.16248)
(7.67266 -3.61439e-20 4.99519)
(7.0314 1.89214e-20 5.71831)
(7.42826 -3.12408e-20 5.53138)
(6.68439 -3.64442e-20 6.3487)
(7.15336 9.43962e-20 6.1403)
(6.26793 -6.86021e-20 7.07092)
(6.8346 -2.13334e-19 6.84101)
(5.74397 -9.35437e-20 7.9074)
(6.45042 8.11082e-20 7.66107)
(5.04328 3.20415e-20 8.88558)
(5.95376 -9.77443e-20 8.64215)
(4.03096 8.78922e-20 10.035)
(5.27979 1.21467e-19 9.84993)
(2.43163 8.49504e-20 11.2064)
(4.07822 -3.15893e-20 11.393)
(2.21266 1.27848e-19 13.0611)
(9.98974 -6.43005e-21 0.179002)
(9.98978 1.16841e-20 0.121814)
(9.96991 6.78381e-21 0.297205)
(9.98068 6.19964e-21 0.241963)
(9.94099 -1.4064e-20 0.417184)
(9.96057 -7.79738e-25 0.362799)
(9.90327 -2.13084e-20 0.541077)
(9.92915 -1.32673e-20 0.486541)
(9.85698 -4.28327e-21 0.670911)
(9.88895 -7.63927e-21 0.615268)
(9.80224 2.87095e-22 0.808642)
(9.8411 -1.94171e-22 0.750999)
(9.7391 -2.64105e-21 0.956088)
(9.78567 -1.93434e-21 0.895662)
(9.66758 3.7674e-21 1.11486)
(9.72253 2.62449e-21 1.051)
(9.58764 5.54426e-21 1.28631)
(9.65164 -3.17564e-21 1.21852)
(9.49927 -3.93931e-21 1.47157)
(9.57308 5.39663e-21 1.39944)
(9.40245 1.14892e-21 1.67161)
(9.4869 1.23515e-21 1.5948)
(9.29721 5.6527e-21 1.88734)
(9.39321 6.56721e-22 1.80547)
(9.1836 -1.23293e-21 2.11977)
(9.29215 -8.70213e-21 2.03239)
(9.06169 -2.48237e-22 2.37013)
(9.18392 7.01241e-21 2.27662)
(8.93151 1.65236e-20 2.64006)
(9.06872 0 2.53954)
(8.79306 -1.49674e-20 2.93169)
(8.94681 1.66342e-20 2.82301)
(8.64624 -1.36973e-20 3.24782)
(8.81839 -4.98737e-20 3.12948)
(8.49075 1.66231e-20 3.59208)
(8.68364 3.16991e-20 3.46215)
(8.32599 3.28699e-22 3.96909)
(8.54261 4.23519e-21 3.82514)
(8.15094 0 4.38474)
(8.39521 3.69856e-21 4.22376)
(7.96382 -1.59416e-20 4.84664)
(8.24105 -1.41188e-20 4.6648)
(7.76176 -3.10723e-20 5.36473)
(8.07936 1.23454e-20 5.15716)
(7.54003 4.57668e-20 5.95246)
(7.90875 1.17824e-20 5.71277)
(7.29072 -8.59848e-20 6.62875)
(7.72698 1.11471e-19 6.34828)
(6.99999 -6.0305e-20 7.42168)
(7.53025 -1.25005e-19 7.0882)
(6.64189 7.50751e-20 8.37602)
(7.31405 1.47795e-20 7.97144)
(6.16246 -4.88084e-21 9.57147)
(7.06731 -2.53317e-20 9.06635)
(5.42772 0 11.1917)
(6.8206 2.43672e-20 10.5155)
(3.9806 -2.91466e-20 13.7791)
(6.5861 -2.26903e-20 12.7407)
(5.78481 7.71391e-20 17.4255)
(-0.562839 -2.63986e-19 0.344212)
(-0.154552 -1.77425e-20 0.53493)
(-1.2241 -1.07494e-19 0.381708)
(-0.997424 0 0.610279)
(-1.98008 -2.09647e-19 0.406371)
(-1.63778 -8.98799e-21 0.679886)
(-2.79677 8.66387e-20 0.413069)
(-2.48462 1.76279e-19 0.7188)
(-3.65394 -1.57882e-19 0.406412)
(-3.34199 1.9039e-19 0.739874)
(-4.52024 -1.09062e-19 0.384334)
(-4.22605 -3.54888e-19 0.733681)
(-5.36164 1.76453e-19 0.347575)
(-5.09809 -1.48963e-19 0.699056)
(-6.14046 -4.19537e-20 0.296789)
(-5.92191 2.23451e-19 0.634473)
(-6.8168 4.04138e-20 0.233287)
(-6.65752 -7.46618e-20 0.539958)
(-7.3507 0 0.158982)
(-7.2636 0 0.417478)
(-7.70507 1.75007e-20 0.0762327)
(-7.70013 -7.30444e-20 0.271246)
(-7.84844 5.54995e-22 -0.0125834)
(-7.93233 9.06502e-20 0.107342)
(-7.75982 -1.76778e-20 -0.105002)
(-7.93539 4.80835e-20 -0.0650382)
(-7.42879 0 -0.195655)
(-7.69561 -8.04098e-20 -0.237402)
(-6.86531 5.95513e-21 -0.276889)
(-7.21678 2.64537e-20 -0.395078)
(-6.09716 -4.37416e-22 -0.342654)
(-6.52107 -1.44888e-20 -0.526508)
(-5.1647 -7.13799e-21 -0.389307)
(-5.64516 -3.82739e-21 -0.624748)
(-4.11519 -1.8258e-21 -0.415633)
(-4.63492 -2.90133e-21 -0.687298)
(-2.99765 -1.32223e-21 -0.42281)
(-3.53878 -2.27906e-21 -0.715296)
(-1.85641 0 -0.413034)
(-2.39636 8.34369e-22 -0.713904)
(-0.729146 -2.04188e-22 -0.388366)
(-1.25057 0 -0.689173)
(0.35178 -2.35407e-23 -0.354172)
(-0.103146 -2.06557e-22 -0.645857)
(1.36734 2.07087e-22 -0.316742)
(0.92986 4.1642e-22 -0.59305)
(2.30409 3.91807e-23 -0.279721)
(1.91875 -1.95304e-22 -0.534642)
(3.16062 2.32257e-23 -0.245044)
(2.83211 -9.36096e-24 -0.477821)
(3.93743 6.93021e-25 -0.213118)
(3.66474 0 -0.423581)
(4.63728 -8.80557e-26 -0.18441)
(4.41861 7.00971e-25 -0.373044)
(5.2656 -6.75352e-25 -0.159418)
(5.09808 2.72974e-24 -0.327421)
(5.83074 0 -0.141301)
(5.70738 -4.83766e-24 -0.287935)
(6.37891 1.51594e-24 -0.264406)
(-0.603027 2.45327e-19 0.893865)
(-0.17023 2.27814e-18 1.15316)
(-1.33739 9.80828e-20 0.988133)
(-1.04246 -1.61157e-18 1.29464)
(-2.13574 3.736e-19 1.05961)
(-1.73938 -1.57478e-18 1.40348)
(-2.98835 2.79412e-19 1.10126)
(-2.61941 1.45552e-18 1.47346)
(-3.87131 0 1.11082)
(-3.50215 0 1.50495)
(-4.75654 -3.97759e-19 1.08071)
(-4.4056 1.56236e-19 1.48518)
(-5.61013 -1.0722e-19 1.00775)
(-5.29062 -3.27458e-19 1.40914)
(-6.39414 1.94038e-19 0.890374)
(-6.12144 3.04104e-19 1.27345)
(-7.06808 -1.15868e-19 0.729702)
(-6.85752 -4.14243e-20 1.07786)
(-7.59124 -7.22346e-20 0.529932)
(-7.45656 1.4776e-19 0.826188)
(-7.92578 -1.72085e-21 0.298537)
(-7.87735 -3.28924e-19 0.526849)
(-8.04095 1.38599e-19 0.0457244)