/*--------------------------------*- C++ -*----------------------------------*\
| =========                 |                                                 |
| \\      /  F ield         | OpenFOAM: The Open Source CFD Toolbox           |
|  \\    /   O peration     | Version:  4.1                                   |
|   \\  /    A nd           | Web:      www.OpenFOAM.org                      |
|    \\/     M anipulation  |                                                 |
\*---------------------------------------------------------------------------*/
FoamFile
{
    version     2.0;
    format      ascii;
    class       volVectorField;
    location    "3.9";
    object      Force;
}
// * * * * * * * * * * * * * * * * * * * * * * * * * * * * * * * * * * * * * //

dimensions      [1 1 -2 0 0 0 0];

internalField   uniform (0 0 0);

boundaryField
{
    inlet
    {
        type            calculated;
        value           uniform (0 0 0);
    }
    outlet
    {
        type            calculated;
        value           uniform (0 0 0);
    }
    flap
    {
        type            calculated;
        value           nonuniform List<vector> 
33
(
(3.82969 -0.157256 1.23686e-18)
(3.78675 -0.312754 1.37502e-21)
(3.75729 -0.420735 -1.02415e-20)
(3.73391 -0.482313 -3.28344e-18)
(3.70682 -0.511405 3.29369e-18)
(3.67461 -0.524643 1.66287e-18)
(3.62511 -0.530925 4.15655e-22)
(3.55619 -0.516867 1.16759e-20)
(3.47289 -0.481124 2.57005e-22)
(3.37754 -0.447049 -1.63286e-18)
(3.25109 -0.422703 -2.75988e-18)
(3.08105 -0.403203 4.1584e-18)
(2.83941 -0.382276 3.82625e-18)
(2.49234 -0.335988 1.60058e-18)
(1.92807 -0.255395 1.06546e-18)
(0.075881 0.544893 -4.85e-19)
(0.0426602 0.312309 -8.15455e-19)
(0.0125575 0.105322 -1.41373e-21)
(-0.0167889 0.000758997 1.45116e-18)
(-0.0167417 0.00138733 1.50966e-18)
(-0.016326 0.0017331 1.55867e-18)
(-0.0159707 0.00184462 2.18376e-20)
(-0.0162162 0.00191742 1.59564e-18)
(-0.0169033 0.00202116 1.60779e-18)
(-0.0177196 0.00214319 3.57424e-24)
(-0.01892 0.0022699 0)
(-0.0216724 0.00253918 -1.66105e-18)
(-0.0261004 0.00309379 -1.68971e-18)
(-0.0311069 0.00381471 -1.46937e-39)
(-0.0354397 0.0046457 3.29461e-18)
(-0.038998 0.00551024 -1.65938e-18)
(-0.0378549 0.00564766 -1.6955e-18)
(-0.0274971 0.00459081 1.77634e-18)
)
;
    }
    upperWall
    {
        type            calculated;
        value           uniform (0 0 0);
    }
    lowerWall
    {
        type            calculated;
        value           uniform (0 0 0);
    }
    frontAndBack
    {
        type            empty;
    }
}


// ************************************************************************* //
