/*--------------------------------*- C++ -*----------------------------------*\
| =========                 |                                                 |
| \\      /  F ield         | OpenFOAM: The Open Source CFD Toolbox           |
|  \\    /   O peration     | Version:  4.1                                   |
|   \\  /    A nd           | Web:      www.OpenFOAM.org                      |
|    \\/     M anipulation  |                                                 |
\*---------------------------------------------------------------------------*/
FoamFile
{
    version     2.0;
    format      ascii;
    class       volVectorField;
    location    "0.5";
    object      Force;
}
// * * * * * * * * * * * * * * * * * * * * * * * * * * * * * * * * * * * * * //

dimensions      [1 1 -2 0 0 0 0];

internalField   uniform (0 0 0);

boundaryField
{
    inlet
    {
        type            calculated;
        value           uniform (0 0 0);
    }
    outlet
    {
        type            calculated;
        value           uniform (0 0 0);
    }
    flap
    {
        type            calculated;
        value           nonuniform List<vector> 
33
(
(2.55331 -0.097303 9.77712e-19)
(2.5422 -0.207048 1.13228e-19)
(2.52453 -0.303581 1.24126e-20)
(2.49652 -0.371305 -1.73135e-18)
(2.45542 -0.412008 1.69956e-18)
(2.39787 -0.431954 1.84847e-18)
(2.32338 -0.424914 1.67408e-18)
(2.2423 -0.401154 -1.38462e-18)
(2.14867 -0.37332 -1.26988e-18)
(2.03542 -0.339427 -1.64177e-18)
(1.90386 -0.300377 -1.64099e-18)
(1.73869 -0.269443 -7.02023e-19)
(1.50882 -0.240114 -2.02503e-18)
(1.17328 -0.193786 1.61042e-18)
(0.649461 -0.106156 -6.60705e-19)
(0.1818 1.03176 -4.01202e-21)
(0.142042 0.817654 -2.35099e-38)
(0.109628 0.636669 -7.89498e-19)
(0.585348 -0.0241225 -7.34684e-40)
(0.586726 -0.0508223 -3.2692e-22)
(0.59419 -0.0747647 4.583e-22)
(0.610811 -0.0931794 2.4129e-18)
(0.639219 -0.108751 4.08799e-18)
(0.680597 -0.122533 1.63661e-18)
(0.733947 -0.132351 9.90907e-19)
(0.794301 -0.139194 7.3308e-23)
(0.857053 -0.146053 1.67542e-18)
(0.91723 -0.149412 -2.906e-18)
(0.966697 -0.15038 1.66747e-18)
(1.00155 -0.154891 -7.34684e-40)
(1.02104 -0.164447 1.00282e-22)
(1.02961 -0.173211 -1.04163e-22)
(1.03029 -0.176571 -1.82477e-18)
)
;
    }
    upperWall
    {
        type            calculated;
        value           uniform (0 0 0);
    }
    lowerWall
    {
        type            calculated;
        value           uniform (0 0 0);
    }
    frontAndBack
    {
        type            empty;
    }
}


// ************************************************************************* //
