/*--------------------------------*- C++ -*----------------------------------*\
| =========                 |                                                 |
| \\      /  F ield         | OpenFOAM: The Open Source CFD Toolbox           |
|  \\    /   O peration     | Version:  4.1                                   |
|   \\  /    A nd           | Web:      www.OpenFOAM.org                      |
|    \\/     M anipulation  |                                                 |
\*---------------------------------------------------------------------------*/
FoamFile
{
    version     2.0;
    format      ascii;
    class       volVectorField;
    location    "3.4";
    object      Force;
}
// * * * * * * * * * * * * * * * * * * * * * * * * * * * * * * * * * * * * * //

dimensions      [1 1 -2 0 0 0 0];

internalField   uniform (0 0 0);

boundaryField
{
    inlet
    {
        type            calculated;
        value           uniform (0 0 0);
    }
    outlet
    {
        type            calculated;
        value           uniform (0 0 0);
    }
    flap
    {
        type            calculated;
        value           nonuniform List<vector> 
33
(
(3.76134 1.72551e-18 -0.0956681)
(3.73565 -1.69967e-18 -0.176516)
(3.72258 -9.50806e-21 -0.236025)
(3.71418 -2.85319e-22 -0.276487)
(3.70098 5.8208e-18 -0.311954)
(3.67525 2.48276e-18 -0.346531)
(3.63294 -4.11431e-18 -0.380592)
(3.57144 -1.67786e-18 -0.413138)
(3.48817 4.71443e-18 -0.443428)
(3.37964 4.57806e-18 -0.467975)
(3.24223 -4.40513e-18 -0.480105)
(3.06762 -4.17288e-18 -0.474782)
(2.83491 1.88079e-37 -0.448444)
(2.49455 -1.58222e-18 -0.395823)
(1.9161 -1.50546e-18 -0.302184)
(0.108166 -1.63113e-21 0.659006)
(0.0683084 8.1172e-19 0.41844)
(0.0235026 1.54513e-18 0.154151)
(-0.0181971 0 0.000464704)
(-0.0179999 -6.98326e-24 0.000769817)
(-0.0181667 -2.09875e-24 0.000982596)
(-0.0187865 1.58983e-18 0.00114159)
(-0.019596 -1.33896e-20 0.00132633)
(-0.0204997 -1.39945e-20 0.00156204)
(-0.0217684 -3.18918e-18 0.0018906)
(-0.0236015 -3.21996e-20 0.00235647)
(-0.0259561 1.59598e-18 0.00297624)
(-0.0282377 3.85125e-20 0.00366355)
(-0.029727 -1.64952e-18 0.00425777)
(-0.0302489 1.1687e-24 0.00471093)
(-0.029276 1.46937e-39 0.00488924)
(-0.0253095 -3.36984e-20 0.00452442)
(-0.0170805 0 0.00318758)
)
;
    }
    upperWall
    {
        type            calculated;
        value           uniform (0 0 0);
    }
    lowerWall
    {
        type            calculated;
        value           uniform (0 0 0);
    }
    frontAndBack
    {
        type            empty;
    }
}


// ************************************************************************* //
