/*--------------------------------*- C++ -*----------------------------------*\
| =========                 |                                                 |
| \\      /  F ield         | OpenFOAM: The Open Source CFD Toolbox           |
|  \\    /   O peration     | Version:  4.1                                   |
|   \\  /    A nd           | Web:      www.OpenFOAM.org                      |
|    \\/     M anipulation  |                                                 |
\*---------------------------------------------------------------------------*/
FoamFile
{
    version     2.0;
    format      ascii;
    class       surfaceScalarField;
    location    "3.4";
    object      phi;
}
// * * * * * * * * * * * * * * * * * * * * * * * * * * * * * * * * * * * * * //

dimensions      [0 3 -1 0 0 0 0];

internalField   nonuniform List<scalar> 
5457
(
0.198556
0.00168593
0.19675
0.00202184
0.194578
0.00235314
0.192
0.00272796
0.189022
0.0031
0.185651
0.00346533
0.181888
0.00383282
0.177725
0.00421003
0.17315
0.00460201
0.168147
0.00501253
0.162695
0.00544475
0.156771
0.00590137
0.150351
0.00638448
0.14341
0.00689534
0.13592
0.00743401
0.127858
0.00799889
0.119203
0.00858606
0.109943
0.00918852
0.100074
0.00979539
0.0896119
0.0103909
0.0785921
0.0109534
0.0670801
0.0114541
0.0551784
0.0118563
0.0430348
0.0121145
0.0308508
0.0121752
0.0188807
0.011985
0.00738943
0.0115313
-0.00260176
0.0100535
-0.00533402
0.00280409
-0.00522782
0.200164
0.00176455
0.1996
0.00280172
0.198552
0.00358374
0.197063
0.00436718
0.195138
0.0051474
0.192779
0.00591882
0.189988
0.00669462
0.186757
0.0074887
0.183076
0.00831128
0.178928
0.00917015
0.174294
0.010072
0.169151
0.0110225
0.163475
0.0120264
0.157238
0.0130867
0.150413
0.0142043
0.142972
0.015377
0.134892
0.016598
0.126154
0.0178547
0.11675
0.0191265
0.106685
0.0203836
0.0959879
0.0215834
0.0847132
0.0226687
0.0729559
0.0235646
0.0608621
0.0241743
0.0486526
0.024369
0.0366838
0.0239598
0.0256595
0.0225854
0.0165351
0.0192302
0.00674427
0.0126616
0.00162586
0.200018
0.00199023
0.19952
0.00351666
0.198546
0.00474095
0.197159
0.00590626
0.195372
0.00705777
0.193187
0.00819947
0.190606
0.00934699
0.187626
0.0105188
0.184236
0.0117299
0.180425
0.0129922
0.176176
0.0143158
0.171469
0.0157095
0.166281
0.017181
0.160588
0.0187359
0.154363
0.0203769
0.147576
0.0221029
0.1402
0.0239068
0.13221
0.0257733
0.123587
0.0276767
0.11432
0.0295778
0.104414
0.0314192
0.0938976
0.0331216
0.0828281
0.0345791
0.0713087
0.0356508
0.0595035
0.0361463
0.0476583
0.0357952
0.0360657
0.0341893
0.024676
0.0306542
0.012849
0.0245477
0.0145362
0.199938
0.00229755
0.199442
0.00423172
0.198489
0.00587843
0.197128
0.00742131
0.195377
0.00893244
0.193244
0.0104306
0.19073
0.0119347
0.187833
0.0134667
0.184549
0.0150454
0.180868
0.016686
0.176778
0.0184017
0.172266
0.020204
0.167314
0.0221028
0.161903
0.0241062
0.156009
0.0262192
0.149611
0.0284423
0.142683
0.03077
0.1352
0.0331872
0.127138
0.0356671
0.118475
0.038167
0.109199
0.0406232
0.0993071
0.0429448
0.0888157
0.0450083
0.0777628
0.04665
0.066212
0.047654
0.0542401
0.0477379
0.0418798
0.0465384
0.0289901
0.0435567
0.015173
0.0384145
0.0297123
0.199901
0.00264424
0.199399
0.00495516
0.198466
0.00699773
0.197133
0.00890967
0.195421
0.0107715
0.193336
0.0126154
0.190881
0.0144657
0.188055
0.0163466
0.184853
0.0182804
0.181269
0.0202853
0.177294
0.0223766
0.172915
0.024568
0.16812
0.0268714
0.162891
0.0292967
0.157212
0.0318509
0.151063
0.0345365
0.14442
0.0373498
0.137265
0.0402782
0.129565
0.0432967
0.121294
0.0463632
0.112429
0.0494146
0.102942
0.0523601
0.0928099
0.055072
0.0820122
0.0573842
0.070527
0.0590816
0.0583243
0.0598923
0.0453391
0.0594912
0.0314256
0.0574622
0.0163218
0.0535539
0.0459972
0.199887
0.00300857
0.199384
0.00568091
0.198476
0.00809513
0.197181
0.0103634
0.195515
0.0125661
0.193488
0.0147453
0.191102
0.0169307
0.188355
0.0191497
0.185245
0.0214273
0.181765
0.0237843
0.177906
0.0262382
0.173659
0.0288046
0.169011
0.0314971
0.163946
0.0343277
0.158449
0.0373055
0.152499
0.0404348
0.146075
0.0437141
0.139159
0.047134
0.131715
0.0506743
0.123708
0.0542975
0.115103
0.0579462
0.105853
0.0615376
0.0959033
0.0649503
0.0851946
0.0680246
0.0736483
0.0705594
0.0611768
0.072299
0.047682
0.0729377
0.0330282
0.0720919
0.0170612
0.0695386
0.0630149
0.199885
0.00337812
0.199392
0.00640059
0.198513
0.00916612
0.197262
0.011776
0.195652
0.0143079
0.193693
0.0168105
0.191387
0.0193188
0.188734
0.0218636
0.185729
0.0244725
0.182367
0.0271687
0.17864
0.029972
0.174539
0.0329
0.170051
0.0359682
0.165159
0.039191
0.159847
0.0425793
0.154096
0.0461401
0.147879
0.0498752
0.141174
0.0537797
0.133949
0.0578392
0.126155
0.062026
0.117739
0.066293
0.108638
0.070568
0.0987707
0.0747466
0.0880502
0.0786769
0.076369
0.0821683
0.0636076
0.0849877
0.0496494
0.0868392
0.0343758
0.0873323
0.0177115
0.0862053
0.0806889
0.199891
0.00374516
0.199415
0.00710651
0.198572
0.0102055
0.197372
0.0131409
0.195827
0.0159887
0.193946
0.0188015
0.191732
0.0216191
0.189185
0.0244759
0.1863
0.0274021
0.183072
0.0304235
0.179493
0.0335617
0.175556
0.0368366
0.171247
0.040266
0.166548
0.0438665
0.161442
0.0476518
0.15591
0.0516324
0.149922
0.0558163
0.143442
0.0602044
0.136438
0.0647895
0.128853
0.0695556
0.120615
0.0744689
0.111645
0.079473
0.10184
0.0844843
0.0910776
0.0893719
0.0792291
0.0939496
0.0661608
0.0979899
0.0517302
0.101213
0.0358243
0.103203
0.0184429
0.103582
0.099088
0.199903
0.00410449
0.199451
0.00779218
0.198649
0.0112077
0.197507
0.0144521
0.196035
0.0176007
0.194242
0.0207091
0.192131
0.0238212
0.189702
0.0269746
0.186951
0.0302028
0.183872
0.0335336
0.180459
0.0369907
0.176704
0.0405951
0.172596
0.0443676
0.168117
0.0483282
0.163247
0.0524952
0.157965
0.0568841
0.152237
0.0615083
0.146021
0.0663766
0.139273
0.0714924
0.13193
0.0768522
0.123909
0.0824387
0.115109
0.0882175
0.105407
0.0941283
0.0946468
0.100071
0.0826591
0.105882
0.0692752
0.111322
0.0543266
0.116113
0.0376869
0.119813
0.0194257
0.121843
0.118441
0.199919
0.00445235
0.199498
0.00845217
0.198742
0.0121673
0.197664
0.0157035
0.196273
0.0191367
0.194576
0.0225249
0.192579
0.0259153
0.19028
0.029349
0.187675
0.0328623
0.18476
0.0364852
0.181529
0.0402413
0.17798
0.0441538
0.174098
0.048249
0.169866
0.0525511
0.165265
0.0570817
0.160266
0.0618622
0.154837
0.0669121
0.148933
0.0722496
0.142501
0.0778909
0.13547
0.0838483
0.127745
0.0901255
0.119208
0.0967149
0.109707
0.103588
0.0990544
0.11068
0.0870278
0.117872
0.0733735
0.124942
0.057871
0.131581
0.0403536
0.137312
0.0209123
0.141299
0.139251
0.199938
0.00478585
0.199552
0.00908193
0.198849
0.0130794
0.19784
0.0168896
0.196537
0.0205902
0.194945
0.0242411
0.193071
0.0278927
0.190912
0.0315891
0.188465
0.0353694
0.185725
0.0392632
0.182697
0.0432948
0.179377
0.0474934
0.175745
0.0518898
0.171787
0.0565104
0.167483
0.061381
0.162807
0.0665285
0.157725
0.0719805
0.152192
0.0777655
0.14615
0.0839136
0.139523
0.0904553
0.132208
0.0974196
0.124071
0.104831
0.114936
0.112705
0.104571
0.121028
0.0926904
0.129741
0.0789308
0.138693
0.0629384
0.147565
0.0444057
0.155849
0.0233293
0.162415
0.162471
0.19996
0.00510273
0.199613
0.00967769
0.198967
0.0139394
0.198034
0.0180052
0.196824
0.021955
0.195345
0.0258508
0.193601
0.0297457
0.191592
0.0336862
0.18931
0.0377119
0.186763
0.0418518
0.183958
0.0461354
0.180884
0.0505976
0.177524
0.0552696
0.173865
0.0601806
0.169891
0.0653611
0.165578
0.0708438
0.160893
0.0766639
0.155795
0.0828607
0.150227
0.0894783
0.144113
0.0965671
0.13735
0.104183
0.129795
0.11239
0.121255
0.121253
0.111464
0.130833
0.100059
0.141168
0.0865549
0.152227
0.0703502
0.163803
0.0508005
0.175447
0.0275292
0.185765
0.18993
0.199984
0.00540114
0.19968
0.0102363
0.199094
0.0147435
0.198242
0.0190459
0.197131
0.0232259
0.19577
0.027348
0.194165
0.0314672
0.192312
0.0356309
0.190209
0.0398775
0.187871
0.0442389
0.185303
0.0487512
0.18249
0.0534506
0.17942
0.0583684
0.176086
0.0635372
0.172473
0.0689916
0.168562
0.0747693
0.164326
0.0809125
0.159729
0.0874697
0.154723
0.0944985
0.149241
0.102068
0.143187
0.11026
0.13643
0.119177
0.128779
0.128943
0.119958
0.139704
0.109558
0.151631
0.096968
0.164893
0.0812758
0.179585
0.0612275
0.195606
0.0353738
0.211751
0.225323
0.20001
0.00567957
0.199751
0.0107551
0.19923
0.0154883
0.198461
0.0200078
0.197454
0.0243987
0.196217
0.0287274
0.194756
0.0330502
0.193068
0.0374141
0.191156
0.0418568
0.189041
0.0464156
0.186719
0.051131
0.18418
0.0560379
0.181419
0.0611686
0.178431
0.0665582
0.175208
0.0722445
0.171735
0.0782689
0.167996
0.0846788
0.163964
0.09153
0.159606
0.0988899
0.15487
0.106841
0.149688
0.115488
0.143958
0.124964
0.137528
0.135443
0.130167
0.147152
0.121504
0.1604
0.110915
0.175608
0.0973124
0.193341
0.0787356
0.214363
0.0514493
0.239226
0.276958
0.200037
0.00593689
0.199825
0.0112321
0.199372
0.0161714
0.19869
0.0208881
0.19779
0.0254699
0.196681
0.0299845
0.195369
0.0344887
0.193854
0.0390288
0.192143
0.043644
0.190255
0.0483762
0.188186
0.0532667
0.185931
0.0583494
0.183492
0.0636575
0.180867
0.0692275
0.178054
0.0750987
0.175049
0.0813149
0.171842
0.0879264
0.168425
0.0949923
0.164781
0.102585
0.160887
0.110794
0.156712
0.119733
0.152208
0.129551
0.147307
0.140444
0.141897
0.152684
0.135787
0.166655
0.128629
0.182938
0.119703
0.20247
0.107208
0.227078
0.0852911
0.261336
0.362721
0.00221695
-0.00214503
0.00550058
-0.00316311
0.00892585
-0.00327476
0.01206
-0.00294877
0.0147401
-0.00246721
0.016922
-0.00195413
0.0186075
-0.00145663
0.0198272
-0.00100184
0.0206301
-0.000605126
0.021071
-0.000269133
0.021212
1.74132e-06
0.0211276
0.000197311
0.020905
0.000306009
0.0205916
0.000367792
0.0202185
0.0003992
0.0198411
0.000376124
0.0195362
0.00027693
0.019338
0.000144274
0.0192161
4.22452e-05
0.0191197
-8.89084e-06
0.0190416
-5.29256e-05
0.019042
-0.000157406
0.0191936
-0.000335457
0.0195302
-0.000547778
0.020016
-0.000725211
0.0205956
-0.000847783
0.0212416
-0.000943655
0.0219568
-0.00104263
0.0227396
-0.00114041
-0.00113651
0.00290479
-0.00496105
0.00610376
-0.0062463
0.00924639
-0.00626771
0.0121286
-0.00564683
0.0146598
-0.00478822
0.0168132
-0.00388433
0.0185883
-0.00300888
0.0200112
-0.00221403
0.021125
-0.00152859
0.0219605
-0.000940116
0.0225463
-0.000448282
0.0229461
-9.58336e-05
0.0232036
0.000126749
0.0233292
0.000292355
0.0233282
0.000422634
0.0232513
0.000448778
0.0231735
0.000324307
0.0231349
0.000126975
0.0231075
-1.16946e-05
0.0230352
-4.31874e-05
0.0228993
-4.90716e-05
0.022728
-0.000144049
0.022579
-0.000370957
0.0224964
-0.000676987
0.0224707
-0.000939434
0.0224714
-0.0011172
0.0224701
-0.00124055
0.0224764
-0.00137685
0.0225585
-0.00158066
-0.00180409
0.0030299
-0.00788479
0.005883
-0.00899521
0.00847251
-0.00871049
0.01076
-0.00775313
0.012747
-0.0065707
0.0144403
-0.00536338
0.0158395
-0.00419675
0.0169673
-0.00314488
0.0178705
-0.00225592
0.0185679
-0.00148696
0.0190566
-0.000814988
0.0193855
-0.000330051
0.0196793
-9.8287e-05
0.0198805
0.000133143
0.0199113
0.00040737
0.0198151
0.000534942
0.0196746
0.00042967
0.0194987
0.000243107
0.0192342
0.000168399
0.0188144
0.000267431
0.0182186
0.000412687
0.0175018
0.000413135
0.0167117
0.000233347
0.0159188
-9.70178e-05
0.0151718
-0.000433384
0.014571
-0.00078609
0.0141665
-0.00113518
0.0139642
-0.00150347
0.0139635
-0.00193909
-0.00238732
0.00270008
-0.0104664
0.00506419
-0.0112694
0.00699941
-0.0105052
0.0085946
-0.0091735
0.00993755
-0.00771816
0.0110696
-0.00629467
0.0119964
-0.00492892
0.0127346
-0.00370658
0.0133262
-0.00269258
0.0137866
-0.00181602
0.0140953
-0.00102227
0.0143034
-0.000460579
0.0144
-0.000138959
0.0143285
0.000235397
0.0138784
0.000863042
0.0130797
0.00131559
0.012058
0.00140964
0.0109214
0.00131452
0.00982833
0.00117265
0.00889331
0.0010898
0.00810481
0.00106429
0.00745028
0.000905853
0.00696339
0.000532554
0.00661053
4.12703e-05
0.00641089
-0.000476156
0.006283
-0.000929262
0.0061504
-0.00130301
0.00597304
-0.00165639
0.00575255
-0.00207927
-0.00261889
0.00206165
-0.0124273
0.00369024
-0.0128194
0.00479857
-0.0114825
0.00557327
-0.00978366
0.00615732
-0.00811871
0.00660834
-0.00656404
0.00693251
-0.0050833
0.00716098
-0.00378349
0.00731494
-0.00271442
0.00740664
-0.00179701
0.00723348
-0.000767814
0.00655775
0.000275687
0.00543651
0.0010245
0.0042816
0.00140747
0.00339495
0.00174247
0.00256845
0.00211416
0.00167588
0.00225251
0.000894416
0.00202414
0.000279874
0.00169292
-0.00016748
0.00142011
-0.000416151
0.00117262
-0.000518835
0.000844002
-0.000573776
0.000397564
-0.000613914
-0.000135151
-0.000754735
-0.000579578
-0.000987659
-0.000969144
-0.00131541
-0.00127738
-0.00174341
-0.00156042
-0.00224071
-0.00194458
-0.00254436
0.00117091
-0.0135454
0.00183723
-0.0134138
0.00191711
-0.0114426
0.00172553
-0.00944148
0.00139253
-0.00761973
0.000972508
-0.00598767
0.000536537
-0.00451119
-6.8494e-05
-0.00305623
-0.00101188
-0.00166483
-0.00214786
-0.000575995
-0.00323566
0.0003845
-0.00403285
0.00112007
-0.00459288
0.00161259
-0.00516218
0.00198027
-0.00574469
0.00230515
-0.00621563
0.00254649
-0.00657987
0.00255796
-0.00691596
0.00228077
-0.00720053
0.00187696
-0.00737794
0.00147543
-0.00743319
0.00108359
-0.00741791
0.000661133
-0.00741765
0.000204835
-0.00751708
-0.000254593
-0.00770317
-0.000639909
-0.00801482
-0.000932377
-0.00845374
-0.00114261
-0.0090004
-0.0013479
-0.00960882
-0.00170108
-0.00222007
4.71002e-05
-0.0135845
-0.000422072
-0.0128789
-0.00148186
-0.0102754
-0.00273648
-0.0080546
-0.00411668
-0.00610388
-0.00555146
-0.00442971
-0.00697545
-0.00298453
-0.00824355
-0.00170044
-0.00931905
-0.000517814
-0.0101995
0.000355179
-0.0108663
0.00109168
-0.0114027
0.00168375
-0.0119173
0.00213494
-0.0124061
0.00245779
-0.0128237
0.0026929
-0.0131291
0.00280263
-0.0133425
0.00270273
-0.0135284
0.00237874
-0.0136903
0.00193138
-0.0137972
0.0014546
-0.0138426
0.000980445
-0.0138624
0.000510201
-0.0139071
5.43413e-05
-0.014034
-0.000349263
-0.0142715
-0.000651338
-0.0146411
-0.000840014
-0.0151447
-0.000945549
-0.015761
-0.00106807
-0.016467
-0.00136266
-0.00177644
-0.00104859
-0.0125466
-0.00292112
-0.0109503
-0.00501314
-0.00808953
-0.00715914
-0.00579926
-0.00920712
-0.00395863
-0.0110513
-0.00250293
-0.0126924
-0.001275
-0.0141066
-0.000236118
-0.0152075
0.000616555
-0.0160832
0.00124785
-0.0167855
0.00180303
-0.0173818
0.00227901
-0.017912
0.00264749
-0.0183865
0.00290223
-0.0187795
0.00304355
-0.0190775
0.00303982
-0.0193013
0.00284769
-0.0194916
0.00247235
-0.0196573
0.00198212
-0.0197861
0.0014496
-0.0198773
0.000918688
-0.0199555
0.000414478
-0.0200575
-4.17256e-05
-0.0202284
-0.000402692
-0.0205048
-0.000626807
-0.0209103
-0.000714471
-0.0214533
-0.000711678
-0.0221225
-0.000738049
-0.0229137
-0.000941881
-0.00124929
-0.00223225
-0.0103171
-0.0051897
-0.00795011
-0.00813396
-0.00506791
-0.0109117
-0.00294052
-0.013458
-0.00135334
-0.0156974
-0.000224453
-0.0175433
0.000596545
-0.0189692
0.00119924
-0.0200683
0.00171206
-0.0210098
0.00217498
-0.0218166
0.00258839
-0.0225073
0.00294079
-0.0231121
0.00321229
-0.0236442
0.00338539
-0.0240982
0.00343869
-0.0244722
0.00334013
-0.0247799
0.0030661
-0.025044
0.00263112
-0.0252735
0.00208933
-0.025467
0.00150295
-0.0256273
0.000921575
-0.0257736
0.000384251
-0.0259396
-7.64162e-05
-0.0261605
-0.000409451
-0.0264648
-0.000577625
-0.0268812
-0.000580975
-0.027436
-0.000468826
-0.0281404
-0.000375598
-0.0290033
-0.000452642
-0.000646412
-0.00337401
-0.00693558
-0.00737566
-0.00391936
-0.0113492
-0.00104004
-0.0148311
0.00058476
-0.0176769
0.0015073
-0.0199125
0.0020042
-0.0216696
0.00233235
-0.0231266
0.00262398
-0.0243597
0.00290507
-0.0254136
0.00318309
-0.0263209
0.00344607
-0.0271106
0.0036769
-0.0278118
0.00385453
-0.028442
0.00395007
-0.029004
0.00392606
-0.0294968
0.00374594
-0.0299251
0.00339406
-0.0302989
0.00289085
-0.0306259
0.00228704
-0.0309109
0.00164144
-0.0311576
0.001007
-0.0313811
0.000430972
-0.031617
-4.24167e-05
-0.0318943
-0.000363488
-0.0322352
-0.00049556
-0.0326639
-0.000438472
-0.0332111
-0.000236374
-0.033916
-1.55917e-05
-0.0348132
6.76873e-05
2.08788e-05
-0.00487099
-0.00206181
-0.0103285
0.00155403
-0.0148635
0.00351312
-0.0184384
0.00415359
-0.0212629
0.0042951
-0.0235611
0.00424711
-0.0254445
0.00415007
-0.0270006
0.004109
-0.0283185
0.00414967
-0.0294569
0.00424727
-0.0304524
0.004367
-0.0313374
0.00448679
-0.032143
0.00458459
-0.0328918
0.00461946
-0.0335894
0.00453548
-0.0342289
0.00428554
-0.0348024
0.00385596
-0.0353085
0.00327434
-0.0357536
0.00259596
-0.0361465
0.00188151
-0.0364928
0.00118632
-0.0368009
0.000562608
-0.0371073
6.51369e-05
-0.0374486
-0.000255701
-0.0378496
-0.000357702
-0.0383387
-0.000238867
-0.0389551
6.23504e-05
-0.039736
0.000417541
-0.0407147
0.000666311
0.000773829
-0.00662646
0.00454115
-0.0129558
0.00787935
-0.0178948
0.00841703
-0.0217666
0.00796011
-0.0247969
0.00723659
-0.0271848
0.0065345
-0.0290928
0.0059538
-0.0306592
0.00557187
-0.0320022
0.00539184
-0.0331901
0.0053376
-0.0342541
0.0053361
-0.0352244
0.00536373
-0.0361364
0.00540669
-0.0370178
0.00541105
-0.0378715
0.00529251
-0.0386781
0.00498394
-0.0394139
0.00447133
-0.0400651
0.00379526
-0.0406353
0.00302381
-0.0411348
0.00222311
-0.0415723
0.00144931
-0.0419487
0.000757761
-0.0422902
0.000211738
-0.0426482
-0.000129524
-0.0430511
-0.00022168
-0.0435301
-5.26286e-05
-0.0441264
0.000338329
-0.0448968
0.000837408
-0.0458881
0.00127442
0.00154633
-0.00801398
0.0124826
-0.0156704
0.0154938
-0.0214554
0.0141024
-0.0255298
0.0119099
-0.0285138
0.0100869
-0.0308118
0.0086966
-0.0326045
0.00761383
-0.034063
0.00690348
-0.0353542
0.00656269
-0.036551
0.00642006
-0.0376568
0.00633203
-0.0386883
0.00628742
-0.039694
0.0063073
-0.0407092
0.00632484
-0.0417255
0.00620647
-0.0427006
0.00584884
-0.0435897
0.00523719
-0.0443677
0.00443794
-0.0450362
0.00354529
-0.0456088
0.00263404
-0.0460966
0.00175766
-0.0465011
0.000972663
-0.0468365
0.000350144
-0.047158
-3.59214e-05
-0.0475157
-0.000131542
-0.0479429
7.87553e-05
-0.0484929
0.000565688
-0.0492365
0.00122796
-0.0502247
0.0018765
0.00232294
-0.00946746
0.0217642
-0.0197148
0.0256502
-0.0261486
0.0203842
-0.029879
0.015475
-0.032368
0.0124149
-0.0343517
0.0105249
-0.0358532
0.00896691
-0.0370318
0.00794206
-0.0381624
0.00756186
-0.0393167
0.0074501
-0.0404202
0.00731628
-0.041451
0.00720113
-0.0424891
0.00722834
-0.0435972
0.00731896
-0.0447481
0.00724633
-0.0458588
0.00684529
-0.0468509
0.00610464
-0.0476914
0.00514038
-0.0483921
0.00409559
-0.048979
0.0030563
-0.0494651
0.00206229
-0.0498539
0.00116522
-0.0501573
0.000448337
-0.0504236
3.24557e-06
-0.0507166
-0.000104068
-0.0510837
0.00014841
-0.0515822
0.000739764
-0.0522912
0.00158177
-0.0532698
0.00246627
0.00310716
-0.0112181
0.0325331
-0.0261427
0.0405192
-0.0326882
0.0267882
-0.0350607
0.0176829
-0.0361368
0.0133278
-0.0376049
0.0118349
-0.0386124
0.00982149
-0.0392408
0.00842541
-0.0400687
0.00825429
-0.0411589
0.00841144
-0.0422287
0.00826161
-0.0431671
0.0080174
-0.0441386
0.0080776
-0.0452873
0.00834646
-0.0465573
0.00839668
-0.0477935
0.00795969
-0.0488629
0.0070445
-0.0497239
0.00586014
-0.050419
0.00463709
-0.0509996
0.00346953
-0.0514768
0.00235628
-0.0518433
0.00133213
-0.0521086
0.000500177
-0.0523188
-1.92112e-05
-0.0525445
-0.000143416
-0.0528464
0.000153115
-0.0532866
0.000854161
-0.0539519
0.00189007
-0.0549204
0.00304339
0.00390048
0.207729
0.00618011
0.207562
0.0116807
0.207166
0.0168121
0.206555
0.0217117
0.205739
0.0264693
0.204729
0.0311533
0.203533
0.0358208
0.202154
0.040518
0.200603
0.0452868
0.198894
0.0501708
0.197028
0.0552102
0.195008
0.0604383
0.192839
0.0658889
0.190526
0.0715983
0.188075
0.0776059
0.18549
0.0839555
0.182779
0.090697
0.179946
0.097889
0.177001
0.105602
0.173955
0.113922
0.170826
0.122958
0.167642
0.132848
0.164446
0.143772
0.161314
0.155971
0.158379
0.169771
0.155901
0.185628
0.154438
0.204174
0.155602
0.226161
0.167839
0.249313
0.266488
0.264361
0.212787
0.00640339
0.212673
0.0120899
0.212347
0.0173945
0.211824
0.0224583
0.211115
0.0273721
0.210232
0.0322049
0.209185
0.0370137
0.207979
0.0418459
0.206627
0.0467447
0.205141
0.0517531
0.20353
0.0569096
0.201801
0.0622474
0.199966
0.0677995
0.198034
0.0736008
0.196022
0.0796888
0.193944
0.0861047
0.191822
0.0928949
0.189681
0.100112
0.187555
0.107819
0.185493
0.116088
0.183562
0.125007
0.181866
0.13468
0.18056
0.145234
0.179896
0.156813
0.180297
0.169571
0.182535
0.183614
0.188135
0.198819
0.199948
0.214594
0.219518
0.22997
0.24705
0.239133
0.217969
0.00660414
0.217913
0.0124548
0.217665
0.017912
0.21724
0.0231192
0.21665
0.0281679
0.215906
0.0331271
0.215022
0.0380542
0.214006
0.0429971
0.21287
0.0479992
0.21163
0.0531019
0.210297
0.0583418
0.208885
0.063751
0.207411
0.0693609
0.205893
0.0752035
0.204354
0.0813128
0.20282
0.0877251
0.201326
0.0944798
0.199917
0.10162
0.198651
0.109194
0.197606
0.117254
0.19689
0.125858
0.196659
0.135064
0.197135
0.144929
0.198638
0.155498
0.201646
0.166765
0.206864
0.178617
0.215126
0.190786
0.227059
0.202878
0.242155
0.215064
0.226385
0.262945
0.223279
0.00677993
0.223286
0.012771
0.223123
0.0183581
0.222804
0.0236862
0.222342
0.0288469
0.221751
0.033909
0.221042
0.0389298
0.22023
0.0439572
0.219327
0.0490339
0.21835
0.0541991
0.217316
0.059487
0.216243
0.0649281
0.215152
0.0705508
0.21407
0.0763835
0.213026
0.0824546
0.212057
0.0887939
0.211211
0.0954318
0.210545
0.102399
0.210137
0.109726
0.210084
0.117442
0.210519
0.125571
0.211615
0.134131
0.213604
0.143119
0.216787
0.152505
0.221559
0.162187
0.228387
0.171995
0.237682
0.181697
0.24984
0.190907
0.265714
0.199346
0.205409
0.286788
0.228719
0.00692846
0.228794
0.0130343
0.228722
0.018727
0.228517
0.024152
0.228193
0.0294003
0.227764
0.0345403
0.227245
0.0396288
0.226648
0.0447131
0.225992
0.0498344
0.225294
0.0550291
0.224575
0.060329
0.223857
0.0657619
0.223166
0.0713529
0.222535
0.077125
0.221999
0.0831005
0.221603
0.0893017
0.221404
0.0957484
0.221471
0.102457
0.221888
0.109442
0.222764
0.116709
0.224235
0.124255
0.22647
0.132063
0.229683
0.140084
0.234132
0.148239
0.240113
0.156392
0.247932
0.164363
0.257898
0.171913
0.270327
0.178639
0.285617
0.184187
0.18768
0.30343
0.234292
0.00704756
0.23444
0.0132408
0.234465
0.0190132
0.234381
0.0245095
0.234203
0.02982
0.233946
0.035012
0.233626
0.0401412
0.233257
0.0452537
0.232859
0.0503887
0.232453
0.0555797
0.232061
0.0608555
0.231709
0.0662409
0.231428
0.0717569
0.231254
0.0774203
0.23123
0.0832469
0.231402
0.0892518
0.231833
0.0954435
0.232599
0.101826
0.233786
0.108398
0.235502
0.115143
0.237878
0.122038
0.241068
0.129039
0.245252
0.136072
0.25063
0.143036
0.257403
0.149794
0.265773
0.156163
0.275923
0.161922
0.287935
0.166766
0.301813
0.170423
0.172322
0.317245
0.240001
0.00713526
0.240225
0.0133871
0.240352
0.0192118
0.240396
0.024753
0.240372
0.0300991
0.240295
0.0353161
0.240182
0.0404583
0.240051
0.0455699
0.239921
0.0506876
0.239815
0.055842
0.239758
0.0610583
0.239777
0.0663587
0.239908
0.0717591
0.240193
0.0772698
0.24067
0.0829013
0.24139
0.0886613
0.242422
0.0945462
0.243841
0.100549
0.245731
0.106656
0.248193
0.112835
0.251342
0.119049
0.255307
0.125238
0.260226
0.13132
0.266237
0.137191
0.273474
0.142719
0.282049
0.147743
0.292031
0.152082
0.303398
0.155522
0.316071
0.157851
0.158627
0.329835
0.245849
0.00718979
0.246153
0.0134699
0.246386
0.0193188
0.246563
0.0248773
0.246699
0.0302318
0.246809
0.0354464
0.24691
0.0405734
0.247022
0.0456549
0.247166
0.0507248
0.247367
0.0558105
0.247647
0.0609347
0.248034
0.0661158
0.248574
0.071363
0.249307
0.0766824
0.250269
0.08208
0.251513
0.0875533
0.253111
0.0930907
0.255132
0.0986775
0.257652
0.104288
0.260757
0.109885
0.264543
0.115421
0.269109
0.120831
0.274555
0.126033
0.280974
0.130928
0.288442
0.1354
0.297008
0.139317
0.306678
0.142538
0.317397
0.144913
0.329047
0.146291
0.146333
0.341404
0.251839
0.00720972
0.252224
0.013487
0.252568
0.0193308
0.252882
0.0248786
0.253182
0.0302138
0.253483
0.0353983
0.253804
0.040482
0.254163
0.0455046
0.254583
0.0504974
0.25509
0.0554849
0.255704
0.0604867
0.256457
0.0655152
0.257398
0.0705754
0.258564
0.075671
0.25999
0.0808013
0.261732
0.0859559
0.263853
0.0911194
0.266413
0.0962705
0.269477
0.101377
0.273119
0.106399
0.277412
0.111283
0.282432
0.115966
0.288244
0.120372
0.294905
0.124414
0.302448
0.127995
0.310883
0.131011
0.320179
0.133357
0.330261
0.134932
0.340995
0.13564
0.135218
0.352169
0.257974
0.00719394
0.258443
0.0134365
0.258899
0.0192454
0.259354
0.0247538
0.259821
0.030042
0.260316
0.0351688
0.260857
0.0401817
0.261465
0.0451177
0.262161
0.0500056
0.26297
0.0548668
0.263915
0.0597167
0.265031
0.064563
0.26636
0.0694087
0.267937
0.074254
0.269801
0.0790919
0.272001
0.0839086
0.274589
0.0886848
0.277619
0.0933947
0.281147
0.0980038
0.285229
0.10247
0.289921
0.106743
0.295272
0.110763
0.301325
0.114464
0.308106
0.117772
0.31562
0.12061
0.32385
0.1229
0.332745
0.124568
0.34222
0.125548
0.352151
0.125785
0.125072
0.362353
0.264256
0.00714156
0.264811
0.0133171
0.265381
0.019061
0.265978
0.0245014
0.266614
0.0297146
0.267305
0.0347567
0.268067
0.039672
0.268922
0.0444951
0.26989
0.0492517
0.270997
0.0539601
0.272267
0.058632
0.273733
0.0632726
0.27543
0.0678822
0.277393
0.0724569
0.279659
0.0769864
0.282272
0.0814545
0.285274
0.0858393
0.28871
0.0901132
0.292626
0.0942417
0.297063
0.0981843
0.302058
0.101894
0.307644
0.10532
0.313841
0.108405
0.320653
0.11109
0.328068
0.113316
0.336052
0.115026
0.344547
0.116172
0.353467
0.116713
0.362703
0.116622
0.11573
0.372097
0.27069
0.00705191
0.27133
0.0131279
0.272016
0.0187767
0.272755
0.0241206
0.27356
0.0292316
0.274446
0.0341625
0.275428
0.0389548
0.276527
0.0436401
0.277762
0.0482411
0.279158
0.0527734
0.28074
0.0572458
0.282536
0.0616612
0.284578
0.0660175
0.286899
0.0703079
0.289532
0.0745201
0.292512
0.0786365
0.295876
0.0826344
0.299659
0.0864862
0.303894
0.0901594
0.30861
0.0936167
0.313831
0.0968172
0.319572
0.0997169
0.325838
0.10227
0.33262
0.104431
0.339893
0.106157
0.347615
0.107408
0.355725
0.108154
0.364145
0.108373
0.372779
0.108056
0.107064
0.381497
0.277278
0.00692467
0.278004
0.0128689
0.278804
0.0183928
0.279685
0.023612
0.280658
0.0285943
0.281736
0.0333887
0.282934
0.0380339
0.28427
0.0425583
0.285764
0.0469821
0.287438
0.0513183
0.289315
0.0555733
0.291422
0.0597482
0.293785
0.063839
0.296433
0.0678371
0.299395
0.0717292
0.3027
0.0754974
0.306375
0.0791195
0.310448
0.0825696
0.314941
0.0858178
0.319872
0.0888316
0.325253
0.0915763
0.331088
0.094016
0.337369
0.096115
0.344078
0.0978394
0.351185
0.0991589
0.358642
0.100048
0.366393
0.10049
0.374366
0.100476
0.38248
0.100007
0.0989682
0.390625
0.284024
0.00675993
0.284834
0.0125406
0.285748
0.0179104
0.286768
0.0229777
0.287906
0.0278055
0.289172
0.0324395
0.290579
0.036915
0.292145
0.0412576
0.293887
0.0454851
0.295825
0.0496081
0.29798
0.0536315
0.300375
0.0575546
0.303033
0.0613724
0.305977
0.0650753
0.309232
0.0686498
0.312819
0.0720787
0.316759
0.0753412
0.321071
0.0784137
0.325769
0.0812704
0.330861
0.0838835
0.33635
0.0862247
0.34223
0.0882657
0.348486
0.0899798
0.355096
0.0913429
0.362023
0.092335
0.369224
0.0929415
0.376643
0.0931546
0.384219
0.092974
0.391881
0.0924064
0.0913573
0.399541
0.29093
0.00655809
0.291824
0.0121443
0.292848
0.0173315
0.294006
0.0222206
0.295303
0.0268695
0.296751
0.0313204
0.298361
0.0356054
0.300147
0.0397475
0.302124
0.0437622
0.304311
0.0476583
0.306725
0.051439
0.309385
0.0551029
0.31231
0.0586442
0.31552
0.0620531
0.319031
0.0653168
0.322861
0.0684192
0.327024
0.0713416
0.331531
0.0740636
0.336387
0.0765631
0.341595
0.0788175
0.34715
0.0808045
0.353039
0.0825027
0.359244
0.0838929
0.365737
0.084959
0.372482
0.085689
0.379438
0.086076
0.386554
0.0861188
0.393776
0.0858225
0.401046
0.0851976
0.0841637
0.408288
0.298001
0.00631984
0.298976
0.0116817
0.300108
0.0166588
0.301398
0.0213445
0.30285
0.0257915
0.304473
0.0300383
0.306275
0.0341139
0.30827
0.0380391
0.310469
0.041827
0.312888
0.045485
0.315541
0.0490154
0.318443
0.0524159
0.321609
0.0556806
0.325054
0.0588004
0.328789
0.0617632
0.332827
0.0645547
0.337174
0.0671588
0.341836
0.069558
0.346813
0.0717345
0.352101
0.0736705
0.357688
0.0753488
0.363561
0.0767541
0.369695
0.0778735
0.376063
0.0786971
0.382629
0.0792189
0.389355
0.0794375
0.396196
0.0793561
0.403104
0.078983
0.41003
0.0783306
0.0773298
0.416911
0.30524
0.00604611
0.306293
0.0111549
0.307529
0.0158959
0.308946
0.0203541
0.310547
0.0245776
0.312336
0.028601
0.314322
0.0324504
0.316513
0.0361442
0.318919
0.0396937
0.321553
0.0431053
0.324424
0.0463802
0.327546
0.049516
0.330927
0.0525072
0.334578
0.0553451
0.338508
0.0580193
0.34272
0.0605174
0.347219
0.0628257
0.352004
0.0649302
0.35707
0.0668167
0.362408
0.0684716
0.368004
0.0698826
0.373841
0.0710393
0.379893
0.0719336
0.386133
0.0725605
0.392528
0.0729186
0.399041
0.0730099
0.405633
0.0728405
0.412262
0.0724205
0.418888
0.0717629
0.070808
0.425455
0.312651
0.00573805
0.313779
0.0105665
0.315115
0.0150465
0.316653
0.0192549
0.318395
0.0232348
0.320342
0.0270172
0.3225
0.0306253
0.324875
0.0340754
0.327473
0.0373773
0.330304
0.0405361
0.333375
0.0435529
0.336694
0.0464251
0.340266
0.0491477
0.344099
0.0517132
0.348194
0.0541126
0.352553
0.0563354
0.357175
0.0583708
0.362056
0.0602076
0.367185
0.0618351
0.372552
0.0632434
0.37814
0.0644241
0.383928
0.0653707
0.389894
0.0660792
0.396008
0.066548
0.40224
0.0667787
0.408558
0.0667759
0.414926
0.0665472
0.421309
0.0661034
0.427671
0.0654576
0.0645575
0.433967
0.320238
0.00539694
0.321438
0.00991937
0.322868
0.014115
0.324522
0.0180526
0.326397
0.0217704
0.328493
0.0252958
0.330812
0.0286495
0.333357
0.0318454
0.336134
0.0348922
0.339145
0.0377942
0.342396
0.0405521
0.345891
0.0431636
0.349633
0.0456243
0.353623
0.047928
0.35786
0.050067
0.362343
0.0520331
0.367065
0.0538178
0.372018
0.0554125
0.377192
0.0568097
0.382571
0.0580024
0.388139
0.0589856
0.393873
0.0597558
0.39975
0.0603118
0.405744
0.0606547
0.411826
0.060788
0.417967
0.0607178
0.424135
0.0604526
0.430301
0.0600031
0.436433
0.0593818
0.0585432
0.442493
0.328005
0.00502415
0.329273
0.00921642
0.330793
0.0131058
0.332556
0.0167532
0.334557
0.0201919
0.336792
0.0234461
0.339261
0.0265336
0.341965
0.0294667
0.344904
0.0322528
0.34808
0.0348954
0.351494
0.0373951
0.355147
0.0397502
0.359039
0.0419567