/*--------------------------------*- C++ -*----------------------------------*\
| =========                 |                                                 |
| \\      /  F ield         | OpenFOAM: The Open Source CFD Toolbox           |
|  \\    /   O peration     | Version:  2006                                  |
|   \\  /    A nd           | Website:  www.openfoam.com                      |
|    \\/     M anipulation  |                                                 |
\*---------------------------------------------------------------------------*/
FoamFile
{
    version     2.0;
    format      ascii;
    class       volScalarField;
    location    "5.5";
    object      p;
}
// * * * * * * * * * * * * * * * * * * * * * * * * * * * * * * * * * * * * * //

dimensions      [0 2 -2 0 0 0 0];


internalField   nonuniform List<scalar> 
2790
(
146.945
146.852
147.119
147.691
148.471
149.428
150.56
151.867
153.343
154.984
156.784
158.735
160.829
163.053
165.394
167.83
170.334
172.873
175.405
177.879
180.237
182.415
184.345
185.966
187.225
188.1
188.536
188.591
188.642
188.855
146.742
146.76
147.052
147.62
148.396
149.351
150.479
151.779
153.248
154.881
156.671
158.612
160.695
162.908
165.238
167.663
170.159
172.693
175.223
177.701
180.069
182.264
184.219
185.867
187.152
188.026
188.423
188.478
188.61
188.895
146.543
146.631
146.942
147.5
148.263
149.205
150.318
151.6
153.048
154.656
156.418
158.327
160.375
162.551
164.839
167.221
169.673
172.164
174.656
177.103
179.453
181.646
183.618
185.308
186.659
187.635
188.228
188.583
188.898
189.197
146.319
146.437
146.761
147.31
148.059
148.984
150.077
151.335
152.754
154.329
156.052
157.918
159.916
162.037
164.265
166.583
168.967
171.39
173.818
176.208
178.515
180.687
182.669
184.409
185.863
187.015
187.883
188.554
189.107
189.626
146.058
146.19
146.522
147.064
147.796
148.7
149.768
150.995
152.377
153.908
155.582
157.391
159.327
161.378
163.529
165.765
168.063
170.398
172.74
175.053
177.298
179.433
181.415
183.206
184.776
186.119
187.249
188.212
189.023
189.77
145.757
145.895
146.23
146.761
147.474
148.351
149.387
150.577
151.914
153.394
155.009
156.751
158.612
160.58
162.641
164.779
166.974
169.203
171.44
173.656
175.818
177.896
179.858
181.678
183.341
184.843
186.189
187.395
188.415
189.333
145.414
145.553
145.885
146.404
147.093
147.941
148.94
150.085
151.371
152.791
154.338
156.004
157.779
159.651
161.608
163.634
165.71
167.816
169.929
172.025
174.08
176.071
177.979
179.789
181.495
183.096
184.589
185.969
187.133
188.18
145.03
145.167
145.491
145.993
146.657
147.471
148.428
149.524
150.751
152.104
153.575
155.154
156.833
158.599
160.439
162.338
164.279
166.243
168.211
170.163
172.08
173.948
175.755
177.497
179.175
180.794
182.349
183.821
185.071
186.222
144.604
144.737
145.05
145.533
146.168
146.944
147.855
148.896
150.059
151.338
152.724
154.208
155.781
157.429
159.14
160.898
162.688
164.491
166.29
168.069
169.813
171.511
173.159
174.759
176.321
177.856
179.364
180.835
182.106
183.344
144.137
144.265
144.565
145.026
145.628
146.363
147.224
148.205
149.299
150.497
151.792
153.173
154.63
156.15
157.72
159.324
160.945
162.568
164.174
165.747
167.276
168.75
170.168
171.536
172.869
174.188
175.508
176.846
178.046
179.351
143.632
143.753
144.039
144.474
145.042
145.733
146.539
147.456
148.475
149.588
150.785
152.056
153.39
154.772
156.19
157.626
159.063
160.484
161.871
163.206
164.473
165.663
166.771
167.799
168.763
169.692
170.622
171.621
172.584
173.902
143.09
143.204
143.472
143.881
144.412
145.055
145.805
146.654
147.594
148.616
149.71
150.865
152.068
153.305
154.56
155.817
157.055
158.256
159.398
160.46
161.422
162.264
162.972
163.538
163.965
164.275
164.518
164.826
165.208
166.382
142.513
142.619
142.869
143.249
143.741
144.335
145.025
145.803
146.66
147.588
148.574
149.608
150.674
151.759
152.844
153.91
154.937
155.901
156.776
157.535
158.148
158.583
158.805
158.78
158.477
157.879
157.005
156.014
155.067
155.573
141.903
142.002
142.232
142.581
143.032
143.575
144.203
144.908
145.68
146.51
147.385
148.293
149.219
150.145
151.054
151.923
152.728
153.442
154.033
154.465
154.695
154.672
154.334
153.602
152.379
150.55
147.988
144.689
140.743
138.71
141.264
141.354
141.564
141.881
142.29
142.78
143.344
143.974
144.659
145.389
146.151
146.931
147.712
148.478
149.205
149.872
150.45
150.906
151.202
151.292
151.119
150.609
149.663
148.149
145.87
142.538
137.697
130.683
120.227
108.015
1.02308
1.0044
0.941312
0.855104
0.7664
0.684851
0.613154
0.551142
0.497714
0.451459
0.410918
0.37475
0.341809
0.311159
0.282055
0.253935
0.226413
0.1993
0.172621
0.14661
0.12168
0.0983297
0.0770163
0.0581735
0.042173
0.0289537
0.0183475
0.0101813
0.004309
6.653e-05
0.979489
0.958445
0.899075
0.819736
0.738328
0.663134
0.596567
0.538599
0.488325
0.44449
0.405785
0.371004
0.339103
0.309219
0.280656
0.252879
0.225525
0.198421
0.171616
0.145386
0.120213
0.096694
0.0754372
0.056866
0.0410502
0.0279799
0.0175274
0.00953269
0.00400437
0.0012512
0.931219
0.906077
0.849055
0.776307
0.702902
0.635084
0.574685
0.521729
0.475465
0.434751
0.398433
0.365461
0.334921
0.306044
0.278202
0.250902
0.223805
0.19676
0.16985
0.143417
0.118026
0.0943677
0.0730801
0.0545572
0.038904
0.0260213
0.0156193
0.00774618
0.0028057
0.00138975
0.884775
0.855412
0.800051
0.733054
0.667193
0.606436
0.552018
0.503979
0.461728
0.424161
0.390276
0.359169
0.330044
0.302231
0.275171
0.248415
0.221651
0.19475
0.16783
0.141285
0.115751
0.0920016
0.0707217
0.0523065
0.036873
0.0242673
0.01411
0.00642752
0.00161228
-4.52891e-05
0.852702
0.819167
0.765352
0.702586
0.642302
0.586539
0.536255
0.491565
0.452147
0.416708
0.384503
0.35469
0.326545
0.299466
0.272946
0.246567
0.220038
0.193255
0.16636
0.139782
0.114206
0.0904609
0.069259
0.0509433
0.0356397
0.0232124
0.0130831
0.00553701
0.0013619
-0.000264695
0.846351
0.807568
0.754635
0.693318
0.63509
0.580863
0.531701
0.487737
0.44955
0.414481
0.382675
0.353181
0.32526
0.298334
0.27191
0.245582
0.219079
0.192323
0.165479
0.13898
0.113494
0.0898561
0.068792
0.0505773
0.0353656
0.0232779
0.0135679
0.00569626
0.000731675
-0.000619807
0.876076
0.829445
0.774131
0.709374
0.647671
0.590419
0.53881
0.493065
0.452932
0.4169
0.384265
0.354106
0.325626
0.298243
0.271458
0.244872
0.218239
0.191505
0.164845
0.138644
0.11347
0.0900933
0.0693004
0.0512917
0.0359274
0.0232529
0.0132141
0.00553946
0.000474516
-0.00066879
0.947827
0.890059
0.823778
0.748404
0.676929
0.611921
0.554275
0.503822
0.459948
0.421401
0.387052
0.355683
0.326164
0.29795
0.270553
0.24358
0.216836
0.190323
0.164186
0.138647
0.113994
0.090712
0.0694776
0.0510933
0.0359017
0.0235176
0.0134404
0.00525612
-0.000238801
-0.000831298
1.06177
0.981765
0.894623
0.800872
0.714307
0.638618
0.573589
0.517296
0.46838
0.42596
0.388651
0.355289
0.324881
0.296223
0.268487
0.241249
0.214432
0.188155
0.162543
0.137654
0.11361
0.0906996
0.0694971
0.0508962
0.0355594
0.0233249
0.0133332
0.0048172
-0.000976391
-0.000990942
1.19656
1.08264
0.967325
0.852999
0.749197
0.658889
0.583361
0.52136
0.469851
0.425838
0.387388
0.353155
0.322104
0.29309
0.265104
0.237654
0.21087
0.185143
0.160589
0.136863
0.113534
0.0906186
0.0688946
0.0497235
0.0342229
0.0223282
0.0127075
0.00417204
-0.00165925
-0.00111863
1.30852
1.16429
1.0186
0.879833
0.761233
0.663299
0.582955
0.517589
0.464285
0.419614
0.380918
0.346685
0.315929
0.287377
0.259649
0.232136
0.205385
0.180372
0.157347
0.135399
0.113205
0.0902372
0.0674982
0.0472174
0.031404
0.0201651
0.0114578
0.0034036
-0.00217714
-0.00118862
1.3935
1.1999
1.02496
0.868455
0.740433
0.639775
0.560378
0.497348
0.446965
0.405046
0.368203
0.335222
0.30587
0.278873
0.252092
0.224578
0.197639
0.173467
0.152696
0.133475
0.112963
0.0897406
0.0651736
0.0429186
0.0265179
0.0164411
0.00951734
0.00262369
-0.00245541
-0.00117917
1.38749
1.12602
0.932213
0.78009
0.664256
0.577756
0.510601
0.457273
0.415744
0.381222
0.348809
0.318169
0.291332
0.267422
0.24264
0.215011
0.187159
0.163685
0.146195
0.131261
0.113377
0.0896137
0.0619384
0.0363071
0.0188265
0.0107026
0.00691655
0.00205333
-0.00241176
-0.00107361
1.11828
0.801237
0.671102
0.587209
0.516513
0.469785
0.4319
0.396638
0.370244
0.348895
0.323537
0.295218
0.271629
0.253214
0.232347
0.204248
0.173744
0.150193
0.137392
0.129268
0.115543
0.0907718
0.0579743
0.0267205
0.00728774
0.00233351
0.00382003
0.00212591
-0.00192144
-0.000860429
0.407496
0.0381659
0.145905
0.277961
0.29161
0.324117
0.337461
0.319469
0.308851
0.309529
0.295902
0.267995
0.24699
0.237382
0.223515
0.193571
0.156363
0.130561
0.124626
0.127776
0.120911
0.0944812
0.0535362
0.0131945
-0.00967377
-0.00961117
0.000584439
0.00365818
-0.000775612
-0.000537671
140.585
140.666
140.854
141.139
141.504
141.939
142.437
142.988
143.583
144.21
144.855
145.503
146.137
146.736
147.279
147.738
148.082
148.273
148.267
148.006
147.42
146.411
144.847
142.533
139.171
134.265
126.895
115.147
92.9955
33.2427
139.858
139.929
140.095
140.345
140.664
141.042
141.471
141.942
142.443
142.964
143.488
144
144.482
144.912
145.265
145.511
145.617
145.541
145.23
144.62
143.627
142.137
139.991
136.958
132.68
126.572
117.603
104.039
84.5145
56.0524
139.088
139.15
139.292
139.506
139.778
140.097
140.455
140.843
141.249
141.661
142.062
142.437
142.765
143.024
143.186
143.221
143.092
142.752
142.146
141.203
139.833
137.913
135.28
131.703
126.857
120.288
111.403
99.5643
85.3201
68.6788
138.278
138.329
138.448
138.625
138.848
139.107
139.393
139.697
140.007
140.308
140.586
140.823
140.998
141.086
141.062
140.89
140.532
139.941
139.059
137.813
136.112
133.838
130.84
126.92
121.832
115.283
106.976
96.5769
84.0229
68.874
137.428
137.469
137.563
137.703
137.876
138.075
138.289
138.508
138.721
138.913
139.068
139.168
139.192
139.115
138.908
138.539
137.966
137.142
136.01
134.5
132.525
129.98
126.734
122.632
117.494
111.119
103.306
93.8137
82.4731
69.4911
136.541
136.572
136.641
136.743
136.867
137.005
137.146
137.281
137.397
137.481
137.516
137.482
137.36
137.123
136.744
136.189
135.417
134.385
133.035
131.304
129.115
126.376
122.983
118.815
113.743
107.633
100.36
91.8263
82.0216
71.3586
135.62
135.64
135.685
135.749
135.824
135.901
135.97
136.022
136.044
136.022
135.939
135.777
135.514
135.127
134.586
133.86
132.911
131.695
130.163
128.256
125.909
123.046
119.587
115.445
110.53
104.766
98.0967
90.5115
82.0537
73.0589
134.668
134.677
134.698
134.725
134.751
134.768
134.767
134.737
134.667
134.542
134.347
134.062
133.668
133.14
132.452
131.572
130.467
129.096
127.415
125.375
122.922
119.996
116.538
112.487
107.791
102.409
96.3277
89.567
82.1768
74.4294
133.688
133.688
133.684
133.674
133.652
133.611
133.541
133.433
133.275
133.052
132.75
132.35
131.833
131.177
130.356
129.341
128.102
126.604
124.808
122.675
120.16
117.22
113.813
109.899
105.451
100.453
94.9116
88.8609
82.3544
75.6199
132.685
132.675
132.648
132.602
132.534
132.436
132.3
132.117
131.874
131.559
131.157
130.651
130.022
129.25
128.311
127.181
125.831
124.232
122.353
120.161
117.622
114.706
111.385
107.635
103.446
98.8173
93.767
88.3346
82.573
76.6672
131.663
131.643
131.593
131.514
131.401
131.249
131.05
130.795
130.473
130.072
129.577
128.974
128.244
127.37
126.33
125.103
123.664
121.99
120.054
117.832
115.3
112.437
109.225
105.654
101.723
97.4411
92.8326
87.9364
82.8006
77.5735
130.628
130.598
130.527
130.414
130.259
130.056
129.798
129.476
129.08
128.599
128.02
127.329
126.511
125.548
124.423
123.116
121.609
119.881
117.913
115.686
113.183
110.392
107.304
103.917
100.235
96.274
92.0588
87.6258
83.0169
78.3513
129.583
129.545
129.453
129.309
129.114
128.863
128.549
128.166
127.702
127.149
126.494
125.726
124.83
123.792
122.596
121.227
119.67
117.908
115.927
113.714
111.258
108.553
105.596
102.39
98.9441
95.2754
91.4083
87.3754
83.2125
79.0158
128.536
128.489
128.378
128.205
127.973
127.677
127.313
126.872
126.347
125.729
125.008
124.172
123.209
122.108
120.857
119.441
117.849
116.069
114.092
111.908
109.511
106.9
104.076
101.045
97.8182
94.4135
90.8535
87.1665
83.3829
79.5805
127.492
127.437
127.309
127.109
126.842
126.506
126.095
125.603
125.023
124.347
123.567
122.673
121.655
120.504
119.209
117.759
116.147
114.364
112.402
110.258
107.929
105.415
102.721
99.8559
96.831
93.6634
90.3736
86.9861
83.5263
80.0576
126.457
126.396
126.251
126.027
125.728
125.355
124.902
124.364
123.736
123.01
122.18
121.237
120.174
118.983
117.655
116.184
114.563
112.787
110.851
108.754
106.496
104.08
101.513
98.8021
95.9612
93.0054
89.9531
86.8251
83.6429
80.4582
125.439
125.371
125.211
124.965
124.638
124.232
123.742
123.163
122.493
121.724
120.851
119.868
118.769
117.548
116.199
114.716
113.096
111.335
109.432
107.386
105.202
102.881
100.433
97.8657
95.1914
92.4242
89.5803
86.6776
83.734
80.7919
124.444
124.371
124.198
123.931
123.579
123.143
122.62
122.007
121.3
120.495
119.587
118.572
117.446
116.203
114.84
113.353
111.741
110.002
108.136
106.146
104.033
101.805
99.4684
97.0322
94.5078
91.908
89.2469
86.5397
83.8017
81.0678
123.48
123.401
123.216
122.932
122.558
122.096
121.545
120.902
120.164
119.329
118.393
117.353
116.206
114.949
113.579
112.096
110.497
108.785
106.959
105.023
102.981
100.84
98.6064
96.2894
93.8993
91.4475
88.9465
86.4092
83.8486
81.2935
122.554
122.47
122.275
121.975
121.582
121.098
120.523
119.854
119.091
118.231
117.272
116.214
115.052
113.787
112.417
110.941
109.361
107.677
105.893
104.011
102.037
99.9764
97.8373
95.6278
93.3573
91.036
88.6749
86.285
83.8775
81.4763
121.673
121.585
121.381
121.068
120.658
120.155
119.559
118.869
118.085
117.206
116.231
115.158
113.988
112.72
111.353
109.89
108.33
106.676
104.933
103.103
101.192
99.2062
97.1528
95.0395
92.875
90.6683
88.4291
86.1669
83.8914
81.6225
120.845
120.754
120.542
120.217
119.793
119.274
118.661
117.955
117.154
116.26
115.272
114.19
113.016
111.748
110.388
108.939
107.401
105.778
104.074
102.293
100.441
98.5229
96.5465
94.5187
92.4474
90.3409
88.2075
86.0556
83.8936
81.7382
120.078
119.985
119.765
119.431
118.995
118.463
117.836
117.115
116.302
115.396
114.4
113.313
112.137
110.872
109.522
108.088
106.572
104.979
103.313
101.577
99.7781
97.9213
96.0132
94.0606
92.0708
90.051
88.0088
85.9517
83.8868
81.8282
119.381
119.285
119.06
118.717
118.27
117.727
117.089
116.358
115.535
114.621
113.619
112.529
111.354
110.095
108.755
107.337
105.844
104.279
102.647
100.952
99.2009
97.398
95.5499
93.6628
91.7433
89.7981
87.8339
85.8574
83.8751
81.8986
118.762
118.663
118.432
118.082
117.627
117.075
116.428
115.688
114.858
113.938
112.932
111.842
110.67
109.417
108.088
106.686
105.213
103.674
102.073
100.415
98.7054
96.9494
95.1529
93.3217
91.4621
89.58
87.6815
85.7728
83.8595
81.9515
118.23
118.129
117.892
117.534
117.072
116.513
115.859
115.113
114.278
113.355
112.347
111.258
110.089
108.844
107.525
106.137
104.683
103.167
101.593
99.9667
98.2928
96.5766
94.8236
93.0394
91.2297
89.4
87.5561
85.7034
83.8473
81.996
117.796
117.69
117.447
117.081
116.612
116.047
115.387
114.637
113.797
112.872
111.864
110.776
109.611
108.373
107.064
105.689
104.25
102.754
101.203
99.6029
97.9584
96.2747
94.557
92.8106
91.0409
89.2532
87.4526
85.6442
83.8329
82.0257
117.47
117.359
117.106
116.734
116.26
115.69
115.027
114.272
113.43
112.504
111.496
110.41
109.249
108.016
106.716
105.351
103.926
102.445
100.912
99.3328
97.7116
96.0534
94.3633
92.6464
90.9078
89.1525
87.3855
85.6117
83.8357
82.0635
117.268
117.133
116.863
116.485
116.009
115.437
114.771
114.014
113.171
112.245
111.238
110.154
108.996
107.768
106.474
105.117
103.701
102.231
100.711
99.1461
97.5406
95.8995
94.2279
92.5306
90.8125
89.0786
87.3335
85.5818
83.828
82.077
117.249
117.05
116.752
116.368
115.889
115.313
114.645
113.887
113.043
112.116
111.11
110.028
108.873
107.648
106.359
105.007
103.598
102.136
100.624
99.0688
97.4737
95.8438
94.1839
92.499
90.7938
89.073
87.3414
85.6033
83.8632
82.1251
-50.5495
-30.3109
-11.1085
35.6904
28.2691
16.2827
51.1803
39.1009
27.9025
52.6019
42.1825
34.1441
56.9399
48.6547
41.9007
61.3263
54.4197
48.5306
64.5984
58.7187
53.6713
67.1934
62.1698
57.8619
69.3809
65.0496
61.3416
71.2273
67.4493
64.2229
72.7797
69.45
66.6136
74.0877
71.1257
68.6076
75.1916
72.5342
70.2783
76.1238
73.721
71.6833
76.9108
74.7226
72.8683
77.5745
75.5687
73.8694
78.1331
76.2833
74.716
78.6018
76.8859
75.4315
78.9935
77.393
76.0355
79.3194
77.8185
76.5441
79.589
78.1739
76.971
79.8108
78.4697
77.328
79.9916
78.7139
77.6244
80.1394
78.9157
77.8703
80.2568
79.0783
78.0701
80.3555
79.2143
78.2362
80.4267
79.3154
78.362
80.4992
79.4107
78.4745
80.533
79.4608
78.5386
80.602
79.5439
78.6282
-2.68912
-2.57289
-1.0996
0.0419674
0.0699882
0.158874
0.223522
0.203834
0.216615
0.273542
0.281692
0.240065
0.211758
0.214843
0.216272
0.183698
0.133494
0.101958
0.106978
0.12937
0.133801
0.104007
0.0496671
-0.00555222
-0.0346626
-0.0268736
-0.00214227
0.00829683
0.00151231
-0.000114198
2.52232
-0.439435
1.13474
0.617743
-0.703708
-0.48296
0.128842
0.178983
0.190625
0.292253
0.278905
0.180837
0.13677
0.183403
0.232211
0.193221
0.112205
0.0615167
0.07867
0.132258
0.155999
0.120087
0.0446065
-0.0338716
-0.073456
-0.0533605
-0.00339946
0.0192928
0.00606071
0.000354542
13.648
5.27031
2.49211
0.0586247
-0.292977
1.02726
1.21868
-0.00443078
-0.399192
-0.0573208
0.296075
0.19162
0.117615
0.214233
0.287392
0.201756
0.0533261
-0.0361744
0.0102317
0.137159
0.207821
0.158082
0.0481626
-0.0672025
-0.126577
-0.0909772
0.000250697
0.0436851
0.0157929
0.00071645
23.3972
13.5242
7.66353
3.89102
2.13745
1.54748
0.393935
-0.286179
0.0182369
1.19257
1.14577
0.0697152
-0.328928
-0.162629
0.241034
0.282818
0.0429872
-0.107588
-0.00843357
0.213864
0.303103
0.204379
0.0373198
-0.134791
-0.227657
-0.167345
0.00633154
0.0880228
0.0358608
0.000458371
32.5598
22.7974
15.4818
10.19
6.55178
4.0774
2.22256
1.21144
0.921994
0.952705
0.46438
-0.113641
-0.235701
0.517196
1.05566
0.53887
-0.0944906
-0.465175
-0.418234
0.099996
0.407717
0.291012
0.0518484
-0.186113
-0.316465
-0.199297
0.0438892
0.17447
0.0759037
-0.00126898
40.5322
31.6066
23.7212
17.2911
12.3669
8.72351
6.05366
4.17394
2.90633
2.01638
1.25534
0.658322
0.391614
0.579644
0.57936
0.325748
-0.170271
-0.499963
-0.187432
0.680651
0.844143
0.356626
0.0036767
-0.319409
-0.556348
-0.514365
-0.00283437
0.293926
0.139764
-0.00705425
47.0378
39.232
31.4567
24.5675
18.9442
14.4872
10.9683
8.2194
6.12798
4.55924
3.33893
2.36936
1.69942
1.33453
1.04081
0.686766
0.201365
-0.110642
0.0383855
0.433074
0.571323
0.367982
0.036294
-0.335475
-0.597184
-0.385133
0.348592
0.567179
0.217603
-0.0208637
52.3362
45.6041
38.3463
31.5171
25.6361
20.6934
16.5568
13.138
10.3705
8.15711
6.36669
4.91258
3.78926
2.97278
2.33372
1.72758
1.13331
0.722271
0.628176
0.730663
0.751062
0.529363
0.157552
-0.2142
-0.426685
-0.265805
0.173371
0.395108
0.306752
-0.0637868
56.6582
50.8406
44.2558
37.7826
31.966
26.8565
22.3898
18.5306
15.2492
12.4892
10.1732
8.24043
6.66004
5.39249
4.34883
3.4357
2.63858
2.03146
1.67235
1.48984
1.29606
0.962332
0.542773
0.163253
-0.051916
0.00337167
0.25108
0.390586
0.263067
-0.30208
60.1851
55.1167
49.2134
43.2286
37.6756
32.6323
28.0696
23.9832
20.3743
17.2237
14.4937
12.1445
10.1433
8.4525
7.01486
5.77369
4.70828
3.83991
3.18508
2.6927
2.24621
1.76117
1.25796
0.816433
0.520834
0.42456
0.465553
0.438236
0.176366
-0.517387
63.0815
58.6213
53.3407
47.8723
42.6765
37.8365
33.3395
29.197
25.4297
22.0428
19.0237
16.3517
14.004
11.9539
10.1658
8.60316
7.24423
6.08679
5.12688
4.32718
3.61739
2.94124
2.29836
1.73229
1.29408
1.00694
0.818267
0.587077
0.176319
-0.593287
65.4804
61.5162
56.7776
51.7984
46.9839
42.4128
38.078
33.9967
30.1984
26.7014
23.5093
20.6159
18.0106
15.678
13.5972
11.7448
10.1028
8.66107
7.40809
6.31633
5.34171
4.44561
3.61892
2.88116
2.25828
1.75535
1.32902
0.882554
0.314182
-0.52271
67.4814
63.9255
59.6499
55.1106
50.6644
46.3815
42.256
38.3049
34.5599
31.0453
27.7737
24.749
21.9698
19.4302
17.1195
15.0245
13.1321
11.4318
9.9111
8.54972
7.31884
6.19163
5.15638
4.21795
3.38531
2.65361
1.98812
1.32239
0.585825
-0.331246
69.1596
65.9435
62.0615
57.9086
53.8007
49.7999
45.8987
42.1117
38.4694
34.9979
31.7141
28.6277
25.7438
23.0631
20.5824
18.2955
16.1946
14.2714
12.5157
10.9129
9.44352
8.08883
6.83705
5.68509
4.63201
3.66827
2.76649
1.88114
0.965685
-0.0550489
70.573
67.642
64.0951
60.2783
56.4738
52.7361
49.0561
45.445
41.9303
38.5378
35.2859
32.1874
29.2508
26.4817
23.8816
21.4496
19.182
17.074
15.1182
13.3046
11.6201
10.0512
8.58739
7.22198
5.94909
4.75754
3.62586
2.52274
1.41817
0.265769
71.7666
69.0766
65.8158
62.2904
58.7546
55.2565
51.7853
48.3488
44.9713
41.6767
38.4834
35.4052
32.453
29.6347
26.9554
24.4174
22.0206
19.763
17.6403
15.646
13.7715
12.007
10.3436
8.77364
7.2892
5.87914
4.52641
3.20892
1.90674
0.595523
72.7762
70.2907
67.2749
64.0022
60.7029
57.42
54.1411
50.8712
47.631
44.4422
41.3222
38.2849
35.342
32.5029
29.7745
27.1616
24.6666
22.2899
20.0297
17.8824
15.8424
13.9029
12.0564
10.2956
8.61228
6.99595
5.43265
3.90582
2.40077
0.908448
73.6304
71.3191
68.5137
65.46
62.3681
59.2768
56.1726
53.0578
49.9497
46.8678
43.828
40.8436
37.9263
35.086
32.3309
29.6672
27.099
24.6284
22.2559
19.9798
17.797
15.7027
13.691
11.7554
9.88792
8.07904
6.31676
4.58747
2.87846
1.19
74.3527
72.1899
69.5654
66.7015
63.7911
60.8694
57.9222
54.9493
51.9653
48.9873
46.0294
43.1041
40.2226
37.3947
34.6292
31.9328
29.3111
26.7673
24.3035
21.9197
19.6144
17.3844
15.2252
13.1312
11.0951
9.10802
7.15919
5.23627
3.32658
1.43511
74.9623
72.9263
70.4575
67.7579
65.0058
62.2333
59.426
56.5815
53.7121
50.8323
47.9549
45.0909
42.2509
39.4443
36.6798
33.9647
31.3049
28.7049
26.1674
23.6938
21.2839
18.9358
16.646
14.4097
12.2204
10.0697
7.94746
5.84164
3.73867
1.64509
75.4753
73.5475
71.2123
68.6548
66.0403
63.3986
60.7149
57.9855
55.2201
52.4314
49.6306
46.8275
44.0315
41.2517
38.4963
35.7726
33.0869
30.444
27.8476
25.2997
22.8011
20.3508
17.9462
15.5832
13.2558
10.9561
8.67416
6.39784
4.11244
1.82414
75.9057
74.0699
71.8492
69.414
66.9185
64.3907
61.8155
59.1879
56.5159
53.8102
51.0807
48.3359
45.5842
42.8339
40.0928
37.368
34.6656
31.9908
29.3476
26.7387
24.1653
21.6272
19.1225
16.6475
14.1969
11.7628
9.33554
6.90255
4.44817
1.97725
76.2645
74.5065
72.3835
70.0531
67.6599
65.2304
62.7494
60.2111
57.6217
54.9906
52.326
49.6355
46.9265
44.2065
41.4827
38.7617
36.0496
33.3515
30.6716
28.0129
25.3771
22.7642
20.173
17.6002
15.0407
12.4869
9.92895
7.35418
4.74613
2.10787
76.5626
74.8701
72.8297
70.5882
68.2822
65.9366
63.5367
61.0756
58.5583
55.9927
53.3861
50.745
48.0758
45.3852
42.6798
39.9659
37.2491
34.5344
31.8261
29.1272
26.4397
23.764
21.0989
18.4417
15.7872
13.1282
10.4547
7.75378
5.00855
2.21979
76.8062
75.168
73.1967
71.0297
68.7968
66.522
64.1906
61.7951
59.3395
56.8305
54.2745
51.6769
49.0436
46.3803
43.6932
40.9879
38.2697
35.5436
32.8135
30.0826
27.3529
24.6249
21.8977
19.1687
16.4329
13.6831
10.9093
8.09845
5.23338
2.31261
77.0071
75.4131
73.4985
71.3928
69.2201
67.0036
64.7288
62.388
59.9838
57.5225
55.0093
52.4491
49.8469
47.208
44.5377
41.8414
39.1241
36.3902
33.6438
30.8878
28.1242
25.3537
22.5754
19.7867
16.9829
14.1566
11.298
8.39358
5.42627
2.39148
77.1622
75.603
73.7332
71.6761
69.5512
67.3811
65.1516
62.8544
60.4917
58.0688
55.5904
53.0608
50.4843
47.8658
45.2101
42.5221
39.8065
37.0676
34.3091
31.5338
28.7438
25.9398
23.1208
20.2843
17.4255
14.5372
11.6092
8.62832
5.57732
2.4494
77.2936
75.7601
73.9244
71.9041
69.8154
67.6804
65.4851
63.2212
60.89
58.4965
56.0447
53.5387
50.9822
48.3797
45.7356
43.0545
40.3408
37.5985
34.8312
32.0418
29.232
26.4026
23.5526
20.6795
17.7785
14.8422
11.8605
8.81982
5.70284
2.49893
77.3744
75.8571
74.0437
72.0485
69.9841
67.8726
65.7003
63.4585
61.1486
58.7747
56.341
53.8508
51.3079
48.7162
46.0801
43.4038
40.6916
37.9474
35.1745
32.3757
29.5528
26.7064
23.8356
20.9379
18.0082
15.0392
12.0205
8.9383
5.77515
2.51882
77.4633
75.9471
74.1459
72.1657
70.115
68.0161
65.8559
63.6259
61.3269
58.9632
56.5384
54.0561
51.5196
48.9329
46.3001
43.6254
40.9129
38.1665
35.3895
32.5846
29.7536
26.8971
24.0142
21.1023
18.1564
15.169
12.1294
9.02292
5.8295
2.5253
)
;

boundaryField
{
    inlet
    {
        type            zeroGradient;
    }
    outlet
    {
        type            fixedValue;
        value           uniform 0;
    }
    flap
    {
        type            zeroGradient;
    }
    upperWall
    {
        type            zeroGradient;
    }
    lowerWall
    {
        type            zeroGradient;
    }
    frontAndBack
    {
        type            empty;
    }
}


// ************************************************************************* //
