/*--------------------------------*- C++ -*----------------------------------*\
| =========                 |                                                 |
| \\      /  F ield         | OpenFOAM: The Open Source CFD Toolbox           |
|  \\    /   O peration     | Version:  4.1                                   |
|   \\  /    A nd           | Web:      www.OpenFOAM.org                      |
|    \\/     M anipulation  |                                                 |
\*---------------------------------------------------------------------------*/
FoamFile
{
    version     2.0;
    format      ascii;
    class       volVectorField;
    location    "4.8";
    object      cellDisplacement;
}
// * * * * * * * * * * * * * * * * * * * * * * * * * * * * * * * * * * * * * //

dimensions      [0 1 0 0 0 0 0];

internalField   nonuniform List<vector> 
2790
(
(0.0097448 0 -3.00531e-05)
(0.0278336 0 -8.61597e-05)
(0.0432956 0 -0.000135323)
(0.0563486 0 -0.000178677)
(0.0672318 0 -0.000217064)
(0.0761601 0 -0.000251166)
(0.08332 0 -0.000281457)
(0.0888712 0 -0.000308336)
(0.092957 0 -0.000331178)
(0.0957068 0 -0.00035007)
(0.097231 0 -0.000364754)
(0.0976266 0 -0.000374768)
(0.0969794 0 -0.000379483)
(0.0953662 0 -0.00037811)
(0.0928576 0 -0.000369689)
(0.0895193 0 -0.000353098)
(0.0854146 0 -0.000327045)
(0.080606 0 -0.000290072)
(0.075157 0 -0.000240479)
(0.0691345 0 -0.000176352)
(0.0626111 0 -9.55794e-05)
(0.0556688 0 4.12312e-06)
(0.0484025 0 0.000125169)
(0.0409254 0 0.000270029)
(0.0333763 0 0.000441112)
(0.0259329 0 0.000640588)
(0.018836 0 0.000869848)
(0.0124335 0 0.00112753)
(0.0072488 0 0.00140232)
(0.00430466 0 0.00164868)
(0.00975798 0 -9.02299e-05)
(0.027873 0 -0.000258703)
(0.0433611 0 -0.00040637)
(0.0564401 0 -0.000536655)
(0.0673505 0 -0.000652046)
(0.0763093 0 -0.000754614)
(0.0835039 0 -0.00084576)
(0.0890931 0 -0.000926999)
(0.0932205 0 -0.00099596)
(0.0960182 0 -0.00105322)
(0.097597 0 -0.001098)
(0.0980547 0 -0.00112892)
(0.0974778 0 -0.00114414)
(0.0959445 0 -0.00114132)
(0.0935262 0 -0.00111763)
(0.0902902 0 -0.00106974)
(0.086301 0 -0.000993866)
(0.0816234 0 -0.000885731)
(0.076323 0 -0.000740348)
(0.0704689 0 -0.000552099)
(0.0641368 0 -0.000314821)
(0.0574122 0 -2.18998e-05)
(0.0503949 0 0.000333557)
(0.043204 0 0.000758411)
(0.0359857 0 0.00125885)
(0.0289223 0 0.00183957)
(0.0222587 0 0.00250191)
(0.016373 0 0.00323905)
(0.0118592 0 0.00401269)
(0.00978026 0 0.00467273)
(0.00978503 0 -0.000150611)
(0.0279534 0 -0.000431893)
(0.0434944 0 -0.000678571)
(0.0566257 0 -0.000896439)
(0.0675904 0 -0.00108949)
(0.0766098 0 -0.00126129)
(0.0838745 0 -0.00141398)
(0.0895376 0 -0.00154835)
(0.0937466 0 -0.00166416)
(0.0966393 0 -0.00176107)
(0.0983262 0 -0.00183762)
(0.0989064 0 -0.00189162)
(0.0984686 0 -0.00192009)
(0.0970928 0 -0.00191928)
(0.094853 0 -0.00188467)
(0.0918186 0 -0.00181092)
(0.0880571 0 -0.00169193)
(0.0836376 0 -0.00152111)
(0.0786298 0 -0.00129055)
(0.0731072 0 -0.000991413)
(0.0671511 0 -0.000614153)
(0.0608544 0 -0.000148684)
(0.0543264 0 0.000415208)
(0.0476994 0 0.00108726)
(0.0411421 0 0.001875)
(0.0348557 0 0.00278221)
(0.0290841 0 0.00380629)
(0.0241851 0 0.00492508)
(0.0208439 0 0.006061)
(0.0202669 0 0.00695563)
(0.00982574 0 -0.000211)
(0.028074 0 -0.000605154)
(0.0436944 0 -0.000951007)
(0.0569032 0 -0.00125692)
(0.0679477 0 -0.00152804)
(0.0770563 0 -0.00176972)
(0.0844185 0 -0.00198476)
(0.0901927 0 -0.00217362)
(0.0945292 0 -0.00233803)
(0.0975639 0 -0.00247673)
(0.0994116 0 -0.00258781)
(0.100174 0 -0.0026684)
(0.0999428 0 -0.0027146)
(0.0988013 0 -0.00272147)
(0.0968268 0 -0.00268305)
(0.094092 0 -0.00259227)
(0.0906677 0 -0.00244103)
(0.0866311 0 -0.00222137)
(0.0820569 0 -0.00192297)
(0.0770248 0 -0.0015346)
(0.0716235 0 -0.00104441)
(0.0659544 0 -0.00044025)
(0.0601383 0 0.000289515)
(0.0543186 0 0.00115555)
(0.048704 0 0.00216292)
(0.0435266 0 0.00330928)
(0.0390822 0 0.00457634)
(0.0356962 0 0.00592035)
(0.0339482 0 0.00722457)
(0.0353373 0 0.00811123)
(0.0098794 0 -0.000271384)
(0.0282329 0 -0.000778468)
(0.0439594 0 -0.00122365)
(0.0572686 0 -0.00161647)
(0.0684161 0 -0.00196562)
(0.0776423 0 -0.00227761)
(0.0851353 0 -0.00255605)
(0.0910579 0 -0.00280337)
(0.0955594 0 -0.00301865)
(0.0987803 0 -0.00320198)
(0.100839 0 -0.00335126)
(0.10184 0 -0.00346317)
(0.10188 0 -0.00353312)
(0.101045 0 -0.00355529)
(0.0994186 0 -0.00352268)
(0.0970773 0 -0.00342696)
(0.0940926 0 -0.00325783)
(0.0905578 0 -0.00300814)
(0.0865525 0 -0.00266534)
(0.0821647 0 -0.00221688)
(0.0774935 0 -0.00165012)
(0.0726524 0 -0.000952621)
(0.0677827 0 -0.00011429)
(0.0630334 0 0.000874751)
(0.0586085 0 0.00201505)
(0.0547983 0 0.00328972)
(0.0519708 0 0.00465671)
(0.0505099 0 0.006035)
(0.050798 0 0.00728793)
(0.0543629 0 0.00793171)
(0.00994578 0 -0.000331695)
(0.0284284 0 -0.000951655)
(0.0442733 0 -0.00149606)
(0.0577063 0 -0.00197614)
(0.0689918 0 -0.00240431)
(0.0783642 0 -0.00278768)
(0.0860205 0 -0.00313089)
(0.0921206 0 -0.0034359)
(0.0968213 0 -0.00370413)
(0.10027 0 -0.00393523)
(0.102585 0 -0.00412693)
(0.103878 0 -0.00427571)
(0.104247 0 -0.0043766)
(0.103787 0 -0.00442334)
(0.102584 0 -0.0044084)
(0.100726 0 -0.00432317)
(0.0982915 0 -0.00415736)
(0.0953706 0 -0.00390084)
(0.0920598 0 -0.00354203)
(0.0884564 0 -0.0030684)
(0.0846719 0 -0.00246814)
(0.0808281 0 -0.00172948)
(0.0771003 0 -0.00084744)
(0.0736722 0 0.000179317)
(0.0707284 0 0.00134517)
(0.06855 0 0.00262343)
(0.0675616 0 0.00394197)
(0.0682601 0 0.00516933)
(0.0709565 0 0.00614833)
(0.0766589 0 0.00637139)
(0.0100235 0 -0.000391557)
(0.0286587 0 -0.00112369)
(0.0446462 0 -0.0017672)
(0.0582249 0 -0.00233584)
(0.06967 0 -0.00284377)
(0.079214 0 -0.00329969)
(0.0870565 0 -0.00370907)
(0.0933661 0 -0.00407391)
(0.0983065 0 -0.00439836)
(0.102022 0 -0.00468127)
(0.104639 0 -0.00492051)
(0.106273 0 -0.0051128)
(0.107028 0 -0.00525312)
(0.107005 0 -0.0053351)
(0.106297 0 -0.00535121)
(0.104998 0 -0.00529291)
(0.1032 0 -0.00515063)
(0.101 0 -0.00491377)
(0.0985017 0 -0.0045714)
(0.0958159 0 -0.00411268)
(0.0930763 0 -0.00352942)
(0.090412 0 -0.00281179)
(0.0879801 0 -0.00195552)
(0.0860375 0 -0.000975859)
(0.0848103 0 0.000106001)
(0.0845488 0 0.00125113)
(0.0855945 0 0.00237606)
(0.0885849 0 0.00329471)
(0.0937819 0 0.00381536)
(0.10159 0 0.00349162)
(0.0101116 0 -0.000451172)
(0.0289234 0 -0.00129522)
(0.0450738 0 -0.00203683)
(0.0588155 0 -0.00269353)
(0.0704405 0 -0.00328151)
(0.0801794 0 -0.00381081)
(0.0882357 0 -0.00428813)
(0.0947871 0 -0.00471724)
(0.0999981 0 -0.00510137)
(0.104016 0 -0.0054404)
(0.106974 0 -0.00573269)
(0.108994 0 -0.0059757)
(0.110186 0 -0.00616464)
(0.110656 0 -0.00629346)
(0.110506 0 -0.00635517)
(0.109839 0 -0.00634205)
(0.108761 0 -0.00624645)
(0.10737 0 -0.00605712)
(0.105783 0 -0.00576554)
(0.104121 0 -0.00536283)
(0.102555 0 -0.00484819)
(0.101235 0 -0.00421825)
(0.100309 0 -0.00347162)
(0.099996 0 -0.00262503)
(0.100631 0 -0.00172926)
(0.102472 0 -0.000843708)
(0.105757 0 -5.40563e-05)
(0.111097 0 0.000422744)
(0.118707 0 0.000365307)
(0.128621 0 -0.00058823)
(0.0102086 0 -0.000510411)
(0.0292047 0 -0.00146538)
(0.0455384 0 -0.00230506)
(0.0594733 0 -0.00305049)
(0.0712994 0 -0.00371925)
(0.0812558 0 -0.00432324)
(0.0895512 0 -0.00487049)
(0.09637 0 -0.00536608)
(0.10188 0 -0.00581338)
(0.106233 0 -0.00621306)
(0.109567 0 -0.00656406)
(0.112012 0 -0.00686539)
(0.113684 0 -0.00711258)
(0.114696 0 -0.00730033)
(0.115157 0 -0.00742259)
(0.115177 0 -0.00747244)
(0.114891 0 -0.00744782)
(0.114388 0 -0.00733549)
(0.113805 0 -0.00713134)
(0.113288 0 -0.00683219)
(0.112993 0 -0.00643717)
(0.113095 0 -0.0059516)
(0.113828 0 -0.00539459)
(0.115358 0 -0.0047826)
(0.117965 0 -0.00416826)
(0.122031 0 -0.00365232)
(0.127769 0 -0.00333314)
(0.13544 0 -0.00339447)
(0.145401 0 -0.00410838)
(0.157292 0 -0.00572601)
(0.0103135 0 -0.0005689)
(0.0295146 0 -0.00163382)
(0.0460507 0 -0.00257203)
(0.0601924 0 -0.00340611)
(0.072238 0 -0.00415627)
(0.0824317 0 -0.00483611)
(0.090988 0 -0.00545511)
(0.0980971 0 -0.00601957)
(0.103931 0 -0.00653351)
(0.108646 0 -0.0069984)
(0.112383 0 -0.00741343)
(0.115289 0 -0.00778081)
(0.117478 0 -0.00809596)
(0.119072 0 -0.00835479)
(0.120189 0 -0.00855296)
(0.120961 0 -0.00868805)
(0.121507 0 -0.00875458)
(0.121947 0 -0.00874687)
(0.122424 0 -0.00866308)
(0.123127 0 -0.00851047)
(0.124197 0 -0.00828946)
(0.125837 0 -0.00801391)
(0.128262 0 -0.00770661)
(0.131767 0 -0.00741845)
(0.136523 0 -0.0071918)
(0.142879 0 -0.00713393)
(0.151139 0 -0.00738536)
(0.161229 0 -0.00807629)
(0.173488 0 -0.00948968)
(0.187155 0 -0.0117633)
(0.0104259 0 -0.000626816)
(0.0298515 0 -0.00180096)
(0.0466027 0 -0.002836)
(0.060962 0 -0.00375795)
(0.0732422 0 -0.00458955)
(0.0836896 0 -0.00534589)
(0.0925242 0 -0.00603794)
(0.0999419 0 -0.00667328)
(0.10612 0 -0.00725694)
(0.111217 0 -0.00779151)
(0.115392 0 -0.00827893)
(0.118787 0 -0.00872025)
(0.121522 0 -0.00911273)
(0.123728 0 -0.00945423)
(0.125531 0 -0.00974179)
(0.127091 0 -0.00998007)
(0.12851 0 -0.0101608)
(0.129936 0 -0.0102852)
(0.131534 0 -0.010358)
(0.133466 0 -0.0103843)
(0.135948 0 -0.0103834)
(0.139193 0 -0.0103774)
(0.143388 0 -0.0103898)
(0.148868 0 -0.0104876)
(0.155871 0 -0.0107389)
(0.164592 0 -0.0112282)
(0.175363 0 -0.0121166)
(0.188019 0 -0.0135149)
(0.202538 0 -0.0156413)
(0.217751 0 -0.0185169)
(0.0105442 0 -0.000683986)
(0.0301957 0 -0.00196548)
(0.0471755 0 -0.00309658)
(0.0617766 0 -0.00410684)
(0.0743067 0 -0.00502022)
(0.0850229 0 -0.00585392)
(0.0941515 0 -0.00662049)
(0.101894 0 -0.00732891)
(0.108433 0 -0.00798546)
(0.113936 0 -0.00859424)
(0.118564 0 -0.00915872)
(0.122464 0 -0.00968046)
(0.125765 0 -0.0101589)
(0.128606 0 -0.0105941)
(0.131128 0 -0.0109874)
(0.13348 0 -0.0113412)
(0.135792 0 -0.0116556)
(0.138219 0 -0.011935)
(0.14096 0 -0.0121943)
(0.144172 0 -0.0124412)
(0.14806 0 -0.0126971)
(0.152893 0 -0.0130033)
(0.158914 0 -0.0134012)
(0.166346 0 -0.0139424)
(0.175544 0 -0.0147303)
(0.18668 0 -0.0158465)
(0.199999 0 -0.0174387)
(0.215256 0 -0.0195867)
(0.232002 0 -0.0224084)
(0.248581 0 -0.0257996)
(0.0106671 0 -0.000740012)
(0.0305576 0 -0.00212717)
(0.0477782 0 -0.00335393)
(0.0626295 0 -0.00445188)
(0.0754212 0 -0.00544709)
(0.0864181 0 -0.00635872)
(0.0958529 0 -0.00720096)
(0.103933 0 -0.00798429)
(0.110846 0 -0.00871637)
(0.116763 0 -0.0094026)
(0.121858 0 -0.0100487)
(0.126277 0 -0.0106571)
(0.130155 0 -0.0112288)
(0.133642 0 -0.0117674)
(0.136888 0 -0.0122766)
(0.140037 0 -0.01276)
(0.143246 0 -0.0132253)
(0.146687 0 -0.0136828)
(0.150535 0 -0.0141459)
(0.155011 0 -0.0146415)
(0.160304 0 -0.0151927)
(0.166668 0 -0.0158429)
(0.174423 0 -0.0166618)
(0.183752 0 -0.017698)
(0.195045 0 -0.0190692)
(0.208507 0 -0.0208675)
(0.224278 0 -0.0232085)
(0.242084 0 -0.0261353)
(0.261032 0 -0.0296256)
(0.278952 0 -0.0334597)
(0.0107943 0 -0.000795038)
(0.0309344 0 -0.00228625)
(0.0484044 0 -0.00360731)
(0.0635133 0 -0.00479211)
(0.0765754 0 -0.00586888)
(0.087862 0 -0.00685871)
(0.0976119 0 -0.00777743)
(0.106038 0 -0.00863708)
(0.113334 0 -0.00944685)
(0.119677 0 -0.0102139)
(0.125243 0 -0.0109454)
(0.130182 0 -0.0116448)
(0.134637 0 -0.0123156)
(0.138768 0 -0.0129645)
(0.142728 0 -0.0135981)
(0.146663 0 -0.0142214)
(0.150754 0 -0.01485)
(0.155183 0 -0.0155005)
(0.160117 0 -0.0161885)
(0.165765 0 -0.0169424)
(0.172388 0 -0.017809)
(0.180189 0 -0.0188274)
(0.189503 0 -0.0200797)
(0.200598 0 -0.0216443)
(0.21373 0 -0.0236144)
(0.229233 0 -0.0261206)
(0.247079 0 -0.0292233)
(0.267116 0 -0.0329564)
(0.288089 0 -0.0371176)
(0.307589 0 -0.0414107)
(0.0109251 0 -0.000848899)
(0.0313223 0 -0.00244217)
(0.049048 0 -0.0038559)
(0.0644202 0 -0.00512644)
(0.0777587 0 -0.00628418)
(0.0893411 0 -0.00735209)
(0.0994114 0 -0.00834768)
(0.108188 0 -0.00928454)
(0.11587 0 -0.0101735)
(0.122637 0 -0.0110229)
(0.128676 0 -0.011843)
(0.134134 0 -0.0126372)
(0.139158 0 -0.0134108)
(0.143924 0 -0.0141761)
(0.148585 0 -0.0149412)
(0.153296 0 -0.0157154)
(0.158223 0 -0.016513)
(0.163567 0 -0.0173595)
(0.169519 0 -0.0182809)
(0.176258 0 -0.0193037)
(0.184056 0 -0.0204843)
(0.193158 0 -0.0218806)
(0.203795 0 -0.0235591)
(0.216298 0 -0.0256289)
(0.230851 0 -0.028176)
(0.247769 0 -0.031347)
(0.266909 0 -0.0351862)
(0.288193 0 -0.0397509)
(0.310133 0 -0.0446551)
(0.331695 0 -0.0497324)
(0.00552595 0 -0.00214914)
(0.0118363 0 -0.00243433)
(0.0247295 0 -0.00279355)
(0.043687 0 -0.00319108)
(0.0667867 0 -0.00354621)
(0.0915818 0 -0.00381862)
(0.11575 0 -0.00399422)
(0.137688 0 -0.00406298)
(0.156521 0 -0.00403282)
(0.17198 0 -0.00393178)
(0.184259 0 -0.00378947)
(0.193602 0 -0.00360923)
(0.200284 0 -0.00342142)
(0.204581 0 -0.00321193)
(0.206713 0 -0.00299563)
(0.206854 0 -0.00280124)
(0.20512 0 -0.00259325)
(0.201595 0 -0.00238021)
(0.196324 0 -0.00218736)
(0.189321 0 -0.00198683)
(0.180568 0 -0.00179885)
(0.170051 0 -0.00161295)
(0.157721 0 -0.00143271)
(0.143489 0 -0.00125865)
(0.127331 0 -0.00107728)
(0.109142 0 -0.000898168)
(0.0887734 0 -0.000715177)
(0.0662379 0 -0.000525011)
(0.0414735 0 -0.000325883)
(0.0142499 0 -0.000112006)
(0.0103719 0 -0.00656051)
(0.0171796 0 -0.00739537)
(0.0304988 0 -0.00847911)
(0.0495199 0 -0.00961847)
(0.0723389 0 -0.0106304)
(0.096639 0 -0.0114108)
(0.120149 0 -0.0118739)
(0.141395 0 -0.012055)
(0.159567 0 -0.0119489)
(0.174462 0 -0.0116385)
(0.186277 0 -0.0112227)
(0.195231 0 -0.0106904)
(0.201599 0 -0.0101184)
(0.205637 0 -0.00949389)
(0.207572 0 -0.00887338)
(0.207551 0 -0.00826359)
(0.205692 0 -0.00764998)
(0.202063 0 -0.00703631)
(0.196712 0 -0.00645764)
(0.189647 0 -0.00587914)
(0.180841 0 -0.00532899)
(0.170281 0 -0.00477791)
(0.157905 0 -0.00424446)
(0.143655 0 -0.00372234)
(0.127483 0 -0.00319327)
(0.109263 0 -0.00266405)
(0.0888798 0 -0.00212238)
(0.0663235 0 -0.00155788)
(0.0415271 0 -0.000967201)
(0.0142695 0 -0.000332477)
(0.0197251 0 -0.0112278)
(0.0275813 0 -0.0126177)
(0.0416346 0 -0.014389)
(0.0606515 0 -0.0161649)
(0.0829732 0 -0.0177385)
(0.106268 0 -0.0188935)
(0.128529 0 -0.0195517)
(0.148464 0 -0.0197511)
(0.165379 0 -0.0195215)
(0.179229 0 -0.0190065)
(0.190152 0 -0.0183013)
(0.198352 0 -0.0174216)
(0.204119 0 -0.0164733)
(0.207677 0 -0.0154649)
(0.209233 0 -0.0144646)
(0.208903 0 -0.0134513)
(0.206799 0 -0.0124547)
(0.202975 0 -0.0114749)
(0.197466 0 -0.0105253)
(0.190272 0 -0.00959786)
(0.181372 0 -0.0087008)
(0.170737 0 -0.00781133)
(0.158285 0 -0.0069431)
(0.143978 0 -0.00608208)
(0.127757 0 -0.00522657)
(0.109491 0 -0.00436407)
(0.0890888 0 -0.00347997)
(0.0664931 0 -0.00255807)
(0.0416274 0 -0.00158883)
(0.0143054 0 -0.000546291)
(0.0333401 0 -0.0162925)
(0.0426135 0 -0.0182488)
(0.0574163 0 -0.0205953)
(0.0763629 0 -0.0228963)
(0.0978907 0 -0.0248841)
(0.11974 0 -0.0262665)
(0.140235 0 -0.0269882)
(0.15832 0 -0.0271057)
(0.173552 0 -0.026707)
(0.185938 0 -0.0259574)
(0.195595 0 -0.0249457)
(0.202761 0 -0.0237374)
(0.207697 0 -0.0224399)
(0.210588 0 -0.021085)
(0.211601 0 -0.0197185)
(0.210839 0 -0.0183508)
(0.208387 0 -0.0170001)
(0.204284 0 -0.0156761)
(0.19855 0 -0.0143835)
(0.191176 0 -0.0131262)
(0.18213 0 -0.0118953)
(0.171377 0 -0.0106951)
(0.158835 0 -0.00951622)
(0.144445 0 -0.00834371)
(0.128139 0 -0.00717691)
(0.109807 0 -0.00599737)
(0.0893539 0 -0.00478645)
(0.0667004 0 -0.00352405)
(0.0417589 0 -0.00219026)
(0.0143526 0 -0.00075327)
(0.0507577 0 -0.0218336)
(0.0615798 0 -0.024334)
(0.0770342 0 -0.0271533)
(0.0958386 0 -0.0298647)
(0.116197 0 -0.0320569)
(0.13622 0 -0.0335133)
(0.154509 0 -0.0341501)
(0.170394 0 -0.0341016)
(0.183611 0 -0.0334979)
(0.194185 0 -0.0324581)
(0.202323 0 -0.0311434)
(0.208245 0 -0.0296314)
(0.212162 0 -0.02801)
(0.214227 0 -0.0263297)
(0.214571 0 -0.0246302)
(0.213272 0 -0.0229361)
(0.210386 0 -0.0212602)
(0.205936 0 -0.0196198)
(0.199918 0 -0.0180099)
(0.192322 0 -0.0164499)
(0.183091 0 -0.0149209)
(0.17218 0 -0.0134301)
(0.159513 0 -0.011963)
(0.145016 0 -0.0105051)
(0.12861 0 -0.00904531)
(0.110194 0 -0.00756493)
(0.0896683 0 -0.00604213)
(0.06694 0 -0.00445243)
(0.0419126 0 -0.00276875)
(0.0144077 0 -0.000952401)
(0.0714499 0 -0.0278914)
(0.0837164 0 -0.0308659)
(0.0997485 0 -0.0340726)
(0.118174 0 -0.0370322)
(0.137021 0 -0.0392481)
(0.154864 0 -0.0405895)
(0.170669 0 -0.0410283)
(0.184071 0 -0.0407186)
(0.195001 0 -0.0398399)
(0.203565 0 -0.0385052)
(0.210016 0 -0.0368881)
(0.21454 0 -0.0350796)
(0.217306 0 -0.0331568)
(0.218435 0 -0.0311775)
(0.218016 0 -0.0291761)
(0.216102 0 -0.0271866)
(0.212715 0 -0.0252138)
(0.207868 0 -0.0232901)
(0.201525 0 -0.0214021)
(0.19366 0 -0.0195687)
(0.184212 0 -0.0177761)
(0.173117 0 -0.0160196)
(0.160298 0 -0.0142861)
(0.145673 0 -0.01256)
(0.129153 0 -0.0108252)
(0.110636 0 -0.00906079)
(0.0900216 0 -0.00724187)
(0.0672048 0 -0.00533984)
(0.0420818 0 -0.00332197)
(0.0144681 0 -0.00114283)
(0.0948954 0 -0.0344726)
(0.108449 0 -0.0378509)
(0.124875 0 -0.0413261)
(0.142534 0 -0.0443271)
(0.159552 0 -0.0463865)
(0.174901 0 -0.047444)
(0.187997 0 -0.047566)
(0.198704 0 -0.0469084)
(0.20719 0 -0.045694)
(0.21366 0 -0.0440612)
(0.21833 0 -0.0421502)
(0.221371 0 -0.0400604)
(0.22291 0 -0.03786)
(0.223038 0 -0.035611)
(0.221795 0 -0.0333372)
(0.219222 0 -0.0310884)
(0.215298 0 -0.0288621)
(0.210012 0 -0.0266889)
(0.203314 0 -0.0245628)
(0.195152 0 -0.0224878)
(0.185459 0 -0.0204554)
(0.174158 0 -0.0184568)
(0.161167 0 -0.0164782)
(0.146396 0 -0.0145028)
(0.129747 0 -0.0125112)
(0.111119 0 -0.0104801)
(0.0904025 0 -0.00838151)
(0.067487 0 -0.0061833)
(0.0422606 0 -0.00384795)
(0.0145315 0 -0.00132385)
(0.120629 0 -0.0415548)
(0.135282 0 -0.0452574)
(0.151786 0 -0.0488422)
(0.168231 0 -0.0516694)
(0.183013 0 -0.053368)
(0.195566 0 -0.0539776)
(0.205745 0 -0.0536633)
(0.213689 0 -0.0526096)
(0.219709 0 -0.0510389)
(0.224055 0 -0.049098)
(0.226923 0 -0.0469044)
(0.228463 0 -0.0445548)
(0.228751 0 -0.0421019)
(0.227861 0 -0.0396179)
(0.225787 0 -0.0371178)
(0.222533 0 -0.0346471)
(0.218056 0 -0.0322118)
(0.21231 0 -0.0298261)
(0.205232 0 -0.0274898)
(0.196754 0 -0.0252017)
(0.186795 0 -0.0229542)
(0.175273 0 -0.0207367)
(0.162094 0 -0.0185344)
(0.147163 0 -0.0163291)
(0.130377 0 -0.0140991)
(0.111627 0 -0.0118188)
(0.0907996 0 -0.00945771)
(0.0677783 0 -0.00698029)
(0.0424438 0 -0.00434507)
(0.0145959 0 -0.00149487)
(0.148243 0 -0.0490821)
(0.163733 0 -0.0530021)
(0.179858 0 -0.0564971)
(0.194527 0 -0.0589123)
(0.206636 0 -0.0600493)
(0.216128 0 -0.0600739)
(0.223253 0 -0.0592262)
(0.228475 0 -0.0577516)
(0.232081 0 -0.0558234)
(0.23436 0 -0.0535837)
(0.23547 0 -0.0511263)
(0.235557 0 -0.048548)
(0.234644 0 -0.0458875)
(0.232764 0 -0.0432071)
(0.22988 0 -0.0405284)
(0.225951 0 -0.0378778)
(0.220913 0 -0.0352656)
(0.214698 0 -0.0327001)
(0.207228 0 -0.0301819)
(0.19842 0 -0.0277079)
(0.188185 0 -0.0252699)
(0.17643 0 -0.0228563)
(0.163054 0 -0.0204513)
(0.147954 0 -0.0180355)
(0.131022 0 -0.0155856)
(0.112144 0 -0.013074)
(0.0912018 0 -0.0104678)
(0.0680708 0 -0.00772881)
(0.0426261 0 -0.004812)
(0.0146595 0 -0.00165542)
(0.177373 0 -0.0569689)
(0.193337 0 -0.0609673)
(0.208432 0 -0.0641182)
(0.220653 0 -0.0658605)
(0.229652 0 -0.0662529)
(0.235909 0 -0.0655981)
(0.240021 0 -0.0641905)
(0.242571 0 -0.0622733)
(0.243877 0 -0.0600008)
(0.244218 0 -0.0574899)
(0.243715 0 -0.0548132)
(0.242459 0 -0.0520467)
(0.240441 0 -0.0492292)
(0.237632 0 -0.0463987)
(0.23397 0 -0.0435775)
(0.229385 0 -0.0407836)
(0.223796 0 -0.0380267)
(0.217115 0 -0.0353122)
(0.209252 0 -0.0326401)
(0.200111 0 -0.030006)
(0.189595 0 -0.0274013)
(0.1776 0 -0.0248137)
(0.164022 0 -0.0222267)
(0.148749 0 -0.0196198)
(0.131668 0 -0.0169685)
(0.112659 0 -0.0142434)
(0.0915981 0 -0.01141)
(0.0683567 0 -0.00842732)
(0.0428027 0 -0.00524776)
(0.0147207 0 -0.00180515)
(0.207709 0 -0.0651301)
(0.223607 0 -0.0690046)
(0.23674 0 -0.0714687)
(0.245748 0 -0.0722626)
(0.251262 0 -0.0717668)
(0.254227 0 -0.0703889)
(0.255478 0 -0.0684449)
(0.255521 0 -0.0661133)
(0.254763 0 -0.0635449)
(0.253391 0 -0.0608135)
(0.251478 0 -0.0579746)
(0.249033 0 -0.0550736)
(0.246012 0 -0.0521411)
(0.242349 0 -0.0492021)
(0.23796 0 -0.0462746)
(0.232755 0 -0.0433716)
(0.226636 0 -0.0405011)
(0.219503 0 -0.0376664)
(0.211254 0 -0.0348669)
(0.201785 0 -0.0320974)
(0.190989 0 -0.029349)
(0.178756 0 -0.0266087)
(0.164974 0 -0.0238597)
(0.149527 0 -0.0210808)
(0.132296 0 -0.0182463)
(0.113156 0 -0.0153258)
(0.0919783 0 -0.0122828)
(0.0686285 0 -0.0090748)
(0.0429691 0 -0.00565164)
(0.0147778 0 -0.00194381)
(0.238992 0 -0.0734884)
(0.253873 0 -0.07688)
(0.263754 0 -0.0781979)
(0.268794 0 -0.0777938)
(0.270624 0 -0.0763492)
(0.270403 0 -0.0742803)
(0.26907 0 -0.0718728)
(0.267011 0 -0.0692298)
(0.26454 0 -0.0664483)
(0.261745 0 -0.0635707)
(0.258632 0 -0.0606274)
(0.255158 0 -0.0576434)
(0.251251 0 -0.0546388)
(0.246821 0 -0.0516304)
(0.241768 0 -0.0486313)
(0.235988 0 -0.0456513)
(0.229372 0 -0.0426963)
(0.221811 0 -0.0397686)
(0.213193 0 -0.0368666)
(0.203406 0 -0.0339851)
(0.192337 0 -0.0311147)
(0.179871 0 -0.0282424)
(0.165889 0 -0.0253508)
(0.150271 0 -0.0224184)
(0.132892 0 -0.0194187)
(0.113624 0 -0.0163203)
(0.0923328 0 -0.0130857)
(0.0688793 0 -0.00967062)
(0.0431211 0 -0.00602324)
(0.0148295 0 -0.00207127)
(0.270848 0 -0.0818891)
(0.282862 0 -0.0841095)
(0.287991 0 -0.083768)
(0.288573 0 -0.0820489)
(0.286894 0 -0.0797517)
(0.284009 0 -0.0771655)
(0.280598 0 -0.0744382)
(0.276926 0 -0.0716154)
(0.273115 0 -0.0687245)
(0.26918 0 -0.0657795)
(0.265079 0 -0.0627925)
(0.26074 0 -0.0597756)
(0.256072 0 -0.0567409)
(0.250971 0 -0.0536997)
(0.245326 0 -0.0506617)
(0.239026 0 -0.0476342)
(0.231954 0 -0.0446218)
(0.223993 0 -0.0416261)
(0.215028 0 -0.0386452)
(0.20494 0 -0.0356734)
(0.193611 0 -0.0327017)
(0.18092 0 -0.0297168)
(0.166746 0 -0.0267012)
(0.150962 0 -0.0236332)
(0.133442 0 -0.0204859)
(0.114051 0 -0.0172271)
(0.0926527 0 -0.0138185)
(0.0691029 0 -0.0102146)
(0.0432548 0 -0.00636241)
(0.0148745 0 -0.00218747)
(0.301893 0 -0.0897426)
(0.308007 0 -0.0896753)
(0.307479 0 -0.0874209)
(0.304164 0 -0.0846625)
(0.299751 0 -0.0818259)
(0.294967 0 -0.078994)
(0.290105 0 -0.0761585)
(0.285263 0 -0.0732984)
(0.280455 0 -0.0704029)
(0.275643 0 -0.0674683)
(0.27076 0 -0.0644969)
(0.265717 0 -0.0614946)
(0.260413 0 -0.0584692)
(0.254739 0 -0.055429)
(0.24858 0 -0.0523819)
(0.241818 0 -0.0493338)
(0.234336 0 -0.0462888)
(0.226012 0 -0.0432481)
(0.216726 0 -0.0402096)
(0.206358 0 -0.037168)
(0.194785 0 -0.0341142)
(0.181883 0 -0.031035)
(0.167526 0 -0.0279132)
(0.151587 0 -0.0247269)
(0.133933 0 -0.0214489)
(0.114427 0 -0.0180468)
(0.0929302 0 -0.0144815)
(0.0692936 0 -0.010707)
(0.0433669 0 -0.00666926)
(0.0149116 0 -0.00229247)
(0.326799 0 -0.0947829)
(0.327003 0 -0.0919936)
(0.32144 0 -0.0883775)
(0.315419 0 -0.0853256)
(0.309371 0 -0.0825258)
(0.303443 0 -0.0798054)
(0.297679 0 -0.0770856)
(0.292066 0 -0.0743315)
(0.286568 0 -0.0715296)
(0.281121 0 -0.0686764)
(0.275646 0 -0.0657743)
(0.270051 0 -0.062829)
(0.264233 0 -0.0598479)
(0.258083 0 -0.0568389)
(0.251486 0 -0.0538091)
(0.244326 0 -0.0507647)
(0.236482 0 -0.0477093)
(0.227833 0 -0.0446443)
(0.218259 0 -0.0415679)
(0.207634 0 -0.0384751)
(0.195837 0 -0.035357)
(0.182739 0 -0.0322009)
(0.168214 0 -0.0289897)
(0.15213 0 -0.0257014)
(0.134353 0 -0.0223093)
(0.114743 0 -0.0187804)
(0.0931581 0 -0.0150755)
(0.0694464 0 -0.0111482)
(0.0434544 0 -0.0069441)
(0.01494 0 -0.00238639)
(0.0110604 0 -0.000902391)
(0.0317241 0 -0.00259719)
(0.0497146 0 -0.00410338)
(0.0653586 0 -0.00545981)
(0.0789826 0 -0.0066991)
(0.0908695 0 -0.00784607)
(0.101268 0 -0.00891988)
(0.110403 0 -0.00993574)
(0.118478 0 -0.0109062)
(0.125678 0 -0.0118413)
(0.132196 0 -0.0127542)
(0.138167 0 -0.0136467)
(0.143769 0 -0.0145313)
(0.149159 0 -0.015418)
(0.154489 0 -0.0163165)
(0.15995 0 -0.0172478)
(0.165686 0 -0.0182241)
(0.171883 0 -0.0192703)
(0.178754 0 -0.0204241)
(0.186499 0 -0.0217227)
(0.195312 0 -0.0232104)
(0.205461 0 -0.0249627)
(0.217124 0 -0.0270422)
(0.230584 0 -0.0295612)
(0.245976 0 -0.0326152)
(0.263402 0 -0.0363297)
(0.282602 0 -0.0407894)
(0.303077 0 -0.0461354)
(0.322876 0 -0.0523604)
(0.340606 0 -0.0605541)
(0.0112006 0 -0.000955806)
(0.0321408 0 -0.00275219)
(0.0504058 0 -0.00435117)
(0.0663315 0 -0.00579418)
(0.0802509 0 -0.00711609)
(0.0924518 0 -0.00834353)
(0.103188 0 -0.00949728)
(0.112689 0 -0.0105942)
(0.121162 0 -0.0116489)
(0.128808 0 -0.0126747)
(0.135799 0 -0.0136819)
(0.142285 0 -0.0146768)
(0.148456 0 -0.0156763)
(0.15445 0 -0.0166879)
(0.160436 0 -0.0177267)
(0.166598 0 -0.0188153)
(0.173089 0 -0.0199725)
(0.18007 0 -0.0212206)
(0.187766 0 -0.0226048)
(0.196341 0 -0.0241624)
(0.205963 0 -0.0259371)
(0.216862 0 -0.0280042)
(0.229191 0 -0.030432)
(0.243085 0 -0.0333085)
(0.258567 0 -0.0367188)
(0.275488 0 -0.0407439)
(0.293325 0 -0.0454216)
(0.311077 0 -0.050735)
(0.327071 0 -0.05654)
(0.34001 0 -0.0629455)
(0.0113433 0 -0.0010084)
(0.0325654 0 -0.00290501)
(0.0511104 0 -0.00459587)
(0.0673235 0 -0.00612498)
(0.0815439 0 -0.00752945)
(0.0940634 0 -0.00883766)
(0.105139 0 -0.0100719)
(0.115007 0 -0.0112504)
(0.123886 0 -0.0123914)
(0.131972 0 -0.0135094)
(0.139424 0 -0.0146122)
(0.146418 0 -0.0157128)
(0.153122 0 -0.0168246)
(0.159697 0 -0.0179631)
(0.166311 0 -0.0191461)
(0.173106 0 -0.020388)
(0.180255 0 -0.0217165)
(0.187928 0 -0.0231606)
(0.196299 0 -0.0247575)
(0.205497 0 -0.0265427)
(0.215694 0 -0.0285677)
(0.227023 0 -0.0308903)
(0.239576 0 -0.033572)
(0.253348 0 -0.0366709)
(0.26821 0 -0.0402378)
(0.283787 0 -0.0442834)
(0.299407 0 -0.0487729)
(0.314132 0 -0.0536174)
(0.326934 0 -0.0587451)
(0.336707 0 -0.064047)
(0.0114868 0 -0.00105979)
(0.0329931 0 -0.00305454)
(0.0518206 0 -0.00483567)
(0.0683239 0 -0.00644976)
(0.0828483 0 -0.00793614)
(0.0956884 0 -0.00932481)
(0.107101 0 -0.0106393)
(0.117339 0 -0.0119015)
(0.126618 0 -0.0131284)
(0.135127 0 -0.0143362)
(0.143033 0 -0.015536)
(0.150509 0 -0.0167417)
(0.157721 0 -0.0179665)
(0.164842 0 -0.0192307)
(0.172009 0 -0.0205492)
(0.179367 0 -0.0219387)
(0.187085 0 -0.0234292)
(0.195315 0 -0.0250495)
(0.204189 0 -0.0268316)
(0.213804 0 -0.0288071)
(0.224297 0 -0.0310245)
(0.23572 0 -0.0335246)
(0.24808 0 -0.0363504)
(0.261248 0 -0.0395241)
(0.274977 0 -0.0430569)
(0.288837 0 -0.046921)
(0.302243 0 -0.0510644)
(0.31449 0 -0.0554086)
(0.324802 0 -0.0598483)
(0.33242 0 -0.0642173)
(0.0116294 0 -0.00110948)
(0.0334187 0 -0.00319936)
(0.0525277 0 -0.0050683)
(0.069321 0 -0.00676543)
(0.08415 0 -0.00833238)
(0.0973103 0 -0.00980053)
(0.109066 0 -0.0111956)
(0.119663 0 -0.01254)
(0.129325 0 -0.0138525)
(0.138244 0 -0.0151495)
(0.146584 0 -0.0164446)
(0.154505 0 -0.0177506)
(0.162193 0 -0.0190868)
(0.169799 0 -0.0204696)
(0.177441 0 -0.0219125)
(0.185287 0 -0.0234405)
(0.193461 0 -0.0250753)
(0.202097 0 -0.0268455)
(0.211294 0 -0.0287771)
(0.221108 0 -0.0308954)
(0.231632 0 -0.0332404)
(0.242841 0 -0.0358326)
(0.254662 0 -0.0386928)
(0.266914 0 -0.0418209)
(0.279332 0 -0.0452077)
(0.291524 0 -0.0488149)
(0.303013 0 -0.0525848)
(0.313266 0 -0.0564394)
(0.321713 0 -0.0602533)
(0.327888 0 -0.0638906)
(0.0117703 0 -0.00115727)
(0.0338394 0 -0.00333884)
(0.0532257 0 -0.00529259)
(0.0703066 0 -0.00707031)
(0.0854393 0 -0.00871605)
(0.0989155 0 -0.0102619)
(0.111004 0 -0.0117352)
(0.12195 0 -0.0131591)
(0.131975 0 -0.0145539)
(0.141284 0 -0.0159388)
(0.150031 0 -0.0173261)
(0.158363 0 -0.0187286)
(0.166476 0 -0.0201688)
(0.174498 0 -0.0216602)
(0.18254 0 -0.0232158)
(0.190773 0 -0.024865)
(0.199277 0 -0.0266204)
(0.208169 0 -0.0285094)
(0.217502 0 -0.0305483)
(0.227311 0 -0.0327575)
(0.237625 0 -0.035162)
(0.248382 0 -0.0377695)
(0.259476 0 -0.0405865)
(0.270719 0 -0.0436031)
(0.281853 0 -0.0467955)
(0.292548 0 -0.0501219)
(0.302438 0 -0.0535293)
(0.311096 0 -0.0569265)
(0.318145 0 -0.0602069)
(0.323331 0 -0.0632748)
(0.0119066 0 -0.00120235)
(0.0342477 0 -0.00347072)
(0.0539002 0 -0.00550477)
(0.0712656 0 -0.00736051)
(0.0866996 0 -0.00908261)
(0.100482 0 -0.0107032)
(0.11289 0 -0.0122515)
(0.124162 0 -0.013751)
(0.134541 0 -0.0152259)
(0.14422 0 -0.0166955)
(0.153326 0 -0.0181678)
(0.162025 0 -0.0196595)
(0.170507 0 -0.0211947)
(0.17887 0 -0.0227816)
(0.187241 0 -0.0244379)
(0.195748 0 -0.026185)
(0.204448 0 -0.0280323)
(0.213435 0 -0.0300021)
(0.222734 0 -0.0321046)
(0.232364 0 -0.0343554)
(0.24231 0 -0.0367662)
(0.252496 0 -0.0393388)
(0.262799 0 -0.0420678)
(0.273041 0 -0.0449357)
(0.282992 0 -0.0479133)
(0.292399 0 -0.050965)
(0.30095 0 -0.0540254)
(0.308334 0 -0.0570117)
(0.314333 0 -0.0598528)
(0.318802 0 -0.0624737)
(0.0120372 0 -0.00124434)
(0.0346415 0 -0.00359399)
(0.0545678 0 -0.00570525)
(0.0722068 0 -0.00763458)
(0.0879149 0 -0.00942719)
(0.101989 0 -0.0111184)
(0.114699 0 -0.0127375)
(0.126286 0 -0.0143092)
(0.136998 0 -0.0158609)
(0.146998 0 -0.0174059)
(0.156421 0 -0.0189555)
(0.165448 0 -0.0205299)
(0.174232 0 -0.0221474)
(0.182862 0 -0.023815)
(0.19146 0 -0.0255509)
(0.200112 0 -0.0273672)
(0.208886 0 -0.0292766)
(0.217838 0 -0.0312929)
(0.226987 0 -0.0334248)
(0.236327 0 -0.0356799)
(0.245819 0 -0.0380611)
(0.25538 0 -0.0405641)
(0.26489 0 -0.0431766)
(0.274186 0 -0.0458774)
(0.283095 0 -0.0486425)
(0.291387 0 -0.0514249)
(0.298816 0 -0.0541614)
(0.305194 0 -0.0567963)
(0.310383 0 -0.0592745)
(0.314303 0 -0.0615393)
(0.012161 0 -0.00128284)
(0.0350145 0 -0.00370718)
(0.0551969 0 -0.00588926)
(0.0730932 0 -0.00788584)
(0.0890645 0 -0.00974408)
(0.103413 0 -0.0115007)
(0.116402 0 -0.013185)
(0.128291 0 -0.0148256)
(0.1393 0 -0.0164458)
(0.149577 0 -0.0180575)
(0.15928 0 -0.0196766)
(0.16857 0 -0.0213207)
(0.177569 0 -0.0230021)
(0.186383 0 -0.0247324)
(0.195108 0 -0.0265244)
(0.203821 0 -0.0283891)
(0.212575 0 -0.0303359)
(0.221405 0 -0.0323732)
(0.23032 0 -0.034506)
(0.239299 0 -0.0367362)
(0.248292 0 -0.0390609)
(0.257217 0 -0.041471)
(0.265964 0 -0.0439508)
(0.274411 0 -0.0464838)
(0.282391 0 -0.049036)
(0.289713 0 -0.0515592)
(0.296223 0 -0.0540102)
(0.301793 0 -0.0563449)
(0.30634 0 -0.0585213)
(0.309821 0 -0.0604973)
(0.012274 0 -0.00131681)
(0.0353561 0 -0.00380737)
(0.0557741 0 -0.00605255)
(0.07391 0 -0.00810969)
(0.090127 0 -0.0100272)
(0.10473 0 -0.0118429)
(0.117986 0 -0.0135875)
(0.13014 0 -0.0152883)
(0.14139 0 -0.0169653)
(0.151902 0 -0.0186342)
(0.16183 0 -0.0203105)
(0.171313 0 -0.0220086)
(0.18047 0 -0.0237406)
(0.189398 0 -0.0255169)