/*--------------------------------*- C++ -*----------------------------------*\
| =========                 |                                                 |
| \\      /  F ield         | OpenFOAM: The Open Source CFD Toolbox           |
|  \\    /   O peration     | Version:  4.1                                   |
|   \\  /    A nd           | Web:      www.OpenFOAM.org                      |
|    \\/     M anipulation  |                                                 |
\*---------------------------------------------------------------------------*/
FoamFile
{
    version     2.0;
    format      ascii;
    class       volVectorField;
    location    "4.8";
    object      Force;
}
// * * * * * * * * * * * * * * * * * * * * * * * * * * * * * * * * * * * * * //

dimensions      [1 1 -2 0 0 0 0];

internalField   uniform (0 0 0);

boundaryField
{
    inlet
    {
        type            calculated;
        value           uniform (0 0 0);
    }
    outlet
    {
        type            calculated;
        value           uniform (0 0 0);
    }
    flap
    {
        type            calculated;
        value           nonuniform List<vector> 
33
(
(3.2196 1.87358e-18 -0.1506)
(3.19788 1.86083e-18 -0.375757)
(3.14407 3.7084e-18 -0.603043)
(3.04592 1.82157e-18 -0.788848)
(2.91339 2.35099e-38 -0.925655)
(2.76153 -1.26652e-21 -1.01602)
(2.601 -3.4904e-18 -1.06883)
(2.43816 1.73323e-18 -1.09196)
(2.27473 -1.71e-18 -1.08943)
(2.11178 3.35016e-37 -1.06239)
(1.9491 -3.29874e-18 -1.0123)
(1.77867 3.80807e-18 -0.940463)
(1.58627 -3.29333e-18 -0.845823)
(1.35193 6.68204e-21 -0.721615)
(1.03988 1.29362e-18 -0.555224)
(0.263439 1.06173e-18 0.486541)
(0.134326 -8.80142e-19 0.249877)
(0.0232407 -1.59985e-18 0.046889)
(-0.111351 -1.36469e-18 0.00530131)
(-0.110589 -1.37782e-18 0.0129193)
(-0.109107 2.63728e-18 0.0208698)
(-0.10686 -6.03962e-23 0.0275435)
(-0.104123 -3.96729e-38 0.0329022)
(-0.101265 1.47735e-18 0.0370181)
(-0.0985585 1.20583e-18 0.0401911)
(-0.096093 4.70198e-38 0.0426862)
(-0.0940379 2.86404e-19 0.0446557)
(-0.0928211 -2.83922e-19 0.0462939)
(-0.0932001 2.84806e-19 0.0480317)
(-0.0960049 1.62769e-18 0.0504771)
(-0.101228 1.68053e-18 0.0538561)
(-0.10704 1.49041e-18 0.0572572)
(-0.113414 2.24195e-18 0.0609772)
)
;
    }
    upperWall
    {
        type            calculated;
        value           uniform (0 0 0);
    }
    lowerWall
    {
        type            calculated;
        value           uniform (0 0 0);
    }
    frontAndBack
    {
        type            empty;
    }
}


// ************************************************************************* //
