/*--------------------------------*- C++ -*----------------------------------*\
| =========                 |                                                 |
| \\      /  F ield         | OpenFOAM: The Open Source CFD Toolbox           |
|  \\    /   O peration     | Version:  2006                                  |
|   \\  /    A nd           | Website:  www.openfoam.com                      |
|    \\/     M anipulation  |                                                 |
\*---------------------------------------------------------------------------*/
FoamFile
{
    version     2.0;
    format      ascii;
    class       volVectorField;
    location    "8.6";
    object      U;
}
// * * * * * * * * * * * * * * * * * * * * * * * * * * * * * * * * * * * * * //

dimensions      [0 1 -1 0 0 0 0];


internalField   nonuniform List<vector> 
2790
(
(9.94399 0.0205234 0)
(9.87572 0.0295881 0)
(9.7752 0.0359901 0)
(9.64943 0.042557 0)
(9.50408 0.0493866 0)
(9.34005 0.0564298 0)
(9.15653 0.0638178 0)
(8.9526 0.071714 0)
(8.72743 0.0802581 0)
(8.48004 0.0895771 0)
(8.20922 0.0997978 0)
(7.91359 0.111051 0)
(7.59161 0.123466 0)
(7.24169 0.137172 0)
(6.86222 0.152281 0)
(6.45167 0.16888 0)
(6.00874 0.187008 0)
(5.53253 0.20663 0)
(5.02279 0.227601 0)
(4.48026 0.249622 0)
(3.90696 0.272186 0)
(3.30663 0.294533 0)
(2.68508 0.315625 0)
(2.05042 0.334291 0)
(1.41161 0.350606 0)
(0.797876 0.372885 0)
(0.110488 0.324974 0)
(-0.469575 -0.1149 0)
(-0.453802 -0.297121 0)
(-0.231165 -0.423846 0)
(9.9985 0.0407036 0)
(9.98145 0.0623839 0)
(9.93574 0.0791419 0)
(9.86416 0.0966272 0)
(9.77096 0.115127 0)
(9.65714 0.134492 0)
(9.52204 0.15498 0)
(9.36483 0.17695 0)
(9.18469 0.200715 0)
(8.98063 0.226559 0)
(8.75148 0.254756 0)
(8.49583 0.285574 0)
(8.21213 0.319265 0)
(7.89873 0.356041 0)
(7.55394 0.39604 0)
(7.17607 0.439285 0)
(6.76365 0.485616 0)
(6.31551 0.534611 0)
(5.83108 0.585485 0)
(5.3107 0.636975 0)
(4.75596 0.687221 0)
(4.17021 0.733658 0)
(3.5591 0.772957 0)
(2.93136 0.801089 0)
(2.29977 0.813736 0)
(1.69279 0.807234 0)
(1.10701 0.747205 0)
(0.658801 0.547872 0)
(0.186297 0.224525 0)
(-0.00819809 -0.453769 0)
(9.99559 0.0432079 0)
(9.97556 0.0752736 0)
(9.9318 0.103349 0)
(9.86489 0.132375 0)
(9.77777 0.163065 0)
(9.67154 0.195405 0)
(9.54586 0.229751 0)
(9.40011 0.266613 0)
(9.23362 0.306483 0)
(9.0456 0.349822 0)
(8.83504 0.39709 0)
(8.60076 0.448743 0)
(8.34138 0.505216 0)
(8.05542 0.566891 0)
(7.74128 0.634041 0)
(7.39733 0.706763 0)
(7.02198 0.784871 0)
(6.61381 0.867758 0)
(6.17178 0.954227 0)
(5.69546 1.04228 0)
(5.18544 1.1289 0)
(4.64377 1.2098 0)
(4.0746 1.27916 0)
(3.48519 1.32932 0)
(2.88667 1.35006 0)
(2.29931 1.32639 0)
(1.73171 1.22071 0)
(1.21615 0.972928 0)
(0.701073 0.570059 0)
(0.357997 -0.156681 0)
(9.99403 0.0495006 0)
(9.97181 0.0932089 0)
(9.92788 0.133576 0)
(9.86224 0.174215 0)
(9.77692 0.216441 0)
(9.67297 0.26067 0)
(9.5503 0.307441 0)
(9.40847 0.357429 0)
(9.24699 0.411308 0)
(9.0653 0.469726 0)
(8.86264 0.533326 0)
(8.63814 0.602751 0)
(8.39078 0.678624 0)
(8.11944 0.76151 0)
(7.82291 0.851859 0)
(7.4999 0.949916 0)
(7.14912 1.05559 0)
(6.7693 1.16828 0)
(6.35934 1.28664 0)
(5.91843 1.4083 0)
(5.44635 1.5295 0)
(4.94381 1.6447 0)
(4.41297 1.74614 0)
(3.85808 1.8232 0)
(3.28564 1.86133 0)
(2.70624 1.84026 0)
(2.12551 1.72592 0)
(1.55416 1.47776 0)
(0.957884 1.08357 0)
(0.509403 0.502195 0)
(9.99331 0.0572153 0)
(9.96994 0.110962 0)
(9.92593 0.162109 0)
(9.86145 0.213355 0)
(9.77798 0.266366 0)
(9.67634 0.321926 0)
(9.55652 0.380716 0)
(9.41819 0.443506 0)
(9.26094 0.511078 0)
(9.0843 0.584195 0)
(8.88766 0.663617 0)
(8.67033 0.750097 0)
(8.43152 0.844374 0)
(8.17038 0.947127 0)
(7.88598 1.05893 0)
(7.57737 1.18012 0)
(7.24354 1.31074 0)
(6.88347 1.45023 0)
(6.49613 1.59727 0)
(6.08056 1.74937 0)
(5.63597 1.90244 0)
(5.16192 2.05034 0)
(4.65858 2.18417 0)
(4.12702 2.29172 0)
(3.56921 2.35651 0)
(2.98872 2.35724 0)
(2.38669 2.26484 0)
(1.76628 2.0475 0)
(1.08992 1.69123 0)
(0.536621 1.15397 0)
(9.99302 0.0655406 0)
(9.96923 0.128706 0)
(9.92556 0.19012 0)
(9.86252 0.251852 0)
(9.78128 0.315589 0)
(9.68243 0.382333 0)
(9.56599 0.452892 0)
(9.43169 0.528122 0)
(9.27918 0.608905 0)
(9.10803 0.696114 0)
(8.91773 0.790614 0)
(8.70769 0.893265 0)
(8.47722 1.0049 0)
(8.2256 1.12631 0)
(7.95206 1.25815 0)
(7.65578 1.40087 0)
(7.33591 1.5546 0)
(6.9915 1.71893 0)
(6.62153 1.89261 0)
(6.22483 2.07328 0)
(5.80009 2.25689 0)
(5.34584 2.43723 0)
(4.8605 2.6052 0)
(4.34249 2.74819 0)
(3.79019 2.84948 0)
(3.20238 2.8881 0)
(2.5764 2.83809 0)
(1.91334 2.67143 0)
(1.17267 2.37379 0)
(0.54993 1.89417 0)
(9.99297 0.0740771 0)
(9.96926 0.146318 0)
(9.92637 0.21749 0)
(9.86508 0.289302 0)
(9.78642 0.363368 0)
(9.69084 0.440843 0)
(9.57833 0.52268 0)
(9.4487 0.609835 0)
(9.30162 0.703285 0)
(9.13675 0.804 0)
(8.9536 0.912941 0)
(8.75165 1.03106 0)
(8.53027 1.15927 0)
(8.2888 1.29846 0)
(8.0265 1.44936 0)
(7.74258 1.61255 0)
(7.43617 1.78826 0)
(7.10626 1.97624 0)
(6.75164 2.17548 0)
(6.37083 2.38388 0)
(5.9619 2.59779 0)
(5.52242 2.81142 0)
(5.0493 3.01616 0)
(4.53877 3.19994 0)
(3.98642 3.34661 0)
(3.38769 3.43585 0)
(2.73705 3.44314 0)
(2.03608 3.34127 0)
(1.24165 3.11331 0)
(0.563467 2.69286 0)
(9.99306 0.0825906 0)
(9.96981 0.163611 0)
(9.92807 0.244058 0)
(9.86884 0.32549 0)
(9.79312 0.40946 0)
(9.70125 0.497224 0)
(9.59322 0.589861 0)
(9.46886 0.688423 0)
(9.32794 0.793973 0)
(9.17011 0.907569 0)
(8.99499 1.03026 0)
(8.80206 1.16309 0)
(8.59076 1.30707 0)
(8.36043 1.46316 0)
(8.11036 1.63222 0)
(7.8397 1.81495 0)
(7.54749 2.01175 0)
(7.23253 2.2226 0)
(6.89334 2.44682 0)
(6.52798 2.68277 0)
(6.13388 2.92742 0)
(5.70762 3.17582 0)
(5.24472 3.42038 0)
(4.73951 3.65017 0)
(4.18521 3.85016 0)
(3.57449 4.00075 0)
(2.89927 4.0777 0)
(2.16191 4.05211 0)
(1.31599 3.90136 0)
(0.583158 3.53978 0)
(9.99326 0.090931 0)
(9.97072 0.180414 0)
(9.93046 0.269676 0)
(9.87362 0.360253 0)
(9.80117 0.453662 0)
(9.71343 0.551229 0)
(9.61037 0.654136 0)
(9.49187 0.763526 0)
(9.35774 0.880541 0)
(9.20771 1.00632 0)
(9.04142 1.14201 0)
(8.85843 1.28873 0)
(8.65822 1.44759 0)
(8.44015 1.61966 0)
(8.20349 1.80595 0)
(7.94736 2.0073 0)
(7.67066 2.22435 0)
(7.37202 2.45738 0)
(7.04963 2.70616 0)
(6.70108 2.96967 0)
(6.32312 3.24575 0)
(5.91139 3.5306 0)
(5.46008 3.8181 0)
(4.9617 4.09898 0)
(4.40708 4.35979 0)
(3.78607 4.58195 0)
(3.08725 4.74084 0)
(2.31244 4.80412 0)
(1.41046 4.74066 0)
(0.614224 4.44145 0)
(9.99352 0.0989951 0)
(9.9719 0.196585 0)
(9.9334 0.294204 0)
(9.87924 0.393429 0)
(9.8104 0.495772 0)
(9.72716 0.602609 0)
(9.62952 0.715208 0)
(9.5174 0.834794 0)
(9.39067 0.962583 0)
(9.24911 1.09979 0)
(9.09243 1.24765 0)
(8.92024 1.40736 0)
(8.73208 1.58014 0)
(8.52736 1.76719 0)
(8.30536 1.96965 0)
(8.06516 2.18859 0)
(7.80561 2.42491 0)
(7.52516 2.67929 0)
(7.22174 2.95205 0)
(6.89256 3.24295 0)
(6.53379 3.55091 0)
(6.14019 3.87359 0)
(5.70473 4.20677 0)
(5.21812 4.5434 0)
(4.66859 4.87237 0)
(4.04245 5.17681 0)
(3.32328 5.43203 0)
(2.5094 5.60156 0)
(1.54161 5.64296 0)
(0.663935 5.41742 0)
(9.99384 0.106707 0)
(9.9733 0.212006 0)
(9.9368 0.317511 0)
(9.88558 0.424868 0)
(9.82063 0.535606 0)
(9.74225 0.651142 0)
(9.65044 0.772815 0)
(9.54517 0.901919 0)
(9.42637 1.03974 0)
(9.29388 1.18757 0)
(9.1475 1.34669 0)
(8.98691 1.51842 0)
(8.81171 1.70407 0)
(8.62138 1.90496 0)
(8.41525 2.12242 0)
(8.19244 2.35772 0)
(7.95177 2.6121 0)
(7.69165 2.88669 0)
(7.40988 3.18244 0)
(7.10343 3.50002 0)
(6.76809 3.83963 0)
(6.39803 4.20068 0)
(5.98519 4.58129 0)
(5.51866 4.97738 0)
(4.98389 5.38129 0)
(4.36273 5.77941 0)
(3.63135 6.14884 0)
(2.77961 6.45018 0)
(1.73307 6.62783 0)
(0.744648 6.50226 0)
(9.9942 0.114009 0)
(9.97487 0.226581 0)
(9.94056 0.339483 0)
(9.89252 0.454436 0)
(9.83173 0.573 0)
(9.75851 0.696631 0)
(9.67288 0.826722 0)
(9.57487 0.964628 0)
(9.46447 1.11169 0)
(9.34161 1.26927 0)
(9.20614 1.43871 0)
(9.05784 1.62141 0)
(8.89641 1.81878 0)
(8.72143 2.03226 0)
(8.53231 2.26335 0)
(8.32829 2.51357 0)
(8.10825 2.7845 0)
(7.87068 3.07773 0)
(7.61344 3.39491 0)
(7.33352 3.73768 0)
(7.02665 4.10765 0)
(6.68681 4.50621 0)
(6.30547 4.93427 0)
(5.87058 5.39156 0)
(5.36517 5.87538 0)
(4.7662 6.37814 0)
(4.03996 6.88292 0)
(3.16072 7.35293 0)
(2.02415 7.72232 0)
(0.880431 7.75594 0)
(9.99459 0.120856 0)
(9.97657 0.240231 0)
(9.94461 0.360017 0)
(9.89995 0.482014 0)
(9.84356 0.607813 0)
(9.77575 0.738905 0)
(9.69662 0.876726 0)
(9.60623 1.02268 0)
(9.50463 1.17816 0)
(9.39184 1.34457 0)
(9.2678 1.52332 0)
(9.13241 1.71586 0)
(8.98545 1.9237 0)
(8.82665 2.1484 0)
(8.65558 2.39161 0)
(8.47161 2.65508 0)
(8.27383 2.9407 0)
(8.06096 3.25053 0)
(7.8311 3.5869 0)
(7.58157 3.95241 0)
(7.3085 4.35009 0)
(7.00628 4.78341 0)
(6.66674 5.25634 0)
(6.27788 5.77316 0)
(5.82172 6.33782 0)
(5.27158 6.9524 0)
(4.58349 7.61338 0)
(3.70886 8.3003 0)
(2.48722 8.95708 0)
(1.12394 9.29152 0)
(9.99501 0.127214 0)
(9.97838 0.25289 0)
(9.94891 0.37903 0)
(9.9078 0.5075 0)
(9.85598 0.639925 0)
(9.79382 0.777824 0)
(9.72143 0.922667 0)
(9.63894 1.07589 0)
(9.54647 1.23894 0)
(9.44413 1.41323 0)
(9.33195 1.60023 0)
(9.20994 1.80144 0)
(9.07804 2.01843 0)
(8.93612 2.25287 0)
(8.78394 2.50652 0)
(8.62111 2.78134 0)
(8.44701 3.07948 0)
(8.2607 3.40341 0)
(8.0608 3.75602 0)
(7.84524 4.14078 0)
(7.61102 4.56199 0)
(7.35369 5.02504 0)
(7.06663 5.53688 0)
(6.73973 6.10649 0)
(6.35704 6.74554 0)
(5.89294 7.46908 0)
(5.29937 8.29623 0)
(4.50722 9.2474 0)
(3.26718 10.3404 0)
(1.60397 11.3564 0)
(9.99545 0.133054 0)
(9.98026 0.26451 0)
(9.95339 0.396451 0)
(9.91596 0.530801 0)
(9.86888 0.669216 0)
(9.81253 0.813234 0)
(9.74708 0.96435 0)
(9.67272 1.12403 0)
(9.58964 1.29372 0)
(9.49802 1.47489 0)
(9.39803 1.66902 0)
(9.28978 1.87765 0)
(9.17337 2.10239 0)
(9.04885 2.34496 0)
(8.91622 2.60724 0)
(8.77535 2.89129 0)
(8.62601 3.19948 0)
(8.46774 3.53455 0)
(8.29981 3.89983 0)
(8.12109 4.29939 0)
(7.92987 4.73847 0)
(7.72357 5.22389 0)
(7.49835 5.76489 0)
(7.24831 6.37426 0)
(6.96394 7.07043 0)
(6.62968 7.88121 0)
(6.21271 8.85194 0)
(5.66357 10.0655 0)
(4.68734 11.7295 0)
(2.68525 14.5872 0)
(0.120651 -0.119595 0)
(0.283298 -0.108924 0)
(0.449364 -0.0856156 0)
(0.58778 -0.0630045 0)
(0.692934 -0.0437429 0)
(0.768429 -0.0277896 0)
(0.818979 -0.0146138 0)
(0.848325 -0.00374621 0)
(0.859421 0.00500362 0)
(0.855034 0.0110951 0)
(0.837821 0.0152121 0)
(0.810717 0.0178401 0)
(0.776541 0.0191841 0)
(0.737934 0.0193539 0)
(0.697485 0.0184821 0)
(0.657642 0.0167707 0)
(0.620503 0.0144961 0)
(0.587603 0.0119778 0)
(0.55979 0.00953375 0)
(0.537182 0.00742678 0)
(0.519233 0.00580338 0)
(0.504967 0.00467172 0)
(0.493311 0.00393488 0)
(0.483384 0.00344468 0)
(0.47467 0.003065 0)
(0.466971 0.00272984 0)
(0.460204 0.00244266 0)
(0.454203 0.00223337 0)
(0.448675 0.00207972 0)
(0.442602 0.00166496 0)
(0.104725 -0.281981 0)
(0.264542 -0.264344 0)
(0.420865 -0.214652 0)
(0.554292 -0.165247 0)
(0.660912 -0.122805 0)
(0.74419 -0.0873649 0)
(0.808198 -0.0577893 0)
(0.856049 -0.0330141 0)
(0.889896 -0.012272 0)
(0.911505 0.00488511 0)
(0.920302 0.0181965 0)
(0.918273 0.0279027 0)
(0.908055 0.0342359 0)
(0.892291 0.0373909 0)
(0.873629 0.0376809 0)
(0.854571 0.0355949 0)
(0.83722 0.0317554 0)
(0.823084 0.0268711 0)
(0.81296 0.0216883 0)
(0.806894 0.0168968 0)
(0.804275 0.0129769 0)
(0.804113 0.0101018 0)
(0.805384 0.00815694 0)
(0.807305 0.00682993 0)
(0.809481 0.00578319 0)
(0.81181 0.00484618 0)
(0.814267 0.00403881 0)
(0.81672 0.00346976 0)
(0.818858 0.00316481 0)
(0.820623 0.00284724 0)
(0.0843587 -0.447777 0)
(0.223785 -0.41892 0)
(0.350354 -0.342804 0)
(0.458325 -0.267983 0)
(0.544803 -0.204131 0)
(0.613397 -0.150955 0)
(0.667305 -0.106733 0)
(0.708869 -0.0698924 0)
(0.739967 -0.0391568 0)
(0.762009 -0.0131568 0)
(0.778571 0.00845316 0)
(0.786776 0.0250508 0)
(0.788687 0.0364354 0)
(0.786236 0.0426498 0)
(0.781414 0.0441427 0)
(0.776095 0.0417176 0)
(0.771812 0.0363877 0)
(0.769629 0.0293104 0)
(0.770054 0.0217219 0)
(0.772973 0.0147864 0)
(0.777708 0.00930462 0)
(0.783288 0.00554969 0)
(0.788748 0.00332225 0)
(0.793387 0.00209893 0)
(0.796962 0.00133764 0)
(0.799649 0.000760759 0)
(0.801803 0.000368073 0)
(0.803707 0.000286565 0)
(0.805394 0.000576477 0)
(0.806747 0.00124061 0)
(0.0645051 -0.581294 0)
(0.177668 -0.536 0)
(0.267617 -0.435989 0)
(0.345253 -0.341234 0)
(0.406435 -0.261686 0)
(0.455605 -0.195748 0)
(0.4949 -0.140958 0)
(0.525753 -0.0952374 0)
(0.549301 -0.0571541 0)
(0.566359 -0.0258652 0)
(0.579377 -0.000105962 0)
(0.588199 0.0203659 0)
(0.592583 0.0347434 0)
(0.594129 0.0426954 0)
(0.594363 0.0447662 0)
(0.594504 0.0420244 0)
(0.595387 0.035794 0)
(0.59748 0.0275718 0)
(0.60087 0.0189527 0)
(0.605157 0.0114638 0)
(0.609473 0.00606358 0)
(0.612853 0.0029875 0)
(0.614535 0.00183345 0)
(0.614159 0.00173528 0)
(0.611869 0.00184243 0)
(0.608205 0.00169746 0)
(0.603776 0.00132967 0)
(0.59904 0.00104066 0)
(0.594197 0.00108308 0)
(0.588591 0.00179662 0)
(0.0439292 -0.684205 0)
(0.125516 -0.617598 0)
(0.173282 -0.496943 0)
(0.218151 -0.388654 0)
(0.250607 -0.299408 0)
(0.277189 -0.225826 0)
(0.298683 -0.164825 0)
(0.315955 -0.113886 0)
(0.32957 -0.0714124 0)
(0.33982 -0.036463 0)
(0.346808 -0.00738131 0)
(0.354725 0.0160543 0)
(0.358307 0.0324194 0)
(0.359327 0.0412804 0)
(0.359398 0.0435224 0)
(0.359237 0.040505 0)
(0.358931 0.0337497 0)
(0.358302 0.0249091 0)
(0.357076 0.015809 0)
(0.354822 0.00854662 0)
(0.350757 0.00395501 0)
(0.344403 0.00214566 0)
(0.335703 0.00244026 0)
(0.324614 0.00369049 0)
(0.311263 0.00492802 0)
(0.296303 0.00560186 0)
(0.280441 0.00574115 0)
(0.264274 0.00581893 0)
(0.248452 0.00628631 0)
(0.231685 0.00642802 0)
(0.0221353 -0.751215 0)
(0.0669294 -0.659494 0)
(0.0684151 -0.521593 0)
(0.0786156 -0.405782 0)
(0.079125 -0.311669 0)
(0.0796213 -0.234761 0)
(0.0793304 -0.171476 0)
(0.0792303 -0.118896 0)
(0.0797737 -0.0752881 0)
(0.0807477 -0.0403673 0)
(0.0816788 -0.0134034 0)
(0.0828695 0.0109071 0)
(0.0806099 0.031122 0)
(0.0760602 0.0417721 0)
(0.070024 0.0448445 0)
(0.0618954 0.0426599 0)
(0.0506258 0.0370706 0)
(0.0354055 0.0297479 0)
(0.0159634 0.0222852 0)
(-0.00629393 0.0164359 0)
(-0.0292051 0.013336 0)
(-0.0513363 0.0127823 0)
(-0.0714994 0.0140598 0)
(-0.0892339 0.0157734 0)
(-0.105376 0.0169763 0)
(-0.120391 0.0172485 0)
(-0.134823 0.016861 0)
(-0.148939 0.0163332 0)
(-0.162777 0.015335 0)
(-0.174898 0.0126392 0)
(-0.00239018 -0.775633 0)
(0.000399812 -0.656645 0)
(-0.0455082 -0.506063 0)
(-0.0735548 -0.388596 0)
(-0.107614 -0.294539 0)
(-0.137506 -0.219291 0)
(-0.164254 -0.15869 0)
(-0.186882 -0.109384 0)
(-0.205634 -0.0685072 0)
(-0.222878 -0.0338686 0)
(-0.243897 -0.00372196 0)
(-0.265 0.0214057 0)
(-0.272617 0.0384794 0)
(-0.282975 0.0484927 0)
(-0.294965 0.0526255 0)
(-0.309484 0.0524279 0)
(-0.326728 0.0492566 0)
(-0.346376 0.0443134 0)
(-0.367856 0.0387014 0)
(-0.390407 0.0333403 0)
(-0.412897 0.0292754 0)
(-0.434516 0.0267373 0)
(-0.454368 0.0254739 0)
(-0.471717 0.0248212 0)
(-0.486489 0.0241428 0)
(-0.498965 0.0231657 0)
(-0.509691 0.0220094 0)
(-0.519303 0.0207908 0)
(-0.528128 0.019141 0)
(-0.534458 0.0169275 0)
(-0.0329167 -0.750064 0)
(-0.0764501 -0.606088 0)
(-0.167021 -0.452794 0)
(-0.238654 -0.337758 0)
(-0.309522 -0.248586 0)
(-0.37306 -0.178851 0)
(-0.429562 -0.123511 0)
(-0.478752 -0.078619 0)
(-0.520915 -0.0409117 0)
(-0.557672 -0.00921629 0)
(-0.589104 0.0155925 0)
(-0.606473 0.0336434 0)
(-0.621863 0.0477222 0)
(-0.635207 0.0575526 0)
(-0.648423 0.0625751 0)
(-0.66263 0.0634865 0)
(-0.678221 0.0611971 0)
(-0.695139 0.0567192 0)
(-0.713179 0.0511997 0)
(-0.732071 0.0457847 0)
(-0.751342 0.0413831 0)
(-0.770372 0.0381839 0)
(-0.788292 0.0358195 0)
(-0.804164 0.0337006 0)
(-0.817368 0.0313901 0)
(-0.827839 0.028902 0)
(-0.836102 0.0265533 0)
(-0.843047 0.0244868 0)
(-0.849135 0.0224324 0)
(-0.85289 0.0205727 0)
(-0.0697855 -0.672464 0)
(-0.160791 -0.507458 0)
(-0.30001 -0.357139 0)
(-0.416717 -0.250057 0)
(-0.524228 -0.172102 0)
(-0.61749 -0.113762 0)
(-0.696958 -0.068473 0)
(-0.763865 -0.03277 0)
(-0.819812 -0.00441634 0)
(-0.861003 0.0173985 0)
(-0.889109 0.0342624 0)
(-0.912229 0.0480557 0)
(-0.93054 0.0593144 0)
(-0.945509 0.0673986 0)
(-0.958865 0.0719527 0)
(-0.971966 0.0730801 0)
(-0.985546 0.0712076 0)
(-0.999825 0.067095 0)
(-1.01482 0.061821 0)
(-1.03052 0.0565287 0)
(-1.04683 0.0520022 0)
(-1.0634 0.0483197 0)
(-1.07948 0.0449957 0)
(-1.094 0.0414457 0)
(-1.10601 0.0374681 0)
(-1.11518 0.0334266 0)
(-1.12197 0.029905 0)
(-1.12738 0.0271394 0)
(-1.13194 0.0249456 0)
(-1.13447 0.0234918 0)
(-0.116787 -0.537135 0)
(-0.261605 -0.359273 0)
(-0.454008 -0.221521 0)
(-0.613643 -0.130921 0)
(-0.754035 -0.0690876 0)
(-0.87152 -0.0272097 0)
(-0.962819 0.000196322 0)
(-1.03186 0.019347 0)
(-1.08252 0.033503 0)
(-1.12212 0.0451537 0)
(-1.15387 0.0554349 0)
(-1.17915 0.064517 0)
(-1.19895 0.0720199 0)
(-1.21468 0.0775873 0)
(-1.22804 0.0809086 0)
(-1.2405 0.0817066 0)
(-1.2529 0.0798989 0)
(-1.26548 0.0759124 0)
(-1.27829 0.0707551 0)
(-1.29153 0.0656143 0)
(-1.30546 0.0612125 0)
(-1.3201 0.0574279 0)
(-1.33483 0.0535134 0)
(-1.34844 0.0487529 0)
(-1.35966 0.0431175 0)
(-1.36785 0.0374029 0)
(-1.37349 0.0326189 0)
(-1.37773 0.0291913 0)
(-1.38119 0.0269381 0)
(-1.38298 0.0257983 0)
(-0.184138 -0.343297 0)
(-0.404718 -0.168194 0)
(-0.671342 -0.0293726 0)
(-0.859042 0.028559 0)
(-1.00308 0.0525603 0)
(-1.11087 0.0611922 0)
(-1.19478 0.0649668 0)
(-1.26087 0.0675711 0)
(-1.31304 0.0703879 0)
(-1.35441 0.0739055 0)
(-1.38732 0.0779114 0)
(-1.4133 0.0818568 0)
(-1.43347 0.0852313 0)
(-1.44919 0.0878917 0)
(-1.46224 0.0896427 0)
(-1.47425 0.0898688 0)
(-1.48603 0.0878925 0)
(-1.49759 0.0837365 0)
(-1.50881 0.078408 0)
(-1.52002 0.0732992 0)
(-1.53196 0.0691767 0)
(-1.5451 0.0656455 0)
(-1.55899 0.0615106 0)
(-1.57221 0.0557433 0)
(-1.58297 0.0484174 0)
(-1.59033 0.0408694 0)
(-1.5948 0.0347389 0)
(-1.59785 0.0307248 0)
(-1.60032 0.0284925 0)
(-1.60157 0.0275903 0)
(-0.299646 -0.00613442 0)
(-0.586223 0.16685 0)
(-0.858582 0.188291 0)
(-1.05564 0.181688 0)
(-1.20484 0.164145 0)
(-1.31778 0.145178 0)
(-1.40401 0.129278 0)
(-1.47051 0.117025 0)
(-1.52206 0.108182 0)
(-1.56234 0.102879 0)
(-1.59428 0.100421 0)
(-1.6196 0.0992596 0)
(-1.63909 0.0983711 0)
(-1.6539 0.097907 0)
(-1.66605 0.0980248 0)
(-1.6775 0.0977535 0)
(-1.68897 0.0955794 0)
(-1.69996 0.0909724 0)
(-1.70989 0.0850748 0)
(-1.71919 0.0797858 0)
(-1.72924 0.0760946 0)
(-1.74116 0.0732336 0)
(-1.75472 0.0692931 0)
(-1.76808 0.0626833 0)
(-1.77875 0.0534997 0)
(-1.78529 0.0437972 0)
(-1.78837 0.0361621 0)
(-1.79001 0.031677 0)
(-1.79146 0.0296086 0)
(-1.79226 0.0289079 0)
(-0.383354 0.459337 0)
(-0.721114 0.494821 0)
(-1.0459 0.422944 0)
(-1.26167 0.347694 0)
(-1.41438 0.28368 0)
(-1.52383 0.230737 0)
(-1.60433 0.191732 0)
(-1.6656 0.16403 0)
(-1.71251 0.143644 0)
(-1.74857 0.129837 0)
(-1.7774 0.121591 0)
(-1.80084 0.115877 0)
(-1.81879 0.110653 0)
(-1.83169 0.106772 0)
(-1.84203 0.105375 0)
(-1.85257 0.105098 0)
(-1.86399 0.103039 0)
(-1.87481 0.0977643 0)
(-1.88357 0.0907632 0)
(-1.89075 0.0849807 0)
(-1.89867 0.0819476 0)
(-1.90947 0.0803575 0)
(-1.9232 0.0771717 0)
(-1.93738 0.0698889 0)
(-1.94841 0.0585182 0)
(-1.95406 0.0461005 0)
(-1.95527 0.0366733 0)
(-1.95509 0.0319082 0)
(-1.95545 0.0302869 0)
(-1.95588 0.0297953 0)
(-0.509069 0.984374 0)
(-0.941502 0.90437 0)
(-1.30594 0.687797 0)
(-1.50815 0.512804 0)
(-1.64168 0.395423 0)
(-1.73328 0.304593 0)
(-1.79707 0.244733 0)
(-1.84643 0.20651 0)
(-1.8849 0.176287 0)
(-1.91366 0.15365 0)
(-1.93721 0.140244 0)
(-1.95799 0.130989 0)
(-1.97393 0.121521 0)
(-1.98376 0.113919 0)
(-1.99085 0.111461 0)
(-1.99985 0.112364 0)
(-2.0116 0.111176 0)
(-2.02289 0.104898 0)
(-2.03052 0.0957734 0)
(-2.03495 0.0888054 0)
(-2.04007 0.0866588 0)
(-2.04965 0.0871812 0)
(-2.06412 0.0855203 0)
(-2.08001 0.0777619 0)
(-2.09199 0.0636637 0)
(-2.09658 0.0476144 0)
(-2.09514 0.0358966 0)
(-2.09245 0.0311834 0)
(-2.09162 0.0305665 0)
(-2.0918 0.0303639 0)
(-0.749121 2.0309 0)
(-1.28838 1.59116 0)
(-1.67958 0.98694 0)
(-1.81389 0.598141 0)
(-1.89009 0.464676 0)
(-1.94533 0.357858 0)
(-1.97651 0.288544 0)
(-2.00831 0.244903 0)
(-2.03846 0.200312 0)
(-2.05773 0.164648 0)
(-2.07282 0.150111 0)
(-2.09006 0.143302 0)
(-2.10399 0.131742 0)
(-2.10932 0.119386 0)
(-2.11096 0.115139 0)
(-2.11754 0.11846 0)
(-2.13055 0.119087 0)
(-2.14354 0.111245 0)
(-2.15008 0.0984983 0)
(-2.15048 0.0894947 0)
(-2.15138 0.0889743 0)
(-2.15929 0.0933097 0)
(-2.17516 0.0945803 0)
(-2.19395 0.0867731 0)
(-2.2077 0.069202 0)
(-2.21093 0.0480895 0)
(-2.20553 0.0332148 0)
(-2.1992 0.0291133 0)
(-2.19707 0.0305648 0)
(-2.19728 0.0309094 0)
(9.9959 0.138448 0)
(9.98225 0.275244 0)
(9.95811 0.412533 0)
(9.92454 0.552285 0)
(9.88242 0.696176 0)
(9.83217 0.84576 0)
(9.77399 1.00254 0)
(9.70816 1.168 0)
(9.63493 1.3436 0)
(9.55459 1.5308 0)
(9.4674 1.73109 0)
(9.37364 1.94603 0)
(9.27356 2.17725 0)
(9.16743 2.42648 0)
(9.05548 2.69564 0)
(8.93794 2.98686 0)
(8.815 3.3026 0)
(8.6868 3.64576 0)
(8.5534 4.01983 0)
(8.4148 4.42922 0)
(8.27092 4.87954 0)
(8.12163 5.37828 0)
(7.96688 5.93559 0)
(7.80692 6.56583 0)
(7.64291 7.29006 0)
(7.47979 8.14087 0)
(7.33072 9.17217 0)
(7.28549 10.4774 0)
(7.74097 12.2013 0)
(7.9176 14.9184 0)
(9.99638 0.143408 0)
(9.98434 0.285098 0)
(9.96305 0.427261 0)
(9.93352 0.571894 0)
(9.89657 0.72069 0)
(9.85263 0.875208 0)
(9.80197 1.03695 0)
(9.74493 1.20741 0)
(9.68185 1.38802 0)
(9.6131 1.58025 0)
(9.53908 1.78558 0)
(9.4602 2.00554 0)
(9.37689 2.24174 0)
(9.28964 2.4959 0)
(9.19897 2.76992 0)
(9.10545 3.06591 0)
(9.00974 3.38629 0)
(8.91257 3.73392 0)
(8.81488 4.11225 0)
(8.71782 4.52554 0)
(8.62301 4.97921 0)
(8.53279 5.4803 0)
(8.45088 6.03814 0)
(8.38351 6.66531 0)
(8.34184 7.37904 0)
(8.34787 8.20277 0)
(8.44035 9.16667 0)
(8.67506 10.3041 0)
(9.32053 11.5601 0)
(9.80825 12.6516 0)
(9.99688 0.147845 0)
(9.98651 0.293909 0)
(9.96819 0.44041 0)
(9.94283 0.589363 0)
(9.91121 0.742462 0)
(9.87378 0.90126 0)
(9.83086 1.06725 0)
(9.78284 1.2419 0)
(9.73015 1.42664 0)
(9.67324 1.62289 0)
(9.61264 1.83209 0)
(9.5489 2.05574 0)
(9.48264 2.29539 0)
(9.41454 2.5527 0)
(9.34542 2.82946 0)
(9.27619 3.12769 0)
(9.20795 3.44965 0)
(9.14203 3.79797 0)
(9.08012 4.17579 0)
(9.02443 4.58687 0)
(8.97798 5.03581 0)
(8.94504 5.52828 0)
(8.93189 6.07129 0)
(8.94804 6.67324 0)
(9.00797 7.3436 0)
(9.13379 8.09104 0)
(9.3565 8.91754 0)
(9.68562 9.81212 0)
(10.2512 10.7236 0)
(10.9387 11.4428 0)
(9.9974 0.151706 0)
(9.98874 0.30157 0)
(9.97347 0.451816 0)
(9.95239 0.604461 0)
(9.92623 0.761191 0)
(9.89545 0.923543 0)
(9.86042 1.09299 0)
(9.82158 1.27095 0)
(9.77944 1.45884 0)
(9.73453 1.65801 0)
(9.68749 1.86986 0)
(9.63901 2.09579 0)
(9.58986 2.33727 0)
(9.54095 2.59583 0)
(9.49332 2.87314 0)
(9.44821 3.17099 0)
(9.4071 3.49139 0)
(9.37182 3.83661 0)
(9.34467 4.20923 0)
(9.32861 4.61222 0)
(9.32758 5.04899 0)
(9.34687 5.52339 0)
(9.39373 6.03956 0)
(9.47806 6.60148 0)
(9.61306 7.21195 0)
(9.81558 7.87067 0)
(10.1084 8.57061 0)
(10.5003 9.29719 0)
(11.0582 10.0403 0)
(11.8519 10.6868 0)
(9.99792 0.154945 0)
(9.99101 0.307989 0)
(9.97884 0.461342 0)
(9.96212 0.61701 0)
(9.9415 0.776659 0)
(9.91746 0.941795 0)
(9.8904 1.11385 0)
(9.86083 1.29422 0)
(9.82929 1.48422 0)
(9.79642 1.68518 0)
(9.76295 1.89838 0)
(9.72966 2.12514 0)
(9.69749 2.36679 0)
(9.66752 2.62471 0)
(9.641 2.90034 0)
(9.6194 3.19523 0)
(9.60452 3.51103 0)
(9.59852 3.84952 0)
(9.60411 4.21261 0)
(9.62466 4.60237 0)
(9.6645 5.0209 0)
(9.72916 5.47021 0)
(9.82571 5.95194 0)
(9.96312 6.46679 0)
(10.1525 7.0137 0)
(10.4068 7.58881 0)
(10.7435 8.18404 0)
(11.1742 8.7847 0)
(11.722 9.37922 0)
(12.4761 9.89268 0)
(9.99845 0.157519 0)
(9.9933 0.313079 0)
(9.98427 0.468863 0)
(9.97194 0.626846 0)
(9.9569 0.788662 0)
(9.93962 0.955778 0)
(9.92055 1.12958 0)
(9.90023 1.31138 0)
(9.87926 1.50246 0)
(9.85834 1.70404 0)
(9.83827 1.9173 0)
(9.81995 2.14343 0)
(9.80442 2.3836 0)
(9.79287 2.63899 0)
(9.78672 2.91082 0)
(9.78763 3.2003 0)
(9.79755 3.50867 0)
(9.81885 3.8372 0)
(9.85441 4.1871 0)
(9.9077 4.5595 0)
(9.98303 4.9553 0)
(10.0856 5.37499 0)
(10.2218 5.8183 0)
(10.3991 6.28379 0)
(10.6264 6.76821 0)
(10.9134 7.26581 0)
(11.2713 7.76735 0)
(11.7082 8.25729 0)
(12.2249 8.71892 0)
(12.9018 9.11069 0)
(9.99898 0.159387 0)
(9.9956 0.316763 0)
(9.98971 0.474264 0)
(9.98177 0.63382 0)
(9.97229 0.79702 0)
(9.96174 0.965279 0)
(9.9506 1.13992 0)
(9.93943 1.3222 0)
(9.92888 1.51328 0)
(9.9197 1.7143 0)
(9.91274 1.92632 0)
(9.90896 2.15038 0)
(9.90948 2.38747 0)
(9.9156 2.63856 0)
(9.9288 2.90458 0)
(9.95082 3.18642 0)
(9.98371 3.48491 0)
(10.0299 3.80076 0)
(10.0921 4.13453 0)
(10.1738 4.48653 0)
(10.279 4.85666 0)
(10.4121 5.24423 0)
(10.5786 5.64766 0)
(10.7843 6.06414 0)
(11.0357 6.48919 0)
(11.3392 6.91613 0)
(11.701 7.3356 0)
(12.1253 7.73417 0)
(12.6059 8.09724 0)
(13.2123 8.40426 0)
(9.99951 0.160518 0)
(9.99789 0.318976 0)
(9.9951 0.477448 0)
(9.99151 0.637806 0)
(9.98753 0.801582 0)
(9.98362 0.970128 0)
(9.98028 1.1447 0)
(9.97808 1.32645 0)
(9.97769 1.51648 0)
(9.9799 1.71578 0)
(9.98559 1.9253 0)
(9.99577 2.1459 0)
(10.0116 2.3784 0)
(10.0344 2.62353 0)
(10.0656 2.88194 0)
(10.1071 3.1542 0)
(10.1608 3.44072 0)
(10.229 3.74174 0)
(10.3145 4.05723 0)
(10.4202 4.38683 0)
(10.5495 4.72967 0)
(10.7063 5.08424 0)
(10.8947 5.44815 0)
(11.1191 5.81787 0)
(11.3838 6.18851 0)
(11.6925 6.5535 0)
(12.0481 6.90456 0)
(12.4522 7.23134 0)
(12.8971 7.52268 0)
(13.441 7.76723 0)
(10 0.160882 0)
(10.0001 0.319663 0)
(10.0004 0.478337 0)
(10.0011 0.638704 0)
(10.0025 0.802231 0)
(10.0051 0.970195 0)
(10.0093 1.14377 0)
(10.0158 1.32402 0)
(10.0252 1.51194 0)
(10.0384 1.7084 0)
(10.0561 1.91419 0)
(10.0795 2.13004 0)
(10.1097 2.35655 0)
(10.1479 2.59423 0)
(10.1957 2.84347 0)
(10.2548 3.10452 0)
(10.327 3.37743 0)
(10.4144 3.66202 0)
(10.5194 3.95782 0)
(10.6447 4.26392 0)
(10.793 4.57896 0)
(10.9673 4.90091 0)
(11.1707 5.22698 0)
(11.4061 5.55345 0)
(11.676 5.87558 0)
(11.9825 6.18751 0)
(12.3262 6.48234 0)
(12.7071 6.75224 0)
(13.1173 6.98883 0)
(13.6058 7.18524 0)
(10.0005 0.160459 0)
(10.0023 0.318781 0)
(10.0056 0.476869 0)
(10.0104 0.63644 0)
(10.0171 0.798883 0)
(10.0259 0.965395 0)
(10.0375 1.13706 0)
(10.0523 1.31485 0)
(10.0711 1.49963 0)
(10.0946 1.69217 0)
(10.1237 1.8931 0)
(10.1594 2.10299 0)
(10.2028 2.32225 0)
(10.2552 2.55119 0)
(10.3179 2.78995 0)
(10.3926 3.0385 0)
(10.4808 3.29659 0)
(10.5845 3.56371 0)
(10.7056 3.83903 0)
(10.8464 4.12132 0)
(11.0089 4.40889 0)
(11.1955 4.69949 0)
(11.4081 4.99022 0)
(11.6485 5.27751 0)
(11.9181 5.55706 0)
(12.2175 5.82388 0)
(12.5462 6.07244 0)
(12.903 6.29681 0)
(13.2806 6.49095 0)
(13.7211 6.65066 0)
(10.001 0.159233 0)
(10.0044 0.316302 0)
(10.0106 0.473006 0)
(10.0194 0.630968 0)
(10.0311 0.791492 0)
(10.0459 0.955689 0)
(10.0645 1.12455 0)
(10.0872 1.29894 0)
(10.1148 1.47962 0)
(10.148 1.66721 0)
(10.1877 1.86224 0)
(10.2348 2.06509 0)
(10.2902 2.27602 0)
(10.3553 2.49513 0)
(10.4312 2.72235 0)
(10.5194 2.95744 0)
(10.6212 3.1999 0)
(10.7383 3.44898 0)
(10.8723 3.70361 0)
(11.0249 3.96237 0)
(11.1976 4.22342 0)
(11.392 4.48448 0)
(11.6093 4.74278 0)
(11.8504 4.99504 0)
(12.1157 5.23756 0)
(12.4051 5.46622 0)
(12.7172 5.67668 0)
(13.0504 5.86459 0)
(13.3983 6.02568 0)
(13.7976 6.15744 0)
(10.0015 0.157196 0)
(10.0065 0.312211 0)
(10.0154 0.466729 0)
(10.028 0.622272 0)
(10.0445 0.780051 0)
(10.065 0.941088 0)
(10.0901 1.10627 0)
(10.1203 1.27637 0)
(10.1561 1.45203 0)
(10.1983 1.63375 0)
(10.2476 1.82193 0)
(10.305 2.0168 0)
(10.3713 2.21847 0)
(10.4475 2.42687 0)
(10.5349 2.64177 0)
(10.6345 2.86274 0)
(10.7476 3.08912 0)
(10.8755 3.31999 0)
(11.0194 3.55415 0)
(11.1805 3.79011 0)
(11.3599 4.02601 0)
(11.5585 4.25967 0)
(11.777 4.48855 0)
(12.0156 4.7098 0)
(12.2741 4.9203 0)
(12.5517 5.11675 0)
(12.8469 5.29585 0)
(13.1578 5.45441 0)
(13.4789 5.58951 0)
(13.8428 5.69964 0)
(10.0019 0.154348 0)
(10.0084 0.306507 0)
(10.0199 0.458041 0)
(10.0362 0.610363 0)
(10.0571 0.764588 0)
(10.083 0.921644 0)
(10.1142 1.08232 0)
(10.1513 1.24729 0)
(10.1947 1.41708 0)
(10.245 1.59209 0)
(10.3031 1.77258 0)
(10.3696 1.95867 0)
(10.4454 2.15032 0)
(10.5314 2.34735 0)
(10.6284 2.54939 0)
(10.7376 2.75587 0)
(10.8598 2.96602 0)
(10.996 3.17884 0)
(11.1471 3.39309 0)
(11.3139 3.60727 0)
(11.4971 3.81962 0)
(11.6972 4.02814 0)
(11.9142 4.23059 0)
(12.148 4.42453 0)
(12.398 4.60743 0)
(12.6632 4.7767 0)
(12.9418 4.92985 0)
(13.232 5.06461 0)
(13.5292 5.17897 0)
(13.8625 5.2721 0)
(10.0024 0.150694 0)
(10.0102 0.299204 0)
(10.0241 0.446967 0)
(10.0438 0.595283 0)
(10.0689 0.745169 0)
(10.0997 0.897458 0)
(10.1366 1.05285 0)
(10.18 1.2119 0)
(10.2302 1.37505 0)
(10.288 1.54259 0)
(10.3538 1.71468 0)
(10.4284 1.89132 0)
(10.5124 2.07238 0)
(10.6066 2.25756 0)
(10.7117 2.4464 0)
(10.8285 2.63825 0)
(10.9578 2.83229 0)
(11.1001 3.02749 0)
(11.2561 3.22261 0)
(11.4264 3.41625 0)
(11.6111 3.60677 0)
(11.8103 3.7924 0)
(12.024 3.97122 0)
(12.2515 4.1412 0)
(12.4922 4.30032 0)
(12.7447 4.44659 0)
(13.0075 4.57815 0)
(13.2787 4.69339 0)
(13.5546 4.791 0)
(13.8614 4.87053 0)
(10.0027 0.146247 0)
(10.0119 0.290328 0)
(10.0281 0.43355 0)
(10.0508 0.577098 0)
(10.0798 0.72189 0)
(10.1152 0.868666 0)
(10.1572 1.01803 0)
(10.2063 1.17045 0)
(10.2627 1.32627 0)
(10.327 1.4857 0)
(10.3996 1.64878 0)
(10.4811 1.81545 0)
(10.5721 1.98549 0)
(10.6731 2.15852 0)
(10.7847 2.33402 0)
(10.9075 2.51131 0)
(11.042 2.68955 0)
(11.1886 2.86773 0)
(11.3476 3.04467 0)
(11.5193 3.21908 0)
(11.7036 3.38951 0)
(11.9005 3.55441 0)
(12.1094 3.71217 0)
(12.3298 3.86116 0)
(12.5606 3.99976 0)
(12.8007 4.12647 0)
(13.0485 4.23993 0)
(13.3024 4.33903 0)
(13.5593 4.4229 0)
(13.8431 4.49137 0)
(10.0031 0.141025 0)
(10.0134 0.279916 0)
(10.0317 0.417851 0)
(10.0573 0.555898 0)
(10.0898 0.694879 0)
(10.1293 0.835441 0)
(10.1759 0.978102 0)
(10.23 1.12325 0)
(10.2919 1.27113 0)
(10.3619 1.42187 0)
(10.4404 1.57547 0)
(10.5278 1.73177 0)
(10.6245 1.89049 0)
(10.731 2.05123 0)
(10.8478 2.21342 0)
(10.975 2.37637 0)
(11.1132 2.53927 0)
(11.2624 2.70115 0)
(11.4228 2.86095 0)
(11.5943 3.01748 0)
(11.7769 3.1695 0)
(11.9701 3.31569 0)
(12.1734 3.45472 0)
(12.386 3.58528 0)
(12.607 3.70612 0)
(12.8351 3.81612 0)
(13.069 3.91429 0)
(13.3072 3.99988 0)