/*--------------------------------*- C++ -*----------------------------------*\
| =========                 |                                                 |
| \\      /  F ield         | OpenFOAM: The Open Source CFD Toolbox           |
|  \\    /   O peration     | Version:  4.1                                   |
|   \\  /    A nd           | Web:      www.OpenFOAM.org                      |
|    \\/     M anipulation  |                                                 |
\*---------------------------------------------------------------------------*/
FoamFile
{
    version     2.0;
    format      ascii;
    class       volVectorField;
    location    "0.3";
    object      cellDisplacement;
}
// * * * * * * * * * * * * * * * * * * * * * * * * * * * * * * * * * * * * * //

dimensions      [0 1 0 0 0 0 0];

internalField   nonuniform List<vector> 
2790
(
(0.00236986 2.31567e-07 0)
(0.00682079 6.96502e-07 0)
(0.0107362 1.19204e-06 0)
(0.0141646 1.76806e-06 0)
(0.0171503 2.47236e-06 0)
(0.0197324 3.35564e-06 0)
(0.0219444 4.47564e-06 0)
(0.0238154 5.90109e-06 0)
(0.02537 7.71594e-06 0)
(0.0266288 1.00245e-05 0)
(0.0276089 1.29573e-05 0)
(0.0283238 1.66794e-05 0)
(0.0287842 2.13994e-05 0)
(0.0289976 2.73821e-05 0)
(0.0289688 3.49628e-05 0)
(0.0287001 4.4564e-05 0)
(0.0281909 5.67155e-05 0)
(0.0274386 7.20744e-05 0)
(0.0264384 9.14504e-05 0)
(0.0251839 0.000115834 0)
(0.0236688 0.000146423 0)
(0.0218883 0.000184621 0)
(0.0198417 0.000232009 0)
(0.017537 0.000290301 0)
(0.0149967 0.000361226 0)
(0.0122679 0.000446348 0)
(0.00943679 0.000546856 0)
(0.00665602 0.000663184 0)
(0.00419944 0.000792868 0)
(0.00263511 0.000917906 0)
(0.0023705 6.8809e-07 0)
(0.00682299 2.0698e-06 0)
(0.0107405 3.54258e-06 0)
(0.0141714 5.25435e-06 0)
(0.0171604 7.34687e-06 0)
(0.0197464 9.97036e-06 0)
(0.0219634 1.32956e-05 0)
(0.0238405 1.75257e-05 0)
(0.0254026 2.29081e-05 0)
(0.0266706 2.97499e-05 0)
(0.0276619 3.8435e-05 0)
(0.0283905 4.94472e-05 0)
(0.0288674 6.33978e-05 0)
(0.0291011 8.10606e-05 0)
(0.0290971 0.000103414 0)
(0.0288588 0.000131691 0)
(0.0283872 0.00016743 0)
(0.0276812 0.000212541 0)
(0.0267383 0.000269361 0)
(0.0255546 0.000340741 0)
(0.0241268 0.000430135 0)
(0.0224538 0.00054155 0)
(0.0205393 0.000679475 0)
(0.0183961 0.000848675 0)
(0.0160527 0.00105372 0)
(0.0135642 0.0012981 0)
(0.0110259 0.00158259 0)
(0.0086026 0.00190221 0)
(0.00657872 0.00223728 0)
(0.00547063 0.00252266 0)
(0.00237266 1.12613e-06 0)
(0.00682975 3.38777e-06 0)
(0.0107523 5.79845e-06 0)
(0.0141891 8.59931e-06 0)
(0.017185 1.20213e-05 0)
(0.0197793 1.63083e-05 0)
(0.0220063 2.17372e-05 0)
(0.0238955 2.86354e-05 0)
(0.0254723 3.74015e-05 0)
(0.0267582 4.85273e-05 0)
(0.0277711 6.26264e-05 0)
(0.0285261 8.04684e-05 0)
(0.0290353 0.000103023 0)
(0.0293083 0.000131512 0)
(0.0293525 0.000167476 0)
(0.0291732 0.000212851 0)
(0.0287744 0.000270044 0)
(0.0281584 0.000342022 0)
(0.0273267 0.000432393 0)
(0.0262797 0.00054549 0)
(0.0250204 0.000686614 0)
(0.0235545 0.0008618 0)
(0.0218935 0.00107768 0)
(0.0200583 0.00134106 0)
(0.0180867 0.00165794 0)
(0.0160448 0.00203139 0)
(0.0140329 0.00245739 0)
(0.0122094 0.00291788 0)
(0.0108186 0.00336573 0)
(0.0102392 0.00369506 0)
(0.00237598 1.53482e-06 0)
(0.00684001 4.61753e-06 0)
(0.0107702 7.90269e-06 0)
(0.0142157 1.17173e-05 0)
(0.0172218 1.63734e-05 0)
(0.0198283 2.21996e-05 0)
(0.0220701 2.95664e-05 0)
(0.0239771 3.89104e-05 0)
(0.0255754 5.07598e-05 0)
(0.0268874 6.57631e-05 0)
(0.0279321 8.47241e-05 0)
(0.0287257 0.000108646 0)
(0.0292818 0.000138783 0)
(0.0296118 0.000176711 0)
(0.0297256 0.000224402 0)
(0.0296315 0.000284322 0)
(0.029337 0.000359523 0)
(0.0288496 0.000453734 0)
(0.0281767 0.000571431 0)
(0.0273239 0.000717779 0)
(0.0263025 0.00089934 0)
(0.0251278 0.00112328 0)
(0.0238209 0.00139723 0)
(0.0224124 0.00172866 0)
(0.0209462 0.00212346 0)
(0.0195032 0.00258304 0)
(0.0181758 0.00309691 0)
(0.0170914 0.00363524 0)
(0.0164136 0.00413224 0)
(0.0163495 0.00446412 0)
(0.00238043 1.90345e-06 0)
(0.00685363 5.72661e-06 0)
(0.0107938 9.79941e-06 0)
(0.0142507 1.45246e-05 0)
(0.0172701 2.0285e-05 0)
(0.0198926 2.7481e-05 0)
(0.0221534 3.65612e-05 0)
(0.0240835 4.80505e-05 0)
(0.0257097 6.25787e-05 0)
(0.0270554 8.09133e-05 0)
(0.028141 0.000103998 0)
(0.0289839 0.000133 0)
(0.0295999 0.000169368 0)
(0.0300025 0.000214902 0)
(0.0302044 0.00027184 0)
(0.0302174 0.000342955 0)
(0.0300533 0.000431664 0)
(0.0297255 0.000542093 0)
(0.0292448 0.000678628 0)
(0.0286286 0.000847143 0)
(0.0278956 0.00105457 0)
(0.0270714 0.00130807 0)
(0.0261883 0.00161502 0)
(0.0252878 0.001982 0)
(0.0244185 0.00241458 0)
(0.0236634 0.00291105 0)
(0.0231021 0.00345585 0)
(0.0228175 0.00401452 0)
(0.022878 0.00451836 0)
(0.0233192 0.00484425 0)
(0.00238592 2.22235e-06 0)
(0.0068704 6.68588e-06 0)
(0.0108228 1.14386e-05 0)
(0.0142934 1.6947e-05 0)
(0.017329 2.36516e-05 0)
(0.0199707 3.20098e-05 0)
(0.0222545 4.25292e-05 0)
(0.0242124 5.57981e-05 0)
(0.0258721 7.25157e-05 0)
(0.0272582 9.35247e-05 0)
(0.0283923 0.00011985 0)
(0.029294 0.000152744 0)
(0.0299806 0.000193743 0)
(0.0304686 0.000244729 0)
(0.0307733 0.000308015 0)
(0.0309103 0.00038643 0)
(0.0308954 0.000483442 0)
(0.0307476 0.000602752 0)
(0.030483 0.000748685 0)
(0.0301294 0.000927223 0)
(0.0297141 0.00114436 0)
(0.0292717 0.00140638 0)
(0.028845 0.00171927 0)
(0.0284854 0.00208769 0)
(0.0282502 0.0025152 0)
(0.0282054 0.0029966 0)
(0.0284137 0.00351378 0)
(0.0289119 0.0040323 0)
(0.0296776 0.00448898 0)
(0.030588 0.00477238 0)
(0.00239238 2.48326e-06 0)
(0.00689003 7.47047e-06 0)
(0.0108565 1.27779e-05 0)
(0.0143431 1.89218e-05 0)
(0.0173973 2.63863e-05 0)
(0.0200611 3.56685e-05 0)
(0.0223714 4.73144e-05 0)
(0.024361 6.1949e-05 0)
(0.0260588 8.03053e-05 0)
(0.0274907 0.000103255 0)
(0.0286799 0.000131841 0)
(0.0296474 0.000167321 0)
(0.0304132 0.000211207 0)
(0.0309958 0.000265321 0)
(0.0314139 0.00033185 0)
(0.0316863 0.000413411 0)
(0.0318329 0.000513121 0)
(0.0318746 0.000634119 0)
(0.0318408 0.00078035 0)
(0.0317619 0.000956607 0)
(0.0316729 0.00116749 0)
(0.0316164 0.00141746 0)
(0.0316425 0.00171018 0)
(0.0318089 0.00204735 0)
(0.0321781 0.00242865 0)
(0.0327916 0.00284643 0)
(0.0336907 0.00328109 0)
(0.0348642 0.00369962 0)
(0.0362024 0.0040465 0)
(0.0374351 0.00423161 0)
(0.00239968 2.67954e-06 0)
(0.00691214 8.06049e-06 0)
(0.0108944 1.37836e-05 0)
(0.0143987 2.04e-05 0)
(0.0174736 2.8422e-05 0)
(0.0201618 3.83689e-05 0)
(0.0225013 5.08034e-05 0)
(0.0245258 6.63596e-05 0)
(0.0262654 8.57689e-05 0)
(0.0277473 0.000109885 0)
(0.0289961 0.000139712 0)
(0.0300347 0.00017643 0)
(0.0308851 0.000221427 0)
(0.0315682 0.000276329 0)
(0.0321056 0.000343026 0)
(0.0325193 0.00042369 0)
(0.0328326 0.000520756 0)
(0.0330707 0.000636765 0)
(0.0332686 0.0007746 0)
(0.0334606 0.000937297 0)
(0.0336868 0.00112754 0)
(0.0339939 0.00134733 0)
(0.0344346 0.00159737 0)
(0.0350661 0.00187608 0)
(0.0359445 0.0021785 0)
(0.0370959 0.00249468 0)
(0.0385321 0.00280562 0)
(0.040192 0.00308268 0)
(0.0418848 0.00328466 0)
(0.043219 0.00335819 0)
(0.00240767 2.80642e-06 0)
(0.00693625 8.44176e-06 0)
(0.0109355 1.44321e-05 0)
(0.014459 2.13482e-05 0)
(0.017556 2.97147e-05 0)
(0.0202705 4.00558e-05 0)
(0.0226412 5.29296e-05 0)
(0.0247029 6.89529e-05 0)
(0.0264869 8.88225e-05 0)
(0.0280214 0.000113333 0)
(0.0293327 0.000143393 0)
(0.0304452 0.000180039 0)
(0.0313828 0.000224448 0)
(0.0321686 0.000277943 0)
(0.0328264 0.000341984 0)
(0.0333811 0.000418149 0)
(0.033859 0.000508064 0)
(0.0342897 0.000613302 0)
(0.034708 0.000735345 0)
(0.0351513 0.000875345 0)
(0.0356616 0.00103371 0)
(0.0362851 0.0012097 0)
(0.0370715 0.00140082 0)
(0.0380701 0.00160215 0)
(0.0393219 0.00180559 0)
(0.0408436 0.00199917 0)
(0.0426143 0.00216648 0)
(0.0445314 0.00228829 0)
(0.0463517 0.00234663 0)
(0.047631 0.00233448 0)
(0.00241615 2.8612e-06 0)
(0.00696176 8.60642e-06 0)
(0.010979 1.47109e-05 0)
(0.0145225 2.17499e-05 0)
(0.0176427 3.02453e-05 0)
(0.0203846 4.07095e-05 0)
(0.0227878 5.36764e-05 0)
(0.0248881 6.97222e-05 0)
(0.0267178 8.94801e-05 0)
(0.0283062 0.00011365 0)
(0.029681 0.000143002 0)
(0.0308679 0.000178376 0)
(0.0318924 0.000220677 0)
(0.0327794 0.000270848 0)
(0.0335544 0.000329842 0)
(0.034244 0.000398551 0)
(0.0348766 0.000477719 0)
(0.0354832 0.000567796 0)
(0.0360984 0.00066879 0)
(0.0367593 0.000779986 0)
(0.0375056 0.000899565 0)
(0.0383793 0.00102419 0)
(0.0394219 0.00114854 0)
(0.0406701 0.00126494 0)
(0.0421483 0.00136324 0)
(0.0438548 0.00143133 0)
(0.0457437 0.00145706 0)
(0.0476903 0.00143296 0)
(0.0494445 0.00136498 0)
(0.0505878 0.00128601 0)
(0.0024249 2.84329e-06 0)
(0.00698804 8.55309e-06 0)
(0.0110236 1.46188e-05 0)
(0.0145876 2.1606e-05 0)
(0.0177316 3.00197e-05 0)
(0.0205014 4.03454e-05 0)
(0.0229377 5.30762e-05 0)
(0.025077 6.87282e-05 0)
(0.0269525 8.78483e-05 0)
(0.0285948 0.000111015 0)
(0.0300322 0.000138829 0)
(0.031292 0.000171903 0)
(0.0324006 0.000210828 0)
(0.033384 0.000256139 0)
(0.0342689 0.000308248 0)
(0.0350828 0.000367352 0)
(0.0358545 0.000433315 0)
(0.0366147 0.000505494 0)
(0.0373962 0.00058254 0)
(0.0382331 0.000662109 0)
(0.03916 0.000740523 0)
(0.0402105 0.000812428 0)
(0.0414143 0.000870522 0)
(0.0427926 0.000905512 0)
(0.0443502 0.00090662 0)
(0.0460657 0.000863175 0)
(0.0478765 0.000768159 0)
(0.0496564 0.000624853 0)
(0.0511866 0.00045739 0)
(0.0521293 0.000325548 0)
(0.00243367 2.75418e-06 0)
(0.00701435 8.28661e-06 0)
(0.0110682 1.41655e-05 0)
(0.0146527 2.09336e-05 0)
(0.0178205 2.90667e-05 0)
(0.0206182 3.90111e-05 0)
(0.0230873 5.12054e-05 0)
(0.0252651 6.60912e-05 0)
(0.0271857 8.41132e-05 0)
(0.0288802 0.000105711 0)
(0.0303782 0.000131303 0)
(0.0317073 0.000161257 0)
(0.0328948 0.000195846 0)
(0.0339674 0.000235197 0)
(0.034952 0.000279204 0)
(0.035876 0.000327423 0)
(0.0367675 0.000378935 0)
(0.0376554 0.000432168 0)
(0.0385692 0.000484689 0)
(0.0395379 0.000532951 0)
(0.0405887 0.000572035 0)
(0.0417449 0.000595431 0)
(0.0430223 0.000594987 0)
(0.0444247 0.000561191 0)
(0.0459379 0.000484143 0)
(0.0475225 0.000355784 0)
(0.0491064 0.000174225 0)
(0.0505769 -4.87874e-05 0)
(0.0517719 -0.000276754 0)
(0.0524707 -0.000434362 0)
(0.00244221 2.59717e-06 0)
(0.00703995 7.81741e-06 0)
(0.0111117 1.33702e-05 0)
(0.0147163 1.97642e-05 0)
(0.0179073 2.74356e-05 0)
(0.0207322 3.67817e-05 0)
(0.0232332 4.81771e-05 0)
(0.0254483 6.19794e-05 0)
(0.027412 7.85228e-05 0)
(0.0291564 9.81029e-05 0)
(0.0307111 0.000120951 0)
(0.0321046 0.000147196 0)
(0.0333643 0.000176812 0)
(0.0345168 0.000209553 0)
(0.0355888 0.000244861 0)
(0.0366067 0.000281759 0)
(0.0375968 0.000318711 0)
(0.0385852 0.000353469 0)
(0.039597 0.000382892 0)
(0.0406551 0.000402766 0)
(0.0417781 0.000407657 0)
(0.0429785 0.000390864 0)
(0.0442582 0.000344584 0)
(0.0456054 0.000260454 0)
(0.0469889 0.000130757 0)
(0.0483556 -4.92789e-05 0)
(0.049629 -0.000277402 0)
(0.0507156 -0.000537412 0)
(0.0515189 -0.000788392 0)
(0.0519552 -0.000951561 0)
(0.00245023 2.37722e-06 0)
(0.00706406 7.16078e-06 0)
(0.0111528 1.22605e-05 0)
(0.0147765 1.81413e-05 0)
(0.0179897 2.51921e-05 0)
(0.0208407 3.3754e-05 0)
(0.0233721 4.41322e-05 0)
(0.0256225 5.65958e-05 0)
(0.0276269 7.13675e-05 0)
(0.0294175 8.86015e-05 0)
(0.0310245 0.000108353 0)
(0.0324762 0.000130533 0)
(0.0337999 0.000154854 0)
(0.035022 0.000180758 0)
(0.0361679 0.000207331 0)
(0.0372626 0.000233205 0)
(0.0383299 0.000256438 0)
(0.0393925 0.000274398 0)
(0.0404705 0.00028364 0)
(0.0415803 0.000279828 0)
(0.0427326 0.000257718 0)
(0.0439296 0.000211292 0)
(0.0451622 0.000134126 0)
(0.046406 2.011e-05 0)
(0.047619 -0.000135318 0)
(0.0487396 -0.00033328 0)
(0.049691 -0.000568685 0)
(0.0503941 -0.000825869 0)
(0.050799 -0.00107027 0)
(0.050944 -0.00123129 0)
(0.00245747 2.10056e-06 0)
(0.00708592 6.33588e-06 0)
(0.0111903 1.08704e-05 0)
(0.0148318 1.61177e-05 0)
(0.0180659 2.24141e-05 0)
(0.0209412 3.00404e-05 0)
(0.023501 3.92302e-05 0)
(0.0257842 5.01652e-05 0)
(0.027826 6.29608e-05 0)
(0.0296588 7.76411e-05 0)
(0.0313126 9.41045e-05 0)
(0.0328156 0.000112079 0)
(0.0341946 0.000131065 0)
(0.0354751 0.000150271 0)
(0.0366813 0.00016854 0)
(0.037836 0.000184266 0)
(0.0389603 0.00019532 0)
(0.0400729 0.00019897 0)
(0.0411894 0.000191846 0)
(0.0423201 0.000169953 0)
(0.0434688 0.000128797 0)
(0.0446302 6.3679e-05 0)
(0.0457872 -2.97755e-05 0)
(0.0469093 -0.000154773 0)
(0.0479501 -0.000312149 0)
(0.0488491 -0.000498904 0)
(0.0495361 -0.000706921 0)
(0.0499436 -0.00092268 0)
(0.0500357 -0.0011278 0)
(0.0498909 -0.00128295 0)
(0.00305148 -0.000992401 0)
(0.00518374 -0.000918586 0)
(0.0084061 -0.000799185 0)
(0.0120231 -0.000674119 0)
(0.0156102 -0.000557739 0)
(0.018941 -0.000455769 0)
(0.0219098 -0.000369715 0)
(0.0244805 -0.000298742 0)
(0.0266553 -0.000241065 0)
(0.0284548 -0.000194624 0)
(0.0299056 -0.000157421 0)
(0.0310341 -0.000127668 0)
(0.0318637 -0.000103841 0)
(0.0324138 -8.47452e-05 0)
(0.0326984 -6.94094e-05 0)
(0.032727 -5.70476e-05 0)
(0.0325046 -4.70351e-05 0)
(0.0320321 -3.88812e-05 0)
(0.031307 -3.22027e-05 0)
(0.0303231 -2.67003e-05 0)
(0.0290708 -2.21381e-05 0)
(0.0275374 -1.83291e-05 0)
(0.0257068 -1.51221e-05 0)
(0.0235592 -1.23933e-05 0)
(0.0210719 -1.00385e-05 0)
(0.0182179 -7.96717e-06 0)
(0.014967 -6.09736e-06 0)
(0.0112849 -4.35069e-06 0)
(0.00713371 -2.64704e-06 0)
(0.00246973 -8.97707e-07 0)
(0.00580266 -0.00277651 0)
(0.00767907 -0.00259094 0)
(0.0105472 -0.0022764 0)
(0.0138069 -0.00193347 0)
(0.017067 -0.00160754 0)
(0.0201141 -0.0013187 0)
(0.022846 -0.00107334 0)
(0.025222 -0.000869923 0)
(0.0272401 -0.000703904 0)
(0.0289152 -0.000569736 0)
(0.030268 -0.000461906 0)
(0.0313196 -0.000375411 0)
(0.0320889 -0.000305916 0)
(0.0325916 -0.000250085 0)
(0.0328392 -0.000205149 0)
(0.0328385 -0.000168851 0)
(0.0325928 -0.000139391 0)
(0.0321019 -0.000115355 0)
(0.031362 -9.56345e-05 0)
(0.0303662 -7.93612e-05 0)
(0.0291044 -6.58501e-05 0)
(0.0275634 -5.45553e-05 0)
(0.0257266 -4.50353e-05 0)
(0.0235743 -3.69266e-05 0)
(0.0210831 -2.99228e-05 0)
(0.0182262 -2.37569e-05 0)
(0.014973 -1.81868e-05 0)
(0.011289 -1.29802e-05 0)
(0.00713629 -7.8991e-06 0)
(0.00247071 -2.67961e-06 0)
(0.0104833 -0.0041227 0)
(0.0120958 -0.00388621 0)
(0.0144441 -0.00345471 0)
(0.0171056 -0.00296169 0)
(0.0197867 -0.00248104 0)
(0.0223196 -0.00204865 0)
(0.0246165 -0.00167803 0)
(0.0266307 -0.00136787 0)
(0.0283558 -0.00111272 0)
(0.0297973 -0.000905077 0)
(0.0309655 -0.000737146 0)
(0.0318717 -0.000601675 0)
(0.032526 -0.000492073 0)
(0.0329388 -0.000403625 0)
(0.0331155 -0.000332134 0)
(0.0330589 -0.000274143 0)
(0.0327687 -0.000226886 0)
(0.0322422 -0.000188183 0)
(0.0314738 -0.00015632 0)
(0.0304552 -0.000129944 0)
(0.0291751 -0.000107985 0)
(0.0276193 -8.95808e-05 0)
(0.0257706 -7.40335e-05 0)
(0.0236087 -6.07638e-05 0)
(0.0211097 -4.92805e-05 0)
(0.0182465 -3.91538e-05 0)
(0.0149881 -2.99914e-05 0)
(0.0112997 -2.14155e-05 0)
(0.00714282 -1.30375e-05 0)
(0.00247297 -4.42427e-06 0)
(0.016543 -0.00504386 0)
(0.0178575 -0.00476324 0)
(0.019589 -0.00426124 0)
(0.0215076 -0.00368135 0)
(0.0234492 -0.00310913 0)
(0.0253153 -0.0025885 0)
(0.0270314 -0.00213699 0)
(0.0285623 -0.00175614 0)
(0.0298955 -0.00143955 0)
(0.0310226 -0.00117939 0)
(0.0319405 -0.000967081 0)
(0.0326481 -0.000794469 0)
(0.0331465 -0.000653922 0)
(0.0334341 -0.000539076 0)
(0.0335117 -0.00044566 0)
(0.0333759 -0.000369399 0)
(0.0330225 -0.000306871 0)
(0.0324453 -0.000255369 0)
(0.0316361 -0.00021275 0)
(0.0305846 -0.000177308 0)
(0.029278 -0.000147675 0)
(0.0277008 -0.000122748 0)
(0.0258348 -0.000101617 0)
(0.0236589 -8.35264e-05 0)
(0.0211486 -6.78266e-05 0)
(0.0182762 -5.39459e-05 0)
(0.0150101 -4.13579e-05 0)
(0.0113151 -2.9552e-05 0)
(0.00715225 -1.80002e-05 0)
(0.00247621 -6.11059e-06 0)
(0.0234824 -0.00553309 0)
(0.0244157 -0.00520564 0)
(0.0254482 -0.00466865 0)
(0.0265469 -0.00406056 0)
(0.0276733 -0.0034603 0)
(0.0287883 -0.0029101 0)
(0.0298554 -0.00242762 0)
(0.0308448 -0.0020154 0)
(0.0317326 -0.00166863 0)
(0.0324983 -0.00138011 0)
(0.0331252 -0.00114175 0)
(0.0335999 -0.000945666 0)
(0.0339126 -0.00078473 0)
(0.0340505 -0.00065174 0)
(0.0340078 -0.000542139 0)
(0.033775 -0.000451866 0)
(0.0333433 -0.000377228 0)
(0.0327029 -0.000315282 0)
(0.0318426 -0.000263667 0)
(0.0307497 -0.000220479 0)
(0.0294095 -0.000184171 0)
(0.0278051 -0.000153475 0)
(0.0259171 -0.000127338 0)
(0.0237233 -0.00010487 0)
(0.0211984 -8.52978e-05 0)
(0.0183141 -6.79348e-05 0)
(0.0150382 -5.2141e-05 0)
(0.0113348 -3.72898e-05 0)
(0.0071642 -2.27279e-05 0)
(0.00248031 -7.71855e-06 0)
(0.0307204 -0.00553013 0)
(0.0311755 -0.00518856 0)
(0.0314682 -0.00467325 0)
(0.0317469 -0.00410183 0)
(0.0320697 -0.00353755 0)
(0.032445 -0.00301388 0)
(0.0328668 -0.00254779 0)
(0.0333092 -0.00214331 0)
(0.033741 -0.00179705 0)
(0.0341307 -0.00150408 0)
(0.0344498 -0.00125812 0)
(0.0346739 -0.00105264 0)
(0.0347826 -0.000881516 0)
(0.0347578 -0.000738718 0)
(0.0345809 -0.0006193 0)
(0.0342387 -0.000519717 0)
(0.0337179 -0.000436485 0)
(0.033005 -0.000366741 0)
(0.0320856 -0.000308129 0)
(0.0309446 -0.00025871 0)
(0.0295651 -0.000216879 0)
(0.0279287 -0.000181296 0)
(0.0260146 -0.00015083 0)
(0.0237996 -0.000124507 0)
(0.0212574 -0.000101472 0)
(0.0183589 -8.09517e-05 0)
(0.0150713 -6.2216e-05 0)
(0.0113579 -4.45421e-05 0)
(0.0071782 -2.71687e-05 0)
(0.0024851 -9.23073e-06 0)
(0.0375431 -0.00503124 0)
(0.0374962 -0.00473979 0)
(0.0371118 -0.00431645 0)
(0.0366676 -0.00384493 0)
(0.036288 -0.00337168 0)
(0.0360185 -0.00292319 0)
(0.0358597 -0.00251387 0)
(0.0357997 -0.00214945 0)
(0.0358027 -0.00183032 0)
(0.0358306 -0.00155422 0)
(0.0358472 -0.00131747 0)
(0.0358199 -0.00111571 0)
(0.0357205 -0.000944478 0)
(0.0355247 -0.000799386 0)
(0.0352067 -0.000676305 0)
(0.0347484 -0.000572096 0)
(0.0341321 -0.00048385 0)
(0.0333406 -0.000409046 0)
(0.0323567 -0.000345536 0)
(0.0311627 -0.000291497 0)
(0.0297397 -0.000245382 0)
(0.0280676 -0.00020587 0)
(0.0261243 -0.000171815 0)
(0.0238853 -0.000142217 0)
(0.0213237 -0.000116175 0)
(0.0184092 -9.28615e-05 0)
(0.0151083 -7.1482e-05 0)
(0.0113836 -5.12382e-05 0)
(0.0071937 -3.12799e-05 0)
(0.00249038 -1.06327e-05 0)
(0.0433152 -0.004176 0)
(0.0428575 -0.0039809 0)
(0.0419614 -0.00369546 0)
(0.0409713 -0.00336488 0)
(0.0400525 -0.00301888 0)
(0.0392745 -0.00267722 0)
(0.0386521 -0.00235275 0)
(0.0381728 -0.00205292 0)
(0.0378048 -0.00178131 0)
(0.0375099 -0.00153893 0)
(0.0372489 -0.0013251 0)
(0.0369851 -0.0011381 0)
(0.0366853 -0.00097561 0)
(0.03632 -0.000834999 0)
(0.0358612 -0.000713605 0)
(0.0352855 -0.000609071 0)
(0.0345715 -0.000519198 0)
(0.0336987 -0.000441982 0)
(0.0326472 -0.00037564 0)
(0.0313972 -0.000318592 0)
(0.0299279 -0.000269451 0)
(0.0282176 -0.000226991 0)
(0.0262428 -0.000190119 0)
(0.023978 -0.000157852 0)
(0.0213952 -0.000129285 0)
(0.0184633 -0.000103567 0)
(0.015148 -7.98643e-05 0)
(0.0114111 -5.73248e-05 0)
(0.00721013 -3.50291e-05 0)
(0.00249595 -1.19133e-05 0)
(0.0477141 -0.00316027 0)
(0.0469923 -0.00306819 0)
(0.0457869 -0.00292934 0)
(0.0444596 -0.00275174 0)
(0.0431918 -0.00254672 0)
(0.0420663 -0.00232622 0)
(0.0411087 -0.00210095 0)
(0.0403121 -0.00187944 0)
(0.0396506 -0.00166787 0)
(0.0390895 -0.00147031 0)
(0.0385912 -0.00128905 0)
(0.0381187 -0.00112502 0)
(0.0376371 -0.000978163 0)
(0.0371147 -0.000847741 0)
(0.036522 -0.000732605 0)
(0.0358325 -0.000631469 0)
(0.0350222 -0.000542975 0)
(0.0340682 -0.00046576 0)
(0.0329486 -0.000398508 0)
(0.0316414 -0.000339981 0)
(0.0301244 -0.000289027 0)
(0.0283743 -0.000244582 0)
(0.0263667 -0.000205658 0)
(0.0240748 -0.000171332 0)
(0.0214697 -0.000140732 0)
(0.0185195 -0.000113008 0)
(0.015189 -8.73147e-05 0)
(0.0114392 -6.27662e-05 0)
(0.00722691 -3.83939e-05 0)
(0.00250161 -1.30648e-05 0)
(0.0506512 -0.00211791 0)
(0.0498236 -0.00212428 0)
(0.0485119 -0.00212302 0)
(0.0470552 -0.0020906 0)
(0.045629 -0.00202192 0)
(0.0443197 -0.00192125 0)
(0.043161 -0.00179668 0)
(0.0421547 -0.00165703 0)
(0.0412836 -0.00151025 0)
(0.0405203 -0.00136279 0)
(0.0398321 -0.00121943 0)
(0.0391853 -0.00108347 0)
(0.0385467 -0.000956914 0)
(0.0378846 -0.000840798 0)
(0.0371694 -0.000735438 0)
(0.0363737 -0.000640685 0)
(0.0354717 -0.00055607 0)
(0.0344392 -0.000480924 0)
(0.0332526 -0.000414462 0)
(0.0318887 -0.00035584 0)
(0.0303239 -0.000304196 0)
(0.0285338 -0.000258673 0)
(0.0264927 -0.00021843 0)
(0.0241731 -0.000182639 0)
(0.0215451 -0.000150487 0)
(0.0185761 -0.000121157 0)
(0.0152301 -9.38076e-05 0)
(0.0114673 -6.75419e-05 0)
(0.00724347 -4.13608e-05 0)
(0.00250716 -1.40826e-05 0)
(0.0521684 -0.0011564 0)
(0.0513973 -0.00124995 0)
(0.0501726 -0.00136481 0)
(0.0487772 -0.00145508 0)
(0.0473654 -0.00150379 0)
(0.0460216 -0.00150891 0)
(0.0447863 -0.00147579 0)
(0.0436721 -0.00141275 0)
(0.0426729 -0.00132856 0)
(0.0417712 -0.00123111 0)
(0.0409425 -0.00112694 0)
(0.0401589 -0.0010211 0)
(0.039391 -0.000917255 0)
(0.0386098 -0.000817929 0)
(0.0377868 -0.000724712 0)
(0.036895 -0.000638502 0)
(0.0359085 -0.000559686 0)
(0.0348022 -0.000488275 0)
(0.0335518 -0.000424022 0)
(0.032133 -0.000366499 0)
(0.0305215 -0.000315161 0)
(0.0286918 -0.000269384 0)
(0.0266175 -0.0002285 0)
(0.0242702 -0.000191804 0)
(0.0216193 -0.000158563 0)
(0.0186315 -0.000128013 0)
(0.01527 -9.9337e-05 0)
(0.0114943 -7.16449e-05 0)
(0.00725927 -4.39244e-05 0)
(0.00251242 -1.49644e-05 0)
(0.0524823 -0.000390451 0)
(0.0518966 -0.000535053 0)
(0.0509122 -0.000726648 0)
(0.0497286 -0.000904019 0)
(0.0484685 -0.00104026 0)
(0.0472103 -0.00112767 0)
(0.0460013 -0.00116866 0)
(0.0448657 -0.00117023 0)
(0.0438101 -0.00114089 0)
(0.0428284 -0.00108896 0)
(0.0419059 -0.0010218 0)
(0.0410221 -0.000945451 0)
(0.0401536 -0.000864694 0)
(0.0392751 -0.000783107 0)
(0.0383607 -0.000703265 0)
(0.037385 -0.000626932 0)
(0.0363226 -0.000555231 0)
(0.0351488 -0.000488788 0)
(0.033839 -0.000427856 0)
(0.0323686 -0.000372409 0)
(0.0307124 -0.00032222 0)
(0.0288446 -0.000276909 0)
(0.026738 -0.000235992 0)
(0.0243637 -0.000198902 0)
(0.0216903 -0.000165004 0)
(0.0186841 -0.000133599 0)
(0.0153075 -0.000103915 0)
(0.0115194 -7.50803e-05 0)
(0.00727378 -4.60864e-05 0)
(0.00251721 -1.57107e-05 0)
(0.051958 0.000135412 0)
(0.0516168 -2.48625e-05 0)
(0.0509595 -0.000251961 0)
(0.0500784 -0.00047628 0)
(0.0490559 -0.000664645 0)
(0.0479628 -0.000805411 0)
(0.0468523 -0.000898191 0)
(0.0457599 -0.000948 0)
(0.0447044 -0.000962047 0)
(0.0436913 -0.000947991 0)
(0.0427158 -0.000913024 0)
(0.0417657 -0.000863432 0)
(0.0408237 -0.000804437 0)
(0.0398695 -0.000740211 0)
(0.0388807 -0.00067396 0)
(0.0378341 -0.000608065 0)
(0.0367058 -0.000544215 0)
(0.0354719 -0.000483541 0)
(0.0341083 -0.000426725 0)
(0.0325901 -0.000374104 0)
(0.0308923 -0.000325742 0)
(0.0289885 -0.000281499 0)
(0.0268512 -0.000241075 0)
(0.024451 -0.000204045 0)
(0.0217562 -0.000169881 0)
(0.0187323 -0.000137963 0)
(0.0153414 -0.00010757 0)
(0.0115417 -7.78643e-05 0)
(0.00728648 -4.7855e-05 0)
(0.00252135 -1.63239e-05 0)
(0.0509629 0.00043369 0)
(0.0508962 0.000272333 0)
(0.0505904 4.1896e-05 0)
(0.050033 -0.000190489 0)
(0.0492739 -0.000394474 0)
(0.048378 -0.000558085 0)
(0.0474034 -0.000678674 0)
(0.0463938 -0.000758586 0)
(0.0453775 -0.00080274 0)
(0.0443697 -0.000817136 0)
(0.0433743 -0.000807931 0)
(0.0423865 -0.000780886 0)
(0.0413956 -0.000741081 0)
(0.040386 -0.000692796 0)
(0.0393392 -0.000639508 0)
(0.0382349 -0.000583941 0)
(0.0370511 -0.000528158 0)
(0.0357653 -0.000473653 0)
(0.034354 -0.000421446 0)
(0.0327929 -0.000372171 0)
(0.0310571 -0.000326148 0)
(0.0291201 -0.000283452 0)
(0.0269542 -0.000243956 0)
(0.0245298 -0.000207376 0)
(0.0218149 -0.000173293 0)
(0.0187746 -0.000141169 0)
(0.0153706 -0.000110344 0)
(0.0115604 -8.00227e-05 0)
(0.00729688 -4.92444e-05 0)
(0.00252469 -1.68087e-05 0)
(0.0499448 0.000506777 0)
(0.0501299 0.000351718 0)
(0.0501026 0.000153797 0)
(0.0498047 -4.6181e-05 0)
(0.0492708 -0.000230859 0)
(0.0485586 -0.000389164 0)
(0.047724 -0.000515361 0)
(0.0468126 -0.00060814 0)
(0.0458575 -0.000669269 0)
(0.0448795 -0.000702342 0)
(0.0438887 -0.000711818 0)
(0.0428866 -0.000702355 0)
(0.0418675 -0.000678393 0)
(0.0408206 -0.000643914 0)
(0.0397313 -0.000602329 0)
(0.038582 -0.000556449 0)
(0.0373532 -0.00050851 0)
(0.0360239 -0.000460224 0)
(0.0345716 -0.000412842 0)
(0.032973 -0.00036722 0)
(0.0312032 -0.000323885 0)
(0.0292363 -0.000283092 0)
(0.0270445 -0.000244869 0)
(0.024598 -0.000209061 0)
(0.0218648 -0.000175355 0)
(0.0188096 -0.000143296 0)
(0.0153938 -0.000112289 0)
(0.0115747 -8.15898e-05 0)
(0.00730447 -5.02735e-05 0)
(0.00252704 -1.71711e-05 0)
(0.00246377 1.76791e-06 0)
(0.00710513 5.34525e-06 0)
(0.0112237 9.20545e-06 0)
(0.0148817 1.37048e-05 0)
(0.0181352 1.9122e-05 0)
(0.0210333 2.56751e-05 0)
(0.0236197 3.35258e-05 0)
(0.0259334 4.27712e-05 0)
(0.0280096 5.34271e-05 0)
(0.0298806 6.54014e-05 0)
(0.0315762 7.84599e-05 0)
(0.0331242 9.21832e-05 0)
(0.0345506 0.000105916 0)
(0.0358796 0.000118713 0)
(0.0371339 0.000129278 0)
(0.0383339 0.000135919 0)
(0.0394977 0.000136507 0)
(0.0406405 0.000128459 0)
(0.0417733 0.000108768 0)
(0.0429016 7.41229e-05 0)
(0.0440238 2.11331e-05 0)
(0.0451298 -5.32571e-05 0)
(0.0461988 -0.000151121 0)
(0.0471991 -0.000272673 0)
(0.0480879 -0.000415028 0)
(0.0488145 -0.000570602 0)
(0.0493271 -0.000725203 0)
(0.0495848 -0.000854967 0)
(0.0495797 -0.000923049 0)
(0.0493659 -0.000874561 0)
(0.00246883 1.37787e-06 0)
(0.0071209 4.18535e-06 0)
(0.0112518 7.26162e-06 0)
(0.0149246 1.09e-05 0)
(0.0181959 1.53183e-05 0)
(0.0211151 2.06707e-05 0)
(0.023726 2.70484e-05 0)
(0.0260675 3.44695e-05 0)
(0.028175 4.28605e-05 0)
(0.0300803 5.20309e-05 0)
(0.0318128 6.16411e-05 0)
(0.0333995 7.11652e-05 0)
(0.0348654 7.98504e-05 0)
(0.0362335 8.6674e-05 0)
(0.0375246 9.03007e-05 0)
(0.0387567 8.90846e-05 0)
(0.039945 8.10574e-05 0)
(0.0411013 6.39661e-05 0)
(0.042233 3.53703e-05 0)
(0.0433417 -7.17612e-06 0)
(0.0444227 -6.58325e-05 0)
(0.0454636 -0.000142027 0)
(0.0464431 -0.000235753 0)
(0.0473333 -0.00034488 0)
(0.0480994 -0.000464138 0)
(0.048705 -0.000583832 0)
(0.049121 -0.000689439 0)
(0.049333 -0.000760225 0)
(0.049359 -0.000771628 0)
(0.0492561 -0.000697852 0)
(0.00247226 9.37858e-07 0)
(0.00713211 2.87871e-06 0)
(0.0112729 5.07819e-06 0)
(0.0149583 7.76337e-06 0)
(0.0182451 1.10898e-05 0)
(0.021183 1.51496e-05 0)
(0.0238156 1.9968e-05 0)
(0.026182 2.54925e-05 0)
(0.0283168 3.15748e-05 0)
(0.0302518 3.79472e-05 0)
(0.0320156 4.41954e-05 0)
(0.0336343 4.97295e-05 0)
(0.0351317 5.37563e-05 0)
(0.0365296 5.52521e-05 0)
(0.0378469 5.29182e-05 0)
(0.0390992 4.52599e-05 0)
(0.0402991 3.05814e-05 0)
(0.0414556 7.06758e-06 0)
(0.0425732 -2.70748e-05 0)
(0.0436514 -7.34002e-05 0)
(0.0446841 -0.000132928 0)
(0.0456587 -0.000205812 0)
(0.0465556 -0.00029046 0)
(0.047354 -0.000383585 0)
(0.048028 -0.00047893 0)
(0.0485531 -0.000566955 0)
(0.0489169 -0.000635606 0)
(0.0491224 -0.000670882 0)
(0.0491932 -0.000658091 0)
(0.0491726 -0.000580774 0)
(0.00247374 4.54745e-07 0)
(0.00713783 1.4461e-06 0)
(0.0112855 2.69117e-06 0)
(0.0149808 4.34937e-06 0)
(0.0182805 6.51495e-06 0)
(0.0212342 9.22088e-06 0)
(0.0238856 1.24334e-05 0)
(0.0262731 1.60403e-05 0)
(0.0284314 1.98342e-05 0)
(0.0303912 2.34931e-05 0)
(0.0321806 2.6558e-05 0)
(0.0338246 2.84148e-05 0)
(0.0353456 2.82803e-05 0)
(0.0367645 2.52083e-05 0)
(0.0380987 1.79641e-05 0)
(0.039361 5.29126e-06 0)
(0.0405621 -1.41748e-05 0)
(0.0417089 -4.17784e-05 0)
(0.042804 -7.8681e-05 0)
(0.0438453 -0.000125633 0)
(0.0448282 -0.000182862 0)
(0.0457411 -0.000249463 0)
(0.0465668 -0.000323003 0)
(0.0472894 -0.000399576 0)
(0.0478927 -0.000473209 0)
(0.048364 -0.000536199 0)
(0.0487003 -0.000579667 0)
(0.0489103 -0.000594432 0)
(0.0490154 -0.000571919 0)
(0.0490486 -0.000504889 0)
(0.00247294 -6.33107e-08 0)
(0.00713718 -8.80037e-08 0)
(0.0112883 1.42477e-07 0)
(0.0149902 7.20362e-07 0)
(0.0182998 1.68107e-06 0)
(0.0212663 3.00354e-06 0)
(0.0239329 4.60301e-06 0)
(0.0263379 6.31968e-06 0)
(0.0285151 7.90413e-06 0)
(0.030495 9.0016e-06 0)
(0.0323043 9.13692e-06 0)
(0.0339672 7.7035e-06 0)
(0.0355041 3.96127e-06 0)
(0.0369366 -2.97703e-06 0)
(0.0382802 -1.41064e-05 0)
(0.0395442 -3.04522e-05 0)
(0.0407383 -5.30425e-05 0)
(0.0418683 -8.27743e-05 0)
(0.042936 -0.000120265 0)
(0.0439392 -0.000165672 0)
(0.0448727 -0.00021851 0)
(0.0457273 -0.000277209 0)
(0.0464912 -0.000339183 0)
(0.0471534 -0.000400632 0)
(0.0477042 -0.000456536 0)
(0.0481385 -0.000501015 0)
(0.0484582 -0.000527913 0)
(0.0486731 -0.000531548 0)
(0.0488011 -0.000507608 0)
(0.0488658 -0.000454608 0)
(0.00246957 -6.08953e-07 0)
(0.00712927 -1.70172e-06 0)
(0.0112799 -2.53094e-06 0)
(0.014985 -3.06948e-06 0)
(0.018301 -3.33696e-06 0)
(0.0212767 -3.40238e-06 0)
(0.023955 -3.39245e-06 0)
(0.0263734 -3.5022e-06 0)
(0.0285653 -4.00674e-06 0)
(0.0305602 -5.27268e-06 0)
(0.0323843 -7.76709e-06 0)
(0.0340605 -1.20617e-05 0)
(0.0356089 -1.88321e-05 0)
(0.0370482 -2.88621e-05 0)
(0.0383919 -4.2874e-05 0)
(0.0396502 -6.1674e-05 0)
(0.0408311 -8.59636e-05 0)
(0.0419393 -0.000116246 0)
(0.0429762 -0.000152697 0)
(0.0439403 -0.000195024 0)
(0.0448273 -0.00024231 0)
(0.0456305 -0.000292839 0)
(0.0463423 -0.000344087 0)
(0.0469561 -0.000392737 0)
(0.0474669 -0.000434824 0)
(0.0478741 -0.000466089 0)
(0.0481817 -0.000482477 0)
(0.0483992 -0.000480757 0)
(0.0485406 -0.000459274 0)
(0.0486223 -0.000419049 0)
(0.00246347 -1.17182e-06 0)
(0.00711362 -3.36431e-06 0)
(0.0112594 -5.27757e-06 0)
(0.0149637 -6.94584e-06 0)
(0.0182824 -8.43871e-06 0)
(0.0212636 -9.86613e-06 0)
(0.0239496 -1.13873e-05 0)
(0.0263774 -1.32204e-05 0)
(0.0285795 -1.56508e-05 0)
(0.0305847 -1.9039e-05 0)
(0.0324181 -2.38231e-05 0)
(0.0341019 -3.05163e-05 0)
(0.0356553 -3.96956e-05 0)
(0.0370948 -5.19767e-05 0)
(0.0384333 -6.79401e-05 0)
(0.0396805 -8.81333e-05 0)
(0.0408436 -0.000112969 0)
(0.0419269 -0.000142631 0)
(0.042932 -0.000176978 0)
(0.0438581 -0.000215434 0)
(0.0447024 -0.000256903 0)
(0.0454608 -0.000299699 0)
(0.0461288 -0.000341578 0)
(0.0467032 -0.000379826 0)
(0.0471825 -0.000411456 0)
(0.0475683 -0.000433512 0)
(0.0478656 -0.000443466 0)
(0.0480827 -0.000439677 0)
(0.0482304 -0.000421903 0)
(0.0483206 -0.000391876 0)
(0.0024544 -1.73877e-06 0)