/*--------------------------------*- C++ -*----------------------------------*\
| =========                 |                                                 |
| \\      /  F ield         | OpenFOAM: The Open Source CFD Toolbox           |
|  \\    /   O peration     | Version:  4.1                                   |
|   \\  /    A nd           | Web:      www.OpenFOAM.org                      |
|    \\/     M anipulation  |                                                 |
\*---------------------------------------------------------------------------*/
FoamFile
{
    version     2.0;
    format      ascii;
    class       volVectorField;
    location    "0.3";
    object      Force;
}
// * * * * * * * * * * * * * * * * * * * * * * * * * * * * * * * * * * * * * //

dimensions      [1 1 -2 0 0 0 0];

internalField   uniform (0 0 0);

boundaryField
{
    inlet
    {
        type            calculated;
        value           uniform (0 0 0);
    }
    outlet
    {
        type            calculated;
        value           uniform (0 0 0);
    }
    flap
    {
        type            calculated;
        value           nonuniform List<vector> 
33
(
(2.25938 -0.074069 -1.76162e-18)
(2.24184 -0.141913 -3.05037e-21)
(2.22312 -0.191714 -1.47564e-18)
(2.19712 -0.225673 -1.46837e-18)
(2.15926 -0.245985 -1.66035e-18)
(2.10775 -0.243186 5.12531e-22)
(2.05494 -0.207875 1.59064e-18)
(2.00376 -0.157129 1.37983e-18)
(1.94353 -0.10699 1.56439e-18)
(1.86644 -0.0577408 1.56189e-18)
(1.7677 -0.0137747 1.57342e-18)
(1.6278 0.0146786 1.65964e-18)
(1.41537 0.0282399 -1.60682e-18)
(1.07636 0.0306123 -1.62528e-18)
(0.439008 0.0174887 -1.27788e-22)
(-0.0292681 1.48579 7.97161e-19)
(-0.0256046 1.29404 8.02419e-19)
(-0.0229648 1.06042 -2.59715e-22)
(1.51382 -0.0544684 -5.28605e-19)
(1.5268 -0.100386 2.59304e-18)
(1.54145 -0.136654 1.56925e-18)
(1.56254 -0.163149 -1.59345e-18)
(1.59915 -0.183003 -2.17476e-18)
(1.65907 -0.188176 -1.66339e-18)
(1.73801 -0.170507 2.85119e-18)
(1.81929 -0.136938 -2.92633e-21)
(1.89134 -0.100103 3.4033e-18)
(1.9493 -0.0577828 1.6981e-18)
(1.98012 -0.0156232 -1.68847e-18)
(1.97689 0.016858 -1.92774e-22)
(1.94798 0.0338891 1.65577e-18)
(1.89946 0.045807 -3.19851e-19)
(1.83447 0.0429588 1.61814e-18)
)
;
    }
    upperWall
    {
        type            calculated;
        value           uniform (0 0 0);
    }
    lowerWall
    {
        type            calculated;
        value           uniform (0 0 0);
    }
    frontAndBack
    {
        type            empty;
    }
}


// ************************************************************************* //
