/*--------------------------------*- C++ -*----------------------------------*\
| =========                 |                                                 |
| \\      /  F ield         | OpenFOAM: The Open Source CFD Toolbox           |
|  \\    /   O peration     | Version:  4.1                                   |
|   \\  /    A nd           | Web:      www.OpenFOAM.org                      |
|    \\/     M anipulation  |                                                 |
\*---------------------------------------------------------------------------*/
FoamFile
{
    version     2.0;
    format      ascii;
    class       surfaceScalarField;
    location    "1.7";
    object      phi;
}
// * * * * * * * * * * * * * * * * * * * * * * * * * * * * * * * * * * * * * //

dimensions      [0 3 -1 0 0 0 0];

internalField   nonuniform List<scalar> 
5457
(
0.19845
0.0014411
0.19672
0.00163543
0.194792
0.00185095
0.192614
0.00211641
0.190194
0.0023719
0.187544
0.00261404
0.184666
0.00285246
0.181554
0.00309449
0.178196
0.00334632
0.174578
0.00361203
0.170683
0.00389441
0.166489
0.00419727
0.16197
0.00452383
0.157101
0.00487768
0.151847
0.00526264
0.146175
0.00568245
0.140045
0.00614078
0.133415
0.00664131
0.126238
0.00718752
0.118466
0.00778291
0.110047
0.00843062
0.100925
0.00913263
0.0910458
0.00988987
0.0803513
0.0107028
0.0687836
0.0115719
0.0562866
0.0124935
0.0428156
0.0134572
0.0283693
0.0144218
0.013031
0.0153021
0.0129974
0.200308
0.0010238
0.199963
0.00188611
0.199263
0.00247328
0.198259
0.00305934
0.196957
0.00362592
0.195368
0.00416671
0.193498
0.00469694
0.191341
0.00523279
0.188894
0.00578261
0.186144
0.00635521
0.183077
0.00696098
0.179671
0.00760588
0.175904
0.00829669
0.171747
0.00904119
0.167171
0.00984784
0.162138
0.010725
0.156608
0.0116812
0.150534
0.0127251
0.143866
0.0138654
0.136546
0.0151124
0.128509
0.0164768
0.119682
0.0179678
0.109985
0.019595
0.0993208
0.0213719
0.087568
0.0233253
0.0745601
0.0254932
0.06005
0.0279438
0.0435705
0.0308566
0.023747
0.0350238
0.0367575
0.200157
0.000757969
0.199877
0.00207077
0.199239
0.00303401
0.198317
0.0039197
0.197127
0.00476772
0.195677
0.00558014
0.193972
0.00637526
0.192012
0.00717505
0.18979
0.00799288
0.187297
0.00884215
0.184518
0.00973749
0.181439
0.0106882
0.178036
0.0117045
0.174285
0.0127987
0.170156
0.0139842
0.165615
0.015275
0.16062
0.0166849
0.155124
0.0182296
0.149073
0.0199247
0.142398
0.0217931
0.135018
0.0238609
0.126837
0.0261528
0.117735
0.0286978
0.107557
0.0315467
0.0960811
0.0347918
0.0829663
0.0385832
0.0676815
0.0431742
0.0494288
0.0490133
0.0269516
0.0573089
0.0636636
0.200062
0.000587059
0.199778
0.00225961
0.199147
0.00358679
0.198232
0.00477262
0.197056
0.00589435
0.19563
0.00696984
0.193958
0.00802121
0.19204
0.00907407
0.189872
0.0101488
0.187444
0.0112628
0.184747
0.0124321
0.181767
0.0136699
0.178487
0.0149898
0.174883
0.0164078
0.170931
0.0179426
0.166598
0.0196139
0.161849
0.0214415
0.156637
0.0234468
0.150908
0.0256571
0.144588
0.028113
0.137585
0.0308595
0.129786
0.0339455
0.121032
0.037441
0.111102
0.0414559
0.0997043
0.0461562
0.0863902
0.0518408
0.0703934
0.0590669
0.0505801
0.0686527
0.0269792
0.0806441
0.0904632
0.200008
0.000470698
0.199707
0.00246552
0.19908
0.00413444
0.198172
0.00561722
0.197009
0.0070075
0.195602
0.00833997
0.193954
0.00964233
0.192066
0.010944
0.18993
0.0122709
0.187541
0.0136436
0.184888
0.0150805
0.181961
0.0165983
0.178742
0.0182131
0.175209
0.0199446
0.171337
0.0218164
0.1671
0.0238542
0.162463
0.0260841
0.157376
0.0285351
0.151782
0.0312486
0.145603
0.0342813
0.138742
0.0377018
0.131076
0.0415901
0.122419
0.046071
0.112492
0.0513364
0.100918
0.0576588
0.0872081
0.0654468
0.0706214
0.0754954
0.0496315
0.0893972
0.0255868
0.104374
0.115774
0.199975
0.000387343
0.199658
0.00268728
0.199036
0.00467633
0.19814
0.0064486
0.196994
0.00810247
0.195609
0.00968631
0.193991
0.0112345
0.192136
0.0127808
0.190036
0.0143557
0.187686
0.015983
0.185076
0.0176832
0.182197
0.0194768
0.179032
0.0213831
0.175553
0.023425
0.171735
0.0256295
0.167559
0.0280293
0.162988
0.0306601
0.157958
0.0335617
0.152412
0.0367847
0.146271
0.0404008
0.139421
0.0445103
0.131732
0.0492366
0.123001
0.0547561
0.112929
0.0613359
0.101084
0.0693916
0.0868637
0.0795092
0.069681
0.0924659
0.0478449
0.110939
0.0237895
0.12808
0.139274
0.199955
0.000325627
0.199625
0.00292163
0.199007
0.00521294
0.198123
0.00726478
0.196997
0.00917614
0.195639
0.0110051
0.194055
0.0127932
0.192238
0.0145794
0.190179
0.0163982
0.187873
0.0182756
0.18531
0.020234
0.182487
0.0222989
0.179383
0.0244941
0.175964
0.0268459
0.172201
0.0293845
0.168079
0.032148
0.163559
0.0351833
0.158569
0.0385435
0.153047
0.0422895
0.146904
0.0465134
0.140011
0.0513441
0.13223
0.0569515
0.123344
0.0635762
0.113009
0.0715695
0.100827
0.0814291
0.0861447
0.093994
0.0683369
0.110019
0.0456782
0.133279
0.0218656
0.151544
0.160927
0.199941
0.000279084
0.199602
0.0031646
0.198988
0.00574357
0.19812
0.00806388
0.197015
0.010225
0.195689
0.0122916
0.194146
0.0143131
0.192374
0.0163345
0.190361
0.0183922
0.188107
0.0205144
0.185601
0.0227263
0.182843
0.0250579
0.179808
0.0275387
0.176459
0.0301991
0.172768
0.0330749
0.168701
0.0362079
0.164221
0.0396517
0.159272
0.0434775
0.153771
0.0477654
0.147624
0.0526263
0.140692
0.0582214
0.132792
0.0647652
0.123706
0.0725574
0.113097
0.0820494
0.100496
0.0938595
0.0853136
0.108963
0.0668679
0.128199
0.043491
0.156352
0.0201232
0.174622
0.180905
0.199934
0.000242799
0.199589
0.00341248
0.198981
0.00626599
0.198131
0.00884256
0.197053
0.0112435
0.195766
0.0135401
0.194273
0.0157896
0.19255
0.0180411
0.190589
0.0203315
0.188396
0.0226912
0.185962
0.0251523
0.183274
0.0277475
0.180306
0.0305095
0.177031
0.0334747
0.173422
0.0366863
0.169421
0.0401927
0.164993
0.0440521
0.160091
0.0483535
0.15462
0.0532017
0.148475
0.0587287
0.141516
0.0651274
0.133522
0.0726565
0.124237
0.0817002
0.113358
0.0927757
0.100381
0.106652
0.0846637
0.124463
0.0656389
0.146969
0.0418298
0.179902
0.018822
0.197436
0.19966
0.199929
0.00021366
0.199584
0.00366055
0.198987
0.00677607
0.198157
0.00959661
0.197113
0.0122274
0.195872
0.0147474
0.194431
0.0172195
0.192756
0.0196939
0.190853
0.0222089
0.188728
0.0247987
0.186369
0.0275019
0.183757
0.0303549
0.180866
0.033394
0.177674
0.0366606
0.174149
0.0402038
0.170237
0.044083
0.165889
0.0483663
0.161051
0.0531557
0.155628
0.0585787
0.149505
0.0647947
0.142526
0.0720349
0.134473
0.0805966
0.12508
0.0909441
0.113972
0.103719
0.100675
0.11976
0.0844464
0.140475
0.0650239
0.166155
0.0411562
0.203551
0.0183189
0.220156
0.217929
0.199925
0.000190481
0.199586
0.0039036
0.199003
0.00726951
0.198198
0.0103235
0.197189
0.0131757
0.195995
0.0159113
0.194599
0.0185969
0.192979
0.0212844
0.191145
0.0240152
0.189095
0.0268283
0.186816
0.0297663
0.184294
0.0328699
0.181499
0.0361807
0.1784
0.039745
0.174971
0.0436157
0.171163
0.047864
0.166918
0.0525745
0.162171
0.0578574
0.156831
0.0638633
0.150775
0.0707804
0.143836
0.0788854
0.135777
0.0885377
0.126339
0.100236
0.115123
0.114767
0.101602
0.133089
0.0849819
0.15688
0.0654058
0.185516
0.0418288
0.226952
0.0190518
0.242869
0.237
0.199922
0.000172674
0.199592
0.00413975
0.199024
0.00774473
0.198243
0.011022
0.197271
0.0140862
0.196124
0.0170266
0.194781
0.0199148
0.193227
0.0228052
0.191473
0.0257427
0.189509
0.0287715
0.187326
0.0319385
0.184901
0.035287
0.182204
0.0388599
0.179214
0.0427118
0.175899
0.0469049
0.172214
0.0515163
0.168098
0.0566469
0.163482
0.0624215
0.158272
0.069009
0.152347
0.0766273
0.145528
0.0856059
0.13758
0.096363
0.128208
0.109461
0.117044
0.125763
0.103505
0.146438
0.0869641
0.173217
0.0675961
0.204698
0.0446718
0.249746
0.0217194
0.265781
0.258771
0.199922
0.00015897
0.199602
0.00436868
0.19905
0.00820106
0.198292
0.0116896
0.197362
0.0149535
0.196273
0.0180881
0.194991
0.0211689
0.193508
0.0242519
0.191836
0.0273864
0.189964
0.0306223
0.187885
0.0340087
0.185564
0.0375912
0.182976
0.0414161
0.180115
0.0455436
0.176938
0.0500499
0.173401
0.055014
0.169449
0.0605504
0.165005
0.0668062
0.159982
0.0739622
0.154254
0.0822706
0.147659
0.0920972
0.139966
0.103928
0.130881
0.118397
0.120011
0.136466
0.106869
0.159397
0.0911342
0.188771
0.0725297
0.223151
0.0511546
0.271015
0.027921
0.288925
0.286677
0.199927
0.000147314
0.199621
0.00458977
0.199083
0.00863702
0.198351
0.0123225
0.197472
0.0157738
0.196442
0.0190923
0.195222
0.0223548
0.193813
0.0256197
0.192226
0.0289414
0.19045
0.0323731
0.188477
0.0359656
0.186276
0.0397682
0.183822
0.0438335
0.181108
0.0482235
0.178096
0.0530241
0.174739
0.0583269
0.170981
0.0642548
0.166762
0.070962
0.161994
0.0786547
0.156546
0.0876278
0.150288
0.0982464
0.143026
0.111059
0.134488
0.126786
0.124332
0.146459
0.11235
0.171212
0.098299
0.20267
0.081596
0.239736
0.063643
0.288869
0.0405896
0.31181
0.327159
0.199933
0.000134463
0.199641
0.00479815
0.199123
0.00904712
0.198428
0.0129168
0.197599
0.0165442
0.196621
0.0200354
0.195464
0.023468
0.194136
0.0269043
0.19264
0.0304026
0.190966
0.0340182
0.189102
0.0378049
0.187026
0.0418143
0.184721
0.0461032
0.182165
0.0507413
0.179329
0.0558182
0.17617
0.0614371
0.172637
0.0677295
0.168673
0.0748568
0.164199
0.0830483
0.159115
0.092615
0.153298
0.103949
0.146628
0.117598
0.138926
0.134341
0.130079
0.155152
0.120075
0.181067
0.108929
0.213693
0.0967317
0.251839
0.0868701
0.29863
0.0722621
0.326238
0.399255
0.00178003
-0.00202716
0.00446244
-0.00301254
0.00777637
-0.0037588
0.011736
-0.00435984
0.0161271
-0.00464082
0.0205454
-0.00454293
0.0246654
-0.0041795
0.0283615
-0.00372355
0.0316284
-0.00327044
0.034499
-0.00285207
0.0370197
-0.00248439
0.0392718
-0.00220354
0.0413107
-0.00198209
0.0430884
-0.0017272
0.0445679
-0.00144082
0.0458852
-0.00125617
0.0471828
-0.00120843
0.0484688
-0.00118925
0.0496913
-0.00111688
0.0508023
-0.00099646
0.0518158
-0.000890011
0.0528008
-0.000852801
0.0538365
-0.000895305
0.0549911
-0.00100644
0.0563356
-0.0011892
0.0579418
-0.00144447
0.0598904
-0.00178094
0.0622772
-0.00221397
0.0651818
-0.00272692
-0.00323941
0.00110306
-0.00341216
0.00362448
-0.00590093
0.00694343
-0.00752368
0.0108361
-0.00865179
0.0149896
-0.00905874
0.0190092
-0.00870373
0.0226524
-0.00789011
0.0258493
-0.00694839
0.02862
-0.00604122
0.0310042
-0.00521395
0.033035
-0.00447647
0.0348094
-0.00392811
0.0364219
-0.00353675
0.03782
-0.00306348
0.0388883
-0.00244924
0.0397222
-0.0020194
0.040481
-0.00187978
0.0412098
-0.00182165
0.0418807
-0.0016824
0.0424024
-0.00140366
0.0427104
-0.00107446
0.0428201
-0.000830335
0.0428093
-0.000744028
0.0427757
-0.00082474
0.0428413
-0.00109939
0.043163
-0.00160427
0.0439334
-0.0023836
0.0453843
-0.00349195
0.0477504
-0.00491515
-0.00663042
0.000754965
-0.00444823
0.00297789
-0.00856012
0.005941
-0.0109369
0.00918884
-0.0122923
0.0123916
-0.0125364
0.0152323
-0.0117018
0.017596
-0.0103298
0.0195013
-0.00888067
0.0209945
-0.00752835
0.0221089
-0.00629983
0.0228267
-0.00515153
0.0232573
-0.00430724
0.0235615
-0.00378247
0.023736
-0.00317219
0.0233756
-0.00201851
0.0221965
-0.000763922
0.0204775
-7.43092e-05
0.0185974
0.000154362
0.0169368
8.32904e-05
0.0156949
-4.74329e-05
0.0149138
-0.00017003
0.0145917
-0.000376077
0.0147021
-0.000714005
0.0152715
-0.00124598
0.0164064
-0.00207891
0.0181449
-0.00318078
0.0205089
-0.0045797
0.0235357
-0.00634557
0.0272241
-0.00842543
-0.010843
0.000728802
-0.00550517
0.00277195
-0.0110726
0.00531202
-0.0139033
0.00768067
-0.015027
0.00959119
-0.0147177
0.010868
-0.0131418
0.0115551
-0.0110947
0.0117601
-0.00910631
0.011569
-0.00732214
0.0110754
-0.00577044
0.0101803
-0.0042098
0.00842943
-0.00250363
0.00583089
-0.00112568
0.00304654
-0.000323543
0.000796522
0.000301574
-0.000690785
0.000800444
-0.00172002
0.001041
-0.00245639
0.000986099
-0.00297627
0.000707901
-0.00322108
0.000311412
-0.00313174
-0.000136214
-0.00268797
-0.000687895
-0.00182355
-0.00143812
-0.000455737
-0.00246563
0.00134537
-0.00372458
0.00360567
-0.00527899
0.00626737
-0.00707331
0.00923128
-0.00913614
0.0123439
-0.0113597
-0.0138931
0.000821336
-0.00652919
0.00271099
-0.013359
0.0046091
-0.0161542
0.00573699
-0.0164749
0.00592131
-0.0151558
0.00522784
-0.0126027
0.00384992
-0.00978272
0.00189471
-0.00715742
-0.000663615
-0.00473684
-0.00373188
-0.00265979
-0.00681969
-0.00107299
-0.00934325
7.30669e-05
-0.0111918
0.000780472
-0.0126182
0.00116599
-0.0137256
0.00147852
-0.0145093
0.00166115
-0.014994
0.00161139
-0.0152237
0.00131072
-0.0152249
0.000813367
-0.0149919
0.000192112
-0.0144825
-0.000522743
-0.0136565
-0.00138219
-0.0124986
-0.00245579
-0.0110624
-0.00375373
-0.00936209
-0.00526944
-0.00746465
-0.00701422
-0.00543022
-0.00893945
-0.00341703
-0.0109757
-0.00161517
-0.012983
-0.0148843
0.000951358
-0.00759805
0.0024688
-0.0151384
0.00327199
-0.0172173
0.00260423
-0.0160842
0.000450464
-0.0132294
-0.00271374
-0.00956509
-0.00634952
-0.00618566
-0.0101361
-0.00335658
-0.013616
-0.00121888
-0.0164813
0.000251819
-0.0187027
0.00119808
-0.0204172
0.00183996
-0.021805
0.00222479
-0.0229501
0.0023732
-0.0237772
0.00237433
-0.0242641
0.00222457
-0.0244503
0.00188286
-0.0243949
0.00134965
-0.024142
0.000664323
-0.0237021
-0.000134456
-0.0230515
-0.00105083
-0.0221793
-0.00212299
-0.0211171
-0.00337798
-0.0199033
-0.00481945
-0.0185725
-0.00644475
-0.0172029
-0.00822152
-0.0159046
-0.0100693
-0.0148187
-0.0118878
-0.0140562
-0.0135667
-0.0150597
0.00104577
-0.00862238
0.00168663
-0.015937
0.000658958
-0.0163967
-0.00254228
-0.0131339
-0.00700959
-0.00894947
-0.0118196
-0.00483531
-0.0162923
-0.00171594
-0.0199961
0.000380413
-0.022861
0.00169049
-0.0250945
0.00253259
-0.0269296
0.00308169
-0.0284259
0.00338717
-0.0296056
0.00345957
-0.0304975
0.00332603
-0.0310872
0.00303194
-0.0313781
0.00259131
-0.0314121
0.00200153
-0.031245
0.00127633
-0.030921
0.000443719
-0.0304487
-0.000493992
-0.0298418
-0.00153557
-0.029111
-0.0027226
-0.0282837
-0.00406555
-0.0273886
-0.00556665
-0.0264724
-0.00720543
-0.025611
-0.00892047
-0.0248981
-0.0106134
-0.024423
-0.0121888
-0.0242546
-0.0135561
-0.0146634
0.00086876
-0.00949695
-0.000123326
-0.0150513
-0.00368244
-0.0130445
-0.00910324
-0.00793647
-0.0149802
-0.00319861
-0.020063
0.000222992
-0.0239791
0.00222774
-0.026956
0.00340089
-0.0293544
0.00413476
-0.031348
0.00457162
-0.0329812
0.00476094
-0.0342742
0.00472899
-0.035253
0.00449196
-0.035945
0.00407776
-0.0363661
0.00351999
-0.0365403
0.00284063
-0.0365098
0.00205505
-0.0363224
0.00118219
-0.036014
0.000238113
-0.0356099
-0.000785833
-0.0351238
-0.00189987
-0.034583
-0.00313258
-0.0340076
-0.00450143
-0.0334245
-0.006002
-0.0328777
-0.00759673
-0.0324293
-0.00920626
-0.0321473
-0.0107264
-0.0320897
-0.0120721
-0.0323016
-0.0131652
-0.0139919
0.000121519
-0.00961142
-0.00314769
-0.0118709
-0.00921129
-0.00719469
-0.0160928
-0.00122265
-0.021828
0.00248506
-0.0260499
0.00446643
-0.0292816
0.00550273
-0.0319082
0.0060727
-0.0340691
0.00633865
-0.0358329
0.00637715
-0.0372423
0.00621347
-0.0383293
0.00586266
-0.0391261
0.00534083
-0.0396635
0.00467366
-0.0399692
0.00389173
-0.0400762
0.00302197
-0.0400254
0.00208746
-0.0398581
0.00110754
-0.0396082
9.04451e-05
-0.0393041
-0.000978181
-0.0389726
-0.00211002
-0.0386345
-0.00334022
-0.0383079
-0.00468881
-0.0380159
-0.00614648
-0.037793
-0.00766422
-0.0376838
-0.00915267
-0.037734
-0.0105069
-0.0379812
-0.0116501
-0.0384493
-0.0125182
-0.0131477
-0.00105628
-0.00853475
-0.00715037
-0.00590076
-0.0152089
0.000667502
-0.0217741
0.00525347
-0.0265432
0.00726314
-0.0301551
0.00812171
-0.0330196
0.00841187
-0.035337
0.00843051
-0.0372222
0.00826134
-0.0387353
0.00792789
-0.0399203
0.00743873
-0.0408152
0.00680228
-0.0414558
0.00603194
-0.0418744
0.00514952
-0.0421019
0.00418436
-0.0421733
0.00316691
-0.0421275
0.00212422
-0.0420032
0.00107523
-0.0418339
2.2835e-05
-0.0416532
-0.00104763
-0.0414852
-0.00215717
-0.0413512
-0.00334419
-0.0412665
-0.0046346
-0.0412465
-0.00601912
-0.0413127
-0.00744282
-0.0414917
-0.00881083
-0.0418109
-0.0100178
-0.0422939
-0.0109919
-0.0429503
-0.0116831
-0.0121685
-0.00322938
-0.00533397
-0.0119951
0.00267379
-0.0199651
0.00849012
-0.0256334
0.0109026
-0.0297616
0.0114268
-0.0328817
0.0112836
-0.0353467
0.0109138
-0.037329
0.0104454
-0.0389204
0.00988449
-0.0401786
0.00921993
-0.0411493
0.00844728
-0.0418731
0.00756915
-0.0423864
0.00659442
-0.0427201
0.0055394
-0.0429029
0.00443131
-0.0429668
0.00330362
-0.0429483
0.00218766
-0.0428856
0.0011039
-0.0428144
5.27179e-05
-0.0427674
-0.000983894
-0.0427694
-0.00203483
-0.0428402
-0.00314385
-0.0429916
-0.00434468
-0.04323
-0.00563378
-0.0435615
-0.00695618
-0.0439957
-0.00821385
-0.0445446
-0.00929876
-0.0452214
-0.0101393
-0.0460304
-0.0106955
-0.0110716
-0.00651196
0.00105982
-0.0161472
0.0121028
-0.0233495
0.0156157
-0.0282168
0.0157867
-0.0316905
0.0149337
-0.0343009
0.0139237
-0.0363271
0.0129669
-0.0379332
0.0120773
-0.0392134
0.011192
-0.0402207
0.0102581
-0.0409962
0.00925863
-0.0415788
0.00819342
-0.042002
0.00706591
-0.0422924
0.00588507
-0.0424711
0.00467336
-0.0425624
0.003467
-0.0425988
0.00230525
-0.0426185
0.00121444
-0.042661
0.000195684
-0.0427594
-0.000775276
-0.0429373
-0.00173717
-0.0432125
-0.00273958
-0.0435951
-0.00382406
-0.0440831
-0.00499915
-0.0446667
-0.00621788
-0.0453376
-0.00738039
-0.0460944
-0.00837179
-0.0469434
-0.00911444
-0.0478879
-0.00957244
-0.00986421
-0.00943203
0.0104058
-0.0193357
0.0218628
-0.025606
0.0218677
-0.0297009
0.0199026
-0.0325106
0.0177643
-0.0344794
0.0159115
-0.0359438
0.0144509
-0.0371152
0.0132702
-0.0380723
0.0121736
-0.0388409
0.0110555
-0.0394477
0.00989973
-0.0399297
0.0087159
-0.0403167
0.00750026
-0.0406231
0.00624606
-0.040855
0.00496802
-0.0410243
0.00370773
-0.0411559
0.00251747
-0.0412868
0.00143556
-0.041461
0.000469692
-0.0417173
-0.000409281
-0.042081
-0.0012543
-0.0425664
-0.00212563
-0.0431794
-0.00307346
-0.0439135
-0.00411901
-0.0447448
-0.00523235
-0.0456466
-0.00631647
-0.0466044
-0.00724436
-0.0476196
-0.00792384
-0.0486972
-0.00831647
-0.00854744
-0.0116358
0.0219837
-0.0216646
0.0318322
-0.0272272
0.0274365
-0.0305566
0.0232448
-0.0323774
0.0195958
-0.033353
0.0168988
-0.0340563
0.0151688
-0.0347509
0.0139831
-0.0353973
0.0128425
-0.0359403
0.0116258
-0.0363944
0.0103868
-0.0368116
0.00917253
-0.0372254
0.0079605
-0.0376286
0.00670319
-0.0379986
0.00540018
-0.0383257
0.00410569
-0.0386215
0.00289343
-0.0389167
0.00182035
-0.039255
0.000907278
-0.0396868
0.000131586
-0.0402496
-0.000572866
-0.0409618
-0.00128544
-0.0418226
-0.00207563
-0.042814
-0.00298214
-0.0438997
-0.00399303
-0.0450389
-0.00501595
-0.0462024
-0.00591219
-0.0473885
-0.00656319
-0.048606
-0.00692077
-0.00711952
-0.0129965
0.0350142
-0.0251736
0.0439463
-0.0298555
0.0321004
-0.0314677
0.0248517
-0.0314581
0.0195866
-0.0307828
0.0162284
-0.030425
0.0148211
-0.0306787
0.014252
-0.0310522
0.0132364
-0.0313418
0.0119412
-0.031594
0.010671
-0.0319348
0.00955186
-0.0324264
0.00849775
-0.0330212
0.00735143
-0.0336441
0.00608468
-0.0342498
0.00478178
-0.0348286
0.0035518
-0.0353943
0.00247514
-0.0359797
0.0015914
-0.0366351
0.000895408
-0.0374181
0.000328157
-0.0383748
-0.000201409
-0.0395219
-0.000792226
-0.0408228
-0.00153633
-0.0422074
-0.00245556
-0.0436065
-0.00345635
-0.0449917
-0.00435944
-0.0463642
-0.00501733
-0.0477373
-0.00536989
-0.00555783
0.20758
0.000126002
0.207283
0.00500101
0.206776
0.00944334
0.206101
0.0134914
0.205292
0.0172885
0.204336
0.020944
0.203216
0.0245389
0.201936
0.0281393
0.200493
0.0318061
0.198881
0.0355961
0.197089
0.0395646
0.1951
0.0437676
0.192899
0.0482659
0.190459
0.0531385
0.187759
0.0584705
0.18477
0.0643715
0.181449
0.0709856
0.177737
0.078492
0.173576
0.0871187
0.168921
0.0971644
0.163696
0.109051
0.157853
0.123303
0.151422
0.140624
0.144556
0.161869
0.13759
0.187899
0.131692
0.219481
0.129129
0.254306
0.137398
0.29024
0.156927
0.30654
0.298649
0.257542
0.212586
0.000120875
0.212292
0.00519201
0.211812
0.00981519
0.211176
0.0140315
0.210406
0.0179883
0.209496
0.0217983
0.208437
0.0255458
0.207228
0.0292993
0.205869
0.0331214
0.204354
0.0370717
0.202673
0.0412073
0.200814
0.0455871
0.19876
0.0502777
0.196491
0.0553596
0.193992
0.0609167
0.191238
0.0670646
0.188199
0.0739524
0.184846
0.0817612
0.181158
0.090709
0.177124
0.101086
0.172743
0.113306
0.168104
0.127804
0.163445
0.145139
0.159242
0.165931
0.156617
0.190402
0.158037
0.217962
0.167449
0.244792
0.193273
0.264282
0.234093
0.265572
0.261196
0.271445
0.217716
0.00011843
0.21743
0.00536891
0.216977
0.0101597
0.216381
0.014532
0.215659
0.0186367
0.214804
0.0225903
0.213815
0.0264775
0.212692
0.0303694
0.211434
0.0343318
0.210035
0.0384259
0.208487
0.0427121
0.206782
0.0472478
0.204909
0.0521033
0.202854
0.0573619
0.200605
0.0631065
0.198149
0.0694532
0.195475
0.0765476
0.192594
0.0845519
0.189525
0.0936747
0.186287
0.104208
0.182997
0.116468
0.179907
0.130757
0.177448
0.147456
0.17654
0.166703
0.178798
0.188027
0.18686
0.209812
0.203664
0.227888
0.230725
0.237097
0.260099
0.236092
0.23129
0.289952
0.222975
0.000116107
0.222699
0.00552895
0.222275
0.010474
0.22172
0.0149891
0.22105
0.0192277
0.220262
0.0233095
0.219356
0.0273209
0.218333
0.0313355
0.217191
0.0354222
0.215926
0.0396411
0.214536
0.0440542
0.213013
0.0487213
0.211351
0.0537124
0.209545
0.0591088
0.207596
0.0649905
0.205504
0.0714706
0.203285
0.0786819
0.200977
0.0867652
0.198625
0.0959206
0.196328
0.106388
0.194338
0.118331
0.193014
0.131948
0.192994
0.147339
0.195345
0.164211
0.2016
0.181657
0.213729
0.197612
0.232613
0.208911
0.256261
0.213334
0.28086
0.211412
0.204114
0.307995
0.228363
0.000113911
0.228097
0.00567181
0.227703
0.0107539
0.227196
0.0153958
0.226586
0.019752
0.225876
0.023945
0.225066
0.0280643
0.224156
0.0321841
0.223147
0.0363746
0.222037
0.0406969
0.220826
0.0452119
0.21951
0.0499812
0.218092
0.0550721
0.216576
0.0605596
0.214976
0.0665203
0.21331
0.0730574
0.211616
0.0802865
0.209956
0.0883276
0.208423
0.0973457
0.207217
0.107478
0.206633
0.11879
0.207127
0.131327
0.209389
0.144945
0.214366
0.159091
0.223322
0.172593
0.237218
0.183662
0.255432
0.190606
0.275795
0.192866
0.296434
0.190705
0.183133
0.317377
0.233881
0.000113082
0.233626
0.00579571
0.233267
0.0109938
0.232813
0.0157442
0.232273
0.0202014
0.231651
0.0244879
0.230948
0.0286954
0.230166
0.0329003
0.229306
0.0371731
0.228368
0.0415748
0.227356
0.0461644
0.226276
0.0510006
0.225134
0.0561491
0.223948
0.0616757
0.222742
0.0676504
0.221554
0.0741632
0.220442
0.0813068
0.219497
0.0891733
0.218875
0.0978607
0.218802
0.107437
0.219606
0.117868
0.221759
0.129053
0.225885
0.140694
0.23279
0.152057
0.243205
0.162088
0.257145
0.169666
0.273584
0.174085
0.291047
0.175316
0.308356
0.173338
0.166181
0.325274
0.239537
0.000111308
0.239295
0.00589791
0.238971
0.0111907
0.238575
0.0160293
0.238113
0.0205675
0.237589
0.024927
0.237007
0.0292018
0.236364
0.0334718
0.235667
0.0378032
0.234921
0.0422561
0.234131
0.046889
0.233311
0.0517539
0.232476
0.0569134
0.231655
0.0624223
0.230882
0.0683446
0.230212
0.0747486
0.229723
0.0817027
0.229536
0.0892593
0.229824
0.097467
0.230834
0.106319
0.232902
0.115688
0.236445
0.125396
0.242011
0.135014
0.250094
0.143862
0.260871
0.151228
0.273961
0.156512
0.288531
0.159445
0.303707
0.160075
0.31872
0.158276
0.151758
0.333111
0.245331
0.000106212
0.245102
0.00597729
0.244817
0.0113418
0.244485
0.0162444
0.244111
0.0208408
0.243696
0.0252518
0.243242
0.0295735
0.242753
0.033885
0.242234
0.0382491
0.241694
0.0427259
0.241146
0.0473659
0.24061
0.0522178
0.240108
0.0573409
0.239676
0.0627773
0.239363
0.068577
0.239231
0.0747931
0.239377
0.0814614
0.239939
0.0885969
0.241097
0.0962075
0.243109
0.104203
0.246256
0.112434
0.250903
0.12064
0.257421
0.128389
0.265977
0.135206
0.276472
0.140651
0.288491
0.144428
0.301459
0.146417
0.314859
0.146622
0.328159
0.144932
0.139171
0.340717
0.251258
0.000100595
0.251049
0.00602852
0.25081
0.0114399
0.250551
0.0163823
0.25027
0.0210147
0.249971
0.0254556
0.249656
0.0298008
0.249331
0.0341279
0.249004
0.0384974
0.248688
0.0429656
0.248402
0.0475764
0.248167
0.052377
0.248014
0.0574159
0.247986
0.0627251
0.248142
0.0683387
0.248553
0.0742928
0.249328
0.0805896
0.25061
0.0872175
0.252588
0.0941334
0.25546
0.10123
0.259466
0.108324
0.264894
0.115109
0.271901
0.121282
0.280472
0.126544
0.29042
0.130627
0.301422
0.133365
0.313086
0.134699
0.32505
0.134613
0.33693
0.133013
0.127978
0.348097
0.257326
9.54191e-05
0.257143
0.00604597
0.256957
0.0114799
0.256772
0.0164397
0.25659
0.0210842
0.256413
0.025531
0.256246
0.0298751
0.256097
0.0341898
0.255976
0.0385337
0.255901
0.04296
0.255888
0.047509
0.255965
0.0522197
0.256175
0.0571259
0.256562
0.0622559
0.257188
0.0676283
0.258138
0.0732519
0.259518
0.079116
0.261469
0.0851735
0.264145
0.091364
0.267704
0.0975729
0.272366
0.103563
0.27827
0.109107
0.285432
0.114029
0.29377
0.118124
0.303111
0.121217
0.313213
0.123205
0.323797
0.124066
0.334593
0.123775
0.345298
0.122274
0.117885
0.355368
0.263546
8.65151e-05
0.263387
0.00603104
0.263254
0.0114601
0.263148
0.0164119
0.263072
0.0210425
0.263026
0.0254701
0.263016
0.0297858
0.263053
0.0340599
0.263147
0.0383501
0.263317
0.0427039
0.263587
0.0471549
0.263989
0.0517345
0.264567
0.0564661
0.265368
0.0613713
0.266459
0.0664512
0.267919
0.0717023
0.269852
0.077093
0.272381
0.0825541
0.275626
0.0880259
0.279746
0.0933563
0.28486
0.0983536
0.290983
0.102893
0.29809
0.106839
0.306098
0.110042
0.314864
0.112389
0.324184
0.113833
0.333855
0.114349
0.343687
0.113905
0.353422
0.112508
0.108688
0.362597
0.269916
7.45165e-05
0.26978
0.00598303
0.269705
0.0113764
0.269685
0.0162925
0.269719
0.0208836
0.269811
0.0252657
0.269967
0.029526
0.270194
0.0337336
0.270508
0.0379421
0.27093
0.0421912
0.271488
0.0465094
0.272216
0.0509207
0.273155
0.0554435
0.274357
0.0600849
0.275885
0.0648377
0.277812
0.0696875
0.280241
0.0745764
0.283262
0.0794432
0.286988
0.0842076
0.291518
0.0887327
0.296873
0.0929097
0.303045
0.0966381
0.310002
0.0998066
0.317661
0.102316
0.325895
0.104098
0.334547
0.105132
0.34346
0.105394
0.352474
0.104856
0.361392
0.103561
0.100231
0.369829
0.276439
6.01038e-05
0.27633
0.0058987
0.276314
0.011226
0.276384
0.0160775
0.276536
0.0206025
0.27677
0.0249135
0.277092
0.029094
0.277514
0.0332081
0.278052
0.0373045
0.278729
0.0414187
0.279575
0.0455736
0.280621
0.0497871
0.281909
0.0540705
0.283492
0.058417
0.285424
0.0628203
0.287781
0.0672454
0.29064
0.0716304
0.294074
0.0759192
0.298163
0.0800276
0.302938
0.08387
0.308401
0.0873647
0.314538
0.0904245
0.321306
0.0929702
0.328624
0.0949382
0.336375
0.0962941
0.344446
0.0970167
0.352723
0.0970782
0.361053
0.0964922
0.36928
0.0953076
0.0923963
0.377096
0.283121
4.24523e-05
0.28304
0.00577687
0.283085
0.0110071
0.283247
0.0157645
0.283519
0.0201957
0.283899
0.0244105
0.28439
0.0284878
0.285008
0.0324819
0.285769
0.0364372
0.286702
0.0403873
0.287832
0.0443509
0.289188
0.0483433
0.290812
0.0523613
0.292746
0.0563976
0.295045
0.0604362
0.297778
0.0644274
0.300997
0.0683248
0.304754
0.0720736
0.309086
0.0756099
0.314002
0.0788723
0.3195
0.0817904
0.325555
0.0842993
0.33212
0.0863431
0.339111
0.0878918
0.346432
0.0889246
0.354005
0.0894012
0.361732
0.0893152
0.369479
0.0887145
0.377127
0.087635
0.0850872
0.384419
0.289963
2.20273e-05
0.289911
0.00561586
0.29002
0.0107178
0.290277
0.015353
0.29067
0.0196628
0.291195
0.0237561
0.291857
0.027705
0.292671
0.0315541
0.293656
0.0353425
0.294839
0.0391024
0.296242
0.0428532
0.297894
0.0466039
0.299828
0.0503428
0.302079
0.0540594
0.304706
0.0577224
0.307758
0.0612895
0.311267
0.0647308
0.315258
0.0679974
0.319748
0.0710385
0.324743
0.0738016
0.330228
0.0762346
0.336172
0.078291
0.342525
0.0799334
0.349213
0.081153
0.356165
0.0819272
0.363314
0.0822128
0.370563
0.0820332
0.377809
0.0814409
0.384964
0.0804565
0.0782254
0.391811
0.296973
-3.87012e-06
0.296947
0.00541691
0.297122
0.0103582
0.297475
0.0148429
0.297987
0.0190064
0.298654
0.0229517
0.299488
0.026744
0.300502
0.0304225
0.301708
0.034025
0.30313
0.0375773
0.304786
0.0411003
0.306705
0.0445943
0.308921
0.0480404
0.311466
0.0514258
0.314382
0.0547192
0.317693
0.0578934
0.32142
0.0609209
0.325578
0.0637592
0.330174
0.0663663
0.335203
0.0687019
0.340644
0.0707282
0.346463
0.0724129
0.352606
0.0737384
0.359018
0.0746939
0.365652
0.075252
0.372428
0.0754002
0.379261
0.0751692
0.38608
0.0745964
0.392816
0.0737
0.0717463
0.399282
0.304148
-3.41003e-05
0.304148
0.00518005
0.304389
0.00992888
0.304841
0.0142344
0.305474
0.0182261
0.306283
0.0219974
0.307288
0.0256067
0.308495
0.0290945
0.30991
0.0324956
0.311553
0.035829
0.313444
0.0391102
0.315613
0.0423315
0.318087
0.0454757
0.32089
0.0485341
0.324041
0.0514823
0.327555
0.0542962
0.331449
0.0569478
0.335728
0.0594043
0.340391
0.061633
0.345423
0.0636035
0.350802
0.065289
0.356487
0.0666734
0.362431
0.0677453
0.368601
0.0684813
0.374947
0.068868
0.381394
0.0689203
0.387873
0.0686623
0.394328
0.0681179
0.400705
0.0673045
0.0655959
0.406844
0.311491
-6.7167e-05
0.311515
0.00490575
0.311823
0.00943079
0.312378
0.0135284
0.313136
0.0173192
0.314089
0.020894
0.315255
0.024303
0.316638
0.0275857
0.318245
0.0307703
0.320096
0.0338689
0.32221
0.036893
0.32461
0.0398347
0.327309
0.0426846
0.330322
0.0454327
0.333663
0.0480578
0.337341
0.050538
0.341363
0.0528497
0.345728
0.0549678
0.350427
0.0568675
0.355443
0.0585268
0.360744
0.0599326
0.366292
0.0610748
0.372062
0.0619298
0.37802
0.0624833
0.384107
0.0627464
0.390263
0.062735
0.396437
0.0624641
0.402581
0.0619535
0.408651
0.0612187
0.059728
0.414509
0.319004
-0.000101487
0.319048
0.00459215
0.319428
0.00886417
0.320097
0.0127265
0.32098
0.0162912
0.322066
0.0196491
0.323377
0.0228449
0.324921
0.0259083
0.326708
0.0288592
0.328755
0.0317087
0.331073
0.0344693
0.333673
0.037137
0.336562
0.0397034
0.339751
0.042156
0.343249
0.0444782
0.347058
0.0466516
0.351178
0.0486575
0.355601
0.0504766
0.360316
0.0520911
0.365295
0.0534905
0.37051
0.0546668
0.37594
0.055598
0.38156
0.0562681
0.387322
0.056685
0.393177
0.0568608
0.39908
0.0568055
0.40499
0.0565326
0.410867
0.0560592
0.416674
0.055399
0.0541027
0.422292
0.326696
-0.000132997
0.326748
0.00423606
0.327205
0.00822333
0.328015
0.0118315
0.329012
0.0151566
0.330198
0.018279
0.331642
0.021241
0.33334
0.0240672
0.335299
0.0267722
0.337521
0.0293691
0.340015
0.0318682
0.342786