/*--------------------------------*- C++ -*----------------------------------*\
| =========                 |                                                 |
| \\      /  F ield         | OpenFOAM: The Open Source CFD Toolbox           |
|  \\    /   O peration     | Version:  4.1                                   |
|   \\  /    A nd           | Web:      www.OpenFOAM.org                      |
|    \\/     M anipulation  |                                                 |
\*---------------------------------------------------------------------------*/
FoamFile
{
    version     2.0;
    format      ascii;
    class       pointVectorField;
    location    "1.7";
    object      pointDisplacement;
}
// * * * * * * * * * * * * * * * * * * * * * * * * * * * * * * * * * * * * * //

dimensions      [0 1 0 0 0 0 0];

internalField   nonuniform List<vector> 
5828
(
(0 0 0)
(0.02728 0 0)
(0.0513003 0 0)
(0.07136 0 0)
(0.0878752 0 0)
(0.101246 0 0)
(0.111821 0 0)
(0.119905 0 0)
(0.125761 0 0)
(0.129618 0 0)
(0.131683 0 0)
(0.132138 0 0)
(0.131143 0 0)
(0.12884 0 0)
(0.125358 0 0)
(0.120814 0 0)
(0.115316 0 0)
(0.108968 0 0)
(0.101868 0 0)
(0.0941133 0 0)
(0.0857996 0 0)
(0.0770257 0 0)
(0.0678948 0 0)
(0.0585197 0 0)
(0.0490296 0 0)
(0.0395791 0 0)
(0.0303746 0 0)
(0.0217364 0 0)
(0.0141897 0 0)
(0.00884302 0 0)
(-2.18575e-15 0 0)
(0 0 0)
(0.0273004 0.000118481 0)
(0.0513438 0.000227556 0)
(0.0714263 0.000327018 0)
(0.0879648 0.000420337 0)
(0.10136 0.000510218 0)
(0.111961 0.000598749 0)
(0.120074 0.00068763 0)
(0.125961 0.000778458 0)
(0.129851 0.000872325 0)
(0.131952 0.00097029 0)
(0.132449 0.00107363 0)
(0.1315 0.00118332 0)
(0.129248 0.00130039 0)
(0.125823 0.00142587 0)
(0.121342 0.00156088 0)
(0.115917 0.00170664 0)
(0.109649 0.00186454 0)
(0.10264 0.00203628 0)
(0.0949883 0.00222397 0)
(0.0867932 0.00243004 0)
(0.0781568 0.00265725 0)
(0.0691873 0.00290916 0)
(0.060005 0.00319055 0)
(0.050751 0.00350804 0)
(0.0415939 0.00386977 0)
(0.0327484 0.00428759 0)
(0.0245477 0.0047841 0)
(0.0175854 0.00540181 0)
(0.0130939 0.0061665 0)
(0.0060689 0.00696204 0)
(0 0 0)
(0.0273745 0.000236857 0)
(0.0514866 0.000454924 0)
(0.0716356 0.000653787 0)
(0.0882425 0.000840391 0)
(0.101709 0.00102014 0)
(0.112388 0.00119718 0)
(0.120584 0.00137482 0)
(0.126561 0.00155537 0)
(0.13055 0.00174188 0)
(0.132763 0.00193734 0)
(0.133383 0.00214353 0)
(0.132571 0.00236235 0)
(0.130471 0.00259583 0)
(0.127216 0.00284605 0)
(0.122927 0.0031152 0)
(0.117715 0.00340568 0)
(0.111688 0.00372022 0)
(0.104949 0.00406205 0)
(0.0976042 0.00443554 0)
(0.0897615 0.00484562 0)
(0.0815323 0.00529757 0)
(0.0730374 0.00579838 0)
(0.0644147 0.00635777 0)
(0.0558409 0.00699121 0)
(0.047534 0.00771654 0)
(0.039765 0.00855361 0)
(0.0329117 0.00952879 0)
(0.0276324 0.0106892 0)
(0.0254256 0.0120579 0)
(0.0203532 0.0133451 0)
(0 0 0)
(0.0274991 0.000354415 0)
(0.0517248 0.000680683 0)
(0.0719839 0.000978184 0)
(0.0887042 0.00125734 0)
(0.10229 0.00152619 0)
(0.113095 0.00179098 0)
(0.121428 0.00205659 0)
(0.127555 0.0023267 0)
(0.131713 0.00260578 0)
(0.134111 0.00289802 0)
(0.134935 0.00320609 0)
(0.13435 0.00353291 0)
(0.132504 0.00388152 0)
(0.129531 0.00425499 0)
(0.125558 0.00465657 0)
(0.120701 0.00508976 0)
(0.115074 0.00555847 0)
(0.108784 0.00606705 0)
(0.101948 0.00662252 0)
(0.094691 0.00723252 0)
(0.087139 0.00790411 0)
(0.0794335 0.0086472 0)
(0.0717364 0.00947607 0)
(0.0642593 0.0104106 0)
(0.0572884 0.0114733 0)
(0.0512259 0.0126939 0)
(0.0465964 0.0141015 0)
(0.0440734 0.015717 0)
(0.0452117 0.0175105 0)
(0.0428294 0.0190141 0)
(0 0 0)
(0.0276731 0.000470566 0)
(0.0520556 0.000903531 0)
(0.0724667 0.00129828 0)
(0.0893446 0.00166864 0)
(0.103096 0.00202523 0)
(0.114077 0.00237632 0)
(0.122601 0.0027285 0)
(0.128938 0.00308724 0)
(0.133327 0.00345786 0)
(0.135981 0.00384518 0)
(0.137089 0.00425313 0)
(0.136818 0.00468568 0)
(0.135322 0.00514687 0)
(0.132742 0.0056408 0)
(0.129208 0.0061717 0)
(0.124844 0.00674421 0)
(0.119775 0.00736352 0)
(0.114116 0.00803565 0)
(0.107991 0.00876901 0)
(0.101546 0.00957269 0)
(0.094932 0.0104559 0)
(0.0883166 0.0114309 0)
(0.0819105 0.0125165 0)
(0.0759689 0.0137305 0)
(0.0708247 0.0150933 0)
(0.0669867 0.0166379 0)
(0.0652315 0.018396 0)
(0.0664337 0.0203718 0)
(0.0718404 0.0224445 0)
(0.0724354 0.0239522 0)
(0 0 0)
(0.027885 0.000584953 0)
(0.0524709 0.00112305 0)
(0.073081 0.00161366 0)
(0.0901608 0.0020738 0)
(0.104123 0.00251667 0)
(0.115329 0.00295252 0)
(0.124096 0.00338963 0)
(0.1307 0.00383499 0)
(0.135385 0.0042949 0)
(0.138364 0.00477496 0)
(0.139832 0.00528015 0)
(0.139961 0.00581538 0)
(0.13891 0.00638575 0)
(0.136828 0.00699638 0)
(0.133852 0.00765239 0)
(0.130116 0.00835954 0)
(0.125754 0.00912468 0)
(0.120901 0.00995596 0)
(0.115687 0.0108606 0)
(0.110276 0.0118486 0)
(0.104857 0.0129323 0)
(0.099623 0.0141255 0)
(0.0948335 0.0154473 0)
(0.0908186 0.016914 0)
(0.0880083 0.0185462 0)
(0.0869562 0.0203653 0)
(0.0885776 0.0223909 0)
(0.0941299 0.0246221 0)
(0.104534 0.026874 0)
(0.108174 0.0283455 0)
(0 0 0)
(0.0281336 0.000697272 0)
(0.052969 0.0013389 0)
(0.0738237 0.00192385 0)
(0.0911486 0.00247222 0)
(0.105366 0.00299976 0)
(0.116845 0.00351867 0)
(0.125907 0.00403881 0)
(0.132834 0.00456861 0)
(0.137875 0.00511539 0)
(0.141247 0.00568554 0)
(0.14315 0.00628489 0)
(0.143761 0.00691921 0)
(0.143247 0.00759472 0)
(0.141766 0.00831751 0)
(0.139464 0.00909339 0)
(0.136481 0.00992889 0)
(0.132968 0.0108327 0)
(0.129081 0.011814 0)
(0.124968 0.0128803 0)
(0.120809 0.0140426 0)
(0.116829 0.0153143 0)
(0.113269 0.0167097 0)
(0.110421 0.0182447 0)
(0.108683 0.0199345 0)
(0.108603 0.021799 0)
(0.110874 0.0238504 0)
(0.116422 0.0260859 0)
(0.126791 0.0284904 0)
(0.142716 0.0308565 0)
(0.149603 0.032361 0)
(0 0 0)
(0.028427 0.00080702 0)
(0.0535508 0.00154979 0)
(0.0746883 0.00222681 0)
(0.0922984 0.00286122 0)
(0.106813 0.00347117 0)
(0.118609 0.00407075 0)
(0.128013 0.00467127 0)
(0.135316 0.00528259 0)
(0.14077 0.00591307 0)
(0.144598 0.00656978 0)
(0.147005 0.00725934 0)
(0.148175 0.00798812 0)
(0.148285 0.00876371 0)
(0.147502 0.00959327 0)
(0.145984 0.010483 0)
(0.143883 0.0114407 0)
(0.141361 0.0124756 0)
(0.138594 0.013597 0)
(0.135758 0.0148142 0)
(0.133059 0.0161388 0)
(0.130749 0.017583 0)
(0.12912 0.0191611 0)
(0.128526 0.0208866 0)
(0.129439 0.0227734 0)
(0.132468 0.0248335 0)
(0.138473 0.0270723 0)
(0.148513 0.0294747 0)
(0.164221 0.0320003 0)
(0.185991 0.0344163 0)
(0.196249 0.0359544 0)
(0 0 0)
(0.0287615 0.00091357 0)
(0.0542104 0.00175442 0)
(0.0756665 0.00252066 0)
(0.0935991 0.00323832 0)
(0.10845 0.00392787 0)
(0.120603 0.00460513 0)
(0.130394 0.00528273 0)
(0.138121 0.00597202 0)
(0.144041 0.00668243 0)
(0.148385 0.0074216 0)
(0.151362 0.00819691 0)
(0.153168 0.00901579 0)
(0.153986 0.00988666 0)
(0.153993 0.0108169 0)
(0.153361 0.011814 0)
(0.152263 0.0128868 0)
(0.150866 0.0140437 0)
(0.149363 0.015294 0)
(0.147971 0.0166496 0)
(0.146922 0.0181215 0)
(0.146499 0.0197207 0)
(0.147053 0.0214607 0)
(0.149002 0.023354 0)
(0.152896 0.0254108 0)
(0.159451 0.0276363 0)
(0.169609 0.0300242 0)
(0.184667 0.032554 0)
(0.20616 0.035146 0)
(0.233862 0.0375284 0)
(0.247497 0.0389934 0)
(0 0 0)
(0.0291335 0.00101653 0)
(0.0549423 0.0019521 0)
(0.0767512 0.0028044 0)
(0.0950415 0.00360227 0)
(0.110265 0.00436834 0)
(0.122815 0.00512011 0)
(0.133037 0.00587185 0)
(0.141236 0.00663601 0)
(0.147675 0.00742247 0)
(0.152588 0.00823973 0)
(0.156199 0.0090962 0)
(0.158712 0.0100006 0)
(0.160317 0.0109609 0)
(0.161194 0.0119842 0)
(0.161537 0.0130798 0)
(0.161542 0.0142573 0)
(0.161388 0.0155248 0)
(0.161292 0.0168927 0)
(0.161499 0.0183727 0)
(0.162276 0.0199753 0)
(0.163945 0.0217109 0)
(0.16691 0.023592 0)
(0.171679 0.0256295 0)
(0.178869 0.0278288 0)
(0.189312 0.0301898 0)
(0.204052 0.0326958 0)
(0.224566 0.0353119 0)
(0.25211 0.0379105 0)
(0.285695 0.0401847 0)
(0.302469 0.041513 0)
(0 0 0)
(0.0295405 0.00111577 0)
(0.0557425 0.00214256 0)
(0.0779373 0.00307772 0)
(0.096619 0.00395265 0)
(0.112251 0.00479209 0)
(0.125236 0.00561523 0)
(0.135932 0.00643821 0)
(0.144648 0.00727375 0)
(0.151649 0.00813175 0)
(0.157184 0.00902216 0)
(0.161482 0.00995422 0)
(0.164756 0.0109368 0)
(0.167209 0.0119782 0)
(0.169037 0.0130867 0)
(0.170443 0.014272 0)
(0.171637 0.0155433 0)
(0.172831 0.0169096 0)
(0.174264 0.0183816 0)
(0.176206 0.0199701 0)
(0.178965 0.0216851 0)
(0.182916 0.0235369 0)
(0.188507 0.0255361 0)
(0.196325 0.0276918 0)
(0.207102 0.0300059 0)
(0.221756 0.0324709 0)
(0.241476 0.0350637 0)
(0.267738 0.0377237 0)
(0.301425 0.0402777 0)
(0.340807 0.0423968 0)
(0.360663 0.0436706 0)
(0 0 0)
(0.0299798 0.00121115 0)
(0.0566065 0.00232556 0)
(0.0792183 0.00334022 0)
(0.0983233 0.00428896 0)
(0.114396 0.0051984 0)
(0.127852 0.00608936 0)
(0.139056 0.0069792 0)
(0.148322 0.00788103 0)
(0.155923 0.00880532 0)
(0.162121 0.00976329 0)
(0.167154 0.0107647 0)
(0.171243 0.0118183 0)
(0.174605 0.0129335 0)
(0.177455 0.0141195 0)
(0.179999 0.0153847 0)
(0.182461 0.0167376 0)
(0.18509 0.0181891 0)
(0.188149 0.0197494 0)
(0.191938 0.0214282 0)
(0.196804 0.0232352 0)
(0.20318 0.02518 0)
(0.211589 0.0272719 0)
(0.222663 0.0295164 0)
(0.237251 0.0319129 0)
(0.256394 0.0344482 0)
(0.281423 0.0370909 0)
(0.313578 0.0397479 0)
(0.353395 0.0422137 0)
(0.398421 0.0441335 0)
(0.421611 0.0454158 0)
(0 0 0)
(0.030447 0.00130208 0)
(0.0575252 0.00249999 0)
(0.0805816 0.00359033 0)
(0.100138 0.00460915 0)
(0.116679 0.00558472 0)
(0.130633 0.00653922 0)
(0.142373 0.00749098 0)
(0.15222 0.00845397 0)
(0.16046 0.00943974 0)
(0.167364 0.0104601 0)
(0.173176 0.0115247 0)
(0.178132 0.012643 0)
(0.182453 0.0138241 0)
(0.186368 0.0150767 0)
(0.190106 0.0164098 0)
(0.193904 0.0178321 0)
(0.198038 0.0193542 0)
(0.202796 0.0209853 0)
(0.208512 0.0227341 0)
(0.215572 0.0246097 0)
(0.224475 0.0266209 0)
(0.235814 0.0287748 0)
(0.250299 0.0310732 0)
(0.268847 0.0335116 0)
(0.292662 0.0360731 0)
(0.323096 0.0387116 0)
(0.361139 0.0413075 0)
(0.407025 0.0436358 0)
(0.457445 0.0452721 0)
(0.484634 0.0466901 0)
(0 0 0)
(0.0309374 0.00138805 0)
(0.0584898 0.00266481 0)
(0.0820145 0.00382661 0)
(0.102046 0.00491143 0)
(0.119079 0.00594897 0)
(0.133557 0.00696292 0)
(0.145864 0.00797257 0)
(0.156326 0.00899234 0)
(0.16524 0.0100349 0)
(0.172885 0.0111119 0)
(0.179506 0.0122324 0)
(0.185356 0.0134067 0)
(0.190673 0.0146439 0)
(0.195692 0.0159528 0)
(0.200669 0.0173425 0)
(0.205852 0.0188205 0)
(0.211531 0.0203964 0)
(0.218036 0.0220792 0)
(0.225725 0.0238755 0)
(0.235033 0.0257937 0)
(0.246506 0.0278409 0)
(0.260806 0.0300193 0)
(0.278724 0.0323267 0)
(0.301275 0.0347536 0)
(0.329743 0.0372745 0)
(0.36537 0.0398233 0)
(0.409085 0.0422654 0)
(0.46072 0.0443569 0)
(0.516094 0.0455157 0)
(0.54911 0.0474744 0)
(0 0 0)
(0.0314476 0.00146883 0)
(0.0594943 0.00281978 0)
(0.0835109 0.00404892 0)
(0.104041 0.00519571 0)
(0.121591 0.00629122 0)
(0.136619 0.00736076 0)
(0.149517 0.00842386 0)
(0.160616 0.00949527 0)
(0.170224 0.0105883 0)
(0.178626 0.0117145 0)
(0.186083 0.0128837 0)
(0.192856 0.014106 0)
(0.199198 0.0153905 0)
(0.205349 0.016745 0)
(0.211579 0.0181778 0)
(0.218164 0.0196961 0)
(0.225419 0.0213091 0)
(0.233686 0.0230232 0)
(0.243353 0.0248428 0)
(0.254914 0.0267747 0)
(0.268937 0.0288219 0)
(0.286134 0.0309808 0)
(0.307378 0.0332414 0)
(0.333756 0.0355837 0)
(0.366481 0.0379612 0)
(0.406735 0.0402792 0)
(0.455423 0.042369 0)
(0.511789 0.0439339 0)
(0.571151 0.0441171 0)
(0.614294 0.0477979 0)
(0 0 0)
(0.0319852 0.00154528 0)
(0.0605533 0.00296656 0)
(0.0850829 0.00425923 0)
(0.106132 0.00546412 0)
(0.124223 0.00661381 0)
(0.139823 0.00773449 0)
(0.153328 0.00884587 0)
(0.165084 0.0099635 0)
(0.175409 0.0111013 0)
(0.184598 0.0122709 0)
(0.192925 0.0134825 0)
(0.200648 0.014745 0)
(0.208026 0.0160662 0)
(0.215322 0.0174543 0)
(0.222821 0.018917 0)
(0.23082 0.0204609 0)
(0.239651 0.0220926 0)
(0.249669 0.0238156 0)
(0.261299 0.0256327 0)
(0.27506 0.0275464 0)
(0.29155 0.0295526 0)
(0.311493 0.0316397 0)
(0.335792 0.0337844 0)
(0.365493 0.0359432 0)
(0.401684 0.0380297 0)
(0.445427 0.0398818 0)
(0.497109 0.041183 0)
(0.554744 0.0412859 0)
(0.612325 0.0385783 0)
(0.679579 0.0478762 0)
(0 0 0)
(0.02728 0 0)
(0.0513003 0 0)
(0.07136 0 0)
(0.0878752 0 0)
(0.101246 0 0)
(0.111821 0 0)
(0.119905 0 0)
(0.125761 0 0)
(0.129618 0 0)
(0.131683 0 0)
(0.132138 0 0)
(0.131143 0 0)
(0.12884 0 0)
(0.125358 0 0)
(0.120814 0 0)
(0.115316 0 0)
(0.108968 0 0)
(0.101868 0 0)
(0.0941133 0 0)
(0.0857996 0 0)
(0.0770257 0 0)
(0.0678948 0 0)
(0.0585197 0 0)
(0.0490296 0 0)
(0.0395791 0 0)
(0.0303746 0 0)
(0.0217364 0 0)
(0.0141897 0 0)
(0.00884302 0 0)
(1.38778e-17 0 0)
(0 0 0)
(0.0273004 0.000118481 0)
(0.0513438 0.000227556 0)
(0.0714263 0.000327018 0)
(0.0879648 0.000420337 0)
(0.10136 0.000510218 0)
(0.111961 0.000598749 0)
(0.120074 0.00068763 0)
(0.125961 0.000778458 0)
(0.129851 0.000872325 0)
(0.131952 0.00097029 0)
(0.132449 0.00107363 0)
(0.1315 0.00118332 0)
(0.129248 0.00130039 0)
(0.125823 0.00142587 0)
(0.121342 0.00156088 0)
(0.115917 0.00170664 0)
(0.109649 0.00186454 0)
(0.10264 0.00203628 0)
(0.0949883 0.00222397 0)
(0.0867932 0.00243004 0)
(0.0781568 0.00265725 0)
(0.0691873 0.00290916 0)
(0.060005 0.00319055 0)
(0.050751 0.00350804 0)
(0.0415939 0.00386977 0)
(0.0327484 0.00428759 0)
(0.0245477 0.0047841 0)
(0.0175854 0.00540181 0)
(0.0130939 0.0061665 0)
(0.0060689 0.00696204 0)
(0 0 0)
(0.0273745 0.000236857 0)
(0.0514866 0.000454924 0)
(0.0716356 0.000653787 0)
(0.0882425 0.000840391 0)
(0.101709 0.00102014 0)
(0.112388 0.00119718 0)
(0.120584 0.00137482 0)
(0.126561 0.00155537 0)
(0.13055 0.00174188 0)
(0.132763 0.00193734 0)
(0.133383 0.00214353 0)
(0.132571 0.00236235 0)
(0.130471 0.00259583 0)
(0.127216 0.00284605 0)
(0.122927 0.0031152 0)
(0.117715 0.00340568 0)
(0.111688 0.00372022 0)
(0.104949 0.00406205 0)
(0.0976042 0.00443554 0)
(0.0897615 0.00484562 0)
(0.0815323 0.00529757 0)
(0.0730374 0.00579838 0)
(0.0644147 0.00635777 0)
(0.0558409 0.00699121 0)
(0.047534 0.00771654 0)
(0.039765 0.00855361 0)
(0.0329117 0.00952879 0)
(0.0276324 0.0106892 0)
(0.0254256 0.0120579 0)
(0.0203532 0.0133451 0)
(0 0 0)
(0.0274991 0.000354415 0)
(0.0517248 0.000680683 0)
(0.0719839 0.000978184 0)
(0.0887042 0.00125734 0)
(0.10229 0.00152619 0)
(0.113095 0.00179098 0)
(0.121428 0.00205659 0)
(0.127555 0.0023267 0)
(0.131713 0.00260578 0)
(0.134111 0.00289802 0)
(0.134935 0.00320609 0)
(0.13435 0.00353291 0)
(0.132504 0.00388152 0)
(0.129531 0.00425499 0)
(0.125558 0.00465657 0)
(0.120701 0.00508976 0)
(0.115074 0.00555847 0)
(0.108784 0.00606705 0)
(0.101948 0.00662252 0)
(0.094691 0.00723252 0)
(0.087139 0.00790411 0)
(0.0794335 0.0086472 0)
(0.0717364 0.00947607 0)
(0.0642593 0.0104106 0)
(0.0572884 0.0114733 0)
(0.0512259 0.0126939 0)
(0.0465964 0.0141015 0)
(0.0440734 0.015717 0)
(0.0452117 0.0175105 0)
(0.0428294 0.0190141 0)
(0 0 0)
(0.0276731 0.000470566 0)
(0.0520556 0.000903531 0)
(0.0724667 0.00129828 0)
(0.0893446 0.00166864 0)
(0.103096 0.00202523 0)
(0.114077 0.00237632 0)
(0.122601 0.0027285 0)
(0.128938 0.00308724 0)
(0.133327 0.00345786 0)
(0.135981 0.00384518 0)
(0.137089 0.00425313 0)
(0.136818 0.00468568 0)
(0.135322 0.00514687 0)
(0.132742 0.0056408 0)
(0.129208 0.0061717 0)
(0.124844 0.00674421 0)
(0.119775 0.00736352 0)
(0.114116 0.00803565 0)
(0.107991 0.00876901 0)
(0.101546 0.00957269 0)
(0.094932 0.0104559 0)
(0.0883166 0.0114309 0)
(0.0819105 0.0125165 0)
(0.0759689 0.0137305 0)
(0.0708247 0.0150933 0)
(0.0669867 0.0166379 0)
(0.0652315 0.018396 0)
(0.0664337 0.0203718 0)
(0.0718404 0.0224445 0)
(0.0724354 0.0239522 0)
(0 0 0)
(0.027885 0.000584953 0)
(0.0524709 0.00112305 0)
(0.073081 0.00161366 0)
(0.0901608 0.0020738 0)
(0.104123 0.00251667 0)
(0.115329 0.00295252 0)
(0.124096 0.00338963 0)
(0.1307 0.00383499 0)
(0.135385 0.0042949 0)
(0.138364 0.00477496 0)
(0.139832 0.00528015 0)
(0.139961 0.00581538 0)
(0.13891 0.00638575 0)
(0.136828 0.00699638 0)
(0.133852 0.00765239 0)
(0.130116 0.00835954 0)
(0.125754 0.00912468 0)
(0.120901 0.00995596 0)
(0.115687 0.0108606 0)
(0.110276 0.0118486 0)
(0.104857 0.0129323 0)
(0.099623 0.0141255 0)
(0.0948335 0.0154473 0)
(0.0908186 0.016914 0)
(0.0880083 0.0185462 0)
(0.0869562 0.0203653 0)
(0.0885776 0.0223909 0)
(0.0941299 0.0246221 0)
(0.104534 0.026874 0)
(0.108174 0.0283455 0)
(0 0 0)
(0.0281336 0.000697272 0)
(0.052969 0.0013389 0)
(0.0738237 0.00192385 0)
(0.0911486 0.00247222 0)
(0.105366 0.00299976 0)
(0.116845 0.00351867 0)
(0.125907 0.00403881 0)
(0.132834 0.00456861 0)
(0.137875 0.00511539 0)
(0.141247 0.00568554 0)
(0.14315 0.00628489 0)
(0.143761 0.00691921 0)
(0.143247 0.00759472 0)
(0.141766 0.00831751 0)
(0.139464 0.00909339 0)
(0.136481 0.00992889 0)
(0.132968 0.0108327 0)
(0.129081 0.011814 0)
(0.124968 0.0128803 0)
(0.120809 0.0140426 0)
(0.116829 0.0153143 0)
(0.113269 0.0167097 0)
(0.110421 0.0182447 0)
(0.108683 0.0199345 0)
(0.108603 0.021799 0)
(0.110874 0.0238504 0)
(0.116422 0.0260859 0)
(0.126791 0.0284904 0)
(0.142716 0.0308565 0)
(0.149603 0.032361 0)
(0 0 0)
(0.028427 0.00080702 0)
(0.0535508 0.00154979 0)
(0.0746883 0.00222681 0)
(0.0922984 0.00286122 0)
(0.106813 0.00347117 0)
(0.118609 0.00407075 0)
(0.128013 0.00467127 0)
(0.135316 0.00528259 0)
(0.14077 0.00591307 0)
(0.144598 0.00656978 0)
(0.147005 0.00725934 0)
(0.148175 0.00798812 0)
(0.148285 0.00876371 0)
(0.147502 0.00959327 0)
(0.145984 0.010483 0)
(0.143883 0.0114407 0)
(0.141361 0.0124756 0)
(0.138594 0.013597 0)
(0.135758 0.0148142 0)
(0.133059 0.0161388 0)
(0.130749 0.017583 0)
(0.12912 0.0191611 0)
(0.128526 0.0208866 0)
(0.129439 0.0227734 0)
(0.132468 0.0248335 0)
(0.138473 0.0270723 0)
(0.148513 0.0294747 0)
(0.164221 0.0320003 0)
(0.185991 0.0344163 0)
(0.196249 0.0359544 0)
(0 0 0)
(0.0287615 0.00091357 0)
(0.0542104 0.00175442 0)
(0.0756665 0.00252066 0)
(0.0935991 0.00323832 0)
(0.10845 0.00392787 0)
(0.120603 0.00460513 0)
(0.130394 0.00528273 0)
(0.138121 0.00597202 0)
(0.144041 0.00668243 0)
(0.148385 0.0074216 0)
(0.151362 0.00819691 0)
(0.153168 0.00901579 0)
(0.153986 0.00988666 0)
(0.153993 0.0108169 0)
(0.153361 0.011814 0)
(0.152263 0.0128868 0)
(0.150866 0.0140437 0)
(0.149363 0.015294 0)
(0.147971 0.0166496 0)
(0.146922 0.0181215 0)
(0.146499 0.0197207 0)
(0.147053 0.0214607 0)
(0.149002 0.023354 0)
(0.152896 0.0254108 0)
(0.159451 0.0276363 0)
(0.169609 0.0300242 0)
(0.184667 0.032554 0)
(0.20616 0.035146 0)
(0.233862 0.0375284 0)
(0.247497 0.0389934 0)
(0 0 0)
(0.0291335 0.00101653 0)
(0.0549423 0.0019521 0)
(0.0767512 0.0028044 0)
(0.0950415 0.00360227 0)
(0.110265 0.00436834 0)
(0.122815 0.00512011 0)
(0.133037 0.00587185 0)
(0.141236 0.00663601 0)
(0.147675 0.00742247 0)
(0.152588 0.00823973 0)
(0.156199 0.0090962 0)
(0.158712 0.0100006 0)
(0.160317 0.0109609 0)
(0.161194 0.0119842 0)
(0.161537 0.0130798 0)
(0.161542 0.0142573 0)
(0.161388 0.0155248 0)
(0.161292 0.0168927 0)
(0.161499 0.0183727 0)
(0.162276 0.0199753 0)
(0.163945 0.0217109 0)
(0.16691 0.023592 0)
(0.171679 0.0256295 0)
(0.178869 0.0278288 0)
(0.189312 0.0301898 0)
(0.204052 0.0326958 0)
(0.224566 0.0353119 0)
(0.25211 0.0379105 0)
(0.285695 0.0401847 0)
(0.302469 0.041513 0)
(0 0 0)
(0.0295405 0.00111577 0)
(0.0557425 0.00214256 0)
(0.0779373 0.00307772 0)
(0.096619 0.00395265 0)
(0.112251 0.00479209 0)
(0.125236 0.00561523 0)
(0.135932 0.00643821 0)
(0.144648 0.00727375 0)
(0.151649 0.00813175 0)
(0.157184 0.00902216 0)
(0.161482 0.00995422 0)
(0.164756 0.0109368 0)
(0.167209 0.0119782 0)
(0.169037 0.0130867 0)
(0.170443 0.014272 0)
(0.171637 0.0155433 0)
(0.172831 0.0169096 0)
(0.174264 0.0183816 0)
(0.176206 0.0199701 0)
(0.178965 0.0216851 0)
(0.182916 0.0235369 0)
(0.188507 0.0255361 0)
(0.196325 0.0276918 0)
(0.207102 0.0300059 0)
(0.221756 0.0324709 0)
(0.241476 0.0350637 0)
(0.267738 0.0377237 0)
(0.301425 0.0402777 0)
(0.340807 0.0423968 0)
(0.360663 0.0436706 0)
(0 0 0)
(0.0299798 0.00121115 0)
(0.0566065 0.00232556 0)
(0.0792183 0.00334022 0)
(0.0983233 0.00428896 0)
(0.114396 0.0051984 0)
(0.127852 0.00608936 0)
(0.139056 0.0069792 0)
(0.148322 0.00788103 0)
(0.155923 0.00880532 0)
(0.162121 0.00976329 0)
(0.167154 0.0107647 0)
(0.171243 0.0118183 0)
(0.174605 0.0129335 0)
(0.177455 0.0141195 0)
(0.179999 0.0153847 0)
(0.182461 0.0167376 0)
(0.18509 0.0181891 0)
(0.188149 0.0197494 0)
(0.191938 0.0214282 0)
(0.196804 0.0232352 0)
(0.20318 0.02518 0)
(0.211589 0.0272719 0)
(0.222663 0.0295164 0)
(0.237251 0.0319129 0)
(0.256394 0.0344482 0)
(0.281423 0.0370909 0)
(0.313578 0.0397479 0)
(0.353395 0.0422137 0)
(0.398421 0.0441335 0)
(0.421611 0.0454158 0)
(0 0 0)
(0.030447 0.00130208 0)
(0.0575252 0.00249999 0)
(0.0805816 0.00359033 0)
(0.100138 0.00460915 0)
(0.116679 0.00558472 0)
(0.130633 0.00653922 0)
(0.142373 0.00749098 0)
(0.15222 0.00845397 0)
(0.16046 0.00943974 0)
(0.167364 0.0104601 0)
(0.173176 0.0115247 0)
(0.178132 0.012643 0)
(0.182453 0.0138241 0)
(0.186368 0.0150767 0)
(0.190106 0.0164098 0)
(0.193904 0.0178321 0)
(0.198038 0.0193542 0)
(0.202796 0.0209853 0)
(0.208512 0.0227341 0)
(0.215572 0.0246097 0)
(0.224475 0.0266209 0)
(0.235814 0.0287748 0)
(0.250299 0.0310732 0)
(0.268847 0.0335116 0)
(0.292662 0.0360731 0)
(0.323096 0.0387116 0)
(0.361139 0.0413075 0)
(0.407025 0.0436358 0)
(0.457445 0.0452721 0)
(0.484634 0.0466901 0)
(0 0 0)
(0.0309374 0.00138805 0)
(0.0584898 0.00266481 0)
(0.0820145 0.00382661 0)
(0.102046 0.00491143 0)
(0.119079 0.00594897 0)
(0.133557 0.00696292 0)
(0.145864 0.00797257 0)
(0.156326 0.00899234 0)
(0.16524 0.0100349 0)
(0.172885 0.0111119 0)
(0.179506 0.0122324 0)
(0.185356 0.0134067 0)
(0.190673 0.0146439 0)
(0.195692 0.0159528 0)
(0.200669 0.0173425 0)
(0.205852 0.0188205 0)
(0.211531 0.0203964 0)
(0.218036 0.0220792 0)
(0.225725 0.0238755 0)
(0.235033 0.0257937 0)
(0.246506 0.0278409 0)
(0.260806 0.0300193 0)
(0.278724 0.0323267 0)
(0.301275 0.0347536 0)
(0.329743 0.0372745 0)
(0.36537 0.0398233 0)
(0.409085 0.0422654 0)
(0.46072 0.0443569 0)
(0.516094 0.0455157 0)
(0.54911 0.0474744 0)
(0 0 0)
(0.0314476 0.00146883 0)
(0.0594943 0.00281978 0)
(0.0835109 0.00404892 0)
(0.104041 0.00519571 0)
(0.121591 0.00629122 0)
(0.136619 0.00736076 0)
(0.149517 0.00842386 0)
(0.160616 0.00949527 0)
(0.170224 0.0105883 0)
(0.178626 0.0117145 0)
(0.186083 0.0128837 0)
(0.192856 0.014106 0)
(0.199198 0.0153905 0)
(0.205349 0.016745 0)
(0.211579 0.0181778 0)
(0.218164 0.0196961 0)
(0.225419 0.0213091 0)
(0.233686 0.0230232 0)
(0.243353 0.0248428 0)
(0.254914 0.0267747 0)
(0.268937 0.0288219 0)
(0.286134 0.0309808 0)
(0.307378 0.0332414 0)
(0.333756 0.0355837 0)
(0.366481 0.0379612 0)
(0.406735 0.0402792 0)
(0.455423 0.042369 0)
(0.511789 0.0439339 0)
(0.571151 0.0441171 0)
(0.614294 0.0477979 0)
(0 0 0)
(0.0319852 0.00154528 0)
(0.0605533 0.00296656 0)
(0.0850829 0.00425923 0)
(0.106132 0.00546412 0)
(0.124223 0.00661381 0)
(0.139823 0.00773449 0)
(0.153328 0.00884587 0)
(0.165084 0.0099635 0)
(0.175409 0.0111013 0)
(0.184598 0.0122709 0)
(0.192925 0.0134825 0)
(0.200648 0.014745 0)
(0.208026 0.0160662 0)
(0.215322 0.0174543 0)
(0.222821 0.018917 0)
(0.23082 0.0204609 0)
(0.239651 0.0220926 0)
(0.249669 0.0238156 0)
(0.261299 0.0256327 0)
(0.27506 0.0275464 0)
(0.29155 0.0295526 0)
(0.311493 0.0316397 0)
(0.335792 0.0337844 0)
(0.365493 0.0359432 0)
(0.401684 0.0380297 0)
(0.445427 0.0398818 0)
(0.497109 0.041183 0)
(0.554744 0.0412859 0)
(0.612325 0.0385783 0)
(0.679579 0.0478762 0)
(-1.31839e-16 0 0)
(0.0204944 0 0)
(0.046238 0 0)
(0.0928404 0 0)
(0.15817 0 0)
(0.23059 0 0)
(0.296429 0 0)
(0.348916 0 0)
(0.38802 0 0)
(0.416133 0 0)
(0.435602 0 0)
(0.448245 0 0)
(0.45537 0 0)
(0.457883 0 0)
(0.4564 0 0)
(0.451344 0 0)
(0.442981 0 0)
(0.431464 0 0)
(0.416885 0 0)
(0.399284 0 0)
(0.378669 0 0)
(0.355029 0 0)
(0.328333 0 0)
(0.298543 0 0)
(0.265614 0 0)
(0.229496 0 0)
(0.190141 0 0)
(0.147498 0 0)
(0.101533 0 0)
(0.0521368 0 0)
(0 0 0)
(0.00611343 -0.00716534 0)
(0.0254035 -0.00703593 0)
(0.052001 -0.00775168 0)
(0.0990751 -0.00816349 0)
(0.164231 -0.00827139 0)
(0.235872 -0.00801501 0)
(0.300754 -0.00749174 0)
(0.35237 -0.00686811 0)
(0.390756 -0.00622737 0)
(0.418304 -0.00560902 0)
(0.437334 -0.0050327 0)
(0.449639 -0.00450552 0)
(0.456499 -0.00402657 0)
(0.458804 -0.0035904 0)
(0.457158 -0.0031914 0)
(0.451974 -0.00283226 0)
(0.443509 -0.0025115 0)
(0.431911 -0.00222517 0)
(0.417265 -0.00196928 0)
(0.399609 -0.00173976 0)
(0.378949 -0.0015327 0)
(0.35527 -0.00134445 0)
(0.328541 -0.00117164 0)
(0.298723 -0.00101114 0)
(0.265769 -0.000860025 0)
(0.229628 -0.000715533 0)
(0.19025 -0.000574996 0)
(0.147586 -0.000435774 0)
(0.101598 -0.000295211 0)
(0.052173 -0.000150277 0)
(0 0 0)
(0.0203819 -0.0137682 0)
(0.0397554 -0.0136628 0)
(0.068897 -0.0149393 0)
(0.117539 -0.0156754 0)
(0.182385 -0.0158021 0)
(0.251828 -0.0152753 0)
(0.313771 -0.014292 0)
(0.362652 -0.0131165 0)
(0.398835 -0.0119129 0)
(0.424686 -0.0107543 0)
(0.442411 -0.0096706 0)
(0.453706 -0.00867508 0)
(0.459782 -0.00776577 0)
(0.461478 -0.00693593 0)
(0.459356 -0.00617793 0)
(0.453797 -0.00549293 0)
(0.445035 -0.00488048 0)
(0.433199 -0.00433238 0)
(0.418358 -0.003841 0)
(0.400541 -0.00339886 0)
(0.379747 -0.00299876 0)
(0.355956 -0.00263395 0)
(0.329131 -0.00229813 0)
(0.29923 -0.00198541 0)
(0.266202 -0.00169028 0)
(0.229994 -0.00140744 0)
(0.190553 -0.0011318 0)
(0.147825 -0.000858269 0)
(0.10177 -0.000581702 0)
(0.0522664 -0.000296213 0)
(0 0 0)
(0.0428912 -0.0196179 0)
(0.0625537 -0.0196364 0)
(0.0953708 -0.0212968 0)
(0.146187 -0.0222388 0)
(0.210379 -0.0223061 0)
(0.27647 -0.0215162 0)
(0.333931 -0.0201429 0)
(0.378636 -0.0185164 0)
(0.411458 -0.0168564 0)
(0.434685 -0.0152583 0)
(0.450373 -0.0137577 0)
(0.460086 -0.0123691 0)
(0.464939 -0.0110963 0)
(0.465681 -0.00993104 0)
(0.462817 -0.00886791 0)
(0.456674 -0.00790687 0)
(0.447445 -0.00704361 0)
(0.43523 -0.00626796 0)
(0.420081 -0.00556971 0)
(0.402009 -0.00493885 0)
(0.381002 -0.00436573 0)
(0.357031 -0.00384118 0)
(0.330053 -0.00335657 0)
(0.300019 -0.00290377 0)
(0.266873 -0.00247506 0)
(0.230558 -0.00206304 0)
(0.191016 -0.00166046 0)
(0.148188 -0.00126007 0)
(0.102027 -0.000854505 0)
(0.0524042 -0.000435293 0)
(0 0 0)
(0.0724765 -0.0246767 0)
(0.0928521 -0.0249487 0)
(0.129947 -0.0268311 0)
(0.183109 -0.0278526 0)
(0.246081 -0.0277943 0)
(0.307742 -0.0267416 0)
(0.359545 -0.0250352 0)
(0.399052 -0.023054 0)
(0.427646 -0.0210377 0)
(0.447531 -0.01909 0)
(0.460621 -0.0172573 0)
(0.468326 -0.0155556 0)
(0.471615 -0.0139886 0)
(0.471139 -0.0125508 0)
(0.467326 -0.0112402 0)
(0.460432 -0.0100532 0)
(0.450596 -0.00898141 0)
(0.437888 -0.00801388 0)
(0.422333 -0.00713892 0)
(0.403924 -0.00634486 0)
(0.382637 -0.00562029 0)
(0.358428 -0.00495433 0)
(0.331248 -0.00433658 0)
(0.301038 -0.00375717 0)
(0.267737 -0.00320664 0)
(0.231281 -0.00267582 0)
(0.191606 -0.00215568 0)
(0.148646 -0.00163711 0)
(0.102349 -0.00111083 0)
(0.0525746 -0.000566072 0)
(0 0 0)
(0.108213 -0.0292432 0)
(0.129782 -0.0296759 0)
(0.171335 -0.0316229 0)
(0.226543 -0.0325876 0)
(0.287398 -0.0323203 0)
(0.343575 -0.0309865 0)
(0.388866 -0.0289936 0)
(0.422484 -0.026735 0)
(0.446265 -0.0244479 0)
(0.462362 -0.0222391 0)
(0.472511 -0.0201587 0)
(0.477926 -0.0182219 0)
(0.479428 -0.0164314 0)
(0.477564 -0.0147868 0)
(0.472659 -0.0132854 0)
(0.464886 -0.0119202 0)
(0.454337 -0.0106816 0)
(0.441045 -0.00955809 0)
(0.425007 -0.00853712 0)
(0.406198 -0.00760607 0)
(0.384574 -0.00675249 0)
(0.360081 -0.00596435 0)
(0.332657 -0.00523005 0)
(0.302237 -0.00453845 0)
(0.268749 -0.00387879 0)
(0.232124 -0.00324052 0)
(0.192289 -0.00261315 0)
(0.149174 -0.00198607 0)
(0.102717 -0.00134838 0)
(0.0527679 -0.00068736 0)
(0 0 0)
(0.149646 -0.0334163 0)
(0.172583 -0.0338754 0)
(0.218355 -0.0357361 0)
(0.27481 -0.0365049 0)
(0.332333 -0.0359414 0)
(0.382019 -0.0343072 0)
(0.420189 -0.0320622 0)
(0.447531 -0.0295898 0)
(0.46624 -0.02711 0)
(0.478363 -0.0247246 0)
(0.4854 -0.0224754 0)
(0.488387 -0.0203759 0)
(0.488008 -0.0184309 0)
(0.484667 -0.0166408 0)
(0.478578 -0.0150008 0)
(0.469846 -0.0135035 0)
(0.458511 -0.0121385 0)
(0.44457 -0.0108941 0)
(0.427995 -0.00975743 0)
(0.408735 -0.0087156 0)
(0.386733 -0.00775565 0)
(0.361919 -0.00686492 0)
(0.334221 -0.00603112 0)
(0.303563 -0.00524231 0)
(0.269865 -0.0044868 0)
(0.233049 -0.00375306 0)
(0.193037 -0.00302951 0)
(0.149748 -0.00230432 0)
(0.103114 -0.00156533 0)
(0.0529751 -0.000798214 0)
(0 0 0)
(0.196322 -0.0371711 0)
(0.220524 -0.0375545 0)
(0.269878 -0.0392036 0)
(0.326294 -0.0396493 0)
(0.379025 -0.0387123 0)
(0.421306 -0.0367654 0)
(0.451998 -0.0343002 0)
(0.472988 -0.0316726 0)
(0.486625 -0.0290724 0)
(0.494756 -0.0265825 0)
(0.498684 -0.0242342 0)
(0.49927 -0.0220392 0)
(0.497011 -0.0200018 0)
(0.492165 -0.0181207 0)
(0.484855 -0.0163911 0)
(0.475122 -0.0148049 0)
(0.462962 -0.0133518 0)
(0.448335 -0.0120201 0)
(0.431185 -0.0107972 0)
(0.411445 -0.00967013 0)
(0.389036 -0.00862608 0)
(0.363876 -0.00765224 0)
(0.335882 -0.00673606 0)
(0.304966 -0.00586519 0)
(0.271042 -0.00502742 0)
(0.234021 -0.00421057 0)
(0.193818 -0.00340231 0)
(0.150345 -0.00258994 0)
(0.103525 -0.00176034 0)
(0.0531883 -0.000897932 0)
(0 0 0)
(0.247558 -0.0403577 0)
(0.272859 -0.0407099 0)
(0.324787 -0.0420426 0)
(0.379406 -0.0420494 0)
(0.425735 -0.040677 0)
(0.459877 -0.0384183 0)
(0.483021 -0.0357709 0)
(0.497814 -0.0330447 0)
(0.506544 -0.0303873 0)
(0.510871 -0.027856 0)
(0.51188 -0.0254706 0)
(0.510192 -0.023239 0)
(0.506116 -0.0211632 0)
(0.499794 -0.0192409 0)
(0.491272 -0.0174665 0)
(0.480537 -0.0158316 0)
(0.467539 -0.0143261 0)
(0.452212 -0.0129387 0)
(0.434473 -0.0116572 0)
(0.414235 -0.0104695 0)
(0.391404 -0.00936281 0)
(0.365886 -0.00832483 0)
(0.337583 -0.00734307 0)
(0.306399 -0.00640517 0)
(0.272239 -0.00549873 0)
(0.235006 -0.00461127 0)
(0.194606 -0.00373 0)
(0.150944 -0.00284166 0)
(0.103935 -0.0019325 0)
(0.0534 -0.000986045 0)
(0 0 0)
(0.302514 -0.043074 0)
(0.328872 -0.04336 0)
(0.381939 -0.0442641 0)
(0.432505 -0.0437156 0)
(0.470814 -0.0418635 0)
(0.496376 -0.0393124 0)
(0.512152 -0.0365308 0)
(0.521081 -0.0337637 0)
(0.525308 -0.0311066 0)
(0.526226 -0.0285887 0)
(0.524606 -0.02622 0)
(0.520824 -0.0240037 0)
(0.515046 -0.0219384 0)