# vtk DataFile Version 4.2
vtk output
ASCII
DATASET STRUCTURED_POINTS
DIMENSIONS 102 2 2
SPACING 0.1 0 0
ORIGIN 0 0 0
CELL_DATA 101
FIELD FieldData 3
velocity 1 101 double
13 12.985525205 12.967684051 12.948453203 12.926066343 12.902214866 12.875412415 12.847085492 12.816005006 
12.783357046 12.748144347 12.711338669 12.672148472 12.631357147 12.588353523 12.543757326 12.497114024 12.448902446 
12.398803098 12.347174382 12.293812605 12.238973767 12.182553161 12.124719979 12.065454023 12.004850964 11.942962823 
11.879822884 11.815545103 11.750109565 11.683683654 11.616201723 11.547877632 11.478605969 11.408641437 11.337843554 
11.266503339 11.194448877 11.122003867 11.048967737 10.975693922 10.901955325 10.828132661 10.753973985 10.679885138 
10.605590738 10.531519719 10.457374604 10.38360531 10.309893735 10.236708414 10.163712404 10.091390056 10.019387876 
9.9482026132 9.8774672117 9.8076865992 9.738484038 9.6703674393 9.6029553441 9.5367522946 9.471378342 9.4073269765 
9.3442274445 9.2825530027 9.2219514054 9.1628648385 9.1049706659 9.0486673675 8.9936749479 8.9403336279 8.8884211287 
8.8382028467 8.7895314259 8.7425787992 8.6972919157 8.6537285109 8.6119513978 8.5718813156 8.5337206173 8.4972282723 
8.4627718424 8.4299219395 8.3992387925 8.370076495 8.3432169041 8.3177681885 8.2947639139 8.273036102 8.2539007378 
8.235883195 8.2206126159 8.2062776022 8.1948504929 8.1841541521 8.1765326016 8.1694160728 8.1655462136 8.1619368492 
8.1617495229 8.1615621966 
pressure 1 101 double
277.55097222 276.06423533 274.57749844 272.68467763 270.74900298 268.45845091 266.08938611 263.41029939 260.62388715 
257.56642257 254.37916582 250.95451651 247.3833783 243.60382033 239.66624682 235.54516437 231.25912206 226.81101694 
222.19503684 217.43552639 212.50874944 207.45455557 202.23677487 196.90570564 191.41740202 185.82832636 180.09069483 
174.26351022 168.29847515 162.25406798 156.08428549 149.84448348 143.49332962 137.08084556 130.57238952 124.01075562 
117.36971737 110.68320955 103.93490167 97.148453308 90.318706983 83.457811931 76.572887337 69.663492351 62.749973993 
55.818360973 48.903038767 41.975697524 35.085434838 28.188927415 21.350517541 14.511335406 7.7513482357 0.99576397808 
-5.6596150748 -12.305699665 -18.830836239 -25.342043604 -31.712024014 -38.063653498 -44.254454834 -50.422632245 -56.411290269 
-62.373111928 -68.137884097 -73.871553041 -79.39207403 -84.877026125 -90.134453318 -95.351471249 -100.32861787 -105.25993119 
-109.94138494 -114.57075471 -118.94298017 -123.2557669 -127.30719015 -131.29040442 -135.01147867 -138.65381406 -142.03706547 
-145.32891385 -148.36896704 -151.30241688 -153.99599976 -156.56481845 -158.91074659 -161.11034808 -163.10948889 -164.93688848 
-166.59210565 -168.04586411 -169.36194283 -170.4421024 -171.42565617 -172.13367093 -172.7930305 -173.13169435 -173.47677957 
-173.45015466 -173.49232962 
crossSection 1 101 double
1.0320695646 1.0318936924 1.0317178652 1.0314940779 1.0312652994 1.030994676 1.0307148886 1.0303986246 1.0300698454 
1.0297092647 1.0293335785 1.0289301397 1.0285096964 1.0280649957 1.0276020097 1.0271177813 1.0266145331 1.0260926471 
1.0255514855 1.024993945 1.0244172892 1.0238262255 1.0232165675 1.0225942349 1.0219541402 1.02130291 1.0206350176 
1.0199573711 1.0192643926 1.0185629134 1.0178476304 1.0171249959 1.0163902557 1.0156492278 1.0148979378 1.0141413528 
1.0133764733 1.0126072308 1.0118317662 1.0110528168 1.0102698055 1.0094841385 1.0086966408 1.0079072702 1.0071183555 
1.0063283056 1.0055410385 1.004753329 1.0039707535 1.003188384 1.0024135079 1.0016394419 1.0008752201 1.0001123694 
0.99936168657 0.9986128952 0.99787854906 0.99714657767 0.99643126169 0.99571877255 0.99502505933 0.99433460199 0.99366492718 
0.99299892507 0.99235557215 0.99171631035 0.99110139648 0.99049101074 0.98990647394 0.98932694131 0.98877452903 0.98822765995 
0.9877089193 0.98719635149 0.98671262121 0.98623581529 0.98578821952 0.98534845638 0.98493790037 0.98453628028 0.98416344796 
0.98380089144 0.98346624498 0.98314349516 0.98284727636 0.98256490284 0.98230713651 0.98206554043 0.98184603951 0.98164545974 
0.98146383217 0.98130435232 0.98116000969 0.9810415656 0.9809337334 0.980856121 0.98078385045 0.98074673357 0.98070891508 
0.98071183287 0.98070721097 
