# vtk DataFile Version 4.2
vtk output
ASCII
DATASET STRUCTURED_POINTS
DIMENSIONS 102 2 2
SPACING 0.1 0 0
ORIGIN 0 0 0
CELL_DATA 101
FIELD FieldData 3
velocity 1 101 double
10.927050983 11.006117055 11.083109414 11.158630735 11.231935879 11.303749517 11.373247658 11.441210418 11.506792981 
11.570780117 11.632349439 11.692253371 11.749722511 11.805451589 11.858744215 11.910221579 11.959271898 12.006434449 
12.05118715 12.093984659 12.134394856 12.172789219 12.208822384 12.242787005 12.274418915 12.303938213 12.331154887 
12.356223916 12.379021569 12.399645734 12.418030738 12.434225607 12.448214464 12.460005647 12.469624975 12.477048077 
12.482334617 12.485435232 12.486435869 12.485269615 12.482041418 12.476674 12.469284268 12.459791561 12.448317879 
12.434786021 12.419316306 12.401841795 12.382474341 12.361164116 12.338007629 12.312979126 12.286152742 12.25753392 
12.22716719 12.195096519 12.161329362 12.125955758 12.088938367 12.050421077 12.01031377 11.968822179 11.925795193 
11.881508563 11.835741787 11.7888489 11.740531537 11.691230251 11.640560406 11.589057106 11.536241298 11.482750251 
11.428002844 11.372745445 11.316287989 11.259491903 11.201552415 11.143450604 11.084262762 11.025092408 10.964894687 
10.904896014 10.843930759 10.783345754 10.721858202 10.660929257 10.59916652 10.538134996 10.476345018 10.415449739 
10.35388025 10.293355949 10.232253414 10.172329149 10.111937747 10.052835302 9.9933959254 9.9353282215 9.8770775327 
9.8202470701 9.7634166074 
pressure 1 101 double
85.575304543 92.892880861 100.21045718 107.1864323 114.14664183 120.7711108 127.36088804 133.62456374 139.83303137 
145.727305 151.54552772 157.06253104 162.48328761 167.61595049 172.63352939 177.37562822 181.98565019 186.33184502 
190.53111315 194.47697353 198.26334968 201.80537055 205.17767591 208.31328537 211.27122253 213.99878361 216.54287752 
218.86168573 220.99324082 222.90351942 224.62459041 226.12748513 227.4408589 228.5384334 229.44761998 230.14285316 
230.65208372 230.94886958 231.0631001 230.96625032 230.69116953 230.20641871 229.5484594 228.68247274 227.64882523 
226.40920837 225.00783503 223.40314585 221.6427955 219.68255704 217.57277881 215.26749232 212.81864822 210.179805 
207.40308086 204.44317197 201.35058581 198.08310847 194.68751566 191.1269754 187.44206973 183.6039772 179.64428726 
175.54514843 171.32602894 166.98332732 162.52094508 157.95311467 153.26442892 148.49081668 143.59355363 138.63437045 
133.54699187 128.42325127 123.164917 117.89836067 112.48888532 107.10189491 101.56169919 96.077193687 90.427251013 
84.868569385 79.130348553 73.521117514 67.716522349 62.080509459 56.231816528 50.592768932 44.72256469 39.104033956 
33.235152905 27.660306642 21.815772178 16.307193374 10.510162994 5.0896383589 -0.63664515931 -5.9483462692 -11.580596211 
-16.763950429 -22.278868645 
crossSection 1 101 double
1.0097265228 1.0105648205 1.0114041626 1.0122052963 1.0130055684 1.0137681196 1.0145275319 1.0152501553 1.0159671716 
1.0166486048 1.0173219184 1.0179609914 1.0185895021 1.0191851465 1.0197679405 1.020319197 1.0208555285 1.0213615537 
1.0218508297 1.0223109004 1.0227526682 1.0231661856 1.0235601224 1.0239266137 1.0242725191 1.0245916393 1.0248894286 
1.025160961 1.0254106613 1.0256345177 1.0258362646 1.0260124852 1.0261665209 1.0262952737 1.0264019457 1.0264835264 
1.0265432872 1.026578119 1.0265915259 1.0265801589 1.0265478743 1.0264909859 1.0264137779 1.0263121722 1.0261909148 
1.0260455235 1.0258811973 1.0256930787 1.0254867713 1.0252571109 1.0250100167 1.024740127 1.0244535471 1.0241448668 
1.0238202084 1.0234743018 1.0231130772 1.0227316324 1.0223354575 1.0219202848 1.0214908769 1.0210439055 1.0205830807 
1.0201063556 1.0196160256 1.0191117025 1.0185938704 1.0180642103 1.0175209661 1.0169683287 1.016401844 1.0158286791 
1.0152412013 1.0146500396 1.0140438855 1.0134373279 1.0128148766 1.0121955822 1.0115592674 1.0109299397 1.0102822426 
1.0096456148 1.0089890556 1.008347874 1.007685004 1.0070420109 1.0063754043 1.0057333187 1.0050655651 1.0044270629 
1.0037607598 1.0031284527 1.0024661985 1.0018426122 1.0011870006 1.0005745517 0.99992816616 0.99932913873 0.99869454919 
0.99811107102 0.99749083072 
