# vtk DataFile Version 4.2
vtk output
ASCII
DATASET STRUCTURED_POINTS
DIMENSIONS 102 2 2
SPACING 0.1 0 0
ORIGIN 0 0 0
CELL_DATA 101
FIELD FieldData 3
velocity 1 101 double
12.427050983 12.364949424 12.300334212 12.235169032 12.167801864 12.099821932 12.029928838 11.959390602 11.887207458 
11.81437465 11.740147084 11.665290432 11.589273515 11.512670383 11.435128125 11.357062072 11.278266749 11.199026959 
11.119258265 11.039138835 10.95868289 10.877981971 10.797130167 10.716148949 10.635196662 10.554238203 10.473483371 
10.392851287 10.312592862 10.232589884 10.153126188 10.074052606 9.9956795885 9.9178316019 9.8408410407 9.7645090448 
9.6891867004 9.6146535308 9.5412772862 9.4688164553 9.3976544689 9.3275284235 9.2588373228 9.1912957553 9.1253189013 
9.0605971439 8.9975629952 8.9358805283 8.8760011294 8.8175602303 8.7610298506 8.7060144068 8.6530083499 8.6015828584 
8.5522564598 8.5045652267 8.4590530528 8.4152196072 8.3736348642 8.3337615905 8.296195748 8.2603637402 8.2268863683 
8.1951555018 8.1658143181 8.1382235314 8.113044649 8.0896124237 8.0686007879 8.0493258102 8.0324658105 8.0173277952 
8.0045840348 7.9935446915 7.984862895 7.9778670121 7.9731750537 7.9701516764 7.9693607066 7.9702243842 7.9732300379 
7.9778821148 7.9845657801 7.9928957078 8.0031258391 8.0150124849 8.0286459444 8.0439588761 8.0608422898 8.0794430161 
8.0994141312 8.1211572821 8.1440463158 8.1687807467 8.1944117174 8.2219815266 8.25017356 8.2804190075 8.3109876145 
8.3437459352 8.376504256 
pressure 1 101 double
224.53626908 218.70125041 212.86623174 206.77777991 200.65172939 194.32584905 187.93444246 181.38864679 174.75775729 
168.01101904 161.16677258 154.23945423 147.2082796 140.1220479 132.93071498 125.70844296 118.38408488 111.04974309 
103.61985938 96.198396976 88.690836271 81.208052309 73.650973818 66.133378744 58.555192609 51.02986002 43.459147203 
35.953556137 28.418969068 20.960837353 13.490982966 6.1080925581 -1.2686002561 -8.5485846444 -15.804010782 -22.953728065 
-30.060262461 -37.052844534 -43.983506009 -50.792767692 -57.521387272 -64.122014274 -70.623404761 -76.991136896 -83.241260426 
-89.353067241 -95.329197666 -101.16344362 -106.84432068 -112.38091714 -117.74688964 -122.96743112 -128.00058648 -132.88846899 
-137.57274713 -142.11326655 -146.43455634 -150.6149854 -154.5612023 -158.37084505 -161.93198939 -165.36221251 -168.5304079 
-171.57464868 -174.34416083 -176.99791225 -179.3651487 -181.62592227 -183.58941417 -185.45668161 -187.01704883 -188.4921642 
-189.65206541 -190.73816935 -191.5022389 -192.20414705 -192.5789206 -192.90299846 -192.89682925 -192.85085573 -192.47382351 
-192.06684572 -191.33066013 -190.57284168 -189.49074175 -188.39320726 -186.97985847 -185.55453642 -183.82592647 -182.08539308 
-180.05872721 -178.01605347 -175.70964996 -173.37825407 -170.81143997 -168.20494759 -165.39795455 -162.53006879 -159.50392847 
-156.38831192 -153.16475007 
crossSection 1 101 double
1.02582591 1.0251421705 1.0244591145 1.0237471187 1.0230314749 1.0222932742 1.0215482382 1.0207860491 1.0200148211 
1.0192310157 1.018436805 1.0176338995 1.0168199271 1.0160005687 1.0151700698 1.0143370224 1.0134932468 1.0126493755 
1.0117955857 1.010943841 1.0100833089 1.0092267096 1.0083627108 1.0075043265 1.0066401325 1.0057830657 1.0049219345 
1.0040693018 1.0032144662 1.0023693794 1.0015240342 1.0006895809 0.99985686916 0.99903609292 0.99821909061 0.99741497174 
0.99661667207 0.99583210812 0.99505540546 0.99429319239 0.99354086618 0.99280368016 0.99207837905 0.99136875919 0.99067298578 
0.98999331809 0.98932941449 0.98868191724 0.98805205181 0.98743876245 0.98684491784 0.98626768186 0.98571164457 0.98517210622 
0.98465545788 0.98415505309 0.9836791635 0.98321911485 0.98278513688 0.98236645093 0.98197531725 0.98159878397 0.98125120565 
0.98091740011 0.98061386692 0.98032315304 0.98006393546 0.97981647177 0.97960162449 0.97939737175 0.97922673855 0.97906546903 
0.97893868882 0.97881999716 0.97873651101 0.97865982635 0.97861888539 0.97858348459 0.97858415847 0.9785891803 0.97863036613 
0.97867482604 0.97875525766 0.97883806311 0.97895632044 0.97907628642 0.97923080496 0.97938666957 0.97957574985 0.97976618967 
0.97998800657 0.98021165174 0.9804642638 0.98071971243 0.98100107108 0.98128690294 0.98159486173 0.98190965089 0.98224197483 
0.98258430116 0.9829386763 
