# vtk DataFile Version 4.2
vtk output
ASCII
DATASET STRUCTURED_POINTS
DIMENSIONS 102 2 2
SPACING 0.1 0 0
ORIGIN 0 0 0
CELL_DATA 101
FIELD FieldData 3
velocity 1 101 double
10.927050983 10.839705491 10.75156006 10.663982698 10.575957342 10.488475593 10.400862892 10.313804107 10.226901138 
10.14059139 10.05469787 9.9694606428 9.8848769469 9.8010316586 9.7180567401 9.6359171246 9.5548463685 9.4747187386 
9.3958417752 9.3180232021 9.2416217141 9.1663981592 9.0927437144 9.0203881529 8.9497400952 8.8805106743 8.8131141077 
8.7472523779 8.6833362753 8.6210655337 8.5608410044 8.5023647857 8.4460235281 8.3915242743 8.3392372387 8.2888751767 
8.2407914573 8.1947037044 8.1509496745 8.1092495875 8.0699282895 8.0327050645 7.997895857 7.965214384 7.9349728427 
7.906873812 7.8812318767 7.8577321281 7.8366984812 7.8177915841 7.801352245 7.7870092876 7.775128403 7.7652989711 
7.7579197763 7.752533098 7.7495790229 7.748545255 7.7499211485 7.753132778 7.7587262225 7.7660595567 7.7757422496 
7.7870589681 7.800688144 7.8158368879 7.8332567583 7.8520747361 7.8731179248 7.8954325123 7.9199214678 7.9455517846 
7.9733001547 8.0020585993 8.0328725559 8.0645662837 8.0982457873 8.1326781208 8.1690181179 8.2059898794 8.2447814263 
8.2840921837 8.3251234969 8.3665727153 8.4096301492 8.4530182422 8.4978871971 8.5430164731 8.5894822364 8.636157739 
8.6840062641 8.7320365043 8.7810551341 8.8302527131 8.8802308553 8.9304129766 8.9811427397 9.032131611 9.0834084083 
9.1350315356 9.1866546629 
pressure 1 101 double
85.031362171 76.866784578 68.702206985 60.53264408 52.344047843 44.193567689 36.013965203 27.90789602 19.769831137 
11.734490913 3.6700238916 -4.2675503334 -12.226890419 -20.039212702 -27.86250525 -35.521909494 -43.17894561 -50.657851876 
-58.119259187 -65.390436174 -72.627820416 -79.66464236 -86.65074068 -93.427436502 -100.13627737 -106.62816958 -113.03523427 
-119.21896489 -125.30134568 -131.15508638 -136.89163684 -142.39528062 -147.76675377 -152.90208553 -157.89125618 -162.64210006 
-167.23386815 -171.58620958 -175.76768214 -179.70976323 -183.47031318 -186.9927006 -190.3240012 -193.41962627 -196.31566085 
-198.97983207 -201.43687942 -203.66726823 -205.6838645 -207.48046559 -209.05734428 -210.42241209 -211.56242418 -212.50038777 
-213.20840423 -213.72576295 -214.00856243 -214.11376487 -213.97990942 -213.68321832 -213.14292027 -212.45626605 -211.52124908 
-210.45807454 -209.14143178 -207.71653055 -206.0325828 -204.26193378 -202.22609013 -200.12669008 -197.75531368 -195.34500961 
-192.65529052 -189.95261359 -186.9624506 -183.98645273 -180.7143455 -177.48443987 -173.9493926 -170.48519885 -166.70663614 
-163.02783093 -159.02552632 -155.15169973 -150.94571696 -146.89623526 -142.50688187 -138.30075701 -133.74854962 -129.40431594 
-124.7099562 -120.24555471 -115.42991465 -110.8625854 -105.94670067 -101.29288386 -96.297952835 -91.573199415 -86.520586146 
-81.739478906 -76.650717481 
crossSection 1 101 double
1.0096642507 1.0087302379 1.0077975206 1.006865528 1.0059326608 1.0050054228 1.0040761599 1.003156522 1.0022345244 
1.0013254116 1.0004142465 0.99951863237 0.99862176944 0.99774264593 0.99686345075 0.99600379898 0.99514552399 0.99430828605 
0.9934740595 0.9926621114 0.99185492489 0.99107105075 0.99029374589 0.98954061354 0.98879586826 0.98807600648 0.98736632141 
0.98668209899 0.98600978442 0.98536339121 0.98473055509 0.98412398526 0.98353252254 0.98296756019 0.9824191438 0.9818973511 
0.98139342491 0.98091613276 0.98045790654 0.98002620799 0.97961465463 0.9792294008 0.97886525575 0.97852705449 0.97821081742 
0.97792003439 0.97765197298 0.97740873521 0.97718889098 0.97699309254 0.97682128853 0.97667259832 0.97654844835 0.97644631968 
0.97636923905 0.9763129208 0.97628213808 0.97627068717 0.97628525689 0.97631755191 0.9763763678 0.97645112345 0.976552932 
0.97666871424 0.9768121283 0.97696736992 0.97715088211 0.97734389856 0.97756589427 0.97779489961 0.97805366929 0.97831679213 
0.97861054291 0.97890584214 0.97923270836 0.97955818872 0.97991624145 0.9802698688 0.98065712414 0.98103684033 0.98145126657 
0.98185500392 0.98229452733 0.98272022272 0.98318273222 0.98362834071 0.98411169122 0.98457519916 0.98507721391 0.98555665157 
0.98607512335 0.98656857689 0.98710126846 0.98760689138 0.9881515351 0.98866755889 0.98922185591 0.98974659994 0.99030821911 
0.99084009955 0.99140667625 
