# vtk DataFile Version 4.2
vtk output
ASCII
DATASET STRUCTURED_POINTS
DIMENSIONS 102 2 2
SPACING 0.1 0 0
ORIGIN 0 0 0
CELL_DATA 101
FIELD FieldData 3
velocity 1 101 double
10 9.9119501737 9.824223466 9.7375927631 9.6516189203 9.5667385703 9.4828093275 9.4000023573 9.3184061737 
9.237985769 9.1590052801 9.081273033 9.0051825347 8.9304266227 8.857489621 8.7859829642 8.7164498282 8.6484482744 
8.5825540268 8.5182946113 8.456256891 8.3959562175 8.3379734446 8.2818262284 8.2280760002 8.1762538096 8.1268915505 
8.0795417755 8.0346996588 7.9919447305 7.9517308828 7.9136677577 7.8781657524 7.8448656692 7.8141343073 7.7856428153 
7.759716187 7.73605344 7.7149412524 7.6961025543 7.6797907073 7.6657472919 7.6541986792 7.6448986997 7.6380542096 
7.6334239108 7.6312035992 7.6311486445 7.6334530482 7.6378599712 7.6445715319 7.6533092846 7.6642938515 7.67721542 
7.6923238019 7.7092678627 7.7283374015 7.7491299939 7.7719861351 7.7964423263 7.8229001631 7.8508256867 7.8806914593 
7.9118843101 7.9449568431 7.9792088155 8.0152808796 8.0523790386 8.0912386263 8.1309667049 8.1723982112 8.2145379273 
8.2583232349 8.3026555222 8.348574988 8.3948811395 8.4427144854 8.4907772082 8.5403043168 8.5899087006 8.640910321 
8.6918447194 8.7441030906 8.7961599165 8.8494593174 8.9024357512 8.9565629866 9.0102616011 9.0650064322 9.1192357345 
9.1743912627 9.2289661559 9.2843291713 9.3390713349 9.3944426413 9.4491808289 9.5043655557 9.5589358121 9.6137437218 
9.6679895198 9.7222353178 
pressure 1 101 double
-1.8199701962 -10.054343739 -18.288717281 -26.380968114 -34.479566448 -42.403795364 -50.333383789 -58.063179278 -65.791711268 
-73.300505029 -80.797199353 -88.058606143 -95.294051595 -102.28219269 -109.22847326 -115.91828232 -122.54911564 -128.91662531 
-135.20750735 -141.23011472 -147.15846427 -152.81517293 -158.36046963 -163.63210623 -168.77601694 -173.64542011 -178.3719088 
-182.82408869 -187.11950605 -191.14177317 -194.99492292 -198.57698528 -201.97916511 -205.11319343 -208.05820938 -210.73887062 
-213.22302451 -215.4474846 -217.46953501 -219.23743231 -220.79853019 -222.11192153 -223.21552244 -224.07880422 -224.73055948 
-225.15036648 -225.35799594 -225.34308098 -225.11623045 -224.67732807 -224.02741463 -223.17709191 -222.11714027 -220.86963809 
-219.41411144 -217.78517904 -215.94980742 -213.95653306 -211.75814235 -209.4187827 -206.8751269 -204.20893725 -201.33853656 
-198.36560385 -195.18759082 -191.928671 -188.46264646 -184.93900734 -181.20490795 -177.43817834 -173.45615697 -169.46818259 
-165.25850266 -161.07120897 -156.65415352 -152.28941548 -147.68521141 -143.16472998 -138.39348765 -133.73867256 -128.82034087 
-124.05219929 -119.00653586 -114.14556627 -108.99212233 -104.05821323 -98.816332336 -93.8286655 -88.517494907 -83.494452805 
-78.13296642 -73.092043717 -67.699074967 -62.656794168 -57.251077033 -52.222908652 -46.823124737 -41.823412655 -36.448241931 
-31.490134836 -26.158307553 
crossSection 1 101 double
0.99979466998 0.99886645341 0.99793952888 0.99702985924 0.99612072077 0.99523235988 0.99434458722 0.99348032563 0.99261733134 
0.99177995029 0.99094497519 0.99013721113 0.98933331701 0.98855782867 0.98778788896 0.98704722705 0.98631391639 0.98561049586 
0.98491627911 0.98425235422 0.98359947563 0.98297711781 0.98236759084 0.9817886695 0.98122426793 0.98069043426 0.98017268488 
0.97968535878 0.97921553595 0.97877589601 0.97835501846 0.9779639951 0.977592825 0.97725109657 0.97693014097 0.97663813287 
0.97636764746 0.97612553398 0.9759055292 0.97571323792 0.97554348713 0.97540070578 0.97528075539 0.97518694072 0.97511612205 
0.97507051058 0.97504795311 0.97504957348 0.9750742193 0.9751219058 0.97519252495 0.97528493204 0.9754001385 0.97553575605 
0.97569402395 0.97587119295 0.9760708729 0.97628780137 0.97652713657 0.97678191549 0.97705905741 0.97734967654 0.97766269997 
0.9779870633 0.97833398058 0.9786899215 0.97906869572 0.97945399162 0.97986254878 0.98027493515 0.98071117508 0.9811483591 
0.98161016496 0.98206983854 0.982555085 0.98303493737 0.98354149733 0.98403922705 0.98456497687 0.98507830357 0.98562112682 
0.98614780245 0.98670559221 0.98724341208 0.98781407179 0.98836088535 0.98894232829 0.98949604964 0.9900861972 0.99064481545 
0.99124159425 0.9918031836 0.99240452159 0.99296725129 0.99357107308 0.994133217 0.99473743858 0.99529738446 0.99589990761 
0.99645616576 0.99705487241 
