# vtk DataFile Version 4.2
vtk output
ASCII
DATASET STRUCTURED_POINTS
DIMENSIONS 102 2 2
SPACING 0.1 0 0
ORIGIN 0 0 0
CELL_DATA 101
FIELD FieldData 3
velocity 1 101 double
12.853169549 12.813021718 12.769822316 12.725597707 12.678588353 12.630481083 12.579840841 12.528053829 12.473970767 
12.418715443 12.361387132 12.302883271 12.242517082 12.180992689 12.1178059 12.053497113 11.987716852 11.920867812 
11.852730861 11.783593507 11.71334596 11.642179737 11.570076525 11.497147976 11.42345226 11.349034493 11.27401691 
11.198388933 11.122326717 11.045772624 10.968948587 10.891756606 10.814457994 10.736919398 10.659436608 10.581844494 
10.504469688 10.427117638 10.35014324 10.273323877 10.197040985 10.121044441 10.045741164 9.970853486 9.8968132291 
9.82331474 9.7508144579 9.6789781037 9.6082865545 9.5383762583 9.469752277 9.402021332 9.3357121529 9.2704016804 
9.2066413339 9.1439788319 9.0829866419 9.0231846491 8.9651638548 8.9084187516 8.8535552752 8.8000462411 8.7485076182 
8.6983957623 8.650330251 8.6037579265 8.559293806 8.5163841155 8.4756291825 8.436485676 8.3995269428 8.364233508 
8.3311371004 8.2997580386 8.2705692919 8.2431495692 8.2178933135 8.194458974 8.1731399991 8.1536987252 8.1363024116 
8.1208442102 8.1073373129 8.0958353091 8.0861668765 8.0785781907 8.0726806047 8.0689472914 8.0667374081 8.0667874354 
8.0681678108 8.0719160583 8.0767762403 8.0841254955 8.0923433679 8.1031853001 8.1146284639 8.1288445598 8.1433717365 
8.1608341813 8.1782966261 
pressure 1 101 double
263.84486704 260.01473085 256.18459466 252.01156295 247.79658502 243.29261179 238.71353529 233.89179246 228.96968764 
223.84460894 218.60090142 213.18819512 207.64471011 201.96134918 196.14036188 190.20455759 184.12884216 177.96000516 
171.65287688 165.27156767 158.75691428 152.18478435 145.48708371 138.74680738 131.89112946 125.00632651 118.01831827 
111.01346679 103.91931918 96.819658286 89.646055088 82.477477015 75.251525749 68.040457149 60.789602327 53.562875047 
46.314794652 39.099506418 31.881992731 24.705358613 17.5461849 10.43538073 3.3621556099 -3.655845051 -10.615833465 
-17.514426914 -24.334374755 -31.08749709 -37.741253766 -44.323550804 -50.785790542 -57.17278516 -63.419178213 -69.587432459 
-75.594813123 -81.522082378 -87.268611031 -92.933987623 -98.399304061 -103.78334789 -108.94871345 -114.03356743 -118.8819936 
-123.65148189 -128.16784367 -132.6075511 -136.77868332 -140.87601479 -144.69079056 -148.43500957 -151.88439977 -155.2666458 
-158.34375944 -161.35704433 -164.05714975 -166.69633355 -169.0168608 -171.27860819 -173.21913331 -175.10185188 -176.66406403 
-178.16782622 -179.3554788 -180.48192945 -181.30077652 -182.0530284 -182.51074763 -182.89326748 -182.99937105 -183.01785885 
-182.78359339 -182.44485755 -181.88309441 -181.19492586 -180.32004261 -179.29109057 -178.11884432 -176.75849687 -175.30588998 
-173.62416214 -171.90930038 
crossSection 1 101 double
1.0304499151 1.0299979897 1.0295463615 1.0290546391 1.0285583316 1.028028392 1.0274900354 1.0269236058 1.0263458693 
1.0257448265 1.0251304178 1.0244967862 1.0238484539 1.0231844013 1.0225049376 1.0218127686 1.0211050122 1.0203871602 
1.019653998 1.0189130166 1.0181573845 1.0173959371 1.0166208196 1.0158416688 1.0150500964 1.014256092 1.0134511376 
1.0126452043 1.0118299766 1.0110151005 1.010192737 1.0093719515 1.0085456088 1.0077219793 1.0068948224 1.0060714308 
1.0052466204 1.0044265486 1.0036072275 1.0027935405 1.0019828188 1.0011785473 1.0003794866 0.99958760965 0.99880320678 
0.998026634 0.99725980424 0.99650135881 0.99575491908 0.99501732084 0.99429397295 0.99357982237 0.99288213683 0.99219389983 
0.99152430028 0.99086429429 0.99022504286 0.98959542428 0.98898860817 0.98839136138 0.98781888071 0.98725580887 0.98671936614 
0.9861920838 0.98569317492 0.98520310274 0.98474300984 0.98429137119 0.9838711572 0.98345897696 0.98307948197 0.9827075873 
0.98236942674 0.98203844978 0.9817420143 0.9814523969 0.98119785393 0.98094985391 0.98073715077 0.98053084999 0.98035971842 
0.98019503204 0.98006499413 0.97994168121 0.97985205637 0.97976973137 0.97971964453 0.97967778948 0.97966618018 0.97966415736 
0.97968978967 0.97972685445 0.97978832771 0.97986364129 0.97995940158 0.98007204343 0.9802003957 0.98034937527 0.98050849621 
0.98069276383 0.98088071544 
