# vtk DataFile Version 4.2
vtk output
ASCII
DATASET STRUCTURED_POINTS
DIMENSIONS 102 2 2
SPACING 0.1 0 0
ORIGIN 0 0 0
CELL_DATA 101
FIELD FieldData 3
velocity 1 101 double
10.927050983 11.006098139 11.083074175 11.158576836 11.231865927 11.303661156 11.373143653 11.44108826 11.506655698 
11.570624959 11.632179755 11.692066117 11.749521391 11.805233238 11.858512703 11.909973208 11.959011098 12.006157198 
12.050898212 12.093679719 12.134078967 12.172457809 12.208480761 12.242430364 12.274052795 12.303557584 12.330765517 
12.35582054 12.378610195 12.399220843 12.417598603 12.433780413 12.447762793 12.459541343 12.469154979 12.476565829 
12.481847479 12.484936177 12.485932742 12.48475486 12.481523417 12.47614462 12.468752467 12.459248597 12.447773303 
12.434230474 12.418759931 12.401274621 12.38190709 12.36058622 12.337430365 12.312391358 12.285566261 12.256937071 
12.226572218 12.194491312 12.160726546 12.125342845 12.088328269 12.049801023 12.00969686 11.968195457 11.925171845 
11.880875542 11.835112268 11.788209837 11.739896 11.690585283 11.63991888 11.588406244 11.535593679 11.482093371 
11.427348888 11.372082279 11.315627312 11.258822035 11.20088448 11.142773465 11.083586883 11.024407274 10.964210023 
10.904202004 10.843236315 10.782641831 10.721152831 10.66021423 10.59844893 10.537407522 10.475613774 10.414708328 
10.353133781 10.292598975 10.231490022 10.171554859 10.111155615 10.052041825 9.9925931291 9.9345135811 9.8762520527 
9.819409198 9.7625663432 
pressure 1 101 double
85.527651153 92.845443991 100.16323683 107.13930195 114.09975184 120.72418381 127.31422506 133.57773332 139.7864925 
145.68046282 151.49901155 157.01556924 162.43669534 167.56876347 172.58676606 177.32811432 181.93862577 186.28390822 
190.4837434 194.42852498 198.21555696 201.75632973 205.12939012 208.26358091 211.22238199 213.94835373 216.49342974 
218.81047851 220.94314303 222.85149286 224.57380992 226.07460694 227.38937326 228.48468064 229.39541685 230.08821164 
230.59916059 230.8933332 231.00946369 230.90982023 230.63683498 230.14910255 229.49344909 228.62428385 227.59316739 
226.35016498 224.95156228 223.34327003 221.58594349 219.62187353 217.51538475 215.20602727 212.7607494 210.11758483 
207.34471299 204.38022221 201.29178134 198.01945267 194.62830216 191.06263393 187.38246841 183.53896593 179.58431176 
175.47947739 171.26568417 166.91699938 162.46022621 157.88612437 153.20332033 148.42314921 143.53202802 138.56600081 
133.4850094 128.35414348 123.10242468 117.82846704 112.42581653 107.03115551 101.49797336 96.005535898 90.362773432 
84.795907687 79.065010339 73.447353386 67.650200604 62.005531398 56.164374736 50.516452587 44.653853314 39.02624243 
33.165010126 27.580890998 21.744024727 16.225993364 10.436627064 5.0064833401 -0.71216291267 -6.0336362854 -11.658297561 
-16.851563642 -22.358962583 
crossSection 1 101 double
1.009721067 1.0105593828 1.011398743 1.0121998806 1.0130001739 1.0137627147 1.0145221515 1.0152447498 1.015961794 
1.0166431867 1.0173165326 1.0179555489 1.0185840975 1.019179668 1.0197625066 1.0203136714 1.0208500555 1.0213559703 
1.0218453084 1.0223052497 1.0227470903 1.0231604586 1.0235544803 1.0239208027 1.0242668062 1.0245857377 1.0248836394 
1.0251549635 1.0254047915 1.02562842 1.0258303112 1.0260062842 1.0261604818 1.0262889675 1.0263958204 1.0264771142 
1.0265370762 1.0265716009 1.0265852307 1.0265735359 1.0265414976 1.0264842598 1.0264073231 1.0263053455 1.0261843862 
1.0260385992 1.0258745996 1.0256860604 1.0254801094 1.0252500025 1.025003296 1.0247329324 1.0244467728 1.0241375902 
1.0238133856 1.0234669471 1.0231062105 1.0227242034 1.0223285509 1.0219127847 1.0214839336 1.021036337 1.0205761032 
1.0200987208 1.0196090151 1.0191040026 1.018586827 1.0180564456 1.0175138888 1.0169604981 1.0163947302 1.0158207805 
1.0152340469 1.0146420697 1.014036685 1.0134292818 1.0128076228 1.0121874537 1.0115519517 1.0109217211 1.0102748547 
1.0096372969 1.0089815834 1.0083394463 1.007677434 1.007033461 1.0063677215 1.0057246332 1.0050577529 1.0044182267 
1.0037528004 1.0031194496 1.0024580728 1.0018334245 1.0011786882 1.0005651606 0.99991964586 0.99931952453 0.99868579875 
0.998101213 0.99748182714 
