# vtk DataFile Version 4.2
vtk output
ASCII
DATASET STRUCTURED_POINTS
DIMENSIONS 102 2 2
SPACING 0.1 0 0
ORIGIN 0 0 0
CELL_DATA 101
FIELD FieldData 3
velocity 1 101 double
8.2366442431 8.1725680214 8.111130766 8.051498084 7.9946875276 7.9397090832 7.8876924253 7.8375510007 7.7904724849 
7.7453219844 7.7033012343 7.6632659666 7.626396739 7.591570982 7.559920332 7.530368204 7.5039760537 7.4797317027 
7.4586107936 7.4396789037 7.4238151108 7.4101717141 7.399524691 7.3911182629 7.385622386 7.3823751947 7.3819407674 
7.3837504442 7.3882651227 7.3950064106 7.4043368115 7.4158634539 7.4298569029 7.4460036281 7.4644900103 7.4850745739 
7.5078682468 7.5326934938 7.5595952283 7.5884511403 7.6192500579 7.6519157553 7.686391232 7.7226369043 7.7605604186 
7.800149163 7.8412860637 7.8839756163 7.9280867934 7.9736311423 8.0204745868 8.0686254591 8.1179577015 8.1684659209 
8.2200433424 8.2726600562 8.3262400688 8.3807178471 8.4360599407 8.4921537537 8.549020411 8.6064884921 8.6646459732 
8.723250575 8.782469578 8.8419776311 8.9020338341 8.9622175176 9.022892011 9.0835292444 9.1446088607 9.2054837288 
9.2667612771 9.3276643982 9.3889388148 9.4496676614 9.5107440842 9.5711032652 9.6317930433 9.6915945554 9.7517152041 
9.81077866 9.8701537705 9.9283066101 9.9867657243 10.043843415 10.101221875 10.157068103 10.213206889 10.267673744 
10.322419304 10.375367462 10.428571555 10.479870445 10.531389999 10.580917976 10.630614966 10.678259461 10.726000839 
10.771658495 10.817316152 
pressure 1 101 double
-168.78940234 -174.74505628 -180.70071022 -186.23827953 -191.75947079 -196.86107078 -201.92739146 -206.57691353 -211.17096002 
-215.35435114 -219.46176437 -223.16725195 -226.77674332 -229.99500776 -233.09836474 -235.82266165 -238.41472892 -240.64096368 
-242.71959727 -244.44635468 -246.0123483 -247.24088066 -248.2978646 -249.032042 -249.58635614 -249.83258297 -249.89312652 
-249.66022852 -249.23828954 -248.53737599 -247.64644448 -246.4907501 -245.14631837 -243.55102949 -241.77038388 -239.75245338 
-237.55446107 -235.13241641 -232.53731093 -229.73105897 -226.76022774 -223.59086011 -220.26663678 -216.75623889 -213.10170287 
-209.2731693 -205.31195447 -201.18881305 -196.94492708 -192.55117334 -188.04882883 -183.40877225 -178.6722303 -173.81035318 
-168.86378004 -163.80460933 -158.6719462 -153.43993853 -148.14478442 -142.76422407 -137.32973169 -131.82464077 -126.27342513 
-120.66748535 -115.0215448 -109.33802947 -103.61867906 -97.880394257 -92.108210979 -86.337444329 -80.53222412 -74.750699909 
-68.931426154 -63.160265057 -57.34508856 -51.604770445 -45.81100082 -40.121329014 -34.365437495 -28.745503004 -23.043136658 
-17.511280929 -11.87728826 -6.4510631742 -0.8995310737 4.4043450196 9.8600430359 15.025734235 20.372878747 25.385486189 
30.611941958 35.457564507 40.551700592 45.217501754 50.168102517 54.64238339 59.438551568 63.71082926 68.341882597 
72.402973144 76.858336479 
crossSection 1 101 double
0.98122279989 0.98056994122 0.97991773391 0.97931189491 0.97870840694 0.97815127767 0.9775984718 0.97709155673 0.97659107704 
0.97613566896 0.97568884176 0.97528600145 0.97489383715 0.97454437834 0.9742075748 0.97391205409 0.97363100193 0.97338971328 
0.97316450324 0.97297747673 0.97280790929 0.97267491354 0.97256051072 0.9724810588 0.97242107795 0.97239443618 0.97238788553 
0.97241308483 0.97245874066 0.97253458998 0.97263101489 0.97275611628 0.97290167844 0.9730744434 0.97326733629 0.97348600299 
0.97372426539 0.97398691638 0.97426845236 0.97457303243 0.974895631 0.97523996498 0.97560131922 0.97598312933 0.97638085487 
0.9767977775 0.97722943009 0.97767903177 0.97814212397 0.97862191646 0.97911393324 0.97962138756 0.9801398009 0.98067236025 
0.98121464259 0.98176973417 0.98233337083 0.98290841658 0.98349091697 0.98408334316 0.98468225106 0.98528949688 0.98590239952 
0.98652192475 0.98714646095 0.98777575274 0.98840961991 0.98904619893 0.98968715913 0.99032858507 0.99097446992 0.99161834657 
0.99226706121 0.99291104132 0.99356056723 0.99420235713 0.99485075387 0.99548811826 0.9961335241 0.99676429092 0.99740492223 
0.99802698793 0.99866113745 0.99927247268 0.99989850651 1.0004971624 1.0011135158 1.001697631 1.0023028028 1.0028706109 
1.003463157 1.0040129956 1.0045915207 1.00512184 1.0056849892 1.0061943626 1.0067408109 1.0072279451 1.0077563871 
1.0082201339 1.0087292721 
