# vtk DataFile Version 4.2
vtk output
ASCII
DATASET STRUCTURED_POINTS
DIMENSIONS 102 2 2
SPACING 0.1 0 0
ORIGIN 0 0 0
CELL_DATA 101
FIELD FieldData 3
velocity 1 101 double
7.1468304511 7.1330280442 7.1232829288 7.1152779575 7.1112294671 7.1089547448 7.1105059277 7.1138621373 7.120889614 
7.1297474465 7.1421030471 7.1563055715 7.1738182127 7.1931834306 7.2156611739 7.239984697 7.267216925 7.2962747307 
7.3280343834 7.3615855913 7.3976314272 7.4354210343 7.4754998785 7.5172614174 7.5611103537 7.6065684404 7.6539169204 
7.7027896552 7.753361512 7.8053627014 7.8588780538 7.9137192426 7.9698962693 8.0272885798 8.0858451522 8.1455009284 
8.2061561007 8.2677903557 8.3302657141 8.3935973853 8.4576182582 8.5223712833 8.5876678126 8.6535720435 8.7198801201 
8.7866720887 8.8537341622 8.9211577135 8.9887234849 9.056530291 9.1243573024 9.1923072722 9.2601614015 9.3280230049 
9.3956788759 9.4632293965 9.5304707159 9.5974964437 9.6641162789 9.730412654 9.7962136618 9.8615853792 9.9263799935 
9.990641083 10.054251666 10.117225556 10.17948452 10.24100409 10.301754003 10.361661628 10.420755294 10.478902896 
10.536203425 10.592452522 10.647833383 10.702055154 10.755400202 10.807475568 10.858679051 10.908498775 10.95746531 
11.004930112 11.051574636 11.096595334 11.140843006 11.183340676 11.225126746 11.265032909 11.304302522 11.341559356 
11.378267302 11.412827877 11.44693828 11.478766812 11.510252747 11.539324876 11.56816792 11.594470992 11.620660711 
11.644194075 11.66772744 
pressure 1 101 double
-273.20723167 -274.31839897 -275.42956626 -276.00145193 -276.54549412 -276.58459358 -276.57026969 -276.08578125 -275.52505433 
-274.5287725 -273.4365497 -271.9427203 -270.33657575 -268.36172103 -266.26160647 -263.82432724 -261.25227566 -258.37303739 
-255.35286504 -252.05377355 -248.6107859 -244.91535783 -241.07606409 -237.00899695 -232.80083729 -228.38778298 -223.8388719 
-219.10621687 -214.24510563 -209.21976038 -204.07521996 -198.78442043 -193.38524579 -187.85636858 -182.23120449 -176.49159704 
-170.66878526 -164.7456117 -158.75305864 -152.673162 -146.53822543 -140.3280065 -134.07739954 -127.76271213 -121.42242292 
-115.02848504 -108.62371017 -102.17503035 -95.730120336 -89.25043795 -82.788852943 -76.301091658 -69.845365398 -63.371598528 
-56.943309036 -50.504735442 -44.124480981 -37.741410158 -31.42878914 -25.120634235 -18.894227788 -12.679505381 -6.5568614785 
-0.45319694029 5.5491846909 11.525047524 17.391730231 23.223916284 28.940541418 34.614029523 40.16733177 45.667938622 
51.045761817 56.360125639 61.55143881 66.667003764 71.661916755 76.566919247 81.356697003 86.040155033 90.617229394 
95.068936118 99.426913778 103.63743647 107.77110148 111.73178719 115.63709611 119.34008552 123.01415297 126.45240393 
129.89347632 133.06079862 136.26821358 139.1593164 142.13344567 144.74399904 147.48617232 149.81288378 152.32529178 
154.36599885 156.65157377 
crossSection 1 101 double
0.96987027357 0.96975052654 0.96963080168 0.9695691914 0.9695105862 0.96950637454 0.96950791745 0.96956010694 0.96962051417 
0.96972785773 0.96984555886 0.970006573 0.97017973789 0.97039271847 0.97061928481 0.97088232492 0.97116002614 0.97147103528 
0.9717974284 0.9721541526 0.97252664551 0.97292668792 0.97334256576 0.97378340726 0.97423985753 0.97471887713 0.97521301332 
0.97572750806 0.97625639148 0.97680359555 0.97736425536 0.97794135834 0.97853080964 0.97913497359 0.97975023364 0.98037860901 
0.98101671158 0.98166645186 0.9823244598 0.98299273479 0.983667751 0.98435175878 0.98504093567 0.98573791312 0.98643846085 
0.98714569287 0.98785488636 0.98856971381 0.98928489888 0.99000472528 0.99072332388 0.99144562102 0.99216513596 0.99288744843 
0.99360546751 0.99432541632 0.99503961616 0.99575490154 0.99646305115 0.99717145465 0.99787141888 0.9985708048 0.99926054776 
0.99994886416 1.0006264526 1.0013017319 1.0019653388 1.0026256978 1.0032736059 1.0039172462 1.0045478517 1.0051730593 
1.0057848756 1.0063900213 1.0069816826 1.0075652214 1.0081354868 1.0086959585 1.0092437152 1.0097797448 1.0103040112 
1.0108143096 1.0113142385 1.0117976042 1.012272484 1.0127278054 1.0131770615 1.0136033195 1.0140265142 1.0144227867 
1.0148196169 1.0151850836 1.0155553778 1.0158893275 1.0162330395 1.0165348778 1.0168520791 1.0171213383 1.0174122074 
1.017648558 1.0179133666 
