# vtk DataFile Version 4.2
vtk output
ASCII
DATASET STRUCTURED_POINTS
DIMENSIONS 102 2 2
SPACING 0.1 0 0
ORIGIN 0 0 0
CELL_DATA 101
FIELD FieldData 3
velocity 1 101 double
12.427050983 12.465943382 12.50157237 12.535479834 12.566182665 12.595107322 12.62090548 12.644863126 12.665784554 
12.684803429 12.700883195 12.715002986 12.726283852 12.735554918 12.742087832 12.746570625 12.748415136 12.748179808 
12.745404407 12.740530561 12.733212978 12.723789544 12.712016995 12.698142207 12.682011611 12.663793052 12.643411216 
12.620965918 12.5964497 12.569904271 12.541380712 12.510871481 12.47847791 12.44415106 12.408035168 12.370046856 
12.330366724 12.28888316 12.245807244 12.201004731 12.154711785 12.106776687 12.057455623 12.006584275 11.95443394 
11.900832466 11.846061348 11.789945389 11.732771212 11.674365558 11.615014792 11.554552901 11.493260159 11.430983569 
11.367990897 11.304148518 11.23970457 11.174551862 11.108910971 11.042709005 10.976130138 10.909144543 10.841890165 
10.774389965 10.706724801 10.638981157 10.571170876 10.503455735 10.435765565 10.368350232 10.301043524 10.234197174 
10.16753393 10.101522069 10.035757462 9.970840359 9.9062232577 9.8426543726 9.7794258988 9.7174503086 9.6558424501 
9.595695308 9.5359296092 9.4778346468 9.4201209993 9.3642890912 9.3088246473 9.2554524543 9.2024206813 9.1516893856 
9.1012592795 9.0533334243 9.0056588978 8.9606853404 8.9159047971 8.8740117829 8.8322478867 8.7935442484 8.7549038933 
8.7194783769 8.6840528605 
pressure 1 101 double
225.11231599 228.55436938 231.99642277 234.99419476 237.95745863 240.51210722 243.00004817 245.11306078 247.1303298 
248.80368984 250.35592936 251.59224688 252.6859464 253.48855704 254.13095085 254.50398862 254.70298881 254.65143806 
254.41559599 253.94532756 253.28381769 252.40161382 251.32423442 250.03780569 248.55499167 246.87298898 244.995833 
242.92785633 240.66813479 238.22474011 235.59494138 232.78764636 229.80099899 226.64228767 223.31278655 219.81611287 
216.15854191 212.33833148 208.36828122 204.23993078 199.97380981 195.55368338 191.00872246 186.31414334 181.50839123 
176.55762866 171.50993879 166.32218858 161.05219582 155.64755367 150.17564054 144.57506743 138.92231934 133.14759807 
127.33574715 121.40942944 115.46078701 109.40613073 103.34350826 97.18440449 91.031023519 84.791913382 78.571304847 
72.277086239 66.012980103 59.68890468 53.405110868 47.0766719 40.796953899 34.489765791 28.237708496 21.977378974 
15.776252612 9.5882487425 3.4608709371 -2.6296197052 -8.6610215124 -14.629233108 -20.543156484 -26.364889195 -32.140686305 
-37.792450985 -43.410450386 -48.86961236 -54.31123043 -59.556151031 -64.803990489 -69.8141652 -74.852098261 -79.608290552 
-84.421524368 -88.905894571 -93.481016754 -97.677245664 -102.00224788 -105.89565512 -109.95993295 -113.53759047 -117.33191788 
-120.58275951 -124.09923665 
crossSection 1 101 double
1.0258934475 1.0262971432 1.0267010773 1.0270530682 1.027401185 1.0277014409 1.027993983 1.0282425375 1.0284799139 
1.0286768841 1.0288596478 1.0290052492 1.0291340801 1.0292286381 1.0293043297 1.0293482877 1.0293717386 1.0293656636 
1.0293378714 1.0292824573 1.0292045159 1.0291005852 1.0289736827 1.0288221874 1.0286476064 1.0284496274 1.0282287456 
1.0279854926 1.0277197836 1.0274325933 1.0271236281 1.0267939632 1.026443411 1.0260728584 1.0256824873 1.0252727558 
1.0248444333 1.0243973513 1.0239330434 1.0234505566 1.0229523266 1.0224364943 1.0219065004 1.0213594919 1.0207999844 
1.0202240748 1.0196373915 1.0190349564 1.0184235173 1.0177970273 1.017163328 1.0165153415 1.0158619459 1.0151951019 
1.0145246331 1.0138416428 1.013156773 1.0124604101 1.0117638502 1.0110569409 1.0103514281 1.0096368397 1.0089251248 
1.0082057538 1.0074905879 1.006769347 1.0060534669 1.0053332721 1.004619386 1.0039031422 1.0031939147 1.0024845017 
1.001782539 1.0010827966 1.0003906319 0.99970334521 0.99902342423 0.99835130925 0.99768597681 0.99703166548 0.99638315277 
0.99574917886 0.99511959197 0.9945083772 0.99389968692 0.99331352762 0.99272756093 0.99216861524 0.99160704864 0.99107732442 
0.99054167919 0.99004302252 0.98953466228 0.98906874658 0.98858887719 0.98815719293 0.98770686485 0.98731070973 0.98689082307 
0.98653129247 0.98614260477 
