# vtk DataFile Version 4.2
vtk output
ASCII
DATASET STRUCTURED_POINTS
DIMENSIONS 102 2 2
SPACING 0.1 0 0
ORIGIN 0 0 0
CELL_DATA 101
FIELD FieldData 3
velocity 1 101 double
12.427050983 12.465978777 12.501626149 12.535567822 12.56628946 12.595247129 12.621065667 12.645055233 12.666000255 
12.685050862 12.701160415 12.715314952 12.726637579 12.735954114 12.74255144 12.747105247 12.749054968 12.748940825 
12.746339817 12.74167425 12.73464145 12.725564664 12.714243425 12.700920685 12.685480357 12.668102681 12.648739271 
12.627523313 12.604459155 12.579646251 12.553128711 12.524983101 12.495282377 12.464088675 12.431494831 12.397554836 
12.362374205 12.326003203 12.288554333 12.250077023 12.210686341 12.170432554 12.129429896 12.087730252 12.045444431 
12.002626082 11.959380618 11.915763196 11.871872335 11.827764222 11.78352933 11.739224324 11.694930732 11.650705184 
11.606619528 11.56272998 11.519098074 11.475779426 11.432824656 11.390288857 11.348211111 11.306646355 11.265621444 
11.225191856 11.185371396 11.146217153 11.10772886 11.069966706 11.03291506 10.996639159 10.961106369 10.926389441 
10.892436666 10.859331353 10.827000112 10.795540515 10.764854233 10.735057574 10.706023227 10.677891577 10.650501371 
10.624023417 10.59825648 10.573409282 10.549233322 10.52598403 10.503356935 10.481664446 10.460535805 10.440352328 
10.420664865 10.401937381 10.383628277 10.366299881 10.349301997 10.333313105 10.317556092 10.302845512 10.288256831 
10.274762678 10.261268526 
pressure 1 101 double
226.00300409 229.44462368 232.88624327 235.88428155 238.84741098 241.40299077 243.89108473 246.0056646 248.02338676 
249.69898836 251.25211648 252.49156786 253.58701714 254.39422846 255.04016415 255.42043313 255.62643948 255.58676644 
255.36404093 254.91342509 254.27496964 253.42465838 252.38544333 251.14911138 249.72619255 248.1200362 246.33261008 
244.37535007 242.24473778 239.95753145 237.50708816 234.91335711 232.1683088 229.29349231 226.28070627 223.15195367 
219.89965251 216.54546887 213.08290039 209.53276042 205.88983695 202.17378179 198.3807029 194.52893354 190.61580559 
186.6582856 182.65475052 178.620829 174.55571322 170.4737771 166.37476986 162.27193294 158.1653009 154.06713513 
149.97747854 145.90779115 141.85784473 137.83850286 133.84898286 129.89978611 125.98928336 122.12788284 118.31280003 
114.55466176 110.84919219 107.20760139 103.6237454 100.10984773 96.657462341 93.280337374 89.967214452 86.73397664 
83.56594435 80.481866503 77.462909012 74.531563546 71.663953918 68.887367266 66.171808876 63.550624769 60.98639693 
58.520044676 56.105148641 53.792012989 51.523314957 49.360904628 47.23427296 45.219385365 43.229819795 41.358699838 
39.500451122 37.768942288 36.035621344 34.439307527 32.82398375 31.358320447 29.853609495 28.514043032 27.112185107 
25.894258385 24.587188789 
crossSection 1 101 double
1.0259978876 1.0264015941 1.0268055389 1.0271576148 1.027505769 1.0278061802 1.028098785 1.028347562 1.028585028 
1.0287822924 1.0289651889 1.0291111818 1.0292402388 1.0293353535 1.0294114744 1.0294562915 1.0294805718 1.0294758958 
1.0294496451 1.029396538 1.0293213003 1.0292211095 1.0290986804 1.0289530575 1.0287854955 1.0285964048 1.0283860347 
1.0281557501 1.0279051573 1.0276362487 1.0273482652 1.027043574 1.0267212549 1.0263838612 1.0260304536 1.0256636359 
1.0252825419 1.024889732 1.0244844658 1.0240691996 1.0236433428 1.0232092106 1.0227663647 1.0223169608 1.0218607012 
1.0213995761 1.020933407 1.0204640224 1.0199913355 1.019517023 1.0190410598 1.0185649857 1.0180888051 1.0176139391 
1.0171403901 1.0166694815 1.0162011817 1.0157367406 1.0152760603 1.0148203448 1.0143693966 1.0139244056 1.0134850398 
1.0130525113 1.0126263155 1.0122077288 1.0117960319 1.0113926154 1.0109964957 1.0106092364 1.0102295325 1.0098591901 
1.009496514 1.0091436367 1.0087983896 1.0084633312 1.0081357195 1.0078186589 1.0075087118 1.0072096719 1.0069172587 
1.006636127 1.0063609746 1.0060975226 1.0058392322 1.0055931352 1.0053511981 1.0051220542 1.0048958669 1.004683215 
1.0044720926 1.0042754296 1.0040786185 1.0038974152 1.003714104 1.00354782 1.003377149 1.003225246 1.0030663162 
1.0029282696 1.0027801507 
