# vtk DataFile Version 4.2
vtk output
ASCII
DATASET STRUCTURED_POINTS
DIMENSIONS 102 2 2
SPACING 0.1 0 0
ORIGIN 0 0 0
CELL_DATA 101
FIELD FieldData 3
velocity 1 101 double
8.2366442431 8.318976237 8.4027514355 8.4863505697 8.5709960427 8.6554867345 8.7406671424 8.825687756 8.9110810392 
8.9962851769 9.0815826873 9.1666401086 9.2515466665 9.3361438681 9.4203777673 9.5042182642 9.5875112427 9.6703155952 
9.7524127761 9.8339184113 9.9145782173 9.9945390913 10.07353313 10.151719273 10.228832197 10.305029178 10.380058511 
10.454066857 10.526822798 10.598457394 10.668762588 10.737852076 10.805541367 10.871927568 10.936847734 11.000385091 
11.062394569 11.122949634 11.181918243 11.239369197 11.295177867 11.349414095 11.401954597 11.452876302 11.502051012 
11.549568877 11.595290545 11.639325441 11.681517001 11.721999738 11.760594146 11.797465262 11.832405367 11.865614965 
11.896853419 11.92636103 11.953860238 11.979634729 12.003366835 12.025386335 12.04533325 12.063585116 12.079738575 
12.094219377 12.106581035 12.117296564 12.125878123 12.132843408 12.137666767 12.140906114 12.142003545 12.141550571 
12.138964908 12.134862589 12.128647423 12.120948127 12.111168011 12.099933531 12.086664164 12.07196573 12.055294142 
12.037212415 12.017237108 11.995862153 11.97269321 11.948124438 11.92188358 11.894229658 11.865050235 11.834428966 
11.802455865 11.768994026 11.734383487 11.698216641 11.661135959 11.622408231 11.583035324 11.541899152 11.500421992 
11.457037857 11.413653722 
pressure 1 101 double
-169.16293858 -161.18249573 -153.20205287 -145.13891955 -137.05974575 -128.94485608 -120.80466057 -112.66789817 -104.50246205 
-96.37263259 -88.21572798 -80.120532217 -72.003887354 -63.969893747 -55.923197329 -47.975814603 -40.026752177 -32.19020296 
-24.364517998 -16.661815037 -8.983387781 -1.4363142205 6.0727479336 13.443652962 20.762918941 27.93836848 35.048985314 
42.010946029 48.895542396 55.627229342 62.269823371 68.755688521 75.14160157 81.367316852 87.483094359 93.435530106 
99.268870109 104.93606994 110.47575951 115.84691269 121.0827722 126.14818451 131.07101948 135.82208354 140.42364379 
144.85280962 149.12575518 153.22650173 157.16437534 160.93118314 164.52838905 167.95671455 171.2085031 174.2947546 
177.19721261 179.93872787 182.48877441 184.8837996 187.07918714 189.12685694 190.96617768 192.66649598 194.14919325 
195.50301404 196.62939846 197.63840656 198.40967681 199.07636759 199.49463567 199.82229329 199.89061394 199.88328734 
199.60569134 199.26816759 198.64969835 197.98747279 197.03422574 196.05346851 194.77263262 193.48015105 191.88005182 
190.2832485 188.37339136 186.48021795 184.27133086 182.09023775 179.59431157 177.13419401 174.36451912 171.63466022 
168.60585755 165.6158695 162.34391376 159.10367857 155.60591118 152.12552294 148.42065192 144.71036294 140.81844657 
136.88862017 132.83103115 
crossSection 1 101 double
0.9811818337 0.98205761751 0.9829345744 0.98382181153 0.9847120191 0.98560737887 0.98650675823 0.9874069891 0.9883116317 
0.98921356513 0.99011974371 0.99102029847 0.99192447344 0.99282066039 0.99371948228 0.99460840939 0.99549871805 0.99637759572 
0.99725641692 0.99812256322 0.99898710336 0.99983794899 1.0006855885 1.0015186814 1.0023469676 1.0031599767 1.0039666161 
1.0047573348 1.0055401856 1.006306534 1.007063599 1.0078036261 1.008533046 1.0092449302 1.0099449776 1.0106270277 
1.0112961019 1.0119467566 1.0125833789 1.0132012067 1.0138040166 1.0143877148 1.0149554666 1.0155038602 1.0160354211 
1.0165474617 1.0170418091 1.0175165736 1.0179727944 1.0184094836 1.0188267731 1.0192247105 1.0196023722 1.0199610027 
1.0202984486 1.0206173367 1.0209140877 1.0211929167 1.0214486042 1.0216871742 1.0219015411 1.0220997678 1.0222726708 
1.0224305834 1.0225619951 1.0226797345 1.0227697464 1.0228475628 1.0228963877 1.022934638 1.022942614 1.0229417586 
1.022909352 1.0228699514 1.0227977608 1.0227204712 1.0226092313 1.0224948 1.0223453856 1.0221946458 1.0220080753 
1.0218219401 1.0215993797 1.0213788353 1.0211216022 1.0208677012 1.0205772666 1.0202911201 1.0199691117 1.0196518815 
1.019300085 1.0189529754 1.0185733351 1.0181975843 1.0177922024 1.0173890749 1.0169602091 1.0165309879 1.0160810472 
1.0156270267 1.0151585649 
