# vtk DataFile Version 4.2
vtk output
ASCII
DATASET STRUCTURED_POINTS
DIMENSIONS 102 2 2
SPACING 0.1 0 0
ORIGIN 0 0 0
CELL_DATA 101
FIELD FieldData 3
velocity 1 101 double
12.427050983 12.465907997 12.501529818 12.535402878 12.566097718 12.594989021 12.62077857 12.644703968 12.665616384 
12.684604163 12.700674721 12.714764602 12.72603627 12.735278633 12.741802555 12.746257865 12.748093771 12.74783218 
12.745048731 12.740149827 12.73282491 12.723377595 12.711598566 12.697701031 12.68156493 12.663324707 12.64293844 
12.620472498 12.595953 12.569387875 12.540862246 12.510334183 12.477939788 12.443594883 12.407479424 12.369473741 
12.329795289 12.288294945 12.245221922 12.200403121 12.154114229 12.106163234 12.056847319 12.00596036 11.953816185 
11.900199285 11.845435231 11.789303934 11.732137609 11.67371661 11.614374351 11.553897018 11.492613296 11.430321079 
11.367337787 11.303479515 11.23904515 11.173876209 11.108244933 11.042026328 10.975456938 10.908454237 10.841209021 
10.7736912 10.706034701 10.638272882 10.570470585 10.502736689 10.435053636 10.367618954 10.30031831 10.23345201 
10.166793599 10.100761192 10.03500001 9.9700617793 9.9054465299 9.8418559555 9.7786276024 9.7166297914 9.6550201757 
9.5948503177 9.5350808499 9.4769627184 9.4192431708 9.3633876866 9.3079151081 9.2545189807 9.201476753 9.1507212141 
9.1002782658 9.0523279073 9.0046381025 8.9596398282 8.9148415402 8.8729236374 8.8311395185 8.7924108541 8.7537478055 
8.7182971494 8.6828464933 
pressure 1 101 double
225.02534985 228.46788006 231.91041027 234.90799308 237.87243395 240.42626407 242.91603376 245.02763284 247.0473369 
248.71871976 250.27395874 251.50776365 252.60498936 253.40457676 254.05099039 254.42051551 254.62400078 254.56846564 
254.33755042 253.86283995 253.20668018 252.31958697 251.24796744 249.95620873 248.47955579 246.79178555 244.92118785 
242.84700587 240.59423992 238.14419894 235.52175694 232.70736855 229.72848613 226.56222578 223.2409075 219.73621852 
216.0872597 212.25855566 208.29755924 204.16022378 199.90361118 195.4739944 190.93900924 186.23441989 181.43912325 
176.47781584 171.44107239 166.24222819 160.98368229 155.56738321 150.10742468 144.49461885 138.85433795 133.06679648 
127.26792759 121.32819185 115.39304572 109.32436483 103.27574947 97.102007572 90.963138023 84.708771384 78.503169067 
72.193072982 65.944455319 59.603881353 53.3360427 46.990486815 40.727172063 34.402254386 28.167026871 21.888364042 
15.704469649 9.4975408995 3.3877703769 -2.7222213134 -8.735669638 -14.723939847 -20.619594598 -26.461921764 -32.219167799 
-37.892038054 -43.491237939 -48.971989061 -54.394594177 -59.661557331 -64.890206087 -69.922844235 -74.941444909 -79.720486947 
-84.51428284 -89.021852817 -93.57746753 -97.797208598 -102.10266944 -106.01986257 -110.06460026 -113.66627817 -117.4411012 
-120.71615834 -124.21320067 
crossSection 1 101 double
1.0258832509 1.0262869966 1.0266909806 1.027042944 1.0273911941 1.0276913494 1.0279841022 1.0282324868 1.0284701463 
1.0286668809 1.0288499952 1.0289952986 1.0291245431 1.0292187435 1.0292949077 1.0293384512 1.0293624303 1.0293558858 
1.0293286746 1.0292727379 1.0291954278 1.0290909226 1.0289647002 1.0288125793 1.028638726 1.0284400709 1.0282199637 
1.027975984 1.0277110964 1.0274231288 1.0271150319 1.0267845384 1.0264349022 1.0260634688 1.0256740622 1.0252633968 
1.0248360884 1.0243880182 1.0239247752 1.0234412445 1.0229441313 1.0224271981 1.0218983742 1.0213502064 1.0207919233 
1.0202147944 1.0196293908 1.0190256751 1.0184155718 1.0177877385 1.0171554317 1.0165060381 1.0158540919 1.0151857759 
1.0145168132 1.0138322852 1.0131489779 1.0124510109 1.0117560692 1.0110474889 1.0103436488 1.0096273223 1.0089173334 
1.008196157 1.0074827687 1.0067596556 1.0060456026 1.0053234693 1.0046114574 1.0038932098 1.003185901 1.00247442 
1.0017744176 1.0010725447 1.0003823786 0.99969290097 0.99901501348 0.99834064925 0.99767738167 0.99702076533 0.99637434514 
0.99573801333 0.99511054278 0.99449692035 0.99389036633 0.99330175298 0.99271793854 0.99215649601 0.99159709368 0.9910648336 
0.99053136074 0.99003013309 0.98952394946 0.98905543169 0.98857773932 0.988143426 0.98769527162 0.98729646455 0.98687874462 
0.98651654327 0.9861300118 
