# vtk DataFile Version 4.2
vtk output
ASCII
DATASET STRUCTURED_POINTS
DIMENSIONS 102 2 2
SPACING 0.1 0 0
ORIGIN 0 0 0
CELL_DATA 101
FIELD FieldData 3
velocity 1 101 double
11.763355757 11.684992705 11.604866229 11.524742699 11.443198052 11.361610274 11.278914402 11.196163582 11.112592156 
11.028983872 10.944820358 10.860663829 10.776198355 10.691805571 10.60733362 10.523018309 10.438839251 10.354915681 
10.271331169 10.188112798 10.10542504 10.023223011 9.9417329368 9.8608544562 9.7808598134 9.7016064205 9.6233998043 
9.5460655758 9.4699324342 9.3948021484 9.3210187872 9.2483660818 9.1771977028 9.1072832625 9.0389820669 8.9720518756 
8.9068552624 8.843138955 8.7812678453 8.7209771908 8.6626345049 8.6059620524 8.5513313637 8.4984492742 8.4476936623 
8.3987527477 8.3520138677 8.3071428513 8.2645402301 8.2238452414 8.185475806 8.1490401142 8.1149779532 8.0828619405 
8.0531582953 8.0253996621 8.0000831391 7.976697332 7.9557743241 7.9367551723 7.9202104703 7.9055310129 7.8933285896 
7.8829420739 7.875026017 7.8688670446 7.8651626166 7.8631484129 7.8635632162 7.865594996 7.8700202205 7.8759846255 
7.8842963557 7.8940669401 7.9061274991 7.9195662405 7.9352255515 7.9521843644 7.9712813134 7.991603543 8.0139673297 
8.0374892074 8.0629406704 8.0894927143 8.1178456213 8.1472539673 8.1783162643 8.2104039129 8.2439789278 8.2785668942 
8.3144544954 8.351362855 8.3893605594 8.4284093851 8.4683134152 8.5093236026 8.5509298961 8.5937238705 8.6368290485 
8.6812313495 8.7256336505 
pressure 1 101 double
163.01945832 155.69076607 148.36207382 140.89407909 133.39603995 125.80904098 118.17170671 110.48756846 102.74096609 
94.982963123 87.157133038 79.349780932 71.474791851 63.643669309 55.749607779 47.921170955 40.038104783 32.239494468 
24.397410783 16.656252926 8.884972388 1.2291726651 -6.4417579655 -13.984224706 -21.525658744 -28.926962968 -36.310295506 
-43.542969647 -50.74029141 -57.777446475 -64.761706129 -71.57724584 -78.322416842 -84.89124667 -91.372494657 -97.670722913 
-103.86456976 -109.86969782 -115.75417862 -121.44527742 -127.00008685 -132.35795685 -137.56458193 -142.57189411 -147.41373049 
-152.05514617 -156.51759584 -160.77986361 -164.85041216 -168.72244082 -172.39071321 -175.86361981 -179.12141402 -182.18854687 
-185.02984566 -187.68678237 -190.10774362 -192.35226513 -194.35119188 -196.1832335 -197.76052528 -199.18210636 -200.34019374 
-201.35532772 -202.09859236 -202.71317928 -203.04786194 -203.26956554 -203.20366471 -203.04177657 -202.58494019 -202.05023311 
-201.21364595 -200.31821918 -199.11448828 -197.87160655 -196.31464706 -194.73857569 -192.84349899 -190.94933692 -188.73234296 
-186.5358556 -184.01413063 -181.5315843 -178.72320513 -175.97120447 -172.89504986 -169.89037987 -166.56604935 -163.32552328 
-159.77326316 -156.31357785 -152.5542138 -148.89181353 -144.94668907 -141.09763925 -136.9885589 -132.96843069 -128.71760651 
-124.54137368 -120.17137321 
crossSection 1 101 double
1.0186517002 1.017802034 1.0169534305 1.0160897881 1.0152237776 1.0143486188 1.0134687962 1.0125847366 1.0116946609 
1.0108044509 1.0099076478 1.009014151 1.0081141142 1.0072202847 1.006320474 1.0054293338 1.0045331706 1.0036477869 
1.0027586475 1.0018821095 1.0010033161 1.0001387117 0.99927352152 0.9984239147 0.99757550706 0.99674391497 0.99591537775 
0.99510474827 0.99429906312 0.9935122531 0.99273228027 0.99197203452 0.99122049762 0.99048942896 0.9897689 0.98906947056 
0.98838235566 0.98771685969 0.98706538581 0.98643593428 0.9858221372 0.98523064422 0.9846563581 0.98410452955 0.9835713782 
0.9830607025 0.98257009261 0.98210183393 0.9816549502 0.98123014392 0.98082794637 0.98044739699 0.98009062019 0.97975490159 
0.97944405595 0.97915351384 0.97888888874 0.97864364535 0.97842531398 0.97822527469 0.97805310048 0.97789796231 0.97777160667 
0.97766086842 0.9775797996 0.97751277343 0.97747627621 0.97745210051 0.97745928658 0.97747693981 0.97752675848 0.97758507389 
0.97767632298 0.97777400403 0.97790534068 0.97804097677 0.97821092809 0.97838301071 0.9785899839 0.97879692284 0.97903921485 
0.97927935444 0.97955516088 0.9798267961 0.98013421953 0.98043561177 0.98077266911 0.98110206164 0.98146669095 0.98182232385 
0.98221239026 0.98259251471 0.98300581585 0.98340870769 0.98384297851 0.98426695094 0.98471986823 0.98516328351 0.98563247013 
0.98609375018 0.98657677936 
