/*--------------------------------*- C++ -*----------------------------------*\
| =========                 |                                                 |
| \\      /  F ield         | OpenFOAM: The Open Source CFD Toolbox           |
|  \\    /   O peration     | Version:  2006                                  |
|   \\  /    A nd           | Website:  www.openfoam.com                      |
|    \\/     M anipulation  |                                                 |
\*---------------------------------------------------------------------------*/
FoamFile
{
    version     2.0;
    format      ascii;
    class       volScalarField;
    location    "0.1";
    object      p;
}
// * * * * * * * * * * * * * * * * * * * * * * * * * * * * * * * * * * * * * //

dimensions      [0 2 -2 0 0 0 0];


internalField   nonuniform List<scalar> 
2790
(
70.8504
70.7387
70.9622
71.4673
72.1611
73.0115
74.0152
75.1706
76.4735
77.9192
79.5038
81.224
83.0758
85.0541
87.1516
89.3582
91.6604
94.0408
96.4774
98.9432
101.406
103.828
106.166
108.372
110.395
112.186
113.697
114.918
115.641
116.46
70.6533
70.6523
70.9012
71.4042
72.0953
72.9441
73.9451
75.0966
76.3945
77.8342
79.4121
81.1248
82.9685
84.9382
87.027
89.2251
91.5196
93.8935
96.3255
98.7894
101.253
103.68
106.027
108.247
110.287
112.097
113.624
114.88
115.569
116.409
70.466
70.535
70.8035
71.2971
71.9769
72.8154
73.8049
74.9427
76.2249
77.6469
79.2051
80.896
82.7159
84.66
86.7215
88.8913
91.1569
93.5023
95.9072
98.3465
100.79
103.202
105.54
107.758
109.804
111.625
113.161
114.453
115.087
115.943
70.258
70.3581
70.64
71.1265
71.7937
72.6188
73.5924
74.7108
75.9701
77.3658
78.8942
80.5519
82.3351
84.2391
86.2577
88.3819
90.6002
92.8975
95.2548
97.6485
100.05
102.426
104.736
106.935
108.971
110.791
112.323
113.64
114.216
115.077
70.0195
70.134
70.4252
70.9056
71.5582
72.3648
73.3161
74.4077
75.6355
76.9952
78.4829
80.0951
81.8281
83.6774
85.6367
87.6977
89.8496
92.0783
94.3662
96.6917
99.0287
101.346
103.606
105.766
107.775
109.581
111.102
112.441
112.981
113.872
69.7462
69.8669
70.1613
70.6332
71.268
72.0513
72.9745
74.0326
75.2214
76.5362
77.9732
79.5285
81.1985
82.9785
84.8625
86.8426
88.9083
91.0468
93.2418
95.4736
97.7188
99.9491
102.131
104.225
106.185
107.961
109.46
110.822
111.346
112.269
69.4364
69.5585
69.8508
70.3112
70.9252
71.681
72.5708
73.5893
74.7315
75.993
77.3694
78.8568
80.4512
82.1478
83.9405
85.8215
87.7808
89.8063
91.8828
93.9927
96.1148
98.2244
100.292
102.285
104.161
105.88
107.343
108.725
109.263
110.271
69.0896
69.2101
69.4963
69.9418
70.5321
71.2564
72.1077
73.0805
74.1694
75.3694
76.676
78.0849
79.5917
81.1911
82.8768
84.6408
86.4731
88.3617
90.2925
92.2488
94.2117
96.1599
98.0688
99.9111
101.654
103.272
104.664
106.046
106.615
107.762
68.7061
68.8233
69.1
69.5276
70.091
70.7801
71.5883
72.5098
73.5388
74.67
75.8983
77.2189
78.6266
80.1158
81.6794
83.3087
84.9933
86.7208
88.4769
90.2453
92.0082
93.7463
95.4392
97.0659
98.6038
100.043
101.295
102.613
103.176
104.439
68.2871
68.3995
68.6641
69.071
69.6045
70.255
71.0159
71.8811
72.8445
73.9001
75.0422
76.2654
77.5637
78.9305
80.3577
81.8354
83.3522
84.8944
86.4462
87.9904
89.5081
90.98
92.387
93.7124
94.9418
96.0841
97.0676
98.195
98.6612
99.9868
67.834
67.9405
68.191
68.5746
69.0756
69.6843
70.3942
71.1987
72.0912
73.0652
74.1143
75.2321
76.4117
77.6451
78.9229
80.2336
81.5637
82.8972
84.2157
85.4986
86.7235
87.8669
88.9062
89.8224
90.6026
91.2688
91.7741
92.481
92.6722
94.0068
67.3485
67.4484
67.683
68.0412
68.5073
69.0715
69.727
70.4671
71.2844
72.1717
73.1218
74.1273
75.1801
76.2707
77.3878
78.5179
79.6445
80.7482
81.8064
82.7927
83.6774
84.4277
85.0091
85.3887
85.5389
85.4749
85.1635
85.0292
84.5445
85.7235
66.8326
66.9253
67.1426
67.4737
67.9028
68.4202
69.0187
69.6911
70.4295
71.2259
72.0722
72.96
73.8795
74.8196
75.7669
76.7051
77.6143
78.4707
79.2456
79.9045
80.4063
80.7026
80.736
80.4422
79.7497
78.6194
76.9718
75.2238
73.1042
73.4618
66.2885
66.3735
66.5726
66.875
67.2655
67.7342
68.2735
68.8757
69.5324
70.2348
70.9737
71.7394
72.5209
73.3049
74.0757
74.8139
75.4958
76.0921
76.5668
76.8754
76.9618
76.7556
76.1656
75.0741
73.3248
70.7413
67.0432
62.3495
56.3314
53.3179
65.7185
65.7955
65.9755
66.2481
66.5987
67.0172
67.4958
68.026
68.599
69.2051
69.8342
70.4752
71.1156
71.7401
72.3305
72.8642
73.3132
73.6426
73.8086
73.7551
73.4095
72.6754
71.42
69.4555
66.5007
62.1415
55.64
46.0941
31.1866
13.6272
-102.277
-101.742
-101.725
-100.837
-99.4387
-97.147
-93.7647
-89.1604
-83.3251
-76.4088
-68.7125
-60.6163
-52.376
-44.2047
-36.4923
-29.5868
-23.6057
-18.5634
-14.4088
-11.05
-8.37594
-6.27161
-4.62894
-3.35211
-2.35982
-1.58539
-0.975518
-0.48868
-0.0937439
0.231646
-102.713
-102.194
-102.293
-101.475
-100.178
-97.951
-94.5891
-89.9575
-84.0611
-77.0613
-69.2705
-61.0845
-52.7658
-44.5179
-36.7394
-29.7863
-23.7686
-18.6974
-14.5197
-11.1422
-8.45267
-6.33541
-4.68178
-3.39561
-2.39535
-1.61411
-0.998401
-0.506391
-0.105991
0.232925
-103.676
-103.267
-103.542
-102.872
-101.748
-99.6313
-96.2948
-91.6023
-85.5673
-78.37
-70.3544
-61.9518
-53.449
-45.0245
-37.0878
-30.0283
-23.9386
-18.8195
-14.6108
-11.2134
-8.5106
-6.384
-4.72315
-3.43087
-2.42512
-1.6388
-1.01831
-0.521657
-0.116221
0.231721
-105.267
-105.057
-105.581
-105.17
-104.317
-102.388
-99.1042
-94.3194
-88.0492
-80.5086
-72.1033
-63.3234
-54.4916
-45.7712
-37.5839
-30.3576
-24.159
-18.9711
-14.7207
-11.2984
-8.58043
-6.44369
-4.77505
-3.47591
-2.46365
-1.67098
-1.04435
-0.54172
-0.13034
0.225694
-107.634
-107.688
-108.574
-108.577
-108.14
-106.508
-103.323
-98.4069
-91.7689
-83.6871
-74.6757
-65.314
-55.9626
-46.7943
-38.2548
-30.7913
-24.439
-19.1559
-14.849
-11.3943
-8.65765
-6.50921
-4.83201
-3.52548
-2.50615
-1.70652
-1.07306
-0.563851
-0.146241
0.217178
-110.924
-111.356
-112.768
-113.405
-113.591
-112.408
-109.373
-104.25
-97.036
-88.1338
-78.2299
-68.0301
-57.9176
-48.1151
-39.1202
-31.3448
-24.7906
-19.3834
-15.0039
-11.5081
-8.74799
-6.58528
-4.89791
-3.58273
-2.55518
-1.74748
-1.10617
-0.589499
-0.165081
0.205595
-115.426
-116.341
-118.486
-120.045
-121.121
-120.569
-117.711
-112.225
-104.112
-94.0158
-82.8636
-71.5176
-60.3699
-49.7282
-40.1799
-32.0206
-25.2176
-19.6583
-15.1897
-11.6434
-8.85444
-6.67404
-4.9741
-3.64841
-2.61107
-1.79394
-1.14362
-0.618566
-0.186719
0.191152
-121.368
-122.9
-126.032
-128.865
-131.148
-131.405
-128.669
-122.557
-113.093
-101.351
-88.5539
-75.7072
-63.2531
-51.6022
-41.4091
-32.8044
-25.7135
-19.9788
-15.4076
-11.8025
-8.97942
-6.77758
-5.06222
-3.72369
-2.67464
-1.84647
-1.18583
-0.651376
-0.211394
0.173693
-128.733
-131.107
-135.529
-140.028
-143.863
-145.083
-142.336
-135.135
-123.786
-109.93
-95.1112
-80.3998
-66.3963
-53.6772
-42.7557
-33.6617
-26.2595
-20.3361
-15.6544
-11.9851
-9.12365
-6.89688
-5.16308
-3.80915
-2.74624
-1.90528
-1.23291
-0.688007
-0.239145
0.153201
-137.304
-140.713
-146.708
-153.261
-158.98
-161.243
-158.178
-149.373
-135.627
-119.283
-102.111
-85.3019
-69.6268
-55.8108
-44.1295
-34.5372
-26.8239
-20.7136
-15.9219
-12.1876
-9.28583
-7.03152
-5.27658
-3.90473
-2.82579
-1.97026
-1.2848
-0.728416
-0.269943
0.129713
-146.362
-150.858
-158.649
-167.606
-175.466
-178.687
-175.025
-164.18
-147.709
-128.704
-108.98
-89.9731
-72.7153
-57.812
-45.4091
-35.3584
-27.365
-21.088
-16.1978
-12.4034
-9.46227
-7.17937
-5.40136
-4.0095
-2.91261
-2.04093
-1.34113
-0.772356
-0.303614
0.103385
-154.273
-159.821
-169.577
-181.168
-191.166
-194.945
-190.745
-177.932
-158.971
-137.19
-114.957
-93.9447
-75.2837
-59.4496
-46.455
-36.0424
-27.8343
-21.4313
-16.4654
-12.6224
-9.64674
-7.33634
-5.53462
-4.12148
-3.0053
-2.11629
-1.40122
-0.819364
-0.339843
0.0744878
-158.521
-165.181
-177.012
-191.129
-203.392
-207.91
-203.53
-188.904
-167.715
-143.45
-119.121
-96.6088
-76.9501
-60.4926
-47.1289
-36.5069
-28.1823
-21.7129
-16.7054
-12.832
-9.83052
-7.4963
-5.67197
-4.23749
-3.10158
-2.19473
-1.46396
-0.868681
-0.378116
0.0434347
-156.923
-165.228
-179.748
-196.312
-210.312
-215.87
-210.954
-194.73
-171.778
-146.089
-120.672
-97.4532
-77.3962
-60.7486
-47.3149
-36.6805
-28.3637
-21.9029
-16.8972
-13.0175
-10.0032
-7.65169
-5.80795
-4.35363
-3.19863
-2.27424
-1.52791
-0.919303
-0.417712
0.0108368
-147.582
-159.239
-177.364
-195.747
-210.65
-216.226
-210.437
-193.631
-170.308
-144.498
-119.165
-96.1816
-76.4347
-60.0998
-46.9363
-36.5107
-28.3405
-21.973
-17.0197
-13.1634
-10.1534
-7.79455
-5.93712
-4.46628
-3.29418
-2.35345
-1.59233
-0.970872
-0.458483
-0.0231174
65.1137
65.1823
65.3422
65.5838
65.8929
66.2593
66.675
67.1309
67.6175
68.1244
68.6405
69.1534
69.6489
70.11
70.5156
70.8402
71.0514
71.1088
70.9606
70.5399
69.7575
68.4915
66.5679
63.7271
59.5549
53.3581
43.7645
27.9816
-3.45681
-93.8115
64.4674
64.527
64.666
64.875
65.1408
65.4532
65.8035
66.1826
66.58
66.9846
67.3844
67.7658
68.1131
68.4071
68.6247
68.7372
68.7085
68.4932
68.0329
67.2515
66.0469
64.2786
61.7447
58.1424
52.9896
45.4797
34.1106
16.3122
-10.4749
-49.957
63.7846
63.835
63.9523
64.1277
64.3489
64.6058
64.8894
65.1899
65.4965
65.7974
66.0795
66.3283
66.5265
66.6536
66.6842
66.5873
66.3239
65.8449
65.0875
63.9701
62.3848
60.1847
57.1648
53.0313
47.3539
39.5142
28.6589
13.8435
-4.61045
-26.1167
63.0668
63.1079
63.2029
63.344
63.5197
63.7203
63.9363
64.1576
64.3728
64.5697
64.7343
64.8513
64.9022
64.8653
64.7138
64.4149
63.928
63.2022
62.1732
60.7589
58.8529
56.3158
52.9622
48.5466
42.748
35.1721
25.3789
12.8735
-2.74759
-22.0566
62.316
62.3474
62.4199
62.5263
62.6563
62.8002
62.9484
63.0906
63.215
63.3088
63.3578
63.3456
63.2533
63.0582
62.7329
62.2439
61.5503
60.6014
59.3345
57.6715
55.5142
52.7394
49.1927
44.6834
38.9817
31.8221
22.9101
11.8967
-1.58785
-17.3157
61.5342
61.5561
61.606
61.6776
61.7618
61.8493
61.9304
61.9945
62.0295
62.0226
61.959
61.8223
61.593
61.2483
60.7607
60.0972
59.2179
58.0744
56.6083
54.7487
52.4097
49.4886
45.8629
41.3907
35.9112
29.2511
21.2376
11.7235
0.633063
-11.5885
60.7243
60.7366
60.764
60.8012
60.8402
60.8721
60.8873
60.875
60.8233
60.7191
60.5477
60.2926
59.9346
59.4511
58.8154
57.9958
56.955
55.6484
54.0235
52.019
49.5633
46.5745
42.9608
38.6221
33.4553
27.3627
20.2684
12.1423
3.00832
-6.79967
59.8893
59.8922
59.8975
59.9008
59.8955
59.8733
59.8245
59.7385
59.6036
59.4068
59.1336
58.768
58.2911
57.6815
56.9138
55.9587
54.7821
53.3445
51.6007
49.4997
46.9846
43.9935
40.4612
36.3228
31.5189
26.0038
19.7563
12.7934
5.16928
-2.85564
59.0326
59.0263
59.0101
58.9806
58.9324
58.8579
58.7478
58.5915
58.3778
58.094
57.7263
57.2591
56.6747
55.953
55.0708
54.0015
52.7152
51.1781
49.3528
47.1986
44.6723
41.7299
38.3282
34.4292
30.0038
25.0386
19.5423
13.5538
7.14268
0.514884
58.1581
58.143
58.1061
58.045
57.9557
57.8314
57.6631
57.4407
57.1534
56.7892
56.335
55.7762
55.0965
54.2775
53.2986
52.1366
50.766
49.1589
47.2855
45.115
42.6163
39.7602
36.5209
32.8795
28.8277
24.3712
19.5348
14.3665
8.9366
3.40207
57.2701
57.2465
57.1898
57.0987
56.9706
56.7993
56.5766
56.2927
55.9377
55.5002
54.9682
54.3285
53.5662
52.6651
51.6073
50.3732
48.942
47.2914
45.3989
43.2422
40.8008
38.0569
34.9978
31.6183
27.9228
23.928
19.6656
15.1841
10.5472
5.87342
56.373
56.3415
56.2662
56.1469
55.9824
55.7674
55.4944
55.1543
54.7377
54.2347
53.6341
52.9242
52.0921
51.1237
50.0041
48.7173
47.2468
45.5759
43.6883
41.5693
39.2064
36.591
33.7198
30.5963
27.2325
23.6505
19.8834
15.9761
11.9834
7.99513
55.4717
55.4328
55.3402
55.1947
54.9966
54.7415
54.4226
54.0317
53.5604
52.9996
52.3397
51.5705
50.681
49.6596
48.4941
47.1721
45.6811
44.0094
42.146
40.0823
37.8123
35.334
32.6504
29.7706
26.7105
23.4938
20.1523
16.7255
13.2593
9.822
54.5713
54.5256
54.4171
54.2476
54.0188
53.7275
53.3674
52.9314
52.412
51.8014
51.0914
50.2734
49.3384
48.2771
47.0802
45.7383
44.2428
42.586
40.7616
38.7656
36.5971
34.2586
31.7571
29.1048
26.3192
23.4236
20.4469
17.423
14.3896
11.3988
53.6772
53.6252
53.5023
53.3111
53.0548
52.7311
52.3346
51.8591
51.2984
50.6458
49.8945
49.0377
48.0682
46.979
45.7633
44.4148
42.9279
41.2984
39.5237
37.6035
35.5403
33.3398
31.0114
28.5685
26.0288
23.414
20.7496
18.0642
15.3886
12.7624
52.7948
52.7373
52.6014
52.3909
52.1102
51.758
51.3299
50.8207
50.2251
49.5379
48.7538
47.8673
46.8732
45.7667
44.5432
43.1989
41.731
40.138
38.4203
36.5803
34.6227
32.5552
30.3885
28.1363
25.8154
23.4454
21.0483
18.6481
16.2697
13.9434
51.9299
51.8674
51.7202
51.4927
51.1907
50.8139
50.3589
49.8213
49.1971
48.4823
47.6729
46.765
45.7552
44.6404
43.4182
42.0868
40.6458
39.0958
37.4395
35.6809
33.8266
31.8852
29.8678
27.7876
25.6602
23.503
21.3349
19.1755
17.0451
14.9672
51.0882
51.0215
50.8644
50.6223
50.302
49.9043
49.4268
48.866
48.2189
47.4828
46.655
45.7331
44.7151
43.5996
42.386
41.0742
39.6657
38.1629
36.5697
34.8917
33.1364
31.3127
29.4315
27.5055
25.5487
23.5762
21.604
19.6486
17.7261
15.8549
50.2757
50.2053
50.0397
49.7852
49.4495
49.0345
48.5386
47.9592
47.2946
46.5429
45.7028
44.773
43.7532
42.6431
41.4437
40.1564
38.7841
37.3304
35.8003
34.2004
32.5383
30.8231
29.0654
27.2766
25.4694
23.6569
21.8526
20.0701
18.3225
16.6242
49.4983
49.4248
49.2522
48.9872
48.6388
48.2098
47.6991
47.1055
46.4279
45.6656
44.8183
43.8859
42.8692
41.7693
40.5882
39.3287
37.9945
36.5903
35.1218
33.5959
32.0204
30.4043
28.7574
27.0902
25.4138
23.7396
22.079
20.4433
18.8431
17.2897
48.7622
48.686
48.5075
48.234
47.8753
47.435
46.9131
46.309
45.6224
44.8536
44.0033
43.0726
42.0629
40.9766
39.8166
38.5865
37.291
35.9352
34.5255
33.0687
31.5728
30.0461
28.4979
26.9377
25.3752
23.8202
22.2826
20.7715
19.2956
17.8641
48.0733
47.995
47.8117
47.5312
47.1643
46.7154
46.1851
45.5735
44.8813
44.1095
43.2596
42.3335
41.3337
40.2633
39.1258
37.9258
36.6682
35.3588
34.004
32.6109
31.187
29.7403
28.2793
26.8126
25.3487
23.8962
22.4633
21.0578
19.6869
18.3578
47.4381
47.358
47.1706
46.8845
46.5111
46.0556
45.5193
44.9029
44.2078
43.4356
42.5887
41.6696
40.6814
39.6279
38.5134
37.3428
36.1215
34.8555
33.5512
32.2157
30.8562
29.4802
28.0955
26.7098
25.3308
23.9657
22.6218
21.3054
20.0227
18.7795
46.8628
46.7812
46.5903
46.2995
45.921
45.4607
44.9203
44.3011
43.6051
42.8345
41.9923
41.0815
40.1058
39.0696
37.9775
36.8348
35.6472
34.4208
33.1621
31.8779
30.575
29.2607
27.9419
26.6257
25.3189
24.0279
22.7588
21.5173
20.3083
19.1366
46.3542
46.271
46.0769
45.7819
45.3992
44.9353
44.3923
43.7719
43.0764
42.3087
41.472
40.5701
39.6071
38.5875
37.5164
36.3994
35.2423
34.0513
32.8327
31.5931
30.3392
29.0776
27.8149
26.5574
25.3112
24.0821
22.8753
21.6957
20.5476
19.435
45.9194
45.8344
45.6366
45.3373
44.9512
44.4848
43.9403
43.3196
42.6256
41.8614
41.0307
40.1375
39.1864
38.182
37.1299
36.0356
34.9052
33.7446
32.5603
31.3586
30.1459
28.9284
27.7122
26.5032
25.3069
24.1284
22.9725
21.8433
20.7447
19.6799
45.5663
45.4785
45.2751
44.9707
44.5812
44.1127
43.5672
42.9469
42.2548
41.4944
40.6695
39.7845
38.844
37.8531
36.8172
35.7422
34.634
33.4987
32.3426
31.1718
29.9924
28.8104
27.6316
26.4613
25.3046
24.1662
23.0504
21.961
20.9012
19.8739
45.3045
45.2117
45.0005
44.691
44.299
43.8289
43.2826
42.6625
41.972
41.2147
40.3948
39.5164
38.5846
37.6044
36.5815
35.5216
34.4308
33.3152
32.1808
31.0336
29.8797
28.7247
27.574
26.4328
25.3059
24.1975
23.1117
22.0519
21.0211
20.0218
45.1461
45.0313
44.804
44.4905
44.0982
43.628
43.0819
42.463
41.7747
41.0207
40.2049
39.3319
38.4066
37.4343
36.4207
35.3715
34.2929
33.1907
32.0712
30.9402
29.8036
28.6668
27.5352
26.4136
25.3067
24.2185
23.1527
22.1127
21.1012
20.1204
45.1552
44.9725
44.717
44.3981
44.0041
43.532
42.9847
42.3659
41.6788
40.9267
40.1137
39.244
38.3227
37.3551
36.3467
35.3034
34.2313
33.1363
32.0245
30.9019
29.774
28.6464
27.5242
26.4124
25.3154
24.2371
23.1812
22.1508
21.1486
20.1769
-239.81
-215.462
-169.88
-81.387
-88.7947
-91.4591
-51.4881
-69.722
-83.3868
-45.3773
-61.3963
-73.2692
-34.1486
-45.8778
-55.24
-24.1336
-33.102
-40.5207
-16.63
-23.6111
-29.3879
-10.6346
-16.0953
-20.6116
-5.71593
-10.0573
-13.659
-1.67071
-5.18295
-8.10974
1.6828
-1.20202
-3.61967
4.48724
2.08423
0.0567948
6.84892
4.82077
3.09702
8.84948
7.11666
5.63261
10.5525
9.05498
7.76246
12.0079
10.6997
9.56192
13.2553
12.1009
11.0892
14.3265
13.2978
12.3898
15.2473
14.322
13.4998
16.0385
15.1987
14.4478
16.7173
15.9485
15.2572
17.298
16.5881
15.9465
17.792
17.131
16.5308
18.2089
17.5884
17.0226
18.5563
17.9688
17.4314
18.8408
18.2798
17.7653
19.0656
18.5255
18.0289
19.2365
18.7117
18.2284
19.3504
18.836
18.3617
19.4156
18.9072
18.4373
-127.665
-149.553
-172.343
-190.766
-204.909
-209.975
-203.011
-186.011
-163.304
-138.575
-114.492
-92.7148
-74.0094
-58.5031
-45.9568
-35.9652
-28.0843
-21.8992
-17.0533
-13.2543
-10.2694
-7.91631
-6.05337
-4.57122
-3.38537
-2.43052
-1.65608
-1.02273
-0.500099
-0.0582873
-105.199
-138.39
-163.71
-181.786
-193.599
-196.045
-187.636
-171.306
-150.559
-128.298
-106.685
-87.0793
-70.1238
-55.9399
-44.3432
-35.0049
-27.5561
-21.6461
-16.9681
-13.266
-10.3325
-8.00256
-6.14587
-4.6604
-3.46632
-2.50119
-1.71613
-1.07279
-0.541229
-0.0938516
-102.102
-128.595
-149.433
-164.02
-171.768
-171.472
-163.614
-150.086
-133.053
-114.617
-96.482
-79.7774
-65.0848
-52.5785
-42.1756
-33.6583
-26.7577
-21.2035
-16.7497
-13.1842
-10.3302
-8.04315
-6.20672
-4.72791
-3.53271
-2.5624
-1.77039
-1.1197
-0.581055
-0.129283
-87.934
-106.566
-123.304
-135.505
-141.524
-141.594
-136.217
-126.483
-113.756
-99.5498
-85.185
-71.6015
-59.3486
-48.665
-39.5757
-31.9776
-25.7042
-20.5687
-16.3881
-12.9968
-10.2506
-8.0278
-6.22746
-4.767
-3.57933
-2.6102
-1.81593
-1.16135
-0.618161
-0.163683
-66.9854
-81.0172
-95.0266
-106.033
-112.139
-113.396
-110.465
-104.104
-95.2156
-84.8331
-73.9297
-63.2653
-53.3446
-44.4462
-36.6777
-30.03
-24.4252
-19.7505
-15.8818
-12.6977
-10.0862
-7.94905
-6.20147
-4.77215
-3.60173
-2.64117
-1.85021
-1.19594
-0.651375
-0.196361
-49.6017
-60.3006
-71.6159
-81.0668
-86.9917
-89.243
-88.2421
-84.5277
-78.6897
-71.4126
-63.3951
-55.2372
-47.3833
-40.1199
-33.602
-27.8853
-22.9577
-18.7663
-15.2365
-12.2861
-9.83339
-7.80205
-6.12375
-4.7388
-3.59603
-2.65214
-1.87078
-1.22166
-0.679455
-0.22658
-36.3423
-44.5062
-53.4191
-61.2747
-66.7691
-69.6249
-69.9734
-68.1431
-64.5336
-59.6078
-53.8605
-47.7505
-41.6488
-35.8233
-30.4454
-25.6076
-21.3419
-17.6391
-14.4638
-11.7667
-9.49223
-7.58473
-5.99128
-4.66369
-3.55917
-2.64045
-1.87546
-1.23685
-0.701262
-0.253673
-26.0533
-32.4471
-39.534
-46.0442
-50.9823
-54.0352
-55.1904
-54.6161
-52.576
-49.3812
-45.375
-40.8969
-36.2442
-31.6512
-27.2857
-23.2555
-19.6187
-16.3955
-13.5797
-11.1478
-9.06645
-7.29775
-5.80303
-4.54497
-3.48904
-2.60408
-1.86248
-1.2401
-0.715776
-0.277036
-18.0306
-23.1918
-28.9274
-34.3397
-38.6799
-41.6743
-43.2591
-43.4948
-42.5394
-40.5968
-37.9021
-34.7014
-31.2252
-27.6687
-24.1841
-20.8803
-17.8274
-15.0638
-12.6032
-10.4413
-8.56263
-6.94423
-5.55987
-4.38223
-3.38456
-2.5417
-1.83054
-1.23028
-0.722149
-0.296163
-11.6973
-15.9605
-20.6821
-25.2165
-29.003
-31.8221
-33.6009
-34.3384
-34.1188
-33.0717
-31.3552
-29.144
-26.6119
-23.9157
-21.1861
-18.5246
-16.004
-13.6719
-11.5544
-9.6611
-7.98963
-6.52935
-5.26447
-4.17647
-3.24573
-2.45275
-1.77886
-1.2066
-0.719742
-0.310657
-6.6162
-10.2035
-14.1556
-17.9975
-21.3051
-23.9081
-25.7422
-26.7757
-27.0473
-26.6348
-25.642
-24.1905
-22.4081
-20.4172
-18.326
-16.2239
-14.1807
-12.2464
-10.4541
-8.82229
-7.35803
-6.06003
-4.92104
-3.92998
-3.07357
-2.33749
-1.70725
-1.16869
-0.708158
-0.320252
-2.4851
-5.55177
-8.91107
-12.205
-15.1089
-17.4963
-19.3059
-20.5014
-21.0941
-21.127
-20.6657
-19.793
-18.6011
-17.1831
-15.6258
-14.0052
-12.3841
-10.8113
-9.32223
-7.94042
-6.67933
-5.54441
-4.53502
-3.64621
-2.87007
-2.19691
-1.61608
-1.11657
-0.687259
-0.324816
0.91105
-1.74661
-4.64164
-7.49913
-10.0669
-12.2479
-13.9945
-15.2686
-16.0663
-16.4086
-16.3351
-15.9009
-15.1709
-14.2146
-13.0998
-11.889
-10.6367
-9.38783
-8.17735
-7.03088
-5.96558
-4.99149
-4.11288
-3.32956
-2.63809
-2.03274
-1.5063
-1.05067
-0.657174
-0.324358
3.72953
1.39846
-1.12769
-3.63428
-5.92285
-7.91765
-9.58211
-10.8821
-11.8057
-12.3599
-12.5673
-12.4632
-12.0924
-11.5055
-10.7544
-9.88935
-8.95602
-7.99408
-7.03626
-6.10819
-5.22873
-4.41069
-3.66171
-2.98519
-2.38121
-1.84734
-1.37937
-0.971818
-0.618299
-0.319026
6.08716
4.0204
1.79112
-0.430552
-2.48636
-4.31644
-5.89271
-7.18661
-8.18255
-8.8795
-9.2886
-9.4315
-9.33839
-9.04529
-8.59119
-8.01539
-7.35535
-6.645
-5.91374
-5.18583
-4.48037
-3.81152
-3.18902
-2.61879
-2.10358
-1.64363
-1.23723
-0.881211
-0.571278
-0.309096
8.07208
6.22173
4.23411
2.24595
0.385105
-1.30066
-2.78982
-4.05891
-5.0915
-5.88202
-6.43442
-6.76104
-6.88145
-6.82075
-6.60758
-6.27212
-5.84435
-5.35261
-4.82243
-4.27592
-3.73138
-3.20328
-2.70243
-2.23639
-1.80981
-1.42498
-1.08223
-0.780373
-0.516986
-0.294964
9.75183
8.0804
6.29142
4.49623
2.79938
1.23935
-0.167058
-1.4011
-2.44681
-3.29632
-3.94911
-4.41133
-4.69504
-4.81721
-4.79841
-4.66137
-4.42961
-4.12624
-3.77291
-3.38914
-2.99178
-2.59486
-2.20951
-1.84416
-1.50475
-1.19505
-0.917022
-0.671098
-0.456494
-0.277124
11.1788
9.65657
8.03222
6.39762
4.83934
3.38878
2.05882
0.864676
-0.178902
-1.06313
-1.78493
-2.34634
-2.75421
-3.01955
-3.15676
-3.1826
-3.11516
-2.97291
-2.77383
-2.53469
-2.27058
-1.99457
-1.71756
-1.44828
-1.19341
-0.957773
-0.744513
-0.555404
-0.391042
-0.256159
12.3943
10.9972
9.51021
8.01006
6.56927
5.21376
3.95346
2.80068
1.76879
0.866643
0.0987123
-0.534456
-1.0361
-1.41296
-1.67477
-1.8336
-1.90308
-1.89772
-1.83212
-1.72042
-1.57579
-1.41005
-1.23349
-1.05475
-0.880826
-0.717155
-0.567769
-0.435466
-0.321993
-0.232714
13.4309
12.1393
10.7675
9.38046
8.03961
6.7666
5.56899
4.45693
3.44238
2.53377
1.73621
1.05187
0.479907
0.0166428
-0.3442
-0.611052
-0.793985
-0.90415
-0.953224
-0.952891
-0.914402
-0.848227
-0.763798
-0.669366
-0.571929
-0.477253
-0.389943
-0.313568
-0.250805
-0.207483
14.3147
13.1124
11.8376
10.5458
9.29005
8.08848
6.94682
5.87365
4.87937
3.97186
3.15647
2.43628
1.81206
1.28224
0.843086
0.488934
0.212542
0.00549636
-0.141369
-0.23755
-0.292502
-0.315312
-0.314448
-0.297588
-0.271513
-0.242072
-0.214212
-0.192049
-0.178991
-0.181186
15.0667
13.94
12.7468
11.5355
10.3521
9.21216
8.12023
7.08323
6.11024
5.2086
4.38366
3.63897
2.9763
2.39554
1.89479
1.47048
1.11755
0.829814
0.600188
0.421075
0.284649
0.183143
0.109079
0.0554508
0.01584
-0.0155166
-0.0437217
-0.0732595
-0.108088
-0.154557
15.7038
14.641
13.5165
12.3729
11.2509
10.1639
9.11548
8.11142
7.15951
6.26657
5.43777
4.67688
3.98625
3.3668
2.81792
2.33757
1.9224
1.56796
1.26889
1.01919
0.812475
0.642176
0.501777
0.384969
0.285781
0.198649
0.11845
0.0404759
-0.0396334
-0.128327
16.2397
15.2305
14.1635
13.0767
12.0064
10.9644
9.95368
8.97897
8.04702
7.16411
6.33518
5.56403
4.85339
4.2048
3.61857
3.09381
2.62844
2.21937
1.86263
1.55354
1.28694
1.05732
0.859049
0.68651
0.534198
0.396818
0.269318
0.146879
0.0248572
-0.103217
16.685
15.7204
14.701
13.6611
12.6339
11.6298
10.6512
9.70207
8.7883
7.91568
7.08888
6.31167
5.58694
4.91665
4.30176
3.74217
3.23677
2.78351
2.37952
2.02119
1.70437
1.42448
1.17665
0.95591
0.757211
0.575555
0.406017
0.243747
0.0839127
-0.0799178
17.0485
16.1202
15.1394
14.1379
13.1458
12.1728
11.2209
10.2934
9.39555
8.53263
7.70909
6.9286
6.19412
5.50789
4.87127
4.28475
3.74794
3.25957
2.8176
2.41928
2.06127
1.73975
1.45053
1.18918
0.951078
0.731524
0.525745
0.328912
0.136076
-0.0591152
17.3357
16.4361
15.4858
14.5143
13.5502
12.602
11.6716
10.7617
9.87713
9.02278
8.20284
7.42087
6.67986
5.98219
5.32952
4.72273
4.16192
3.64643
3.17483
2.74503
2.35434
1.99952
1.67695
1.38265
1.11236
0.861657
0.625926
0.400387
0.180029
-0.0414001
17.5523
16.674
15.7464
14.7973
13.8539
12.9243
12.01
11.1135
10.2391
9.39155
8.5747
7.7921
7.04673
6.34104
5.67688
5.0554
4.47706
3.94158
3.448
2.9947
2.57946
2.1995
1.85161
1.53216
1.23721
0.962539
0.703685
0.455937
0.214272
-0.0274253
17.6976
16.8336
15.9211
14.9872
14.0578
13.1409
12.2376
11.3506
10.4836
9.64103
8.82669
8.04403
7.29604
6.58524
5.91358
5.28239
4.69235
4.14346
3.63507
3.16587
2.73395
2.33685
1.97164
1.63494
1.32302
1.03183
0.757018
0.493972
0.237735
-0.0174899
17.7777
16.9192
16.0139
15.0874
14.1649
13.2539
12.3557
11.4725
10.6084
9.76775
8.95422
8.17118
7.42157
6.70791
6.03221
5.39589
4.79974
4.24391
3.72789
3.25053
2.81011
2.40433
2.03038
1.68503
1.36465
1.06526
0.7826
0.512106
0.248955
-0.0120662
)
;

boundaryField
{
    inlet
    {
        type            zeroGradient;
    }
    outlet
    {
        type            fixedValue;
        value           uniform 0;
    }
    flap
    {
        type            zeroGradient;
    }
    upperWall
    {
        type            zeroGradient;
    }
    lowerWall
    {
        type            zeroGradient;
    }
    frontAndBack
    {
        type            empty;
    }
}


// ************************************************************************* //
