/*--------------------------------*- C++ -*----------------------------------*\
| =========                 |                                                 |
| \\      /  F ield         | OpenFOAM: The Open Source CFD Toolbox           |
|  \\    /   O peration     | Version:  2006                                  |
|   \\  /    A nd           | Website:  www.openfoam.com                      |
|    \\/     M anipulation  |                                                 |
\*---------------------------------------------------------------------------*/
FoamFile
{
    version     2.0;
    format      ascii;
    class       surfaceScalarField;
    location    "0.1";
    object      phi;
}
// * * * * * * * * * * * * * * * * * * * * * * * * * * * * * * * * * * * * * //

dimensions      [0 3 -1 0 0 0 0];
oriented        oriented;


internalField   nonuniform List<scalar> 
5457
(
0.198465
0.00153473
0.196614
0.00185097
0.194445
0.00216955
0.191912
0.002533
0.189023
0.00288834
0.185801
0.00322148
0.182267
0.00353378
0.178436
0.00383007
0.174317
0.00411683
0.169911
0.00440219
0.16521
0.00469499
0.160196
0.00500363
0.154844
0.00533511
0.149125
0.00569449
0.143003
0.00608467
0.136445
0.00650625
0.12942
0.00695744
0.1219
0.00743401
0.113868
0.00792905
0.105319
0.00843286
0.0962644
0.00893284
0.0867327
0.00941369
0.0767716
0.00985819
0.0664453
0.010249
0.0558281
0.0105715
0.044993
0.0108185
0.0339723
0.0110192
0.0231242
0.0108356
0.0115151
0.0115489
0.0114142
0.199963
0.00157151
0.19926
0.00255466
0.198083
0.0033459
0.196449
0.00416722
0.194346
0.00499159
0.191781
0.00578614
0.188773
0.00654106
0.185344
0.00725772
0.181515
0.00794414
0.1773
0.00861384
0.172705
0.00928377
0.167728
0.00997145
0.162354
0.0106927
0.156564
0.0114601
0.150331
0.012282
0.143624
0.0131622
0.136414
0.0140997
0.128673
0.0150884
0.120382
0.0161164
0.111529
0.0171663
0.102121
0.0182145
0.0921772
0.0192319
0.081738
0.0201845
0.0708598
0.0210376
0.0596122
0.0217599
0.0480699
0.0223311
0.0362878
0.0227891
0.0243261
0.0227779
0.0121329
0.023679
0.0234461
0.199816
0.00175531
0.19917
0.00320065
0.19806
0.00445634
0.19651
0.00571695
0.194513
0.00698814
0.192069
0.00823025
0.189189
0.00942058
0.185892
0.0105544
0.182194
0.0116396
0.178111
0.0126938
0.173648
0.0137411
0.168803
0.0148075
0.163562
0.0159175
0.157907
0.0170913
0.15181
0.0183436
0.145239
0.0196825
0.138162
0.0211093
0.130545
0.0226174
0.122361
0.0241928
0.11359
0.0258124
0.104224
0.0274446
0.0942682
0.0290484
0.0837459
0.0305755
0.0726973
0.0319732
0.0611798
0.0331907
0.0492678
0.0341843
0.0370274
0.0349906
0.0245725
0.0351955
0.0121318
0.0360557
0.0354791
0.199739
0.00201662
0.199091
0.00384799
0.198002
0.00554546
0.19648
0.00723901
0.194524
0.00894448
0.192133
0.0106209
0.189318
0.0122349
0.186096
0.0137752
0.182485
0.0152494
0.178497
0.0166791
0.174137
0.0180952
0.169404
0.0195319
0.164284
0.0210223
0.158757
0.0225945
0.152795
0.0242698
0.146365
0.0260615
0.139431
0.0279741
0.131955
0.0300028
0.123903
0.032133
0.115243
0.0343392
0.105955
0.0365844
0.0960275
0.0388192
0.0854643
0.040983
0.0742877
0.0430053
0.0625426
0.0448112
0.0503066
0.0463197
0.0376837
0.047535
0.0248453
0.0479678
0.0121677
0.0486608
0.0476017
0.199703
0.00231404
0.199047
0.00450331
0.197978
0.00661423
0.196489
0.00872883
0.194577
0.0108564
0.192244
0.0129537
0.189499
0.0149786
0.18636
0.0169137
0.182842
0.0187656
0.178959
0.0205598
0.174715
0.0223339
0.170107
0.0241303
0.165124
0.0259906
0.159744
0.0279509
0.153939
0.0300398
0.147672
0.0322764
0.140906
0.03467
0.133596
0.037219
0.125701
0.0399108
0.117179
0.0427201
0.107993
0.0456079
0.0981161
0.0485197
0.087532
0.0513843
0.0762439
0.0541137
0.0642832
0.0566042
0.0517287
0.0587256
0.038717
0.0604208
0.0254505
0.0611301
0.0124007
0.0616162
0.0598981
0.199687
0.00262668
0.199031
0.00515978
0.197986
0.00765896
0.196536
0.0101787
0.194678
0.012715
0.192412
0.0152187
0.189751
0.0176402
0.186707
0.019956
0.183299
0.0221721
0.179539
0.0243174
0.175432
0.0264361
0.170975
0.0285787
0.166155
0.0307953
0.160952
0.0331305
0.155336
0.0356204
0.14927
0.038291
0.14271
0.0411576
0.135609
0.044224
0.127915
0.0474819
0.119575
0.0509095
0.110539
0.054469
0.100759
0.0581043
0.0901971
0.061737
0.0788349
0.0652622
0.066685
0.0685452
0.0538161
0.0714
0.0403783
0.0736899
0.0265853
0.074796
0.0129731
0.0751641
0.0728697
0.199684
0.00294275
0.199035
0.00580869
0.198019
0.00867482
0.196616
0.0115817
0.19482
0.014511
0.192634
0.017405
0.190067
0.0202067
0.187135
0.0228872
0.183854
0.0254515
0.180237
0.027932
0.176289
0.0303791
0.172007
0.0328514
0.167381
0.0354075
0.162388
0.0381005
0.156998
0.0409747
0.151173
0.0440639
0.144866
0.0473909
0.138025
0.0509666
0.13059
0.05479
0.122496
0.0588458
0.113676
0.0631022
0.104062
0.0675059
0.0935921
0.0719757
0.0822182
0.0763937
0.0699244
0.0805953
0.0567531
0.0843383
0.0428435
0.087395
0.0284022
0.0890946
0.0139574
0.0895908
0.0869437
0.199688
0.00325493
0.199054
0.00644229
0.198073
0.00965621
0.196723
0.012931
0.194999
0.0162355
0.192902
0.019502
0.190442
0.0226657
0.187636
0.0256926
0.1845
0.0285869
0.181045
0.0313842
0.177278
0.0341408
0.173198
0.0369232
0.168793
0.0397983
0.164043
0.042828
0.158917
0.0460651
0.153377
0.049552
0.147374
0.05332
0.140851
0.0573897
0.133741
0.0617696
0.125968
0.0664554
0.117449
0.0714257
0.108093
0.0766368
0.0978088
0.0820123
0.0865098
0.0874294
0.0741351
0.0927017
0.0606759
0.0975364
0.0462275
0.101608
0.0309649
0.104183
0.0153812
0.105128
0.102405
0.199697
0.0035583
0.199085
0.00705411
0.198144
0.0105973
0.196855
0.01422
0.19521
0.0178801
0.193212
0.0214995
0.190873
0.0250051
0.188206
0.0283585
0.185229
0.0315625
0.181955
0.0346557
0.178391
0.0377004
0.174536
0.0407701
0.170381
0.0439402
0.165905
0.047281
0.161081
0.0508542
0.15587
0.0547112
0.150223
0.0588935
0.14408
0.0634322
0.137368
0.0683489
0.130004
0.0736536
0.121887
0.0793419
0.112904
0.0853877
0.102926
0.0917315
0.0918202
0.0982607
0.0794559
0.104785
0.0657376
0.11098
0.0506669
0.116426
0.0343424
0.120304
0.0172395
0.122124
0.11964
0.199709
0.00384935
0.199124
0.00763885
0.198229
0.0114925
0.197007
0.0154424
0.19545
0.019437
0.193561
0.023388
0.191352
0.0272141
0.188838
0.0308719
0.186036
0.0343634
0.182959
0.0377297
0.179617
0.0410383
0.176009
0.0443696
0.172129
0.047807
0.167959
0.0514289
0.163474
0.0553059
0.158636
0.0594986
0.153397
0.0640591
0.147698
0.0690308
0.141464
0.0744502
0.134604
0.0803461
0.127007
0.0867369
0.118535
0.0936245
0.109023
0.100981
0.098276
0.108729
0.0860736
0.116704
0.0721885
0.12459
0.056459
0.131904
0.0388267
0.13773
0.019709
0.141111
0.139294
0.199724
0.00412542
0.199171
0.00819217
0.198326
0.0123369
0.197176
0.0165923
0.195714
0.0208991
0.193943
0.025159
0.191874
0.0292826
0.189524
0.0332214
0.18691
0.0369765
0.184046
0.040591
0.180943
0.044137
0.177604
0.0477016
0.174023
0.051375
0.170187
0.0552437
0.166073
0.0593863
0.161649
0.063873
0.156871
0.0687659
0.151681
0.0741219
0.146007
0.0799936
0.139756
0.0864312
0.132809
0.0934818
0.125014
0.101185
0.116171
0.109564
0.106021
0.118601
0.094237
0.128209
0.0804143
0.138146
0.0641363
0.147945
0.0450355
0.156643
0.0232838
0.16275
0.162535
0.199741
0.00438446
0.199223
0.00871052
0.198434
0.013126
0.197361
0.0176647
0.196
0.0222604
0.194354
0.0268052
0.192434
0.0312019
0.190258
0.035397
0.187843
0.0393901
0.185206
0.0432262
0.182357
0.0469814
0.179303
0.0507482
0.176043
0.0546234
0.172566
0.0587004
0.168855
0.0630653
0.164884
0.0677966
0.160613
0.0729666
0.155995
0.0786444
0.150961
0.0848992
0.145426
0.0918036
0.139274
0.0994365
0.132345
0.107883
0.124422
0.11723
0.115196
0.127555
0.104233
0.138898
0.0909256
0.151196
0.0744912
0.164155
0.0539881
0.176978
0.0288469
0.187803
0.191362
0.19976
0.00462487
0.199279
0.00919102
0.198549
0.0138561
0.197559
0.018655
0.196304
0.0235153
0.194788
0.0283203
0.193025
0.0329646
0.191032
0.0373902
0.188826
0.0415947
0.186426
0.0456243
0.183845
0.0495586
0.181092
0.0534947
0.178169
0.0575347
0.175072
0.061778
0.17179
0.066317
0.168303
0.0712373
0.164584
0.0766195
0.160592
0.0825435
0.156275
0.0890931
0.151559
0.0963617
0.146345
0.104459
0.140488
0.113515
0.133776
0.12369
0.125889
0.135175
0.116329
0.14819
0.10431
0.162962
0.0886164
0.17963
0.0673776
0.198056
0.038219
0.216886
0.229587
0.199779
0.00484542
0.199339
0.0096314
0.198671
0.0145242
0.197766
0.0195597
0.196622
0.0246597
0.195243
0.029699
0.193643
0.0345648
0.191838
0.0391941
0.189849
0.0435824
0.187695
0.0477767
0.185391
0.0518588
0.18295
0.0559296
0.180378
0.0600956
0.177677
0.0644605
0.174844
0.0691216
0.171868
0.0741696
0.168733
0.0796914
0.165414
0.0857744
0.161876
0.0925132
0.158071
0.100017
0.153927
0.108418
0.14934
0.117886
0.144144
0.128643
0.138071
0.140988
0.130663
0.155334
0.121104
0.172269
0.10789
0.192621
0.0880695
0.217711
0.0556687
0.249206
0.285243
0.1998
0.0050452
0.199402
0.0100299
0.198798
0.0151279
0.197982
0.0203759
0.196951
0.02569
0.195713
0.0309374
0.194279
0.035998
0.192669
0.0408037
0.190903
0.0453478
0.189001
0.0496771
0.186981
0.0538751
0.18486
0.0580453
0.182648
0.0622971
0.180354
0.0667372
0.177982
0.071466
0.175534
0.076577
0.173006
0.0821602
0.17039
0.0883066
0.167677
0.0951157
0.164848
0.102703
0.161877
0.111214
0.158721
0.120836
0.155308
0.131824
0.151506
0.14454
0.147068
0.159516
0.141483
0.177603
0.133641
0.200235
0.120674
0.230494
0.0931192
0.276654
0.378354
-0.00943333
0.00938333
-0.0191794
0.00962895
-0.0287422
0.00940911
-0.0376362
0.00876582
-0.0453959
0.00768948
-0.051159
0.00575495
-0.0543878
0.00327357
-0.0546668
0.000362606
-0.0516563
-0.00290374
-0.0453249
-0.00621586
-0.0359174
-0.0092951
-0.023979
-0.0118375
-0.0101624
-0.0137321
0.00483705
-0.0149328
0.0203607
-0.0154739
0.0358568
-0.0154609
0.0509068
-0.0150263
0.0652079
-0.0142859
0.0785564
-0.0133392
0.0908322
-0.0122704
0.101982
-0.0111464
0.112001
-0.0100182
0.120924
-0.00892202
0.128806
-0.00788172
0.135718
-0.00691102
0.141734
-0.00601592
0.14693
-0.00519683
0.151382
-0.00445116
0.15516
-0.0037787
-0.00323471
-0.00947123
0.0187874
-0.0203591
0.0204021
-0.0304147
0.0193214
-0.0399595
0.0181988
-0.0480657
0.0157431
-0.0541312
0.0118286
-0.0575186
0.0067192
-0.0577046
0.000642233
-0.0543659
-0.00612854
-0.047498
-0.0129636
-0.0373527
-0.0193254
-0.0246443
-0.0244438
-0.0100725
-0.0282191
0.00560159
-0.0305404
0.0217223
-0.0315453
0.0377487
-0.0314525
0.0532741
-0.0305284
0.0680075
-0.0290044
0.0817562
-0.0270788
0.0944087
-0.0249176
0.105918
-0.0226526
0.116285
-0.0203834
0.125544
-0.0181802
0.133751
-0.0160891
0.140977
-0.0141365
0.147295
-0.0123335
0.152778
-0.0106805
0.157498
-0.0091711
0.161516
-0.00779669
-0.00657061
-0.0110728
0.0298226
-0.0226476
0.0318669
-0.033713
0.0302671
-0.0442027
0.0286096
-0.0531215
0.0246431
-0.0598187
0.0185638
-0.0635229
0.0105056
-0.0636314
0.000862495
-0.0597994
-0.00983398
-0.0520631
-0.0205713
-0.040914
-0.0303542
-0.0270894
-0.0381634
-0.0115062
-0.043716
0.00500015
-0.0469797
0.0217328
-0.0482286
0.038192
-0.0478772
0.0540041
-0.0463175
0.0689075
-0.0438931
0.0827368
-0.0408992
0.0954047
-0.0375804
0.106885
-0.0341297
0.117194
-0.0306911
0.12638
-0.0273654
0.134508
-0.0242174
0.141655
-0.0212831
0.147899
-0.0185767
0.153315
-0.0160966
0.157974
-0.0138304
0.161937
-0.0117593
-0.00987562
-0.0130558
0.0427843
-0.0261188
0.0448479
-0.0388811
0.042957
-0.0507131
0.0404158
-0.060832
0.0347925
-0.0683099
0.0261207
-0.0722947
0.0146048
-0.072023
0.000726429
-0.0671718
-0.0145417
-0.057929
-0.0296741
-0.0451484
-0.0430072
-0.0297985
-0.0534038
-0.012847
-0.0605785
0.00473185
-0.0644903
0.0222295
-0.0656762
0.0392081
-0.0648209
0.0553428
-0.062429
0.070415
-0.0589507
0.084298
-0.0547732
0.0969378
-0.050215
0.108335
-0.0455243
0.11853
-0.0408841
0.127585
-0.0364201
0.13558
-0.0322114
0.142597
-0.0282998
0.148719
-0.0246994
0.154027
-0.0214041
0.158591
-0.0183941
0.162471
-0.0156397
-0.0131173
-0.0154291
0.0582415
-0.0306956
0.0601075
-0.045636
0.0579045
-0.059299
0.0541268
-0.0708196
0.0464054
-0.0790414
0.0344705
-0.0829188
0.0186338
-0.081674
-0.000355482
-0.0750788
-0.0209743
-0.0637603
-0.0408396
-0.048908
-0.0577234
-0.0316913
-0.0705058
-0.0132255
-0.0789525
0.00546223
-0.0831081
0.023719
-0.0838821
0.0411783
-0.082245
0.0575745
-0.078802
0.0727409
-0.0741024
0.0865966
-0.0686199
0.0991263
-0.0627396
0.110362
-0.0567576
0.120368
-0.0508886
0.129226
-0.0452772
0.137026
-0.0400111
0.143861
-0.0351339
0.149817
-0.030656
0.154978
-0.0265644
0.159413
-0.02283
0.163186
-0.0194121
-0.0162731
-0.0181759
0.0764255
-0.0360908
0.0780576
-0.0534582
0.075355
-0.0691132
0.0699056
-0.081862
0.0593099
-0.0904328
0.0432188
-0.0935956
0.0219856
-0.0905762
-0.0031848
-0.0815458
-0.0298227
-0.0677297
-0.0544896
-0.050581
-0.0747277
-0.0314795
-0.0894875
-0.0116471
-0.0986899
0.0079462
-0.10263
0.0267745
-0.102659
0.0445317
-0.0999666
0.0610137
-0.0952605
0.07611
-0.089184
0.0897886
-0.0822896
0.102075
-0.0750209
0.113033
-0.067713
0.122751
-0.0606044
0.131326
-0.0538515
0.13886
-0.0475449
0.145451
-0.0417253
0.151192
-0.0363965
0.156164
-0.0315362
0.160439
-0.0271049
0.164077
-0.02305
-0.0193202
-0.0209168
0.0972857
-0.0415192
0.0986959
-0.0611665
0.0951364
-0.0784149
0.087337
-0.0919163
0.0730194
-0.100146
0.051668
-0.101781
0.0238432
-0.0962419
-0.00850983
-0.0843862
-0.041479
-0.0679357
-0.0707621
-0.0486187
-0.0938924
-0.027939
-0.110042
-0.00717056
-0.119361
0.0129064
-0.122634
0.0319474
-0.121647
0.0496836
-0.117667
0.0659662
-0.11152
0.0807415
-0.103945
0.0940266
-0.0955658
0.105886
-0.0868753
0.116414
-0.0782375
0.125716
-0.0699055
0.133905
-0.0620401
0.14109
-0.0547293
0.147372
-0.0480069
0.152842
-0.0418669
0.157583
-0.0362764
0.161662
-0.0311841
0.165138
-0.026526
-0.0222369
-0.0230413
0.12031
-0.0456774
0.121398
-0.066824
0.116452
-0.0849282
0.105661
-0.0983976
0.0867315
-0.105538
0.0590584
-0.104868
0.0234195
-0.0962882
-0.0168559
-0.0815171
-0.0560367
-0.0627042
-0.0893872
-0.0417564
-0.114681
-0.0201245
-0.131546
0.000930208
-0.140316
0.0209218
-0.142551
0.0396865
-0.140359
0.0569723
-0.134917
0.0726798
-0.127204
0.0868112
-0.118061
0.0994308
-0.108177
0.110639
-0.0980781
0.120552
-0.0881481
0.129293
-0.0786448
0.136979
-0.0697259
0.143722
-0.0614718
0.149621
-0.0539056
0.154764
-0.0470099
0.159228
-0.0407398
0.163076
-0.0350325
0.166363
-0.0298127
-0.0250019
-0.0238977
0.144236
-0.047147
0.144744
-0.0684357
0.137919
-0.0862212
0.123676
-0.098686
0.0994539
-0.103879
0.0645177
-0.100404
0.0202071
-0.0886265
-0.0283871
-0.0712933
-0.0731463
-0.0507928
-0.109693
-0.0290256
-0.136285
-0.00749577
-0.152944
0.0130037
-0.160714
0.0323577
-0.16183
0.0502846
-0.158233
0.0666101
-0.151206
0.0813009
-0.141871
0.0944155
-0.131161
0.106061
-0.119814
0.116367
-0.108379
0.125465
-0.097244
0.133485
-0.0866634
0.140545
-0.0767845
0.146749
-0.0676754
0.15219
-0.0593464
0.156947
-0.0517674
0.161089
-0.0448818
0.164672
-0.0386154
0.167743
-0.0328832
-0.0275945
-0.0227424
0.167014
-0.0444309
0.166526
-0.0640501
0.157701
-0.080082
0.13993
-0.0905064
0.110136
-0.0929055
0.0671888
-0.086121
0.0136921
-0.0716071
-0.0426468
-0.0525739
-0.0919498
-0.0314995
-0.130568
-0.0102009
-0.157418
0.0101759
-0.173188
0.0294119
-0.179848
0.0474085
-0.179752
0.0638527
-0.174624
0.0786516
-0.165969
0.0918456
-0.155042
0.103547
-0.142848
0.113897
-0.130155
0.123043
-0.11752
0.131125
-0.105323
0.138267
-0.0938036
0.144577
-0.0830938
0.150148
-0.0732462
0.155059
-0.0642571
0.159376
-0.0560841
0.163153
-0.0486596
0.166438
-0.0419003
0.169268
-0.0357124
-0.0299955
-0.018613
0.185651
-0.0360963
0.184084
-0.0518725
0.173621
-0.0645163
0.152782
-0.0717252
0.117596
-0.070457
0.0661913
-0.0602851
0.00379157
-0.0441337
-0.0585414
-0.0247071
-0.111144
-0.00480229
-0.150272
0.0145172
-0.176571
0.0328802
-0.191419
0.0501751
-0.197042
0.066029
-0.195531
0.0802895
-0.188833
0.0929696
-0.178614
0.104181
-0.16623
0.114078
-0.152731
0.122825
-0.138893
0.130572
-0.125263
0.137452
-0.1122
0.143573
-0.0999231
0.149025
-0.0885448
0.15388
-0.0781008
0.158197
-0.068574
0.162024
-0.0599111
0.1654
-0.052036
0.168358
-0.0448582
0.170924
-0.0382782
-0.032188
-0.011026
0.196698
-0.0212835
0.194402
-0.0308536
0.183324
-0.0387333
0.160862
-0.0410167
0.120123
-0.0345835
0.0600253
-0.0217108
-0.00881152
-0.00571917
-0.0742768
0.01141
-0.128042
0.02848
-0.167142
0.0450499
-0.192976
0.0607023
-0.20694
0.075042
-0.211281
0.0878944
-0.208311
0.0992571
-0.200144
0.109242
-0.188564
0.118017
-0.174982
0.125762
-0.160461
0.13264
-0.145763
0.138789
-0.131407
0.144316
-0.117725
0.149303
-0.104909
0.153812
-0.0930525
0.157886
-0.0821748
0.16156
-0.0722477
0.164859
-0.0632103
0.167805
-0.0549812
0.170412
-0.047466
0.172696
-0.0405622
-0.0341575
-0.000662491
0.197361
-0.0011292
0.194934
-0.00248323
0.184814
-0.0023113
0.160889
0.0036394
0.114415
0.013957
0.0499713
0.0269754
-0.0215638
0.0406949
-0.0877433
0.0545471
-0.141666
0.0683339
-0.180732
0.0812566
-0.205736
0.0929754
-0.21853
0.103334
-0.221542
0.112351
-0.217256
0.12016
-0.207902
0.126949
-0.195319
0.132916
-0.180928
0.138238
-0.16577
0.143054
-0.150572
0.147467
-0.135815
0.151545
-0.121799
0.155329
-0.108692
0.158842
-0.096565
0.162096
-0.0854288
0.165096
-0.0752477
0.167844
-0.0659577
0.170338
-0.0574758
0.17258
-0.0497076
0.174569
-0.0425513
-0.0358932
0.0143858
0.183035
0.0267934
0.182612
0.0359887
0.175769
0.0459786
0.151104
0.0575142
0.103121
0.0699282
0.0378178
0.0823651
-0.0337394
0.0938949
-0.0990255
0.104348
-0.151896
0.113692
-0.189885
0.121718
-0.213604
0.128411
-0.225098
0.133898
-0.226935
0.138395
-0.221684
0.142147
-0.211606
0.145389
-0.198528
0.148314
-0.183832
0.151063
-0.168506
0.153726
-0.153226
0.156347
-0.138432
0.158942
-0.124391
0.161501
-0.111249
0.164005
-0.0990685
0.166429
-0.0878524
0.168746
-0.0775653
0.170934
-0.0681449
0.17297
-0.0595119
0.174838
-0.0515755
0.176525
-0.0442381
-0.0373885
0.0360524
0.147012
0.0603937
0.158364
0.0783886
0.157934
0.0964314
0.133271
0.113989
0.0858055
0.129862
0.0222004
0.142221
-0.0458436
0.151465
-0.108029
0.157864
-0.158079
0.161934
-0.193771
0.164178
-0.215696
0.165085
-0.225885
0.165122
-0.226881
0.164703
-0.221198
0.16416
-0.211017
0.163733
-0.19807
0.163573
-0.183651
0.163753
-0.168674
0.164289
-0.153755
0.165156
-0.139295
0.166304
-0.125536
0.16767
-0.112614
0.16919
-0.100588
0.170802
-0.0894641
0.17245
-0.0792129
0.174085
-0.0697798
0.175666
-0.0610934
0.177162
-0.0530708
0.178545
-0.0456215
-0.0386404
0.207475
0.00522991
0.207107
0.010398
0.20655
0.0156848
0.205799
0.021127
0.204853
0.0266359
0.20372
0.0320708
0.202413
0.0373045
0.200952
0.0422636
0.19936
0.0469389
0.19766
0.0513762
0.195871
0.05566
0.194016
0.0598949
0.192111
0.0641922
0.190171
0.06866
0.188212
0.0733995
0.186244
0.0785047
0.184282
0.084065
0.182338
0.0901702
0.180429
0.0969173
0.178576
0.104419
0.176809
0.112813
0.175166
0.122278
0.173708
0.133057
0.172521
0.145481
0.17175
0.160032
0.171666
0.177434
0.172928
0.198735
0.177962
0.225253
0.20099
0.253481
0.269467
0.3098
0.212518
0.00539466
0.21219
0.0107261
0.211694
0.0161803
0.211027
0.021794
0.21019
0.0274733
0.20919
0.0330704
0.208044
0.038451
0.20677
0.0435365
0.205394
0.0483144
0.203939
0.0528291
0.202431
0.0571649
0.200894
0.0614267
0.199351
0.0657259
0.197825
0.0701702
0.19634
0.0748596
0.194922
0.0798856
0.1936
0.0853333
0.192409
0.0912861
0.191395
0.0978309
0.19062
0.105065
0.190171
0.113103
0.190176
0.122086
0.190831
0.13219
0.192447
0.143634
0.195565
0.156672
0.201209
0.171549
0.211452
0.188263
0.230057
0.206443
0.258583
0.224796
0.24163
0.286338
0.217685
0.00553748
0.217401
0.0110103
0.216972
0.0166088
0.216397
0.0223692
0.215677
0.0281929
0.214823
0.033925
0.213849
0.0394246
0.212777
0.0446078
0.211632
0.0494583
0.210441
0.0540186
0.209231
0.0583716
0.208032
0.0626214
0.206871
0.0668779
0.205779
0.0712469
0.204791
0.0758249
0.203944
0.0806983
0.203283
0.0859446
0.202864
0.091636
0.20276
0.0978429
0.203069
0.104638
0.203925
0.112101
0.205522
0.120317
0.208142
0.129376
0.212208
0.139357
0.218359
0.150302
0.227528
0.162162
0.240879
0.174706
0.259479
0.187662
0.2833
0.200838
0.211389
0.313476
0.222978
0.00565657
0.222741
0.011247
0.222385
0.0169649
0.221908
0.0228456
0.221315
0.0287858
0.220616
0.0346243
0.219827
0.0402136
0.21897
0.0454644
0.218071
0.0503566
0.217158
0.05493
0.216262
0.0592651
0.215414
0.0634639
0.214651
0.0676337
0.214007
0.0718768
0.213527
0.0762844
0.213259
0.0809357
0.213261
0.0858979
0.213606
0.0912288
0.214388
0.0969789
0.215728
0.103193
0.217791
0.10991
0.220798
0.117159
0.225052
0.124951
0.230959
0.133264
0.239052
0.142019
0.249976
0.151051
0.264443
0.160066
0.283368
0.168593
0.308139
0.175966
0.179786
0.33971
0.2284
0.00575031
0.228213
0.0114331
0.227934
0.0172439
0.227563
0.0232169
0.227104
0.0292444
0.226569
0.0351592
0.225975
0.0408077
0.225344
0.0460953
0.224702
0.0509978
0.224079
0.0555515
0.223508
0.0598339
0.223023
0.063944
0.222665
0.0679852
0.222475
0.0720549
0.222503
0.0762381
0.222806
0.080605
0.223453
0.0852113
0.224528
0.0900994
0.226137
0.0952989
0.228412
0.100827
0.231525
0.106685
0.235696
0.112857
0.241204
0.119297
0.248396
0.125916
0.257692
0.132564
0.269586
0.139004
0.284643
0.144873
0.303517
0.149613
0.326871
0.152551
0.152625
0.354029
0.233953
0.00581728
0.233821
0.0115658
0.233623
0.0174418
0.233362
0.0234778
0.233044
0.0295622
0.232681
0.0355222
0.23229
0.0411986
0.231893
0.0464918
0.231517
0.0513732
0.231192
0.0558751
0.230953
0.0600715
0.230836
0.0640572
0.230883
0.0679313
0.231142
0.0717853
0.231667
0.0756971
0.232521
0.0797277
0.233778
0.0839212
0.235526
0.0883048
0.237875
0.0928892
0.240958
0.0976678
0.244936
0.102614
0.250009
0.107677
0.256415
0.112772
0.26443
0.117774
0.274369
0.122498
0.286571
0.126685
0.301361
0.129983
0.318968
0.131935
0.339466
0.132025
0.129739
0.362371
0.239642
0.0058563
0.239565
0.0116427
0.239452
0.017555
0.239306
0.0236239
0.239134
0.0297338
0.238949
0.0357073
0.238768
0.0413801
0.238611
0.0466478
0.238507
0.0514773
0.238484
0.0558967
0.238578
0.0599758
0.238827
0.063805
0.239274
0.0674781
0.23997
0.0710807
0.240971
0.0746832
0.24234
0.0783379
0.244155
0.0820782
0.246504
0.0859184
0.24949
0.0898535
0.253236
0.093859
0.257887
0.0978884
0.263609
0.10187
0.270587
0.1057
0.279025
0.109239
0.289128
0.1123
0.301082
0.114645
0.315014
0.115984
0.330939
0.115971
0.348735
0.114225
0.110457
0.36805
0.245469
0.00586646
0.24545
0.0116621
0.245423
0.0175812
0.245395
0.0236519
0.245374
0.0297554
0.245371
0.0357105
0.245402
0.0413482
0.24549
0.0465599
0.245659
0.0513079
0.245938
0.0556162
0.246363
0.0595499
0.24697
0.0631945
0.247805
0.0666386
0.248917
0.0699616
0.250362
0.0732273
0.252204
0.0764801
0.254515
0.0797444
0.257378
0.0830241
0.260889
0.0863036
0.265153
0.0895464
0.270288
0.0926951
0.276423
0.0956684
0.283693
0.0983594
0.292228
0.100632
0.30214
0.102319
0.313506
0.103222
0.326333
0.103116
0.340532
0.101755
0.355883
0.0988855
0.0943645
0.372015
0.251436
0.00584712
0.251476
0.0116228
0.251539
0.0175184
0.251631
0.0235596
0.251761
0.0296249
0.251942
0.0355296
0.252189
0.0411014
0.252521
0.0462276
0.252962
0.0508665
0.25354
0.0550375
0.254287
0.0588012
0.255241
0.0622382
0.256444
0.0654317
0.257945
0.0684556
0.259795
0.0713677
0.262057
0.074206
0.264795
0.076988
0.268085
0.079711
0.272006
0.0823525
0.276644
0.0848707
0.282092
0.0872044
0.288439
0.089273
0.295771
0.0909758
0.30416
0.0921925
0.31365
0.0927842
0.324239
0.0925965
0.335867
0.0914666
0.348385
0.0892336
0.361541
0.0857499
0.0809613
0.374983
0.257548
0.00579794
0.257647
0.0115241
0.257799
0.0173659
0.258013
0.0233462
0.258296
0.0293414
0.258661
0.0351646
0.259122
0.0406405
0.259696
0.0456533
0.260404
0.0501575
0.261273
0.0541683
0.262331
0.0577417
0.263615
0.0609533
0.265162
0.0638815
0.267017
0.0665954
0.269231
0.0691476
0.271855
0.0715715
0.27495
0.0738802
0.278575
0.0760674
0.282798
0.0781079
0.287682
0.0799596
0.293291
0.0815637
0.299684
0.0828463
0.306904
0.08372
0.314978
0.0840851
0.3239
0.0838336
0.333623
0.0828533
0.344045
0.0810355
0.355
0.0782842
0.366246
0.0745256
0.0697568
0.377485
0.263807
0.00571888
0.263965
0.011366
0.264207
0.0171238
0.264541
0.0230122
0.264976
0.0289061
0.265524
0.0346172
0.266195
0.0399687
0.267006
0.0448422
0.267975
0.0491888
0.269123
0.0530198
0.270477
0.0563868
0.272068
0.0593609
0.273931
0.0620161
0.276106
0.0644171
0.278635
0.066613
0.281565
0.0686341
0.284944
0.0704912
0.288821
0.0721773
0.293245
0.073668
0.298261
0.0749244
0.303909
0.0758943
0.310218
0.0765147
0.317201
0.076714
0.32485
0.076415
0.333127
0.0755388
0.341961
0.0740095
0.351234
0.0717608
0.360784
0.0687431
0.370399
0.0649302
0.0603483
0.379836
0.270216
0.00561021
0.270433
0.0111491
0.270763
0.016793
0.271216
0.0225591
0.271801
0.0283213
0.272527
0.0338912
0.273404
0.0390914
0.274445
0.0438018
0.275662
0.0479708
0.277076
0.0516062
0.278707
0.0547553
0.280581
0.0574853
0.28273
0.0598661
0.285185
0.0619591
0.287983
0.0638109
0.291162
0.0654501
0.294759
0.0668875
0.29881
0.0681171
0.303349
0.0691181
0.308403
0.0698574
0.313991
0.0702917
0.32012
0.0703705
0.326781
0.0700388
0.333943
0.0692404
0.341551
0.0679216
0.349521
0.0660356
0.357736
0.0635474
0.366049
0.0604387
0.374284
0.0567121
0.0524079
0.382246
0.276779
0.00547248
0.277053
0.0108745
0.277471
0.0163755
0.27804
0.0219898
0.27877
0.0275911
0.279669
0.0329922
0.280745
0.0380161
0.282004
0.042542
0.283458
0.0465164
0.285121
0.0499438
0.287007
0.052868
0.289139
0.0553523
0.291541
0.0574633
0.294238
0.0592598
0.29726
0.0607868
0.300634
0.0620726
0.304387
0.0631292
0.308545
0.0639536
0.313125
0.0645298
0.318142
0.0648321
0.323598
0.0648269
0.329483
0.0644765
0.335771
0.0637413
0.342421
0.0625834
0.349369
0.0609696
0.356528
0.0588752
0.363792
0.0562867
0.371033
0.0532058
0.378106
0.0496512
0.0456682
0.384861
0.283499
0.0053065
0.283829
0.0105438
0.284331
0.0158739
0.285013
0.0213079
0.285883
0.0267207
0.286948
0.031927
0.288212
0.0367519
0.28968
0.0410746
0.291356
0.0448404
0.293248
0.0480512
0.295368
0.0507474
0.297731
0.0529891
0.300354
0.0548399
0.303255
0.0563568
0.306456
0.0575839
0.309976
0.0585501
0.313833
0.0592695
0.31804
0.059743
0.322604
0.0599605
0.327527
0.0599039
0.332799
0.0595493
0.338399
0.0588707
0.344293
0.0578421
0.350432
0.0564406
0.356751
0.0546487
0.36317
0.0524573
0.369592
0.0498675
0.375911
0.0468926
0.382012
0.043559
0.0399118
0.387779
0.29038
0.00511332
0.290764
0.0101592
0.291346
0.0152914
0.292136
0.0205184
0.29314
0.0257166
0.294363
0.0307042
0.295805
0.0353094
0.297467
0.0394127
0.299349
0.0429588
0.301452
0.0459475
0.303783
0.0484165
0.306349
0.0504226
0.309161
0.0520272
0.312232
0.0532855
0.315573
0.0542414
0.319196
0.0549251
0.323111
0.0553532
0.32732
0.055531
0.331823
0.0554542
0.336612
0.055112
0.341668
0.0544898
0.346964
0.0535715
0.352461
0.0523424
0.358109
0.0507911
0.363845
0.0489118
0.369598
0.0467059
0.375284
0.0441834
0.380817
0.0413639
0.386106
0.0382762
0.0349624
0.391062
0.297425
0.00489419
0.297861
0.00972328
0.29852
0.0146321
0.299412
0.0196267
0.300543
0.024586
0.301914
0.029333
0.303523
0.0337001
0.305365
0.0375704
0.307435
0.0408886
0.30973
0.0436529
0.312248
0.0458983
0.314991
0.0476793
0.317963
0.0490546
0.32117
0.0500783
0.324616
0.0507943
0.328307
0.051234
0.332241
0.0514171
0.336418
0.0513528
0.340828
0.0510425
0.345456
0.050482
0.35028
0.0496645
0.355267
0.0485823
0.360379
0.0472293
0.365566
0.0456029
0.370773
0.0437054
0.375935
0.0415448
0.380984
0.0391361
0.385849
0.0365012
0.39046
0.0336689
0.0306768
0.39475
0.304639
0.00465051
0.305123
0.00923874
0.305855
0.0139003
0.306843
0.0186388
0.308092
0.0233368
0.309602
0.0278234
0.311365
0.0319365
0.313373
0.0355624
0.315615
0.0386468
0.318081
0.0411868
0.320764
0.0432152
0.323659
0.0447837
0.326765
0.045949
0.330079
0.0467639
0.3336
0.0472723
0.337327
0.0475069
0.341253
0.0474898
0.345371
0.0472343
0.349666
0.0467463
0.354119
0.0460277
0.358705
0.0450776
0.363392
0.0438951
0.368139
0.0424808
0.372904
0.0408379
0.377636
0.038974
0.38228
0.0369011
0.386781
0.0346365
0.391081
0.0322022
0.395127
0.0296252
0.026938
0.398869
0.312025
0.00438379
0.312555
0.00870862
0.313355
0.0131005
0.314433
0.0175611
0.315792
0.0219775
0.317429
0.0261859
0.319335
0.0300309
0.321494
0.0334033
0.32389
0.0362504
0.326509
0.0385684
0.329336
0.0403882
0.332361
0.0417587
0.335575
0.0427345
0.338971
0.0433672
0.342543
0.0437003
0.346282
0.0437674
0.350179
0.0435928
0.35422
0.0431929
0.358388
0.0425778
0.362661
0.0417536
0.367014
0.0407246
0.371414
0.0394946
0.375825
0.0380689
0.380208
0.0364549
0.38452
0.034663
0.388714
0.0327074
0.392745
0.0306056
0.39657
0.0283788
0.400145
0.026051
0.0236502
0.403434
0.319588
0.00409556
0.32016
0.00813601
0.321023
0.0122376
0.322184
0.0164002
0.323645
0.0205164
0.325401
0.0244307
0.327436
0.0279957
0.329731
0.0311075
0.332266
0.0337155
0.335019
0.0358156
0.337971
0.0374364
0.341105
0.0386245
0.344407
0.0394321
0.347865
0.0399089
0.351468
0.0400979
0.355202
0.0400332
0.359054
0.0397407
0.363007
0.039239
0.367043
0.0385413
0.37114
0.0376571
0.37527
0.0365942
0.379404
0.03536
0.38351
0.0339626
0.387553
0.032412
0.391496
0.0307202
0.395302
0.0289018
0.398934
0.0269738
0.402358
0.0249554
0.405542
0.0228678
0.0207344
0.408459
0.327331
0.00378734
0.327944
0.00752393
0.328865
0.0113161
0.330103
0.0151625
0.331657
0.0189617
0.33352
0.0225681
0.335673
0.025843
0.338092
0.0286887
0.34075
0.0310573
0.343621
0.0329445
0.34668
0.0343771
0.349906
0.0353988
0.353279
0.0360589
0.356782
0.0364055
0.3604
0.0364801
0.364116
0.0363168
0.367915
0.0359424
0.371777
0.0353768
0.375683
0.0346353
0.37961
0.0337299
0.383533
0.0326707
0.387426
0.0314672
0.391259
0.0301294
0.395002
0.0286685
0.398626
0.0270968
0.402099
0.0254286
0.405394
0.0236797
0.408482
0.0218671
0.411341
0.020009
0.018125
0.413951
0.335261
0.00346055
0.335909
0.00687525
0.336885
0.0103405
0.338193
0.013854
0.339834
0.0173214
0.341794
0.0206075
0.344054
0.0235837
0.346583
0.0261592
0.349351
0.0282892
0.352326
0.0299697
0.355478
0.031225
0.358781
0.032096
0.362211
0.0326291
0.365747
0.0328695
0.369369
0.0328572
0.373061
0.0326257
0.376801
0.0322014
0.380573
0.0316053
0.384354
0.0308536
0.388125
0.0299597
0.39186
0.0289351
0.395537
0.0277904
0.39913
0.0265366
0.402613
0.0251848
0.405963
0.0237474
0.409154
0.0222376
0.412164
0.0206696
0.414973
0.0190582
0.417564
0.0174187
0.0157673