/*--------------------------------*- C++ -*----------------------------------*\
| =========                 |                                                 |
| \\      /  F ield         | OpenFOAM: The Open Source CFD Toolbox           |
|  \\    /   O peration     | Version:  5.x                                   |
|   \\  /    A nd           | Web:      www.OpenFOAM.org                      |
|    \\/     M anipulation  |                                                 |
\*---------------------------------------------------------------------------*/
FoamFile
{
    version     2.0;
    format      ascii;
    class       surfaceScalarField;
    location    "2.3";
    object      meshPhi;
}
// * * * * * * * * * * * * * * * * * * * * * * * * * * * * * * * * * * * * * //

dimensions      [0 3 -1 0 0 0 0];

internalField   nonuniform List<scalar> 
5457
(
-0.000226677
4.64373e-06
-0.000417505
1.30683e-05
-0.000569556
1.9694e-05
-0.000696511
2.46585e-05
-0.00080415
2.88658e-05
-0.000892758
3.27006e-05
-0.000963974
3.60751e-05
-0.00101986
3.90292e-05
-0.00106219
4.16434e-05
-0.0010925
4.39812e-05
-0.00111226
4.6045e-05
-0.00112279
4.78414e-05
-0.00112529
4.94244e-05
-0.00112087
5.08677e-05
-0.00111045
5.22425e-05
-0.0010947
5.35937e-05
-0.0010739
5.49365e-05
-0.00104749
5.61829e-05
-0.00101361
5.69522e-05
-0.000971799
5.68718e-05
-0.00092389
5.60051e-05
-0.00087109
5.44611e-05
-0.000812658
5.20228e-05
-0.000743235
4.78684e-05
-0.000660859
4.0645e-05
-0.000566455
2.88828e-05
-0.000460672
1.05256e-05
-0.000350513
-1.71735e-05
-0.000276279
-5.55473e-05
-0.000105487
-0.000227899
9.31245e-06
-0.00041862
2.62994e-05
-0.000569135
3.96551e-05
-0.000695832
4.95309e-05
-0.000804279
5.79609e-05
-0.000893377
6.57339e-05
-0.000964921
7.25587e-05
-0.00102111
7.85256e-05
-0.0010638
8.37448e-05
-0.00109449
8.83211e-05
-0.00111466
9.24046e-05
-0.00112559
9.60333e-05
-0.0011285
9.92191e-05
-0.00112459
0.000102119
-0.00111485
0.000104886
-0.00110009
0.000107618
-0.001081
0.0001104
-0.00105768
0.000113227
-0.00102664
0.000115193
-0.000986587
0.000115236
-0.000941217
0.000113685
-0.000893428
0.000111066
-0.000846705
0.000107423
-0.000790148
0.000101372
-0.000721858
8.9928e-05
-0.000653073
7.08205e-05
-0.000586851
4.18807e-05
-0.000531579
-2.52371e-07
-0.00053549
-5.56986e-05
-0.000139698
-0.000230608
1.39402e-05
-0.000421213
3.9653e-05
-0.000568138
5.98538e-05
-0.000694344
7.43802e-05
-0.000804717
8.69551e-05
-0.000894779
9.87963e-05
-0.000966952
0.000109124
-0.00102371
0.000118146
-0.00106703
0.000126071
-0.00109851
0.000133087
-0.00111955
0.000139383
-0.00113129
0.000144943
-0.00113501
0.00014977
-0.00113213
0.000154149
-0.00112369
0.000158341
-0.0011107
0.000162477
-0.00109461
0.000166772
-0.00107854
0.000171915
-0.00105395
0.000176139
-0.0010165
0.000176609
-0.000975068
0.000174528
-0.00093338
0.000171295
-0.000904291
0.000167595
-0.000876427
0.000163501
-0.000838983
0.000154663
-0.000813228
0.000137482
-0.00081825
0.000112769
-0.000874535
8.21124e-05
-0.00102391
5.05412e-05
3.72634e-06
-0.000235352
1.84522e-05
-0.000425644
5.1799e-05
-0.000565586
7.77614e-05
-0.000691515
9.77005e-05
-0.000805643
0.000115494
-0.000897012
0.000131623
-0.000970041
0.000145476
-0.00102761
0.000157565
-0.0010719
0.000168272
-0.00110462
0.000177908
-0.00112703
0.000186623
-0.00113994
0.000194224
-0.00114479
0.000200685
-0.00114336
0.000206528
-0.00113671
0.000212165
-0.00112575
0.000217662
-0.00111183
0.000223096
-0.00110373
0.000229575
-0.00109204
0.000236562
-0.00106235
0.000240354
-0.00102618
0.000240166
-0.000991997
0.000238221
-0.000975165
0.000236159
-0.000984373
0.000235943
-0.0010014
0.000236251
-0.00103594
0.000233992
-0.00112535
0.000231913
-0.00131302
0.000239648
-0.00162974
0.000269674
0.000326825
-0.000238233
2.2575e-05
-0.000427926
6.21036e-05
-0.000563591
9.32695e-05
-0.000690417
0.000120169
-0.000807551
0.000144179
-0.00090015
0.00016456
-0.000974176
0.000181976
-0.00103278
0.000197178
-0.00107838
0.000210708
-0.00111282
0.00022305
-0.00113719
0.000234408
-0.00115161
0.00024424
-0.00115779
0.000252305
-0.00115825
0.000259591
-0.00115396
0.000266787
-0.00114542
0.000273773
-0.00113308
0.000280369
-0.00112725
0.000286947
-0.00113395
0.000296495
-0.00112356
0.000306854
-0.00109637
0.00031161
-0.0010784
0.000313568
-0.00107658
0.000317169
-0.00111576
0.000323788
-0.00119018
0.000335749
-0.00129938
0.000355537
-0.00147497
0.00038853
-0.00176817
0.000447705
-0.00220483
0.000546634
0.000700195
-0.000235075
2.65573e-05
-0.000424727
7.32604e-05
-0.000565882
0.000111097
-0.000694671
0.000144373
-0.000810945
0.000173476
-0.000904407
0.00019793
-0.000979545
0.000218975
-0.00103939
0.000237364
-0.0010866
0.000253773
-0.00112329
0.000268948
-0.00115056
0.000283384
-0.00116687
0.000295819
-0.00117438
0.000305374
-0.00117739
0.00031405
-0.00117638
0.000323077
-0.00117149
0.000331916
-0.00116343
0.000340354
-0.00115813
0.00034856
-0.00117804
0.000360422
-0.00119176
0.000375775
-0.00118268
0.000387192
-0.00118779
0.000395787
-0.00121586
0.000407937
-0.00128385
0.000426105
-0.00139762
0.000452497
-0.0015697
0.00049335
-0.00181938
0.000558493
-0.0021768
0.000659807
-0.00264661
0.000801581
0.000976383
-0.00023016
3.07664e-05
-0.000420767
8.57815e-05
-0.000570247
0.000130931
-0.000700997
0.000169464
-0.000815532
0.000202782
-0.000909802
0.000231305
-0.000986202
0.000256022
-0.00104741
0.00027761
-0.00109641
0.000296838
-0.00113584
0.000314819
-0.0011676
0.000333007
-0.00118601
0.000348679
-0.00119415
0.000359226
-0.00120044
0.000369
-0.00120377
0.000380284
-0.00120412
0.000391636
-0.00120294
0.000402848
-0.00120384
0.000414456
-0.00122814
0.000429117
-0.00125985
0.000447767
-0.0012783
0.000466404
-0.00130896
0.000484324
-0.00136994
0.000506256
-0.00147147
0.000536723
-0.00161829
0.000579028
-0.0018279
0.000638353
-0.00212192
0.0007242
-0.00250058
0.000843673
-0.00293429
0.000987712
0.00109588
-0.000227254
3.50439e-05
-0.000419039
9.81345e-05
-0.000573582
0.000150147
-0.000706133
0.000193953
-0.00082064
0.000231646
-0.000916067
0.000264248
-0.000993909
0.00029268
-0.00105645
0.000317435
-0.00110713
0.000339273
-0.00114932
0.000359623
-0.00118432
0.000379657
-0.00120484
0.000397202
-0.00121582
0.000410898
-0.00122663
0.000424205
-0.00123515
0.00043853
-0.0012423
0.000453108
-0.00124902
0.000467893
-0.00125883
0.00048302
-0.00128621
0.000500749
-0.00133136
0.000523824
-0.00137862
0.000550588
-0.00143713
0.000578956
-0.00152537
0.000611863
-0.00165457
0.000653892
-0.00183171
0.000709536
-0.00206455
0.000782994
-0.00237411
0.000879711
-0.00274187
0.000998617
-0.00312823
0.0011235
0.00114358
-0.000225605
3.9349e-05
-0.000418268
0.00011037
-0.00057601
0.000168986
-0.000710437
0.000218068
-0.000825996
0.000260268
-0.000923133
0.000297056
-0.00100271
0.000329384
-0.00106639
0.000357372
-0.00111842
0.000381612
-0.00116249
0.000403759
-0.0011958
0.000423271
-0.00121985
0.000441506
-0.00124021
0.000461506
-0.00125675
0.000480995
-0.00127085
0.000498698
-0.00128535
0.000516614
-0.00130049
0.000535226
-0.00131824
0.000554325
-0.00134731
0.000574678
-0.00140653
0.000602078
-0.00148361
0.000639199
-0.00156752
0.000679656
-0.00167827
0.000723491
-0.00182641
0.000776836
-0.00202089
0.000843757
-0.00226774
0.000927967
-0.00257967
0.00103284
-0.00293683
0.00115303
-0.003327
0.00127797
0.00127633
-0.000224771
4.36832e-05
-0.000418013
0.000122569
-0.000577866
0.000187645
-0.000714254
0.00024202
-0.000831696
0.000288857
-0.000931318
0.000330009
-0.0010132
0.000366607
-0.00107768
0.000398043
-0.0011307
0.000424527
-0.00117635
0.000448707
-0.00120887
0.000470373
-0.00123881
0.000491766
-0.00126913
0.000516137
-0.00129113
0.000539478
-0.00131097
0.000560463
-0.00133255
0.000581956
-0.00135675
0.000604896
-0.00138447
0.000629446
-0.00141845
0.000655745
-0.00149122
0.000689624
-0.00159496
0.000735878
-0.00169806
0.000787229
-0.00182227
0.000840968
-0.00198359
0.000905039
-0.0021858
0.000984355
-0.00244145
0.00108269
-0.00275883
0.0012041
-0.00313294
0.00134685
-0.00359535
0.00151637
0.00159719
-0.000224521
4.79896e-05
-0.000418005
0.00013459
-0.000579223
0.000205904
-0.000717674
0.000265467
-0.000837682
0.000316951
-0.000940769
0.000362545
-0.0010259
0.000403958
-0.00109038
0.000439156
-0.00114391
0.000467414
-0.00119294
0.000494039
-0.00123127
0.000520588
-0.00126808
0.000547166
-0.00130236
0.000574124
-0.00132875
0.000599249
-0.00135498
0.000623578
-0.00138384
0.000649227
-0.00141763
0.000676939
-0.00145791
0.000707482
-0.00150791
0.000742172
-0.0015927
0.000784878
-0.00171312
0.000839993
-0.0018285
0.000901478
-0.00195493
0.000964075
-0.00212481
0.0010389
-0.00233401
0.001134
-0.00260193
0.00125407
-0.00293754
0.00140656
-0.00336058
0.00159988
-0.00391929
0.00184716
0.00205694
-0.000224796
5.22364e-05
-0.000418034
0.000146322
-0.000579862
0.000223531
-0.000720423
0.000288045
-0.000843488
0.000344061
-0.000951213
0.00039395
-0.0010385
0.000438517
-0.00110108
0.000475774
-0.00115679
0.000507328
-0.00121181
0.000538604
-0.00125853
0.000570233
-0.00130369
0.00060258
-0.00133958
0.000633493
-0.00136831
0.000660094
-0.00140175
0.00068724
-0.00143843
0.000717545
-0.00148136
0.000750309
-0.00153323
0.000786611
-0.00159978
0.000828117
-0.00169362
0.000877587
-0.00181966
0.000938636
-0.00194098
0.00100821
-0.00207341
0.0010843
-0.00225501
0.0011775
-0.00247479
0.00129496
-0.00275644
0.00144285
-0.0031227
0.00163713
-0.00361363
0.0018992
-0.00422085
0.00221615
0.00251565
-0.00022578
5.65004e-05
-0.000418017
0.000157922
-0.00057948
0.000240648
-0.00072222
0.000309852
-0.000848595
0.000370308
-0.000960036
0.000423854
-0.00104607
0.000469225
-0.00110862
0.000507811
-0.00117107
0.000545603
-0.00123218
0.00058322
-0.00128587
0.000619047
-0.001337
0.000654522
-0.00137463
0.000687593
-0.00140779
0.000717873
-0.00144975
0.000750392
-0.00149449
0.000786065
-0.00154544
0.000823969
-0.00160616
0.000865647
-0.00168188
0.000913004
-0.001779
0.000967965
-0.00189342
0.00103061
-0.00201939
0.001105
-0.00217754
0.00119935
-0.00238358
0.00131966
-0.00261732
0.00146576
-0.00290515
0.00164244
-0.00330825
0.00188038
-0.0038521
0.00220509
-0.00440982
0.00254196
0.00288891
-0.000227974
6.08965e-05
-0.000418016
0.000169599
-0.000577715
0.000257373
-0.000722959
0.000330972
-0.00085307
0.000395978
-0.00096567
0.000453232
-0.00105139
0.000501357
-0.00111998
0.000543786
-0.00118962
0.000586442
-0.00125383
0.00062786
-0.00131147
0.000666293
-0.00136016
0.000701475
-0.00140133
0.000735311
-0.00144764
0.000773032
-0.00149867
0.00081361
-0.00155075
0.000854493
-0.00160835
0.000897212
-0.00167565
0.000943952
-0.00175698
0.00099686
-0.00185577
0.00105815
-0.00196342
0.00112941
-0.00209524
0.00121385
-0.00227345
0.00131845
-0.00249939
0.00145307
-0.0027422
0.00161961
-0.00304233
0.00182608
-0.00347624
0.00210314
-0.00400547
0.00245022
-0.00441338
0.00274284
0.00324409
-0.000232291
6.55637e-05
-0.000418062
0.000181546
-0.00057372
0.000273614
-0.000722345
0.000351156
-0.000857532
0.000421056
-0.000971623
0.000482913
-0.00106154
0.000535991
-0.00113764
0.000583353
-0.00121059
0.000628807
-0.00127653
0.000672466
-0.00133586
0.000713551
-0.00138233
0.000751114
-0.00143106
0.00078886
-0.0014911
0.000832233
-0.00154915
0.000877905
-0.00160707
0.000923058
-0.00166998
0.000970103
-0.00174265
0.00102164
-0.00182865
0.00107992
-0.00193233
0.00114756
-0.00204971
0.00122749
-0.00218186
0.00132001
-0.00235915
0.00143108
-0.00257889
0.00156937
-0.00282961
0.00174528
-0.00316499
0.00197799
-0.00359374
0.00226634
-0.00399833
0.00255442
-0.00410374
0.00268026
0.00385567
-0.000657351
0.000374009
-0.00135412
0.000463277
-0.00232815
0.000581886
-0.00320429
0.000621514
-0.00369248
0.00061489
-0.0038768
0.000640356
-0.00388666
0.000621794
-0.00382321
0.000557885
-0.0037507
0.000497132
-0.00368089
0.000440491
-0.00361548
0.000393844
-0.00355447
0.000353739
-0.00349488
0.000320756
-0.0034311
0.000294529
-0.00335664
0.000271444
-0.00326745
0.000249908
-0.00316199
0.000230197
-0.003039
0.000211822
-0.00289758
0.00019451
-0.00273707
0.000178045
-0.00255699
0.000162228
-0.00235699
0.000146857
-0.00213678
0.000131731
-0.00189611
0.000116639
-0.00163471
0.000101354
-0.00135221
8.56196e-05
-0.00104814
6.91347e-05
-0.000721913
5.1545e-05
-0.00037177
3.23884e-05
1.12669e-05
-0.000931446
0.000780497
-0.00162883
0.000886868
-0.00253744
0.00107711
-0.00334267
0.00116924
-0.00380655
0.00119656
-0.00396909
0.00121915
-0.00395287
0.00115751
-0.00388262
0.00104087
-0.00380155
0.000936022
-0.00372513
0.000839808
-0.00365517
0.000756693
-0.00359087
0.000685213
-0.00352765
0.000625716
-0.00345869
0.00057594
-0.00337904
0.000531335
-0.00328585
0.000490194
-0.00317704
0.000452182
-0.00305122
0.00041661
-0.0029074
0.000382993
-0.00274487
0.00035093
-0.0025631
0.00032004
-0.00236169
0.000289944
-0.00214032
0.000260255
-0.00189869
0.00023057
-0.00163651
0.00020045
-0.0013534
0.000169393
-0.00104887
0.000136815
-0.000722315
0.00010202
-0.000371966
6.41054e-05
2.22979e-05
-0.00140433
0.00112745
-0.00206657
0.00121581
-0.00287974
0.00145172
-0.00357773
0.0016103
-0.00396386
0.00166258
-0.00407341
0.00165371
-0.00402742
0.00156576
-0.00394994
0.00142968
-0.00386143
0.00130048
-0.00377898
0.00118199
-0.00370544
0.00107806
-0.00363774
0.000987555
-0.00356923
0.000908139
-0.00349393
0.000838163
-0.00340844
0.000774944
-0.00331023
0.000716655
-0.0031971
0.00066235
-0.00306757
0.000611263
-0.00292058
0.000562774
-0.00275537
0.000516339
-0.00257135
0.000471434
-0.00236804
0.000427528
-0.00214508
0.000384077
-0.00190214
0.000340508
-0.00163889
0.000296191
-0.00135494
0.000250407
-0.00104976
0.000202303
-0.00072274
0.000150871
-0.0003721
9.47936e-05
3.29656e-05
-0.00195073
0.00133155
-0.00253909
0.0014292
-0.00324937
0.00170294
-0.00382158
0.00191818
-0.00408953
0.00197913
-0.00413746
0.00193699
-0.00408363
0.00185468
-0.00400152
0.00173404
-0.00390974
0.00159683
-0.0038263
0.0014683
-0.00375271
0.00135632
-0.00368224
0.00125715
-0.00360841
0.00116446
-0.00352774
0.00107895
-0.00343727
0.00100059
-0.00333439
0.000927768
-0.0032171
0.000859384
-0.00308395
0.000794634
-0.00293383
0.000732842
-0.00276595
0.000673378
-0.00257965
0.000615614
-0.00237442
0.000558901
-0.00214984
0.000502563
-0.00190556
0.000445887
-0.00164121
0.00038808
-0.00135638
0.000328226
-0.00105054
0.000265236
-0.000723058
0.000197811
-0.000372157
0.000124264
4.3201e-05
-0.00244784
0.00138277
-0.00296213
0.00155779
-0.00355926
0.00187382
-0.00400578
0.00212225
-0.00418288
0.00221187
-0.0041856
0.00217348
-0.00412854
0.002087
-0.00403996
0.00197169
-0.00394814
0.00183694
-0.00386762
0.0017084
-0.00379594
0.00159429
-0.00372328
0.00149091
-0.00364528
0.00139158
-0.0035601
0.00129636
-0.00346507
0.00120672
-0.00335785
0.00112226
-0.00323661
0.00104217
-0.00309993
0.000965744
-0.00294675
0.000892323
-0.00277622
0.000821264
-0.00258768
0.000751883
-0.00238054
0.000683441
-0.00215433
0.000615158
-0.00190868
0.00054621
-0.00164322
0.000475675
-0.00135753
0.00040247
-0.00105105
0.000325296
-0.000723157
0.000242598
-0.000372078
0.000152358
5.29477e-05
-0.00282896
0.00135676
-0.00331662
0.001676
-0.00382524
0.0020572
-0.00416275
0.00232378
-0.00427757
0.00241575
-0.00424019
0.00237641
-0.00416282
0.00227699
-0.00406947
0.00215844
-0.00398165
0.00203319
-0.00390506
0.00191242
-0.0038342
0.00179929
-0.00376004
0.00169283
-0.00367923
0.00159019
-0.00359027
0.00148969
-0.00349117
0.00139254
-0.00337997
0.0012994
-0.00325501
0.00121001
-0.00311499
0.00112392
-0.00295886
0.00104058
-0.00278579
0.000959405
-0.00259508
0.000879697
-0.00238609
0.000800653
-0.00215829
0.000721413
-0.0019113
0.000641071
-0.00164475
0.000558613
-0.00135823
0.000472824
-0.00105119
0.000382223
-0.000722965
0.000285033
-0.000371825
0.000178948
6.21608e-05
-0.00311764
0.0013926
-0.00364003
0.00186329
-0.00409669
0.00228656
-0.00432458
0.00252983
-0.00435735
0.00257725
-0.00428076
0.00251398
-0.00418617
0.00241237
-0.0040954
0.00230314
-0.00401481
0.00219285
-0.00394145
0.00208334
-0.00386924
0.0019744
-0.00379315
0.00186755
-0.00370992
0.00176309
-0.00361771
0.00165977
-0.00351501
0.00155808
-0.00340019
0.00145894
-0.00327181
0.00136256
-0.00312865
0.00126877
-0.00296973
0.00117721
-0.00279427
0.00108739
-0.00260154
0.000998667
-0.00239081
0.000910178
-0.00216149
0.000820993
-0.0019132
0.00073016
-0.00164561
0.000636609
-0.00135835
0.000539035
-0.00105084
0.000435811
-0.000722427
0.000324964
-0.000371377
0.000203941
7.08075e-05
-0.00339882
0.00160308
-0.00396456
0.00214826
-0.00434235
0.00253066
-0.00444852
0.00268939
-0.00439915
0.00267936
-0.00429943
0.00260032
-0.00420466
0.00250715
-0.00412157
0.00241399
-0.00404748
0.00231974
-0.00397574
0.00222184
-0.00390173
0.00211979
-0.00382309
0.00201602
-0.00373721
0.00191206
-0.00364203
0.0018079
-0.00353611
0.00170398
-0.00341805
0.00160116
-0.00328654
0.00149987
-0.00314048
0.0014002
-0.00297896
0.00130202
-0.00280129
0.00120499
-0.00260675
0.00110854
-0.00239447
0.00101178
-0.00216374
0.00091368
-0.0019142
0.00081326
-0.00164563
0.000709455
-0.00135773
0.000600913
-0.00104993
0.000485902
-0.00072151
0.00036228
-0.000370726
0.000227272
7.88673e-05
-0.00373864
0.00198984
-0.00427788
0.00248026
-0.00451538
0.00273794
-0.00450857
0.00278508
-0.00441288
0.00273054
-0.00431031
0.00265134
-0.00422344
0.00257328
-0.00414812
0.0024973
-0.00407754
0.00241782
-0.00400589
0.00233124
-0.00393038
0.00223768
-0.00384936
0.00213942
-0.00376084
0.0020384
-0.0036629
0.00193542
-0.00355411
0.00183122
-0.00343315
0.00172663
-0.00329883
0.00162225
-0.00315011
0.00151837
-0.00298619
0.00141503
-0.00280651
0.00131212
-0.00261044
0.0012092
-0.00239688
0.00110535
-0.00216489
0.000999373
-0.00191416
0.000890257
-0.00164467
0.000777014
-0.00135626
0.00065832
-0.00104839
0.000532384
-0.000720209
0.000396914
-0.000369888
0.000248912
8.63334e-05
-0.0041229
0.002417
-0.0045297
0.00275621
-0.0046024
0.00285394
-0.00452141
0.00281256
-0.00441663
0.00274363
-0.00432356
0.00267902
-0.00424424
0.00261905
-0.00417324
0.00255847
-0.00410361
0.00249178
-0.00403133
0.00241607
-0.0039544
0.00233161
-0.00387133
0.00224028
-0.00378043
0.00214394
-0.00368002
0.00204384
-0.00356869
0.00194096
-0.00344519
0.00183622
-0.00330838
0.0017303
-0.00315726
0.00162364
-0.00299109
0.00151643
-0.00280957
0.00140878
-0.00261233
0.00130059
-0.00239795
0.00119089
-0.00216489
0.00107812
-0.00191296
0.000961148
-0.00164255
0.000839216
-0.00135377
0.000711149
-0.00104614
0.000575171
-0.000718562
0.000428836
-0.000368917
0.000268876
9.32176e-05
-0.00446785
0.00271364
-0.00467216
0.00289634
-0.00461808
0.00286573
-0.0045138
0.00278977
-0.00442074
0.00273282
-0.00433929
0.00268923
-0.00426505
0.00264756
-0.0041952
0.00260093
-0.00412508
0.00254568
-0.00405173
0.00248021
-0.00397341
0.00240493
-0.00388857
0.00232126
-0.00379564
0.00223075
-0.0036931
0.00213479
-0.0035796
0.00203452
-0.00345391
0.00193091
-0.00331494
0.00182476
-0.00316169
0.00171656
-0.00299338
0.00160657
-0.00281003
0.00149508
-0.002612
0.00138255
-0.00239754
0.00126831
-0.00216381
0.00115002
-0.00191056
0.00102604
-0.0016391
0.000896042
-0.00135004
0.000759298
-0.00104311
0.000614173
-0.00071668
0.000458053
-0.000367952
0.00028724
9.95644e-05
-0.00469532
0.0028103
-0.00470907
0.0029015
-0.00460189
0.00281146
-0.00450626
0.0027466
-0.00442606
0.0027112
-0.00435282
0.0026863
-0.00428213
0.00266024
-0.00421262
0.00262672
-0.00414182
0.00258274
-0.00406737
0.00252726
-0.00398779
0.00246103
-0.0039015
0.00238527
-0.00380692
0.00230121
-0.00370259
0.00221018
-0.00358724
0.0021134
-0.0034597
0.00201191
-0.00331888
0.00190655
-0.00316379
0.00179787
-0.00299346
0.0016861
-0.00280805
0.00157153
-0.00260914
0.00145521
-0.0023952
0.00133721
-0.00216137
0.00121461
-0.00190679
0.0010847
-0.00163405
0.000947375
-0.0013447
0.000802605
-0.00103909
0.000649236
-0.000714799
0.000484597
-0.000367315
0.000304197
0.000105486
-0.00479619
0.00277138
-0.0046955
0.00283667
-0.00459229
0.00274563
-0.00450917
0.0027036
-0.00443348
0.00268526
-0.00436261
0.00267383
-0.00429357
0.00266024
-0.0042244
0.00263862
-0.00415336
0.00260566
-0.00407845
0.00256026
-0.00399803
0.00250301
-0.0039106
0.00243505
-0.00381464
0.00235755
-0.00370881
0.00227181
-0.00359188
0.00217906
-0.00346275
0.00208036
-0.00332037
0.00197658
-0.00316375
0.00186831
-0.0029918
0.0017558
-0.00280442
0.00163927
-0.00260395
0.00151974
-0.00238994
0.00139779
-0.0021564
0.00127107
-0.00190113
0.00113639
-0.00162707
0.000992869
-0.00133702
0.000840741
-0.00103349
0.000679956
-0.000713214
0.000508368
-0.000367696
0.000320078
0.000111224
-0.00483061
0.00271357
-0.0047105
0.00276995
-0.0046118
0.00267984
-0.00452379
0.00265278
-0.00444285
0.00264988
-0.00436905
0.00265256
-0.00429953
0.00265117
-0.0042305
0.00264039
-0.00415955
0.0026174
-0.00408452
0.00258136
-0.00400348
0.0025326
-0.00391508
0.00247212
-0.00381794
0.00240113
-0.00371082
0.00232086
-0.00359256
0.0022325
-0.00346211
0.0021371
-0.00331848
0.00203552
-0.00316072
0.00192838
-0.00298782
0.00181606
-0.00279933
0.00169876
-0.00259708
0.00157702
-0.00238161
0.00145126
-0.00214805
0.0013202
-0.00189311
0.00118128
-0.00161826
0.00103268
-0.00132691
0.000874015
-0.00102542
0.000706313
-0.000711094
0.000528804
-0.000368983
0.000334297
0.000116573
-0.00517281
0.00304246
-0.00484883
0.00250302
-0.00466251
0.00252819
-0.00454012
0.00256562
-0.0044484
0.00259828
-0.00437114
0.00262225
-0.00430064
0.00263471
-0.00423148
0.00263429
-0.00416033
0.00262023
-0.00408479
0.00259244
-0.00400301
0.00255142
-0.00391367
0.00249807
-0.00381548
0.00243348
-0.00370726
0.0023588
-0.00358792
0.00227511
-0.00345643
0.0021834
-0.00331187
0.00208451
-0.00315336
0.00197909
-0.00298002
0.00186756
-0.0027913
0.00175018
-0.00258802
0.00162717
-0.00237077
0.00149862
-0.00213667
0.00136381
-0.0018827
0.00122097
-0.00160847
0.00106816
-0.00131654
0.000904293
-0.00101562
0.000730176
-0.000705533
0.000545869
-0.00036789
0.000344908
0.000120332
-0.000248889
6.99524e-05
-0.000432176
0.000191368
-0.000586237
0.000286203
-0.000747395
0.000369011
-0.000895827
0.000445643
-0.00101776
0.000512865
-0.00111699
0.000570744
-0.00120182
0.000622657
-0.0012797
0.00067134
-0.00135074
0.000717719
-0.0014152
0.000762103
-0.00147021
0.000804823
-0.00152952
0.000848223
-0.00159745
0.000894899
-0.00166269
0.000943472
-0.00172698
0.000992308
-0.00179619
0.00104306
-0.00187626
0.00109896
-0.00196962
0.00116227
-0.00208044
0.00123454
-0.0021986
0.00131489
-0.00233607
0.00141017
-0.00253024
0.00153506
-0.00274994
0.00168634
-0.00302609
0.0018701
-0.00339766
0.00210312
-0.00379245
0.00235621
-0.00407935
0.00254655
-0.00407788
0.00254083
0.00232398
-0.00260145
-0.000255592
7.13887e-05
-0.000435928
0.000196156
-0.000592316
0.000297068
-0.000765841
0.000388061
-0.000924857
0.000471256
-0.0010535
0.000543185
-0.00116038
0.00060557
-0.00125238
0.000661747
-0.00133497
0.000713781
-0.0014109
0.000763062
-0.00148185
0.000810932
-0.00154816
0.000858358
-0.0016167
0.00090676
-0.00168954
0.000957422
-0.0017612
0.00100969
-0.00182973
0.00106195
-0.00190302
0.00111559
-0.00198967
0.00117529
-0.00208937
0.00124343
-0.00220323
0.00132041
-0.00231672
0.00140539
-0.00247108
0.00150845
-0.00269133
0.00164305
-0.00292776
0.00180255
-0.00321992
0.00198551
-0.00357598
0.00219203
-0.00391349
0.00238715
-0.00414401
0.00250643
-0.00423513
0.00249171
0.00236868
-0.00431281
-0.000244819
7.13857e-05
-0.000437462
0.000200804
-0.000612343
0.000311617
-0.000793996
0.000410372
-0.000957387
0.000497718
-0.0010922
0.000573375
-0.00120662
0.000639998
-0.00130554
0.000700279
-0.00139296
0.000755687
-0.00147416
0.000807885
-0.00155249
0.000859195
-0.00162875
0.000910949
-0.00170659
0.000963975
-0.00178705
0.00101905
-0.00186711
0.0010761
-0.00193801
0.00113183
-0.00201295
0.0011869
-0.00210742
0.00124959
-0.00221572
0.00132296
-0.00233758
0.00140593
-0.00246796
0.00149991
-0.00264431
0.00161177
-0.00287501
0.00174686
-0.00312705
0.00190086
-0.00341605
0.00206873
-0.00373029
0.00223819
-0.00401401
0.00237863
-0.00421166
0.00245149
-0.00431088
0.00242931
0.00233484
-0.00436238
-0.00022491
7.17173e-05
-0.000439641
0.000206794
-0.000639995
0.00032727
-0.0008271
0.00043233
-0.000992792
0.000523438
-0.00113376
0.000603008
-0.00125602
0.000673874
-0.00136195
0.000738304
-0.00145368
0.00079693
-0.00153984
0.000851604
-0.00162593
0.000906018
-0.00171155
0.000961759
-0.00179888
0.00101905
-0.00188918
0.00107867
-0.00197454
0.00113843
-0.00204351
0.00119405
-0.00212392
0.00125145
-0.00223117
0.00132033
-0.00235194
0.0014001
-0.00248776
0.00148873
-0.00264233
0.00158859
-0.00283494
0.0017037
-0.00306508
0.00183441
-0.00331702
0.00197571
-0.00358669
0.00211897
-0.0038575
0.00224969
-0.00409804
0.00234793
-0.00427919
0.00239407
-0.00439615
0.00237455
0.00230818
-0.00447317
-0.000215228
7.44705e-05
-0.000448117
0.000216182
-0.000666799
0.000343406
-0.000859982
0.000453256
-0.00103032
0.0005482
-0.00117831
0.000631732
-0.00130931
0.000706919
-0.00142305
0.000775895
-0.00151713
0.000837496
-0.00160653
0.000893464
-0.00170101
0.000950385
-0.00179581
0.00100997
-0.00189258
0.00107113
-0.00199239
0.00113441
-0.00207125
0.00119312
-0.0021388
0.00124681
-0.0022387
0.00131073
-0.00236284
0.00138842
-0.00249824
0.0014736
-0.00264911
0.00156617
-0.00282102
0.00166834
-0.00302192
0.00178108
-0.0032474
0.0019017
-0.00348607
0.0020244
-0.00372782
0.00214022
-0.00396111
0.00223817
-0.00417272
0.00230775
-0.0043455
0.00233943
-0.0044704
0.0023252
0.00227828
-0.00455419
-0.000228332
7.99519e-05
-0.000469914
0.000229339
-0.000694561
0.000360166
-0.000893267
0.000473118
-0.0010698
0.00057174
-0.00122553
0.000659116
-0.00136702
0.000738579
-0.00148655
0.000810667
-0.00157799
0.000872713
-0.00167154
0.000930066
-0.00177702
0.000991172
-0.00188124
0.00105509
-0.00198821
0.0011201
-0.00209104
0.00118486
-0.00216009
0.00124214
-0.00223963
0.00129903
-0.00236535
0.00137096
-0.00250376
0.00145412
-0.00265279
0.00154193
-0.00281625
0.00163555
-0.00299763
0.00173563
-0.00319772
0.00184083
-0.00341166
0.00194729
-0.00363034
0.00204985
-0.00384484
0.00214137
-0.00404576
0.002213
-0.00423914
0.00226245
-0.00441282
0.00228969
-0.00453788
0.00228281
0.00224577
-0.00461841
-0.000251328
8.45833e-05
-0.000497727
0.000240778
-0.000723015
0.000375291
-0.000926999
0.00049141
-0.00111096
0.00059368
-0.00127408
0.000684585
-0.00142338
0.000766548
-0.0015432
0.000838691
-0.0016345
0.000901466
-0.00173834
0.00096374
-0.0018547
0.0010299
-0.00196772
0.0010969
-0.00208274
0.00116396
-0.0021815
0.00122781
-0.00225631
0.00128699
-0.00236152
0.00135249
-0.00250376
0.00143031
-0.00265255
0.00151474
-0.00281143
0.00160258
-0.00298174
0.00169367
-0.00316404
0.00178744
-0.00335663
0.0018818
-0.00355614
0.00197346
-0.0037561
0.00205844
-0.00394899
0.00213133
-0.00412398
0.00218563
-0.00430002
0.00222202
-0.00447334
0.00224309
-0.00459676
0.0022377
0.0022064
-0.00467124
-0.00027038
8.83996e-05
-0.000523302
0.000250556
-0.000750173
0.000388514
-0.000960306
0.000507583
-0.00115365
0.000613663
-0.00132342
0.000708121
-0.0014732
0.000791394
-0.00159434
0.000864419
-0.00169883
0.000931622
-0.00181397
0.000998856
-0.00193516
0.0010669
-0.00205573
0.00113532
-0.00217469
0.00120372
-0.00227457
0.00126899
-0.00237153
0.00133365
-0.00250025
0.00140556
-0.00264878
0.00148485
-0.00280429
0.00156764
-0.0029674
0.00165239
-0.00313813
0.00173788
-0.00331582
0.00182312
-0.00349906
0.00190625
-0.00368554
0.00198463
-0.00387051
0.0020551
-0.00404827
0.00211406
-0.00421073
0.00215815
-0.00436826
0.00218585
-0.00452203
0.00219628
-0.00463997
0.00218632
0.00215954
-0.00471429
-0.00028717
9.16444e-05
-0.000547305
0.000259025
-0.000774013
0.000399616
-0.000991473
0.000520908
-0.00119849
0.000631291
-0.00137592
0.0007302
-0.00152343
0.000815366
-0.00165284
0.000890751
-0.00177619
0.000962871
-0.00189497
0.00103227
-0.00201703
0.00109975
-0.00214718
0.00116986
-0.0022733
0.00124154
-0.00238626
0.00131108
-0.00250469
0.00138032
-0.00264428
0.00145348
-0.00279514
0.00153077
-0.00295253
0.00160999
-0.00311503
0.00168949
-0.00328256
0.00176803
-0.00345435
0.00184457
-0.00362906
0.00191734
-0.00380418
0.00198405
-0.00397625
0.0020422
-0.00414237
0.00208963
-0.00429771
0.00212433
-0.00444035
0.00214424
-0.0045701
0.00214815
-0.00467739
0.00213591
0.00211102
-0.00475168
-0.000303851
9.45302e-05
-0.000570026
0.000265932
-0.00078963
0.000406853
-0.00101688
0.000529376
-0.00124721
0.000645911
-0.00143294
0.000749966
-0.00157489
0.000835217
-0.00171806
0.000912429
-0.00185732
0.000989115
-0.0019701
0.00105838
-0.00209519
0.00112462
-0.0022431
0.00119867
-0.00238333
0.00127572
-0.00251073
0.00134843
-0.00264201
0.00141916
-0.00278526
0.00149167
-0.00293668
0.0015659
-0.00309297
0.00164045
-0.00325303
0.00171405
-0.00341665
0.00178559
-0.00358267
0.00185384
-0.00374935
0.00191717
-0.00391412
0.00197368
-0.00407442
0.00202146
-0.00422886
0.00205904
-0.00437399
0.00208522
-0.0045051
0.0020986
-0.00462022
0.00209829
-0.00471698
0.00208467
0.00206057
-0.00478715
-0.000309833
9.41182e-05
-0.000580352
0.000265715
-0.000800655
0.000409393
-0.0010421
0.000536544
-0.00129395
0.000657079
-0.00148613
0.000762931
-0.00162667
0.000849642
-0.00178402
0.000929984
-0.0019311
0.00100819
-0.00203845
0.00107681
-0.00217604
0.0011457
-0.00235023
0.00122643
-0.00250383
0.00130792
-0.00263661
0.0013802
-0.00277441
0.00144907
-0.00291966
0.00151919
-0.00307049
0.00158963
-0.00322516
0.0016593
-0.0033827
0.00172709
-0.00354223
0.00179183
-0.00370227
0.00185227
-0.00386108
0.00190703
-0.00401645
0.00195468
-0.00416611
0.00199377
-0.00430856
0.00202311
-0.00444183
0.00204192
-0.00456218
0.00204969
-0.00466705
0.00204611
-0.00475563
0.0020315
0.00200781
-0.004821
-0.000289364
8.97458e-05
-0.000567155
0.000258422
-0.00081809
0.000409077
-0.00107774
0.000543934
-0.00133232
0.000665466
-0.00153199
0.000771343
-0.00168901
0.000862467
-0.00185378
0.000946096
-0.00200214
0.00102436
-0.00212245
0.00109644
-0.00227992
0.00117098
-0.00246912
0.00125308
-0.00262585
0.00133204
-0.00275948
0.00140177
-0.00290027
0.00146858
-0.00304648
0.00153579
-0.00319678
0.00160232
-0.00334999
0.00166721
-0.00350486
0.00172936
-0.00365995
0.0017876
-0.00381381
0.00184079
-0.00396489
0.00188786
-0.00411137
0.00192774
-0.00425108
0.00195936
-0.00438233
0.0019818
-0.004504