/*--------------------------------*- C++ -*----------------------------------*\
| =========                 |                                                 |
| \\      /  F ield         | OpenFOAM: The Open Source CFD Toolbox           |
|  \\    /   O peration     | Version:  5.x                                   |
|   \\  /    A nd           | Web:      www.OpenFOAM.org                      |
|    \\/     M anipulation  |                                                 |
\*---------------------------------------------------------------------------*/
FoamFile
{
    version     2.0;
    format      ascii;
    class       volScalarField;
    location    "2.3";
    object      p;
}
// * * * * * * * * * * * * * * * * * * * * * * * * * * * * * * * * * * * * * //

dimensions      [0 2 -2 0 0 0 0];

internalField   nonuniform List<scalar> 
2790
(
98.0782
98.0565
98.3367
98.8216
99.4348
100.158
100.991
101.935
102.987
104.147
105.414
106.791
108.277
109.872
111.577
113.39
115.309
117.327
119.436
121.623
123.869
126.152
128.439
130.69
132.854
134.868
136.665
138.167
139.291
139.985
97.9128
97.9968
98.297
98.7784
99.389
100.111
100.941
101.88
102.927
104.081
105.342
106.71
108.186
109.771
111.464
113.264
115.168
117.172
119.266
121.438
123.67
125.941
128.222
130.475
132.65
134.691
136.535
138.121
139.39
140.362
97.7638
97.9215
98.2388
98.7107
99.3121
100.026
100.847
101.774
102.806
103.943
105.185
106.531
107.981
109.535
111.194
112.954
114.812
116.765
118.802
120.911
123.074
125.271
127.476
129.655
131.763
133.751
135.565
137.146
138.409
139.22
97.6083
97.8038
98.1345
98.5993
99.1909
99.8947
100.703
101.614
102.628
103.743
104.958
106.274
107.688
109.201
110.811
112.515
114.309
116.187
118.14
120.154
122.21
124.287
126.36
128.399
130.358
132.187
133.823
135.178
136.113
136.001
97.438
97.6538
97.9964
98.4568
99.0378
99.7286
100.521
101.412
102.401
103.488
104.67
105.946
107.315
108.775
110.324
111.958
113.671
115.455
117.302
119.196
121.114
123.034
124.932
126.771
128.506
130.071
131.377
132.267
132.631
130.886
97.2492
97.4755
97.826
98.2818
98.8499
99.524
100.296
101.163
102.123
103.175
104.317
105.548
106.863
108.261
109.739
111.291
112.908
114.583
116.305
118.058
119.813
121.548
123.231
124.822
126.263
127.469
128.317
128.547
128.242
124.52
97.0396
97.2709
97.6251
98.0751
98.6287
99.2834
100.032
100.871
101.797
102.81
103.906
105.084
106.338
107.665
109.062
110.521
112.032
113.584
115.165
116.757
118.33
119.853
121.29
122.592
123.683
124.455
124.756
124.193
123.225
117.534
96.8081
97.0414
97.3958
97.8381
98.3754
99.0084
99.7307
100.537
101.425
102.394
103.439
104.557
105.743
106.992
108.3
109.656
111.049
112.467
113.894
115.309
116.681
117.972
119.137
120.113
120.812
121.095
120.798
119.363
117.779
110.335
96.5546
96.7881
97.1397
97.5719
98.0913
98.7003
99.3934
100.164
101.011
101.93
102.919
103.972
105.084
106.249
107.459
108.703
109.971
111.245
112.506
113.73
114.886
115.927
116.796
117.42
117.691
117.448
116.523
114.171
112.007
103.081
96.2795
96.512
96.8582
97.2783
97.7781
98.3612
99.0223
99.7549
100.555
101.422
102.35
103.333
104.366
105.44
106.546
107.672
108.806
109.927
111.012
112.036
112.963
113.737
114.292
114.541
114.362
113.561
111.986
108.694
105.929
95.6965
95.9834
96.2141
96.5529
96.9588
97.4374
97.9927
98.6197
99.3108
100.062
100.873
101.736
102.646
103.594
104.572
105.568
106.571
107.564
108.525
109.428
110.243
110.93
111.426
111.651
111.509
110.859
109.478
107.226
102.973
99.4908
87.9259
95.6673
95.8955
96.2253
96.6152
97.0711
97.597
98.1876
98.8347
99.5348
100.286
101.082
101.914
102.774
103.651
104.535
105.41
106.257
107.052
107.768
108.369
108.808
109.015
108.902
108.357
107.224
105.241
102.275
97.0292
92.5951
79.4197
95.3323
95.5575
95.8767
96.2492
96.6812
97.1763
97.7284
98.3294
98.9762
99.6661
100.391
101.143
101.912
102.686
103.453
104.197
104.895
105.522
106.047
106.43
106.618
106.532
106.077
105.127
103.502
100.903
97.1781
90.8968
85.1446
69.8019
94.9795
95.2014
95.5088
95.8627
96.2697
96.7326
97.2446
97.7979
98.3897
99.0161
99.6688
100.338
101.013
101.683
102.332
102.943
103.49
103.948
104.282
104.447
104.382
104.005
103.213
101.864
99.7516
96.5399
92.0249
84.6701
77.1127
58.5693
94.6102
94.8285
95.1232
95.4574
95.8388
96.2682
96.7387
97.2433
97.7788
98.3401
98.9191
99.5045
100.085
100.649
101.18
101.657
102.054
102.344
102.488
102.438
102.128
101.47
100.354
98.6249
96.0525
92.2705
86.9892
78.601
68.7699
44.7313
4.05363
4.05821
4.0501
4.01614
3.93883
3.82275
3.69032
3.55867
3.43313
3.31287
3.19753
3.08769
2.97963
2.87283
2.77372
2.68301
2.5909
2.49353
2.40249
2.32116
2.24268
2.15502
2.04255
1.90037
1.7245
1.51771
1.27904
0.99945
0.667789
0.277306
4.04787
4.05161
4.03998
4.00255
3.92301
3.80744
3.67753
3.54889
3.42576
3.30679
3.19235
3.08429
2.97636
2.86778
2.76937
2.68297
2.59351
2.49331
2.39908
2.32065
2.24498
2.15765
2.05109
1.9121
1.73643
1.53195
1.29624
1.01683
0.679527
0.273171
4.02887
4.04166
4.02605
3.98229
3.89792
3.78247
3.65664
3.53319
3.41438
3.29803
3.18557
3.08138
2.97362
2.86345
2.76745
2.68348
2.58759
2.48217
2.39293
2.32347
2.26247
2.18921
2.08184
1.9324
1.75029
1.53931
1.29437
1.00597
0.662912
0.253506
4.00036
4.03127
4.01017
3.95803
3.86744
3.75233
3.63187
3.51543
3.40229
3.28898
3.17875
3.08357
2.97169
2.85044
2.76478
2.70806
2.62251
2.49729
2.39063
2.31913
2.25805
2.18388
2.07649
1.9296
1.74593
1.52957
1.27719
0.980853
0.63315
0.228072
3.9798
4.02715
3.99526
3.93315
3.8363
3.72238
3.60829
3.5006
3.39532
3.28389
3.16924
3.09607
3.00552
2.88064
2.77522
2.70065
2.61983
2.5142
2.41206
2.33168
2.26009
2.17679
2.0634
1.91152
1.72156
1.49784
1.23822
0.936574
0.58856
0.200169
3.981
4.03164
3.98613
3.91208
3.81096
3.70055
3.59385
3.49545
3.40219
3.30491
3.2012
3.10494
3.00794
2.90618
2.81149
2.72831
2.63787
2.53357
2.43101
2.34092
2.25542
2.15837
2.03413
1.87396
1.67803
1.44899
1.18403
0.878649
0.534618
0.175259
4.00854
4.04612
3.98529
3.90043
3.79835
3.69505
3.59748
3.50502
3.41423
3.32123
3.22955
3.13916
3.04288
2.94299
2.84818
2.757
2.65822
2.55014
2.44239
2.34081
2.23992
2.12724
1.9898
1.82054
1.61975
1.38705
1.11886
0.811616
0.475799
0.151634
4.05124
4.06894
3.99403
3.90297
3.79986
3.69912
3.60407
3.51618
3.43075
3.34595
3.26201
3.17629
3.08374
2.98557
2.88682
2.78616
2.67781
2.56207
2.44507
2.33011
2.21318
2.08469
1.93407
1.75613
1.55098
1.31621
1.04653
0.739346
0.415397
0.128997
4.09268
4.09699
4.00974
3.9106
3.80288
3.70069
3.60688
3.52368
3.44784
3.374
3.29896
3.21873
3.12957
3.03152
2.92693
2.81547
2.69537
2.56833
2.43877
2.30887
2.17575
2.0322
1.86973
1.68365
1.47467
1.23947
0.969806
0.664484
0.355078
0.107442
4.12936
4.12414
4.02191
3.91047
3.7954
3.69058
3.60195
3.52795
3.46417
3.4036
3.33964
3.26646
3.18027
3.08043
2.9682
2.84445
2.71028
2.56876
2.42394
2.27784
2.12863
1.97094
1.79802
1.60544
1.39358
1.15896
0.890815
0.589027
0.295913
0.0871128
4.17097
4.14164
4.02308
3.8929
3.76943
3.66444
3.58313
3.5236
3.47797
3.43524
3.38526
3.32052
3.23688
3.13344
3.01148
2.8734
2.72263
2.56378
2.40142
2.23809
2.07301
1.90221
1.72039
1.52347
1.30981
1.07626
0.811582
0.515022
0.239033
0.068077
4.21932
4.14333
3.99676
3.84741
3.71314
3.61001
3.54341
3.50814
3.49008
3.47185
3.43927
3.38394
3.30197
3.19281
3.05856
2.90344
2.7332
2.55427
2.37233
2.1909
2.0102
1.82723
1.63762
1.43771
1.2247
0.993265
0.732582
0.443331
0.184829
0.0502074
4.20522
4.11273
3.92457
3.7492
3.60601
3.51407
3.47694
3.48224
3.50549
3.51993
3.50767
3.46155
3.37946
3.26177
3.11184
2.93613
2.74309
2.54131
2.33798
2.13774
1.94181
1.7478
1.5515
1.34926
1.13805
0.91196
0.659324
0.381297
0.14029
0.0349583
4.3208
3.98756
3.76549
3.56424
3.4224
3.36247
3.38087
3.45213
3.53556
3.59104
3.59914
3.55969
3.47434
3.34427
3.17411
2.97323
2.75348
2.52609
2.2999
2.08062
1.87024
1.66661
1.46504
1.26106
1.05142
0.831483
0.591549
0.332197
0.110643
0.0233549
3.51085
3.70985
3.50037
3.27383
3.15187
3.15304
3.26091
3.4316
3.59911
3.70103
3.72231
3.68368
3.59123
3.44426
3.24801
3.01602
2.76498
2.50934
2.25952
2.02211
1.79948
1.58914
1.38512
1.1812
0.973256
0.758497
0.532123
0.296374
0.0963329
0.01594
94.2184
94.4327
94.7137
95.0274
95.3817
95.7759
96.2032
96.6577
97.1347
97.6287
98.1312
98.6306
99.1147
99.5715
99.9823
100.323
100.569
100.69
100.646
100.384
99.8351
98.9067
97.4855
95.4047
92.4226
88.1639
82.2496
73.0927
60.9804
25.782
93.7997
94.0087
94.2761
94.5683
94.8936
95.2505
95.6329
96.035
96.4511
96.8751
97.2986
97.7098
98.096
98.443
98.7312
98.9357
99.0298
98.9832
98.7541
98.2873
97.5098
96.3303
94.636
92.2576
88.9636
84.4106
78.2365
69.2502
58.4354
48.8707
93.3573
93.5594
93.8139
94.0841
94.3781
94.6961
95.0323
95.3805
95.7341
96.0863
96.4293
96.7514
97.0386
97.2754
97.4411
97.5097
97.4542
97.245
96.8389
96.1788
95.1922
93.793
91.8737
89.2776
85.8097
81.2137
75.3122
67.7266
59.5521
54.8544
92.8917
93.0861
93.3279
93.5752
93.8365
94.1144
94.4034
94.6967
94.9864
95.2657
95.5277
95.7604
95.9486
96.0759
96.1207
96.0557
95.8559
95.4927
94.921
94.0844
92.9157
91.3363
89.2494
86.5257
83.0215
78.5834
73.166
66.6711
59.1442
51.8363
92.4034
92.5907
92.819
93.0423
93.2702
93.5072
93.7483
93.9858
94.2108
94.4168
94.5979
94.7418
94.8322
94.8523
94.7786
94.5844
94.249
93.7431
93.0208
92.0297
90.7102
88.9936
86.7985
84.0282
80.5866
76.3886
71.41
65.5931
58.8107
51.938
91.8935
92.0754
92.2883
92.4865
92.6807
92.8765
93.0693
93.2506
93.4105
93.5436
93.645
93.7014
93.6962
93.6121
93.4238
93.1079
92.6477
92.0122
91.1569
90.0359
88.5981
86.7862
84.5366
81.7814
78.4604
74.5266
69.9672
64.7878
58.9931
53.1609
91.3634
91.5411
91.7374
91.9095
92.0701
92.225
92.3692
92.4939
92.5893
92.651
92.6741
92.645
92.5474
92.3627
92.0659
91.6388
91.0657
90.3144
89.3454
88.1197
86.595
84.7257
82.4651
79.7688
76.6015
72.9404
68.7906
64.19
59.1737
54.0572
90.8154
90.9889
91.168
91.3136
91.441
91.5555
91.6509
91.7187
91.7512
91.7438
91.6903
91.5784
91.3924
91.1121
90.7156
90.1886
89.5143
88.6624
87.5996
86.2935
84.7104
82.816
80.5782
77.9695
74.9715
71.5778
67.8038
63.6893
59.2719
54.7574
90.2516
90.4204
90.582
90.7009
90.796
90.871
90.9173
90.9288
90.901
90.8267
90.6986
90.5078
90.2385
89.8696
89.383
88.7668
88.0034
87.0668
85.9296
84.5656
82.9493
81.0562
78.8653
76.3609
73.5362
70.3958
66.9589
63.2623
59.3472
55.3664
89.6744
89.8376
89.9816
90.0741
90.1377
90.1741
90.1719
90.129
90.0435
89.9043
89.7045
89.4398
89.0935
88.6439
88.0767
87.3815
86.542
85.5363
84.3428
82.9411
81.3127
79.441
77.3131
74.9217
72.2678
69.3626
66.2269
62.8936
59.403
55.8711
89.0865
89.2424
89.3695
89.437
89.4695
89.4675
89.4186
89.324
89.1827
88.9811
88.7145
88.3817
87.9648
87.4421
86.8033
86.0398
85.137
84.0773
82.8441
81.4221
79.7984
77.9624
75.9074
73.6323
71.1428
68.4529
65.5838
62.565
59.4316
56.2739
88.491
88.637
88.7486
88.7935
88.7947
88.754
88.6615
88.5185
88.3227
88.0624
87.7352
87.3396
86.8577
86.2699
85.569
84.748
83.7944
82.6946
81.4361
80.008
78.4016
76.6112
74.6348
72.4752
70.1407
67.6462
65.0122
62.2647
59.4335
56.5897
87.89
88.026
88.1221
88.1459
88.1164
88.0377
87.9044
87.7156
87.4682
87.1545
86.7726
86.3188
85.7773
85.1331
84.38
83.5118
82.5187
81.3908
80.1192
78.6962
77.1166
75.3782
73.4825
71.4345
69.2442
66.9261
64.4991
61.986
59.4116
56.8325
87.285
87.4143
87.4948
87.4967
87.4375
87.3232
87.1512
86.9194
86.6248
86.2627
85.8309
85.3241
84.7297
84.0373
83.2409
82.3351
81.3126
80.1668
78.892
77.4831
75.937
74.2542
72.4385
70.4967
68.4391
66.2795
64.0348
61.7244
59.3691
57.0141
86.679
86.8045
86.871
86.8503
86.7622
86.6146
86.4061
86.1345
85.7973
85.3913
84.914
84.3601
83.7205
82.9874
82.1557
81.2207
80.1774
79.0222
77.7525
76.3645
74.8561
73.23
71.4921
69.6501
67.7139
65.6962
63.6117
61.4769
59.3094
57.1453
86.0766
86.1993
86.2536
86.211
86.0949
85.9162
85.6737
85.3656
84.99
84.5445
84.0266
83.4319
82.754
81.9872
81.1273
80.1707
79.1139
77.9559
76.6977
75.3359
73.8674
72.2975
70.6341
68.8849
67.059
65.1678
63.224
61.2418
59.2357
57.235
85.4823
85.6025
85.6454
85.5823
85.4401
85.2321
84.9585
84.6174
84.2073
83.7265
83.173
82.5436
81.8337
81.0394
80.1578
79.1865
78.1226
76.9671
75.7243
74.3913
72.9641
71.4494
69.8566
68.1929
66.4666
64.6879
62.8678
61.0182
59.1513
57.2911
84.9006
85.0183
85.0504
84.9684
84.8019
84.567
84.265
83.8942
83.4533
82.9415
82.3574
81.6987
80.9625
80.1464
79.2487
78.2683
77.2036
76.056
74.8298
73.5247
72.1392
70.6791
69.1526
67.5671
65.9304
64.2514
62.5399
60.8058
59.0594
57.3203
84.3358
84.4508
84.4726
84.3733
84.1846
83.9253
83.5977
83.2004
82.7324
82.1937
81.5835
80.9006
80.1433
79.3103
78.4011
77.416
76.355
75.219
74.0113
72.734
71.3889
69.9805
68.5156
67.0013
65.4449
63.8544
62.2381
60.6047
58.9625
57.3281
83.7921
83.9047
83.9169
83.8014
83.5925
83.3112
82.9609
82.5401
82.0486
81.4868
80.8549
80.1521
79.3781
78.5328
77.6165
76.6302
75.575
74.4524
73.2651
72.0165
70.7098
69.3493
67.9408
66.4909
65.0062
63.4938
61.961
60.4152
58.8635
57.3196
83.2738
83.3846
83.3881
83.2574
83.0301
82.7292
82.3588
81.9178
81.4059
80.8245
80.1747
79.4562
78.6693
77.8153
76.8952
75.9106
74.8631
73.7549
72.589
71.3688
70.0982
68.7816
67.4242
66.032
64.611
63.1674
61.7076
60.238
58.7648
57.2991
82.7854
82.8957
82.891
82.7457
82.5016
82.1835
81.7958
81.3376
80.8084
80.2104
79.5459
78.8152
78.0189
77.1592
76.2379
75.257
74.2187
73.1256
71.9807
70.7878
69.5508
68.2742
66.9628
65.622
64.2572
62.8739
61.4778
60.0743
58.6688
57.2707
82.3319
82.4427
82.4303
82.2711
82.0118
81.6788
81.2763
80.8035
80.2601
79.6483
78.9717
78.2315
77.4287
76.5658
75.6454
74.6697
73.6413
72.5632
71.4386
70.2712
69.0651
67.8245
66.554
65.2586
63.943
62.6122
61.2712
59.9248
58.5776
57.2375
81.9202
82.0291
82.0092
81.8383
81.5664
81.2208
80.8055
80.3198
79.7644
79.1418
78.4557
77.7082
76.9012
76.0373
75.1191
74.1495
73.1312
72.0676
70.9619
69.8179
68.6396
67.4311
66.1967
64.9409
63.668
62.3826
61.0891
59.7916
58.4942
57.2037
81.5584
81.6592
81.6306
81.4518
81.1706
80.8144
80.3877
79.891
79.3255
78.6942
78.0008
77.2481
76.4384
75.5745
74.6594
73.6961
72.6877
71.6375
70.5491
69.4261
68.2724
67.0919
65.8887
64.667
63.4307
62.1839
60.9305
59.6744
58.419
57.1702
81.2515
81.3402
81.3014
81.1164
80.8286
80.4638
80.0279
79.5221
78.9486
78.3107
77.612
76.8556
76.0445
75.1815
74.2699
73.3128
72.3136
71.2757
70.2025
69.0978
67.9653
66.8088
65.6321
64.4391
63.2335
62.019
60.7993
59.5777
58.3575
57.1435
81.0037
81.0797
81.0293
80.8373
80.5436
80.1718
79.7282
79.2151
78.6352
77.9921
77.2894
76.5306
75.7188
74.8572
73.9491
72.9978
72.0068
70.9793
69.9191
68.8297
67.7148
66.578
65.4229
64.2533
63.0725
61.8841
60.6914
59.4973
58.3049
57.1182
80.8233
80.8839
80.8205
80.6227
80.3252
79.9486
79.4994
78.9808
78.3961
77.7491
77.0436
76.2833
75.4713
74.6112
73.7062
72.7598
71.7754
70.7566
69.7068
68.6297
67.5287
66.4075
65.2696
64.1183
62.9571
61.7891
60.6175
59.4452
58.275
57.1104
80.7234
80.7511
80.6684
80.4659
80.1667
79.7872
79.3346
78.8128
78.2255
77.5765
76.8698
76.1089
75.2974
74.4387
73.5363
72.5936
71.6141
70.6014
69.5589
68.4902
67.3988
66.2882
65.1617
64.0227
62.8744
61.7199
60.5622
59.4039
58.2478
57.0968
80.7398
80.7098
80.6029
80.3948
80.0929
79.7102
79.2545
78.7301
78.1409
77.4907
76.7833
76.0225
75.2117
74.3544
73.4541
72.5143
71.5385
70.5302
69.4929
68.43
67.345
66.2414
65.1224
63.9913
62.8512
61.7052
60.556
59.4064
58.259
57.1161
-71.5467
-41.634
-13.3206
37.5888
33.6381
28.4633
43.7138
33.8134
26.9643
41.1109
34.2704
29.7731
44.5024
39.49
35.5724
47.2975
43.1246
39.6514
49.0636
45.5447
42.5968
50.4835
47.4988
44.9882
51.667
49.088
46.9131
52.6223
50.3595
48.45
53.3894
51.3819
49.6871
54.0054
52.2073
50.6882
54.4977
52.8734
51.5001
54.8887
53.4103
52.1593
55.1971
53.8421
52.6947
55.4379
54.1881
53.1289
55.6235
54.4638
53.4803
55.764
54.6819
53.7635
55.8679
54.8528
53.9905
55.9424
54.9853
54.1715
55.9937
55.0867
54.3148
56.0274
55.1637
54.4278
56.0474
55.2209
54.516
56.0592
55.2645
54.5859
56.0638
55.2959
54.6396
56.0694
55.3237
54.6856
56.0688
55.3409
54.718
56.0819
55.3675
54.7551
56.0806
55.3758
54.772
56.1138
55.4188
54.8195
8.23888
3.67035
2.82611
2.49632
2.48803
2.68516
3.02227
3.41161
3.73161
3.88233
3.89268
3.84567
3.7423
3.57186
3.33961
3.06674
2.77765
2.4906
2.21698
1.96386
1.73374
1.52284
1.32237
1.12254
0.916981
0.705043
0.489936
0.279299
0.101892
0.0140971
17.1162
5.30229
3.046
3.10374
3.14689
3.26144
3.55157
3.88988
4.11449
4.13317
4.063
4.01357
3.91316
3.71941
3.4416
3.11799
2.7854
2.46533
2.16907
1.90473
1.67548
1.47509
1.2895
1.10312
0.905902
0.697836
0.487596
0.289226
0.12313
0.0176119
18.8556
10.4682
7.19923
5.9691
5.06924
4.45804
4.22163
4.23525
4.34188
4.42975
4.47593
4.44488
4.2822
3.98762
3.60713
3.19778
2.79997
2.43262
2.10621
1.8317
1.61309
1.43859
1.28499
1.1278
0.95067
0.750706
0.539442
0.339235
0.168116
0.0228828
24.2184
17.8263
13.4742
10.6413
8.62231
7.19794
6.29599
5.77612
5.47568
5.26706
5.07541
4.85009
4.55486
4.17865
3.73919
3.27345
2.82132
2.41354
2.06982
1.80061
1.60378
1.46005
1.3381
1.20772
1.04967
0.859612
0.64753
0.433159
0.233523
0.051213
30.5245
24.7776
19.8026
15.9456
13.0784
10.9556
9.40621
8.28796
7.46277
6.81354
6.25776
5.7399
5.2203
4.67783
4.11605
3.55891
3.03776
2.57921
2.2002
1.90766
1.69663
1.54793
1.43142
1.31497
1.17375
0.996478
0.786989
0.559569
0.330459
0.0840656
35.3302
30.3192
25.3875
21.1554
17.7968
15.1543
13.0624
11.4048
10.0796
8.9911
8.06055
7.22846
6.45177
5.70577
4.98668
4.30755
3.68871
3.14864
2.69906
2.34297
2.07261
1.86825
1.70113
1.5408
1.36326
1.15632
0.920459
0.664477
0.4004
0.0954342
39.0048
34.7203
30.1393
25.914
22.355
19.4008
16.9313
14.8651
13.1322
11.6606
10.3839
9.24776
8.21176
7.25118
6.35697
5.53276
4.78891
4.13607
3.58055
3.12151
2.74915
2.44438
2.18159
1.93417
1.68056
1.40833
1.11493
0.804696
0.486894
0.129613
41.9404
38.2319
34.0723
30.0432
26.4884
23.4089
20.7291
18.398
16.3723
14.6035
13.0413
11.6413
10.3696
9.20371
8.13194
7.15169
6.2659
5.47869
4.79152
4.2006
3.69542
3.25882
2.86906
2.50367
2.14375
1.77701
1.39875
1.01005
0.617855
0.196763
44.2713
41.0146
37.267
33.5167
30.0899
27.0197
24.2627
21.7904
19.5816
17.6083
15.8344
14.2257
12.7566
11.4089
10.1709
9.03689
8.00492
7.07448
6.24354
5.50651
4.85313
4.26849
3.73447
3.23233
2.7457
2.26285
1.77755
1.2882
0.798323
0.287683
46.1258
43.2341
39.8583
36.4042
33.1643
30.1848
27.4408
24.9193
22.6165
20.5198
18.603
16.8407
15.2162
13.7171
12.3332
11.0576
9.88573
8.81438
7.83944
6.95448
6.14994
5.41303
4.72869
4.08134
3.45679
2.84394
2.23542
1.62713
1.01853
0.39273
47.6183
45.026
41.9728
38.7998
35.7653
32.9175
30.2412
27.7327
25.4004
23.2422
21.2387
19.3708
17.6302
16.0112
14.5056
13.106
11.8073
10.6048
9.49355
8.46698
7.51641
6.63091
5.79793
5.00437
4.23785
3.4878
2.74599
2.00619
1.2641
0.505013
48.8288
46.4853
43.7088
40.7905
37.9585
35.2583
32.6794
30.2235
27.905
25.729
23.6812
21.7465
19.924
18.2142
16.6106
15.1065
13.6966
12.3763
11.1405
9.98293
8.89585
7.86996
6.89466
5.95876
5.0513
4.16222
3.2827
2.40489
1.5216
0.619654
49.8149
47.6809
45.1418
42.4501
39.8081
37.2573
34.79
32.4097
30.1325
27.9677
25.905
23.9339
22.0588
20.2833
18.6029
17.0124
15.5075
14.0837
12.7365
11.4601
10.2479
9.09191
7.98297
6.91143
5.86745
4.84145
3.82429
2.80708
1.78076
0.733258
50.6208
48.665
46.3304
43.8388
41.3712
38.9649
36.6132
34.3198
32.1002
29.9643
27.9066
25.9227
24.0188
22.1982
20.4594
18.7991
17.2141
15.7008
14.2553
12.8726
11.5471
10.2718
9.03895
7.83995
6.66591
5.50772
4.3562
3.20193
2.03481
0.84366
51.2808
49.4775
47.3199
45.0047
42.6952
40.4247
38.1866
35.9839
33.8299
31.7338
29.6955
27.7162
25.8006
23.9517
22.1703
20.4551
18.804
17.2143
15.6831
14.2062
12.7789
11.3952
10.0483
8.73071
7.43418
6.15016
4.86963
3.58301
2.27984
0.949634
51.8216
50.1495
48.1455
45.9856
43.8181
41.673
39.5431
37.4301
35.3446
33.2956
31.2877
29.3244
27.4091
25.545
23.7343
21.9773
20.2727
18.6188
17.0136
15.454
13.9359
12.4544
11.0033
9.57613
8.16528
6.76272
5.35975
3.94693
2.51382
1.05058
52.2643
50.7055
48.835
46.8116
44.7709
42.7399
40.7106
38.6834
36.6671
34.6706
32.7001
30.76
28.8537
26.9846
25.1555
23.3675
21.6204
19.9133
18.245
16.6133
15.0149
13.4456
11.9
10.3723
8.85549
7.34217
5.82404
4.29196
2.73576
1.14621
52.6261
51.1653
49.4109
47.5072
45.5791
43.6509
41.7142
39.7678
37.8195
35.8775
33.9483
32.0363
30.1454
28.2791
26.4401
24.6302
22.8499
21.0992
19.3776
17.6837
16.0149
14.3674
12.7366
11.1172
9.50289
7.88683
6.26118
4.61722
2.94521
1.23642
52.921
51.5448
49.8915
48.0928
46.2644
44.4283
42.5758
40.7047
38.8214
36.9335
35.0468
33.1661
31.2952
29.4375
27.5955
25.7712
23.9655
22.1791
20.4128
18.666
16.9361
15.2196
13.5124
11.8099
10.1064
8.39567
6.67032
4.92212
3.14179
1.32108
53.1604
51.8576
50.2921
48.5853
46.8447
45.0909
43.3145
41.5125
39.6903
37.8543
36.0102
34.1622
32.314
30.4689
28.6296
26.7974
24.9723
23.1563
21.3529
19.562
17.7797
16.0026
14.2274
12.45
10.6656
8.86814
7.05098
5.20632
3.32533
1.40013
53.3542
52.1146
50.6254
48.9987
47.3355
45.6545
43.9463
42.2072
40.4413
38.6544
36.8514
35.036
33.2117
31.3818
29.5495
27.7149
25.8747
24.034
22.2013
20.3746
18.5474
16.7173
14.8817
13.0374
11.1798
9.30355
7.40246
5.46915
3.49527
1.47325
53.5105
52.3255
50.9024
49.3455
47.7498
46.133
44.4855
42.8029
41.0883
39.3469
37.5827
35.7989
33.9987
32.1853
30.3624
28.5285
26.6783
24.8194
22.9632
21.1061
19.2405
17.3644
15.4758
13.572
11.649
9.70182
7.72469
5.71066
3.65179
1.54066
53.636
52.4978
51.1316
49.635
48.0981
46.5375
44.9433
43.3109
41.6426
39.9426
38.2144
36.4607
34.6844
32.888
31.0742
29.2417
27.3873
25.5177
23.6416
21.7571
19.8586
17.9432
16.0088
14.0529
12.0719
10.0615
8.0162
5.9294
3.79358
1.6015
53.7375
52.6392
51.3217
49.8769
48.3905
46.8784
45.3308
43.7424
42.1149
40.452
38.7565
37.0308
35.2769
33.4968
31.692
29.8622
28.0076
26.1323
24.2403
22.3323
20.4057
18.4569
16.483
14.4818
12.4501
10.3841
8.27837
6.12678
3.9221
1.65693
53.8181
52.7535
51.4771
50.0761
48.6326
47.1618
45.654
44.1035
42.5114
40.8809
39.2143
37.5134
35.7797
34.0147
32.2194
30.3946
28.5414
26.6618
24.7578
22.8308
20.8802
18.9029
16.8956
14.8555
12.7801
10.6656
8.5072
6.29883
4.03366
1.70438
53.8857
52.8489
51.6067
50.2422
48.8345
47.3982
45.9237
44.405
42.8429
41.2398
39.5981
37.919
36.2035
34.4524
32.6667
30.8473
28.9955
27.1127
25.1999
23.2581
21.2878
19.2869
17.2516
15.179
13.0666
10.9111
8.70765
6.45055
4.13309
1.74745
53.9366
52.9223
51.7075
50.3721
48.9931
47.5846
46.137
44.644
43.1059
41.5251
39.9036
38.2431
36.5437
34.8049
33.0275
31.2128
29.3623
27.477
25.5574
23.6045
21.6187
19.5982
17.54
15.4409
13.2985
11.1092
8.86871
6.57136
4.21088
1.77974
53.9861
52.9888
51.7953
50.4824
49.1255
47.7384
46.3116
44.8386
43.3191
41.755
40.1488
38.5033
36.8174
35.088
33.3166
31.5057
29.6564
27.7692
25.8447
23.8836
21.8859
19.8502
17.774
15.6544
13.4885
11.2727
9.00277
6.67326
4.27797
1.80887
54.0137
53.0275
51.8481
50.5507
49.2089
47.8364
46.4237
44.9643
43.4577
41.9051
40.3092
38.6741
36.9974
35.274
33.5063
31.6979
29.8497
27.9616
26.0342
24.0676
22.0618
20.0158
17.9275
15.7939
13.6119
11.3778
9.08724
6.73505
4.31531
1.82122
54.0604
53.0739
51.9017
50.6137
49.2804
47.9156
46.51
45.0573
43.5568
42.01
40.4201
38.7905
37.1182
35.3983
33.6326
31.8247
29.9758
28.0862
26.1559
24.1852
22.174
20.1215
18.0256
15.8834
13.6915
11.4463
9.14302
6.77567
4.33651
1.81321
)
;

boundaryField
{
    inlet
    {
        type            zeroGradient;
    }
    outlet
    {
        type            fixedValue;
        value           uniform 0;
    }
    flap
    {
        type            zeroGradient;
    }
    upperWall
    {
        type            zeroGradient;
    }
    lowerWall
    {
        type            zeroGradient;
    }
    frontAndBack
    {
        type            empty;
    }
}


// ************************************************************************* //
