# vtk DataFile Version 2.0

ASCII

DATASET UNSTRUCTURED_GRID

POINTS 100 float 

0.0000000000000000e+00  0.0000000000000000e+00  0.0000000000000000e+00
1.0000000000000000e+00  0.0000000000000000e+00  0.0000000000000000e+00
2.0000000000000000e+00  0.0000000000000000e+00  0.0000000000000000e+00
3.0000000000000000e+00  0.0000000000000000e+00  0.0000000000000000e+00
4.0000000000000000e+00  0.0000000000000000e+00  0.0000000000000000e+00
5.0000000000000000e+00  0.0000000000000000e+00  0.0000000000000000e+00
6.0000000000000000e+00  0.0000000000000000e+00  0.0000000000000000e+00
7.0000000000000000e+00  0.0000000000000000e+00  0.0000000000000000e+00
8.0000000000000000e+00  0.0000000000000000e+00  0.0000000000000000e+00
9.0000000000000000e+00  0.0000000000000000e+00  0.0000000000000000e+00
1.0000000000000000e+01  0.0000000000000000e+00  0.0000000000000000e+00
1.1000000000000000e+01  0.0000000000000000e+00  0.0000000000000000e+00
1.2000000000000000e+01  0.0000000000000000e+00  0.0000000000000000e+00
1.3000000000000000e+01  0.0000000000000000e+00  0.0000000000000000e+00
1.4000000000000000e+01  0.0000000000000000e+00  0.0000000000000000e+00
1.5000000000000000e+01  0.0000000000000000e+00  0.0000000000000000e+00
1.6000000000000000e+01  0.0000000000000000e+00  0.0000000000000000e+00
1.7000000000000000e+01  0.0000000000000000e+00  0.0000000000000000e+00
1.8000000000000000e+01  0.0000000000000000e+00  0.0000000000000000e+00
1.9000000000000000e+01  0.0000000000000000e+00  0.0000000000000000e+00
2.0000000000000000e+01  0.0000000000000000e+00  0.0000000000000000e+00
2.1000000000000000e+01  0.0000000000000000e+00  0.0000000000000000e+00
2.2000000000000000e+01  0.0000000000000000e+00  0.0000000000000000e+00
2.3000000000000000e+01  0.0000000000000000e+00  0.0000000000000000e+00
2.4000000000000000e+01  0.0000000000000000e+00  0.0000000000000000e+00
2.5000000000000000e+01  0.0000000000000000e+00  0.0000000000000000e+00
2.6000000000000000e+01  0.0000000000000000e+00  0.0000000000000000e+00
2.7000000000000000e+01  0.0000000000000000e+00  0.0000000000000000e+00
2.8000000000000000e+01  0.0000000000000000e+00  0.0000000000000000e+00
2.9000000000000000e+01  0.0000000000000000e+00  0.0000000000000000e+00
3.0000000000000000e+01  0.0000000000000000e+00  0.0000000000000000e+00
3.1000000000000000e+01  0.0000000000000000e+00  0.0000000000000000e+00
3.2000000000000000e+01  0.0000000000000000e+00  0.0000000000000000e+00
3.3000000000000000e+01  0.0000000000000000e+00  0.0000000000000000e+00
3.4000000000000000e+01  0.0000000000000000e+00  0.0000000000000000e+00
3.5000000000000000e+01  0.0000000000000000e+00  0.0000000000000000e+00
3.6000000000000000e+01  0.0000000000000000e+00  0.0000000000000000e+00
3.7000000000000000e+01  0.0000000000000000e+00  0.0000000000000000e+00
3.8000000000000000e+01  0.0000000000000000e+00  0.0000000000000000e+00
3.9000000000000000e+01  0.0000000000000000e+00  0.0000000000000000e+00
4.0000000000000000e+01  0.0000000000000000e+00  0.0000000000000000e+00
4.1000000000000000e+01  0.0000000000000000e+00  0.0000000000000000e+00
4.2000000000000000e+01  0.0000000000000000e+00  0.0000000000000000e+00
4.3000000000000000e+01  0.0000000000000000e+00  0.0000000000000000e+00
4.4000000000000000e+01  0.0000000000000000e+00  0.0000000000000000e+00
4.5000000000000000e+01  0.0000000000000000e+00  0.0000000000000000e+00
4.6000000000000000e+01  0.0000000000000000e+00  0.0000000000000000e+00
4.7000000000000000e+01  0.0000000000000000e+00  0.0000000000000000e+00
4.8000000000000000e+01  0.0000000000000000e+00  0.0000000000000000e+00
4.9000000000000000e+01  0.0000000000000000e+00  0.0000000000000000e+00
5.0000000000000000e+01  0.0000000000000000e+00  0.0000000000000000e+00
5.1000000000000000e+01  0.0000000000000000e+00  0.0000000000000000e+00
5.2000000000000000e+01  0.0000000000000000e+00  0.0000000000000000e+00
5.3000000000000000e+01  0.0000000000000000e+00  0.0000000000000000e+00
5.4000000000000000e+01  0.0000000000000000e+00  0.0000000000000000e+00
5.5000000000000000e+01  0.0000000000000000e+00  0.0000000000000000e+00
5.6000000000000000e+01  0.0000000000000000e+00  0.0000000000000000e+00
5.7000000000000000e+01  0.0000000000000000e+00  0.0000000000000000e+00
5.8000000000000000e+01  0.0000000000000000e+00  0.0000000000000000e+00
5.9000000000000000e+01  0.0000000000000000e+00  0.0000000000000000e+00
6.0000000000000000e+01  0.0000000000000000e+00  0.0000000000000000e+00
6.1000000000000000e+01  0.0000000000000000e+00  0.0000000000000000e+00
6.2000000000000000e+01  0.0000000000000000e+00  0.0000000000000000e+00
6.3000000000000000e+01  0.0000000000000000e+00  0.0000000000000000e+00
6.4000000000000000e+01  0.0000000000000000e+00  0.0000000000000000e+00
6.5000000000000000e+01  0.0000000000000000e+00  0.0000000000000000e+00
6.6000000000000000e+01  0.0000000000000000e+00  0.0000000000000000e+00
6.7000000000000000e+01  0.0000000000000000e+00  0.0000000000000000e+00
6.8000000000000000e+01  0.0000000000000000e+00  0.0000000000000000e+00
6.9000000000000000e+01  0.0000000000000000e+00  0.0000000000000000e+00
7.0000000000000000e+01  0.0000000000000000e+00  0.0000000000000000e+00
7.1000000000000000e+01  0.0000000000000000e+00  0.0000000000000000e+00
7.2000000000000000e+01  0.0000000000000000e+00  0.0000000000000000e+00
7.3000000000000000e+01  0.0000000000000000e+00  0.0000000000000000e+00
7.4000000000000000e+01  0.0000000000000000e+00  0.0000000000000000e+00
7.5000000000000000e+01  0.0000000000000000e+00  0.0000000000000000e+00
7.6000000000000000e+01  0.0000000000000000e+00  0.0000000000000000e+00
7.7000000000000000e+01  0.0000000000000000e+00  0.0000000000000000e+00
7.8000000000000000e+01  0.0000000000000000e+00  0.0000000000000000e+00
7.9000000000000000e+01  0.0000000000000000e+00  0.0000000000000000e+00
8.0000000000000000e+01  0.0000000000000000e+00  0.0000000000000000e+00
8.1000000000000000e+01  0.0000000000000000e+00  0.0000000000000000e+00
8.2000000000000000e+01  0.0000000000000000e+00  0.0000000000000000e+00
8.3000000000000000e+01  0.0000000000000000e+00  0.0000000000000000e+00
8.4000000000000000e+01  0.0000000000000000e+00  0.0000000000000000e+00
8.5000000000000000e+01  0.0000000000000000e+00  0.0000000000000000e+00
8.6000000000000000e+01  0.0000000000000000e+00  0.0000000000000000e+00
8.7000000000000000e+01  0.0000000000000000e+00  0.0000000000000000e+00
8.8000000000000000e+01  0.0000000000000000e+00  0.0000000000000000e+00
8.9000000000000000e+01  0.0000000000000000e+00  0.0000000000000000e+00
9.0000000000000000e+01  0.0000000000000000e+00  0.0000000000000000e+00
9.1000000000000000e+01  0.0000000000000000e+00  0.0000000000000000e+00
9.2000000000000000e+01  0.0000000000000000e+00  0.0000000000000000e+00
9.3000000000000000e+01  0.0000000000000000e+00  0.0000000000000000e+00
9.4000000000000000e+01  0.0000000000000000e+00  0.0000000000000000e+00
9.5000000000000000e+01  0.0000000000000000e+00  0.0000000000000000e+00
9.6000000000000000e+01  0.0000000000000000e+00  0.0000000000000000e+00
9.7000000000000000e+01  0.0000000000000000e+00  0.0000000000000000e+00
9.8000000000000000e+01  0.0000000000000000e+00  0.0000000000000000e+00
9.9000000000000000e+01  0.0000000000000000e+00  0.0000000000000000e+00

POINT_DATA 100

VECTORS velocity float
1.0095241352623296e-02  0.0000000000000000e+00  0.0000000000000000e+00
1.0095242090737441e-02  0.0000000000000000e+00  0.0000000000000000e+00
1.0095242847975741e-02  0.0000000000000000e+00  0.0000000000000000e+00
1.0095243613141010e-02  0.0000000000000000e+00  0.0000000000000000e+00
1.0095244381666587e-02  0.0000000000000000e+00  0.0000000000000000e+00
1.0095245151691690e-02  0.0000000000000000e+00  0.0000000000000000e+00
1.0095245922458914e-02  0.0000000000000000e+00  0.0000000000000000e+00
1.0095246693660373e-02  0.0000000000000000e+00  0.0000000000000000e+00
1.0095247465171044e-02  0.0000000000000000e+00  0.0000000000000000e+00
1.0095248236940168e-02  0.0000000000000000e+00  0.0000000000000000e+00
1.0095249008947245e-02  0.0000000000000000e+00  0.0000000000000000e+00
1.0095249781183960e-02  0.0000000000000000e+00  0.0000000000000000e+00
1.0095250553646974e-02  0.0000000000000000e+00  0.0000000000000000e+00
1.0095251326334938e-02  0.0000000000000000e+00  0.0000000000000000e+00
1.0095252099247293e-02  0.0000000000000000e+00  0.0000000000000000e+00
1.0095252872383893e-02  0.0000000000000000e+00  0.0000000000000000e+00
1.0095253645744644e-02  0.0000000000000000e+00  0.0000000000000000e+00
1.0095254419329491e-02  0.0000000000000000e+00  0.0000000000000000e+00
1.0095255193138438e-02  0.0000000000000000e+00  0.0000000000000000e+00
1.0095255967171505e-02  0.0000000000000000e+00  0.0000000000000000e+00
1.0095256741428716e-02  0.0000000000000000e+00  0.0000000000000000e+00
1.0095257515910103e-02  0.0000000000000000e+00  0.0000000000000000e+00
1.0095258290615645e-02  0.0000000000000000e+00  0.0000000000000000e+00
1.0095259065545327e-02  0.0000000000000000e+00  0.0000000000000000e+00
1.0095259840699203e-02  0.0000000000000000e+00  0.0000000000000000e+00
1.0095260616077281e-02  0.0000000000000000e+00  0.0000000000000000e+00
1.0095261391679570e-02  0.0000000000000000e+00  0.0000000000000000e+00
1.0095262167506062e-02  0.0000000000000000e+00  0.0000000000000000e+00
1.0095262943556766e-02  0.0000000000000000e+00  0.0000000000000000e+00
1.0095263719831733e-02  0.0000000000000000e+00  0.0000000000000000e+00
1.0095264496330941e-02  0.0000000000000000e+00  0.0000000000000000e+00
1.0095265273054412e-02  0.0000000000000000e+00  0.0000000000000000e+00
1.0095266050002171e-02  0.0000000000000000e+00  0.0000000000000000e+00
1.0095266827174217e-02  0.0000000000000000e+00  0.0000000000000000e+00
1.0095267604570562e-02  0.0000000000000000e+00  0.0000000000000000e+00
1.0095268382191233e-02  0.0000000000000000e+00  0.0000000000000000e+00
1.0095269160036216e-02  0.0000000000000000e+00  0.0000000000000000e+00
1.0095269938105533e-02  0.0000000000000000e+00  0.0000000000000000e+00
1.0095270716399214e-02  0.0000000000000000e+00  0.0000000000000000e+00
1.0095271494917245e-02  0.0000000000000000e+00  0.0000000000000000e+00
1.0095272273659653e-02  0.0000000000000000e+00  0.0000000000000000e+00
1.0095273052626455e-02  0.0000000000000000e+00  0.0000000000000000e+00
1.0095273831817667e-02  0.0000000000000000e+00  0.0000000000000000e+00
1.0095274611233312e-02  0.0000000000000000e+00  0.0000000000000000e+00
1.0095275390873369e-02  0.0000000000000000e+00  0.0000000000000000e+00
1.0095276170737839e-02  0.0000000000000000e+00  0.0000000000000000e+00
1.0095276950826770e-02  0.0000000000000000e+00  0.0000000000000000e+00
1.0095277731140157e-02  0.0000000000000000e+00  0.0000000000000000e+00
1.0095278511678020e-02  0.0000000000000000e+00  0.0000000000000000e+00
1.0095279292440371e-02  0.0000000000000000e+00  0.0000000000000000e+00
1.0095280073427205e-02  0.0000000000000000e+00  0.0000000000000000e+00
1.0095280854638556e-02  0.0000000000000000e+00  0.0000000000000000e+00
1.0095281636074441e-02  0.0000000000000000e+00  0.0000000000000000e+00
1.0095282417734868e-02  0.0000000000000000e+00  0.0000000000000000e+00
1.0095283199619810e-02  0.0000000000000000e+00  0.0000000000000000e+00
1.0095283981729332e-02  0.0000000000000000e+00  0.0000000000000000e+00
1.0095284764063454e-02  0.0000000000000000e+00  0.0000000000000000e+00
1.0095285546622127e-02  0.0000000000000000e+00  0.0000000000000000e+00
1.0095286329405392e-02  0.0000000000000000e+00  0.0000000000000000e+00
1.0095287112413275e-02  0.0000000000000000e+00  0.0000000000000000e+00
1.0095287895645771e-02  0.0000000000000000e+00  0.0000000000000000e+00
1.0095288679102905e-02  0.0000000000000000e+00  0.0000000000000000e+00
1.0095289462784686e-02  0.0000000000000000e+00  0.0000000000000000e+00
1.0095290246691103e-02  0.0000000000000000e+00  0.0000000000000000e+00
1.0095291030822157e-02  0.0000000000000000e+00  0.0000000000000000e+00
1.0095291815177930e-02  0.0000000000000000e+00  0.0000000000000000e+00
1.0095292599758384e-02  0.0000000000000000e+00  0.0000000000000000e+00
1.0095293384563513e-02  0.0000000000000000e+00  0.0000000000000000e+00
1.0095294169593382e-02  0.0000000000000000e+00  0.0000000000000000e+00
1.0095294954847973e-02  0.0000000000000000e+00  0.0000000000000000e+00
1.0095295740327304e-02  0.0000000000000000e+00  0.0000000000000000e+00
1.0095296526031378e-02  0.0000000000000000e+00  0.0000000000000000e+00
1.0095297311960197e-02  0.0000000000000000e+00  0.0000000000000000e+00
1.0095298098113799e-02  0.0000000000000000e+00  0.0000000000000000e+00
1.0095298884492216e-02  0.0000000000000000e+00  0.0000000000000000e+00
1.0095299671095403e-02  0.0000000000000000e+00  0.0000000000000000e+00
1.0095300457923374e-02  0.0000000000000000e+00  0.0000000000000000e+00
1.0095301244976214e-02  0.0000000000000000e+00  0.0000000000000000e+00
1.0095302032253893e-02  0.0000000000000000e+00  0.0000000000000000e+00
1.0095302819756381e-02  0.0000000000000000e+00  0.0000000000000000e+00
1.0095303607483742e-02  0.0000000000000000e+00  0.0000000000000000e+00
1.0095304395435965e-02  0.0000000000000000e+00  0.0000000000000000e+00
1.0095305183613051e-02  0.0000000000000000e+00  0.0000000000000000e+00
1.0095305972015061e-02  0.0000000000000000e+00  0.0000000000000000e+00
1.0095306760641957e-02  0.0000000000000000e+00  0.0000000000000000e+00
1.0095307549493757e-02  0.0000000000000000e+00  0.0000000000000000e+00
1.0095308338570504e-02  0.0000000000000000e+00  0.0000000000000000e+00
1.0095309127872201e-02  0.0000000000000000e+00  0.0000000000000000e+00
1.0095309917398839e-02  0.0000000000000000e+00  0.0000000000000000e+00
1.0095310707150426e-02  0.0000000000000000e+00  0.0000000000000000e+00
1.0095311497126981e-02  0.0000000000000000e+00  0.0000000000000000e+00
1.0095312287328583e-02  0.0000000000000000e+00  0.0000000000000000e+00
1.0095313077755044e-02  0.0000000000000000e+00  0.0000000000000000e+00
1.0095313868406786e-02  0.0000000000000000e+00  0.0000000000000000e+00
1.0095314659282859e-02  0.0000000000000000e+00  0.0000000000000000e+00
1.0095315450385896e-02  0.0000000000000000e+00  0.0000000000000000e+00
1.0095316241708886e-02  0.0000000000000000e+00  0.0000000000000000e+00
1.0095317033270103e-02  0.0000000000000000e+00  0.0000000000000000e+00
1.0095317825022338e-02  0.0000000000000000e+00  0.0000000000000000e+00
1.0095318617087422e-02  0.0000000000000000e+00  0.0000000000000000e+00

SCALARS pressure float
LOOKUP_TABLE default
9.4070410724256186e-05
9.4082868475398311e-05
9.4095326226540437e-05
9.4107784243313355e-05
9.4120242633730951e-05
9.4132701441542152e-05
9.4145160684317781e-05
9.4157620368977394e-05
9.4170080498111528e-05
9.4182541072550141e-05
9.4195002092414406e-05
9.4207463557534590e-05
9.4219925467625766e-05
9.4232387822355110e-05
9.4244850621370637e-05
9.4257313864314397e-05
9.4269777550822815e-05
9.4282241680531534e-05
9.4294706253077114e-05
9.4307171268095318e-05
9.4319636725222409e-05
9.4332102624093160e-05
9.4344568964342318e-05
9.4357035745604208e-05
9.4369502967516652e-05
9.4381970629714505e-05
9.4394438731833637e-05
9.4406907273508265e-05
9.4419376254374721e-05
9.4431845674068808e-05
9.4444315532225787e-05
9.4456785828480634e-05
9.4469256562469084e-05
9.4481727733825951e-05
9.4494199342186807e-05
9.4506671387187225e-05
9.4519143868462263e-05
9.4531616785647587e-05
9.4544090138379001e-05
9.4556563926291237e-05
9.4569038149020057e-05
9.4581512806200466e-05
9.4593987897467939e-05
9.4606463422457291e-05
9.4618939380803499e-05
9.4631415772141781e-05
9.4643892596109054e-05
9.4656369852339913e-05
9.4668847540470107e-05
9.4681325660134192e-05
9.4693804210967117e-05
9.4706283192604821e-05
9.4718762604682172e-05
9.4731242446834566e-05
9.4743722718696206e-05
9.4756203419903615e-05
9.4768684550092119e-05
9.4781166108895139e-05
9.4793648095949274e-05
9.4806130510889774e-05
9.4818613353351913e-05
9.4831096622970720e-05
9.4843580319381037e-05
9.4856064442217812e-05
9.4868548991116416e-05
9.4881033965713693e-05
9.4893519365643375e-05
9.4906005190539786e-05
9.4918491440039774e-05
9.4930978113776904e-05
9.4943465211387142e-05
9.4955952732504964e-05
9.4968440676766009e-05
9.4980929043805606e-05
9.4993417833259261e-05
9.5005907044760267e-05
9.5018396677944429e-05
9.5030886732447794e-05
9.5043377207904998e-05
9.5055868103949365e-05
9.5068359420217837e-05
9.5080851156345035e-05
9.5093343311966020e-05
9.5105835886716701e-05
9.5118328880230429e-05
9.5130822292142721e-05
9.5143316122088881e-05
9.5155810369703991e-05
9.5168305034622392e-05
9.5180800116478979e-05
9.5193295614909472e-05
9.5205791529549201e-05
9.5218287860031651e-05
9.5230784605993831e-05
9.5243281767067085e-05
9.5255779342896636e-05
9.5268277333086112e-05
9.5280775737352117e-05
9.5293274555121473e-05
9.5305773786564591e-05

SCALARS diameter float
LOOKUP_TABLE default
1.0000925515498102e+00
1.0000925658239337e+00
1.0000925800980576e+00
1.0000925943724652e+00
1.0000926086472719e+00
1.0000926229225253e+00
1.0000926371982426e+00
1.0000926514744330e+00
1.0000926657510973e+00
1.0000926800282390e+00
1.0000926943058568e+00
1.0000927085839504e+00
1.0000927228625205e+00
1.0000927371415660e+00
1.0000927514210867e+00
1.0000927657010821e+00
1.0000927799815527e+00
1.0000927942624971e+00
1.0000928085439154e+00
1.0000928228258070e+00
1.0000928371081721e+00
1.0000928513910099e+00
1.0000928656743204e+00
1.0000928799581035e+00
1.0000928942423575e+00
1.0000929085270820e+00
1.0000929228122786e+00
1.0000929370979459e+00
1.0000929513840837e+00
1.0000929656706909e+00
1.0000929799577674e+00
1.0000929942453138e+00
1.0000930085333293e+00
1.0000930228218112e+00
1.0000930371107644e+00
1.0000930514001833e+00
1.0000930656900704e+00
1.0000930799804248e+00
1.0000930942712454e+00
1.0000931085625329e+00
1.0000931228542858e+00
1.0000931371465043e+00
1.0000931514391889e+00
1.0000931657323375e+00
1.0000931800259514e+00
1.0000931943200300e+00
1.0000932086145711e+00
1.0000932229095769e+00
1.0000932372050455e+00
1.0000932515009768e+00
1.0000932657973707e+00
1.0000932800942266e+00
1.0000932943915442e+00
1.0000933086893231e+00
1.0000933229875637e+00
1.0000933372862639e+00
1.0000933515854253e+00
1.0000933658850464e+00
1.0000933801851268e+00
1.0000933944856669e+00
1.0000934087866651e+00
1.0000934230881227e+00
1.0000934373900381e+00
1.0000934516924120e+00
1.0000934659952434e+00
1.0000934802985304e+00
1.0000934946022750e+00
1.0000935089064762e+00
1.0000935232111332e+00
1.0000935375162463e+00
1.0000935518218137e+00
1.0000935661278376e+00
1.0000935804343150e+00
1.0000935947412466e+00
1.0000936090486330e+00
1.0000936233564719e+00
1.0000936376647642e+00
1.0000936519735104e+00
1.0000936662827080e+00
1.0000936805923577e+00
1.0000936949024597e+00
1.0000937092130127e+00
1.0000937235240170e+00
1.0000937378354713e+00
1.0000937521473765e+00
1.0000937664597318e+00
1.0000937807725372e+00
1.0000937950857913e+00
1.0000938093994942e+00
1.0000938237136454e+00
1.0000938380282456e+00
1.0000938523432930e+00
1.0000938666587880e+00
1.0000938809747304e+00
1.0000938952911196e+00
1.0000939096079544e+00
1.0000939239252364e+00
1.0000939382429630e+00
1.0000939525611345e+00
1.0000939668797524e+00

