# vtk DataFile Version 2.0

ASCII

DATASET UNSTRUCTURED_GRID

POINTS 100 float 

0.0000000000000000e+00  0.0000000000000000e+00  0.0000000000000000e+00
1.0000000000000000e+00  0.0000000000000000e+00  0.0000000000000000e+00
2.0000000000000000e+00  0.0000000000000000e+00  0.0000000000000000e+00
3.0000000000000000e+00  0.0000000000000000e+00  0.0000000000000000e+00
4.0000000000000000e+00  0.0000000000000000e+00  0.0000000000000000e+00
5.0000000000000000e+00  0.0000000000000000e+00  0.0000000000000000e+00
6.0000000000000000e+00  0.0000000000000000e+00  0.0000000000000000e+00
7.0000000000000000e+00  0.0000000000000000e+00  0.0000000000000000e+00
8.0000000000000000e+00  0.0000000000000000e+00  0.0000000000000000e+00
9.0000000000000000e+00  0.0000000000000000e+00  0.0000000000000000e+00
1.0000000000000000e+01  0.0000000000000000e+00  0.0000000000000000e+00
1.1000000000000000e+01  0.0000000000000000e+00  0.0000000000000000e+00
1.2000000000000000e+01  0.0000000000000000e+00  0.0000000000000000e+00
1.3000000000000000e+01  0.0000000000000000e+00  0.0000000000000000e+00
1.4000000000000000e+01  0.0000000000000000e+00  0.0000000000000000e+00
1.5000000000000000e+01  0.0000000000000000e+00  0.0000000000000000e+00
1.6000000000000000e+01  0.0000000000000000e+00  0.0000000000000000e+00
1.7000000000000000e+01  0.0000000000000000e+00  0.0000000000000000e+00
1.8000000000000000e+01  0.0000000000000000e+00  0.0000000000000000e+00
1.9000000000000000e+01  0.0000000000000000e+00  0.0000000000000000e+00
2.0000000000000000e+01  0.0000000000000000e+00  0.0000000000000000e+00
2.1000000000000000e+01  0.0000000000000000e+00  0.0000000000000000e+00
2.2000000000000000e+01  0.0000000000000000e+00  0.0000000000000000e+00
2.3000000000000000e+01  0.0000000000000000e+00  0.0000000000000000e+00
2.4000000000000000e+01  0.0000000000000000e+00  0.0000000000000000e+00
2.5000000000000000e+01  0.0000000000000000e+00  0.0000000000000000e+00
2.6000000000000000e+01  0.0000000000000000e+00  0.0000000000000000e+00
2.7000000000000000e+01  0.0000000000000000e+00  0.0000000000000000e+00
2.8000000000000000e+01  0.0000000000000000e+00  0.0000000000000000e+00
2.9000000000000000e+01  0.0000000000000000e+00  0.0000000000000000e+00
3.0000000000000000e+01  0.0000000000000000e+00  0.0000000000000000e+00
3.1000000000000000e+01  0.0000000000000000e+00  0.0000000000000000e+00
3.2000000000000000e+01  0.0000000000000000e+00  0.0000000000000000e+00
3.3000000000000000e+01  0.0000000000000000e+00  0.0000000000000000e+00
3.4000000000000000e+01  0.0000000000000000e+00  0.0000000000000000e+00
3.5000000000000000e+01  0.0000000000000000e+00  0.0000000000000000e+00
3.6000000000000000e+01  0.0000000000000000e+00  0.0000000000000000e+00
3.7000000000000000e+01  0.0000000000000000e+00  0.0000000000000000e+00
3.8000000000000000e+01  0.0000000000000000e+00  0.0000000000000000e+00
3.9000000000000000e+01  0.0000000000000000e+00  0.0000000000000000e+00
4.0000000000000000e+01  0.0000000000000000e+00  0.0000000000000000e+00
4.1000000000000000e+01  0.0000000000000000e+00  0.0000000000000000e+00
4.2000000000000000e+01  0.0000000000000000e+00  0.0000000000000000e+00
4.3000000000000000e+01  0.0000000000000000e+00  0.0000000000000000e+00
4.4000000000000000e+01  0.0000000000000000e+00  0.0000000000000000e+00
4.5000000000000000e+01  0.0000000000000000e+00  0.0000000000000000e+00
4.6000000000000000e+01  0.0000000000000000e+00  0.0000000000000000e+00
4.7000000000000000e+01  0.0000000000000000e+00  0.0000000000000000e+00
4.8000000000000000e+01  0.0000000000000000e+00  0.0000000000000000e+00
4.9000000000000000e+01  0.0000000000000000e+00  0.0000000000000000e+00
5.0000000000000000e+01  0.0000000000000000e+00  0.0000000000000000e+00
5.1000000000000000e+01  0.0000000000000000e+00  0.0000000000000000e+00
5.2000000000000000e+01  0.0000000000000000e+00  0.0000000000000000e+00
5.3000000000000000e+01  0.0000000000000000e+00  0.0000000000000000e+00
5.4000000000000000e+01  0.0000000000000000e+00  0.0000000000000000e+00
5.5000000000000000e+01  0.0000000000000000e+00  0.0000000000000000e+00
5.6000000000000000e+01  0.0000000000000000e+00  0.0000000000000000e+00
5.7000000000000000e+01  0.0000000000000000e+00  0.0000000000000000e+00
5.8000000000000000e+01  0.0000000000000000e+00  0.0000000000000000e+00
5.9000000000000000e+01  0.0000000000000000e+00  0.0000000000000000e+00
6.0000000000000000e+01  0.0000000000000000e+00  0.0000000000000000e+00
6.1000000000000000e+01  0.0000000000000000e+00  0.0000000000000000e+00
6.2000000000000000e+01  0.0000000000000000e+00  0.0000000000000000e+00
6.3000000000000000e+01  0.0000000000000000e+00  0.0000000000000000e+00
6.4000000000000000e+01  0.0000000000000000e+00  0.0000000000000000e+00
6.5000000000000000e+01  0.0000000000000000e+00  0.0000000000000000e+00
6.6000000000000000e+01  0.0000000000000000e+00  0.0000000000000000e+00
6.7000000000000000e+01  0.0000000000000000e+00  0.0000000000000000e+00
6.8000000000000000e+01  0.0000000000000000e+00  0.0000000000000000e+00
6.9000000000000000e+01  0.0000000000000000e+00  0.0000000000000000e+00
7.0000000000000000e+01  0.0000000000000000e+00  0.0000000000000000e+00
7.1000000000000000e+01  0.0000000000000000e+00  0.0000000000000000e+00
7.2000000000000000e+01  0.0000000000000000e+00  0.0000000000000000e+00
7.3000000000000000e+01  0.0000000000000000e+00  0.0000000000000000e+00
7.4000000000000000e+01  0.0000000000000000e+00  0.0000000000000000e+00
7.5000000000000000e+01  0.0000000000000000e+00  0.0000000000000000e+00
7.6000000000000000e+01  0.0000000000000000e+00  0.0000000000000000e+00
7.7000000000000000e+01  0.0000000000000000e+00  0.0000000000000000e+00
7.8000000000000000e+01  0.0000000000000000e+00  0.0000000000000000e+00
7.9000000000000000e+01  0.0000000000000000e+00  0.0000000000000000e+00
8.0000000000000000e+01  0.0000000000000000e+00  0.0000000000000000e+00
8.1000000000000000e+01  0.0000000000000000e+00  0.0000000000000000e+00
8.2000000000000000e+01  0.0000000000000000e+00  0.0000000000000000e+00
8.3000000000000000e+01  0.0000000000000000e+00  0.0000000000000000e+00
8.4000000000000000e+01  0.0000000000000000e+00  0.0000000000000000e+00
8.5000000000000000e+01  0.0000000000000000e+00  0.0000000000000000e+00
8.6000000000000000e+01  0.0000000000000000e+00  0.0000000000000000e+00
8.7000000000000000e+01  0.0000000000000000e+00  0.0000000000000000e+00
8.8000000000000000e+01  0.0000000000000000e+00  0.0000000000000000e+00
8.9000000000000000e+01  0.0000000000000000e+00  0.0000000000000000e+00
9.0000000000000000e+01  0.0000000000000000e+00  0.0000000000000000e+00
9.1000000000000000e+01  0.0000000000000000e+00  0.0000000000000000e+00
9.2000000000000000e+01  0.0000000000000000e+00  0.0000000000000000e+00
9.3000000000000000e+01  0.0000000000000000e+00  0.0000000000000000e+00
9.4000000000000000e+01  0.0000000000000000e+00  0.0000000000000000e+00
9.5000000000000000e+01  0.0000000000000000e+00  0.0000000000000000e+00
9.6000000000000000e+01  0.0000000000000000e+00  0.0000000000000000e+00
9.7000000000000000e+01  0.0000000000000000e+00  0.0000000000000000e+00
9.8000000000000000e+01  0.0000000000000000e+00  0.0000000000000000e+00
9.9000000000000000e+01  0.0000000000000000e+00  0.0000000000000000e+00

POINT_DATA 100

VECTORS velocity float
1.0025912316294900e-02  0.0000000000000000e+00  0.0000000000000000e+00
1.0025911492553002e-02  0.0000000000000000e+00  0.0000000000000000e+00
1.0025910687817826e-02  0.0000000000000000e+00  0.0000000000000000e+00
1.0025909891475858e-02  0.0000000000000000e+00  0.0000000000000000e+00
1.0025909099016263e-02  0.0000000000000000e+00  0.0000000000000000e+00
1.0025908308523870e-02  0.0000000000000000e+00  0.0000000000000000e+00
1.0025907519186325e-02  0.0000000000000000e+00  0.0000000000000000e+00
1.0025906730659203e-02  0.0000000000000000e+00  0.0000000000000000e+00
1.0025905942796761e-02  0.0000000000000000e+00  0.0000000000000000e+00
1.0025905155537309e-02  0.0000000000000000e+00  0.0000000000000000e+00
1.0025904368854824e-02  0.0000000000000000e+00  0.0000000000000000e+00
1.0025903582738261e-02  0.0000000000000000e+00  0.0000000000000000e+00
1.0025902797182889e-02  0.0000000000000000e+00  0.0000000000000000e+00
1.0025902012186857e-02  0.0000000000000000e+00  0.0000000000000000e+00
1.0025901227749321e-02  0.0000000000000000e+00  0.0000000000000000e+00
1.0025900443869961e-02  0.0000000000000000e+00  0.0000000000000000e+00
1.0025899660548628e-02  0.0000000000000000e+00  0.0000000000000000e+00
1.0025898877785260e-02  0.0000000000000000e+00  0.0000000000000000e+00
1.0025898095579787e-02  0.0000000000000000e+00  0.0000000000000000e+00
1.0025897313932275e-02  0.0000000000000000e+00  0.0000000000000000e+00
1.0025896532842677e-02  0.0000000000000000e+00  0.0000000000000000e+00
1.0025895752311014e-02  0.0000000000000000e+00  0.0000000000000000e+00
1.0025894972337307e-02  0.0000000000000000e+00  0.0000000000000000e+00
1.0025894192921561e-02  0.0000000000000000e+00  0.0000000000000000e+00
1.0025893414063803e-02  0.0000000000000000e+00  0.0000000000000000e+00
1.0025892635764016e-02  0.0000000000000000e+00  0.0000000000000000e+00
1.0025891858022244e-02  0.0000000000000000e+00  0.0000000000000000e+00
1.0025891080838453e-02  0.0000000000000000e+00  0.0000000000000000e+00
1.0025890304212602e-02  0.0000000000000000e+00  0.0000000000000000e+00
1.0025889528144752e-02  0.0000000000000000e+00  0.0000000000000000e+00
1.0025888752634920e-02  0.0000000000000000e+00  0.0000000000000000e+00
1.0025887977683117e-02  0.0000000000000000e+00  0.0000000000000000e+00
1.0025887203289395e-02  0.0000000000000000e+00  0.0000000000000000e+00
1.0025886429453781e-02  0.0000000000000000e+00  0.0000000000000000e+00
1.0025885656176148e-02  0.0000000000000000e+00  0.0000000000000000e+00
1.0025884883456491e-02  0.0000000000000000e+00  0.0000000000000000e+00
1.0025884111294887e-02  0.0000000000000000e+00  0.0000000000000000e+00
1.0025883339691372e-02  0.0000000000000000e+00  0.0000000000000000e+00
1.0025882568645990e-02  0.0000000000000000e+00  0.0000000000000000e+00
1.0025881798158697e-02  0.0000000000000000e+00  0.0000000000000000e+00
1.0025881028229476e-02  0.0000000000000000e+00  0.0000000000000000e+00
1.0025880258858406e-02  0.0000000000000000e+00  0.0000000000000000e+00
1.0025879490045434e-02  0.0000000000000000e+00  0.0000000000000000e+00
1.0025878721790577e-02  0.0000000000000000e+00  0.0000000000000000e+00
1.0025877954093893e-02  0.0000000000000000e+00  0.0000000000000000e+00
1.0025877186955365e-02  0.0000000000000000e+00  0.0000000000000000e+00
1.0025876420374899e-02  0.0000000000000000e+00  0.0000000000000000e+00
1.0025875654352609e-02  0.0000000000000000e+00  0.0000000000000000e+00
1.0025874888888514e-02  0.0000000000000000e+00  0.0000000000000000e+00
1.0025874123982587e-02  0.0000000000000000e+00  0.0000000000000000e+00
1.0025873359634858e-02  0.0000000000000000e+00  0.0000000000000000e+00
1.0025872595845243e-02  0.0000000000000000e+00  0.0000000000000000e+00
1.0025871832613848e-02  0.0000000000000000e+00  0.0000000000000000e+00
1.0025871069940713e-02  0.0000000000000000e+00  0.0000000000000000e+00
1.0025870307825801e-02  0.0000000000000000e+00  0.0000000000000000e+00
1.0025869546269084e-02  0.0000000000000000e+00  0.0000000000000000e+00
1.0025868785270542e-02  0.0000000000000000e+00  0.0000000000000000e+00
1.0025868024830187e-02  0.0000000000000000e+00  0.0000000000000000e+00
1.0025867264948128e-02  0.0000000000000000e+00  0.0000000000000000e+00
1.0025866505624396e-02  0.0000000000000000e+00  0.0000000000000000e+00
1.0025865746858905e-02  0.0000000000000000e+00  0.0000000000000000e+00
1.0025864988651625e-02  0.0000000000000000e+00  0.0000000000000000e+00
1.0025864231002659e-02  0.0000000000000000e+00  0.0000000000000000e+00
1.0025863473911933e-02  0.0000000000000000e+00  0.0000000000000000e+00
1.0025862717379465e-02  0.0000000000000000e+00  0.0000000000000000e+00
1.0025861961405331e-02  0.0000000000000000e+00  0.0000000000000000e+00
1.0025861205989493e-02  0.0000000000000000e+00  0.0000000000000000e+00
1.0025860451132058e-02  0.0000000000000000e+00  0.0000000000000000e+00
1.0025859696832916e-02  0.0000000000000000e+00  0.0000000000000000e+00
1.0025858943092070e-02  0.0000000000000000e+00  0.0000000000000000e+00
1.0025858189909578e-02  0.0000000000000000e+00  0.0000000000000000e+00
1.0025857437285389e-02  0.0000000000000000e+00  0.0000000000000000e+00
1.0025856685219615e-02  0.0000000000000000e+00  0.0000000000000000e+00
1.0025855933712181e-02  0.0000000000000000e+00  0.0000000000000000e+00
1.0025855182763039e-02  0.0000000000000000e+00  0.0000000000000000e+00
1.0025854432372359e-02  0.0000000000000000e+00  0.0000000000000000e+00
1.0025853682540100e-02  0.0000000000000000e+00  0.0000000000000000e+00
1.0025852933266232e-02  0.0000000000000000e+00  0.0000000000000000e+00
1.0025852184550736e-02  0.0000000000000000e+00  0.0000000000000000e+00
1.0025851436393623e-02  0.0000000000000000e+00  0.0000000000000000e+00
1.0025850688794998e-02  0.0000000000000000e+00  0.0000000000000000e+00
1.0025849941754764e-02  0.0000000000000000e+00  0.0000000000000000e+00
1.0025849195272931e-02  0.0000000000000000e+00  0.0000000000000000e+00
1.0025848449349568e-02  0.0000000000000000e+00  0.0000000000000000e+00
1.0025847703984665e-02  0.0000000000000000e+00  0.0000000000000000e+00
1.0025846959178292e-02  0.0000000000000000e+00  0.0000000000000000e+00
1.0025846214930398e-02  0.0000000000000000e+00  0.0000000000000000e+00
1.0025845471240894e-02  0.0000000000000000e+00  0.0000000000000000e+00
1.0025844728109879e-02  0.0000000000000000e+00  0.0000000000000000e+00
1.0025843985537426e-02  0.0000000000000000e+00  0.0000000000000000e+00
1.0025843243523375e-02  0.0000000000000000e+00  0.0000000000000000e+00
1.0025842502068087e-02  0.0000000000000000e+00  0.0000000000000000e+00
1.0025841761170834e-02  0.0000000000000000e+00  0.0000000000000000e+00
1.0025841020833377e-02  0.0000000000000000e+00  0.0000000000000000e+00
1.0025840281051515e-02  0.0000000000000000e+00  0.0000000000000000e+00
1.0025839541835269e-02  0.0000000000000000e+00  0.0000000000000000e+00
1.0025838803160615e-02  0.0000000000000000e+00  0.0000000000000000e+00
1.0025838065085188e-02  0.0000000000000000e+00  0.0000000000000000e+00
1.0025837327470812e-02  0.0000000000000000e+00  0.0000000000000000e+00
1.0025836590648518e-02  0.0000000000000000e+00  0.0000000000000000e+00

SCALARS pressure float
LOOKUP_TABLE default
2.3033504099724075e-05
2.3061504700691357e-05
2.3089505301658638e-05
2.3117506165563086e-05
2.3145507404130461e-05
2.3173509064841625e-05
2.3201511167907251e-05
2.3229513721972538e-05
2.3257516730784918e-05
2.3285520196019508e-05
2.3313524118464404e-05
2.3341528498544609e-05
2.3369533336522006e-05
2.3397538632605430e-05
2.3425544386960353e-05
2.3453550599749622e-05
2.3481557271125029e-05
2.3509564401243411e-05
2.3537571990255408e-05
2.3565580038315792e-05
2.3593588545575342e-05
2.3621597512186525e-05
2.3649606938301924e-05
2.3677616824071350e-05
2.3705627169647702e-05
2.3733637975182158e-05
2.3761649240827124e-05
2.3789660966733913e-05
2.3817673153053982e-05
2.3845685799943780e-05
2.3873698907552546e-05
2.3901712476031823e-05
2.3929726505532512e-05
2.3957740996206568e-05
2.3985755948202573e-05
2.4013771361677296e-05
2.4041787236784810e-05
2.4069803573675130e-05
2.4097820372499682e-05
2.4125837633407924e-05
2.4153855356552146e-05
2.4181873542087543e-05
2.4209892190164218e-05
2.4237911300932894e-05
2.4265930874548958e-05
2.4293950911161528e-05
2.4321971410922628e-05
2.4349992373987073e-05
2.4378013800507675e-05
2.4406035690630447e-05
2.4434058044512688e-05
2.4462080862302738e-05
2.4490104144157881e-05
2.4518127890227164e-05
2.4546152100659875e-05
2.4574176775610547e-05
2.4602201915232258e-05
2.4630227519677828e-05
2.4658253589101530e-05
2.4686280123651065e-05
2.4714307123476547e-05
2.4742334588732112e-05
2.4770362519572841e-05
2.4798390916148670e-05
2.4826419778611745e-05
2.4854449107118522e-05
2.4882478901815214e-05
2.4910509162855921e-05
2.4938539890390573e-05
2.4966571084572533e-05
2.4994602745558344e-05
2.5022634873495012e-05
2.5050667468540121e-05
2.5078700530841709e-05
2.5106734060552594e-05
2.5134768057829231e-05
2.5162802522819934e-05
2.5190837455673314e-05
2.5218872856546974e-05
2.5246908725591322e-05
2.5274945062961450e-05
2.5302981868803669e-05
2.5331019143273299e-05
2.5359056886524414e-05
2.5387095098707490e-05
2.5415133779974382e-05
2.5443172930477680e-05
2.5471212550367993e-05
2.5499252639802739e-05
2.5527293198932128e-05
2.5555334227906058e-05
2.5583375726879645e-05
2.5611417696001443e-05
2.5639460135429619e-05
2.5667503045299813e-05
2.5695546425805093e-05
2.5723590277001120e-05
2.5751634599275338e-05
2.5779679392214367e-05
2.5807724657329506e-05

SCALARS diameter float
LOOKUP_TABLE default
1.0000203622462513e+00
1.0000203893516395e+00
1.0000204164570290e+00
1.0000204435626632e+00
1.0000204706686500e+00
1.0000204977750307e+00
1.0000205248818266e+00
1.0000205519890453e+00
1.0000205790966894e+00
1.0000206062047625e+00
1.0000206333132633e+00
1.0000206604221937e+00
1.0000206875315529e+00
1.0000207146413418e+00
1.0000207417515603e+00
1.0000207688622096e+00
1.0000207959732874e+00
1.0000208230847969e+00
1.0000208501967354e+00
1.0000208773091053e+00
1.0000209044219059e+00
1.0000209315351383e+00
1.0000209586488009e+00
1.0000209857628952e+00
1.0000210128774207e+00
1.0000210399923775e+00
1.0000210671077672e+00
1.0000210942235872e+00
1.0000211213398402e+00
1.0000211484565260e+00
1.0000211755736448e+00
1.0000212026911952e+00
1.0000212298091786e+00
1.0000212569275955e+00
1.0000212840464455e+00
1.0000213111657283e+00
1.0000213382854448e+00
1.0000213654055956e+00
1.0000213925261805e+00
1.0000214196471988e+00
1.0000214467686510e+00
1.0000214738905395e+00
1.0000215010128608e+00
1.0000215281356184e+00
1.0000215552588094e+00
1.0000215823824368e+00
1.0000216095064984e+00
1.0000216366309957e+00
1.0000216637559287e+00
1.0000216908812980e+00
1.0000217180071034e+00
1.0000217451333442e+00
1.0000217722600224e+00
1.0000217993871363e+00
1.0000218265146872e+00
1.0000218536426757e+00
1.0000218807710999e+00
1.0000219078999626e+00
1.0000219350292610e+00
1.0000219621589990e+00
1.0000219892891740e+00
1.0000220164197868e+00
1.0000220435508371e+00
1.0000220706823262e+00
1.0000220978142544e+00
1.0000221249466203e+00
1.0000221520794259e+00
1.0000221792126698e+00
1.0000222063463529e+00
1.0000222334804754e+00
1.0000222606150371e+00
1.0000222877500393e+00
1.0000223148854812e+00
1.0000223420213632e+00
1.0000223691576844e+00
1.0000223962944470e+00
1.0000224234316493e+00
1.0000224505692938e+00
1.0000224777073767e+00
1.0000225048459033e+00
1.0000225319848699e+00
1.0000225591242788e+00
1.0000225862641279e+00
1.0000226134044203e+00
1.0000226405451533e+00
1.0000226676863289e+00
1.0000226948279471e+00
1.0000227219700073e+00
1.0000227491125107e+00
1.0000227762554563e+00
1.0000228033988456e+00
1.0000228305426773e+00
1.0000228576869534e+00
1.0000228848316726e+00
1.0000229119768353e+00
1.0000229391224416e+00
1.0000229662684925e+00
1.0000229934149880e+00
1.0000230205619269e+00
1.0000230477093113e+00

