# vtk DataFile Version 2.0

ASCII

DATASET UNSTRUCTURED_GRID

POINTS 100 float 

0.0000000000000000e+00  0.0000000000000000e+00  0.0000000000000000e+00
1.0000000000000000e+00  0.0000000000000000e+00  0.0000000000000000e+00
2.0000000000000000e+00  0.0000000000000000e+00  0.0000000000000000e+00
3.0000000000000000e+00  0.0000000000000000e+00  0.0000000000000000e+00
4.0000000000000000e+00  0.0000000000000000e+00  0.0000000000000000e+00
5.0000000000000000e+00  0.0000000000000000e+00  0.0000000000000000e+00
6.0000000000000000e+00  0.0000000000000000e+00  0.0000000000000000e+00
7.0000000000000000e+00  0.0000000000000000e+00  0.0000000000000000e+00
8.0000000000000000e+00  0.0000000000000000e+00  0.0000000000000000e+00
9.0000000000000000e+00  0.0000000000000000e+00  0.0000000000000000e+00
1.0000000000000000e+01  0.0000000000000000e+00  0.0000000000000000e+00
1.1000000000000000e+01  0.0000000000000000e+00  0.0000000000000000e+00
1.2000000000000000e+01  0.0000000000000000e+00  0.0000000000000000e+00
1.3000000000000000e+01  0.0000000000000000e+00  0.0000000000000000e+00
1.4000000000000000e+01  0.0000000000000000e+00  0.0000000000000000e+00
1.5000000000000000e+01  0.0000000000000000e+00  0.0000000000000000e+00
1.6000000000000000e+01  0.0000000000000000e+00  0.0000000000000000e+00
1.7000000000000000e+01  0.0000000000000000e+00  0.0000000000000000e+00
1.8000000000000000e+01  0.0000000000000000e+00  0.0000000000000000e+00
1.9000000000000000e+01  0.0000000000000000e+00  0.0000000000000000e+00
2.0000000000000000e+01  0.0000000000000000e+00  0.0000000000000000e+00
2.1000000000000000e+01  0.0000000000000000e+00  0.0000000000000000e+00
2.2000000000000000e+01  0.0000000000000000e+00  0.0000000000000000e+00
2.3000000000000000e+01  0.0000000000000000e+00  0.0000000000000000e+00
2.4000000000000000e+01  0.0000000000000000e+00  0.0000000000000000e+00
2.5000000000000000e+01  0.0000000000000000e+00  0.0000000000000000e+00
2.6000000000000000e+01  0.0000000000000000e+00  0.0000000000000000e+00
2.7000000000000000e+01  0.0000000000000000e+00  0.0000000000000000e+00
2.8000000000000000e+01  0.0000000000000000e+00  0.0000000000000000e+00
2.9000000000000000e+01  0.0000000000000000e+00  0.0000000000000000e+00
3.0000000000000000e+01  0.0000000000000000e+00  0.0000000000000000e+00
3.1000000000000000e+01  0.0000000000000000e+00  0.0000000000000000e+00
3.2000000000000000e+01  0.0000000000000000e+00  0.0000000000000000e+00
3.3000000000000000e+01  0.0000000000000000e+00  0.0000000000000000e+00
3.4000000000000000e+01  0.0000000000000000e+00  0.0000000000000000e+00
3.5000000000000000e+01  0.0000000000000000e+00  0.0000000000000000e+00
3.6000000000000000e+01  0.0000000000000000e+00  0.0000000000000000e+00
3.7000000000000000e+01  0.0000000000000000e+00  0.0000000000000000e+00
3.8000000000000000e+01  0.0000000000000000e+00  0.0000000000000000e+00
3.9000000000000000e+01  0.0000000000000000e+00  0.0000000000000000e+00
4.0000000000000000e+01  0.0000000000000000e+00  0.0000000000000000e+00
4.1000000000000000e+01  0.0000000000000000e+00  0.0000000000000000e+00
4.2000000000000000e+01  0.0000000000000000e+00  0.0000000000000000e+00
4.3000000000000000e+01  0.0000000000000000e+00  0.0000000000000000e+00
4.4000000000000000e+01  0.0000000000000000e+00  0.0000000000000000e+00
4.5000000000000000e+01  0.0000000000000000e+00  0.0000000000000000e+00
4.6000000000000000e+01  0.0000000000000000e+00  0.0000000000000000e+00
4.7000000000000000e+01  0.0000000000000000e+00  0.0000000000000000e+00
4.8000000000000000e+01  0.0000000000000000e+00  0.0000000000000000e+00
4.9000000000000000e+01  0.0000000000000000e+00  0.0000000000000000e+00
5.0000000000000000e+01  0.0000000000000000e+00  0.0000000000000000e+00
5.1000000000000000e+01  0.0000000000000000e+00  0.0000000000000000e+00
5.2000000000000000e+01  0.0000000000000000e+00  0.0000000000000000e+00
5.3000000000000000e+01  0.0000000000000000e+00  0.0000000000000000e+00
5.4000000000000000e+01  0.0000000000000000e+00  0.0000000000000000e+00
5.5000000000000000e+01  0.0000000000000000e+00  0.0000000000000000e+00
5.6000000000000000e+01  0.0000000000000000e+00  0.0000000000000000e+00
5.7000000000000000e+01  0.0000000000000000e+00  0.0000000000000000e+00
5.8000000000000000e+01  0.0000000000000000e+00  0.0000000000000000e+00
5.9000000000000000e+01  0.0000000000000000e+00  0.0000000000000000e+00
6.0000000000000000e+01  0.0000000000000000e+00  0.0000000000000000e+00
6.1000000000000000e+01  0.0000000000000000e+00  0.0000000000000000e+00
6.2000000000000000e+01  0.0000000000000000e+00  0.0000000000000000e+00
6.3000000000000000e+01  0.0000000000000000e+00  0.0000000000000000e+00
6.4000000000000000e+01  0.0000000000000000e+00  0.0000000000000000e+00
6.5000000000000000e+01  0.0000000000000000e+00  0.0000000000000000e+00
6.6000000000000000e+01  0.0000000000000000e+00  0.0000000000000000e+00
6.7000000000000000e+01  0.0000000000000000e+00  0.0000000000000000e+00
6.8000000000000000e+01  0.0000000000000000e+00  0.0000000000000000e+00
6.9000000000000000e+01  0.0000000000000000e+00  0.0000000000000000e+00
7.0000000000000000e+01  0.0000000000000000e+00  0.0000000000000000e+00
7.1000000000000000e+01  0.0000000000000000e+00  0.0000000000000000e+00
7.2000000000000000e+01  0.0000000000000000e+00  0.0000000000000000e+00
7.3000000000000000e+01  0.0000000000000000e+00  0.0000000000000000e+00
7.4000000000000000e+01  0.0000000000000000e+00  0.0000000000000000e+00
7.5000000000000000e+01  0.0000000000000000e+00  0.0000000000000000e+00
7.6000000000000000e+01  0.0000000000000000e+00  0.0000000000000000e+00
7.7000000000000000e+01  0.0000000000000000e+00  0.0000000000000000e+00
7.8000000000000000e+01  0.0000000000000000e+00  0.0000000000000000e+00
7.9000000000000000e+01  0.0000000000000000e+00  0.0000000000000000e+00
8.0000000000000000e+01  0.0000000000000000e+00  0.0000000000000000e+00
8.1000000000000000e+01  0.0000000000000000e+00  0.0000000000000000e+00
8.2000000000000000e+01  0.0000000000000000e+00  0.0000000000000000e+00
8.3000000000000000e+01  0.0000000000000000e+00  0.0000000000000000e+00
8.4000000000000000e+01  0.0000000000000000e+00  0.0000000000000000e+00
8.5000000000000000e+01  0.0000000000000000e+00  0.0000000000000000e+00
8.6000000000000000e+01  0.0000000000000000e+00  0.0000000000000000e+00
8.7000000000000000e+01  0.0000000000000000e+00  0.0000000000000000e+00
8.8000000000000000e+01  0.0000000000000000e+00  0.0000000000000000e+00
8.9000000000000000e+01  0.0000000000000000e+00  0.0000000000000000e+00
9.0000000000000000e+01  0.0000000000000000e+00  0.0000000000000000e+00
9.1000000000000000e+01  0.0000000000000000e+00  0.0000000000000000e+00
9.2000000000000000e+01  0.0000000000000000e+00  0.0000000000000000e+00
9.3000000000000000e+01  0.0000000000000000e+00  0.0000000000000000e+00
9.4000000000000000e+01  0.0000000000000000e+00  0.0000000000000000e+00
9.5000000000000000e+01  0.0000000000000000e+00  0.0000000000000000e+00
9.6000000000000000e+01  0.0000000000000000e+00  0.0000000000000000e+00
9.7000000000000000e+01  0.0000000000000000e+00  0.0000000000000000e+00
9.8000000000000000e+01  0.0000000000000000e+00  0.0000000000000000e+00
9.9000000000000000e+01  0.0000000000000000e+00  0.0000000000000000e+00

POINT_DATA 100

VECTORS velocity float
1.0099605735065723e-02  0.0000000000000000e+00  0.0000000000000000e+00
1.0099606678321171e-02  0.0000000000000000e+00  0.0000000000000000e+00
1.0099607633538453e-02  0.0000000000000000e+00  0.0000000000000000e+00
1.0099608593542831e-02  0.0000000000000000e+00  0.0000000000000000e+00
1.0099609555470611e-02  0.0000000000000000e+00  0.0000000000000000e+00
1.0099610518181827e-02  0.0000000000000000e+00  0.0000000000000000e+00
1.0099611481224010e-02  0.0000000000000000e+00  0.0000000000000000e+00
1.0099612444418133e-02  0.0000000000000000e+00  0.0000000000000000e+00
1.0099613407693626e-02  0.0000000000000000e+00  0.0000000000000000e+00
1.0099614371022782e-02  0.0000000000000000e+00  0.0000000000000000e+00
1.0099615334394780e-02  0.0000000000000000e+00  0.0000000000000000e+00
1.0099616297805408e-02  0.0000000000000000e+00  0.0000000000000000e+00
1.0099617261253043e-02  0.0000000000000000e+00  0.0000000000000000e+00
1.0099618224737076e-02  0.0000000000000000e+00  0.0000000000000000e+00
1.0099619188257277e-02  0.0000000000000000e+00  0.0000000000000000e+00
1.0099620151813560e-02  0.0000000000000000e+00  0.0000000000000000e+00
1.0099621115405905e-02  0.0000000000000000e+00  0.0000000000000000e+00
1.0099622079034309e-02  0.0000000000000000e+00  0.0000000000000000e+00
1.0099623042698782e-02  0.0000000000000000e+00  0.0000000000000000e+00
1.0099624006399325e-02  0.0000000000000000e+00  0.0000000000000000e+00
1.0099624970135954e-02  0.0000000000000000e+00  0.0000000000000000e+00
1.0099625933908672e-02  0.0000000000000000e+00  0.0000000000000000e+00
1.0099626897717489e-02  0.0000000000000000e+00  0.0000000000000000e+00
1.0099627861562420e-02  0.0000000000000000e+00  0.0000000000000000e+00
1.0099628825443466e-02  0.0000000000000000e+00  0.0000000000000000e+00
1.0099629789360645e-02  0.0000000000000000e+00  0.0000000000000000e+00
1.0099630753313963e-02  0.0000000000000000e+00  0.0000000000000000e+00
1.0099631717303428e-02  0.0000000000000000e+00  0.0000000000000000e+00
1.0099632681329049e-02  0.0000000000000000e+00  0.0000000000000000e+00
1.0099633645390836e-02  0.0000000000000000e+00  0.0000000000000000e+00
1.0099634609488799e-02  0.0000000000000000e+00  0.0000000000000000e+00
1.0099635573622956e-02  0.0000000000000000e+00  0.0000000000000000e+00
1.0099636537793305e-02  0.0000000000000000e+00  0.0000000000000000e+00
1.0099637501999860e-02  0.0000000000000000e+00  0.0000000000000000e+00
1.0099638466242629e-02  0.0000000000000000e+00  0.0000000000000000e+00
1.0099639430521626e-02  0.0000000000000000e+00  0.0000000000000000e+00
1.0099640394836859e-02  0.0000000000000000e+00  0.0000000000000000e+00
1.0099641359188333e-02  0.0000000000000000e+00  0.0000000000000000e+00
1.0099642323576057e-02  0.0000000000000000e+00  0.0000000000000000e+00
1.0099643288000048e-02  0.0000000000000000e+00  0.0000000000000000e+00
1.0099644252460313e-02  0.0000000000000000e+00  0.0000000000000000e+00
1.0099645216956856e-02  0.0000000000000000e+00  0.0000000000000000e+00
1.0099646181489695e-02  0.0000000000000000e+00  0.0000000000000000e+00
1.0099647146058833e-02  0.0000000000000000e+00  0.0000000000000000e+00
1.0099648110664279e-02  0.0000000000000000e+00  0.0000000000000000e+00
1.0099649075306047e-02  0.0000000000000000e+00  0.0000000000000000e+00
1.0099650039984143e-02  0.0000000000000000e+00  0.0000000000000000e+00
1.0099651004698576e-02  0.0000000000000000e+00  0.0000000000000000e+00
1.0099651969449360e-02  0.0000000000000000e+00  0.0000000000000000e+00
1.0099652934236498e-02  0.0000000000000000e+00  0.0000000000000000e+00
1.0099653899060005e-02  0.0000000000000000e+00  0.0000000000000000e+00
1.0099654863919888e-02  0.0000000000000000e+00  0.0000000000000000e+00
1.0099655828816154e-02  0.0000000000000000e+00  0.0000000000000000e+00
1.0099656793748820e-02  0.0000000000000000e+00  0.0000000000000000e+00
1.0099657758717890e-02  0.0000000000000000e+00  0.0000000000000000e+00
1.0099658723723372e-02  0.0000000000000000e+00  0.0000000000000000e+00
1.0099659688765280e-02  0.0000000000000000e+00  0.0000000000000000e+00
1.0099660653843615e-02  0.0000000000000000e+00  0.0000000000000000e+00
1.0099661618958394e-02  0.0000000000000000e+00  0.0000000000000000e+00
1.0099662584109622e-02  0.0000000000000000e+00  0.0000000000000000e+00
1.0099663549297313e-02  0.0000000000000000e+00  0.0000000000000000e+00
1.0099664514521477e-02  0.0000000000000000e+00  0.0000000000000000e+00
1.0099665479782119e-02  0.0000000000000000e+00  0.0000000000000000e+00
1.0099666445079250e-02  0.0000000000000000e+00  0.0000000000000000e+00
1.0099667410412882e-02  0.0000000000000000e+00  0.0000000000000000e+00
1.0099668375783018e-02  0.0000000000000000e+00  0.0000000000000000e+00
1.0099669341189667e-02  0.0000000000000000e+00  0.0000000000000000e+00
1.0099670306632842e-02  0.0000000000000000e+00  0.0000000000000000e+00
1.0099671272112551e-02  0.0000000000000000e+00  0.0000000000000000e+00
1.0099672237628804e-02  0.0000000000000000e+00  0.0000000000000000e+00
1.0099673203181610e-02  0.0000000000000000e+00  0.0000000000000000e+00
1.0099674168770978e-02  0.0000000000000000e+00  0.0000000000000000e+00
1.0099675134396913e-02  0.0000000000000000e+00  0.0000000000000000e+00
1.0099676100059430e-02  0.0000000000000000e+00  0.0000000000000000e+00
1.0099677065758537e-02  0.0000000000000000e+00  0.0000000000000000e+00
1.0099678031494247e-02  0.0000000000000000e+00  0.0000000000000000e+00
1.0099678997266564e-02  0.0000000000000000e+00  0.0000000000000000e+00
1.0099679963075495e-02  0.0000000000000000e+00  0.0000000000000000e+00
1.0099680928921053e-02  0.0000000000000000e+00  0.0000000000000000e+00
1.0099681894803252e-02  0.0000000000000000e+00  0.0000000000000000e+00
1.0099682860722095e-02  0.0000000000000000e+00  0.0000000000000000e+00
1.0099683826677587e-02  0.0000000000000000e+00  0.0000000000000000e+00
1.0099684792669743e-02  0.0000000000000000e+00  0.0000000000000000e+00
1.0099685758698572e-02  0.0000000000000000e+00  0.0000000000000000e+00
1.0099686724764082e-02  0.0000000000000000e+00  0.0000000000000000e+00
1.0099687690866280e-02  0.0000000000000000e+00  0.0000000000000000e+00
1.0099688657005177e-02  0.0000000000000000e+00  0.0000000000000000e+00
1.0099689623180783e-02  0.0000000000000000e+00  0.0000000000000000e+00
1.0099690589393109e-02  0.0000000000000000e+00  0.0000000000000000e+00
1.0099691555642150e-02  0.0000000000000000e+00  0.0000000000000000e+00
1.0099692521927942e-02  0.0000000000000000e+00  0.0000000000000000e+00
1.0099693488250452e-02  0.0000000000000000e+00  0.0000000000000000e+00
1.0099694454609775e-02  0.0000000000000000e+00  0.0000000000000000e+00
1.0099695421005736e-02  0.0000000000000000e+00  0.0000000000000000e+00
1.0099696387438694e-02  0.0000000000000000e+00  0.0000000000000000e+00
1.0099697353908057e-02  0.0000000000000000e+00  0.0000000000000000e+00
1.0099698320414718e-02  0.0000000000000000e+00  0.0000000000000000e+00
1.0099699286957902e-02  0.0000000000000000e+00  0.0000000000000000e+00
1.0099700253536242e-02  0.0000000000000000e+00  0.0000000000000000e+00
1.0099701220161010e-02  0.0000000000000000e+00  0.0000000000000000e+00

SCALARS pressure float
LOOKUP_TABLE default
9.9406021067073098e-05
9.9408957680263834e-05
9.9411894293454571e-05
9.9414831073007579e-05
9.9417768084913909e-05
9.9420705355133453e-05
9.9423642893703781e-05
9.9426580704347774e-05
9.9429518788292734e-05
9.9432457145783067e-05
9.9435395776677733e-05
9.9438334680685135e-05
9.9441273857455253e-05
9.9444213306615594e-05
9.9447153027784914e-05
9.9450093020578631e-05
9.9453033284611136e-05
9.9455973819496290e-05
9.9458914624847575e-05
9.9461855700278459e-05
9.9464797045402709e-05
9.9467738659833672e-05
9.9470680543184951e-05
9.9473622695070069e-05
9.9476565115102372e-05
9.9479507802895545e-05
9.9482450758063031e-05
9.9485393980218174e-05
9.9488337468974471e-05
9.9491281223945620e-05
9.9494225244744927e-05
9.9497169530985698e-05
9.9500114082281429e-05
9.9503058898245546e-05
9.9506003978491438e-05
9.9508949322632640e-05
9.9511894930282390e-05
9.9514840801054116e-05
9.9517786934561340e-05
9.9520733330417491e-05
9.9523679988235792e-05
9.9526626907629523e-05
9.9529574088212192e-05
9.9532521529597051e-05
9.9535469231397486e-05
9.9538417193227022e-05
9.9541365414698650e-05
9.9544313895425881e-05
9.9547262635021967e-05
9.9550211633100198e-05
9.9553160889273977e-05
9.9556110403156513e-05
9.9559060174361086e-05
9.9562010202501001e-05
9.9564960487189333e-05
9.9567911028039443e-05
9.9570861824664636e-05
9.9573812876678190e-05
9.9576764183693264e-05
9.9579715745323215e-05
9.9582667561181189e-05
9.9585619630880449e-05
9.9588571954034043e-05
9.9591524530255333e-05
9.9594477359157311e-05
9.9597430440353230e-05
9.9600383773456355e-05
9.9603337358079977e-05
9.9606291193836982e-05
9.9609245280340609e-05
9.9612199617204040e-05
9.9615154204040434e-05
9.9618109040462932e-05
9.9621064126084705e-05
9.9624019460518829e-05
9.9626975043378487e-05
9.9629930874276537e-05
9.9632886952826218e-05
9.9635843278640646e-05
9.9638799851332733e-05
9.9641756670515758e-05
9.9644713735802661e-05
9.9647671046806504e-05
9.9650628603140402e-05
9.9653586404417364e-05
9.9656544450250355e-05
9.9659502740252466e-05
9.9662461274036798e-05
9.9665420051216129e-05
9.9668379071403494e-05
9.9671338334212048e-05
9.9674297839254583e-05
9.9677257586144188e-05
9.9680217574493437e-05
9.9683177803916394e-05
9.9686138274024183e-05
9.9689098984431261e-05
9.9692059934752996e-05
9.9695021124582864e-05
9.9697982553613373e-05

SCALARS diameter float
LOOKUP_TABLE default
1.0000988195462142e+00
1.0000988244512770e+00
1.0000988293563393e+00
1.0000988342615900e+00
1.0000988391671051e+00
1.0000988440729124e+00
1.0000988489790257e+00
1.0000988538854478e+00
1.0000988587921804e+00
1.0000988636992245e+00
1.0000988686065795e+00
1.0000988735142466e+00
1.0000988784222233e+00
1.0000988833305109e+00
1.0000988882391071e+00
1.0000988931480130e+00
1.0000988980572294e+00
1.0000989029667537e+00
1.0000989078765854e+00
1.0000989127867257e+00
1.0000989176971735e+00
1.0000989226079280e+00
1.0000989275189900e+00
1.0000989324303582e+00
1.0000989373420315e+00
1.0000989422540116e+00
1.0000989471662960e+00
1.0000989520788850e+00
1.0000989569917802e+00
1.0000989619049778e+00
1.0000989668184788e+00
1.0000989717322837e+00
1.0000989766463917e+00
1.0000989815608015e+00
1.0000989864755143e+00
1.0000989913905280e+00
1.0000989963058435e+00
1.0000990012214603e+00
1.0000990061373773e+00
1.0000990110535950e+00
1.0000990159701115e+00
1.0000990208869283e+00
1.0000990258040434e+00
1.0000990307214570e+00
1.0000990356391701e+00
1.0000990405571790e+00
1.0000990454754877e+00
1.0000990503940921e+00
1.0000990553129934e+00
1.0000990602321909e+00
1.0000990651516846e+00
1.0000990700714745e+00
1.0000990749915588e+00
1.0000990799119371e+00
1.0000990848326112e+00
1.0000990897535784e+00
1.0000990946748400e+00
1.0000990995963943e+00
1.0000991045182421e+00
1.0000991094403822e+00
1.0000991143628131e+00
1.0000991192855371e+00
1.0000991242085524e+00
1.0000991291318579e+00
1.0000991340554544e+00
1.0000991389793414e+00
1.0000991439035174e+00
1.0000991488279833e+00
1.0000991537527375e+00
1.0000991586777812e+00
1.0000991636031125e+00
1.0000991685287324e+00
1.0000991734546392e+00
1.0000991783808331e+00
1.0000991833073138e+00
1.0000991882340808e+00
1.0000991931611329e+00
1.0000991980884719e+00
1.0000992030160947e+00
1.0000992079440034e+00
1.0000992128721966e+00
1.0000992178006727e+00
1.0000992227294334e+00
1.0000992276584766e+00
1.0000992325878026e+00
1.0000992375174120e+00
1.0000992424473027e+00
1.0000992473774750e+00
1.0000992523079291e+00
1.0000992572386642e+00
1.0000992621696787e+00
1.0000992671009739e+00
1.0000992720325494e+00
1.0000992769644039e+00
1.0000992818965373e+00
1.0000992868289498e+00
1.0000992917616396e+00
1.0000992966946076e+00
1.0000993016278532e+00
1.0000993065613764e+00

