# vtk DataFile Version 2.0

ASCII

DATASET UNSTRUCTURED_GRID

POINTS 100 float 

0.0000000000000000e+00  0.0000000000000000e+00  0.0000000000000000e+00
1.0000000000000000e+00  0.0000000000000000e+00  0.0000000000000000e+00
2.0000000000000000e+00  0.0000000000000000e+00  0.0000000000000000e+00
3.0000000000000000e+00  0.0000000000000000e+00  0.0000000000000000e+00
4.0000000000000000e+00  0.0000000000000000e+00  0.0000000000000000e+00
5.0000000000000000e+00  0.0000000000000000e+00  0.0000000000000000e+00
6.0000000000000000e+00  0.0000000000000000e+00  0.0000000000000000e+00
7.0000000000000000e+00  0.0000000000000000e+00  0.0000000000000000e+00
8.0000000000000000e+00  0.0000000000000000e+00  0.0000000000000000e+00
9.0000000000000000e+00  0.0000000000000000e+00  0.0000000000000000e+00
1.0000000000000000e+01  0.0000000000000000e+00  0.0000000000000000e+00
1.1000000000000000e+01  0.0000000000000000e+00  0.0000000000000000e+00
1.2000000000000000e+01  0.0000000000000000e+00  0.0000000000000000e+00
1.3000000000000000e+01  0.0000000000000000e+00  0.0000000000000000e+00
1.4000000000000000e+01  0.0000000000000000e+00  0.0000000000000000e+00
1.5000000000000000e+01  0.0000000000000000e+00  0.0000000000000000e+00
1.6000000000000000e+01  0.0000000000000000e+00  0.0000000000000000e+00
1.7000000000000000e+01  0.0000000000000000e+00  0.0000000000000000e+00
1.8000000000000000e+01  0.0000000000000000e+00  0.0000000000000000e+00
1.9000000000000000e+01  0.0000000000000000e+00  0.0000000000000000e+00
2.0000000000000000e+01  0.0000000000000000e+00  0.0000000000000000e+00
2.1000000000000000e+01  0.0000000000000000e+00  0.0000000000000000e+00
2.2000000000000000e+01  0.0000000000000000e+00  0.0000000000000000e+00
2.3000000000000000e+01  0.0000000000000000e+00  0.0000000000000000e+00
2.4000000000000000e+01  0.0000000000000000e+00  0.0000000000000000e+00
2.5000000000000000e+01  0.0000000000000000e+00  0.0000000000000000e+00
2.6000000000000000e+01  0.0000000000000000e+00  0.0000000000000000e+00
2.7000000000000000e+01  0.0000000000000000e+00  0.0000000000000000e+00
2.8000000000000000e+01  0.0000000000000000e+00  0.0000000000000000e+00
2.9000000000000000e+01  0.0000000000000000e+00  0.0000000000000000e+00
3.0000000000000000e+01  0.0000000000000000e+00  0.0000000000000000e+00
3.1000000000000000e+01  0.0000000000000000e+00  0.0000000000000000e+00
3.2000000000000000e+01  0.0000000000000000e+00  0.0000000000000000e+00
3.3000000000000000e+01  0.0000000000000000e+00  0.0000000000000000e+00
3.4000000000000000e+01  0.0000000000000000e+00  0.0000000000000000e+00
3.5000000000000000e+01  0.0000000000000000e+00  0.0000000000000000e+00
3.6000000000000000e+01  0.0000000000000000e+00  0.0000000000000000e+00
3.7000000000000000e+01  0.0000000000000000e+00  0.0000000000000000e+00
3.8000000000000000e+01  0.0000000000000000e+00  0.0000000000000000e+00
3.9000000000000000e+01  0.0000000000000000e+00  0.0000000000000000e+00
4.0000000000000000e+01  0.0000000000000000e+00  0.0000000000000000e+00
4.1000000000000000e+01  0.0000000000000000e+00  0.0000000000000000e+00
4.2000000000000000e+01  0.0000000000000000e+00  0.0000000000000000e+00
4.3000000000000000e+01  0.0000000000000000e+00  0.0000000000000000e+00
4.4000000000000000e+01  0.0000000000000000e+00  0.0000000000000000e+00
4.5000000000000000e+01  0.0000000000000000e+00  0.0000000000000000e+00
4.6000000000000000e+01  0.0000000000000000e+00  0.0000000000000000e+00
4.7000000000000000e+01  0.0000000000000000e+00  0.0000000000000000e+00
4.8000000000000000e+01  0.0000000000000000e+00  0.0000000000000000e+00
4.9000000000000000e+01  0.0000000000000000e+00  0.0000000000000000e+00
5.0000000000000000e+01  0.0000000000000000e+00  0.0000000000000000e+00
5.1000000000000000e+01  0.0000000000000000e+00  0.0000000000000000e+00
5.2000000000000000e+01  0.0000000000000000e+00  0.0000000000000000e+00
5.3000000000000000e+01  0.0000000000000000e+00  0.0000000000000000e+00
5.4000000000000000e+01  0.0000000000000000e+00  0.0000000000000000e+00
5.5000000000000000e+01  0.0000000000000000e+00  0.0000000000000000e+00
5.6000000000000000e+01  0.0000000000000000e+00  0.0000000000000000e+00
5.7000000000000000e+01  0.0000000000000000e+00  0.0000000000000000e+00
5.8000000000000000e+01  0.0000000000000000e+00  0.0000000000000000e+00
5.9000000000000000e+01  0.0000000000000000e+00  0.0000000000000000e+00
6.0000000000000000e+01  0.0000000000000000e+00  0.0000000000000000e+00
6.1000000000000000e+01  0.0000000000000000e+00  0.0000000000000000e+00
6.2000000000000000e+01  0.0000000000000000e+00  0.0000000000000000e+00
6.3000000000000000e+01  0.0000000000000000e+00  0.0000000000000000e+00
6.4000000000000000e+01  0.0000000000000000e+00  0.0000000000000000e+00
6.5000000000000000e+01  0.0000000000000000e+00  0.0000000000000000e+00
6.6000000000000000e+01  0.0000000000000000e+00  0.0000000000000000e+00
6.7000000000000000e+01  0.0000000000000000e+00  0.0000000000000000e+00
6.8000000000000000e+01  0.0000000000000000e+00  0.0000000000000000e+00
6.9000000000000000e+01  0.0000000000000000e+00  0.0000000000000000e+00
7.0000000000000000e+01  0.0000000000000000e+00  0.0000000000000000e+00
7.1000000000000000e+01  0.0000000000000000e+00  0.0000000000000000e+00
7.2000000000000000e+01  0.0000000000000000e+00  0.0000000000000000e+00
7.3000000000000000e+01  0.0000000000000000e+00  0.0000000000000000e+00
7.4000000000000000e+01  0.0000000000000000e+00  0.0000000000000000e+00
7.5000000000000000e+01  0.0000000000000000e+00  0.0000000000000000e+00
7.6000000000000000e+01  0.0000000000000000e+00  0.0000000000000000e+00
7.7000000000000000e+01  0.0000000000000000e+00  0.0000000000000000e+00
7.8000000000000000e+01  0.0000000000000000e+00  0.0000000000000000e+00
7.9000000000000000e+01  0.0000000000000000e+00  0.0000000000000000e+00
8.0000000000000000e+01  0.0000000000000000e+00  0.0000000000000000e+00
8.1000000000000000e+01  0.0000000000000000e+00  0.0000000000000000e+00
8.2000000000000000e+01  0.0000000000000000e+00  0.0000000000000000e+00
8.3000000000000000e+01  0.0000000000000000e+00  0.0000000000000000e+00
8.4000000000000000e+01  0.0000000000000000e+00  0.0000000000000000e+00
8.5000000000000000e+01  0.0000000000000000e+00  0.0000000000000000e+00
8.6000000000000000e+01  0.0000000000000000e+00  0.0000000000000000e+00
8.7000000000000000e+01  0.0000000000000000e+00  0.0000000000000000e+00
8.8000000000000000e+01  0.0000000000000000e+00  0.0000000000000000e+00
8.9000000000000000e+01  0.0000000000000000e+00  0.0000000000000000e+00
9.0000000000000000e+01  0.0000000000000000e+00  0.0000000000000000e+00
9.1000000000000000e+01  0.0000000000000000e+00  0.0000000000000000e+00
9.2000000000000000e+01  0.0000000000000000e+00  0.0000000000000000e+00
9.3000000000000000e+01  0.0000000000000000e+00  0.0000000000000000e+00
9.4000000000000000e+01  0.0000000000000000e+00  0.0000000000000000e+00
9.5000000000000000e+01  0.0000000000000000e+00  0.0000000000000000e+00
9.6000000000000000e+01  0.0000000000000000e+00  0.0000000000000000e+00
9.7000000000000000e+01  0.0000000000000000e+00  0.0000000000000000e+00
9.8000000000000000e+01  0.0000000000000000e+00  0.0000000000000000e+00
9.9000000000000000e+01  0.0000000000000000e+00  0.0000000000000000e+00

POINT_DATA 100

VECTORS velocity float
1.0059369065729292e-02  0.0000000000000000e+00  0.0000000000000000e+00
1.0059369635035911e-02  0.0000000000000000e+00  0.0000000000000000e+00
1.0059370179587532e-02  0.0000000000000000e+00  0.0000000000000000e+00
1.0059370713551251e-02  0.0000000000000000e+00  0.0000000000000000e+00
1.0059371242759759e-02  0.0000000000000000e+00  0.0000000000000000e+00
1.0059371769627064e-02  0.0000000000000000e+00  0.0000000000000000e+00
1.0059372295158093e-02  0.0000000000000000e+00  0.0000000000000000e+00
1.0059372819773456e-02  0.0000000000000000e+00  0.0000000000000000e+00
1.0059373343649964e-02  0.0000000000000000e+00  0.0000000000000000e+00
1.0059373866862184e-02  0.0000000000000000e+00  0.0000000000000000e+00
1.0059374389441621e-02  0.0000000000000000e+00  0.0000000000000000e+00
1.0059374911401619e-02  0.0000000000000000e+00  0.0000000000000000e+00
1.0059375432747845e-02  0.0000000000000000e+00  0.0000000000000000e+00
1.0059375953482740e-02  0.0000000000000000e+00  0.0000000000000000e+00
1.0059376473607370e-02  0.0000000000000000e+00  0.0000000000000000e+00
1.0059376993122230e-02  0.0000000000000000e+00  0.0000000000000000e+00
1.0059377512027574e-02  0.0000000000000000e+00  0.0000000000000000e+00
1.0059378030323559e-02  0.0000000000000000e+00  0.0000000000000000e+00
1.0059378548010299e-02  0.0000000000000000e+00  0.0000000000000000e+00
1.0059379065087883e-02  0.0000000000000000e+00  0.0000000000000000e+00
1.0059379581556404e-02  0.0000000000000000e+00  0.0000000000000000e+00
1.0059380097415943e-02  0.0000000000000000e+00  0.0000000000000000e+00
1.0059380612666587e-02  0.0000000000000000e+00  0.0000000000000000e+00
1.0059381127308413e-02  0.0000000000000000e+00  0.0000000000000000e+00
1.0059381641341512e-02  0.0000000000000000e+00  0.0000000000000000e+00
1.0059382154765964e-02  0.0000000000000000e+00  0.0000000000000000e+00
1.0059382667581851e-02  0.0000000000000000e+00  0.0000000000000000e+00
1.0059383179789256e-02  0.0000000000000000e+00  0.0000000000000000e+00
1.0059383691388264e-02  0.0000000000000000e+00  0.0000000000000000e+00
1.0059384202378960e-02  0.0000000000000000e+00  0.0000000000000000e+00
1.0059384712761426e-02  0.0000000000000000e+00  0.0000000000000000e+00
1.0059385222535744e-02  0.0000000000000000e+00  0.0000000000000000e+00
1.0059385731702003e-02  0.0000000000000000e+00  0.0000000000000000e+00
1.0059386240260289e-02  0.0000000000000000e+00  0.0000000000000000e+00
1.0059386748210690e-02  0.0000000000000000e+00  0.0000000000000000e+00
1.0059387255553283e-02  0.0000000000000000e+00  0.0000000000000000e+00
1.0059387762288156e-02  0.0000000000000000e+00  0.0000000000000000e+00
1.0059388268415405e-02  0.0000000000000000e+00  0.0000000000000000e+00
1.0059388773935108e-02  0.0000000000000000e+00  0.0000000000000000e+00
1.0059389278847357e-02  0.0000000000000000e+00  0.0000000000000000e+00
1.0059389783152234e-02  0.0000000000000000e+00  0.0000000000000000e+00
1.0059390286849830e-02  0.0000000000000000e+00  0.0000000000000000e+00
1.0059390789940233e-02  0.0000000000000000e+00  0.0000000000000000e+00
1.0059391292423524e-02  0.0000000000000000e+00  0.0000000000000000e+00
1.0059391794299802e-02  0.0000000000000000e+00  0.0000000000000000e+00
1.0059392295569155e-02  0.0000000000000000e+00  0.0000000000000000e+00
1.0059392796231671e-02  0.0000000000000000e+00  0.0000000000000000e+00
1.0059393296287442e-02  0.0000000000000000e+00  0.0000000000000000e+00
1.0059393795736556e-02  0.0000000000000000e+00  0.0000000000000000e+00
1.0059394294579105e-02  0.0000000000000000e+00  0.0000000000000000e+00
1.0059394792815176e-02  0.0000000000000000e+00  0.0000000000000000e+00
1.0059395290444867e-02  0.0000000000000000e+00  0.0000000000000000e+00
1.0059395787468268e-02  0.0000000000000000e+00  0.0000000000000000e+00
1.0059396283885474e-02  0.0000000000000000e+00  0.0000000000000000e+00
1.0059396779696580e-02  0.0000000000000000e+00  0.0000000000000000e+00
1.0059397274901676e-02  0.0000000000000000e+00  0.0000000000000000e+00
1.0059397769500857e-02  0.0000000000000000e+00  0.0000000000000000e+00
1.0059398263494213e-02  0.0000000000000000e+00  0.0000000000000000e+00
1.0059398756881850e-02  0.0000000000000000e+00  0.0000000000000000e+00
1.0059399249663859e-02  0.0000000000000000e+00  0.0000000000000000e+00
1.0059399741840334e-02  0.0000000000000000e+00  0.0000000000000000e+00
1.0059400233411375e-02  0.0000000000000000e+00  0.0000000000000000e+00
1.0059400724377086e-02  0.0000000000000000e+00  0.0000000000000000e+00
1.0059401214737555e-02  0.0000000000000000e+00  0.0000000000000000e+00
1.0059401704492883e-02  0.0000000000000000e+00  0.0000000000000000e+00
1.0059402193643171e-02  0.0000000000000000e+00  0.0000000000000000e+00
1.0059402682188513e-02  0.0000000000000000e+00  0.0000000000000000e+00
1.0059403170129017e-02  0.0000000000000000e+00  0.0000000000000000e+00
1.0059403657464782e-02  0.0000000000000000e+00  0.0000000000000000e+00
1.0059404144195908e-02  0.0000000000000000e+00  0.0000000000000000e+00
1.0059404630322498e-02  0.0000000000000000e+00  0.0000000000000000e+00
1.0059405115844659e-02  0.0000000000000000e+00  0.0000000000000000e+00
1.0059405600762489e-02  0.0000000000000000e+00  0.0000000000000000e+00
1.0059406085076097e-02  0.0000000000000000e+00  0.0000000000000000e+00
1.0059406568785583e-02  0.0000000000000000e+00  0.0000000000000000e+00
1.0059407051891048e-02  0.0000000000000000e+00  0.0000000000000000e+00
1.0059407534392604e-02  0.0000000000000000e+00  0.0000000000000000e+00
1.0059408016290364e-02  0.0000000000000000e+00  0.0000000000000000e+00
1.0059408497584426e-02  0.0000000000000000e+00  0.0000000000000000e+00
1.0059408978274903e-02  0.0000000000000000e+00  0.0000000000000000e+00
1.0059409458361901e-02  0.0000000000000000e+00  0.0000000000000000e+00
1.0059409937845529e-02  0.0000000000000000e+00  0.0000000000000000e+00
1.0059410416725898e-02  0.0000000000000000e+00  0.0000000000000000e+00
1.0059410895003116e-02  0.0000000000000000e+00  0.0000000000000000e+00
1.0059411372677299e-02  0.0000000000000000e+00  0.0000000000000000e+00
1.0059411849748560e-02  0.0000000000000000e+00  0.0000000000000000e+00
1.0059412326217017e-02  0.0000000000000000e+00  0.0000000000000000e+00
1.0059412802082767e-02  0.0000000000000000e+00  0.0000000000000000e+00
1.0059413277345948e-02  0.0000000000000000e+00  0.0000000000000000e+00
1.0059413752006623e-02  0.0000000000000000e+00  0.0000000000000000e+00
1.0059414226065025e-02  0.0000000000000000e+00  0.0000000000000000e+00
1.0059414699520978e-02  0.0000000000000000e+00  0.0000000000000000e+00
1.0059415172375342e-02  0.0000000000000000e+00  0.0000000000000000e+00
1.0059415644626429e-02  0.0000000000000000e+00  0.0000000000000000e+00
1.0059416116278697e-02  0.0000000000000000e+00  0.0000000000000000e+00
1.0059416587321837e-02  0.0000000000000000e+00  0.0000000000000000e+00
1.0059417057781038e-02  0.0000000000000000e+00  0.0000000000000000e+00
1.0059417527596126e-02  0.0000000000000000e+00  0.0000000000000000e+00
1.0059417996912430e-02  0.0000000000000000e+00  0.0000000000000000e+00
1.0059418465379536e-02  0.0000000000000000e+00  0.0000000000000000e+00

SCALARS pressure float
LOOKUP_TABLE default
6.2524370044455310e-05
6.2493339150141062e-05
6.2462308255826815e-05
6.2431277020318711e-05
6.2400245302385852e-05
6.2369213043250114e-05
6.2338180218316953e-05
6.2307146817245398e-05
6.2276112835667958e-05
6.2245078271730173e-05
6.2214043124639165e-05
6.2183007394050552e-05
6.2151971079810566e-05
6.2120934181846728e-05
6.2089896700122136e-05
6.2058858634615781e-05
6.2027819985314601e-05
6.1996780752209636e-05
6.1965740935295262e-05
6.1934700534568200e-05
6.1903659550027176e-05
6.1872617981673165e-05
6.1841575829509027e-05
6.1810533093539587e-05
6.1779489773771608e-05
6.1748445870213789e-05
6.1717401382876703e-05
6.1686356311773183e-05
6.1655310656917703e-05
6.1624264418326595e-05
6.1593217596018289e-05
6.1562170190012939e-05
6.1531122200332824e-05
6.1500073627002028e-05
6.1469024470046395e-05
6.1437974729493654e-05
6.1406924405373511e-05
6.1375873497717829e-05
6.1344822006559650e-05
6.1313769931934235e-05
6.1282717273878774e-05
6.1251664032432190e-05
6.1220610207635153e-05
6.1189555799529976e-05
6.1158500808161312e-05
6.1127445233575078e-05
6.1096389075819074e-05
6.1065332334943106e-05
6.1034275010998538e-05
6.1003217104038589e-05
6.0972158614117885e-05
6.0941099541293121e-05
6.0910039885622662e-05
6.0878979647166321e-05
6.0847918825985825e-05
6.0816857422144341e-05
6.0785795435707151e-05
6.0754732866740779e-05
6.0723669715313494e-05
6.0692605981495188e-05
6.0661541665357262e-05
6.0630476766972846e-05
6.0599411286416661e-05
6.0568345223764845e-05
6.0537278579095142e-05
6.0506211352486998e-05
6.0475143544021206e-05
6.0444075153780103e-05
6.0413006181847317e-05
6.0381936628308349e-05
6.0350866493249944e-05
6.0319795776760218e-05
6.0288724478928627e-05
6.0257652599846235e-05
6.0226580139605384e-05
6.0195507098299809e-05
6.0164433476024676e-05
6.0133359272876540e-05
6.0102284488953128e-05
6.0071209124353408e-05
6.0040133179177851e-05
6.0009056653528007e-05
5.9977979547506800e-05
5.9946901861218279e-05
5.9915823594767978e-05
5.9884744748262292e-05
5.9853665321808718e-05
5.9822585315515949e-05
5.9791504729494477e-05
5.9760423563854953e-05
5.9729341818709944e-05
5.9698259494171766e-05
5.9667176590357696e-05
5.9636093107375457e-05
5.9605009045359232e-05
5.9573924404383336e-05
5.9542839184669407e-05
5.9511753386087971e-05
5.9480667009359400e-05
5.9449580053151601e-05

SCALARS diameter float
LOOKUP_TABLE default
1.0000655928680817e+00
1.0000655621419745e+00
1.0000655314158682e+00
1.0000655006894088e+00
1.0000654699624487e+00
1.0000654392349280e+00
1.0000654085068224e+00
1.0000653777781232e+00
1.0000653470488232e+00
1.0000653163189219e+00
1.0000652855884187e+00
1.0000652548573135e+00
1.0000652241256052e+00
1.0000651933932945e+00
1.0000651626603814e+00
1.0000651319268670e+00
1.0000651011927477e+00
1.0000650704580274e+00
1.0000650397227047e+00
1.0000650089867782e+00
1.0000649782502493e+00
1.0000649475131187e+00
1.0000649167753859e+00
1.0000648860370491e+00
1.0000648552981106e+00
1.0000648245585699e+00
1.0000647938184266e+00
1.0000647630776822e+00
1.0000647323363341e+00
1.0000647015943847e+00
1.0000646708518319e+00
1.0000646401086783e+00
1.0000646093649224e+00
1.0000645786205640e+00
1.0000645478756041e+00
1.0000645171300420e+00
1.0000644863838795e+00
1.0000644556371141e+00
1.0000644248897479e+00
1.0000643941417802e+00
1.0000643633932111e+00
1.0000643326440404e+00
1.0000643018942690e+00
1.0000642711438967e+00
1.0000642403929225e+00
1.0000642096413492e+00
1.0000641788891740e+00
1.0000641481363988e+00
1.0000641173830229e+00
1.0000640866290471e+00
1.0000640558744713e+00
1.0000640251192947e+00
1.0000639943635186e+00
1.0000639636071433e+00
1.0000639328501677e+00
1.0000639020925934e+00
1.0000638713344203e+00
1.0000638405756472e+00
1.0000638098162753e+00
1.0000637790563047e+00
1.0000637482957364e+00
1.0000637175345688e+00
1.0000636867728026e+00
1.0000636560104397e+00
1.0000636252474786e+00
1.0000635944839202e+00
1.0000635637197639e+00
1.0000635329550098e+00
1.0000635021896600e+00
1.0000634714237135e+00
1.0000634406571693e+00
1.0000634098900285e+00
1.0000633791222933e+00
1.0000633483539616e+00
1.0000633175850338e+00
1.0000632868155104e+00
1.0000632560453921e+00
1.0000632252746791e+00
1.0000631945033707e+00
1.0000631637314688e+00
1.0000631329589722e+00
1.0000631021858819e+00
1.0000630714121974e+00
1.0000630406379196e+00
1.0000630098630485e+00
1.0000629790875841e+00
1.0000629483115273e+00
1.0000629175348790e+00
1.0000628867576382e+00
1.0000628559798055e+00
1.0000628252013810e+00
1.0000627944223659e+00
1.0000627636427593e+00
1.0000627328625620e+00
1.0000627020817741e+00
1.0000626713003966e+00
1.0000626405184303e+00
1.0000626097358738e+00
1.0000625789527282e+00
1.0000625481689926e+00

