# vtk DataFile Version 2.0

ASCII

DATASET UNSTRUCTURED_GRID

POINTS 100 float 

0.0000000000000000e+00  0.0000000000000000e+00  0.0000000000000000e+00
1.0000000000000000e+00  0.0000000000000000e+00  0.0000000000000000e+00
2.0000000000000000e+00  0.0000000000000000e+00  0.0000000000000000e+00
3.0000000000000000e+00  0.0000000000000000e+00  0.0000000000000000e+00
4.0000000000000000e+00  0.0000000000000000e+00  0.0000000000000000e+00
5.0000000000000000e+00  0.0000000000000000e+00  0.0000000000000000e+00
6.0000000000000000e+00  0.0000000000000000e+00  0.0000000000000000e+00
7.0000000000000000e+00  0.0000000000000000e+00  0.0000000000000000e+00
8.0000000000000000e+00  0.0000000000000000e+00  0.0000000000000000e+00
9.0000000000000000e+00  0.0000000000000000e+00  0.0000000000000000e+00
1.0000000000000000e+01  0.0000000000000000e+00  0.0000000000000000e+00
1.1000000000000000e+01  0.0000000000000000e+00  0.0000000000000000e+00
1.2000000000000000e+01  0.0000000000000000e+00  0.0000000000000000e+00
1.3000000000000000e+01  0.0000000000000000e+00  0.0000000000000000e+00
1.4000000000000000e+01  0.0000000000000000e+00  0.0000000000000000e+00
1.5000000000000000e+01  0.0000000000000000e+00  0.0000000000000000e+00
1.6000000000000000e+01  0.0000000000000000e+00  0.0000000000000000e+00
1.7000000000000000e+01  0.0000000000000000e+00  0.0000000000000000e+00
1.8000000000000000e+01  0.0000000000000000e+00  0.0000000000000000e+00
1.9000000000000000e+01  0.0000000000000000e+00  0.0000000000000000e+00
2.0000000000000000e+01  0.0000000000000000e+00  0.0000000000000000e+00
2.1000000000000000e+01  0.0000000000000000e+00  0.0000000000000000e+00
2.2000000000000000e+01  0.0000000000000000e+00  0.0000000000000000e+00
2.3000000000000000e+01  0.0000000000000000e+00  0.0000000000000000e+00
2.4000000000000000e+01  0.0000000000000000e+00  0.0000000000000000e+00
2.5000000000000000e+01  0.0000000000000000e+00  0.0000000000000000e+00
2.6000000000000000e+01  0.0000000000000000e+00  0.0000000000000000e+00
2.7000000000000000e+01  0.0000000000000000e+00  0.0000000000000000e+00
2.8000000000000000e+01  0.0000000000000000e+00  0.0000000000000000e+00
2.9000000000000000e+01  0.0000000000000000e+00  0.0000000000000000e+00
3.0000000000000000e+01  0.0000000000000000e+00  0.0000000000000000e+00
3.1000000000000000e+01  0.0000000000000000e+00  0.0000000000000000e+00
3.2000000000000000e+01  0.0000000000000000e+00  0.0000000000000000e+00
3.3000000000000000e+01  0.0000000000000000e+00  0.0000000000000000e+00
3.4000000000000000e+01  0.0000000000000000e+00  0.0000000000000000e+00
3.5000000000000000e+01  0.0000000000000000e+00  0.0000000000000000e+00
3.6000000000000000e+01  0.0000000000000000e+00  0.0000000000000000e+00
3.7000000000000000e+01  0.0000000000000000e+00  0.0000000000000000e+00
3.8000000000000000e+01  0.0000000000000000e+00  0.0000000000000000e+00
3.9000000000000000e+01  0.0000000000000000e+00  0.0000000000000000e+00
4.0000000000000000e+01  0.0000000000000000e+00  0.0000000000000000e+00
4.1000000000000000e+01  0.0000000000000000e+00  0.0000000000000000e+00
4.2000000000000000e+01  0.0000000000000000e+00  0.0000000000000000e+00
4.3000000000000000e+01  0.0000000000000000e+00  0.0000000000000000e+00
4.4000000000000000e+01  0.0000000000000000e+00  0.0000000000000000e+00
4.5000000000000000e+01  0.0000000000000000e+00  0.0000000000000000e+00
4.6000000000000000e+01  0.0000000000000000e+00  0.0000000000000000e+00
4.7000000000000000e+01  0.0000000000000000e+00  0.0000000000000000e+00
4.8000000000000000e+01  0.0000000000000000e+00  0.0000000000000000e+00
4.9000000000000000e+01  0.0000000000000000e+00  0.0000000000000000e+00
5.0000000000000000e+01  0.0000000000000000e+00  0.0000000000000000e+00
5.1000000000000000e+01  0.0000000000000000e+00  0.0000000000000000e+00
5.2000000000000000e+01  0.0000000000000000e+00  0.0000000000000000e+00
5.3000000000000000e+01  0.0000000000000000e+00  0.0000000000000000e+00
5.4000000000000000e+01  0.0000000000000000e+00  0.0000000000000000e+00
5.5000000000000000e+01  0.0000000000000000e+00  0.0000000000000000e+00
5.6000000000000000e+01  0.0000000000000000e+00  0.0000000000000000e+00
5.7000000000000000e+01  0.0000000000000000e+00  0.0000000000000000e+00
5.8000000000000000e+01  0.0000000000000000e+00  0.0000000000000000e+00
5.9000000000000000e+01  0.0000000000000000e+00  0.0000000000000000e+00
6.0000000000000000e+01  0.0000000000000000e+00  0.0000000000000000e+00
6.1000000000000000e+01  0.0000000000000000e+00  0.0000000000000000e+00
6.2000000000000000e+01  0.0000000000000000e+00  0.0000000000000000e+00
6.3000000000000000e+01  0.0000000000000000e+00  0.0000000000000000e+00
6.4000000000000000e+01  0.0000000000000000e+00  0.0000000000000000e+00
6.5000000000000000e+01  0.0000000000000000e+00  0.0000000000000000e+00
6.6000000000000000e+01  0.0000000000000000e+00  0.0000000000000000e+00
6.7000000000000000e+01  0.0000000000000000e+00  0.0000000000000000e+00
6.8000000000000000e+01  0.0000000000000000e+00  0.0000000000000000e+00
6.9000000000000000e+01  0.0000000000000000e+00  0.0000000000000000e+00
7.0000000000000000e+01  0.0000000000000000e+00  0.0000000000000000e+00
7.1000000000000000e+01  0.0000000000000000e+00  0.0000000000000000e+00
7.2000000000000000e+01  0.0000000000000000e+00  0.0000000000000000e+00
7.3000000000000000e+01  0.0000000000000000e+00  0.0000000000000000e+00
7.4000000000000000e+01  0.0000000000000000e+00  0.0000000000000000e+00
7.5000000000000000e+01  0.0000000000000000e+00  0.0000000000000000e+00
7.6000000000000000e+01  0.0000000000000000e+00  0.0000000000000000e+00
7.7000000000000000e+01  0.0000000000000000e+00  0.0000000000000000e+00
7.8000000000000000e+01  0.0000000000000000e+00  0.0000000000000000e+00
7.9000000000000000e+01  0.0000000000000000e+00  0.0000000000000000e+00
8.0000000000000000e+01  0.0000000000000000e+00  0.0000000000000000e+00
8.1000000000000000e+01  0.0000000000000000e+00  0.0000000000000000e+00
8.2000000000000000e+01  0.0000000000000000e+00  0.0000000000000000e+00
8.3000000000000000e+01  0.0000000000000000e+00  0.0000000000000000e+00
8.4000000000000000e+01  0.0000000000000000e+00  0.0000000000000000e+00
8.5000000000000000e+01  0.0000000000000000e+00  0.0000000000000000e+00
8.6000000000000000e+01  0.0000000000000000e+00  0.0000000000000000e+00
8.7000000000000000e+01  0.0000000000000000e+00  0.0000000000000000e+00
8.8000000000000000e+01  0.0000000000000000e+00  0.0000000000000000e+00
8.9000000000000000e+01  0.0000000000000000e+00  0.0000000000000000e+00
9.0000000000000000e+01  0.0000000000000000e+00  0.0000000000000000e+00
9.1000000000000000e+01  0.0000000000000000e+00  0.0000000000000000e+00
9.2000000000000000e+01  0.0000000000000000e+00  0.0000000000000000e+00
9.3000000000000000e+01  0.0000000000000000e+00  0.0000000000000000e+00
9.4000000000000000e+01  0.0000000000000000e+00  0.0000000000000000e+00
9.5000000000000000e+01  0.0000000000000000e+00  0.0000000000000000e+00
9.6000000000000000e+01  0.0000000000000000e+00  0.0000000000000000e+00
9.7000000000000000e+01  0.0000000000000000e+00  0.0000000000000000e+00
9.8000000000000000e+01  0.0000000000000000e+00  0.0000000000000000e+00
9.9000000000000000e+01  0.0000000000000000e+00  0.0000000000000000e+00

POINT_DATA 100

VECTORS velocity float
1.0062434494358228e-02  0.0000000000000000e+00  0.0000000000000000e+00
1.0062434364165786e-02  0.0000000000000000e+00  0.0000000000000000e+00
1.0062434261713335e-02  0.0000000000000000e+00  0.0000000000000000e+00
1.0062434171159920e-02  0.0000000000000000e+00  0.0000000000000000e+00
1.0062434085903385e-02  0.0000000000000000e+00  0.0000000000000000e+00
1.0062434003193118e-02  0.0000000000000000e+00  0.0000000000000000e+00
1.0062433921883605e-02  0.0000000000000000e+00  0.0000000000000000e+00
1.0062433841498205e-02  0.0000000000000000e+00  0.0000000000000000e+00
1.0062433761838258e-02  0.0000000000000000e+00  0.0000000000000000e+00
1.0062433682821286e-02  0.0000000000000000e+00  0.0000000000000000e+00
1.0062433604413161e-02  0.0000000000000000e+00  0.0000000000000000e+00
1.0062433526599449e-02  0.0000000000000000e+00  0.0000000000000000e+00
1.0062433449374325e-02  0.0000000000000000e+00  0.0000000000000000e+00
1.0062433372735359e-02  0.0000000000000000e+00  0.0000000000000000e+00
1.0062433296681406e-02  0.0000000000000000e+00  0.0000000000000000e+00
1.0062433221212145e-02  0.0000000000000000e+00  0.0000000000000000e+00
1.0062433146327375e-02  0.0000000000000000e+00  0.0000000000000000e+00
1.0062433072027119e-02  0.0000000000000000e+00  0.0000000000000000e+00
1.0062432998311348e-02  0.0000000000000000e+00  0.0000000000000000e+00
1.0062432925180012e-02  0.0000000000000000e+00  0.0000000000000000e+00
1.0062432852633111e-02  0.0000000000000000e+00  0.0000000000000000e+00
1.0062432780670656e-02  0.0000000000000000e+00  0.0000000000000000e+00
1.0062432709292720e-02  0.0000000000000000e+00  0.0000000000000000e+00
1.0062432638499284e-02  0.0000000000000000e+00  0.0000000000000000e+00
1.0062432568290355e-02  0.0000000000000000e+00  0.0000000000000000e+00
1.0062432498666073e-02  0.0000000000000000e+00  0.0000000000000000e+00
1.0062432429626376e-02  0.0000000000000000e+00  0.0000000000000000e+00
1.0062432361171197e-02  0.0000000000000000e+00  0.0000000000000000e+00
1.0062432293300661e-02  0.0000000000000000e+00  0.0000000000000000e+00
1.0062432226014712e-02  0.0000000000000000e+00  0.0000000000000000e+00
1.0062432159313265e-02  0.0000000000000000e+00  0.0000000000000000e+00
1.0062432093196483e-02  0.0000000000000000e+00  0.0000000000000000e+00
1.0062432027664374e-02  0.0000000000000000e+00  0.0000000000000000e+00
1.0062431962716955e-02  0.0000000000000000e+00  0.0000000000000000e+00
1.0062431898354188e-02  0.0000000000000000e+00  0.0000000000000000e+00
1.0062431834576105e-02  0.0000000000000000e+00  0.0000000000000000e+00
1.0062431771382713e-02  0.0000000000000000e+00  0.0000000000000000e+00
1.0062431708773953e-02  0.0000000000000000e+00  0.0000000000000000e+00
1.0062431646750004e-02  0.0000000000000000e+00  0.0000000000000000e+00
1.0062431585310783e-02  0.0000000000000000e+00  0.0000000000000000e+00
1.0062431524456279e-02  0.0000000000000000e+00  0.0000000000000000e+00
1.0062431464186571e-02  0.0000000000000000e+00  0.0000000000000000e+00
1.0062431404501599e-02  0.0000000000000000e+00  0.0000000000000000e+00
1.0062431345401470e-02  0.0000000000000000e+00  0.0000000000000000e+00
1.0062431286886083e-02  0.0000000000000000e+00  0.0000000000000000e+00
1.0062431228955494e-02  0.0000000000000000e+00  0.0000000000000000e+00
1.0062431171609845e-02  0.0000000000000000e+00  0.0000000000000000e+00
1.0062431114849007e-02  0.0000000000000000e+00  0.0000000000000000e+00
1.0062431058673051e-02  0.0000000000000000e+00  0.0000000000000000e+00
1.0062431003082016e-02  0.0000000000000000e+00  0.0000000000000000e+00
1.0062430948075816e-02  0.0000000000000000e+00  0.0000000000000000e+00
1.0062430893654517e-02  0.0000000000000000e+00  0.0000000000000000e+00
1.0062430839818174e-02  0.0000000000000000e+00  0.0000000000000000e+00
1.0062430786566674e-02  0.0000000000000000e+00  0.0000000000000000e+00
1.0062430733900186e-02  0.0000000000000000e+00  0.0000000000000000e+00
1.0062430681818706e-02  0.0000000000000000e+00  0.0000000000000000e+00
1.0062430630322172e-02  0.0000000000000000e+00  0.0000000000000000e+00
1.0062430579410623e-02  0.0000000000000000e+00  0.0000000000000000e+00
1.0062430529084097e-02  0.0000000000000000e+00  0.0000000000000000e+00
1.0062430479342620e-02  0.0000000000000000e+00  0.0000000000000000e+00
1.0062430430186245e-02  0.0000000000000000e+00  0.0000000000000000e+00
1.0062430381614942e-02  0.0000000000000000e+00  0.0000000000000000e+00
1.0062430333628558e-02  0.0000000000000000e+00  0.0000000000000000e+00
1.0062430286227353e-02  0.0000000000000000e+00  0.0000000000000000e+00
1.0062430239411236e-02  0.0000000000000000e+00  0.0000000000000000e+00
1.0062430193180167e-02  0.0000000000000000e+00  0.0000000000000000e+00
1.0062430147534288e-02  0.0000000000000000e+00  0.0000000000000000e+00
1.0062430102473496e-02  0.0000000000000000e+00  0.0000000000000000e+00
1.0062430057997819e-02  0.0000000000000000e+00  0.0000000000000000e+00
1.0062430014107393e-02  0.0000000000000000e+00  0.0000000000000000e+00
1.0062429970802127e-02  0.0000000000000000e+00  0.0000000000000000e+00
1.0062429928082038e-02  0.0000000000000000e+00  0.0000000000000000e+00
1.0062429885947199e-02  0.0000000000000000e+00  0.0000000000000000e+00
1.0062429844397629e-02  0.0000000000000000e+00  0.0000000000000000e+00
1.0062429803433226e-02  0.0000000000000000e+00  0.0000000000000000e+00
1.0062429763054119e-02  0.0000000000000000e+00  0.0000000000000000e+00
1.0062429723260291e-02  0.0000000000000000e+00  0.0000000000000000e+00
1.0062429684051704e-02  0.0000000000000000e+00  0.0000000000000000e+00
1.0062429645428377e-02  0.0000000000000000e+00  0.0000000000000000e+00
1.0062429607390469e-02  0.0000000000000000e+00  0.0000000000000000e+00
1.0062429569937904e-02  0.0000000000000000e+00  0.0000000000000000e+00
1.0062429533070546e-02  0.0000000000000000e+00  0.0000000000000000e+00
1.0062429496788637e-02  0.0000000000000000e+00  0.0000000000000000e+00
1.0062429461091989e-02  0.0000000000000000e+00  0.0000000000000000e+00
1.0062429425980785e-02  0.0000000000000000e+00  0.0000000000000000e+00
1.0062429391454984e-02  0.0000000000000000e+00  0.0000000000000000e+00
1.0062429357514585e-02  0.0000000000000000e+00  0.0000000000000000e+00
1.0062429324159605e-02  0.0000000000000000e+00  0.0000000000000000e+00
1.0062429291389993e-02  0.0000000000000000e+00  0.0000000000000000e+00
1.0062429259205908e-02  0.0000000000000000e+00  0.0000000000000000e+00
1.0062429227607268e-02  0.0000000000000000e+00  0.0000000000000000e+00
1.0062429196594355e-02  0.0000000000000000e+00  0.0000000000000000e+00
1.0062429166166443e-02  0.0000000000000000e+00  0.0000000000000000e+00
1.0062429136325147e-02  0.0000000000000000e+00  0.0000000000000000e+00
1.0062429107066605e-02  0.0000000000000000e+00  0.0000000000000000e+00
1.0062429078400305e-02  0.0000000000000000e+00  0.0000000000000000e+00
1.0062429050303063e-02  0.0000000000000000e+00  0.0000000000000000e+00
1.0062429022831845e-02  0.0000000000000000e+00  0.0000000000000000e+00
1.0062428995847658e-02  0.0000000000000000e+00  0.0000000000000000e+00
1.0062428969689379e-02  0.0000000000000000e+00  0.0000000000000000e+00

SCALARS pressure float
LOOKUP_TABLE default
5.9409140056716557e-05
5.9439301915123298e-05
5.9469463773530040e-05
5.9499626016438619e-05
5.9529788803961167e-05
5.9559952202698882e-05
5.9590116240298830e-05
5.9620280928189350e-05
5.9650446271046396e-05
5.9680612270735046e-05
5.9710778927954217e-05
5.9740946242916786e-05
5.9771114215633100e-05
5.9801282846030423e-05
5.9831452134000179e-05
5.9861622079418829e-05
5.9891792682157177e-05
5.9921963942084158e-05
5.9952135859068270e-05
5.9982308432976956e-05
6.0012481663676860e-05
6.0042655551034299e-05
6.0072830094916338e-05
6.0103005295190187e-05
6.0133181151722822e-05
6.0163357664382364e-05
6.0193534833037319e-05
6.0223712657554723e-05
6.0253891137801776e-05
6.0284070273646183e-05
6.0314250064953932e-05
6.0344430511591495e-05
6.0374611613426769e-05
6.0404793370327713e-05
6.0434975782161653e-05
6.0465158848795538e-05
6.0495342570096553e-05
6.0525526945930982e-05
6.0555711976166051e-05
6.0585897660669643e-05
6.0616083999308618e-05
6.0646270991950026e-05
6.0676458638460794e-05
6.0706646938708040e-05
6.0736835892558752e-05
6.0767025499879202e-05
6.0797215760537211e-05
6.0827406674400581e-05
6.0857598241336186e-05
6.0887790461211685e-05
6.0917983333894142e-05
6.0948176859250111e-05
6.0978371037146745e-05
6.1008565867450759e-05
6.1038761350029063e-05
6.1068957484749871e-05
6.1099154271480267e-05
6.1129351710087138e-05
6.1159549800437628e-05
6.1189748542399383e-05
6.1219947935840416e-05
6.1250147980628807e-05
6.1280348676630574e-05
6.1310550023712279e-05
6.1340752021741990e-05
6.1370954670586335e-05
6.1401157970112526e-05
6.1431361920187913e-05
6.1461566520678879e-05
6.1491771771453113e-05
6.1521977672378530e-05
6.1552184223321856e-05
6.1582391424150519e-05
6.1612599274732735e-05
6.1642807774935351e-05
6.1673016924625374e-05
6.1703226723670466e-05
6.1733437171937756e-05
6.1763648269293604e-05
6.1793860015605940e-05
6.1824072410743305e-05
6.1854285454571894e-05
6.1884499146958594e-05
6.1914713487770619e-05
6.1944928476874759e-05
6.1975144114138797e-05
6.2005360399429931e-05
6.2035577332615415e-05
6.2065794913561674e-05
6.2096013142136030e-05
6.2126232018206210e-05
6.2156451541641797e-05
6.2186671712307362e-05
6.2216892530076405e-05
6.2247113994799388e-05
6.2277336106383123e-05
6.2307558864596770e-05
6.2337782269547123e-05
6.2368006320520492e-05
6.2398231018801807e-05

SCALARS diameter float
LOOKUP_TABLE default
1.0000563027836193e+00
1.0000563335008814e+00
1.0000563642181461e+00
1.0000563949357957e+00
1.0000564256539888e+00
1.0000564563727918e+00
1.0000564870922339e+00
1.0000565178123249e+00
1.0000565485330710e+00
1.0000565792544731e+00
1.0000566099765307e+00
1.0000566406992464e+00
1.0000566714226191e+00
1.0000567021466495e+00
1.0000567328713368e+00
1.0000567635966808e+00
1.0000567943226810e+00
1.0000568250493389e+00
1.0000568557766532e+00
1.0000568865046238e+00
1.0000569172332505e+00
1.0000569479625341e+00
1.0000569786924736e+00
1.0000570094230685e+00
1.0000570401543212e+00
1.0000570708862280e+00
1.0000571016187907e+00
1.0000571323520095e+00
1.0000571630858837e+00
1.0000571938204139e+00
1.0000572245555990e+00
1.0000572552914391e+00
1.0000572860279342e+00
1.0000573167650844e+00
1.0000573475028891e+00
1.0000573782413489e+00
1.0000574089804632e+00
1.0000574397202322e+00
1.0000574704606553e+00
1.0000575012017330e+00
1.0000575319434652e+00
1.0000575626858512e+00
1.0000575934288902e+00
1.0000576241725843e+00
1.0000576549169318e+00
1.0000576856619334e+00
1.0000577164075874e+00
1.0000577471538963e+00
1.0000577779008575e+00
1.0000578086484722e+00
1.0000578393967405e+00
1.0000578701456599e+00
1.0000579008952344e+00
1.0000579316454608e+00
1.0000579623963408e+00
1.0000579931478710e+00
1.0000580239000558e+00
1.0000580546528923e+00
1.0000580854063807e+00
1.0000581161605213e+00
1.0000581469153138e+00
1.0000581776707587e+00
1.0000582084268548e+00
1.0000582391836033e+00
1.0000582699410026e+00
1.0000583006990538e+00
1.0000583314577560e+00
1.0000583622171095e+00
1.0000583929771141e+00
1.0000584237377703e+00
1.0000584544990763e+00
1.0000584852610339e+00
1.0000585160236417e+00
1.0000585467869010e+00
1.0000585775508097e+00
1.0000586083153693e+00
1.0000586390805783e+00
1.0000586698464389e+00
1.0000587006129487e+00
1.0000587313801081e+00
1.0000587621479182e+00
1.0000587929163767e+00
1.0000588236854857e+00
1.0000588544552438e+00
1.0000588852256511e+00
1.0000589159967077e+00
1.0000589467684140e+00
1.0000589775407693e+00
1.0000590083137726e+00
1.0000590390874260e+00
1.0000590698617269e+00
1.0000591006366772e+00
1.0000591314122755e+00
1.0000591621885220e+00
1.0000591929654172e+00
1.0000592237429597e+00
1.0000592545211511e+00
1.0000592852999903e+00
1.0000593160794768e+00
1.0000593468596124e+00

