# vtk DataFile Version 2.0

ASCII

DATASET UNSTRUCTURED_GRID

POINTS 100 float 

0.0000000000000000e+00  0.0000000000000000e+00  0.0000000000000000e+00
1.0000000000000000e+00  0.0000000000000000e+00  0.0000000000000000e+00
2.0000000000000000e+00  0.0000000000000000e+00  0.0000000000000000e+00
3.0000000000000000e+00  0.0000000000000000e+00  0.0000000000000000e+00
4.0000000000000000e+00  0.0000000000000000e+00  0.0000000000000000e+00
5.0000000000000000e+00  0.0000000000000000e+00  0.0000000000000000e+00
6.0000000000000000e+00  0.0000000000000000e+00  0.0000000000000000e+00
7.0000000000000000e+00  0.0000000000000000e+00  0.0000000000000000e+00
8.0000000000000000e+00  0.0000000000000000e+00  0.0000000000000000e+00
9.0000000000000000e+00  0.0000000000000000e+00  0.0000000000000000e+00
1.0000000000000000e+01  0.0000000000000000e+00  0.0000000000000000e+00
1.1000000000000000e+01  0.0000000000000000e+00  0.0000000000000000e+00
1.2000000000000000e+01  0.0000000000000000e+00  0.0000000000000000e+00
1.3000000000000000e+01  0.0000000000000000e+00  0.0000000000000000e+00
1.4000000000000000e+01  0.0000000000000000e+00  0.0000000000000000e+00
1.5000000000000000e+01  0.0000000000000000e+00  0.0000000000000000e+00
1.6000000000000000e+01  0.0000000000000000e+00  0.0000000000000000e+00
1.7000000000000000e+01  0.0000000000000000e+00  0.0000000000000000e+00
1.8000000000000000e+01  0.0000000000000000e+00  0.0000000000000000e+00
1.9000000000000000e+01  0.0000000000000000e+00  0.0000000000000000e+00
2.0000000000000000e+01  0.0000000000000000e+00  0.0000000000000000e+00
2.1000000000000000e+01  0.0000000000000000e+00  0.0000000000000000e+00
2.2000000000000000e+01  0.0000000000000000e+00  0.0000000000000000e+00
2.3000000000000000e+01  0.0000000000000000e+00  0.0000000000000000e+00
2.4000000000000000e+01  0.0000000000000000e+00  0.0000000000000000e+00
2.5000000000000000e+01  0.0000000000000000e+00  0.0000000000000000e+00
2.6000000000000000e+01  0.0000000000000000e+00  0.0000000000000000e+00
2.7000000000000000e+01  0.0000000000000000e+00  0.0000000000000000e+00
2.8000000000000000e+01  0.0000000000000000e+00  0.0000000000000000e+00
2.9000000000000000e+01  0.0000000000000000e+00  0.0000000000000000e+00
3.0000000000000000e+01  0.0000000000000000e+00  0.0000000000000000e+00
3.1000000000000000e+01  0.0000000000000000e+00  0.0000000000000000e+00
3.2000000000000000e+01  0.0000000000000000e+00  0.0000000000000000e+00
3.3000000000000000e+01  0.0000000000000000e+00  0.0000000000000000e+00
3.4000000000000000e+01  0.0000000000000000e+00  0.0000000000000000e+00
3.5000000000000000e+01  0.0000000000000000e+00  0.0000000000000000e+00
3.6000000000000000e+01  0.0000000000000000e+00  0.0000000000000000e+00
3.7000000000000000e+01  0.0000000000000000e+00  0.0000000000000000e+00
3.8000000000000000e+01  0.0000000000000000e+00  0.0000000000000000e+00
3.9000000000000000e+01  0.0000000000000000e+00  0.0000000000000000e+00
4.0000000000000000e+01  0.0000000000000000e+00  0.0000000000000000e+00
4.1000000000000000e+01  0.0000000000000000e+00  0.0000000000000000e+00
4.2000000000000000e+01  0.0000000000000000e+00  0.0000000000000000e+00
4.3000000000000000e+01  0.0000000000000000e+00  0.0000000000000000e+00
4.4000000000000000e+01  0.0000000000000000e+00  0.0000000000000000e+00
4.5000000000000000e+01  0.0000000000000000e+00  0.0000000000000000e+00
4.6000000000000000e+01  0.0000000000000000e+00  0.0000000000000000e+00
4.7000000000000000e+01  0.0000000000000000e+00  0.0000000000000000e+00
4.8000000000000000e+01  0.0000000000000000e+00  0.0000000000000000e+00
4.9000000000000000e+01  0.0000000000000000e+00  0.0000000000000000e+00
5.0000000000000000e+01  0.0000000000000000e+00  0.0000000000000000e+00
5.1000000000000000e+01  0.0000000000000000e+00  0.0000000000000000e+00
5.2000000000000000e+01  0.0000000000000000e+00  0.0000000000000000e+00
5.3000000000000000e+01  0.0000000000000000e+00  0.0000000000000000e+00
5.4000000000000000e+01  0.0000000000000000e+00  0.0000000000000000e+00
5.5000000000000000e+01  0.0000000000000000e+00  0.0000000000000000e+00
5.6000000000000000e+01  0.0000000000000000e+00  0.0000000000000000e+00
5.7000000000000000e+01  0.0000000000000000e+00  0.0000000000000000e+00
5.8000000000000000e+01  0.0000000000000000e+00  0.0000000000000000e+00
5.9000000000000000e+01  0.0000000000000000e+00  0.0000000000000000e+00
6.0000000000000000e+01  0.0000000000000000e+00  0.0000000000000000e+00
6.1000000000000000e+01  0.0000000000000000e+00  0.0000000000000000e+00
6.2000000000000000e+01  0.0000000000000000e+00  0.0000000000000000e+00
6.3000000000000000e+01  0.0000000000000000e+00  0.0000000000000000e+00
6.4000000000000000e+01  0.0000000000000000e+00  0.0000000000000000e+00
6.5000000000000000e+01  0.0000000000000000e+00  0.0000000000000000e+00
6.6000000000000000e+01  0.0000000000000000e+00  0.0000000000000000e+00
6.7000000000000000e+01  0.0000000000000000e+00  0.0000000000000000e+00
6.8000000000000000e+01  0.0000000000000000e+00  0.0000000000000000e+00
6.9000000000000000e+01  0.0000000000000000e+00  0.0000000000000000e+00
7.0000000000000000e+01  0.0000000000000000e+00  0.0000000000000000e+00
7.1000000000000000e+01  0.0000000000000000e+00  0.0000000000000000e+00
7.2000000000000000e+01  0.0000000000000000e+00  0.0000000000000000e+00
7.3000000000000000e+01  0.0000000000000000e+00  0.0000000000000000e+00
7.4000000000000000e+01  0.0000000000000000e+00  0.0000000000000000e+00
7.5000000000000000e+01  0.0000000000000000e+00  0.0000000000000000e+00
7.6000000000000000e+01  0.0000000000000000e+00  0.0000000000000000e+00
7.7000000000000000e+01  0.0000000000000000e+00  0.0000000000000000e+00
7.8000000000000000e+01  0.0000000000000000e+00  0.0000000000000000e+00
7.9000000000000000e+01  0.0000000000000000e+00  0.0000000000000000e+00
8.0000000000000000e+01  0.0000000000000000e+00  0.0000000000000000e+00
8.1000000000000000e+01  0.0000000000000000e+00  0.0000000000000000e+00
8.2000000000000000e+01  0.0000000000000000e+00  0.0000000000000000e+00
8.3000000000000000e+01  0.0000000000000000e+00  0.0000000000000000e+00
8.4000000000000000e+01  0.0000000000000000e+00  0.0000000000000000e+00
8.5000000000000000e+01  0.0000000000000000e+00  0.0000000000000000e+00
8.6000000000000000e+01  0.0000000000000000e+00  0.0000000000000000e+00
8.7000000000000000e+01  0.0000000000000000e+00  0.0000000000000000e+00
8.8000000000000000e+01  0.0000000000000000e+00  0.0000000000000000e+00
8.9000000000000000e+01  0.0000000000000000e+00  0.0000000000000000e+00
9.0000000000000000e+01  0.0000000000000000e+00  0.0000000000000000e+00
9.1000000000000000e+01  0.0000000000000000e+00  0.0000000000000000e+00
9.2000000000000000e+01  0.0000000000000000e+00  0.0000000000000000e+00
9.3000000000000000e+01  0.0000000000000000e+00  0.0000000000000000e+00
9.4000000000000000e+01  0.0000000000000000e+00  0.0000000000000000e+00
9.5000000000000000e+01  0.0000000000000000e+00  0.0000000000000000e+00
9.6000000000000000e+01  0.0000000000000000e+00  0.0000000000000000e+00
9.7000000000000000e+01  0.0000000000000000e+00  0.0000000000000000e+00
9.8000000000000000e+01  0.0000000000000000e+00  0.0000000000000000e+00
9.9000000000000000e+01  0.0000000000000000e+00  0.0000000000000000e+00

POINT_DATA 100

VECTORS velocity float
1.0003511175705589e-02  0.0000000000000000e+00  0.0000000000000000e+00
1.0003510964846614e-02  0.0000000000000000e+00  0.0000000000000000e+00
1.0003510694658931e-02  0.0000000000000000e+00  0.0000000000000000e+00
1.0003510372559929e-02  0.0000000000000000e+00  0.0000000000000000e+00
1.0003510022173354e-02  0.0000000000000000e+00  0.0000000000000000e+00
1.0003509658878548e-02  0.0000000000000000e+00  0.0000000000000000e+00
1.0003509290206167e-02  0.0000000000000000e+00  0.0000000000000000e+00
1.0003508919340650e-02  0.0000000000000000e+00  0.0000000000000000e+00
1.0003508547488800e-02  0.0000000000000000e+00  0.0000000000000000e+00
1.0003508175057798e-02  0.0000000000000000e+00  0.0000000000000000e+00
1.0003507802159960e-02  0.0000000000000000e+00  0.0000000000000000e+00
1.0003507428808017e-02  0.0000000000000000e+00  0.0000000000000000e+00
1.0003507054984399e-02  0.0000000000000000e+00  0.0000000000000000e+00
1.0003506680663622e-02  0.0000000000000000e+00  0.0000000000000000e+00
1.0003506305818725e-02  0.0000000000000000e+00  0.0000000000000000e+00
1.0003505930422775e-02  0.0000000000000000e+00  0.0000000000000000e+00
1.0003505554449016e-02  0.0000000000000000e+00  0.0000000000000000e+00
1.0003505177870775e-02  0.0000000000000000e+00  0.0000000000000000e+00
1.0003504800661358e-02  0.0000000000000000e+00  0.0000000000000000e+00
1.0003504422794005e-02  0.0000000000000000e+00  0.0000000000000000e+00
1.0003504044241836e-02  0.0000000000000000e+00  0.0000000000000000e+00
1.0003503664977844e-02  0.0000000000000000e+00  0.0000000000000000e+00
1.0003503284974881e-02  0.0000000000000000e+00  0.0000000000000000e+00
1.0003502904205657e-02  0.0000000000000000e+00  0.0000000000000000e+00
1.0003502522642727e-02  0.0000000000000000e+00  0.0000000000000000e+00
1.0003502140258500e-02  0.0000000000000000e+00  0.0000000000000000e+00
1.0003501757025218e-02  0.0000000000000000e+00  0.0000000000000000e+00
1.0003501372914966e-02  0.0000000000000000e+00  0.0000000000000000e+00
1.0003500987899675e-02  0.0000000000000000e+00  0.0000000000000000e+00
1.0003500601951106e-02  0.0000000000000000e+00  0.0000000000000000e+00
1.0003500215040846e-02  0.0000000000000000e+00  0.0000000000000000e+00
1.0003499827140317e-02  0.0000000000000000e+00  0.0000000000000000e+00
1.0003499438220771e-02  0.0000000000000000e+00  0.0000000000000000e+00
1.0003499048253293e-02  0.0000000000000000e+00  0.0000000000000000e+00
1.0003498657208803e-02  0.0000000000000000e+00  0.0000000000000000e+00
1.0003498265058034e-02  0.0000000000000000e+00  0.0000000000000000e+00
1.0003497871771558e-02  0.0000000000000000e+00  0.0000000000000000e+00
1.0003497477319769e-02  0.0000000000000000e+00  0.0000000000000000e+00
1.0003497081672887e-02  0.0000000000000000e+00  0.0000000000000000e+00
1.0003496684800968e-02  0.0000000000000000e+00  0.0000000000000000e+00
1.0003496286673888e-02  0.0000000000000000e+00  0.0000000000000000e+00
1.0003495887261354e-02  0.0000000000000000e+00  0.0000000000000000e+00
1.0003495486532909e-02  0.0000000000000000e+00  0.0000000000000000e+00
1.0003495084457928e-02  0.0000000000000000e+00  0.0000000000000000e+00
1.0003494681005627e-02  0.0000000000000000e+00  0.0000000000000000e+00
1.0003494276145036e-02  0.0000000000000000e+00  0.0000000000000000e+00
1.0003493869845028e-02  0.0000000000000000e+00  0.0000000000000000e+00
1.0003493462074315e-02  0.0000000000000000e+00  0.0000000000000000e+00
1.0003493052801458e-02  0.0000000000000000e+00  0.0000000000000000e+00
1.0003492641994851e-02  0.0000000000000000e+00  0.0000000000000000e+00
1.0003492229622737e-02  0.0000000000000000e+00  0.0000000000000000e+00
1.0003491815653198e-02  0.0000000000000000e+00  0.0000000000000000e+00
1.0003491400054174e-02  0.0000000000000000e+00  0.0000000000000000e+00
1.0003490982793455e-02  0.0000000000000000e+00  0.0000000000000000e+00
1.0003490563838690e-02  0.0000000000000000e+00  0.0000000000000000e+00
1.0003490143157382e-02  0.0000000000000000e+00  0.0000000000000000e+00
1.0003489720716893e-02  0.0000000000000000e+00  0.0000000000000000e+00
1.0003489296484452e-02  0.0000000000000000e+00  0.0000000000000000e+00
1.0003488870427155e-02  0.0000000000000000e+00  0.0000000000000000e+00
1.0003488442511975e-02  0.0000000000000000e+00  0.0000000000000000e+00
1.0003488012705749e-02  0.0000000000000000e+00  0.0000000000000000e+00
1.0003487580975206e-02  0.0000000000000000e+00  0.0000000000000000e+00
1.0003487147286952e-02  0.0000000000000000e+00  0.0000000000000000e+00
1.0003486711607477e-02  0.0000000000000000e+00  0.0000000000000000e+00
1.0003486273903149e-02  0.0000000000000000e+00  0.0000000000000000e+00
1.0003485834140249e-02  0.0000000000000000e+00  0.0000000000000000e+00
1.0003485392284940e-02  0.0000000000000000e+00  0.0000000000000000e+00
1.0003484948303297e-02  0.0000000000000000e+00  0.0000000000000000e+00
1.0003484502161302e-02  0.0000000000000000e+00  0.0000000000000000e+00
1.0003484053824833e-02  0.0000000000000000e+00  0.0000000000000000e+00
1.0003483603259696e-02  0.0000000000000000e+00  0.0000000000000000e+00
1.0003483150431597e-02  0.0000000000000000e+00  0.0000000000000000e+00
1.0003482695306175e-02  0.0000000000000000e+00  0.0000000000000000e+00
1.0003482237849000e-02  0.0000000000000000e+00  0.0000000000000000e+00
1.0003481778025567e-02  0.0000000000000000e+00  0.0000000000000000e+00
1.0003481315801305e-02  0.0000000000000000e+00  0.0000000000000000e+00
1.0003480851141578e-02  0.0000000000000000e+00  0.0000000000000000e+00
1.0003480384011682e-02  0.0000000000000000e+00  0.0000000000000000e+00
1.0003479914376886e-02  0.0000000000000000e+00  0.0000000000000000e+00
1.0003479442202395e-02  0.0000000000000000e+00  0.0000000000000000e+00
1.0003478967453378e-02  0.0000000000000000e+00  0.0000000000000000e+00
1.0003478490094949e-02  0.0000000000000000e+00  0.0000000000000000e+00
1.0003478010092203e-02  0.0000000000000000e+00  0.0000000000000000e+00
1.0003477527410201e-02  0.0000000000000000e+00  0.0000000000000000e+00
1.0003477042013962e-02  0.0000000000000000e+00  0.0000000000000000e+00
1.0003476553868493e-02  0.0000000000000000e+00  0.0000000000000000e+00
1.0003476062938770e-02  0.0000000000000000e+00  0.0000000000000000e+00
1.0003475569189794e-02  0.0000000000000000e+00  0.0000000000000000e+00
1.0003475072586424e-02  0.0000000000000000e+00  0.0000000000000000e+00
1.0003474573093819e-02  0.0000000000000000e+00  0.0000000000000000e+00
1.0003474070676470e-02  0.0000000000000000e+00  0.0000000000000000e+00
1.0003473565300292e-02  0.0000000000000000e+00  0.0000000000000000e+00
1.0003473056928376e-02  0.0000000000000000e+00  0.0000000000000000e+00
1.0003472545528606e-02  0.0000000000000000e+00  0.0000000000000000e+00
1.0003472031063517e-02  0.0000000000000000e+00  0.0000000000000000e+00
1.0003471513491045e-02  0.0000000000000000e+00  0.0000000000000000e+00
1.0003470992826896e-02  0.0000000000000000e+00  0.0000000000000000e+00
1.0003470468832968e-02  0.0000000000000000e+00  0.0000000000000000e+00
1.0003469942134663e-02  0.0000000000000000e+00  0.0000000000000000e+00
1.0003469410826499e-02  0.0000000000000000e+00  0.0000000000000000e+00

SCALARS pressure float
LOOKUP_TABLE default
4.5452987777122916e-06
4.5346651880381287e-06
4.5240315983639657e-06
4.5133969025527176e-06
4.5027603048090396e-06
4.4921213994681576e-06
4.4814800101799406e-06
4.4708360680129050e-06
4.4601895482367617e-06
4.4495404425555438e-06
4.4388887481625069e-06
4.4282344637927368e-06
4.4175775884232821e-06
4.4069181208879842e-06
4.3962560597828004e-06
4.3855914034498162e-06
4.3749241499777992e-06
4.3642542972053153e-06
4.3535818427211284e-06
4.3429067838639534e-06
4.3322291177205822e-06
4.3215488411254461e-06
4.3108659506592195e-06
4.3001804426474575e-06
4.2894923131602067e-06
4.2788015580107636e-06
4.2681081727560492e-06
4.2574121526956861e-06
4.2467134928726343e-06
4.2360121880727562e-06
4.2253082328256414e-06
4.2146016214054477e-06
4.2038923478318651e-06
4.1931804058705151e-06
4.1824657890344917e-06
4.1717484905851487e-06
4.1610285035351074e-06
4.1503058206484302e-06
4.1395804344437674e-06
4.1288523371950731e-06
4.1181215209349903e-06
4.1073879774567030e-06
4.0966516983164930e-06
4.0859126748362970e-06
4.0751708981059863e-06
4.0644263589872174e-06
4.0536790481162841e-06
4.0429289559067022e-06
4.0321760725533519e-06
4.0214203880345657e-06
4.0106618921169437e-06
3.9999005743582553e-06
3.9891364241116928e-06
3.9783694305292687e-06
3.9675995825659310e-06
3.9568268689830626e-06
3.9460512783536548e-06
3.9352727990659749e-06
3.9244914193277659e-06
3.9137071271707496e-06
3.9029199104551150e-06
3.8921297568743111e-06
3.8813366539591973e-06
3.8705405890827790e-06
3.8597415494658905e-06
3.8489395221811394e-06
3.8381344941585406e-06
3.8273264521892784e-06
3.8165153829324697e-06
3.8057012729186845e-06
3.7948841085563637e-06
3.7840638761367180e-06
3.7732405618387822e-06
3.7624141517351182e-06
3.7515846317964944e-06
3.7407519878983071e-06
3.7299162058257681e-06
3.7190772712795373e-06
3.7082351698816380e-06
3.6973898871803509e-06
3.6865414086558090e-06
3.6756897197276321e-06
3.6648348057584663e-06
3.6539766520615743e-06
3.6431152439050749e-06
3.6322505665197512e-06
3.6213826051041208e-06
3.6105113448301444e-06
3.5996367708497218e-06
3.5887588683020733e-06
3.5778776223158535e-06
3.5669930180231217e-06
3.5561050405520378e-06
3.5452136750525623e-06
3.5343189066964952e-06
3.5234207205850603e-06
3.5125191022860061e-06
3.5016140358797473e-06
3.4907055100622969e-06
3.4797935014760954e-06

SCALARS diameter float
LOOKUP_TABLE default
1.0000058665110747e+00
1.0000058540350110e+00
1.0000058415589472e+00
1.0000058290864016e+00
1.0000058166180990e+00
1.0000058041540769e+00
1.0000057916942673e+00
1.0000057792386210e+00
1.0000057667871163e+00
1.0000057543397465e+00
1.0000057418965116e+00
1.0000057294574183e+00
1.0000057170224688e+00
1.0000057045916702e+00
1.0000056921650269e+00
1.0000056797425430e+00
1.0000056673242237e+00
1.0000056549100726e+00
1.0000056425000934e+00
1.0000056300942877e+00
1.0000056176926591e+00
1.0000056052952089e+00
1.0000055929019380e+00
1.0000055805128467e+00
1.0000055681279347e+00
1.0000055557472016e+00
1.0000055433706438e+00
1.0000055309982598e+00
1.0000055186300458e+00
1.0000055062659965e+00
1.0000054939061074e+00
1.0000054815503718e+00
1.0000054691987823e+00
1.0000054568513315e+00
1.0000054445080089e+00
1.0000054321688054e+00
1.0000054198337085e+00
1.0000054075027065e+00
1.0000053951757857e+00
1.0000053828529305e+00
1.0000053705341272e+00
1.0000053582193584e+00
1.0000053459086056e+00
1.0000053336018488e+00
1.0000053212990683e+00
1.0000053090002434e+00
1.0000052967053512e+00
1.0000052844143665e+00
1.0000052721272652e+00
1.0000052598440208e+00
1.0000052475646064e+00
1.0000052352889921e+00
1.0000052230171486e+00
1.0000052107490447e+00
1.0000051984846474e+00
1.0000051862239223e+00
1.0000051739668363e+00
1.0000051617133519e+00
1.0000051494634319e+00
1.0000051372170378e+00
1.0000051249741295e+00
1.0000051127346665e+00
1.0000051004986039e+00
1.0000050882659020e+00
1.0000050760365131e+00
1.0000050638103919e+00
1.0000050515874914e+00
1.0000050393677631e+00
1.0000050271511567e+00
1.0000050149376225e+00
1.0000050027271079e+00
1.0000049905195596e+00
1.0000049783149230e+00
1.0000049661131436e+00
1.0000049539141642e+00
1.0000049417179271e+00
1.0000049295243734e+00
1.0000049173334440e+00
1.0000049051450777e+00
1.0000048929592109e+00
1.0000048807757835e+00
1.0000048685947287e+00
1.0000048564159836e+00
1.0000048442394807e+00
1.0000048320651520e+00
1.0000048198929321e+00
1.0000048077227510e+00
1.0000047955545379e+00
1.0000047833882237e+00
1.0000047712237365e+00
1.0000047590610035e+00
1.0000047468999509e+00
1.0000047347405054e+00
1.0000047225825923e+00
1.0000047104261354e+00
1.0000046982710591e+00
1.0000046861172867e+00
1.0000046739647379e+00
1.0000046618133398e+00
1.0000046496630093e+00

