# vtk DataFile Version 2.0

ASCII

DATASET UNSTRUCTURED_GRID

POINTS 100 float 

0.0000000000000000e+00  0.0000000000000000e+00  0.0000000000000000e+00
1.0000000000000000e+00  0.0000000000000000e+00  0.0000000000000000e+00
2.0000000000000000e+00  0.0000000000000000e+00  0.0000000000000000e+00
3.0000000000000000e+00  0.0000000000000000e+00  0.0000000000000000e+00
4.0000000000000000e+00  0.0000000000000000e+00  0.0000000000000000e+00
5.0000000000000000e+00  0.0000000000000000e+00  0.0000000000000000e+00
6.0000000000000000e+00  0.0000000000000000e+00  0.0000000000000000e+00
7.0000000000000000e+00  0.0000000000000000e+00  0.0000000000000000e+00
8.0000000000000000e+00  0.0000000000000000e+00  0.0000000000000000e+00
9.0000000000000000e+00  0.0000000000000000e+00  0.0000000000000000e+00
1.0000000000000000e+01  0.0000000000000000e+00  0.0000000000000000e+00
1.1000000000000000e+01  0.0000000000000000e+00  0.0000000000000000e+00
1.2000000000000000e+01  0.0000000000000000e+00  0.0000000000000000e+00
1.3000000000000000e+01  0.0000000000000000e+00  0.0000000000000000e+00
1.4000000000000000e+01  0.0000000000000000e+00  0.0000000000000000e+00
1.5000000000000000e+01  0.0000000000000000e+00  0.0000000000000000e+00
1.6000000000000000e+01  0.0000000000000000e+00  0.0000000000000000e+00
1.7000000000000000e+01  0.0000000000000000e+00  0.0000000000000000e+00
1.8000000000000000e+01  0.0000000000000000e+00  0.0000000000000000e+00
1.9000000000000000e+01  0.0000000000000000e+00  0.0000000000000000e+00
2.0000000000000000e+01  0.0000000000000000e+00  0.0000000000000000e+00
2.1000000000000000e+01  0.0000000000000000e+00  0.0000000000000000e+00
2.2000000000000000e+01  0.0000000000000000e+00  0.0000000000000000e+00
2.3000000000000000e+01  0.0000000000000000e+00  0.0000000000000000e+00
2.4000000000000000e+01  0.0000000000000000e+00  0.0000000000000000e+00
2.5000000000000000e+01  0.0000000000000000e+00  0.0000000000000000e+00
2.6000000000000000e+01  0.0000000000000000e+00  0.0000000000000000e+00
2.7000000000000000e+01  0.0000000000000000e+00  0.0000000000000000e+00
2.8000000000000000e+01  0.0000000000000000e+00  0.0000000000000000e+00
2.9000000000000000e+01  0.0000000000000000e+00  0.0000000000000000e+00
3.0000000000000000e+01  0.0000000000000000e+00  0.0000000000000000e+00
3.1000000000000000e+01  0.0000000000000000e+00  0.0000000000000000e+00
3.2000000000000000e+01  0.0000000000000000e+00  0.0000000000000000e+00
3.3000000000000000e+01  0.0000000000000000e+00  0.0000000000000000e+00
3.4000000000000000e+01  0.0000000000000000e+00  0.0000000000000000e+00
3.5000000000000000e+01  0.0000000000000000e+00  0.0000000000000000e+00
3.6000000000000000e+01  0.0000000000000000e+00  0.0000000000000000e+00
3.7000000000000000e+01  0.0000000000000000e+00  0.0000000000000000e+00
3.8000000000000000e+01  0.0000000000000000e+00  0.0000000000000000e+00
3.9000000000000000e+01  0.0000000000000000e+00  0.0000000000000000e+00
4.0000000000000000e+01  0.0000000000000000e+00  0.0000000000000000e+00
4.1000000000000000e+01  0.0000000000000000e+00  0.0000000000000000e+00
4.2000000000000000e+01  0.0000000000000000e+00  0.0000000000000000e+00
4.3000000000000000e+01  0.0000000000000000e+00  0.0000000000000000e+00
4.4000000000000000e+01  0.0000000000000000e+00  0.0000000000000000e+00
4.5000000000000000e+01  0.0000000000000000e+00  0.0000000000000000e+00
4.6000000000000000e+01  0.0000000000000000e+00  0.0000000000000000e+00
4.7000000000000000e+01  0.0000000000000000e+00  0.0000000000000000e+00
4.8000000000000000e+01  0.0000000000000000e+00  0.0000000000000000e+00
4.9000000000000000e+01  0.0000000000000000e+00  0.0000000000000000e+00
5.0000000000000000e+01  0.0000000000000000e+00  0.0000000000000000e+00
5.1000000000000000e+01  0.0000000000000000e+00  0.0000000000000000e+00
5.2000000000000000e+01  0.0000000000000000e+00  0.0000000000000000e+00
5.3000000000000000e+01  0.0000000000000000e+00  0.0000000000000000e+00
5.4000000000000000e+01  0.0000000000000000e+00  0.0000000000000000e+00
5.5000000000000000e+01  0.0000000000000000e+00  0.0000000000000000e+00
5.6000000000000000e+01  0.0000000000000000e+00  0.0000000000000000e+00
5.7000000000000000e+01  0.0000000000000000e+00  0.0000000000000000e+00
5.8000000000000000e+01  0.0000000000000000e+00  0.0000000000000000e+00
5.9000000000000000e+01  0.0000000000000000e+00  0.0000000000000000e+00
6.0000000000000000e+01  0.0000000000000000e+00  0.0000000000000000e+00
6.1000000000000000e+01  0.0000000000000000e+00  0.0000000000000000e+00
6.2000000000000000e+01  0.0000000000000000e+00  0.0000000000000000e+00
6.3000000000000000e+01  0.0000000000000000e+00  0.0000000000000000e+00
6.4000000000000000e+01  0.0000000000000000e+00  0.0000000000000000e+00
6.5000000000000000e+01  0.0000000000000000e+00  0.0000000000000000e+00
6.6000000000000000e+01  0.0000000000000000e+00  0.0000000000000000e+00
6.7000000000000000e+01  0.0000000000000000e+00  0.0000000000000000e+00
6.8000000000000000e+01  0.0000000000000000e+00  0.0000000000000000e+00
6.9000000000000000e+01  0.0000000000000000e+00  0.0000000000000000e+00
7.0000000000000000e+01  0.0000000000000000e+00  0.0000000000000000e+00
7.1000000000000000e+01  0.0000000000000000e+00  0.0000000000000000e+00
7.2000000000000000e+01  0.0000000000000000e+00  0.0000000000000000e+00
7.3000000000000000e+01  0.0000000000000000e+00  0.0000000000000000e+00
7.4000000000000000e+01  0.0000000000000000e+00  0.0000000000000000e+00
7.5000000000000000e+01  0.0000000000000000e+00  0.0000000000000000e+00
7.6000000000000000e+01  0.0000000000000000e+00  0.0000000000000000e+00
7.7000000000000000e+01  0.0000000000000000e+00  0.0000000000000000e+00
7.8000000000000000e+01  0.0000000000000000e+00  0.0000000000000000e+00
7.9000000000000000e+01  0.0000000000000000e+00  0.0000000000000000e+00
8.0000000000000000e+01  0.0000000000000000e+00  0.0000000000000000e+00
8.1000000000000000e+01  0.0000000000000000e+00  0.0000000000000000e+00
8.2000000000000000e+01  0.0000000000000000e+00  0.0000000000000000e+00
8.3000000000000000e+01  0.0000000000000000e+00  0.0000000000000000e+00
8.4000000000000000e+01  0.0000000000000000e+00  0.0000000000000000e+00
8.5000000000000000e+01  0.0000000000000000e+00  0.0000000000000000e+00
8.6000000000000000e+01  0.0000000000000000e+00  0.0000000000000000e+00
8.7000000000000000e+01  0.0000000000000000e+00  0.0000000000000000e+00
8.8000000000000000e+01  0.0000000000000000e+00  0.0000000000000000e+00
8.9000000000000000e+01  0.0000000000000000e+00  0.0000000000000000e+00
9.0000000000000000e+01  0.0000000000000000e+00  0.0000000000000000e+00
9.1000000000000000e+01  0.0000000000000000e+00  0.0000000000000000e+00
9.2000000000000000e+01  0.0000000000000000e+00  0.0000000000000000e+00
9.3000000000000000e+01  0.0000000000000000e+00  0.0000000000000000e+00
9.4000000000000000e+01  0.0000000000000000e+00  0.0000000000000000e+00
9.5000000000000000e+01  0.0000000000000000e+00  0.0000000000000000e+00
9.6000000000000000e+01  0.0000000000000000e+00  0.0000000000000000e+00
9.7000000000000000e+01  0.0000000000000000e+00  0.0000000000000000e+00
9.8000000000000000e+01  0.0000000000000000e+00  0.0000000000000000e+00
9.9000000000000000e+01  0.0000000000000000e+00  0.0000000000000000e+00

POINT_DATA 100

VECTORS velocity float
1.0086448431371076e-02  0.0000000000000000e+00  0.0000000000000000e+00
1.0086449428862989e-02  0.0000000000000000e+00  0.0000000000000000e+00
1.0086450414681210e-02  0.0000000000000000e+00  0.0000000000000000e+00
1.0086451395124870e-02  0.0000000000000000e+00  0.0000000000000000e+00
1.0086452372964924e-02  0.0000000000000000e+00  0.0000000000000000e+00
1.0086453349416193e-02  0.0000000000000000e+00  0.0000000000000000e+00
1.0086454325009445e-02  0.0000000000000000e+00  0.0000000000000000e+00
1.0086455299975806e-02  0.0000000000000000e+00  0.0000000000000000e+00
1.0086456274415609e-02  0.0000000000000000e+00  0.0000000000000000e+00
1.0086457248372283e-02  0.0000000000000000e+00  0.0000000000000000e+00
1.0086458221864592e-02  0.0000000000000000e+00  0.0000000000000000e+00
1.0086459194900617e-02  0.0000000000000000e+00  0.0000000000000000e+00
1.0086460167483840e-02  0.0000000000000000e+00  0.0000000000000000e+00
1.0086461139615751e-02  0.0000000000000000e+00  0.0000000000000000e+00
1.0086462111296993e-02  0.0000000000000000e+00  0.0000000000000000e+00
1.0086463082527844e-02  0.0000000000000000e+00  0.0000000000000000e+00
1.0086464053308425e-02  0.0000000000000000e+00  0.0000000000000000e+00
1.0086465023638788e-02  0.0000000000000000e+00  0.0000000000000000e+00
1.0086465993518963e-02  0.0000000000000000e+00  0.0000000000000000e+00
1.0086466962948955e-02  0.0000000000000000e+00  0.0000000000000000e+00
1.0086467931928775e-02  0.0000000000000000e+00  0.0000000000000000e+00
1.0086468900458430e-02  0.0000000000000000e+00  0.0000000000000000e+00
1.0086469868537919e-02  0.0000000000000000e+00  0.0000000000000000e+00
1.0086470836167250e-02  0.0000000000000000e+00  0.0000000000000000e+00
1.0086471803346422e-02  0.0000000000000000e+00  0.0000000000000000e+00
1.0086472770075440e-02  0.0000000000000000e+00  0.0000000000000000e+00
1.0086473736354306e-02  0.0000000000000000e+00  0.0000000000000000e+00
1.0086474702183022e-02  0.0000000000000000e+00  0.0000000000000000e+00
1.0086475667561594e-02  0.0000000000000000e+00  0.0000000000000000e+00
1.0086476632490019e-02  0.0000000000000000e+00  0.0000000000000000e+00
1.0086477596968306e-02  0.0000000000000000e+00  0.0000000000000000e+00
1.0086478560996455e-02  0.0000000000000000e+00  0.0000000000000000e+00
1.0086479524574471e-02  0.0000000000000000e+00  0.0000000000000000e+00
1.0086480487702347e-02  0.0000000000000000e+00  0.0000000000000000e+00
1.0086481450380092e-02  0.0000000000000000e+00  0.0000000000000000e+00
1.0086482412607713e-02  0.0000000000000000e+00  0.0000000000000000e+00
1.0086483374385204e-02  0.0000000000000000e+00  0.0000000000000000e+00
1.0086484335712572e-02  0.0000000000000000e+00  0.0000000000000000e+00
1.0086485296589816e-02  0.0000000000000000e+00  0.0000000000000000e+00
1.0086486257016939e-02  0.0000000000000000e+00  0.0000000000000000e+00
1.0086487216993944e-02  0.0000000000000000e+00  0.0000000000000000e+00
1.0086488176520830e-02  0.0000000000000000e+00  0.0000000000000000e+00
1.0086489135597601e-02  0.0000000000000000e+00  0.0000000000000000e+00
1.0086490094224264e-02  0.0000000000000000e+00  0.0000000000000000e+00
1.0086491052400812e-02  0.0000000000000000e+00  0.0000000000000000e+00
1.0086492010127250e-02  0.0000000000000000e+00  0.0000000000000000e+00
1.0086492967403583e-02  0.0000000000000000e+00  0.0000000000000000e+00
1.0086493924229814e-02  0.0000000000000000e+00  0.0000000000000000e+00
1.0086494880605937e-02  0.0000000000000000e+00  0.0000000000000000e+00
1.0086495836531956e-02  0.0000000000000000e+00  0.0000000000000000e+00
1.0086496792007869e-02  0.0000000000000000e+00  0.0000000000000000e+00
1.0086497747033681e-02  0.0000000000000000e+00  0.0000000000000000e+00
1.0086498701609393e-02  0.0000000000000000e+00  0.0000000000000000e+00
1.0086499655735003e-02  0.0000000000000000e+00  0.0000000000000000e+00
1.0086500609410512e-02  0.0000000000000000e+00  0.0000000000000000e+00
1.0086501562635923e-02  0.0000000000000000e+00  0.0000000000000000e+00
1.0086502515411239e-02  0.0000000000000000e+00  0.0000000000000000e+00
1.0086503467736456e-02  0.0000000000000000e+00  0.0000000000000000e+00
1.0086504419611576e-02  0.0000000000000000e+00  0.0000000000000000e+00
1.0086505371036598e-02  0.0000000000000000e+00  0.0000000000000000e+00
1.0086506322011524e-02  0.0000000000000000e+00  0.0000000000000000e+00
1.0086507272536351e-02  0.0000000000000000e+00  0.0000000000000000e+00
1.0086508222611083e-02  0.0000000000000000e+00  0.0000000000000000e+00
1.0086509172235714e-02  0.0000000000000000e+00  0.0000000000000000e+00
1.0086510121410250e-02  0.0000000000000000e+00  0.0000000000000000e+00
1.0086511070134686e-02  0.0000000000000000e+00  0.0000000000000000e+00
1.0086512018409023e-02  0.0000000000000000e+00  0.0000000000000000e+00
1.0086512966233259e-02  0.0000000000000000e+00  0.0000000000000000e+00
1.0086513913607395e-02  0.0000000000000000e+00  0.0000000000000000e+00
1.0086514860531427e-02  0.0000000000000000e+00  0.0000000000000000e+00
1.0086515807005361e-02  0.0000000000000000e+00  0.0000000000000000e+00
1.0086516753029188e-02  0.0000000000000000e+00  0.0000000000000000e+00
1.0086517698602910e-02  0.0000000000000000e+00  0.0000000000000000e+00
1.0086518643726528e-02  0.0000000000000000e+00  0.0000000000000000e+00
1.0086519588400037e-02  0.0000000000000000e+00  0.0000000000000000e+00
1.0086520532623435e-02  0.0000000000000000e+00  0.0000000000000000e+00
1.0086521476396718e-02  0.0000000000000000e+00  0.0000000000000000e+00
1.0086522419719888e-02  0.0000000000000000e+00  0.0000000000000000e+00
1.0086523362592940e-02  0.0000000000000000e+00  0.0000000000000000e+00
1.0086524305015873e-02  0.0000000000000000e+00  0.0000000000000000e+00
1.0086525246988689e-02  0.0000000000000000e+00  0.0000000000000000e+00
1.0086526188511380e-02  0.0000000000000000e+00  0.0000000000000000e+00
1.0086527129583946e-02  0.0000000000000000e+00  0.0000000000000000e+00
1.0086528070206383e-02  0.0000000000000000e+00  0.0000000000000000e+00
1.0086529010378690e-02  0.0000000000000000e+00  0.0000000000000000e+00
1.0086529950100854e-02  0.0000000000000000e+00  0.0000000000000000e+00
1.0086530889372888e-02  0.0000000000000000e+00  0.0000000000000000e+00
1.0086531828194771e-02  0.0000000000000000e+00  0.0000000000000000e+00
1.0086532766566521e-02  0.0000000000000000e+00  0.0000000000000000e+00
1.0086533704488091e-02  0.0000000000000000e+00  0.0000000000000000e+00
1.0086534641959584e-02  0.0000000000000000e+00  0.0000000000000000e+00
1.0086535578980734e-02  0.0000000000000000e+00  0.0000000000000000e+00
1.0086536515552165e-02  0.0000000000000000e+00  0.0000000000000000e+00
1.0086537451672378e-02  0.0000000000000000e+00  0.0000000000000000e+00
1.0086538387344928e-02  0.0000000000000000e+00  0.0000000000000000e+00
1.0086539322561330e-02  0.0000000000000000e+00  0.0000000000000000e+00
1.0086540257341760e-02  0.0000000000000000e+00  0.0000000000000000e+00
1.0086541191638225e-02  0.0000000000000000e+00  0.0000000000000000e+00
1.0086542125564693e-02  0.0000000000000000e+00  0.0000000000000000e+00
1.0086543058850830e-02  0.0000000000000000e+00  0.0000000000000000e+00

SCALARS pressure float
LOOKUP_TABLE default
8.8767153866288294e-05
8.8744927008862348e-05
8.8722700151436403e-05
8.8700473132305105e-05
8.8678245880448442e-05
8.8656018364697214e-05
8.8633790571334705e-05
8.8611562494261397e-05
8.8589334130691799e-05
8.8567105479277284e-05
8.8544876539290720e-05
8.8522647310273028e-05
8.8500417791880406e-05
8.8478187983818537e-05
8.8455957885814267e-05
8.8433727497603160e-05
8.8411496818924492e-05
8.8389265849519086e-05
8.8367034589127951e-05
8.8344803037492277e-05
8.8322571194353344e-05
8.8300339059451907e-05
8.8278106632528556e-05
8.8255873913323842e-05
8.8233640901577855e-05
8.8211407597030481e-05
8.8189173999421485e-05
8.8166940108490332e-05
8.8144705923976123e-05
8.8122471445617877e-05
8.8100236673154246e-05
8.8078001606323709e-05
8.8055766244864227e-05
8.8033530588513991e-05
8.8011294637010761e-05
8.7989058390091875e-05
8.7966821847494536e-05
8.7944585008955758e-05
8.7922347874212336e-05
8.7900110443000660e-05
8.7877872715056972e-05
8.7855634690117362e-05
8.7833396367917665e-05
8.7811157748193214e-05
8.7788918830679260e-05
8.7766679615110932e-05
8.7744440101223035e-05
8.7722200288749939e-05
8.7699960177426028e-05
8.7677719766985509e-05
8.7655479057162036e-05
8.7633238047689395e-05
8.7610996738301009e-05
8.7588755128729825e-05
8.7566513218708913e-05
8.7544271007970853e-05
8.7522028496248187e-05
8.7499785683273036e-05
8.7477542568777263e-05
8.7455299152492771e-05
8.7433055434151113e-05
8.7410811413483487e-05
8.7388567090220917e-05
8.7366322464094438e-05
8.7344077534834506e-05
8.7321832302171573e-05
8.7299586765835822e-05
8.7277340925557179e-05
8.7255094781065406e-05
8.7232848332090062e-05
8.7210601578360260e-05
8.7188354519605139e-05
8.7166107155553580e-05
8.7143859485934141e-05
8.7121611510475281e-05
8.7099363228905247e-05
8.7077114640951984e-05
8.7054865746343318e-05
8.7032616544806707e-05
8.7010367036069745e-05
8.6988117219859376e-05
8.6965867095902544e-05
8.6943616663926016e-05
8.6921365923656302e-05
8.6899114874819708e-05
8.6876863517142393e-05
8.6854611850350284e-05
8.6832359874168996e-05
8.6810107588324172e-05
8.6787854992540885e-05
8.6765602086544738e-05
8.6743348870059665e-05
8.6721095342812772e-05
8.6698841504522601e-05
8.6676587354928090e-05
8.6654332893718560e-05
8.6632078120700535e-05
8.6609823035402144e-05
8.6587567638011170e-05
8.6565311927151300e-05

SCALARS diameter float
LOOKUP_TABLE default
1.0000907898564524e+00
1.0000907690233540e+00
1.0000907481902557e+00
1.0000907273570196e+00
1.0000907065235856e+00
1.0000906856899248e+00
1.0000906648560257e+00
1.0000906440218851e+00
1.0000906231874969e+00
1.0000906023528617e+00
1.0000905815179784e+00
1.0000905606828465e+00
1.0000905398474669e+00
1.0000905190118377e+00
1.0000904981759593e+00
1.0000904773398316e+00
1.0000904565034539e+00
1.0000904356668245e+00
1.0000904148299465e+00
1.0000903939928181e+00
1.0000903731554369e+00
1.0000903523178055e+00
1.0000903314799221e+00
1.0000903106417867e+00
1.0000902898033996e+00
1.0000902689647604e+00
1.0000902481258676e+00
1.0000902272867225e+00
1.0000902064473238e+00
1.0000901856076725e+00
1.0000901647677667e+00
1.0000901439276064e+00
1.0000901230871926e+00
1.0000901022465245e+00
1.0000900814056006e+00
1.0000900605644203e+00
1.0000900397229868e+00
1.0000900188812976e+00
1.0000899980393514e+00
1.0000899771971485e+00
1.0000899563546899e+00
1.0000899355119746e+00
1.0000899146690010e+00
1.0000898938257705e+00
1.0000898729822825e+00
1.0000898521385364e+00
1.0000898312945319e+00
1.0000898104502687e+00
1.0000897896057466e+00
1.0000897687609651e+00
1.0000897479159256e+00
1.0000897270706264e+00
1.0000897062250655e+00
1.0000896853792460e+00
1.0000896645331645e+00
1.0000896436868234e+00
1.0000896228402207e+00
1.0000896019933561e+00
1.0000895811462307e+00
1.0000895602988433e+00
1.0000895394511931e+00
1.0000895186032805e+00
1.0000894977551060e+00
1.0000894769066666e+00
1.0000894560579654e+00
1.0000894352090000e+00
1.0000894143597707e+00
1.0000893935102773e+00
1.0000893726605189e+00
1.0000893518104961e+00
1.0000893309602079e+00
1.0000893101096548e+00
1.0000892892588349e+00
1.0000892684077498e+00
1.0000892475563989e+00
1.0000892267047812e+00
1.0000892058528965e+00
1.0000891850007445e+00
1.0000891641483256e+00
1.0000891432956385e+00
1.0000891224426831e+00
1.0000891015894602e+00
1.0000890807359681e+00
1.0000890598822076e+00
1.0000890390281783e+00
1.0000890181738784e+00
1.0000889973193097e+00
1.0000889764644705e+00
1.0000889556093615e+00
1.0000889347539812e+00
1.0000889138983315e+00
1.0000888930424088e+00
1.0000888721862156e+00
1.0000888513297501e+00
1.0000888304730124e+00
1.0000888096160032e+00
1.0000887887587222e+00
1.0000887679011661e+00
1.0000887470433375e+00
1.0000887261852347e+00

