# vtk DataFile Version 2.0

ASCII

DATASET UNSTRUCTURED_GRID

POINTS 100 float 

0.0000000000000000e+00  0.0000000000000000e+00  0.0000000000000000e+00
1.0000000000000000e+00  0.0000000000000000e+00  0.0000000000000000e+00
2.0000000000000000e+00  0.0000000000000000e+00  0.0000000000000000e+00
3.0000000000000000e+00  0.0000000000000000e+00  0.0000000000000000e+00
4.0000000000000000e+00  0.0000000000000000e+00  0.0000000000000000e+00
5.0000000000000000e+00  0.0000000000000000e+00  0.0000000000000000e+00
6.0000000000000000e+00  0.0000000000000000e+00  0.0000000000000000e+00
7.0000000000000000e+00  0.0000000000000000e+00  0.0000000000000000e+00
8.0000000000000000e+00  0.0000000000000000e+00  0.0000000000000000e+00
9.0000000000000000e+00  0.0000000000000000e+00  0.0000000000000000e+00
1.0000000000000000e+01  0.0000000000000000e+00  0.0000000000000000e+00
1.1000000000000000e+01  0.0000000000000000e+00  0.0000000000000000e+00
1.2000000000000000e+01  0.0000000000000000e+00  0.0000000000000000e+00
1.3000000000000000e+01  0.0000000000000000e+00  0.0000000000000000e+00
1.4000000000000000e+01  0.0000000000000000e+00  0.0000000000000000e+00
1.5000000000000000e+01  0.0000000000000000e+00  0.0000000000000000e+00
1.6000000000000000e+01  0.0000000000000000e+00  0.0000000000000000e+00
1.7000000000000000e+01  0.0000000000000000e+00  0.0000000000000000e+00
1.8000000000000000e+01  0.0000000000000000e+00  0.0000000000000000e+00
1.9000000000000000e+01  0.0000000000000000e+00  0.0000000000000000e+00
2.0000000000000000e+01  0.0000000000000000e+00  0.0000000000000000e+00
2.1000000000000000e+01  0.0000000000000000e+00  0.0000000000000000e+00
2.2000000000000000e+01  0.0000000000000000e+00  0.0000000000000000e+00
2.3000000000000000e+01  0.0000000000000000e+00  0.0000000000000000e+00
2.4000000000000000e+01  0.0000000000000000e+00  0.0000000000000000e+00
2.5000000000000000e+01  0.0000000000000000e+00  0.0000000000000000e+00
2.6000000000000000e+01  0.0000000000000000e+00  0.0000000000000000e+00
2.7000000000000000e+01  0.0000000000000000e+00  0.0000000000000000e+00
2.8000000000000000e+01  0.0000000000000000e+00  0.0000000000000000e+00
2.9000000000000000e+01  0.0000000000000000e+00  0.0000000000000000e+00
3.0000000000000000e+01  0.0000000000000000e+00  0.0000000000000000e+00
3.1000000000000000e+01  0.0000000000000000e+00  0.0000000000000000e+00
3.2000000000000000e+01  0.0000000000000000e+00  0.0000000000000000e+00
3.3000000000000000e+01  0.0000000000000000e+00  0.0000000000000000e+00
3.4000000000000000e+01  0.0000000000000000e+00  0.0000000000000000e+00
3.5000000000000000e+01  0.0000000000000000e+00  0.0000000000000000e+00
3.6000000000000000e+01  0.0000000000000000e+00  0.0000000000000000e+00
3.7000000000000000e+01  0.0000000000000000e+00  0.0000000000000000e+00
3.8000000000000000e+01  0.0000000000000000e+00  0.0000000000000000e+00
3.9000000000000000e+01  0.0000000000000000e+00  0.0000000000000000e+00
4.0000000000000000e+01  0.0000000000000000e+00  0.0000000000000000e+00
4.1000000000000000e+01  0.0000000000000000e+00  0.0000000000000000e+00
4.2000000000000000e+01  0.0000000000000000e+00  0.0000000000000000e+00
4.3000000000000000e+01  0.0000000000000000e+00  0.0000000000000000e+00
4.4000000000000000e+01  0.0000000000000000e+00  0.0000000000000000e+00
4.5000000000000000e+01  0.0000000000000000e+00  0.0000000000000000e+00
4.6000000000000000e+01  0.0000000000000000e+00  0.0000000000000000e+00
4.7000000000000000e+01  0.0000000000000000e+00  0.0000000000000000e+00
4.8000000000000000e+01  0.0000000000000000e+00  0.0000000000000000e+00
4.9000000000000000e+01  0.0000000000000000e+00  0.0000000000000000e+00
5.0000000000000000e+01  0.0000000000000000e+00  0.0000000000000000e+00
5.1000000000000000e+01  0.0000000000000000e+00  0.0000000000000000e+00
5.2000000000000000e+01  0.0000000000000000e+00  0.0000000000000000e+00
5.3000000000000000e+01  0.0000000000000000e+00  0.0000000000000000e+00
5.4000000000000000e+01  0.0000000000000000e+00  0.0000000000000000e+00
5.5000000000000000e+01  0.0000000000000000e+00  0.0000000000000000e+00
5.6000000000000000e+01  0.0000000000000000e+00  0.0000000000000000e+00
5.7000000000000000e+01  0.0000000000000000e+00  0.0000000000000000e+00
5.8000000000000000e+01  0.0000000000000000e+00  0.0000000000000000e+00
5.9000000000000000e+01  0.0000000000000000e+00  0.0000000000000000e+00
6.0000000000000000e+01  0.0000000000000000e+00  0.0000000000000000e+00
6.1000000000000000e+01  0.0000000000000000e+00  0.0000000000000000e+00
6.2000000000000000e+01  0.0000000000000000e+00  0.0000000000000000e+00
6.3000000000000000e+01  0.0000000000000000e+00  0.0000000000000000e+00
6.4000000000000000e+01  0.0000000000000000e+00  0.0000000000000000e+00
6.5000000000000000e+01  0.0000000000000000e+00  0.0000000000000000e+00
6.6000000000000000e+01  0.0000000000000000e+00  0.0000000000000000e+00
6.7000000000000000e+01  0.0000000000000000e+00  0.0000000000000000e+00
6.8000000000000000e+01  0.0000000000000000e+00  0.0000000000000000e+00
6.9000000000000000e+01  0.0000000000000000e+00  0.0000000000000000e+00
7.0000000000000000e+01  0.0000000000000000e+00  0.0000000000000000e+00
7.1000000000000000e+01  0.0000000000000000e+00  0.0000000000000000e+00
7.2000000000000000e+01  0.0000000000000000e+00  0.0000000000000000e+00
7.3000000000000000e+01  0.0000000000000000e+00  0.0000000000000000e+00
7.4000000000000000e+01  0.0000000000000000e+00  0.0000000000000000e+00
7.5000000000000000e+01  0.0000000000000000e+00  0.0000000000000000e+00
7.6000000000000000e+01  0.0000000000000000e+00  0.0000000000000000e+00
7.7000000000000000e+01  0.0000000000000000e+00  0.0000000000000000e+00
7.8000000000000000e+01  0.0000000000000000e+00  0.0000000000000000e+00
7.9000000000000000e+01  0.0000000000000000e+00  0.0000000000000000e+00
8.0000000000000000e+01  0.0000000000000000e+00  0.0000000000000000e+00
8.1000000000000000e+01  0.0000000000000000e+00  0.0000000000000000e+00
8.2000000000000000e+01  0.0000000000000000e+00  0.0000000000000000e+00
8.3000000000000000e+01  0.0000000000000000e+00  0.0000000000000000e+00
8.4000000000000000e+01  0.0000000000000000e+00  0.0000000000000000e+00
8.5000000000000000e+01  0.0000000000000000e+00  0.0000000000000000e+00
8.6000000000000000e+01  0.0000000000000000e+00  0.0000000000000000e+00
8.7000000000000000e+01  0.0000000000000000e+00  0.0000000000000000e+00
8.8000000000000000e+01  0.0000000000000000e+00  0.0000000000000000e+00
8.9000000000000000e+01  0.0000000000000000e+00  0.0000000000000000e+00
9.0000000000000000e+01  0.0000000000000000e+00  0.0000000000000000e+00
9.1000000000000000e+01  0.0000000000000000e+00  0.0000000000000000e+00
9.2000000000000000e+01  0.0000000000000000e+00  0.0000000000000000e+00
9.3000000000000000e+01  0.0000000000000000e+00  0.0000000000000000e+00
9.4000000000000000e+01  0.0000000000000000e+00  0.0000000000000000e+00
9.5000000000000000e+01  0.0000000000000000e+00  0.0000000000000000e+00
9.6000000000000000e+01  0.0000000000000000e+00  0.0000000000000000e+00
9.7000000000000000e+01  0.0000000000000000e+00  0.0000000000000000e+00
9.8000000000000000e+01  0.0000000000000000e+00  0.0000000000000000e+00
9.9000000000000000e+01  0.0000000000000000e+00  0.0000000000000000e+00

POINT_DATA 100

VECTORS velocity float
1.0000000000000000e-02  0.0000000000000000e+00  0.0000000000000000e+00
9.9999989997943527e-03  0.0000000000000000e+00  0.0000000000000000e+00
9.9999979908777254e-03  0.0000000000000000e+00  0.0000000000000000e+00
9.9999969786193320e-03  0.0000000000000000e+00  0.0000000000000000e+00
9.9999959651017566e-03  0.0000000000000000e+00  0.0000000000000000e+00
9.9999949511287642e-03  0.0000000000000000e+00  0.0000000000000000e+00
9.9999939370087557e-03  0.0000000000000000e+00  0.0000000000000000e+00
9.9999929228592674e-03  0.0000000000000000e+00  0.0000000000000000e+00
9.9999919087247618e-03  0.0000000000000000e+00  0.0000000000000000e+00
9.9999908946218768e-03  0.0000000000000000e+00  0.0000000000000000e+00
9.9999898805567637e-03  0.0000000000000000e+00  0.0000000000000000e+00
9.9999888665316620e-03  0.0000000000000000e+00  0.0000000000000000e+00
9.9999878525473800e-03  0.0000000000000000e+00  0.0000000000000000e+00
9.9999868386041763e-03  0.0000000000000000e+00  0.0000000000000000e+00
9.9999858247021445e-03  0.0000000000000000e+00  0.0000000000000000e+00
9.9999848108413177e-03  0.0000000000000000e+00  0.0000000000000000e+00
9.9999837970216818e-03  0.0000000000000000e+00  0.0000000000000000e+00
9.9999827832432369e-03  0.0000000000000000e+00  0.0000000000000000e+00
9.9999817695059830e-03  0.0000000000000000e+00  0.0000000000000000e+00
9.9999807558099150e-03  0.0000000000000000e+00  0.0000000000000000e+00
9.9999797421550136e-03  0.0000000000000000e+00  0.0000000000000000e+00
9.9999787285412721e-03  0.0000000000000000e+00  0.0000000000000000e+00
9.9999777149686921e-03  0.0000000000000000e+00  0.0000000000000000e+00
9.9999767014372614e-03  0.0000000000000000e+00  0.0000000000000000e+00
9.9999756879469680e-03  0.0000000000000000e+00  0.0000000000000000e+00
9.9999746744978153e-03  0.0000000000000000e+00  0.0000000000000000e+00
9.9999736610897963e-03  0.0000000000000000e+00  0.0000000000000000e+00
9.9999726477229024e-03  0.0000000000000000e+00  0.0000000000000000e+00
9.9999716343971180e-03  0.0000000000000000e+00  0.0000000000000000e+00
9.9999706211124431e-03  0.0000000000000000e+00  0.0000000000000000e+00
9.9999696078688794e-03  0.0000000000000000e+00  0.0000000000000000e+00
9.9999685946664113e-03  0.0000000000000000e+00  0.0000000000000000e+00
9.9999675815050336e-03  0.0000000000000000e+00  0.0000000000000000e+00
9.9999665683847393e-03  0.0000000000000000e+00  0.0000000000000000e+00
9.9999655553055181e-03  0.0000000000000000e+00  0.0000000000000000e+00
9.9999645422673578e-03  0.0000000000000000e+00  0.0000000000000000e+00
9.9999635292702584e-03  0.0000000000000000e+00  0.0000000000000000e+00
9.9999625163142182e-03  0.0000000000000000e+00  0.0000000000000000e+00
9.9999615033992406e-03  0.0000000000000000e+00  0.0000000000000000e+00
9.9999604905252892e-03  0.0000000000000000e+00  0.0000000000000000e+00
9.9999594776923415e-03  0.0000000000000000e+00  0.0000000000000000e+00
9.9999584649004356e-03  0.0000000000000000e+00  0.0000000000000000e+00
9.9999574521495490e-03  0.0000000000000000e+00  0.0000000000000000e+00
9.9999564394396695e-03  0.0000000000000000e+00  0.0000000000000000e+00
9.9999554267707937e-03  0.0000000000000000e+00  0.0000000000000000e+00
9.9999544141429041e-03  0.0000000000000000e+00  0.0000000000000000e+00
9.9999534015560027e-03  0.0000000000000000e+00  0.0000000000000000e+00
9.9999523890100927e-03  0.0000000000000000e+00  0.0000000000000000e+00
9.9999513765051586e-03  0.0000000000000000e+00  0.0000000000000000e+00
9.9999503640411831e-03  0.0000000000000000e+00  0.0000000000000000e+00
9.9999493516181748e-03  0.0000000000000000e+00  0.0000000000000000e+00
9.9999483392361251e-03  0.0000000000000000e+00  0.0000000000000000e+00
9.9999473268950253e-03  0.0000000000000000e+00  0.0000000000000000e+00
9.9999463145948580e-03  0.0000000000000000e+00  0.0000000000000000e+00
9.9999453023356197e-03  0.0000000000000000e+00  0.0000000000000000e+00
9.9999442901173088e-03  0.0000000000000000e+00  0.0000000000000000e+00
9.9999432779399374e-03  0.0000000000000000e+00  0.0000000000000000e+00
9.9999422658034742e-03  0.0000000000000000e+00  0.0000000000000000e+00
9.9999412537079193e-03  0.0000000000000000e+00  0.0000000000000000e+00
9.9999402416532709e-03  0.0000000000000000e+00  0.0000000000000000e+00
9.9999392296395099e-03  0.0000000000000000e+00  0.0000000000000000e+00
9.9999382176666207e-03  0.0000000000000000e+00  0.0000000000000000e+00
9.9999372057346138e-03  0.0000000000000000e+00  0.0000000000000000e+00
9.9999361938434891e-03  0.0000000000000000e+00  0.0000000000000000e+00
9.9999351819932327e-03  0.0000000000000000e+00  0.0000000000000000e+00
9.9999341701838308e-03  0.0000000000000000e+00  0.0000000000000000e+00
9.9999331584152730e-03  0.0000000000000000e+00  0.0000000000000000e+00
9.9999321466875679e-03  0.0000000000000000e+00  0.0000000000000000e+00
9.9999311350007069e-03  0.0000000000000000e+00  0.0000000000000000e+00
9.9999301233546656e-03  0.0000000000000000e+00  0.0000000000000000e+00
9.9999291117494442e-03  0.0000000000000000e+00  0.0000000000000000e+00
9.9999281001850321e-03  0.0000000000000000e+00  0.0000000000000000e+00
9.9999270886614311e-03  0.0000000000000000e+00  0.0000000000000000e+00
9.9999260771786447e-03  0.0000000000000000e+00  0.0000000000000000e+00
9.9999250657366624e-03  0.0000000000000000e+00  0.0000000000000000e+00
9.9999240543354705e-03  0.0000000000000000e+00  0.0000000000000000e+00
9.9999230429750653e-03  0.0000000000000000e+00  0.0000000000000000e+00
9.9999220316554401e-03  0.0000000000000000e+00  0.0000000000000000e+00
9.9999210203765895e-03  0.0000000000000000e+00  0.0000000000000000e+00
9.9999200091385014e-03  0.0000000000000000e+00  0.0000000000000000e+00
9.9999189979411620e-03  0.0000000000000000e+00  0.0000000000000000e+00
9.9999179867845591e-03  0.0000000000000000e+00  0.0000000000000000e+00
9.9999169756687066e-03  0.0000000000000000e+00  0.0000000000000000e+00
9.9999159645936045e-03  0.0000000000000000e+00  0.0000000000000000e+00
9.9999149535592233e-03  0.0000000000000000e+00  0.0000000000000000e+00
9.9999139425655716e-03  0.0000000000000000e+00  0.0000000000000000e+00
9.9999129316126478e-03  0.0000000000000000e+00  0.0000000000000000e+00
9.9999119207004380e-03  0.0000000000000000e+00  0.0000000000000000e+00
9.9999109098289213e-03  0.0000000000000000e+00  0.0000000000000000e+00
9.9999098989980995e-03  0.0000000000000000e+00  0.0000000000000000e+00
9.9999088882079552e-03  0.0000000000000000e+00  0.0000000000000000e+00
9.9999078774585491e-03  0.0000000000000000e+00  0.0000000000000000e+00
9.9999068667496870e-03  0.0000000000000000e+00  0.0000000000000000e+00
9.9999058560817835e-03  0.0000000000000000e+00  0.0000000000000000e+00
9.9999048454539347e-03  0.0000000000000000e+00  0.0000000000000000e+00
9.9999038348680559e-03  0.0000000000000000e+00  0.0000000000000000e+00
9.9999028243200321e-03  0.0000000000000000e+00  0.0000000000000000e+00
9.9999018138184348e-03  0.0000000000000000e+00  0.0000000000000000e+00
9.9999008033458472e-03  0.0000000000000000e+00  0.0000000000000000e+00
9.9998997929363499e-03  0.0000000000000000e+00  0.0000000000000000e+00

SCALARS pressure float
LOOKUP_TABLE default
-2.0097136821385249e-07
-1.9996500991687244e-07
-1.9895865161989239e-07
-1.9795241426461647e-07
-1.9694634429165756e-07
-1.9594045928372733e-07
-1.9493476570440439e-07
-1.9392926575858812e-07
-1.9292396003103846e-07
-1.9191884849656104e-07
-1.9091393090157466e-07
-1.8990920690783471e-07
-1.8890467614700389e-07
-1.8790033824000426e-07
-1.8689619280352678e-07
-1.8589223945288001e-07
-1.8488847780435330e-07
-1.8388490747219762e-07
-1.8288152807212826e-07
-1.8187833921888961e-07
-1.8087534052824349e-07
-1.7987253161437158e-07
-1.7886991209323208e-07
-1.7786748157924929e-07
-1.7686523968800718e-07
-1.7586318603407765e-07
-1.7486132023280167e-07
-1.7385964189967260e-07
-1.7285815064930498e-07
-1.7185684609686483e-07
-1.7085572785746873e-07
-1.6985479554672976e-07
-1.6885404877884232e-07
-1.6785348716956944e-07
-1.6685311033338607e-07
-1.6585291788540840e-07
-1.6485290944060824e-07
-1.6385308461384900e-07
-1.6285344302054418e-07
-1.6185398427577901e-07
-1.6085470799405030e-07
-1.5985561378956639e-07
-1.5885670127857630e-07
-1.5785797007572676e-07
-1.5685941979571535e-07
-1.5586105005351929e-07
-1.5486286046391666e-07
-1.5386485064183394e-07
-1.5286702020277774e-07
-1.5186936876120678e-07
-1.5087189593179243e-07
-1.4987460132983229e-07
-1.4887748457022253e-07
-1.4788054526773495e-07
-1.4688378303705908e-07
-1.4588719749262011e-07
-1.4489078825003867e-07
-1.4389455492437820e-07
-1.4289849712995946e-07
-1.4190261448147341e-07
-1.4090690659425720e-07
-1.3991137308250857e-07
-1.3891601356117383e-07
-1.3792082764495586e-07
-1.3692581494915270e-07
-1.3593097508837901e-07
-1.3493630767692844e-07
-1.3394181232976473e-07
-1.3294748866171890e-07
-1.3195333628808201e-07
-1.3095935482239836e-07
-1.2996554387981722e-07
-1.2897190307509952e-07
-1.2797843202305525e-07
-1.2698513033856451e-07
-1.2599199763642670e-07
-1.2499903353092288e-07
-1.2400623763715922e-07
-1.2301360956936332e-07
-1.2202114894255673e-07
-1.2102885537103002e-07
-1.2003672846940570e-07
-1.1904476785196625e-07
-1.1805297313395307e-07
-1.1706134393058301e-07
-1.1606987985524897e-07
-1.1507858052289998e-07
-1.1408744554898665e-07
-1.1309647454729174e-07
-1.1210566713227429e-07
-1.1111502291839975e-07
-1.1012454152074859e-07
-1.0913422255424906e-07
-1.0814406563130861e-07
-1.0715407037069956e-07
-1.0616423637960109e-07
-1.0517456328693529e-07
-1.0418505067735021e-07
-1.0319569822435520e-07
-1.0220650543388102e-07

SCALARS diameter float
LOOKUP_TABLE default
9.9999999855905131e-01
9.9999999758987590e-01
9.9999999662069916e-01
9.9999999565137876e-01
9.9999999468185896e-01
9.9999999371211634e-01
9.9999999274214479e-01
9.9999999177193910e-01
9.9999999080150093e-01
9.9999998983082916e-01
9.9999998885992181e-01
9.9999998788878197e-01
9.9999998691740966e-01
9.9999998594580497e-01
9.9999998497396858e-01
9.9999998400189960e-01
9.9999998302959958e-01
9.9999998205706930e-01
9.9999998108430588e-01
9.9999998011131541e-01
9.9999997913809346e-01
9.9999997816464159e-01
9.9999997719096156e-01
9.9999997621705272e-01
9.9999997524291540e-01
9.9999997426855058e-01
9.9999997329395807e-01
9.9999997231913873e-01
9.9999997134409191e-01
9.9999997036881982e-01
9.9999996939332081e-01
9.9999996841759642e-01
9.9999996744164654e-01
9.9999996646547218e-01
9.9999996548907455e-01
9.9999996451245077e-01
9.9999996353560494e-01
9.9999996255853585e-01
9.9999996158124260e-01
9.9999996060372864e-01
9.9999995962599186e-01
9.9999995864803282e-01
9.9999995766985417e-01
9.9999995669145159e-01
9.9999995571283173e-01
9.9999995473399073e-01
9.9999995375492856e-01
9.9999995277564724e-01
9.9999995179614776e-01
9.9999995081643078e-01
9.9999994983649365e-01
9.9999994885634047e-01
9.9999994787596813e-01
9.9999994689537908e-01
9.9999994591457486e-01
9.9999994493355249e-01
9.9999994395231451e-01
9.9999994297086225e-01
9.9999994198919440e-01
9.9999994100731138e-01
9.9999994002521431e-01
9.9999993904290307e-01
9.9999993806037912e-01
9.9999993707764157e-01
9.9999993609469007e-01
9.9999993511152796e-01
9.9999993412815280e-01
9.9999993314456648e-01
9.9999993216076877e-01
9.9999993117675967e-01
9.9999993019254108e-01
9.9999992920811254e-01
9.9999992822347350e-01
9.9999992723862596e-01
9.9999992625356837e-01
9.9999992526830273e-01
9.9999992428282958e-01
9.9999992329714837e-01
9.9999992231125934e-01
9.9999992132516391e-01
9.9999992033886220e-01
9.9999991935235322e-01
9.9999991836563940e-01
9.9999991737871918e-01
9.9999991639159558e-01
9.9999991540426636e-01
9.9999991441673275e-01
9.9999991342899408e-01
9.9999991244105513e-01
9.9999991145291112e-01
9.9999991046456427e-01
9.9999990947601503e-01
9.9999990848726483e-01
9.9999990749831169e-01
9.9999990650915804e-01
9.9999990551980411e-01
9.9999990453025023e-01
9.9999990354049462e-01
9.9999990255054105e-01
9.9999990156038765e-01

