# vtk DataFile Version 2.0

ASCII

DATASET UNSTRUCTURED_GRID

POINTS 100 float 

0.0000000000000000e+00  0.0000000000000000e+00  0.0000000000000000e+00
1.0000000000000000e+00  0.0000000000000000e+00  0.0000000000000000e+00
2.0000000000000000e+00  0.0000000000000000e+00  0.0000000000000000e+00
3.0000000000000000e+00  0.0000000000000000e+00  0.0000000000000000e+00
4.0000000000000000e+00  0.0000000000000000e+00  0.0000000000000000e+00
5.0000000000000000e+00  0.0000000000000000e+00  0.0000000000000000e+00
6.0000000000000000e+00  0.0000000000000000e+00  0.0000000000000000e+00
7.0000000000000000e+00  0.0000000000000000e+00  0.0000000000000000e+00
8.0000000000000000e+00  0.0000000000000000e+00  0.0000000000000000e+00
9.0000000000000000e+00  0.0000000000000000e+00  0.0000000000000000e+00
1.0000000000000000e+01  0.0000000000000000e+00  0.0000000000000000e+00
1.1000000000000000e+01  0.0000000000000000e+00  0.0000000000000000e+00
1.2000000000000000e+01  0.0000000000000000e+00  0.0000000000000000e+00
1.3000000000000000e+01  0.0000000000000000e+00  0.0000000000000000e+00
1.4000000000000000e+01  0.0000000000000000e+00  0.0000000000000000e+00
1.5000000000000000e+01  0.0000000000000000e+00  0.0000000000000000e+00
1.6000000000000000e+01  0.0000000000000000e+00  0.0000000000000000e+00
1.7000000000000000e+01  0.0000000000000000e+00  0.0000000000000000e+00
1.8000000000000000e+01  0.0000000000000000e+00  0.0000000000000000e+00
1.9000000000000000e+01  0.0000000000000000e+00  0.0000000000000000e+00
2.0000000000000000e+01  0.0000000000000000e+00  0.0000000000000000e+00
2.1000000000000000e+01  0.0000000000000000e+00  0.0000000000000000e+00
2.2000000000000000e+01  0.0000000000000000e+00  0.0000000000000000e+00
2.3000000000000000e+01  0.0000000000000000e+00  0.0000000000000000e+00
2.4000000000000000e+01  0.0000000000000000e+00  0.0000000000000000e+00
2.5000000000000000e+01  0.0000000000000000e+00  0.0000000000000000e+00
2.6000000000000000e+01  0.0000000000000000e+00  0.0000000000000000e+00
2.7000000000000000e+01  0.0000000000000000e+00  0.0000000000000000e+00
2.8000000000000000e+01  0.0000000000000000e+00  0.0000000000000000e+00
2.9000000000000000e+01  0.0000000000000000e+00  0.0000000000000000e+00
3.0000000000000000e+01  0.0000000000000000e+00  0.0000000000000000e+00
3.1000000000000000e+01  0.0000000000000000e+00  0.0000000000000000e+00
3.2000000000000000e+01  0.0000000000000000e+00  0.0000000000000000e+00
3.3000000000000000e+01  0.0000000000000000e+00  0.0000000000000000e+00
3.4000000000000000e+01  0.0000000000000000e+00  0.0000000000000000e+00
3.5000000000000000e+01  0.0000000000000000e+00  0.0000000000000000e+00
3.6000000000000000e+01  0.0000000000000000e+00  0.0000000000000000e+00
3.7000000000000000e+01  0.0000000000000000e+00  0.0000000000000000e+00
3.8000000000000000e+01  0.0000000000000000e+00  0.0000000000000000e+00
3.9000000000000000e+01  0.0000000000000000e+00  0.0000000000000000e+00
4.0000000000000000e+01  0.0000000000000000e+00  0.0000000000000000e+00
4.1000000000000000e+01  0.0000000000000000e+00  0.0000000000000000e+00
4.2000000000000000e+01  0.0000000000000000e+00  0.0000000000000000e+00
4.3000000000000000e+01  0.0000000000000000e+00  0.0000000000000000e+00
4.4000000000000000e+01  0.0000000000000000e+00  0.0000000000000000e+00
4.5000000000000000e+01  0.0000000000000000e+00  0.0000000000000000e+00
4.6000000000000000e+01  0.0000000000000000e+00  0.0000000000000000e+00
4.7000000000000000e+01  0.0000000000000000e+00  0.0000000000000000e+00
4.8000000000000000e+01  0.0000000000000000e+00  0.0000000000000000e+00
4.9000000000000000e+01  0.0000000000000000e+00  0.0000000000000000e+00
5.0000000000000000e+01  0.0000000000000000e+00  0.0000000000000000e+00
5.1000000000000000e+01  0.0000000000000000e+00  0.0000000000000000e+00
5.2000000000000000e+01  0.0000000000000000e+00  0.0000000000000000e+00
5.3000000000000000e+01  0.0000000000000000e+00  0.0000000000000000e+00
5.4000000000000000e+01  0.0000000000000000e+00  0.0000000000000000e+00
5.5000000000000000e+01  0.0000000000000000e+00  0.0000000000000000e+00
5.6000000000000000e+01  0.0000000000000000e+00  0.0000000000000000e+00
5.7000000000000000e+01  0.0000000000000000e+00  0.0000000000000000e+00
5.8000000000000000e+01  0.0000000000000000e+00  0.0000000000000000e+00
5.9000000000000000e+01  0.0000000000000000e+00  0.0000000000000000e+00
6.0000000000000000e+01  0.0000000000000000e+00  0.0000000000000000e+00
6.1000000000000000e+01  0.0000000000000000e+00  0.0000000000000000e+00
6.2000000000000000e+01  0.0000000000000000e+00  0.0000000000000000e+00
6.3000000000000000e+01  0.0000000000000000e+00  0.0000000000000000e+00
6.4000000000000000e+01  0.0000000000000000e+00  0.0000000000000000e+00
6.5000000000000000e+01  0.0000000000000000e+00  0.0000000000000000e+00
6.6000000000000000e+01  0.0000000000000000e+00  0.0000000000000000e+00
6.7000000000000000e+01  0.0000000000000000e+00  0.0000000000000000e+00
6.8000000000000000e+01  0.0000000000000000e+00  0.0000000000000000e+00
6.9000000000000000e+01  0.0000000000000000e+00  0.0000000000000000e+00
7.0000000000000000e+01  0.0000000000000000e+00  0.0000000000000000e+00
7.1000000000000000e+01  0.0000000000000000e+00  0.0000000000000000e+00
7.2000000000000000e+01  0.0000000000000000e+00  0.0000000000000000e+00
7.3000000000000000e+01  0.0000000000000000e+00  0.0000000000000000e+00
7.4000000000000000e+01  0.0000000000000000e+00  0.0000000000000000e+00
7.5000000000000000e+01  0.0000000000000000e+00  0.0000000000000000e+00
7.6000000000000000e+01  0.0000000000000000e+00  0.0000000000000000e+00
7.7000000000000000e+01  0.0000000000000000e+00  0.0000000000000000e+00
7.8000000000000000e+01  0.0000000000000000e+00  0.0000000000000000e+00
7.9000000000000000e+01  0.0000000000000000e+00  0.0000000000000000e+00
8.0000000000000000e+01  0.0000000000000000e+00  0.0000000000000000e+00
8.1000000000000000e+01  0.0000000000000000e+00  0.0000000000000000e+00
8.2000000000000000e+01  0.0000000000000000e+00  0.0000000000000000e+00
8.3000000000000000e+01  0.0000000000000000e+00  0.0000000000000000e+00
8.4000000000000000e+01  0.0000000000000000e+00  0.0000000000000000e+00
8.5000000000000000e+01  0.0000000000000000e+00  0.0000000000000000e+00
8.6000000000000000e+01  0.0000000000000000e+00  0.0000000000000000e+00
8.7000000000000000e+01  0.0000000000000000e+00  0.0000000000000000e+00
8.8000000000000000e+01  0.0000000000000000e+00  0.0000000000000000e+00
8.9000000000000000e+01  0.0000000000000000e+00  0.0000000000000000e+00
9.0000000000000000e+01  0.0000000000000000e+00  0.0000000000000000e+00
9.1000000000000000e+01  0.0000000000000000e+00  0.0000000000000000e+00
9.2000000000000000e+01  0.0000000000000000e+00  0.0000000000000000e+00
9.3000000000000000e+01  0.0000000000000000e+00  0.0000000000000000e+00
9.4000000000000000e+01  0.0000000000000000e+00  0.0000000000000000e+00
9.5000000000000000e+01  0.0000000000000000e+00  0.0000000000000000e+00
9.6000000000000000e+01  0.0000000000000000e+00  0.0000000000000000e+00
9.7000000000000000e+01  0.0000000000000000e+00  0.0000000000000000e+00
9.8000000000000000e+01  0.0000000000000000e+00  0.0000000000000000e+00
9.9000000000000000e+01  0.0000000000000000e+00  0.0000000000000000e+00

POINT_DATA 100

VECTORS velocity float
1.0028711035421731e-02  0.0000000000000000e+00  0.0000000000000000e+00
1.0028710256461531e-02  0.0000000000000000e+00  0.0000000000000000e+00
1.0028709497744894e-02  0.0000000000000000e+00  0.0000000000000000e+00
1.0028708747933929e-02  0.0000000000000000e+00  0.0000000000000000e+00
1.0028708002222950e-02  0.0000000000000000e+00  0.0000000000000000e+00
1.0028707258576639e-02  0.0000000000000000e+00  0.0000000000000000e+00
1.0028706516133794e-02  0.0000000000000000e+00  0.0000000000000000e+00
1.0028705774530262e-02  0.0000000000000000e+00  0.0000000000000000e+00
1.0028705033612155e-02  0.0000000000000000e+00  0.0000000000000000e+00
1.0028704293314421e-02  0.0000000000000000e+00  0.0000000000000000e+00
1.0028703553609698e-02  0.0000000000000000e+00  0.0000000000000000e+00
1.0028702814486494e-02  0.0000000000000000e+00  0.0000000000000000e+00
1.0028702075939878e-02  0.0000000000000000e+00  0.0000000000000000e+00
1.0028701337967865e-02  0.0000000000000000e+00  0.0000000000000000e+00
1.0028700600569524e-02  0.0000000000000000e+00  0.0000000000000000e+00
1.0028699863744545e-02  0.0000000000000000e+00  0.0000000000000000e+00
1.0028699127492843e-02  0.0000000000000000e+00  0.0000000000000000e+00
1.0028698391814297e-02  0.0000000000000000e+00  0.0000000000000000e+00
1.0028697656708895e-02  0.0000000000000000e+00  0.0000000000000000e+00
1.0028696922176679e-02  0.0000000000000000e+00  0.0000000000000000e+00
1.0028696188217605e-02  0.0000000000000000e+00  0.0000000000000000e+00
1.0028695454831661e-02  0.0000000000000000e+00  0.0000000000000000e+00
1.0028694722018871e-02  0.0000000000000000e+00  0.0000000000000000e+00
1.0028693989779246e-02  0.0000000000000000e+00  0.0000000000000000e+00
1.0028693258112828e-02  0.0000000000000000e+00  0.0000000000000000e+00
1.0028692527019590e-02  0.0000000000000000e+00  0.0000000000000000e+00
1.0028691796499515e-02  0.0000000000000000e+00  0.0000000000000000e+00
1.0028691066552695e-02  0.0000000000000000e+00  0.0000000000000000e+00
1.0028690337179111e-02  0.0000000000000000e+00  0.0000000000000000e+00
1.0028689608378711e-02  0.0000000000000000e+00  0.0000000000000000e+00
1.0028688880151532e-02  0.0000000000000000e+00  0.0000000000000000e+00
1.0028688152497580e-02  0.0000000000000000e+00  0.0000000000000000e+00
1.0028687425416851e-02  0.0000000000000000e+00  0.0000000000000000e+00
1.0028686698909394e-02  0.0000000000000000e+00  0.0000000000000000e+00
1.0028685972975186e-02  0.0000000000000000e+00  0.0000000000000000e+00
1.0028685247614223e-02  0.0000000000000000e+00  0.0000000000000000e+00
1.0028684522826596e-02  0.0000000000000000e+00  0.0000000000000000e+00
1.0028683798612248e-02  0.0000000000000000e+00  0.0000000000000000e+00
1.0028683074971166e-02  0.0000000000000000e+00  0.0000000000000000e+00
1.0028682351903382e-02  0.0000000000000000e+00  0.0000000000000000e+00
1.0028681629408953e-02  0.0000000000000000e+00  0.0000000000000000e+00
1.0028680907487880e-02  0.0000000000000000e+00  0.0000000000000000e+00
1.0028680186140089e-02  0.0000000000000000e+00  0.0000000000000000e+00
1.0028679465365705e-02  0.0000000000000000e+00  0.0000000000000000e+00
1.0028678745164700e-02  0.0000000000000000e+00  0.0000000000000000e+00
1.0028678025537013e-02  0.0000000000000000e+00  0.0000000000000000e+00
1.0028677306482723e-02  0.0000000000000000e+00  0.0000000000000000e+00
1.0028676588001802e-02  0.0000000000000000e+00  0.0000000000000000e+00
1.0028675870094244e-02  0.0000000000000000e+00  0.0000000000000000e+00
1.0028675152760113e-02  0.0000000000000000e+00  0.0000000000000000e+00
1.0028674435999387e-02  0.0000000000000000e+00  0.0000000000000000e+00
1.0028673719812082e-02  0.0000000000000000e+00  0.0000000000000000e+00
1.0028673004198163e-02  0.0000000000000000e+00  0.0000000000000000e+00
1.0028672289157693e-02  0.0000000000000000e+00  0.0000000000000000e+00
1.0028671574690725e-02  0.0000000000000000e+00  0.0000000000000000e+00
1.0028670860797159e-02  0.0000000000000000e+00  0.0000000000000000e+00
1.0028670147477090e-02  0.0000000000000000e+00  0.0000000000000000e+00
1.0028669434730483e-02  0.0000000000000000e+00  0.0000000000000000e+00
1.0028668722557319e-02  0.0000000000000000e+00  0.0000000000000000e+00
1.0028668010957659e-02  0.0000000000000000e+00  0.0000000000000000e+00
1.0028667299931463e-02  0.0000000000000000e+00  0.0000000000000000e+00
1.0028666589478763e-02  0.0000000000000000e+00  0.0000000000000000e+00
1.0028665879599608e-02  0.0000000000000000e+00  0.0000000000000000e+00
1.0028665170294002e-02  0.0000000000000000e+00  0.0000000000000000e+00
1.0028664461561927e-02  0.0000000000000000e+00  0.0000000000000000e+00
1.0028663753403328e-02  0.0000000000000000e+00  0.0000000000000000e+00
1.0028663045818261e-02  0.0000000000000000e+00  0.0000000000000000e+00
1.0028662338806778e-02  0.0000000000000000e+00  0.0000000000000000e+00
1.0028661632368896e-02  0.0000000000000000e+00  0.0000000000000000e+00
1.0028660926504555e-02  0.0000000000000000e+00  0.0000000000000000e+00
1.0028660221213822e-02  0.0000000000000000e+00  0.0000000000000000e+00
1.0028659516496737e-02  0.0000000000000000e+00  0.0000000000000000e+00
1.0028658812353236e-02  0.0000000000000000e+00  0.0000000000000000e+00
1.0028658108783341e-02  0.0000000000000000e+00  0.0000000000000000e+00
1.0028657405787058e-02  0.0000000000000000e+00  0.0000000000000000e+00
1.0028656703364378e-02  0.0000000000000000e+00  0.0000000000000000e+00
1.0028656001515330e-02  0.0000000000000000e+00  0.0000000000000000e+00
1.0028655300239945e-02  0.0000000000000000e+00  0.0000000000000000e+00
1.0028654599538190e-02  0.0000000000000000e+00  0.0000000000000000e+00
1.0028653899410080e-02  0.0000000000000000e+00  0.0000000000000000e+00
1.0028653199855611e-02  0.0000000000000000e+00  0.0000000000000000e+00
1.0028652500874802e-02  0.0000000000000000e+00  0.0000000000000000e+00
1.0028651802467693e-02  0.0000000000000000e+00  0.0000000000000000e+00
1.0028651104634278e-02  0.0000000000000000e+00  0.0000000000000000e+00
1.0028650407374605e-02  0.0000000000000000e+00  0.0000000000000000e+00
1.0028649710688720e-02  0.0000000000000000e+00  0.0000000000000000e+00
1.0028649014576525e-02  0.0000000000000000e+00  0.0000000000000000e+00
1.0028648319038028e-02  0.0000000000000000e+00  0.0000000000000000e+00
1.0028647624073284e-02  0.0000000000000000e+00  0.0000000000000000e+00
1.0028646929682325e-02  0.0000000000000000e+00  0.0000000000000000e+00
1.0028646235865036e-02  0.0000000000000000e+00  0.0000000000000000e+00
1.0028645542621756e-02  0.0000000000000000e+00  0.0000000000000000e+00
1.0028644849951694e-02  0.0000000000000000e+00  0.0000000000000000e+00
1.0028644157856688e-02  0.0000000000000000e+00  0.0000000000000000e+00
1.0028643466332490e-02  0.0000000000000000e+00  0.0000000000000000e+00
1.0028642775389297e-02  0.0000000000000000e+00  0.0000000000000000e+00
1.0028642085002606e-02  0.0000000000000000e+00  0.0000000000000000e+00
1.0028641395231326e-02  0.0000000000000000e+00  0.0000000000000000e+00
1.0028640705934063e-02  0.0000000000000000e+00  0.0000000000000000e+00
1.0028640017450021e-02  0.0000000000000000e+00  0.0000000000000000e+00

SCALARS pressure float
LOOKUP_TABLE default
2.5752912663171231e-05
2.5781752389418955e-05
2.5810592115666680e-05
2.5839432122013855e-05
2.5868272527159894e-05
2.5897113381409018e-05
2.5925954706106671e-05
2.5954796510347058e-05
2.5983638798045376e-05
2.6012481570927715e-05
2.6041324829795671e-05
2.6070168575062207e-05
2.6099012806976371e-05
2.6127857525717667e-05
2.6156702731436130e-05
2.6185548424269205e-05
2.6214394604350430e-05
2.6243241271811164e-05
2.6272088426781080e-05
2.6300936069390016e-05
2.6329784199767519e-05
2.6358632818042536e-05
2.6387481924343974e-05
2.6416331518800834e-05
2.6445181601542521e-05
2.6474032172698456e-05
2.6502883232397377e-05
2.6531734780768545e-05
2.6560586817941990e-05
2.6589439344046721e-05
2.6618292359211467e-05
2.6647145863565025e-05
2.6675999857236568e-05
2.6704854340354941e-05
2.6733709313049461e-05
2.6762564775448836e-05
2.6791420727682522e-05
2.6820277169879991e-05
2.6849134102170073e-05
2.6877991524681584e-05
2.6906849437543877e-05
2.6935707840886777e-05
2.6964566734839327e-05
2.6993426119530937e-05
2.7022285995091246e-05
2.7051146361649548e-05
2.7080007219334846e-05
2.7108868568276501e-05
2.7137730408603437e-05
2.7166592740444672e-05
2.7195455563929899e-05
2.7224318879188404e-05
2.7253182686349231e-05
2.7282046985541418e-05
2.7310911776895024e-05
2.7339777060539175e-05
2.7368642836603277e-05
2.7397509105216682e-05
2.7426375866508349e-05
2.7455243120607631e-05
2.7484110867643618e-05
2.7512979107745266e-05
2.7541847841042049e-05
2.7570717067663807e-05
2.7599586787740167e-05
2.7628457001399885e-05
2.7657327708771313e-05
2.7686198909983996e-05
2.7715070605167947e-05
2.7743942794452779e-05
2.7772815477967445e-05
2.7801688655842042e-05
2.7830562328206348e-05
2.7859436495189625e-05
2.7888311156921129e-05
2.7917186313529936e-05
2.7946061965144943e-05
2.7974938111895793e-05
2.8003814753911778e-05
2.8032691891322117e-05
2.8061569524255452e-05
2.8090447652840761e-05
2.8119326277207515e-05
2.8148205397485101e-05
2.8177085013803260e-05
2.8205965126292424e-05
2.8234845735082350e-05
2.8263726840301901e-05
2.8292608442080318e-05
2.8321490540547498e-05
2.8350373135832312e-05
2.8379256228065678e-05
2.8408139817374065e-05
2.8437023903893824e-05
2.8465908487737370e-05
2.8494793569076156e-05
2.8523679147938606e-05
2.8552565224697179e-05
2.8581451798899053e-05
2.8610338872069510e-05

SCALARS diameter float
LOOKUP_TABLE default
1.0000229804949039e+00
1.0000230085519501e+00
1.0000230366089982e+00
1.0000230646663104e+00
1.0000230927239993e+00
1.0000231207821129e+00
1.0000231488406701e+00
1.0000231768996808e+00
1.0000232049591489e+00
1.0000232330190746e+00
1.0000232610794597e+00
1.0000232891403051e+00
1.0000233172016100e+00
1.0000233452633758e+00
1.0000233733256016e+00
1.0000234013882874e+00
1.0000234294514345e+00
1.0000234575150420e+00
1.0000234855791117e+00
1.0000235136436415e+00
1.0000235417086327e+00
1.0000235697740849e+00
1.0000235978399994e+00
1.0000236259063753e+00
1.0000236539732135e+00
1.0000236820405140e+00
1.0000237101082761e+00
1.0000237381765009e+00
1.0000237662451885e+00
1.0000237943143380e+00
1.0000238223839508e+00
1.0000238504540269e+00
1.0000238785245656e+00
1.0000239065955681e+00
1.0000239346670332e+00
1.0000239627389627e+00
1.0000239908113562e+00
1.0000240188842127e+00
1.0000240469575337e+00
1.0000240750313190e+00
1.0000241031055688e+00
1.0000241311802820e+00
1.0000241592554613e+00
1.0000241873311038e+00
1.0000242154072125e+00
1.0000242434837863e+00
1.0000242715608247e+00
1.0000242996383297e+00
1.0000243277162992e+00
1.0000243557947353e+00
1.0000243838736367e+00
1.0000244119530040e+00
1.0000244400328380e+00
1.0000244681131383e+00
1.0000244961939044e+00
1.0000245242751373e+00
1.0000245523568374e+00
1.0000245804390042e+00
1.0000246085216389e+00
1.0000246366047394e+00
1.0000246646883086e+00
1.0000246927723442e+00
1.0000247208568489e+00
1.0000247489418204e+00
1.0000247770272608e+00
1.0000248051131682e+00
1.0000248331995447e+00
1.0000248612863896e+00
1.0000248893737034e+00
1.0000249174614855e+00
1.0000249455497370e+00
1.0000249736384570e+00
1.0000250017276469e+00
1.0000250298173052e+00
1.0000250579074339e+00
1.0000250859980317e+00
1.0000251140890999e+00
1.0000251421806383e+00
1.0000251702726470e+00
1.0000251983651245e+00
1.0000252264580745e+00
1.0000252545514934e+00
1.0000252826453844e+00
1.0000253107397450e+00
1.0000253388345777e+00
1.0000253669298811e+00
1.0000253950256561e+00
1.0000254231219032e+00
1.0000254512186211e+00
1.0000254793158112e+00
1.0000255074134730e+00
1.0000255355116083e+00
1.0000255636102142e+00
1.0000255917092935e+00
1.0000256198088446e+00
1.0000256479088696e+00
1.0000256760093666e+00
1.0000257041103362e+00
1.0000257322117800e+00
1.0000257603136973e+00

