/*--------------------------------*- C++ -*----------------------------------*\
| =========                 |                                                 |
| \\      /  F ield         | OpenFOAM: The Open Source CFD Toolbox           |
|  \\    /   O peration     | Version:  4.1                                   |
|   \\  /    A nd           | Web:      www.OpenFOAM.org                      |
|    \\/     M anipulation  |                                                 |
\*---------------------------------------------------------------------------*/
FoamFile
{
    version     2.0;
    format      ascii;
    class       pointVectorField;
    location    "0.2";
    object      pointDisplacement;
}
// * * * * * * * * * * * * * * * * * * * * * * * * * * * * * * * * * * * * * //

dimensions      [0 1 0 0 0 0 0];

internalField   nonuniform List<vector> 
5828
(
(0 0 0)
(0.00220361 0 0)
(0.00421569 0 0)
(0.00599541 0 0)
(0.0075663 0 0)
(0.00894879 0 0)
(0.0101604 0 0)
(0.0112159 0 0)
(0.0121278 0 0)
(0.0129065 0 0)
(0.0135601 0 0)
(0.0140951 0 0)
(0.0145161 0 0)
(0.014826 0 0)
(0.0150261 0 0)
(0.0151157 0 0)
(0.0150924 0 0)
(0.0149518 0 0)
(0.0146876 0 0)
(0.0142911 0 0)
(0.0137521 0 0)
(0.0130586 0 0)
(0.0121982 0 0)
(0.0111597 0 0)
(0.00993673 0 0)
(0.00853307 0 0)
(0.00697245 0 0)
(0.0053153 0 0)
(0.00369143 0 0)
(0.00238256 0 0)
(0 0 0)
(0 0 0)
(0.00220332 0 2.35912e-06)
(0.00421535 0 4.54239e-06)
(0.00599518 0 6.52872e-06)
(0.00756631 0 8.36633e-06)
(0.0089492 0 1.01066e-05)
(0.0101614 0 1.18072e-05)
(0.0112177 0 1.35364e-05)
(0.0121308 0 1.53783e-05)
(0.0129109 0 1.74382e-05)
(0.0135664 0 1.98506e-05)
(0.0141038 0 2.2788e-05)
(0.0145278 0 2.6473e-05)
(0.0148416 0 3.11931e-05)
(0.0150466 0 3.73197e-05)
(0.0151424 0 4.53318e-05)
(0.0151272 0 5.58461e-05)
(0.0149969 0 6.9653e-05)
(0.014746 0 8.77603e-05)
(0.0143667 0 0.000111443)
(0.0138499 0 0.000142301)
(0.013185 0 0.000182312)
(0.0123614 0 0.000233885)
(0.0113701 0 0.000299882)
(0.0102074 0 0.00038358)
(0.00888006 0 0.000488478)
(0.00741573 0 0.000617734)
(0.00587906 0 0.000772591)
(0.00440253 0 0.000947854)
(0.00325458 0 0.00111788)
(0.0016204 0 0.00147597)
(0 0 0)
(0.00220342 0 4.70863e-06)
(0.0042158 0 9.06457e-06)
(0.00599626 0 1.3025e-05)
(0.00756837 0 1.66851e-05)
(0.00895265 0 2.0146e-05)
(0.0101667 0 2.35206e-05)
(0.0112256 0 2.69425e-05)
(0.012142 0 3.05751e-05)
(0.0129263 0 3.4623e-05)
(0.0135872 0 3.93465e-05)
(0.0141315 0 4.50787e-05)
(0.0145643 0 5.22478e-05)
(0.0148893 0 6.14054e-05)
(0.0151085 0 7.3261e-05)
(0.0152226 0 8.8727e-05)
(0.0152307 0 0.000108972)
(0.0151304 0 0.000135488)
(0.0149182 0 0.000170166)
(0.0145888 0 0.000215383)
(0.0141363 0 0.000274094)
(0.0135542 0 0.000349914)
(0.0128368 0 0.000447167)
(0.0119811 0 0.000570858)
(0.01099 0 0.000726466)
(0.00987827 0 0.000919336)
(0.00868094 0 0.00115319)
(0.00746762 0 0.00142658)
(0.00636405 0 0.00172427)
(0.00558717 0 0.00199583)
(0.00454868 0 0.00245356)
(0 0 0)
(0.0022042 0 7.0321e-06)
(0.0042176 0 1.35339e-05)
(0.00599945 0 1.94393e-05)
(0.00757341 0 2.48881e-05)
(0.00896016 0 3.00273e-05)
(0.0101775 0 3.50207e-05)
(0.0112405 0 4.00609e-05)
(0.0121622 0 4.5382e-05)
(0.0129534 0 5.1276e-05)
(0.013623 0 5.81125e-05)
(0.0141783 0 6.63618e-05)
(0.0146252 0 7.66256e-05)
(0.0149679 0 8.9674e-05)
(0.0152098 0 0.000106492)
(0.0153528 0 0.000128338)
(0.0153979 0 0.000156812)
(0.0153452 0 0.000193937)
(0.0151938 0 0.000242257)
(0.0149426 0 0.000304932)
(0.0145905 0 0.000385828)
(0.0141369 0 0.000489585)
(0.0135831 0 0.000621593)
(0.0129345 0 0.000787814)
(0.0122028 0 0.000994262)
(0.0114111 0 0.00124582)
(0.0105994 0 0.00154376)
(0.00983263 0 0.0018806)
(0.00920724 0 0.0022299)
(0.00885349 0 0.00252635)
(0.0084229 0 0.00296822)
(0 0 0)
(0.00220536 0 9.31223e-06)
(0.0042202 0 1.79165e-05)
(0.00600395 0 2.5721e-05)
(0.00758046 0 3.29058e-05)
(0.00897056 0 3.96591e-05)
(0.0101923 0 4.6189e-05)
(0.011261 0 5.27379e-05)
(0.0121899 0 5.95989e-05)
(0.0129903 0 6.71346e-05)
(0.0136716 0 7.58003e-05)
(0.0142417 0 8.61715e-05)
(0.0147072 0 9.89783e-05)
(0.0150736 0 0.000115147)
(0.0153454 0 0.000135853)
(0.0155263 0 0.00016258)
(0.0156197 0 0.000197196)
(0.0156284 0 0.000242034)
(0.0155553 0 0.000299984)
(0.015404 0 0.000374573)
(0.0151789 0 0.000470026)
(0.0148864 0 0.000591261)
(0.0145359 0 0.00074375)
(0.0141413 0 0.000933131)
(0.0137228 0 0.00116436)
(0.0133092 0 0.00144003)
(0.0129398 0 0.00175733)
(0.0126634 0 0.00210261)
(0.0125314 0 0.00244253)
(0.0125771 0 0.00271102)
(0.0126912 0 0.00307599)
(0 0 0)
(0.00220684 0 1.15337e-05)
(0.00422348 0 2.21821e-05)
(0.0060096 0 3.18246e-05)
(0.00758925 0 4.06763e-05)
(0.00898349 0 4.89604e-05)
(0.0102106 0 5.69211e-05)
(0.0112863 0 6.48399e-05)
(0.0122241 0 7.3054e-05)
(0.0130357 0 8.19762e-05)
(0.0137312 0 9.21198e-05)
(0.0143191 0 0.000104127)
(0.0148071 0 0.000118803)
(0.0152017 0 0.000137159)
(0.0155089 0 0.000160458)
(0.0157346 0 0.000190276)
(0.0158842 0 0.000228563)
(0.0159639 0 0.000277714)
(0.0159805 0 0.000340631)
(0.0159422 0 0.000420773)
(0.0158592 0 0.000522153)
(0.0157447 0 0.000649243)
(0.0156155 0 0.000806711)
(0.0154929 0 0.000998844)
(0.0154034 0 0.00122848)
(0.0153775 0 0.00149516)
(0.0154474 0 0.00179212)
(0.0156384 0 0.00210194)
(0.0159505 0 0.00239082)
(0.0163268 0 0.00260306)
(0.016868 0 0.00287087)
(0 0 0)
(0.00220859 0 1.36818e-05)
(0.00422733 0 2.63021e-05)
(0.00601618 0 3.77075e-05)
(0.00759945 0 4.81425e-05)
(0.00899848 0 5.78578e-05)
(0.0102318 0 6.71246e-05)
(0.0113155 0 7.62518e-05)
(0.0122635 0 8.56038e-05)
(0.013088 0 9.56221e-05)
(0.0137996 0 0.000106847)
(0.0144077 0 0.000119948)
(0.0149208 0 0.000135748)
(0.0153468 0 0.000155266)
(0.0156932 0 0.000179754)
(0.0159676 0 0.000210741)
(0.016178 0 0.000250077)
(0.0163334 0 0.000299979)
(0.0164441 0 0.000363051)
(0.0165228 0 0.000442287)
(0.0165845 0 0.000540998)
(0.0166481 0 0.000662639)
(0.0167361 0 0.000810444)
(0.016875 0 0.000986765)
(0.0170938 0 0.00119197)
(0.0174212 0 0.00142278)
(0.0178779 0 0.00166988)
(0.0184629 0 0.00191527)
(0.019129 0 0.00213015)
(0.0197467 0 0.00227533)
(0.0205975 0 0.0024473)
(0 0 0)
(0.00221052 0 1.57432e-05)
(0.00423155 0 3.02502e-05)
(0.0060234 0 4.33313e-05)
(0.00761066 0 5.52535e-05)
(0.00901495 0 6.62878e-05)
(0.0102551 0 7.67227e-05)
(0.0113476 0 8.68816e-05)
(0.0123068 0 9.71404e-05)
(0.0131453 0 0.000107946)
(0.0138743 0 0.000119838)
(0.0145041 0 0.000133468)
(0.015044 0 0.000149629)
(0.0155031 0 0.000169276)
(0.0158903 0 0.000193554)
(0.0162148 0 0.000223823)
(0.0164867 0 0.000261677)
(0.0167175 0 0.00030895)
(0.0169204 0 0.000367701)
(0.0171111 0 0.000440157)
(0.0173085 0 0.000528589)
(0.017535 0 0.000635078)
(0.0178163 0 0.000761131)
(0.0181809 0 0.000907047)
(0.0186574 0 0.00107101)
(0.0192692 0 0.00124781)
(0.020024 0 0.00142751)
(0.0208969 0 0.00159433)
(0.0218044 0 0.00172742)
(0.0225695 0 0.00180537)
(0.0236127 0 0.00187925)
(0 0 0)
(0.00221252 0 1.77061e-05)
(0.00423594 0 3.40035e-05)
(0.00603092 0 4.86627e-05)
(0.00762239 0 6.19669e-05)
(0.00903226 0 7.41992e-05)
(0.0102797 0 8.56563e-05)
(0.0113815 0 9.66643e-05)
(0.0123524 0 0.000107594)
(0.0132055 0 0.000118879)
(0.0139527 0 0.000131028)
(0.0146048 0 0.000144644)
(0.0151721 0 0.00016044)
(0.0156644 0 0.000179247)
(0.016092 0 0.00020203)
(0.0164655 0 0.000229885)
(0.0167963 0 0.00026403)
(0.0170978 0 0.00030578)
(0.0173849 0 0.000356485)
(0.0176754 0 0.000417431)
(0.0179897 0 0.000489684)
(0.0183515 0 0.000573842)
(0.018787 0 0.000669691)
(0.0193236 0 0.000775739)
(0.0199864 0 0.00088864)
(0.0207914 0 0.00100257)
(0.0217346 0 0.00110879)
(0.0227735 0 0.00119592)
(0.0238024 0 0.00125213)
(0.024623 0 0.00127149)
(0.0257258 0 0.00125385)
(0 0 0)
(0.00221448 0 1.95601e-05)
(0.00424026 0 3.75425e-05)
(0.00603838 0 5.36746e-05)
(0.00763411 0 6.8249e-05)
(0.00904968 0 8.15541e-05)
(0.0103045 0 9.3886e-05)
(0.0114158 0 0.000105563)
(0.0123987 0 0.000116936)
(0.0132666 0 0.000128408)
(0.014032 0 0.000140436)
(0.0147063 0 0.000153545)
(0.0153003 0 0.000168332)
(0.0158249 0 0.000185465)
(0.0162908 0 0.000205674)
(0.0167098 0 0.000229732)
(0.0170942 0 0.000258418)
(0.0174581 0 0.000292457)
(0.0178172 0 0.00033243)
(0.0181895 0 0.000378645)
(0.0185954 0 0.00043097)
(0.0190572 0 0.000488611)
(0.0195989 0 0.000549877)
(0.0202439 0 0.000611945)
(0.0210113 0 0.000670726)
(0.0219098 0 0.00072096)
(0.0229263 0 0.000756731)
(0.0240096 0 0.000772686)
(0.0250478 0 0.000766503)
(0.0258453 0 0.000744258)
(0.02686 0 0.000668247)
(0 0 0)
(0.00221626 0 2.12971e-05)
(0.00424424 0 4.0852e-05)
(0.00604537 0 5.83463e-05)
(0.00764526 0 7.4076e-05)
(0.00906646 0 8.83285e-05)
(0.0103287 0 0.000101392)
(0.0114494 0 0.000113566)
(0.012444 0 0.000125175)
(0.0133265 0 0.000136574)
(0.0141096 0 0.000148153)
(0.0148051 0 0.000160341)
(0.0154245 0 0.000173598)
(0.0159789 0 0.000188402)
(0.0164799 0 0.000205228)
(0.0169392 0 0.000224504)
(0.0173698 0 0.000246558)
(0.0177854 0 0.00027153)
(0.0182016 0 0.000299269)
(0.018635 0 0.000329189)
(0.0191039 0 0.000360109)
(0.0196276 0 0.000390096)
(0.0202252 0 0.000416339)
(0.0209137 0 0.000435177)
(0.0217052 0 0.000442389)
(0.022601 0 0.000433978)
(0.0235832 0 0.000407614)
(0.024602 0 0.000364731)
(0.0255569 0 0.000312816)
(0.0262762 0 0.000267197)
(0.0271582 0 0.000192711)
(0 0 0)
(0.00221772 0 2.2911e-05)
(0.00424758 0 4.39209e-05)
(0.00605145 0 6.26636e-05)
(0.00765527 0 7.94336e-05)
(0.00908184 0 9.45117e-05)
(0.0103512 0 0.000108172)
(0.011481 0 0.00012069)
(0.0124869 0 0.000132353)
(0.0133832 0 0.000143462)
(0.0141829 0 0.00015433)
(0.0148982 0 0.00016528)
(0.0155407 0 0.000176628)
(0.016122 0 0.00018866)
(0.0166534 0 0.000201595)
(0.017147 0 0.000215537)
(0.017615 0 0.000230396)
(0.0180707 0 0.0002458)
(0.0185279 0 0.000260981)
(0.0190012 0 0.000274636)
(0.0195052 0 0.0002848)
(0.0200545 0 0.000288737)
(0.0206617 0 0.000282935)
(0.0213361 0 0.0002633)
(0.0220814 0 0.000225749)
(0.022892 0 0.000167449)
(0.0237486 0 8.89748e-05)
(0.0246113 0 -2.63519e-06)
(0.0254071 0 -9.11428e-05)
(0.0260087 0 -0.00015268)
(0.0267651 0 -0.000205926)
(0 0 0)
(0.00221869 0 2.43974e-05)
(0.00425 0 4.67418e-05)
(0.00605619 0 6.66186e-05)
(0.00766353 0 8.43165e-05)
(0.00909507 0 0.000100105)
(0.010371 0 0.00011424)
(0.0115093 0 0.000126969)
(0.0125258 0 0.000138538)
(0.0134349 0 0.00014919)
(0.0142498 0 0.00015916)
(0.0149828 0 0.000168663)
(0.0156458 0 0.000177878)
(0.0162501 0 0.00018691)
(0.0168071 0 0.000195753)
(0.0173281 0 0.000204227)
(0.0178247 0 0.000211907)
(0.0183087 0 0.000218023)
(0.0187917 0 0.000221361)
(0.0192853 0 0.000220149)
(0.0197999 0 0.000211956)
(0.0203443 0 0.000193647)
(0.020924 0 0.000161438)
(0.02154 0 0.000111162)
(0.0221869 0 3.88992e-05)
(0.022852 0 -5.7761e-05)
(0.0235144 0 -0.000177462)
(0.0241463 0 -0.000311432)
(0.0247104 0 -0.000438951)
(0.0251445 0 -0.000526948)
(0.0257758 0 -0.0005733)
(0 0 0)
(0.00221903 0 2.57537e-05)
(0.0042512 0 4.9311e-05)
(0.00605916 0 7.02088e-05)
(0.00766948 0 8.87264e-05)
(0.00910542 0 0.00010512)
(0.0103874 0 0.000119623)
(0.0115333 0 0.000132455)
(0.0125593 0 0.000143819)
(0.0134799 0 0.000153901)
(0.0143083 0 0.00016286)
(0.0150568 0 0.000170815)
(0.0157372 0 0.000177821)
(0.0163606 0 0.000183832)
(0.0169379 0 0.000188659)
(0.0174796 0 0.000191909)
(0.0179962 0 0.000192917)
(0.0184976 0 0.000190663)
(0.0189931 0 0.000183689)
(0.0194908 0 0.000170021)
(0.0199968 0 0.000147114)
(0.0205142 0 0.000111853)
(0.0210417 0 6.06495e-05)
(0.0215724 0 -1.03145e-05)
(0.0220926 0 -0.000104618)
(0.0225816 0 -0.000224789)
(0.0230139 0 -0.000370872)
(0.0233654 0 -0.000537634)
(0.0236252 0 -0.00070857)
(0.0238041 0 -0.000845111)
(0.0242198 0 -0.00097792)
(0 0 0)
(0.00221858 0 2.69787e-05)
(0.00425087 0 5.16274e-05)
(0.00605994 0 7.34355e-05)
(0.00767258 0 9.26707e-05)
(0.00911221 0 0.000109573)
(0.0103993 0 0.000124357)
(0.011552 0 0.000137209)
(0.0125863 0 0.000148293)
(0.0135169 0 0.000157743)
(0.0143568 0 0.000165653)
(0.0151184 0 0.00017206)
(0.015813 0 0.000176918)
(0.0164515 0 0.000180067)
(0.017044 0 0.000181188)
(0.0176001 0 0.000179754)
(0.018129 0 0.000174973)
(0.0186386 0 0.000165723)
(0.0191358 0 0.000150505)
(0.0196256 0 0.000127402)
(0.02011 0 9.408e-05)
(0.0205875 0 4.78477e-05)
(0.0210514 0 -1.42093e-05)
(0.021489 0 -9.49925e-05)
(0.0218804 0 -0.00019707)
(0.0221987 0 -0.000322342)
(0.0224122 0 -0.000471811)
(0.0224911 0 -0.000645385)
(0.0224236 0 -0.000839575)
(0.0222587 0 -0.00102862)
(0.0219505 0 -0.00135899)
(0 0 0)
(0.00221715 0 2.80819e-05)
(0.00424869 0 5.37106e-05)
(0.00605808 0 7.63294e-05)
(0.00767228 0 9.61928e-05)
(0.00911481 0 0.000113525)
(0.0104062 0 0.000128518)
(0.0115646 0 0.000141332)
(0.012606 0 0.000152095)
(0.0135449 0 0.000160896)
(0.0143944 0 0.000167775)
(0.0151666 0 0.000172705)
(0.0158724 0 0.000175569)
(0.0165221 0 0.000176132)
(0.0171252 0 0.000174003)
(0.0176903 0 0.000168599)
(0.0182249 0 0.000159104)
(0.0187354 0 0.000144435)
(0.0192263 0 0.000123225)
(0.0197001 0 9.3833e-05)
(0.0201557 0 5.44018e-05)
(0.0205883 0 2.981e-06)
(0.0209882 0 -6.22651e-05)
(0.0213396 0 -0.000142751)
(0.0216209 0 -0.000239046)
(0.0218045 0 -0.000350356)
(0.0218593 0 -0.000473855)
(0.0217551 0 -0.000603425)
(0.0214747 0 -0.00072616)
(0.0210549 0 -0.000805058)
(0.0192689 0 -0.00154161)
(0 0 0)
(0.00220361 0 0)
(0.00421569 0 0)
(0.00599541 0 0)
(0.0075663 0 0)
(0.00894879 0 0)
(0.0101604 0 0)
(0.0112159 0 0)
(0.0121278 0 0)
(0.0129065 0 0)
(0.0135601 0 0)
(0.0140951 0 0)
(0.0145161 0 0)
(0.014826 0 0)
(0.0150261 0 0)
(0.0151157 0 0)
(0.0150924 0 0)
(0.0149518 0 0)
(0.0146876 0 0)
(0.0142911 0 0)
(0.0137521 0 0)
(0.0130586 0 0)
(0.0121982 0 0)
(0.0111597 0 0)
(0.00993673 0 0)
(0.00853307 0 0)
(0.00697245 0 0)
(0.0053153 0 0)
(0.00369143 0 0)
(0.00238256 0 0)
(0 0 0)
(0 0 0)
(0.00220332 0 2.35912e-06)
(0.00421535 0 4.54239e-06)
(0.00599518 0 6.52872e-06)
(0.00756631 0 8.36633e-06)
(0.0089492 0 1.01066e-05)
(0.0101614 0 1.18072e-05)
(0.0112177 0 1.35364e-05)
(0.0121308 0 1.53783e-05)
(0.0129109 0 1.74382e-05)
(0.0135664 0 1.98506e-05)
(0.0141038 0 2.2788e-05)
(0.0145278 0 2.6473e-05)
(0.0148416 0 3.11931e-05)
(0.0150466 0 3.73197e-05)
(0.0151424 0 4.53318e-05)
(0.0151272 0 5.58461e-05)
(0.0149969 0 6.9653e-05)
(0.014746 0 8.77603e-05)
(0.0143667 0 0.000111443)
(0.0138499 0 0.000142301)
(0.013185 0 0.000182312)
(0.0123614 0 0.000233885)
(0.0113701 0 0.000299882)
(0.0102074 0 0.00038358)
(0.00888006 0 0.000488478)
(0.00741573 0 0.000617734)
(0.00587906 0 0.000772591)
(0.00440253 0 0.000947854)
(0.00325458 0 0.00111788)
(0.0016204 0 0.00147597)
(0 0 0)
(0.00220342 0 4.70863e-06)
(0.0042158 0 9.06457e-06)
(0.00599626 0 1.3025e-05)
(0.00756837 0 1.66851e-05)
(0.00895265 0 2.0146e-05)
(0.0101667 0 2.35206e-05)
(0.0112256 0 2.69425e-05)
(0.012142 0 3.05751e-05)
(0.0129263 0 3.4623e-05)
(0.0135872 0 3.93465e-05)
(0.0141315 0 4.50787e-05)
(0.0145643 0 5.22478e-05)
(0.0148893 0 6.14054e-05)
(0.0151085 0 7.3261e-05)
(0.0152226 0 8.8727e-05)
(0.0152307 0 0.000108972)
(0.0151304 0 0.000135488)
(0.0149182 0 0.000170166)
(0.0145888 0 0.000215383)
(0.0141363 0 0.000274094)
(0.0135542 0 0.000349914)
(0.0128368 0 0.000447167)
(0.0119811 0 0.000570858)
(0.01099 0 0.000726466)
(0.00987827 0 0.000919336)
(0.00868094 0 0.00115319)
(0.00746762 0 0.00142658)
(0.00636405 0 0.00172427)
(0.00558717 0 0.00199583)
(0.00454868 0 0.00245356)
(0 0 0)
(0.0022042 0 7.0321e-06)
(0.0042176 0 1.35339e-05)
(0.00599945 0 1.94393e-05)
(0.00757341 0 2.48881e-05)
(0.00896016 0 3.00273e-05)
(0.0101775 0 3.50207e-05)
(0.0112405 0 4.00609e-05)
(0.0121622 0 4.5382e-05)
(0.0129534 0 5.1276e-05)
(0.013623 0 5.81125e-05)
(0.0141783 0 6.63618e-05)
(0.0146252 0 7.66256e-05)
(0.0149679 0 8.9674e-05)
(0.0152098 0 0.000106492)
(0.0153528 0 0.000128338)
(0.0153979 0 0.000156812)
(0.0153452 0 0.000193937)
(0.0151938 0 0.000242257)
(0.0149426 0 0.000304932)
(0.0145905 0 0.000385828)
(0.0141369 0 0.000489585)
(0.0135831 0 0.000621593)
(0.0129345 0 0.000787814)
(0.0122028 0 0.000994262)
(0.0114111 0 0.00124582)
(0.0105994 0 0.00154376)
(0.00983263 0 0.0018806)
(0.00920724 0 0.0022299)
(0.00885349 0 0.00252635)
(0.0084229 0 0.00296822)
(0 0 0)
(0.00220536 0 9.31223e-06)
(0.0042202 0 1.79165e-05)
(0.00600395 0 2.5721e-05)
(0.00758046 0 3.29058e-05)
(0.00897056 0 3.96591e-05)
(0.0101923 0 4.6189e-05)
(0.011261 0 5.27379e-05)
(0.0121899 0 5.95989e-05)
(0.0129903 0 6.71346e-05)
(0.0136716 0 7.58003e-05)
(0.0142417 0 8.61715e-05)
(0.0147072 0 9.89783e-05)
(0.0150736 0 0.000115147)
(0.0153454 0 0.000135853)
(0.0155263 0 0.00016258)
(0.0156197 0 0.000197196)
(0.0156284 0 0.000242034)
(0.0155553 0 0.000299984)
(0.015404 0 0.000374573)
(0.0151789 0 0.000470026)
(0.0148864 0 0.000591261)
(0.0145359 0 0.00074375)
(0.0141413 0 0.000933131)
(0.0137228 0 0.00116436)
(0.0133092 0 0.00144003)
(0.0129398 0 0.00175733)
(0.0126634 0 0.00210261)
(0.0125314 0 0.00244253)
(0.0125771 0 0.00271102)
(0.0126912 0 0.00307599)
(0 0 0)
(0.00220684 0 1.15337e-05)
(0.00422348 0 2.21821e-05)
(0.0060096 0 3.18246e-05)
(0.00758925 0 4.06763e-05)
(0.00898349 0 4.89604e-05)
(0.0102106 0 5.69211e-05)
(0.0112863 0 6.48399e-05)
(0.0122241 0 7.3054e-05)
(0.0130357 0 8.19762e-05)
(0.0137312 0 9.21198e-05)
(0.0143191 0 0.000104127)
(0.0148071 0 0.000118803)
(0.0152017 0 0.000137159)
(0.0155089 0 0.000160458)
(0.0157346 0 0.000190276)
(0.0158842 0 0.000228563)
(0.0159639 0 0.000277714)
(0.0159805 0 0.000340631)
(0.0159422 0 0.000420773)
(0.0158592 0 0.000522153)
(0.0157447 0 0.000649243)
(0.0156155 0 0.000806711)
(0.0154929 0 0.000998844)
(0.0154034 0 0.00122848)
(0.0153775 0 0.00149516)
(0.0154474 0 0.00179212)
(0.0156384 0 0.00210194)
(0.0159505 0 0.00239082)
(0.0163268 0 0.00260306)
(0.016868 0 0.00287087)
(0 0 0)
(0.00220859 0 1.36818e-05)
(0.00422733 0 2.63021e-05)
(0.00601618 0 3.77075e-05)
(0.00759945 0 4.81425e-05)
(0.00899848 0 5.78578e-05)
(0.0102318 0 6.71246e-05)
(0.0113155 0 7.62518e-05)
(0.0122635 0 8.56038e-05)
(0.013088 0 9.56221e-05)
(0.0137996 0 0.000106847)
(0.0144077 0 0.000119948)
(0.0149208 0 0.000135748)
(0.0153468 0 0.000155266)
(0.0156932 0 0.000179754)
(0.0159676 0 0.000210741)
(0.016178 0 0.000250077)
(0.0163334 0 0.000299979)
(0.0164441 0 0.000363051)
(0.0165228 0 0.000442287)
(0.0165845 0 0.000540998)
(0.0166481 0 0.000662639)
(0.0167361 0 0.000810444)
(0.016875 0 0.000986765)
(0.0170938 0 0.00119197)
(0.0174212 0 0.00142278)
(0.0178779 0 0.00166988)
(0.0184629 0 0.00191527)
(0.019129 0 0.00213015)
(0.0197467 0 0.00227533)
(0.0205975 0 0.0024473)
(0 0 0)
(0.00221052 0 1.57432e-05)
(0.00423155 0 3.02502e-05)
(0.0060234 0 4.33313e-05)
(0.00761066 0 5.52535e-05)
(0.00901495 0 6.62878e-05)
(0.0102551 0 7.67227e-05)
(0.0113476 0 8.68816e-05)
(0.0123068 0 9.71404e-05)
(0.0131453 0 0.000107946)
(0.0138743 0 0.000119838)
(0.0145041 0 0.000133468)
(0.015044 0 0.000149629)
(0.0155031 0 0.000169276)
(0.0158903 0 0.000193554)
(0.0162148 0 0.000223823)
(0.0164867 0 0.000261677)
(0.0167175 0 0.00030895)
(0.0169204 0 0.000367701)
(0.0171111 0 0.000440157)
(0.0173085 0 0.000528589)
(0.017535 0 0.000635078)
(0.0178163 0 0.000761131)
(0.0181809 0 0.000907047)
(0.0186574 0 0.00107101)
(0.0192692 0 0.00124781)
(0.020024 0 0.00142751)
(0.0208969 0 0.00159433)
(0.0218044 0 0.00172742)
(0.0225695 0 0.00180537)
(0.0236127 0 0.00187925)
(0 0 0)
(0.00221252 0 1.77061e-05)
(0.00423594 0 3.40035e-05)
(0.00603092 0 4.86627e-05)
(0.00762239 0 6.19669e-05)
(0.00903226 0 7.41992e-05)
(0.0102797 0 8.56563e-05)
(0.0113815 0 9.66643e-05)
(0.0123524 0 0.000107594)
(0.0132055 0 0.000118879)
(0.0139527 0 0.000131028)
(0.0146048 0 0.000144644)
(0.0151721 0 0.00016044)
(0.0156644 0 0.000179247)
(0.016092 0 0.00020203)
(0.0164655 0 0.000229885)
(0.0167963 0 0.00026403)
(0.0170978 0 0.00030578)
(0.0173849 0 0.000356485)
(0.0176754 0 0.000417431)
(0.0179897 0 0.000489684)
(0.0183515 0 0.000573842)
(0.018787 0 0.000669691)
(0.0193236 0 0.000775739)
(0.0199864 0 0.00088864)
(0.0207914 0 0.00100257)
(0.0217346 0 0.00110879)
(0.0227735 0 0.00119592)
(0.0238024 0 0.00125213)
(0.024623 0 0.00127149)
(0.0257258 0 0.00125385)
(0 0 0)
(0.00221448 0 1.95601e-05)
(0.00424026 0 3.75425e-05)
(0.00603838 0 5.36746e-05)
(0.00763411 0 6.8249e-05)
(0.00904968 0 8.15541e-05)
(0.0103045 0 9.3886e-05)
(0.0114158 0 0.000105563)
(0.0123987 0 0.000116936)
(0.0132666 0 0.000128408)
(0.014032 0 0.000140436)
(0.0147063 0 0.000153545)
(0.0153003 0 0.000168332)
(0.0158249 0 0.000185465)
(0.0162908 0 0.000205674)
(0.0167098 0 0.000229732)
(0.0170942 0 0.000258418)
(0.0174581 0 0.000292457)
(0.0178172 0 0.00033243)
(0.0181895 0 0.000378645)
(0.0185954 0 0.00043097)
(0.0190572 0 0.000488611)
(0.0195989 0 0.000549877)
(0.0202439 0 0.000611945)
(0.0210113 0 0.000670726)
(0.0219098 0 0.00072096)
(0.0229263 0 0.000756731)
(0.0240096 0 0.000772686)
(0.0250478 0 0.000766503)
(0.0258453 0 0.000744258)
(0.02686 0 0.000668247)
(0 0 0)
(0.00221626 0 2.12971e-05)
(0.00424424 0 4.0852e-05)
(0.00604537 0 5.83463e-05)
(0.00764526 0 7.4076e-05)
(0.00906646 0 8.83285e-05)
(0.0103287 0 0.000101392)
(0.0114494 0 0.000113566)
(0.012444 0 0.000125175)
(0.0133265 0 0.000136574)
(0.0141096 0 0.000148153)
(0.0148051 0 0.000160341)
(0.0154245 0 0.000173598)
(0.0159789 0 0.000188402)
(0.0164799 0 0.000205228)
(0.0169392 0 0.000224504)
(0.0173698 0 0.000246558)
(0.0177854 0 0.00027153)
(0.0182016 0 0.000299269)
(0.018635 0 0.000329189)
(0.0191039 0 0.000360109)
(0.0196276 0 0.000390096)
(0.0202252 0 0.000416339)
(0.0209137 0 0.000435177)
(0.0217052 0 0.000442389)
(0.022601 0 0.000433978)
(0.0235832 0 0.000407614)
(0.024602 0 0.000364731)
(0.0255569 0 0.000312816)
(0.0262762 0 0.000267197)
(0.0271582 0 0.000192711)
(0 0 0)
(0.00221772 0 2.2911e-05)
(0.00424758 0 4.39209e-05)
(0.00605145 0 6.26636e-05)
(0.00765527 0 7.94336e-05)
(0.00908184 0 9.45117e-05)
(0.0103512 0 0.000108172)
(0.011481 0 0.00012069)
(0.0124869 0 0.000132353)
(0.0133832 0 0.000143462)
(0.0141829 0 0.00015433)
(0.0148982 0 0.00016528)
(0.0155407 0 0.000176628)
(0.016122 0 0.00018866)
(0.0166534 0 0.000201595)
(0.017147 0 0.000215537)
(0.017615 0 0.000230396)
(0.0180707 0 0.0002458)
(0.0185279 0 0.000260981)
(0.0190012 0 0.000274636)
(0.0195052 0 0.0002848)
(0.0200545 0 0.000288737)
(0.0206617 0 0.000282935)
(0.0213361 0 0.0002633)
(0.0220814 0 0.000225749)
(0.022892 0 0.000167449)
(0.0237486 0 8.89748e-05)
(0.0246113 0 -2.63519e-06)
(0.0254071 0 -9.11428e-05)
(0.0260087 0 -0.00015268)
(0.0267651 0 -0.000205926)
(0 0 0)
(0.00221869 0 2.43974e-05)
(0.00425 0 4.67418e-05)
(0.00605619 0 6.66186e-05)
(0.00766353 0 8.43165e-05)
(0.00909507 0 0.000100105)
(0.010371 0 0.00011424)
(0.0115093 0 0.000126969)
(0.0125258 0 0.000138538)
(0.0134349 0 0.00014919)
(0.0142498 0 0.00015916)
(0.0149828 0 0.000168663)
(0.0156458 0 0.000177878)
(0.0162501 0 0.00018691)
(0.0168071 0 0.000195753)
(0.0173281 0 0.000204227)
(0.0178247 0 0.000211907)
(0.0183087 0 0.000218023)
(0.0187917 0 0.000221361)
(0.0192853 0 0.000220149)
(0.0197999 0 0.000211956)
(0.0203443 0 0.000193647)
(0.020924 0 0.000161438)
(0.02154 0 0.000111162)
(0.0221869 0 3.88992e-05)
(0.022852 0 -5.7761e-05)
(0.0235144 0 -0.000177462)
(0.0241463 0 -0.000311432)
(0.0247104 0 -0.000438951)
(0.0251445 0 -0.000526948)
(0.0257758 0 -0.0005733)
(0 0 0)
(0.00221903 0 2.57537e-05)
(0.0042512 0 4.9311e-05)
(0.00605916 0 7.02088e-05)
(0.00766948 0 8.87264e-05)
(0.00910542 0 0.00010512)
(0.0103874 0 0.000119623)
(0.0115333 0 0.000132455)
(0.0125593 0 0.000143819)
(0.0134799 0 0.000153901)
(0.0143083 0 0.00016286)
(0.0150568 0 0.000170815)
(0.0157372 0 0.000177821)
(0.0163606 0 0.000183832)
(0.0169379 0 0.000188659)
(0.0174796 0 0.000191909)
(0.0179962 0 0.000192917)
(0.0184976 0 0.000190663)
(0.0189931 0 0.000183689)
(0.0194908 0 0.000170021)
(0.0199968 0 0.000147114)
(0.0205142 0 0.000111853)
(0.0210417 0 6.06495e-05)
(0.0215724 0 -1.03145e-05)
(0.0220926 0 -0.000104618)
(0.0225816 0 -0.000224789)
(0.0230139 0 -0.000370872)
(0.0233654 0 -0.000537634)
(0.0236252 0 -0.00070857)
(0.0238041 0 -0.000845111)
(0.0242198 0 -0.00097792)
(0 0 0)
(0.00221858 0 2.69787e-05)
(0.00425087 0 5.16274e-05)
(0.00605994 0 7.34355e-05)
(0.00767258 0 9.26707e-05)
(0.00911221 0 0.000109573)
(0.0103993 0 0.000124357)
(0.011552 0 0.000137209)
(0.0125863 0 0.000148293)
(0.0135169 0 0.000157743)
(0.0143568 0 0.000165653)
(0.0151184 0 0.00017206)
(0.015813 0 0.000176918)
(0.0164515 0 0.000180067)
(0.017044 0 0.000181188)
(0.0176001 0 0.000179754)
(0.018129 0 0.000174973)
(0.0186386 0 0.000165723)
(0.0191358 0 0.000150505)
(0.0196256 0 0.000127402)
(0.02011 0 9.408e-05)
(0.0205875 0 4.78477e-05)
(0.0210514 0 -1.42093e-05)
(0.021489 0 -9.49925e-05)
(0.0218804 0 -0.00019707)
(0.0221987 0 -0.000322342)
(0.0224122 0 -0.000471811)
(0.0224911 0 -0.000645385)
(0.0224236 0 -0.000839575)
(0.0222587 0 -0.00102862)
(0.0219505 0 -0.00135899)
(0 0 0)
(0.00221715 0 2.80819e-05)
(0.00424869 0 5.37106e-05)
(0.00605808 0 7.63294e-05)
(0.00767228 0 9.61928e-05)
(0.00911481 0 0.000113525)
(0.0104062 0 0.000128518)
(0.0115646 0 0.000141332)
(0.012606 0 0.000152095)
(0.0135449 0 0.000160896)
(0.0143944 0 0.000167775)
(0.0151666 0 0.000172705)
(0.0158724 0 0.000175569)
(0.0165221 0 0.000176132)
(0.0171252 0 0.000174003)
(0.0176903 0 0.000168599)
(0.0182249 0 0.000159104)
(0.0187354 0 0.000144435)
(0.0192263 0 0.000123225)
(0.0197001 0 9.3833e-05)
(0.0201557 0 5.44018e-05)
(0.0205883 0 2.981e-06)
(0.0209882 0 -6.22651e-05)
(0.0213396 0 -0.000142751)
(0.0216209 0 -0.000239046)
(0.0218045 0 -0.000350356)
(0.0218593 0 -0.000473855)
(0.0217551 0 -0.000603425)
(0.0214747 0 -0.00072616)
(0.0210549 0 -0.000805058)
(0.0192689 0 -0.00154161)
(0 0 0)
(0.00255541 0 0)
(0.00407787 0 0)
(0.00593808 0 0)
(0.00781055 0 0)
(0.00953665 0 0)
(0.0110503 0 0)
(0.0123336 0 0)
(0.0133929 0 0)
(0.0142447 0 0)
(0.0149086 0 0)
(0.0154038 0 0)
(0.0157472 0 0)
(0.0159528 0 0)
(0.0160314 0 0)
(0.015991 0 0)
(0.0158371 0 0)
(0.0155727 0 0)
(0.0151988 0 0)
(0.0147143 0 0)
(0.0141164 0 0)
(0.0134005 0 0)
(0.0125602 0 0)
(0.0115874 0 0)
(0.0104718 0 0)
(0.00920131 0 0)
(0.00776153 0 0)
(0.00613568 0 0)
(0.00430445 0 0)
(0.00224568 0 0)
(0 0 0)
(0.00151589 0 -0.00137423)
(0.00340352 0 -0.00106266)
(0.00479826 0 -0.000926518)
(0.00652165 0 -0.00076634)
(0.0082723 0 -0.000614503)
(0.00989685 0 -0.000482118)
(0.0113286 0 -0.000371663)
(0.0125474 0 -0.000281994)
(0.0135565 0 -0.00021057)
(0.0143695 0 -0.000154487)
(0.0150037 0 -0.000110951)
(0.0154762 0 -7.7485e-05)
(0.0158023 0 -5.19893e-05)
(0.0159947 0 -3.27377e-05)
(0.0160631 0 -1.83412e-05)
(0.016015 0 -7.69917e-06)
(0.0158552 0 4.91201e-08)
(0.0155862 0 5.57054e-06)
(0.0152087 0 9.37743e-06)
(0.0147215 0 1.18606e-05)
(0.0141215 0 1.33162e-05)
(0.013404 0 1.39668e-05)
(0.0125625 0 1.39783e-05)
(0.0115887 0 1.34723e-05)
(0.0104725 0 1.25363e-05)
(0.00920156 0 1.12302e-05)
(0.0077615 0 9.59231e-06)
(0.00613553 0 7.6428e-06)
(0.0043043 0 5.38702e-06)
(0.00224558 0 2.81769e-06)
(0 0 0)
(0.0043714 0 -0.00230118)
(0.0056933 0 -0.00191165)
(0.00678521 0 -0.00168487)
(0.00815671 0 -0.00140808)
(0.00957952 0 -0.00113827)
(0.0109239 0 -0.000898551)
(0.0121267 0 -0.00069591)
(0.013163 0 -0.000529838)
(0.0140292 0 -0.000396603)
(0.0147314 0 -0.000291389)
(0.0152804 0 -0.000209337)
(0.0156877 0 -0.00014602)
(0.015964 0 -9.76253e-05)
(0.0161182 0 -6.09834e-05)
(0.0161575 0 -3.35204e-05)
(0.0160871 0 -1.31846e-05)
(0.01591 0 1.63787e-06)
(0.0156278 0 1.22028e-05)
(0.0152401 0 1.94789e-05)
(0.014745 0 2.42075e-05)
(0.0141389 0 2.69523e-05)
(0.0134166 0 2.81378e-05)
(0.0125715 0 2.80813e-05)
(0.011595 0 2.70158e-05)
(0.0104767 0 2.51085e-05)
(0.00920431 0 2.24743e-05)
(0.00776323 0 1.91858e-05)
(0.00613659 0 1.52809e-05)
(0.00430493 0 1.07681e-05)
(0.00224591 0 5.63146e-06)
(0 0 0)
(0.00819548 0 -0.00284327)
(0.00892676 0 -0.00244813)
(0.00964842 0 -0.0021815)
(0.0105575 0 -0.00184507)
(0.0115278 0 -0.00150708)
(0.0124729 0 -0.00119978)
(0.0133419 0 -0.00093543)
(0.0141082 0 -0.000715827)
(0.0147601 0 -0.000537735)
(0.0152948 0 -0.000395855)
(0.0157139 0 -0.000284393)
(0.0160209 0 -0.000197846)
(0.01622 0 -0.000131346)
(0.016315 0 -8.07701e-05)
(0.0163088 0 -4.27243e-05)
(0.0162033 0 -1.44734e-05)
(0.0159993 0 6.15333e-06)
(0.0156962 0 2.0858e-05)
(0.0152923 0 3.09622e-05)
(0.0147847 0 3.74837e-05)
(0.0141688 0 4.11997e-05)
(0.013439 0 4.26989e-05)
(0.0125881 0 4.24219e-05)
(0.0116071 0 4.06937e-05)
(0.0104854 0 3.77474e-05)
(0.00921038 0 3.37427e-05)
(0.00776741 0 2.87796e-05)
(0.00613937 0 2.29082e-05)
(0.00430668 0 1.61367e-05)
(0.00224678 0 8.4372e-06)
(0 0 0)
(0.0124454 0 -0.00303077)
(0.0126281 0 -0.0026656)
(0.0129624 0 -0.00239555)
(0.0133795 0 -0.00204866)
(0.0138534 0 -0.0016915)
(0.0143481 0 -0.00135941)
(0.0148317 0 -0.00106822)
(0.0152799 0 -0.000822413)
(0.0156755 0 -0.000620365)
(0.0160068 0 -0.000457548)
(0.0162661 0 -0.000328379)
(0.0164487 0 -0.000227232)
(0.0165511 0 -0.000148947)
(0.0165711 0 -8.90387e-05)
(0.0165069 0 -4.37443e-05)
(0.0163563 0 -9.98397e-06)
(0.0161173 0 1.4718e-05)
(0.015787 0 3.23243e-05)
(0.0153619 0 4.43738e-05)
(0.0148377 0 5.20613e-05)
(0.0142089 0 5.63063e-05)
(0.0134691 0 5.78094e-05)
(0.0126103 0 5.7098e-05)
(0.0116233 0 5.45617e-05)
(0.010497 0 5.04806e-05)
(0.00921853 0 4.50454e-05)
(0.00777299 0 3.83733e-05)
(0.00614306 0 3.05199e-05)
(0.00430896 0 2.14872e-05)
(0.0022479 0 1.12315e-05)
(0 0 0)
(0.0166509 0 -0.0029059)
(0.0163617 0 -0.00259276)
(0.0163326 0 -0.00234604)
(0.0162891 0 -0.00202672)
(0.0162889 0 -0.00169143)
(0.0163427 0 -0.00137294)
(0.01644 0 -0.00108801)
(0.0165625 0 -0.000843099)
(0.0166905 0 -0.000638563)
(0.0168057 0 -0.000471421)
(0.0168928 0 -0.000337181)
(0.016939 0 -0.000230925)
(0.0169341 0 -0.000147911)
(0.01687 0 -8.38743e-05)
(0.0167396 0 -3.51448e-05)
(0.0165374 0 1.34575e-06)
(0.0162578 0 2.81072e-05)
(0.0158956 0 4.71599e-05)
(0.0154455 0 6.01088e-05)
(0.0149016 0 6.82146e-05)
(0.0142573 0 7.24574e-05)
(0.0135054 0 7.35905e-05)
(0.0126372 0 7.21845e-05)
(0.0116429 0 6.86627e-05)
(0.010511 0 6.33292e-05)
(0.00922831 0 5.63895e-05)
(0.00777962 0 4.79662e-05)
(0.0061474 0 3.81113e-05)
(0.00431161 0 2.68147e-05)
(0.00224917 0 1.40112e-05)
(0 0 0)
(0.0204258 0 -0.00252712)
(0.0197671 0 -0.00227526)
(0.0194317 0 -0.00207316)
(0.0190026 0 -0.0018098)