/*--------------------------------*- C++ -*----------------------------------*\
| =========                 |                                                 |
| \\      /  F ield         | OpenFOAM: The Open Source CFD Toolbox           |
|  \\    /   O peration     | Version:  5.x                                   |
|   \\  /    A nd           | Web:      www.OpenFOAM.org                      |
|    \\/     M anipulation  |                                                 |
\*---------------------------------------------------------------------------*/
FoamFile
{
    version     2.0;
    format      ascii;
    class       volVectorField;
    location    "1.7";
    object      Force;
}
// * * * * * * * * * * * * * * * * * * * * * * * * * * * * * * * * * * * * * //

dimensions      [1 1 -2 0 0 0 0];

internalField   uniform (0 0 0);

boundaryField
{
    inlet
    {
        type            calculated;
        value           uniform (0 0 0);
    }
    outlet
    {
        type            calculated;
        value           uniform (0 0 0);
    }
    flap
    {
        type            calculated;
        value           nonuniform List<vector> 
33
(
(3.43638 -0.283123 3.98213e-20)
(3.41333 -0.666383 1.24953e-17)
(3.34066 -1.03575 2.06557e-18)
(3.21473 -1.32567 1.61894e-17)
(3.05873 -1.53361 1.7591e-17)
(2.88736 -1.68632 7.52316e-37)
(2.70497 -1.7886 -3.61464e-20)
(2.51819 -1.84289 -1.78675e-36)
(2.33914 -1.84899 1.44561e-17)
(2.16774 -1.82222 -2.30401e-18)
(1.99055 -1.76159 4.36335e-20)
(1.80438 -1.66111 3.75468e-20)
(1.60496 -1.52079 1.93645e-17)
(1.38548 -1.33444 2.09388e-18)
(1.13918 -1.10137 1.88757e-18)
(0.596119 0.608418 2.20286e-18)
(0.197204 0.205131 1.08012e-18)
(0.025788 0.0306374 1.35172e-18)
(-0.106759 0.0109556 1.8326e-22)
(-0.107312 0.0254403 1.20915e-18)
(-0.10867 0.0401449 1.31547e-18)
(-0.110588 0.0529897 -1.43321e-18)
(-0.111808 0.0641704 1.54521e-18)
(-0.112759 0.0745295 -1.65546e-18)
(-0.113733 0.0840908 1.76628e-18)
(-0.114685 0.0922096 6.49807e-19)
(-0.115448 0.098814 1.31883e-18)
(-0.116539 0.105021 5.64237e-37)
(-0.118227 0.11078 -5.25514e-21)
(-0.119869 0.115436 2.20633e-18)
(-0.121265 0.118976 0)
(-0.12059 0.119132 3.95847e-18)
(-0.115797 0.115743 2.69041e-18)
)
;
    }
    upperWall
    {
        type            calculated;
        value           uniform (0 0 0);
    }
    lowerWall
    {
        type            calculated;
        value           uniform (0 0 0);
    }
    frontAndBack
    {
        type            empty;
    }
}


// ************************************************************************* //
