/*--------------------------------*- C++ -*----------------------------------*\
| =========                 |                                                 |
| \\      /  F ield         | OpenFOAM: The Open Source CFD Toolbox           |
|  \\    /   O peration     | Version:  4.1                                   |
|   \\  /    A nd           | Web:      www.OpenFOAM.org                      |
|    \\/     M anipulation  |                                                 |
\*---------------------------------------------------------------------------*/
FoamFile
{
    version     2.0;
    format      ascii;
    class       volVectorField;
    location    "4.8";
    object      U;
}
// * * * * * * * * * * * * * * * * * * * * * * * * * * * * * * * * * * * * * //

dimensions      [0 1 -1 0 0 0 0];

internalField   nonuniform List<vector> 
2790
(
(9.93361 0.0201216 0)
(9.86715 0.0279044 0)
(9.77016 0.0332115 6.08892e-20)
(9.64888 0.0388186 -6.25753e-20)
(9.51053 0.0447267 -3.23119e-20)
(9.35682 0.050867 3.31408e-20)
(9.18704 0.0573468 0)
(9.00027 0.0643127 0)
(8.79579 0.0718984 7.36155e-20)
(8.57282 0.0802223 0)
(8.3304 0.0893989 -7.95378e-20)
(8.06739 0.0995498 0)
(7.78257 0.110807 8.66376e-20)
(7.47462 0.123306 -9.07259e-20)
(7.14216 0.137179 4.7903e-19)
(6.78386 0.152565 -4.98672e-19)
(6.39844 0.169579 0)
(5.98469 0.188285 0)
(5.54183 0.20869 9.58555e-19)
(5.0695 0.230726 -2.39612e-19)
(4.568 0.254208 -1.07732e-18)
(4.03847 0.278786 0)
(3.48319 0.303877 -1.57401e-18)
(2.90586 0.328587 1.34961e-18)
(2.3119 0.351598 -2.95608e-18)
(1.70877 0.371084 -1.93625e-20)
(1.10395 0.385911 -4.52006e-19)
(0.537688 0.396616 -7.73657e-21)
(-0.177982 -0.029756 1.2273e-17)
(0.000427926 -0.342546 1.0939e-18)
(9.99385 0.038898 0)
(9.98375 0.0572395 5.89724e-20)
(9.94577 0.0710234 -1.81014e-19)
(9.88195 0.0858595 1.23466e-19)
(9.79831 0.10182 0)
(9.69678 0.118701 1.3069e-19)
(9.5769 0.136699 -2.68206e-19)
(9.4379 0.156141 4.1528e-19)
(9.27913 0.177338 -3.55519e-19)
(9.09989 0.200563 -2.9673e-19)
(8.89929 0.226076 2.279e-19)
(8.67625 0.254146 1.58562e-19)
(8.42957 0.28506 -8.25409e-20)
(8.15795 0.319095 -6.0641e-19)
(7.85994 0.356489 6.23662e-19)
(7.53416 0.397462 -1.23203e-18)
(7.17923 0.442149 2.9566e-18)
(6.79375 0.490493 -1.6461e-18)
(6.37665 0.542214 0)
(5.92728 0.596765 -2.29989e-19)
(5.44548 0.653222 0)
(4.9319 0.710145 0)
(4.3882 0.765415 -2.76605e-19)
(3.81748 0.816037 -4.77999e-18)
(3.22477 0.857796 1.02182e-17)
(2.61808 0.884534 -1.10079e-17)
(2.01002 0.886087 6.30029e-18)
(1.41614 0.842327 -8.00146e-19)
(0.853233 0.651599 -1.32359e-17)
(0.444516 0.187991 1.32372e-17)
(9.99093 0.0394158 2.89734e-20)
(9.97801 0.0665923 -2.06338e-19)
(9.9422 0.0899893 6.02319e-20)
(9.88304 0.114677 0)
(9.80529 0.141172 1.2691e-19)
(9.71109 0.169375 -2.58235e-19)
(9.60026 0.199542 0)
(9.47212 0.232145 -4.11886e-19)
(9.32618 0.267671 1.40061e-19)
(9.16192 0.306559 -5.85724e-19)
(8.97861 0.349243 7.49853e-19)
(8.77535 0.396187 -3.06309e-22)
(8.5511 0.447884 0)
(8.30472 0.504821 1.68638e-18)
(8.03491 0.567436 -1.38733e-18)
(7.74029 0.636123 -1.82064e-19)
(7.41954 0.711189 5.68904e-19)
(7.07119 0.792661 0)
(6.69384 0.880195 0)
(6.28629 0.973012 -3.07972e-18)
(5.84764 1.06974 4.11033e-19)
(5.37744 1.16816 -4.68309e-20)
(4.87583 1.26488 4.5923e-18)
(4.34391 1.355 -8.74281e-18)
(3.78399 1.43146 8.06616e-18)
(3.19978 1.48382 0)
(2.59598 1.49571 0)
(1.97336 1.43964 -2.22301e-17)
(1.30481 1.26291 4.95068e-17)
(0.721566 0.914626 -2.77115e-17)
(9.98919 0.0437606 -5.78591e-20)
(9.97395 0.0811229 1.76482e-19)
(9.93799 0.115211 -1.19533e-19)
(9.87994 0.149887 1.23294e-19)
(9.80365 0.186348 -1.24965e-19)
(9.71141 0.224896 -2.58279e-19)
(9.60319 0.265952 2.63464e-19)
(9.47839 0.310138 1.35939e-19)
(9.33672 0.3581 1.39929e-19)
(9.17785 0.410446 5.79335e-19)
(9.00131 0.467784 -8.88747e-19)
(8.80642 0.530766 1.08243e-18)
(8.59245 0.60008 -2.22614e-18)
(8.35859 0.676419 1.30804e-18)
(8.1039 0.760444 0)
(7.82731 0.852749 -2.50272e-18)
(7.52785 0.953851 5.53268e-18)
(7.20437 1.06401 -3.05249e-18)
(6.85557 1.18305 -3.99353e-19)
(6.48003 1.31018 -8.33994e-19)
(6.07648 1.44394 6.60778e-18)
(5.64373 1.58184 -8.21009e-18)
(5.18039 1.71989 0)
(4.68522 1.85215 -1.01059e-18)
(4.15689 1.97006 9.68529e-18)
(3.59337 2.06144 -9.06313e-18)
(2.99042 2.10911 -1.94665e-17)
(2.33975 2.08906 2.08314e-17)
(1.59945 1.97582 0)
(0.895489 1.73403 8.22151e-19)
(9.9883 0.0495417 1.73092e-19)
(9.97169 0.0954337 5.86672e-20)
(9.93555 0.138774 2.39286e-19)
(9.87847 0.182508 0)
(9.80364 0.228222 2.49581e-19)
(9.71333 0.276584 0)
(9.6075 0.328178 0)
(9.48558 0.383699 0)
(9.3474 0.443866 0)
(9.19274 0.509389 -8.61118e-19)
(9.02122 0.581004 1.16962e-18)
(8.83232 0.659491 0)
(8.6255 0.74566 -1.14811e-21)
(8.40017 0.840338 -1.31988e-21)
(8.15567 0.944338 3.33538e-19)
(7.89127 1.05841 2.78689e-18)
(7.60626 1.18324 -5.74549e-18)
(7.29979 1.31932 -3.85299e-20)
(6.9709 1.46673 1.04705e-17)
(6.61819 1.62487 -5.59333e-18)
(6.24019 1.79235 -7.5815e-18)
(5.83531 1.96687 7.83002e-18)
(5.40111 2.14451 9.08464e-19)
(4.93436 2.31934 9.59494e-19)
(4.43066 2.48282 0)
(3.8837 2.62329 -1.05165e-18)
(3.284 2.72584 0)
(2.61997 2.77137 0)
(1.84878 2.74539 2.07498e-17)
(1.0576 2.62128 -2.36097e-17)
(9.98782 0.0560191 -2.30671e-19)
(9.97056 0.109814 0)
(9.93459 0.161969 2.38546e-19)
(9.87871 0.214743 -7.29242e-19)
(9.80573 0.269741 -7.02697e-22)
(9.71771 0.32785 0)
(9.61463 0.389821 -5.22651e-19)
(9.49602 0.456416 -5.402e-19)
(9.36177 0.528399 -9.17766e-21)
(9.2117 0.606586 8.39755e-19)
(9.04549 0.691849 -8.74752e-19)
(8.86268 0.785085 2.38691e-18)
(8.66286 0.88721 -1.53099e-18)
(8.44557 0.999158 -3.17736e-19)
(8.21029 1.12187 -2.96212e-18)
(7.95651 1.25624 4.39675e-18)
(7.68362 1.40311 -2.77891e-18)
(7.39095 1.56317 7.20244e-19)
(7.07771 1.7368 -5.93813e-21)
(6.74277 1.92376 6.24093e-18)
(6.38444 2.12292 -6.38854e-18)
(6.00067 2.33236 6.71241e-18)
(5.58851 2.54885 6.17093e-18)
(5.14344 2.76724 -1.5278e-17)
(4.65912 2.98003 0)
(4.12684 3.1771 9.92867e-19)
(3.53479 3.34595 -1.56527e-17)
(2.87109 3.47041 3.52897e-17)
(2.10233 3.53398 1.21519e-18)
(1.23904 3.53141 -2.25241e-17)
(9.98755 0.0628118 0)
(9.97023 0.124187 0)
(9.93476 0.184706 0)
(9.88028 0.246191 5.2717e-22)
(9.80947 0.31016 0)
(9.72411 0.377649 0)
(9.62421 0.449577 2.57914e-19)
(9.50946 0.526796 0)
(9.37977 0.610125 -1.08941e-18)
(9.23495 0.700484 1.38608e-18)
(9.0747 0.798866 1.14862e-18)
(8.89868 0.906263 -1.75474e-18)
(8.70653 1.02368 6.02344e-19)
(8.49787 1.15214 -3.12015e-18)
(8.27225 1.29269 5.12133e-18)
(8.02926 1.44637 -1.96145e-18)
(7.76833 1.61418 0)
(7.4888 1.79698 -7.03817e-19)
(7.18995 1.99546 -7.26417e-19)
(6.8708 2.20983 6.00589e-18)
(6.52947 2.43946 -1.07947e-17)
(6.16351 2.68304 6.34232e-18)
(5.76965 2.93829 1.32477e-17)
(5.34279 3.20132 -2.56105e-17)
(4.87557 3.46616 -1.03856e-19)
(4.35816 3.72427 1.47076e-17)
(3.77798 3.96476 -1.64397e-20)
(3.12268 4.17287 0)
(2.37749 4.3206 -1.08535e-18)
(1.44645 4.43333 1.43225e-20)
(9.98742 0.0696927 -5.72284e-19)
(9.97043 0.138401 1.16164e-19)
(9.93579 0.206868 7.08372e-19)
(9.88294 0.276691 5.56649e-22)
(9.81461 0.349303 4.92048e-19)
(9.73228 0.425837 -5.00081e-19)
(9.63596 0.507337 -7.67879e-19)
(9.52562 0.594738 0)
(9.4011 0.688941 -5.41843e-19)
(9.26215 0.790966 2.63735e-19)
(9.10859 0.901897 1.12172e-18)
(8.94015 1.02281 5.7919e-19)
(8.75652 1.15479 -5.94596e-19)
(8.55735 1.29897 1.2176e-18)
(8.34227 1.45651 -1.89249e-18)
(8.11089 1.62861 3.19749e-18)
(7.86263 1.81641 5.31419e-18)
(7.59687 2.02102 -1.01913e-17)
(7.31282 2.24338 1.11728e-17)
(7.00937 2.48421 -5.71534e-18)
(6.68459 2.74357 -7.42849e-19)
(6.33583 3.02094 1.22094e-17)
(5.95949 3.31515 -1.24627e-17)
(5.55027 3.62379 1.1329e-17)
(5.10035 3.94249 -2.66062e-17)
(4.59946 4.26418 1.3724e-17)
(4.03504 4.57868 -1.89555e-20)
(3.3916 4.8721 -9.19779e-19)
(2.68157 5.09964 3.17451e-17)
(1.6807 5.32421 -3.33274e-17)
(9.98741 0.0765135 3.43144e-19)
(9.97099 0.152316 1.15707e-19)
(9.93747 0.228353 -4.70821e-19)
(9.88651 0.306122 4.77909e-19)
(9.82093 0.387014 0)
(9.74195 0.472227 -4.98771e-19)
(9.64969 0.562858 1.01503e-18)
(9.54427 0.659935 5.1766e-19)
(9.42544 0.76448 5.33291e-19)
(9.29298 0.877599 -2.71329e-18)
(9.14682 1.00044 -1.1244e-18)
(8.98673 1.13415 -5.8701e-19)
(8.81248 1.27992 4.6562e-18)
(8.62375 1.43899 -5.36814e-18)
(8.42019 1.61263 1.81846e-18)
(8.20142 1.80219 -5.66176e-18)
(7.96695 2.00906 5.10646e-18)
(7.71614 2.23455 -6.6059e-19)
(7.44809 2.47998 6.69379e-19)
(7.16154 2.74656 0)
(6.85446 3.03507 1.20491e-17)
(6.52412 3.34596 -2.31415e-17)
(6.16673 3.67931 1.181e-17)
(5.7768 4.03427 1.14373e-17)
(5.3464 4.40816 -1.24234e-17)
(4.86495 4.79525 -2.56015e-17)
(4.32033 5.18552 2.55031e-17)
(3.69069 5.56622 8.63969e-19)
(3.02358 5.87241 4.22523e-19)
(1.94617 6.21044 -4.8927e-19)
(9.98745 0.0831729 1.13748e-19)
(9.97181 0.165807 3.44873e-19)
(9.93973 0.249058 0)
(9.89089 0.334374 8.46834e-23)
(9.82823 0.423134 -5.81871e-23)
(9.75297 0.516592 0)
(9.66526 0.615876 0)
(9.56519 0.722105 -2.15006e-21)
(9.45249 0.836425 -1.05181e-18)
(9.3271 0.960008 1.06639e-18)
(9.18899 1.09405 0)
(9.03799 1.23978 -2.24041e-18)
(8.87393 1.3985 5.13596e-18)
(8.69656 1.57154 -5.60114e-19)
(8.50556 1.76031 -2.37435e-18)
(8.30054 1.96631 4.89652e-18)
(8.08114 2.19116 -4.95695e-18)
(7.84669 2.43648 -6.31808e-19)
(7.5962 2.70399 -1.29722e-18)
(7.32853 2.99548 0)
(7.04146 3.31247 1.01501e-17)
(6.73205 3.65637 -1.09612e-17)
(6.3966 4.02872 0)
(6.02944 4.43032 3.05371e-20)
(5.62272 4.86042 0)
(5.16531 5.31478 0)
(4.6453 5.78331 2.33903e-17)
(4.03098 6.25545 -4.88536e-17)
(3.40984 6.64331 2.46122e-17)
(2.24586 7.09353 0)
(9.98751 0.0896022 0)
(9.97288 0.178761 -2.29952e-19)
(9.94248 0.268874 -6.98592e-19)
(9.89596 0.361345 4.72515e-19)
(9.83642 0.457526 -4.83671e-19)
(9.76519 0.558737 4.88637e-19)
(9.68242 0.666166 4.9748e-19)
(9.58806 0.781011 -5.09052e-19)
(9.48195 0.904499 1.55529e-18)
(9.36416 1.03786 -1.05215e-18)
(9.23469 1.18234 2.16116e-18)
(9.09343 1.33925 -1.63666e-18)
(8.94033 1.50998 -4.185e-21)
(8.77524 1.69599 5.15799e-18)
(8.59784 1.89882 -9.30887e-18)
(8.40776 2.12009 4.1332e-18)
(8.20473 2.36166 0)
(7.98816 2.62553 5.5493e-18)
(7.75708 2.91379 -3.7293e-18)
(7.5106 3.22893 0)
(7.24648 3.57327 0)
(6.96156 3.94917 1.17383e-17)
(6.65234 4.35969 -1.05376e-17)
(6.31312 4.80753 3.24492e-20)
(5.93634 5.29438 1.07658e-17)
(5.50974 5.81801 -1.09104e-17)
(5.02099 6.3691 2.19691e-17)
(4.42398 6.94127 -2.323e-17)
(3.84409 7.42532 3.68335e-19)
(2.58149 7.99943 3.67222e-19)
(9.9877 0.0957393 1.12845e-19)
(9.97412 0.191099 -3.42495e-19)
(9.94548 0.287706 2.31432e-19)
(9.90153 0.386923 0)
(9.84539 0.490061 -4.80259e-19)
(9.77848 0.598499 9.69211e-19)
(9.70097 0.713529 -9.87666e-19)
(9.61272 0.836419 5.01239e-19)
(9.51362 0.968428 -5.12728e-19)
(9.40389 1.11083 2.0891e-18)
(9.28359 1.26493 -2.11256e-18)
(9.15268 1.4321 0)
(9.01122 1.61381 -5.50902e-19)
(8.85916 1.81167 0)
(8.69629 2.02735 4.55658e-18)
(8.52232 2.2626 -4.01635e-18)
(8.33699 2.51945 -4.69646e-18)
(8.13993 2.80028 4.73114e-18)
(7.93038 3.10762 -6.05082e-19)
(7.70742 3.44448 9.73708e-18)
(7.46939 3.81421 -9.78996e-18)
(7.21339 4.22026 8.63461e-18)
(6.93585 4.66704 -2.10702e-17)
(6.63152 5.15957 1.12244e-17)
(6.29298 5.70231 0)
(5.90691 6.29662 0)
(5.4603 6.93666 6.35796e-19)
(4.88847 7.62364 0)
(4.34722 8.23616 3.07175e-19)
(2.97094 8.97971 2.0723e-17)
(9.98803 0.10153 0)
(9.97541 0.20279 0)
(9.94862 0.305483 4.60693e-19)
(9.9075 0.41098 -1.40033e-18)
(9.85514 0.520584 4.71594e-19)
(9.79286 0.635719 -9.62935e-19)
(9.72085 0.757788 4.90289e-19)
(9.63898 0.888114 -4.98304e-19)
(9.54727 1.02795 0)
(9.44603 1.17861 2.05943e-18)
(9.33537 1.34147 -4.17304e-18)
(9.21536 1.51794 2.64054e-18)
(9.08611 1.70956 2.15883e-18)
(8.94759 1.91801 -2.72e-18)
(8.80002 2.14516 0)
(8.64326 2.39289 0)
(8.47693 2.66336 4.54936e-18)
(8.30097 2.95924 -5.14135e-18)
(8.11501 3.28352 0)
(7.91806 3.63958 0)
(7.70947 4.03176 5.77689e-19)
(7.48704 4.46474 0)
(7.24739 4.94427 1.18032e-18)
(6.9864 5.47791 5.70267e-19)
(6.69685 6.07317 5.63106e-19)
(6.36544 6.73711 8.96703e-18)
(5.97944 7.47221 -9.54926e-18)
(5.45442 8.294 0)
(4.96333 9.09075 2.39052e-19)
(3.45607 10.1177 1.76074e-17)
(9.98828 0.106953 -1.11856e-19)
(9.97676 0.213799 1.01544e-18)
(9.95199 0.322123 0)
(9.91396 0.433378 9.27861e-19)
(9.86565 0.54894 -4.71559e-19)
(9.80818 0.670263 2.19108e-21)
(9.74178 0.798798 4.83217e-19)
(9.66654 0.935911 -9.85545e-19)
(9.58258 1.08285 9.95516e-19)
(9.49018 1.24095 2.53458e-18)
(9.38953 1.41166 -2.04833e-18)
(9.28085 1.59644 -2.0921e-18)
(9.16427 1.79684 4.21918e-18)
(9.0399 2.01457 -1.06212e-18)
(8.90825 2.25162 0)
(8.7695 2.51009 -3.83039e-18)
(8.62332 2.79226 8.79724e-18)
(8.46986 3.10095 -3.86261e-18)
(8.30926 3.43947 0)
(8.141 3.81158 -5.51332e-19)
(7.96514 4.22224 -1.11134e-18)
(7.78051 4.67724 8.27095e-18)
(7.58508 5.18384 -9.31857e-18)
(7.37648 5.75176 -1.07698e-18)
(7.14918 6.3919 -2.0513e-20)
(6.89212 7.11846 8.06399e-18)
(6.59639 7.94708 -7.99132e-18)
(6.16571 8.91818 0)
(5.78329 9.97183 -4.77201e-19)
(4.13273 11.5362 7.55799e-19)
(9.98834 0.112006 1.00077e-18)
(9.97821 0.22405 -1.68638e-18)
(9.95572 0.33754 -6.81661e-19)
(9.92087 0.454027 -4.61837e-19)
(9.87665 0.575038 -4.65993e-19)
(9.82407 0.702036 4.74487e-19)
(9.76347 0.836443 -4.81014e-19)
(9.69511 0.979645 -9.74531e-19)
(9.61915 1.13292 -9.91846e-19)
(9.53585 1.29763 1.49154e-18)
(9.4455 1.47524 -5.03487e-19)
(9.34846 1.66725 -5.13578e-19)
(9.24501 1.87522 0)
(9.13543 2.10088 -5.2495e-19)
(9.02031 2.34622 0)
(8.89998 2.6135 3.19009e-18)
(8.77465 2.90517 -4.26099e-18)
(8.64485 3.22407 5.30724e-19)
(8.51108 3.57365 0)
(8.37381 3.958 1.0514e-20)
(8.23338 4.38222 5.35577e-19)
(8.09007 4.85282 5.30063e-19)
(7.94443 5.37828 1.02834e-18)
(7.79648 5.96958 1.72731e-20)
(7.64497 6.64051 -4.94386e-19)
(7.48519 7.41128 -7.45789e-18)
(7.3205 8.31133 7.56485e-18)
(7.06751 9.41038 6.08129e-18)
(6.95357 10.7537 -6.03823e-18)
(5.1637 13.5387 -9.44462e-18)
(0.0935881 -0.0859275 -2.94454e-19)
(0.274418 -0.100842 2.73464e-19)
(0.469618 -0.0887025 0)
(0.646404 -0.0711824 0)
(0.79413 -0.0539593 0)
(0.910921 -0.0381233 0)
(0.997154 -0.0234696 -9.32722e-20)
(1.05331 -0.00977011 9.17935e-20)
(1.07999 0.00241529 0)
(1.07998 0.011419 0)
(1.05812 0.017474 -3.96367e-20)
(1.0204 0.0210651 3.94236e-20)
(0.973399 0.022252 0)
(0.923399 0.0211876 -9.22994e-21)
(0.875981 0.0182199 8.96896e-21)
(0.83574 0.0139002 -8.42881e-21)
(0.805845 0.00895108 8.73532e-21)
(0.787895 0.00415051 1.21325e-20)
(0.782466 9.53897e-05 3.80062e-21)
(0.789167 -0.00418526 -3.36641e-21)
(0.807496 -0.00837498 6.82667e-21)
(0.836409 -0.0117398 2.91787e-21)
(0.871839 -0.0134089 -2.72537e-21)
(0.909987 -0.0133466 2.56173e-21)
(0.947675 -0.0120902 0)
(0.982525 -0.0103389 -1.73355e-21)
(1.01351 -0.00877677 0)
(1.04098 -0.00776714 9.76262e-22)
(1.06592 -0.00708546 0)
(1.09358 -0.00628707 1.96494e-22)
(0.0726273 -0.225969 5.76601e-19)
(0.251853 -0.257724 3.03517e-22)
(0.439627 -0.228961 -5.02253e-19)
(0.612396 -0.190038 0)
(0.762867 -0.152167 -2.64834e-20)
(0.889448 -0.117139 -2.4827e-20)
(0.992346 -0.0842664 0)
(1.07196 -0.0527243 -2.23001e-20)
(1.12859 -0.022733 0)
(1.16219 0.00405397 -2.05512e-20)
(1.17034 0.024587 -1.98056e-20)
(1.15952 0.0381935 -7.60401e-20)
(1.13687 0.0449462 9.40831e-20)
(1.10927 0.0454628 -6.2673e-20)
(1.0826 0.040795 4.47743e-20)
(1.0615 0.0322925 -4.207e-20)
(1.04907 0.0214209 3.32385e-20)
(1.04687 0.00961657 -3.91537e-21)
(1.0548 -0.00190181 -3.71686e-21)
(1.0716 -0.0124867 -3.48919e-21)
(1.09483 -0.0213406 -1.25542e-20)
(1.12078 -0.0278974 9.09583e-22)
(1.14814 -0.0317972 8.55335e-21)
(1.17689 -0.0330298 -4.78022e-21)
(1.20659 -0.03188 -3.78255e-21)
(1.236 -0.0290777 3.88883e-21)
(1.26354 -0.0257701 1.50671e-21)
(1.28811 -0.0229257 -1.83793e-22)
(1.30944 -0.0206933 -1.92153e-21)
(1.33094 -0.0176911 -1.93161e-22)
(0.0372159 -0.3691 -2.81393e-20)
(0.193894 -0.410956 7.08881e-22)
(0.359469 -0.366083 9.79742e-19)
(0.508493 -0.308277 0)
(0.63972 -0.252199 2.65093e-20)
(0.752092 -0.200115 2.49816e-20)
(0.845577 -0.151102 3.7124e-19)
(0.920356 -0.104023 -3.44171e-19)
(0.976568 -0.0590748 0)
(1.01556 -0.0174461 6.25829e-20)
(1.0365 0.0169485 -1.79141e-19)
(1.03983 0.0409763 2.72248e-19)
(1.03243 0.0536973 -1.523e-19)
(1.02028 0.0560732 -7.24438e-20)
(1.0082 0.0499614 1.0727e-19)
(0.999673 0.0376452 0)
(0.996745 0.0215151 -6.51225e-20)
(1.00022 0.00395661 1.11372e-19)
(1.00961 -0.0132268 -1.5567e-20)
(1.02328 -0.0274553 2.74688e-20)
(1.03891 -0.0378058 -3.36018e-20)
(1.05363 -0.0444216 0)
(1.06572 -0.0482386 1.03677e-20)
(1.07531 -0.0495685 -5.39254e-21)
(1.08346 -0.0482565 -3.52493e-22)
(1.09098 -0.0445527 -2.98103e-22)
(1.09765 -0.0393823 5.11674e-21)
(1.10286 -0.0339577 -3.12302e-21)
(1.10647 -0.0290544 1.95809e-21)
(1.11 -0.0234368 0)
(-0.00165819 -0.499086 3.44286e-20)
(0.12328 -0.537509 2.39536e-20)
(0.269011 -0.476016 0)
(0.390743 -0.40217 8.76665e-19)
(0.497353 -0.331581 -1.68125e-18)
(0.588785 -0.266317 8.11842e-19)
(0.66534 -0.204805 0)
(0.727282 -0.145218 0)
(0.774988 -0.0881549 3.47435e-19)
(0.808826 -0.0348924 -3.8845e-19)
(0.829377 0.0108892 4.12503e-20)
(0.834305 0.0422444 3.98e-20)
(0.830379 0.0585269 -1.92808e-20)
(0.823398 0.0614661 0)
(0.816793 0.0538277 -1.81397e-20)
(0.812273 0.0386934 -6.94156e-20)
(0.810353 0.0191784 6.86795e-20)
(0.810233 -0.00175957 -1.61988e-20)
(0.810559 -0.0206772 -1.53858e-20)
(0.809079 -0.0351325 -2.82678e-20)
(0.804678 -0.0432312 7.43697e-20)
(0.795378 -0.0459469 -1.3263e-20)
(0.780272 -0.0451573 1.14024e-20)
(0.761447 -0.0425882 9.45637e-21)
(0.742384 -0.0390482 -1.37993e-20)
(0.725702 -0.0349868 -1.09445e-20)
(0.712846 -0.0307073 -2.84239e-21)
(0.704485 -0.0269487 4.17091e-21)
(0.698503 -0.0244987 -4.16658e-22)
(0.695703 -0.0228967 4.09405e-22)
(-0.042308 -0.623507 2.43726e-20)
(0.0432305 -0.641298 1.00073e-18)
(0.172296 -0.56151 0)
(0.263382 -0.473203 -5.50655e-20)
(0.341276 -0.390975 0)
(0.405863 -0.315876 -5.03316e-20)
(0.458497 -0.245537 4.83878e-20)
(0.499874 -0.177624 0)
(0.5343 -0.113372 0)
(0.55877 -0.054013 0)
(0.570088 -0.000402728 0)
(0.567349 0.0382532 -3.25567e-19)
(0.560526 0.0586825 2.81271e-19)
(0.552769 0.0630075 0)
(0.544335 0.055486 1.11001e-19)
(0.534042 0.0404448 -1.10538e-19)
(0.519896 0.0219281 3.52075e-20)
(0.500212 0.00339618 1.69366e-20)
(0.47517 -0.0115619 0)
(0.447411 -0.0221173 0)
(0.42122 -0.0277764 -1.41337e-20)
(0.400724 -0.0298476 -1.03962e-21)
(0.385664 -0.0303131 -3.67105e-20)
(0.372839 -0.030342 3.06806e-20)
(0.362788 -0.0302373 -1.0552e-20)
(0.354444 -0.0296764 1.5345e-20)
(0.347367 -0.0285858 0)
(0.341584 -0.0266727 -1.04678e-20)
(0.336602 -0.0249074 1.72852e-21)
(0.326155 -0.0258777 0)
(-0.0804522 -0.74035 2.09892e-18)
(-0.0393049 -0.720939 -9.85667e-19)
(0.0724789 -0.619639 9.36562e-19)
(0.127285 -0.515685 9.33074e-19)
(0.172541 -0.422841 -1.71393e-18)
(0.203963 -0.339824 8.9224e-19)
(0.224708 -0.26297 -5.01659e-20)
(0.235673 -0.19093 9.70338e-20)
(0.254657 -0.121331 0)
(0.238972 -0.0484023 -4.59296e-20)
(0.240299 0.0134368 0)
(0.231843 0.0501271 3.38723e-19)
(0.225386 0.0671254 -2.91233e-19)
(0.215424 0.0697534 -3.993e-20)
(0.202283 0.0627415 7.72038e-20)
(0.185263 0.0501717 -1.84718e-19)
(0.165168 0.0352391 1.09517e-19)
(0.144037 0.0202098 -1.71587e-20)
(0.123637 0.00604718 -1.64791e-20)
(0.105039 -0.00662449 7.61199e-20)
(0.0900264 -0.0171335 -5.95719e-20)
(0.0776511 -0.0237932 2.68467e-20)
(0.0669623 -0.0267055 -2.32704e-20)
(0.0562878 -0.0271176 1.21566e-20)
(0.0451657 -0.0262493 8.74287e-21)
(0.0336365 -0.0247276 -1.6436e-20)
(0.0224643 -0.0230768 -9.3389e-22)
(0.011809 -0.0213519 -2.71732e-21)
(0.00141491 -0.0199665 1.34414e-21)
(-0.00925765 -0.0200071 4.5255e-22)
(-0.113353 -0.840416 -3.19764e-20)
(-0.117875 -0.769037 1.51259e-20)
(-0.0282991 -0.644828 0)
(-0.0169612 -0.522754 1.79115e-18)
(-0.00847374 -0.417146 -1.77937e-18)
(-0.0163363 -0.327316 0)
(-0.0343228 -0.245335 0)
(-0.0579609 -0.168424 -9.69998e-20)
(-0.082098 -0.0959276 0)
(-0.103298 -0.0328302 4.49962e-20)
(-0.111004 0.0170771 3.84998e-19)
(-0.11703 0.0514818 -4.72367e-20)
(-0.123672 0.0696321 3.48981e-20)
(-0.131601 0.0747936 -5.09535e-21)
(-0.140989 0.0704056 -3.39837e-19)
(-0.151483 0.0597032 0)
(-0.162204 0.0452536 -3.50807e-20)
(-0.172264 0.029144 6.62793e-20)
(-0.181571 0.0130024 -4.93858e-20)
(-0.190474 -0.000997345 -1.51844e-20)
(-0.199526 -0.011364 7.03294e-20)
(-0.209048 -0.0174913 -6.82434e-20)
(-0.219643 -0.0198627 0)
(-0.231728 -0.0198449 1.10717e-20)
(-0.245199 -0.0187849 -9.65254e-21)
(-0.259181 -0.0174744 0)
(-0.272591 -0.0164025 -2.12894e-22)
(-0.285387 -0.0158266 0)
(-0.297923 -0.0153548 3.25061e-21)
(-0.306281 -0.0141616 -4.67051e-22)
(-0.136634 -0.91368 -1.57174e-20)
(-0.185231 -0.773364 -1.91992e-18)
(-0.132049 -0.626369 3.75582e-18)
(-0.166656 -0.490132 -1.8373e-18)
(-0.199677 -0.381019 -8.61367e-19)
(-0.245668 -0.288035 1.6226e-18)
(-0.295384 -0.207367 -1.60444e-18)
(-0.342105 -0.135665 6.83285e-19)
(-0.380703 -0.0720999 0)
(-0.411626 -0.0175127 0)
(-0.424888 0.0258474 -4.20359e-20)
(-0.433887 0.0558901 -2.3993e-19)
(-0.439426 0.0724686 2.75873e-19)
(-0.443068 0.0772781 -5.30303e-23)
(-0.445719 0.0728512 -3.6606e-20)
(-0.447787 0.0619564 0)
(-0.449524 0.0471668 6.85791e-20)
(-0.451243 0.0308281 1.30533e-19)
(-0.453531 0.0150368 -9.69104e-20)
(-0.45711 0.00181226 -5.92855e-20)
(-0.462649 -0.00747318 9.99829e-20)
(-0.470583 -0.0123804 -5.48936e-20)
(-0.481098 -0.0135238 0)
(-0.494041 -0.0123205 2.10708e-20)
(-0.508784 -0.0104833 1.65448e-20)
(-0.524105 -0.00921358 -1.02619e-20)
(-0.539006 -0.00889342 -9.00462e-22)
(-0.553704 -0.00915459 -1.86102e-21)
(-0.568409 -0.00897947 -8.92204e-22)
(-0.577561 -0.00652698 0)
(-0.144806 -0.939979 -4.01601e-18)
(-0.235709 -0.728392 1.95658e-18)
(-0.238261 -0.567786 -5.97954e-20)
(-0.313342 -0.422673 -5.76597e-20)
(-0.386774 -0.311967 8.65673e-19)
(-0.462906 -0.223319 -8.0021e-19)
(-0.533174 -0.151049 8.90064e-19)
(-0.593305 -0.0900804 -6.81464e-19)
(-0.642646 -0.0380011 0)
(-0.674511 0.00409473 -6.42224e-19)
(-0.694007 0.0372949 6.69818e-19)
(-0.705666 0.0608864 -7.93425e-20)
(-0.711058 0.0735708 -3.03422e-19)
(-0.712249 0.0761227 3.35433e-19)
(-0.710797 0.0705229 -1.06461e-19)
(-0.707862 0.0592044 3.13145e-19)
(-0.704482 0.0445707 -2.33898e-21)
(-0.701558 0.0288823 -2.83098e-21)
(-0.699851 0.0142562 -1.58794e-19)
(-0.700139 0.00259475 0)
(-0.703169 -0.00483916 0)
(-0.709516 -0.00777336 0)
(-0.719415 -0.00704932 1.25665e-20)
(-0.732604 -0.00436355 -1.09436e-20)
(-0.748239 -0.00165785 -9.57038e-21)
(-0.764957 -0.000309378 0)
(-0.781743 -0.000557979 0)
(-0.798975 -0.00137148 0)
(-0.816287 -0.000871463 -4.74504e-22)
(-0.826968 0.00262574 5.03194e-22)
(-0.138078 -0.898108 -2.07043e-18)
(-0.270278 -0.630585 0)
(-0.341799 -0.458924 6.00656e-20)
(-0.458148 -0.318608 5.78309e-20)
(-0.566696 -0.218411 0)
(-0.66514 -0.14353 0)
(-0.749866 -0.0853997 6.91189e-19)
(-0.819546 -0.0391285 -7.72822e-19)
(-0.868485 -0.00279271 4.5145e-20)
(-0.902556 0.0271075 -3.80402e-19)
(-0.925689 0.0507232 2.89379e-19)
(-0.93955 0.0669764 3.90056e-20)
(-0.946121 0.0745459 2.9817e-19)
(-0.947222 0.0737877 -2.93338e-19)
(-0.944581 0.0663248 1.39949e-19)
(-0.939718 0.0543016 -1.72248e-19)
(-0.934005 0.0398447 9.89359e-20)
(-0.928597 0.0249678 -9.79636e-20)
(-0.924356 0.0116678 -6.19237e-20)
(-0.922119 0.001797 6.11158e-20)
(-0.922849 -0.00343024 -5.63022e-20)
(-0.927473 -0.00391 5.55143e-20)
(-0.936567 -0.000763892 -1.23341e-20)
(-0.950052 0.00396238 -2.32241e-20)
(-0.967038 0.0079918 0)
(-0.985989 0.00974863 0)
(-1.00567 0.00918873 -1.37557e-20)
(-1.02607 0.00801682 0)
(-1.04589 0.00886402 5.45476e-21)
(-1.05747 0.0130968 5.24346e-22)
(-0.120588 -0.776737 -2.12823e-18)
(-0.298825 -0.478027 2.09545e-18)
(-0.451143 -0.306521 -2.03331e-18)
(-0.610405 -0.183754 6.37784e-20)
(-0.751925 -0.10185 2.71183e-18)
(-0.866463 -0.0496783 -8.07831e-19)
(-0.954299 -0.0145026 7.85484e-19)
(-1.01921 0.0113452 -7.64085e-19)
(-1.06857 0.0328396 -8.88707e-20)
(-1.1046 0.0511144 4.22516e-20)
(-1.12953 0.0656103 4.01535e-20)
(-1.14543 0.0746051 3.0455e-19)
(-1.15399 0.0766588 -5.84949e-21)
(-1.15643 0.0719217 -2.88525e-19)
(-1.15423 0.061954 0)
(-1.14907 0.0487612 0)
(-1.14246 0.0341651 -1.63918e-19)
(-1.13555 0.0198564 1.29516e-19)
(-1.12925 0.00768151 3.05007e-20)
(-1.12453 -0.000470524 -6.12247e-20)
(-1.12272 -0.00331285 5.71366e-20)
(-1.12533 -0.000867211 -1.38132e-19)
(-1.13352 0.00540933 1.92492e-21)
(-1.14758 0.0129885 4.71553e-20)
(-1.16662 0.0190804 2.11299e-20)
(-1.18883 0.0217534 0)
(-1.21247 0.0210564 7.5161e-21)
(-1.23682 0.0193869 5.93535e-21)
(-1.25961 0.0202493 -5.3375e-21)
(-1.27245 0.024928 -5.4842e-22)
(-0.105293 -0.569956 -3.56109e-20)
(-0.346847 -0.267191 -6.90577e-20)
(-0.590834 -0.0886897 6.3265e-20)
(-0.786009 -0.00834521 0)
(-0.935971 0.0251573 -5.56041e-20)
(-1.05015 0.0412693 -5.20252e-20)
(-1.1367 0.0514057 0)
(-1.20216 0.059985 -7.3049e-19)
(-1.25115 0.0679226 7.5706e-19)
(-1.28697 0.0753506 2.87063e-19)
(-1.3126 0.0814279 -3.21789e-19)
(-1.33033 0.0838333 3.77907e-20)
(-1.34124 0.0804356 0)
(-1.34563 0.0712145 -1.39387e-19)
(-1.34445 0.0580843 1.37363e-19)
(-1.33946 0.0431859 0)
(-1.33235 0.027992 -6.41822e-23)
(-1.32415 0.0137611 -3.18326e-20)
(-1.31562 0.00223002 -3.12922e-20)
(-1.30784 -0.00449037 6.15803e-20)
(-1.30272 -0.00482965 5.83505e-20)
(-1.3026 0.0011009 -5.60024e-20)
(-1.30944 0.011417 1.05713e-19)
(-1.32401 0.0228917 -2.51141e-20)
(-1.34546 0.0319584 -2.08002e-20)
(-1.37151 0.0361104 0)
(-1.39968 0.0353832 0)
(-1.4284 0.0329156 0)
(-1.45455 0.0332519 -6.86943e-21)
(-1.46893 0.0379165 2.92212e-21)
(-0.095234 -0.19736 0)
(-0.411001 0.108433 6.82827e-20)
(-0.732786 0.164822 -9.80978e-19)
(-0.956174 0.165274 9.47884e-19)
(-1.11715 0.149125 5.41394e-20)
(-1.23183 0.129917 0)
(-1.31425 0.114937 7.59624e-19)
(-1.37501 0.106078 -7.42125e-19)
(-1.42021 0.101062 -4.32808e-20)
(-1.45349 0.0986724 4.10639e-20)
(-1.47862 0.0977863 -3.07991e-19)
(-1.49808 0.0948796 -2.92109e-20)
(-1.51179 0.0863026 5.7138e-19)
(-1.51841 0.0719068 -4.48939e-19)
(-1.51812 0.0547226 3.47594e-20)
(-1.51299 0.0375229 1.31462e-19)
(-1.50512 0.0212675 3.21977e-20)
(-1.49538 0.00649124 0)
(-1.48405 -0.00511588 0)
(-1.47225 -0.0108792 0)
(-1.46269 -0.00859632 3.09742e-20)
(-1.45891 0.00153082 -2.85616e-20)
(-1.46391 0.0170528 0)
(-1.47914 0.0337573 -2.39489e-20)
(-1.50379 0.0469728 4.43581e-20)
(-1.53497 0.0533392 -2.90427e-20)
(-1.56917 0.052744 -1.36426e-20)
(-1.60367 0.04911 -2.56901e-21)
(-1.63426 0.0482254 4.10898e-21)
(-1.65081 0.0522751 -2.34307e-21)
(-0.107722 0.327146 -1.61769e-19)
(-0.524247 0.525643 0)
(-0.936678 0.452975 0)
(-1.17185 0.346151 0)
(-1.32195 0.265798 5.13908e-20)
(-1.42137 0.204776 4.92791e-20)
(-1.48881 0.16577 0)
(-1.53841 0.145097 0)
(-1.57662 0.131189 -2.93119e-19)
(-1.60525 0.120612 -2.99396e-20)
(-1.62858 0.114341 3.12433e-19)
(-1.65 0.107953 0)
(-1.66753 0.0945475 0)
(-1.67669 0.073788 3.38013e-20)
(-1.67653 0.0512955 1.30153e-19)
(-1.67025 0.0313255 -2.89662e-19)
(-1.66095 0.0137957 1.5892e-19)
(-1.64912 -0.00216831 -9.57762e-20)
(-1.63412 -0.014755 6.31294e-20)
(-1.61687 -0.0201064 0)
(-1.60122 -0.0153099 -6.0795e-20)
(-1.59245 -2.4741e-05 2.99445e-20)
(-1.59494 0.0222756 2.97198e-20)
(-1.61101 0.0459997 -2.52172e-20)
(-1.6399 0.0649632 2.4801e-20)
(-1.67797 0.0745636 9.00852e-21)
(-1.72026 0.074295 -3.10355e-21)
(-1.7624 0.0688911 4.25898e-21)
(-1.79882 0.0657234 0)
(-1.81834 0.0682824 -2.5908e-21)
(-0.229976 1.64817 2.87348e-18)
(-0.721647 1.36036 0)
(-1.26501 0.835935 4.08113e-19)
(-1.46117 0.462001 -4.08165e-19)
(-1.55689 0.337269 3.65399e-19)
(-1.61771 0.263524 -8.13499e-19)
(-1.6539 0.216832 3.50801e-19)
(-1.68595 0.189171 0)
(-1.7179 0.161911 -3.30173e-19)
(-1.74195 0.136369 1.11547e-20)
(-1.76193 0.125618 1.96954e-19)
(-1.7856 0.12131 1.4519e-19)
(-1.80892 0.105603 0)
(-1.82124 0.0772468 1.29824e-19)
(-1.8197 0.0473609 -1.60362e-19)
(-1.81041 0.0239819 -9.48943e-20)
(-1.79888 0.00516141 3.00515e-20)
(-1.7846 -0.0129307 1.58434e-19)
(-1.76492 -0.0281281 -6.3382e-20)
(-1.74053 -0.0342293 0)
(-1.71666 -0.0264747 -3.17869e-20)
(-1.70095 -0.00461404 -4.11125e-22)
(-1.70004 0.0266369 1.38483e-21)
(-1.71719 0.0598015 0)
(-1.75172 0.0867035 0)
(-1.79901 0.100975 -3.15204e-20)
(-1.85217 0.101332 2.56062e-20)
(-1.90456 0.0933272 0)
(-1.94881 0.0864012 5.83397e-22)
(-1.97235 0.0862422 -8.03333e-22)
(9.98831 0.11677 -8.56109e-19)
(9.97975 0.233619 6.48481e-19)
(9.95986 0.351918 6.55157e-19)
(9.92828 0.473273 -4.40523e-19)
(9.88817 0.599326 1.34369e-18)
(9.8408 0.731564 2.26222e-21)
(9.78639 0.87135 -9.16238e-19)
(9.72528 1.02007 0)
(9.65774 1.17903 2.3531e-18)
(9.58402 1.34963 -1.89971e-18)
(9.50455 1.53332 4.83084e-19)
(9.41986 1.73158 0)
(9.33037 1.946 4.8827e-19)
(9.23655 2.1783 3.9641e-18)
(9.13899 2.43048 -4.47334e-18)
(9.03812 2.70474 5.03791e-19)
(8.93495 3.00361 0)
(8.83056 3.32997 3.5057e-18)
(8.72578 3.68716 -7.50483e-18)
(8.62205 4.07944 4.48348e-18)
(8.52023 4.51165 0)
(8.42251 4.99032 4.76209e-19)
(8.33232 5.52421 -2.46617e-19)
(8.25302 6.12413 -6.94444e-18)
(8.18965 6.80423 7.06316e-18)
(8.14897 7.58573 2.1007e-19)
(8.15929 8.50133 -2.67162e-18)
(8.2055 9.61832 3.52888e-19)
(8.90643 10.9586 1.80802e-18)
(9.25095 13.667 3.89562e-19)
(9.98838 0.12125 1.03713e-19)
(9.98141 0.242493 -1.04765e-19)
(9.96424 0.365241 0)
(9.93609 0.491124 8.58352e-19)
(9.90024 0.621772 4.34828e-19)
(9.85826 0.758716 -8.77136e-19)
(9.81031 0.903303 8.89539e-19)
(9.75677 1.05689 -4.49666e-19)
(9.69793 1.22081 -4.55943e-19)
(9.6341 1.39646 0)
(9.5659 1.58523 -4.61576e-19)
(9.49401 1.78862 0)
(9.4189 2.00817 -4.73743e-19)
(9.3412 2.24562 0)
(9.26167 2.50287 4.76525e-18)
(9.18112 2.78199 -3.81803e-18)
(9.10108 3.08539 0)
(9.02301 3.41586 -4.71965e-19)
(8.94827 3.77661 -4.77791e-19)
(8.87897 4.17157 3.26599e-18)
(8.81716 4.60503 -3.91171e-20)
(8.76687 5.0828 -4.08471e-18)
(8.73363 5.61239 -2.22151e-19)
(8.72418 6.20271 2.13831e-19)
(8.74922 6.86448 0)
(8.82512 7.61204 0)
(8.99467 8.46285 1.53184e-19)
(9.24006 9.44013 -1.04559e-18)
(9.90995 10.4983 1.47716e-18)
(10.4933 11.6937 2.55499e-19)
(9.98861 0.125344 0)
(9.98321 0.250559 -2.033e-19)
(9.96867 0.37734 1.02593e-18)
(9.94414 0.507339 4.14738e-19)
(9.91282 0.642112 0)