/*--------------------------------*- C++ -*----------------------------------*\
| =========                 |                                                 |
| \\      /  F ield         | OpenFOAM: The Open Source CFD Toolbox           |
|  \\    /   O peration     | Version:  4.1                                   |
|   \\  /    A nd           | Web:      www.OpenFOAM.org                      |
|    \\/     M anipulation  |                                                 |
\*---------------------------------------------------------------------------*/
FoamFile
{
    version     2.0;
    format      ascii;
    class       surfaceVectorField;
    location    "4.3";
    object      Uf;
}
// * * * * * * * * * * * * * * * * * * * * * * * * * * * * * * * * * * * * * //

dimensions      [0 1 -1 0 0 0 0];

internalField   nonuniform List<vector> 
5457
(
(9.91667 0.0248046 -1.07084e-20)
(9.96811 0.0385185 -9.82455e-24)
(9.81745 0.031938 -1.57933e-20)
(9.92563 0.0471968 1.86948e-20)
(9.70241 0.0378791 -2.69537e-20)
(9.85314 0.056403 -3.94117e-21)
(9.56924 0.0440465 4.14555e-22)
(9.75569 0.0672703 -5.45651e-20)
(9.41801 0.050436 -8.98319e-21)
(9.63901 0.0786915 4.00986e-20)
(9.24899 0.0570872 -1.63885e-20)
(9.50447 0.0905851 -6.5716e-20)
(9.06198 0.0641442 1.51634e-22)
(9.35147 0.103203 5.05995e-20)
(8.85643 0.0717517 3.78099e-20)
(9.17926 0.116787 -5.23667e-20)
(8.63157 0.0800354 -2.18301e-20)
(8.98714 0.131529 3.64726e-20)
(8.38641 0.0891156 -5.73484e-20)
(8.77431 0.147609 -2.47453e-21)
(8.11985 0.0991154 8.42033e-20)
(8.53977 0.165205 -4.83307e-22)
(7.83062 0.110162 -5.08116e-20)
(8.28235 0.184501 8.34963e-20)
(7.51739 0.122385 -6.04214e-20)
(8.00074 0.205673 -2.57041e-19)
(7.17873 0.13591 6.70605e-20)
(7.69355 0.228883 1.30505e-19)
(6.81326 0.150854 0)
(7.35935 0.254263 5.4477e-19)
(6.41966 0.167311 -2.71729e-20)
(6.99673 0.281895 -4.24256e-19)
(5.9968 0.185338 3.12316e-20)
(6.60438 0.311776 -4.03794e-19)
(5.54392 0.204927 2.4209e-19)
(6.18124 0.343771 -1.0684e-19)
(5.06076 0.225986 -1.45012e-19)
(5.7266 0.377579 6.797e-19)
(4.54781 0.2483 -3.17081e-19)
(5.24039 0.412673 -2.62798e-19)
(4.00657 0.271473 -3.04562e-19)
(4.72333 0.448209 0)
(3.43985 0.294877 -5.31829e-20)
(4.17724 0.482945 -3.00505e-19)
(2.85214 0.317607 2.37204e-19)
(3.60541 0.515171 1.6025e-18)
(2.24992 0.33845 0)
(3.01297 0.542679 1.16365e-20)
(1.64184 0.35624 0)
(2.40743 0.562811 -1.31694e-18)
(1.0381 0.371648 -2.3086e-19)
(1.79891 0.573276 -3.56957e-19)
(0.445459 0.335889 1.77354e-18)
(1.20974 0.575707 -4.22067e-19)
(-0.0843959 0.0279372 1.96685e-18)
(0.603842 0.52146 2.40165e-18)
(-0.245989 -0.291902 -2.1728e-18)
(0.148211 0.157635 3.75214e-18)
(0.0756935 -0.241583 -6.88263e-18)
(9.99735 0.0505258 2.96371e-20)
(9.99568 0.0397463 1.46979e-20)
(9.96035 0.0681861 3.02044e-20)
(9.97896 0.0648033 -2.9688e-20)
(9.90145 0.0838259 -3.2296e-20)
(9.93626 0.085286 6.0848e-20)
(9.82268 0.100355 -1.34945e-20)
(9.86933 0.107071 -4.65926e-20)
(9.72399 0.117782 -1.81784e-20)
(9.7826 0.130057 3.20086e-20)
(9.60543 0.13616 2.95237e-21)
(9.67759 0.15414 -8.17753e-20)
(9.46683 0.155796 -3.40141e-21)
(9.55395 0.179711 4.99363e-20)
(9.3077 0.177017 -5.24298e-20)
(9.41105 0.20722 -1.83837e-20)
(9.12734 0.200108 5.52742e-20)
(9.24831 0.237057 -7.34754e-22)
(8.92481 0.22534 5.44237e-20)
(9.06501 0.269586 5.52101e-20)
(8.69903 0.252986 0)
(8.86026 0.305175 0)
(8.44877 0.283313 -1.27556e-19)
(8.63299 0.344201 -3.90866e-20)
(8.17267 0.316578 -6.06288e-20)
(8.38199 0.387033 -2.47532e-19)
(7.86929 0.353002 6.14086e-19)
(8.10592 0.434014 2.02363e-20)
(7.53717 0.392751 1.06893e-19)
(7.80337 0.48544 5.44858e-19)
(7.17488 0.43589 -8.00624e-19)
(7.47292 0.541513 -3.78409e-19)
(6.78111 0.482326 -5.37842e-19)
(7.11316 0.602278 -2.81414e-19)
(6.35489 0.531741 3.41695e-19)
(6.72283 0.667527 3.70293e-20)
(5.89566 0.583526 5.49113e-19)
(6.3009 0.736719 3.91263e-19)
(5.40355 0.636668 5.80454e-20)
(5.84684 0.808872 -8.34931e-19)
(4.87964 0.689613 0)
(5.36075 0.882372 -9.55217e-19)
(4.32631 0.740138 1.38053e-18)
(4.84365 0.954771 2.21601e-18)
(3.74767 0.785214 1.35761e-18)
(4.29781 1.02259 -8.83156e-19)
(3.15016 0.8208 -1.32073e-18)
(3.72726 1.08108 2.23884e-18)
(2.5436 0.841407 -1.66309e-18)
(3.13856 1.12371 1.08342e-18)
(1.94451 0.838583 -5.48302e-19)
(2.54148 1.14073 -2.59271e-18)
(1.38802 0.782711 2.31719e-19)
(1.954 1.1133 1.53518e-19)
(0.915934 0.616402 4.18771e-18)
(1.37191 0.981868 4.1947e-19)
(0.363012 0.161583 -1.0994e-18)
(0.854586 0.691194 3.74453e-18)
(0.407306 0.140841 -3.74191e-18)
(9.99 0.0572213 -4.52524e-20)
(9.99342 0.0443694 0)
(9.9562 0.0849983 2.29181e-21)
(9.97415 0.0808794 1.48358e-20)
(9.90088 0.111184 4.49871e-20)
(9.93243 0.112408 -1.49932e-20)
(9.82699 0.138643 6.82448e-23)
(9.8685 0.144396 3.08829e-20)
(9.735 0.167674 -3.32447e-20)
(9.78569 0.177925 0)
(9.62492 0.198444 -3.28811e-20)
(9.68552 0.213142 3.18234e-20)
(9.49661 0.231389 3.39786e-20)
(9.56794 0.250524 3.24812e-20)
(9.34975 0.266995 3.35736e-20)
(9.43248 0.290674 -1.70924e-19)
(9.18378 0.305722 0)
(9.27871 0.334154 2.10492e-19)
(8.99795 0.348017 0)
(9.10607 0.381503 -7.16026e-20)
(8.79134 0.394337 -3.9641e-20)
(8.9139 0.433263 0)
(8.56288 0.445141 -1.61994e-19)
(8.70133 0.489992 3.09704e-19)
(8.31139 0.500876 -1.62871e-19)
(8.46738 0.552247 -6.80126e-19)
(8.03555 0.561941 -4.16551e-20)
(8.21097 0.620564 2.86311e-19)
(7.73397 0.628659 4.65494e-20)
(7.9309 0.695417 -6.05991e-19)
(7.40523 0.701205 1.42261e-19)
(7.62594 0.777176 6.6592e-19)
(7.04793 0.77951 2.97894e-19)
(7.29482 0.866019 2.53113e-21)
(6.66078 0.863145 9.13504e-20)
(6.9363 0.961786 9.81549e-19)
(6.24279 0.951206 -1.01001e-18)
(6.54912 1.06385 -8.08282e-19)
(5.79337 1.04213 -1.85055e-18)
(6.13237 1.17098 -8.94239e-19)
(5.31261 1.13347 1.30281e-18)
(5.68549 1.28106 6.13601e-19)
(4.80154 1.22155 -8.81195e-20)
(5.20839 1.39079 2.00568e-18)
(4.26255 1.30125 3.66316e-20)
(4.70174 1.49524 -2.22493e-18)
(3.70003 1.36541 4.63073e-18)
(4.16736 1.58742 1.54324e-19)
(3.12121 1.40374 1.14348e-19)
(3.60863 1.65743 2.40158e-18)
(2.53702 1.40019 -1.86438e-18)
(3.03026 1.69065 -2.23649e-18)
(1.95953 1.32291 3.42787e-19)
(2.43954 1.66464 2.97983e-20)
(1.37676 1.1265 -5.59012e-22)
(1.83202 1.54034 -5.88362e-18)
(0.753514 0.771409 1.00332e-18)
(1.19043 1.28396 3.58659e-19)
(0.661767 0.845141 1.48466e-17)
(9.98594 0.0683641 6.02937e-20)
(9.99222 0.0508706 0)
(9.95216 0.107425 -2.90175e-21)
(9.9712 0.0969507 8.89929e-20)
(9.89783 0.144713 -2.84156e-20)
(9.92934 0.139048 -9.06843e-20)
(9.82515 0.18284 3.03636e-20)
(9.86659 0.18112 3.0816e-20)
(9.73496 0.222657 6.55336e-20)
(9.78549 0.224871 0)
(9.62737 0.264637 9.72104e-20)
(9.68747 0.270821 -6.38171e-20)
(9.50232 0.309386 -1.75337e-19)
(9.57261 0.319555 -2.30647e-19)
(9.35962 0.357561 1.1434e-20)
(9.4406 0.371784 -2.9545e-21)
(9.1989 0.409798 1.34893e-19)
(9.29108 0.428208 5.58876e-19)
(9.01963 0.466724 -7.05975e-20)
(9.12367 0.489504 -4.27158e-19)
(8.82115 0.528976 3.53731e-19)
(8.93786 0.556357 2.9589e-19)
(8.60268 0.597202 -2.22325e-19)
(8.73302 0.629471 4.28227e-19)
(8.36335 0.672037 -2.17444e-19)
(8.50842 0.709555 -8.70055e-19)
(8.10218 0.754078 -2.90495e-19)
(8.26324 0.7973 3.28663e-19)
(7.81812 0.843833 3.10149e-20)
(7.99661 0.89334 -6.9031e-19)
(7.51008 0.941658 5.1709e-19)
(7.70757 0.998194 7.07478e-19)
(7.1769 1.04763 6.9983e-19)
(7.39519 1.1122 -1.36849e-18)
(6.81742 1.1614 5.74821e-20)
(7.05846 1.23534 2.17868e-18)
(6.4305 1.28199 -6.93736e-19)
(6.69619 1.36705 8.70486e-19)
(6.01522 1.40763 1.59088e-18)
(6.3073 1.50604 -1.61819e-18)
(5.57089 1.53539 1.33538e-18)
(5.8908 1.65004 7.24237e-20)
(5.09719 1.66077 -1.85721e-19)
(5.44578 1.79536 1.55609e-18)
(4.59445 1.77716 -2.0777e-18)
(4.97139 1.93632 2.21156e-20)
(4.06382 1.8753 -2.05031e-18)
(4.46701 2.06471 1.8659e-18)
(3.50728 1.94217 0)
(3.93226 2.16914 -4.38049e-18)
(2.92645 1.95936 -3.19439e-19)
(3.36624 2.23403 -2.73658e-19)
(2.31891 1.89904 -6.24324e-18)
(2.76746 2.23891 -2.14126e-20)
(1.67005 1.73104 -5.47586e-18)
(2.12958 2.15493 -5.88033e-18)
(0.951573 1.43344 1.43327e-17)
(1.4154 1.96144 5.64895e-18)
(0.77655 1.62303 7.36933e-18)
(9.98398 0.0800988 2.99482e-20)
(9.99167 0.0582769 0)
(9.94981 0.128888 -1.45273e-21)
(9.96976 0.113215 -2.95621e-20)
(9.89641 0.176058 -2.96646e-20)
(9.92797 0.165239 2.99633e-20)
(9.82509 0.224006 0)
(9.86645 0.217168 0)
(9.73672 0.273981 -1.30286e-19)
(9.78726 0.270881 0)
(9.6315 0.326718 -3.94106e-19)
(9.69162 0.327244 -1.28274e-19)
(9.5094 0.382942 -5.50033e-20)
(9.57964 0.386986 -1.98428e-19)
(9.37026 0.44341 5.52529e-19)
(9.45108 0.450909 -6.65699e-20)
(9.21377 0.508867 -1.71391e-20)
(9.30567 0.519824 3.45833e-19)
(9.03954 0.580056 -5.05091e-20)
(9.14307 0.594522 -1.45414e-19)
(8.84705 0.657731 3.72254e-19)
(8.96289 0.675806 2.95958e-19)
(8.6357 0.742658 -2.37655e-19)
(8.76461 0.764496 4.58758e-21)
(8.40483 0.8356 -3.07262e-19)
(8.54765 0.861419 -3.11633e-19)
(8.15372 0.937283 -8.52793e-20)
(8.31138 0.967386 -7.97651e-19)
(7.88157 1.04835 5.46966e-21)
(8.05511 1.08316 7.31323e-19)
(7.58761 1.16929 -1.20705e-18)
(7.77811 1.20937 1.45328e-18)
(7.27097 1.30035 1.58487e-19)
(7.47964 1.34648 -2.8472e-18)
(6.93069 1.44133 2.97481e-18)
(7.15889 1.4947 1.39841e-18)
(6.56568 1.59132 -8.6544e-20)
(6.81485 1.6536 1.57508e-18)
(6.17479 1.74858 -3.11581e-18)
(6.44631 1.82202 -1.42457e-18)
(5.75682 1.9101 3.11622e-19)
(6.05196 1.99777 -4.97857e-18)
(5.31044 2.07112 1.74616e-18)
(5.63025 2.17724 1.72971e-18)
(4.8341 2.22452 3.99094e-18)
(5.17916 2.35472 3.5196e-18)
(4.32591 2.36028 -5.34064e-19)
(4.69606 2.52191 3.94511e-18)
(3.78322 2.46485 -4.6121e-18)
(4.17746 2.66739 -4.13974e-18)
(3.20161 2.52064 2.6935e-20)
(3.6185 2.77622 -2.71181e-19)
(2.57317 2.50479 2.92752e-19)
(3.01248 2.82997 2.95329e-19)
(1.88398 2.39514 5.32541e-18)
(2.35286 2.80479 -2.93519e-19)
(1.11445 2.17025 -1.2872e-18)
(1.59808 2.68542 5.44917e-18)
(0.880995 2.42872 -6.45562e-18)
(9.98311 0.0921577 -5.99292e-20)
(9.99148 0.0660854 0)
(9.94884 0.150121 2.74759e-21)
(9.96928 0.12953 5.83788e-20)
(9.89656 0.206909 5.91902e-20)
(9.92795 0.190893 6.00789e-20)
(9.82699 0.264637 0)
(9.86793 0.252341 0)
(9.74089 0.324712 1.58949e-22)
(9.79101 0.315729 0)
(9.63851 0.388056 6.64201e-20)
(9.69817 0.382172 6.3511e-20)
(9.51983 0.455502 -2.08105e-19)
(9.58958 0.452557 6.53337e-20)
(9.38471 0.527901 -2.67488e-19)
(9.46503 0.527783 -2.68703e-19)
(9.23291 0.606097 2.10638e-19)
(9.32428 0.60875 -2.58236e-21)
(9.06409 0.690944 2.07289e-19)
(9.16708 0.696348 2.79936e-19)
(8.87781 0.783307 -7.5835e-20)
(8.99306 0.791487 -7.12394e-20)
(8.67357 0.884063 -7.3765e-20)
(8.80179 0.895088 -7.48097e-20)
(8.45082 0.994086 -8.08761e-19)
(8.59277 1.00808 0)
(8.20896 1.11422 3.98344e-20)
(8.36545 1.13138 -1.63453e-20)
(7.94737 1.24521 2.18949e-18)
(8.11925 1.26584 -1.41365e-19)
(7.66536 1.38768 -2.44748e-19)
(7.85355 1.41224 1.36676e-18)
(7.36222 1.54203 -1.55061e-18)
(7.56759 1.57115 -1.99537e-19)
(7.0371 1.70825 0)
(7.26065 1.74294 -2.64188e-18)
(6.68893 1.88567 1.975e-19)
(6.93181 1.92749 3.09256e-18)
(6.31637 2.07269 -3.33322e-18)
(6.57973 2.12387 -1.49075e-18)
(5.91776 2.26655 -3.47775e-18)
(6.20277 2.33019 -3.28682e-18)
(5.49094 2.46274 3.52502e-18)
(5.7988 2.54323 -3.96969e-20)
(5.03291 2.65444 3.47947e-18)
(5.36487 2.75784 3.73231e-18)
(4.53957 2.83199 2.47458e-19)
(4.89682 2.96637 -2.17327e-19)
(4.00531 2.98249 2.44829e-19)
(4.38914 3.15825 4.15122e-18)
(3.42245 3.0898 2.70178e-21)
(3.83455 3.3196 -7.46036e-18)
(2.7808 3.13419 -2.96161e-19)
(3.22343 3.43348 4.06755e-18)
(2.06738 3.09616 -1.29455e-19)
(2.5496 3.47847 -1.54438e-19)
(1.26873 2.9493 1.58484e-19)
(1.77302 3.43916 9.65737e-18)
(0.992788 3.26486 -1.05868e-17)
(9.98287 0.1043 1.19139e-19)
(9.99149 0.0740082 1.15584e-19)
(9.94891 0.171026 1.15743e-19)
(9.96945 0.145701 -5.84347e-20)
(9.89796 0.237011 0)
(9.92897 0.215903 2.37659e-19)
(9.83047 0.304158 0)
(9.87073 0.286476 -6.03438e-20)
(9.74706 0.373948 6.4272e-20)
(9.79639 0.359198 1.22913e-19)
(9.64799 0.447467 6.24516e-20)
(9.70681 0.435348 6.33629e-20)
(9.53329 0.525678 0)
(9.60211 0.515968 -2.57286e-19)
(9.40283 0.609526 0)
(9.48214 0.602054 2.60991e-19)
(9.25641 0.69995 7.06662e-20)
(9.34673 0.694584 2.69232e-19)
(9.09374 0.797902 -3.51034e-21)
(9.19564 0.794539 3.48087e-19)
(8.91444 0.904348 -7.02688e-20)
(9.02858 0.902928 -5.60623e-19)
(8.71807 1.02026 0)
(8.84515 1.02078 0)
(8.50412 1.14662 7.92425e-19)
(8.64491 1.1491 0)
(8.27207 1.28435 -1.9907e-19)
(8.42735 1.28891 1.83917e-20)
(8.02134 1.43433 -9.44639e-19)
(8.19193 1.44119 -1.79011e-19)
(7.75125 1.5973 1.39127e-18)
(7.93804 1.60684 0)
(7.46106 1.77382 -1.32235e-18)
(7.6649 1.7866 1.37358e-18)
(7.14991 1.96411 5.25275e-19)
(7.3717 1.98101 -2.81512e-18)
(6.81669 2.16781 1.34639e-18)
(7.05748 2.19023 2.91909e-18)
(6.45981 2.3837 -1.46694e-18)
(6.72072 2.41376 -1.68752e-18)
(6.07716 2.60947 1.93606e-19)
(6.35945 2.65019 1.96137e-19)
(5.66581 2.84124 2.1128e-19)
(5.97097 2.89697 -3.09693e-18)
(5.22167 3.07304 -1.36836e-20)
(5.55151 3.14986 3.17993e-18)
(4.73915 3.2962 3.73809e-18)
(5.09581 3.40231 -3.32962e-18)
(4.21087 3.49904 -3.68026e-18)
(4.59696 3.64498 7.1212e-18)
(3.62747 3.66665 -3.28345e-18)
(4.04623 3.86526 -2.47526e-19)
(2.97768 3.78077 4.17293e-18)
(3.43226 4.04722 -3.48622e-18)
(2.24929 3.82163 9.72152e-18)
(2.74886 4.17019 8.34858e-18)
(1.43273 3.75714 -1.38485e-18)
(1.9619 4.21513 7.08756e-19)
(1.12198 4.12922 -1.12897e-18)
(9.98301 0.116327 -6.44441e-20)
(9.99163 0.0818666 2.89606e-20)
(9.94974 0.191446 6.78812e-20)
(9.97007 0.161548 -2.05104e-19)
(9.90037 0.266196 1.72953e-19)
(9.93078 0.240147 1.19632e-19)
(9.83528 0.342368 6.52385e-20)
(9.87462 0.319419 -1.80309e-19)
(9.75495 0.421484 1.21153e-19)
(9.8032 0.401082 5.01671e-22)
(9.65968 0.504768 -2.60976e-19)
(9.71727 0.486524 -2.49793e-19)
(9.54949 0.593303 1.10366e-20)
(9.61694 0.576924 -4.23899e-21)
(9.4243 0.688118 5.30397e-19)
(9.50213 0.673375 2.61047e-19)
(9.28396 0.790235 5.47811e-19)
(9.37268 0.776923 4.01322e-19)
(9.12822 0.900696 -2.21586e-19)
(9.22843 0.888633 2.78463e-19)
(8.95675 1.02057 -4.82761e-19)
(9.06911 1.00961 -6.2754e-19)
(8.76915 1.15091 0)
(8.8944 1.14098 0)
(8.56496 1.29281 -7.74032e-19)
(8.70389 1.28386 4.39134e-19)
(8.34368 1.44729 3.56105e-20)
(8.4971 1.43935 -1.58124e-19)
(8.10472 1.61538 7.68651e-19)
(8.2735 1.60858 -5.86083e-19)
(7.8474 1.79797 0)
(8.03246 1.79259 0)
(7.57091 1.99581 -1.7337e-19)
(7.77321 1.99231 1.59563e-19)
(7.27425 2.20936 -3.47627e-19)
(7.49481 2.20852 -1.71248e-19)
(6.95612 2.43866 -1.7419e-19)
(7.1961 2.44172 2.54085e-18)
(6.61468 2.68302 0)
(6.87537 2.69191 2.86358e-20)
(6.24735 2.9408 -3.13613e-18)
(6.5303 2.95837 -2.83635e-18)
(5.85053 3.20905 -5.49168e-20)
(6.15766 3.23942 -3.10105e-18)
(5.41927 3.48294 -2.10938e-19)
(5.75297 3.53197 2.97529e-18)
(4.94686 3.75519 1.67785e-19)
(5.31006 3.83087 -6.04846e-18)
(4.42468 4.01548 1.04864e-17)
(4.82088 4.12834 6.42362e-18)
(3.84225 4.24995 -4.85011e-19)
(4.27547 4.41309 1.39576e-17)
(3.18767 4.44077 8.05232e-19)
(3.66103 4.66985 -1.45641e-17)
(2.4489 4.56572 -7.41682e-19)
(2.97002 4.87758 8.21955e-18)
(1.61998 4.58641 9.80536e-19)
(2.17836 5.00964 -8.68642e-18)
(1.27425 5.0118 9.74528e-18)
(9.98341 0.128083 -1.15017e-19)
(9.99186 0.0895401 -8.6656e-20)
(9.95115 0.211239 -1.48537e-19)
(9.97103 0.17692 -8.69405e-20)
(9.90364 0.294324 -2.38049e-19)
(9.93322 0.263493 5.87964e-20)
(9.84123 0.379099 -2.42439e-19)
(9.87943 0.351019 -2.39176e-19)
(9.76436 0.467117 -3.7408e-19)
(9.81124 0.441189 1.20294e-19)
(9.67331 0.559712 1.04543e-20)
(9.72934 0.535465 -3.72967e-19)
(9.56814 0.658074 2.49563e-19)
(9.63384 0.63515 5.05423e-19)
(9.4488 0.763311 1.33879e-19)
(9.52469 0.741423 1.29636e-19)
(9.31518 0.876516 1.30219e-19)
(9.4018 0.855389 2.65542e-19)
(9.16711 0.998818 -1.39926e-19)
(9.26504 0.978186 -5.31408e-19)
(9.0043 1.13138 -1.36174e-19)
(9.11424 1.11102 -5.48844e-19)
(8.82639 1.27537 4.45112e-19)
(8.9491 1.25512 1.11352e-18)
(8.63297 1.43196 1.04747e-18)
(8.76926 1.41169 -6.97599e-19)
(8.42354 1.60233 -7.85376e-19)
(8.57428 1.58197 1.61753e-19)
(8.19753 1.78762 -1.34796e-18)
(8.36365 1.76719 -1.37673e-18)
(7.95423 1.98892 1.61663e-19)
(8.13676 1.96858 2.43251e-18)
(7.69277 2.2072 1.57619e-19)
(7.8928 2.1873 -1.23402e-18)
(7.41201 2.44328 2.75233e-18)
(7.63077 2.42442 -1.4359e-18)
(7.11041 2.69762 2.71503e-18)
(7.34931 2.68085 4.01418e-18)
(6.78582 2.97021 -2.84327e-18)
(7.04652 2.95721 2.86685e-20)
(6.43525 3.26027 -2.80499e-18)
(6.71976 3.25357 -2.83993e-18)
(6.05451 3.56599 0)
(6.36532 3.56934 -3.13712e-18)
(5.63789 3.88397 -2.96698e-18)
(5.97809 3.90282 3.19031e-18)
(5.17769 4.20856 3.45417e-19)
(5.5511 4.2506 -3.12079e-18)
(4.66406 4.53104 9.97676e-18)
(5.07508 4.60673 3.21458e-18)
(4.08521 4.83854 -4.1946e-19)
(4.53856 4.96158 6.54069e-18)
(3.42807 5.11301 -6.92688e-18)
(3.92679 5.30046 -7.0048e-18)
(2.67933 5.32774 1.23192e-19)
(3.22814 5.60139 0)
(1.83463 5.43397 3.96874e-19)
(2.43136 5.82624 3.38489e-19)
(1.45338 5.91511 -9.24607e-20)
(9.984 0.139451 -5.86046e-20)
(9.99217 0.0969426 0)
(9.95302 0.230273 1.22568e-19)
(9.97224 0.19169 5.79077e-20)
(9.90761 0.321258 5.33501e-20)
(9.93617 0.285815 6.01659e-20)
(9.84818 0.414185 1.28792e-19)
(9.88503 0.381135 -3.82504e-22)
(9.77511 0.510641 1.1439e-19)
(9.82037 0.479342 1.22675e-19)
(9.68867 0.612049 1.3447e-19)
(9.74284 0.58196 -3.67314e-19)
(9.58897 0.719695 3.80233e-19)
(9.65254 0.690397 -1.21538e-19)
(9.476 0.834754 2.63212e-19)
(9.54952 0.805901 -1.25362e-19)
(9.34973 0.958379 -4.07084e-19)
(9.43374 0.929623 5.19309e-19)
(9.21002 1.09179 -9.40707e-19)
(9.30511 1.06278 -5.31568e-19)
(9.05664 1.23625 7.23282e-19)
(9.16351 1.20668 -4.10929e-19)
(8.8893 1.39302 -5.32311e-20)
(9.00874 1.36264 1.25007e-18)
(8.70762 1.56339 -1.57272e-18)
(8.84047 1.53197 -1.55747e-18)
(8.51116 1.74865 -4.49729e-19)
(8.65834 1.716 1.26312e-18)
(8.29936 1.95011 2.45364e-18)
(8.46186 1.91614 2.89705e-19)
(8.07152 2.16908 9.91363e-19)
(8.25046 2.1338 1.11092e-18)
(7.82672 2.4068 -2.83135e-18)
(8.02336 2.37037 -1.39483e-18)
(7.56373 2.66447 -1.09032e-19)
(7.77951 2.62727 -1.28278e-18)
(7.28085 2.94313 1.27944e-18)
(7.51751 2.90592 1.14033e-18)
(6.97567 3.24351 0)
(7.23534 3.20761 0)
(6.64485 3.56588 -3.17487e-18)
(6.93009 3.53336 -2.43879e-18)
(6.2837 3.90978 1.23424e-19)
(6.59774 3.88384 -1.81297e-19)
(5.8858 4.27354 2.97122e-18)
(6.23268 4.25901 3.18767e-18)
(5.44246 4.65354 -1.82527e-19)
(5.82714 4.65759 -1.84677e-19)
(4.94232 5.04309 -1.93436e-19)
(5.37056 5.07608 -5.58095e-18)
(4.37141 5.43072 -1.89232e-19)
(4.84931 5.50725 5.68843e-18)
(3.71396 5.79808 0)
(4.2455 5.93766 0)
(2.95254 6.11246 2.18767e-19)
(3.53897 6.3449 1.86532e-19)
(2.07983 6.30852 -1.58926e-19)
(2.72923 6.67648 -8.94018e-20)
(1.6631 6.85088 -7.11387e-18)
(9.98472 0.150335 1.17339e-19)
(9.99252 0.104009 1.13633e-19)
(9.95524 0.248431 -4.47571e-21)
(9.97365 0.205753 5.82194e-20)
(9.91219 0.346868 5.55027e-21)
(9.93955 0.306995 5.78089e-20)
(9.85599 0.447473 -4.71446e-21)
(9.8913 0.409633 1.18859e-19)
(9.78702 0.551871 -3.66074e-19)
(9.83045 0.515383 1.19364e-19)
(9.70555 0.661562 -6.19923e-19)
(9.75757 0.625826 -2.42457e-19)
(9.61171 0.777907 -6.27306e-19)
(9.6728 0.742444 -4.96208e-19)
(9.5056 0.902132 1.3961e-19)
(9.57634 0.866532 -4.64667e-21)
(9.38723 1.03545 3.80588e-19)
(9.46818 0.999293 6.42425e-19)
(9.25652 1.17918 0)
(9.34825 1.14203 -1.03651e-18)
(9.1133 1.33467 1.37935e-19)
(9.2165 1.29614 3.93955e-19)
(8.95735 1.50328 -2.91245e-19)
(9.07281 1.46301 1.52159e-21)
(8.78836 1.68639 1.31557e-18)
(8.91694 1.64406 -9.68312e-19)
(8.60595 1.88544 1.99096e-18)
(8.7486 1.84074 2.12363e-18)
(8.4096 2.1019 -1.04348e-18)
(8.56737 2.05458 2.99062e-19)
(8.19868 2.33729 -1.30756e-18)
(8.37279 2.28718 -1.17991e-18)
(7.97229 2.59319 1.56343e-19)
(8.16417 2.54022 1.17092e-18)
(7.72921 2.87121 -4.31517e-21)
(7.94048 2.81546 1.6193e-20)
(7.4677 3.17304 -1.53373e-19)
(7.70039 3.11486 -1.20106e-18)
(7.18523 3.50027 -2.46771e-18)
(7.44191 3.44047 -2.29093e-18)
(6.87825 3.85434 5.80674e-19)
(7.16212 3.79436 -2.91116e-19)
(6.54176 4.2364 2.9228e-18)
(6.85687 4.17863 2.964e-18)
(6.16876 4.64688 -7.29841e-21)
(6.52032 4.59523 -3.26208e-19)
(5.74953 5.08479 -5.64471e-18)
(6.14411 5.0455 -2.54631e-18)
(5.27092 5.5464 4.21842e-19)
(5.71645 5.52932 -3.01661e-18)
(4.71559 6.02292 5.81935e-18)
(5.22102 6.04339 5.2872e-19)
(4.06228 6.49725 1.88763e-19)
(4.63538 6.57778 2.25344e-20)
(3.28409 6.93161 -1.25642e-19)
(3.92549 7.11298 5.45273e-18)
(2.35776 7.23928 -7.17495e-18)
(3.09252 7.58616 5.32139e-18)
(1.91638 7.88596 -1.28421e-17)
(9.98556 0.160658 5.37298e-20)
(9.99292 0.110688 1.22555e-22)
(9.95776 0.26561 1.20507e-19)
(9.97522 0.219022 1.13737e-19)
(9.91728 0.371034 1.72027e-19)
(9.94327 0.326927 1.55535e-21)
(9.86455 0.478825 2.42966e-19)
(9.89814 0.436393 1.17181e-19)
(9.79994 0.590649 2.37894e-19)
(9.84131 0.54918 2.40531e-19)
(9.72371 0.70806 -1.22266e-19)
(9.77333 0.666907 -1.17643e-19)
(9.63611 0.83247 1.33366e-19)
(9.69442 0.791086 -3.66849e-19)
(9.53731 0.965153 5.07125e-19)
(9.60493 0.923056 3.73259e-19)
(9.42736 1.1074 -7.9753e-19)
(9.50483 1.0641 -1.21709e-19)
(9.30622 1.2606 -6.23631e-19)
(9.39408 1.21559 -5.27894e-19)
(9.17379 1.42619 2.52427e-19)
(9.27273 1.379 3.95096e-19)
(9.02994 1.60561 -6.88255e-19)
(9.14072 1.55579 -1.34687e-19)
(8.87447 1.80033 -1.21005e-19)
(8.99795 1.74743 -5.48374e-19)
(8.70708 2.01192 4.08302e-19)
(8.84421 1.9555 -6.7249e-19)
(8.52738 2.24202 1.44678e-19)
(8.67926 2.18166 2.06126e-18)
(8.33483 2.49236 1.32814e-18)
(8.50279 2.42768 -8.28664e-19)
(8.12867 2.76485 1.01773e-18)
(8.31422 2.69549 1.17181e-18)
(7.90775 3.06155 -1.195e-18)
(8.11269 2.98725 -1.36264e-19)
(7.67046 3.38481 -3.35246e-18)
(7.89703 3.3054 -1.04682e-18)
(7.41441 3.73716 -9.23056e-20)
(7.66549 3.65278 -2.44015e-18)
(7.13609 4.12134 2.12901e-18)
(7.41544 4.03257 2.3011e-18)
(6.8305 4.54029 -3.22293e-19)
(7.143 4.44838 2.35675e-18)
(6.49042 4.997 -2.88997e-18)
(6.84254 4.90442 -2.53694e-18)
(6.10542 5.49393 7.86803e-20)
(6.50573 5.40524 -2.54961e-18)
(5.66051 6.03187 -2.87236e-18)
(6.12016 5.95529 2.57636e-18)
(5.13418 6.6074 -5.28285e-18)
(5.66718 6.55764 -5.07259e-18)
(4.49652 7.20905 5.35907e-18)
(5.11933 7.2105 -4.66057e-18)
(3.70442 7.80006 1.0902e-17)
(4.42461 7.90472 1.47372e-17)
(2.7037 8.27522 -7.42946e-19)
(3.57101 8.57992 6.21604e-19)
(2.2519 9.10049 -1.1177e-17)
(9.98649 0.170359 6.1726e-20)
(9.99335 0.11694 -1.13555e-19)
(9.96052 0.28172 -6.88411e-21)
(9.97692 0.231425 1.1426e-19)
(9.92278 0.393653 -5.16284e-20)
(9.94727 0.345523 -1.15365e-19)
(9.87371 0.508124 1.16522e-19)
(9.90542 0.46132 2.33539e-19)
(9.81367 0.626838 -1.2012e-19)
(9.8528 0.580618 -1.15824e-19)
(9.74298 0.75137 -3.65748e-19)
(9.78996 0.705049 -1.19423e-19)
(9.66197 0.883162 -1.16727e-19)
(9.71723 0.836125 -2.44614e-19)
(9.57087 1.02355 -2.62419e-19)
(9.63505 0.975243 1.22798e-19)
(9.46977 1.17392 1.42513e-19)
(9.54338 1.12378 -3.78432e-19)
(9.35866 1.33571 5.03315e-19)
(9.44219 1.28319 4.46441e-21)
(9.23753 1.51042 9.77139e-22)
(9.33164 1.45496 5.1051e-19)
(9.10636 1.69953 0)
(9.21181 1.64058 1.28644e-19)
(8.96509 1.90462 -1.10161e-18)
(9.08273 1.84161 0)
(8.81358 2.12735 1.01427e-18)
(8.9443 2.05969 -8.23132e-19)
(8.65163 2.36952 1.05337e-18)
(8.79655 2.2966 3.27292e-18)
(8.47887 2.63308 -9.61897e-19)
(8.63934 2.55426 -1.10418e-18)
(8.2947 2.92022 2.2184e-21)
(8.47225 2.83486 5.31738e-21)
(8.09819 3.23347 2.16837e-21)
(8.29475 3.1409 -9.58986e-19)
(7.88799 3.57575 -1.48557e-19)
(8.1059 3.47525 0)
(7.66213 3.95052 4.32783e-21)
(7.90445 3.84143 2.08094e-18)
(7.41759 4.36186 2.52903e-18)
(7.6884 4.24364 -4.44728e-18)
(7.14987 4.81464 9.37455e-20)
(7.45463 4.68703 6.67163e-18)
(6.85222 5.31473 -2.19706e-18)
(7.19849 5.1781 -2.37138e-18)
(6.51439 5.86888 0)
(6.91276 5.72497 -2.202e-18)
(6.12058 6.48441 2.97782e-19)
(6.58606 6.33773 -1.32471e-19)
(5.64584 7.16757 -4.4434e-18)
(6.1997 7.02865 2.94176e-20)
(5.05041 7.92103 4.96038e-18)
(5.7241 7.8108 -4.81096e-18)
(4.26845 8.72459 4.26336e-18)
(5.09086 8.69923 1.34254e-17)
(3.19343 9.47768 -1.00907e-17)
(4.26061 9.66591 -8.89651e-18)
(2.75746 10.613 -8.77811e-18)
(9.98748 0.179387 -5.78303e-20)
(9.99381 0.122734 2.80504e-20)
(9.96346 0.296691 2.37367e-21)
(9.97872 0.242908 -8.52836e-20)
(9.9286 0.414641 1.74909e-19)
(9.95147 0.362715 5.77129e-20)
(9.88336 0.535272 -3.81609e-21)
(9.91304 0.484329 1.16358e-19)
(9.82809 0.66031 -1.15181e-19)
(9.86482 0.609587 -1.16244e-19)
(9.7632 0.791325 0)
(9.80735 0.740105 0)
(9.68909 0.929787 0)
(9.74109 0.877388 1.20355e-19)
(9.60602 1.07712 0)
(9.66649 1.02291 -1.20796e-19)
(9.51407 1.23478 -5.11447e-19)
(9.58347 1.17816 1.22005e-19)
(9.41332 1.40426 1.81322e-20)
(9.49212 1.34461 -1.00193e-18)
(9.30389 1.58704 6.33359e-19)
(9.39272 1.52374 1.01114e-18)
(9.1859 1.78467 1.27038e-19)
(9.2855 1.71707 1.23293e-21)
(9.05945 1.99878 2.68415e-19)
(9.17058 1.92618 -1.27599e-19)
(8.9246 2.23111 1.48594e-18)
(9.04812 2.15277 1.34896e-19)
(8.78135 2.48358 1.06299e-18)
(8.91834 2.39871 1.20797e-18)
(8.62955 2.75835 -1.23355e-19)
(8.78127 2.66606 -1.18632e-18)
(8.46887 3.05787 -9.66965e-19)
(8.6368 2.95719 1.06358e-18)
(8.29875 3.38501 -9.50896e-19)
(8.48478 3.27485 -1.09378e-18)
(8.11831 3.74319 2.25282e-18)
(8.32478 3.62227 0)
(7.92621 4.13664 -2.43893e-18)
(8.15617 4.00343 2.22954e-18)
(7.72038 4.57063 -1.93756e-19)
(7.97789 4.42335 -4.46452e-18)
(7.49752 5.05185 4.12036e-18)
(7.78814 4.88841 4.31924e-18)
(7.25242 5.58902 -2.37237e-18)
(7.58414 5.40707 1.9139e-18)
(6.97677 6.19359 -2.31557e-18)
(7.36135 5.99071 -4.37729e-18)
(6.6567 6.88085 -3.99158e-19)
(7.11219 6.65508 -5.74284e-21)
(6.26802 7.6713 -3.89184e-19)
(6.8231 7.42299 -8.45766e-20)
(5.76639 8.59409 3.87809e-18)
(6.47212 8.32824 -7.52353e-21)
(5.06455 9.67889 -4.05804e-20)
(5.993 9.42915 3.94807e-18)
(3.97971 10.931 -7.57957e-18)
(5.34221 10.793 -2.42169e-18)
(3.61692 12.6337 -4.78759e-18)
(9.98852 0.187708 -1.00769e-21)
(9.99429 0.128048 2.20509e-21)
(9.96652 0.310472 -2.78336e-20)
(9.98058 0.253433 -2.22236e-21)
(9.93466 0.433929 0)
(9.95583 0.37845 -3.80725e-22)
(9.89339 0.560169 6.02755e-22)
(9.92094 0.505345 1.80924e-22)
(9.84312 0.690923 5.85892e-22)
(9.87728 0.635978 1.21347e-21)
(9.78428 0.827747 1.22039e-19)
(9.82543 0.771944 3.32328e-19)
(9.7173 0.972152 -3.73741e-21)
(9.76589 0.91475 1.13751e-20)
(9.64244 1.12566 4.4782e-21)
(9.69903 1.06596 -1.23882e-19)
(9.55986 1.28976 -3.83367e-19)
(9.62488 1.22712 9.31098e-21)
(9.46975 1.46594 1.72932e-20)
(9.54366 1.3997 -5.0661e-19)
(9.37237 1.6557 3.65998e-19)
(9.45578 1.58514 7.45214e-19)
(9.268 1.86058 -2.55105e-19)
(9.36162 1.78498 -2.47572e-19)
(9.15689 2.08225 -2.57955e-19)
(9.26141 2.00081 -1.00321e-20)
(9.03932 2.32252 -1.30361e-19)
(9.15553 2.23435 -1.09728e-18)
(8.91547 2.5834 -1.07017e-18)
(9.0444 2.48752 -2.47268e-19)
(8.78547 2.86716 2.66547e-20)
(8.92825 2.76248 -2.23978e-19)
(8.64937 3.17645 9.1316e-19)
(8.80738 3.06168 1.00163e-19)
(8.50714 3.51435 -1.30544e-19)
(8.68209 3.38799 1.08894e-18)
(8.35854 3.88464 0)
(8.55263 3.74484 0)
(8.20313 4.29205 1.35656e-19)
(8.41917 4.13646 0)
(8.04014 4.74263 1.36505e-19)
(8.2818 4.56826 1.36817e-19)
(7.86816 5.24439 2.08955e-18)
(8.14052 5.0473 1.24281e-19)
(7.68485 5.80822 -1.46859e-19)
(7.99523 5.58308 2.10479e-18)
(7.48611 6.44938 -2.02592e-18)
(7.84557 6.18883 -2.56987e-19)
(7.26459 7.1903 3.07421e-19)
(7.69091 6.88376 -1.63162e-18)
(7.00618 8.06605 2.96674e-19)
(7.52992 7.69767 1.30565e-19)
(6.68095 9.13901 1.15614e-19)
(7.36581 8.6807 7.35949e-20)
(6.21527 10.5325 1.46215e-18)
(7.18988 9.93616 0)
(5.3916 12.7873 1.42718e-19)
(7.2513 11.6985 1.07676e-18)
(6.55097 15.6292 -1.12484e-18)
(0.17576 -0.0972843 1.85872e-20)
(0.088402 -0.168705 -2.29555e-20)
(0.378696 -0.0998761 2.02993e-20)
(0.281629 -0.182171 3.32743e-20)
(0.56456 -0.0850004 -8.26143e-21)
(0.46862 -0.160519 -5.33275e-20)
(0.719074 -0.0655306 -8.11888e-21)
(0.637546 -0.129341 1.14596e-20)
(0.839491 -0.0463873 -9.73601e-21)
(0.777435 -0.0981704 1.7543e-20)
(0.926526 -0.0288863 1.16141e-20)
(0.885936 -0.0693336 9.11118e-21)
(0.981606 -0.0132973 -7.38117e-21)
(0.964277 -0.0429687 -2.39371e-21)
(1.00694 -4.72356e-06 -3.10626e-22)
(1.01438 -0.0193532 -9.93452e-21)
(1.00702 0.0100112 1.47239e-20)
(1.03867 2.47303e-05 3.22288e-20)
(0.985398 0.0166927 1.30028e-21)
(1.03993 0.0161389 5.01317e-21)
(0.94851 0.0208844 -8.35242e-21)
(1.0218 0.0270424 -2.41611e-20)
(0.901285 0.0229071 -8.7308e-23)
(0.989735 0.0340513 -7.09428e-21)
(0.848696 0.0230168 6.92983e-21)
(0.948922 0.0373049 -4.423e-21)
(0.795136 0.0216066 5.08052e-23)
(0.904124 0.0373755 1.12059e-20)
(0.744144 0.0190829 -4.30738e-21)
(0.859336 0.0349973 -2.21005e-21)
(0.698526 0.0157719 -5.81005e-23)
(0.817753 0.0307875 -2.0961e-21)
(0.660562 0.0119129 2.08717e-21)
(0.781953 0.0251913 8.04504e-21)
(0.63227 0.00759947 0)
(0.7541 0.0184568 -4.87832e-21)
(0.616033 0.00278564 -4.44389e-22)
(0.736075 0.0104207 -3.64336e-21)
(0.613644 -0.00213754 -4.52648e-22)
(0.728872 0.00153168 3.57748e-21)
(0.625309 -0.00625695 -3.88778e-22)
(0.733235 -0.00717384 0)
(0.647353 -0.00900368 -3.96005e-22)
(0.748529 -0.0133436 1.48796e-21)
(0.675698 -0.0103938 -3.20804e-22)
(0.771778 -0.0168618 -1.46436e-21)
(0.706636 -0.0107853 -6.07818e-22)
(0.799292 -0.0180825 5.98532e-22)
(0.737977 -0.0106759 -2.86253e-22)
(0.827937 -0.0179973 -5.98674e-22)
(0.768948 -0.0104441 0)
(0.855899 -0.0174735 0)
(0.799619 -0.0102922 0)
(0.882549 -0.0170046 -1.64438e-22)
(0.830513 -0.0101749 6.84968e-24)
(0.907993 -0.0168329 -4.39813e-24)
(0.861811 -0.00977583 -2.21742e-24)
(0.932723 -0.0167623 -2.69403e-22)
(0.96383 -0.0159814 -6.77255e-24)
(0.17761 -0.274131 -7.04562e-21)
(0.0723342 -0.356113 -8.14101e-20)
(0.375506 -0.262799 -3.79895e-20)
(0.264441 -0.360205 7.47872e-20)
(0.553866 -0.222513 -3.70443e-20)
(0.431833 -0.313967 -1.1263e-19)
(0.705147 -0.176138 3.58717e-20)
(0.584126 -0.255202 2.58967e-21)
(0.82877 -0.131882 3.62101e-20)
(0.711935 -0.198267 4.06091e-20)
(0.925842 -0.0914019 -4.82306e-21)
(0.814684 -0.146113 0)
(0.997537 -0.0547553 -4.9267e-21)
(0.893867 -0.0984822 -2.42545e-21)
(1.04513 -0.0223237 2.2256e-20)
(0.95076 -0.0554611 0)
(1.06935 0.00471216 2.2516e-20)
(0.986508 -0.0179409 -2.62354e-20)
(1.07388 0.0254319 -2.04521e-20)
(1.00339 0.012989 3.53781e-20)