/*--------------------------------*- C++ -*----------------------------------*\
| =========                 |                                                 |
| \\      /  F ield         | OpenFOAM: The Open Source CFD Toolbox           |
|  \\    /   O peration     | Version:  4.1                                   |
|   \\  /    A nd           | Web:      www.OpenFOAM.org                      |
|    \\/     M anipulation  |                                                 |
\*---------------------------------------------------------------------------*/
FoamFile
{
    version     2.0;
    format      ascii;
    class       volVectorField;
    location    "4";
    object      Force;
}
// * * * * * * * * * * * * * * * * * * * * * * * * * * * * * * * * * * * * * //

dimensions      [1 1 -2 0 0 0 0];

internalField   uniform (0 0 0);

boundaryField
{
    inlet
    {
        type            calculated;
        value           uniform (0 0 0);
    }
    outlet
    {
        type            calculated;
        value           uniform (0 0 0);
    }
    flap
    {
        type            calculated;
        value           nonuniform List<vector> 
33
(
(3.72027 6.17354e-19 -0.0607464)
(3.71344 1.70766e-18 -0.142702)
(3.70807 1.69262e-18 -0.22344)
(3.69317 -2.46573e-18 -0.281562)
(3.66902 -8.58472e-21 -0.314276)
(3.63615 -2.45379e-18 -0.329527)
(3.59215 7.7257e-19 -0.339942)
(3.53118 4.70198e-38 -0.353419)
(3.44699 -1.66019e-18 -0.371573)
(3.3342 -1.66317e-18 -0.391861)
(3.18711 2.75575e-22 -0.408951)
(2.99791 -1.6611e-18 -0.416897)
(2.75121 1.17549e-38 -0.407347)
(2.41228 1.58606e-18 -0.36924)
(1.87976 -1.86168e-21 -0.288783)
(0.0682307 1.13213e-18 0.425415)
(0.0316323 8.09609e-19 0.201279)
(0.00209159 1.54823e-20 0.0262634)
(-0.110782 1.54995e-18 0.00173404)
(-0.11022 3.11703e-18 0.00407399)
(-0.109184 1.16777e-22 0.006325)
(-0.107756 1.58867e-18 0.00786823)
(-0.106451 1.6034e-18 0.00870143)
(-0.105856 3.22419e-18 0.0091307)
(-0.106312 2.60121e-22 0.00957405)
(-0.107944 1.61012e-18 0.0103351)
(-0.110566 3.21197e-18 0.0115044)
(-0.114286 1.60338e-18 0.0130999)
(-0.118727 1.60383e-18 0.0150311)
(-0.123199 1.61202e-18 0.0170935)
(-0.127414 -1.63142e-18 0.0191384)
(-0.129198 -1.76252e-19 0.0204136)
(-0.123756 1.77362e-18 0.0203919)
)
;
    }
    upperWall
    {
        type            calculated;
        value           uniform (0 0 0);
    }
    lowerWall
    {
        type            calculated;
        value           uniform (0 0 0);
    }
    frontAndBack
    {
        type            empty;
    }
}


// ************************************************************************* //
