/*--------------------------------*- C++ -*----------------------------------*\
| =========                 |                                                 |
| \\      /  F ield         | OpenFOAM: The Open Source CFD Toolbox           |
|  \\    /   O peration     | Version:  4.1                                   |
|   \\  /    A nd           | Web:      www.OpenFOAM.org                      |
|    \\/     M anipulation  |                                                 |
\*---------------------------------------------------------------------------*/
FoamFile
{
    version     2.0;
    format      ascii;
    class       surfaceScalarField;
    location    "4";
    object      phi;
}
// * * * * * * * * * * * * * * * * * * * * * * * * * * * * * * * * * * * * * //

dimensions      [0 3 -1 0 0 0 0];

internalField   nonuniform List<scalar> 
5457
(
0.198193
0.00161446
0.196098
0.00192675
0.193717
0.00224338
0.190997
0.00260913
0.187934
0.00297669
0.18453
0.00334177
0.180776
0.00371256
0.176659
0.00409605
0.172159
0.00449692
0.167253
0.00491884
0.161917
0.00536501
0.156122
0.00583823
0.149836
0.0063407
0.143029
0.00687377
0.135667
0.00743756
0.127721
0.00803042
0.119164
0.00864824
0.109976
0.00928361
0.100151
0.00992492
0.0896956
0.0105553
0.0786427
0.0111515
0.0670532
0.0116834
0.0550257
0.0121133
0.0427026
0.012397
0.0302706
0.0124901
0.0179172
0.0123928
0.00556241
0.0123736
-0.00373401
0.00929687
-0.00578978
0.00204742
-0.00582681
0.199784
0.00163786
0.198919
0.00262288
0.197649
0.00337438
0.196008
0.0041391
0.193989
0.00490972
0.191588
0.00567965
0.188798
0.00646074
0.185606
0.00726586
0.181995
0.00810459
0.177942
0.00898454
0.173423
0.00991247
0.168408
0.0108944
0.162868
0.0119351
0.15677
0.0130381
0.150078
0.0142043
0.142761
0.0154314
0.134787
0.0167124
0.126132
0.0180339
0.116782
0.0193738
0.106738
0.0206999
0.0960226
0.0219665
0.084689
0.0231129
0.0728307
0.0240605
0.0605961
0.0247101
0.0482166
0.0249341
0.0361153
0.0245413
0.0253956
0.0231215
0.015787
0.0189153
0.00572423
0.0121076
-0.000130045
0.199635
0.00180916
0.198831
0.00325747
0.19763
0.00443619
0.196082
0.0055741
0.194193
0.00671155
0.191958
0.00785084
0.18937
0.00900558
0.18642
0.0101927
0.183094
0.0114263
0.179372
0.0127178
0.175233
0.0140775
0.170653
0.0155148
0.165604
0.0170375
0.160054
0.0186517
0.153972
0.0203606
0.147322
0.0221628
0.140073
0.0240512
0.132191
0.0260096
0.123653
0.0280103
0.114442
0.0300105
0.104561
0.0319483
0.0940348
0.0337382
0.0829238
0.0352658
0.0713408
0.0363796
0.0594768
0.0368733
0.047634
0.0364451
0.036169
0.0346306
0.0245974
0.0305124
0.0129952
0.0237154
0.0128616
0.199552
0.00206231
0.198744
0.00389404
0.197559
0.00548058
0.196032
0.00698786
0.194174
0.008481
0.191983
0.00997619
0.189454
0.0114898
0.18658
0.0130415
0.183351
0.0146488
0.179751
0.0163264
0.175766
0.0180875
0.171375
0.0199439
0.166557
0.0219062
0.161287
0.0239826
0.15554
0.0261787
0.149288
0.0284952
0.1425
0.030926
0.135146
0.0334556
0.127198
0.0360549
0.11863
0.0386773
0.109426
0.0412531
0.0995836
0.043683
0.0891182
0.0458314
0.0780759
0.0475176
0.0665358
0.0485015
0.0545914
0.048467
0.0422774
0.0470077
0.0293329
0.0435008
0.015406
0.0376584
0.0282958
0.199509
0.00235568
0.19869
0.00454116
0.197518
0.00650963
0.196012
0.00837817
0.194184
0.0102184
0.192034
0.0120593
0.189556
0.0139214
0.186743
0.0158267
0.183587
0.0177952
0.180076
0.0198445
0.176195
0.0219899
0.171928
0.0242453
0.167259
0.0266229
0.162167
0.029133
0.15663
0.0317827
0.150627
0.0345748
0.144131
0.0375051
0.137115
0.0405602
0.129551
0.0437129
0.121406
0.0469178
0.112654
0.0501056
0.103266
0.0531748
0.0932171
0.055986
0.082486
0.058353
0.0710542
0.060034
0.0588889
0.0607259
0.0459128
0.0600657
0.0319129
0.0575639
0.0166103
0.052992
0.044968
0.199488
0.00266807
0.198662
0.00519323
0.197506
0.00752027
0.196028
0.00973794
0.194238
0.0119159
0.192135
0.0140921
0.189715
0.0162921
0.186971
0.0185401
0.183895
0.0208586
0.180476
0.0232673
0.1767
0.0257835
0.172553
0.0284231
0.168019
0.0311998
0.163081
0.0341254
0.157718
0.0372089
0.151909
0.0404547
0.145632
0.0438614
0.138858
0.0474187
0.131556
0.0511032
0.123689
0.0548751
0.115219
0.05867
0.106105
0.0623934
0.0962836
0.065917
0.0856823
0.0690645
0.0742221
0.0716049
0.0618027
0.0732519
0.0482993
0.0736664
0.033532
0.0724114
0.0173504
0.0692215
0.0624054
0.199478
0.00298751
0.198652
0.00584239
0.197516
0.0085087
0.196072
0.0110613
0.194327
0.0135658
0.19228
0.0160659
0.189927
0.0185918
0.187263
0.0211705
0.184279
0.0238264
0.180964
0.0265815
0.177306
0.0294551
0.17329
0.0324648
0.168902
0.0356263
0.164123
0.038953
0.158933
0.0424558
0.153312
0.046142
0.147233
0.0500131
0.140667
0.0540633
0.13358
0.0582746
0.125924
0.0626149
0.11765
0.0670322
0.1087
0.071444
0.0989855
0.0757364
0.0884094
0.0797509
0.076853
0.0832783
0.0641731
0.0860461
0.050227
0.0877187
0.0348647
0.087864
0.0180068
0.0861392
0.0805136
0.199476
0.00330665
0.198656
0.0064815
0.197544
0.00947029
0.196139
0.0123426
0.194445
0.0151609
0.192463
0.0179721
0.190188
0.0208107
0.187614
0.0237063
0.184734
0.0266856
0.181537
0.0297727
0.178011
0.0329888
0.174143
0.0363536
0.169917
0.0398847
0.165314
0.043598
0.160314
0.0475068
0.154893
0.051622
0.149023
0.0559485
0.142673
0.0604862
0.135799
0.0652263
0.128351
0.0701461
0.120257
0.0752106
0.111431
0.0803565
0.101777
0.0854814
0.0911802
0.0904477
0.0795014
0.0950715
0.0665662
0.0990966
0.052209
0.102182
0.0362923
0.103871
0.0187619
0.103729
0.0993859
0.199477
0.0036206
0.198671
0.00710453
0.197587
0.0104001
0.196226
0.0135764
0.194591
0.016694
0.19268
0.0198022
0.190491
0.0229389
0.188019
0.0261365
0.185255
0.0294237
0.18219
0.0328266
0.178812
0.0363687
0.175109
0.0400716
0.171064
0.0439552
0.166659
0.0480385
0.161871
0.0523375
0.156677
0.056867
0.151044
0.061638
0.144937
0.0666568
0.138307
0.0719272
0.13109
0.0774407
0.123202
0.0831764
0.114538
0.0890936
0.104981
0.0951151
0.0943821
0.101129
0.082585
0.106964
0.0693973
0.112388
0.0546121
0.11706
0.0380733
0.120487
0.0197442
0.122104
0.119246
0.199482
0.00392587
0.198693
0.00770649
0.197643
0.0112933
0.196331
0.0147573
0.19476
0.0181587
0.192928
0.0215485
0.190835
0.0249675
0.188473
0.0284505
0.185837
0.0320285
0.182917
0.0357295
0.179703
0.0395789
0.176181
0.0436005
0.172338
0.0478166
0.168155
0.0522491
0.163609
0.0569184
0.158673
0.0618432
0.153315
0.0670433
0.14749
0.0725341
0.141145
0.0783296
0.13421
0.0844391
0.126591
0.0908596
0.11817
0.0975752
0.108805
0.104546
0.0983037
0.111695
0.0864542
0.118879
0.0730352
0.12588
0.057792
0.132372
0.0404907
0.137841
0.0211196
0.141497
0.140478
0.19949
0.00421984
0.198722
0.00828321
0.197708
0.0121453
0.19645
0.0158802
0.194949
0.0195489
0.193205
0.0232038
0.191214
0.0268879
0.188973
0.0306385
0.186475
0.0344886
0.183713
0.038468
0.180677
0.042604
0.177356
0.0469216
0.173737
0.0514463
0.169802
0.0562037
0.165525
0.0612193
0.160881
0.0665174
0.155835
0.072124
0.150343
0.0780656
0.144347
0.0843676
0.137774
0.0910566
0.130523
0.098155
0.122462
0.105679
0.113424
0.113629
0.103183
0.12198
0.0914489
0.130647
0.077916
0.139446
0.0622294
0.148092
0.0440098
0.156076
0.0232165
0.162278
0.163781
0.199499
0.00450044
0.198755
0.00883123
0.197783
0.012952
0.196583
0.0169406
0.195158
0.020859
0.193506
0.0247613
0.191626
0.0286923
0.189513
0.0326913
0.187164
0.0367934
0.184573
0.0410297
0.181731
0.0454282
0.178631
0.050016
0.175257
0.0548236
0.171589
0.0598799
0.167608
0.065213
0.16329
0.0708535
0.158601
0.0768335
0.153501
0.0831895
0.147933
0.0899609
0.141821
0.0971926
0.135065
0.104934
0.127526
0.113236
0.119018
0.122153
0.109282
0.131724
0.0979654
0.14196
0.0846086
0.15279
0.0686667
0.16402
0.0494948
0.175219
0.0267784
0.184941
0.190597
0.199509
0.00476601
0.198793
0.00934761
0.197865
0.0137097
0.196728
0.0179341
0.195382
0.0220841
0.193829
0.026215
0.192066
0.0303736
0.190091
0.0346008
0.187899
0.038933
0.185491
0.0434019
0.182861
0.0480365
0.179996
0.0528691
0.17688
0.0579322
0.1735
0.0632557
0.169843
0.0688709
0.165887
0.0748134
0.161605
0.0811225
0.156959
0.087843
0.151899
0.0950271
0.146358
0.102737
0.140243
0.111047
0.133423
0.120047
0.125714
0.129844
0.116845
0.140563
0.10642
0.152338
0.093839
0.165307
0.0782869
0.179504
0.0585868
0.194836
0.033546
0.20988
0.224109
0.199521
0.0050152
0.198834
0.00982992
0.197953
0.0144153
0.196882
0.0188569
0.195621
0.0232195
0.194171
0.0275597
0.192532
0.0319256
0.190701
0.0363594
0.188677
0.0408979
0.186465
0.0455734
0.184055
0.0504189
0.181433
0.055469
0.178591
0.0607552
0.175522
0.0663087
0.172217
0.0721648
0.168659
0.0783624
0.164828
0.0849458
0.160695
0.0919665
0.156223
0.0994862
0.151362
0.107581
0.146039
0.116344
0.140154
0.125896
0.133556
0.136393
0.126014
0.148037
0.117166
0.161099
0.106412
0.175952
0.0927362
0.193055
0.0743127
0.213114
0.0479016
0.236141
0.271868
0.199533
0.00524706
0.198878
0.0102762
0.198047
0.0150663
0.197044
0.019706
0.195871
0.0242617
0.194529
0.0287911
0.193019
0.0333432
0.191338
0.0379608
0.189492
0.042681
0.187482
0.0475387
0.185294
0.0525691
0.182923
0.0578052
0.18037
0.0632786
0.17763
0.0690227
0.174698
0.0750743
0.171564
0.0814742
0.168218
0.0882689
0.164645
0.0955135
0.160826
0.103274
0.156735
0.111633
0.152336
0.120694
0.147579
0.130592
0.142387
0.141506
0.136644
0.153681
0.130159
0.167463
0.122599
0.183371
0.113276
0.20221
0.1006
0.225606
0.0794416
0.257137
0.350976
0.00377898
-0.00378918
0.0078991
-0.00415801
0.0116587
-0.00381629
0.0148536
-0.00327586
0.0174826
-0.00273164
0.0195968
-0.00223132
0.02125
-0.0017758
0.0224867
-0.0013562
0.0233437
-0.000966142
0.023853
-0.00060285
0.024046
-0.000267527
0.0239666
2.59341e-05
0.0236619
0.000273182
0.0232111
0.000441027
0.0226843
0.000538403
0.0221418
0.000574769
0.021635
0.000559081
0.0212124
0.00049426
0.0209148
0.000388352
0.0207648
0.000259654
0.0207668
0.000126496
0.0209135
9.71593e-07
0.0211977
-0.000117211
0.0216235
-0.000239034
0.0222009
-0.00037051
0.0229229
-0.000494533
0.023768
-0.000596809
0.0247173
-0.000679849
0.0257407
-0.000732661
-0.000668843
0.00381611
-0.00762496
0.00775008
-0.00812701
0.0113047
-0.00742753
0.0143832
-0.00643586
0.0170066
-0.00545777
0.0192242
-0.00456502
0.0210838
-0.00375594
0.0226238
-0.00301259
0.023876
-0.00232373
0.0248676
-0.0016841
0.0256153
-0.00108573
0.0261178
-0.000526245
0.0263957
-3.28044e-05
0.0264819
0.000348169
0.0264567
0.00057782
0.0263806
0.000685398
0.0263091
0.000684531
0.0262938
0.000582646
0.0263721
0.000401995
0.0265561
0.000186156
0.0268393
-2.74087e-05
0.0271966
-0.000208081
0.0276055
-0.00035859
0.0280457
-0.000492067
0.0284957
-0.000613368
0.0289406
-0.000711658
0.0293716
-0.000779088
0.0298043
-0.000842839
0.0302915
-0.00092871
-0.00092331
0.00344518
-0.0110945
0.0068048
-0.0115167
0.00973079
-0.0104107
0.0122391
-0.0090274
0.0143868
-0.00770878
0.0162279
-0.00652051
0.0178046
-0.00544914
0.0191456
-0.00446389
0.0202729
-0.00354931
0.0212095
-0.00270252
0.021971
-0.00191018
0.0225631
-0.00116072
0.0229952
-0.000486321
0.0233004
4.21682e-05
0.0234981
0.000399269
0.0236251
0.000596995
0.0237262
0.00064077
0.0238394
0.000545268
0.023988
0.000347422
0.0241629
0.000123472
0.0243478
-8.16079e-05
0.0245124
-0.000223418
0.0246333
-0.000311073
0.0247005
-0.000371349
0.0247171
-0.00042202
0.024703
-0.00046921
0.0246636
-0.0004904
0.0246051
-0.000513917
0.0245966
-0.000628387
-0.000866633
0.00297409
-0.0140955
0.00562524
-0.0141908
0.00778653
-0.0126296
0.00958136
-0.0109074
0.0111003
-0.00933117
0.0124042
-0.00793576
0.0135341
-0.00668885
0.0145135
-0.00554442
0.0153569
-0.00448011
0.0160838
-0.00349997
0.0167095
-0.0025877
0.0172278
-0.00171098
0.0176436
-0.000913863
0.0179763
-0.000283027
0.0181958
0.00020607
0.0182797
0.000557425
0.01825
0.000732616
0.0181124
0.000762363
0.0178643
0.000692575
0.0175272
0.000575143
0.01713
0.000448219
0.016722
0.000335403
0.0163555
0.000225145
0.016069
0.000104199
0.015888
-3.21624e-05
0.0158286
-0.000180632
0.0158738
-0.000285439
0.0159813
-0.000349977
0.0161583
-0.000512457
-0.000876793
0.0023766
-0.0164932
0.00421456
-0.0160414
0.00553667
-0.0140076
0.00653647
-0.0119923
0.00732682
-0.0102229
0.00797362
-0.0086876
0.00851844
-0.0073328
0.00898521
-0.00609861
0.00938555
-0.00495265
0.00974494
-0.00391471
0.0100911
-0.00297152
0.0103778
-0.00201602
0.0105044
-0.00103981
0.0104023
-0.000162711
0.0101567
0.000486961
0.00987227
0.000893601
0.00957745
0.00109535
0.00926662
0.00115742
0.00895929
0.00110068
0.00868284
0.000969247
0.00845478
0.000811256
0.00828832
0.000654719
0.0081942
0.000490587
0.00817656
0.000312227
0.00821993
0.000134551
0.00829856
-2.88694e-05
0.00838934
-0.000124955
0.00847157
-0.000159594
0.00849913
-0.000245618
-0.000617457
0.00164411
-0.0181421
0.00257429
-0.0169732
0.00301604
-0.0145008
0.00318189
-0.0122397
0.00318627
-0.0103225
0.00309613
-0.00869088
0.00295649
-0.00727542
0.00279592
-0.00600616
0.00261229
-0.00482112
0.0023835
-0.00372204
0.00207234
-0.00268126
0.00176564
-0.00171107
0.00154108
-0.000799052
0.0013848
2.42226e-05
0.00130277
0.000615051
0.00124578
0.0010109
0.00116131
0.00125453
0.0010835
0.00132489
0.0010309
0.00125845
0.0010002
0.00112112
0.000992512
0.000956763
0.00101469
0.000787732
0.00105813
0.000620428
0.00110958
0.000452839
0.00115337
0.000302319
0.00117035
0.000185916
0.00116329
0.000134733
0.00113939
0.000138402
0.00110753
8.23662e-05
-0.000331906
0.000778646
-0.0189084
0.000709988
-0.016898
0.000248641
-0.0140845
-0.000415461
-0.0116489
-0.00118729
-0.00963513
-0.00199935
-0.00795351
-0.00280509
-0.00652621
-0.0035718
-0.00528209
-0.00425328
-0.00416708
-0.00483397
-0.00315478
-0.00529193
-0.00222474
-0.00562718
-0.00136025
-0.0058444
-0.000551018
-0.00593703
0.000160673
-0.00597016
0.00070659
-0.00597059
0.001081
-0.00593853
0.00130451
-0.00589308
0.00137503
-0.00584817
0.00132358
-0.00580356
0.00120156
-0.00575606
0.00105024
-0.00570489
0.000894383
-0.0056538
0.000744841
-0.00561411
0.000607131
-0.00559318
0.000494638
-0.00560023
0.000426292
-0.00563645
0.000425147
-0.00568872
0.000466465
-0.00572256
0.000414318
0.000166447
-0.000255957
-0.018632
-0.00129022
-0.0158536
-0.00265247
-0.0127594
-0.00410903
-0.0102514
-0.00556173
-0.00824794
-0.00691571
-0.00664836
-0.00812102
-0.00534654
-0.00916137
-0.00425457
-0.0100256
-0.00330251
-0.0107261
-0.002442
-0.0112829
-0.00164465
-0.0117082
-0.000901471
-0.012011
-0.000206707
-0.0121887
0.000393318
-0.012264
0.000851423
-0.0122919
0.00118778
-0.012286
0.00138793
-0.0122632
0.00145389
-0.0122348
0.00141034
-0.012202
0.00129788
-0.0121627
0.0011552
-0.012118
0.00101031
-0.012075
0.000879818
-0.012046
0.000774156
-0.0120417
0.000705463
-0.0120716
0.000691205
-0.0121391
0.00074858
-0.0122425
0.000847486
-0.0123951
0.000867206
0.000747047
-0.0013282
-0.0172838
-0.00342668
-0.0137456
-0.00568852
-0.0105242
-0.00788039
-0.00809662
-0.00987395
-0.0062848
-0.0116059
-0.00493003
-0.0130654
-0.00388311
-0.0142726
-0.0030291
-0.0152605
-0.0022851
-0.0160637
-0.0015995
-0.0167147
-0.000943703
-0.0172462
-0.000315818
-0.0176426
0.000246345
-0.0179055
0.000722154
-0.0180885
0.00111083
-0.0182113
0.0013975
-0.0182908
0.00156332
-0.0183367
0.00160716
-0.0183543
0.00154851
-0.0183477
0.0014242
-0.0183197
0.0012748
-0.0182796
0.00113372
-0.0182429
0.00102355
-0.0182278
0.000957328
-0.0182496
0.000944203
-0.0183173
0.000995731
-0.0184322
0.00112119
-0.0185932
0.00128806
-0.0188145
0.00139117
0.00137586
-0.00257597
-0.0146858
-0.00581909
-0.0104972
-0.00900959
-0.00734613
-0.0118668
-0.00524685
-0.0142886
-0.00384757
-0.0162878
-0.00289993
-0.0179231
-0.00220997
-0.0192534
-0.00164845
-0.0203464
-0.0011336
-0.0212574
-0.000623929
-0.0220099
-0.000119803
-0.0226029
0.000350904
-0.0230642
0.000784083
-0.0234312
0.00116881
-0.0237262
0.00148988
-0.0239538
0.00171944
-0.0241252
0.00183607
-0.0242418
0.00183518
-0.0243045
0.00173556
-0.0243211
0.00157699
-0.0243021
0.00140637
-0.0242662
0.00126414
-0.0242365
0.00117685
-0.0242347
0.00115601
-0.0242757
0.00120412
-0.0243657
0.00132426
-0.0245044
0.00151936
-0.0246947
0.00176001
-0.0249542
0.00195577
0.00203727
-0.00417757
-0.0104746
-0.0087504
-0.0059244
-0.0129051
-0.0031861
-0.0163805
-0.00174263
-0.0191665
-0.000999702
-0.0213678
-0.000623265
-0.0231096
-0.000390924
-0.024493
-0.000182849
-0.0256013
5.94347e-05
-0.0264967
0.000358001
-0.0272395
0.000711232
-0.0278744
0.00107484
-0.0284236
0.00142452
-0.0288956
0.00173292
-0.0292955
0.00198434
-0.0296253
0.0021514
-0.0298868
0.002206
-0.030076
0.0021396
-0.0301906
0.00197519
-0.0302391
0.00176194
-0.0302378
0.00155685
-0.0302119
0.00140729
-0.0301911
0.00134159
-0.0301998
0.00136736
-0.0302536
0.00147862
-0.0303585
0.00166944
-0.0305155
0.00193755
-0.0307297
0.00225778
-0.0310161
0.0025498
0.00272413
-0.00668529
-0.00373716
-0.0132458
0.000637276
-0.0183244
0.00192257
-0.0220908
0.00209136
-0.0248395
0.00185446
-0.0268765
0.0015263
-0.028438
0.00128119
-0.0296753
0.00116285
-0.0306864
0.00117636
-0.0315523
0.00132748
-0.0323249
0.00158581
-0.0330286
0.00187944
-0.0336562
0.00215296
-0.0342064
0.00238447
-0.0346841
0.0025655
-0.0350906
0.00266693
-0.0354176
0.00264893
-0.0356531
0.00249651
-0.0357902
0.00224053
-0.0358404
0.00194775
-0.0358268
0.00169199
-0.035778
0.00152817
-0.035732
0.00148368
-0.0357205
0.00156063
-0.0357628
0.00174323
-0.0358661
0.00201443
-0.0360312
0.00236541
-0.036262
0.00277408
-0.0365679
0.00316573
0.00342564
-0.0100433
0.00638184
-0.0180507
0.00866586
-0.0236027
0.00754529
-0.027419
0.00601064
-0.0300733
0.00464104
-0.031967
0.00355624
-0.0333994
0.00284447
-0.0345483
0.00243665
-0.0354977
0.0022451
-0.0363283
0.0022728
-0.0371076
0.00247633
-0.0378498
0.0027304
-0.0385279
0.00293878
-0.0391257
0.00308992
-0.0396506
0.0031999
-0.0401078
0.00323787
-0.0404801
0.00314142
-0.0407402
0.00288319
-0.0408719
0.00250666
-0.0408912
0.00210697
-0.040836
0.00178321
-0.0407428
0.00160069
-0.0406536
0.00158332
-0.0406103
0.00172396
-0.0406381
0.00199462
-0.0407441
0.00236336
-0.0409256
0.00281115
-0.041181
0.00331674
-0.0415113
0.00380838
0.00414583
-0.0140547
0.0205736
-0.0241026
0.0187683
-0.0297421
0.0132998
-0.0331239
0.00952117
-0.035398
0.00705111
-0.0368949
0.0051949
-0.0380088
0.00409523
-0.0389655
0.00352421
-0.0397762
0.00318085
-0.0405027
0.00311912
-0.0412475
0.00333703
-0.0420137
0.00360983
-0.0427291
0.00376587
-0.0433511
0.00382354
-0.0438997
0.00386178
-0.0443943
0.00384928
-0.0448069
0.00367636
-0.0450849
0.00329012
-0.0451965
0.002756
-0.0451603
0.00221677
-0.0450347
0.00180798
-0.0448765
0.00160557
-0.044733
0.00162663
-0.044653
0.00185129
-0.0446692
0.00223515
-0.0447877
0.00272562
-0.0449987
0.0032876
-0.0452915
0.00389835
-0.0456569
0.00448814
0.00489728
-0.0205059
0.0413836
-0.032519
0.0308165
-0.0373858
0.0182795
-0.0391462
0.0114107
-0.0406337
0.00866689
-0.0413331
0.00602855
-0.0418606
0.00475563
-0.0425975
0.00439038
-0.0432465
0.0039548
-0.0437862
0.00377963
-0.0444571
0.00412535
-0.0452576
0.00452546
-0.04602
0.00464228
-0.0466489
0.00456663
-0.0471996
0.00452831
-0.0477304
0.00449933
-0.0481961
0.00426641
-0.0484993
0.00372424
-0.0485822
0.00297794
-0.0484705
0.00225366
-0.0482493
0.00174297
-0.0480042
0.00152685
-0.0477964
0.00160466
-0.0476798
0.00194134
-0.047693
0.00247304
-0.0478407
0.00311806
-0.0481024
0.00381571
-0.0484531
0.00453937
-0.0488732
0.0052247
0.00569424
0.207189
0.00546807
0.206544
0.0106993
0.205737
0.0156812
0.204772
0.0205054
0.203652
0.0252399
0.202379
0.0299431
0.200955
0.0346647
0.19938
0.0394478
0.19766
0.0443305
0.195792
0.0493492
0.193772
0.0545386
0.1916
0.0599305
0.189279
0.0655573
0.186811
0.0714528
0.184195
0.0776532
0.181433
0.0841991
0.178526
0.0911366
0.175475
0.0985197
0.172285
0.106413
0.168961
0.114896
0.165514
0.124068
0.161962
0.134056
0.158337
0.145024
0.154698
0.157192
0.151155
0.170855
0.147931
0.186423
0.145498
0.204444
0.145287
0.225611
0.154437
0.247811
0.264597
0.240598
0.212217
0.00567287
0.211594
0.0110888
0.210828
0.016245
0.209922
0.021236
0.208881
0.0261307
0.207706
0.0309882
0.2064
0.0358583
0.204967
0.0407848
0.203411
0.0458061
0.201733
0.0509585
0.199933
0.0562753
0.198019
0.0617881
0.195994
0.0675283
0.193867
0.0735285
0.191647
0.079823
0.189344
0.0864497
0.186974
0.0934508
0.184557
0.100875
0.182122
0.108779
0.179709
0.117229
0.177376
0.126306
0.175215
0.136108
0.173362
0.146749
0.172044
0.158362
0.171641
0.17109
0.172845
0.185033
0.177007
0.200081
0.186676
0.215741
0.20306
0.231249
0.24803
0.219492
0.217368
0.00585912
0.216771
0.0114402
0.216052
0.0167513
0.215214
0.0218894
0.21426
0.026924
0.213194
0.0319145
0.21202
0.0369107
0.210743
0.0419562
0.209368
0.0470895
0.207901
0.0523455
0.206346
0.0577562
0.204713
0.063352
0.203014
0.0691625
0.201261
0.0752174
0.199472
0.0815476
0.19767
0.0881857
0.195882
0.0951676
0.194147
0.102532
0.192517
0.110323
0.191061
0.118588
0.189878
0.127379
0.18911
0.136751
0.188959
0.146758
0.189724
0.15744
0.19185
0.168791
0.195981
0.180719
0.202892
0.192983
0.213224
0.205233
0.226583
0.217739
0.229142
0.245372
0.222645
0.00602459
0.222079
0.0117493
0.221412
0.0171942
0.220648
0.0224579
0.219791
0.0276104
0.218845
0.0327108
0.217815
0.0378087
0.216708
0.0429472
0.215532
0.0481637
0.214293
0.0534917
0.213004
0.0589613
0.211675
0.0646006
0.210324
0.0704365
0.20897
0.0764947
0.20764
0.082801
0.206365
0.0893814
0.205185
0.0962627
0.204154
0.103472
0.20334
0.111036
0.202836
0.118982
0.202763
0.12733
0.203281
0.136098
0.20461
0.145282
0.207044
0.154846
0.210961
0.164706
0.216798
0.17471
0.224967
0.184646
0.235889
0.194158
0.250413
0.203089
0.209678
0.269795
0.228052
0.0061671
0.22752
0.0120121
0.22691
0.0175678
0.226228
0.0229341
0.225476
0.0281807
0.22466
0.0333666
0.223786
0.0385404
0.222863
0.0437442
0.221899
0.0490139
0.220907
0.054381
0.2199
0.0598731
0.218894
0.0655155
0.21791
0.0713315
0.216975
0.077342
0.21612
0.0835663
0.215387
0.0900229
0.214825
0.0967285
0.214497
0.103697
0.214483
0.110939
0.214884
0.118461
0.215827
0.126258
0.217477
0.134308
0.220044
0.142566
0.22378
0.150953
0.228974
0.159352
0.235928
0.167597
0.244958
0.175466
0.256398
0.182585
0.270688
0.188689
0.192795
0.287499
0.233591
0.00628456
0.233096
0.0122246
0.23255
0.0178666
0.231955
0.0233108
0.231316
0.0286267
0.23064
0.0338722
0.229933
0.0390947
0.229205
0.0443349
0.228467
0.0496269
0.227735
0.0549995
0.227025
0.0604776
0.226356
0.0660829
0.225753
0.0718346
0.225247
0.0777481
0.224878
0.083836
0.224689
0.0901091
0.224737
0.0965731
0.225091
0.103231
0.225833
0.110078
0.227067
0.117101
0.22892
0.124271
0.231546
0.13154
0.235123
0.138841
0.239846
0.14608
0.245921
0.153127
0.253559
0.159814
0.262958
0.165933
0.274228
0.171198
0.287438
0.175383
0.177873
0.302296
0.239265
0.00637501
0.238811
0.0123833
0.238332
0.0180855
0.237832
0.0235819
0.237314
0.0289409
0.236785
0.034219
0.236254
0.0394623
0.235731
0.0447093
0.23523
0.049992
0.234769
0.0553366
0.234366
0.0607644
0.234044
0.0662938
0.233829
0.0719391
0.233757
0.0777097
0.233871
0.0836127
0.234216
0.0896516
0.234853
0.0958203
0.235852
0.102112
0.237296
0.108509
0.239285
0.114981
0.241934
0.121485
0.245371
0.127962
0.249733
0.134336
0.255163
0.140506
0.261804
0.146346
0.269781
0.151704
0.279181
0.156411
0.290008
0.160264
0.302231
0.163073
0.164388
0.315655
0.245078
0.00643665
0.244668
0.012485
0.244261
0.0182202
0.24386
0.0237418
0.243469
0.0291167
0.243095
0.0343999
0.242747
0.0396353
0.242438
0.0448593
0.242181
0.0501013
0.241998
0.0553845
0.241911
0.0607277
0.241938
0.0661455
0.24211
0.0716454
0.242468
0.0772321
0.243053
0.0829086
0.243915
0.0886693
0.245113
0.0944997
0.246714
0.100384
0.248799
0.106295
0.251452
0.112194
0.254769
0.118031
0.258852
0.123741
0.263804
0.129246
0.269724
0.13445
0.276698
0.13924
0.284787
0.143492
0.294016
0.147071
0.304349
0.149833
0.315702
0.151639
0.152152
0.327879
0.251033
0.00646785
0.250669
0.0125267
0.250338
0.0182667
0.250041
0.0237857
0.249782
0.0291489
0.249568
0.0344091
0.24941
0.0396079
0.249319
0.0447795
0.249311
0.0499502
0.249411
0.0551406
0.24964
0.0603671
0.250016
0.0656387
0.250571
0.0709577
0.251349
0.0763258
0.25239
0.0817398
0.253745
0.0871872
0.255466
0.0926491
0.257617
0.0981024
0.260266
0.103514
0.263484
0.108841
0.26735
0.114029
0.271938
0.119017
0.277322
0.123728
0.283564
0.128079
0.290707
0.131974
0.298772
0.135313
0.307742
0.137997
0.317559
0.139926
0.328113
0.141008
0.140989
0.339219
0.257132
0.00646721
0.256818
0.0125063
0.256565
0.018222
0.256375
0.0237101
0.256252
0.0290335
0.256203
0.0342426
0.256238
0.0393766
0.25637
0.0444669
0.256615
0.0495372
0.256996
0.0546054
0.257536
0.0596841
0.258256
0.0647777
0.259188
0.069886
0.260371
0.0750063
0.261846
0.0801301
0.263659
0.085241
0.265857
0.0903167
0.268496
0.095329
0.271633
0.100242
0.275326
0.105012
0.279634
0.109588
0.284609
0.113909
0.290299
0.11791
0.296735
0.121519
0.303933
0.124659
0.311883
0.127255
0.320548
0.129235
0.329855
0.130534
0.339693
0.131097
0.130724
0.349902
0.26338
0.00643362
0.263117
0.0124218
0.262945
0.0180838
0.262865
0.0235124
0.262881
0.0287679
0.262999
0.033898
0.263229
0.0389394
0.263584
0.0439207
0.264081
0.048863
0.264741
0.0537813
0.265586
0.0586841
0.26664
0.0635734
0.267933
0.0684462
0.269501
0.0732959
0.27138
0.0781103
0.273611
0.0828706
0.276238
0.0875521
0.279306
0.0921249
0.28286
0.0965528
0.286944
0.100794
0.2916
0.1048
0.296863
0.108518
0.302756
0.111893
0.309292
0.114865
0.316464
0.117376
0.324246
0.119372
0.332588
0.120801
0.341415
0.121626
0.350624
0.121817
0.121216
0.360079
0.26978
0.00636624
0.269569
0.0122721
0.269479
0.0178505
0.269511
0.023191
0.269667
0.0283508
0.269952
0.0333747
0.270377
0.0382967
0.270954
0.0431428
0.271699
0.0479313
0.272632
0.0526743
0.273773
0.0573775
0.275148
0.0620405
0.276782
0.0666581
0.278708
0.0712207
0.280959
0.0757137
0.283569
0.0801171
0.286575
0.0844055
0.290012
0.088549
0.293916
0.0925132
0.298317
0.0962593
0.303242
0.099745
0.308709
0.102925
0.314727
0.105754
0.321293
0.108186
0.328386
0.110178
0.33597
0.11169
0.34399
0.112693
0.352376
0.113164
0.361035
0.113091
0.112347
0.369851
0.276335
0.00626453
0.276177
0.0120566
0.27617
0.0175217
0.276314
0.0227457
0.276609
0.0277824
0.277061
0.0326738
0.277679
0.0374511
0.278473
0.0421373
0.27946
0.0467486
0.280656
0.0512943
0.282082
0.0557778
0.28376
0.0601968
0.285713
0.0645443
0.28797
0.068809
0.290558
0.0729752
0.293506
0.0770223
0.296842
0.0809258
0.300594
0.0846572
0.304785
0.0881851
0.309437
0.0914752
0.314562
0.0944913
0.320168
0.0971966
0.326251
0.0995548
0.332796
0.101532
0.339775
0.103096
0.347148
0.104224
0.354859
0.104896
0.362843
0.105104
0.371021
0.104847
0.104021
0.379294
0.283049
0.00612824
0.282944
0.011775
0.28302
0.0170976
0.283276
0.0221772
0.283709
0.0270645
0.284325
0.0317982
0.285131
0.0364067
0.286137
0.0409108
0.287356
0.0453239
0.288804
0.0496533
0.290499
0.0539006
0.29246
0.058062
0.294709
0.0621296
0.297266
0.066091
0.300156
0.0699302
0.303401
0.0736275
0.307022
0.0771596
0.311037
0.0805009
0.315462
0.0836234
0.320307
0.086498
0.325577
0.0890948
0.331269
0.0913846
0.33737
0.0933398
0.343858
0.0949359
0.350703
0.0961524
0.357862
0.0969743
0.365282
0.0973934
0.372904
0.0974088
0.380661
0.0970264
0.0961598
0.388469
0.289925
0.00595742
0.289873
0.011428
0.290032
0.0165792
0.290397
0.0214875
0.290966
0.0262
0.291741
0.0307523
0.292729
0.0351699
0.293938
0.0394714
0.29538
0.043668
0.297067
0.0477654
0.299014
0.0517635
0.301237
0.0556579
0.303755
0.0594398
0.306584
0.0630969
0.309741
0.0666138
0.313244
0.0699719
0.317105
0.0731502
0.321338
0.0761262
0.325948
0.0788761
0.330939
0.0813756
0.336308
0.0836011
0.342044
0.0855302
0.348129
0.0871428
0.354538
0.0884224
0.361237
0.0893563
0.368186
0.0899373
0.375335
0.0901637
0.382631
0.0900402
0.390018
0.0895765
0.0887004
0.397424
0.296967
0.00575239
0.296967
0.0110165
0.297207
0.0159684
0.297679
0.0206794
0.29838
0.0251929
0.299309
0.0295416
0.300473
0.0337482
0.301875
0.0378289
0.303526
0.0417935
0.305437
0.0456459
0.307618
0.0493853
0.310082
0.0530065
0.312843
0.0565009
0.315913
0.0598567
0.319305
0.0630593
0.323029
0.0660921
0.327093
0.0689368
0.331501
0.0715741
0.336256
0.0739842
0.341353
0.0761479
0.346783
0.0780468
0.352531
0.0796647
0.358576
0.0809877
0.36489
0.0820055
0.37144
0.0827116
0.378186
0.083104
0.385085
0.0831858
0.392089
0.0829649
0.39915
0.0824531
0.0815897
0.406208
0.304178
0.00551373
0.30423
0.0105421
0.304549
0.0152677
0.305124
0.0197567
0.305952
0.0240486
0.307029
0.028173
0.308359
0.0321503
0.309944
0.0359945
0.311792
0.0397139
0.31391
0.0433112
0.316306
0.0467851
0.318989
0.0501303
0.321968
0.0533385
0.325251
0.0563987
0.328846
0.059298
0.332758
0.0620216
0.336989
0.0645542
0.341539
0.0668796
0.346403
0.0689822
0.351573
0.0708469
0.357036
0.0724604
0.362773
0.0738112
0.368761
0.0748906
0.374972
0.0756932
0.381373
0.0762168
0.387927
0.0764633
0.394597
0.0764387
0.401339
0.0761525
0.408111
0.0756178
0.0747828
0.414866
0.311564
0.00524226
0.311666
0.0100068
0.31206
0.0144803
0.312735
0.0187238
0.313684
0.0227728
0.314902
0.0266542
0.316388
0.0303858
0.318145
0.0339799
0.320176
0.0374432
0.322484
0.0407779
0.325076
0.0439822
0.327956
0.0470511
0.331129
0.0499768
0.334599
0.0527496
0.338369
0.0553581
0.342439
0.0577901
0.346807
0.0600325
0.351468
0.0620726
0.356413
0.0638982
0.361631
0.0654983
0.367104
0.0668633
0.372813
0.067986
0.378734
0.0688616
0.384838
0.0694882
0.391095
0.0698669
0.397471
0.0700021
0.40393
0.0699014
0.410438
0.0695753
0.416956
0.0690367
0.0682417
0.423444
0.319127
0.00493895
0.319277
0.00941267
0.319745
0.0136097
0.320515
0.0175855
0.321578
0.0213722
0.322928
0.0249934
0.324562
0.0284648
0.326478
0.031797
0.328677
0.0349957
0.331161
0.0380624
0.33393
0.0409952
0.336986
0.0437895
0.340331
0.0464384
0.343963
0.0489334
0.347883
0.051265
0.352085
0.053423
0.356564
0.0553971
0.361312
0.0571773
0.366316
0.0587546
0.371561
0.0601211
0.377029
0.0612708
0.3827
0.0621994
0.388547
0.0629053
0.394546
0.063389
0.400666
0.063654
0.406877
0.063706
0.413147
0.0635535
0.419445
0.0632072
0.425739
0.0626795
0.0619329
0.431994
0.326872
0.00460491
0.327069
0.00876223
0.327606
0.0126597
0.328465
0.0163473
0.329637
0.0198535
0.331111
0.0231991
0.332882
0.0263976
0.334946
0.0294581
0.3373
0.0323853
0.339942
0.0351804
0.342871
0.0378415
0.346085
0.0403645
0.349581
0.0427435
0.353355
0.0449714
0.357402
0.0470404
0.361715