/*--------------------------------*- C++ -*----------------------------------*\
| =========                 |                                                 |
| \\      /  F ield         | OpenFOAM: The Open Source CFD Toolbox           |
|  \\    /   O peration     | Version:  5.x                                   |
|   \\  /    A nd           | Web:      www.OpenFOAM.org                      |
|    \\/     M anipulation  |                                                 |
\*---------------------------------------------------------------------------*/
FoamFile
{
    version     2.0;
    format      ascii;
    class       volVectorField;
    location    "0.7";
    object      cellDisplacement;
}
// * * * * * * * * * * * * * * * * * * * * * * * * * * * * * * * * * * * * * //

dimensions      [0 1 0 0 0 0 0];

internalField   nonuniform List<vector> 
2790
(
(0.00766352 0 -1.57424e-05)
(0.021926 0 -4.51869e-05)
(0.0341926 0 -7.0994e-05)
(0.0446192 0 -9.36633e-05)
(0.0533714 0 -0.000113571)
(0.0606004 0 -0.000130904)
(0.0664424 0 -0.000145813)
(0.0710167 0 -0.000158337)
(0.074427 0 -0.000168424)
(0.0767642 0 -0.000175907)
(0.0781083 0 -0.000180341)
(0.0785319 0 -0.00018139)
(0.0780993 0 -0.000178612)
(0.0768684 0 -0.000171451)
(0.0748929 0 -0.000159255)
(0.0722241 0 -0.000141301)
(0.0689133 0 -0.00011682)
(0.0650086 0 -8.46888e-05)
(0.0605614 0 -4.39647e-05)
(0.0556293 0 6.36899e-06)
(0.0502767 0 6.73538e-05)
(0.0445783 0 0.000140003)
(0.038621 0 0.000225279)
(0.0325086 0 0.000324096)
(0.0263688 0 0.00043741)
(0.0203672 0 0.000566378)
(0.0147125 0 0.000711553)
(0.00967922 0 0.000872556)
(0.00565292 0 0.00104435)
(0.00334976 0 0.0012017)
(0.0076741 0 -4.72569e-05)
(0.0219571 0 -0.000135655)
(0.0342439 0 -0.000213151)
(0.0446918 0 -0.000281255)
(0.0534662 0 -0.000341112)
(0.0607192 0 -0.000393255)
(0.0665883 0 -0.000438157)
(0.0711934 0 -0.00047595)
(0.0746391 0 -0.000506486)
(0.0770162 0 -0.000529353)
(0.0784053 0 -0.000543089)
(0.0788801 0 -0.000546776)
(0.0785058 0 -0.00053911)
(0.077341 0 -0.000518446)
(0.0754399 0 -0.000482848)
(0.0728544 0 -0.000430159)
(0.0696396 0 -0.000358295)
(0.0658421 0 -0.000263661)
(0.0615145 0 -0.000143609)
(0.0567156 0 4.84689e-06)
(0.0515114 0 0.000184753)
(0.0459783 0 0.000399008)
(0.0402053 0 0.000650233)
(0.0342977 0 0.000940642)
(0.0283799 0 0.00127202)
(0.0226296 0 0.00164689)
(0.0172667 0 0.00206368)
(0.0125948 0 0.00251627)
(0.00903137 0 0.00298064)
(0.00726795 0 0.00337361)
(0.00769617 0 -7.88559e-05)
(0.0220215 0 -0.000226391)
(0.0343495 0 -0.00035578)
(0.0448405 0 -0.000469585)
(0.0536596 0 -0.000569781)
(0.0609602 0 -0.000657135)
(0.0668834 0 -0.00073254)
(0.07155 0 -0.00079623)
(0.0750659 0 -0.000847994)
(0.0775226 0 -0.00088751)
(0.0790006 0 -0.000911796)
(0.0795771 0 -0.000919703)
(0.0793186 0 -0.000909127)
(0.078285 0 -0.000877395)
(0.0765318 0 -0.000821341)
(0.0741105 0 -0.000737308)
(0.0710798 0 -0.000621576)
(0.0674946 0 -0.000469893)
(0.0634032 0 -0.000277275)
(0.0588677 0 -3.89113e-05)
(0.0539565 0 0.000250017)
(0.0487507 0 0.000593897)
(0.0433439 0 0.000996465)
(0.0378491 0 0.00146022)
(0.0323851 0 0.00198717)
(0.0271203 0 0.00257494)
(0.0222894 0 0.00321433)
(0.0182386 0 0.00388702)
(0.015406 0 0.00453912)
(0.0144215 0 0.00503857)
(0.00772965 0 -0.000110583)
(0.0221183 0 -0.000317532)
(0.0345073 0 -0.000499116)
(0.0450633 0 -0.000659016)
(0.0539491 0 -0.000800199)
(0.06132 0 -0.000923373)
(0.0673235 0 -0.00103008)
(0.0720815 0 -0.00112067)
(0.0757021 0 -0.00119479)
(0.0782741 0 -0.00125132)
(0.0798825 0 -0.00128788)
(0.0806091 0 -0.0013024)
(0.0805214 0 -0.00129199)
(0.0796816 0 -0.00125308)
(0.0781479 0 -0.00118144)
(0.0759753 0 -0.00107226)
(0.0732196 0 -0.000920113)
(0.0699438 0 -0.000720357)
(0.0662011 0 -0.000466331)
(0.062054 0 -0.00015163)
(0.0575728 0 0.000229993)
(0.0528456 0 0.000683748)
(0.0479697 0 0.00121384)
(0.043062 0 0.00182227)
(0.038264 0 0.00250738)
(0.0337336 0 0.0032594)
(0.0296754 0 0.00406235)
(0.0264022 0 0.00487677)
(0.0244463 0 0.00562044)
(0.0243798 0 0.006129)
(0.00777499 0 -0.000142471)
(0.0222474 0 -0.00040919)
(0.0347161 0 -0.000643337)
(0.0453593 0 -0.000849797)
(0.0543314 0 -0.00103175)
(0.061793 0 -0.00119123)
(0.0679018 0 -0.00133007)
(0.072779 0 -0.00144866)
(0.0765337 0 -0.00154655)
(0.0792582 0 -0.00162234)
(0.0810402 0 -0.00167375)
(0.0819636 0 -0.00169818)
(0.0820996 0 -0.00169212)
(0.0815137 0 -0.0016513)
(0.0802671 0 -0.00157068)
(0.0784192 0 -0.00144458)
(0.0760311 0 -0.00126701)
(0.073165 0 -0.0010316)
(0.0698811 0 -0.000731061)
(0.0662447 0 -0.000358091)
(0.0623227 0 9.47395e-05)
(0.0582184 0 0.000632257)
(0.0540284 0 0.00125827)
(0.0498713 0 0.0019731)
(0.0458978 0 0.00277051)
(0.0422802 0 0.00363466)
(0.039224 0 0.00453648)
(0.036938 0 0.00542531)
(0.0359305 0 0.00619802)
(0.0368714 0 0.00666174)
(0.00783296 0 -0.00017454)
(0.0224078 0 -0.000500981)
(0.034972 0 -0.000787782)
(0.0457144 0 -0.00104097)
(0.0547929 0 -0.00126432)
(0.0623728 0 -0.00146092)
(0.0686115 0 -0.00163292)
(0.0736349 0 -0.0017809)
(0.0775555 0 -0.00190446)
(0.0804655 0 -0.002002)
(0.0824577 0 -0.00207137)
(0.0836212 0 -0.00210974)
(0.08403 0 -0.00211317)
(0.0837534 0 -0.00207691)
(0.0828568 0 -0.00199539)
(0.0814031 0 -0.00186224)
(0.079461 0 -0.00167132)
(0.0770957 0 -0.0014154)
(0.0743739 0 -0.00108686)
(0.0713691 0 -0.000678415)
(0.0681526 0 -0.000182145)
(0.0648112 0 0.00040756)
(0.0614548 0 0.0010919)
(0.0581966 0 0.00186951)
(0.0552062 0 0.00272899)
(0.0526567 0 0.00364722)
(0.050741 0 0.00458486)
(0.049658 0 0.0054826)
(0.0497333 0 0.00623091)
(0.0517738 0 0.00660755)
(0.00788938 0 -0.000206356)
(0.0225842 0 -0.000592533)
(0.0352714 0 -0.000932382)
(0.0461357 0 -0.00123281)
(0.0553383 0 -0.00149804)
(0.0630529 0 -0.00173251)
(0.069444 0 -0.00193886)
(0.074638 0 -0.00211783)
(0.0787497 0 -0.00226913)
(0.0818772 0 -0.00239125)
(0.0841168 0 -0.00248228)
(0.0855603 0 -0.00253923)
(0.0862866 0 -0.00255804)
(0.0863701 0 -0.00253378)
(0.0858805 0 -0.00246065)
(0.0848822 0 -0.00233154)
(0.083457 0 -0.00214126)
(0.0816728 0 -0.00188204)
(0.0796023 0 -0.00154624)
(0.0773234 0 -0.00112657)
(0.07493 0 -0.000617462)
(0.072493 0 -1.32416e-05)
(0.0701277 0 0.000685385)
(0.0679435 0 0.00147536)
(0.0660776 0 0.00234291)
(0.0647439 0 0.00325426)
(0.064119 0 0.00416132)
(0.0643731 0 0.004996)
(0.065712 0 0.00565372)
(0.0689379 0 0.00588497)
(0.00795636 0 -0.00023806)
(0.0227875 0 -0.000684038)
(0.0356123 0 -0.00107703)
(0.0466079 0 -0.00142497)
(0.0559506 0 -0.00173251)
(0.0638251 0 -0.00200596)
(0.0703897 0 -0.00224796)
(0.0757771 0 -0.00245971)
(0.0801071 0 -0.00264116)
(0.0834786 0 -0.0027908)
(0.0859952 0 -0.00290738)
(0.0877537 0 -0.002988)
(0.0888371 0 -0.00302861)
(0.0893255 0 -0.00302451)
(0.0892958 0 -0.00297025)
(0.0888224 0 -0.00285941)
(0.0879799 0 -0.0026852)
(0.0868494 0 -0.00244138)
(0.0855096 0 -0.00212094)
(0.0840383 0 -0.00171674)
(0.0825471 0 -0.00122599)
(0.0811202 0 -0.000645185)
(0.0798757 0 2.27186e-05)
(0.0789304 0 0.000769654)
(0.0783768 0 0.0015823)
(0.0783929 0 0.00242431)
(0.0792002 0 0.00323198)
(0.0809189 0 0.00393078)
(0.0836554 0 0.00442459)
(0.0880976 0 0.00445154)
(0.00803199 0 -0.000269712)
(0.0230141 0 -0.000775346)
(0.0359926 0 -0.00122157)
(0.047135 0 -0.00161677)
(0.0566321 0 -0.00196772)
(0.0646812 0 -0.00228108)
(0.0714374 0 -0.0025601)
(0.077038 0 -0.00280646)
(0.0816052 0 -0.00302045)
(0.0852448 0 -0.00320056)
(0.0880684 0 -0.00334702)
(0.0901722 0 -0.00345662)
(0.0916459 0 -0.00352571)
(0.0925759 0 -0.00355011)
(0.0930463 0 -0.00352497)
(0.0931434 0 -0.0034453)
(0.0929352 0 -0.00330313)
(0.0925184 0 -0.00309441)
(0.0919815 0 -0.00281386)
(0.0914159 0 -0.00245625)
(0.0909168 0 -0.00201828)
(0.0905838 0 -0.00149987)
(0.0905562 0 -0.000908498)
(0.0909496 0 -0.000256092)
(0.0918705 0 0.000437715)
(0.093401 0 0.00114246)
(0.0957766 0 0.00178478)
(0.0990835 0 0.00228168)
(0.103333 0 0.00254844)
(0.108967 0 0.0023372)
(0.00811499 0 -0.00030124)
(0.0232605 0 -0.000866293)
(0.0363972 0 -0.00136545)
(0.0477016 0 -0.00180835)
(0.0573737 0 -0.00220335)
(0.0656117 0 -0.00255754)
(0.0725755 0 -0.00287492)
(0.0784065 0 -0.0031578)
(0.083232 0 -0.00340704)
(0.0871662 0 -0.0036223)
(0.0903203 0 -0.00380312)
(0.0927955 0 -0.00394719)
(0.0946873 0 -0.00405152)
(0.0960894 0 -0.00411284)
(0.0970909 0 -0.00412704)
(0.0977808 0 -0.00408957)
(0.0982395 0 -0.00399445)
(0.0985784 0 -0.00384004)
(0.0988901 0 -0.00362215)
(0.0992892 0 -0.00334001)
(0.0998591 0 -0.00299107)
(0.100719 0 -0.00257844)
(0.101982 0 -0.00210901)
(0.103805 0 -0.00160366)
(0.106294 0 -0.00108668)
(0.109517 0 -0.000588659)
(0.113581 0 -0.000172286)
(0.118601 0 6.61402e-05)
(0.124488 0 5.30271e-05)
(0.131312 0 -0.00041949)
(0.00820386 0 -0.000332562)
(0.0235239 0 -0.000956702)
(0.0368349 0 -0.00150889)
(0.048313 0 -0.00199973)
(0.0581673 0 -0.00243899)
(0.0666064 0 -0.00283486)
(0.0737907 0 -0.00319187)
(0.0798666 0 -0.00351306)
(0.084966 0 -0.00380002)
(0.0892098 0 -0.00405327)
(0.0927112 0 -0.00427251)
(0.0955757 0 -0.00445619)
(0.0979041 0 -0.00460207)
(0.0997987 0 -0.00470839)
(0.101354 0 -0.00477199)
(0.102665 0 -0.00478993)
(0.103832 0 -0.00475936)
(0.104955 0 -0.00467781)
(0.106135 0 -0.00454372)
(0.107506 0 -0.00436081)
(0.109179 0 -0.00413207)
(0.111285 0 -0.00386536)
(0.113919 0 -0.00356729)
(0.117224 0 -0.00325822)
(0.121355 0 -0.00297362)
(0.126375 0 -0.00274557)
(0.132265 0 -0.00261798)
(0.13914 0 -0.00269199)
(0.146775 0 -0.00303147)
(0.154868 0 -0.00380095)
(0.00829766 0 -0.000363608)
(0.023801 0 -0.00104636)
(0.0372883 0 -0.00165105)
(0.0489501 0 -0.00218988)
(0.0590032 0 -0.00267404)
(0.0676542 0 -0.00311235)
(0.0750695 0 -0.00351014)
(0.0814009 0 -0.00387126)
(0.0867858 0 -0.00419809)
(0.0913503 0 -0.00449211)
(0.0952106 0 -0.00475353)
(0.098476 0 -0.00498161)
(0.101251 0 -0.00517463)
(0.103649 0 -0.00533341)
(0.105769 0 -0.00545556)
(0.107712 0 -0.00553993)
(0.109598 0 -0.00558765)
(0.111515 0 -0.00559634)
(0.113589 0 -0.00556907)
(0.115935 0 -0.00550893)
(0.118706 0 -0.00542764)
(0.122036 0 -0.00533702)
(0.126057 0 -0.00525244)
(0.130872 0 -0.00518975)
(0.136671 0 -0.00519036)
(0.143517 0 -0.00528923)
(0.151373 0 -0.00551871)
(0.160252 0 -0.00596551)
(0.169772 0 -0.00667806)
(0.179224 0 -0.00777809)
(0.00839509 0 -0.000394283)
(0.0240891 0 -0.00113503)
(0.0377651 0 -0.0017921)
(0.049618 0 -0.00237879)
(0.0598732 0 -0.00290786)
(0.068744 0 -0.00338927)
(0.0763975 0 -0.00382877)
(0.0829917 0 -0.00423121)
(0.0886691 0 -0.00459975)
(0.0935618 0 -0.0049371)
(0.0977879 0 -0.0052441)
(0.101461 0 -0.00552105)
(0.104697 0 -0.0057685)
(0.107606 0 -0.00598665)
(0.11029 0 -0.00617526)
(0.112857 0 -0.0063347)
(0.115437 0 -0.00646969)
(0.118134 0 -0.00658162)
(0.121087 0 -0.00667838)
(0.124407 0 -0.00676478)
(0.128232 0 -0.00685277)
(0.132738 0 -0.00696484)
(0.13807 0 -0.00712322)
(0.144374 0 -0.00735247)
(0.151772 0 -0.00768374)
(0.160409 0 -0.00816665)
(0.170271 0 -0.0088243)
(0.181248 0 -0.00971099)
(0.192814 0 -0.0108461)
(0.203707 0 -0.0122869)
(0.00849528 0 -0.000424506)
(0.0243848 0 -0.00122246)
(0.0382471 0 -0.001931)
(0.0502965 0 -0.00256517)
(0.0607674 0 -0.00313959)
(0.0698643 0 -0.00366462)
(0.07776 0 -0.00414652)
(0.0846209 0 -0.0045914)
(0.0905935 0 -0.00500301)
(0.0958177 0 -0.0053859)
(0.100411 0 -0.00574128)
(0.104493 0 -0.00607079)
(0.108187 0 -0.00637678)
(0.111596 0 -0.0066593)
(0.114833 0 -0.00692088)
(0.118021 0 -0.00716546)
(0.121277 0 -0.00739722)
(0.124712 0 -0.00762105)
(0.12848 0 -0.00785004)
(0.132717 0 -0.00809723)
(0.137543 0 -0.00837463)
(0.14312 0 -0.00870567)
(0.149642 0 -0.00912733)
(0.157261 0 -0.00967233)
(0.16609 0 -0.0103716)
(0.176327 0 -0.0112868)
(0.188023 0 -0.0124459)
(0.200945 0 -0.0138458)
(0.214569 0 -0.0154622)
(0.227087 0 -0.017238)
(0.0085971 0 -0.000454166)
(0.0246861 0 -0.00130838)
(0.0387415 0 -0.00206793)
(0.0509928 0 -0.00274979)
(0.0616823 0 -0.00336953)
(0.0710048 0 -0.00393752)
(0.079143 0 -0.00446212)
(0.0862711 0 -0.00495035)
(0.0925458 0 -0.00540769)
(0.0981032 0 -0.00583818)
(0.103061 0 -0.00624413)
(0.107543 0 -0.00662858)
(0.111669 0 -0.00699391)
(0.115563 0 -0.00734442)
(0.119333 0 -0.00768325)
(0.123113 0 -0.00801789)
(0.127003 0 -0.00835234)
(0.131138 0 -0.00869685)
(0.135648 0 -0.00906348)
(0.140693 0 -0.00947389)
(0.146404 0 -0.00994745)
(0.152912 0 -0.0105064)
(0.160422 0 -0.0111957)
(0.169069 0 -0.0120564)
(0.179008 0 -0.0131362)
(0.190389 0 -0.0145006)
(0.203265 0 -0.0161979)
(0.217385 0 -0.0182069)
(0.232294 0 -0.020422)
(0.246762 0 -0.0226236)
(0.00394924 0 -0.00148292)
(0.00777149 0 -0.00156351)
(0.0151543 0 -0.00166588)
(0.0256907 0 -0.00179425)
(0.0385666 0 -0.00192683)
(0.0527528 0 -0.00203657)
(0.0672539 0 -0.00211051)
(0.0812244 0 -0.0021495)
(0.0940516 0 -0.00214519)
(0.10539 0 -0.0021102)
(0.115059 0 -0.00205142)
(0.123006 0 -0.00197366)
(0.12926 0 -0.00188173)
(0.133885 0 -0.00178215)
(0.136951 0 -0.00168211)
(0.138524 0 -0.00157512)
(0.138664 0 -0.00145982)
(0.137421 0 -0.00134887)
(0.134827 0 -0.0012364)
(0.130899 0 -0.00113284)
(0.125623 0 -0.00102941)
(0.118978 0 -0.000929558)
(0.11092 0 -0.00082788)
(0.101413 0 -0.000723131)
(0.0904285 0 -0.000618699)
(0.0778757 0 -0.000515962)
(0.0636617 0 -0.000411584)
(0.0477222 0 -0.000303104)
(0.0299809 0 -0.000188369)
(0.0103276 0 -6.46936e-05)
(0.00754176 0 -0.00440845)
(0.0114159 0 -0.00466333)
(0.0188193 0 -0.00499665)
(0.0293462 0 -0.00539718)
(0.0421246 0 -0.00579985)
(0.0560968 0 -0.00612279)
(0.0703148 0 -0.00633415)
(0.083945 0 -0.00642583)
(0.0964154 0 -0.00640333)
(0.107413 0 -0.00628691)
(0.11677 0 -0.00610753)
(0.124435 0 -0.00587362)
(0.130444 0 -0.00559801)
(0.134865 0 -0.00530013)
(0.137752 0 -0.00498453)
(0.139178 0 -0.00466524)
(0.139199 0 -0.00433139)
(0.137861 0 -0.00400429)
(0.135188 0 -0.00368013)
(0.131193 0 -0.00336426)
(0.125863 0 -0.00305607)
(0.119176 0 -0.00275206)
(0.111096 0 -0.00245088)
(0.101571 0 -0.00214675)
(0.0905568 0 -0.00184215)
(0.0779712 0 -0.0015373)
(0.0637338 0 -0.00122697)
(0.0477746 0 -0.00090387)
(0.0300142 0 -0.000561869)
(0.0103399 0 -0.000193009)
(0.0141777 0 -0.0072607)
(0.0183437 0 -0.00774686)
(0.0259229 0 -0.0083648)
(0.0364987 0 -0.00906533)
(0.0490466 0 -0.0097109)
(0.0625798 0 -0.0102162)
(0.0762269 0 -0.0105369)
(0.0892076 0 -0.0106585)
(0.101004 0 -0.0105984)
(0.111348 0 -0.0103859)
(0.120096 0 -0.0100644)
(0.127204 0 -0.00965479)
(0.132736 0 -0.00919073)
(0.136758 0 -0.00870068)
(0.139305 0 -0.00817204)
(0.14045 0 -0.00763633)
(0.140243 0 -0.00709683)
(0.138719 0 -0.00656351)
(0.135894 0 -0.00603529)
(0.131776 0 -0.00551546)
(0.126348 0 -0.00501158)
(0.119581 0 -0.00451125)
(0.111434 0 -0.00401906)
(0.101857 0 -0.00352865)
(0.0907944 0 -0.00303567)
(0.0781573 0 -0.00253512)
(0.0638748 0 -0.00202506)
(0.0478778 0 -0.00149242)
(0.0300791 0 -0.000928043)
(0.0103633 0 -0.000318875)
(0.0235082 0 -0.0101834)
(0.0282048 0 -0.0109333)
(0.0361748 0 -0.0118665)
(0.0467626 0 -0.0128399)
(0.0589403 0 -0.0136847)
(0.0718776 0 -0.0143261)
(0.0847303 0 -0.0147139)
(0.0967594 0 -0.0148237)
(0.10757 0 -0.0146939)
(0.116972 0 -0.0143707)
(0.124828 0 -0.013887)
(0.131153 0 -0.013294)
(0.136024 0 -0.0126403)
(0.13947 0 -0.0119479)
(0.14153 0 -0.0112179)
(0.142275 0 -0.0104741)
(0.141743 0 -0.00973404)
(0.139957 0 -0.00900718)
(0.136916 0 -0.00828407)
(0.132618 0 -0.00757868)
(0.127042 0 -0.00688594)
(0.120159 0 -0.00620558)
(0.111914 0 -0.00553262)
(0.102257 0 -0.00486422)
(0.0911303 0 -0.00419039)
(0.0784226 0 -0.00350455)
(0.0640729 0 -0.00279892)
(0.0480246 0 -0.00206339)
(0.0301706 0 -0.00128351)
(0.0103962 0 -0.000441116)
(0.0352853 0 -0.0133546)
(0.0407123 0 -0.0143572)
(0.0491696 0 -0.0155757)
(0.0597101 0 -0.0167627)
(0.0714683 0 -0.0177618)
(0.0836548 0 -0.0184836)
(0.0954182 0 -0.0188612)
(0.106208 0 -0.0188975)
(0.115791 0 -0.0186569)
(0.123982 0 -0.0181835)
(0.130747 0 -0.0175383)
(0.136119 0 -0.0167698)
(0.140148 0 -0.0159221)
(0.142865 0 -0.0150251)
(0.144332 0 -0.0141041)
(0.144591 0 -0.0131755)
(0.143652 0 -0.0122474)
(0.141529 0 -0.0113328)
(0.138217 0 -0.0104346)
(0.133694 0 -0.00954933)
(0.127933 0 -0.00867877)
(0.120896 0 -0.00782846)
(0.11252 0 -0.00698383)
(0.102756 0 -0.00614136)
(0.0915364 0 -0.00529437)
(0.0787557 0 -0.00443295)
(0.0643387 0 -0.00354147)
(0.0482097 0 -0.00261109)
(0.0302845 0 -0.00162482)
(0.0104373 0 -0.00055855)
(0.0494117 0 -0.01689)
(0.0556431 0 -0.018107)
(0.0645636 0 -0.0195436)
(0.0750291 0 -0.0208857)
(0.0862366 0 -0.0219583)
(0.0974174 0 -0.0226664)
(0.107823 0 -0.0229488)
(0.117185 0 -0.022862)
(0.125284 0 -0.0224586)
(0.132068 0 -0.0218051)
(0.137584 0 -0.0209836)
(0.141849 0 -0.0200368)
(0.144916 0 -0.0190032)
(0.146813 0 -0.0179156)
(0.147611 0 -0.0168219)
(0.147301 0 -0.0157168)
(0.145894 0 -0.0146169)
(0.143383 0 -0.0135308)
(0.139751 0 -0.0124624)
(0.134966 0 -0.0114097)
(0.128979 0 -0.0103765)
(0.12176 0 -0.00936411)
(0.113245 0 -0.0083598)
(0.103354 0 -0.00735362)
(0.0920181 0 -0.00634232)
(0.0791436 0 -0.00531218)
(0.0646434 0 -0.00424729)
(0.0484219 0 -0.00313214)
(0.0304128 0 -0.00194856)
(0.010485 0 -0.000670001)
(0.0657702 0 -0.0208)
(0.0728006 0 -0.0222094)
(0.0821093 0 -0.0238054)
(0.0923631 0 -0.0252164)
(0.102812 0 -0.0262628)
(0.112671 0 -0.0268372)
(0.121511 0 -0.0269472)
(0.129205 0 -0.0266671)
(0.135636 0 -0.0260563)
(0.140912 0 -0.0252126)
(0.145036 0 -0.0241921)
(0.148107 0 -0.0230653)
(0.150137 0 -0.0218567)
(0.151156 0 -0.0205983)
(0.151218 0 -0.0193365)
(0.15029 0 -0.0180673)
(0.148371 0 -0.016808)
(0.14544 0 -0.0155692)
(0.141459 0 -0.0143469)
(0.136384 0 -0.0131464)
(0.130156 0 -0.0119649)
(0.122731 0 -0.0107989)
(0.11405 0 -0.00964637)
(0.104018 0 -0.00849277)
(0.0925567 0 -0.00732931)
(0.0795759 0 -0.00614195)
(0.0649823 0 -0.00491375)
(0.048679 0 -0.00362595)
(0.0305782 0 -0.00225616)
(0.0105401 0 -0.000775578)
(0.0841405 0 -0.0250533)
(0.0919859 0 -0.0266642)
(0.101516 0 -0.0283509)
(0.111306 0 -0.0297185)
(0.120662 0 -0.0306082)
(0.128915 0 -0.0309431)
(0.135973 0 -0.0307995)
(0.141788 0 -0.0302562)
(0.146458 0 -0.0294107)
(0.150129 0 -0.0283567)
(0.152818 0 -0.0271408)
(0.154647 0 -0.0258357)
(0.155606 0 -0.0244607)
(0.15573 0 -0.0230496)
(0.155024 0 -0.0216328)
(0.153464 0 -0.0202222)
(0.151013 0 -0.0188224)
(0.147633 0 -0.0174403)
(0.143288 0 -0.0160853)
(0.137908 0 -0.0147528)
(0.13143 0 -0.0134397)
(0.12379 0 -0.0121392)
(0.114922 0 -0.010851)
(0.104734 0 -0.00956086)
(0.0931389 0 -0.00825667)
(0.0800422 0 -0.0069231)
(0.0653458 0 -0.00554182)
(0.0489482 0 -0.0040916)
(0.0307493 0 -0.00254736)
(0.0105989 0 -0.000875734)
(0.104274 0 -0.0296463)
(0.112905 0 -0.0314466)
(0.122407 0 -0.0331261)
(0.131359 0 -0.0343074)
(0.139199 0 -0.0348896)
(0.145572 0 -0.0348827)
(0.150632 0 -0.0344117)
(0.154476 0 -0.0335727)
(0.157335 0 -0.0324731)
(0.159369 0 -0.0311979)
(0.160644 0 -0.0297993)
(0.161233 0 -0.0283249)
(0.161148 0 -0.0268056)
(0.160385 0 -0.0252598)
(0.158916 0 -0.0237084)
(0.156723 0 -0.0221735)
(0.153744 0 -0.0206544)
(0.149918 0 -0.0191535)
(0.145196 0 -0.0176811)
(0.139502 0 -0.0162325)
(0.132762 0 -0.014803)
(0.124901 0 -0.013386)
(0.11584 0 -0.011976)
(0.105488 0 -0.0105609)
(0.0937517 0 -0.00912688)
(0.0805318 0 -0.00765752)
(0.0657255 0 -0.00613307)
(0.0492257 0 -0.00453028)
(0.0309232 0 -0.00282159)
(0.0106591 0 -0.000970107)
(0.125979 0 -0.0345853)
(0.135224 0 -0.0364996)
(0.14432 0 -0.0380239)
(0.151933 0 -0.0388439)
(0.157817 0 -0.0389757)
(0.162028 0 -0.0385364)
(0.16493 0 -0.0376847)
(0.166798 0 -0.0365407)
(0.167882 0 -0.0351927)
(0.16834 0 -0.0337118)
(0.16826 0 -0.0321462)
(0.167668 0 -0.0305237)
(0.166589 0 -0.0288788)
(0.164982 0 -0.0272217)
(0.162796 0 -0.0255641)
(0.159992 0 -0.0239257)
(0.156498 0 -0.0223076)
(0.152239 0 -0.0207113)
(0.147145 0 -0.0191403)
(0.141136 0 -0.0175916)
(0.134129 0 -0.01606)
(0.12604 0 -0.0145388)
(0.116783 0 -0.0130198)
(0.106262 0 -0.0114911)
(0.0943797 0 -0.00993827)
(0.0810321 0 -0.00834361)
(0.0661115 0 -0.00668615)
(0.0495052 0 -0.00494093)
(0.0310967 0 -0.00307832)
(0.0107191 0 -0.00105845)
(0.149106 0 -0.0398348)
(0.158611 0 -0.0417222)
(0.166656 0 -0.0428666)
(0.17229 0 -0.0431269)
(0.175791 0 -0.0426866)
(0.17765 0 -0.0417649)
(0.178371 0 -0.040528)
(0.178329 0 -0.0390932)
(0.17775 0 -0.0375238)
(0.176752 0 -0.0358658)
(0.175439 0 -0.0341637)
(0.17379 0 -0.0324277)
(0.171805 0 -0.0306838)
(0.169426 0 -0.0289402)
(0.166583 0 -0.0272048)
(0.16321 0 -0.0254875)
(0.159225 0 -0.023791)
(0.154547 0 -0.0221161)
(0.149091 0 -0.0204635)
(0.142772 0 -0.01883)
(0.135499 0 -0.0172103)
(0.127183 0 -0.0155972)
(0.117729 0 -0.0139814)
(0.107038 0 -0.0123506)
(0.0950083 0 -0.0106897)
(0.0815313 0 -0.00898024)
(0.0664948 0 -0.00720005)
(0.0497807 0 -0.00532279)
(0.0312662 0 -0.00331707)
(0.0107773 0 -0.00114059)
(0.173458 0 -0.0452974)
(0.182528 0 -0.0469151)
(0.188545 0 -0.0473747)
(0.191515 0 -0.0468898)
(0.192322 0 -0.0458158)
(0.191799 0 -0.0444245)
(0.190456 0 -0.0428463)
(0.18868 0 -0.0411704)
(0.186647 0 -0.0394323)
(0.184414 0 -0.0376499)
(0.182041 0 -0.0358502)
(0.17949 0 -0.0340402)
(0.176717 0 -0.0322309)
(0.17365 0 -0.0304283)
(0.17021 0 -0.0286372)
(0.166313 0 -0.0268629)
(0.161872 0 -0.0251072)
(0.156797 0 -0.0233707)
(0.150996 0 -0.0216522)
(0.144378 0 -0.0199485)
(0.136847 0 -0.0182542)
(0.128306 0 -0.0165615)
(0.118659 0 -0.0148606)
(0.1078 0 -0.0131389)
(0.0956239 0 -0.0113807)
(0.0820184 0 -0.00956673)
(0.0668667 0 -0.00767413)
(0.0500462 0 -0.00567533)
(0.0314283 0 -0.00353753)
(0.0108327 0 -0.0012164)
(0.198636 0 -0.0507884)
(0.205932 0 -0.0517034)
(0.208699 0 -0.0511304)
(0.208503 0 -0.0498095)
(0.206569 0 -0.0481506)
(0.203884 0 -0.0463895)
(0.200823 0 -0.0445785)
(0.197642 0 -0.04275)
(0.194441 0 -0.040912)
(0.191231 0 -0.0390664)
(0.188 0 -0.0372186)
(0.184696 0 -0.0353712)
(0.181251 0 -0.0335283)
(0.177587 0 -0.0316931)
(0.173617 0 -0.0298685)
(0.169249 0 -0.0280573)
(0.164392 0 -0.0262607)
(0.158949 0 -0.0244786)
(0.152825 0 -0.0227093)
(0.145924 0 -0.0209493)
(0.138145 0 -0.019193)
(0.12939 0 -0.0174326)
(0.119555 0 -0.0156579)
(0.108533 0 -0.0138561)
(0.0962139 0 -0.0120109)
(0.082483 0 -0.0101028)
(0.0672194 0 -0.00810807)
(0.0502961 0 -0.00599826)
(0.0315797 0 -0.00373949)
(0.0108841 0 -0.00128582)
(0.223398 0 -0.0558467)
(0.226776 0 -0.0553664)
(0.225312 0 -0.0535538)
(0.222064 0 -0.0515488)
(0.217954 0 -0.0495436)
(0.213644 0 -0.0476023)
(0.209356 0 -0.0457073)
(0.205178 0 -0.0438394)
(0.201125 0 -0.0419841)
(0.19717 0 -0.040133)
(0.193268 0 -0.0382833)
(0.189356 0 -0.0364343)
(0.185357 0 -0.0345873)
(0.181188 0 -0.0327443)
(0.176759 0 -0.0309073)
(0.171977 0 -0.0290779)
(0.166746 0 -0.0272571)
(0.16097 0 -0.0254445)
(0.154549 0 -0.0236382)
(0.147384 0 -0.0218348)
(0.139373 0 -0.0200287)
(0.130414 0 -0.0182119)
(0.1204 0 -0.0163743)
(0.109222 0 -0.0145027)
(0.0967668 0 -0.0125808)
(0.082916 0 -0.0105885)
(0.0675457 0 -0.00850183)
(0.0505253 0 -0.00629152)
(0.0317172 0 -0.00392289)
(0.0109303 0 -0.00134881)
(0.243328 0 -0.058915)
(0.242339 0 -0.0566426)
(0.237215 0 -0.0540419)
(0.231779 0 -0.0518765)
(0.22638 0 -0.0499279)
(0.221154 0 -0.0480777)
(0.216138 0 -0.046268)
(0.21133 0 -0.0444721)
(0.206707 0 -0.0426763)
(0.202223 0 -0.0408745)
(0.197824 0 -0.0390644)
(0.193442 0 -0.0372465)
(0.189 0 -0.0354221)
(0.184416 0 -0.0335937)
(0.179601 0 -0.0317632)
(0.174462 0 -0.0299326)
(0.168904 0 -0.0281029)
(0.16283 0 -0.0262736)
(0.156141 0 -0.0244434)
(0.148735 0 -0.0226085)
(0.14051 0 -0.0207638)
(0.131361 0 -0.0189014)
(0.12118 0 -0.017011)
(0.109856 0 -0.0150797)
(0.097272 0 -0.0130908)
(0.0833087 0 -0.0110243)
(0.067839 0 -0.00885563)
(0.0507292 0 -0.00655521)
(0.0318381 0 -0.00408778)
(0.0109705 0 -0.0014054)
(0.00870168 0 -0.000483725)
(0.0249964 0 -0.00139413)
(0.0392518 0 -0.00220487)
(0.0517079 0 -0.00293447)
(0.0626113 0 -0.00359941)
(0.0721643 0 -0.00421106)
(0.0805577 0 -0.0047799)
(0.0879631 0 -0.00531325)
(0.0945411 0 -0.00581785)
(0.100426 0 -0.00629744)
(0.105744 0 -0.00675623)
(0.11062 0 -0.00719848)
(0.115184 0 -0.00762885)
(0.119548 0 -0.00805126)
(0.123823 0 -0.00847012)
(0.128146 0 -0.008896)
(0.132633 0 -0.00933743)
(0.13741 0 -0.00980683)
(0.142592 0 -0.0103162)
(0.148343 0 -0.0108918)
(0.15478 0 -0.0115568)
(0.162056 0 -0.0123441)
(0.170289 0 -0.0132893)
(0.17962 0 -0.0144475)
(0.190173 0 -0.0158785)
(0.201972 0 -0.0176512)
(0.214913 0 -0.0198501)
(0.228571 0 -0.0225726)
(0.241978 0 -0.0260302)
(0.254164 0 -0.0310541)
(0.00880881 0 -0.000513312)
(0.0253161 0 -0.00148014)
(0.0397779 0 -0.00234249)
(0.0524428 0 -0.00312019)
(0.063567 0 -0.00383126)
(0.07336 0 -0.00448861)
(0.0820124 0 -0.00510304)
(0.0896961 0 -0.00568279)
(0.0965713 0 -0.00623471)
(0.102783 0 -0.0067653)
(0.108457 0 -0.007279)
(0.113726 0 -0.00778208)
(0.118715 0 -0.00828049)
(0.123526 0 -0.0087773)
(0.128286 0 -0.00928104)
(0.133116 0 -0.00980068)
(0.138143 0 -0.0103503)
(0.143475 0 -0.0109423)
(0.149249 0 -0.0115958)
(0.155571 0 -0.0123302)
(0.162567 0 -0.0131763)
(0.170352 0 -0.0141678)
(0.179001 0 -0.0153385)
(0.1886 0 -0.0167434)
(0.199174 0 -0.0184393)
(0.210564 0 -0.0204725)
(0.222456 0 -0.0229063)
(0.234234 0 -0.0257908)
(0.245043 0 -0.0292161)
(0.253924 0 -0.0333459)
(0.00891713 0 -0.000542679)
(0.0256426 0 -0.00156577)
(0.0403123 0 -0.0024791)
(0.0531849 0 -0.00330454)
(0.0645325 0 -0.00406191)
(0.0745655 0 -0.00476511)
(0.0834756 0 -0.00542559)
(0.091433 0 -0.00605233)
(0.0986086 0 -0.00665408)
(0.105143 0 -0.00723701)
(0.11116 0 -0.00780623)
(0.116803 0 -0.0083709)
(0.122184 0 -0.00893619)
(0.127415 0 -0.0095083)
(0.132617 0 -0.0100968)
(0.137901 0 -0.0107102)
(0.143398 0 -0.0113653)
(0.149197 0 -0.0120747)
(0.155416 0 -0.0128581)
(0.162158 0 -0.0137379)
(0.169507 0 -0.0147401)
(0.177527 0 -0.0158953)
(0.18627 0 -0.0172393)
(0.19571 0 -0.0188068)
(0.205756 0 -0.0206371)
(0.21615 0 -0.0227512)
(0.226524 0 -0.0251798)
(0.236342 0 -0.0279449)
(0.244926 0 -0.0310674)
(0.251519 0 -0.0345469)
(0.00902343 0 -0.00057138)
(0.0259535 0 -0.00164891)
(0.0408311 0 -0.00261247)
(0.0539229 0 -0.00348585)
(0.0654945 0 -0.00428928)
(0.0757654 0 -0.0050381)
(0.0849298 0 -0.00574466)
(0.0931628 0 -0.00641914)
(0.10063 0 -0.00707105)
(0.107464 0 -0.00770576)
(0.113812 0 -0.00833161)
(0.119809 0 -0.00895809)
(0.125554 0 -0.00958999)
(0.131162 0 -0.0102354)
(0.136746 0 -0.010904)
(0.142427 0 -0.0116084)
(0.148305 0 -0.0123616)
(0.154456 0 -0.0131765)
(0.160991 0 -0.0140744)
(0.167986 0 -0.0150757)
(0.175466 0 -0.0161985)
(0.183472 0 -0.0174702)
(0.191993 0 -0.0189175)
(0.200942 0 -0.0205601)
(0.210169 0 -0.02242)
(0.219415 0 -0.0245072)
(0.228334 0 -0.0268294)
(0.236487 0 -0.0293848)
(0.243339 0 -0.0321346)
(0.248388 0 -0.03504)
(0.00912684 0 -0.000599189)
(0.0262603 0 -0.00172985)
(0.0413451 0 -0.00274297)
(0.0546515 0 -0.00366339)
(0.0664446 0 -0.00451234)
(0.0769491 0 -0.00530629)
(0.0863616 0 -0.00605849)
(0.0948584 0 -0.00677996)
(0.1026 0 -0.00748028)
(0.109724 0 -0.00816666)
(0.116384 0 -0.0088493)
(0.122703 0 -0.0095358)
(0.128774 0 -0.0102319)
(0.134711 0 -0.0109469)
(0.14062 0 -0.0116909)
(0.14662 0 -0.0124781)
(0.152781 0 -0.0133175)
(0.159175 0 -0.0142231)
(0.165884 0 -0.0152137)
(0.17294 0 -0.0163026)
(0.180365 0 -0.0175082)
(0.188155 0 -0.0188493)
(0.19626 0 -0.0203429)
(0.204568 0 -0.0220009)
(0.212911 0 -0.0238309)
(0.221052 0 -0.0258332)
(0.2287 0 -0.0280029)
(0.235487 0 -0.0303067)
(0.241045 0 -0.0326957)
(0.245079 0 -0.0351271)
(0.00922686 0 -0.000625989)
(0.0265589 0 -0.00180804)
(0.0418453 0 -0.00286915)
(0.0553601 0 -0.00383528)
(0.067369 0 -0.00472862)
(0.0780997 0 -0.00556665)
(0.0877504 0 -0.00636342)
(0.0964977 0 -0.00713069)
(0.1045 0 -0.00787848)
(0.111896 0 -0.00861525)
(0.118841 0 -0.00935223)
(0.125441 0 -0.0100952)
(0.131793 0 -0.0108512)
(0.138004 0 -0.01163)
(0.144175 0 -0.0124417)
(0.150401 0 -0.0132988)
(0.156741 0 -0.0142091)
(0.163258 0 -0.0151858)
(0.170003 0 -0.0162431)
(0.176996 0 -0.0173931)
(0.184235 0 -0.018649)
(0.191689 0 -0.0200228)
(0.199286 0 -0.0215238)
(0.206909 0 -0.0231565)
(0.214394 0 -0.0249195)
(0.221545 0 -0.0268079)
(0.228105 0 -0.0287971)
(0.2338 0 -0.0308474)
(0.238408 0 -0.0329214)
(0.241753 0 -0.0349709)
(0.00932205 0 -0.000651465)
(0.0268439 0 -0.00188248)
(0.0423231 0 -0.00298942)
(0.0560372 0 -0.00399934)
(0.0682529 0 -0.00493536)
(0.0791991 0 -0.00581578)
(0.0890747 0 -0.00665538)
(0.0980556 0 -0.00746648)
(0.106299 0 -0.00825964)
(0.113945 0 -0.00904433)
(0.121135 0 -0.00983074)
(0.12797 0 -0.0106247)
(0.134552 0 -0.0114345)
(0.140978 0 -0.0122693)
(0.147336 0 -0.0131383)
(0.153705 0 -0.0140517)
(0.160139 0 -0.0150182)
(0.166685 0 -0.0160481)
(0.173373 0 -0.0171521)
(0.180209 0 -0.0183395)
(0.187175 0 -0.0196186)
(0.194224 0 -0.020996)
(0.20128 0 -0.0224755)
(0.20823 0 -0.0240566)
(0.214932 0 -0.0257325)
(0.221206 0 -0.0274863)
(0.226852 0 -0.0292884)
(0.231696 0 -0.0311092)
(0.235594 0 -0.0329138)
(0.238447 0 -0.0346585)
(0.00941 0 -0.000675135)
(0.0271082 0 -0.00195178)
(0.0427675 0 -0.00310155)
(0.0566681 0 -0.00415254)
(0.0690773 0 -0.00512869)
(0.080224 0 -0.00604897)
(0.0903068 0 -0.00692874)
(0.0995 0 -0.00778076)
(0.107958 0 -0.00861593)
(0.115821 0 -0.00944398)
(0.123214 0 -0.0102741)
(0.130244 0 -0.0111135)
(0.137007 0 -0.0119702)
(0.143591 0 -0.0128524)
(0.150074 0 -0.0137685)
(0.15652 0 -0.014727)
(0.162976 0 -0.0157355)
(0.169475 0 -0.0168022)
(0.176035 0 -0.0179345)
(0.182649 0 -0.0191388)
(0.189289 0 -0.0204194)
(0.195901 0 -0.021778)
(0.202427 0 -0.0232184)
(0.208754 0 -0.0247322)
(0.214738 0 -0.0263035)
(0.220249 0 -0.0279145)
(0.22515 0 -0.029542)
(0.229323 0 -0.0311592)
(0.232677 0 -0.0327359)
(0.235158 0 -0.0342363)
(0.00948797 0 -0.000696482)
(0.0273445 0 -0.00201445)
(0.0431674 0 -0.00320325)
(0.0572382 0 -0.00429181)
(0.069824 0 -0.00530473)
(0.081153 0 -0.00626155)
(0.0914221 0 -0.00717804)
(0.100804 0 -0.00806725)
(0.109449 0 -0.00894028)
(0.117494 0 -0.00980685)
(0.125057 0 -0.0106757)
(0.132242 0 -0.0115545)
(0.13914 0 -0.0124507)
(0.14583 0 -0.0133717)
(0.152381 0 -0.0143248)
(0.158847 0 -0.0153169)
(0.165266 0 -0.0163543)
(0.171661 0 -0.0174427)
(0.178039 0 -0.0185871)
(0.184391 0 -0.0197913)
(0.190683 0 -0.021057)
(0.19687 0 -0.0223848)
(0.202884 0 -0.0237707)
(0.208615 0 -0.0252002)
(0.213965 0 -0.0266607)
(0.218834 0 -0.0281353)
(0.223126 0 -0.0296035)