/*--------------------------------*- C++ -*----------------------------------*\
| =========                 |                                                 |
| \\      /  F ield         | OpenFOAM: The Open Source CFD Toolbox           |
|  \\    /   O peration     | Version:  2006                                  |
|   \\  /    A nd           | Website:  www.openfoam.com                      |
|    \\/     M anipulation  |                                                 |
\*---------------------------------------------------------------------------*/
FoamFile
{
    version     2.0;
    format      ascii;
    class       volVectorField;
    location    "0.3";
    object      cellDisplacement;
}
// * * * * * * * * * * * * * * * * * * * * * * * * * * * * * * * * * * * * * //

dimensions      [0 1 0 0 0 0 0];


internalField   nonuniform List<vector> 
2790
(
(1.80869e-05 4.70242e-08 0)
(5.46988e-05 1.44008e-07 0)
(9.94501e-05 2.67785e-07 0)
(0.000160339 4.44527e-07 0)
(0.000245493 7.03377e-07 0)
(0.000364053 1.07998e-06 0)
(0.000526433 1.61873e-06 0)
(0.000744301 2.37474e-06 0)
(0.00103029 3.41587e-06 0)
(0.00139745 4.82545e-06 0)
(0.00185835 6.70646e-06 0)
(0.00242395 9.18835e-06 0)
(0.00310205 1.24381e-05 0)
(0.00389553 1.66774e-05 0)
(0.0048003 2.22071e-05 0)
(0.00580301 2.94413e-05 0)
(0.00687875 3.89488e-05 0)
(0.00798902 5.15016e-05 0)
(0.00908019 6.81283e-05 0)
(0.0100832 9.01715e-05 0)
(0.010915 0.000119347 0)
(0.0114816 0.000157771 0)
(0.0116852 0.000207992 0)
(0.0114347 0.000273014 0)
(0.0106593 0.000356368 0)
(0.00932798 0.000462306 0)
(0.00747388 0.000596062 0)
(0.00523152 0.000762639 0)
(0.00290693 0.000954459 0)
(0.00118451 0.00109471 0)
(1.70455e-05 1.38005e-07 0)
(5.18318e-05 4.23303e-07 0)
(9.47117e-05 7.88357e-07 0)
(0.000153267 1.31024e-06 0)
(0.000235452 2.07533e-06 0)
(0.000350276 3.18941e-06 0)
(0.000508064 4.78425e-06 0)
(0.000720456 7.02323e-06 0)
(0.00100015 1.01072e-05 0)
(0.00136036 1.42819e-05 0)
(0.00181402 1.98498e-05 0)
(0.00237261 2.7189e-05 0)
(0.00304479 3.67847e-05 0)
(0.00383459 4.92778e-05 0)
(0.00473948 6.55363e-05 0)
(0.00574821 8.67521e-05 0)
(0.00683857 0.000114562 0)
(0.00797536 0.000151186 0)
(0.00910891 0.000199572 0)
(0.0101749 0.000263552 0)
(0.0110956 0.000348007 0)
(0.0117833 0.000458884 0)
(0.0121466 0.000603161 0)
(0.012101 0.000788654 0)
(0.011584 0.00102356 0)
(0.0105747 0.00131545 0)
(0.00912058 0.00166902 0)
(0.0073795 0.0020807 0)
(0.00568622 0.00252404 0)
(0.00466824 0.00290812 0)
(1.67405e-05 2.24385e-07 0)
(5.10476e-05 6.89648e-07 0)
(9.34106e-05 1.28631e-06 0)
(0.000151327 2.13975e-06 0)
(0.000232713 3.39134e-06 0)
(0.000346567 5.21417e-06 0)
(0.000503248 7.82349e-06 0)
(0.000714489 1.14854e-05 0)
(0.000993173 1.65252e-05 0)
(0.00135285 2.33388e-05 0)
(0.00180695 3.24085e-05 0)
(0.00236778 4.43322e-05 0)
(0.00304513 5.98691e-05 0)
(0.0038447 8.00147e-05 0)
(0.00476627 0.00010611 0)
(0.00580174 0.000139994 0)
(0.00693305 0.000184191 0)
(0.00813028 0.000242121 0)
(0.00935025 0.000318313 0)
(0.0105366 0.000418609 0)
(0.0116218 0.000550476 0)
(0.0125289 0.00072288 0)
(0.0131786 0.0009461 0)
(0.0134992 0.0012311 0)
(0.0134407 0.0015882 0)
(0.0129958 0.00202406 0)
(0.0122173 0.00253571 0)
(0.0112536 0.00309955 0)
(0.0103808 0.00365015 0)
(0.0100335 0.004046 0)
(1.64694e-05 3.07371e-07 0)
(5.03007e-05 9.4604e-07 0)
(9.21517e-05 1.76567e-06 0)
(0.000149451 2.93742e-06 0)
(0.000230084 4.65459e-06 0)
(0.000343065 7.15334e-06 0)
(0.000498816 1.07262e-05 0)
(0.000709225 1.57326e-05 0)
(0.000987456 2.26088e-05 0)
(0.00134752 3.18796e-05 0)
(0.0018036 4.41766e-05 0)
(0.00236908 6.02706e-05 0)
(0.00305538 8.11265e-05 0)
(0.00387045 0.000107994 0)
(0.00481727 0.000142542 0)
(0.00589203 0.000187056 0)
(0.00708248 0.000244672 0)
(0.00836599 0.000319644 0)
(0.00970799 0.000417567 0)
(0.0110628 0.00054552 0)
(0.0123772 0.000712752 0)
(0.013589 0.000930107 0)
(0.0146346 0.00120968 0)
(0.0154571 0.00156371 0)
(0.0160177 0.00200253 0)
(0.0163207 0.00252984 0)
(0.0164026 0.00313283 0)
(0.0163607 0.00376893 0)
(0.0163482 0.00434263 0)
(0.0165796 0.00469272 0)
(1.62188e-05 3.8639e-07 0)
(4.9586e-05 1.19027e-06 0)
(9.09337e-05 2.22173e-06 0)
(0.000147633 3.69452e-06 0)
(0.000227552 5.84985e-06 0)
(0.000339728 8.98127e-06 0)
(0.00049468 1.34502e-05 0)
(0.000704491 1.96974e-05 0)
(0.000982676 2.82516e-05 0)
(0.00134382 3.97397e-05 0)
(0.001803 5.49025e-05 0)
(0.00237494 7.46242e-05 0)
(0.00307298 9.99879e-05 0)
(0.00390782 0.000132369 0)
(0.00488621 0.000173586 0)
(0.00600955 0.000226108 0)
(0.0072726 0.000293345 0)
(0.00866176 0.000379933 0)
(0.0101498 0.000491581 0)
(0.0117058 0.000636115 0)
(0.0132938 0.000823534 0)
(0.0148683 0.00106523 0)
(0.0163831 0.00137359 0)
(0.017797 0.00176044 0)
(0.0190846 0.00223598 0)
(0.0202465 0.00280051 0)
(0.0212874 0.00343511 0)
(0.022229 0.00409077 0)
(0.0230694 0.00466473 0)
(0.0237891 0.0049921 0)
(1.59828e-05 4.60921e-07 0)
(4.89005e-05 1.42047e-06 0)
(8.97552e-05 2.65053e-06 0)
(0.000145869 4.40372e-06 0)
(0.000225095 6.96436e-06 0)
(0.000336508 1.06766e-05 0)
(0.000490736 1.59608e-05 0)
(0.000700082 2.33246e-05 0)
(0.000978455 3.33681e-05 0)
(0.00134108 4.67894e-05 0)
(0.00180403 6.43925e-05 0)
(0.0023835 8.71084e-05 0)
(0.00309494 0.000116041 0)
(0.00395206 0.000152549 0)
(0.00496571 0.000198394 0)
(0.0061429 0.000255949 0)
(0.00748626 0.000328508 0)
(0.00898826 0.000420301 0)
(0.0106347 0.000536894 0)
(0.0124112 0.000686033 0)
(0.0142957 0.00087713 0)
(0.0162609 0.00112101 0)
(0.0182789 0.00142916 0)
(0.020324 0.001812 0)
(0.0223836 0.00227822 0)
(0.0244388 0.00282586 0)
(0.0264612 0.00343589 0)
(0.0283943 0.00406455 0)
(0.0300866 0.00462177 0)
(0.0312888 0.00494892 0)
(1.57593e-05 5.30569e-07 0)
(4.82435e-05 1.63523e-06 0)
(8.86161e-05 3.04908e-06 0)
(0.000144153 5.0595e-06 0)
(0.000222695 7.98848e-06 0)
(0.000333354 1.22231e-05 0)
(0.000486868 1.82322e-05 0)
(0.000695773 2.6574e-05 0)
(0.000974379 3.78979e-05 0)
(0.00133858 5.29403e-05 0)
(0.00180544 7.25213e-05 0)
(0.0023927 9.75504e-05 0)
(0.00311798 0.000129052 0)
(0.00399801 0.000168231 0)
(0.00504776 0.000216585 0)
(0.00627962 0.000276095 0)
(0.00770259 0.00034947 0)
(0.00932046 0.000440366 0)
(0.0111301 0.00055352 0)
(0.0131277 0.000695352 0)
(0.0153097 0.00087409 0)
(0.0176646 0.00109887 0)
(0.0201804 0.00137916 0)
(0.0228441 0.00172302 0)
(0.0256495 0.00213608 0)
(0.0285558 0.00261552 0)
(0.0315017 0.0031435 0)
(0.0343602 0.00368309 0)
(0.0368515 0.00415985 0)
(0.0385099 0.00443284 0)
(1.55481e-05 5.95096e-07 0)
(4.7617e-05 1.83368e-06 0)
(8.75187e-05 3.4155e-06 0)
(0.000142482 5.65826e-06 0)
(0.000220335 8.91594e-06 0)
(0.000330216 1.36106e-05 0)
(0.000482969 2.0248e-05 0)
(0.000691342 2.94217e-05 0)
(0.000970034 4.18073e-05 0)
(0.00133556 5.81478e-05 0)
(0.00180599 7.92348e-05 0)
(0.00240049 0.000105892 0)
(0.00313878 0.000138976 0)
(0.00404048 0.000179407 0)
(0.00512445 0.000228247 0)
(0.00640818 0.00028684 0)
(0.0079071 0.000357015 0)
(0.00963353 0.000441291 0)
(0.0115956 0.000543105 0)
(0.0138034 0.000667123 0)
(0.0162632 0.000819282 0)
(0.0189785 0.0010063 0)
(0.0219498 0.0012349 0)
(0.0251725 0.00151032 0)
(0.0286327 0.00183426 0)
(0.0322738 0.00220203 0)
(0.0360001 0.00259605 0)
(0.0396121 0.00298157 0)
(0.0427116 0.00329385 0)
(0.0446429 0.00342609 0)
(1.53505e-05 6.5443e-07 0)
(4.70249e-05 2.01551e-06 0)
(8.64684e-05 3.74897e-06 0)
(0.00014086 6.19839e-06 0)
(0.000218004 9.74386e-06 0)
(0.000327057 1.48345e-05 0)
(0.000478942 2.20018e-05 0)
(0.000686591 3.18594e-05 0)
(0.000965038 4.50881e-05 0)
(0.00133137 6.24091e-05 0)
(0.00180451 8.45459e-05 0)
(0.00240495 0.000112183 0)
(0.00315425 0.000145936 0)
(0.00407463 0.00018634 0)
(0.00518838 0.000233883 0)
(0.00651748 0.0002891 0)
(0.00808309 0.00035271 0)
(0.00990497 0.000425803 0)
(0.0120014 0.000510041 0)
(0.0143904 0.000607876 0)
(0.0170885 0.00072257 0)
(0.0201089 0.000857871 0)
(0.0234592 0.00101732 0)
(0.0271358 0.001203 0)
(0.0311131 0.00141365 0)
(0.03532 0.00164205 0)
(0.0396146 0.00187096 0)
(0.0437216 0.00206967 0)
(0.0471306 0.00219085 0)
(0.0490574 0.00218579 0)
(1.51687e-05 7.08679e-07 0)
(4.6474e-05 2.18095e-06 0)
(8.54748e-05 4.04985e-06 0)
(0.000139295 6.68029e-06 0)
(0.000215704 1.04728e-05 0)
(0.000323855 1.58958e-05 0)
(0.000474719 2.34963e-05 0)
(0.00068136 3.38937e-05 0)
(0.000959077 4.77564e-05 0)
(0.0013254 6.57595e-05 0)
(0.0018 8.85276e-05 0)
(0.0024044 0.000116567 0)
(0.00316172 0.0001502 0)
(0.00409629 0.000189512 0)
(0.0052332 0.000234338 0)
(0.00659804 0.000284295 0)
(0.00821648 0.000338877 0)
(0.0101139 0.000397591 0)
(0.0123153 0.00046014 0)
(0.0148452 0.000526591 0)
(0.0177262 0.000597433 0)
(0.0209768 0.000673377 0)
(0.0246066 0.000754844 0)
(0.0286079 0.000841012 0)
(0.0329415 0.000928437 0)
(0.0375122 0.0010093 0)
(0.0421334 0.00106978 0)
(0.0464656 0.00109082 0)
(0.0499263 0.00105556 0)
(0.0517108 0.000976826 0)
(1.5006e-05 7.58138e-07 0)
(4.59736e-05 2.33089e-06 0)
(8.45528e-05 4.31966e-06 0)
(0.000137805 7.10644e-06 0)
(0.00021345 1.11068e-05 0)
(0.000320611 1.68012e-05 0)
(0.000470267 2.4743e-05 0)
(0.000675554 3.55457e-05 0)
(0.000951935 4.98498e-05 0)
(0.00131726 6.82673e-05 0)
(0.0017917 9.13031e-05 0)
(0.00239759 0.000119262 0)
(0.00315917 0.000152147 0)
(0.0041023 0.000189568 0)
(0.00525413 0.000230682 0)
(0.0066428 0.000274172 0)
(0.00829709 0.000318297 0)
(0.010246 0.000360998 0)
(0.0125186 0.000400057 0)
(0.0151428 0.00043328 0)
(0.0181441 0.000458614 0)
(0.0215418 0.000474112 0)
(0.0253428 0.000477666 0)
(0.0295314 0.000466462 0)
(0.034052 0.000436253 0)
(0.0387837 0.00038086 0)
(0.0435036 0.000293016 0)
(0.0478349 0.000169104 0)
(0.0511854 2.1484e-05 0)
(0.0528219 -9.84709e-05 0)
(1.48669e-05 8.033e-07 0)
(4.55366e-05 2.46681e-06 0)
(8.37233e-05 4.56112e-06 0)
(0.000136418 7.48135e-06 0)
(0.000211273 1.16531e-05 0)
(0.000317356 1.75628e-05 0)
(0.000465604 2.57617e-05 0)
(0.00066915 3.6848e-05 0)
(0.000943517 5.14238e-05 0)
(0.00130671 7.0026e-05 0)
(0.00177919 9.30301e-05 0)
(0.00238375 0.000120532 0)
(0.00314533 0.000152217 0)
(0.00409073 0.000187232 0)
(0.0052483 0.000224086 0)
(0.00664764 0.000260588 0)
(0.0083192 0.000293869 0)
(0.0102938 0.000320461 0)
(0.0126019 0.000336475 0)
(0.0152724 0.000337818 0)
(0.0183304 0.000320427 0)
(0.0217925 0.000280433 0)
(0.0256602 0.000214198 0)
(0.0299073 0.000118228 0)
(0.0344621 -1.08711e-05 0)
(0.0391817 -0.000175844 0)
(0.0438184 -0.000376456 0)
(0.0479808 -0.000603762 0)
(0.0511026 -0.000830075 0)
(0.0525534 -0.00099198 0)
(1.47569e-05 8.44832e-07 0)
(4.51797e-05 2.59072e-06 0)
(8.30141e-05 4.77798e-06 0)
(0.000135173 7.81124e-06 0)
(0.000209227 1.21218e-05 0)
(0.000314152 1.81965e-05 0)
(0.000460797 2.65781e-05 0)
(0.000662213 3.78421e-05 0)
(0.000933866 5.25451e-05 0)
(0.00129375 7.11441e-05 0)
(0.00176237 9.38845e-05 0)
(0.00236267 0.000120662 0)
(0.00311981 0.000150866 0)
(0.00406091 0.000183228 0)
(0.00521475 0.000215686 0)
(0.00661132 0.000245307 0)
(0.00828141 0.000268282 0)
(0.0102559 0.000280016 0)
(0.0125649 0.00027534 0)
(0.0152359 0.000248803 0)
(0.0182912 0.000195059 0)
(0.0217431 0.000109254 0)
(0.0255861 -1.25973e-05 0)
(0.0297845 -0.000173267 0)
(0.0342548 -0.00037381 0)
(0.0388405 -0.000612407 0)
(0.0432818 -0.000881639 0)
(0.0471844 -0.00116343 0)
(0.0500076 -0.0014224 0)
(0.0512193 -0.00159493 0)
(1.46831e-05 8.83562e-07 0)
(4.49231e-05 2.70516e-06 0)
(8.24604e-05 4.97489e-06 0)
(0.000134123 8.10381e-06 0)
(0.000207382 1.25251e-05 0)
(0.000311095 1.87215e-05 0)
(0.000455968 2.72224e-05 0)
(0.000654894 3.85751e-05 0)
(0.000923166 5.32872e-05 0)
(0.00127859 7.1736e-05 0)
(0.0017415 9.40443e-05 0)
(0.00233464 0.000119928 0)
(0.00308297 0.000148522 0)
(0.00401339 0.000178213 0)
(0.00515431 0.000206484 0)
(0.00653525 0.000229833 0)
(0.00818617 0.000243762 0)
(0.0101367 0.000242905 0)
(0.012415 0.000221282 0)
(0.0150456 0.000172709 0)
(0.0180469 9.1339e-05 0)
(0.0214259 -2.77051e-05 0)
(0.025171 -0.000187654 0)
(0.0292405 -0.000389393 0)
(0.0335465 -0.000630649 0)
(0.0379329 -0.000904814 0)
(0.0421462 -0.00119886 0)
(0.0457983 -0.00149012 0)
(0.0483502 -0.00174193 0)
(0.049332 -0.00189489 0)
(1.46538e-05 9.20463e-07 0)
(4.47917e-05 2.81304e-06 0)
(8.21054e-05 5.15721e-06 0)
(0.000133335 8.36788e-06 0)
(0.000205836 1.28771e-05 0)
(0.000308317 1.91595e-05 0)
(0.000451299 2.77273e-05 0)
(0.000647436 3.90966e-05 0)
(0.000911738 5.3725e-05 0)
(0.00126167 7.1914e-05 0)
(0.00171716 9.36774e-05 0)
(0.00230047 0.000118579 0)
(0.00303597 0.000145555 0)
(0.00394979 0.000172729 0)
(0.00506941 0.000197269 0)
(0.00642306 0.000215296 0)
(0.00803902 0.00022191 0)
(0.00994465 0.000211343 0)
(0.0121651 0.000177293 0)
(0.0147213 0.000113444 0)
(0.0176268 1.41711e-05 0)
(0.0208836 -0.000124626 0)
(0.0244759 -0.000304605 0)
(0.0283602 -0.000524053 0)
(0.0324528 -0.000776989 0)
(0.0366146 -0.0010524 0)
(0.0406257 -0.00133375 0)
(0.0441337 -0.0016004 0)
(0.0465624 -0.00183334 0)
(0.0472304 -0.00200427 0)
(0.00121327 -0.00119616 0)
(0.00353876 -0.00109997 0)
(0.0066346 -0.000908341 0)
(0.00951589 -0.000721044 0)
(0.0117572 -0.000559163 0)
(0.0132275 -0.000424546 0)
(0.0139521 -0.000315461 0)
(0.0140304 -0.000229159 0)
(0.0135894 -0.000162183 0)
(0.012761 -0.000111347 0)
(0.0116676 -7.36386e-05 0)
(0.0104173 -4.64675e-05 0)
(0.00909986 -2.74718e-05 0)
(0.0077867 -1.4647e-05 0)
(0.00653224 -6.3664e-06 0)
(0.00537501 -1.33313e-06 0)
(0.00433915 1.4636e-06 0)
(0.00343674 2.78597e-06 0)
(0.00267027 3.18922e-06 0)
(0.00203481 3.06371e-06 0)
(0.00152024 2.67259e-06 0)
(0.00111307 2.18393e-06 0)
(0.000798202 1.69723e-06 0)
(0.000560185 1.26465e-06 0)
(0.000384236 9.07291e-07 0)
(0.000256863 6.27214e-07 0)
(0.000166179 4.15833e-07 0)
(0.000101914 2.59319e-07 0)
(5.51347e-05 1.41605e-07 0)
(1.77193e-05 4.55545e-08 0)
(0.00472257 -0.00321841 0)
(0.00653813 -0.00294031 0)
(0.00903282 -0.00249423 0)
(0.0113754 -0.002021 0)
(0.0131646 -0.00158657 0)
(0.014267 -0.00121326 0)
(0.0146998 -0.000905434 0)
(0.0145515 -0.000659652 0)
(0.0139365 -0.000467523 0)
(0.0129783 -0.000321083 0)
(0.0117899 -0.000212096 0)
(0.0104726 -0.000133502 0)
(0.00910987 -7.85338e-05 0)
(0.00776752 -4.14317e-05 0)
(0.00649597 -1.75161e-05 0)
(0.0053305 -3.03234e-06 0)
(0.0042925 4.95717e-06 0)
(0.00339195 8.67055e-06 0)
(0.0026297 9.72493e-06 0)
(0.00199968 9.25747e-06 0)
(0.00149092 8.03419e-06 0)
(0.00108939 6.54345e-06 0)
(0.000779645 5.07335e-06 0)
(0.000546059 3.77368e-06 0)
(0.000373799 2.70362e-06 0)
(0.000249405 1.86699e-06 0)
(0.000161083 1.23677e-06 0)
(9.86894e-05 7.70919e-07 0)
(5.34414e-05 4.21107e-07 0)
(1.73064e-05 1.35876e-07 0)
(0.0100683 -0.00455927 0)
(0.011507 -0.00425064 0)
(0.0132775 -0.00368493 0)
(0.0148212 -0.00303514 0)
(0.0158756 -0.00241009 0)
(0.0163522 -0.00185733 0)
(0.0162766 -0.0013934 0)
(0.01572 -0.0010178 0)
(0.0147896 -0.00072259 0)
(0.0135919 -0.000496387 0)
(0.012224 -0.000327535 0)
(0.0107724 -0.000205139 0)
(0.00931277 -0.000119474 0)
(0.00790085 -6.16654e-05 0)
(0.00658064 -2.45156e-05 0)
(0.00538227 -2.17236e-06 0)
(0.00432265 9.98008e-06 0)
(0.00340831 1.54346e-05 0)
(0.00263764 1.6742e-05 0)
(0.00200275 1.56972e-05 0)
(0.00149139 1.35087e-05 0)
(0.00108864 1.09449e-05 0)
(0.000778471 8.45684e-06 0)
(0.000544882 6.27557e-06 0)
(0.000372807 4.48868e-06 0)
(0.000248658 3.09615e-06 0)
(0.000160576 2.04959e-06 0)
(9.83923e-05 1.27733e-06 0)
(5.33112e-05 6.98215e-07 0)
(1.72742e-05 2.25991e-07 0)
(0.016605 -0.00537062 0)
(0.0176867 -0.00505866 0)
(0.0186927 -0.0044443 0)
(0.0193136 -0.00370428 0)
(0.0194696 -0.00296972 0)
(0.0191518 -0.00230495 0)
(0.0184125 -0.00173832 0)
(0.0173191 -0.00127402 0)
(0.0159672 -0.000905431 0)
(0.0144443 -0.000621235 0)
(0.012832 -0.000408469 0)
(0.0111989 -0.000253797 0)
(0.00960682 -0.000145348 0)
(0.00809845 -7.21898e-05 0)
(0.00670875 -2.53318e-05 0)
(0.00546317 2.52499e-06 0)
(0.00437199 1.73226e-05 0)
(0.00343709 2.35607e-05 0)
(0.00265346 2.45331e-05 0)
(0.00201071 2.25607e-05 0)
(0.00149482 1.92056e-05 0)
(0.00108965 1.54578e-05 0)
(0.000778328 1.18932e-05 0)
(0.000544296 8.80137e-06 0)
(0.000372149 6.28422e-06 0)
(0.000248096 4.33011e-06 0)
(0.000160167 2.86502e-06 0)
(9.81379e-05 1.78558e-06 0)
(5.31876e-05 9.76737e-07 0)
(1.724e-05 3.16783e-07 0)
(0.0238034 -0.00578757 0)
(0.0245049 -0.00544546 0)
(0.0247152 -0.00480051 0)
(0.0243625 -0.00402526 0)
(0.0235527 -0.00324819 0)
(0.0223649 -0.00253583 0)
(0.0208822 -0.00192058 0)
(0.0191882 -0.00141169 0)
(0.017356 -0.00100355 0)
(0.0154581 -0.000686521 0)
(0.0135585 -0.000447929 0)
(0.0117114 -0.000274204 0)
(0.0099611 -0.000152355 0)
(0.00833894 -7.03939e-05 0)
(0.00686744 -1.83183e-05 0)
(0.00556503 1.20937e-05 0)
(0.00443531 2.76192e-05 0)
(0.00347499 3.34257e-05 0)
(0.00267508 3.33132e-05 0)
(0.00202229 2.99649e-05 0)
(0.00150047 2.51845e-05 0)
(0.001092 2.01097e-05 0)
(0.000778972 1.53937e-05 0)
(0.00054417 1.13543e-05 0)
(0.000371757 8.09016e-06 0)
(0.000247687 5.56773e-06 0)
(0.000159844 3.68187e-06 0)
(9.79263e-05 2.29471e-06 0)
(5.30782e-05 1.25601e-06 0)
(1.72082e-05 4.07956e-07 0)
(0.0312821 -0.00581655 0)
(0.031494 -0.00542404 0)
(0.0308533 -0.00477065 0)
(0.0295182 -0.0040114 0)
(0.0277481 -0.00325256 0)
(0.0256943 -0.00255176 0)
(0.0234649 -0.00193977 0)
(0.0211569 -0.00142778 0)
(0.0188303 -0.0010132 0)
(0.0165425 -0.000688747 0)
(0.0143418 -0.000443359 0)
(0.0122681 -0.000264417 0)
(0.0103477 -0.00013893 0)
(0.0086008 -5.50663e-05 0)
(0.00704222 -2.66205e-06 0)
(0.00567828 2.70595e-05 0)
(0.00450639 4.11961e-05 0)
(0.00351801 4.52225e-05 0)
(0.0027 4.319e-05 0)
(0.00203595 3.79651e-05 0)
(0.00150741 3.14709e-05 0)
(0.00109513 2.49101e-05 0)
(0.000780095 1.89598e-05 0)
(0.000544337 1.39328e-05 0)
(0.000371547 9.90414e-06 0)
(0.000247392 6.80691e-06 0)
(0.00015959 4.49859e-06 0)
(9.77541e-05 2.80368e-06 0)
(5.29865e-05 1.5354e-06 0)
(1.7181e-05 4.99269e-07 0)
(0.0384959 -0.00533502 0)
(0.0381049 -0.00495042 0)
(0.0366083 -0.0043615 0)
(0.034355 -0.00368651 0)
(0.031707 -0.00300717 0)
(0.0288657 -0.00237187 0)
(0.0259541 -0.00180858 0)
(0.0230708 -0.0013302 0)
(0.0202752 -0.00093888 0)
(0.0176132 -0.000630285 0)
(0.01512 -0.000395825 0)
(0.0128214 -0.000224677 0)
(0.0107339 -0.000105225 0)
(0.00886473 -2.64504e-05 0)
(0.00721868 2.15749e-05 0)
(0.00579298 4.74099e-05 0)
(0.00457863 5.80492e-05 0)
(0.00356188 5.89443e-05 0)
(0.00272552 5.41527e-05 0)
(0.00205001 4.65485e-05 0)
(0.00151463 3.80516e-05 0)
(0.00109846 2.98471e-05 0)
(0.000781361 2.25819e-05 0)
(0.000544614 1.65295e-05 0)
(0.000371425 1.17211e-05 0)
(0.000247166 8.04427e-06 0)
(0.000159389 5.31307e-06 0)
(9.76175e-05 3.31128e-06 0)
(5.29143e-05 1.81425e-06 0)
(1.71598e-05 5.905e-07 0)
(0.0446261 -0.00434033 0)
(0.0436886 -0.00406852 0)
(0.0414894 -0.00363363 0)
(0.0384931 -0.00310819 0)
(0.0351301 -0.00255922 0)
(0.0316381 -0.0020309 0)
(0.0281583 -0.00155138 0)
(0.0247859 -0.00113655 0)
(0.021583 -0.000792719 0)
(0.0185905 -0.00051922 0)
(0.0158354 -0.000310622 0)
(0.0133336 -0.000158628 0)
(0.0110918 -5.36091e-05 0)
(0.00910989 1.41184e-05 0)
(0.00738256 5.357e-05 0)
(0.00589945 7.26392e-05 0)
(0.00464556 7.78658e-05 0)
(0.00360239 7.43959e-05 0)
(0.00274895 6.60782e-05 0)
(0.00206282 5.56369e-05 0)
(0.00152111 4.48767e-05 0)
(0.00110139 3.48889e-05 0)
(0.000782437 2.62399e-05 0)
(0.000544822 1.91321e-05 0)
(0.0003713 1.35333e-05 0)
(0.000246969 9.27537e-06 0)
(0.000159224 6.12283e-06 0)
(9.75133e-05 3.81619e-06 0)
(5.28632e-05 2.09193e-06 0)
(1.7146e-05 6.8145e-07 0)
(0.0490429 -0.00310015 0)
(0.0477894 -0.00297766 0)
(0.045162 -0.00272514 0)
(0.0416736 -0.00237368 0)
(0.03781 -0.00197832 0)
(0.0338434 -0.00157919 0)
(0.0299342 -0.00120441 0)
(0.026185 -0.000872198 0)
(0.0226613 -0.000592288 0)
(0.0194038 -0.000367567 0)
(0.0164351 -0.000195856 0)
(0.0137654 -7.16293e-05 0)
(0.0113952 1.24714e-05 0)
(0.00931776 6.44074e-05 0)
(0.00752116 9.1892e-05 0)
(0.00598901 0.000101842 0)
(0.00470139 0.000100079 0)
(0.00363573 9.12252e-05 0)
(0.00276785 7.87496e-05 0)
(0.00207283 6.50975e-05 0)
(0.00152594 5.18657e-05 0)
(0.00110338 3.99872e-05 0)
(0.00078302 2.99052e-05 0)
(0.000544803 2.17238e-05 0)
(0.000371096 1.53315e-05 0)
(0.000246767 1.04951e-05 0)
(0.000159087 6.92528e-06 0)
(9.74421e-05 4.31716e-06 0)
(5.28362e-05 2.3679e-06 0)
(1.71408e-05 7.71955e-07 0)
(0.0516983 -0.00189799 0)
(0.0503429 -0.00188413 0)
(0.0475376 -0.00178141 0)
(0.0437984 -0.00158736 0)
(0.0396503 -0.00134031 0)
(0.0353933 -0.00107207 0)
(0.0312064 -0.000807711 0)
(0.0272033 -0.000565698 0)
(0.0234566 -0.000357725 0)
(0.0200095 -0.000189341 0)
(0.0168849 -6.1137e-05 0)
(0.0140906 2.98337e-05 0)
(0.0116238 8.86912e-05 0)
(0.00947381 0.000121558 0)
(0.00762424 0.000134681 0)
(0.0060546 0.000133827 0)
(0.0047413 0.000123936 0)
(0.00365872 0.000108963 0)
(0.00278017 9.18788e-05 0)
(0.00207878 7.47559e-05 0)
(0.00152834 5.89146e-05 0)
(0.001104 4.50812e-05 0)
(0.00078287 3.35428e-05 0)
(0.000544435 2.42852e-05 0)
(0.000370761 1.71053e-05 0)
(0.000246546 1.16983e-05 0)
(0.000158978 7.7179e-06 0)
(9.74098e-05 4.81313e-06 0)
(5.28393e-05 2.64176e-06 0)
(1.71468e-05 8.61913e-07 0)
(0.0528059 -0.000823355 0)
(0.0514847 -0.000886902 0)
(0.0486848 -0.000898756 0)
(0.0448916 -0.000832514 0)
(0.0406477 -0.000712404 0)
(0.0362693 -0.000561534 0)
(0.0319493 -0.000400373 0)
(0.0278132 -0.000245774 0)
(0.0239417 -0.000109752 0)
(0.0203835 7.50827e-07 0)
(0.0171642 8.32538e-05 0)
(0.0142923 0.000138687 0)
(0.0117644 0.000170248 0)
(0.00956796 0.000182357 0)
(0.00768448 0.000179819 0)
(0.00609103 0.000167221 0)
(0.00476174 0.000148562 0)
(0.00366899 0.000127063 0)
(0.00278439 0.000105129 0)
(0.00207972 8.44085e-05 0)
(0.00152776 6.59029e-05 0)
(0.00110292 5.01009e-05 0)
(0.000781831 3.71136e-05 0)
(0.000543653 2.6795e-05 0)
(0.000370274 1.88436e-05 0)
(0.000246308 1.28794e-05 0)
(0.00015891 8.49835e-06 0)
(9.743e-05 5.3032e-06 0)
(5.28824e-05 2.91326e-06 0)
(1.71675e-05 9.51279e-07 0)
(0.0525379 8.76294e-05 0)
(0.0513847 -4.65646e-05 0)
(0.0487455 -0.000144976 0)
(0.0450564 -0.000172857 0)
(0.0408684 -0.000149222 0)
(0.0365085 -9.1846e-05 0)
(0.0321804 -1.69062e-05 0)
(0.0280191 6.14171e-05 0)
(0.0241137 0.000132251 0)
(0.0205191 0.000188629 0)
(0.017265 0.000227271 0)
(0.0143628 0.000247885 0)
(0.0118101 0.000252281 0)
(0.00959467 0.000243505 0)
(0.00769762 0.000225105 0)
(0.00609519 0.000200583 0)
(0.00476054 0.00017303 0)
(0.00366508 0.000144938 0)
(0.00277956 0.000118137 0)
(0.00207508 9.38359e-05 0)
(0.00152388 7.27007e-05 0)
(0.0011 5.49717e-05 0)
(0.000779846 4.05757e-05 0)
(0.00054245 2.92308e-05 0)
(0.000369658 2.0535e-05 0)
(0.000246084 1.40333e-05 0)
(0.00015891 9.26451e-06 0)
(9.75254e-05 5.78677e-06 0)
(5.29799e-05 3.18233e-06 0)
(1.72082e-05 1.04008e-06 0)
(0.0512015 0.000702412 0)
(0.0503191 0.00055403 0)
(0.0479444 0.000421626 0)
(0.0444629 0.000344264 0)
(0.0404327 0.000309316 0)
(0.0361916 0.00030379 0)
(0.0319509 0.000315807 0)
(0.0278522 0.000334713 0)
(0.0239903 0.000352052 0)
(0.0204253 0.000362131 0)
(0.0171914 0.000362001 0)
(0.0143031 0.00035103 0)
(0.0117604 0.000330286 0)
(0.00955288 0.000301893 0)
(0.00766253 0.000268437 0)
(0.00606609 0.000232517 0)
(0.00473694 0.000196434 0)
(0.00364647 0.000162012 0)
(0.0027654 0.000130546 0)
(0.00206473 0.000102821 0)
(0.00151666 7.91798e-05 0)
(0.00109527 5.96202e-05 0)
(0.00077697 4.38888e-05 0)
(0.000540894 3.15716e-05 0)
(0.000368977 2.21694e-05 0)
(0.000245929 1.51556e-05 0)
(0.000159025 1.00149e-05 0)
(9.77288e-05 6.26366e-06 0)
(5.31522e-05 3.44916e-06 0)
(1.7276e-05 1.12843e-06 0)
(0.0493189 0.00102618 0)
(0.0486915 0.000906611 0)
(0.0465766 0.000783645 0)
(0.0433251 0.000698416 0)
(0.0394929 0.000642661 0)
(0.0354247 0.000606164 0)
(0.0313338 0.000580716 0)
(0.0273617 0.000559642 0)
(0.0236042 0.000537842 0)
(0.0201236 0.000511957 0)
(0.0169568 0.000480342 0)
(0.0141215 0.000442849 0)
(0.0116204 0.000400453 0)
(0.00944558 0.000354832 0)
(0.00758097 0.00030796 0)
(0.00600482 0.000261777 0)
(0.00469163 0.000217954 0)
(0.00361366 0.000177761 0)
(0.00274225 0.000142028 0)
(0.00204894 0.000111164 0)
(0.00150636 8.5223e-05 0)
(0.00108892 6.398e-05 0)
(0.000773378 4.70171e-05 0)
(0.000539129 3.37992e-05 0)
(0.000368345 2.37386e-05 0)
(0.000245932 1.62433e-05 0)
(0.000159318 1.07492e-05 0)
(9.80846e-05 6.73431e-06 0)
(5.34254e-05 3.71432e-06 0)
(1.73801e-05 1.21658e-06 0)
(0.0472098 0.00119305 0)
(0.0468915 0.0010581 0)
(0.0449271 0.000956468 0)
(0.0418402 0.000894687 0)
(0.0381915 0.000850252 0)
(0.0343141 0.000810971 0)
(0.0304082 0.000771451 0)
(0.026606 0.000729166 0)
(0.0229977 0.000682877 0)
(0.0196439 0.00063219 0)
(0.0165822 0.000577423 0)
(0.0138323 0.000519521 0)
(0.0113998 0.000459898 0)
(0.00927929 0.000400221 0)
(0.00745733 0.000342191 0)
(0.00591432 0.000287344 0)
(0.00462662 0.000236911 0)
(0.00356802 0.000191745 0)
(0.00271112 0.000152306 0)
(0.00202845 0.000118699 0)
(0.00149349 9.07327e-05 0)
(0.00108136 6.79967e-05 0)
(0.000769365 4.99322e-05 0)
(0.000537374 3.59004e-05 0)
(0.000367926 2.52374e-05 0)
(0.000246212 1.72953e-05 0)
(0.000159875 1.14679e-05 0)
(9.86485e-05 7.19994e-06 0)
(5.3832e-05 3.97878e-06 0)
(1.75319e-05 1.30494e-06 0)
(1.46799e-05 9.57376e-07 0)
(4.48138e-05 2.91972e-06 0)
(8.1994e-05 5.33427e-06 0)
(0.00013287 8.61778e-06 0)
(0.000204667 1.31984e-05 0)
(0.000305918 1.954e-05 0)
(0.000446905 2.81337e-05 0)
(0.000639971 3.94622e-05 0)
(0.000899732 5.3933e-05 0)
(0.00124316 7.17768e-05 0)
(0.00168955 9.29129e-05 0)
(0.00226041 0.000116785 0)
(0.00297914 0.000142179 0)
(0.0038707 0.000167051 0)
(0.00496104 0.000188383 0)
(0.00627647 0.000202122 0)
(0.00784285 0.000203225 0)
(0.00968452 0.000185878 0)
(0.011823 0.000143894 0)
(0.0142748 7.13367e-05 0)
(0.0170484 -3.66401e-05 0)
(0.0201409 -0.000182807 0)
(0.0235332 -0.000366812 0)
(0.0271824 -0.000584153 0)
(0.0310115 -0.000825188 0)
(0.0349047 -0.0010746 0)
(0.0386971 -0.00131079 0)
(0.0421444 -0.00150528 0)
(0.0449055 -0.00162809 0)
(0.0461668 -0.00164831 0)
(1.47183e-05 9.9233e-07 0)
(4.48676e-05 3.0198e-06 0)
(8.19135e-05 5.49697e-06 0)
(0.000132395 8.84001e-06 0)
(0.000203382 1.34705e-05 0)
(0.000303184 1.98384e-05 0)
(0.000441781 2.84115e-05 0)
(0.000631118 3.96381e-05 0)
(0.000885285 5.38773e-05 0)
(0.00122059 7.1298e-05 0)
(0.00165549 9.17442e-05 0)
(0.00221043 0.000114574 0)
(0.00290752 0.000138486 0)
(0.00377009 0.000161359 0)
(0.00482207 0.000180127 0)
(0.0060873 0.000190747 0)
(0.00758855 0.00018829 0)
(0.00934655 0.0001672 0)
(0.0113785 0.00012176 0)
(0.0136967 4.67822e-05 0)
(0.0163035 -6.14516e-05 0)
(0.0191907 -0.000204138 0)
(0.0223359 -0.000378929 0)
(0.0256979 -0.000579034 0)
(0.0291999 -0.000792038 0)
(0.0327406 -0.00100013 0)
(0.0361998 -0.00118048 0)
(0.0394091 -0.0013036 0)
(0.0421327 -0.00133656 0)
(0.0439348 -0.0012445 0)
(1.47383e-05 1.02331e-06 0)
(4.48615e-05 3.10736e-06 0)
(8.17031e-05 5.63533e-06 0)
(0.000131665 9.02006e-06 0)
(0.000201622 1.3674e-05 0)
(0.000299616 2.00307e-05 0)
(0.000435256 2.85335e-05 0)
(0.000619991 3.95963e-05 0)
(0.000867264 5.35352e-05 0)
(0.00119255 7.04688e-05 0)
(0.00161327 9.01886e-05 0)
(0.00214858 0.000112007 0)
(0.00281896 0.000134598 0)
(0.00364577 0.000155852 0)
(0.00465056 0.000172785 0)
(0.00585422 0.000181534 0)
(0.00727606 0.000177486 0)
(0.00893264 0.000155584 0)
(0.0108366 0.000110832 0)
(0.0129967 3.89676e-05 0)
(0.0154083 -6.24991e-05 0)
(0.0180572 -0.000193235 0)
(0.0209157 -0.00034922 0)
(0.0239469 -0.000522461 0)
(0.0270797 -0.000699473 0)
(0.0302084 -0.000861652 0)
(0.0332123 -0.000987219 0)
(0.0359483 -0.001051 0)
(0.0382413 -0.00102102 0)
(0.0397362 -0.000849112 0)
(1.47218e-05 1.04923e-06 0)
(4.47412e-05 3.17931e-06 0)
(8.12675e-05 5.7442e-06 0)
(0.000130533 9.15071e-06 0)
(0.00019918 1.37997e-05 0)
(0.000294929 2.01065e-05 0)
(0.000426948 2.84888e-05 0)
(0.000606103 3.93282e-05 0)
(0.000845074 5.29033e-05 0)
(0.00115836 6.92952e-05 0)
(0.00156216 8.82665e-05 0)
(0.00207411 0.000109122 0)
(0.00271287 0.000130567 0)
(0.00349755 0.000150588 0)
(0.00444703 0.000166388 0)
(0.00557905 0.000174416 0)
(0.00690917 0.000170529 0)
(0.00844947 0.000150327 0)
(0.0102066 0.000109698 0)
(0.0121871 4.53029e-05 0)
(0.0143838 -4.4252e-05 0)
(0.0167734 -0.000157371 0)
(0.0193272 -0.000289156 0)
(0.0219998 -0.000430651 0)
(0.0247277 -0.000568849 0)
(0.0274167 -0.000686837 0)
(0.0299496 -0.00076533 0)
(0.0321821 -0.00078289 0)
(0.0339352 -0.000713859 0)
(0.034911 -0.000526544 0)
(1.46495e-05 1.06899e-06 0)
(4.44503e-05 3.23249e-06 0)
(8.05077e-05 5.81833e-06 0)
(0.000128848 9.22456e-06 0)
(0.00019584 1.3838e-05 0)
(0.000288827 2.00542e-05 0)
(0.000416471 2.8265e-05 0)
(0.000588964 3.88211e-05 0)
(0.000818115 5.19701e-05 0)
(0.00111732 6.77686e-05 0)
(0.00150141 8.59715e-05 0)
(0.00198633 0.00010591 0)
(0.00258874 0.000126371 0)
(0.00332534 0.000145502 0)
(0.00421222 0.000160776 0)
(0.00526391 0.000169045 0)
(0.00649234 0.000166725 0)
(0.00790575 0.000150131 0)
(0.00950742 0.000115977 0)
(0.0112951 6.1997e-05 0)
(0.0132591 -1.22345e-05 0)
(0.0153763 -0.000104547 0)
(0.0176136 -0.000209659 0)
(0.0199245 -0.000318873 0)
(0.0222458 -0.000420254 0)
(0.0244925 -0.000499213 0)
(0.0265571 -0.000539693 0)
(0.0283055 -0.000524927 0)
(0.0295738 -0.000437624 0)
(0.0301488 -0.000262791 0)
(1.45103e-05 1.08185e-06 0)
(4.39529e-05 3.26464e-06 0)
(7.9363e-05 5.85407e-06 0)
(0.000126525 9.23683e-06 0)
(0.000191491 1.37837e-05 0)
(0.00028118 1.98688e-05 0)
(0.000403685 2.78578e-05 0)
(0.00056845 3.80733e-05 0)
(0.000786326 5.07375e-05 0)
(0.00106951 6.5893e-05 0)
(0.00143134 8.33061e-05 0)
(0.00188598 0.000102361 0)
(0.00244796 0.000121964 0)
(0.00313153 0.000140469 0)
(0.00394996 0.000155671 0)
(0.00491462 0.000164877 0)
(0.00603405 0.0001651 0)
(0.00731285 0.000153376 0)
(0.00875067 0.000127225 0)
(0.0103411 8.52129e-05 0)
(0.0120701 2.75731e-05 0)
(0.0139136 -4.31918e-05 0)
(0.0158373 -0.000121952 0)
(0.0177948 -0.000200852 0)
(0.0197258 -0.000269622 0)
(0.0215539 -0.000316302 0)
(0.023185 -0.000328329 0)
(0.0245058 -0.000293681 0)
(0.025387 -0.000202233 0)
(0.0256907 -4.89191e-05 0)
(1.42865e-05 1.08649e-06 0)
(4.32001e-05 3.27211e-06 0)
(7.77544e-05 5.84572e-06 0)
(0.000123455 9.18004e-06 0)
(0.000185998 1.36278e-05 0)
(0.000271835 1.95408e-05 0)
(0.000388441 2.72588e-05 0)
(0.000544457 3.70785e-05 0)
(0.000749713 4.92021e-05 0)