/*--------------------------------*- C++ -*----------------------------------*\
| =========                 |                                                 |
| \\      /  F ield         | OpenFOAM: The Open Source CFD Toolbox           |
|  \\    /   O peration     | Version:  2006                                  |
|   \\  /    A nd           | Website:  www.openfoam.com                      |
|    \\/     M anipulation  |                                                 |
\*---------------------------------------------------------------------------*/
FoamFile
{
    version     2.0;
    format      ascii;
    class       volVectorField;
    location    "0.3";
    object      Stress;
}
// * * * * * * * * * * * * * * * * * * * * * * * * * * * * * * * * * * * * * //

dimensions      [1 -1 -2 0 0 0 0];


internalField   uniform (0 0 0);

boundaryField
{
    inlet
    {
        type            calculated;
        value           uniform (0 0 0);
    }
    outlet
    {
        type            calculated;
        value           uniform (0 0 0);
    }
    flap
    {
        type            calculated;
        value           nonuniform List<vector> 
33
(
(110.33 -3.79389 -6.70211e-13)
(110.355 -7.43378 -8.19165e-13)
(109.995 -9.95546 1.40155e-13)
(109.19 -11.2662 8.40446e-13)
(107.863 -11.9672 5.45841e-13)
(106.153 -11.9542 2.01179e-13)
(104.324 -10.821 2.26704e-13)
(102.404 -8.26388 1.16138e-13)
(99.8939 -5.14497 2.99197e-13)
(96.2174 -2.53579 2.10361e-13)
(91.0872 -0.331585 -1.01032e-14)
(83.8601 1.39534 -4.54215e-14)
(73.0844 2.20061 -3.1639e-14)
(55.7831 2.02026 2.6203e-13)
(23.9244 1.16606 2.59684e-13)
(-4.59487 148.306 7.96542e-17)
(-4.08262 129.392 8.0207e-17)
(-3.53665 104.804 -1.01128e-19)
(76.163 -2.87167 -2.07132e-14)
(75.8661 -5.34 -7.02903e-14)
(75.9334 -7.01784 -1.38382e-13)
(76.5499 -8.0187 -7.0842e-13)
(77.8741 -8.61698 -6.22273e-13)
(80.0575 -8.91287 2.37184e-14)
(83.2999 -8.37808 2.25108e-13)
(87.3712 -6.75079 1.74788e-13)
(91.3712 -4.48621 -1.91098e-13)
(94.3563 -2.37915 -1.63633e-13)
(96.0447 -0.334136 8.70728e-14)
(96.2565 1.48364 5.2937e-14)
(94.9528 2.68037 -3.3102e-13)
(92.4338 2.92955 -7.37017e-13)
(89.1445 3.08797 -4.38523e-13)
)
;
    }
    upperWall
    {
        type            calculated;
        value           uniform (0 0 0);
    }
    lowerWall
    {
        type            calculated;
        value           uniform (0 0 0);
    }
    frontAndBack
    {
        type            empty;
    }
}


// ************************************************************************* //
