/*--------------------------------*- C++ -*----------------------------------*\
| =========                 |                                                 |
| \\      /  F ield         | OpenFOAM: The Open Source CFD Toolbox           |
|  \\    /   O peration     | Version:  2006                                  |
|   \\  /    A nd           | Website:  www.openfoam.com                      |
|    \\/     M anipulation  |                                                 |
\*---------------------------------------------------------------------------*/
FoamFile
{
    version     2.0;
    format      ascii;
    class       volVectorField;
    location    "0.3";
    object      U;
}
// * * * * * * * * * * * * * * * * * * * * * * * * * * * * * * * * * * * * * //

dimensions      [0 1 -1 0 0 0 0];


internalField   nonuniform List<vector> 
2790
(
(9.94469 0.0199837 -1.17558e-22)
(9.87963 0.0284806 0)
(9.7846 0.0343004 -2.4399e-22)
(9.66637 0.040261 2.50305e-22)
(9.53056 0.0464431 0)
(9.37811 0.0527814 0)
(9.20824 0.0593903 1.102e-21)
(9.02014 0.0664133 0)
(8.81307 0.0739654 0)
(8.58619 0.0821414 0)
(8.33847 0.0910271 0)
(8.06876 0.1007 0)
(7.77585 0.111227 -2.33711e-20)
(7.45854 0.122654 -6.10246e-22)
(7.11573 0.135001 -6.64133e-22)
(6.74651 0.148252 -5.20996e-22)
(6.35034 0.162338 4.36074e-20)
(5.92718 0.17712 0)
(5.47773 0.192367 0)
(5.00362 0.207739 0)
(4.50766 0.222769 0)
(3.99401 0.236839 -2.53553e-19)
(3.46832 0.249177 3.62115e-19)
(2.93776 0.25887 -5.96862e-19)
(2.41089 0.264919 4.27443e-19)
(1.89734 0.266324 -4.69441e-19)
(1.40714 0.262277 -5.11159e-19)
(0.953967 0.251043 5.54757e-19)
(0.507002 0.238877 0)
(0.257512 0.217643 -6.41423e-19)
(9.99922 0.0390368 -5.8527e-22)
(9.9854 0.0590452 4.74758e-22)
(9.94521 0.0741117 2.41738e-22)
(9.88121 0.0898539 -2.47166e-22)
(9.79762 0.106519 0)
(9.69542 0.12392 0)
(9.57403 0.142279 -5.41751e-21)
(9.43267 0.161917 4.41967e-21)
(9.27061 0.183101 0)
(9.08696 0.206058 0)
(8.88065 0.230996 5.00696e-21)
(8.65043 0.258101 0)
(8.39496 0.287524 1.1131e-20)
(8.11282 0.319366 -1.14158e-20)
(7.80263 0.353648 0)
(7.46312 0.390288 -1.27977e-20)
(7.09324 0.429064 -2.72881e-20)
(6.69233 0.469558 -9.18524e-22)
(6.26033 0.511116 2.47626e-19)
(5.7979 0.552809 -1.30332e-19)
(5.3067 0.593398 0)
(4.78951 0.631301 5.39556e-19)
(4.25037 0.66459 -8.13765e-19)
(3.69454 0.691068 5.31909e-19)
(3.1283 0.708426 3.84544e-19)
(2.5585 0.714514 8.37812e-19)
(1.99117 0.707784 4.57083e-19)
(1.43526 0.687104 -4.50386e-18)
(0.85715 0.659754 4.33946e-18)
(0.419455 0.611828 -5.96177e-19)
(9.99629 0.0403946 2.33983e-22)
(9.9794 0.0696891 0)
(9.94099 0.0949623 4.80954e-22)
(9.88139 0.121093 9.88461e-22)
(9.80347 0.148734 -2.00935e-21)
(9.70832 0.17782 2.08576e-21)
(9.59564 0.208649 -4.24955e-21)
(9.46483 0.241675 -2.22386e-21)
(9.31525 0.277325 6.819e-21)
(9.14614 0.315985 0)
(8.95655 0.358019 -6.18308e-21)
(8.74532 0.403772 1.27126e-21)
(8.51114 0.453542 0)
(8.25257 0.507558 0)
(7.96809 0.56594 0)
(7.65619 0.628654 -2.5475e-20)
(7.31541 0.695457 5.17937e-20)
(6.94447 0.765817 -5.56047e-20)
(6.54245 0.838833 5.81895e-20)
(6.10891 0.913189 1.24482e-19)
(5.64407 0.987094 0)
(5.14899 1.05821 -1.40869e-19)
(4.6257 1.12368 3.04253e-19)
(4.07718 1.18021 -2.65552e-18)
(3.50722 1.22437 3.16853e-18)
(2.92012 1.25305 2.71254e-18)
(2.31944 1.26433 -3.33022e-18)
(1.71297 1.25778 -7.33556e-18)
(1.06923 1.24305 7.96307e-18)
(0.528126 1.20734 1.10181e-18)
(9.99471 0.0456014 -4.6487e-22)
(9.97558 0.0854827 0)
(9.93689 0.121996 1.13647e-24)
(9.87842 0.158665 4.95639e-22)
(9.80209 0.196732 6.08485e-24)
(9.70893 0.236541 4.12179e-21)
(9.59885 0.278561 2.14965e-21)
(9.47143 0.323396 2.18953e-21)
(9.32614 0.371644 -6.79855e-21)
(9.1624 0.423869 1.16453e-20)
(8.97942 0.480615 -9.9926e-21)
(8.77626 0.542406 -1.98408e-20)
(8.55181 0.609724 1.06667e-20)
(8.30482 0.682981 -1.08821e-20)
(8.03394 0.762472 0)
(7.73771 0.848325 9.79643e-20)
(7.41464 0.940424 -2.03315e-19)
(7.06327 1.03831 4.29019e-19)
(6.68225 1.14108 -3.36476e-19)
(6.27038 1.24732 -1.19971e-19)
(5.82687 1.35499 -2.52053e-19)
(5.3514 1.46135 2.70705e-19)
(4.84424 1.56295 -2.83134e-21)
(4.30644 1.65573 -2.79528e-18)
(3.73959 1.7353 1.96074e-18)
(3.14617 1.79753 0)
(2.52848 1.8396 -6.22724e-18)
(1.89544 1.86044 1.2643e-17)
(1.22058 1.86951 -7.33903e-18)
(0.615894 1.85581 -5.04109e-19)
(9.99397 0.0522475 4.64627e-22)
(9.97362 0.101121 4.70475e-22)
(9.93473 0.147368 -4.75915e-22)
(9.87724 0.193579 0)
(9.80253 0.241331 1.00008e-21)
(9.71139 0.291322 -7.12404e-21)
(9.60381 0.344161 2.0688e-21)
(9.47942 0.400539 -2.18396e-21)
(9.33777 0.461164 0)
(9.17833 0.526723 -9.24627e-21)
(9.0004 0.597885 9.58717e-21)
(8.80314 0.675303 1.99187e-20)
(8.58557 0.759601 2.05784e-20)
(8.34659 0.85134 0)
(8.08496 0.950974 -9.02689e-20)
(7.79932 1.0588 1.41674e-19)
(7.48823 1.17486 -1.46264e-19)
(7.15021 1.29889 -1.03847e-19)
(6.78367 1.43012 1.07962e-19)
(6.38695 1.56723 4.63386e-19)
(5.95859 1.70822 -2.3469e-19)
(5.49727 1.85026 0)
(5.00196 1.98962 -2.73201e-19)
(4.47209 2.1217 0)
(3.90767 2.24121 0)
(3.31006 2.3427 0)
(2.68117 2.4216 0)
(2.0323 2.47459 1.55771e-18)
(1.34569 2.5079 -8.43598e-19)
(0.696943 2.51328 -1.40181e-17)
(9.99366 0.0595317 0)
(9.9728 0.116807 9.31827e-22)
(9.93411 0.17231 4.75723e-22)
(9.87785 0.227983 4.89e-22)
(9.8051 0.285407 -6.13233e-24)
(9.71643 0.345492 5.05399e-21)
(9.61182 0.408965 -2.11143e-21)
(9.49096 0.476605 -6.38909e-21)
(9.35344 0.549224 -9.87679e-21)
(9.19875 0.627627 1.12568e-21)
(9.02624 0.712612 0)
(8.83514 0.804968 9.851e-21)
(8.6245 0.905462 -9.85703e-21)
(8.39329 1.01481 -2.07996e-20)
(8.14031 1.13363 4.40011e-20)
(7.86423 1.26239 -1.37819e-19)
(7.5636 1.40137 1.42153e-19)
(7.23686 1.5505 -9.89875e-20)
(6.88221 1.70929 -5.27763e-19)
(6.49763 1.87664 4.32994e-19)
(6.08112 2.05077 0)
(5.63055 2.22898 9.80882e-19)
(5.1438 2.40748 -3.0858e-18)
(4.61894 2.58127 1.61441e-18)
(4.05475 2.74411 5.72795e-19)
(3.45177 2.88879 -4.98149e-18)
(2.81168 3.00783 5.28786e-18)
(2.14816 3.09371 -1.21919e-20)
(1.45561 3.14535 4.01965e-19)
(0.77222 3.15006 -1.38088e-17)
(9.99358 0.0670602 -9.1594e-22)
(9.97271 0.132428 -9.30613e-22)
(9.93462 0.196709 0)
(9.87987 0.261469 9.62696e-22)
(9.8094 0.328204 -2.93406e-21)
(9.72362 0.39797 -2.98165e-21)
(9.62249 0.471634 -1.12851e-20)
(9.50574 0.550079 1.89395e-20)
(9.37301 0.63422 8.70141e-21)
(9.22381 0.724978 -1.80894e-20)
(9.05753 0.82327 2.61769e-21)
(8.87342 0.930014 -2.36428e-21)
(8.67058 1.04611 0)
(8.44798 1.17243 0)
(8.20442 1.30975 -4.23178e-20)
(7.93857 1.45876 1.78093e-19)
(7.64887 1.61992 -2.77562e-19)
(7.33364 1.79348 1.91276e-19)
(6.99084 1.97927 -4.05216e-19)
(6.61811 2.17655 5.17339e-19)
(6.21286 2.3839 2.16694e-19)
(5.77217 2.59894 -2.27053e-19)
(5.29288 2.81806 0)
(4.77174 3.03596 5.13562e-19)
(4.20617 3.24547 -3.24677e-18)
(3.59549 3.43729 2.27459e-18)
(2.94054 3.59992 4.93609e-18)
(2.25559 3.71973 -5.94707e-18)
(1.54693 3.78466 7.60221e-21)
(0.834227 3.7626 -2.05251e-19)
(9.99364 0.0746033 8.01135e-22)
(9.97311 0.147803 -8.04454e-22)
(9.93598 0.220417 0)
(9.88304 0.293845 0)
(9.81517 0.36951 0)
(9.73268 0.448565 3.97062e-21)
(9.63552 0.532002 1.21403e-20)
(9.52347 0.620803 -6.24832e-21)
(9.39618 0.715982 3.43727e-23)
(9.25322 0.818563 -2.02192e-21)
(9.09401 0.929583 -1.14348e-21)
(8.91783 1.05008 1.15782e-21)
(8.72383 1.18111 -1.92003e-20)
(8.51097 1.32368 0)
(8.27807 1.47877 -1.87691e-22)
(8.02374 1.64726 -7.58778e-22)
(7.74635 1.8299 4.40622e-20)
(7.44404 2.02726 9.30231e-20)
(7.11452 2.23956 -9.48682e-20)
(6.75506 2.46654 -1.00613e-19)
(6.36249 2.70729 -2.09642e-19)
(5.93303 2.95997 1.11912e-19)
(5.46239 3.22136 0)
(4.94578 3.48618 0)
(4.37874 3.74654 5.0508e-19)
(3.75831 3.99098 0)
(3.08318 4.2035 -4.52765e-18)
(2.36505 4.36308 9.70063e-18)
(1.61593 4.44557 -1.0437e-17)
(0.873886 4.38219 5.73928e-18)
(9.9938 0.0820154 0)
(9.97387 0.16277 9.18466e-22)
(9.93801 0.243298 0)
(9.88716 0.324961 0)
(9.8222 0.409139 -4.78609e-21)
(9.74339 0.497048 -9.95143e-22)
(9.65067 0.589787 -6.04352e-21)
(9.54384 0.688433 -8.15911e-21)
(9.42262 0.794091 0)
(9.28661 0.907888 2.35097e-21)
(9.13529 1.03097 -2.20176e-21)
(8.96798 1.16451 2.04821e-20)
(8.78386 1.3097 4.48657e-20)
(8.58195 1.4677 1.00106e-20)
(8.36108 1.63971 -6.04037e-20)
(8.11983 1.82683 4.10188e-20)
(7.85652 2.03012 -8.5575e-20)
(7.56913 2.25049 -1.78829e-19)
(7.25515 2.48867 3.18919e-19)
(6.91154 2.74498 0)
(6.53452 3.01919 0)
(6.11946 3.31025 8.23537e-19)
(5.66078 3.61568 1.44418e-20)
(5.15188 3.93074 7.92137e-19)
(4.58558 4.2474 -1.82407e-18)
(3.95539 4.55263 -1.94392e-18)
(3.25589 4.82631 2.03546e-18)
(2.49342 5.03966 0)
(1.67603 5.15762 1.52894e-19)
(0.895147 5.06761 -4.2705e-20)
(9.99403 0.0891967 -7.84833e-22)
(9.97489 0.177195 -1.13494e-22)
(9.94056 0.265222 0)
(9.89208 0.354669 0)
(9.83033 0.446903 4.76272e-21)
(9.75556 0.543189 -4.81353e-21)
(9.66769 0.644711 7.86078e-21)
(9.56659 0.752636 1.61454e-20)
(9.45202 0.868156 0)
(9.32362 0.992493 2.32396e-21)
(9.18095 1.1269 -4.35105e-21)
(9.02339 1.27268 -1.5768e-20)
(8.85019 1.43114 -2.31298e-20)
(8.66042 1.60364 4.68021e-21)
(8.45297 1.79155 1.96208e-20)
(8.22644 1.99626 6.01751e-20)
(7.97914 2.21912 7.86926e-22)
(7.70899 2.46148 0)
(7.41335 2.72459 -4.41189e-20)
(7.0889 3.00947 -4.42598e-20)
(6.7314 3.3168 3.7276e-19)
(6.33542 3.64658 -2.81098e-19)
(5.89407 3.99758 0)
(5.39866 4.36638 9.19292e-19)
(4.83868 4.74591 -8.35015e-19)
(4.20272 5.12301 -4.17249e-22)
(3.47884 5.47498 1.85246e-18)
(2.66576 5.7657 -1.95932e-18)
(1.75717 5.9489 0)
(0.914235 5.8636 7.37234e-20)
(9.99431 0.0960747 1.1834e-22)
(9.97611 0.190966 -1.1256e-22)
(9.94354 0.286068 0)
(9.89768 0.38283 0)
(9.83942 0.482632 -9.4264e-22)
(9.769 0.586778 6.70643e-21)
(9.68638 0.696524 -9.75933e-21)
(9.59146 0.813117 -5.98811e-21)
(9.48405 0.937828 -6.00512e-21)
(9.36388 1.07197 8.40761e-21)
(9.23057 1.21689 4.2253e-21)
(9.08357 1.37399 0)
(8.92225 1.54474 1.77404e-20)
(8.74575 1.73065 0)
(8.55306 1.93329 0)
(8.34287 2.1543 -3.89475e-20)
(8.11358 2.39538 -1.95338e-20)
(7.86312 2.65832 0)
(7.58886 2.94495 0)
(7.28738 3.25709 2.14119e-19)
(6.95417 3.59647 2.40033e-21)
(6.58322 3.96452 -1.65552e-19)
(6.16654 4.36183 0)
(5.69343 4.78729 3.2788e-19)
(5.14976 5.23644 -7.61962e-19)
(4.51804 5.69848 4.86957e-19)
(3.7769 6.15132 0)
(2.91343 6.55359 1.04066e-19)
(1.89249 6.84562 0)
(0.949093 6.80718 -6.83258e-20)
(9.99463 0.102594 8.89948e-22)
(9.97749 0.203991 0)
(9.94687 0.305726 0)
(9.90384 0.409318 4.58611e-22)
(9.84932 0.516172 3.23011e-21)
(9.78355 0.627628 0)
(9.70652 0.745003 0)
(9.61818 0.869609 -7.77813e-21)
(9.5184 1.00279 8.02732e-21)
(9.407 1.14593 -1.61902e-20)
(9.28367 1.30047 -8.38847e-21)
(9.14799 1.46792 8.45026e-21)
(8.9994 1.64986 -1.75454e-20)
(8.83722 1.84794 8.96437e-21)
(8.66054 2.06394 -9.0217e-21)
(8.46824 2.29975 4.67815e-21)
(8.25886 2.55738 -4.23803e-21)
(8.03052 2.83905 -9.5314e-21)
(7.78074 3.14721 -1.98172e-20)
(7.50625 3.48453 2.20247e-22)
(7.20257 3.85393 0)
(6.86357 4.25852 -5.19466e-20)
(6.48068 4.7013 -3.99123e-20)
(6.0418 5.18458 4.33597e-20)
(5.52969 5.70854 8.28579e-20)
(4.9205 6.26834 -8.97539e-20)
(4.1806 6.84818 8.89242e-20)
(3.27886 7.40846 -1.88976e-19)
(2.12935 7.87888 -3.06937e-19)
(1.02917 7.96823 4.447e-19)
(9.99497 0.108712 0)
(9.979 0.216194 0)
(9.95048 0.324102 -2.23928e-22)
(9.91048 0.434021 -2.28068e-22)
(9.85991 0.547387 -3.22476e-21)
(9.79904 0.665576 -3.70004e-21)
(9.7279 0.789949 1.90022e-21)
(9.64648 0.921877 5.82412e-21)
(9.55475 1.06276 0)
(9.45258 1.21405 8.25766e-21)
(9.33978 1.37726 -8.08848e-21)
(9.21604 1.55398 -1.64568e-20)
(9.08096 1.7459 0)
(8.934 1.9548 0)
(8.77446 2.18262 0)
(8.60142 2.43145 0)
(8.4137 2.70363 4.59853e-20)
(8.20973 3.00176 -2.73057e-20)
(7.98738 3.32885 -1.83618e-20)
(7.7438 3.6884 9.49647e-20)
(7.475 4.08455 -7.58479e-20)
(7.17532 4.52222 7.65436e-20)
(6.83656 5.00718 2.00627e-21)
(6.44653 5.54604 0)
(5.98671 6.14572 -3.81778e-19)
(5.42875 6.81165 4.49358e-19)
(4.72661 7.54314 0)
(3.82451 8.31882 7.44875e-19)
(2.55491 9.08035 -1.35634e-18)
(1.21922 9.47061 7.0002e-19)
(9.99534 0.114395 1.7339e-21)
(9.98061 0.227516 1.09721e-22)
(9.95432 0.341115 1.11206e-22)
(9.91751 0.456841 3.33335e-21)
(9.87108 0.576164 9.07942e-22)
(9.81532 0.700484 2.77373e-21)
(9.75031 0.831203 0)
(9.67611 0.969734 3.80148e-21)
(9.59274 1.11752 -7.69034e-21)
(9.50019 1.27607 1.96384e-20)
(9.39837 1.44695 7.99985e-21)
(9.28711 1.63181 8.27361e-21)
(9.16616 1.83241 1.65425e-20)
(9.03518 2.05066 -1.66096e-20)
(8.89371 2.2886 -3.40994e-20)
(8.7411 2.54849 -3.58227e-22)
(8.57653 2.83291 4.34291e-20)
(8.39885 3.14478 8.64074e-21)
(8.20651 3.48759 -5.29326e-20)
(7.99737 3.86552 1.05666e-19)
(7.76837 4.28379 0)
(7.51509 4.74899 0)
(7.23093 5.26961 0)
(6.90572 5.8568 2.72511e-19)
(6.52308 6.52531 -8.0017e-19)
(6.05589 7.29441 3.90786e-19)
(5.45326 8.18859 4.82121e-19)
(4.63949 9.23232 -6.16294e-19)
(3.33101 10.4491 0)
(1.66568 11.5568 -9.40684e-19)
(9.99573 0.119617 -1.621e-23)
(9.98229 0.237906 -1.67225e-21)
(9.95833 0.356698 -5.45684e-23)
(9.92485 0.477693 -3.10647e-21)
(9.8827 0.602389 -1.34107e-21)
(9.83222 0.73221 4.49585e-21)
(9.77355 0.868583 -9.12361e-21)
(9.70678 1.01295 1.85042e-21)
(9.63205 1.1668 0)
(9.54942 1.33166 0)
(9.45893 1.50913 -1.56144e-20)
(9.36055 1.70091 3.12893e-20)
(9.25422 1.90883 1.5811e-20)
(9.1398 2.13482 0)
(9.01709 2.38103 0)
(8.8858 2.64982 0)
(8.7455 2.9439 -4.09817e-21)
(8.59561 3.26642 -8.49875e-21)
(8.43528 3.62117 -1.33973e-19)
(8.26334 4.01281 9.94476e-20)
(8.07808 4.44727 6.46537e-20)
(7.87703 4.93233 -6.34788e-20)
(7.65647 5.47853 -1.23468e-19)
(7.41063 6.10059 -4.83846e-19)
(7.13004 6.81993 4.78495e-19)
(6.79878 7.66905 0)
(6.38281 8.70066 0)
(5.83314 10.007 0)
(4.79783 11.8182 0)
(2.75702 14.8727 2.64309e-20)
(-0.162092 0.262379 3.97778e-18)
(-0.729009 0.380849 3.97308e-19)
(-1.47006 0.450358 -3.59217e-19)
(-2.34416 0.485459 6.74186e-19)
(-3.28937 0.49776 -2.83562e-19)
(-4.27622 0.492791 -8.74672e-19)
(-5.27822 0.474582 2.96147e-19)
(-6.27204 0.445507 -2.73468e-19)
(-7.23493 0.406988 -1.40314e-19)
(-8.14338 0.35995 -1.69521e-21)
(-8.97242 0.305108 -3.7952e-20)
(-9.69547 0.243117 3.41313e-20)
(-10.2847 0.174795 0)
(-10.7121 0.101036 8.59696e-21)
(-10.951 0.0227438 8.20309e-21)
(-10.9787 -0.0594088 -1.64728e-20)
(-10.7779 -0.144421 0)
(-10.3426 -0.22697 1.51853e-20)
(-9.68057 -0.302032 -1.3634e-20)
(-8.81204 -0.365775 3.57859e-22)
(-7.76739 -0.415584 0)
(-6.58426 -0.450062 0)
(-5.30462 -0.46883 -2.41697e-21)
(-3.97045 -0.47218 3.33685e-21)
(-2.61904 -0.461212 2.32624e-22)
(-1.25936 -0.439953 0)
(0.10674 -0.405479 8.72362e-23)
(1.33107 -0.369115 -8.35476e-23)
(2.53756 -0.342085 -6.39388e-24)
(4.03476 -0.357933 0)
(-0.268864 0.708737 6.54014e-18)
(-0.925838 0.923925 -6.05344e-18)
(-1.72429 1.06855 2.93254e-18)
(-2.61672 1.16715 -1.74646e-18)
(-3.5634 1.22644 2.80236e-19)
(-4.54353 1.2505 -2.74565e-19)
(-5.53434 1.24249 -2.66474e-19)
(-6.51417 1.2042 -5.41754e-19)
(-7.46086 1.13645 3.62606e-19)
(-8.35092 1.03968 3.13948e-19)
(-9.15905 0.91436 2.03838e-19)
(-9.85806 0.761418 -2.0076e-19)
(-10.4195 0.582751 -6.8859e-20)
(-10.8148 0.381578 6.7844e-20)
(-11.0168 0.162601 -3.43391e-20)
(-11.0023 -0.0681973 0)
(-10.7621 -0.301135 7.70444e-21)
(-10.2931 -0.521735 -1.73576e-21)
(-9.60367 -0.718396 0)
(-8.71417 -0.882539 1.05452e-21)
(-7.65428 -1.00883 -1.19673e-21)
(-6.4605 -1.09525 -9.95675e-22)
(-5.17331 -1.14259 -3.88618e-22)
(-3.83328 -1.15402 1.03469e-22)
(-2.47633 -1.13506 -1.35667e-22)
(-1.09791 -1.09475 -1.28744e-21)
(0.258813 -1.02691 1.41348e-22)
(1.49036 -0.952685 -1.13755e-23)
(2.69185 -0.899704 3.47517e-24)
(4.16838 -0.920645 0)
(-0.281882 1.36321 -3.72093e-19)
(-0.96855 1.64496 5.94844e-18)
(-1.79998 1.83915 -1.01088e-17)
(-2.68985 1.97581 6.05123e-18)
(-3.61686 2.05612 -2.05871e-18)
(-4.56733 2.08268 5.06544e-19)
(-5.52336 2.05817 1.29063e-18)
(-6.46656 1.9842 6.51536e-20)
(-7.37694 1.86161 -1.2394e-18)
(-8.2325 1.6909 6.621e-19)
(-9.00867 1.47281 -5.14458e-19)
(-9.67841 1.209 2.04044e-19)
(-10.213 0.902967 -1.38823e-19)
(-10.583 0.560764 1.38229e-19)
(-10.7602 0.19172 7.02642e-20)
(-10.7214 -0.191842 1.69947e-20)
(-10.4604 -0.574856 -7.65344e-21)
(-9.97404 -0.93552 0)
(-9.27286 -1.255 0)
(-8.37871 -1.51919 -1.3501e-21)
(-7.3219 -1.71945 3.51676e-21)
(-6.13881 -1.85274 9.48071e-22)
(-4.86912 -1.92109 0)
(-3.55273 -1.93117 5.80219e-22)
(-2.22505 -1.8944 -4.21873e-22)
(-0.869383 -1.81941 3.33984e-22)
(0.420462 -1.70696 2.7667e-23)
(1.62852 -1.58978 2.83468e-23)
(2.78401 -1.50393 -7.9153e-25)
(4.20895 -1.5006 7.37587e-25)
(-0.238279 2.1024 3.47184e-19)
(-0.918582 2.42085 -6.05706e-19)
(-1.76569 2.63573 5.54194e-19)
(-2.63822 2.78751 -5.32605e-19)
(-3.53374 2.87351 0)
(-4.44468 2.89439 -2.54092e-18)
(-5.35837 2.85114 1.41068e-18)
(-6.2602 2.74402 0)
(-7.13248 2.57263 0)
(-7.95446 2.33645 -5.33407e-19)
(-8.70179 2.0353 2.46621e-19)
(-9.34664 1.67036 -1.35362e-19)
(-9.85867 1.24545 -2.85032e-19)
(-10.2063 0.76812 2.8677e-19)
(-10.3595 0.251145 -3.62469e-20)
(-10.2936 -0.287527 -5.26876e-20)
(-10.0088 -0.822232 1.62807e-20)
(-9.50364 -1.32243 1.72903e-20)
(-8.79125 -1.76306 -7.55748e-21)
(-7.89498 -2.1255 -3.7036e-21)
(-6.84573 -2.39837 -6.09659e-21)
(-5.67958 -2.57812 1.50867e-21)
(-4.43547 -2.66813 1.13872e-21)
(-3.15233 -2.67862 0)
(-1.86082 -2.62502 9.00078e-23)
(-0.549148 -2.51197 -6.52246e-23)
(0.66726 -2.3545 -1.86453e-22)
(1.83742 -2.19533 -2.10766e-23)
(2.93595 -2.07346 0)
(4.29069 -2.03349 0)
(-0.158866 2.89158 -1.06212e-17)
(-0.807297 3.2193 -4.69187e-18)
(-1.65161 3.43238 4.2467e-18)
(-2.48942 3.58272 5.04553e-19)
(-3.34022 3.66382 0)
(-4.20123 3.67343 9.80249e-19)
(-5.06432 3.60952 2.51025e-18)
(-5.91818 3.46964 -2.95617e-18)
(-6.74711 3.25091 9.86744e-19)
(-7.53104 2.95056 -5.42381e-19)
(-8.24547 2.5667 7.98566e-19)
(-8.86158 2.09968 0)
(-9.34723 1.55373 -1.50555e-19)
(-9.66839 0.938798 -1.52536e-19)
(-9.79271 0.273154 -7.83538e-20)
(-9.69578 -0.416222 2.2299e-19)
(-9.38698 -1.09652 -3.34616e-20)
(-8.86482 -1.72856 -3.65721e-21)
(-8.14568 -2.28176 0)
(-7.25413 -2.73387 2.76274e-21)
(-6.2211 -3.07129 -2.32737e-21)
(-5.08188 -3.29051 0)
(-3.87441 -3.39658 -1.52686e-21)
(-2.6365 -3.40337 3.24157e-23)
(-1.39117 -3.32826 1.24371e-23)
(-0.143089 -3.17241 -4.71941e-23)
(0.998677 -2.97129 1.47591e-22)
(2.11664 -2.77293 -6.48432e-23)
(3.15035 -2.61358 7.778e-24)
(4.41984 -2.53002 0)
(-0.0593004 3.71126 0)
(-0.655259 4.01706 0)
(-1.47418 4.21056 0)
(-2.25578 4.34816 3.64132e-18)
(-3.0452 4.4178 -3.88005e-18)
(-3.84248 4.41336 -2.52019e-18)
(-4.64318 4.32885 2.43519e-18)
(-5.43855 4.15841 0)
(-6.21463 3.89596 2.66975e-19)
(-6.95204 3.53576 1.12045e-18)
(-7.62625 3.07361 -1.10231e-18)
(-8.20761 2.50828 1.52183e-19)
(-8.66214 1.84395 -1.62481e-19)
(-8.95281 1.09268 4.88153e-19)
(-9.04394 0.278416 1.25455e-19)
(-8.9123 -0.561588 -1.21505e-19)
(-8.58032 -1.38354 1.26477e-20)
(-8.04561 -2.14072 -9.55706e-20)
(-7.32774 -2.79867 3.593e-20)
(-6.45146 -3.3328 6.12035e-22)
(-5.44685 -3.72777 1.04285e-20)
(-4.34775 -3.98082 -4.1466e-21)
(-3.19036 -4.09863 3.33176e-21)
(-2.00983 -4.098 0)
(-0.818104 -3.99361 0)
(0.333077 -3.79558 0)
(1.40957 -3.5533 0)
(2.46244 -3.3167 -1.50998e-23)
(3.42518 -3.11795 -9.16552e-24)
(4.59721 -2.98615 -1.60673e-23)
(0.0404899 4.52756 5.3688e-20)
(-0.485384 4.78121 -4.38455e-18)
(-1.24563 4.94297 -4.31486e-18)
(-1.94436 5.06217 8.74092e-18)
(-2.65225 5.11822 -3.9496e-18)
(-3.36873 5.10019 0)
(-4.09213 4.99757 -5.02097e-19)
(-4.81554 4.8005 -5.51598e-19)
(-5.52643 4.49916 7.85098e-19)
(-6.20638 4.08426 0)
(-6.83112 3.54856 6.14744e-19)
(-7.37028 2.88867 -9.34358e-19)
(-7.78768 2.10816 3.39597e-19)
(-8.04255 1.22209 -3.53697e-19)
(-8.09456 0.261622 -9.48884e-20)
(-7.92662 -0.727855 -8.33642e-20)
(-7.57483 -1.68331 7.80215e-20)
(-7.03567 -2.55514 5.08322e-22)
(-6.33113 -3.30735 1.37863e-20)
(-5.48442 -3.91454 -6.62987e-21)
(-4.5237 -4.3594 -2.67474e-21)
(-3.48047 -4.64075 8.06341e-22)
(-2.38866 -4.7663 -2.3133e-21)
(-1.27715 -4.75332 2.7156e-21)
(-0.160341 -4.61204 0)
(0.881288 -4.37683 0)
(1.89334 -4.09793 -3.64801e-22)
(2.87039 -3.82283 7.34033e-23)
(3.75662 -3.58299 2.86367e-23)
(4.8218 -3.40041 1.54027e-23)
(0.121798 5.27299 4.77218e-18)
(-0.317263 5.46426 9.41223e-20)
(-0.974288 5.59449 -4.2598e-18)
(-1.56053 5.69734 5.35956e-19)
(-2.16467 5.7429 0)
(-2.78111 5.71548 0)
(-3.40998 5.60001 8.32721e-19)
(-4.04559 5.38246 -1.60288e-18)
(-4.67665 5.04894 0)
(-5.28598 4.58626 0)
(-5.84997 3.98348 -8.20638e-19)
(-6.33777 3.23416 8.32685e-19)
(-6.7101 2.34064 -3.70988e-19)
(-6.92038 1.32118 3.91963e-19)
(-6.92459 0.216242 5.18325e-20)
(-6.7283 -0.914051 0)
(-6.36154 -1.99098 -2.6288e-21)
(-5.8301 -2.96374 9.12704e-21)
(-5.15484 -3.79775 8.17732e-21)
(-4.35499 -4.46867 -1.26494e-20)
(-3.45636 -4.95604 -2.45038e-21)
(-2.48606 -5.26074 2.46231e-21)
(-1.4754 -5.38966 7.4741e-21)
(-0.442426 -5.35555 -5.62023e-21)
(0.552657 -5.18131 0)
(1.51138 -4.91264 0)
(2.44363 -4.60116 3.42635e-22)
(3.33576 -4.28741 0)
(4.13987 -4.00552 9.76037e-24)
(5.09107 -3.77144 0)
(0.181113 5.86161 -2.37899e-18)
(-0.152252 6.01357 0)
(-0.662625 6.12785 -2.25846e-18)
(-1.10965 6.22449 1.33253e-18)
(-1.58831 6.26777 -2.2384e-18)
(-2.0848 6.23874 3.54904e-18)
(-2.60059 6.11835 -8.12484e-19)
(-3.13071 5.88865 0)
(-3.66522 5.53174 6.32506e-19)
(-4.18857 5.0303 -4.60379e-19)
(-4.67866 4.36907 3.49221e-19)
(-5.10494 3.53771 -7.44552e-19)
(-5.42496 2.53644 3.98429e-19)
(-5.58461 1.38654 0)
(-5.53353 0.140297 0)
(-5.30819 -1.11766 1.01455e-19)
(-4.93913 -2.29896 -7.83477e-20)
(-4.43198 -3.35581 -9.45859e-21)
(-3.80528 -4.25796 -1.60728e-20)
(-3.07146 -4.98326 0)
(-2.2551 -5.5067 0)
(-1.37335 -5.83028 0)
(-0.456813 -5.95524 -7.17239e-21)
(0.456062 -5.89774 2.64419e-21)
(1.34159 -5.69742 0)
(2.21311 -5.40148 -1.57994e-23)
(3.0539 -5.0582 1.53862e-23)
(3.85277 -4.70652 0)
(4.56917 -4.3828 -3.54789e-23)
(5.40107 -4.09828 0)
(0.229177 6.2431 1.14477e-20)
(0.0228423 6.39049 -2.31112e-18)
(-0.311116 6.51196 1.16838e-18)
(-0.599489 6.61707 -8.38779e-19)
(-0.93359 6.66956 -1.17582e-18)
(-1.2911 6.64915 5.49047e-19)
(-1.67511 6.53364 1.23722e-18)
(-2.08112 6.30186 -5.56265e-19)
(-2.50044 5.93201 -6.3344e-19)
(-2.91966 5.40296 1.90055e-19)
(-3.31918 4.69442 -1.80194e-19)
(-3.67015 3.79121 -1.04951e-19)
(-3.92731 2.69023 0)
(-4.02719 1.41554 0)
(-3.91454 0.0391523 -1.356e-19)
(-3.6719 -1.33179 8.88285e-20)
(-3.31782 -2.59428 3.69928e-20)
(-2.8558 -3.71728 -2.19985e-20)
(-2.29886 -4.67561 0)
(-1.64931 -5.44736 3.00986e-20)
(-0.935174 -5.99999 1.73476e-22)
(-0.153307 -6.33735 9.70568e-21)
(0.631237 -6.45096 -7.45035e-21)
(1.4205 -6.3785 -5.43076e-21)
(2.2072 -6.15838 1.9166e-21)
(2.97741 -5.8383 0)
(3.71665 -5.46429 -4.05454e-22)
(4.41443 -5.07646 2.27834e-22)
(5.03779 -4.71249 -1.02888e-22)
(5.74667 -4.38028 0)
(0.272458 6.40011 6.11753e-19)
(0.213278 6.57671 -6.04603e-19)
(0.0748703 6.7274 0)
(-0.042474 6.85567 -3.74058e-20)
(-0.216904 6.92969 -6.9636e-19)
(-0.418808 6.92866 7.49702e-19)
(-0.653968 6.82799 -3.31183e-19)
(-0.918024 6.60394 4.92134e-19)
(-1.20295 6.23173 0)
(-1.498 5.68673 -1.9871e-19)
(-1.78764 4.94142 5.24295e-19)
(-2.04748 3.97384 1.26474e-19)
(-2.23074 2.77801 -2.56354e-19)
(-2.25776 1.38833 9.55053e-21)
(-2.06807 -0.0895363 -4.05377e-20)
(-1.83602 -1.54465 -6.68831e-20)
(-1.52233 -2.86207 7.88712e-21)
(-1.13034 -4.0338 -5.30238e-20)
(-0.663093 -5.0377 0)
(-0.112505 -5.853 2.78025e-21)
(0.48619 -6.42526 -2.65024e-20)
(1.12263 -6.76261 -9.1848e-21)
(1.78608 -6.87678 6.51862e-21)
(2.46262 -6.79581 5.44836e-21)
(3.13654 -6.56006 -1.80294e-21)
(3.79403 -6.21736 -1.62937e-23)
(4.42256 -5.81487 4.04686e-22)
(5.01231 -5.3939 -2.20675e-22)
(5.53796 -4.99265 9.96869e-23)
(6.12165 -4.61705 -4.5888e-25)
(0.319225 6.33056 6.13584e-19)
(0.42166 6.56703 -5.92357e-19)
(0.485822 6.76392 7.39859e-20)
(0.542415 6.92646 3.73844e-20)
(0.538601 7.03357 7.63333e-20)
(0.504279 7.06414 1.18493e-19)
(0.431599 6.992 0)
(0.324713 6.7913 -2.01618e-19)
(0.19108 6.43089 2.34025e-20)
(0.0385039 5.88566 0)
(-0.122931 5.12588 -1.16477e-19)
(-0.278643 4.12822 -2.11907e-21)
(-0.376952 2.88145 2.34578e-21)
(-0.294289 1.39984 -1.14187e-20)
(-0.0296357 -0.209775 1.44647e-19)
(0.160165 -1.7383 9.3145e-20)
(0.403943 -3.09734 -1.52654e-20)
(0.70269 -4.30257 4.65554e-20)
(1.06473 -5.33566 0)
(1.48413 -6.16345 6.57772e-22)
(1.95632 -6.76041 4.61468e-20)
(2.47107 -7.11476 0)
(3.0123 -7.2331 -7.52276e-22)
(3.56492 -7.14583 7.29323e-22)
(4.11489 -6.89621 0)
(4.65016 -6.53347 1.3009e-21)
(5.16036 -6.106 -8.15623e-24)
(5.63663 -5.6561 -2.54604e-22)
(6.06096 -5.22189 0)
(6.51891 -4.80854 0)
(0.386944 6.04143 -1.57946e-19)
(0.662018 6.36949 2.34344e-18)
(0.916363 6.62204 -1.27829e-18)
(1.1406 6.8238 0)
(1.31069 6.97062 -5.98751e-19)
(1.44681 7.0394 6.15714e-19)
(1.54158 7.00138 -3.18527e-19)
(1.59964 6.82862 3.20882e-19)
(1.6284 6.49071 5.55236e-21)
(1.63406 5.95826 0)
(1.62396 5.19917 2.23887e-19)
(1.61397 4.18273 -1.73542e-19)
(1.66472 2.88241 7.55261e-20)
(1.87422 1.34419 2.10165e-21)
(2.09437 -0.270777 -4.04616e-19)
(2.21948 -1.80741 1.2938e-19)
(2.36954 -3.21853 -5.40884e-20)
(2.57051 -4.46805 -4.27466e-20)
(2.82499 -5.54021 -3.45288e-20)
(3.13163 -6.40426 -5.50074e-20)
(3.48506 -7.0263 -4.67843e-21)
(3.87463 -7.39336 6.64737e-21)
(4.28624 -7.51507 -8.44534e-21)
(4.70671 -7.42283 0)
(5.12467 -7.16176 -4.80664e-23)
(5.53075 -6.78256 8.64462e-23)
(5.91716 -6.33467 8.22965e-24)
(6.2764 -5.86111 2.46226e-22)
(6.59731 -5.39945 1.33519e-22)
(6.9307 -4.95513 -2.97521e-23)
(0.49707 5.54805 2.62169e-18)
(0.946174 6.01284 -9.67632e-19)
(1.35969 6.31041 1.10155e-19)
(1.74359 6.54822 -2.21261e-18)
(2.08594 6.7409 1.07464e-18)
(2.3892 6.85534 0)
(2.64826 6.85757 -5.73271e-19)
(2.86954 6.71753 5.87101e-19)
(3.06058 6.4047 -4.57814e-20)
(3.22784 5.88778 4.41171e-20)
(3.37964 5.13333 4.85556e-20)
(3.53144 4.10675 -5.37622e-20)
(3.71999 2.79557 -6.19663e-20)
(3.96497 1.27036 0)
(4.15754 -0.340617 6.80651e-20)
(4.24701 -1.89141 -2.16836e-21)
(4.32746 -3.31382 0)
(4.44059 -4.58646 1.81352e-21)
(4.59761 -5.68653 8.01734e-20)
(4.79884 -6.57596 3.75727e-20)
(5.03726 -7.21741 7.66603e-23)
(5.3019 -7.59514 1.82933e-21)
(5.58107 -7.71949 3.77806e-21)
(5.86501 -7.62334 9.46589e-22)
(6.14625 -7.35354 -2.58555e-22)
(6.41909 -6.96212 -1.23656e-21)
(6.67888 -6.49922 2.15333e-23)
(6.91984 -6.00813 -3.04067e-22)
(7.13706 -5.52548 -1.12373e-22)
(7.34895 -5.05775 2.37997e-23)
(0.68077 4.82673 0)
(1.27926 5.56239 -1.4316e-19)
(1.79635 5.86206 0)
(2.34096 6.11998 -1.10958e-18)
(2.85388 6.36035 2.11192e-18)
(3.31462 6.52508 -1.06084e-18)
(3.72629 6.57198 -1.17164e-18)
(4.09956 6.46897 1.09895e-18)
(4.44268 6.185 1.13209e-19)
(4.76229 5.68797 6.36052e-19)
(5.06552 4.94335 -1.18701e-18)
(5.36022 3.91995 4.80526e-19)
(5.65007 2.62255 1.14202e-19)
(5.92138 1.13041 -3.67047e-19)
(6.10569 -0.43094 2.36832e-19)
(6.17096 -1.94564 -1.76032e-21)
(6.20274 -3.36049 -8.39353e-20)
(6.25153 -4.6485 0)
(6.33275 -5.77205 -2.76119e-20)
(6.44454 -6.68216 -2.22238e-20)
(6.57763 -7.33739 -1.28453e-22)
(6.72186 -7.72131 -1.74036e-21)
(6.86945 -7.84596 1.69701e-21)
(7.01587 -7.7462 2.53179e-22)
(7.15898 -7.47041 3.18382e-21)
(7.29768 -7.07145 -1.2291e-21)
(7.43089 -6.59956 0)
(7.55492 -6.09775 2.6338e-22)
(7.67027 -5.60122 -1.46612e-22)
(7.76572 -5.11806 0)
(9.99614 0.124442 -2.9728e-23)
(9.98407 0.247501 1.67583e-21)
(9.96257 0.37107 1.65783e-21)
(9.93257 0.496893 3.13455e-21)
(9.89493 0.626487 -3.16752e-21)
(9.85 0.76129 -1.76817e-21)
(9.79797 0.902749 1.82735e-21)
(9.73903 1.05232 0)
(9.67338 1.21151 -7.08825e-21)
(9.6012 1.38185 -2.16228e-20)
(9.52265 1.56498 -7.22598e-21)
(9.43788 1.76261 -1.49894e-20)
(9.347 1.97656 -1.51735e-20)
(9.25013 2.20882 0)
(9.14735 2.46152 -6.13251e-20)
(9.03875 2.73709 6.13494e-20)
(8.92438 3.03827 -1.19674e-19)
(8.80427 3.36827 1.38516e-19)
(8.67843 3.73096 0)
(8.54685 4.13117 2.42522e-19)
(8.40949 4.57505 -3.60903e-19)
(8.26635 5.07079 1.17051e-19)
(8.11753 5.62956 1.16937e-19)
(7.9636 6.26732 -3.13678e-19)
(7.80624 7.00773 4.09796e-19)
(7.65116 7.88784 -6.57639e-19)
(7.51262 8.96952 6.41066e-19)
(7.49622 10.3593 0)
(8.00622 12.2303 -5.39218e-22)
(8.33209 15.1284 -7.29166e-20)
(9.99657 0.128876 -1.59825e-21)
(9.98595 0.256304 0)
(9.96703 0.384218 -1.8392e-23)
(9.94068 0.514392 -2.85765e-21)
(9.90773 0.648356 2.06664e-21)
(9.86857 0.787555 -4.16701e-21)
(9.82343 0.933441 -1.5942e-21)
(9.77258 1.08748 -2.26053e-23)
(9.71631 1.25116 3.44387e-21)
(9.6549 1.42604 2.08733e-20)
(9.58867 1.61372 8.75701e-23)
(9.5179 1.81592 -1.42737e-20)
(9.44294 2.03444 -1.42588e-20)
(9.36414 2.27122 4.28142e-20)
(9.2819 2.52838 0)
(9.19668 2.80827 0)
(9.10905 3.11356 0)
(9.01969 3.44736 -5.54518e-22)
(8.92947 3.81337 0)
(8.83957 4.21618 5.47249e-20)
(8.75164 4.66158 5.62792e-20)
(8.66815 5.15711 -1.05842e-19)
(8.59298 5.71285 0)
(8.53266 6.3426 -9.83625e-20)
(8.49899 7.06568 4.03558e-20)
(8.51535 7.90912 -3.42364e-20)
(8.62206 8.90934 0)
(8.88635 10.1068 0)
(9.57882 11.4464 -1.40181e-19)
(10.1818 12.5609 6.09062e-19)
(9.99702 0.132839 1.19938e-23)
(9.9879 0.264163 -1.20427e-23)
(9.97167 0.395932 -1.56142e-21)
(9.94911 0.529936 -3.91794e-22)
(9.92102 0.667709 3.93686e-22)
(9.88781 0.810694 1.59652e-21)
(9.84977 0.96033 4.87617e-21)
(9.80724 1.11807 -6.51401e-21)
(9.76059 1.28539 -3.65951e-23)
(9.71022 1.46382 6.60207e-21)
(9.65657 1.65494 -2.67751e-20)
(9.60009 1.86039 1.31783e-20)
(9.54133 2.08194 -1.437e-22)
(9.48089 2.32145 9.49087e-20)
(9.41947 2.58092 4.7784e-20)
(9.35793 2.86257 -1.08765e-19)
(9.29729 3.16886 0)
(9.23885 3.50262 1.99591e-19)
(9.18427 3.86715 -2.12125e-19)
(9.13579 4.26643 -2.77807e-20)
(9.09646 4.70533 0)
(9.07065 5.18987 4.94479e-20)
(9.06476 5.72759 -4.33569e-20)
(9.08852 6.32781 0)
(9.15692 7.00149 -3.88066e-20)
(9.29321 7.75972 3.2909e-20)
(9.5291 8.60789 6.06083e-19)
(9.87905 9.53746 -8.45838e-19)
(10.4679 10.4959 1.83227e-19)
(11.2214 11.2439 8.63248e-20)
(9.99749 0.136284 0)
(9.98992 0.270979 0)
(9.97644 0.406059 -1.11188e-21)
(9.95778 0.543313 -3.76239e-22)
(9.93467 0.684272 0)
(9.90755 0.830359 0)
(9.87677 0.982995 -6.12652e-21)
(9.84272 1.1436 0)
(9.80586 1.31363 0)
(9.76669 1.49455 -1.26741e-20)
(9.72577 1.68788 1.27093e-20)
(9.68372 1.8952 -5.12143e-20)
(9.64125 2.11816 2.53188e-20)
(9.59921 2.35851 0)
(9.55857 2.61807 6.51792e-21)