/*--------------------------------*- C++ -*----------------------------------*\
| =========                 |                                                 |
| \\      /  F ield         | OpenFOAM: The Open Source CFD Toolbox           |
|  \\    /   O peration     | Version:  2006                                  |
|   \\  /    A nd           | Website:  www.openfoam.com                      |
|    \\/     M anipulation  |                                                 |
\*---------------------------------------------------------------------------*/
FoamFile
{
    version     2.0;
    format      ascii;
    class       surfaceVectorField;
    location    "0.3";
    object      Uf;
}
// * * * * * * * * * * * * * * * * * * * * * * * * * * * * * * * * * * * * * //

dimensions      [0 1 -1 0 0 0 0];


internalField   nonuniform List<vector> 
5457
(
(9.92317 0.024283 -5.80779e-23)
(9.97195 0.0376167 -3.5125e-22)
(9.83072 0.0314251 -1.23447e-22)
(9.93252 0.0463539 2.37379e-22)
(9.72282 0.037316 6.09013e-24)
(9.8649 0.0554083 -1.07453e-24)
(9.59717 0.0433886 1.23673e-22)
(9.77379 0.0660697 1.52522e-24)
(9.45367 0.0496496 0)
(9.66409 0.0772615 0)
(9.29247 0.0561246 5.57462e-22)
(9.53676 0.0888674 0)
(9.11331 0.0629428 5.44577e-22)
(9.39113 0.101113 -2.15782e-21)
(8.9156 0.0702332 0)
(9.22641 0.114218 2.20985e-21)
(8.69853 0.0781005 0)
(9.04184 0.12835 0)
(8.46111 0.0866351 0)
(8.83658 0.143656 0)
(8.20226 0.0959187 0)
(8.60956 0.160269 2.5035e-21)
(7.92078 0.106023 -1.18177e-20)
(8.3596 0.178306 0)
(7.61546 0.117005 -1.18621e-20)
(8.08541 0.197861 -6.11992e-21)
(7.28514 0.128897 -6.37813e-22)
(7.78568 0.21899 -6.01303e-21)
(6.9288 0.141702 -5.92919e-22)
(7.45918 0.241692 -3.32066e-22)
(6.54571 0.155376 2.17951e-20)
(7.10481 0.265894 -6.66555e-21)
(6.13556 0.169815 2.15489e-20)
(6.72178 0.291417 8.17601e-21)
(5.69865 0.184835 0)
(6.30975 0.317952 -4.59254e-22)
(5.23616 0.200149 0)
(5.86902 0.345016 1.2381e-19)
(4.75031 0.215353 0)
(5.40075 0.371932 -6.51634e-20)
(4.24461 0.229904 -1.28488e-19)
(4.90716 0.397798 0)
(3.724 0.243105 5.85519e-20)
(4.39175 0.421463 1.42868e-19)
(3.19498 0.254112 -1.24412e-19)
(3.85934 0.441522 -2.25515e-19)
(2.66553 0.261969 -7.71872e-20)
(3.31616 0.456343 -3.28441e-20)
(2.14484 0.265675 -2.77948e-20)
(2.76965 0.464156 4.05994e-19)
(1.64291 0.264332 -4.90605e-19)
(2.22804 0.46316 1.83212e-19)
(1.16984 0.256695 2.87647e-20)
(1.69939 0.451725 -2.81794e-20)
(0.736152 0.244761 2.74745e-19)
(1.19501 0.427439 -1.97506e-18)
(0.34366 0.229008 -3.23898e-19)
(0.682598 0.396066 2.17337e-18)
(0.339047 0.345915 -6.21667e-19)
(9.99871 0.0491605 -4.78601e-23)
(9.99775 0.0382464 -1.75702e-22)
(9.96556 0.0666681 3.56861e-22)
(9.9824 0.0629796 2.37379e-22)
(9.91155 0.0820761 -5.61468e-24)
(9.9431 0.0831424 3.61346e-22)
(9.83846 0.0982848 -1.22121e-22)
(9.8813 0.104498 3.70649e-22)
(9.74608 0.115322 0)
(9.80054 0.127004 -1.00468e-21)
(9.63426 0.133207 -2.74052e-21)
(9.70187 0.15051 1.04289e-21)
(9.50272 0.152212 -4.41301e-22)
(9.58483 0.175353 -4.83353e-21)
(9.35087 0.172631 2.18422e-21)
(9.44875 0.201942 1.09789e-21)
(9.1779 0.194712 0)
(9.29293 0.230627 3.40952e-21)
(8.9828 0.21867 2.53211e-21)
(9.11655 0.261717 0)
(8.76438 0.244703 2.47504e-21)
(8.9186 0.295503 -5.88906e-22)
(8.52136 0.272979 5.62837e-21)
(8.69788 0.332256 6.35634e-22)
(8.25234 0.303624 -2.69443e-22)
(8.45305 0.372203 5.56547e-21)
(7.95592 0.3367 -5.6436e-21)
(8.18269 0.415507 -5.70788e-21)
(7.63076 0.372175 -6.47124e-21)
(7.88536 0.462239 0)
(7.27569 0.409898 -2.01257e-20)
(7.55965 0.512332 -1.91258e-20)
(6.88985 0.449547 -1.39501e-20)
(7.20432 0.565543 1.22517e-20)
(6.47286 0.490586 1.24824e-19)
(6.81839 0.62138 -2.82888e-20)
(6.02501 0.532222 5.63516e-20)
(6.40138 0.679042 1.52882e-19)
(5.54749 0.57337 -6.43346e-20)
(5.95339 0.73737 -2.93586e-21)
(5.04254 0.612616 2.73367e-19)
(5.47536 0.794806 0)
(4.5136 0.648201 -1.46273e-19)
(4.96922 0.849335 1.99467e-19)
(3.96539 0.67806 -1.31243e-19)
(4.43799 0.89849 -2.54837e-19)
(3.40379 0.699938 4.57139e-19)
(3.88582 0.93944 -1.06173e-18)
(2.83546 0.711604 6.14526e-19)
(3.31773 0.969195 1.77631e-18)
(2.26717 0.711214 6.4474e-19)
(2.73931 0.984986 1.77515e-18)
(1.70444 0.697521 -2.05487e-18)
(2.15536 0.984917 -1.43706e-18)
(1.14931 0.67301 -3.8465e-20)
(1.57425 0.96823 -5.92074e-18)
(0.597631 0.637883 1.84863e-18)
(0.963415 0.944048 6.15422e-18)
(0.474002 0.899846 2.54387e-19)
(9.99127 0.0552166 1.15596e-22)
(9.9955 0.0425202 -1.15443e-22)
(9.96091 0.0824761 2.43339e-22)
(9.97749 0.0782016 0)
(9.91018 0.108183 7.37719e-22)
(9.93894 0.109194 2.40984e-22)
(9.84159 0.135077 -5.28048e-22)
(9.8799 0.140565 7.4205e-22)
(9.75543 0.163448 6.23351e-23)
(9.80278 0.173394 -1.00151e-21)
(9.65154 0.193415 -1.11919e-21)
(9.70862 0.207784 3.10378e-21)
(9.52965 0.225355 -3.22489e-21)
(9.59725 0.244141 -1.04974e-21)
(9.38933 0.259707 2.35007e-21)
(9.46813 0.28301 -1.71608e-23)
(9.22988 0.296878 3.37025e-21)
(9.32069 0.324907 9.87315e-24)
(9.05041 0.337242 -3.12687e-21)
(9.15427 0.370308 5.82264e-21)
(8.84987 0.381155 -2.41356e-21)
(8.96799 0.419669 -8.08784e-21)
(8.627 0.428938 6.28459e-22)
(8.76079 0.473428 -9.28478e-21)
(8.38043 0.480854 0)
(8.53147 0.531979 5.33333e-21)
(8.10867 0.537077 0)
(8.27869 0.595643 -5.44101e-21)
(7.81021 0.59765 -1.28808e-20)
(8.00102 0.664629 0)
(7.48354 0.662435 1.35939e-20)
(7.69695 0.738984 3.62429e-20)
(7.12729 0.731043 -2.52292e-21)
(7.36502 0.818527 -7.57552e-20)
(6.74034 0.802757 1.96057e-21)
(7.00386 0.902757 1.86691e-19)
(6.32201 0.876466 9.1736e-20)
(6.61234 0.990756 -1.39138e-19)
(5.87221 0.950614 6.14644e-20)
(6.18963 1.08114 2.25577e-21)
(5.39158 1.02313 -7.13465e-20)
(5.73545 1.17197 -1.26007e-19)
(4.8817 1.09142 8.46835e-20)
(5.25017 1.2607 6.4913e-20)
(4.34512 1.15239 -1.19617e-18)
(4.73495 1.34412 1.50713e-19)
(3.78529 1.20268 2.96743e-19)
(4.19179 1.41853 -2.72541e-18)
(3.20635 1.23903 2.93732e-18)
(3.62338 1.48001 2.56472e-18)
(2.61251 1.25892 -3.48872e-19)
(3.03314 1.52497 1.35634e-18)
(2.00717 1.26134 -5.35756e-18)
(2.42399 1.55115 -4.77898e-18)
(1.392 1.25005 3.92368e-19)
(1.80427 1.55812 2.65952e-18)
(0.765395 1.22753 4.49462e-18)
(1.145 1.55603 3.02422e-19)
(0.572089 1.53368 2.97294e-19)
(9.98736 0.06578 -2.29662e-22)
(9.99434 0.0487095 -1.38364e-25)
(9.95684 0.103956 5.75e-25)
(9.9746 0.0935018 2.35238e-22)
(9.907 0.140548 2.51373e-22)
(9.93581 0.134787 -2.3739e-22)
(9.83952 0.177924 2.4806e-22)
(9.87783 0.176051 2.47819e-22)
(9.75501 0.216871 2.08819e-21)
(9.80231 0.218896 5.03082e-22)
(9.65342 0.257797 3.12404e-21)
(9.71016 0.263786 -1.50108e-21)
(9.53456 0.30124 2.16971e-21)
(9.60133 0.311224 2.10922e-21)
(9.39808 0.347799 -2.35659e-21)
(9.47542 0.361855 2.86187e-24)
(9.24346 0.398057 2.52955e-21)
(9.33196 0.41633 -3.39926e-21)
(9.06999 0.452566 7.02773e-22)
(9.17036 0.47527 1.1995e-21)
(8.8768 0.511861 -1.49725e-20)
(8.98991 0.539279 -2.0265e-22)
(8.66284 0.576444 -4.41533e-21)
(8.7897 0.608944 3.92422e-23)
(8.42695 0.646763 -2.28392e-22)
(8.56869 0.684818 1.56225e-20)
(8.16781 0.72317 -5.38032e-21)
(8.32571 0.767386 -5.44112e-21)
(7.88401 0.805878 4.9529e-20)
(8.05945 0.857021 -4.51335e-20)
(7.57408 0.894891 -5.43594e-20)
(7.76852 0.953932 1.19818e-19)
(7.23652 0.989925 1.16427e-19)
(7.45143 1.05809 -1.74791e-19)
(6.86991 1.09029 4.18875e-20)
(7.10673 1.16911 1.62599e-19)
(6.473 1.19483 -2.26948e-19)
(6.73295 1.28615 -1.14281e-19)
(6.04479 1.30181 -1.86811e-19)
(6.32866 1.40783 1.71666e-19)
(5.58472 1.40885 1.25863e-20)
(5.89271 1.53213 -2.43355e-19)
(5.09278 1.51284 1.32178e-19)
(5.42431 1.65623 1.35383e-19)
(4.56964 1.61001 -1.41749e-18)
(4.92308 1.77654 -1.37992e-19)
(4.01667 1.69614 -3.86292e-19)
(4.38924 1.88872 -1.39802e-18)
(3.43593 1.76697 9.67271e-19)
(3.82361 1.988 9.80606e-19)
(2.83011 1.81903 -3.1542e-18)
(3.22811 2.0697 0)
(2.20234 1.85058 3.31994e-18)
(2.60483 2.13036 -3.11336e-18)
(1.55637 1.86484 2.54044e-18)
(1.9639 2.16821 7.09788e-18)
(0.89631 1.86434 -3.87703e-18)
(1.28318 2.19183 -4.08785e-18)
(0.656458 2.19272 -7.27196e-18)
(9.98552 0.0769756 4.67586e-22)
(9.99382 0.0557969 2.32313e-22)
(9.95451 0.12452 -8.44536e-24)
(9.97321 0.109052 7.01152e-22)
(9.90548 0.170748 -2.35133e-22)
(9.93442 0.159962 -9.54733e-26)
(9.83926 0.217737 5.05954e-22)
(9.87755 0.210874 2.445e-22)
(9.75646 0.266621 -3.10986e-21)
(9.80381 0.263478 4.96972e-22)
(9.65712 0.318051 -2.47371e-21)
(9.71391 0.318553 -1.0349e-21)
(9.54103 0.372678 -8.22842e-23)
(9.60781 0.376737 -2.14504e-23)
(9.4079 0.431203 -1.07933e-21)
(9.48519 0.438767 -4.28653e-21)
(9.25725 0.494321 -4.6763e-21)
(9.34561 0.505406 -4.93841e-21)
(9.08845 0.56271 2.77883e-22)
(9.18854 0.577403 -4.06028e-21)
(8.90074 0.637032 1.48114e-20)
(9.01332 0.655491 4.79358e-21)
(8.69319 0.717925 2.02523e-20)
(8.81914 0.740394 1.48849e-20)
(8.46475 0.805982 1.01745e-20)
(8.60504 0.832806 5.35983e-21)
(8.21426 0.901709 -4.56351e-20)
(8.36994 0.933367 -1.03997e-20)
(7.94041 1.00548 2.69838e-20)
(8.11264 1.04261 -2.31333e-20)
(7.64181 1.11747 -3.8844e-21)
(7.83178 1.16093 1.93284e-21)
(7.31696 1.23757 -1.24819e-19)
(7.52591 1.28847 -2.06152e-21)
(6.96433 1.36525 3.25035e-21)
(7.19353 1.42505 -1.01418e-19)
(6.5823 1.49947 2.87705e-19)
(6.83294 1.57006 -2.09868e-19)
(6.16932 1.63856 1.10363e-19)
(6.44228 1.72226 4.48193e-19)
(5.72398 1.78011 -1.15947e-19)
(6.01984 1.87976 -1.1737e-19)
(5.24509 1.92083 -1.38265e-19)
(5.56389 2.03977 4.90311e-19)
(4.73184 2.05654 -1.34903e-19)
(5.07286 2.19853 -1.67906e-18)
(4.184 2.1823 0)
(4.54549 2.35125 8.06934e-19)
(3.6022 2.29275 0)
(3.98119 2.49223 2.8631e-19)
(2.98838 2.38287 0)
(3.38091 2.61526 -2.49028e-18)
(2.34654 2.44894 7.88608e-19)
(2.74643 2.71455 2.6441e-18)
(1.68388 2.49153 3.42005e-19)
(2.09025 2.78516 7.72276e-19)
(1.01256 2.51103 -7.53147e-18)
(1.4007 2.83056 -2.197e-19)
(0.734617 2.84288 -1.39137e-17)
(9.98473 0.0885109 4.71472e-22)
(9.99362 0.0632728 -4.5797e-22)
(9.95356 0.144889 7.01061e-22)
(9.97276 0.124683 5.95833e-25)
(9.90552 0.200477 4.8246e-22)
(9.93436 0.184627 2.37861e-22)
(9.84094 0.257035 2.38539e-22)
(9.87886 0.244834 7.25848e-22)
(9.76028 0.315804 2.55376e-21)
(9.80725 0.306907 -1.47013e-21)
(9.66363 0.377601 1.42926e-21)
(9.72002 0.371837 1.03616e-21)
(9.5508 0.443179 -4.27512e-21)
(9.61715 0.440413 -6.69837e-21)
(9.4215 0.513335 -8.15313e-21)
(9.49835 0.513463 6.27542e-21)
(9.27529 0.588876 -4.3123e-21)
(9.36322 0.591855 -5.87448e-22)
(9.11159 0.670604 5.56425e-22)
(9.21128 0.676452 -8.48191e-21)
(8.92967 0.759312 4.98113e-21)
(9.04189 0.768111 1.30885e-21)
(8.72867 0.855777 -1.13392e-22)
(8.85428 0.867684 3.74336e-21)
(8.5076 0.960741 -1.5389e-20)
(8.64754 0.976004 -4.92854e-21)
(8.26533 1.07487 1.19577e-20)
(8.42063 1.09386 -1.04e-20)
(8.00061 1.19872 -4.79047e-20)
(8.17237 1.22195 8.42695e-22)
(7.71205 1.33264 3.6912e-21)
(7.9014 1.36086 2.01327e-20)
(7.39812 1.47675 2.0264e-20)
(7.60623 1.51093 -6.76911e-20)
(7.05711 1.63077 -3.1573e-19)
(7.28525 1.67227 4.61352e-20)
(6.68717 1.79389 -4.21267e-20)
(6.93652 1.84454 -4.66498e-19)
(6.28626 1.96469 2.14078e-19)
(6.55786 2.02681 4.75159e-19)
(5.8523 2.1409 4.95993e-19)
(6.14698 2.21745 1.08321e-19)
(5.38311 2.31928 -1.07559e-18)
(5.70134 2.41393 3.77091e-19)
(4.87668 2.49544 -7.08943e-19)
(5.21832 2.61254 -1.54343e-18)
(4.33146 2.66373 1.08748e-18)
(4.69531 2.80812 1.06416e-18)
(3.74694 2.81746 -2.23748e-18)
(4.13044 2.99401 -1.33627e-18)
(3.12459 2.94926 2.13781e-19)
(3.52362 3.162 -1.35428e-18)
(2.46953 3.05184 2.60364e-18)
(2.87613 3.30277 5.11196e-18)
(1.79278 3.1203 1.97831e-19)
(2.20191 3.40607 -2.98147e-18)
(1.11561 3.14694 -6.82553e-18)
(1.50134 3.46572 2.04459e-19)
(0.803289 3.46232 -6.98798e-18)
(9.98452 0.100134 -9.23364e-22)
(9.99361 0.0708513 -5.73988e-23)
(9.95361 0.164951 -4.59768e-22)
(9.97291 0.140181 -8.67533e-22)
(9.90679 0.229473 4.87061e-22)
(9.9353 0.20867 0)
(9.84416 0.295231 -1.00871e-21)
(9.88146 0.277767 4.81347e-22)
(9.76605 0.363498 -2.95813e-21)
(9.81228 0.348963 -1.46703e-21)
(9.67255 0.435234 -7.1821e-21)
(9.72815 0.423381 4.94576e-22)
(9.56353 0.511314 4.00342e-21)
(9.629 0.501945 4.27738e-22)
(9.43869 0.592637 1.37612e-20)
(9.5146 0.585584 6.34531e-21)
(9.29762 0.68012 -4.84786e-21)
(9.38459 0.675261 4.36787e-21)
(9.13978 0.774684 -7.61802e-21)
(9.23851 0.771951 -1.00551e-20)
(8.96447 0.877244 9.86001e-23)
(9.07577 0.87663 7.37097e-22)
(8.77087 0.988711 -1.16895e-21)
(8.89563 0.990276 -6.03228e-22)
(8.55801 1.10997 0)
(8.6972 1.11386 -9.60009e-21)
(8.32478 1.24184 -2.13904e-20)
(8.47947 1.24833 0)
(8.0699 1.38506 6.90827e-20)
(8.24125 1.39456 -2.12511e-20)
(7.79194 1.54021 -5.21829e-20)
(7.98115 1.55332 8.86685e-20)
(7.48926 1.70763 -4.06416e-20)
(7.69761 1.72523 -1.1676e-19)
(7.15999 1.88737 -1.10161e-19)
(7.38883 1.91068 1.42159e-19)
(6.80195 2.07897 6.0945e-20)
(7.05267 2.1097 -2.50064e-19)
(6.41266 2.28134 3.65408e-19)
(6.68657 2.32178 2.08417e-19)
(5.98934 2.49259 -7.56444e-21)
(6.28766 2.54573 3.57228e-21)
(5.52889 2.70971 -1.12299e-19)
(5.85257 2.77944 -5.76219e-20)
(5.02814 2.92824 2.59574e-19)
(5.3776 3.01945 0)
(4.48415 3.14194 -1.38735e-18)
(4.85873 3.26046 2.56884e-19)
(3.89505 3.34259 -4.55495e-19)
(4.29243 3.4949 -1.37165e-18)
(3.26135 3.51976 3.62131e-18)
(3.67689 3.71235 1.13762e-18)
(2.58839 3.66103 -5.74765e-19)
(3.01187 3.89907 2.04387e-19)
(1.88965 3.75325 -2.92233e-18)
(2.31037 4.03769 1.88056e-18)
(1.19226 3.77261 -1.00807e-19)
(1.5815 4.10929 -5.22218e-18)
(0.854126 4.06344 2.77351e-18)
(9.98467 0.11164 -1.11787e-23)
(9.99372 0.0783573 4.00568e-22)
(9.9544 0.184542 -3.97439e-22)
(9.97349 0.15536 5.70188e-23)
(9.90904 0.257567 0)
(9.937 0.231961 0)
(9.84866 0.332125 0)
(9.8851 0.309516 0)
(9.77349 0.409503 2.00871e-21)
(9.81868 0.38944 -2.39305e-21)
(9.6836 0.490772 8.10338e-21)
(9.73804 0.472931 1.48773e-21)
(9.57891 0.57692 2.83883e-21)
(9.64309 0.561033 3.04817e-21)
(9.45914 0.668943 -3.07065e-21)
(9.53365 0.654773 -7.20372e-21)
(9.32392 0.767861 -1.0056e-21)
(9.4094 0.755209 1.71863e-23)
(9.17273 0.874704 -1.57771e-21)
(9.26992 0.86342 1.65156e-22)
(9.00493 0.990511 2.01201e-23)
(9.11465 0.980495 -1.67262e-21)
(8.81972 1.11633 -9.13447e-21)
(8.94291 1.10754 1.082e-20)
(8.61616 1.25318 -9.49456e-21)
(8.75384 1.24567 1.28336e-20)
(8.39314 1.40207 -9.48653e-23)
(8.54646 1.39599 5.00526e-21)
(8.14937 1.56392 -4.78067e-22)
(8.31958 1.55956 -3.02951e-20)
(7.88335 1.73955 2.18897e-20)
(8.07179 1.7374 2.01293e-20)
(7.59331 1.92962 6.88002e-20)
(7.80144 1.93038 -2.07554e-20)
(7.27717 2.13451 -1.90237e-21)
(7.50657 2.13925 -4.28904e-20)
(6.93246 2.35422 -9.77702e-20)
(7.18483 2.36449 1.12004e-19)
(6.55621 2.58816 -1.55688e-19)
(6.83329 2.6061 -5.03157e-20)
(6.1449 2.83493 -4.72196e-20)
(6.44848 2.86351 -1.04847e-19)
(5.69449 3.09202 5.53835e-20)
(6.02621 3.13524 4.67616e-19)
(5.20045 3.35516 0)
(5.56154 3.41841 7.21818e-21)
(4.65812 3.61776 2.55186e-19)
(5.04879 3.70793 3.959e-19)
(4.06352 3.87017 2.4977e-19)
(4.48212 3.99573 -6.58986e-19)
(3.41499 4.0986 -2.29087e-18)
(3.85682 4.26944 -9.71578e-19)
(2.71608 4.2846 2.68375e-18)
(3.16953 4.51084 -1.24688e-18)
(1.97975 4.40536 -5.42523e-19)
(2.42927 4.69483 4.85e-18)
(1.23181 4.41372 -2.19402e-18)
(1.64602 4.79083 -5.13951e-18)
(0.884535 4.70599 2.84671e-18)
(9.98506 0.122875 4.64712e-22)
(9.99392 0.0856742 -3.92417e-22)
(9.95573 0.203513 4.53767e-22)
(9.97438 0.170066 4.02486e-22)
(9.9121 0.284614 0)
(9.93929 0.254365 0)
(9.85426 0.367548 -2.42136e-21)
(9.88962 0.339931 0)
(9.78238 0.453612 -2.86826e-21)
(9.82627 0.428144 -1.15899e-23)
(9.69654 0.543961 -3.5489e-21)
(9.74947 0.520251 -2.90434e-21)
(9.59667 0.639685 -7.11365e-21)
(9.65918 0.617395 9.08651e-22)
(9.48255 0.741873 -4.03235e-21)
(9.55522 0.720697 3.99343e-21)
(9.35385 0.851642 1.18897e-21)
(9.43732 0.831305 0)
(9.21008 0.970129 4.87524e-23)
(9.30512 0.950394 2.33812e-21)
(9.05066 1.09849 9.26759e-21)
(9.15812 1.07917 -3.27641e-21)
(8.87484 1.23791 3.28092e-20)
(8.99568 1.21885 2.35612e-21)
(8.6817 1.38956 2.72476e-20)
(8.81703 1.3707 1.08669e-20)
(8.47018 1.55464 -2.5576e-20)
(8.62119 1.53599 7.34542e-21)
(8.23898 1.73427 -9.15462e-21)
(8.40702 1.71599 -2.0392e-20)
(7.98655 1.92954 -2.29422e-20)
(8.17313 1.91194 5.05967e-20)
(7.71103 2.14145 -1.32684e-19)
(7.91783 2.12505 -4.2393e-20)
(7.41016 2.3708 7.25665e-20)
(7.63905 2.35645 -8.94216e-20)
(7.08118 2.61812 1.57857e-19)
(7.33424 2.60712 1.37418e-19)
(6.72066 2.88345 0)
(7.00021 2.87772 -2.21261e-20)
(6.3244 3.16616 4.15814e-19)
(6.63294 3.16848 1.86337e-19)
(5.88728 3.46447 4.15135e-19)
(6.22741 3.47881 2.71396e-19)
(5.40322 3.77477 4.07216e-19)
(5.77738 3.80682 7.22364e-21)
(4.86529 4.09069 -5.29001e-19)
(5.27521 4.14833 8.55684e-19)
(4.26643 4.40168 -1.88464e-18)
(4.71207 4.49562 -1.32979e-18)
(3.60103 4.69114 6.97226e-20)
(4.07899 4.83536 -9.72661e-19)
(2.86823 4.93459 1.00278e-18)
(3.36732 5.14585 1.944e-18)
(2.07745 5.09974 7.79069e-20)
(2.57957 5.39455 -9.79296e-19)
(1.25037 5.11317 5.30813e-20)
(1.71659 5.54119 7.6466e-20)
(0.904675 5.4494 1.54848e-20)
(9.98561 0.133721 -4.45211e-22)
(9.99417 0.0927187 -3.33233e-22)
(9.95748 0.221733 -5.60714e-23)
(9.9755 0.184173 -1.13027e-22)
(9.91583 0.310477 0)
(9.94205 0.275753 0)
(9.86079 0.401332 2.40954e-21)
(9.89488 0.368869 0)
(9.79254 0.495614 -8.18513e-23)
(9.83487 0.464896 1.91003e-21)
(9.71114 0.594545 1.59795e-21)
(9.76228 0.565122 9.46566e-22)
(9.61657 0.699303 1.20514e-20)
(9.67704 0.67077 -9.49537e-22)
(9.50864 0.811064 7.97929e-21)
(9.57903 0.783047 5.07832e-21)
(9.38706 0.931037 1.17531e-21)
(9.46803 0.903182 -3.00258e-21)
(9.25144 1.06046 -1.0514e-21)
(9.34375 1.03244 5.36649e-21)
(9.10122 1.20061 -1.01236e-20)
(9.20576 1.17213 -6.28445e-23)
(8.93573 1.35278 -1.94896e-20)
(9.05348 1.3236 -7.88393e-21)
(8.75413 1.51833 -9.07318e-21)
(8.88622 1.48824 -2.69456e-21)
(8.5554 1.69861 1.22308e-20)
(8.70309 1.66749 2.3401e-21)
(8.33827 1.89499 4.01135e-20)
(8.50301 1.86281 9.81045e-21)
(8.10122 2.10885 3.01756e-20)
(8.28465 2.07571 1.06115e-20)
(7.84234 2.34154 3.89448e-22)
(8.04636 2.30774 -9.37306e-21)
(7.55928 2.59436 -2.22804e-20)
(7.78605 2.56045 0)
(7.24907 2.86844 -4.419e-20)
(7.5011 2.83538 -2.20617e-20)
(6.90793 3.16463 1.66265e-19)
(7.18813 3.13396 8.49159e-20)
(6.53102 3.48327 4.27583e-20)
(6.84276 3.45736 1.87619e-19)
(6.1122 3.82375 -1.39217e-19)
(6.45929 3.80628 -2.23341e-19)
(5.64369 4.18375 4.64045e-19)
(6.03025 4.18035 0)
(5.11587 4.55803 3.34197e-20)
(5.54598 4.57718 6.23719e-19)
(4.51759 4.93648 -4.13214e-19)
(4.99414 4.9908 -7.98508e-19)
(3.83734 5.30115 9.37541e-19)
(4.36028 5.40888 2.43123e-19)
(3.06671 5.62256 -8.30711e-20)
(3.62777 5.8085 9.26836e-19)
(2.20838 5.85896 -9.59888e-19)
(2.7895 6.15048 -9.28335e-19)
(1.28257 5.90666 3.76409e-20)
(1.82476 6.38238 0)
(0.931625 6.31542 2.95741e-21)
(9.98629 0.144086 1.46337e-24)
(9.99447 0.0994289 5.0416e-22)
(9.95956 0.239083 -5.56099e-23)
(9.9768 0.197578 -5.62798e-23)
(9.92011 0.335024 0)
(9.9452 0.296009 0)
(9.86814 0.433322 -4.76898e-22)
(9.90076 0.396197 2.29306e-22)
(9.80381 0.535319 2.92698e-21)
(9.84437 0.499534 1.14374e-21)
(9.72722 0.642295 -1.62302e-21)
(9.77627 0.607347 3.3532e-21)
(9.63835 0.7555 -7.85174e-21)
(9.69645 0.720922 -4.87965e-21)
(9.5371 0.876194 -5.99669e-21)
(9.60482 0.841539 -6.88312e-21)
(9.42323 1.00567 1.28395e-21)
(9.50123 0.970505 1.01146e-21)
(9.29639 1.14525 6.29263e-21)
(9.38544 1.10917 -3.89141e-21)
(9.15614 1.29632 2.08897e-21)
(9.25712 1.25893 -2.08165e-21)
(9.00188 1.46031 8.96828e-21)
(9.11578 1.42124 4.22518e-21)
(8.83285 1.63871 8.7736e-21)
(8.96083 1.59762 9.62382e-23)
(8.64814 1.83305 0)
(8.79149 1.78966 4.48223e-21)
(8.44657 2.04496 -1.96786e-20)
(8.6068 1.99903 -4.51087e-21)
(8.22669 2.27609 -2.91405e-20)
(8.40556 2.2275 -1.71348e-20)
(7.98667 2.52818 -9.6682e-21)
(8.18622 2.47693 -1.1884e-20)
(7.72415 2.80305 0)
(7.94681 2.74932 -4.7655e-21)
(7.43613 3.10253 1.08096e-19)
(7.6848 3.04681 -9.90785e-21)
(7.11862 3.42839 1.07279e-19)
(7.3968 3.37166 1.07182e-19)
(6.7664 3.78222 -8.2338e-20)
(7.07835 3.72619 1.20038e-21)
(6.37248 4.16503 -8.20046e-20)
(6.72336 4.11265 -1.08766e-19)
(5.92754 4.57658 1.65493e-19)
(6.32356 4.5328 -1.99496e-20)
(5.41921 5.0141 -2.22491e-19)
(5.86754 4.98714 1.85692e-19)
(4.83155 5.46998 -1.30558e-19)
(5.33962 5.47332 -3.39782e-19)
(4.14525 5.92778 2.40352e-19)
(4.71913 5.98305 1.98797e-19)
(3.34036 6.35565 5.28673e-20)
(3.97858 6.49642 4.44268e-20)
(2.40581 6.70249 5.09557e-20)
(3.09595 6.97133 -4.21427e-20)
(1.354 6.82643 -3.48831e-20)
(2.01074 7.34111 -1.53293e-19)
(0.989014 7.3507 1.87865e-19)
(9.98708 0.153897 4.39665e-22)
(9.9948 0.105757 4.44974e-22)
(9.96191 0.255464 0)
(9.97824 0.210199 0)
(9.92487 0.358137 2.32028e-22)
(9.94867 0.315029 -1.11964e-22)
(9.87618 0.463378 1.86077e-21)
(9.90716 0.421795 1.15271e-22)
(9.81605 0.572557 1.59601e-21)
(9.85462 0.531915 2.56943e-24)
(9.74457 0.687004 0)
(9.79129 0.646749 -1.85002e-21)
(9.66179 0.808033 -3.93441e-21)
(9.71721 0.767638 9.50113e-22)
(9.56765 0.93697 2.16038e-22)
(9.63233 0.895923 -9.76691e-22)
(9.46198 1.07518 -4.2203e-21)
(9.53657 1.03298 4.01363e-21)
(9.34452 1.22408 -1.22451e-20)
(9.42979 1.18022 -3.96544e-21)
(9.21492 1.38513 1.24858e-22)
(9.31172 1.33912 -8.23847e-21)
(9.07269 1.55989 -4.69118e-21)
(9.18201 1.51124 -4.00345e-21)
(8.91719 1.74998 -4.14632e-21)
(9.04018 1.69821 -8.77254e-21)
(8.74765 1.9571 -1.24018e-22)
(8.88561 1.90175 4.48211e-21)
(8.56303 2.18308 -2.09994e-21)
(8.7175 2.12372 -4.51078e-21)
(8.36205 2.42988 1.74823e-22)
(8.53483 2.36611 2.33905e-21)
(8.14304 2.69963 -6.91132e-21)
(8.33628 2.6311 2.08758e-20)
(7.90381 2.99465 -1.47248e-20)
(8.12012 2.92111 -1.84171e-20)
(7.6415 3.31749 -9.70575e-21)
(7.88406 3.23887 -1.90895e-20)
(7.35224 3.67097 1.09086e-22)
(7.62502 3.58749 4.75928e-20)
(7.03073 4.05811 -2.62148e-20)
(7.33877 3.97049 -3.79191e-20)
(6.66965 4.48197 -4.5881e-20)
(7.01942 4.39191 1.2286e-20)
(6.2587 4.94524 2.11942e-21)
(6.65857 4.85615 -1.89263e-20)
(5.78333 5.4492 6.33079e-20)
(6.24409 5.36762 2.16882e-20)
(5.22299 5.99158 -4.41717e-21)
(5.75809 5.92974 -1.49386e-19)
(4.54945 6.5621 7.67695e-22)
(5.17446 6.54234 1.79617e-19)
(3.72652 7.13294 -5.24017e-20)
(4.45336 7.19583 4.45011e-20)
(2.71673 7.64874 -2.49183e-19)
(3.55136 7.85613 2.77439e-19)
(1.50159 7.92379 7.10707e-20)
(2.34175 8.45173 -8.30372e-19)
(1.12386 8.65337 5.72124e-19)
(9.98793 0.163094 0)
(9.99516 0.111664 8.66953e-22)
(9.96447 0.27079 -1.13297e-22)
(9.9798 0.221967 5.48603e-23)
(9.93 0.379714 -2.26043e-22)
(9.9524 0.332727 -5.63608e-23)
(9.88481 0.491375 -1.74417e-21)
(9.914 0.445559 1.55264e-21)
(9.8291 0.607178 -3.4652e-21)
(9.86549 0.561913 -1.15841e-21)
(9.76302 0.728492 -8.67056e-22)
(9.80718 0.683178 -4.63039e-22)
(9.68665 0.856682 3.8851e-21)
(9.73911 0.810738 9.50105e-22)
(9.59999 0.993134 2.87836e-21)
(9.66129 0.945984 4.8128e-21)
(9.50296 1.13927 4.17619e-21)
(9.57374 1.09034 -3.8452e-21)
(9.39539 1.29658 -7.76212e-24)
(9.47639 1.24528 1.39488e-20)
(9.27702 1.46661 -1.23195e-20)
(9.36907 1.41235 -4.41989e-23)
(9.14752 1.651 -8.13747e-21)
(9.25158 1.59318 -4.09043e-21)
(9.00639 1.85149 0)
(9.12356 1.78948 8.27141e-21)
(8.85302 2.06993 0)
(8.98459 2.0031 -8.30499e-21)
(8.68661 2.30834 0)
(8.83408 2.23604 -1.70501e-20)
(8.50608 2.56894 2.32286e-20)
(8.67126 2.49048 -1.79118e-22)
(8.31007 2.85419 8.97845e-21)
(8.49512 2.76887 4.47083e-20)
(8.09673 3.16691 -2.27899e-20)
(8.30429 3.074 -9.3323e-21)
(7.86356 3.51035 3.88456e-20)
(8.09695 3.40911 -3.56437e-20)
(7.60713 3.88834 8.77449e-21)
(7.87058 3.77808 1.00315e-19)
(7.32263 4.30542 1.05839e-21)
(7.62168 4.18561 -3.79266e-20)
(7.00313 4.76696 3.89521e-20)
(7.34519 4.63748 3.82767e-20)
(6.63849 5.2792 9.93484e-22)
(7.03371 5.14092 1.00334e-21)
(6.21346 5.84895 -1.92847e-19)
(6.67607 5.70489 1.36213e-19)
(5.70477 6.48251 3.85762e-20)
(6.25479 6.34033 -5.90878e-19)
(5.07653 7.18238 2.2164e-19)
(5.74214 7.05952 4.19855e-19)
(4.27381 7.93754 3.78662e-19)
(5.08963 7.87336 2.40842e-19)
(3.21715 8.70823 -3.34433e-19)
(4.23155 8.77837 6.49373e-20)
(1.81181 9.27814 -3.1729e-19)
(2.9424 9.73674 -6.79015e-19)
(1.44186 10.3694 -1.19239e-19)
(9.98885 0.17163 9.12123e-22)
(9.99554 0.117122 8.5881e-22)
(9.96719 0.284991 1.10477e-22)
(9.98145 0.232827 -7.81266e-22)
(9.93545 0.399665 1.74143e-21)
(9.95633 0.349028 2.83187e-23)
(9.89392 0.517209 2.10629e-21)
(9.92118 0.4674 1.13349e-22)
(9.84283 0.639057 1.85185e-21)
(9.87689 0.589421 -2.16567e-22)
(9.78237 0.766611 1.37059e-21)
(9.82377 0.716506 3.63479e-21)
(9.71268 0.901276 1.92292e-21)
(9.76193 0.85007 -4.56183e-21)
(9.63381 1.04448 -2.0108e-21)
(9.69145 0.991541 2.82595e-21)
(9.54578 1.19771 6.13066e-21)
(9.6124 1.14238 -3.84514e-21)
(9.44851 1.36248 1.37531e-20)
(9.52481 1.30411 9.81909e-21)
(9.34188 1.54041 8.13889e-21)
(9.42865 1.47832 -3.80745e-21)
(9.22568 1.73322 1.24538e-20)
(9.32383 1.66669 1.97817e-20)
(9.09961 1.94272 -2.12168e-22)
(9.21019 1.87099 1.61767e-20)
(8.96327 2.1709 -2.5448e-20)
(9.08749 2.09317 -8.30451e-21)
(8.81609 2.41991 -1.70572e-20)
(8.9554 2.3353 -1.7049e-20)
(8.65735 2.69216 2.1754e-20)
(8.81345 2.59973 -1.79106e-22)
(8.48604 2.99041 2.58599e-20)
(8.66102 2.88909 1.96644e-20)
(8.30082 3.31787 -2.24492e-20)
(8.49723 3.20642 6.90554e-23)
(8.09983 3.67837 2.71086e-20)
(8.3209 3.55538 -9.34546e-20)
(7.88044 4.07664 5.2331e-20)
(8.13036 3.94042 1.02547e-19)
(7.63889 4.51857 0)
(7.92323 4.36716 3.23269e-20)
(7.36965 5.01175 0)
(7.69606 4.84283 -3.17382e-20)
(7.06428 5.56605 1.37586e-19)
(7.44369 5.37711 -6.17279e-20)
(6.70953 6.1945 -2.69166e-19)
(7.15814 5.98318 -1.05596e-19)
(6.2837 6.91427 -1.98316e-19)
(6.82648 6.67963 -1.61047e-19)
(5.74968 7.74756 4.37074e-19)
(6.42717 7.49333 1.955e-19)
(5.04082 8.71923 -7.65054e-20)
(5.9177 8.46454 2.41274e-19)
(4.03051 9.8548 -3.01728e-19)
(5.23561 9.65212 -3.08572e-19)
(2.47118 11.014 -4.80009e-19)
(4.06311 11.155 0)
(2.2102 12.7876 -4.57506e-19)
(9.98982 0.179467 -8.54111e-22)
(9.99593 0.122108 -2.2882e-23)
(9.97006 0.298009 -8.53777e-22)
(9.98317 0.242735 -2.96224e-23)
(9.94115 0.417914 -1.59864e-21)
(9.96041 0.363875 7.85546e-22)
(9.9034 0.540779 -2.2133e-21)
(9.92864 0.487246 -4.4588e-23)
(9.8571 0.668065 1.61179e-21)
(9.8887 0.614354 -2.23714e-21)
(9.80246 0.801197 -2.39382e-21)
(9.84094 0.746631 1.42257e-21)
(9.73965 0.941611 -3.57264e-21)
(9.78553 0.885513 -3.75074e-21)
(9.66883 1.09077 9.14492e-22)
(9.7226 1.03245 9.42589e-22)
(9.59007 1.25017 0)
(9.65233 1.18894 -3.47757e-21)
(9.50343 1.4214 -7.89592e-21)
(9.57482 1.35652 -1.06084e-20)
(9.40891 1.6061 8.09941e-21)
(9.49019 1.53679 -1.14989e-20)
(9.30646 1.80602 2.34644e-20)
(9.39849 1.73148 8.58315e-21)
(9.19598 2.02306 7.81924e-21)
(9.29974 1.9424 6.08135e-22)
(9.0773 2.25924 0)
(9.19393 2.17152 0)
(8.95016 2.51684 0)
(9.081 2.42097 -3.0088e-20)
(8.81421 2.79838 -2.07024e-21)
(8.96084 2.69317 3.01002e-20)
(8.66892 3.10679 -6.32073e-21)
(8.83327 2.99084 -6.08038e-20)
(8.51356 3.44555 -7.18587e-20)
(8.69799 3.31716 6.3633e-20)
(8.34711 3.81889 -1.61827e-20)
(8.55458 3.67599 -6.82401e-20)
(8.1681 4.23211 8.18833e-20)
(8.40244 4.07208 1.69646e-19)
(7.97437 4.6921 -2.53321e-23)
(8.24069 4.51154 -1.44167e-19)
(7.76272 5.20803 -9.37624e-20)
(8.06805 5.00241 2.51307e-20)
(7.52821 5.79259 -3.05444e-19)
(7.88268 5.55572 -5.4171e-21)
(7.26292 6.46394 1.37224e-21)
(7.68193 6.18714 -4.00362e-19)
(6.95339 7.2492 2.36487e-19)
(7.46178 6.92006 4.44794e-19)
(6.57502 8.19139 0)
(7.2169 7.79148 -3.22554e-19)
(6.07795 9.36368 0)
(6.93689 8.86562 3.14328e-19)
(5.34135 10.9321 0)
(6.64836 10.2702 0)
(3.96163 13.3854 1.35171e-20)
(6.3694 12.3807 -2.6401e-22)
(5.48743 16.7465 5.05137e-20)
(-0.43786 0.320564 2.21698e-18)
(-0.215028 0.415496 5.252e-18)
(-1.09589 0.415146 2.43881e-20)
(-0.826983 0.590255 -2.8231e-18)
(-1.90257 0.467734 1.52514e-19)
(-1.59678 0.705967 1.28653e-18)
(-2.80599 0.491473 1.99694e-19)
(-2.48016 0.780029 -5.35343e-19)
(-3.7687 0.495198 -5.75983e-19)
(-3.4262 0.823043 -3.09997e-22)
(-4.76076 0.483675 -2.93973e-19)
(-4.40977 0.839685 -5.73492e-19)
(-5.75704 0.460106 1.44301e-20)
(-5.40622 0.833422 1.48428e-20)
(-6.7344 0.426385 -2.07532e-19)
(-6.39307 0.806158 -4.07613e-19)
(-7.66975 0.383683 -7.17257e-20)
(-7.34788 0.758889 1.11376e-19)
(-8.53899 0.332815 -1.97746e-20)
(-8.24715 0.692176 1.56067e-19)
(-9.31651 0.274465 -2.40014e-21)
(-9.06574 0.606521 8.29735e-20)
(-9.97532 0.209366 1.72717e-20)
(-9.77676 0.502665 -8.33172e-20)
(-10.4878 0.138372 4.24526e-21)
(-10.3521 0.381983 -3.44302e-20)
(-10.8269 0.0623831 8.40666e-21)
(-10.7635 0.246759 3.82209e-20)
(-10.9675 -0.0178115 -3.98561e-21)
(-10.9839 0.0997767 -1.30681e-20)
(-10.8902 -0.101376 -8.34143e-21)
(-10.9905 -0.0534846 -8.23639e-21)
(-10.5806 -0.185175 7.49592e-21)
(-10.77 -0.2089 3.85222e-21)
(-10.0385 -0.264032 8.98447e-22)
(-10.3179 -0.356552 6.72868e-21)
(-9.27767 -0.333508 -6.72637e-21)
(-9.64212 -0.487954 -6.81702e-21)
(-8.32276 -0.390373 1.81172e-22)
(-8.76311 -0.59714 7.07584e-22)
(-7.207 -0.432613 0)
(-7.71083 -0.680446 -5.98363e-22)
(-5.96892 -0.459333 -1.19356e-21)
(-6.52238 -0.736478 -4.97836e-22)
(-4.64941 -0.470485 4.29517e-22)
(-5.23896 -0.765748 -1.39896e-21)
(-3.28935 -0.466761 1.80367e-21)
(-3.90187 -0.770129 1.72419e-21)
(-1.92638 -0.45071 1.17723e-22)
(-2.54769 -0.753165 5.25899e-23)
(-0.582116 -0.422924 4.3091e-23)
(-1.17864 -0.72501 -6.43717e-22)
(0.715359 -0.387516 4.13736e-24)
(0.182776 -0.683058 1.14292e-22)
(1.95178 -0.355762 -4.95216e-23)
(1.41072 -0.635424 -4.85445e-23)
(3.14777 -0.349915 -3.23522e-24)
(2.6147 -0.600058 -1.02698e-24)
(4.10157 -0.628351 0)
(-0.574374 0.813347 3.64546e-19)
(-0.275269 1.01627 3.09573e-18)
(-1.32337 0.99547 -1.62103e-18)
(-0.947112 1.2786 -6.78232e-20)
(-2.1667 1.1174 6.15483e-19)
(-1.76211 1.45729 -3.57905e-18)
(-3.0813 1.19638 -7.41401e-19)
(-2.65332 1.57976 2.1503e-18)
(-4.04183 1.23816 5.04618e-21)
(-3.59019 1.65147 -8.8888e-19)
(-5.0249 1.24633 -2.70554e-19)
(-4.55549 1.67684 1.15203e-19)
(-6.00837 1.22335 -4.02861e-19)
(-5.52889 1.65955 5.11767e-19)
(-6.97032 1.17052 -9.51099e-20)
(-6.49039 1.60181 -2.38277e-19)
(-7.88799 1.08848 3.37415e-19)
(-7.41891 1.50477 -4.38269e-19)
(-8.73713 0.977657 2.59512e-19)
(-8.29171 1.3691 4.87975e-19)
(-9.49172 0.838746 4.19043e-21)
(-9.08386 1.19552 -1.55338e-19)
(-10.1242 0.673148 -1.35612e-19)
(-9.76823 0.985388 1.65373e-21)