# vtk DataFile Version 4.2
vtk output
ASCII
DATASET STRUCTURED_POINTS
DIMENSIONS 102 2 2
SPACING 0.1 0 0
ORIGIN 0 0 0
CELL_DATA 101
FIELD FieldData 3
velocity 1 101 double
12.853169549 12.813028732 12.769837033 12.725620042 12.678619019 12.630519921 12.579888694 12.52811036 12.474037015 
12.418790827 12.36147293 12.302978616 12.242623501 12.181109028 12.117933912 12.053635386 11.987867319 11.921028856 
11.852904528 11.783778049 11.713543455 11.642388399 11.570298364 11.497381282 11.42369886 11.349292882 11.274288608 
11.198672776 11.122623787 11.046082249 10.969271268 10.892092325 10.814806515 10.737281529 10.65981122 10.582233399 
10.504870691 10.427533744 10.350571015 10.273767708 10.197496021 10.121516642 10.046224086 9.9713548442 9.8973248157 
9.8238462026 9.751355666 9.679540791 9.6088585286 9.5389714712 9.4703563578 9.4026505548 9.3363498795 9.2710665767 
9.2073144399 9.1446812358 9.0836970464 9.0239265509 8.9659136472 8.9092022792 8.8543466945 8.8008736369 8.7493430294 
8.6992693564 8.6512121174 8.6046801076 8.5602246596 8.5173572995 8.4766115924 8.4375122758 8.4005634833 8.3653159029 
8.3322303201 8.3008985462 8.2717216843 8.2443504205 8.2191072902 8.1957222934 8.1744178683 8.1550265145 8.137646361 
8.1222383411 8.1087493999 8.0972975217 8.0876490263 8.0801101027 8.074234617 8.0705504173 8.0683649752 8.0684632174 
8.0698705479 8.0736659097 8.0785557309 8.085950859 8.0942012246 8.1050877234 8.1165664073 8.1308257892 8.1453916953 
8.1628962782 8.1804008611 
pressure 1 101 double
263.96978525 260.13953098 256.30927672 252.13592485 247.92067249 243.41618021 238.83667599 234.0142192 229.0915416 
223.96555964 218.72114677 213.30735582 207.76304862 202.07843245 196.25652412 190.31930824 184.24259232 178.07220525 
171.764017 165.3810409 158.86528797 152.29139964 145.59257907 138.85048177 131.99368139 125.10702716 118.11790996 
111.11121215 104.01598283 96.914518399 89.73987188 82.569573072 75.342624885 68.129960249 60.878159409 53.650004207 
46.401029327 39.18452588 31.966165727 24.788574509 17.628594512 10.517137196 3.4431337488 -3.5751702394 -10.535925569 
-17.434427106 -24.255151075 -31.007741815 -37.662308136 -44.243591005 -50.706701371 -57.092158489 -63.33951317 -69.505668529 
-75.514133696 -81.438707898 -87.186476876 -92.84853131 -98.315277095 -103.69534507 -108.86236165 -113.94256423 -118.79289445 
-123.55703903 -128.07558719 -132.50924718 -136.68287474 -140.77344918 -144.5910524 -148.32780467 -151.78037357 -155.15444892 
-158.23510702 -161.23952891 -163.94355399 -166.57319995 -168.89802595 -171.14958381 -173.09478485 -174.96669082 -176.533948 
-178.02630824 -179.21936059 -180.33385839 -181.15843903 -181.8982298 -182.36198882 -182.73158545 -182.84400065 -182.84915192 
-182.62142878 -182.2689935 -181.7139554 -181.01177531 -180.14374494 -179.10051907 -177.93519176 -176.56035533 -175.11466457 
-173.41827526 -171.71025072 
crossSection 1 101 double
1.0304646594 1.0300127104 1.0295610587 1.029069288 1.0285729376 1.0280429256 1.0275045074 1.026937982 1.0263601661 
1.0257590049 1.0251445008 1.0245107293 1.0238622876 1.0231980749 1.0225184902 1.0218261429 1.0211182561 1.0204002099 
1.0196669104 1.0189257215 1.0181699478 1.0174082827 1.0166330216 1.0158536463 1.0150619305 1.0142676988 1.0134626029 
1.0126564436 1.0118410781 1.0110259818 1.0102034855 1.0093824899 1.0085560204 1.0077321959 1.0069049186 1.006081352 
1.0052564276 1.0044362059 1.0036167769 1.0028029699 1.0019921454 1.0011877889 1.0003886293 0.99959670726 0.9988122073 
0.99803563436 0.99726870702 0.9965103111 0.99576377053 0.99502627605 0.99430282099 0.9935888327 0.99289103032 0.99220301814 
0.99153328854 0.99087357353 0.99023417522 0.98960491696 0.98899793349 0.9884011191 0.98782844705 0.98726588188 0.98672922036 
0.98620252066 0.98570336243 0.98521394995 0.9847535743 0.98430267295 0.98388214036 0.98347077495 0.98309092352 0.98271992051 
0.98238136416 0.98205135445 0.98175448289 0.98146590642 0.98121088674 0.98096399887 0.98075077867 0.98054565823 0.98037397019 
0.98021052879 0.98007989661 0.97995788927 0.97986763468 0.97978667138 0.97973592234 0.97969548029 0.97968318007 0.97968261644 
0.9797075336 0.97974609848 0.97980683758 0.97988368686 0.97997869993 0.98009290788 0.98022050658 0.98037107774 0.98052944625 
0.98071532651 0.98090253511 
