/*--------------------------------*- C++ -*----------------------------------*\
| =========                 |                                                 |
| \\      /  F ield         | OpenFOAM: The Open Source CFD Toolbox           |
|  \\    /   O peration     | Version:  5.x                                   |
|   \\  /    A nd           | Web:      www.OpenFOAM.org                      |
|    \\/     M anipulation  |                                                 |
\*---------------------------------------------------------------------------*/
FoamFile
{
    version     2.0;
    format      ascii;
    class       surfaceVectorField;
    location    "0.9";
    object      Uf;
}
// * * * * * * * * * * * * * * * * * * * * * * * * * * * * * * * * * * * * * //

dimensions      [0 1 -1 0 0 0 0];

internalField   nonuniform List<vector> 
5457
(
(9.91421 -2.80562e-19 0.0232724)
(9.96059 1.70018e-20 0.0368728)
(9.81769 -1.39248e-19 0.0292001)
(9.92528 -5.38142e-20 0.042843)
(9.70939 7.68343e-20 0.0340254)
(9.86217 3.61834e-20 0.0498684)
(9.58671 -5.30844e-21 0.03908)
(9.77509 9.97717e-22 0.0585926)
(9.44972 5.49556e-21 0.0443207)
(9.67151 -1.2952e-21 0.0678197)
(9.2987 7.89724e-20 0.0497799)
(9.5537 1.61687e-21 0.0774703)
(9.13347 1.31794e-19 0.0555845)
(9.42126 -8.11758e-20 0.087777)
(8.95358 8.20618e-20 0.0618569)
(9.2734 2.55693e-19 0.0989353)
(8.75838 -4.36006e-20 0.0687078)
(9.10938 -3.46561e-19 0.111111)
(8.54705 0 0.0762484)
(8.92858 0 0.124474)
(8.31861 0 0.0845987)
(8.73025 -4.62608e-20 0.1392)
(8.07195 0 0.0938915)
(8.51338 0 0.155489)
(7.8058 0 0.10427)
(8.2768 0 0.173557)
(7.51879 2.90273e-20 0.115882)
(8.01921 0 0.193626)
(7.20947 2.80782e-20 0.128885)
(7.7392 -9.18947e-19 0.21591)
(6.87631 0 0.14345)
(7.43528 1.74231e-18 0.240626)
(6.51777 0 0.159758)
(7.10587 -9.34305e-19 0.267999)
(6.1323 1.42282e-19 0.177978)
(6.74939 0 0.298224)
(5.71848 1.37824e-19 0.198253)
(6.36426 -2.06436e-18 0.331417)
(5.27514 6.4401e-19 0.220686)
(5.94903 2.15767e-18 0.367582)
(4.80145 9.772e-19 0.245318)
(5.50248 -1.38022e-18 0.406573)
(4.29714 3.57303e-19 0.272091)
(5.02377 3.05288e-18 0.448034)
(3.76263 -1.54239e-18 0.300786)
(4.5126 6.53698e-19 0.491283)
(3.19941 5.93262e-19 0.330971)
(3.96937 -1.53648e-18 0.535171)
(2.61024 -1.56902e-18 0.36194)
(3.39551 2.44729e-18 0.57799)
(1.99944 -5.54663e-18 0.392499)
(2.79381 1.85513e-18 0.617288)
(1.37336 2.27784e-18 0.419101)
(2.1687 -7.76173e-18 0.649361)
(0.742245 4.22422e-18 0.405712)
(1.52728 5.99242e-18 0.666277)
(0.141558 -1.31809e-18 -0.00354535)
(0.839418 -1.53301e-17 0.621899)
(0.33065 1.80096e-17 0.149775)
(10.0017 2.42258e-19 0.0459816)
(9.99044 1.55353e-19 0.0361415)
(9.97104 1.23354e-19 0.0601391)
(9.98316 3.69474e-19 0.0564181)
(9.92189 -4.03176e-20 0.0724868)
(9.95171 3.96858e-19 0.0724756)
(9.85609 4.96838e-21 0.0857642)
(9.8966 -1.73692e-23 0.0899898)
(9.77365 -5.12051e-21 0.0998701)
(9.82412 7.7076e-20 0.108608)
(9.67471 -1.60027e-19 0.114833)
(9.73665 -2.35113e-19 0.128198)
(9.5592 4.87117e-20 0.130918)
(9.63413 -5.66005e-22 0.149113)
(9.42681 -1.83517e-19 0.148402)
(9.51589 2.9217e-19 0.171731)
(9.27696 -2.96969e-19 0.167539)
(9.38127 -2.16599e-19 0.196391)
(9.10896 -4.70561e-20 0.188589)
(9.22978 -4.42988e-19 0.223419)
(8.92192 -4.5477e-20 0.211835)
(9.06082 3.62935e-19 0.25318)
(8.7148 0 0.23759)
(8.87345 7.58198e-19 0.286083)
(8.48637 0 0.266183)
(8.66662 -7.77807e-19 0.32257)
(8.2353 -9.6331e-19 0.297942)
(8.43917 -8.13796e-19 0.363101)
(7.96013 8.39196e-19 0.333196)
(8.18976 -5.91189e-20 0.408131)
(7.6593 7.64336e-19 0.372282)
(7.91695 1.79727e-18 0.458124)
(7.3312 -9.19258e-19 0.415524)
(7.61919 -8.2113e-19 0.513573)
(6.97413 -2.23973e-18 0.463171)
(7.29487 -1.90302e-18 0.574931)
(6.58647 2.11105e-20 0.515336)
(6.9423 -4.87433e-19 0.642515)
(6.16671 7.95958e-20 0.571941)
(6.55976 2.15783e-18 0.716444)
(5.7136 7.60814e-19 0.632651)
(6.14564 -2.28514e-18 0.796552)
(5.22626 3.31628e-18 0.696747)
(5.69845 3.27119e-18 0.882294)
(4.70432 6.30784e-19 0.762923)
(5.21704 4.18709e-20 0.972528)
(4.14824 3.65441e-19 0.82907)
(4.70041 5.04081e-18 1.06514)
(3.5596 5.85977e-18 0.891942)
(4.14802 -2.6059e-19 1.15676)
(2.94181 -4.33416e-19 0.946207)
(3.56007 1.18129e-17 1.24205)
(2.30147 -3.98734e-18 0.980943)
(2.93712 -1.99143e-17 1.31163)
(1.65247 -1.34784e-17 0.966483)
(2.28077 1.76771e-18 1.34427)
(0.999612 4.6914e-18 0.852065)
(1.54213 -1.52583e-17 1.29292)
(0.955433 1.91429e-17 1.10087)
(9.99454 2.86265e-19 0.0496876)
(9.98815 0 0.038504)
(9.96762 6.4356e-19 0.0719088)
(9.97843 -4.90335e-19 0.0683907)
(9.92226 4.2963e-19 0.092697)
(9.94811 4.32498e-19 0.0934046)
(9.86147 7.35749e-20 0.114787)
(9.89605 -7.30396e-20 0.119076)
(9.78569 -1.58648e-19 0.13832)
(9.82735 5.37542e-22 0.146188)
(9.69497 -7.14213e-20 0.163407)
(9.74444 -1.55407e-19 0.174809)
(9.58928 2.48109e-19 0.190417)
(9.64756 -2.38858e-19 0.205345)
(9.4684 2.50201e-19 0.219765)
(9.53614 1.12553e-21 0.238316)
(9.3319 -3.66519e-19 0.25185)
(9.40965 -8.39085e-20 0.274203)
(9.17923 -1.92237e-20 0.287096)
(9.26776 -1.05786e-18 0.313473)
(9.00964 1.17343e-18 0.32598)
(9.10998 1.12814e-18 0.356671)
(8.82224 -4.53997e-20 0.369022)
(8.93559 1.50665e-18 0.404394)
(8.616 -1.59241e-18 0.416779)
(8.74376 -1.52035e-18 0.45728)
(8.38974 1.02864e-19 0.469824)
(8.53358 -2.41396e-18 0.516018)
(8.14215 9.29662e-19 0.528732)
(8.304 2.47756e-18 0.581304)
(7.87181 1.68925e-19 0.594108)
(8.05373 5.46215e-20 0.65385)
(7.57717 -1.82207e-18 0.66656)
(7.78148 2.52738e-21 0.734432)
(7.25654 -1.28986e-19 0.746599)
(7.48589 -1.67421e-18 0.823817)
(6.90817 1.69109e-18 0.834548)
(7.16537 1.95712e-18 0.922627)
(6.53022 -2.74526e-19 0.930439)
(6.81823 -3.99825e-18 1.03125)
(6.12088 3.06751e-19 1.03391)
(6.44261 3.85009e-18 1.14972)
(5.67837 -4.71052e-20 1.14406)
(6.03647 -4.31767e-18 1.2776)
(5.20093 4.51372e-18 1.25907)
(5.59788 3.89341e-18 1.41378)
(4.68677 4.35703e-18 1.37576)
(5.12427 5.03647e-18 1.5559)
(4.13429 5.81277e-18 1.48913)
(4.61233 6.11135e-19 1.6998)
(3.5417 -7.88242e-18 1.59134)
(4.05816 6.35766e-18 1.83909)
(2.90494 -1.40696e-17 1.66948)
(3.45541 -1.27093e-17 1.96404)
(2.20801 -7.7302e-21 1.70229)
(2.79585 -1.46235e-18 2.05993)
(1.39447 0 1.68357)
(2.02373 0 2.11399)
(1.23848 -2.99354e-17 2.14922)
(9.99012 -7.85289e-19 0.05758)
(9.98683 -5.48154e-19 0.0427665)
(9.96328 -6.8354e-19 0.0891107)
(9.97513 -2.11908e-19 0.0803352)
(9.91878 -7.978e-20 0.118983)
(9.94452 -3.58269e-19 0.113953)
(9.85895 -1.4469e-19 0.14973)
(9.89348 -6.76973e-22 0.147722)
(9.78463 9.39725e-22 0.182021)
(9.82613 6.03375e-19 0.183078)
(9.69596 -3.24389e-19 0.216235)
(9.74488 1.66729e-21 0.220407)
(9.59298 -4.81681e-19 0.25289)
(9.65014 -3.19588e-19 0.260193)
(9.47555 -3.34542e-19 0.292551)
(9.54143 -1.64909e-19 0.303058)
(9.34344 -7.92079e-19 0.335766)
(9.41838 -1.34806e-21 0.349595)
(9.19624 1.26751e-19 0.383125)
(9.28072 -4.42084e-19 0.400403)
(9.03339 1.4678e-18 0.435283)
(9.12809 8.97217e-19 0.456174)
(8.85426 -1.88809e-20 0.492939)
(8.95998 -7.28157e-19 0.517644)
(8.65815 -2.35677e-18 0.556854)
(8.77577 2.26764e-18 0.585583)
(8.44421 4.0827e-20 0.627842)
(8.57485 -3.15643e-18 0.660875)
(8.21145 1.56341e-18 0.706728)
(8.35652 1.64013e-18 0.744456)
(7.95876 -1.12637e-19 0.79437)
(8.11978 -1.0432e-19 0.837243)
(7.68499 1.23885e-19 0.891683)
(7.8636 -1.10905e-19 0.940225)
(7.38882 4.68924e-19 0.99953)
(7.58705 5.1204e-21 1.05447)
(7.06875 -3.82288e-18 1.11859)
(7.28893 3.50722e-18 1.18096)
(6.72306 2.39183e-19 1.24923)
(6.96783 -7.82689e-18 1.32045)
(6.34975 -8.86449e-19 1.39138)
(6.62203 3.62376e-18 1.47336)
(5.94663 -2.72277e-19 1.54442)
(6.24929 3.44057e-18 1.6396)
(5.51093 4.43483e-18 1.70678)
(5.8472 -4.07898e-18 1.81857)
(5.03886 1.24283e-18 1.87532)
(5.41244 8.98459e-18 2.00857)
(4.52523 1.21988e-18 2.04501)
(4.93961 -9.22209e-18 2.20599)
(3.96246 1.37866e-18 2.20868)
(4.42136 0 2.40549)
(3.33773 -8.77413e-20 2.35699)
(3.84661 1.36808e-18 2.60046)
(2.62596 -1.45857e-18 2.47762)
(3.20196 -1.44761e-18 2.7839)
(1.79713 -3.05434e-17 2.59202)
(2.45384 -6.92082e-19 2.94543)
(1.53927 -2.64503e-17 3.17524)
(9.98785 3.1197e-20 0.0661596)
(9.98626 -1.04362e-21 0.0480007)
(9.96048 1.1055e-19 0.105522)
(9.97332 5.60039e-19 0.0925239)
(9.91668 -2.72361e-19 0.143353)
(9.94251 -4.30199e-19 0.134188)
(9.85786 7.58759e-19 0.181983)
(9.89241 4.39677e-19 0.175907)
(9.78487 5.93243e-19 0.222469)
(9.82651 4.13149e-21 0.21933)
(9.69797 7.38263e-22 0.265411)
(9.74704 7.51831e-22 0.265133)
(9.59718 0 0.311428)
(9.65444 0 0.313916)
(9.48246 1.71218e-19 0.361172)
(9.54831 0 0.366375)
(9.35361 3.41332e-19 0.415295)
(9.42839 1.68347e-19 0.423205)
(9.21033 3.51168e-19 0.474506)
(9.29441 5.17997e-19 0.485126)
(9.05218 -1.32648e-18 0.539576)
(9.14611 -7.0018e-19 0.552948)
(8.87869 1.60781e-18 0.611311)
(8.98314 -2.11238e-20 0.627513)
(8.68937 1.38073e-18 0.690597)
(8.80503 1.52455e-18 0.709687)
(8.48368 -1.47976e-18 0.778442)
(8.61128 -1.5838e-18 0.800474)
(8.26089 -5.61665e-20 0.875881)
(8.40149 -1.544e-18 0.90104)
(8.0202 -1.02725e-19 0.98395)
(8.175 1.62787e-18 1.0125)
(7.76076 -2.27836e-19 1.10378)
(7.93092 3.39639e-18 1.13599)
(7.4817 3.09637e-18 1.23655)
(7.66866 -1.90488e-19 1.2728)
(7.18189 -6.62286e-19 1.3833)
(7.3874 3.75634e-18 1.42425)
(6.85996 -4.27899e-18 1.54485)
(7.08612 -3.79368e-18 1.59148)
(6.51404 7.94109e-18 1.72161)
(6.76339 -3.84562e-18 1.77544)
(6.14171 -4.48049e-19 1.91351)
(6.4171 8.32189e-18 1.97665)
(5.7399 6.11316e-19 2.11979)
(6.04453 -8.56266e-18 2.19514)
(5.30394 -1.64211e-18 2.33833)
(5.64231 8.97575e-18 2.4304)
(4.82653 -1.03671e-17 2.56534)
(5.20461 -5.06734e-19 2.68043)
(4.29695 0 2.79597)
(4.72242 -1.022e-17 2.94175)
(3.70004 0 3.02541)
(4.18339 0 3.21052)
(3.01084 -6.8595e-19 3.24373)
(3.56964 0 3.48522)
(2.23038 2.52937e-18 3.48419)
(2.89634 -6.74762e-19 3.73395)
(1.88206 1.66773e-18 4.14579)
(9.98675 5.3773e-19 0.0751356)
(9.98604 1.56882e-18 0.0537097)
(9.95901 0 0.12181)
(9.97248 4.85774e-19 0.104882)
(9.91598 2.98476e-19 0.167397)
(9.94175 7.09954e-19 0.154078)
(9.85847 -3.23136e-19 0.213941)
(9.89274 -2.88484e-19 0.20349)
(9.78719 -5.88654e-19 0.26265)
(9.82853 -5.9965e-19 0.254768)
(9.70239 0 0.314274)
(9.75118 0 0.308815)
(9.60415 0 0.369511)
(9.6611 -3.12917e-19 0.366338)
(9.49245 0 0.429091)
(9.55798 0 0.4281)
(9.36713 3.50934e-19 0.49377)
(9.44161 -9.91125e-19 0.494895)
(9.22795 -5.53919e-19 0.564362)
(9.31172 1.18984e-18 0.567547)
(9.0746 6.16672e-19 0.641746)
(9.16813 5.17735e-19 0.646948)
(8.90672 -7.89469e-20 0.726834)
(9.01062 3.28147e-20 0.734048)
(8.72388 -1.49184e-18 0.820606)
(8.83884 -2.96524e-18 0.82982)
(8.5257 -1.647e-18 0.924207)
(8.65228 3.02164e-18 0.935335)
(8.31177 1.8915e-19 1.03888)
(8.45072 -3.14546e-18 1.05189)
(8.08146 5.15586e-18 1.16585)
(8.23383 1.73375e-18 1.18084)
(7.83415 3.38206e-18 1.30639)
(8.00088 3.60484e-18 1.32347)
(7.56923 5.27797e-19 1.46192)
(7.75139 3.40236e-20 1.4812)
(7.28595 5.16604e-19 1.63385)
(7.48493 4.87096e-19 1.65564)
(6.98327 -3.35759e-18 1.82346)
(7.20071 3.55144e-20 1.84831)
(6.65962 -3.30734e-18 2.03176)
(6.89754 -3.3498e-18 2.06071)
(6.31262 0 2.25938)
(6.57384 0 2.29414)
(5.93914 0 2.50656)
(6.2269 7.89028e-18 2.54936)
(5.53461 1.00012e-17 2.77278)
(5.85338 -8.062e-18 2.82704)
(5.09173 -4.07646e-19 3.05603)
(5.44816 8.8639e-18 3.12706)
(4.59934 -1.01758e-17 3.35347)
(5.00267 -9.11699e-18 3.44793)
(4.04347 0 3.66359)
(4.50594 0 3.78688)
(3.39792 1.15026e-20 3.97355)
(3.93147 0 4.14875)
(2.69065 -1.44573e-18 4.31893)
(3.36792 5.23858e-19 4.46195)
(2.26753 1.93542e-17 5.03999)
(9.98625 1.4982e-18 0.0843108)
(9.98598 2.16357e-21 0.0596314)
(9.95848 1.20037e-18 0.137954)
(9.97225 -1.37132e-19 0.117265)
(9.91635 1.03988e-19 0.190961)
(9.94193 1.44051e-19 0.173568)
(9.86036 -5.7079e-19 0.245145)
(9.89419 2.87417e-19 0.230366)
(9.79107 0 0.301784)
(9.83189 -5.92623e-19 0.289256)
(9.70876 -3.1853e-19 0.361756)
(9.75695 3.02826e-19 0.35127)
(9.61353 -3.07564e-19 0.425853)
(9.66981 -6.25031e-19 0.417219)
(9.50537 -1.00831e-18 0.494896)
(9.57016 6.35276e-19 0.487948)
(9.38415 -1.1579e-19 0.569735)
(9.45782 -3.39025e-19 0.564349)
(9.24969 2.25114e-18 0.651269)
(9.3326 5.11031e-19 0.647322)
(9.10174 -7.37867e-20 0.740463)
(9.19436 1.94961e-20 0.737826)
(8.94004 -2.90312e-18 0.838337)
(9.04294 1.56856e-18 0.836903)
(8.76423 1.64383e-18 0.945958)
(8.87809 -2.73826e-18 0.945652)
(8.57399 1.42909e-18 1.06454)
(8.69938 5.941e-18 1.06521)
(8.36909 -1.5268e-18 1.19549)
(8.5066 -4.63553e-18 1.19691)
(8.14913 2.08691e-19 1.34022)
(8.29963 0 1.34233)
(7.91365 2.02722e-19 1.50014)
(8.07805 1.04365e-19 1.50293)
(7.66223 0 1.67688)
(7.84134 0 1.68023)
(7.39434 0 1.87216)
(7.58942 -6.81244e-18 1.87611)
(7.10914 0 2.0877)
(7.32161 6.93622e-18 2.09249)
(6.80547 0 2.32518)
(7.03688 0 2.3313)
(6.4814 7.97156e-18 2.58599)
(6.73426 -7.8058e-18 2.59457)
(6.13396 -3.09763e-19 2.8713)
(6.41154 1.53738e-17 2.88397)
(5.75896 -9.05345e-18 3.18212)
(6.06558 -8.05829e-18 3.20116)
(5.35024 4.05534e-20 3.51839)
(5.69207 1.4667e-17 3.54759)
(4.89814 1.07286e-18 3.8784)
(5.28402 -1.49239e-17 3.9235)
(4.39157 0 4.2623)
(4.83428 0 4.32557)
(3.80117 5.07625e-19 4.65135)
(4.30097 1.59167e-20 4.76695)
(3.17809 2.19974e-17 5.07354)
(3.8652 5.74907e-19 5.12007)
(2.68709 1.73071e-18 5.83255)
(9.98613 -1.63619e-18 0.0935161)
(9.98601 -2.10168e-18 0.0656075)
(9.95866 -1.18837e-18 0.153837)
(9.97247 -6.23328e-19 0.12952)
(9.91764 3.3021e-19 0.213916)
(9.94288 -5.66407e-19 0.192566)
(9.8634 2.49613e-19 0.275447)
(9.8966 5.81315e-19 0.256432)
(9.79637 -2.73771e-19 0.339732)
(9.83644 -2.9893e-19 0.322657)
(9.71688 -1.99388e-20 0.407745)
(9.76425 3.02993e-19 0.392328)
(9.62504 3.39776e-19 0.480372)
(9.68039 9.2112e-19 0.466361)
(9.52086 1.28873e-18 0.558519)
(9.5846 6.38839e-19 0.545696)
(9.40425 3.02315e-19 0.643115)
(9.47673 -6.36731e-19 0.631289)
(9.27509 -1.73006e-18 0.73513)
(9.3567 3.26862e-19 0.724111)
(9.13319 1.68668e-18 0.835607)
(9.2244 -1.04137e-18 0.8252)
(8.97834 1.66807e-18 0.945662)
(9.07972 4.21634e-18 0.935677)
(8.81028 1.6935e-18 1.06646)
(8.92246 -2.67951e-18 1.05674)
(8.62876 -2.84649e-19 1.19926)
(8.7524 3.16556e-18 1.1896)
(8.43359 -3.04109e-18 1.34557)
(8.56921 -6.13209e-18 1.33564)
(8.22461 -1.0291e-19 1.507)
(8.37291 3.04741e-18 1.49655)
(8.00147 -1.00077e-19 1.68511)
(8.16343 -2.24192e-19 1.67401)
(7.76392 -6.90576e-18 1.88168)
(7.94021 0 1.86965)
(7.51162 2.93337e-19 2.09878)
(7.70326 -6.61664e-18 2.08555)
(7.24388 6.85945e-18 2.33849)
(7.45223 6.9445e-18 2.32408)
(6.95982 -7.89121e-18 2.60307)
(7.18635 -7.31849e-18 2.58753)
(6.6581 -1.82349e-19 2.89474)
(6.90492 -3.79679e-19 2.8785)
(6.33637 7.42571e-18 3.21558)
(6.60646 7.48734e-18 3.19961)
(5.99104 1.57994e-17 3.5676)
(6.28839 0 3.55338)
(5.61711 -4.00359e-19 3.95239)
(5.9472 1.38518e-18 3.94226)
(5.20689 -1.59648e-17 4.36884)
(5.57704 -7.88873e-19 4.36798)
(4.75319 1.58515e-20 4.8172)
(5.1768 5.83554e-20 4.82511)
(4.22247 8.19848e-20 5.27085)
(4.68197 4.67868e-19 5.33729)
(3.67647 -1.94933e-17 5.74002)
(4.37354 -1.50613e-17 5.71098)
(3.12488 -1.82347e-18 6.51388)
(9.98629 -1.06298e-18 0.102614)
(9.98612 1.0748e-18 0.0715132)
(9.95942 0 0.169343)
(9.97303 0 0.141516)
(9.91969 -2.93691e-19 0.236163)
(9.94444 0 0.210986)
(9.86742 1.64655e-20 0.304729)
(9.89978 -2.88322e-19 0.281581)
(9.80298 2.88814e-19 0.376353)
(9.84202 8.78304e-19 0.354816)
(9.72665 1.25518e-18 0.452077)
(9.77289 5.96985e-19 0.431814)
(9.63857 1.21577e-18 0.532874)
(9.69265 1.23468e-18 0.51358)
(9.53875 -1.3089e-18 0.61972)
(9.60108 -6.202e-19 0.601131)
(9.42721 -5.9695e-19 0.713605)
(9.49814 -6.52251e-19 0.695464)
(9.30388 9.9463e-19 0.815577)
(9.38377 -9.75698e-19 0.797616)
(9.16862 1.57174e-18 0.92676)
(9.25794 1.00255e-18 0.908718)
(9.02128 -2.39189e-19 1.04834)
(9.1206 1.22041e-18 1.02997)
(8.8617 -1.12009e-18 1.18158)
(8.97159 -1.59447e-18 1.16261)
(8.68971 -2.82103e-18 1.3278)
(8.81087 2.72337e-19 1.30797)
(8.50515 8.93881e-20 1.48858)
(8.63813 -5.70713e-18 1.46749)
(8.30799 2.88333e-18 1.66566)
(8.4534 5.93473e-18 1.6429)
(8.09809 -1.21132e-19 1.86078)
(8.25687 2.96349e-18 1.83608)
(7.87517 2.07129e-19 2.07589)
(8.04817 -3.10488e-18 2.04886)
(7.6391 2.02221e-19 2.31333)
(7.82705 5.24901e-21 2.28343)
(7.38959 -7.40102e-18 2.57558)
(7.59362 1.00719e-19 2.54248)
(7.12599 2.52595e-19 2.86534)
(7.3476 -7.01719e-18 2.82875)
(6.84734 7.37556e-18 3.18556)
(7.08838 7.65105e-18 3.14529)
(6.55198 0 3.5392)
(6.81519 -1.05435e-19 3.4956)
(6.23725 -1.43837e-17 3.92908)
(6.52602 0 3.88298)
(5.89919 9.37593e-19 4.35773)
(6.21834 -1.4757e-17 4.31057)
(5.53124 1.52288e-17 4.82438)
(5.8864 1.47457e-17 4.78128)
(5.12985 5.08609e-19 5.32842)
(5.53621 4.33899e-19 5.28631)
(4.65718 -1.45788e-17 5.83521)
(5.07513 1.1678e-20 5.86193)
(4.16469 3.85127e-18 6.33096)
(4.87806 -1.50525e-17 6.25084)
(3.56643 1.65712e-17 7.10971)
(9.98666 2.11968e-18 0.111497)
(9.98625 1.08272e-18 0.0772619)
(9.96061 0 0.184378)
(9.97384 0 0.153157)
(9.92235 0 0.257616)
(9.94646 0 0.228748)
(9.87225 5.94995e-19 0.332875)
(9.90362 0 0.305725)
(9.81064 1.18172e-18 0.411493)
(9.84848 5.8469e-19 0.385611)
(9.73778 5.87447e-19 0.494568)
(9.78264 -5.88781e-19 0.469576)
(9.6538 -6.33548e-19 0.583143)
(9.70632 6.05543e-22 0.55869)
(9.55878 3.62653e-20 0.678247)
(9.61936 6.16156e-19 0.654023)
(9.45277 -1.03607e-18 0.78092)
(9.52178 -9.37434e-19 0.756613)
(9.33576 -9.37629e-19 0.892286)
(9.41354 -1.31733e-18 0.867554)
(9.20768 6.54289e-19 1.01355)
(9.29465 9.94873e-19 0.988066)
(9.06843 -1.77812e-19 1.14597)
(9.16517 -2.6983e-18 1.11942)
(8.91797 -1.73593e-19 1.29084)
(9.02501 2.56201e-18 1.26287)
(8.75625 -2.69942e-18 1.44961)
(8.87423 -5.25769e-19 1.41984)
(8.58317 2.99429e-19 1.62388)
(8.71269 -2.84232e-18 1.59187)
(8.39876 5.97663e-18 1.81552)
(8.54046 5.90272e-18 1.78073)
(8.20306 -9.48311e-20 2.02647)
(8.35774 6.08888e-18 1.98841)
(7.99587 -3.27347e-18 2.25881)
(8.1645 -1.51989e-17 2.21703)
(7.77711 -9.5654e-20 2.51505)
(7.96047 5.83266e-18 2.46887)
(7.54686 4.15086e-19 2.79808)
(7.74589 9.98674e-20 2.74676)
(7.30489 5.19632e-19 3.11101)
(7.52095 4.11952e-19 3.05388)
(7.0507 1.00568e-19 3.45739)
(7.28525 7.38954e-21 3.39371)
(6.78313 -1.04935e-19 3.84102)
(7.03877 1.95812e-19 3.77052)
(6.50022 -4.38778e-19 4.26547)
(6.78005 -4.01442e-19 4.18846)
(6.19913 -8.72253e-19 4.73385)
(6.50731 -4.37572e-19 4.65124)
(5.87345 -5.9609e-20 5.24551)
(6.21423 -2.31168e-19 5.16302)
(5.52115 -6.11913e-20 5.79931)
(5.91373 -3.06445e-20 5.71134)
(5.10101 -4.39192e-19 6.35536)
(5.48292 -4.38117e-19 6.34636)
(4.63493 0 6.87713)
(5.37493 -3.13244e-18 6.7624)
(4.00879 1.35606e-17 7.67312)
(9.98712 -1.05667e-18 0.120084)
(9.98634 -7.36562e-21 0.0828143)
(9.96212 0 0.198849)
(9.9748 1.08595e-18 0.164344)
(9.92555 0 0.278183)
(9.94886 0 0.245751)
(9.87781 1.93219e-22 0.359782)
(9.90804 0 0.328769)
(9.81924 -1.20733e-18 0.445024)
(9.85569 5.77824e-19 0.414941)
(9.7501 -1.16618e-18 0.53506)
(9.79336 -1.18525e-18 0.505486)
(9.67055 1.2613e-18 0.630984)
(9.72121 2.16227e-21 0.601524)
(9.58071 -3.82906e-19 0.733868)
(9.63917 6.29997e-19 0.704164)
(9.48066 -1.22524e-18 0.844804)
(9.54734 -3.26254e-19 0.814492)
(9.37041 6.52347e-19 0.964981)
(9.44564 -2.54436e-18 0.933665)
(9.24998 -2.41547e-18 1.09567)
(9.33414 3.23447e-19 1.06296)
(9.11936 1.18653e-19 1.23817)
(9.21302 -1.38199e-18 1.20369)
(8.97859 2.16779e-18 1.39382)
(9.08229 5.44597e-18 1.35714)
(8.82777 -6.99822e-19 1.56415)
(8.94204 -1.65221e-19 1.52477)
(8.66693 2.8802e-18 1.75087)
(8.79231 -5.76926e-18 1.70824)
(8.49611 6.01784e-18 1.95589)
(8.63334 6.20864e-18 1.90942)
(8.31549 -9.27552e-18 2.18133)
(8.46529 -2.7876e-18 2.13033)
(8.12515 -5.86635e-18 2.42947)
(8.28835 -6.26951e-18 2.37328)
(7.92511 5.97833e-18 2.70293)
(8.10262 -1.79378e-19 2.64074)
(7.71554 9.93084e-20 3.00482)
(7.90836 5.89562e-18 2.93566)
(7.49655 -1.04064e-19 3.33866)
(7.70597 -2.76453e-19 3.26152)
(7.26821 1.03351e-19 3.70861)
(7.49537 5.89065e-18 3.62218)
(7.03013 -1.02993e-19 4.11926)
(7.27704 6.20618e-18 4.02253)
(6.78074 -4.00906e-19 4.57498)
(7.05058 6.9961e-19 4.46779)
(6.51786 2.04309e-19 5.07966)
(6.81468 -1.28783e-17 4.96231)
(6.23492 -2.0147e-19 5.63298)
(6.56197 2.04512e-19 5.51207)
(5.92842 -4.06852e-19 6.23484)
(6.31166 -4.06696e-19 6.10237)
(5.55604 -3.13051e-18 6.84524)
(5.91279 0 6.79652)
(5.10051 1.13769e-17 7.41413)
(5.87585 2.62852e-18 7.26528)
(4.46573 2.56552e-17 8.25593)
(9.98764 2.15522e-18 0.128318)
(9.98645 2.78824e-21 0.0881475)
(9.96385 1.0653e-18 0.212667)
(9.97588 -2.67083e-19 0.175001)
(9.92915 0 0.29777)
(9.95152 1.10092e-18 0.26191)
(9.88395 5.88284e-19 0.385356)
(9.91292 2.80794e-19 0.350632)
(9.82861 5.69528e-19 0.476836)
(9.86354 4.55947e-21 0.442712)
(9.76341 3.94319e-21 0.573413)
(9.80492 5.84814e-19 0.539427)
(9.68855 -6.19418e-19 0.676217)
(9.73719 1.19402e-18 0.641938)
(9.60421 6.71318e-19 0.786364)
(9.66037 -6.07087e-19 0.751377)
(9.51048 -1.67997e-18 0.905006)
(9.57457 6.37278e-19 0.868891)
(9.40743 -2.83169e-18 1.03338)
(9.47975 -2.86995e-18 0.995701)
(9.29512 1.33335e-18 1.1728)
(9.37607 -1.92821e-18 1.1331)
(9.17366 4.04729e-18 1.32458)
(9.26376 5.23154e-18 1.28244)
(9.04317 3.03551e-18 1.49011)
(9.14302 -5.9267e-19 1.44504)
(8.90383 -5.31218e-18 1.67098)
(9.01384 3.6102e-19 1.62235)
(8.75584 -2.29335e-18 1.86899)
(8.87644 -2.86076e-18 1.81616)
(8.59936 -2.71178e-18 2.08613)
(8.73138 -2.63029e-19 2.02841)
(8.43468 1.8115e-19 2.32459)
(8.57878 1.73887e-19 2.26114)
(8.26214 -5.03591e-19 2.58684)
(8.41898 5.44355e-19 2.51675)
(8.08204 -2.21446e-19 2.87567)
(8.25251 -5.88091e-18 2.79795)
(7.89467 5.47908e-18 3.1944)
(8.07977 1.34363e-19 3.10783)
(7.70038 5.76468e-18 3.5468)
(7.9014 5.77907e-18 3.45009)
(7.49946 1.20155e-17 3.93745)
(7.71775 1.1906e-17 3.82894)
(7.29248 7.00925e-18 4.37179)
(7.52926 1.44716e-19 4.24957)
(7.07865 -1.17988e-17 4.85527)
(7.33695 1.17858e-17 4.71838)
(6.85602 -1.29071e-17 5.39309)
(7.14039 -2.49099e-17 5.24089)
(6.61795 0 5.98637)
(6.93124 -1.09263e-17 5.82545)
(6.3574 0 6.63841)
(6.73432 1.08071e-17 6.45833)
(6.03428 5.78153e-18 7.31504)
(6.37812 -2.53699e-18 7.21335)
(5.59166 1.82359e-17 7.97007)
(6.4056 -6.86137e-18 7.76889)
(4.96775 3.21704e-17 8.89224)
(9.98824 -2.4255e-18 0.136154)
(9.98668 -3.31696e-18 0.0932214)
(9.96577 -2.05397e-19 0.225765)
(9.97707 -1.44678e-19 0.185079)
(9.93308 1.36683e-18 0.316299)
(9.95441 2.7812e-19 0.277159)
(9.8906 -3.08186e-19 0.409506)
(9.91822 5.60776e-19 0.371223)
(9.8387 2.97037e-20 0.506825)
(9.87201 -1.14212e-18 0.46882)
(9.77767 1.78596e-18 0.609502)
(9.8173 1.73974e-18 0.57128)
(9.70776 1.17755e-18 0.718698)
(9.75423 2.37381e-18 0.679793)
(9.62916 -6.21646e-19 0.835571)
(9.68289 -1.19313e-18 0.795518)
(9.54205 -6.06938e-19 0.961324)
(9.60335 -1.22824e-18 0.91965)
(9.44654 -1.95127e-18 1.09723)
(9.51569 1.86268e-18 1.05345)
(9.34277 2.07442e-18 1.24464)
(9.42017 -3.17926e-18 1.19824)
(9.23093 5.08109e-19 1.40488)
(9.31703 1.34777e-18 1.35537)
(9.11121 -3.26023e-18 1.57936)
(9.20668 1.89801e-18 1.52622)
(8.98387 2.77687e-18 1.76969)
(9.08906 -2.63096e-18 1.71223)
(8.84928 -7.93639e-19 1.97779)
(8.96449 2.07957e-18 1.9152)
(8.70782 2.62912e-18 2.20567)
(8.83385 -5.83376e-18 2.13716)
(8.55985 5.47724e-19 2.45558)
(8.69737 2.90422e-18 2.38021)
(8.40596 -4.90673e-18 2.73008)
(8.55544 -5.69021e-18 2.64674)
(8.2467 -5.4762e-18 3.03217)
(8.40894 5.20141e-18 2.93961)
(8.08268 4.58595e-19 3.36534)
(8.25868 4.45727e-19 3.26209)
(7.91466 1.19685e-17 3.73365)
(8.10546 1.31951e-18 3.61798)
(7.74318 -2.23177e-20 4.14187)
(7.95032 5.81611e-18 4.01187)
(7.56918 4.93909e-18 4.59611)
(7.7939 -1.12464e-17 4.44913)
(7.39323 -1.29448e-18 5.10307)
(7.63793 1.61129e-17 4.93687)
(7.21404 -2.29627e-17 5.67)
(7.48385 -1.98201e-17 5.48231)
(7.02587 -2.03305e-19 6.30113)
(7.32357 9.24878e-18 6.09649)
(6.81801 8.28755e-18 7.00636)
(7.18702 3.42043e-18 6.77082)
(6.55729 -1.52563e-17 7.76432)
(6.89661 -1.87381e-19 7.58593)
(6.15102 9.77804e-18 8.56397)
(6.99982 -2.35092e-17 8.26694)
(5.56592 3.02734e-17 9.61476)
(9.98896 -9.79948e-19 0.143545)
(9.98701 -2.69752e-19 0.097981)
(9.96789 3.47303e-19 0.238089)
(9.97839 5.39671e-19 0.194544)
(9.93735 -5.23351e-19 0.333694)
(9.95752 -1.09657e-18 0.291436)
(9.89776 -3.03607e-19 0.432135)
(9.92391 2.79983e-19 0.390454)
(9.84951 6.18145e-19 0.534877)
(9.88103 -1.69611e-18 0.493163)
(9.79288 2.33853e-18 0.6432)
(9.83043 -1.14041e-18 0.600929)
(9.72815 -5.55875e-20 0.758294)
(9.77224 2.34806e-18 0.714963)
(9.65554 -1.80096e-18 0.881344)
(9.70658 -2.98111e-18 0.836461)
(9.57527 1.28968e-18 1.01359)
(9.63356 5.92427e-19 0.966629)
(9.48756 5.61916e-19 1.15633)
(9.5533 1.25105e-18 1.10675)
(9.3926 -3.8448e-18 1.31093)
(9.46613 -6.33921e-19 1.25819)
(9.2907 2.74499e-18 1.47875)
(9.37247 -3.20034e-18 1.42228)
(9.18216 2.47491e-18 1.6612)
(9.27281 5.85438e-18 1.6004)
(9.06726 -3.2752e-18 1.8599)
(9.16711 -1.99191e-18 1.79408)
(8.94653 -3.05705e-18 2.07676)
(9.05585 -2.62808e-18 2.00501)
(8.82058 -5.47075e-18 2.3139)
(8.93998 2.57792e-19 2.23523)
(8.68994 -3.42878e-18 2.57355)
(8.82001 -3.75561e-18 2.48698)
(8.55531 4.52806e-18 2.85834)
(8.69656 -1.02719e-18 2.76262)
(8.41764 1.11102e-17 3.17136)
(8.57056 6.19197e-18 3.06494)
(8.27789 1.32106e-18 3.51622)
(8.44347 1.02679e-17 3.39738)
(8.13724 -4.84477e-18 3.89717)
(8.3163 -1.0863e-17 3.76374)
(7.99698 -5.47008e-18 4.31923)
(8.19065 -5.24719e-18 4.16879)
(7.85834 -5.29087e-20 4.78882)
(8.06827 -2.79941e-19 4.61814)
(7.72315 -2.38462e-18 5.31363)
(7.95114 5.41229e-18 5.11895)
(7.59184 1.24185e-17 5.90317)
(7.84309 6.18353e-19 5.67982)
(7.46167 1.2932e-17 6.56599)
(7.73852 1.09146e-17 6.31389)
(7.32154 -5.08625e-18 7.32184)
(7.67269 -9.73423e-18 7.02084)
(7.1532 -8.65531e-18 8.1712)
(7.48438 -1.68752e-18 7.88263)
(6.84266 5.93506e-19 9.2052)
(7.70472 2.37255e-18 8.71821)
(6.34109 2.07377e-18 10.4656)
(9.98978 1.26525e-18 0.150447)
(9.98736 4.12831e-18 0.102396)
(9.97019 -9.361e-19 0.249589)
(9.9798 -5.57907e-19 0.203358)
(9.94191 -2.6762e-19 0.349885)
(9.96081 -2.77835e-19 0.304695)
(9.90536 -1.14798e-18 0.453152)
(9.92987 -2.60788e-19 0.408268)
(9.8609 -3.44657e-18 0.560881)
(9.89044 4.44647e-19 0.515668)
(9.80886 -1.07434e-18 0.674382)
(9.8441 -3.4182e-18 0.628284)
(9.74951 -6.63725e-19 0.794865)
(9.79099 -4.59667e-19 0.747356)
(9.68311 -5.31527e-19 0.923536)
(9.73122 -1.43399e-19 0.874086)
(9.60994 5.63677e-19 1.06165)
(9.665 6.63844e-19 1.0097)
(9.53022 2.70861e-20 1.21052)
(9.59238 5.22032e-19 1.1555)
(9.44429 -2.26947e-20 1.37152)
(9.51382 -5.24211e-19 1.31285)
(9.35259 2.90004e-20 1.54598)
(9.43 -2.40856e-18 1.48302)
(9.25552 1.28562e-18 1.73538)
(9.34128 1.23893e-18 1.66744)
(9.15345 -1.35001e-18 1.94133)
(9.24784 6.4519e-19 1.86768)
(9.04692 7.21909e-19 2.16564)
(9.15044 -1.84154e-19 2.08539)
(8.93677 1.93937e-18 2.41047)
(9.04976 5.74191e-18 2.32248)
(8.82382 -1.32612e-18 2.67812)
(8.94666 -2.51086e-18 2.58122)
(8.70891 6.90954e-19 2.97113)
(8.84222 -5.93475e-20 2.86406)
(8.5933 5.36963e-18 3.29261)
(8.73739 -4.16877e-18 3.17357)
(8.47847 -2.03877e-18 3.64616)
(8.63401 4.72043e-18 3.51313)
(8.36599 -1.12536e-17 4.03602)
(8.53363 -1.26567e-18 3.88656)
(8.25799 -3.87125e-20 4.46735)
(8.43838 -1.01363e-17 4.29837)
(8.1567 5.19836e-18 4.94655)
(8.35126 5.35667e-18 4.7542)
(8.06517 8.45303e-18 5.48163)
(8.27512 4.56827e-18 5.26073)
(7.98662 -9.56526e-19 6.08322)
(8.21622 4.34013e-18 5.82649)
(7.92408 -1.17276e-17 6.76342)
(8.17362 -5.49315e-18 6.46433)
(7.87316 -6.31922e-18 7.54998)
(8.18866 1.46791e-18 7.18006)
(7.84526 9.31345e-18 8.47057)
(8.14371 -4.14557e-18 8.04299)
(7.76619 4.50655e-18 9.87643)
(8.62416 1.46871e-17 8.97415)
(8.30159 -8.30222e-18 11.3966)
(0.275973 0 -0.107825)
(0.110336 5.25153e-18 -0.219276)
(0.25219 -1.46259e-18 0.0434215)
(0.111059 -4.37037e-18 0.0246571)
(0.0864288 2.18853e-19 0.100586)
(-0.0684733 -2.9567e-18 0.119817)
(-0.203547 2.89421e-19 0.134834)
(-0.375687 1.87322e-18 0.189721)
(-0.61431 -1.37413e-19 0.163005)
(-0.801167 -1.66415e-18 0.251729)
(-1.12721 1.56229e-18 0.183252)
(-1.33144 -1.11392e-18 0.302727)
(-1.71307 0 0.195249)
(-1.93934 1.03053e-19 0.340863)
(-2.34223 7.32659e-20 0.200071)
(-2.59524 2.34531e-18 0.366705)
(-2.99014 7.23645e-20 0.19895)
(-3.27341 9.31947e-21 0.381693)
(-3.63838 0 0.192843)
(-3.9536 0 0.387166)
(-4.27301 0 0.182435)
(-4.62181 -4.02372e-19 0.384256)
(-4.88275 0 0.168204)
(-5.26692 -6.68733e-19 0.373683)
(-5.45826 1.45987e-19 0.150573)
(-5.87952 3.57979e-19 0.355938)
(-5.99086 8.98781e-20 0.12991)
(-6.45171 3.55856e-20 0.331541)
(-6.47211 4.40854e-20 0.106451)
(-6.9751 -2.57347e-19 0.300767)
(-6.89354 1.37112e-19 0.0803542)
(-7.44166 2.96138e-19 0.263751)
(-7.24659 3.63248e-20 0.0517103)
(-7.84298 2.88888e-20 0.220686)
(-7.52248 0 0.0205187)
(-8.17053 -6.45231e-20 0.171703)
(-7.7121 -8.84011e-21 -0.0134531)
(-8.41574 0 0.116949)
(-7.80701 -1.55085e-22 -0.0512375)
(-8.56875 6.77238e-21 0.0568975)
(-7.79414 8.85838e-21 -0.0955702)
(-8.62059 5.81576e-20 -0.0111504)
(-7.6622 0 -0.148574)
(-8.56409 -4.33435e-20 -0.0859953)
(-7.39253 0 -0.211017)
(-8.38492 -9.98595e-21 -0.172136)
(-6.96952 2.12438e-20 -0.284567)
(-8.07207 -3.15447e-20 -0.267506)
(-6.37785 2.14528e-20 -0.372746)
(-7.61866 5.16374e-21 -0.372042)
(-5.59963 0 -0.483923)
(-7.00827 5.36241e-22 -0.487511)
(-4.60031 0 -0.634144)
(-6.21241 -5.28977e-21 -0.62398)
(-3.2961 3.34413e-20 -0.827685)
(-5.19817 4.55745e-20 -0.811839)
(-1.58574 3.38393e-20 -0.96794)
(-3.96403 4.07994e-21 -1.06305)
(-2.50251 -2.90579e-20 -1.06626)
(-0.0723276 1.07534e-18 -0.0763097)
(-0.0591156 5.82437e-18 -0.135595)
(-0.225848 -5.92858e-18 0.139337)
(-0.197388 -2.33236e-18 0.166871)
(-0.527756 -1.47434e-18 0.2647)
(-0.505498 -5.52582e-19 0.346778)
(-0.962653 0 0.365151)
(-0.933356 6.08744e-18 0.483685)
(-1.50678 -2.64741e-18 0.446555)
(-1.46989 -5.54035e-18 0.594343)
(-2.13307 -2.57032e-18 0.508924)
(-2.09277 2.81977e-18 0.680781)
(-2.81224 2.46295e-18 0.553324)
(-2.77386 -4.78381e-18 0.743257)
(-3.51756 2.2682e-18 0.581783)
(-3.48613 4.31058e-18 0.783576)
(-4.22792 -6.34592e-20 0.596354)
(-4.20777 -1.83779e-19 0.804347)
(-4.92794 -4.04599e-19 0.598732)
(-4.92203 -1.7253e-18 0.807884)
(-5.60625 -1.07317e-18 0.590157)
(-5.61785 -4.00345e-19 0.796243)
(-6.25376 -3.08509e-19 0.571361)
(-6.28634 -5.90579e-20 0.770738)
(-6.86285 2.48907e-19 0.542871)