/*--------------------------------*- C++ -*----------------------------------*\
| =========                 |                                                 |
| \\      /  F ield         | OpenFOAM: The Open Source CFD Toolbox           |
|  \\    /   O peration     | Version:  5.x                                   |
|   \\  /    A nd           | Web:      www.OpenFOAM.org                      |
|    \\/     M anipulation  |                                                 |
\*---------------------------------------------------------------------------*/
FoamFile
{
    version     2.0;
    format      ascii;
    class       volVectorField;
    location    "1.1";
    object      U;
}
// * * * * * * * * * * * * * * * * * * * * * * * * * * * * * * * * * * * * * //

dimensions      [0 1 -1 0 0 0 0];

internalField   nonuniform List<vector> 
2790
(
(9.92888 0.0201086 0)
(9.86055 0.0271569 1.90235e-19)
(9.76354 0.0318183 4.20168e-23)
(9.64419 0.0368104 -4.0384e-20)
(9.51013 0.042034 -8.32736e-20)
(9.36351 0.0474141 -6.45209e-23)
(9.20385 0.0530794 8.8943e-20)
(9.03047 0.0591681 0)
(8.84279 0.0657874 1.91059e-19)
(8.64007 0.0730363 -1.9887e-19)
(8.42166 0.0810146 2.0496e-19)
(8.18676 0.0898307 0)
(7.93434 0.0996074 -4.47094e-19)
(7.66332 0.11048 9.28308e-19)
(7.37253 0.122598 4.91549e-19)
(7.06068 0.136128 -7.56057e-19)
(6.72643 0.151237 0)
(6.3684 0.168082 0)
(5.98526 0.186806 0)
(5.57579 0.207552 3.10845e-19)
(5.13898 0.230443 2.64908e-18)
(4.67403 0.255568 -2.78779e-18)
(4.18055 0.28296 3.74779e-18)
(3.65865 0.312536 -3.98258e-18)
(3.10907 0.344069 0)
(2.53363 0.377187 -7.42863e-18)
(1.9349 0.411163 1.60003e-17)
(1.31578 0.443827 3.37068e-20)
(0.679211 0.453397 -3.00223e-17)
(0.00504292 -0.0409975 2.13377e-17)
(9.99345 0.0383868 3.33121e-19)
(9.98517 0.0548851 3.76914e-20)
(9.95007 0.0669435 2.3306e-19)
(9.89035 0.0800932 3.97463e-22)
(9.81259 0.0941662 3.28588e-19)
(9.71925 0.108949 -1.69939e-19)
(9.61017 0.124701 -1.72008e-21)
(9.48495 0.141734 3.58126e-19)
(9.34311 0.160317 1.87853e-19)
(9.18397 0.180675 -1.14538e-18)
(9.00705 0.203032 0)
(8.81168 0.227646 8.22437e-19)
(8.59687 0.254809 -8.45318e-19)
(8.3616 0.284826 -1.32959e-18)
(8.10473 0.318027 1.36506e-18)
(7.82499 0.354764 1.67652e-18)
(7.52102 0.395379 -1.48077e-18)
(7.19135 0.44014 -5.18167e-19)
(6.83447 0.489238 0)
(6.44892 0.542792 4.29394e-18)
(6.03331 0.600784 -4.76519e-18)
(5.58635 0.662996 0)
(5.10703 0.728962 1.00491e-17)
(4.59448 0.797822 -1.05467e-17)
(4.04795 0.868131 0)
(3.46727 0.937686 0)
(2.85241 1.00281 3.41166e-18)
(2.20252 1.05599 0)
(1.48283 1.08404 -2.91165e-17)
(0.882949 1.01184 4.58755e-17)
(9.99061 0.0379735 -8.14029e-19)
(9.9796 0.062572 7.52e-20)
(9.94675 0.0832741 4.64716e-19)
(9.8917 0.105196 3.18722e-19)
(9.81975 0.128581 -9.80623e-19)
(9.73344 0.153318 -3.36379e-19)
(9.63291 0.179749 6.93826e-19)
(9.51784 0.208327 -3.52071e-19)
(9.3878 0.239484 -3.64726e-19)
(9.24234 0.273588 3.78504e-19)
(9.0811 0.310996 -3.90117e-19)
(8.90347 0.352152 0)
(8.70867 0.397555 0)
(8.49581 0.447724 -6.9803e-22)
(8.26389 0.503217 1.33926e-18)
(8.0118 0.564649 0)
(7.73833 0.632656 -5.30808e-18)
(7.44204 0.707796 5.47918e-18)
(7.12127 0.790501 -1.0392e-18)
(6.77436 0.88111 0)
(6.39958 0.979791 -1.13113e-18)
(5.99492 1.08638 -9.53142e-18)
(5.55846 1.20039 9.89762e-18)
(5.0879 1.32078 0)
(4.5802 1.44571 2.73875e-18)
(4.03153 1.57237 0)
(3.43599 1.69666 -3.06575e-18)
(2.78488 1.81212 0)
(2.03083 1.91611 5.81798e-17)
(1.26471 2.02067 -7.86126e-18)
(9.98881 0.0414364 1.18287e-18)
(9.97538 0.0755708 -6.03537e-19)
(9.94229 0.106031 -6.52163e-22)
(9.8884 0.136867 3.16958e-19)
(9.81791 0.169074 -3.26879e-19)
(9.73329 0.202929 6.68116e-19)
(9.63497 0.238924 0)
(9.52272 0.277658 -1.06537e-18)
(9.39624 0.319718 1.45217e-18)
(9.25533 0.365612 0)
(9.09974 0.415849 3.86533e-19)
(8.92906 0.471039 3.1991e-18)
(8.74277 0.531866 -7.9428e-19)
(8.54025 0.599048 -8.06344e-18)
(8.32079 0.673358 1.73946e-18)
(8.08359 0.755649 -4.55155e-18)
(7.82782 0.84688 3.74193e-18)
(7.55244 0.947989 -3.3139e-21)
(7.25602 1.05973 2.01721e-18)
(6.93706 1.18281 1.04459e-18)
(6.59398 1.31781 1.0901e-18)
(6.22455 1.46504 1.81836e-17)
(5.82616 1.62442 -1.8764e-17)
(5.39575 1.79548 1.72741e-17)
(4.92876 1.97695 -2.04386e-17)
(4.41845 2.16681 0)
(3.85473 2.36271 0)
(3.22513 2.56228 4.68723e-17)
(2.50583 2.75703 -5.48535e-17)
(1.61844 3.04923 -5.51297e-17)
(9.98777 0.0463324 -6.22695e-22)
(9.97289 0.0882979 -3.01116e-19)
(9.93956 0.127093 -3.0865e-19)
(9.88662 0.165911 0)
(9.81752 0.206277 0)
(9.73449 0.248804 1.33473e-18)
(9.63814 0.294068 6.41274e-21)
(9.52828 0.342754 -1.40166e-18)
(9.40469 0.395547 -1.44892e-18)
(9.26726 0.453046 1.48093e-18)
(9.11581 0.515865 3.06838e-18)
(8.95006 0.584729 -6.29622e-18)
(8.76967 0.66045 7.29756e-18)
(8.57419 0.74389 -3.32667e-18)
(8.36313 0.835985 7.78724e-18)
(8.13589 0.937752 -1.24513e-17)
(7.89184 1.05036 1.56113e-17)
(7.63059 1.17508 -1.0397e-17)
(7.35114 1.31306 -2.93797e-18)
(7.05209 1.46531 -1.016e-18)
(6.73227 1.63297 0)
(6.38974 1.81696 2.16245e-18)
(6.0217 2.01788 0)
(5.62483 2.2362 2.10065e-17)
(5.19419 2.472 -2.16208e-17)
(4.72241 2.72464 3.99858e-17)
(4.19868 2.99327 -4.6246e-17)
(3.60668 3.27967 0)
(2.97779 3.54559 -4.36993e-17)
(1.99762 4.00164 1.49154e-16)
(9.98717 0.0519725 -1.91533e-18)
(9.9716 0.101106 1.35076e-18)
(9.93835 0.147866 6.14361e-19)
(9.88639 0.194723 -6.29443e-19)
(9.81882 0.243346 1.29374e-18)
(9.73774 0.294559 -1.32207e-18)
(9.64374 0.349013 1.36209e-18)
(9.53665 0.407475 -1.39116e-18)
(9.41632 0.470718 0)
(9.28268 0.539433 0)
(9.1356 0.614332 0)
(8.97487 0.696237 2.3434e-18)
(8.80033 0.786085 -3.18436e-18)
(8.61163 0.884892 1.64395e-18)
(8.40831 0.993744 0)
(8.19001 1.11381 -7.87251e-18)
(7.95614 1.24634 8.93865e-18)
(7.70676 1.39287 9.28096e-18)
(7.44132 1.55499 -3.77862e-18)
(7.15854 1.73405 -1.95638e-18)
(6.85755 1.93168 0)
(6.53695 2.14955 1.46386e-17)
(6.19436 2.38901 -1.70987e-17)
(5.82652 2.6515 -3.54215e-17)
(5.42882 2.93847 7.03171e-17)
(4.99479 3.25067 -3.71662e-17)
(4.51593 3.58712 -3.80507e-17)
(3.96691 3.95391 4.8241e-18)
(3.45403 4.2631 4.46197e-17)
(2.39773 4.84034 8.4282e-17)
(9.98687 0.057977 1.17714e-18)
(9.97109 0.113944 -8.99216e-19)
(9.9382 0.168281 -9.19316e-19)
(9.88739 0.222934 8.74356e-22)
(9.82162 0.279538 1.28723e-18)
(9.74286 0.339094 -1.31437e-18)
(9.65164 0.40238 -6.74056e-19)
(9.54778 0.470256 6.90979e-19)
(9.4312 0.543571 -2.84581e-18)
(9.3019 0.623098 2.90257e-18)
(9.1598 0.709637 0)
(9.00474 0.804087 2.2657e-21)
(8.83664 0.907505 0)
(8.65521 1.02106 8.03707e-19)
(8.46009 1.14597 1.65677e-18)
(8.25106 1.28351 6.85055e-18)
(8.02779 1.43503 -8.73852e-18)
(7.79006 1.60219 -1.44608e-17)
(7.53778 1.78698 1.28809e-17)
(7.27028 1.99123 1.90453e-17)
(6.98656 2.21686 -1.55306e-17)
(6.68597 2.46629 0)
(6.36661 2.74179 -2.03639e-18)
(6.02556 3.0456 3.35746e-17)
(5.65933 3.38024 -3.19492e-17)
(5.26226 3.74728 -3.91057e-17)
(4.83011 4.14378 7.48679e-17)
(4.32176 4.58206 -3.99794e-17)
(3.92621 4.9153 -2.2743e-18)
(2.80413 5.57957 7.86794e-17)
(9.98674 0.0641254 -1.17265e-18)
(9.97104 0.126702 1.19354e-18)
(9.9388 0.188236 -6.10935e-19)
(9.88951 0.250377 -1.2496e-18)
(9.82589 0.314694 -3.78345e-21)
(9.74979 0.382311 1.30633e-18)
(9.6617 0.454139 6.70462e-19)
(9.56141 0.531118 2.06415e-18)
(9.44904 0.614141 -2.80345e-18)
(9.32465 0.704057 -7.18794e-19)
(9.18819 0.801766 0)
(9.03954 0.908251 -7.52052e-19)
(8.8785 1.02468 6.22008e-18)
(8.70496 1.15234 -9.50702e-18)
(8.51878 1.29254 4.90451e-18)
(8.31979 1.44668 4.94947e-20)
(8.10792 1.61631 6.91496e-18)
(7.88264 1.80314 -1.64224e-18)
(7.64407 2.00941 -1.42917e-17)
(7.39219 2.23748 1.28833e-17)
(7.12592 2.48956 -1.49496e-17)
(6.84523 2.76868 0)
(6.54871 3.078 1.96013e-18)
(6.23392 3.42042 3.93768e-18)
(5.89883 3.79923 -2.81638e-17)
(5.53812 4.21636 3.64799e-17)
(5.15281 4.66523 -6.50104e-17)
(4.68025 5.16716 6.51714e-17)
(4.39286 5.51582 6.30638e-17)
(3.2108 6.244 -7.12991e-17)
(9.9867 0.0702854 8.78767e-19)
(9.97134 0.139267 -8.9377e-19)
(9.94007 0.207625 -1.21499e-18)
(9.89255 0.276914 1.24416e-18)
(9.8313 0.348669 -1.2699e-18)
(9.75812 0.424074 0)
(9.67342 0.504139 1.32803e-18)
(9.57708 0.589856 -1.35824e-18)
(9.4694 0.682147 0)
(9.35043 0.78195 7.12762e-19)
(9.22023 0.890289 0)
(9.07864 1.00826 7.47258e-18)
(8.92533 1.13711 3.93784e-20)
(8.76046 1.27818 -4.65486e-18)
(8.58407 1.43285 1.59066e-18)
(8.39594 1.60266 -1.30897e-17)
(8.19632 1.78942 1.57035e-18)
(7.98477 1.99501 1.61724e-18)
(7.76122 2.22173 1.38468e-17)
(7.52595 2.47234 1.76173e-18)
(7.27834 2.74955 3.06816e-17)
(7.01821 3.05671 1.32352e-19)
(6.74504 3.39778 -2.95989e-17)
(6.45739 3.77649 -3.76923e-18)
(6.15374 4.1962 -3.79622e-18)
(5.82889 4.65933 3.01229e-17)
(5.48961 5.15489 -3.20174e-17)
(5.04769 5.71549 5.93831e-17)
(4.85326 6.08142 -5.68319e-17)
(3.61374 6.85469 -6.66635e-17)
(9.98675 0.0763533 0)
(9.972 0.151523 0)
(9.94193 0.22637 1.21206e-18)
(9.89621 0.30247 -1.23845e-18)
(9.83747 0.381353 2.52737e-18)
(9.7675 0.464228 0)
(9.68654 0.552172 -2.63835e-18)
(9.59467 0.646203 3.63025e-21)
(9.49222 0.747277 0)
(9.37921 0.85643 -1.40468e-18)
(9.2558 0.974829 -7.20118e-18)
(9.12178 1.10371 7.32159e-18)
(8.97693 1.24433 0)
(8.82158 1.39805 0)
(8.65578 1.56634 -1.56584e-18)
(8.47941 1.75086 0)
(8.29294 1.95365 -1.11676e-20)
(8.09618 2.17687 1.32553e-17)
(7.8889 2.42292 -1.34015e-17)
(7.67152 2.69483 1.19614e-17)
(7.44404 2.99581 1.21687e-17)
(7.20595 3.32945 -2.78819e-17)
(6.95759 3.70033 0)
(6.69855 4.11306 0)
(6.42731 4.57091 -2.81615e-17)
(6.13835 5.0772 2.80866e-17)
(5.84416 5.61671 1.75567e-18)
(5.42863 6.23533 1.68579e-18)
(5.30984 6.63153 -2.60703e-18)
(4.01314 7.44743 0)
(9.98689 0.0822429 0)
(9.9729 0.163377 0)
(9.94422 0.244409 -2.07729e-21)
(9.90047 0.326977 2.45907e-18)
(9.84453 0.412631 1.25803e-18)
(9.77806 0.50261 -2.56121e-18)
(9.70119 0.598025 1.31041e-18)
(9.6142 0.699901 -5.89819e-21)
(9.51741 0.809251 1.35951e-18)
(9.41086 0.927232 1.39288e-18)
(9.29463 1.05513 1.42097e-18)
(9.16857 1.19425 -1.44912e-18)
(9.03287 1.34589 0)
(8.88782 1.51141 0)
(8.73344 1.69239 0)
(8.56989 1.89065 -1.54924e-18)
(8.39739 2.10832 -1.58518e-18)
(8.21613 2.34783 -1.59594e-18)
(8.02635 2.6119 1.14008e-17)
(7.82831 2.90365 -1.31048e-17)
(7.62235 3.22671 2.6516e-17)
(7.40851 3.58519 -2.65891e-17)
(7.18726 3.98398 0)
(6.95862 4.42835 0)
(6.72174 4.92207 0)
(6.47013 5.47005 0)
(6.22152 6.05413 0)
(5.83166 6.73502 -4.74767e-20)
(5.77709 7.18432 8.04915e-19)
(4.42459 8.07517 0)
(9.98706 0.0878976 2.60612e-18)
(9.97396 0.174754 -2.94438e-19)
(9.94687 0.261655 -1.20149e-18)
(9.90536 0.350328 -1.22542e-18)
(9.85244 0.44238 -1.25018e-18)
(9.78965 0.539091 2.54639e-18)
(9.7171 0.641544 0)
(9.63534 0.750758 -4.14692e-21)
(9.54458 0.867848 1.35076e-18)
(9.44484 0.994117 5.50806e-18)
(9.33615 1.13091 -5.58348e-18)
(9.21861 1.27953 -1.42051e-18)
(9.09266 1.44131 0)
(8.95859 1.61769 5.9046e-18)
(8.81644 1.81037 -5.96665e-18)
(8.66653 2.02132 1.52221e-18)
(8.50893 2.25268 0)
(8.34416 2.50707 1.56069e-18)
(8.17302 2.78752 1.57597e-18)
(7.9959 3.09739 0)
(7.81316 3.44052 3.14846e-18)
(7.62565 3.82161 2.53295e-17)
(7.43397 4.24597 -4.72759e-17)
(7.23851 4.71945 4.67911e-17)
(7.03928 5.24679 -4.90828e-17)
(6.82855 5.83548 7.19321e-17)
(6.62913 6.46735 -4.73154e-17)
(6.27183 7.21838 -4.9097e-20)
(6.28289 7.74933 0)
(4.87826 8.77696 4.93969e-17)
(9.98718 0.0932831 -4.90679e-21)
(9.97517 0.185579 5.86345e-19)
(9.94987 0.278027 5.98043e-19)
(9.9107 0.372449 -1.21412e-18)
(9.86085 0.47052 -1.23636e-18)
(9.80189 0.573535 -1.26251e-18)
(9.73411 0.682537 0)
(9.65801 0.79857 -1.31291e-18)
(9.57355 0.92287 0)
(9.48087 1.05686 0)
(9.38021 1.20188 1.37669e-18)
(9.27178 1.35921 6.95306e-21)
(9.15607 1.53022 7.12574e-18)
(9.0335 1.71646 -4.32326e-18)
(8.90417 1.91977 1.31844e-17)
(8.76849 2.14219 -2.3677e-17)
(8.62676 2.38592 1.19345e-17)
(8.47976 2.65366 -1.20672e-17)
(8.32838 2.94859 1.21002e-17)
(8.1736 3.27444 0)
(8.01609 3.63533 2.11906e-17)
(7.85682 4.03609 -2.41197e-17)
(7.69734 4.48273 -3.00439e-18)
(7.5388 4.98192 2.95628e-18)
(7.38207 5.5398 2.27194e-17)
(7.21833 6.16709 -2.23418e-17)
(7.07586 6.85007 0)
(6.76854 7.67945 -4.22112e-17)
(6.85858 8.32792 4.19001e-17)
(5.41069 9.58842 -4.31254e-17)
(9.98728 0.0983727 -4.60381e-18)
(9.97651 0.195774 -5.83855e-19)
(9.95319 0.293459 5.94429e-19)
(9.91644 0.393299 3.05283e-21)
(9.86976 0.496969 1.23435e-18)
(9.81494 0.605782 0)
(9.75228 0.720804 0)
(9.68205 0.843156 0)
(9.60408 0.974149 -1.31711e-18)
(9.51877 1.11522 -1.33771e-18)
(9.42657 1.26773 -6.81812e-18)
(9.32766 1.43293 1.38032e-17)
(9.22275 1.61225 -6.98685e-18)
(9.11207 1.80731 -1.13553e-17)
(8.99588 2.02003 -1.47596e-18)
(8.87513 2.25257 2.16597e-17)
(8.75014 2.50712 -1.16134e-17)
(8.62187 2.78642 1.1692e-17)
(8.49151 3.0938 -1.3147e-17)
(8.36013 3.43301 -1.45068e-18)
(8.2294 3.80862 -1.44042e-18)
(8.10067 4.22549 0)
(7.9764 4.69003 -2.24494e-17)
(7.85882 5.20981 2.07262e-17)
(7.75042 5.79281 0)
(7.6429 6.45315 0)
(7.57031 7.18611 -1.92492e-17)
(7.34472 8.09331 6.63661e-19)
(7.54767 8.89817 1.85331e-17)
(6.08019 10.5616 0)
(9.98743 0.103145 2.91914e-19)
(9.97792 0.205296 -8.72074e-19)
(9.95662 0.307902 1.77509e-18)
(9.92248 0.412818 -2.40491e-18)
(9.87925 0.521637 1.22388e-18)
(9.8288 0.63573 -1.24359e-18)
(9.77135 0.756266 -1.26383e-18)
(9.70707 0.88444 0)
(9.63585 1.02157 1.30808e-18)
(9.55828 1.16906 1.32721e-18)
(9.47482 1.32826 5.37793e-18)
(9.38575 1.50047 -6.79007e-18)
(9.29197 1.68717 -5.50714e-18)
(9.1936 1.89005 1.52745e-17)
(9.09097 2.11094 3.06452e-20)
(8.98564 2.3521 1.44033e-18)
(8.878 2.61578 -1.13059e-17)
(8.76904 2.90465 1.13341e-17)
(8.66053 3.22213 -9.8861e-18)
(8.55358 3.57183 1.7987e-20)
(8.45089 3.95841 2.0075e-20)
(8.35489 4.38693 0)
(8.26858 4.86365 0)
(8.19562 5.39666 1.30848e-18)
(8.14116 5.9954 -1.22801e-18)
(8.10065 6.67643 1.92334e-17)
(8.11468 7.44558 -1.81503e-17)
(8.01657 8.40496 -1.64671e-17)
(8.39 9.38728 1.61703e-17)
(6.94243 11.9336 0)
(0.232189 -0.238262 -1.59596e-18)
(0.547748 -0.181166 5.99696e-18)
(0.885337 -0.147553 -5.25642e-18)
(1.20594 -0.129402 0)
(1.49944 -0.11432 -2.21134e-18)
(1.74362 -0.096128 4.29203e-18)
(1.91331 -0.0715238 -2.65997e-18)
(1.9845 -0.0399564 2.08469e-18)
(1.95424 -0.00469074 -5.5814e-19)
(1.84457 0.0265703 -2.60625e-20)
(1.67126 0.0526549 -1.58385e-18)
(1.45156 0.0720803 -2.60935e-19)
(1.19988 0.083824 0)
(0.930006 0.0890982 0)
(0.656628 0.0884314 -2.51807e-19)
(0.390574 0.0824208 0)
(0.14489 0.0723455 0)
(-0.0774059 0.0605879 1.94803e-19)
(-0.266632 0.0465388 -9.87956e-20)
(-0.416145 0.030786 8.40645e-20)
(-0.516823 0.0135487 7.66047e-20)
(-0.560494 -0.00628737 0)
(-0.556412 -0.0317822 6.32261e-20)
(-0.472924 -0.0652594 0)
(-0.292905 -0.106916 2.70682e-20)
(-0.00211526 -0.160781 2.43855e-20)
(0.403527 -0.239734 0)
(0.993101 -0.353226 0)
(1.7111 -0.537171 -1.63556e-21)
(2.90607 -0.66036 -5.31819e-21)
(0.0817148 -0.386754 1.5705e-18)
(0.30008 -0.337497 1.15604e-17)
(0.547731 -0.305485 -2.09345e-17)
(0.754285 -0.272301 9.6946e-18)
(0.900543 -0.224019 1.03599e-17)
(0.959694 -0.156929 -1.03801e-17)
(0.913108 -0.0736123 -5.16917e-18)
(0.7835 0.0137574 9.04143e-20)
(0.603812 0.0924974 -4.84811e-19)
(0.37181 0.158222 4.67678e-18)
(0.110777 0.210016 2.72181e-18)
(-0.173769 0.248975 1.93227e-19)
(-0.472263 0.274749 -1.50651e-18)
(-0.774076 0.288221 8.98493e-19)
(-1.07022 0.289711 -1.49629e-18)
(-1.35214 0.279658 1.18994e-18)
(-1.61203 0.259224 -7.55547e-19)
(-1.84155 0.231189 -3.26948e-19)
(-2.03237 0.194918 -2.1062e-19)
(-2.17739 0.151055 2.2544e-19)
(-2.26913 0.0997558 -6.55351e-20)
(-2.30139 0.0395732 -1.14529e-19)
(-2.27413 -0.0328571 1.62621e-19)
(-2.17221 -0.118569 -1.02538e-19)
(-1.99228 -0.216471 -1.2349e-19)
(-1.73142 -0.331317 2.23895e-19)
(-1.39043 -0.46738 -6.95462e-20)
(-0.967564 -0.616364 -2.10609e-20)
(-0.471734 -0.779626 5.49001e-20)
(0.0828575 -0.90906 7.67626e-21)
(0.00988879 -0.522937 5.09989e-17)
(0.0755621 -0.458325 -2.29917e-17)
(0.211224 -0.389425 -2.10425e-17)
(0.267185 -0.305485 1.8869e-17)
(0.242736 -0.201049 -1.22657e-18)
(0.130556 -0.0818684 -8.36671e-18)
(-0.0359163 0.0375175 1.05738e-17)
(-0.241974 0.146784 -1.12078e-18)
(-0.489611 0.244204 0)
(-0.767411 0.327027 4.03743e-18)
(-1.06591 0.392518 -3.93675e-18)
(-1.37761 0.439784 9.18477e-19)
(-1.69476 0.46793 -4.31587e-19)
(-2.00968 0.477143 -4.04568e-19)
(-2.31506 0.467932 -3.77501e-19)
(-2.60372 0.441169 -1.01473e-18)
(-2.86864 0.398406 1.34211e-18)
(-3.10242 0.341774 0)
(-3.2979 0.272402 4.16324e-19)
(-3.44853 0.191873 0)
(-3.54802 0.101403 -3.4223e-19)
(-3.59086 0.000581829 3.33428e-19)
(-3.57643 -0.112664 1.84008e-19)
(-3.50422 -0.239613 -1.81945e-19)
(-3.37071 -0.378377 1.44347e-19)
(-3.17992 -0.530073 -7.59004e-20)
(-2.93767 -0.696003 -1.11183e-19)
(-2.65312 -0.872311 0)
(-2.35827 -1.04256 -2.81596e-20)
(-2.15078 -1.15799 -1.15145e-20)
(-0.0302605 -0.582456 2.38406e-17)
(-0.104785 -0.476074 1.76675e-19)
(-0.0873887 -0.374996 0)
(-0.170916 -0.246178 2.48887e-18)
(-0.319347 -0.101401 2.39428e-18)
(-0.51346 0.044779 1.81277e-17)
(-0.743573 0.1838 -8.89164e-18)
(-1.0093 0.313226 -7.32036e-18)
(-1.30032 0.428703 -1.9773e-18)
(-1.60911 0.525879 0)
(-1.92943 0.601734 0)
(-2.256 0.65511 -1.67892e-18)
(-2.5831 0.685161 7.8991e-19)
(-2.90494 0.69186 3.70237e-19)
(-3.21562 0.675676 3.46133e-19)
(-3.50906 0.637549 0)
(-3.77899 0.578935 2.9834e-19)
(-4.01893 0.501518 2.58915e-19)
(-4.22258 0.4068 -1.28006e-18)
(-4.3841 0.296473 9.43208e-19)
(-4.49856 0.171982 -1.28798e-19)
(-4.56229 0.033537 -2.96975e-19)
(-4.57287 -0.119743 7.49904e-21)
(-4.53679 -0.285208 1.89497e-20)
(-4.45278 -0.459788 2.67835e-19)
(-4.32729 -0.641302 -1.79807e-19)
(-4.16867 -0.826983 9.27622e-20)
(-3.98889 -1.01123 -3.40599e-20)
(-3.81672 -1.18151 0)
(-3.71795 -1.30724 1.13809e-20)
(-0.048153 -0.564886 -7.65397e-19)
(-0.239728 -0.40168 0)
(-0.326076 -0.269806 -6.49301e-19)
(-0.509638 -0.102276 -2.07045e-17)
(-0.728696 0.0636981 1.62077e-17)
(-0.981498 0.223605 1.72e-17)
(-1.26419 0.376143 -1.45068e-17)
(-1.56762 0.517401 0)
(-1.88514 0.641994 1.85702e-18)
(-2.21185 0.745555 0)
(-2.54396 0.825138 0)
(-2.87804 0.879099 7.87344e-19)
(-3.20991 0.906268 -1.48162e-18)
(-3.5352 0.906254 0)
(-3.84897 0.879215 0)
(-4.14615 0.825922 1.17331e-18)
(-4.42116 0.747748 -1.43901e-18)
(-4.6682 0.646457 2.60828e-19)
(-4.88193 0.524174 -4.61352e-19)
(-5.05727 0.383433 4.60648e-19)
(-5.19043 0.22685 -3.56222e-21)
(-5.27879 0.0565593 1.87305e-19)
(-5.32009 -0.125733 -1.67735e-19)
(-5.322 -0.318201 0)
(-5.28508 -0.517458 -1.83456e-19)
(-5.216 -0.718256 5.25983e-20)
(-5.12361 -0.914622 -8.62375e-20)
(-5.02017 -1.09956 -3.95809e-21)
(-4.92821 -1.26385 0)
(-4.88319 -1.3835 0)
(-0.0336193 -0.469488 0)
(-0.315341 -0.240701 4.41982e-17)
(-0.481475 -0.0786884 -4.03961e-17)
(-0.729581 0.102942 0)
(-1.00567 0.277684 1.75611e-17)
(-1.30563 0.446558 -1.88466e-17)
(-1.62118 0.605952 1.17194e-17)
(-1.94633 0.751377 -1.51777e-17)
(-2.2775 0.878164 1.79049e-18)
(-2.61224 0.982422 -1.69636e-18)
(-2.94877 1.0613 0)
(-3.28502 1.11273 -7.54309e-19)
(-3.61818 1.13515 4.18744e-18)
(-3.94498 1.12779 -2.04922e-18)
(-4.26129 1.09046 0)
(-4.56284 1.0237 0)
(-4.84486 0.928684 5.00844e-19)
(-5.10196 0.80715 -1.02358e-18)
(-5.32938 0.661438 0)
(-5.52261 0.494407 0)
(-5.67809 0.309288 -1.93492e-19)
(-5.79361 0.109588 0)
(-5.86725 -0.101052 2.93947e-19)
(-5.90558 -0.318868 -2.86586e-19)
(-5.91114 -0.539842 1.16196e-19)
(-5.89006 -0.756733 0)
(-5.85094 -0.961669 4.4219e-20)
(-5.80574 -1.14717 5.37592e-20)
(-5.77084 -1.30559 9.77736e-21)
(-5.75885 -1.41559 -1.55547e-20)
(0.0319648 -0.293479 5.1487e-17)
(-0.30858 -0.00209621 1.70983e-19)
(-0.545702 0.169271 -3.95624e-17)
(-0.849809 0.355438 3.66591e-17)
(-1.16942 0.534528 1.70166e-17)
(-1.49837 0.704952 -1.63263e-17)
(-1.83138 0.863701 -9.87866e-21)
(-2.16552 1.0069 1.83917e-18)
(-2.50025 1.13073 -1.73853e-18)
(-2.83537 1.23169 -5.6097e-21)
(-3.17072 1.30684 7.79122e-19)
(-3.5054 1.35367 6.47409e-18)
(-3.83768 1.37015 -6.29027e-18)
(-4.16516 1.35496 -6.42337e-19)
(-4.48452 1.30746 2.32314e-18)
(-4.7918 1.2278 -3.88465e-18)
(-5.08287 1.11688 2.64102e-18)
(-5.35286 0.976411 0)
(-5.59702 0.808926 0)
(-5.81115 0.617678 1.97086e-19)
(-5.99164 0.406654 -3.45452e-19)
(-6.13628 0.180694 3.6813e-20)
(-6.24343 -0.054884 3.67089e-20)
(-6.31557 -0.294694 2.69944e-19)
(-6.35988 -0.533921 9.68283e-20)
(-6.38049 -0.76431 -9.45703e-20)
(-6.38567 -0.976632 0)
(-6.387 -1.1631 -1.93179e-20)
(-6.39532 -1.31656 -1.61867e-20)
(-6.40628 -1.41792 9.33408e-21)
(0.15319 -0.0237671 -5.28246e-17)
(-0.231498 0.278096 4.16337e-17)
(-0.535343 0.461539 3.79666e-17)
(-0.881127 0.648422 -3.56099e-17)
(-1.22751 0.82367 0)
(-1.57007 0.988003 3.99694e-18)
(-1.90728 1.13978 3.81261e-18)
(-2.23982 1.27597 -3.62924e-18)
(-2.56988 1.39341 1.7253e-18)
(-2.89922 1.4887 1.62526e-18)
(-3.22898 1.55862 -7.65974e-19)
(-3.55928 1.60015 -7.20002e-19)
(-3.88922 1.61067 -2.63112e-18)
(-4.21698 1.58826 1.9464e-18)
(-4.53997 1.53176 -2.84587e-18)
(-4.85449 1.44082 1.68695e-18)
(-5.15655 1.31602 0)
(-5.44171 1.15896 0)
(-5.7052 0.972216 -8.01612e-19)
(-5.94265 0.759328 9.85516e-19)
(-6.15024 0.524871 4.98851e-19)
(-6.32542 0.274668 -3.31091e-19)
(-6.46666 0.0155359 -1.24732e-19)
(-6.57285 -0.245646 2.55583e-19)
(-6.65295 -0.501606 0)
(-6.71067 -0.744655 7.6286e-20)
(-6.75384 -0.964519 -5.23021e-20)
(-6.79375 -1.15302 5.13101e-20)
(-6.83652 -1.30307 -4.13383e-21)
(-6.86486 -1.39784 2.02066e-20)
(0.300862 0.305259 -4.89029e-17)
(-0.0997375 0.605465 7.99376e-17)
(-0.457332 0.792408 -2.1282e-19)
(-0.82961 0.969982 -3.38931e-17)
(-1.18693 1.13296 1.65564e-17)
(-1.52896 1.28471 -1.80672e-17)
(-1.85856 1.4248 -3.81763e-18)
(-2.18029 1.551 1.43694e-17)
(-2.49864 1.66034 -1.56619e-17)
(-2.81695 1.74923 -6.40181e-18)
(-3.13746 1.8139 6.97816e-18)
(-3.46104 1.85068 -3.16265e-22)
(-3.78744 1.85629 -6.66989e-19)
(-4.11526 1.82811 6.21499e-19)
(-4.44228 1.76438 2.80273e-18)
(-4.76517 1.66421 -4.23693e-18)
(-5.07998 1.5278 2.0212e-18)
(-5.38232 1.3565 0)
(-5.66737 1.15284 4.00915e-19)
(-5.9304 0.920561 -3.72935e-19)
(-6.16714 0.66471 -4.8146e-19)
(-6.37438 0.391818 1.7044e-19)
(-6.55006 0.109876 -6.74609e-21)
(-6.69285 -0.172249 -2.07487e-19)
(-6.80657 -0.444791 2.00699e-19)
(-6.89815 -0.700581 -7.59253e-20)
(-6.97495 -0.928858 0)
(-7.04801 -1.12084 -3.59704e-20)
(-7.1195 -1.26931 1.99788e-20)
(-7.16191 -1.35953 2.01718e-20)
(0.472117 0.690241 4.73878e-17)
(0.0764403 0.975782 -3.85134e-17)
(-0.319916 1.14944 -1.13075e-18)
(-0.702193 1.30655 -1.083e-18)
(-1.05427 1.44961 0)
(-1.38194 1.58384 0)
(-1.69309 1.70948 1.93232e-18)
(-1.99563 1.82461 1.73366e-17)
(-2.2959 1.9259 -2.18695e-17)
(-2.59851 2.00916 1.39453e-17)
(-2.90642 2.06988 -7.02924e-18)
(-3.2211 2.1036 -3.44672e-22)
(-3.54272 2.10628 9.51218e-22)
(-3.87023 2.0746 0)
(-4.20161 2.0061 0)
(-4.5338 1.8993 0)
(-4.86295 1.75393 -4.75448e-19)
(-5.18456 1.57099 8.32348e-19)
(-5.49361 1.35282 -4.77829e-19)
(-5.78489 1.10324 -7.4954e-19)
(-6.05346 0.827644 0)
(-6.29508 0.533219 1.44142e-19)
(-6.50674 0.229025 -1.27126e-19)
(-6.68647 -0.0743643 -9.25793e-20)
(-6.83309 -0.364622 1.10996e-19)
(-6.95625 -0.633917 1.57885e-20)
(-7.0638 -0.872011 5.78223e-20)
(-7.1664 -1.06924 3.59718e-20)
(-7.26293 -1.21806 -1.99562e-20)
(-7.31735 -1.3055 -2.03676e-20)
(0.663007 1.11522 2.33869e-19)
(0.286929 1.3744 3.74208e-17)
(-0.132906 1.51769 1.12225e-18)
(-0.506377 1.64341 0)
(-0.83637 1.76009 1.07605e-18)
(-1.13598 1.8736 -1.75335e-17)
(-1.41815 1.98409 1.60425e-17)
(-1.69343 2.08898 -9.36624e-18)
(-1.96954 2.18401 1.07549e-18)
(-2.25185 2.26396 5.96258e-18)
(-2.54382 2.32338 0)
(-2.84723 2.35689 -5.84035e-22)
(-3.16249 2.35963 1.34872e-18)
(-3.48879 2.32752 -6.20827e-19)
(-3.8243 2.2574 0)
(-4.16615 2.14716 2.00629e-18)
(-4.51053 1.99595 -1.49957e-18)
(-4.85277 1.80432 -8.16564e-19)
(-5.18749 1.57437 -2.98445e-19)
(-5.50893 1.30987 7.28939e-19)
(-5.81132 1.01652 0)
(-6.0894 0.702069 2.49042e-19)
(-6.33891 0.376384 -1.39114e-19)
(-6.55681 0.0511962 -1.03202e-19)
(-6.74147 -0.260753 7.22216e-20)
(-6.8951 -0.545704 -1.10559e-20)
(-7.03181 -0.79546 -6.60681e-20)
(-7.16177 -0.999909 -7.07681e-21)
(-7.28108 -1.15103 -8.64731e-21)
(-7.34628 -1.23721 9.48434e-21)
(0.868971 1.56061 -7.60947e-20)
(0.523352 1.78394 7.49238e-17)
(0.0929182 1.88023 -3.67664e-17)
(-0.250932 1.96428 0)
(-0.541324 2.04946 -1.11784e-18)
(-0.798876 2.14114 1.08076e-18)
(-1.04133 2.23799 0)
(-1.28119 2.33562 7.74976e-18)
(-1.52689 2.42806 -8.3965e-18)
(-1.78414 2.5087 -6.78911e-18)
(-2.05645 2.57084 5.74165e-18)
(-2.34569 2.6081 -2.16424e-18)
(-2.65232 2.61478 4.80411e-18)
(-2.97567 2.58605 -1.96667e-18)
(-3.31416 2.51812 -5.74688e-19)
(-3.66516 2.40822 0)
(-4.02498 2.25482 9.02769e-19)
(-4.38888 2.05792 -8.9199e-19)
(-4.75123 1.81922 1.03114e-20)
(-5.10574 1.54228 0)
(-5.44568 1.23282 2.86639e-19)
(-5.76445 0.898943 2.4728e-19)
(-6.056 0.551058 -3.13132e-19)
(-6.31534 0.201857 3.10012e-20)
(-6.53953 -0.133746 8.35058e-20)
(-6.72287 -0.436562 -5.98607e-20)
(-6.88776 -0.699926 1.45082e-19)
(-7.04415 -0.913789 6.58414e-21)
(-7.18518 -1.06916 3.01317e-20)
(-7.26056 -1.1555 -2.08502e-20)
(1.08335 2.01737 0)
(0.773541 2.19199 -1.17415e-18)
(0.340373 2.21913 -2.15696e-17)
(0.0513713 2.25001 1.93683e-17)
(-0.179859 2.29971 0)
(-0.379728 2.37152 0)
(-0.570989 2.45942 0)
(-0.766889 2.55545 1.02578e-18)
(-0.975714 2.65115 9.62219e-19)
(-1.20276 2.73805 9.01967e-19)
(-1.45119 2.80812 8.33047e-19)
(-1.72259 2.85399 0)
(-2.01727 2.86917 0)
(-2.33466 2.84832 0)
(-2.6735 2.78711 2.84819e-18)
(-3.03165 2.68208 -3.75063e-18)
(-3.40575 2.53093 1.46803e-18)
(-3.79114 2.33296 -8.0065e-19)
(-4.18212 2.08936 1.54038e-18)
(-4.57177 1.80316 3.05142e-19)
(-4.95202 1.47982 -3.32674e-19)
(-5.3144 1.12772 -5.1316e-19)
(-5.65069 0.758092 1.86194e-19)
(-5.95365 0.384751 -1.84716e-19)
(-6.21844 0.0242763 5.21207e-20)
(-6.44483 -0.30464 0)
(-6.6382 -0.585373 -6.26912e-20)
(-6.82148 -0.811194 2.50489e-20)
(-6.98433 -0.972778 -2.31636e-20)
(-7.06988 -1.06058 3.31462e-21)
(1.29033 2.4832 0)
(1.01605 2.59997 -2.47329e-18)
(0.572831 2.51828 -3.21807e-21)
(0.381088 2.47182 1.29827e-18)
(0.234378 2.48734 0)
(0.111427 2.54785 9.6853e-18)
(-0.0163107 2.63658 -1.04969e-17)
(-0.159619 2.73987 0)
(-0.325013 2.84637 0)
(-0.516527 2.94622 -9.45541e-19)
(-0.736368 3.03036 -3.42816e-18)
(-0.98547 3.09033 4.10176e-18)
(-1.2637 3.11916 0)
(-1.5704 3.11119 2.58289e-18)
(-1.90484 3.06185 -2.50729e-18)
(-2.26577 2.96709 1.08386e-18)
(-2.65046 2.82357 -1.40051e-18)
(-3.05465 2.62981 1.7018e-18)
(-3.47301 2.38626 -1.16911e-18)
(-3.8985 2.09503 -2.98345e-19)
(-4.32194 1.7607 2.97593e-19)
(-4.73307 1.39176 2.23682e-19)
(-5.12174 1.00021 1.8336e-19)
(-5.47802 0.600573 9.43856e-20)
(-5.79351 0.210495 -1.14987e-19)
(-6.0663 -0.149106 5.36472e-20)
(-6.28914 -0.451546 5.56234e-20)
(-6.5002 -0.691802 -4.03942e-20)
(-6.68617 -0.861457 0)
(-6.78251 -0.951895 3.28398e-21)
(1.38225 2.98784 4.89955e-17)
(1.18283 3.09526 -7.44272e-18)
(0.735614 2.75418 2.42145e-17)
(0.703279 2.5962 -1.29143e-17)
(0.688424 2.58769 9.92419e-18)
(0.664723 2.65189 -1.03131e-17)
(0.613297 2.75464 -3.64792e-18)
(0.531603 2.87731 5.30369e-18)
(0.41536 3.00639 0)
(0.26363 3.12821 -5.0797e-19)
(0.0769841 3.2328 -3.64048e-18)
(-0.144867 3.31215 2.63806e-18)
(-0.401111 3.35883 3.00198e-18)
(-0.690694 3.36771 -2.89452e-18)
(-1.01349 3.33539 -8.91009e-19)
(-1.36978 3.2568 6.0901e-19)
(-1.75781 3.12689 0)
(-2.17398 2.94338 2.14409e-19)
(-2.61435 2.70619 3.47829e-19)
(-3.07338 2.41601 -3.44151e-19)
(-3.5416 2.07565 -2.44477e-19)
(-4.0069 1.69326 1.58451e-20)
(-4.45644 1.28165 -1.0146e-19)
(-4.87553 0.855889 -1.94882e-19)
(-5.24898 0.43495 6.28603e-20)
(-5.56972 0.0425131 0)
(-5.84447 -0.293596 -6.81469e-20)
(-6.0856 -0.553434 9.66066e-21)
(-6.29788 -0.733156 -6.10862e-21)
(-6.40647 -0.827434 3.26772e-21)
(9.98765 0.107665 4.40049e-18)
(9.97934 0.214307 0)
(9.96005 0.321544 -2.26635e-18)
(9.92896 0.43121 3.32276e-21)
(9.88965 0.544834 -1.17197e-18)
(9.84373 0.663848 -1.19351e-18)
(9.79164 0.78951 3.63498e-18)
(9.73364 0.923067 -1.22744e-18)
(9.66967 1.06583 -1.24461e-18)
(9.60033 1.21915 -6.32398e-18)
(9.52613 1.38441 5.11129e-18)
(9.44758 1.56288 0)
(9.36539 1.75608 -1.30237e-18)
(9.28005 1.96578 1.05516e-17)
(9.19223 2.19377 -2.25343e-17)
(9.10306 2.4421 2.13047e-17)
(9.01368 2.71319 -1.19949e-17)
(8.92531 3.00964 -1.32512e-18)
(8.84 3.33467 -9.27786e-18)
(8.75959 3.69179 -9.13124e-18)
(8.68724 4.08525 1.41801e-18)
(8.62639 4.52002 2.03709e-17)
(8.58109 5.00192 0)
(8.55677 5.53856 5.88574e-19)
(8.5618 6.13923 1.90947e-17)
(8.59877 6.81929 -1.79584e-17)
(8.71742 7.58948 0)
(8.81335 8.5246 -6.6204e-19)
(9.63949 9.51162 -1.59932e-18)
(10.2977 12.0853 0)
(9.9879 0.111954 -4.01176e-18)
(9.98083 0.222847 -2.71226e-19)
(9.96374 0.334363 2.2088e-18)
(9.93599 0.448397 2.24268e-18)
(9.90076 0.566514 2.27919e-18)
(9.85953 0.690121 -1.15532e-18)
(9.81306 0.820464 0)
(9.76165 0.95887 1.19368e-18)
(9.70525 1.10668 5.57208e-21)
(9.64442 1.2652 1.22454e-18)
(9.5798 1.43574 1.23141e-18)
(9.51221 1.61964 -4.99299e-18)
(9.44208 1.81836 -3.7817e-18)
(9.37012 2.03365 1.01146e-17)
(9.2976 2.26734 -8.89711e-18)
(9.22521 2.52123 1.01874e-17)
(9.15466 2.79766 -8.90157e-18)
(9.08776 3.09918 3.05205e-20)
(9.02658 3.42861 -1.23656e-18)
(8.97375 3.78913 1.86545e-17)
(8.93268 4.18442 -9.80635e-18)
(8.90757 4.61877 0)
(8.90375 5.09702 0)
(8.92824 5.62503 -5.62159e-19)
(8.99186 6.20937 3.26552e-20)
(9.10347 6.85903 -4.90979e-19)
(9.31454 7.57724 -7.15138e-18)
(9.55359 8.38567 9.42356e-18)
(10.196 9.20089 1.51632e-18)
(10.8901 10.2784 3.84713e-18)
(9.98816 0.115938 2.08307e-18)
(9.9825 0.230761 0)
(9.96783 0.346161 0)
(9.94342 0.464176 -1.09095e-18)
(9.91227 0.586446 -1.1082e-18)
(9.87607 0.714254 1.1249e-18)
(9.8356 0.848782 0)
(9.791 0.991486 -3.46762e-18)
(9.74241 1.14377 5.83678e-18)
(9.69036 1.30681 0)
(9.63563 1.48184 -1.19535e-18)
(9.57928 1.67024 -1.19792e-18)
(9.52169 1.87349 0)
(9.46347 2.09313 -9.72838e-18)
(9.40642 2.33096 9.74954e-18)
(9.35155 2.58868 9.74938e-18)
(9.30044 2.86829 -1.8242e-17)
(9.25543 3.17212 2.05492e-17)
(9.21874 3.50255 -9.59106e-18)
(9.19347 3.86225 1.18816e-18)
(9.1833 4.2541 0)
(9.19293 4.68125 -5.58214e-19)
(9.22841 5.14683 -5.39526e-19)
(9.29723 5.65393 -8.25874e-18)