/*--------------------------------*- C++ -*----------------------------------*\
| =========                 |                                                 |
| \\      /  F ield         | OpenFOAM: The Open Source CFD Toolbox           |
|  \\    /   O peration     | Version:  4.1                                   |
|   \\  /    A nd           | Web:      www.OpenFOAM.org                      |
|    \\/     M anipulation  |                                                 |
\*---------------------------------------------------------------------------*/
FoamFile
{
    version     2.0;
    format      ascii;
    class       volVectorField;
    location    "3.1";
    object      Force;
}
// * * * * * * * * * * * * * * * * * * * * * * * * * * * * * * * * * * * * * //

dimensions      [1 1 -2 0 0 0 0];

internalField   uniform (0 0 0);

boundaryField
{
    inlet
    {
        type            calculated;
        value           uniform (0 0 0);
    }
    outlet
    {
        type            calculated;
        value           uniform (0 0 0);
    }
    flap
    {
        type            calculated;
        value           nonuniform List<vector> 
33
(
(3.84431 -1.25043e-18 -0.164353)
(3.8052 -7.24409e-19 -0.34973)
(3.7632 -2.14684e-20 -0.501411)
(3.71736 -5.00417e-18 -0.596403)
(3.67128 6.66676e-18 -0.653822)
(3.61995 -1.68835e-18 -0.692737)
(3.55583 1.6676e-18 -0.724083)
(3.47403 -3.10701e-18 -0.746522)
(3.37361 0 -0.754661)
(3.25462 -1.64082e-18 -0.745351)
(3.11409 -5.85735e-23 -0.719446)
(2.93949 -9.76964e-18 -0.679765)
(2.70713 -9.40395e-38 -0.625471)
(2.37243 -5.03587e-18 -0.546552)
(1.83123 -1.45463e-18 -0.421037)
(0.143591 8.77656e-19 0.605305)
(0.0833531 8.16198e-19 0.357235)
(0.0211238 -7.66262e-19 0.0965852)
(-0.103989 -1.43666e-18 0.00459589)
(-0.104562 -1.47448e-18 0.00961242)
(-0.105271 -1.51425e-18 0.0139952)
(-0.106361 -1.48197e-19 0.016938)
(-0.107807 1.72011e-18 0.0190016)
(-0.109445 -1.5257e-19 0.0206895)
(-0.111163 1.58978e-18 0.0223355)
(-0.113167 -5.87747e-39 0.0240114)
(-0.115754 -1.60887e-18 0.0256244)
(-0.118842 8.03519e-22 0.0270283)
(-0.121961 -1.62956e-18 0.0281328)
(-0.124873 1.6406e-18 0.0290812)
(-0.12714 -2.00997e-18 0.0298548)
(-0.126687 9.21111e-23 0.0300237)
(-0.121246 6.938e-22 0.0288098)
)
;
    }
    upperWall
    {
        type            calculated;
        value           uniform (0 0 0);
    }
    lowerWall
    {
        type            calculated;
        value           uniform (0 0 0);
    }
    frontAndBack
    {
        type            empty;
    }
}


// ************************************************************************* //
