/*--------------------------------*- C++ -*----------------------------------*\
| =========                 |                                                 |
| \\      /  F ield         | OpenFOAM: The Open Source CFD Toolbox           |
|  \\    /   O peration     | Version:  4.1                                   |
|   \\  /    A nd           | Web:      www.OpenFOAM.org                      |
|    \\/     M anipulation  |                                                 |
\*---------------------------------------------------------------------------*/
FoamFile
{
    version     2.0;
    format      ascii;
    class       volVectorField;
    location    "3.1";
    object      U;
}
// * * * * * * * * * * * * * * * * * * * * * * * * * * * * * * * * * * * * * //

dimensions      [0 1 -1 0 0 0 0];

internalField   nonuniform List<vector> 
2790
(
(9.94689 -7.47031e-21 0.0207611)
(9.8685 3.81672e-20 0.0292089)
(9.75961 -1.57261e-20 0.0350416)
(9.62999 1.6103e-20 0.0410989)
(9.48359 3.32757e-20 0.047393)
(9.32037 0 0.0538488)
(9.1397 0 0.0605923)
(8.9412 -7.40148e-20 0.0677751)
(8.72443 8.08369e-20 0.0755218)
(8.48873 7.99331e-20 0.083949)
(8.23322 -8.23259e-20 0.0931703)
(7.95689 1.73977e-19 0.103302)
(7.65859 -2.02301e-19 0.114471)
(7.33713 0 0.126802)
(6.99123 4.98139e-20 0.140405)
(6.6197 0 0.155386)
(6.22149 4.4746e-19 0.17184)
(5.79566 1.24452e-19 0.189813)
(5.34165 -4.97345e-19 0.209287)
(4.85943 0 0.230155)
(4.34972 0 0.252171)
(3.81419 -3.07583e-19 0.274906)
(3.25585 0 0.297658)
(2.67937 0 0.319331)
(2.09152 3.91036e-19 0.33821)
(1.50172 0 0.351536)
(0.922117 3.73097e-18 0.354514)
(0.381761 -4.05143e-18 0.332793)
(-0.181731 -1.07099e-18 0.0793242)
(-0.168787 -2.26878e-18 -0.451629)
(10.0069 1.48911e-20 0.0408756)
(9.98494 -4.54881e-20 0.0609695)
(9.93526 0 0.0761329)
(9.86342 0 0.0921503)
(9.77212 -9.81016e-20 0.109117)
(9.66151 0 0.126816)
(9.53121 0 0.145499)
(9.38095 -1.78827e-20 0.165504)
(9.21033 -4.62541e-21 0.187112)
(9.01876 0 0.210593)
(8.80543 -9.92672e-21 0.236204)
(8.56935 2.06305e-20 0.264203)
(8.3094 6.71171e-19 0.294857)
(8.02441 -7.13126e-19 0.328424)
(7.71305 -4.69268e-20 0.365093)
(7.37404 6.94043e-19 0.405002)
(7.00621 -8.20364e-19 0.448223)
(6.6085 -1.08809e-19 0.494671)
(6.18006 0 0.544031)
(5.72056 0 0.595683)
(5.23026 -2.57831e-19 0.648588)
(4.71031 2.75275e-19 0.701162)
(4.1631 0 0.751096)
(3.59255 0 0.795073)
(3.00475 -3.3939e-19 0.828322)
(2.40883 5.87573e-18 0.8437)
(1.81804 -1.90199e-17 0.829357)
(1.25415 1.19845e-17 0.760881)
(0.697484 1.59567e-17 0.566313)
(0.448061 2.16317e-18 0.131163)
(10.0041 0 0.0427165)
(9.97945 6.0632e-20 0.0726251)
(9.93223 -6.17755e-20 0.0982526)
(9.86551 0 0.124898)
(9.78071 6.50739e-20 0.15308)
(9.67806 -2.68409e-19 0.182676)
(9.55748 2.73967e-19 0.214034)
(9.41886 1.77213e-20 0.247633)
(9.2619 0 0.283911)
(9.08613 4.71652e-21 0.323305)
(8.89089 9.77844e-21 0.366252)
(8.6753 -2.02711e-20 0.413182)
(8.43839 4.20896e-20 0.464546)
(8.17912 -8.73208e-20 0.520793)
(7.89632 0 0.5823)
(7.58865 9.51536e-20 0.649335)
(7.2549 0 0.722066)
(6.89386 0 0.800447)
(6.50439 4.35864e-19 0.884079)
(6.0856 -3.70144e-18 0.972072)
(5.63696 4.09312e-18 1.06285)
(5.15848 -3.61088e-18 1.15398)
(4.65093 4.31688e-18 1.24179)
(4.11607 0 1.32101)
(3.55692 9.88766e-18 1.384)
(2.9779 -1.05067e-17 1.41959)
(2.38353 -1.13758e-17 1.41067)
(1.77936 1.22726e-17 1.32914)
(1.11504 -2.88048e-17 1.13392)
(0.628338 3.91899e-18 0.75153)
(10.0025 0 0.0482095)
(9.97552 6.04668e-20 0.0892558)
(9.9282 -6.15509e-20 0.126396)
(9.86279 -2.52758e-19 0.163749)
(9.77976 1.29005e-19 0.20251)
(9.67932 0 0.242965)
(9.56163 0 0.285636)
(9.42679 -3.50735e-20 0.331165)
(9.27463 -5.81867e-19 0.380158)
(9.10482 5.98812e-19 0.433232)
(8.91693 6.20595e-19 0.491004)
(8.71031 -6.74326e-19 0.55408)
(8.48425 0 0.623075)
(8.23801 -1.29456e-18 0.698614)
(7.97082 1.4149e-18 0.781294)
(7.68164 -1.49159e-18 0.87159)
(7.36943 1.34002e-18 0.96983)
(7.03313 0 1.0761)
(6.67162 -8.404e-19 1.19009)
(6.28389 3.98122e-18 1.31092)
(5.86885 -3.66568e-18 1.43685)
(5.42556 4.79734e-19 1.56505)
(4.9532 0 1.69119)
(4.45102 8.66031e-18 1.80894)
(3.91821 -9.08855e-18 1.90917)
(3.35344 9.75596e-18 1.97908)
(2.75262 -1.03773e-17 2.00095)
(2.11193 2.39776e-17 1.95042)
(1.37264 3.20125e-18 1.80726)
(0.753231 -3.22174e-17 1.51401)
(10.0017 1.7707e-19 0.0551412)
(9.97348 1.80621e-19 0.105679)
(9.92605 5.42464e-22 0.152901)
(9.86174 1.25893e-19 0.200014)
(9.78045 0 0.248635)
(9.68218 -1.31736e-19 0.299421)
(9.56714 0 0.353024)
(9.43557 5.94031e-19 0.410186)
(9.28731 -5.70082e-19 0.471635)
(9.1221 5.83999e-19 0.53809)
(8.93964 -5.95808e-19 0.610285)
(8.73947 1.34282e-18 0.68895)
(8.52103 1.58235e-20 0.774804)
(8.28374 -1.33619e-18 0.868565)
(8.02709 0 0.970971)
(7.75038 -3.08921e-18 1.0827)
(7.45284 3.16893e-18 1.20427)
(7.13356 0 1.33591)
(6.79152 -2.86137e-18 1.47744)
(6.42573 9.74896e-18 1.62813)
(6.0348 -7.01862e-18 1.78639)
(5.61708 -7.28233e-21 1.9494)
(5.17052 -7.77488e-18 2.11288)
(4.69231 8.0773e-18 2.27038)
(4.17846 1.71874e-17 2.41274)
(3.62332 -1.80375e-17 2.52756)
(3.01776 -1.20123e-18 2.59893)
(2.35492 -2.08194e-17 2.60639)
(1.57711 -1.53234e-18 2.53811)
(0.872023 -8.67216e-19 2.3351)
(10.0015 -4.71537e-19 0.0627181)
(9.97264 1.19369e-19 0.12209)
(9.92539 -1.22274e-19 0.178951)
(9.86241 7.51551e-22 0.235758)
(9.78327 -1.27244e-19 0.294197)
(9.68768 6.56688e-19 0.355201)
(9.57581 -6.68965e-19 0.419547)
(9.44792 5.53684e-19 0.488058)
(9.30396 -5.63811e-19 0.561565)
(9.14372 0 0.640884)
(8.96697 -1.17269e-20 0.726857)
(8.77332 -7.72708e-20 0.820335)
(8.56232 0 0.922147)
(8.33353 -8.21191e-20 1.0331)
(8.08642 2.74088e-18 1.15403)
(7.82046 -2.62339e-18 1.28578)
(7.5351 0 1.42905)
(7.22962 3.04308e-18 1.58429)
(6.903 -2.72618e-18 1.7515)
(6.5541 4.05224e-19 1.93023)
(6.18139 8.4219e-19 2.1192)
(5.78251 5.32558e-18 2.31594)
(5.35459 -1.37783e-17 2.51669)
(4.89346 6.68303e-18 2.71572)
(4.39294 0 2.90472)
(3.84486 0 3.07256)
(3.23754 1.12748e-18 3.20516)
(2.56368 0 3.28349)
(1.77101 0 3.29541)
(1.00028 -2.20147e-17 3.17966)
(10.0015 4.69951e-19 0.0705495)
(9.97251 -1.19391e-19 0.138433)
(9.92582 -1.218e-19 0.20447)
(9.86456 6.20422e-19 0.270587)
(9.78799 3.82428e-19 0.338468)
(9.69549 -5.17918e-19 0.409299)
(9.58724 -2.68276e-19 0.483983)
(9.46359 5.43336e-19 0.563399)
(9.32458 -1.12491e-18 0.648471)
(9.17006 1.14447e-18 0.740133)
(8.99978 1.18141e-18 0.839334)
(8.81336 -1.17154e-18 0.947014)
(8.61047 7.80323e-20 1.06409)
(8.39079 8.08417e-20 1.19149)
(8.15372 -2.67669e-18 1.33014)
(7.89876 2.55785e-18 1.48099)
(7.62538 2.85178e-18 1.64489)
(7.33298 -3.27517e-18 1.82256)
(7.02052 -3.80016e-19 2.0143)
(6.6866 5.90787e-18 2.22001)
(6.32956 -7.26489e-18 2.43897)
(5.94645 7.6053e-18 2.66926)
(5.53357 -7.82026e-18 2.90785)
(5.08592 9.125e-19 3.15029)
(4.59607 -9.39475e-19 3.38963)
(4.05443 0 3.6161)
(3.44802 0 3.81681)
(2.76941 -1.83163e-17 3.97251)
(1.97502 -3.67091e-19 4.06512)
(1.14478 2.09311e-17 4.03441)
(10.0017 -2.34406e-19 0.078417)
(9.97283 -2.37401e-19 0.154554)
(9.92718 0 0.229285)
(9.86807 -6.59381e-22 0.30427)
(9.7943 0 0.381236)
(9.7052 -6.4586e-19 0.461544)
(9.60107 3.93336e-19 0.546161)
(9.48228 0 0.636021)
(9.34894 -1.11114e-18 0.73215)
(9.20088 2.26879e-18 0.835615)
(9.03784 -1.16732e-18 0.947471)
(8.85952 0 1.06871)
(8.66565 -7.69522e-20 1.20033)
(8.45593 -7.86283e-20 1.34337)
(8.22985 -1.61698e-19 1.49892)
(7.98688 1.67632e-19 1.66803)
(7.7264 5.53416e-18 1.85171)
(7.44772 -5.63158e-18 2.05093)
(7.14974 0 2.26637)
(6.83087 0 2.49839)
(6.48919 -5.8543e-18 2.74696)
(6.12155 6.37512e-18 3.01107)
(5.72334 1.24819e-17 3.28858)
(5.28872 -1.36408e-17 3.57632)
(4.80962 1.40781e-20 3.86906)
(4.2755 -9.16359e-19 4.15838)
(3.67249 -4.79174e-19 4.43205)
(2.99189 5.14708e-19 4.67016)
(2.20181 2.74063e-19 4.84448)
(1.3099 -1.96178e-17 4.8994)
(10.0019 -4.65704e-19 0.0861868)
(9.9735 4.72376e-19 0.170279)
(9.92939 2.404e-19 0.253225)
(9.87267 3.1369e-22 0.336668)
(9.80186 2.52505e-19 0.42237)
(9.71657 -1.26481e-19 0.511733)
(9.61713 0 0.605791)
(9.50382 1.072e-18 0.705573)
(9.37673 -1.08794e-18 0.812216)
(9.23574 -6.97123e-20 0.926896)
(9.08066 1.79425e-20 1.05076)
(8.9113 9.1427e-21 1.18485)
(8.72742 0 1.33022)
(8.52871 7.7417e-20 1.48807)
(8.31472 1.58913e-19 1.65962)
(8.08492 2.45186e-18 1.84608)
(7.83866 -8.01902e-18 2.04868)
(7.57507 1.13e-17 2.26865)
(7.29295 5.77043e-20 2.50709)
(6.99056 -5.74559e-18 2.7649)
(6.6656 -3.73029e-19 3.04276)
(6.31489 3.77893e-19 3.34089)
(5.93325 7.89134e-19 3.65837)
(5.51389 7.9869e-19 3.99333)
(5.04811 8.38631e-19 4.34238)
(4.52443 8.68227e-19 4.69866)
(3.92782 4.51652e-19 5.05045)
(3.24592 2.30931e-19 5.37736)
(2.46109 0 5.63817)
(1.49972 1.74532e-17 5.78324)
(10.0021 -1.14848e-19 0.0937533)
(9.97456 1.16126e-19 0.185448)
(9.93225 2.40035e-19 0.276167)
(9.87805 -4.86686e-19 0.367676)
(9.81056 0 0.461695)
(9.72955 -2.53755e-19 0.559608)
(9.63525 2.57925e-19 0.662573)
(9.52788 1.05974e-18 0.771742)
(9.40756 8.58573e-21 0.888329)
(9.27421 -1.02866e-18 1.01359)
(9.12776 0 1.14873)
(8.96818 2.30723e-18 1.29484)
(8.79522 -2.34766e-18 1.4531)
(8.60858 2.38773e-18 1.62484)
(8.40787 2.41443e-20 1.81142)
(8.19254 2.56588e-18 2.01422)
(7.96191 -5.14659e-18 2.23472)
(7.71511 -5.31556e-18 2.47449)
(7.45082 1.08219e-17 2.73507)
(7.16719 -2.95008e-19 3.01798)
(6.86166 -5.63324e-18 3.32471)
(6.53077 -1.19731e-17 3.65669)
(6.16922 2.40182e-17 4.01466)
(5.76958 -3.17936e-19 4.39849)
(5.32211 -2.47878e-17 4.80672)
(4.81408 1.23142e-17 5.23454)
(4.22861 -1.31497e-17 5.67132)
(3.5462 1.34526e-17 6.09707)
(2.76411 -2.19975e-19 6.45677)
(1.72033 2.99589e-20 6.70535)
(10.0024 5.78772e-19 0.101022)
(9.97597 1.1617e-19 0.19994)
(9.93556 -2.37642e-19 0.298024)
(9.88408 -2.42951e-19 0.397168)
(9.82034 4.91785e-19 0.49901)
(9.74398 0 0.604941)
(9.65515 -5.11668e-19 0.716276)
(9.55412 0 0.834274)
(9.44105 -9.35877e-19 0.960191)
(9.31587 2.30781e-18 1.09533)
(9.17872 -1.10403e-18 1.24093)
(9.02969 -2.27296e-18 1.39816)
(8.8685 4.65673e-18 1.56834)
(8.69491 -2.31543e-18 1.75292)
(8.50861 -2.41757e-18 1.95343)
(8.30905 2.52276e-18 2.17144)
(8.0956 0 2.40864)
(7.86739 0 2.66697)
(7.62316 5.22208e-18 2.94847)
(7.36104 -1.04219e-17 3.25535)
(7.0784 5.36956e-18 3.59002)
(6.77158 0 3.95517)
(6.43525 -5.23479e-19 4.35338)
(6.06166 -1.82802e-19 4.78681)
(5.64013 1.77189e-19 5.25657)
(5.15617 3.71024e-19 5.76092)
(4.59015 0 6.29181)
(3.91148 -1.18706e-19 6.83208)
(3.12956 8.77679e-21 7.31497)
(1.98423 -1.33151e-19 7.69943)
(10.0027 0 0.107923)
(9.97757 -1.1653e-18 0.213668)
(9.93922 2.362e-19 0.318707)
(9.89076 4.79994e-19 0.424999)
(9.83107 -2.46351e-19 0.534136)
(9.75961 -2.77167e-21 0.647558)
(9.67655 1.52235e-18 0.766715)
(9.58226 -2.06305e-18 0.892938)
(9.47686 9.1524e-19 1.02751)
(9.36036 -2.67476e-19 1.17175)
(9.23321 -2.05298e-18 1.32693)
(9.09545 4.51177e-18 1.49432)
(8.94672 -2.21853e-18 1.67535)
(8.78699 2.31752e-18 1.87164)
(8.61605 -4.68968e-18 2.08483)
(8.43351 7.24027e-18 2.31669)
(8.23877 7.39018e-20 2.56916)
(8.03104 3.46705e-20 2.8445)
(7.8092 -4.90357e-18 3.14525)
(7.57159 1.59546e-19 3.47435)
(7.31572 0 3.8352)
(7.03805 -8.00958e-20 4.2318)
(6.73346 1.65218e-19 4.66877)
(6.39428 -1.06638e-17 5.151)
(6.00934 1.04501e-17 5.68312)
(5.5624 0 6.26824)
(5.03055 0 6.90398)
(4.3684 1.10021e-17 7.5811)
(3.59118 -1.1179e-17 8.22829)
(2.31789 9.67688e-20 8.81627)
(10.0031 0 0.114413)
(9.97928 9.2671e-19 0.226566)
(9.94317 0 0.338106)
(9.898 -9.54981e-19 0.451033)
(9.84261 -2.43058e-19 0.566939)
(9.77628 0 0.687321)
(9.69926 5.0115e-19 0.813716)
(9.61203 -1.02252e-18 0.947514)
(9.51469 1.0333e-18 1.09001)
(9.40745 8.55851e-22 1.24251)
(9.29092 -1.34463e-19 1.40633)
(9.16495 -2.04068e-19 1.58288)
(9.02931 -2.07365e-19 1.77369)
(8.88416 -2.25834e-18 1.98043)
(8.72943 2.27636e-18 2.20488)
(8.56493 0 2.44901)
(8.39027 -3.69107e-20 2.71501)
(8.2048 0 3.00542)
(8.00768 -7.55895e-20 3.32324)
(7.79758 0 3.67208)
(7.57251 0 4.05628)
(7.32948 9.86749e-18 4.48123)
(7.06406 -1.96e-17 4.95355)
(6.76941 -1.54323e-19 5.4812)
(6.43499 9.63057e-18 6.07333)
(6.04399 0 6.74009)
(5.57128 9.54334e-18 7.48969)
(4.95519 -9.67663e-18 8.33046)
(4.20839 9.8078e-18 9.20545)
(2.77548 -1.01477e-17 10.1358)
(10.0035 5.6865e-19 0.120458)
(9.98109 -5.76665e-19 0.238574)
(9.94736 0 0.356122)
(9.90569 1.42315e-18 0.475152)
(9.85482 -9.60156e-19 0.5973)
(9.79381 -2.43612e-19 0.724099)
(9.72306 -2.48606e-19 0.857117)
(9.64321 1.0102e-18 0.997791)
(9.55432 -1.01987e-18 1.14742)
(9.45685 1.30243e-19 1.30729)
(9.3513 -2.11512e-18 1.47881)
(9.23752 2.26689e-18 1.66349)
(9.11553 1.36195e-19 1.86292)
(8.98564 2.34183e-18 2.07879)
(8.84789 -2.2191e-18 2.31297)
(8.70233 6.98993e-20 2.56759)
(8.54886 -7.05414e-20 2.84507)
(8.38718 0 3.1482)
(8.21682 -7.14478e-20 3.48034)
(8.03701 0 3.84561)
(7.84653 4.63226e-18 4.24919)
(7.64345 -9.63575e-21 4.69761)
(7.42481 -1.37599e-17 5.19933)
(7.18576 8.98102e-18 5.76525)
(6.91839 1.42276e-19 6.4094)
(6.60863 0 7.15055)
(6.23424 0 8.01273)
(5.72367 -8.0081e-18 9.03606)
(5.08684 7.85603e-18 10.222)
(3.47154 0 11.806)
(10.004 -3.40639e-19 0.126031)
(9.98299 1.15048e-19 0.24964)
(9.95179 -6.94958e-19 0.372686)
(9.91375 -4.71643e-19 0.497276)
(9.86751 4.78285e-19 0.625121)
(9.81201 2.42559e-19 0.757765)
(9.74779 -7.39344e-19 0.896752)
(9.67555 -2.53219e-19 1.04355)
(9.59546 7.55227e-19 1.19948)
(9.50804 2.54872e-19 1.36583)
(9.41371 0 1.54409)
(9.31245 0 1.73581)
(9.20458 -2.1308e-18 1.9426)
(9.09043 2.00785e-18 2.16617)
(8.9703 -2.17443e-18 2.40845)
(8.84442 -2.26974e-18 2.67165)
(8.71303 4.60179e-18 2.95835)
(8.57629 -4.42879e-18 3.27149)
(8.43427 4.63728e-18 3.61466)
(8.28694 0 3.99233)
(8.13413 0 4.41015)
(7.97545 0 4.87541)
(7.81016 -4.28514e-18 5.39777)
(7.63685 4.51169e-18 5.99018)
(7.453 0 6.67039)
(7.25295 0 7.4645)
(7.0295 0 8.41241)
(6.72835 -8.1503e-19 9.59258)
(6.41331 -5.63433e-18 11.1228)
(4.62661 5.7608e-18 14.1925)
(-0.00739762 -1.3045e-19 -0.0147239)
(0.0872567 1.26194e-19 -0.0613461)
(0.243694 0 -0.075595)
(0.402547 6.8108e-21 -0.0692549)
(0.546913 0 -0.0550324)
(0.664923 0 -0.0392324)
(0.75228 8.97083e-20 -0.0245973)
(0.810402 -8.78206e-20 -0.0123811)
(0.843843 4.08012e-20 -0.00296491)
(0.857985 -4.02109e-20 0.00374039)
(0.857948 0 0.00759365)
(0.848943 -1.80514e-20 0.00902087)
(0.835377 1.78244e-20 0.00923106)
(0.819268 0 0.00951249)
(0.800476 0 0.00981643)
(0.779573 -7.69789e-21 0.00944581)
(0.759069 0 0.00806508)
(0.740955 0 0.006661)
(0.723349 -1.69868e-22 0.00663673)
(0.702836 -9.26039e-21 0.00681899)
(0.680059 2.93437e-21 0.00549323)
(0.661052 -5.24565e-21 0.00307065)
(0.654567 0 0.000497424)
(0.665986 0 -0.00438208)
(0.692644 -3.6384e-21 -0.0100446)
(0.731096 6.8328e-22 -0.0167965)
(0.780795 -6.70831e-22 -0.0231658)
(0.841826 0 -0.0276497)
(0.911685 0 -0.0298768)
(1.01219 0 -0.030037)
(-0.00571006 -4.86256e-19 -0.0642991)
(0.0916162 0 -0.173877)
(0.238836 4.47882e-19 -0.20063)
(0.387309 -4.38136e-19 -0.185503)
(0.524816 0 -0.154018)
(0.642146 0 -0.118802)
(0.735562 0 -0.0854766)
(0.805976 -2.14688e-20 -0.0568454)
(0.856771 0 -0.033687)
(0.891443 -7.79297e-20 -0.0153233)
(0.913042 7.68599e-20 -0.0021243)
(0.924641 1.81995e-20 0.00477016)
(0.929715 0 0.00867232)
(0.92815 0 0.0131156)
(0.918935 0 0.017077)
(0.903249 3.75839e-20 0.0182932)
(0.885477 -1.56359e-20 0.0170995)
(0.868899 -2.80967e-20 0.0170428)
(0.850363 -6.15488e-21 0.0208808)
(0.82523 1.24637e-20 0.0239163)
(0.796105 -1.0923e-20 0.0207706)
(0.771183 1.09986e-20 0.00924243)
(0.756443 -4.56534e-21 -0.00745062)
(0.749469 0 -0.0203953)
(0.747117 -3.65898e-21 -0.0263666)
(0.740942 0 -0.0306705)
(0.735311 0 -0.0357143)
(0.741635 -3.51455e-21 -0.0419781)
(0.763333 0 -0.0499927)
(0.822762 0 -0.057582)
(-0.0118319 -1.07174e-18 -0.147304)
(0.0731744 -7.54002e-21 -0.286486)
(0.20041 5.27932e-21 -0.314181)
(0.321367 -4.24339e-19 -0.288638)
(0.430872 4.04016e-19 -0.241457)
(0.523263 3.74651e-19 -0.189236)
(0.596209 -3.67358e-19 -0.139757)
(0.650921 2.17294e-20 -0.097558)
(0.690465 1.43626e-19 -0.0635784)
(0.718092 -2.02286e-19 -0.0363899)
(0.734447 0 -0.0156255)
(0.741805 -1.8541e-20 -0.000720533)
(0.746687 7.01827e-20 0.00975282)
(0.745299 -6.91303e-20 0.0203349)
(0.731475 6.3991e-20 0.0296269)
(0.706628 -6.31427e-20 0.0317992)
(0.676562 1.47993e-20 0.024275)
(0.645371 0 0.0205259)
(0.610129 -2.64819e-20 0.0293783)
(0.561991 0 0.0396172)
(0.498834 1.16305e-20 0.0428934)
(0.424531 -1.08016e-20 0.0349447)
(0.347151 9.82098e-21 0.0187247)
(0.275467 0 0.00536944)
(0.243897 7.6088e-21 -0.00182864)
(0.231911 -9.8795e-21 -0.0120671)
(0.232428 -1.18097e-20 -0.029795)
(0.253692 2.57404e-21 -0.0521176)
(0.284322 1.88027e-22 -0.0749669)
(0.335364 -1.84126e-22 -0.0918447)
(-0.0405084 1.03581e-18 -0.258414)
(0.0343279 -9.24607e-19 -0.392604)
(0.142199 8.84894e-19 -0.406291)
(0.232614 -1.05606e-20 -0.365676)
(0.309459 -8.08592e-19 -0.303378)
(0.370998 0 -0.237039)
(0.417114 0 -0.174751)
(0.45032 4.40777e-20 -0.123049)
(0.471124 -3.57107e-19 -0.0801174)
(0.484932 4.1424e-19 -0.0418934)
(0.491519 -3.95752e-20 -0.0165498)
(0.488451 3.81879e-20 -0.0119887)
(0.473306 -1.44312e-19 -0.00550548)
(0.445113 1.42143e-19 0.0153315)
(0.398251 -3.35133e-20 0.0405373)
(0.325942 3.21785e-20 0.0587822)
(0.233092 -6.05521e-20 0.0641903)
(0.113573 3.0647e-20 0.0677146)
(0.0409846 -1.00786e-22 0.0824983)
(-0.0134836 -2.54097e-20 0.0941846)
(-0.0670612 -1.06929e-20 0.0947713)
(-0.113731 1.1995e-20 0.0830388)
(-0.150854 -2.05344e-20 0.0604222)
(-0.176553 -9.67548e-21 0.0293858)
(-0.185028 -8.3945e-21 -0.0011282)
(-0.181891 1.2963e-20 -0.025194)
(-0.175333 7.98972e-21 -0.0475577)
(-0.16733 1.4293e-21 -0.0691425)
(-0.162098 7.30864e-22 -0.0887937)
(-0.159004 0 -0.103451)
(-0.0897662 -7.82124e-21 -0.379359)
(-0.0265808 -9.17996e-19 -0.486513)
(0.0574309 8.74358e-19 -0.474992)
(0.11157 0 -0.415307)
(0.150217 1.26491e-20 -0.339013)
(0.174649 0 -0.2625)
(0.187349 0 -0.191625)
(0.195586 -4.54843e-20 -0.13591)
(0.186077 -3.03222e-19 -0.10071)
(0.181151 3.02277e-19 -0.0642018)
(0.139163 8.2721e-20 -0.0180532)
(0.0642557 -3.99857e-20 0.0171704)
(-0.0705483 -1.13781e-19 0.0438489)
(-0.155738 1.50946e-19 0.0767762)
(-0.20161 2.09409e-19 0.107938)
(-0.258026 -2.01845e-19 0.126496)
(-0.324257 6.16658e-20 0.130448)
(-0.397335 -3.07794e-20 0.122432)
(-0.447296 2.75188e-20 0.117346)
(-0.48421 -2.49537e-20 0.116656)
(-0.510878 4.83031e-20 0.109365)
(-0.528713 2.18312e-20 0.0908102)
(-0.54148 1.98063e-20 0.0626637)
(-0.552302 1.75913e-20 0.0306693)
(-0.561279 7.02594e-21 0.00180603)
(-0.566716 -2.51605e-20 -0.023026)
(-0.574788 -4.30614e-21 -0.0461339)
(-0.583176 1.42928e-21 -0.0677441)
(-0.593606 -1.01485e-20 -0.0878852)
(-0.602631 3.65555e-22 -0.104593)
(-0.148862 -1.58499e-20 -0.490676)
(-0.109206 -9.62421e-19 -0.555153)
(-0.0597057 9.03558e-19 -0.511512)
(-0.0523372 0 -0.428026)
(-0.0621389 8.11036e-19 -0.338017)
(-0.0864602 -7.94649e-19 -0.255806)
(-0.120702 7.78214e-19 -0.184458)
(-0.145832 -7.77146e-19 -0.112018)
(-0.258117 3.66975e-19 -0.0440244)
(-0.391802 -3.57456e-19 0.0171405)
(-0.452467 2.86616e-22 0.0683076)
(-0.495692 -3.13629e-19 0.100174)
(-0.565489 1.57338e-19 0.107702)
(-0.626141 4.38914e-21 0.117347)
(-0.672194 -2.947e-20 0.137291)
(-0.713668 3.59563e-20 0.153495)
(-0.75498 1.51882e-19 0.156697)
(-0.796871 -2.95628e-20 0.148474)
(-0.831585 5.20433e-20 0.138317)
(-0.857497 -7.60078e-20 0.129518)
(-0.874759 -2.30598e-20 0.115926)
(-0.886763 2.0438e-20 0.0942154)
(-0.897813 -3.84999e-20 0.0658225)
(-0.910393 -7.10369e-21 0.0350376)
(-0.924015 1.10808e-21 0.00640181)
(-0.935757 2.44433e-20 -0.018605)
(-0.949715 2.12143e-20 -0.0412347)
(-0.966701 6.56444e-22 -0.0625134)
(-0.984824 9.4963e-21 -0.0828554)
(-0.997339 2.78792e-21 -0.0997101)
(-0.210861 1.57376e-20 -0.574249)
(-0.213972 9.46963e-19 -0.580958)
(-0.214609 -9.17825e-19 -0.496368)
(-0.268314 -3.52334e-21 -0.382619)
(-0.343402 8.51631e-19 -0.273357)
(-0.437642 -8.60881e-19 -0.177678)
(-0.551785 -8.29003e-19 -0.0886076)
(-0.660455 6.54631e-20 -0.0108184)
(-0.738168 7.28393e-19 0.0389794)
(-0.795176 0 0.0676796)
(-0.846793 -4.03489e-20 0.0955894)
(-0.892725 0 0.121861)
(-0.942841 -1.80476e-19 0.137471)
(-0.991408 1.40651e-19 0.148822)
(-1.03292 0 0.162925)
(-1.06771 0 0.173596)
(-1.0994 2.92944e-20 0.174498)
(-1.13051 -8.30958e-20 0.166236)
(-1.15893 0 0.154213)
(-1.18218 -2.29883e-20 0.140724)
(-1.20005 9.16091e-20 0.123179)
(-1.21495 -4.15639e-20 0.0998994)
(-1.22972 0 0.0718949)
(-1.2459 3.23422e-20 0.0421084)
(-1.26326 -8.80768e-21 0.0138431)
(-1.28011 -1.18837e-20 -0.0109596)
(-1.29833 5.15557e-21 -0.0329233)
(-1.32199 -1.17163e-20 -0.0535914)
(-1.34595 -1.28517e-21 -0.0736811)
(-1.3606 -2.79596e-21 -0.0897249)
(-0.27447 0 -0.607044)
(-0.337677 0 -0.539694)
(-0.410624 0 -0.403063)
(-0.532354 1.06238e-20 -0.270707)
(-0.663606 0 -0.16032)
(-0.789577 8.14497e-19 -0.0721977)
(-0.894706 -1.52423e-18 -0.00693732)
(-0.973257 7.10607e-19 0.0402056)
(-1.0388 3.49558e-19 0.0767771)
(-1.09844 -3.39672e-19 0.106613)
(-1.15112 0 0.131686)
(-1.19837 0 0.152308)
(-1.24442 -7.19792e-20 0.16659)
(-1.28883 1.33515e-19 0.177335)
(-1.32861 -1.92325e-19 0.187219)
(-1.36303 1.23537e-19 0.19316)
(-1.39433 5.62762e-20 0.191536)
(-1.42446 -5.54208e-20 0.182536)
(-1.45282 -5.08782e-20 0.169108)
(-1.47784 -9.37093e-20 0.152756)
(-1.49941 2.42234e-20 0.132665)
(-1.51907 2.08948e-20 0.108265)
(-1.53877 0 0.0804546)
(-1.55963 -3.26474e-20 0.0513792)
(-1.58157 3.45966e-20 0.0235477)
(-1.60405 1.6887e-20 -0.00101793)
(-1.62675 -2.1973e-20 -0.0221827)
(-1.65525 2.90683e-20 -0.0418452)
(-1.68436 -7.14679e-21 -0.0612666)
(-1.70079 0 -0.0763707)
(-0.341509 0 -0.564516)
(-0.471862 -9.9308e-19 -0.421956)
(-0.611752 9.72998e-19 -0.262595)
(-0.770135 -2.16002e-20 -0.134595)
(-0.913872 0 -0.0401605)
(-1.03304 0 0.0230233)
(-1.12945 -8.23091e-19 0.0672591)
(-1.21153 7.48902e-19 0.10076)
(-1.28305 0 0.12736)
(-1.34602 0 0.149733)
(-1.40154 0 0.169155)
(-1.45159 0 0.185039)
(-1.49885 7.02729e-20 0.196731)
(-1.54384 0 0.205512)
(-1.58527 -1.8701e-19 0.212069)
(-1.62274 1.21462e-19 0.214462)
(-1.65739 -5.39442e-20 0.210548)
(-1.69039 1.09361e-19 0.200324)
(-1.72157 1.4917e-19 0.185429)
(-1.75025 -1.28651e-21 0.167004)
(-1.77657 1.12753e-22 0.145132)
(-1.8017 2.05967e-20 0.119936)
(-1.82706 1.87783e-20 0.0922819)
(-1.85349 3.18569e-20 0.0637589)
(-1.88078 -5.49642e-20 0.0362815)
(-1.90869 -1.76137e-20 0.0117277)
(-1.93803 -4.99312e-21 -0.00898279)
(-1.97005 -1.10806e-20 -0.0275079)
(-2.00392 1.25824e-20 -0.045798)
(-2.02197 2.49769e-21 -0.0601165)
(-0.406959 0 -0.445245)
(-0.591863 0 -0.253881)
(-0.780232 0 -0.0889042)
(-0.954615 1.44491e-20 0.0199675)
(-1.0991 0 0.0808968)
(-1.22183 0 0.119042)
(-1.32689 4.81746e-20 0.145364)
(-1.41626 0 0.165215)
(-1.49262 0 0.181367)
(-1.55895 0 0.195756)
(-1.61775 0 0.209023)
(-1.67134 -7.43083e-20 0.220434)
(-1.72171 7.02414e-20 0.229258)
(-1.76951 0 0.235626)
(-1.81434 -1.22286e-19 0.239272)
(-1.85606 1.7601e-19 0.238732)
(-1.89526 -1.68094e-19 0.232589)
(-1.93254 -5.08792e-20 0.22076)
(-1.96796 4.99691e-20 0.204277)
(-2.00139 0 0.184159)
(-2.03326 9.49178e-23 0.160973)
(-2.06456 0 0.135222)
(-2.09633 -5.20934e-20 0.107707)
(-2.12911 4.78519e-20 0.0795914)
(-2.16262 3.30763e-20 0.0523637)
(-2.19671 -6.09736e-21 0.0277666)
(-2.23276 2.07457e-20 0.00703759)
(-2.27152 -2.42773e-21 -0.0107019)
(-2.30691 -7.76379e-21 -0.0277298)
(-2.32652 2.28238e-21 -0.0410854)
(-0.463044 -1.15951e-18 -0.262672)
(-0.686656 0 -0.0188035)
(-0.903175 -3.13715e-20 0.114643)
(-1.09348 9.72127e-19 0.175922)
(-1.25645 -1.73325e-18 0.206683)
(-1.39276 8.25007e-19 0.221779)
(-1.50582 -7.59082e-19 0.229113)
(-1.59968 8.27789e-19 0.233564)
(-1.67875 -3.40738e-19 0.238188)
(-1.7473 3.31407e-19 0.244364)
(-1.80877 7.8036e-20 0.251745)
(-1.8656 -2.15891e-19 0.258961)
(-1.91934 3.49012e-19 0.264794)
(-1.97055 -1.32991e-19 0.268594)
(-2.01925 0 0.26958)
(-2.0655 5.7728e-20 0.266459)
(-2.1096 0 0.258147)
(-2.15185 0 0.244551)
(-2.1924 0 0.226482)
(-2.23144 -4.35455e-20 0.20497)
(-2.26955 1.27565e-21 0.180846)
(-2.30761 0 0.154772)
(-2.34643 3.45927e-20 0.127421)
(-2.38624 -4.50829e-20 0.0996097)
(-2.42665 8.1121e-21 0.0725119)
(-2.46769 5.98897e-21 0.0477684)
(-2.51094 -3.53144e-21 0.0267569)
(-2.55752 2.37817e-21 0.00917876)
(-2.59985 1.08251e-21 -0.00672165)
(-2.61962 -9.3752e-21 -0.0191234)
(-0.47309 2.39423e-18 0.0517202)
(-0.731719 -1.04887e-18 0.253644)
(-1.00389 1.02321e-18 0.332473)
(-1.23104 -5.6402e-20 0.351563)
(-1.41295 0 0.344841)
(-1.55726 -7.90664e-19 0.33058)
(-1.67298 6.72288e-19 0.315638)
(-1.76703 -1.80138e-19 0.303299)
(-1.84547 -4.2507e-19 0.296065)
(-1.91392 3.29772e-19 0.29447)
(-1.97655 -3.80906e-19 0.296726)
(-2.03564 2.96484e-19 0.300276)
(-2.0922 -6.92024e-20 0.303234)
(-2.14657 1.27013e-19 0.304522)
(-2.199 -1.24138e-19 0.303135)
(-2.24968 5.71368e-20 0.297795)
(-2.2988 0 0.287504)
(-2.34644 0 0.272172)
(-2.39271 -1.09371e-21 0.252595)
(-2.43796 -1.14576e-21 0.229899)
(-2.48287 1.3242e-21 0.205071)
(-2.5283 5.70407e-20 0.178804)
(-2.57493 -3.40464e-20 0.151594)
(-2.62276 6.06304e-20 0.123977)
(-2.67132 -1.39909e-20 0.0969037)
(-2.72062 -4.77102e-21 0.0719219)
(-2.77206 -1.34053e-20 0.050543)
(-2.82662 2.74808e-21 0.0329066)
(-2.876 -1.03689e-21 0.0177312)
(-2.9002 4.56433e-21 0.00644785)
(-0.451067 0 0.40339)
(-0.780282 0 0.584866)
(-1.13027 0 0.596525)
(-1.38998 -1.06959e-19 0.545763)
(-1.57815 -8.12041e-19 0.486635)
(-1.71888 4.02576e-19 0.438671)
(-1.82924 5.62751e-19 0.400433)
(-1.91754 1.7838e-19 0.370903)
(-1.99056 4.22193e-19 0.352291)
(-2.0554 -3.28666e-19 0.344339)
(-2.11696 0 0.34297)
(-2.17691 0 0.343777)
(-2.23524 6.81534e-20 0.344216)
(-2.29189 0 0.343231)
(-2.34727 -1.17831e-19 0.339892)
(-2.40181 5.90169e-20 0.332822)
(-2.45554 -5.26411e-20 0.320887)
(-2.5083 -4.92629e-20 0.303986)
(-2.56006 4.72892e-20 0.28304)
(-2.61127 1.0785e-21 0.25938)
(-2.66273 -2.07269e-20 0.234126)
(-2.71538 1.80637e-20 0.20793)
(-2.76985 -3.39146e-20 0.181065)
(-2.826 -2.98883e-20 0.15377)
(-2.88303 -5.93581e-21 0.126736)
(-2.94046 -1.08288e-20 0.101353)
(-2.99936 1.15719e-20 0.0793209)
(-3.06045 0 0.0614324)
(-3.1149 1.0784e-20 0.0469574)
(-3.14145 0 0.0367577)
(-0.435831 1.16859e-18 0.835849)
(-0.87265 5.79236e-20 1.01062)
(-1.31795 1.32277e-19 0.903307)
(-1.58985 1.32847e-18 0.745807)
(-1.75647 -2.98094e-19 0.617445)
(-1.87406 0 0.537158)
(-1.96887 -3.64e-19 0.477917)
(-2.04417 2.6737e-19 0.431426)
(-2.10505 0 0.402648)
(-2.1613 0 0.391327)
(-2.21894 0 0.389074)
(-2.27795 -1.43015e-19 0.388542)
(-2.33629 1.39564e-19 0.386916)
(-2.39321 1.25222e-19 0.383962)
(-2.44944 -6.25787e-20 0.379238)
(-2.50574 5.56364e-20 0.37108)
(-2.56195 5.20403e-20 0.357924)
(-2.61742 4.87e-20 0.339631)
(-2.67186 -4.56324e-20 0.317432)
(-2.72579 0 0.293023)
(-2.78031 -1.93607e-20 0.267688)
(-2.83661 3.568e-24 0.241952)
(-2.89547 1.60057e-20 0.215767)
(-2.95681 0 0.188977)
(-3.01965 0 0.161884)
(-3.08314 2.10885e-20 0.135645)
(-3.14802 -1.59844e-20 0.112217)
(-3.21484 2.19457e-20 0.0933029)
(-3.27428 -1.16055e-20 0.0789869)
(-3.3035 0 0.0695384)
(-0.454597 0 1.35268)
(-1.03884 0 1.81702)
(-1.61392 3.0674e-19 1.34437)
(-1.85496 -3.62781e-19 0.942934)
(-1.94761 2.77959e-19 0.689655)
(-2.01028 -3.66097e-19 0.601683)
(-2.0804 -8.97795e-20 0.538168)
(-2.1352 0 0.478788)
(-2.17427 -8.6498e-20 0.442046)
(-2.21493 -2.44989e-19 0.432869)
(-2.26581 1.57931e-19 0.434009)
(-2.32241 0 0.433508)
(-2.37863 6.91178e-20 0.429728)
(-2.43274 0 0.424739)
(-2.48653 5.65409e-20 0.419148)
(-2.54157 -2.23932e-19 0.410548)
(-2.59734 -5.01436e-20 0.396398)
(-2.65237 9.68841e-20 0.37652)
(-2.70604 0 0.352778)
(-2.75919 -4.14023e-20 0.32752)
(-2.8136 8.69678e-22 0.302274)
(-2.87108 -3.7142e-20 0.277361)
(-2.93278 3.41005e-20 0.252316)
(-2.99878 0 0.226512)
(-3.06793 0 0.199776)
(-3.1388 0 0.17292)
(-3.21141 0 0.14805)
(-3.28576 -4.17336e-20 0.127872)
(-3.35184 0 0.113536)
(-3.38473 0 0.104729)
(10.0046 0 0.131195)
(9.98503 4.37956e-19 0.259899)
(9.95653 8.8945e-19 0.38803)
(9.92229 0 0.51775)
(9.88083 -2.1226e-21 0.650842)
(9.8312 4.61874e-19 0.788847)
(9.77394 -2.35165e-19 0.933262)
(9.70975 1.19088e-18 1.08557)
(9.63895 -7.18849e-19 1.24711)
(9.56207 -2.44568e-19 1.41919)
(9.47951 2.45507e-19 1.60334)
(9.39152 2.48149e-19 1.80112)
(9.29856 2.01929e-18 2.01411)
(9.20111 -2.28163e-18 2.24404)
(9.09966 2.0522e-18 2.49285)
(8.99472 2.06943e-18 2.76278)
(8.8869 -4.00738e-18 3.05639)
(8.77686 -4.14558e-18 3.37671)
(8.66533 3.75348e-18 3.72738)
(8.55318 0 4.11291)
(8.44151 4.06905e-18 4.53903)
(8.33182 -8.04196e-18 5.0131)
(8.22621 3.96229e-18 5.5449)
(8.12788 0 6.14753)
(8.04214 -3.60119e-18 6.83919)
(7.97787 3.52403e-18 7.64693)
(7.96014 -7.69936e-19 8.61268)
(8.01829 2.61582e-18 9.81389)
(8.7302 -1.36324e-18 11.3142)
(9.30457 -3.26261e-19 14.3147)
(10.0051 0 0.135956)
(9.98718 -4.27226e-19 0.269349)
(9.96153 -4.32695e-19 0.402144)
(9.93124 0 0.536544)
(9.89475 -4.43843e-19 0.67437)
(9.85126 0 0.817158)
(9.80125 -9.09426e-19 0.966376)
(9.74539 9.16759e-19 1.12349)
(9.68419 -6.99817e-19 1.28986)
(9.61815 9.37796e-19 1.46683)
(9.54775 -4.74746e-19 1.65587)
(9.47344 -2.33362e-21 1.85854)
(9.39583 1.93651e-18 2.07639)
(9.31557 -1.69913e-18 2.31112)
(9.23338 -2.2027e-18 2.56462)
(9.15005 3.68456e-18 2.83906)
(9.06657 -1.97025e-18 3.13692)
(8.98411 0 3.4611)
(8.90407 4.76749e-21 3.81508)
(8.82825 4.7943e-19 4.20312)
(8.75904 -3.80555e-18 4.63045)
(8.69978 3.77032e-18 5.1037)
(8.65531 0 5.63136)
(8.63308 4.31787e-19 6.22426)
(8.64525 2.44542e-18 6.89637)
(8.71213 -9.2044e-19 7.66596)
(8.87746 -8.72513e-20 8.55468)
(9.15414 -6.46132e-19 9.58836)
(9.85989 -9.94013e-19 10.716)
(10.5656 0 11.9538)
(10.0057 0 0.140229)
(9.98943 0 0.277837)
(9.96673 0 0.414819)
(9.94054 0 0.553405)
(9.90925 0 0.695413)
(9.87209 4.32712e-19 0.842378)
(9.82954 8.79686e-19 0.99575)
(9.78229 3.09912e-21 1.15696)
(9.73092 -6.74014e-19 1.32738)
(9.67599 -2.25542e-19 1.50832)
(9.61804 4.57096e-19 1.70124)
(9.55771 -2.077e-18 1.90759)
(9.49575 2.08344e-18 2.12891)
(9.43298 1.86622e-18 2.36679)
(9.37034 -1.63433e-18 2.62305)
(9.30893 3.48836e-21 2.89968)
(9.25008 -2.10515e-18 3.19896)
(9.19542 1.86542e-18 3.52355)
(9.14696 2.33496e-19 3.87651)
(9.10729 -3.64709e-18 4.2615)
(9.07987 3.60821e-18 4.68283)
(9.06941 3.47403e-18 5.14567)
(9.08252 -3.8463e-18 5.6561)