/*--------------------------------*- C++ -*----------------------------------*\
| =========                 |                                                 |
| \\      /  F ield         | OpenFOAM: The Open Source CFD Toolbox           |
|  \\    /   O peration     | Version:  5.x                                   |
|   \\  /    A nd           | Web:      www.OpenFOAM.org                      |
|    \\/     M anipulation  |                                                 |
\*---------------------------------------------------------------------------*/
FoamFile
{
    version     2.0;
    format      ascii;
    class       volVectorField;
    location    "0.4";
    object      cellDisplacement;
}
// * * * * * * * * * * * * * * * * * * * * * * * * * * * * * * * * * * * * * //

dimensions      [0 1 0 0 0 0 0];

internalField   nonuniform List<vector> 
2790
(
(0.0037993 2.52586e-06 0)
(0.0109176 7.37268e-06 0)
(0.0171425 1.19334e-05 0)
(0.0225498 1.64049e-05 0)
(0.0272119 2.09533e-05 0)
(0.0311932 2.57244e-05 0)
(0.0345498 3.08553e-05 0)
(0.0373305 3.64828e-05 0)
(0.0395777 4.27519e-05 0)
(0.0413275 4.98236e-05 0)
(0.0426106 5.78812e-05 0)
(0.0434527 6.71315e-05 0)
(0.043875 7.77951e-05 0)
(0.0438953 9.01231e-05 0)
(0.0435284 0.000104491 0)
(0.042786 0.000121353 0)
(0.0416781 0.000141282 0)
(0.0402132 0.000164995 0)
(0.0383974 0.000193121 0)
(0.0362373 0.000226772 0)
(0.0337418 0.000267265 0)
(0.0309228 0.000316236 0)
(0.0277979 0.000375769 0)
(0.0243943 0.000448575 0)
(0.0207553 0.000538347 0)
(0.0169524 0.000650435 0)
(0.0130946 0.000791105 0)
(0.00935898 0.000967852 0)
(0.00606204 0.00118462 0)
(0.00395579 0.00141523 0)
(0.00380151 7.56139e-06 0)
(0.0109247 2.20717e-05 0)
(0.017155 3.57256e-05 0)
(0.0225684 4.9111e-05 0)
(0.0272378 6.27229e-05 0)
(0.0312275 7.69969e-05 0)
(0.0345941 9.23411e-05 0)
(0.0373867 0.000109163 0)
(0.039648 0.000127891 0)
(0.0414145 0.000149005 0)
(0.0427175 0.000173049 0)
(0.0435832 0.000200642 0)
(0.0440335 0.000232435 0)
(0.0440867 0.000269127 0)
(0.0437589 0.000311842 0)
(0.043063 0.000361902 0)
(0.0420101 0.000420977 0)
(0.0406118 0.000491312 0)
(0.0388753 0.000574414 0)
(0.0368103 0.000673652 0)
(0.0344291 0.000792767 0)
(0.0317482 0.000936343 0)
(0.0287911 0.00111008 0)
(0.0255923 0.00132112 0)
(0.0222021 0.00157842 0)
(0.0187133 0.00189572 0)
(0.0152615 0.00228485 0)
(0.0120678 0.00275509 0)
(0.00949147 0.00329332 0)
(0.00820379 0.00379645 0)
(0.00380693 1.25504e-05 0)
(0.0109413 3.66361e-05 0)
(0.0171836 5.92983e-05 0)
(0.0226101 8.15068e-05 0)
(0.0272944 0.000104079 0)
(0.0313012 0.000127731 0)
(0.0346878 0.000153134 0)
(0.0375039 0.000180953 0)
(0.0397929 0.000211888 0)
(0.0415924 0.000246713 0)
(0.0429344 0.000286322 0)
(0.0438465 0.000331747 0)
(0.0443515 0.000384044 0)
(0.0444693 0.000444156 0)
(0.0442183 0.000513986 0)
(0.0436135 0.000595582 0)
(0.0426677 0.000691458 0)
(0.0413963 0.000804395 0)
(0.039814 0.000938028 0)
(0.037933 0.0010971 0)
(0.0357725 0.00128704 0)
(0.0333575 0.0015145 0)
(0.0307227 0.00178747 0)
(0.0279175 0.00211534 0)
(0.0250036 0.00250986 0)
(0.0220848 0.00298228 0)
(0.0193293 0.00353972 0)
(0.0169917 0.00417686 0)
(0.015398 0.00484221 0)
(0.0150029 0.00537737 0)
(0.00381519 1.7461e-05 0)
(0.0109664 5.09711e-05 0)
(0.0172265 8.24928e-05 0)
(0.0226726 0.000113364 0)
(0.0273789 0.000144712 0)
(0.0314112 0.00017752 0)
(0.0348273 0.000212707 0)
(0.0376782 0.000251174 0)
(0.0400082 0.000293866 0)
(0.041856 0.00034182 0)
(0.0432556 0.00039624 0)
(0.044236 0.000458583 0)
(0.0448193 0.000529621 0)
(0.0450307 0.000611313 0)
(0.0448914 0.000705963 0)
(0.0444193 0.000816073 0)
(0.0436313 0.000944609 0)
(0.0425447 0.00109486 0)
(0.0411823 0.00127217 0)
(0.039564 0.00148172 0)
(0.0377168 0.00172984 0)
(0.0356754 0.002024 0)
(0.0334869 0.00237271 0)
(0.0312147 0.00278519 0)
(0.0289443 0.00327053 0)
(0.0267822 0.00383212 0)
(0.0248913 0.00446761 0)
(0.0235233 0.00514998 0)
(0.0229191 0.0057991 0)
(0.0233019 0.00625339 0)
(0.00382623 2.22577e-05 0)
(0.0109998 6.49712e-05 0)
(0.0172834 0.000105133 0)
(0.0227552 0.000144432 0)
(0.0274904 0.000184285 0)
(0.0315558 0.000225927 0)
(0.0350107 0.0002705 0)
(0.0379069 0.000319117 0)
(0.0402902 0.000372927 0)
(0.0422009 0.000433176 0)
(0.043675 0.000501302 0)
(0.0447413 0.000578757 0)
(0.0454254 0.000666609 0)
(0.0457577 0.000767563 0)
(0.0457616 0.000883977 0)
(0.045459 0.00101865 0)
(0.0448714 0.00117487 0)
(0.0440224 0.0013566 0)
(0.042939 0.00156891 0)
(0.0416502 0.00181727 0)
(0.0401917 0.00210792 0)
(0.0386081 0.00244774 0)
(0.0369574 0.00284378 0)
(0.0353143 0.0033023 0)
(0.0337734 0.00382674 0)
(0.0324526 0.00441356 0)
(0.0314926 0.00504895 0)
(0.0310779 0.00568873 0)
(0.0313405 0.00624509 0)
(0.0323003 0.0065811 0)
(0.00383994 2.69046e-05 0)
(0.0110412 7.85296e-05 0)
(0.0173536 0.000127042 0)
(0.0228567 0.000174457 0)
(0.0276271 0.00022246 0)
(0.0317331 0.000272515 0)
(0.0352349 0.000325958 0)
(0.0381861 0.000384082 0)
(0.0406338 0.000448196 0)
(0.0426202 0.000519689 0)
(0.044183 0.000600086 0)
(0.0453512 0.000690661 0)
(0.0461591 0.000793675 0)
(0.0466361 0.000911191 0)
(0.0468104 0.00104589 0)
(0.0467091 0.00120066 0)
(0.0463577 0.00137873 0)
(0.0457862 0.00158411 0)
(0.0450274 0.00182138 0)
(0.0441186 0.00209546 0)
(0.0431035 0.00241149 0)
(0.0420341 0.00277453 0)
(0.0409763 0.00318878 0)
(0.0400112 0.0036561 0)
(0.0392343 0.0041737 0)
(0.038755 0.00473062 0)
(0.0386895 0.0053045 0)
(0.0391215 0.00584562 0)
(0.0400685 0.00627638 0)
(0.0413775 0.0064971 0)
(0.00385616 3.13661e-05 0)
(0.01109 9.15405e-05 0)
(0.017436 0.000148044 0)
(0.0229756 0.000203188 0)
(0.027787 0.000258906 0)
(0.0319399 0.000316856 0)
(0.0354961 0.000378546 0)
(0.0385108 0.000445407 0)
(0.0410328 0.000518866 0)
(0.043106 0.000600392 0)
(0.0447696 0.000691516 0)
(0.0460573 0.000793713 0)
(0.0470045 0.000909207 0)
(0.0476448 0.00104015 0)
(0.0480112 0.00118924 0)
(0.0481362 0.00135922 0)
(0.0480475 0.00155272 0)
(0.0477821 0.00177348 0)
(0.0473789 0.00202523 0)
(0.046882 0.00231166 0)
(0.0463418 0.00263605 0)
(0.0458133 0.00300078 0)
(0.0453656 0.00340654 0)
(0.045081 0.00385031 0)
(0.0450445 0.00432334 0)
(0.0453407 0.00480889 0)
(0.046057 0.00527886 0)
(0.0471666 0.00568809 0)
(0.0485921 0.00597952 0)
(0.050063 0.00609659 0)
(0.00387464 3.56083e-05 0)
(0.0111454 0.000103903 0)
(0.0175294 0.000167971 0)
(0.02311 0.000230392 0)
(0.0279673 0.000293311 0)
(0.0321727 0.000358559 0)
(0.0357896 0.000427777 0)
(0.0388749 0.000502499 0)
(0.0414793 0.000584224 0)
(0.0436486 0.00067446 0)
(0.0454244 0.00077475 0)
(0.0468442 0.000886677 0)
(0.0479443 0.00101207 0)
(0.0487641 0.00115335 0)
(0.0493384 0.00131281 0)
(0.0497017 0.00149246 0)
(0.0498914 0.00169476 0)
(0.0499481 0.00192271 0)
(0.0499152 0.00217878 0)
(0.0498419 0.00246504 0)
(0.0497854 0.00278242 0)
(0.049795 0.00313018 0)
(0.0499367 0.00350565 0)
(0.0502939 0.00390132 0)
(0.0509306 0.00430328 0)
(0.0519008 0.00469157 0)
(0.0532178 0.00503651 0)
(0.0547963 0.00530125 0)
(0.0564828 0.00545144 0)
(0.0579467 0.00547031 0)
(0.00389506 3.96004e-05 0)
(0.0112065 0.000115527 0)
(0.017632 0.000186674 0)
(0.0232575 0.000255855 0)
(0.0281647 0.000325401 0)
(0.0324271 0.000397279 0)
(0.0361098 0.00047323 0)
(0.0392713 0.000554855 0)
(0.0419643 0.000643683 0)
(0.0442368 0.000741214 0)
(0.0461327 0.000848956 0)
(0.047693 0.000968453 0)
(0.0489573 0.0011014 0)
(0.049966 0.00124973 0)
(0.0507572 0.00141525 0)
(0.0513678 0.00159952 0)
(0.051844 0.00180465 0)
(0.0522279 0.00203226 0)
(0.052566 0.00228352 0)
(0.052909 0.00255884 0)
(0.0533113 0.00285638 0)
(0.0538304 0.00317257 0)
(0.0545264 0.00350238 0)
(0.0554548 0.00383493 0)
(0.0566573 0.00415312 0)
(0.0581497 0.00443515 0)
(0.0598727 0.00465521 0)
(0.0617145 0.00478718 0)
(0.0634669 0.00481771 0)
(0.0647911 0.00476455 0)
(0.00391706 4.33157e-05 0)
(0.0112722 0.000126333 0)
(0.0177421 0.000204024 0)
(0.0234153 0.000279402 0)
(0.0283757 0.000354946 0)
(0.0326984 0.000432734 0)
(0.0364505 0.000514572 0)
(0.0396922 0.000602089 0)
(0.0424782 0.000696803 0)
(0.0448583 0.000800163 0)
(0.0468789 0.000913582 0)
(0.0485837 0.00103846 0)
(0.050015 0.00117624 0)
(0.0512152 0.00132839 0)
(0.0522256 0.00149621 0)
(0.0530878 0.00168081 0)
(0.0538478 0.00188324 0)
(0.0545511 0.00210398 0)
(0.0552458 0.00234276 0)
(0.0559816 0.00259814 0)
(0.0568072 0.00286672 0)
(0.0577854 0.00314307 0)
(0.0589642 0.00341892 0)
(0.0603657 0.00368201 0)
(0.0620056 0.00391547 0)
(0.0638567 0.00409932 0)
(0.0658303 0.00421306 0)
(0.0677741 0.00424205 0)
(0.0694608 0.00419047 0)
(0.0705939 0.00409986 0)
(0.00394021 4.67325e-05 0)
(0.0113411 0.000136258 0)
(0.0178576 0.000219918 0)
(0.0235804 0.00030089 0)
(0.0285961 0.000381773 0)
(0.0329814 0.000464716 0)
(0.0368053 0.000551563 0)
(0.0401295 0.000643937 0)
(0.0430106 0.000743309 0)
(0.0455003 0.000851034 0)
(0.047647 0.000968375 0)
(0.0494966 0.00109652 0)
(0.0510937 0.00123659 0)
(0.0524824 0.00138958 0)
(0.0537063 0.00155626 0)
(0.0548098 0.00173708 0)
(0.055839 0.00193212 0)
(0.0568405 0.00214078 0)
(0.0578623 0.00236147 0)
(0.0589523 0.0025913 0)
(0.0601576 0.00282556 0)
(0.0615249 0.00305746 0)
(0.063087 0.0032777 0)
(0.0648545 0.00347411 0)
(0.0668131 0.00363199 0)
(0.068904 0.00373575 0)
(0.0710109 0.00377203 0)
(0.0729571 0.00373576 0)
(0.0745168 0.00364058 0)
(0.0754542 0.00353512 0)
(0.00396403 4.98343e-05 0)
(0.0114121 0.000145255 0)
(0.0179761 0.000234282 0)
(0.0237499 0.000320222 0)
(0.028822 0.00040576 0)
(0.033271 0.000493091 0)
(0.0371675 0.000584063 0)
(0.040575 0.000680266 0)
(0.0435514 0.000783091 0)
(0.0461502 0.000893763 0)
(0.0484214 0.00101336 0)
(0.0504127 0.00114282 0)
(0.0521703 0.00128289 0)
(0.0537396 0.00143411 0)
(0.0551656 0.00159668 0)
(0.0564935 0.00177039 0)
(0.0577694 0.00195445 0)
(0.0590394 0.00214728 0)
(0.060349 0.00234626 0)
(0.0617428 0.00254745 0)
(0.0632616 0.00274531 0)
(0.0649398 0.00293257 0)
(0.0667968 0.0031002 0)
(0.068829 0.00323772 0)
(0.0710025 0.00333418 0)
(0.0732393 0.00338009 0)
(0.0754083 0.00337023 0)
(0.0773242 0.00330743 0)
(0.0787679 0.00320825 0)
(0.0795499 0.00311423 0)
(0.00398806 5.26101e-05 0)
(0.0114836 0.000153291 0)
(0.0180955 0.000247067 0)
(0.0239205 0.000337338 0)
(0.0290491 0.000426843 0)
(0.0335618 0.000517796 0)
(0.0375306 0.000612026 0)
(0.0410205 0.000711061 0)
(0.0440906 0.000816187 0)
(0.0467958 0.000928479 0)
(0.0491874 0.0010488 0)
(0.0513143 0.00117781 0)
(0.0532236 0.00131591 0)
(0.0549614 0.00146317 0)
(0.0565731 0.00161926 0)
(0.0581039 0.00178335 0)
(0.0595983 0.00195392 0)
(0.0611005 0.00212863 0)
(0.0626526 0.00230411 0)
(0.0642936 0.0024758 0)
(0.0660571 0.00263786 0)
(0.0679667 0.00278325 0)
(0.0700305 0.00290409 0)
(0.072234 0.00299246 0)
(0.0745329 0.00304193 0)
(0.0768446 0.00304968 0)
(0.0790408 0.00301904 0)
(0.080946 0.00296074 0)
(0.0823511 0.00289155 0)
(0.0830723 0.00283344 0)
(0.0040118 5.50539e-05 0)
(0.0115542 0.000160351 0)
(0.0182135 0.000258253 0)
(0.024089 0.000352215 0)
(0.0292734 0.000445007 0)
(0.0338488 0.000538837 0)
(0.0378883 0.000635488 0)
(0.0414582 0.000736411 0)
(0.0446188 0.00084277 0)
(0.0474258 0.000955472 0)
(0.0499315 0.00107517 0)
(0.0521852 0.00120222 0)
(0.0542346 0.0013367 0)
(0.0561258 0.00147826 0)
(0.0579035 0.00162611 0)
(0.0596116 0.00177887 0)
(0.0612928 0.00193448 0)
(0.0629876 0.00209006 0)
(0.0647336 0.00224179 0)
(0.0665638 0.00238489 0)
(0.0685036 0.00251365 0)
(0.0705675 0.00262171 0)
(0.0727547 0.00270271 0)
(0.0750435 0.00275133 0)
(0.0773874 0.00276505 0)
(0.0797105 0.00274663 0)
(0.0819051 0.00270684 0)
(0.0838299 0.0026656 0)
(0.0853049 0.00264534 0)
(0.0861109 0.00264576 0)
(0.00403476 5.71646e-05 0)
(0.0116226 0.000166433 0)
(0.0183279 0.000267839 0)
(0.0242525 0.000364867 0)
(0.029491 0.000460286 0)
(0.0341268 0.000556275 0)
(0.0382345 0.000654561 0)
(0.0418809 0.000756498 0)
(0.0451273 0.000863121 0)
(0.04803 0.000975164 0)
(0.0506415 0.00109306 0)
(0.0530116 0.00121692 0)
(0.0551874 0.00134648 0)
(0.0572143 0.00148106 0)
(0.0591359 0.00161947 0)
(0.0609941 0.00175995 0)
(0.0628283 0.00190003 0)
(0.064675 0.00203654 0)
(0.0665665 0.00216551 0)
(0.0685291 0.0022822 0)
(0.0705805 0.00238137 0)
(0.0727273 0.00245756 0)
(0.0749611 0.00250583 0)
(0.0772562 0.00252278 0)
(0.079567 0.0025081 0)
(0.0818285 0.00246667 0)
(0.0839592 0.0024115 0)
(0.085867 0.00236804 0)
(0.0874455 0.00237789 0)
(0.0885098 0.00246325 0)
(0.0047519 -0.00137288 0)
(0.00796975 -0.00125227 0)
(0.0127082 -0.00106683 0)
(0.0180249 -0.000887696 0)
(0.0233537 -0.00073292 0)
(0.028378 -0.000605243 0)
(0.0329421 -0.000499451 0)
(0.036996 -0.000412882 0)
(0.0405306 -0.000342471 0)
(0.0435559 -0.000285304 0)
(0.0460889 -0.000238838 0)
(0.0481487 -0.000200962 0)
(0.0497524 -0.000169939 0)
(0.0509149 -0.000144089 0)
(0.0516472 -0.000122968 0)
(0.0519533 -0.000105407 0)
(0.0518345 -9.06588e-05 0)
(0.0512872 -7.81182e-05 0)
(0.0503038 -6.74661e-05 0)
(0.0488717 -5.83016e-05 0)
(0.0469747 -5.03711e-05 0)
(0.0445921 -4.34281e-05 0)
(0.0416986 -3.72596e-05 0)
(0.0382639 -3.16866e-05 0)
(0.034253 -2.65538e-05 0)
(0.0296263 -2.17206e-05 0)
(0.0243396 -1.70526e-05 0)
(0.0183441 -1.24138e-05 0)
(0.0115876 -7.65863e-06 0)
(0.00400899 -2.61796e-06 0)
(0.00877807 -0.00376195 0)
(0.0115599 -0.00346562 0)
(0.0157315 -0.00299721 0)
(0.0205157 -0.00252311 0)
(0.0253928 -0.00210187 0)
(0.0300255 -0.00174319 0)
(0.0342661 -0.00144489 0)
(0.0380627 -0.0011992 0)
(0.0413926 -0.000998206 0)
(0.0442545 -0.000834155 0)
(0.0466567 -0.000700195 0)
(0.0486111 -0.00059056 0)
(0.0501292 -0.000500568 0)
(0.0512238 -0.000426231 0)
(0.0519004 -0.000364408 0)
(0.0521604 -0.000312776 0)
(0.0520038 -0.000269323 0)
(0.0514254 -0.000232232 0)
(0.0504164 -0.000200745 0)
(0.0489631 -0.000173584 0)
(0.0470485 -0.000150067 0)
(0.0446514 -0.000129455 0)
(0.0417461 -0.000111121 0)
(0.0383016 -9.45386e-05 0)
(0.0342828 -7.92514e-05 0)
(0.0296494 -6.48447e-05 0)
(0.024357 -5.09206e-05 0)
(0.0183566 -3.70757e-05 0)
(0.0115954 -2.28769e-05 0)
(0.00401178 -7.82081e-06 0)
(0.0153849 -0.00536878 0)
(0.0177343 -0.0050328 0)
(0.0211199 -0.00444686 0)
(0.0250564 -0.00380954 0)
(0.0291438 -0.00321658 0)
(0.0330821 -0.00269603 0)
(0.0367537 -0.00225433 0)
(0.0400856 -0.00188541 0)
(0.0430391 -0.00157992 0)
(0.0455966 -0.00132796 0)
(0.0477526 -0.00112033 0)
(0.0495076 -0.000949051 0)
(0.0508644 -0.000807456 0)
(0.0518273 -0.000690254 0)
(0.0523949 -0.000591979 0)
(0.0525661 -0.000509396 0)
(0.0523374 -0.000439685 0)
(0.0517002 -0.000380342 0)
(0.0506421 -0.000329391 0)
(0.0491475 -0.000285144 0)
(0.0471985 -0.000246822 0)
(0.0447734 -0.000213156 0)
(0.0418448 -0.000183138 0)
(0.0383811 -0.00015593 0)
(0.0343461 -0.000130801 0)
(0.0296991 -0.000107081 0)
(0.0243948 -8.41243e-05 0)
(0.0183837 -6.12727e-05 0)
(0.0116122 -3.7817e-05 0)
(0.00401758 -1.29305e-05 0)
(0.0235444 -0.00628596 0)
(0.0254814 -0.00595548 0)
(0.0280361 -0.00535702 0)
(0.030999 -0.004672 0)
(0.0341251 -0.00400576 0)
(0.0372149 -0.00340565 0)
(0.0401631 -0.00288286 0)
(0.0428901 -0.00243692 0)
(0.0453434 -0.00206109 0)
(0.0474897 -0.00174641 0)
(0.0493083 -0.00148369 0)
(0.0507868 -0.00126449 0)
(0.0519168 -0.00108142 0)
(0.0526923 -0.00092819 0)
(0.0531063 -0.000799184 0)
(0.0531511 -0.000690102 0)
(0.0528183 -0.000597502 0)
(0.0520964 -0.000518593 0)
(0.0509693 -0.00045038 0)
(0.0494164 -0.00039094 0)
(0.0474173 -0.000339051 0)
(0.0449514 -0.000293277 0)
(0.0419891 -0.000252313 0)
(0.0384973 -0.000215069 0)
(0.0344387 -0.000180578 0)
(0.0297716 -0.000147945 0)
(0.0244499 -0.0001163 0)
(0.0184231 -8.47497e-05 0)
(0.0116365 -5.23254e-05 0)
(0.00402598 -1.7895e-05 0)
(0.0324549 -0.00665763 0)
(0.033959 -0.00633671 0)
(0.0357101 -0.00577867 0)
(0.0377085 -0.00512528 0)
(0.0398521 -0.00446856 0)
(0.0420501 -0.00385941 0)
(0.0442137 -0.00331405 0)
(0.0462664 -0.00283739 0)
(0.0481489 -0.00242695 0)
(0.0498164 -0.0020768 0)
(0.0512357 -0.00177966 0)
(0.0523821 -0.00152819 0)
(0.0532365 -0.00131549 0)
(0.0537831 -0.00113542 0)
(0.0540073 -0.000982479 0)
(0.0538944 -0.000852056 0)
(0.0534311 -0.000740525 0)
(0.0526011 -0.000644719 0)
(0.0513844 -0.00056159 0)
(0.0497585 -0.000489262 0)
(0.0476976 -0.000425425 0)
(0.04518 -0.000368751 0)
(0.0421746 -0.000317788 0)
(0.0386467 -0.000271266 0)
(0.0345577 -0.000228034 0)
(0.0298648 -0.00018701 0)
(0.0245207 -0.000147126 0)
(0.0184735 -0.000107279 0)
(0.0116675 -6.62647e-05 0)
(0.00403666 -2.26679e-05 0)
(0.0414934 -0.0065942 0)
(0.0425226 -0.00628995 0)
(0.0435324 -0.00580292 0)
(0.044656 -0.00523115 0)
(0.0458923 -0.00464147 0)
(0.0472432 -0.00407673 0)
(0.0486347 -0.00355614 0)
(0.0500042 -0.00308838 0)
(0.0512933 -0.0026755 0)
(0.0524521 -0.00231545 0)
(0.053439 -0.00200401 0)
(0.0542201 -0.00173595 0)
(0.0547671 -0.00150584 0)
(0.0550557 -0.00130845 0)
(0.0550639 -0.00113893 0)
(0.0547693 -0.000992755 0)
(0.0541551 -0.000866705 0)
(0.0531997 -0.000757608 0)
(0.0518781 -0.000662451 0)
(0.050164 -0.000579001 0)
(0.0480312 -0.000504942 0)
(0.0454526 -0.000438732 0)
(0.042396 -0.000378865 0)
(0.038825 -0.000323954 0)
(0.0346998 -0.000272715 0)
(0.029976 -0.000223916 0)
(0.0246049 -0.000176328 0)
(0.0185335 -0.000128666 0)
(0.0117042 -7.95165e-05 0)
(0.00404927 -2.72091e-05 0)
(0.0501561 -0.00617013 0)
(0.050704 -0.00591331 0)
(0.051067 -0.00552657 0)
(0.0514525 -0.00506853 0)
(0.0519235 -0.00458096 0)
(0.0525126 -0.00409593 0)
(0.0531915 -0.00363348 0)
(0.0539128 -0.00320432 0)
(0.0546242 -0.00281454 0)
(0.0552758 -0.00246605 0)
(0.0558229 -0.00215793 0)
(0.0562257 -0.00188757 0)
(0.0564497 -0.0016515 0)
(0.0564639 -0.00144596 0)
(0.0562404 -0.00126722 0)
(0.0557516 -0.00111137 0)
(0.0549713 -0.000975269 0)
(0.0538754 -0.000856338 0)
(0.0524366 -0.000751934 0)
(0.0506242 -0.000659444 0)
(0.0484096 -0.00057689 0)
(0.0457621 -0.000502598 0)
(0.0426474 -0.000435016 0)
(0.0390277 -0.000372693 0)
(0.0348612 -0.000314259 0)
(0.0301021 -0.000258375 0)
(0.0247004 -0.000203685 0)
(0.0186013 -0.000148752 0)
(0.0117457 -9.19836e-05 0)
(0.00406345 -3.14852e-05 0)
(0.0580167 -0.00549021 0)
(0.0581605 -0.00531358 0)
(0.0580187 -0.0050486 0)
(0.0578296 -0.00471966 0)
(0.0576949 -0.00435061 0)
(0.0576509 -0.00396432 0)
(0.0577118 -0.00357876 0)
(0.0578494 -0.00320721 0)
(0.0580238 -0.00285855 0)
(0.0581917 -0.00253784 0)
(0.0583097 -0.00224714 0)
(0.0583367 -0.00198644 0)
(0.0582346 -0.00175439 0)
(0.0579678 -0.00154886 0)
(0.0575034 -0.00136736 0)
(0.056811 -0.00120726 0)
(0.0558562 -0.00106566 0)
(0.054611 -0.00094041 0)
(0.0530453 -0.000829261 0)
(0.0511267 -0.000730017 0)
(0.0488231 -0.000640792 0)
(0.0461007 -0.000559922 0)
(0.0429228 -0.000485866 0)
(0.0392496 -0.000417161 0)
(0.0350379 -0.000352397 0)
(0.03024 -0.000290166 0)
(0.0248046 -0.000229022 0)
(0.0186751 -0.00016741 0)
(0.0117906 -0.000103588 0)
(0.0040788 -3.54693e-05 0)
(0.0648364 -0.00470536 0)
(0.064707 -0.0046145 0)
(0.064226 -0.00446909 0)
(0.0636261 -0.00426524 0)
(0.0630276 -0.00401288 0)
(0.0624906 -0.00372793 0)
(0.0620416 -0.00342639 0)
(0.0616763 -0.00312194 0)
(0.0613726 -0.002825 0)
(0.0610977 -0.00254276 0)
(0.0608142 -0.00227961 0)
(0.0604827 -0.00203773 0)
(0.0600642 -0.00181771 0)
(0.0595206 -0.00161907 0)
(0.0588158 -0.00144061 0)
(0.0579148 -0.00128074 0)
(0.0567819 -0.00113756 0)
(0.0553841 -0.00100932 0)
(0.053688 -0.00089422 0)
(0.051659 -0.000790469 0)
(0.049262 -0.000696395 0)
(0.0464604 -0.000610453 0)
(0.0432155 -0.000531176 0)
(0.0394856 -0.00045714 0)
(0.0352256 -0.000386935 0)
(0.0303864 -0.000319127 0)
(0.0249149 -0.000252211 0)
(0.0187531 -0.000184543 0)
(0.011838 -0.000114268 0)
(0.00409493 -3.91406e-05 0)
(0.0706113 -0.00394041 0)
(0.0703306 -0.00392008 0)
(0.0696506 -0.00387251 0)
(0.0687768 -0.00377348 0)
(0.0678382 -0.00362264 0)
(0.0669155 -0.00343026 0)
(0.0660541 -0.0032096 0)
(0.0652698 -0.00297331 0)
(0.0645567 -0.00273196 0)
(0.0638937 -0.0024937 0)
(0.0632503 -0.00226429 0)
(0.0625909 -0.00204748 0)
(0.0618778 -0.00184544 0)
(0.0610725 -0.00165908 0)
(0.060137 -0.00148845 0)
(0.0590337 -0.00133299 0)
(0.0577255 -0.00119172 0)
(0.0561761 -0.00106348 0)
(0.0543493 -0.000946972 0)
(0.0522084 -0.000840821 0)
(0.049716 -0.000743647 0)
(0.0468331 -0.000654096 0)
(0.0435191 -0.000570829 0)
(0.0397304 -0.000492505 0)
(0.0354202 -0.000417754 0)
(0.030538 -0.000345149 0)
(0.0250289 -0.000273158 0)
(0.0188334 -0.000200082 0)
(0.0118866 -0.000123979 0)
(0.00411144 -4.24832e-05 0)
(0.0754544 -0.00327103 0)
(0.0751126 -0.0032993 0)
(0.0743285 -0.00331806 0)
(0.0732748 -0.00329405 0)
(0.0720888 -0.00322133 0)
(0.0708703 -0.00310553 0)
(0.0696831 -0.0029562 0)
(0.0685597 -0.00278353 0)
(0.0675072 -0.00259682 0)
(0.0665148 -0.00240394 0)
(0.0655594 -0.00221113 0)
(0.0646101 -0.00202303 0)
(0.0636314 -0.00184284 0)
(0.062586 -0.00167263 0)
(0.0614354 -0.00151348 0)
(0.0601413 -0.00136577 0)
(0.0586651 -0.00122933 0)
(0.0569688 -0.00110365 0)
(0.0550142 -0.000987967 0)
(0.0527628 -0.000881323 0)
(0.0501752 -0.000782669 0)
(0.0472108 -0.000690888 0)
(0.0438269 -0.000604809 0)
(0.0399785 -0.00052321 0)
(0.0356172 -0.000444794 0)
(0.0306912 -0.000368169 0)
(0.0251439 -0.000291806 0)
(0.0189142 -0.000213979 0)
(0.0119353 -0.000132691 0)
(0.00412795 -4.54863e-05 0)
(0.0795455 -0.0027455 0)
(0.0791816 -0.0027911 0)
(0.0783264 -0.00283827 0)
(0.0771366 -0.00285584 0)
(0.0757624 -0.0028355 0)
(0.0743188 -0.00277792 0)
(0.0728817 -0.00268763 0)
(0.0714938 -0.00257096 0)
(0.070171 -0.00243479 0)
(0.0689102 -0.00228575 0)
(0.0676944 -0.00212977 0)
(0.0664974 -0.00197173 0)
(0.0652871 -0.00181548 0)
(0.0640281 -0.00166382 0)
(0.062683 -0.00151867 0)
(0.0612134 -0.00138116 0)
(0.0595805 -0.00125187 0)
(0.0577454 -0.00113086 0)
(0.0556686 -0.00101788 0)
(0.0533104 -0.00091241 0)
(0.05063 -0.00081373 0)
(0.0475854 -0.000720983 0)
(0.0441324 -0.000633195 0)
(0.0402247 -0.000549283 0)
(0.0358126 -0.00046805 0)
(0.0308427 -0.000388166 0)
(0.0252573 -0.000308128 0)
(0.0189935 -0.00022621 0)
(0.011983 -0.000140386 0)
(0.00414407 -4.81433e-05 0)
(0.0830705 -0.00235733 0)
(0.0826532 -0.00239314 0)
(0.0816927 -0.00243525 0)
(0.0803682 -0.00246645 0)
(0.0788426 -0.00247733 0)
(0.077233 -0.00246215 0)
(0.0756158 -0.00241915 0)
(0.0740348 -0.00235001 0)
(0.0725096 -0.00225862 0)
(0.0710416 -0.00214992 0)
(0.0696185 -0.00202902 0)
(0.0682187 -0.00190063 0)
(0.0668138 -0.00176882 0)
(0.0653712 -0.00163684 0)
(0.0638553 -0.00150715 0)
(0.0622288 -0.0013815 0)
(0.0604535 -0.00126101 0)
(0.0584902 -0.0011463 0)
(0.0562993 -0.00103756 0)
(0.0538401 -0.000934665 0)
(0.0510712 -0.000837222 0)
(0.0479492 -0.000744637 0)
(0.0444293 -0.000656143 0)
(0.0404637 -0.000570815 0)
(0.0360018 -0.000487571 0)
(0.030989 -0.000405159 0)
(0.0253664 -0.000322127 0)
(0.0190696 -0.00023677 0)
(0.0120285 -0.000147057 0)
(0.00415941 -5.04518e-05 0)
(0.0861159 -0.00207597 0)
(0.0855354 -0.00207156 0)
(0.0843984 -0.00208533 0)
(0.0829366 -0.00211671 0)
(0.0813009 -0.00214861 0)
(0.0795884 -0.00216616 0)
(0.0778616 -0.0021613 0)
(0.0761584 -0.00213169 0)
(0.0744975 -0.00207868 0)
(0.0728825 -0.00200561 0)
(0.0713053 -0.00191667 0)
(0.0697483 -0.00181615 0)
(0.0681873 -0.00170803 0)
(0.0665928 -0.00159575 0)
(0.0649319 -0.00148208 0)
(0.0631693 -0.00136917 0)
(0.0612679 -0.00125858 0)
(0.0591894 -0.00115132 0)
(0.0568942 -0.00104798 0)
(0.0543417 -0.000948781 0)
(0.0514899 -0.000853632 0)
(0.0482951 -0.000762187 0)
(0.0447114 -0.000673882 0)
(0.0406906 -0.000587954 0)
(0.036181 -0.000503447 0)
(0.031127 -0.000419203 0)
(0.0254687 -0.000333833 0)
(0.0191405 -0.000245672 0)
(0.0120707 -0.000152711 0)
(0.00417357 -5.24129e-05 0)
(0.0884719 -0.00182558 0)
(0.0876126 -0.00174762 0)
(0.0863028 -0.00174462 0)
(0.0847687 -0.00179088 0)
(0.0831038 -0.00184828 0)
(0.0813693 -0.00189533 0)
(0.0796093 -0.00192194 0)
(0.0778545 -0.00192451 0)
(0.0761224 -0.0019032 0)
(0.0744185 -0.00186034 0)
(0.0727384 -0.00179931 0)
(0.0710689 -0.00172388 0)
(0.0693898 -0.00163776 0)
(0.0676757 -0.00154432 0)
(0.0658967 -0.00144647 0)
(0.06402 -0.00134654 0)
(0.0620104 -0.00124637 0)
(0.0598309 -0.00114729 0)
(0.0574429 -0.00105017 0)
(0.054806 -0.000955529 0)
(0.0518783 -0.000863524 0)
(0.0486161 -0.000774037 0)
(0.0449731 -0.000686696 0)
(0.0409004 -0.000600898 0)
(0.0363459 -0.000515814 0)
(0.0312533 -0.000430385 0)
(0.0255616 -0.000343299 0)
(0.0192043 -0.000252948 0)
(0.0121084 -0.000157363 0)
(0.00418613 -5.40317e-05 0)
(0.00405684 5.89781e-05 0)
(0.0116885 0.000171642 0)
(0.0184383 0.000275998 0)
(0.0244106 0.000375526 0)
(0.0297018 0.000472976 0)
(0.0343963 0.000570479 0)
(0.0385696 0.000669687 0)
(0.0422894 0.00077185 0)
(0.0456172 0.000877866 0)
(0.0486097 0.0009883 0)
(0.0513194 0.00110338 0)
(0.0537955 0.00122297 0)
(0.0560846 0.00134655 0)
(0.0582306 0.00147315 0)
(0.0602753 0.00160127 0)
(0.0622577 0.00172889 0)
(0.0642136 0.00185332 0)
(0.0661747 0.00197129 0)
(0.0681677 0.00207889 0)
(0.0702121 0.00217173 0)
(0.0723185 0.00224515 0)
(0.0744861 0.00229465 0)
(0.0767009 0.00231645 0)
(0.0789334 0.00230823 0)
(0.0811393 0.0022699 0)
(0.0832599 0.00220373 0)
(0.0852262 0.00211341 0)
(0.0869664 0.0019973 0)
(0.0884235 0.00183114 0)
(0.0895423 0.00154106 0)
(0.0040776 6.04867e-05 0)
(0.0117506 0.000175959 0)
(0.0185431 0.000282701 0)
(0.0245614 0.000384163 0)
(0.0299032 0.000483047 0)
(0.0346542 0.000581423 0)
(0.0388903 0.000680854 0)
(0.0426798 0.000782479 0)
(0.0460842 0.00088706 0)
(0.0491601 0.000994998 0)
(0.0519596 0.00110633 0)
(0.0545312 0.00122073 0)
(0.0569199 0.00133743 0)
(0.0591682 0.00145525 0)
(0.061315 0.00157252 0)
(0.0633962 0.00168704 0)
(0.0654437 0.00179608 0)
(0.067484 0.00189641 0)
(0.0695381 0.0019844 0)
(0.0716194 0.00205611 0)
(0.0737322 0.00210757 0)
(0.0758697 0.00213516 0)
(0.0780132 0.00213601 0)
(0.0801318 0.00210825 0)
(0.0821825 0.00205147 0)
(0.0841127 0.0019651 0)
(0.0858622 0.00184816 0)
(0.087371 0.0016938 0)
(0.0885789 0.00148459 0)
(0.0894649 0.00117993 0)
(0.00409621 6.16615e-05 0)
(0.0118068 0.000179302 0)
(0.0186386 0.000287828 0)
(0.0246998 0.000390628 0)
(0.0300892 0.000490338 0)
(0.0348931 0.000588947 0)
(0.039188 0.000687926 0)
(0.043042 0.000788301 0)
(0.0465167 0.000890701 0)
(0.0496681 0.000995379 0)
(0.0525476 0.00110221 0)
(0.0552024 0.00121069 0)
(0.057676 0.00131991 0)
(0.0600084 0.00142852 0)
(0.062236 0.00153476 0)
(0.0643913 0.0016364 0)
(0.066502 0.00173075 0)
(0.0685897 0.00181479 0)
(0.0706703 0.00188523 0)
(0.072752 0.0019387 0)
(0.0748344 0.00197181 0)
(0.076906 0.00198173 0)
(0.0789466 0.00196629 0)
(0.0809254 0.00192362 0)
(0.082807 0.00185281 0)
(0.0845417 0.00175305 0)
(0.0860728 0.00162255 0)
(0.0873555 0.00145619 0)
(0.0883563 0.00124143 0)
(0.0890621 0.000945976 0)
(0.00411205 6.24909e-05 0)
(0.0118553 0.00018164 0)
(0.0187222 0.000291336 0)
(0.0248223 0.000394875 0)
(0.0302553 0.00049481 0)
(0.0351078 0.00059304 0)
(0.0394564 0.000690933 0)
(0.043369 0.000789406 0)
(0.0469068 0.000888967 0)
(0.0501251 0.000989737 0)
(0.0530741 0.00109146 0)
(0.0557995 0.00119351 0)
(0.058343 0.00129484 0)
(0.0607421 0.00139407 0)
(0.0630302 0.00148938 0)
(0.0652367 0.00157864 0)
(0.0673857 0.00165927 0)
(0.069494 0.00172851 0)
(0.0715728 0.00178349 0)
(0.0736272 0.00182146 0)
(0.0756542 0.0018394 0)
(0.0776382 0.00183516 0)
(0.0795629 0.00180694 0)
(0.0813986 0.00175349 0)
(0.0831067 0.00167397 0)
(0.0846479 0.00156828 0)
(0.0859837 0.00143439 0)
(0.0870832 0.00126801 0)
(0.0879254 0.00105996 0)
(0.0884959 0.000793233 0)
(0.00412448 6.29668e-05 0)
(0.0118941 0.000182953 0)
(0.018791 0.000293199 0)
(0.0249253 0.000396886 0)
(0.030397 0.000496462 0)
(0.035293 0.000593728 0)
(0.0396895 0.000689951 0)
(0.0436541 0.00078594 0)
(0.0472472 0.000882096 0)
(0.0505232 0.000978433 0)
(0.0535309 0.00107459 0)
(0.0563144 0.00116985 0)
(0.0589132 0.00126313 0)
(0.0613623 0.00135299 0)
(0.063692 0.00143769 0)
(0.0659293 0.0015153 0)
(0.0680957 0.00158331 0)
(0.0702029 0.00163929 0)
(0.072258 0.00168075 0)
(0.0742674 0.0017054 0)
(0.0762245 0.00171104 0)
(0.0781116 0.00169584 0)
(0.0799117 0.00165846 0)
(0.0815985 0.00159847 0)
(0.0831428 0.00151521 0)
(0.0845148 0.00140819 0)
(0.0856876 0.00127599 0)
(0.0866406 0.00111573 0)
(0.0873597 0.000922405 0)
(0.0878349 0.000690107 0)
(0.00413292 6.30859e-05 0)
(0.0119218 0.000183234 0)
(0.0188424 0.000293413 0)
(0.0250052 0.000396665 0)
(0.0305101 0.000495323 0)
(0.0354437 0.00059108 0)
(0.0398818 0.000685101 0)
(0.0438912 0.0007781 0)
(0.0475314 0.000870382 0)
(0.0508556 0.000961876 0)
(0.0539111 0.00105215 0)
(0.0567404 0.00114044 0)
(0.0593807 0.00122564 0)
(0.0618645 0.00130635 0)
(0.0642185 0.00138086 0)
(0.0664708 0.00144744 0)
(0.0686384 0.00150401 0)
(0.0707279 0.00154828 0)
(0.0727465 0.00157821 0)
(0.074696 0.00159182 0)
(0.0765685 0.00158774 0)
(0.0783509 0.00156458 0)
(0.0800266 0.00152142 0)
(0.081575 0.00145787 0)
(0.0829737 0.00137361 0)
(0.0842011 0.00126829 0)
(0.0852391 0.00114117 0)
(0.086074 0.000990883 0)
(0.0866974 0.000815758 0)
(0.0871048 0.000615514 0)
(0.00413679 6.28479e-05 0)
(0.0119366 0.000182484 0)
(0.0188741 0.000291986 0)
(0.0250591 0.000394238 0)
(0.0305911 0.000491441 0)
(0.035556 0.000585176 0)
(0.0400289 0.000676513 0)
(0.0440756 0.000766073 0)
(0.0477546 0.000854086 0)
(0.0511176 0.000940419 0)
(0.0542105 0.0010246 0)
(0.0570739 0.00110585 0)
(0.0597431 0.0011831 0)
(0.0622486 0.001255 0)
(0.0646161 0.00132002 0)
(0.0668681 0.00137644 0)
(0.0690184 0.00142266 0)
(0.0710755 0.00145676 0)
(0.0730441 0.00147705 0)
(0.0749238 0.00148203 0)
(0.0767083 0.00147054 0)
(0.0783867 0.00144167 0)
(0.0799455 0.00139487 0)
(0.0813687 0.00132989 0)
(0.0826401 0.00124666 0)
(0.0837448 0.00114515 0)
(0.0846709 0.00102525 0)
(0.0854101 0.000886825 0)
(0.0859585 0.000730223 0)
(0.0863157 0.000557348 0)
(0.00413584 6.22626e-05 0)
(0.0119377 0.00018073 0)
(0.0188843 0.000288965 0)
(0.0250844 0.000389675 0)
(0.0306367 0.000484921 0)
(0.0356261 0.000576173 0)
(0.0401265 0.000664402 0)
(0.0442028 0.000750153 0)
(0.047912 0.000833595 0)
(0.0513045 0.000914553 0)
(0.0544245 0.000992545 0)
(0.0573108 0.00106681 0)
(0.059997 0.00113633 0)
(0.0625116 0.0011999 0)
(0.0648784 0.00125613 0)
(0.0671165 0.00130355 0)
(0.0692389 0.00134071 0)
(0.0712536 0.00136611 0)
(0.0731645 0.0013784 0)
(0.0749708 0.00137644 0)
(0.0766676 0.00135937 0)
(0.0782468 0.00132659 0)
(0.079698 0.00127781 0)