/*--------------------------------*- C++ -*----------------------------------*\
| =========                 |                                                 |
| \\      /  F ield         | OpenFOAM: The Open Source CFD Toolbox           |
|  \\    /   O peration     | Version:  5.x                                   |
|   \\  /    A nd           | Web:      www.OpenFOAM.org                      |
|    \\/     M anipulation  |                                                 |
\*---------------------------------------------------------------------------*/
FoamFile
{
    version     2.0;
    format      ascii;
    class       volVectorField;
    location    "0.4";
    object      U;
}
// * * * * * * * * * * * * * * * * * * * * * * * * * * * * * * * * * * * * * //

dimensions      [0 1 -1 0 0 0 0];

internalField   nonuniform List<vector> 
2790
(
(9.92965 0.020024 -8.68991e-21)
(9.86896 0.0282142 2.94354e-21)
(9.77603 0.0338719 -2.00333e-21)
(9.65522 0.0397659 0)
(9.51544 0.0459379 0)
(9.35931 0.0523341 0)
(9.1861 0.0590796 9.07974e-21)
(8.99461 0.0663265 0)
(8.78394 0.074203 9.85487e-21)
(8.55319 0.0828249 -2.08532e-20)
(8.30131 0.0923075 2.14475e-20)
(8.02709 0.102767 -4.61477e-20)
(7.72923 0.114316 4.76052e-20)
(7.40638 0.127058 0)
(7.05724 0.141085 -1.36737e-19)
(6.68065 0.156451 1.13872e-19)
(6.27566 0.173152 0)
(5.8418 0.191107 6.59116e-20)
(5.37922 0.210113 -2.87078e-19)
(4.88893 0.22979 3.01884e-19)
(4.37312 0.249513 -8.24712e-20)
(3.83553 0.268328 0)
(3.28177 0.284839 -5.89824e-19)
(2.7198 0.297054 8.38926e-19)
(2.16032 0.302165 -2.30437e-19)
(1.61744 0.296297 0)
(1.10952 0.274319 0)
(0.661965 0.229235 0)
(0.280369 0.158585 0)
(0.117039 0.05888 0)
(9.987 0.0390414 -7.67163e-21)
(9.98 0.0584126 -7.78486e-21)
(9.94383 0.0731301 7.93105e-21)
(9.87873 0.088757 3.24818e-20)
(9.7923 0.105445 -3.32377e-20)
(9.6873 0.123026 -1.71442e-20)
(9.56321 0.141744 -8.86946e-21)
(9.41896 0.161936 0)
(9.25371 0.183893 -9.5534e-21)
(9.0666 0.207877 1.98766e-20)
(8.85662 0.234145 -2.07694e-20)
(8.62258 0.262946 0)
(8.36319 0.294508 0)
(8.07707 0.329023 2.43582e-19)
(7.76282 0.366627 -1.24973e-19)
(7.41916 0.407339 0)
(7.04497 0.451004 0)
(6.63948 0.497248 -5.54721e-19)
(6.20246 0.545396 -1.29286e-20)
(5.73438 0.594349 5.49457e-19)
(5.2367 0.642482 2.23204e-19)
(4.71213 0.687534 -1.61387e-18)
(4.16486 0.726495 2.93182e-18)
(3.60079 0.755515 -1.10663e-18)
(3.02743 0.769765 2.01849e-19)
(2.45361 0.763384 -8.74111e-19)
(1.88856 0.729778 0)
(1.34237 0.662156 8.31501e-18)
(0.801204 0.559281 -1.80515e-17)
(0.383295 0.414054 -1.88211e-20)
(9.98408 0.0401995 4.60663e-20)
(9.97419 0.068828 3.10419e-20)
(9.94002 0.0936591 0)
(9.87949 0.119634 -1.61542e-20)
(9.79891 0.147329 1.65714e-20)
(9.70118 0.176695 -1.72298e-20)
(9.58609 0.208064 3.49421e-20)
(9.45274 0.241917 7.33324e-20)
(9.30043 0.278711 -1.1248e-19)
(9.12846 0.318878 -2.17266e-19)
(8.93599 0.362849 1.70809e-20)
(8.72202 0.411048 1.69088e-19)
(8.4854 0.463873 0)
(8.22485 0.521685 3.33339e-19)
(7.93904 0.584755 -3.96514e-20)
(7.62666 0.653186 -9.32309e-20)
(7.28643 0.726828 -4.34356e-19)
(6.91719 0.805184 9.42784e-19)
(6.51809 0.887306 -9.75004e-19)
(6.0887 0.971607 0)
(5.62914 1.05569 -1.39979e-19)
(5.14035 1.1362 3.00272e-18)
(4.6241 1.2087 -2.84397e-18)
(4.08321 1.26766 -3.77913e-18)
(3.52135 1.30645 3.65247e-18)
(2.94245 1.31766 4.2753e-21)
(2.34971 1.29415 8.58579e-19)
(1.74697 1.23108 -8.46439e-18)
(1.11758 1.13375 7.16471e-18)
(0.558778 1.00395 -1.15438e-18)
(9.98239 0.0451212 7.55266e-21)
(9.97027 0.0843078 -6.9689e-20)
(9.93588 0.120288 0)
(9.87647 0.156735 0)
(9.79746 0.194862 0)
(9.70172 0.235034 6.80526e-20)
(9.58925 0.277751 -6.92967e-20)
(9.45934 0.323648 -7.25978e-20)
(9.31143 0.373355 1.11339e-19)
(9.14501 0.427481 7.73958e-20)
(8.95947 0.486627 -4.01661e-20)
(8.75408 0.551391 8.37357e-20)
(8.52795 0.622353 8.74563e-20)
(8.28009 0.700056 3.71882e-19)
(8.00949 0.784949 1.05318e-19)
(7.71506 0.877299 -2.98246e-19)
(7.39569 0.977088 0)
(7.0502 1.0839 6.85135e-19)
(6.67753 1.19676 -9.35349e-19)
(6.2767 1.31396 0)
(5.84686 1.4328 2.14276e-18)
(5.38739 1.54941 -2.22781e-18)
(4.89797 1.6586 -2.41333e-18)
(4.37855 1.75387 2.53401e-18)
(3.82939 1.82757 -6.84968e-19)
(3.25071 1.87133 7.35912e-19)
(2.64201 1.87731 -7.1609e-18)
(2.00523 1.84041 2.23957e-17)
(1.32686 1.76576 -1.50068e-17)
(0.684129 1.65267 7.03834e-21)
(9.98153 0.0514809 -3.81816e-20)
(9.96816 0.0996166 2.31962e-20)
(9.93358 0.145298 1.56608e-20)
(9.87514 0.191261 3.20422e-20)
(9.7977 0.239106 -6.5199e-20)
(9.70393 0.289561 -1.00978e-19)
(9.5939 0.34326 2.07742e-19)
(9.46699 0.400927 -2.85153e-19)
(9.3227 0.463296 1.4621e-19)
(9.1606 0.53109 3.98013e-20)
(8.98021 0.605022 -1.1735e-19)
(8.78092 0.685803 -8.27463e-20)
(8.56201 0.774138 1.76062e-19)
(8.3227 0.870696 -2.65787e-19)
(8.06216 0.976062 -9.42587e-20)
(7.77954 1.09065 9.78238e-20)
(7.47387 1.21459 0)
(7.1441 1.34762 4.32742e-19)
(6.78908 1.48891 0)
(6.40756 1.63688 1.93812e-18)
(5.99807 1.78889 4.40857e-20)
(5.55896 1.94105 -4.53271e-18)
(5.08833 2.08801 6.78943e-18)
(4.58402 2.22294 -4.14361e-18)
(4.04376 2.33767 -6.32481e-19)
(3.46517 2.42304 0)
(2.84564 2.47002 -7.27794e-19)
(2.18668 2.47142 -7.9758e-19)
(1.47965 2.42816 8.69905e-19)
(0.782936 2.33385 4.89776e-19)
(9.98109 0.0585089 1.51672e-20)
(9.96719 0.11498 1.53076e-20)
(9.93278 0.169905 -3.11454e-20)
(9.87553 0.225328 0)
(9.79998 0.282887 -3.267e-20)
(9.7086 0.343537 -5.20523e-22)
(9.60147 0.408032 6.79823e-20)
(9.47801 0.477179 0)
(9.33778 0.551812 0)
(9.1804 0.63276 3.79166e-19)
(9.00543 0.720848 -3.09047e-19)
(8.81235 0.816901 8.06166e-20)
(8.60051 0.921743 1.68338e-19)
(8.36919 1.03617 5.34358e-19)
(8.11764 1.16087 -6.32566e-19)
(7.84512 1.29643 9.38477e-20)
(7.55071 1.44314 -8.07957e-19)
(7.23333 1.60095 8.23107e-19)
(6.89177 1.76926 0)
(6.52453 1.94676 0)
(6.1297 2.13114 -2.38622e-19)
(5.70488 2.31883 -4.58916e-18)
(5.24702 2.50468 4.22206e-18)
(4.75252 2.68196 0)
(4.2173 2.84221 6.00665e-19)
(3.63716 2.9754 5.10703e-18)
(3.00826 3.07053 -4.04299e-18)
(2.33201 3.11701 0)
(1.60541 3.10917 0)
(0.868357 3.03313 1.41015e-17)
(9.98088 0.0658212 0)
(9.96695 0.130313 0)
(9.9331 0.19402 -6.17285e-20)
(9.87729 0.258553 6.28297e-20)
(9.80394 0.325484 6.46154e-20)
(9.71535 0.39593 -9.82632e-20)
(9.6116 0.470787 6.74029e-20)
(9.49215 0.550961 6.9313e-20)
(9.35661 0.637382 0)
(9.20465 0.73098 -2.25088e-19)
(9.03585 0.832685 3.03662e-19)
(8.84973 0.94343 -7.96861e-20)
(8.64566 1.06415 -8.2712e-20)
(8.42295 1.19574 8.59612e-20)
(8.18088 1.33904 -8.94377e-20)
(7.91869 1.49474 -1.11936e-18)
(7.63542 1.66338 2.32424e-18)
(7.32987 1.84513 -3.42143e-18)
(7.00065 2.0397 1.86888e-18)
(6.64595 2.24616 -2.17095e-19)
(6.26351 2.46272 4.57764e-19)
(5.8503 2.68635 9.37277e-21)
(5.40232 2.91242 4.96861e-19)
(4.91474 3.13451 0)
(4.3822 3.3441 0)
(3.79897 3.53014 0)
(3.1602 3.67911 -6.33782e-19)
(2.46676 3.77597 -1.08189e-17)
(1.72076 3.80665 -6.01932e-20)
(0.946775 3.74323 1.34439e-17)
(9.98081 0.0731921 0)
(9.9672 0.145454 6.05171e-20)
(9.93426 0.217509 6.15989e-20)
(9.88016 0.290758 -6.26494e-20)
(9.80931 0.366697 0)
(9.72391 0.44656 1.96475e-19)
(9.62402 0.531368 1.06796e-21)
(9.50914 0.622124 -2.73674e-19)
(9.37893 0.719845 0)
(9.23308 0.825556 -1.45549e-19)
(9.07124 0.940286 0)
(8.89294 1.06508 3.91063e-19)
(8.69756 1.20098 -3.98504e-19)
(8.48446 1.34902 8.38973e-19)
(8.25293 1.51015 -1.21101e-18)
(8.00209 1.68525 1.06813e-18)
(7.73087 1.87509 0)
(7.43799 2.08015 -1.755e-18)
(7.12181 2.3005 -3.67648e-20)
(6.78016 2.53569 2.07287e-18)
(6.41035 2.78455 -2.19632e-19)
(6.00881 3.04483 6.81399e-19)
(5.57059 3.31266 -4.77625e-19)
(5.08978 3.58218 0)
(4.55956 3.84499 0)
(3.9727 4.08911 -2.67974e-19)
(3.32284 4.29842 4.63709e-18)
(2.60895 4.45269 -4.91146e-18)
(1.83449 4.52896 4.09891e-20)
(1.01956 4.47729 1.14892e-17)
(9.98082 0.0804781 -5.96394e-20)
(9.96781 0.160254 -1.20534e-19)
(9.93609 0.240254 0)
(9.88398 0.321803 0)
(9.81593 0.406354 1.26786e-19)
(9.73409 0.495214 -1.2849e-19)
(9.63851 0.589512 -6.62352e-20)
(9.52872 0.690343 2.04213e-19)
(9.40443 0.79881 -1.38123e-19)
(9.26539 0.916026 7.18415e-20)
(9.11126 1.04312 0)
(8.94163 1.18124 -7.63967e-20)
(8.75594 1.33156 7.89097e-20)
(8.55355 1.49522 -2.25125e-21)
(8.33377 1.67336 6.74434e-19)
(8.0956 1.86707 5.39243e-19)
(7.8379 2.07734 -1.4205e-18)
(7.55931 2.30504 1.87279e-19)
(7.25794 2.55068 -1.93979e-19)
(6.93131 2.8144 1.40379e-18)
(6.57621 3.09573 1.68939e-18)
(6.18839 3.39338 -7.03727e-18)
(5.76224 3.70457 3.72692e-18)
(5.29065 4.02439 -2.2572e-19)
(4.76502 4.34485 0)
(4.17598 4.6536 4.99235e-19)
(3.51455 4.93232 4.22956e-18)
(2.77615 5.15541 -4.46139e-18)
(1.96106 5.29127 -3.8414e-20)
(1.09312 5.26262 -5.95089e-20)
(9.98089 0.0875805 5.95943e-20)
(9.96869 0.174587 3.01158e-20)
(9.93844 0.262133 -3.00348e-20)
(9.88859 0.351552 0)
(9.82363 0.444276 0)
(9.74571 0.54167 1.916e-19)
(9.65485 0.644952 -1.94584e-19)
(9.55065 0.755302 2.68475e-19)
(9.43284 0.873903 7.16655e-20)
(9.30124 1.00195 4.10091e-21)
(9.15557 1.14068 -2.14763e-19)
(8.99546 1.29133 0)
(8.82041 1.45519 0)
(8.62983 1.63355 -1.58649e-19)
(8.42302 1.82774 4.91638e-19)
(8.19901 2.03907 -6.63172e-19)
(7.9566 2.26884 0)
(7.69434 2.51826 0)
(7.41018 2.78843 1.47719e-18)
(7.10144 3.08017 -1.49636e-18)
(6.76443 3.39388 1.91294e-19)
(6.39426 3.72933 0)
(5.98472 4.08521 -2.09272e-19)
(5.52743 4.4581 2.16074e-19)
(5.01167 4.84126 -3.41997e-18)
(4.42504 5.22296 3.39502e-18)
(3.7541 5.58379 0)
(2.98876 5.89338 -3.04851e-20)
(2.12099 6.11095 -1.30498e-19)
(1.18 6.12806 2.17183e-19)
(9.98101 0.0944274 -5.8823e-20)
(9.96977 0.188344 8.88584e-20)
(9.94123 0.283032 2.98949e-20)
(9.89389 0.379871 1.21727e-19)
(9.83229 0.480299 6.2401e-20)
(9.7586 0.585725 -3.15306e-19)
(9.67286 0.697444 1.92545e-19)
(9.57469 0.816711 -2.64289e-19)
(9.46389 0.944783 1.99764e-19)
(9.34033 1.08294 0)
(9.20381 1.23248 -1.4122e-19)
(9.05401 1.39477 5.8451e-19)
(8.89053 1.5712 -1.26495e-18)
(8.71283 1.76321 1.07177e-18)
(8.52026 1.97232 -4.67507e-19)
(8.31192 2.20008 1.30095e-18)
(8.08667 2.44809 -2.64926e-18)
(7.84298 2.71801 1.34852e-18)
(7.57881 3.01148 1.71791e-19)
(7.29137 3.33015 -1.61304e-18)
(6.97678 3.67545 1.26652e-18)
(6.6298 4.04846 -3.00461e-18)
(6.24347 4.44961 3.04075e-18)
(5.80825 4.87773 -9.53454e-20)
(5.31124 5.3286 3.19935e-18)
(4.73609 5.79289 -3.27611e-18)
(4.06275 6.25248 -3.39282e-18)
(3.27198 6.67446 3.56925e-18)
(2.33889 7.00874 -3.7548e-18)
(1.29446 7.10923 8.0396e-18)
(9.98117 0.100964 4.02628e-22)
(9.97102 0.201436 -5.91102e-20)
(9.94439 0.302846 -1.61776e-22)
(9.89977 0.406637 -6.01639e-20)
(9.84179 0.514271 1.22666e-19)
(9.77263 0.627196 -2.48909e-19)
(9.69235 0.746767 6.19638e-20)
(9.60062 0.874306 1.28704e-19)
(9.4973 1.01114 0)
(9.38233 1.1586 -2.71847e-19)
(9.25558 1.31809 6.90943e-19)
(9.11684 1.49104 -2.80945e-19)
(8.96578 1.67896 6.5656e-19)
(8.80199 1.88343 -2.92355e-19)
(8.62489 2.10614 -3.03489e-19)
(8.43372 2.34888 6.25729e-19)
(8.22745 2.61358 -6.30681e-19)
(8.00468 2.90231 0)
(7.76346 3.21733 -3.30713e-19)
(7.50112 3.56109 5.47331e-21)
(7.2139 3.93618 -1.29211e-18)
(6.89656 4.34523 1.3859e-18)
(6.5418 4.7908 -1.41176e-18)
(6.13925 5.27476 1.51565e-18)
(5.6742 5.79701 -9.2654e-20)
(5.1261 6.35333 0)
(4.46632 6.93128 0)
(3.66142 7.50123 0)
(2.65793 8.00756 -3.11674e-18)
(1.46627 8.25919 3.43482e-18)
(9.98135 0.107146 5.83359e-20)
(9.9724 0.213788 2.91714e-20)
(9.94784 0.32148 -2.94773e-20)
(9.90615 0.431739 0)
(9.85201 0.546056 0)
(9.78764 0.665914 -1.23225e-19)
(9.71314 0.792718 6.17053e-20)
(9.62821 0.927846 6.32399e-20)
(9.53278 1.07267 0)
(9.42689 1.2286 0)
(9.31048 1.39708 -6.80094e-20)
(9.18345 1.57963 0)
(9.0456 1.77785 0)
(8.89662 1.99345 -1.45067e-19)
(8.73613 2.22826 7.38263e-19)
(8.56353 2.4843 -1.40297e-19)
(8.378 2.76378 6.18787e-19)
(8.17839 3.06919 -1.30636e-18)
(7.96306 3.40334 8.2154e-20)
(7.72971 3.76947 1.6153e-19)
(7.47504 4.17131 1.28111e-18)
(7.19432 4.61317 8.06101e-20)
(6.88067 5.10006 -1.33394e-18)
(6.52393 5.63756 3.91703e-20)
(6.1088 6.23125 0)
(5.61185 6.88551 9.54216e-21)
(4.99591 7.60047 0)
(4.20814 8.36274 1.83115e-20)
(3.14668 9.12976 -1.22073e-18)
(1.7486 9.6736 1.35684e-18)
(9.98155 0.112941 -1.14841e-19)
(9.97389 0.225335 0)
(9.95154 0.338851 5.83383e-20)
(9.91295 0.455076 -1.17951e-19)
(9.86286 0.575533 1.79319e-19)
(9.80351 0.701737 -1.81114e-19)
(9.73504 0.83513 0)
(9.65722 0.977132 -6.29108e-20)
(9.57005 1.12916 0)
(9.47364 1.29266 -6.43254e-20)
(9.36806 1.46914 0)
(9.2533 1.66016 -5.40574e-19)
(9.12931 1.8674 5.44232e-19)
(8.99596 2.09266 0)
(8.85305 2.3379 6.99276e-20)
(8.70024 2.60531 6.51831e-19)
(8.53701 2.89735 7.6834e-20)
(8.36258 3.21682 -1.69369e-18)
(8.17581 3.56701 1.26017e-18)
(7.97504 3.95183 -1.12246e-18)
(7.75784 4.37603 1.04687e-18)
(7.52061 4.84545 -7.64231e-20)
(7.25795 5.36752 -1.13754e-18)
(6.96156 5.9517 -1.70848e-20)
(6.6182 6.6102 1.14262e-18)
(6.20594 7.35886 -9.02888e-21)
(5.68494 8.21846 0)
(4.98635 9.21378 -1.68542e-20)
(3.9396 10.3726 6.1051e-21)
(2.26587 11.5664 9.02626e-19)
(9.98177 0.11832 1.1477e-19)
(9.97547 0.236027 5.70988e-20)
(9.95544 0.354888 -5.74618e-20)
(9.92009 0.476556 -1.16363e-19)
(9.8742 0.602585 5.88939e-20)
(9.82006 0.734512 6.00542e-20)
(9.75785 0.873809 0)
(9.6874 1.02193 -6.11005e-20)
(9.60878 1.18031 0)
(9.52219 1.35044 3.1881e-19)
(9.42782 1.53384 -2.5665e-19)
(9.32579 1.73212 -6.48604e-20)
(9.2162 1.947 -6.57792e-20)
(9.09912 2.18033 0)
(8.97458 2.43417 -1.36489e-19)
(8.84254 2.71082 6.99229e-20)
(8.70285 3.01287 -7.06526e-20)
(8.55522 3.34338 5.61365e-19)
(8.39917 3.70592 -6.83633e-20)
(8.23391 4.10489 5.56244e-19)
(8.05825 4.54571 -1.04709e-18)
(7.87035 5.03536 -1.09327e-18)
(7.66738 5.58306 1.08787e-18)
(7.4449 6.20137 -1.02615e-18)
(7.19566 6.90818 1.02595e-18)
(6.90724 7.73035 0)
(6.5545 8.71175 3.94868e-19)
(6.08872 9.93278 -3.89802e-19)
(5.32618 11.5879 -2.98778e-20)
(3.34239 14.4748 -3.43521e-19)
(-0.0897587 0.188764 2.76224e-18)
(-0.631774 0.388728 -2.52477e-18)
(-1.43293 0.471269 1.15322e-18)
(-2.3486 0.500543 4.25328e-20)
(-3.33096 0.504102 -2.06411e-19)
(-4.349 0.493849 -9.48768e-19)
(-5.38013 0.47491 4.48313e-19)
(-6.4064 0.44959 -4.82194e-19)
(-7.41188 0.418962 4.48149e-19)
(-8.38089 0.383501 2.45858e-19)
(-9.29723 0.343416 -2.31885e-19)
(-10.1437 0.298806 0)
(-10.9018 0.249774 6.25795e-20)
(-11.5522 0.196494 0)
(-12.075 0.139326 1.27931e-19)
(-12.4507 0.078664 -1.56998e-19)
(-12.6605 0.0148077 0)
(-12.6879 -0.0521701 5.9086e-20)
(-12.5199 -0.121923 -8.76988e-20)
(-12.1505 -0.191443 -3.90229e-20)
(-11.5805 -0.258167 2.58705e-20)
(-10.8178 -0.32033 -9.53468e-22)
(-9.87458 -0.3768 -1.99398e-20)
(-8.76656 -0.427205 0)
(-7.5101 -0.472177 0)
(-6.11822 -0.514363 0)
(-4.59636 -0.562022 2.97652e-21)
(-2.95536 -0.635397 0)
(-1.22839 -0.760533 4.64488e-22)
(2.0907 -1.04199 0)
(-0.261294 0.618219 -5.13573e-18)
(-0.895936 0.92074 4.49835e-18)
(-1.72977 1.07596 4.10968e-18)
(-2.64236 1.16276 -4.13955e-18)
(-3.61058 1.20626 -2.05286e-18)
(-4.60989 1.21974 2.11114e-18)
(-5.61994 1.20999 -8.91508e-19)
(-6.62367 1.18051 8.29339e-19)
(-7.60527 1.13297 0)
(-8.54904 1.06793 0)
(-9.43865 0.985407 4.77036e-19)
(-10.2567 0.885176 3.08316e-20)
(-10.9844 0.767132 -5.3088e-19)
(-11.602 0.63162 3.76649e-19)
(-12.0891 0.47972 -2.46818e-19)
(-12.426 0.313366 3.14483e-20)
(-12.5939 0.135207 6.35104e-20)
(-12.5755 -0.0516179 0)
(-12.3657 -0.241363 8.68997e-20)
(-11.9613 -0.425502 -6.16298e-20)
(-11.3637 -0.598198 1.72728e-19)
(-10.5804 -0.755423 4.18018e-21)
(-9.62316 -0.894647 -1.6783e-20)
(-8.50706 -1.01506 -3.46267e-20)
(-7.24824 -1.11821 0)
(-5.86067 -1.20997 0)
(-4.3528 -1.3076 1.10103e-21)
(-2.73469 -1.45288 2.29023e-21)
(-1.05194 -1.71008 8.39736e-22)
(1.7308 -2.13758 -5.54208e-22)
(-0.278679 1.29528 -5.91223e-19)
(-0.944984 1.6429 -4.1785e-18)
(-1.7992 1.83766 4.15333e-18)
(-2.69063 1.95393 4.32334e-19)
(-3.61976 2.01171 0)
(-4.57035 2.02439 1.29809e-18)
(-5.52744 2.00004 -2.92629e-19)
(-6.47725 1.9433 -1.60533e-18)
(-7.40605 1.85652 -6.73543e-19)
(-8.29955 1.74055 8.46411e-19)
(-9.14246 1.59541 0)
(-9.91795 1.42079 0)
(-10.6075 1.21664 1.23072e-19)
(-11.1913 0.983678 -5.06483e-19)
(-11.6488 0.724017 1.14867e-18)
(-11.9597 0.44149 -3.83143e-19)
(-12.1046 0.141921 -1.30858e-19)
(-12.0663 -0.167246 -2.46808e-19)
(-11.8418 -0.478109 4.11923e-19)
(-11.4271 -0.778931 -1.49177e-19)
(-10.8253 -1.06037 -1.27949e-19)
(-10.0447 -1.31573 0)
(-9.09745 -1.5406 3.72838e-20)
(-7.99867 -1.73311 0)
(-6.7653 -1.8952 -2.07164e-20)
(-5.41402 -2.03514 3.08369e-20)
(-3.95908 -2.17529 -5.6645e-21)
(-2.4128 -2.36641 -1.16708e-21)
(-0.8508 -2.68793 1.87019e-22)
(1.46305 -3.16444 3.88325e-22)
(-0.217124 2.07166 4.5596e-19)
(-0.871798 2.41807 7.65115e-18)
(-1.72994 2.61375 -4.05402e-18)
(-2.58679 2.73236 2.85596e-18)
(-3.46556 2.78777 0)
(-4.35709 2.79119 -4.09536e-19)
(-5.25245 2.74988 4.00212e-19)
(-6.14187 2.66816 -4.20737e-19)
(-7.01425 2.5479 -1.55256e-18)
(-7.85699 2.38938 8.68664e-20)
(-8.6556 2.19185 1.0508e-18)
(-9.39337 1.95419 6.80613e-19)
(-10.0513 1.6756 -3.74492e-19)
(-10.6085 1.3564 -6.50093e-19)
(-11.0431 0.998732 3.89704e-19)
(-11.333 0.607336 2.70775e-19)
(-11.4574 0.19023 -6.22384e-19)
(-11.3982 -0.241678 -1.34226e-19)
(-11.1585 -0.673895 -3.00175e-19)
(-10.735 -1.08982 2.33285e-19)
(-10.1325 -1.47754 9.48994e-20)
(-9.36013 -1.82856 -4.96818e-20)
(-8.43016 -2.13709 -5.72526e-20)
(-7.35788 -2.40016 0)
(-6.16102 -2.61972 -4.17549e-21)
(-4.85947 -2.80558 -3.09042e-20)
(-3.4742 -2.98229 4.95106e-21)
(-2.01497 -3.20021 -7.89094e-21)
(-0.59154 -3.53753 3.18499e-21)
(1.32919 -3.97726 -5.98621e-22)
(-0.118389 2.88946 -8.2724e-18)
(-0.73103 3.2034 2.36061e-19)
(-1.56888 3.3747 -3.52543e-18)
(-2.37391 3.47827 7.44836e-18)
(-3.1915 3.52111 -6.48051e-18)
(-4.01631 3.51071 3.51762e-18)
(-4.84436 3.45179 0)
(-5.66912 3.34679 2.57925e-18)
(-6.4818 3.19597 -2.09012e-18)
(-7.27109 2.99804 -2.09252e-18)
(-8.02298 2.75072 1.58008e-18)
(-8.72059 2.45154 -5.21333e-19)
(-9.34424 2.09874 1.51125e-18)
(-9.87196 1.69227 -1.36225e-18)
(-10.2804 1.23497 1.09282e-18)
(-10.546 0.73363 1.41493e-19)
(-10.6466 0.200228 1.45113e-19)
(-10.5643 -0.349017 -5.53585e-19)
(-10.3102 -0.89521 5.93323e-19)
(-9.88052 -1.41799 2.24531e-19)
(-9.28266 -1.90334 -1.67172e-19)
(-8.5263 -2.34163 -9.18159e-20)
(-7.62327 -2.72592 7.82293e-20)
(-6.58855 -3.05183 0)
(-5.44054 -3.32076 6.9314e-20)
(-4.20208 -3.54294 -4.1759e-20)
(-2.9006 -3.74323 1.67109e-20)
(-1.53989 -3.96506 3.15643e-21)
(-0.266107 -4.27666 1.44831e-21)
(1.33374 -4.6375 1.90067e-22)
(-0.00323623 3.6952 -8.09131e-18)
(-0.550666 3.96448 6.95613e-18)
(-1.34254 4.10025 3.50783e-18)
(-2.07696 4.18039 -7.48329e-18)
(-2.82115 4.20556 3.18295e-18)
(-3.57001 4.17954 0)
(-4.32318 4.10389 4.25288e-19)
(-5.07651 3.97843 -8.58913e-19)
(-5.82296 3.80119 4.53667e-19)
(-6.55232 3.56879 0)
(-7.25109 3.27703 1.77157e-18)
(-7.90239 2.92177 -1.43712e-18)
(-8.4861 2.49997 -1.30996e-18)
(-8.97935 2.01091 2.77999e-19)
(-9.35743 1.45772 0)
(-9.59502 0.848965 0)
(-9.66871 0.200706 6.33501e-19)
(-9.56229 -0.464026 -4.60382e-19)
(-9.29454 -1.11998 0)
(-8.86282 -1.74333 2.37529e-19)
(-8.27667 -2.3192 -2.85758e-19)
(-7.54585 -2.83792 4.70185e-20)
(-6.68091 -3.29185 -3.98615e-20)
(-5.69599 -3.67474 2.5656e-20)
(-4.60951 -3.98672 -1.07791e-19)
(-3.44693 -4.2372 4.54758e-20)
(-2.24015 -4.4498 -1.77386e-20)
(-0.987133 -4.65642 0)
(0.128881 -4.91546 -9.49526e-21)
(1.47165 -5.18162 0)
(0.115714 4.44936 -7.96495e-18)
(-0.347579 4.66785 7.1728e-18)
(-1.06777 4.76598 2.21602e-19)
(-1.71236 4.82122 -3.06158e-18)
(-2.36952 4.82836 3.26936e-18)
(-3.0312 4.78785 0)
(-3.69965 4.69806 -4.23663e-19)
(-4.37237 4.55592 4.3758e-19)
(-5.04367 4.35686 -4.55818e-19)
(-5.70435 4.09503 0)
(-6.34161 3.76395 -1.86762e-18)
(-6.93888 3.35743 2.35412e-18)
(-7.47591 2.87082 0)
(-7.92918 2.30246 1.22904e-18)
(-8.27259 1.65573 -1.25245e-18)
(-8.47867 0.941578 0)
(-8.52185 0.181339 0)
(-8.38887 -0.593796 1.66245e-19)
(-8.11037 -1.35125 1.50815e-19)
(-7.68243 -2.06533 0)
(-7.11697 -2.72181 0)
(-6.42284 -3.31218 -1.03375e-19)
(-5.60825 -3.82854 -4.38787e-20)
(-4.68609 -4.26208 3.45009e-20)
(-3.67372 -4.61074 0)
(-2.59921 -4.88188 -2.24473e-20)
(-1.49427 -5.09644 -3.45539e-21)
(-0.358806 -5.27339 -1.29556e-20)
(0.59322 -5.46234 1.75232e-20)
(1.73328 -5.63556 -1.49114e-21)
(0.226513 5.11006 4.04034e-18)
(-0.136363 5.28114 -3.63643e-18)
(-0.756602 5.34689 3.41058e-18)
(-1.29204 5.38121 1.65431e-19)
(-1.8478 5.37402 -3.61584e-18)
(-2.40973 5.32297 0)
(-2.98217 5.22339 0)
(-3.56351 5.06951 -1.94349e-18)
(-4.14911 4.85406 1.88094e-18)
(-4.73083 4.56861 -2.6086e-19)
(-5.29676 4.2042 0)
(-5.831 3.75239 2.08084e-18)
(-6.31366 3.20659 -2.06484e-18)
(-6.72088 2.5639 0)
(-7.025 1.8277 0)
(-7.19543 1.01184 0)
(-7.20321 0.144183 7.7925e-19)
(-7.04708 -0.736204 -1.41843e-18)
(-6.76173 -1.58525 1.12191e-18)
(-6.34537 -2.37847 -5.9082e-19)
(-5.81103 -3.10426 1.27277e-19)
(-5.16565 -3.75673 -4.21126e-21)
(-4.41382 -4.32805 4.44687e-20)
(-3.56733 -4.80629 0)
(-2.64098 -5.18581 0)
(-1.66582 -5.47051 6.99745e-20)
(-0.667282 -5.67683 2.20656e-21)
(0.321511 -5.81239 1.36072e-20)
(1.14413 -5.93182 -1.2168e-20)
(2.10619 -6.0165 1.63631e-21)
(0.32702 5.63264 -4.06612e-18)
(0.0803329 5.77541 3.65836e-18)
(-0.416227 5.82042 3.73876e-18)
(-0.825735 5.84188 -3.55353e-18)
(-1.2662 5.82701 4.54536e-19)
(-1.71554 5.77163 0)
(-2.18013 5.66825 0)
(-2.6586 5.50866 -2.05495e-18)
(-3.14715 5.28309 1.99705e-18)
(-3.63869 4.98065 2.69215e-19)
(-4.12252 4.58986 2.40365e-18)
(-4.58394 4.09973 -2.0888e-18)
(-5.00406 3.50146 -1.68575e-18)
(-5.35933 2.79035 1.38926e-18)
(-5.62002 1.96936 0)
(-5.75026 1.05567 -2.10471e-19)
(-5.71618 0.0858061 -8.76753e-19)
(-5.54412 -0.889572 6.05522e-19)
(-5.25865 -1.81766 0)
(-4.86403 -2.67614 1.57053e-19)
(-4.37238 -3.45884 -2.50297e-19)
(-3.78785 -4.16381 5.73021e-19)
(-3.1104 -4.78293 -3.0761e-19)
(-2.3512 -5.30015 0)
(-1.52186 -5.70527 8.75612e-21)
(-0.654697 -5.99698 -3.37011e-20)
(0.229549 -6.18524 4.14965e-20)
(1.05174 -6.27562 1.41024e-20)
(1.77774 -6.33533 8.10356e-21)
(2.577 -6.33528 0)
(0.419174 5.9953 -4.01456e-18)
(0.303999 6.13102 -3.8481e-18)
(-0.0523708 6.16889 3.71127e-18)
(-0.32266 6.18754 0)
(-0.635775 6.17329 -4.29608e-18)
(-0.960497 6.12116 3.79539e-18)
(-1.30598 6.02102 0)
(-1.67039 5.8625 2.1882e-18)
(-2.05052 5.63372 -4.15871e-18)
(-2.44037 5.32167 -1.74985e-19)
(-2.83069 4.91245 2.41633e-18)
(-3.20854 4.3925 -3.39717e-19)
(-3.55708 3.7504 0)
(-3.85426 2.97905 0)
(-4.06818 2.07968 -1.73387e-18)
(-4.1548 1.07245 2.13893e-19)
(-4.07467 0.00540816 2.26675e-18)
(-3.89077 -1.05225 -8.66515e-19)
(-3.61738 -2.04283 7.93046e-19)
(-3.25741 -2.94975 6.52275e-19)
(-2.82119 -3.77654 -1.0294e-18)
(-2.30885 -4.52565 3.8841e-19)
(-1.71595 -5.18712 2.9262e-19)
(-1.05157 -5.73853 -2.62926e-19)
(-0.330247 -6.16337 9.48166e-21)
(0.424258 -6.4554 -5.12753e-20)
(1.15393 -6.61573 3.54824e-20)
(1.86025 -6.67351 1.34797e-21)
(2.48458 -6.67809 1.22133e-20)
(3.13239 -6.59864 0)
(0.503938 6.18736 0)
(0.534363 6.33704 -2.72433e-20)
(0.328445 6.38143 -3.98094e-18)
(0.207337 6.40638 3.88153e-18)
(0.0309453 6.4015 1.24621e-19)
(-0.159025 6.36067 -2.27391e-18)
(-0.375963 6.27113 -2.84887e-19)
(-0.616679 6.12071 4.52299e-18)
(-0.87817 5.89575 -1.15601e-19)
(-1.15533 5.58155 -2.4488e-18)
(-1.44041 5.162 0)
(-1.72249 4.62069 1.88388e-18)
(-1.98773 3.94294 9.02323e-20)
(-2.21777 3.11795 -3.5063e-18)
(-2.37868 2.14497 1.91195e-18)
(-2.41354 1.04935 2.45763e-18)
(-2.28386 -0.0968628 -1.45892e-18)
(-2.10541 -1.21612 -1.98933e-18)
(-1.86035 -2.25133 8.82235e-19)
(-1.55045 -3.19189 -1.83627e-19)
(-1.18388 -4.05099 0)
(-0.753486 -4.83653 -1.31972e-19)
(-0.253946 -5.53534 0)
(0.314835 -6.12112 0)
(0.909261 -6.55051 0)
(1.52698 -6.83509 4.77543e-20)
(2.14423 -6.98119 -3.33368e-20)
(2.73365 -7.00934 -4.39933e-20)
(3.25392 -6.96142 -1.16721e-20)
(3.75805 -6.81035 0)
(0.584331 6.21177 4.15592e-18)
(0.770371 6.39102 -3.95961e-18)
(0.719196 6.45151 -2.09154e-18)
(0.751481 6.49034 2.01028e-18)
(0.719509 6.50438 0)
(0.67184 6.48448 1.36184e-19)
(0.590194 6.41469 2.45878e-18)
(0.479392 6.28006 -2.34695e-18)
(0.344037 6.06667 2.84861e-18)
(0.188221 5.75822 -2.84263e-18)
(0.0184648 5.3375 -3.09947e-18)
(-0.156047 4.78683 3.14973e-18)
(-0.325687 4.08917 -2.24739e-19)
(-0.480573 3.2324 -2.03096e-18)
(-0.582125 2.21332 2.20773e-18)
(-0.547628 1.05065 3.64019e-21)
(-0.355463 -0.173141 0)
(-0.217771 -1.34856 -1.4111e-18)
(-0.0232606 -2.41835 9.92568e-19)
(0.223325 -3.39877 7.79231e-19)
(0.50844 -4.28539 -5.44912e-19)
(0.850187 -5.10003 -1.48298e-19)
(1.248 -5.82215 0)
(1.69423 -6.41893 0)
(2.17896 -6.86487 6.45456e-20)
(2.68437 -7.15128 4.11982e-20)
(3.18719 -7.2834 -8.7573e-20)
(3.6586 -7.28265 4.36626e-20)
(4.07301 -7.18615 3.87935e-21)
(4.43891 -6.97248 0)
(0.667057 6.08046 0)
(1.00539 6.29475 0)
(1.11515 6.37443 2.05028e-18)
(1.29775 6.43281 -1.94804e-18)
(1.41615 6.47448 -7.87708e-21)
(1.51106 6.48311 0)
(1.56641 6.43997 1.01905e-19)
(1.58814 6.32804 -7.18523e-20)
(1.58178 6.13254 2.32342e-18)
(1.55211 5.83646 -5.13715e-18)
(1.5053 5.42231 2.77966e-18)
(1.44901 4.87263 0)
(1.39045 4.16902 2.18506e-19)
(1.3353 3.29441 -2.45075e-19)
(1.32724 2.23642 2.5183e-18)
(1.44831 1.01505 -2.82114e-18)
(1.63359 -0.254111 -1.26033e-18)
(1.7284 -1.4517 1.3271e-18)
(1.84584 -2.53536 -8.52749e-19)
(2.00315 -3.52489 1.46017e-18)
(2.20183 -4.44056 -3.3027e-19)
(2.45299 -5.28694 1.24621e-21)
(2.7567 -6.03965 -1.00463e-19)
(3.1049 -6.66116 -7.20746e-20)
(3.48503 -7.11908 -5.40684e-20)
(3.87904 -7.40366 3.98964e-20)
(4.26638 -7.52132 -6.26293e-21)
(4.61984 -7.49315 0)
(4.92745 -7.35296 -2.59371e-20)
(5.15939 -7.0862 1.95058e-21)
(0.75581 5.80836 2.10038e-18)
(1.23491 6.05216 -1.97356e-18)
(1.50795 6.14572 0)
(1.84192 6.23022 -1.97985e-18)
(2.11308 6.31059 1.89916e-18)
(2.34667 6.35712 -1.54414e-20)
(2.53479 6.34753 -3.22637e-20)
(2.6852 6.26343 6.76688e-20)
(2.80478 6.08942 1.26329e-18)
(2.89948 5.80861 -1.18182e-18)
(2.97583 5.40361 -1.37176e-18)
(3.04083 4.85701 1.39272e-18)
(3.10103 4.15027 -1.81943e-18)
(3.1629 3.26442 1.70552e-18)
(3.25553 2.19325 -2.44192e-19)
(3.41195 0.97879 -8.23298e-19)
(3.5609 -0.2893 1.08462e-18)
(3.6235 -1.50119 9.03095e-19)
(3.67676 -2.60374 -1.36745e-18)
(3.75676 -3.61449 6.85637e-19)
(3.87728 -4.556 -1.39307e-19)
(4.04815 -5.4301 2.01148e-22)
(4.26792 -6.20756 9.36158e-20)
(4.52563 -6.84615 0)
(4.80604 -7.31188 5.81229e-20)
(5.09141 -7.59257 4.42488e-20)
(5.36424 -7.69516 4.52748e-20)
(5.60096 -7.64126 -1.31265e-20)
(5.80173 -7.46266 1.1752e-20)
(5.90377 -7.15235 0)
(0.844742 5.43091 1.06636e-18)
(1.44593 5.68404 -2.14291e-20)
(1.88561 5.77092 -1.90573e-18)
(2.38185 5.89026 9.12084e-19)
(2.80469 6.02141 5.77657e-20)
(3.16819 6.11506 -4.39214e-20)
(3.47917 6.14559 0)
(3.74917 6.0944 1.05739e-18)
(3.98652 5.94588 9.89749e-20)
(4.19813 5.68377 -1.10212e-18)
(4.39062 5.29114 0)
(4.57027 4.75081 0)
(4.74244 4.04462 -1.29731e-18)
(4.91128 3.15512 1.73707e-18)
(5.08341 2.08414 8.79433e-19)
(5.25956 0.88125 -1.19718e-18)
(5.39061 -0.360401 0)
(5.42462 -1.54443 0)
(5.42554 -2.6383 -1.77725e-19)
(5.44225 -3.65943 -1.50943e-19)
(5.49988 -4.62542 -1.28128e-19)
(5.60711 -5.52714 -1.07737e-19)
(5.75731 -6.32695 -8.18378e-20)
(5.93474 -6.97838 8.31669e-20)
(6.12193 -7.4468 -4.35889e-20)
(6.3025 -7.72 -5.48902e-20)
(6.46298 -7.80619 3.51078e-22)
(6.58511 -7.72811 -1.27777e-20)
(6.67993 -7.51638 0)
(6.65649 -7.17169 -3.84649e-21)
(9.98201 0.123346 1.3608e-20)
(9.97715 0.246003 -9.60251e-20)
(9.95959 0.369817 8.29042e-20)
(9.92769 0.496504 5.584e-20)
(9.88625 0.627643 0)
(9.83761 0.764788 5.74479e-20)
(9.78202 0.909428 -5.76932e-20)
(9.71935 1.06303 1.16715e-19)
(9.64977 1.22705 0)
(9.57359 1.40299 2.40947e-19)
(9.4911 1.59237 -3.02765e-19)
(9.40257 1.79681 1.23298e-19)
(9.3083 2.01806 6.30917e-20)
(9.20856 2.25798 0)
(9.10365 2.51865 6.45753e-20)
(8.99386 2.80241 0)
(8.8795 3.11192 0)
(8.76084 3.45029 -5.1691e-19)
(8.63817 3.82124 5.82204e-19)
(8.51179 4.22929 -6.54602e-20)
(8.38202 4.68013 0)
(8.24925 5.18112 -4.72671e-19)
(8.11409 5.74207 4.82159e-19)
(7.97766 6.37661 -1.36552e-20)
(7.84234 7.10455 4.06384e-19)
(7.71422 7.95632 -3.99611e-19)
(7.60956 8.98238 0)
(7.60167 10.271 0)
(8.15205 11.9519 2.11857e-20)
(8.37867 14.6754 5.28015e-19)
(9.98228 0.128027 0)
(9.97894 0.255265 -1.05296e-19)
(9.964 0.383623 -5.29216e-20)
(9.93573 0.514868 5.33414e-20)
(9.89895 0.650601 5.38549e-20)
(9.85607 0.792386 1.64826e-19)
(9.80736 0.941716 -1.11337e-19)
(9.75279 1.10006 -2.24518e-19)
(9.6926 1.26888 5.69054e-20)
(9.62719 1.44965 0)
(9.55701 1.64391 5.86387e-20)
(9.48248 1.85324 -2.36787e-19)
(9.40407 2.07937 2.36571e-19)
(9.32229 2.32413 0)
(9.23773 2.58956 -5.93306e-20)
(9.15104 2.87795 0)
(9.06298 3.19191 -4.82904e-19)
(8.97444 3.53447 4.82487e-19)
(8.88651 3.90918 4.46261e-19)
(8.80057 4.32037 -4.44965e-19)
(8.71852 4.77342 -4.55353e-19)
(8.64299 5.27511 4.37561e-19)
(8.57796 5.83429 -4.13786e-19)
(8.52988 6.4627 4.23324e-19)
(8.5099 7.17626 0)
(8.53926 7.99648 1.43322e-19)
(8.65718 8.95104 -1.68446e-19)
(8.90458 10.071 0)
(9.57876 11.3061 1.21382e-20)
(10.0837 12.399 -6.12538e-20)
(9.98257 0.13228 -1.27171e-20)
(9.98083 0.263657 9.00868e-20)
(9.96863 0.396089 2.63024e-20)
(9.94415 0.531387 -6.00647e-22)
(9.91223 0.671166 -5.29047e-20)
(9.87532 0.816986 5.2679e-20)
(9.83375 0.970333 -5.36345e-20)
(9.78755 1.13266 -5.36111e-20)
(9.73704 1.30541 3.81301e-19)
(9.68273 1.49004 -1.64813e-19)
(9.6252 1.68802 0)
(9.56502 1.90091 -5.65139e-20)
(9.50284 2.13036 0)
(9.43943 2.37813 -5.58298e-20)
(9.37562 2.64615 5.11389e-19)
(9.31245 2.93658 -5.09941e-19)
(9.25111 3.25185 -5.55213e-20)
(9.19307 3.59472 0)
(9.14014 3.96838 -4.37681e-19)
(9.09468 4.37658 4.09017e-19)
(9.05987 4.82387 0)
(9.04007 5.31567 0)
(9.04152 5.85853 0)
(9.07349 6.46021 0)
(9.14981 7.12932 0)
(9.29109 7.8736 0)
(9.52757 8.69434 3.3305e-20)
(9.85849 9.58011 1.0338e-20)
(10.4183 10.4893 -2.35946e-20)
(11.0834 11.2306 1.71389e-20)
(9.98289 0.136054 1.22824e-20)
(9.9828 0.271075 -3.70022e-20)
(9.97344 0.407055 9.9463e-20)
(9.95288 0.545838 -2.52806e-20)
(9.92598 0.689045 -1.50899e-19)
(9.89522 0.838221 0)
(9.86098 0.994832 -1.5325e-19)
(9.82336 1.1603 1.03151e-19)
(9.78275 1.33604 -1.04278e-19)
(9.73977 1.52342 1.03831e-19)
(9.6951 1.7239 -5.23045e-20)