/*--------------------------------*- C++ -*----------------------------------*\
| =========                 |                                                 |
| \\      /  F ield         | OpenFOAM: The Open Source CFD Toolbox           |
|  \\    /   O peration     | Version:  4.1                                   |
|   \\  /    A nd           | Web:      www.OpenFOAM.org                      |
|    \\/     M anipulation  |                                                 |
\*---------------------------------------------------------------------------*/
FoamFile
{
    version     2.0;
    format      ascii;
    class       volVectorField;
    location    "2.5";
    object      U;
}
// * * * * * * * * * * * * * * * * * * * * * * * * * * * * * * * * * * * * * //

dimensions      [0 1 -1 0 0 0 0];

internalField   nonuniform List<vector> 
2790
(
(9.93766 0.0203208 -1.75431e-19)
(9.86278 0.0271688 1.80092e-19)
(9.76106 0.0315565 0)
(9.64207 0.036263 1.02602e-19)
(9.51117 0.0411838 -5.33001e-20)
(9.36892 0.0462191 1.65374e-19)
(9.21482 0.0514863 3.89677e-22)
(9.04843 0.0571331 0)
(8.86936 0.0632666 1.23771e-19)
(8.67707 0.0699741 -1.27463e-19)
(8.47084 0.0773649 0)
(8.24981 0.0855687 1.40915e-19)
(8.0129 0.0947166 -5.81319e-19)
(7.75891 0.104952 -1.55914e-19)
(7.48652 0.116445 3.16319e-19)
(7.19424 0.129376 0)
(6.88047 0.143937 -8.8414e-19)
(6.54347 0.160339 5.50564e-19)
(6.18142 0.178813 0)
(5.79243 0.199597 0)
(5.3746 0.222929 4.40562e-19)
(4.92609 0.249032 4.69626e-19)
(4.44524 0.278096 0)
(3.93062 0.310226 0)
(3.38145 0.345379 5.8141e-19)
(2.79769 0.383077 -4.43446e-18)
(2.18039 0.421437 4.75455e-18)
(1.53403 0.453613 0)
(0.85005 0.454874 -1.2826e-17)
(0.31197 0.282266 1.47405e-17)
(10.0036 0.0386064 -2.33005e-19)
(9.99011 0.0545788 -4.76751e-20)
(9.95147 0.0658914 -2.9464e-19)
(9.89298 0.0782369 1.01215e-19)
(9.81902 0.0914602 2.08944e-19)
(9.73053 0.105288 0)
(9.62735 0.119959 -1.11532e-19)
(9.50926 0.135816 -2.32933e-19)
(9.37605 0.153108 7.14054e-19)
(9.22735 0.172043 -7.44863e-19)
(9.06254 0.192891 2.54144e-19)
(8.88087 0.215976 -1.33024e-19)
(8.68142 0.24161 0)
(8.46301 0.270128 1.44346e-19)
(8.22441 0.301927 -1.51267e-18)
(7.9642 0.337425 1.24818e-18)
(7.68076 0.37704 4.92574e-19)
(7.37229 0.421206 1.72277e-19)
(7.03686 0.470358 -3.60891e-19)
(6.67237 0.524887 3.44635e-18)
(6.27661 0.585091 -2.78524e-18)
(5.84724 0.651119 -4.24216e-19)
(5.38189 0.722911 0)
(4.87798 0.800036 0)
(4.33299 0.881522 5.05567e-19)
(3.7442 0.965525 8.20895e-18)
(3.10737 1.04837 -8.70063e-18)
(2.41532 1.12351 0)
(1.62659 1.18566 -2.1602e-17)
(0.90464 1.18535 2.21623e-17)
(10.0007 0.0378967 7.46066e-19)
(9.98449 0.0616871 0)
(9.9481 0.0812026 1.9618e-19)
(9.8942 0.101799 -2.02039e-19)
(9.8259 0.12377 -2.08237e-19)
(9.74426 0.146915 -1.87484e-21)
(9.64932 0.171561 -3.45698e-21)
(9.54094 0.198202 -2.30481e-19)
(9.41905 0.227215 -2.36692e-19)
(9.28337 0.258942 -7.39329e-19)
(9.13339 0.293841 1.26176e-18)
(8.96852 0.332441 1.31942e-18)
(8.78801 0.375278 -1.08294e-18)
(8.59078 0.422916 0)
(8.37575 0.476007 2.94207e-19)
(8.14179 0.535286 2.46398e-18)
(7.8874 0.601512 -5.41703e-18)
(7.61092 0.675485 1.97613e-18)
(7.31047 0.75803 -3.44634e-19)
(6.98396 0.849946 -3.63602e-19)
(6.62897 0.951941 -6.88926e-18)
(6.24275 1.06455 6.33299e-18)
(5.82213 1.18806 -6.75087e-18)
(5.36321 1.32236 -6.32039e-18)
(4.86108 1.46687 1.38484e-17)
(4.30931 1.62057 -1.58038e-17)
(3.69793 1.78204 1.65518e-17)
(3.01206 1.95026 0)
(2.20326 2.13427 3.73782e-17)
(1.33297 2.36033 2.794e-18)
(9.99893 0.041228 -3.72743e-19)
(9.98029 0.0743035 -5.70226e-19)
(9.94368 0.103184 -5.87454e-19)
(9.89084 0.132217 8.05504e-19)
(9.82391 0.162477 -4.15166e-19)
(9.7439 0.194158 8.56101e-19)
(9.651 0.227733 -8.78017e-19)
(9.54528 0.263824 9.09086e-19)
(9.42692 0.302949 9.43404e-19)
(9.29569 0.345623 -9.65343e-19)
(9.15113 0.392477 -2.51779e-18)
(8.99288 0.444212 2.06385e-18)
(8.82044 0.501584 2.16207e-18)
(8.63297 0.565367 -2.21285e-18)
(8.42968 0.636412 2.32421e-18)
(8.20984 0.715752 -2.38011e-18)
(7.97232 0.804505 0)
(7.71582 0.90385 6.47964e-19)
(7.4389 1.01506 6.74161e-19)
(7.13983 1.13945 0)
(6.81653 1.27837 1.17506e-17)
(6.46638 1.43311 -1.20771e-17)
(6.08611 1.60488 1.57769e-18)
(5.67135 1.79475 -2.47681e-18)
(5.21606 2.00371 0)
(4.71181 2.2333 -1.79177e-18)
(4.14643 2.48695 -1.86821e-18)
(3.50267 2.77225 3.15124e-17)
(2.76576 3.08689 -3.96958e-18)
(1.78238 3.57209 -3.67022e-17)
(9.998 0.0459546 8.3587e-19)
(9.97787 0.0865569 6.65172e-19)
(9.94101 0.12338 7.79498e-19)
(9.88904 0.159924 -8.01507e-19)
(9.82343 0.197792 -8.25335e-19)
(9.74501 0.237548 -4.24523e-19)
(9.65398 0.279744 8.7906e-19)
(9.55064 0.325022 -1.35064e-18)
(9.43535 0.374028 0)
(9.3077 0.42746 0)
(9.16734 0.486066 4.96524e-19)
(9.01404 0.550637 0)
(8.84741 0.62207 -5.28507e-19)
(8.66701 0.701316 5.46469e-19)
(8.47222 0.789369 -3.99798e-18)
(8.26242 0.887459 4.66421e-18)
(8.03697 0.996998 -1.21166e-18)
(7.79494 1.11947 0)
(7.53531 1.25655 1.1814e-17)
(7.25689 1.41006 -1.20116e-18)
(6.95812 1.58197 -1.11481e-17)
(6.63695 1.77445 0)
(6.2906 1.98987 -1.51465e-18)
(5.91514 2.23098 -1.09844e-17)
(5.50501 2.5011 1.28457e-17)
(5.05233 2.80471 -2.67461e-17)
(4.54679 3.14919 2.90452e-17)
(3.96626 3.55349 2.45729e-17)
(3.38191 3.96333 -2.1331e-17)
(2.3011 4.70302 0)
(9.99754 0.0514075 -7.4235e-19)
(9.97661 0.0988948 3.79232e-19)
(9.93977 0.143321 -1.55322e-18)
(9.88885 0.187456 4.0081e-19)
(9.82486 0.233046 4.10955e-19)
(9.74845 0.280902 1.2666e-18)
(9.65989 0.331634 -8.72867e-19)
(9.55958 0.385906 8.919e-19)
(9.44769 0.444518 4.60472e-19)
(9.3239 0.508341 1.91064e-18)
(9.18805 0.578215 -1.95071e-18)
(9.03998 0.655009 -1.00886e-18)
(8.87938 0.739718 5.22593e-19)
(8.70611 0.833462 -1.61368e-18)
(8.51961 0.937418 3.91803e-18)
(8.31933 1.05296 -5.71072e-18)
(8.10505 1.18172 -3.58568e-18)
(7.87614 1.32547 4.87133e-18)
(7.63196 1.4862 -1.14608e-17)
(7.37179 1.6662 2.22227e-17)
(7.09465 1.86805 -2.15785e-17)
(6.79917 2.09477 1.10599e-17)
(6.48342 2.34985 0)
(6.14461 2.63772 0)
(5.77883 2.96401 2.98812e-18)
(5.38053 3.33603 2.62338e-17)
(4.94506 3.7621 -2.48873e-17)
(4.43453 4.27695 9.0019e-20)
(4.0547 4.73149 -5.22006e-17)
(2.8837 5.69018 5.61163e-17)
(9.99737 0.0572176 -1.47764e-18)
(9.97613 0.111271 7.53988e-19)
(9.93961 0.162897 7.74986e-19)
(9.88991 0.214351 0)
(9.82782 0.267371 0)
(9.7538 0.322953 -8.40249e-19)
(9.66821 0.381818 8.70763e-19)
(9.57138 0.444721 -1.76876e-18)
(9.46335 0.512592 4.5443e-19)
(9.34401 0.586399 0)
(9.21334 0.667062 0)
(9.07123 0.755538 -3.0091e-18)
(8.91748 0.85291 4.08507e-18)
(8.75199 0.960441 -3.19428e-18)
(8.5744 1.07949 4.33419e-18)
(8.38436 1.21153 1.12608e-18)
(8.18178 1.35835 0)
(7.96643 1.52198 0)
(7.73795 1.70467 -1.10806e-17)
(7.49603 1.9091 1.0025e-17)
(7.2402 2.13844 0)
(6.96993 2.39645 0)
(6.68401 2.68761 -2.18251e-17)
(6.38137 3.01771 2.48174e-17)
(6.06059 3.39409 -2.53823e-17)
(5.7186 3.82643 4.53064e-17)
(5.36054 4.32045 -6.77504e-17)
(4.91815 4.93345 4.71926e-17)
(4.76532 5.38537 3.9885e-17)
(3.50899 6.51332 -4.89001e-17)
(9.99738 0.0631613 1.47602e-18)
(9.97616 0.123577 -2.63143e-18)
(9.94022 0.182036 1.15483e-18)
(9.89191 0.240494 0)
(9.83194 0.300648 8.10697e-19)
(9.76064 0.363637 -2.50488e-18)
(9.67837 0.430317 1.70933e-18)
(9.58539 0.50155 -2.64423e-18)
(9.48177 0.578337 2.71089e-18)
(9.36754 0.6617 -3.71677e-18)
(9.24274 0.752643 1.90143e-18)
(9.10734 0.852218 0)
(8.96121 0.961605 1.00635e-18)
(8.80431 1.08218 -1.03422e-18)
(8.63657 1.21543 0)
(8.45779 1.36295 0)
(8.26795 1.52665 0)
(8.06715 1.70876 -1.14952e-18)
(7.85538 1.91182 1.19076e-18)
(7.63266 2.13882 0)
(7.39898 2.39342 0)
(7.15471 2.68008 -2.28222e-17)
(6.89955 3.00392 2.0486e-17)
(6.63402 3.37167 -2.62507e-18)
(6.35945 3.79192 2.34993e-17)
(6.07449 4.27608 2.32998e-17)
(5.79773 4.82344 -4.10101e-17)
(5.41701 5.52104 -2.40067e-18)
(5.48547 5.93735 -3.692e-17)
(4.14771 7.17417 1.14914e-18)
(9.99748 0.0691017 0)
(9.97653 0.135703 1.8744e-18)
(9.94145 0.200668 1.14991e-18)
(9.89478 0.265794 3.36782e-21)
(9.83718 0.332755 -1.61243e-18)
(9.76893 0.402815 2.50123e-21)
(9.69032 0.476967 8.50255e-19)
(9.60159 0.55616 8.72635e-19)
(9.50288 0.641429 0)
(9.3943 0.733851 0)
(9.27597 0.834512 3.78396e-18)
(9.14796 0.944558 -3.84842e-18)
(9.01017 1.06525 -9.94399e-19)
(8.86269 1.19804 -3.06833e-18)
(8.70571 1.34453 4.15156e-18)
(8.53916 1.50644 0)
(8.36315 1.68582 -8.79799e-18)
(8.17805 1.88505 1.00376e-17)
(7.9841 2.10688 -1.13645e-18)
(7.78174 2.35467 0)
(7.57147 2.63238 0)
(7.35435 2.94494 -1.6859e-17)
(7.13177 3.29825 1.93565e-17)
(6.90513 3.69947 0)
(6.6778 4.15777 -2.45068e-18)
(6.44955 4.68612 3.31487e-17)
(6.25448 5.2738 -3.93226e-17)
(5.9274 6.04274 4.33276e-18)
(6.18925 6.41354 2.15442e-18)
(4.77525 7.70846 0)
(9.99758 0.0749518 0)
(9.97719 0.14753 -3.73281e-19)
(9.94332 0.218672 -1.14745e-18)
(9.89863 0.290118 -7.8372e-19)
(9.84374 0.363549 7.99425e-19)
(9.77879 0.440336 -8.24723e-19)
(9.70411 0.521586 1.67806e-18)
(9.61996 0.608312 -1.73116e-18)
(9.52657 0.701584 4.42915e-18)
(9.42411 0.802525 -2.70619e-18)
(9.31275 0.912295 9.25501e-19)
(9.1927 1.03213 0)
(9.06391 1.16336 0)
(8.92661 1.30748 0)
(8.78117 1.46619 0)
(8.62772 1.64136 -1.03635e-18)
(8.46659 1.83516 -1.05723e-18)
(8.29828 2.05008 8.70188e-18)
(8.12327 2.28907 -7.67259e-18)
(7.94244 2.55572 0)
(7.75711 2.85434 0)
(7.56874 3.19003 0)
(7.38022 3.56946 2.25911e-18)
(7.19393 4.00028 0)
(7.0147 4.49148 0)
(6.84232 5.05769 2.20356e-18)
(6.72685 5.67607 2.11032e-18)
(6.44731 6.50472 -1.95981e-18)
(6.8661 6.84254 0)
(5.3832 8.17164 -9.43641e-19)
(9.99774 0.0806432 0)
(9.9781 0.158938 -1.11006e-18)
(9.94571 0.235915 -3.79046e-19)
(9.90326 0.313329 -1.5517e-18)
(9.8513 0.392894 0)
(9.78988 0.476059 8.12957e-19)
(9.71937 0.564006 8.32119e-19)
(9.64015 0.657799 -2.56455e-18)
(9.55248 0.758558 1.74555e-18)
(9.45656 0.86746 2.69294e-18)
(9.35265 0.985705 -3.6489e-18)
(9.24102 1.11459 0)
(9.12188 1.25554 4.78786e-18)
(8.99558 1.41007 -2.91419e-18)
(8.86241 1.57991 9.90321e-19)
(8.72285 1.76712 -9.98516e-19)
(8.57744 1.97395 -5.19336e-18)
(8.42686 2.20305 8.34791e-18)
(8.27192 2.45748 0)
(8.11387 2.74095 0)
(7.95489 3.05805 -2.13625e-18)
(7.79696 3.41421 0)
(7.64338 3.81642 -2.16808e-18)
(7.49816 4.27303 1.89258e-17)
(7.36793 4.79266 -4.91988e-17)
(7.25065 5.39174 3.36711e-17)
(7.21162 6.0356 0)
(6.97773 6.91564 0)
(7.52149 7.24874 -2.47697e-17)
(5.98107 8.62359 2.16559e-18)
(9.99795 0.0861176 0)
(9.97919 0.169844 1.47842e-18)
(9.94843 0.252308 -2.26327e-18)
(9.9084 0.335334 2.31754e-18)
(9.85953 0.42069 1.57662e-18)
(9.80181 0.509866 -8.09222e-19)
(9.73577 0.604075 -1.66029e-18)
(9.66183 0.704443 2.53041e-18)
(9.58022 0.812158 4.37007e-21)
(9.49126 0.92843 0)
(9.39532 1.05448 -9.02985e-19)
(9.29266 1.19163 4.60369e-18)
(9.18377 1.34137 -4.67362e-18)
(9.06906 1.50528 7.6533e-18)
(8.9488 1.68517 -1.65077e-17)
(8.82374 1.88315 9.84481e-18)
(8.69472 2.10159 8.00044e-18)
(8.56271 2.34321 -1.61821e-17)
(8.42883 2.61119 -1.024e-17)
(8.29478 2.9093 3.27953e-17)
(8.16316 3.24236 -1.43178e-17)
(8.03664 3.61617 0)
(7.91911 4.03799 -1.60266e-17)
(7.81574 4.51667 1.37488e-17)
(7.73523 5.06058 0)
(7.67296 5.68845 -3.567e-18)
(7.70731 6.3568 0)
(7.52321 7.28344 -2.33667e-17)
(8.17256 7.64992 4.62437e-17)
(6.59026 9.12423 -2.50021e-17)
(9.99819 0.0913335 -3.6109e-19)
(9.98041 0.180193 -3.68331e-19)
(9.95143 0.267795 3.75048e-18)
(9.91395 0.356073 0)
(9.86831 0.446864 -1.57708e-18)
(9.81455 0.541654 1.59813e-18)
(9.75331 0.641659 -8.11493e-19)
(9.68494 0.748089 -8.32889e-19)
(9.60971 0.862197 8.5463e-19)
(9.5281 0.985188 -8.66806e-19)
(9.44055 1.1183 0)
(9.34735 1.26288 -9.05815e-19)
(9.24909 1.42049 -1.82908e-18)
(9.14628 1.59279 -9.37282e-19)
(9.03941 1.7816 0)
(8.92944 1.98904 5.78525e-18)
(8.81743 2.21751 -1.74524e-17)
(8.70462 2.46984 9.73398e-18)
(8.59263 2.74932 1.76805e-17)
(8.48351 3.05984 -1.56685e-17)
(8.37999 3.40626 -1.92985e-18)
(8.28555 3.79473 1.53484e-17)
(8.20506 4.23277 -1.69497e-17)
(8.14455 4.72954 0)
(8.11455 5.29358 0)
(8.10853 5.94584 3.22363e-18)
(8.21457 6.64026 0)
(8.09359 7.60878 -2.16537e-17)
(8.84562 8.04945 1.33955e-18)
(7.24892 9.71785 2.10961e-17)
(9.99847 0.0962585 3.5922e-19)
(9.98176 0.189937 3.66217e-19)
(9.95468 0.282321 -7.50112e-19)
(9.91986 0.375476 0)
(9.87762 0.471302 -3.11067e-18)
(9.82814 0.57126 0)
(9.77198 0.676569 7.62829e-21)
(9.70937 0.788527 -2.47553e-18)
(9.64079 0.908421 0)
(9.56684 1.03743 -2.57891e-18)
(9.48793 1.17684 3.4793e-18)
(9.4045 1.32805 -1.79029e-18)
(9.31717 1.49262 5.39792e-18)
(9.22659 1.67224 0)
(9.13354 1.86872 1.83681e-18)
(9.03914 2.08417 1.87524e-18)
(8.94463 2.32104 0)
(8.85152 2.58218 1.31931e-17)
(8.76189 2.87101 -1.50593e-17)
(8.67817 3.19149 -1.49755e-17)
(8.60331 3.54855 1.67014e-17)
(8.54161 3.94842 1.44566e-17)
(8.49888 4.39874 -2.63464e-17)
(8.48221 4.90898 1.35694e-17)
(8.50385 5.48818 2.49243e-17)
(8.55718 6.15843 -2.51962e-17)
(8.73548 6.87947 0)
(8.70217 7.87775 1.18487e-18)
(9.56202 8.43032 -5.50987e-19)
(7.99451 10.4145 -1.52576e-17)
(9.9988 0.10086 -3.57278e-19)
(9.98326 0.199036 -3.64038e-19)
(9.9582 0.295852 -7.56054e-21)
(9.92617 0.393504 7.55186e-19)
(9.88749 0.493939 1.54624e-18)
(9.84249 0.598606 0)
(9.79153 0.708751 3.20709e-18)
(9.73481 0.825727 -1.63682e-18)
(9.67312 0.950812 3.31653e-18)
(9.60703 1.08518 0)
(9.537 1.23016 0)
(9.46354 1.38718 -1.74833e-18)
(9.38739 1.55778 8.82943e-18)
(9.30938 1.74361 -7.12053e-18)
(9.23049 1.94651 -1.81025e-18)
(9.15196 2.16854 0)
(9.07523 2.41217 0)
(9.00209 2.68025 1.45533e-17)
(8.93499 2.97619 -1.44853e-17)
(8.87678 3.30403 1.77509e-18)
(8.83091 3.66865 0)
(8.80237 4.07617 -1.69338e-18)
(8.79791 4.5341 0)
(8.82587 5.05195 2.46703e-17)
(8.90026 5.639 -2.35935e-17)
(9.01707 6.31688 0)
(9.26879 7.05852 0)
(9.35241 8.06181 -1.51916e-17)
(10.3028 8.78844 2.87766e-17)
(8.83188 11.5305 -1.21956e-17)
(-0.019344 -0.00636047 -8.85292e-22)
(0.0412339 -0.033835 8.67624e-20)
(0.200611 -0.0514882 -8.17469e-20)
(0.388127 -0.0504877 0)
(0.575469 -0.0422256 0)
(0.737675 -0.0338021 -2.83171e-20)
(0.866148 -0.026991 3.52862e-20)
(0.964085 -0.0217251 0)
(1.03909 -0.017286 0)
(1.09676 -0.0132013 3.43466e-22)
(1.14107 -0.0102345 0)
(1.17756 -0.0090099 0)
(1.21091 -0.00804142 -3.94818e-22)
(1.24062 -0.00571943 3.42459e-22)
(1.26378 -0.00312264 0)
(1.28187 -0.00271904 0)
(1.30159 -0.00526306 8.25078e-22)
(1.32925 -0.00929676 -1.17885e-21)
(1.36571 -0.012592 7.01657e-22)
(1.40667 -0.0138347 0)
(1.44625 -0.0133171 0)
(1.48081 -0.012357 -5.98109e-22)
(1.51084 -0.012225 -6.42347e-22)
(1.54017 -0.0135561 -6.7867e-22)
(1.57365 -0.0163657 -6.98519e-22)
(1.61529 -0.0204287 0)
(1.66782 -0.0254995 0)
(1.73255 -0.031198 0)
(1.80867 -0.0364839 0)
(1.91386 -0.0391518 1.93666e-22)
(-0.0297597 -0.00538878 -2.76274e-21)
(0.0270039 -0.104737 1.23413e-20)
(0.17542 -0.145334 2.86439e-19)
(0.35752 -0.141356 -2.47213e-19)
(0.545714 -0.121738 0)
(0.711806 -0.101318 0)
(0.844749 -0.0842534 -5.78621e-21)
(0.947584 -0.0710015 0)
(1.02837 -0.0599136 1.56584e-21)
(1.09263 -0.0494658 -3.42836e-22)
(1.14301 -0.0417531 0)
(1.1844 -0.0389877 0)
(1.22382 -0.0372039 3.93469e-22)
(1.26255 -0.0319731 -3.41122e-22)
(1.29538 -0.0257817 0)
(1.32003 -0.0242824 -8.61265e-22)
(1.34176 -0.0290434 5.13669e-22)
(1.36784 -0.0367699 -2.83553e-21)
(1.40167 -0.0426641 1.03661e-21)
(1.44188 -0.0434459 1.90811e-21)
(1.48415 -0.0392599 -2.06316e-21)
(1.52377 -0.0335942 5.94745e-22)
(1.55794 -0.0305761 6.38811e-22)
(1.58686 -0.0324992 6.75125e-22)
(1.6126 -0.0396565 6.95347e-22)
(1.63732 -0.0507858 0)
(1.66334 -0.0636652 -6.07372e-22)
(1.69355 -0.0762665 2.24687e-21)
(1.73129 -0.0869915 -6.35664e-22)
(1.7955 -0.0927684 3.44579e-22)
(-0.028812 -0.00303216 4.5752e-19)
(0.0105918 -0.175848 -3.88083e-19)
(0.125007 -0.230956 -2.64167e-19)
(0.276213 -0.224093 2.32737e-19)
(0.434736 -0.195076 0)
(0.572677 -0.163897 -9.50921e-20)
(0.679245 -0.137238 1.30461e-19)
(0.757396 -0.116637 -1.57139e-20)
(0.815245 -0.0990372 -2.41751e-20)
(0.858524 -0.0810677 8.52973e-21)
(0.887739 -0.0676605 -7.13788e-21)
(0.904579 -0.0645842 -2.12298e-21)
(0.920517 -0.0625186 4.75086e-21)
(0.941594 -0.0512806 3.15608e-21)
(0.95842 -0.0373086 -1.80611e-21)
(0.962244 -0.0344875 1.46e-21)
(0.95754 -0.0453721 2.31878e-21)
(0.952043 -0.0625181 -3.78312e-21)
(0.951818 -0.0769334 -3.72982e-21)
(0.959469 -0.0843698 5.76226e-21)
(0.973939 -0.0834778 0)
(0.990258 -0.0760844 0)
(1.00254 -0.0662351 -2.7629e-21)
(1.00756 -0.0576923 2.95332e-21)
(1.00535 -0.0523716 0)
(0.998384 -0.0522026 0)
(0.993143 -0.0591956 -1.45853e-21)
(0.998499 -0.0745983 -1.23347e-21)
(1.02296 -0.0980536 0)
(1.08827 -0.126182 -4.14731e-22)
(-0.0282567 -0.0151458 -1.4582e-20)
(-0.0113145 -0.241133 0)
(0.0711799 -0.300688 0)
(0.18848 -0.288712 0)
(0.309466 -0.251226 -1.20814e-19)
(0.408368 -0.210192 1.24625e-19)
(0.477273 -0.17434 5.60296e-20)
(0.518411 -0.147367 -2.66722e-20)
(0.539559 -0.124215 -2.26438e-20)
(0.549705 -0.0965719 2.20373e-21)
(0.550458 -0.0742363 0)
(0.525893 -0.0747077 1.46204e-21)
(0.494386 -0.0842336 -1.85477e-21)
(0.481238 -0.0796844 -7.43898e-21)
(0.47421 -0.0587336 6.07524e-21)
(0.438237 -0.0346644 9.59678e-22)
(0.36989 -0.0216512 2.96455e-21)
(0.288593 -0.0241821 -3.96388e-21)
(0.213577 -0.0354531 -5.99666e-22)
(0.149078 -0.0437464 -6.84721e-22)
(0.101813 -0.0453369 2.1103e-21)
(0.0773079 -0.0424041 -3.39583e-21)
(0.0742212 -0.0383493 9.05731e-21)
(0.0885748 -0.038455 -3.22807e-21)
(0.125923 -0.0462474 -1.08819e-22)
(0.182393 -0.0635731 0)
(0.250987 -0.0899457 4.6885e-21)
(0.326331 -0.124315 0)
(0.403525 -0.164661 -3.43485e-22)
(0.492801 -0.208982 3.37493e-22)
(-0.0479153 -0.0560798 -8.3944e-19)
(-0.0518477 -0.301925 6.79924e-19)
(0.00493528 -0.355736 4.20144e-19)
(0.0854982 -0.333952 -3.93087e-19)
(0.161299 -0.286817 1.43901e-20)
(0.209172 -0.236024 0)
(0.227584 -0.189512 -1.27394e-20)
(0.216468 -0.153876 -3.62494e-21)
(0.17911 -0.129466 -8.29541e-21)
(0.134021 -0.103042 5.18408e-21)
(0.109853 -0.066919 0)
(0.021013 -0.0324213 -1.80573e-20)
(-0.118709 -0.0201714 2.04553e-20)
(-0.247553 -0.00459259 -6.74653e-21)
(-0.326108 0.0187767 1.06929e-20)
(-0.382988 0.0337523 -3.90123e-21)
(-0.419578 0.0316175 7.43877e-22)
(-0.438579 0.0145145 0)
(-0.445064 -0.00956654 -3.17764e-22)
(-0.44115 -0.0337727 -4.95162e-21)
(-0.429532 -0.0542746 -3.39464e-21)
(-0.40976 -0.0694194 1.18322e-20)
(-0.380125 -0.0819724 -1.6255e-20)
(-0.337532 -0.0959698 6.82269e-21)
(-0.287283 -0.113127 6.97244e-21)
(-0.232225 -0.132591 -6.94774e-21)
(-0.175015 -0.156566 -6.31878e-21)
(-0.118485 -0.185477 -1.12576e-21)
(-0.06844 -0.219118 -6.40982e-22)
(-0.0264708 -0.254841 0)
(-0.0997407 -0.12335 0)
(-0.116612 -0.357535 0)
(-0.0804369 -0.393268 0)
(-0.0425691 -0.352986 8.78561e-21)
(-0.0222388 -0.289948 -1.49768e-20)
(-0.0426942 -0.225382 0)
(-0.0920231 -0.165259 5.6383e-21)
(-0.171705 -0.106629 0)
(-0.317203 -0.0555896 1.16554e-21)
(-0.468936 -0.0134145 5.02253e-21)
(-0.586752 0.0261662 0)
(-0.67256 0.0494929 6.9097e-21)
(-0.73627 0.0463277 6.6645e-21)
(-0.780547 0.0349266 8.83813e-21)
(-0.809031 0.0275119 -1.39498e-20)
(-0.826189 0.0216092 5.1265e-21)
(-0.833146 0.00922637 -7.14037e-22)
(-0.830223 -0.00850388 0)
(-0.819429 -0.0277358 -2.92219e-22)
(-0.804708 -0.0479718 -9.40404e-21)
(-0.784458 -0.0681727 1.99988e-20)
(-0.757923 -0.0878496 -2.59282e-21)
(-0.724784 -0.106984 6.41967e-21)
(-0.687081 -0.126239 -1.01738e-20)
(-0.647036 -0.146583 6.81849e-21)
(-0.606769 -0.16855 3.30156e-21)
(-0.568918 -0.192091 5.92032e-21)
(-0.537442 -0.216836 -1.00078e-21)
(-0.517241 -0.241881 3.92263e-21)
(-0.50964 -0.262373 -2.69878e-22)
(-0.174284 -0.201602 -1.51193e-18)
(-0.202229 -0.40091 5.27967e-19)
(-0.186467 -0.403365 1.31494e-21)
(-0.203551 -0.329986 -2.29471e-19)
(-0.253783 -0.240622 8.85293e-20)
(-0.373327 -0.142319 2.44068e-19)
(-0.526472 -0.0643072 -8.64239e-20)
(-0.683672 -3.76829e-06 1.78877e-20)
(-0.815682 0.0362437 -2.11983e-20)
(-0.911878 0.0515186 2.04854e-20)
(-0.9818 0.0590205 1.11648e-20)
(-1.03808 0.0618858 -6.43691e-20)
(-1.08467 0.05857 4.41606e-20)
(-1.11928 0.0514913 -6.20814e-21)
(-1.14099 0.0411822 7.4246e-21)
(-1.14997 0.026919 -4.87742e-21)
(-1.14882 0.00741859 -2.53907e-21)
(-1.14106 -0.0165494 0)
(-1.12641 -0.0436847 -9.57851e-21)
(-1.10724 -0.0698629 1.55113e-21)
(-1.08465 -0.0939382 8.74627e-21)
(-1.0591 -0.115809 0)
(-1.03121 -0.135931 -3.14078e-21)
(-1.00202 -0.155217 -6.7733e-23)
(-0.97282 -0.174491 -1.34291e-20)
(-0.945454 -0.19398 -6.35083e-21)
(-0.922549 -0.213416 -3.33787e-22)
(-0.907646 -0.232511 -3.36475e-21)
(-0.902921 -0.251082 -5.71108e-22)
(-0.904129 -0.265961 5.55987e-22)
(-0.252259 -0.274472 0)
(-0.299448 -0.414608 -3.47481e-19)
(-0.312443 -0.366422 3.62695e-19)
(-0.409699 -0.238158 2.06852e-19)
(-0.560609 -0.119353 -2.15197e-19)
(-0.734457 -0.0208851 -6.50994e-21)
(-0.899881 0.0460399 2.1823e-21)
(-1.02113 0.0817642 -5.03578e-21)
(-1.11709 0.0982191 4.43277e-21)
(-1.19856 0.103667 8.62544e-21)
(-1.2646 0.102529 3.79528e-20)
(-1.31697 0.0951507 -7.19278e-20)
(-1.35757 0.0815878 2.81573e-20)
(-1.38686 0.0644544 -7.11566e-21)
(-1.40445 0.0451518 0)
(-1.41074 0.0227766 2.84633e-21)
(-1.40769 -0.00302539 -5.66531e-21)
(-1.3982 -0.0313122 7.00935e-22)
(-1.38292 -0.0599366 5.77596e-21)
(-1.36417 -0.087621 -9.42777e-21)
(-1.34309 -0.113231 -4.74661e-21)
(-1.32068 -0.1364 5.97115e-21)
(-1.2978 -0.157289 -5.95465e-21)
(-1.27528 -0.176473 6.5674e-21)
(-1.25418 -0.194417 6.89513e-21)
(-1.23611 -0.211047 1.2562e-20)
(-1.22357 -0.226002 2.34273e-21)
(-1.21945 -0.239371 -5.52816e-21)
(-1.22369 -0.251704 1.34636e-21)
(-1.22878 -0.261183 2.26827e-22)
(-0.315955 -0.330484 5.28748e-19)
(-0.397885 -0.376359 -7.4734e-19)
(-0.469132 -0.254147 8.81485e-20)
(-0.645216 -0.0993339 2.40984e-19)
(-0.844969 0.030477 9.27386e-20)
(-1.01183 0.107078 -1.03023e-19)
(-1.14123 0.140994 1.16978e-20)
(-1.2536 0.155057 -2.60393e-21)
(-1.34798 0.157429 -6.01293e-20)
(-1.42608 0.151397 6.0607e-20)
(-1.48897 0.139347 -5.494e-20)
(-1.53834 0.12221 -6.96201e-22)
(-1.57586 0.10057 2.38992e-20)
(-1.60237 0.0756799 2.14709e-20)
(-1.61805 0.0483184 0)
(-1.62351 0.0185426 6.14927e-21)
(-1.62041 -0.0131426 -2.93525e-21)
(-1.6102 -0.0455832 2.49302e-21)
(-1.59534 -0.0769299 -1.37748e-21)
(-1.57772 -0.105851 0)
(-1.55881 -0.131757 0)
(-1.53975 -0.154629 0)
(-1.52133 -0.174831 -6.56191e-21)
(-1.50422 -0.192787 -4.23491e-22)
(-1.48935 -0.208591 -6.59467e-21)
(-1.47822 -0.221849 6.42628e-21)
(-1.47319 -0.232193 0)
(-1.47658 -0.240115 3.90897e-21)
(-1.48662 -0.246823 -2.11688e-21)
(-1.49395 -0.251828 -2.12751e-22)
(-0.354727 -0.349529 3.64296e-21)
(-0.495106 -0.265154 3.00489e-19)
(-0.632468 -0.0965756 -7.42438e-20)
(-0.861553 0.0907363 -2.2684e-19)
(-1.04182 0.177747 7.0699e-21)
(-1.19871 0.217142 -1.33651e-21)
(-1.33161 0.23137 -8.3065e-21)
(-1.4427 0.229607 -3.4232e-21)
(-1.53427 0.217584 -9.07197e-21)
(-1.60866 0.198741 0)
(-1.66793 0.175283 -1.59999e-20)
(-1.7142 0.148392 5.77113e-20)
(-1.74929 0.118603 -8.48622e-20)
(-1.77412 0.0862207 2.98577e-21)
(-1.78892 0.0514598 4.62327e-21)
(-1.79411 0.0148508 2.38348e-21)
(-1.79108 -0.0224173 1.04066e-20)
(-1.78112 -0.0586816 -9.3217e-22)
(-1.767 -0.0921891 1.04929e-21)
(-1.75076 -0.121923 0)
(-1.73398 -0.14769 1.44906e-20)
(-1.71783 -0.169811 -1.00301e-20)
(-1.70308 -0.188795 6.84929e-21)
(-1.69028 -0.204986 6.84502e-21)
(-1.68026 -0.218201 -1.07953e-20)
(-1.67442 -0.2278 -2.92996e-21)
(-1.67502 -0.23349 -2.33801e-21)
(-1.68391 -0.236215 -2.48515e-21)
(-1.69804 -0.237862 7.58656e-22)
(-1.70684 -0.239203 -8.27891e-22)
(-0.378477 -0.296778 -4.21519e-19)
(-0.573315 -0.102921 3.42239e-19)
(-0.780154 0.146465 1.59203e-19)
(-1.00012 0.269671 -1.78219e-19)
(-1.19463 0.320141 0)
(-1.35768 0.332436 7.25229e-21)
(-1.48975 0.323567 1.62481e-20)
(-1.59686 0.303329 -4.41269e-21)
(-1.68359 0.275981 0)
(-1.7531 0.243989 1.89819e-20)
(-1.80785 0.209354 1.58989e-20)
(-1.85049 0.173294 7.28366e-20)
(-1.88325 0.135871 -3.76548e-20)
(-1.90699 0.0964475 -4.69913e-20)
(-1.92161 0.0546873 2.29258e-20)
(-1.92702 0.0114261 0)
(-1.92411 -0.0313625 7.75026e-21)
(-1.9144 -0.071259 1.22791e-21)
(-1.90081 -0.106525 2.84821e-21)
(-1.88565 -0.136544 -3.00633e-21)
(-1.87066 -0.161621 8.09146e-22)
(-1.8569 -0.18247 1.05417e-21)
(-1.8451 -0.199765 -6.76175e-21)
(-1.83576 -0.213791 -7.65672e-21)
(-1.82959 -0.224135 1.94373e-20)
(-1.82789 -0.22992 3.67642e-21)
(-1.83278 -0.230952 -2.50634e-21)
(-1.84588 -0.228651 6.5064e-21)
(-1.86317 -0.225601 0)
(-1.87308 -0.223735 1.74234e-21)
(-0.383859 -0.157334 0)
(-0.608888 0.193765 -2.45371e-19)
(-0.866171 0.381502 3.56688e-19)
(-1.12354 0.462032 -1.22837e-19)
(-1.33383 0.471635 -4.72731e-20)
(-1.4968 0.448345 -4.43018e-20)
(-1.62203 0.412961 7.57456e-20)
(-1.72105 0.373534 -7.73161e-20)
(-1.80055 0.331048 1.52837e-19)
(-1.86366 0.286121 -1.87886e-19)
(-1.91262 0.240798 1.12746e-19)
(-1.95071 0.196633 0)
(-1.98104 0.152878 0)
(-2.00435 0.107419 -1.89002e-20)
(-2.01955 0.059073 -1.48887e-20)
(-2.02546 0.00903295 3.37275e-20)
(-2.02235 -0.0395421 -1.25226e-20)
(-2.01219 -0.0831586 1.11742e-20)
(-1.99847 -0.119901 1.75711e-22)
(-1.98395 -0.149791 0)
(-1.9704 -0.173758 1.03227e-20)
(-1.95869 -0.192945 -1.16421e-20)
(-1.94936 -0.208193 0)
(-1.94277 -0.219738 4.29746e-21)
(-1.93974 -0.227008 1.1116e-21)
(-1.94148 -0.228951 -4.14472e-21)
(-1.94971 -0.225362 1.40741e-21)
(-1.96614 -0.218074 -1.40434e-21)
(-1.98613 -0.210453 -2.08359e-22)
(-1.99699 -0.205568 -6.61099e-22)
(-0.330179 0.151867 -1.28266e-20)
(-0.610028 0.516136 1.70233e-20)
(-0.957097 0.661024 -9.41828e-21)
(-1.25669 0.675372 7.17566e-20)
(-1.47328 0.623789 -8.15948e-20)
(-1.62372 0.55565 0)
(-1.73213 0.492937 2.26711e-20)
(-1.81757 0.437164 1.94518e-20)
(-1.88758 0.381671 2.86052e-20)
(-1.94278 0.324213 1.10652e-19)
(-1.98426 0.268354 -1.35162e-19)
(-2.01643 0.217467 0)
(-2.04411 0.169445 0)
(-2.06802 0.11938 3.53651e-20)
(-2.08505 0.0645202 -1.75488e-20)
(-2.09185 0.00673714 -4.3023e-20)
(-2.08776 -0.0484953 0)
(-2.07584 -0.0958612 -3.23987e-21)
(-2.0609 -0.133345 0)
(-2.04644 -0.16217 0)
(-2.03408 -0.184357 -4.77954e-21)
(-2.02431 -0.201478 0)
(-2.01725 -0.214406 0)
(-2.01298 -0.22322 4.97525e-21)
(-2.01246 -0.227238 -1.42591e-20)
(-2.01695 -0.225343 0)
(-2.028 -0.217167 -8.50265e-21)
(-2.04747 -0.204788 -5.26882e-22)
(-2.07014 -0.192503 3.83883e-21)
(-2.08203 -0.18463 0)
(-0.235335 0.540211 1.32694e-20)
(-0.635458 0.95478 1.89228e-20)
(-1.09961 0.993926 -6.01564e-21)
(-1.43045 0.901263 -1.87344e-19)
(-1.62946 0.767242 1.48649e-19)
(-1.74329 0.647052 0)
(-1.81853 0.560712 -2.26551e-20)
(-1.88456 0.495411 0)
(-1.94532 0.42867 -1.04911e-20)
(-1.99249 0.356336 -1.88702e-20)
(-2.02377 0.288499 0)
(-2.0472 0.233637 5.01766e-20)
(-2.07192 0.185882 -8.75232e-20)
(-2.09842 0.134259 -3.43443e-21)
(-2.11954 0.0732244 -4.3783e-20)
(-2.12771 0.00606879 1.33117e-20)
(-2.12091 -0.057449 0)
(-2.10477 -0.10905 -5.65132e-22)
(-2.08696 -0.146255 5.97006e-21)
(-2.0721 -0.172831 -6.78778e-21)
(-2.06115 -0.19262 -3.00606e-21)
(-2.05364 -0.207548 7.05857e-21)
(-2.04907 -0.218235 0)
(-2.04722 -0.224465 5.90771e-21)
(-2.04874 -0.225342 -8.7729e-21)
(-2.05517 -0.219577 2.87749e-21)
(-2.0689 -0.206621 1.68376e-20)
(-2.09181 -0.188803 -5.3932e-21)
(-2.11763 -0.171533 -3.15803e-21)
(-2.13091 -0.160567 -1.86269e-22)
(-0.2822 1.54191 0)
(-0.689707 1.82301 -1.83142e-20)
(-1.36767 1.52287 0)
(-1.68162 1.19719 -8.66557e-20)
(-1.81636 0.893559 3.83102e-20)
(-1.85527 0.670033 1.36146e-19)
(-1.87377 0.564207 1.71997e-20)
(-1.91834 0.515681 -1.97551e-20)
(-1.97694 0.452418 6.41335e-20)
(-2.0171 0.373664 -1.69111e-19)
(-2.03085 0.301258 2.86703e-23)
(-2.03817 0.251198 2.06999e-19)
(-2.05947 0.2124 -1.45195e-19)
(-2.0929 0.162861 3.83049e-20)
(-2.12249 0.0928802 5.52708e-20)
(-2.1329 0.00890009 4.02539e-20)
(-2.12075 -0.0731287 -2.60843e-20)
(-2.0966 -0.129512 1.02217e-21)
(-2.07385 -0.163363 0)
(-2.05881 -0.184946 7.52528e-21)
(-2.0502 -0.200922 2.68668e-21)
(-2.04567 -0.212996 0)
(-2.04408 -0.220973 0)
(-2.045 -0.224364 1.2107e-20)
(-2.04871 -0.222025 5.80903e-23)
(-2.05693 -0.21207 3.50116e-21)
(-2.07335 -0.193652 -1.03522e-20)
(-2.1003 -0.169583 7.78742e-21)
(-2.13028 -0.146649 -3.02946e-22)
(-2.14561 -0.132361 -1.16937e-22)
(9.99913 0.105176 0)
(9.9849 0.207568 0)
(9.96203 0.308533 -7.11369e-19)
(9.93291 0.410371 7.21761e-19)
(9.8979 0.515044 6.00915e-21)
(9.8576 0.624026 -1.50177e-18)
(9.81212 0.738619 -1.53587e-18)
(9.76166 0.860161 0)
(9.70735 0.989905 -1.5793e-18)
(9.64952 1.12903 1.60325e-18)
(9.58874 1.2789 1.62552e-18)
(9.52577 1.44095 -6.62489e-18)
(9.46137 1.61667 1.16911e-17)
(9.39664 1.80768 -6.73564e-18)
(9.33267 2.01578 6.80183e-18)
(9.27075 2.24304 -6.81409e-18)
(9.21255 2.49186 0)
(9.16021 2.765 1.19076e-17)
(9.11646 3.0658 -1.18339e-17)
(9.08464 3.39825 -1.67869e-18)
(9.06878 3.76708 -1.13212e-17)
(9.07455 4.17802 1.57969e-17)
(9.10968 4.63808 -1.48155e-18)
(9.18373 5.15606 1.11265e-17)
(9.3126 5.74079 -1.06183e-17)
(9.49756 6.41071 5.73347e-19)
(9.82549 7.15295 0)
(10.0735 8.10481 8.29686e-19)
(11.2768 8.92092 -1.50298e-18)
(12.1216 11.7925 0)
(9.99939 0.109234 2.64969e-18)
(9.98662 0.215546 0)
(9.96609 0.3204 0)
(9.94001 0.426134 -6.39348e-21)
(9.90894 0.534671 1.43395e-18)
(9.87359 0.647552 1.45272e-18)
(9.83383 0.766159 -2.96907e-18)
(9.78999 0.891761 4.50838e-18)
(9.74324 1.02558 1.53431e-18)
(9.69385 1.16881 -1.55644e-18)
(9.64259 1.32281 -3.14068e-18)
(9.59047 1.48902 7.94183e-18)
(9.53826 1.66883 -6.40056e-18)
(9.48713 1.86381 6.46173e-18)
(9.4383 2.07575 -1.29666e-17)
(9.39327 2.30667 6.49054e-18)
(9.35396 2.55884 0)
(9.32271 2.83484 1.60658e-17)
(9.3025 3.1378 -2.70219e-17)
(9.29715 3.47152 1.09738e-17)
(9.31129 3.84033 -3.53894e-20)
(9.35123 4.24919 -3.84949e-20)
(9.42545 4.70405 1.374e-17)
(9.54455 5.21196 -1.05444e-17)
(9.72561 5.77993 -9.27131e-18)
(9.97506 6.41953 8.23381e-18)
(10.368 7.12231 6.96352e-18)
(10.7579 7.94336 -1.01823e-17)
(11.6492 8.70233 3.23092e-18)
(12.5747 9.88465 -1.5421e-18)
(9.99973 0.112976 -2.58194e-18)
(9.98845 0.222843 0)
(9.97028 0.331265 -1.33688e-18)
(9.94749 0.440529 -1.36252e-18)
(9.92076 0.552515 0)
(9.89047 0.66886 -2.82004e-18)
(9.85652 0.791003 0)
(9.81946 0.920129 -1.45978e-18)
(9.78038 1.05742 1.47026e-18)
(9.73985 1.2041 0)
(9.69856 1.36145 1.30012e-20)
(9.65754 1.53088 -3.05024e-18)