/*--------------------------------*- C++ -*----------------------------------*\
| =========                 |                                                 |
| \\      /  F ield         | OpenFOAM: The Open Source CFD Toolbox           |
|  \\    /   O peration     | Version:  4.1                                   |
|   \\  /    A nd           | Web:      www.OpenFOAM.org                      |
|    \\/     M anipulation  |                                                 |
\*---------------------------------------------------------------------------*/
FoamFile
{
    version     2.0;
    format      ascii;
    class       surfaceScalarField;
    location    "0.4";
    object      phi;
}
// * * * * * * * * * * * * * * * * * * * * * * * * * * * * * * * * * * * * * //

dimensions      [1 0 -1 0 0 0 0];

internalField   nonuniform List<scalar> 
23692
(
2.32602e-06
9.71992e-10
2.32332e-06
2.7011e-09
2.31895e-06
4.36283e-09
2.31378e-06
5.17783e-09
2.30869e-06
5.08972e-09
2.30417e-06
4.52164e-09
2.30025e-06
3.91677e-09
2.29675e-06
3.50407e-09
2.29344e-06
3.31237e-09
2.29016e-06
3.27589e-09
2.28685e-06
3.318e-09
2.28346e-06
3.38579e-09
2.28001e-06
3.45253e-09
2.27651e-06
3.50905e-09
2.27296e-06
3.55478e-09
2.26938e-06
3.592e-09
2.26576e-06
3.62327e-09
2.26212e-06
3.65053e-09
2.25846e-06
3.675e-09
2.25477e-06
3.69723e-09
2.25107e-06
3.71729e-09
2.24736e-06
3.73505e-09
2.24363e-06
3.74996e-09
2.23989e-06
3.76157e-09
2.23615e-06
3.76914e-09
2.23241e-06
3.77207e-09
2.22868e-06
3.76987e-09
2.22496e-06
3.76207e-09
2.22126e-06
3.7484e-09
2.21758e-06
3.72876e-09
2.21393e-06
3.70327e-09
2.21032e-06
3.67214e-09
2.20676e-06
3.63592e-09
2.20324e-06
3.59512e-09
2.19977e-06
3.55058e-09
2.19636e-06
3.5032e-09
2.193e-06
3.45393e-09
2.1897e-06
3.40382e-09
2.18645e-06
3.35399e-09
2.18327e-06
3.30556e-09
2.18013e-06
3.25967e-09
2.17705e-06
3.21749e-09
2.17401e-06
3.18015e-09
2.17101e-06
3.14876e-09
2.16804e-06
3.1245e-09
2.16509e-06
3.10855e-09
2.16216e-06
3.10197e-09
2.15923e-06
3.10609e-09
2.1563e-06
3.12213e-09
2.15334e-06
3.15149e-09
2.15034e-06
3.19579e-09
2.14729e-06
3.25673e-09
2.14416e-06
3.33642e-09
2.14094e-06
3.43735e-09
2.13761e-06
3.56242e-09
2.13412e-06
3.71522e-09
2.13045e-06
3.90008e-09
2.12657e-06
4.12231e-09
2.12243e-06
4.38848e-09
2.11797e-06
4.70669e-09
2.11313e-06
5.08702e-09
2.10785e-06
5.54215e-09
2.10202e-06
6.08803e-09
2.09554e-06
6.74501e-09
2.08826e-06
7.53932e-09
2.08003e-06
8.50508e-09
2.07061e-06
9.68738e-09
2.05974e-06
1.11465e-08
2.04705e-06
1.29646e-08
2.03207e-06
1.5255e-08
2.01417e-06
1.81776e-08
1.99248e-06
2.19613e-08
1.96582e-06
2.69405e-08
1.93249e-06
3.36125e-08
1.89003e-06
4.27307e-08
1.83486e-06
5.54521e-08
1.76157e-06
7.3569e-08
1.66195e-06
9.98919e-08
1.52309e-06
1.39143e-07
1.32322e-06
2.00137e-07
3.06257e-07
1.01724e-06
2.48899e-06
1.96363e-09
2.48616e-06
5.53673e-09
2.48155e-06
8.97384e-09
2.47605e-06
1.06737e-08
2.47063e-06
1.05124e-08
2.46579e-06
9.35535e-09
2.4616e-06
8.11456e-09
2.45784e-06
7.26432e-09
2.45429e-06
6.86627e-09
2.45078e-06
6.78733e-09
2.44723e-06
6.87063e-09
2.44361e-06
7.00748e-09
2.43992e-06
7.14299e-09
2.43618e-06
7.25814e-09
2.43239e-06
7.35143e-09
2.42856e-06
7.42752e-09
2.4247e-06
7.49158e-09
2.42081e-06
7.54756e-09
2.4169e-06
7.59781e-09
2.41297e-06
7.6435e-09
2.40902e-06
7.68483e-09
2.40506e-06
7.72136e-09
2.40108e-06
7.75223e-09
2.39709e-06
7.77616e-09
2.3931e-06
7.79192e-09
2.38911e-06
7.79823e-09
2.38512e-06
7.79396e-09
2.38115e-06
7.7783e-09
2.3772e-06
7.75056e-09
2.37327e-06
7.71061e-09
2.36938e-06
7.65867e-09
2.36552e-06
7.59523e-09
2.36171e-06
7.52125e-09
2.35795e-06
7.4381e-09
2.35424e-06
7.34723e-09
2.35059e-06
7.25052e-09
2.34699e-06
7.15001e-09
2.34346e-06
7.04783e-09
2.33999e-06
6.9463e-09
2.33657e-06
6.84769e-09
2.33321e-06
6.75437e-09
2.3299e-06
6.66867e-09
2.32664e-06
6.59298e-09
2.32342e-06
6.52964e-09
2.32023e-06
6.48102e-09
2.31706e-06
6.44942e-09
2.31391e-06
6.43732e-09
2.31076e-06
6.44713e-09
2.30759e-06
6.48153e-09
2.30441e-06
6.5434e-09
2.30118e-06
6.6359e-09
2.29789e-06
6.76269e-09
2.29453e-06
6.928e-09
2.29106e-06
7.13682e-09
2.28747e-06
7.39517e-09
2.28372e-06
7.71027e-09
2.27978e-06
8.09092e-09
2.27561e-06
8.54788e-09
2.27116e-06
9.09438e-09
2.26639e-06
9.74677e-09
2.26122e-06
1.05253e-08
2.25558e-06
1.14552e-08
2.24938e-06
1.25685e-08
2.2425e-06
1.39053e-08
2.23481e-06
1.55175e-08
2.22613e-06
1.74719e-08
2.21625e-06
1.9856e-08
2.2049e-06
2.2786e-08
2.19174e-06
2.64179e-08
2.17632e-06
3.09647e-08
2.15808e-06
3.6721e-08
2.13624e-06
4.40998e-08
2.10979e-06
5.36882e-08
2.07737e-06
6.63285e-08
2.03716e-06
8.32356e-08
1.98676e-06
1.06153e-07
1.92311e-06
1.37518e-07
1.84274e-06
1.80554e-07
1.74299e-06
2.39191e-07
1.62706e-06
3.16359e-07
4.01842e-07
1.53177e-06
2.66341e-06
2.95034e-09
2.6605e-06
8.44855e-09
2.65571e-06
1.37583e-08
2.64996e-06
1.6432e-08
2.64422e-06
1.6248e-08
2.63906e-06
1.45136e-08
2.63455e-06
1.2625e-08
2.6305e-06
1.13172e-08
2.62667e-06
1.06951e-08
2.6229e-06
1.0561e-08
2.6191e-06
1.06779e-08
2.61523e-06
1.08799e-08
2.61129e-06
1.10826e-08
2.6073e-06
1.12559e-08
2.60326e-06
1.13971e-08
2.59918e-06
1.15127e-08
2.59508e-06
1.16103e-08
2.59094e-06
1.16958e-08
2.58678e-06
1.17727e-08
2.58259e-06
1.18428e-08
2.57839e-06
1.19062e-08
2.57417e-06
1.19624e-08
2.56994e-06
1.20098e-08
2.5657e-06
1.20469e-08
2.56145e-06
1.20714e-08
2.5572e-06
1.20815e-08
2.55297e-06
1.20756e-08
2.54874e-06
1.20522e-08
2.54453e-06
1.20104e-08
2.54035e-06
1.19502e-08
2.5362e-06
1.18716e-08
2.5321e-06
1.17755e-08
2.52803e-06
1.16634e-08
2.52402e-06
1.15373e-08
2.52006e-06
1.13996e-08
2.51616e-06
1.1253e-08
2.51232e-06
1.11008e-08
2.50854e-06
1.09461e-08
2.50482e-06
1.07925e-08
2.50116e-06
1.06436e-08
2.49755e-06
1.05029e-08
2.494e-06
1.03741e-08
2.49049e-06
1.02607e-08
2.48703e-06
1.01665e-08
2.48359e-06
1.0095e-08
2.48018e-06
1.00498e-08
2.47678e-06
1.00345e-08
2.47337e-06
1.00531e-08
2.46996e-06
1.01095e-08
2.46651e-06
1.02081e-08
2.46302e-06
1.03539e-08
2.45947e-06
1.05522e-08
2.45583e-06
1.08096e-08
2.45208e-06
1.11337e-08
2.4482e-06
1.15334e-08
2.44415e-06
1.20197e-08
2.4399e-06
1.26058e-08
2.43542e-06
1.33079e-08
2.43064e-06
1.41456e-08
2.42553e-06
1.51433e-08
2.42001e-06
1.63309e-08
2.41402e-06
1.77457e-08
2.40745e-06
1.94341e-08
2.4002e-06
2.14547e-08
2.39214e-06
2.38818e-08
2.38311e-06
2.68104e-08
2.37291e-06
3.03636e-08
2.36131e-06
3.47021e-08
2.348e-06
4.00378e-08
2.33263e-06
4.66537e-08
2.31473e-06
5.49311e-08
2.29376e-06
6.53869e-08
2.26904e-06
7.87259e-08
2.23978e-06
9.59058e-08
2.20513e-06
1.18212e-07
2.16429e-06
1.47311e-07
2.11692e-06
1.85207e-07
2.06389e-06
2.33901e-07
2.00902e-06
2.94376e-07
1.96227e-06
3.63417e-07
4.24877e-07
1.93955e-06
2.85007e-06
3.90313e-09
2.84716e-06
1.1359e-08
2.8423e-06
1.86191e-08
2.83636e-06
2.23758e-08
2.83034e-06
2.22633e-08
2.82485e-06
2.00046e-08
2.82e-06
1.74813e-08
2.81561e-06
1.57039e-08
2.81147e-06
1.48361e-08
2.80741e-06
1.46264e-08
2.80333e-06
1.47612e-08
2.79919e-06
1.5018e-08
2.795e-06
1.52815e-08
2.79075e-06
1.55096e-08
2.78646e-06
1.56968e-08
2.78213e-06
1.5851e-08
2.77777e-06
1.5982e-08
2.77338e-06
1.6097e-08
2.76896e-06
1.62008e-08
2.76453e-06
1.62954e-08
2.76007e-06
1.63813e-08
2.7556e-06
1.64574e-08
2.75112e-06
1.65219e-08
2.74662e-06
1.65724e-08
2.74212e-06
1.66062e-08
2.73762e-06
1.66205e-08
2.73313e-06
1.66133e-08
2.72865e-06
1.65827e-08
2.72419e-06
1.65275e-08
2.71976e-06
1.64474e-08
2.71536e-06
1.63427e-08
2.71099e-06
1.62146e-08
2.70668e-06
1.60652e-08
2.70241e-06
1.58969e-08
2.6982e-06
1.57131e-08
2.69404e-06
1.55177e-08
2.68994e-06
1.53148e-08
2.68591e-06
1.51088e-08
2.68193e-06
1.49046e-08
2.67801e-06
1.47069e-08
2.67415e-06
1.45207e-08
2.67033e-06
1.43508e-08
2.66656e-06
1.42021e-08
2.66283e-06
1.40797e-08
2.65913e-06
1.39882e-08
2.65544e-06
1.39327e-08
2.65177e-06
1.39181e-08
2.64809e-06
1.39495e-08
2.64439e-06
1.40325e-08
2.64066e-06
1.41729e-08
2.63688e-06
1.43772e-08
2.63303e-06
1.4653e-08
2.62909e-06
1.50086e-08
2.62504e-06
1.54543e-08
2.62084e-06
1.60021e-08
2.61648e-06
1.66664e-08
2.6119e-06
1.74644e-08
2.60709e-06
1.84175e-08
2.60198e-06
1.95514e-08
2.59653e-06
2.08973e-08
2.59067e-06
2.24939e-08
2.58434e-06
2.43887e-08
2.57746e-06
2.66405e-08
2.56991e-06
2.93225e-08
2.56159e-06
3.25263e-08
2.55236e-06
3.63676e-08
2.54206e-06
4.09933e-08
2.53051e-06
4.65915e-08
2.51747e-06
5.3404e-08
2.50272e-06
6.17444e-08
2.48597e-06
7.20195e-08
2.46694e-06
8.47576e-08
2.44537e-06
1.0064e-07
2.42108e-06
1.20529e-07
2.39416e-06
1.45479e-07
2.36512e-06
1.76682e-07
2.3354e-06
2.15267e-07
2.30786e-06
2.61789e-07
2.28745e-06
3.15124e-07
2.28092e-06
3.70282e-07
4.14926e-07
2.2912e-06
3.04984e-06
4.78893e-09
3.04702e-06
1.41803e-08
3.04219e-06
2.34435e-08
3.03616e-06
2.84113e-08
3.02991e-06
2.85116e-08
3.02409e-06
2.58293e-08
3.01886e-06
2.27141e-08
3.0141e-06
2.04657e-08
3.0096e-06
1.93285e-08
3.00522e-06
1.90143e-08
3.00084e-06
1.91425e-08
2.99643e-06
1.94363e-08
2.99196e-06
1.97489e-08
2.98745e-06
2.00244e-08
2.98291e-06
2.02533e-08
2.97832e-06
2.04435e-08
2.97371e-06
2.06061e-08
2.96907e-06
2.07497e-08
2.96441e-06
2.08797e-08
2.95972e-06
2.09985e-08
2.95502e-06
2.11064e-08
2.9503e-06
2.12023e-08
2.94556e-06
2.12838e-08
2.94082e-06
2.13477e-08
2.93607e-06
2.13907e-08
2.93133e-06
2.14097e-08
2.92659e-06
2.14017e-08
2.92186e-06
2.13645e-08
2.91715e-06
2.12968e-08
2.91247e-06
2.1198e-08
2.90782e-06
2.10685e-08
2.9032e-06
2.09101e-08
2.89863e-06
2.0725e-08
2.89411e-06
2.05167e-08
2.88964e-06
2.02893e-08
2.88523e-06
2.00475e-08
2.88087e-06
1.97966e-08
2.87658e-06
1.95423e-08
2.87233e-06
1.92906e-08
2.86815e-06
1.90475e-08
2.86401e-06
1.88192e-08
2.85993e-06
1.8612e-08
2.85588e-06
1.8432e-08
2.85187e-06
1.82853e-08
2.84788e-06
1.81782e-08
2.84391e-06
1.81168e-08
2.83994e-06
1.81075e-08
2.83597e-06
1.81566e-08
2.83197e-06
1.8271e-08
2.82794e-06
1.84581e-08
2.82385e-06
1.87261e-08
2.81968e-06
1.90841e-08
2.81543e-06
1.95427e-08
2.81105e-06
2.01144e-08
2.80653e-06
2.08138e-08
2.80184e-06
2.16586e-08
2.79694e-06
2.26698e-08
2.79179e-06
2.38728e-08
2.78637e-06
2.52984e-08
2.7806e-06
2.69838e-08
2.77445e-06
2.89742e-08
2.76785e-06
3.13247e-08
2.76073e-06
3.41029e-08
2.753e-06
3.73914e-08
2.74459e-06
4.1292e-08
2.73537e-06
4.59308e-08
2.72526e-06
5.14641e-08
2.71412e-06
5.80864e-08
2.70184e-06
6.60405e-08
2.68831e-06
7.56285e-08
2.67347e-06
8.72251e-08
2.6573e-06
1.0129e-07
2.63993e-06
1.18377e-07
2.6217e-06
1.39124e-07
2.60332e-06
1.64219e-07
2.58608e-06
1.94287e-07
2.57205e-06
2.29662e-07
2.56426e-06
2.69934e-07
2.56654e-06
3.13206e-07
2.58215e-06
3.55033e-07
3.875e-07
2.60994e-06
3.26363e-06
5.5748e-09
3.26098e-06
1.68237e-08
3.25632e-06
2.81129e-08
3.25029e-06
3.44338e-08
3.24387e-06
3.49339e-08
3.23772e-06
3.19773e-08
3.23209e-06
2.83465e-08
3.22692e-06
2.56394e-08
3.22204e-06
2.42088e-08
3.21731e-06
2.37545e-08
3.21261e-06
2.38429e-08
3.2079e-06
2.41481e-08
3.20316e-06
2.44923e-08
3.19839e-06
2.48039e-08
3.19358e-06
2.50671e-08
3.18875e-06
2.52887e-08
3.18389e-06
2.54799e-08
3.179e-06
2.56498e-08
3.17409e-06
2.58042e-08
3.16916e-06
2.59457e-08
3.16422e-06
2.60747e-08
3.15926e-06
2.61894e-08
3.15428e-06
2.6287e-08
3.1493e-06
2.63639e-08
3.14432e-06
2.64161e-08
3.13933e-06
2.64397e-08
3.13435e-06
2.64313e-08
3.12939e-06
2.63885e-08
3.12444e-06
2.63094e-08
3.11952e-06
2.61937e-08
3.11462e-06
2.60417e-08
3.10977e-06
2.58555e-08
3.10495e-06
2.56379e-08
3.10018e-06
2.5393e-08
3.09546e-06
2.51256e-08
3.09079e-06
2.48416e-08
3.08617e-06
2.45472e-08
3.08161e-06
2.42493e-08
3.0771e-06
2.3955e-08
3.07264e-06
2.36715e-08
3.06822e-06
2.34064e-08
3.06386e-06
2.3167e-08
3.05952e-06
2.29608e-08
3.05522e-06
2.27953e-08
3.05094e-06
2.26778e-08
3.04666e-06
2.26158e-08
3.04239e-06
2.26167e-08
3.03811e-06
2.26883e-08
3.0338e-06
2.28387e-08
3.02945e-06
2.30766e-08
3.02504e-06
2.34118e-08
3.02055e-06
2.38548e-08
3.01597e-06
2.44183e-08
3.01128e-06
2.51165e-08
3.00643e-06
2.59665e-08
3.00142e-06
2.69883e-08
2.99621e-06
2.8206e-08
2.99077e-06
2.9648e-08
2.98506e-06
3.13489e-08
2.97904e-06
3.33496e-08
2.97267e-06
3.56996e-08
2.96589e-06
3.84581e-08
2.95866e-06
4.16966e-08
2.95092e-06
4.55008e-08
2.94261e-06
4.99744e-08
2.93367e-06
5.52422e-08
2.92406e-06
6.14545e-08
2.91373e-06
6.87921e-08
2.90268e-06
7.74714e-08
2.89095e-06
8.77489e-08
2.87863e-06
9.99248e-08
2.86597e-06
1.14341e-07
2.85336e-06
1.31373e-07
2.84148e-06
1.51398e-07
2.83134e-06
1.74744e-07
2.82444e-06
2.01575e-07
2.82279e-06
2.31703e-07
2.8288e-06
2.64304e-07
2.84487e-06
2.97526e-07
2.87217e-06
3.28113e-07
3.51389e-07
2.90867e-06
3.49241e-06
6.23393e-09
3.49002e-06
1.92115e-08
3.48562e-06
3.2517e-08
3.47972e-06
4.03387e-08
3.47319e-06
4.14621e-08
3.46674e-06
3.84243e-08
3.4607e-06
3.43873e-08
3.45509e-06
3.12505e-08
3.4498e-06
2.95058e-08
3.44468e-06
2.88716e-08
3.43965e-06
2.88801e-08
3.43464e-06
2.91649e-08
3.42962e-06
2.95178e-08
3.42458e-06
2.98498e-08
3.41952e-06
3.01372e-08
3.41443e-06
3.03833e-08
3.40933e-06
3.05981e-08
3.4042e-06
3.07907e-08
3.39905e-06
3.09668e-08
3.39389e-06
3.11289e-08
3.38871e-06
3.12768e-08
3.38352e-06
3.14087e-08
3.37832e-06
3.15212e-08
3.37311e-06
3.161e-08
3.3679e-06
3.16707e-08
3.36269e-06
3.16988e-08
3.35749e-06
3.16906e-08
3.35229e-06
3.1643e-08
3.34712e-06
3.15543e-08
3.34196e-06
3.14238e-08
3.33684e-06
3.12524e-08
3.33175e-06
3.10419e-08
3.32669e-06
3.07961e-08
3.32168e-06
3.05193e-08
3.31671e-06
3.02173e-08
3.31178e-06
2.98968e-08
3.30691e-06
2.95649e-08
3.30208e-06
2.92297e-08
3.2973e-06
2.88992e-08
3.29257e-06
2.85819e-08
3.28787e-06
2.82865e-08
3.28322e-06
2.80215e-08
3.27859e-06
2.77956e-08
3.27399e-06
2.76173e-08
3.2694e-06
2.74952e-08
3.26482e-06
2.74378e-08
3.26024e-06
2.74538e-08
3.25564e-06
2.7552e-08
3.25101e-06
2.77417e-08
3.24634e-06
2.80328e-08
3.24161e-06
2.84362e-08
3.23681e-06
2.8964e-08
3.23191e-06
2.96299e-08
3.2269e-06
3.045e-08
3.22176e-06
3.14426e-08
3.21646e-06
3.26297e-08
3.21097e-06
3.40371e-08
3.20528e-06
3.56952e-08
3.19935e-06
3.764e-08
3.19316e-06
3.99141e-08
3.18667e-06
4.25679e-08
3.17984e-06
4.56609e-08
3.17266e-06
4.92631e-08
3.1651e-06
5.34568e-08
3.15713e-06
5.83385e-08
3.14875e-06
6.40209e-08
3.13997e-06
7.06349e-08
3.13084e-06
7.83307e-08
3.12144e-06
8.72792e-08
3.11193e-06
9.767e-08
3.10256e-06
1.09708e-07
3.09371e-06
1.23603e-07
3.08595e-06
1.39551e-07
3.08006e-06
1.57703e-07
3.07711e-06
1.78109e-07
3.07846e-06
2.00639e-07
3.08571e-06
2.24863e-07
3.10052e-06
2.49904e-07
3.12418e-06
2.74283e-07
3.15685e-06
2.95852e-07
3.11978e-07
3.19667e-06
3.73723e-06
6.75083e-09
3.73515e-06
2.12885e-08
3.7311e-06
3.65695e-08
3.7254e-06
4.6033e-08
3.71884e-06
4.80234e-08
3.71214e-06
4.51302e-08
3.7057e-06
4.08259e-08
3.69965e-06
3.73071e-08
3.69392e-06
3.52355e-08
3.68841e-06
3.43818e-08
3.68303e-06
3.42672e-08
3.6777e-06
3.44948e-08
3.6724e-06
3.4829e-08
3.66709e-06
3.51626e-08
3.66178e-06
3.54611e-08
3.65645e-06
3.57226e-08
3.65111e-06
3.59546e-08
3.64575e-06
3.6165e-08
3.64037e-06
3.63588e-08
3.63499e-06
3.65381e-08
3.62959e-06
3.67023e-08
3.62418e-06
3.6849e-08
3.61876e-06
3.69744e-08
3.61333e-06
3.70738e-08
3.60791e-06
3.7142e-08
3.60248e-06
3.71744e-08
3.59707e-06
3.71666e-08
3.59166e-06
3.71156e-08
3.58627e-06
3.70192e-08
3.5809e-06
3.68769e-08
3.57555e-06
3.66895e-08
3.57023e-06
3.64595e-08
3.56495e-06
3.61905e-08
3.5597e-06
3.58879e-08
3.55449e-06
3.55579e-08
3.54932e-06
3.52079e-08
3.54419e-06
3.48461e-08
3.5391e-06
3.44811e-08
3.53405e-06
3.41223e-08
3.52904e-06
3.37791e-08
3.52407e-06
3.3461e-08
3.51912e-06
3.31777e-08
3.5142e-06
3.2939e-08
3.5093e-06
3.27544e-08
3.50441e-06
3.26334e-08
3.49952e-06
3.25856e-08
3.49462e-06
3.26206e-08
3.48971e-06
3.27481e-08
3.48476e-06
3.29784e-08
3.47978e-06
3.33222e-08
3.47474e-06
3.37914e-08
3.46963e-06
3.43989e-08
3.46443e-06
3.51593e-08
3.45914e-06
3.60895e-08
3.45372e-06
3.72087e-08
3.44818e-06
3.85395e-08
3.44248e-06
4.0108e-08
3.43661e-06
4.19449e-08
3.43055e-06
4.40859e-08
3.42428e-06
4.65722e-08
3.4178e-06
4.9452e-08
3.41109e-06
5.27805e-08
3.40414e-06
5.66214e-08
3.39697e-06
6.1047e-08
3.38959e-06
6.61396e-08
3.38204e-06
7.19909e-08
3.3744e-06
7.87025e-08
3.36678e-06
8.63843e-08
3.35934e-06
9.5152e-08
3.35233e-06
1.05122e-07
3.34607e-06
1.16405e-07
3.34102e-06
1.2909e-07
3.33779e-06
1.4323e-07
3.33712e-06
1.58808e-07
3.33997e-06
1.75709e-07
3.34739e-06
1.93658e-07
3.36052e-06
2.12175e-07
3.38036e-06
2.30506e-07
3.40749e-06
2.47592e-07
3.44167e-06
2.62103e-07
2.72596e-07
3.48149e-06
3.99918e-06
7.12424e-09
3.99744e-06
2.30301e-08
3.99379e-06
4.0218e-08
3.98838e-06
5.14459e-08
3.98186e-06
5.45474e-08
3.97495e-06
5.20411e-08
3.96814e-06
4.76303e-08
3.96166e-06
4.37964e-08
3.9555e-06
4.13971e-08
3.94959e-06
4.02898e-08
3.94385e-06
4.00095e-08
3.93821e-06
4.01417e-08
3.93262e-06
4.04277e-08
3.92705e-06
4.07411e-08
3.92148e-06
4.10355e-08
3.91592e-06
4.13014e-08
3.91034e-06
4.15427e-08
3.90476e-06
4.17647e-08
3.89917e-06
4.19713e-08
3.89356e-06
4.21637e-08
3.88795e-06
4.23407e-08
3.88233e-06
4.24994e-08
3.87671e-06
4.26353e-08
3.87108e-06
4.27434e-08
3.86546e-06
4.28181e-08
3.85983e-06
4.28544e-08
3.85421e-06
4.28476e-08
3.8486e-06
4.27944e-08
3.84301e-06
4.26927e-08
3.83743e-06
4.25419e-08
3.83187e-06
4.2343e-08
3.82634e-06
4.20985e-08
3.82084e-06
4.18128e-08
3.81536e-06
4.14912e-08
3.80991e-06
4.11408e-08
3.8045e-06
4.07695e-08
3.79912e-06
4.03861e-08
3.79378e-06
4.00002e-08
3.78847e-06
3.96217e-08
3.78318e-06
3.9261e-08
3.77793e-06
3.89285e-08
3.77269e-06
3.86347e-08
3.76748e-06
3.83902e-08
3.76228e-06
3.82054e-08
3.75708e-06
3.80906e-08
3.75189e-06
3.80561e-08
3.74668e-06
3.81122e-08
3.74146e-06
3.82694e-08
3.73621e-06
3.85385e-08
3.73093e-06
3.89308e-08
3.7256e-06
3.94585e-08
3.72021e-06
4.01349e-08
3.71475e-06
4.0975e-08
3.70921e-06
4.19955e-08
3.70358e-06
4.32155e-08
3.69785e-06
4.46571e-08
3.692e-06
4.63453e-08
3.68604e-06
4.83091e-08
3.67996e-06
5.05815e-08
3.67375e-06
5.31999e-08
3.66742e-06
5.62069e-08
3.66098e-06
5.96499e-08
3.65446e-06
6.35817e-08
3.64789e-06
6.806e-08
3.64133e-06
7.31472e-08
3.63487e-06
7.89093e-08
3.62861e-06
8.54138e-08
3.62273e-06
9.27274e-08
3.61743e-06
1.00912e-07
3.61301e-06
1.10016e-07
3.60981e-06
1.20071e-07
3.60829e-06
1.31076e-07
3.60901e-06
1.42984e-07
3.6126e-06
1.55684e-07
3.6198e-06
1.6898e-07
3.63136e-06
1.82568e-07
3.64799e-06
1.96014e-07
3.67023e-06
2.08741e-07
3.69825e-06
2.20043e-07
3.73169e-06
2.29128e-07
2.3522e-07
3.76953e-06
4.27946e-06
7.3666e-09
4.27805e-06
2.44435e-08
4.27482e-06
4.3449e-08
4.26973e-06
5.65349e-08
4.2633e-06
6.09725e-08
4.25625e-06
5.90935e-08
4.24914e-06
5.47493e-08
4.24225e-06
5.06844e-08
4.23568e-06
4.79721e-08
4.22938e-06
4.65874e-08
4.22329e-06
4.61042e-08
4.21734e-06
4.61047e-08
4.21146e-06
4.63124e-08
4.20562e-06
4.65829e-08
4.19981e-06
4.68563e-08
4.19401e-06
4.71145e-08
4.18821e-06
4.73556e-08
4.18241e-06
4.75821e-08
4.17661e-06
4.77958e-08
4.1708e-06
4.79966e-08
4.16499e-06
4.81825e-08
4.15917e-06
4.83499e-08
4.15335e-06
4.84938e-08
4.14753e-06
4.86087e-08
4.14171e-06
4.86888e-08
4.1359e-06
4.87285e-08
4.13009e-06
4.87234e-08
4.12429e-06
4.86697e-08
4.1185e-06
4.85654e-08
4.11272e-06
4.84099e-08
4.10697e-06
4.82043e-08
4.10123e-06
4.79513e-08
4.09551e-06
4.76555e-08
4.08981e-06
4.73226e-08
4.08414e-06
4.69601e-08
4.07849e-06
4.65762e-08
4.07287e-06
4.61803e-08
4.06727e-06
4.57825e-08
4.0617e-06
4.53934e-08
4.05615e-06
4.50239e-08
4.05061e-06
4.46851e-08
4.0451e-06
4.43881e-08
4.0396e-06
4.41441e-08
4.0341e-06
4.39641e-08
4.02861e-06
4.38589e-08
4.02312e-06
4.38394e-08
4.01762e-06
4.39163e-08
4.01211e-06
4.41002e-08
4.00658e-06
4.44023e-08
4.00102e-06
4.48339e-08
3.99543e-06
4.54072e-08
3.98979e-06
4.61352e-08
3.98412e-06
4.70321e-08
3.97839e-06
4.81141e-08
3.9726e-06
4.93989e-08
3.96676e-06
5.09066e-08
3.96087e-06
5.266e-08
3.95492e-06
5.46843e-08
3.94893e-06
5.70078e-08
3.94292e-06
5.9662e-08
3.9369e-06
6.26808e-08
3.9309e-06
6.61013e-08
3.92499e-06
6.99623e-08
3.91922e-06
7.4304e-08
3.91367e-06
7.91669e-08
3.90848e-06
8.45897e-08
3.90377e-06
9.06066e-08
3.89974e-06
9.72447e-08
3.89663e-06
1.04519e-07
3.89471e-06
1.12427e-07
3.89434e-06
1.20942e-07
3.89591e-06
1.30005e-07
3.89987e-06
1.39517e-07
3.90673e-06
1.49326e-07
3.91699e-06
1.59221e-07
3.93114e-06
1.68926e-07
3.94955e-06
1.78095e-07
3.97248e-06
1.8632e-07
3.99987e-06
1.9315e-07
4.03136e-06
1.98131e-07
2.00854e-07
4.06622e-06
4.57934e-06
7.50067e-09
4.57822e-06
2.55626e-08
4.57539e-06
4.62833e-08
4.57064e-06
6.1287e-08
4.56436e-06
6.72508e-08
4.55723e-06
6.62217e-08
4.54987e-06
6.21185e-08
4.54263e-06
5.79201e-08
4.53568e-06
5.4926e-08
4.52902e-06
5.3254e-08
4.52259e-06
5.254e-08
4.51632e-06
5.23773e-08
4.51016e-06
5.24786e-08
4.50407e-06
5.26837e-08
4.49802e-06
5.2919e-08
4.49199e-06
5.31562e-08
4.48597e-06
5.33872e-08
4.47996e-06
5.36104e-08
4.47396e-06
5.38249e-08
4.46795e-06
5.40291e-08
4.46194e-06
5.42198e-08
4.45594e-06
5.43925e-08
4.44993e-06
5.45418e-08
4.44392e-06
5.46617e-08
4.43792e-06
5.47461e-08
4.43192e-06
5.47894e-08
4.42593e-06
5.47867e-08
4.41994e-06
5.47345e-08
4.41397e-06
5.46306e-08
4.408e-06
5.44745e-08
4.40205e-06
5.42674e-08
4.39611e-06
5.40122e-08
4.39018e-06
5.37133e-08
4.38427e-06
5.3377e-08
4.37837e-06
5.30107e-08
4.3725e-06
5.2623e-08
4.36664e-06
5.22236e-08
4.36079e-06
5.18229e-08
4.35496e-06
5.14317e-08
4.34915e-06
5.10614e-08
4.34335e-06
5.07234e-08
4.33756e-06
5.04292e-08
4.33178e-06
5.01904e-08
4.32601e-06
5.00183e-08
4.32024e-06
4.99238e-08
4.31447e-06
4.99181e-08
4.3087e-06
5.00117e-08
4.30292e-06
5.02153e-08
4.29714e-06
5.05397e-08
4.29134e-06
5.09959e-08
4.28553e-06
5.15952e-08
4.2797e-06
5.23498e-08
4.27387e-06
5.32726e-08
4.26802e-06
5.43778e-08
4.26216e-06
5.5681e-08
4.2563e-06
5.71991e-08
4.25046e-06
5.8951e-08
4.24464e-06
6.0957e-08
4.23887e-06
6.32391e-08
4.23318e-06
6.58205e-08
4.22762e-06
6.87256e-08
4.22223e-06
7.19788e-08
4.21708e-06
7.56042e-08
4.21226e-06
7.96241e-08
4.20788e-06
8.40572e-08
4.20406e-06
8.89174e-08
4.20097e-06
9.42104e-08
4.19881e-06
9.99314e-08
4.19779e-06
1.06061e-07
4.19818e-06
1.12563e-07
4.20027e-06
1.19375e-07
4.2044e-06
1.26411e-07
4.21089e-06
1.33553e-07
4.2201e-06
1.40647e-07
4.23235e-06
1.47504e-07
4.24791e-06
1.53899e-07
4.26696e-06
1.5958e-07
4.28953e-06
1.64275e-07
4.31551e-06
1.67707e-07
4.34454e-06
1.69624e-07
1.6982e-07
4.3761e-06
4.90019e-06
7.55379e-09
4.89932e-06
2.64383e-08
4.89683e-06
4.87674e-08
4.89241e-06
6.57146e-08
4.88631e-06
7.33513e-08
4.87917e-06
7.33645e-08
4.87162e-06
6.96682e-08
4.8641e-06
6.54419e-08
4.85681e-06
6.22123e-08
4.84981e-06
6.02584e-08
4.84306e-06
5.92972e-08
4.8365e-06
5.89474e-08
4.83007e-06
5.89183e-08
4.82372e-06
5.90374e-08
4.81743e-06
5.92176e-08
4.81118e-06
5.94208e-08
4.80496e-06
5.96314e-08
4.79874e-06
5.98432e-08
4.79254e-06
6.00522e-08
4.78634e-06
6.02547e-08
4.78015e-06
6.04461e-08
4.77396e-06
6.06209e-08
4.76777e-06
6.07732e-08
4.76159e-06
6.08966e-08
4.75541e-06
6.09847e-08
4.74923e-06
6.10317e-08
4.74306e-06
6.10328e-08
4.73689e-06
6.09844e-08
4.73073e-06
6.08843e-08
4.72458e-06
6.07319e-08
4.71843e-06
6.05287e-08
4.71229e-06
6.02773e-08
4.70616e-06
5.99825e-08
4.70004e-06
5.96503e-08
4.69393e-06
5.92882e-08
4.68783e-06
5.89049e-08
4.68173e-06
5.85101e-08
4.67565e-06
5.81142e-08
4.66957e-06
5.77283e-08
4.66351e-06
5.73636e-08
4.65745e-06
5.70319e-08
4.65141e-06
5.67446e-08
4.64537e-06
5.65132e-08
4.63933e-06
5.6349e-08
4.63331e-06
5.6263e-08
4.62729e-06
5.62659e-08
4.62127e-06
5.63678e-08
4.61527e-06
5.65791e-08
4.60927e-06
5.69095e-08
4.60328e-06
5.73692e-08
4.59731e-06
5.79681e-08
4.59136e-06
5.87166e-08
4.58543e-06
5.96258e-08
4.57954e-06
6.0707e-08
4.5737e-06
6.19727e-08
4.56792e-06
6.34358e-08
4.56223e-06
6.51101e-08
4.55666e-06
6.701e-08
4.55124e-06
6.915e-08
4.54602e-06
7.15445e-08
4.54105e-06
7.42074e-08
4.53639e-06
7.71508e-08
4.53213e-06
8.03841e-08
4.52838e-06
8.39133e-08
4.52523e-06
8.77388e-08
4.52284e-06
9.1854e-08
4.52135e-06
9.62433e-08
4.52095e-06
1.0088e-07
4.52184e-06
1.05724e-07
4.52425e-06
1.10718e-07
4.52839e-06
1.15789e-07
4.53452e-06
1.20843e-07
4.54287e-06
1.25766e-07
4.55366e-06
1.30423e-07
4.56706e-06
1.34662e-07
4.58321e-06
1.38316e-07
4.60214e-06
1.41211e-07
4.62381e-06
1.43175e-07
4.64803e-06
1.44047e-07
4.67452e-06
1.43694e-07
1.42021e-07
4.70288e-06
5.24348e-06
7.55313e-09
5.24279e-06
2.71282e-08
5.2406e-06
5.09619e-08
5.23647e-06
6.98483e-08
5.23056e-06
7.92592e-08
5.22346e-06
8.04709e-08
5.2158e-06
7.73311e-08
5.20806e-06
7.31843e-08
5.20049e-06
6.9778e-08
5.19319e-06
6.7562e-08
5.18615e-06
6.63496e-08
5.1793e-06
6.57974e-08
5.17261e-06
6.56195e-08
5.16602e-06
6.56348e-08
5.15951e-06
6.57449e-08
5.15304e-06
6.59016e-08
5.14661e-06
6.60819e-08
5.1402e-06
6.62744e-08
5.1338e-06
6.64716e-08
5.12742e-06
6.66675e-08
5.12104e-06
6.68557e-08
5.11467e-06
6.703e-08
5.10831e-06
6.71834e-08
5.10195e-06
6.73092e-08
5.0956e-06
6.74009e-08
5.08925e-06
6.74524e-08
5.0829e-06
6.7459e-08
5.07655e-06
6.74169e-08
5.07021e-06
6.73241e-08
5.06388e-06
6.718e-08
5.05754e-06
6.69858e-08
5.05121e-06
6.67442e-08
5.04488e-06
6.64598e-08
5.03855e-06
6.61385e-08
5.03222e-06
6.57875e-08
5.0259e-06
6.54155e-08
5.01959e-06
6.50319e-08
5.01327e-06
6.46469e-08
5.00696e-06
6.42714e-08
5.00066e-06
6.39166e-08
4.99437e-06
6.35937e-08
4.98808e-06
6.33142e-08
4.9818e-06
6.30891e-08
4.97554e-06
6.29294e-08
4.96928e-06
6.28453e-08
4.96305e-06
6.2847e-08
4.95684e-06
6.29439e-08
4.95065e-06
6.3145e-08
4.94449e-06
6.34591e-08
4.93837e-06
6.38944e-08
4.93231e-06
6.44593e-08
4.9263e-06
6.51618e-08
4.92036e-06
6.60101e-08
4.91452e-06
6.70125e-08
4.90879e-06
6.81773e-08
4.9032e-06
6.95128e-08
4.89778e-06
7.10274e-08
4.89257e-06
7.27288e-08
4.88762e-06
7.46239e-08
4.88297e-06
7.67186e-08
4.8787e-06
7.90164e-08
4.87488e-06
8.15183e-08
4.8716e-06
8.42216e-08
4.86895e-06
8.71185e-08
4.86706e-06
9.01956e-08
4.86606e-06
9.34322e-08
4.86608e-06
9.67988e-08
4.86729e-06
1.00256e-07
4.86984e-06
1.03755e-07
4.87392e-06
1.07233e-07
4.87968e-06
1.10616e-07
4.8873e-06
1.13818e-07
4.89692e-06
1.16741e-07
4.90866e-06
1.19278e-07
4.92261e-06
1.21315e-07
4.93878e-06
1.22737e-07
4.95716e-06
1.23431e-07
4.97764e-06
1.23294e-07
5.00004e-06
1.2224e-07
5.02412e-06
1.20205e-07
1.17153e-07
5.04958e-06
5.6108e-06
7.52207e-09
5.61024e-06
2.76883e-08
5.60827e-06
5.29311e-08
5.60439e-06
7.37295e-08
5.59867e-06
8.49744e-08
5.59164e-06
8.75022e-08
5.58393e-06
8.50473e-08
5.57603e-06
8.10839e-08
5.56825e-06
7.75671e-08
5.56069e-06
7.5121e-08
5.55338e-06
7.36654e-08
5.54628e-06
7.29047e-08
5.53934e-06
7.2566e-08
5.53252e-06
7.2464e-08
5.52579e-06
7.24912e-08
5.51912e-06
7.25903e-08
5.51248e-06
7.27313e-08
5.50588e-06
7.28972e-08
5.4993e-06
7.30769e-08
5.49274e-06
7.32618e-08
5.48619e-06
7.34437e-08
5.47965e-06
7.36151e-08
5.47311e-06
7.37683e-08
5.46658e-06
7.38961e-08
5.46005e-06
7.39917e-08
5.45353e-06
7.4049e-08
5.44701e-06
7.40631e-08
5.44049e-06
7.40303e-08
5.43397e-06
7.39483e-08
5.42745e-06
7.38166e-08
5.42093e-06
7.36361e-08
5.4144e-06
7.34095e-08
5.40788e-06
7.31408e-08
5.40135e-06
7.28358e-08
5.39482e-06
7.25013e-08
5.38829e-06
7.21454e-08
5.38176e-06
7.17773e-08
5.37523e-06
7.14067e-08
5.3687e-06
7.1044e-08
5.36218e-06
7.07e-08
5.35567e-06
7.03853e-08
5.34918e-06
7.01107e-08
5.34269e-06
6.98867e-08
5.33623e-06
6.97233e-08
5.32979e-06
6.96299e-08
5.32339e-06
6.96155e-08
5.31703e-06
6.96882e-08
5.31072e-06
6.98555e-08
5.30447e-06
7.01245e-08
5.29829e-06
7.05015e-08
5.2922e-06
7.09922e-08
5.28622e-06
7.16021e-08
5.28037e-06
7.23362e-08
5.27467e-06
7.31991e-08
5.26915e-06
7.41948e-08
5.26385e-06
7.53268e-08
5.25881e-06
7.65977e-08
5.25406e-06
7.80089e-08
5.24968e-06
7.95605e-08
5.2457e-06
8.12502e-08
5.24221e-06
8.30731e-08
5.23929e-06
8.50212e-08
5.23701e-06
8.70821e-08
5.23548e-06
8.92389e-08
5.23481e-06
9.1469e-08
5.2351e-06
9.37434e-08
5.23648e-06
9.60263e-08
5.23908e-06
9.82744e-08
5.24301e-06
1.00437e-07
5.24841e-06
1.02455e-07
5.25539e-06
1.04263e-07
5.26405e-06
1.0579e-07
5.27446e-06
1.06958e-07
5.28668e-06
1.07688e-07
5.30072e-06
1.07901e-07
5.31657e-06
1.07523e-07
5.33414e-06
1.06485e-07
5.35333e-06
1.04732e-07
5.37398e-06
1.02221e-07
5.39588e-06
9.89307e-08
9.48563e-08
5.4188e-06
6.00381e-06
7.47893e-09
6.00333e-06
2.81671e-08
6.00153e-06
5.47364e-08
5.99786e-06
7.74039e-08
5.99232e-06
9.05072e-08
5.9854e-06
9.44326e-08
5.97768e-06
9.2767e-08
5.96968e-06
8.90824e-08
5.96173e-06
8.55245e-08
5.95396e-06
8.28894e-08
5.94643e-06
8.12085e-08
5.9391e-06
8.02424e-08
5.93193e-06
7.97374e-08
5.9249e-06
7.95091e-08
5.91796e-06
7.94438e-08
5.91109e-06
7.94764e-08
5.90427e-06
7.95703e-08
5.89749e-06
7.97034e-08
5.89073e-06
7.98608e-08
5.884e-06
8.00309e-08
5.87727e-06
8.02039e-08
5.87056e-06
8.03708e-08
5.86386e-06
8.05232e-08
5.85716e-06
8.06532e-08
5.85047e-06
8.07537e-08
5.84378e-06
8.08184e-08
5.83708e-06
8.08423e-08
5.83039e-06
8.08215e-08
5.82369e-06
8.07537e-08
5.81699e-06
8.0638e-08
5.81029e-06
8.04751e-08
5.80358e-06
8.02673e-08
5.79687e-06
8.00181e-08
5.79015e-06
7.97329e-08
5.78342e-06
7.94178e-08
5.7767e-06
7.90805e-08
5.76997e-06
7.87293e-08
5.76325e-06
7.83734e-08
5.75653e-06
7.80225e-08
5.74982e-06
7.76864e-08
5.74313e-06
7.7375e-08
5.73645e-06
7.70982e-08
5.7298e-06
7.68653e-08
5.72319e-06
7.66851e-08
5.71662e-06
7.65659e-08
5.7101e-06
7.6515e-08
5.70365e-06
7.65388e-08
5.69729e-06
7.66431e-08
5.69101e-06
7.68326e-08
5.68485e-06
7.71114e-08
5.67883e-06
7.74826e-08
5.67297e-06
7.79486e-08
5.66729e-06
7.85111e-08
5.66183e-06
7.91709e-08
5.65663e-06
7.99278e-08
5.65171e-06
8.07806e-08
5.64714e-06
8.17269e-08
5.64295e-06
8.27625e-08
5.6392e-06
8.38814e-08
5.63596e-06
8.5075e-08
5.6333e-06
8.63322e-08
5.63129e-06
8.76383e-08
5.63001e-06
8.8975e-08
5.62955e-06
9.03199e-08
5.63e-06
9.1646e-08
5.63146e-06
9.29215e-08
5.63402e-06
9.41095e-08
5.63777e-06
9.51687e-08
5.6428e-06
9.60527e-08
5.6492e-06
9.67114e-08
5.65703e-06
9.70914e-08
5.66634e-06
9.71374e-08
5.67717e-06
9.67933e-08
5.68951e-06
9.60048e-08
5.70336e-06
9.47207e-08
5.71865e-06
9.28959e-08
5.7353e-06
9.04939e-08
5.75321e-06
8.74885e-08
5.77222e-06
8.38664e-08
5.79219e-06
7.96273e-08
7.4783e-08
5.81292e-06
6.42435e-06
7.43687e-09
6.42391e-06
2.86046e-08
6.42221e-06
5.64315e-08
6.4187e-06
8.09159e-08
6.41334e-06
9.58745e-08
6.40653e-06
1.01247e-07
6.39884e-06
1.0045e-07
6.3908e-06
9.71281e-08
6.38273e-06
9.35975e-08
6.37481e-06
9.08197e-08
6.36708e-06
8.89394e-08