/*--------------------------------*- C++ -*----------------------------------*\
| =========                 |                                                 |
| \\      /  F ield         | OpenFOAM: The Open Source CFD Toolbox           |
|  \\    /   O peration     | Version:  4.1                                   |
|   \\  /    A nd           | Web:      www.OpenFOAM.org                      |
|    \\/     M anipulation  |                                                 |
\*---------------------------------------------------------------------------*/
FoamFile
{
    version     2.0;
    format      ascii;
    class       volVectorField;
    location    "0.4";
    object      U;
}
// * * * * * * * * * * * * * * * * * * * * * * * * * * * * * * * * * * * * * //

dimensions      [0 1 -1 0 0 0 0];

internalField   nonuniform List<vector> 
12013
(
(0.0999932 3.93182e-06 0)
(0.0999225 1.11687e-05 0)
(0.0997639 1.8389e-05 0)
(0.0995477 2.22472e-05 0)
(0.099319 2.22929e-05 0)
(0.0991101 2.01899e-05 0)
(0.0989302 1.78328e-05 0)
(0.0987733 1.62732e-05 0)
(0.098629 1.56964e-05 0)
(0.0984887 1.58429e-05 0)
(0.0983476 1.63772e-05 0)
(0.0982038 1.70551e-05 0)
(0.098057 1.77475e-05 0)
(0.0979075 1.84066e-05 0)
(0.0977559 1.90268e-05 0)
(0.0976026 1.96177e-05 0)
(0.0974479 2.01913e-05 0)
(0.0972921 2.07572e-05 0)
(0.0971352 2.13215e-05 0)
(0.0969775 2.18868e-05 0)
(0.096819 2.24532e-05 0)
(0.0966598 2.30192e-05 0)
(0.0965001 2.35811e-05 0)
(0.09634 2.41351e-05 0)
(0.0961796 2.46752e-05 0)
(0.0960193 2.51964e-05 0)
(0.0958592 2.56934e-05 0)
(0.0956995 2.61611e-05 0)
(0.0955406 2.65955e-05 0)
(0.0953827 2.69934e-05 0)
(0.0952261 2.73531e-05 0)
(0.0950711 2.76736e-05 0)
(0.0949179 2.79565e-05 0)
(0.0947667 2.82036e-05 0)
(0.0946179 2.84191e-05 0)
(0.0944714 2.86083e-05 0)
(0.0943275 2.87776e-05 0)
(0.0941862 2.89349e-05 0)
(0.0940475 2.9089e-05 0)
(0.0939115 2.92497e-05 0)
(0.0937781 2.9428e-05 0)
(0.0936471 2.96356e-05 0)
(0.0935183 2.9885e-05 0)
(0.0933916 3.01895e-05 0)
(0.0932667 3.05639e-05 0)
(0.0931432 3.10242e-05 0)
(0.0930209 3.15863e-05 0)
(0.0928991 3.22699e-05 0)
(0.0927776 3.3095e-05 0)
(0.0926557 3.40849e-05 0)
(0.0925328 3.52669e-05 0)
(0.0924083 3.6671e-05 0)
(0.0922814 3.83341e-05 0)
(0.0921513 4.02999e-05 0)
(0.0920169 4.26199e-05 0)
(0.0918772 4.53581e-05 0)
(0.0917309 4.85918e-05 0)
(0.0915765 5.24165e-05 0)
(0.0914123 5.69509e-05 0)
(0.0912362 6.23423e-05 0)
(0.0910459 6.87759e-05 0)
(0.0908382 7.64864e-05 0)
(0.0906099 8.57723e-05 0)
(0.0903564 9.7018e-05 0)
(0.0900727 0.000110724 0)
(0.0897521 0.000127549 0)
(0.0893864 0.000148372 0)
(0.0889652 0.000174384 0)
(0.088475 0.000207222 0)
(0.0878983 0.000249182 0)
(0.0872119 0.000303541 0)
(0.0863846 0.000375074 0)
(0.0853732 0.000470882 0)
(0.0841175 0.000601761 0)
(0.0825315 0.000784486 0)
(0.0804902 0.0010457 0)
(0.0778082 0.00142864 0)
(0.0741921 0.00200713 0)
(0.0691857 0.00292934 0)
(0.0622509 0.00460802 0)
(0.054433 0.0088982 0)
(0.0999944 1.19312e-05 0)
(0.0999254 3.41065e-05 0)
(0.0997693 5.62584e-05 0)
(0.0995552 6.8144e-05 0)
(0.0993279 6.83547e-05 0)
(0.0991195 6.19636e-05 0)
(0.0989395 5.47677e-05 0)
(0.0987822 4.99955e-05 0)
(0.0986374 4.82212e-05 0)
(0.0984968 4.86587e-05 0)
(0.0983556 5.02839e-05 0)
(0.0982117 5.23513e-05 0)
(0.098065 5.44657e-05 0)
(0.0979157 5.64806e-05 0)
(0.0977644 5.83777e-05 0)
(0.0976114 6.01865e-05 0)
(0.0974571 6.19435e-05 0)
(0.0973016 6.36777e-05 0)
(0.0971451 6.54069e-05 0)
(0.0969878 6.71396e-05 0)
(0.0968297 6.88761e-05 0)
(0.0966709 7.06114e-05 0)
(0.0965116 7.2335e-05 0)
(0.0963519 7.40336e-05 0)
(0.096192 7.5691e-05 0)
(0.0960321 7.72907e-05 0)
(0.0958723 7.88167e-05 0)
(0.0957131 8.02541e-05 0)
(0.0955545 8.15895e-05 0)
(0.095397 8.28139e-05 0)
(0.0952407 8.3922e-05 0)
(0.0950859 8.49112e-05 0)
(0.094933 8.57851e-05 0)
(0.094782 8.65512e-05 0)
(0.0946333 8.72207e-05 0)
(0.0944869 8.78103e-05 0)
(0.094343 8.83401e-05 0)
(0.0942016 8.88337e-05 0)
(0.0940629 8.93187e-05 0)
(0.0939267 8.9825e-05 0)
(0.093793 9.03855e-05 0)
(0.0936617 9.10363e-05 0)
(0.0935326 9.18161e-05 0)
(0.0934054 9.27661e-05 0)
(0.09328 9.39309e-05 0)
(0.093156 9.53584e-05 0)
(0.093033 9.71002e-05 0)
(0.0929106 9.92134e-05 0)
(0.0927883 0.000101761 0)
(0.0926656 0.000104814 0)
(0.092542 0.000108455 0)
(0.0924166 0.000112777 0)
(0.0922889 0.000117891 0)
(0.0921578 0.00012393 0)
(0.0920226 0.000131053 0)
(0.0918821 0.000139453 0)
(0.091735 0.000149364 0)
(0.09158 0.000161078 0)
(0.0914152 0.000174953 0)
(0.0912388 0.000191436 0)
(0.0910484 0.000211086 0)
(0.0908412 0.00023461 0)
(0.0906138 0.000262906 0)
(0.0903621 0.000297129 0)
(0.0900812 0.000338773 0)
(0.0897649 0.0003898 0)
(0.0894056 0.000452815 0)
(0.0889938 0.000531326 0)
(0.0885173 0.000630129 0)
(0.0879606 0.000755885 0)
(0.0873037 0.000918007 0)
(0.0865201 0.00113002 0)
(0.0855748 0.00141172 0)
(0.0844211 0.00179251 0)
(0.0829963 0.00231669 0)
(0.0812171 0.00305162 0)
(0.0789746 0.00409925 0)
(0.0761259 0.00561159 0)
(0.0725122 0.00781035 0)
(0.0681868 0.0109498 0)
(0.0644271 0.0148843 0)
(0.0999954 2.00031e-05 0)
(0.0999299 5.79308e-05 0)
(0.0997795 9.59382e-05 0)
(0.099571 0.00011657 0)
(0.0993474 0.00011727 0)
(0.0991403 0.000106589 0)
(0.09896 9.44041e-05 0)
(0.0988016 8.62605e-05 0)
(0.0986557 8.3187e-05 0)
(0.0985143 8.38775e-05 0)
(0.0983726 8.66041e-05 0)
(0.0982288 9.00994e-05 0)
(0.0980823 9.36898e-05 0)
(0.0979335 9.71214e-05 0)
(0.0977827 0.00010036 0)
(0.0976304 0.000103453 0)
(0.0974768 0.000106462 0)
(0.0973221 0.000109433 0)
(0.0971665 0.000112398 0)
(0.0970101 0.00011537 0)
(0.0968528 0.00011835 0)
(0.096695 0.000121328 0)
(0.0965366 0.000124288 0)
(0.0963779 0.000127206 0)
(0.0962189 0.000130055 0)
(0.0960599 0.000132808 0)
(0.0959011 0.000135437 0)
(0.0957427 0.000137915 0)
(0.095585 0.000140222 0)
(0.0954283 0.000142342 0)
(0.0952728 0.000144265 0)
(0.0951187 0.000145989 0)
(0.0949664 0.000147517 0)
(0.094816 0.000148864 0)
(0.0946676 0.00015005 0)
(0.0945216 0.000151102 0)
(0.0943779 0.000152054 0)
(0.0942367 0.000152949 0)
(0.0940979 0.000153831 0)
(0.0939615 0.000154753 0)
(0.0938276 0.000155771 0)
(0.0936958 0.000156947 0)
(0.0935662 0.000158347 0)
(0.0934384 0.000160041 0)
(0.0933122 0.000162106 0)
(0.0931872 0.000164623 0)
(0.0930632 0.000167681 0)
(0.0929397 0.000171377 0)
(0.0928162 0.000175819 0)
(0.0926922 0.000181128 0)
(0.0925672 0.000187442 0)
(0.0924404 0.000194923 0)
(0.0923112 0.000203758 0)
(0.0921787 0.000214171 0)
(0.092042 0.000226431 0)
(0.0919001 0.000240864 0)
(0.0917518 0.000257866 0)
(0.0915956 0.000277925 0)
(0.0914301 0.00030164 0)
(0.0912533 0.000329758 0)
(0.091063 0.000363211 0)
(0.0908566 0.000403167 0)
(0.090631 0.000451108 0)
(0.0903825 0.000508925 0)
(0.0901067 0.00057905 0)
(0.0897982 0.000664651 0)
(0.0894503 0.000769891 0)
(0.089055 0.000900314 0)
(0.0886024 0.00106339 0)
(0.0880801 0.00126931 0)
(0.087473 0.00153218 0)
(0.0867623 0.00187174 0)
(0.085925 0.00231587 0)
(0.0849335 0.00290423 0)
(0.0837564 0.00369315 0)
(0.0823613 0.00476151 0)
(0.0807237 0.00621532 0)
(0.0788427 0.00818465 0)
(0.076784 0.0107982 0)
(0.0748083 0.0140622 0)
(0.0736069 0.0173798 0)
(0.0999963 2.78943e-05 0)
(0.0999361 8.20803e-05 0)
(0.0997948 0.000136706 0)
(0.0995953 0.000166959 0)
(0.099378 0.000168808 0)
(0.0991733 0.000154165 0)
(0.0989926 0.000137043 0)
(0.0988325 0.000125435 0)
(0.0986848 0.000120934 0)
(0.0985421 0.000121775 0)
(0.0983998 0.000125545 0)
(0.0982559 0.000130453 0)
(0.0981099 0.000135533 0)
(0.0979618 0.000140416 0)
(0.097812 0.000145042 0)
(0.0976608 0.000149474 0)
(0.0975084 0.000153794 0)
(0.097355 0.000158066 0)
(0.0972007 0.000162332 0)
(0.0970457 0.00016661 0)
(0.0968899 0.000170902 0)
(0.0967336 0.000175194 0)
(0.0965767 0.000179462 0)
(0.0964195 0.000183673 0)
(0.0962621 0.000187788 0)
(0.0961046 0.000191769 0)
(0.0959474 0.000195576 0)
(0.0957905 0.000199172 0)
(0.0956343 0.000202529 0)
(0.095479 0.000205623 0)
(0.0953248 0.00020844 0)
(0.095172 0.000210978 0)
(0.0950208 0.000213244 0)
(0.0948713 0.000215256 0)
(0.0947239 0.000217043 0)
(0.0945786 0.000218645 0)
(0.0944354 0.000220112 0)
(0.0942946 0.000221502 0)
(0.094156 0.000222882 0)
(0.0940197 0.000224325 0)
(0.0938855 0.000225913 0)
(0.0937535 0.000227734 0)
(0.0936233 0.000229882 0)
(0.0934948 0.000232458 0)
(0.0933678 0.000235573 0)
(0.0932418 0.000239341 0)
(0.0931166 0.000243892 0)
(0.0929918 0.000249362 0)
(0.0928669 0.000255906 0)
(0.0927414 0.000263696 0)
(0.0926148 0.00027293 0)
(0.0924864 0.000283835 0)
(0.0923555 0.000296678 0)
(0.0922214 0.000311776 0)
(0.0920832 0.000329506 0)
(0.0919399 0.000350327 0)
(0.0917904 0.000374793 0)
(0.0916335 0.000403584 0)
(0.0914675 0.000437535 0)
(0.0912909 0.000477676 0)
(0.0911017 0.000525287 0)
(0.0908976 0.000581968 0)
(0.0906758 0.000649725 0)
(0.0904332 0.000731101 0)
(0.0901661 0.000829336 0)
(0.0898702 0.000948593 0)
(0.0895401 0.00109427 0)
(0.0891699 0.00127344 0)
(0.0887525 0.00149542 0)
(0.0882797 0.00177263 0)
(0.0877423 0.00212174 0)
(0.0871303 0.00256521 0)
(0.0864338 0.00313334 0)
(0.0856445 0.00386668 0)
(0.0847595 0.0048185 0)
(0.083787 0.00605568 0)
(0.0827579 0.00765429 0)
(0.081742 0.00968158 0)
(0.0808713 0.012149 0)
(0.0803658 0.014899 0)
(0.0804957 0.0173577 0)
(0.0999972 3.5369e-05 0)
(0.0999439 0.00010586 0)
(0.0998148 0.000177653 0)
(0.0996279 0.000218556 0)
(0.0994193 0.000222612 0)
(0.0992183 0.000204736 0)
(0.0990373 0.000182988 0)
(0.0988751 0.000167913 0)
(0.0987251 0.000161834 0)
(0.0985807 0.00016265 0)
(0.0984376 0.000167325 0)
(0.0982937 0.00017356 0)
(0.0981483 0.000180094 0)
(0.0980012 0.000186427 0)
(0.0978528 0.000192465 0)
(0.0977031 0.000198273 0)
(0.0975525 0.000203949 0)
(0.0974009 0.000209574 0)
(0.0972485 0.000215197 0)
(0.0970954 0.000220841 0)
(0.0969417 0.000226506 0)
(0.0967875 0.000232175 0)
(0.0966328 0.000237816 0)
(0.0964777 0.000243387 0)
(0.0963225 0.000248839 0)
(0.0961673 0.00025412 0)
(0.0960123 0.000259181 0)
(0.0958576 0.000263974 0)
(0.0957035 0.000268462 0)
(0.0955503 0.000272616 0)
(0.0953981 0.000276418 0)
(0.0952471 0.000279866 0)
(0.0950976 0.000282967 0)
(0.0949497 0.000285747 0)
(0.0948037 0.000288245 0)
(0.0946595 0.000290512 0)
(0.0945174 0.000292614 0)
(0.0943773 0.000294626 0)
(0.0942393 0.000296635 0)
(0.0941033 0.00029874 0)
(0.0939693 0.000301045 0)
(0.0938371 0.000303665 0)
(0.0937067 0.000306726 0)
(0.0935776 0.00031036 0)
(0.0934499 0.000314708 0)
(0.093323 0.000319923 0)
(0.0931968 0.000326172 0)
(0.0930707 0.000333635 0)
(0.0929445 0.000342513 0)
(0.0928176 0.000353029 0)
(0.0926895 0.000365439 0)
(0.0925596 0.000380038 0)
(0.0924273 0.000397169 0)
(0.0922919 0.000417238 0)
(0.0921525 0.000440731 0)
(0.0920083 0.000468229 0)
(0.0918583 0.000500438 0)
(0.0917013 0.000538214 0)
(0.0915361 0.000582605 0)
(0.0913611 0.000634895 0)
(0.0911747 0.000696667 0)
(0.0909751 0.000769881 0)
(0.0907599 0.000856976 0)
(0.0905269 0.000960999 0)
(0.090273 0.00108578 0)
(0.0899953 0.00123618 0)
(0.0896903 0.00141835 0)
(0.0893541 0.00164019 0)
(0.088983 0.00191183 0)
(0.088573 0.00224635 0)
(0.0881211 0.00266061 0)
(0.0876255 0.00317631 0)
(0.0870878 0.00382104 0)
(0.0865146 0.00462913 0)
(0.0859222 0.00564148 0)
(0.0853417 0.00690262 0)
(0.0848262 0.0084519 0)
(0.0844589 0.010303 0)
(0.0843557 0.0124041 0)
(0.0846492 0.0145711 0)
(0.0854161 0.016405 0)
(0.0999981 4.21607e-05 0)
(0.0999529 0.000128519 0)
(0.0998385 0.000217775 0)
(0.0996672 0.000270486 0)
(0.0994697 0.000278212 0)
(0.0992738 0.000258266 0)
(0.099093 0.000232497 0)
(0.0989286 0.000214074 0)
(0.098776 0.000206257 0)
(0.0986297 0.000206802 0)
(0.0984857 0.000212159 0)
(0.0983419 0.000219562 0)
(0.0981974 0.000227458 0)
(0.0980517 0.0002352 0)
(0.097905 0.000242643 0)
(0.0977574 0.000249844 0)
(0.0976089 0.000256908 0)
(0.0974597 0.000263924 0)
(0.0973098 0.000270948 0)
(0.0971593 0.000278005 0)
(0.0970082 0.000285094 0)
(0.0968567 0.000292194 0)
(0.0967048 0.000299265 0)
(0.0965526 0.000306256 0)
(0.0964003 0.000313107 0)
(0.0962479 0.000319757 0)
(0.0960958 0.000326144 0)
(0.095944 0.000332214 0)
(0.0957927 0.000337919 0)
(0.0956422 0.000343226 0)
(0.0954926 0.000348113 0)
(0.0953441 0.000352577 0)
(0.095197 0.000356629 0)
(0.0950513 0.000360302 0)
(0.0949071 0.000363643 0)
(0.0947647 0.000366715 0)
(0.0946241 0.000369599 0)
(0.0944852 0.00037239 0)
(0.0943482 0.000375194 0)
(0.094213 0.000378132 0)
(0.0940794 0.000381335 0)
(0.0939475 0.000384945 0)
(0.093817 0.000389115 0)
(0.0936878 0.00039401 0)
(0.0935596 0.000399804 0)
(0.0934321 0.000406686 0)
(0.0933051 0.000414861 0)
(0.0931781 0.00042455 0)
(0.0930509 0.000436 0)
(0.092923 0.000449484 0)
(0.0927938 0.000465315 0)
(0.0926629 0.00048385 0)
(0.0925297 0.000505506 0)
(0.0923936 0.000530772 0)
(0.0922538 0.00056023 0)
(0.0921096 0.000594573 0)
(0.0919602 0.000634638 0)
(0.0918045 0.000681433 0)
(0.0916416 0.000736182 0)
(0.0914702 0.000800371 0)
(0.091289 0.000875816 0)
(0.0910967 0.00096474 0)
(0.0908917 0.00106987 0)
(0.0906722 0.00119456 0)
(0.0904366 0.00134296 0)
(0.0901832 0.00152022 0)
(0.0899101 0.00173271 0)
(0.089616 0.00198837 0)
(0.0893002 0.00229705 0)
(0.0889627 0.00267097 0)
(0.0886057 0.00312517 0)
(0.0882338 0.00367787 0)
(0.0878564 0.00435071 0)
(0.0874893 0.00516821 0)
(0.0871575 0.00615605 0)
(0.0868991 0.00733677 0)
(0.0867674 0.00872104 0)
(0.0868319 0.0102921 0)
(0.0871712 0.011982 0)
(0.087851 0.0136419 0)
(0.0888742 0.0150259 0)
(0.099999 4.80187e-05 0)
(0.0999624 0.000149345 0)
(0.0998644 0.00025608 0)
(0.0997107 0.000321828 0)
(0.0995265 0.000335043 0)
(0.0993371 0.000314606 0)
(0.0991573 0.000285727 0)
(0.0989911 0.00026422 0)
(0.098836 0.000254526 0)
(0.0986879 0.000254501 0)
(0.0985432 0.000260244 0)
(0.0983997 0.000268588 0)
(0.0982563 0.000277696 0)
(0.0981124 0.000286763 0)
(0.0979679 0.000295573 0)
(0.0978227 0.000304159 0)
(0.0976769 0.000312622 0)
(0.0975305 0.000321052 0)
(0.0973836 0.000329507 0)
(0.0972362 0.000338013 0)
(0.0970884 0.000346565 0)
(0.0969402 0.000355138 0)
(0.0967916 0.000363685 0)
(0.0966429 0.000372147 0)
(0.0964941 0.000380454 0)
(0.0963453 0.000388535 0)
(0.0961966 0.000396319 0)
(0.0960483 0.000403743 0)
(0.0959005 0.000410753 0)
(0.0957533 0.00041731 0)
(0.095607 0.00042339 0)
(0.0954616 0.000428991 0)
(0.0953174 0.000434127 0)
(0.0951744 0.000438835 0)
(0.0950327 0.000443173 0)
(0.0948926 0.000447216 0)
(0.0947539 0.000451058 0)
(0.0946168 0.000454813 0)
(0.0944812 0.000458606 0)
(0.0943472 0.000462581 0)
(0.0942145 0.000466892 0)
(0.0940833 0.000471708 0)
(0.0939532 0.00047721 0)
(0.0938241 0.000483593 0)
(0.0936959 0.000491065 0)
(0.0935682 0.000499847 0)
(0.0934409 0.000510181 0)
(0.0933135 0.000522328 0)
(0.0931858 0.000536577 0)
(0.0930573 0.000553249 0)
(0.0929277 0.000572706 0)
(0.0927965 0.000595363 0)
(0.0926632 0.000621701 0)
(0.0925273 0.000652281 0)
(0.0923882 0.000687765 0)
(0.0922453 0.000728939 0)
(0.0920979 0.00077674 0)
(0.0919453 0.000832291 0)
(0.0917867 0.000896939 0)
(0.0916212 0.000972306 0)
(0.091448 0.00106034 0)
(0.0912663 0.00116341 0)
(0.091075 0.00128434 0)
(0.0908735 0.00142658 0)
(0.090661 0.00159428 0)
(0.0904371 0.00179245 0)
(0.0902019 0.00202714 0)
(0.089956 0.0023056 0)
(0.0897013 0.00263647 0)
(0.089441 0.00302997 0)
(0.0891808 0.00349794 0)
(0.0889295 0.00405377 0)
(0.0887003 0.00471189 0)
(0.0885122 0.00548672 0)
(0.0883914 0.00639043 0)
(0.0883728 0.00742907 0)
(0.0884995 0.00859616 0)
(0.0888199 0.00986344 0)
(0.08938 0.0111695 0)
(0.0902065 0.0124106 0)
(0.0912804 0.013443 0)
(0.0999998 5.27648e-05 0)
(0.0999718 0.000167773 0)
(0.0998904 0.000291717 0)
(0.0997555 0.000371712 0)
(0.099586 0.000392473 0)
(0.0994046 0.000373465 0)
(0.0992272 0.000342676 0)
(0.09906 0.000318517 0)
(0.0989031 0.00030686 0)
(0.0987535 0.000305954 0)
(0.0986084 0.000311736 0)
(0.0984655 0.000320738 0)
(0.0983235 0.000330858 0)
(0.0981817 0.000341126 0)
(0.0980397 0.000351234 0)
(0.0978974 0.000361173 0)
(0.0977548 0.000371026 0)
(0.0976117 0.000380876 0)
(0.0974683 0.000390778 0)
(0.0973244 0.000400754 0)
(0.0971803 0.000410796 0)
(0.0970359 0.000420873 0)
(0.0968913 0.000430932 0)
(0.0967465 0.000440905 0)
(0.0966017 0.000450717 0)
(0.096457 0.000460285 0)
(0.0963124 0.000469532 0)
(0.0961681 0.000478387 0)
(0.0960243 0.000486791 0)
(0.095881 0.0004947 0)
(0.0957384 0.000502091 0)
(0.0955967 0.00050896 0)
(0.0954558 0.000515326 0)
(0.0953161 0.00052123 0)
(0.0951774 0.000526739 0)
(0.09504 0.00053194 0)
(0.0949038 0.000536941 0)
(0.0947689 0.00054187 0)
(0.0946352 0.000546873 0)
(0.0945028 0.000552111 0)
(0.0943715 0.000557765 0)
(0.0942413 0.000564025 0)
(0.0941121 0.000571101 0)
(0.0939837 0.000579213 0)
(0.0938559 0.0005886 0)
(0.0937286 0.000599516 0)
(0.0936014 0.000612234 0)
(0.0934742 0.000627051 0)
(0.0933466 0.000644292 0)
(0.0932184 0.000664321 0)
(0.0930891 0.000687541 0)
(0.0929585 0.000714416 0)
(0.0928262 0.000745476 0)
(0.0926917 0.000781337 0)
(0.0925546 0.000822719 0)
(0.0924145 0.000870471 0)
(0.0922709 0.000925594 0)
(0.0921232 0.000989275 0)
(0.0919711 0.00106292 0)
(0.0918141 0.0011482 0)
(0.0916517 0.00124709 0)
(0.0914837 0.00136194 0)
(0.0913098 0.00149552 0)
(0.09113 0.0016511 0)
(0.0909447 0.00183255 0)
(0.0907546 0.00204435 0)
(0.0905613 0.00229176 0)
(0.0903669 0.00258079 0)
(0.0901753 0.00291826 0)
(0.0899916 0.00331175 0)
(0.0898235 0.0037694 0)
(0.0896812 0.00429951 0)
(0.0895787 0.00490986 0)
(0.0895342 0.00560648 0)
(0.0895703 0.00639179 0)
(0.0897143 0.00726181 0)
(0.0899964 0.00820243 0)
(0.0904466 0.00918489 0)
(0.0910883 0.0101617 0)
(0.0919289 0.0110652 0)
(0.0929474 0.0118139 0)
(0.1 5.63303e-05 0)
(0.0999802 0.000183468 0)
(0.0999147 0.00032409 0)
(0.0997984 0.000419418 0)
(0.0996443 0.000449863 0)
(0.0994724 0.000434414 0)
(0.0992988 0.000403146 0)
(0.0991322 0.000376944 0)
(0.0989744 0.000363337 0)
(0.0988241 0.000361264 0)
(0.0986791 0.000366729 0)
(0.0985372 0.000376074 0)
(0.098397 0.000386973 0)
(0.0982576 0.000398286 0)
(0.0981185 0.000409595 0)
(0.0979794 0.000420831 0)
(0.0978403 0.000432046 0)
(0.0977009 0.000443305 0)
(0.0975613 0.000454654 0)
(0.0974215 0.000466109 0)
(0.0972815 0.000477657 0)
(0.0971413 0.000489258 0)
(0.097001 0.000500856 0)
(0.0968606 0.000512374 0)
(0.0967203 0.00052373 0)
(0.09658 0.000534837 0)
(0.0964399 0.000545609 0)
(0.0963 0.000555971 0)
(0.0961606 0.00056586 0)
(0.0960216 0.00057523 0)
(0.0958832 0.000584055 0)
(0.0957454 0.000592332 0)
(0.0956084 0.000600085 0)
(0.0954723 0.000607361 0)
(0.095337 0.000614233 0)
(0.0952028 0.000620798 0)
(0.0950694 0.000627175 0)
(0.0949371 0.000633509 0)
(0.0948058 0.00063996 0)
(0.0946754 0.000646708 0)
(0.094546 0.000653953 0)
(0.0944174 0.000661908 0)
(0.0942895 0.000670804 0)
(0.0941622 0.000680888 0)
(0.0940355 0.000692423 0)
(0.093909 0.000705689 0)
(0.0937827 0.000720988 0)
(0.0936563 0.000738646 0)
(0.0935297 0.000759019 0)
(0.0934025 0.000782499 0)
(0.0932746 0.000809524 0)
(0.0931456 0.000840588 0)
(0.0930154 0.000876255 0)
(0.0928836 0.000917173 0)
(0.0927499 0.000964092 0)
(0.0926142 0.00101789 0)
(0.0924762 0.00107958 0)
(0.0923356 0.00115035 0)
(0.0921923 0.00123161 0)
(0.0920462 0.00132496 0)
(0.0918973 0.00143231 0)
(0.0917459 0.00155583 0)
(0.0915923 0.00169807 0)
(0.0914373 0.0018619 0)
(0.0912821 0.00205064 0)
(0.0911283 0.00226798 0)
(0.0909785 0.00251805 0)
(0.0908361 0.00280533 0)
(0.0907056 0.00313456 0)
(0.0905932 0.00351058 0)
(0.0905069 0.00393799 0)
(0.0904567 0.00442071 0)
(0.0904553 0.00496128 0)
(0.0905175 0.0055599 0)
(0.0906608 0.00621314 0)
(0.090904 0.00691232 0)
(0.0912662 0.00764174 0)
(0.0917636 0.00837698 0)
(0.0924066 0.00908412 0)
(0.0931937 0.00972085 0)
(0.0941077 0.0102411 0)
(0.100001 5.87662e-05 0)
(0.0999873 0.000196368 0)
(0.0999358 0.000352929 0)
(0.099837 0.000464459 0)
(0.0996984 0.000506621 0)
(0.099537 0.000496914 0)
(0.0993689 0.000466746 0)
(0.0992043 0.000439275 0)
(0.0990471 0.00042386 0)
(0.0988971 0.000420414 0)
(0.0987529 0.000425237 0)
(0.0986125 0.000434612 0)
(0.0984745 0.000446043 0)
(0.0983379 0.000458222 0)
(0.098202 0.000470615 0)
(0.0980664 0.000483074 0)
(0.097931 0.000495605 0)
(0.0977957 0.000508249 0)
(0.0976602 0.000521035 0)
(0.0975247 0.000533967 0)
(0.0973891 0.000547025 0)
(0.0972535 0.000560164 0)
(0.0971178 0.000573319 0)
(0.0969821 0.00058641 0)
(0.0968464 0.000599347 0)
(0.0967109 0.00061204 0)
(0.0965755 0.000624399 0)
(0.0964404 0.000636344 0)
(0.0963056 0.000647811 0)
(0.0961712 0.00065875 0)
(0.0960372 0.000669138 0)
(0.0959038 0.000678973 0)
(0.0957709 0.000688281 0)
(0.0956387 0.000697114 0)
(0.0955071 0.000705551 0)
(0.0953763 0.000713697 0)
(0.0952462 0.000721683 0)
(0.0951168 0.000729662 0)
(0.0949882 0.000737809 0)
(0.0948603 0.000746319 0)
(0.0947331 0.000755408 0)
(0.0946065 0.000765306 0)
(0.0944805 0.000776264 0)
(0.0943549 0.000788547 0)
(0.0942298 0.000802437 0)
(0.0941049 0.000818237 0)
(0.0939801 0.000836268 0)
(0.0938554 0.000856877 0)
(0.0937305 0.000880439 0)
(0.0936053 0.000907365 0)
(0.0934797 0.00093811 0)
(0.0933535 0.000973182 0)
(0.0932266 0.00101316 0)
(0.0930989 0.00105868 0)
(0.0929703 0.00111051 0)
(0.0928406 0.0011695 0)
(0.09271 0.00123664 0)
(0.0925784 0.00131305 0)
(0.0924459 0.00140005 0)
(0.092313 0.00149911 0)
(0.0921799 0.00161192 0)
(0.0920474 0.0017404 0)
(0.0919163 0.00188666 0)
(0.0917881 0.00205308 0)
(0.0916644 0.00224221 0)
(0.0915475 0.0024568 0)
(0.0914405 0.00269974 0)
(0.0913473 0.00297389 0)
(0.0912727 0.00328201 0)
(0.0912228 0.00362649 0)
(0.091205 0.00400903 0)
(0.0912278 0.00443028 0)
(0.0913014 0.00488926 0)
(0.0914369 0.00538279 0)
(0.0916462 0.00590468 0)
(0.0919413 0.00644509 0)
(0.0923327 0.00698982 0)
(0.0928282 0.00752001 0)
(0.0934305 0.00801253 0)
(0.0941354 0.00844135 0)
(0.0949294 0.00878039 0)
(0.100001 6.02245e-05 0)
(0.0999926 0.000206664 0)
(0.0999529 0.000378284 0)
(0.0998695 0.000506604 0)
(0.0997458 0.000562263 0)
(0.0995956 0.000560371 0)
(0.0994346 0.00053293 0)
(0.0992739 0.0005051 0)
(0.0991187 0.000488169 0)
(0.0989702 0.000483259 0)
(0.0988277 0.000487188 0)
(0.0986894 0.000496315 0)
(0.098554 0.000508038 0)
(0.0984204 0.000520902 0)
(0.098288 0.000534249 0)
(0.0981562 0.000547843 0)
(0.0980249 0.000561634 0)
(0.0978937 0.000575626 0)
(0.0977626 0.000589827 0)
(0.0976316 0.000604227 0)
(0.0975006 0.000618795 0)
(0.0973697 0.000633479 0)
(0.0972388 0.000648207 0)
(0.0971079 0.000662895 0)
(0.0969772 0.000677449 0)
(0.0968465 0.000691776 0)
(0.096716 0.000705782 0)
(0.0965858 0.000719389 0)
(0.0964558 0.000732527 0)
(0.0963261 0.000745151 0)
(0.0961967 0.000757236 0)
(0.0960677 0.000768782 0)
(0.0959391 0.000779817 0)
(0.095811 0.000790398 0)
(0.0956834 0.000800607 0)
(0.0955562 0.000810557 0)
(0.0954296 0.000820383 0)
(0.0953035 0.000830248 0)
(0.0951779 0.000840337 0)
(0.0950529 0.000850856 0)
(0.0949283 0.000862029 0)
(0.0948042 0.000874103 0)
(0.0946806 0.000887338 0)
(0.0945573 0.000902014 0)
(0.0944344 0.000918427 0)
(0.0943117 0.00093689 0)
(0.0941893 0.000957736 0)
(0.094067 0.00098132 0)
(0.0939448 0.00100803 0)
(0.0938226 0.00103827 0)
(0.0937005 0.0010725 0)
(0.0935783 0.00111122 0)
(0.093456 0.00115499 0)
(0.0933338 0.00120443 0)
(0.0932117 0.00126027 0)
(0.0930897 0.00132328 0)
(0.0929681 0.00139438 0)
(0.0928473 0.00147458 0)
(0.0927275 0.00156502 0)
(0.0926095 0.00166696 0)
(0.0924939 0.00178181 0)
(0.0923818 0.00191108 0)
(0.0922744 0.00205643 0)
(0.0921735 0.00221956 0)
(0.0920811 0.00240226 0)
(0.0919998 0.00260628 0)
(0.0919328 0.00283328 0)
(0.0918839 0.0030847 0)
(0.0918577 0.00336159 0)
(0.0918595 0.00366444 0)
(0.0918954 0.00399287 0)
(0.0919723 0.00434542 0)
(0.0920973 0.00471917 0)
(0.0922782 0.0051094 0)
(0.0925224 0.0055093 0)
(0.0928365 0.00590973 0)
(0.0932257 0.00629916 0)
(0.0936926 0.00666384 0)
(0.0942364 0.00698844 0)
(0.094852 0.00725709 0)
(0.0955294 0.00745493 0)
(0.100001 6.09182e-05 0)
(0.0999963 0.000214731 0)
(0.0999659 0.000400467 0)
(0.0998957 0.000545868 0)
(0.0997856 0.000616443 0)
(0.099647 0.000624205 0)
(0.0994943 0.000601067 0)
(0.0993389 0.000573877 0)
(0.0991873 0.000555865 0)
(0.0990416 0.000549541 0)
(0.0989016 0.000552424 0)
(0.098766 0.000561087 0)
(0.0986337 0.000572893 0)
(0.0985035 0.000586271 0)
(0.0983748 0.000600442 0)
(0.098247 0.000615078 0)
(0.0981198 0.000630064 0)
(0.097993 0.000645362 0)
(0.0978665 0.000660952 0)
(0.0977401 0.000676806 0)
(0.0976139 0.000692881 0)
(0.0974877 0.000709115 0)
(0.0973617 0.000725432 0)
(0.0972357 0.000741742 0)
(0.0971099 0.000757951 0)
(0.0969842 0.000773961 0)
(0.0968587 0.00078968 0)
(0.0967333 0.000805027 0)
(0.0966081 0.000819936 0)
(0.0964832 0.000834361 0)
(0.0963584 0.000848278 0)
(0.096234 0.00086169 0)
(0.0961098 0.000874625 0)
(0.0959859 0.000887143 0)
(0.0958623 0.000899329 0)
(0.095739 0.000911297 0)
(0.0956161 0.000923188 0)
(0.0954935 0.000935168 0)
(0.0953713 0.000947427 0)
(0.0952495 0.000960177 0)
(0.095128 0.00097365 0)
(0.0950069 0.000988096 0)
(0.0948861 0.00100378 0)
(0.0947657 0.001021 0)
(0.0946457 0.00104003 0)
(0.094526 0.00106121 0)
(0.0944067 0.00108486 0)
(0.0942878 0.00111134 0)
(0.0941692 0.00114102 0)
(0.0940511 0.0011743 0)
(0.0939335 0.00121161 0)
(0.0938165 0.00125342 0)
(0.0937002 0.00130025 0)
(0.0935848 0.00135268 0)
(0.0934706 0.00141133 0)
(0.0933578 0.0014769 0)
(0.0932468 0.00155016 0)
(0.0931381 0.00163195 0)
(0.0930325 0.0017232 0)
(0.0929306 0.0018249 0)
(0.0928335 0.00193809 0)
(0.0927424 0.00206386 0)
(0.0926588 0.00220332 0)
(0.0925845 0.00235755 0)
(0.0925218 0.00252754 0)
(0.0924731 0.00271415 0)
(0.0924416 0.00291798 0)
(0.0924305 0.0031393 0)
(0.0924439 0.00337791 0)
(0.092486 0.00363297 0)
(0.0925614 0.00390284 0)
(0.0926751 0.00418494 0)
(0.092832 0.00447556 0)
(0.0930368 0.00476971 0)
(0.0932936 0.00506109 0)
(0.0936056 0.00534209 0)
(0.0939746 0.00560393 0)
(0.0944007 0.00583698 0)
(0.0948815 0.00603127 0)
(0.0954122 0.00617715 0)
(0.0959854 0.00626614 0)
(0.100001 6.10752e-05 0)
(0.0999986 0.000221036 0)
(0.0999751 0.000419952 0)
(0.0999156 0.000582455 0)
(0.0998178 0.000668965 0)
(0.0996906 0.000687906 0)
(0.099547 0.000670519 0)
(0.0993984 0.000644999 0)
(0.0992518 0.000626463 0)
(0.0991099 0.000618913 0)
(0.0989733 0.000620714 0)
(0.0988411 0.000628777 0)
(0.0987123 0.000640506 0)
(0.0985859 0.00065425 0)
(0.0984611 0.000669125 0)
(0.0983375 0.000684712 0)
(0.0982146 0.000700828 0)
(0.0980923 0.000717387 0)
(0.0979703 0.000734338 0)
(0.0978486 0.000751633 0)
(0.0977272 0.000769212 0)
(0.0976059 0.000787005 0)
(0.0974847 0.000804929 0)
(0.0973637 0.000822891 0)
(0.0972428 0.000840795 0)
(0.097122 0.000858543 0)
(0.0970014 0.000876043 0)
(0.0968808 0.000893216 0)
(0.0967605 0.000909998 0)
(0.0966403 0.000926341 0)
(0.0965202 0.000942226 0)
(0.0964002 0.000957654 0)
(0.0962805 0.000972657 0)
(0.0961609 0.000987291 0)
(0.0960414 0.00100164 0)
(0.0959222 0.00101583 0)
(0.0958031 0.00102999 0)
(0.0956843 0.00104428 0)
(0.0955658 0.00105891 0)
(0.0954475 0.00107408 0)
(0.0953295 0.00109002 0)
(0.0952119 0.00110698 0)
(0.0950946 0.00112523 0)
(0.0949777 0.00114505 0)
(0.0948613 0.00116673 0)
(0.0947453 0.00119059 0)
(0.09463 0.00121693 0)
(0.0945153 0.00124609 0)
(0.0944014 0.00127842 0)
(0.0942884 0.00131429 0)
(0.0941765 0.00135409 0)
(0.0940659 0.00139824 0)
(0.0939567 0.00144719 0)
(0.0938495 0.00150142 0)
(0.0937444 0.00156145 0)
(0.0936419 0.00162785 0)
(0.0935426 0.00170121 0)
(0.0934473 0.00178218 0)
(0.0933565 0.00187142 0)
(0.0932714 0.00196961 0)
(0.0931929 0.00207743 0)
(0.0931226 0.00219552 0)
(0.0930618 0.00232447 0)
(0.0930125 0.00246476 0)
(0.0929766 0.00261671 0)
(0.0929565 0.00278042 0)
(0.0929548 0.00295569 0)
(0.0929744 0.00314196 0)
(0.0930183 0.00333817 0)
(0.0930897 0.00354274 0)
(0.093192 0.0037534 0)
(0.0933282 0.00396718 0)
(0.0935016 0.00418033 0)
(0.0937146 0.00438829 0)
(0.0939691 0.00458578 0)
(0.0942664 0.00476684 0)
(0.0946064 0.00492509 0)
(0.0949878 0.00505398 0)
(0.0954081 0.0051471 0)
(0.0958631 0.00519865 0)
(0.0963471 0.00520379 0)
(0.100001 6.09038e-05 0)
(0.0999999 0.000226061 0)
(0.0999812 0.000437284 0)
(0.0999303 0.00061669 0)
(0.0998433 0.000719775 0)
(0.0997269 0.000751075 0)
(0.0995929 0.000740698 0)
(0.099452 0.000717858 0)
(0.0993114 0.000699438 0)
(0.0991745 0.00069097 0)
(0.0990421 0.000691769 0)
(0.0989139 0.000699182 0)
(0.098789 0.000710732 0)
(0.0986666 0.00072473 0)
(0.098546 0.000740209 0)
(0.0984267 0.000756666 0)
(0.0983082 0.000773851 0)
(0.0981905 0.00079163 0)
(0.0980732 0.000809918 0)
(0.0979562 0.000828641 0)
(0.0978395 0.000847726 0)
(0.097723 0.000867091 0)
(0.0976067 0.000886647 0)
(0.0974906 0.000906297 0)
(0.0973746 0.000925944 0)
(0.0972587 0.00094549 0)
(0.0971429 0.000964845 0)
(0.0970272 0.000983933 0)
(0.0969115 0.00100269 0)
(0.096796 0.00102107 0)
(0.0966805 0.00103905 0)
(0.0965651 0.00105664 0)
(0.0964498 0.00107386 0)
(0.0963345 0.00109077 0)
(0.0962193 0.00110746 0)
(0.0961043 0.00112403 0)
(0.0959893 0.00114062 0)
(0.0958745 0.0011574 0)
(0.09576 0.00117454 0)
(0.0956456 0.00119226 0)
(0.0955316 0.00121077 0)
(0.0954179 0.00123032 0)
(0.0953047 0.00125117 0)
(0.0951919 0.00127358 0)
(0.0950798 0.00129782 0)
(0.0949684 0.00132419 0)
(0.0948579 0.00135297 0)
(0.0947484 0.00138447 0)
(0.0946401 0.00141898 0)
(0.0945333 0.00145684 0)
(0.0944281 0.00149836 0)
(0.0943249 0.0015439 0)
(0.094224 0.00159381 0)
(0.0941258 0.00164846 0)
(0.0940309 0.00170824 0)
(0.0939397 0.00177356 0)
(0.093853 0.00184483 0)
(0.0937714 0.00192245 0)
(0.0936959 0.00200683 0)
(0.0936275 0.00209832 0)
(0.0935672 0.00219725 0)
(0.0935165 0.00230386 0)
(0.0934768 0.00241827 0)
(0.0934497 0.00254046 0)
(0.093437 0.00267022 0)
(0.0934408 0.00280709 0)
(0.093463 0.00295031 0)
(0.093506 0.0030988 0)
(0.0935719 0.00325106 0)
(0.093663 0.00340516 0)
(0.0937814 0.00355867 0)
(0.093929 0.00370871 0)
(0.0941074 0.00385187 0)
(0.0943179 0.00398434 0)
(0.0945611 0.00410193 0)
(0.0948368 0.00420019 0)
(0.0951443 0.00427464 0)
(0.0954819 0.00432089 0)
(0.0958472 0.00433492 0)
(0.0962367 0.00431326 0)
(0.0966463 0.00425318 0)
(0.100001 6.0573e-05 0)
(0.1 0.000230241 0)
(0.099985 0.000453003 0)
(0.0999408 0.000648961 0)
(0.099863 0.000768928 0)
(0.0997568 0.000813429 0)
(0.0996324 0.000811106 0)
(0.0994998 0.000791883 0)
(0.0993661 0.000774259 0)
(0.0992348 0.000765273 0)
(0.0991074 0.00076525 0)