/*--------------------------------*- C++ -*----------------------------------*\
| =========                 |                                                 |
| \\      /  F ield         | OpenFOAM: The Open Source CFD Toolbox           |
|  \\    /   O peration     | Version:  4.1                                   |
|   \\  /    A nd           | Web:      www.OpenFOAM.org                      |
|    \\/     M anipulation  |                                                 |
\*---------------------------------------------------------------------------*/
FoamFile
{
    version     2.0;
    format      ascii;
    class       surfaceScalarField;
    location    "0.2";
    object      phi;
}
// * * * * * * * * * * * * * * * * * * * * * * * * * * * * * * * * * * * * * //

dimensions      [1 0 -1 0 0 0 0];

internalField   nonuniform List<scalar> 
23692
(
1.16096e-05
2.53851e-08
1.15682e-05
4.13138e-08
1.15301e-05
3.81821e-08
1.15033e-05
2.67452e-08
1.14848e-05
1.85023e-08
1.14692e-05
1.55877e-08
1.14535e-05
1.57706e-08
1.14366e-05
1.69093e-08
1.14186e-05
1.79822e-08
1.13998e-05
1.87273e-08
1.13807e-05
1.91833e-08
1.13612e-05
1.94508e-08
1.13416e-05
1.96137e-08
1.13219e-05
1.97263e-08
1.13021e-05
1.98176e-08
1.12822e-05
1.99038e-08
1.12622e-05
1.99909e-08
1.12421e-05
2.00803e-08
1.12219e-05
2.01707e-08
1.12017e-05
2.02594e-08
1.11813e-05
2.03436e-08
1.11609e-05
2.04225e-08
1.11404e-05
2.04943e-08
1.11199e-05
2.05596e-08
1.10993e-05
2.06188e-08
1.10787e-05
2.06727e-08
1.1058e-05
2.07225e-08
1.10373e-05
2.07697e-08
1.10165e-05
2.08156e-08
1.09957e-05
2.08616e-08
1.09749e-05
2.09092e-08
1.0954e-05
2.09592e-08
1.09332e-05
2.10124e-08
1.09122e-05
2.10693e-08
1.08913e-05
2.11295e-08
1.08703e-05
2.1192e-08
1.08493e-05
2.1256e-08
1.08282e-05
2.13204e-08
1.08072e-05
2.13846e-08
1.07861e-05
2.14479e-08
1.07649e-05
2.15105e-08
1.07438e-05
2.15722e-08
1.07227e-05
2.16332e-08
1.07016e-05
2.16943e-08
1.06804e-05
2.17568e-08
1.06593e-05
2.1822e-08
1.06381e-05
2.18921e-08
1.06169e-05
2.19698e-08
1.05958e-05
2.20582e-08
1.05745e-05
2.21617e-08
1.05533e-05
2.22851e-08
1.05319e-05
2.24349e-08
1.05105e-05
2.2619e-08
1.04889e-05
2.28469e-08
1.0467e-05
2.31301e-08
1.0445e-05
2.34827e-08
1.04225e-05
2.39223e-08
1.03996e-05
2.44701e-08
1.0376e-05
2.51526e-08
1.03517e-05
2.60026e-08
1.03264e-05
2.70615e-08
1.02998e-05
2.83816e-08
1.02716e-05
3.00296e-08
1.02415e-05
3.20918e-08
1.02088e-05
3.46807e-08
1.01729e-05
3.79454e-08
1.0133e-05
4.20859e-08
1.00877e-05
4.73749e-08
1.00358e-05
5.41902e-08
9.97495e-06
6.30647e-08
9.90249e-06
7.47644e-08
9.81441e-06
9.04108e-08
9.70511e-06
1.11678e-07
9.5664e-06
1.41107e-07
9.38622e-06
1.82619e-07
9.14634e-06
2.42331e-07
8.81901e-06
3.29819e-07
8.36133e-06
4.60176e-07
7.70515e-06
6.58692e-07
6.73552e-06
9.72164e-07
1.52421e-06
5.21385e-06
1.24239e-05
5.13839e-08
1.23806e-05
8.46266e-08
1.23401e-05
7.87243e-08
1.23113e-05
5.54786e-08
1.22913e-05
3.8585e-08
1.22743e-05
3.2526e-08
1.22573e-05
3.28089e-08
1.22391e-05
3.50761e-08
1.22199e-05
3.72343e-08
1.21998e-05
3.87397e-08
1.21794e-05
3.96628e-08
1.21586e-05
4.02067e-08
1.21377e-05
4.05391e-08
1.21166e-05
4.07686e-08
1.20955e-05
4.09563e-08
1.20743e-05
4.11336e-08
1.2053e-05
4.13133e-08
1.20315e-05
4.14977e-08
1.201e-05
4.16834e-08
1.19884e-05
4.18655e-08
1.19667e-05
4.20396e-08
1.1945e-05
4.22019e-08
1.19231e-05
4.23506e-08
1.19012e-05
4.24857e-08
1.18793e-05
4.26083e-08
1.18573e-05
4.27205e-08
1.18352e-05
4.28247e-08
1.18131e-05
4.29234e-08
1.1791e-05
4.30197e-08
1.17688e-05
4.31164e-08
1.17466e-05
4.32163e-08
1.17243e-05
4.33216e-08
1.1702e-05
4.34335e-08
1.16797e-05
4.35527e-08
1.16573e-05
4.36787e-08
1.16349e-05
4.38099e-08
1.16125e-05
4.39437e-08
1.159e-05
4.40783e-08
1.15676e-05
4.42123e-08
1.1545e-05
4.43446e-08
1.15225e-05
4.44751e-08
1.14999e-05
4.46038e-08
1.14774e-05
4.47313e-08
1.14548e-05
4.4859e-08
1.14322e-05
4.49893e-08
1.14097e-05
4.51252e-08
1.13871e-05
4.52712e-08
1.13645e-05
4.54325e-08
1.13418e-05
4.56159e-08
1.13192e-05
4.58299e-08
1.12965e-05
4.6085e-08
1.12737e-05
4.63941e-08
1.12508e-05
4.67732e-08
1.12277e-05
4.72416e-08
1.12044e-05
4.78228e-08
1.11808e-05
4.85456e-08
1.11569e-05
4.94452e-08
1.11324e-05
5.05649e-08
1.11073e-05
5.19579e-08
1.10814e-05
5.36901e-08
1.10545e-05
5.58448e-08
1.10263e-05
5.85261e-08
1.09965e-05
6.18667e-08
1.09646e-05
6.60372e-08
1.09302e-05
7.12589e-08
1.08925e-05
7.78225e-08
1.08507e-05
8.61149e-08
1.08037e-05
9.66579e-08
1.07501e-05
1.10166e-07
1.0688e-05
1.27631e-07
1.06147e-05
1.50454e-07
1.0527e-05
1.80641e-07
1.04201e-05
2.21103e-07
1.02877e-05
2.76112e-07
1.0121e-05
3.51959e-07
9.90806e-06
4.57851e-07
9.63364e-06
6.06887e-07
9.27981e-06
8.16678e-07
8.83212e-06
1.10907e-06
8.30556e-06
1.50143e-06
1.94423e-06
7.88825e-06
1.32965e-05
7.68464e-08
1.32523e-05
1.28818e-07
1.321e-05
1.21092e-07
1.3179e-05
8.6482e-08
1.31567e-05
6.08017e-08
1.3138e-05
5.12935e-08
1.31193e-05
5.14299e-08
1.30997e-05
5.46788e-08
1.30791e-05
5.78494e-08
1.30578e-05
6.0084e-08
1.3036e-05
6.14638e-08
1.30139e-05
6.22817e-08
1.29917e-05
6.2785e-08
1.29693e-05
6.31351e-08
1.29468e-05
6.34231e-08
1.29243e-05
6.36955e-08
1.29016e-05
6.39716e-08
1.28789e-05
6.42549e-08
1.2856e-05
6.45405e-08
1.28331e-05
6.48207e-08
1.281e-05
6.50886e-08
1.27869e-05
6.53391e-08
1.27637e-05
6.55692e-08
1.27404e-05
6.57787e-08
1.27171e-05
6.597e-08
1.26937e-05
6.61463e-08
1.26703e-05
6.63103e-08
1.26468e-05
6.64667e-08
1.26232e-05
6.66198e-08
1.25997e-05
6.67741e-08
1.25761e-05
6.69337e-08
1.25524e-05
6.71015e-08
1.25287e-05
6.72793e-08
1.2505e-05
6.74682e-08
1.24812e-05
6.76673e-08
1.24573e-05
6.78738e-08
1.24335e-05
6.80844e-08
1.24096e-05
6.82958e-08
1.23856e-05
6.85061e-08
1.23617e-05
6.87134e-08
1.23377e-05
6.89175e-08
1.23137e-05
6.91186e-08
1.22896e-05
6.93175e-08
1.22656e-05
6.95166e-08
1.22416e-05
6.97193e-08
1.22176e-05
6.99304e-08
1.21935e-05
7.01565e-08
1.21695e-05
7.04061e-08
1.21454e-05
7.06892e-08
1.21213e-05
7.10187e-08
1.20971e-05
7.14105e-08
1.20729e-05
7.18846e-08
1.20485e-05
7.24646e-08
1.2024e-05
7.31802e-08
1.19992e-05
7.40668e-08
1.19742e-05
7.51675e-08
1.19488e-05
7.65353e-08
1.19229e-05
7.82346e-08
1.18963e-05
8.03448e-08
1.1869e-05
8.29639e-08
1.18406e-05
8.62141e-08
1.18109e-05
9.02484e-08
1.17797e-05
9.52599e-08
1.17464e-05
1.01495e-07
1.17107e-05
1.09269e-07
1.16719e-05
1.18995e-07
1.16292e-05
1.3121e-07
1.15817e-05
1.46631e-07
1.15282e-05
1.66219e-07
1.14671e-05
1.91277e-07
1.13966e-05
2.23595e-07
1.13143e-05
2.6565e-07
1.12172e-05
3.20887e-07
1.11019e-05
3.94099e-07
1.09648e-05
4.9188e-07
1.08024e-05
6.23014e-07
1.06138e-05
7.98382e-07
1.04039e-05
1.0294e-06
1.0193e-05
1.32289e-06
1.00326e-05
1.66467e-06
1.97423e-06
1.00055e-05
1.42314e-05
1.00608e-07
1.41878e-05
1.72412e-07
1.41442e-05
1.64661e-07
1.41107e-05
1.19982e-07
1.40858e-05
8.57199e-08
1.40647e-05
7.24091e-08
1.40441e-05
7.19793e-08
1.40229e-05
7.59093e-08
1.40008e-05
7.99222e-08
1.39781e-05
8.28008e-08
1.3955e-05
8.45992e-08
1.39316e-05
8.56765e-08
1.3908e-05
8.63458e-08
1.38843e-05
8.68168e-08
1.38605e-05
8.72068e-08
1.38367e-05
8.75773e-08
1.38127e-05
8.79531e-08
1.37886e-05
8.83386e-08
1.37644e-05
8.8727e-08
1.37401e-05
8.91085e-08
1.37158e-05
8.94737e-08
1.36913e-05
8.98163e-08
1.36668e-05
9.01322e-08
1.36421e-05
9.04214e-08
1.36175e-05
9.06869e-08
1.35927e-05
9.09333e-08
1.35679e-05
9.1165e-08
1.3543e-05
9.13873e-08
1.35181e-05
9.1606e-08
1.34932e-05
9.18273e-08
1.34681e-05
9.20557e-08
1.34431e-05
9.22956e-08
1.3418e-05
9.25487e-08
1.33928e-05
9.28167e-08
1.33676e-05
9.30975e-08
1.33423e-05
9.33874e-08
1.3317e-05
9.36822e-08
1.32917e-05
9.39773e-08
1.32663e-05
9.42699e-08
1.32409e-05
9.45576e-08
1.32154e-05
9.48401e-08
1.319e-05
9.51175e-08
1.31645e-05
9.53911e-08
1.3139e-05
9.56642e-08
1.31136e-05
9.59411e-08
1.30881e-05
9.62286e-08
1.30626e-05
9.65356e-08
1.30371e-05
9.68733e-08
1.30116e-05
9.72553e-08
1.29861e-05
9.7699e-08
1.29605e-05
9.82255e-08
1.29349e-05
9.88612e-08
1.29091e-05
9.96382e-08
1.28832e-05
1.00595e-07
1.28571e-05
1.01779e-07
1.28307e-05
1.03248e-07
1.2804e-05
1.05069e-07
1.27767e-05
1.07328e-07
1.27489e-05
1.10127e-07
1.27203e-05
1.13593e-07
1.26908e-05
1.17883e-07
1.26601e-05
1.23189e-07
1.26278e-05
1.29756e-07
1.25938e-05
1.37887e-07
1.25576e-05
1.47972e-07
1.25186e-05
1.60504e-07
1.24762e-05
1.76122e-07
1.24298e-05
1.95652e-07
1.23786e-05
2.20175e-07
1.23215e-05
2.51113e-07
1.22575e-05
2.90339e-07
1.21857e-05
3.40332e-07
1.21051e-05
4.04353e-07
1.20155e-05
4.86628e-07
1.19179e-05
5.92468e-07
1.18158e-05
7.28106e-07
1.17174e-05
8.99813e-07
1.16384e-05
1.11142e-06
1.16056e-05
1.35875e-06
1.16551e-05
1.6183e-06
1.82893e-06
1.18034e-05
1.52326e-05
1.21593e-07
1.51911e-05
2.13956e-07
1.51471e-05
2.08703e-07
1.5111e-05
1.56064e-07
1.50829e-05
1.13807e-07
1.5059e-05
9.63437e-08
1.50361e-05
9.47878e-08
1.50131e-05
9.89588e-08
1.49895e-05
1.03545e-07
1.49653e-05
1.06926e-07
1.49409e-05
1.09074e-07
1.49162e-05
1.1038e-07
1.48913e-05
1.11204e-07
1.48663e-05
1.11792e-07
1.48413e-05
1.12285e-07
1.48161e-05
1.12755e-07
1.47908e-05
1.13231e-07
1.47654e-05
1.13721e-07
1.474e-05
1.14213e-07
1.47144e-05
1.14698e-07
1.46887e-05
1.15163e-07
1.46629e-05
1.15602e-07
1.46371e-05
1.16008e-07
1.46111e-05
1.16383e-07
1.45851e-05
1.1673e-07
1.4559e-05
1.17055e-07
1.45329e-05
1.17363e-07
1.45067e-05
1.17661e-07
1.44804e-05
1.17957e-07
1.44541e-05
1.18257e-07
1.44277e-05
1.18567e-07
1.44012e-05
1.1889e-07
1.43747e-05
1.1923e-07
1.43481e-05
1.19587e-07
1.43215e-05
1.1996e-07
1.42948e-05
1.20342e-07
1.42681e-05
1.20728e-07
1.42413e-05
1.21114e-07
1.42145e-05
1.21494e-07
1.41876e-05
1.21866e-07
1.41607e-05
1.22229e-07
1.41339e-05
1.22585e-07
1.4107e-05
1.22933e-07
1.40801e-05
1.23279e-07
1.40532e-05
1.23628e-07
1.40263e-05
1.23987e-07
1.39994e-05
1.2437e-07
1.39726e-05
1.24788e-07
1.39457e-05
1.2526e-07
1.39188e-05
1.25806e-07
1.38919e-05
1.26453e-07
1.38649e-05
1.27234e-07
1.38379e-05
1.28188e-07
1.38108e-05
1.29362e-07
1.37834e-05
1.30814e-07
1.37559e-05
1.32612e-07
1.3728e-05
1.34841e-07
1.36997e-05
1.376e-07
1.36709e-05
1.41011e-07
1.36415e-05
1.45225e-07
1.36112e-05
1.50422e-07
1.35799e-05
1.56827e-07
1.35474e-05
1.64715e-07
1.35134e-05
1.74426e-07
1.34775e-05
1.86388e-07
1.34396e-05
2.01131e-07
1.33991e-05
2.19324e-07
1.33558e-05
2.41808e-07
1.33092e-05
2.69645e-07
1.3259e-05
3.04173e-07
1.32053e-05
3.47072e-07
1.31482e-05
4.00436e-07
1.30888e-05
4.66819e-07
1.30293e-05
5.49244e-07
1.29739e-05
6.51053e-07
1.29298e-05
7.75456e-07
1.29083e-05
9.24465e-07
1.29262e-05
1.09674e-06
1.30044e-05
1.28387e-06
1.3161e-05
1.46492e-06
1.60142e-06
1.33918e-05
1.63046e-05
1.39042e-07
1.62663e-05
2.52244e-07
1.62226e-05
2.52465e-07
1.6184e-05
1.94599e-07
1.61525e-05
1.45316e-07
1.61254e-05
1.23432e-07
1.61001e-05
1.2012e-07
1.60751e-05
1.2399e-07
1.60498e-05
1.28801e-07
1.60243e-05
1.3249e-07
1.59984e-05
1.3489e-07
1.59724e-05
1.36379e-07
1.59463e-05
1.37337e-07
1.59201e-05
1.38034e-07
1.58937e-05
1.38626e-07
1.58673e-05
1.39195e-07
1.58408e-05
1.39773e-07
1.58141e-05
1.40366e-07
1.57874e-05
1.40964e-07
1.57605e-05
1.41553e-07
1.57336e-05
1.4212e-07
1.57065e-05
1.42657e-07
1.56794e-05
1.43159e-07
1.56522e-05
1.43626e-07
1.56249e-05
1.44062e-07
1.55975e-05
1.44476e-07
1.55701e-05
1.44872e-07
1.55425e-05
1.45259e-07
1.55149e-05
1.45646e-07
1.54872e-05
1.46038e-07
1.54595e-05
1.46443e-07
1.54317e-05
1.46865e-07
1.54038e-05
1.47305e-07
1.53758e-05
1.47763e-07
1.53478e-05
1.48237e-07
1.53197e-05
1.4872e-07
1.52915e-05
1.49205e-07
1.52633e-05
1.49686e-07
1.52351e-05
1.50157e-07
1.52068e-05
1.50616e-07
1.51785e-05
1.5106e-07
1.51503e-05
1.51491e-07
1.5122e-05
1.5191e-07
1.50937e-05
1.52322e-07
1.50654e-05
1.52733e-07
1.50372e-05
1.53154e-07
1.5009e-05
1.53597e-07
1.49808e-05
1.54079e-07
1.49527e-05
1.5462e-07
1.49245e-05
1.55245e-07
1.48964e-05
1.55984e-07
1.48683e-05
1.56875e-07
1.48401e-05
1.57965e-07
1.48119e-05
1.59307e-07
1.47835e-05
1.60967e-07
1.4755e-05
1.63024e-07
1.47263e-05
1.65571e-07
1.46973e-05
1.68721e-07
1.4668e-05
1.72609e-07
1.46381e-05
1.77398e-07
1.46076e-05
1.83285e-07
1.45765e-05
1.90506e-07
1.45444e-05
1.99349e-07
1.45114e-05
2.10164e-07
1.44772e-05
2.23376e-07
1.44416e-05
2.39501e-07
1.44047e-05
2.59168e-07
1.43664e-05
2.83141e-07
1.43267e-05
3.12337e-07
1.42862e-05
3.47855e-07
1.42454e-05
3.90988e-07
1.42059e-05
4.43218e-07
1.41698e-05
5.06178e-07
1.41408e-05
5.81537e-07
1.41244e-05
6.70753e-07
1.41287e-05
7.74592e-07
1.41643e-05
8.92285e-07
1.42443e-05
1.02018e-06
1.43818e-05
1.14987e-06
1.45839e-05
1.2663e-06
1.34755e-06
1.48412e-05
1.74518e-05
1.52641e-07
1.74175e-05
2.86486e-07
1.73747e-05
2.95253e-07
1.73341e-05
2.35233e-07
1.72992e-05
1.80219e-07
1.72688e-05
1.53804e-07
1.72408e-05
1.48129e-07
1.72137e-05
1.5112e-07
1.71867e-05
1.55758e-07
1.71597e-05
1.59523e-07
1.71325e-05
1.62051e-07
1.71052e-05
1.6366e-07
1.70779e-05
1.64722e-07
1.70504e-05
1.65515e-07
1.70228e-05
1.66201e-07
1.69951e-05
1.66865e-07
1.69674e-05
1.67542e-07
1.69395e-05
1.68238e-07
1.69115e-05
1.68941e-07
1.68835e-05
1.69634e-07
1.68553e-05
1.70305e-07
1.6827e-05
1.70945e-07
1.67987e-05
1.71547e-07
1.67702e-05
1.72114e-07
1.67416e-05
1.7265e-07
1.6713e-05
1.73163e-07
1.66843e-05
1.73661e-07
1.66555e-05
1.74152e-07
1.66265e-05
1.74645e-07
1.65975e-05
1.75146e-07
1.65685e-05
1.75662e-07
1.65393e-05
1.76197e-07
1.651e-05
1.7675e-07
1.64807e-05
1.77322e-07
1.64513e-05
1.77907e-07
1.64218e-05
1.78499e-07
1.63923e-05
1.79088e-07
1.63627e-05
1.79667e-07
1.63331e-05
1.80231e-07
1.63034e-05
1.80774e-07
1.62738e-05
1.81295e-07
1.62441e-05
1.81794e-07
1.62145e-05
1.82274e-07
1.61849e-05
1.82739e-07
1.61553e-05
1.83197e-07
1.61258e-05
1.83658e-07
1.60964e-05
1.84138e-07
1.6067e-05
1.84654e-07
1.60377e-05
1.85229e-07
1.60084e-05
1.85891e-07
1.59792e-05
1.86674e-07
1.59501e-05
1.87619e-07
1.59209e-05
1.88778e-07
1.58919e-05
1.90209e-07
1.58628e-05
1.91984e-07
1.58336e-05
1.94187e-07
1.58044e-05
1.96917e-07
1.57751e-05
2.00292e-07
1.57456e-05
2.04453e-07
1.57159e-05
2.09565e-07
1.5686e-05
2.15826e-07
1.56556e-05
2.2347e-07
1.5625e-05
2.32773e-07
1.55939e-05
2.44063e-07
1.55625e-05
2.57727e-07
1.55308e-05
2.74218e-07
1.5499e-05
2.94066e-07
1.54674e-05
3.17882e-07
1.54367e-05
3.46361e-07
1.54076e-05
3.8027e-07
1.53815e-05
4.20435e-07
1.53604e-05
4.67685e-07
1.53473e-05
5.22772e-07
1.53461e-05
5.86222e-07
1.53624e-05
6.58108e-07
1.54029e-05
7.37689e-07
1.54759e-05
8.22912e-07
1.55899e-05
9.09761e-07
1.57519e-05
9.91593e-07
1.5963e-05
1.05884e-06
1.09988e-06
1.62144e-05
1.86788e-05
1.62516e-07
1.8649e-05
3.16363e-07
1.86077e-05
3.36505e-07
1.85655e-05
2.77434e-07
1.85275e-05
2.18216e-07
1.84939e-05
1.87373e-07
1.84632e-05
1.78838e-07
1.8434e-05
1.80401e-07
1.84053e-05
1.8446e-07
1.83767e-05
1.88047e-07
1.83482e-05
1.90561e-07
1.83197e-05
1.92213e-07
1.82911e-05
1.9334e-07
1.82624e-05
1.94208e-07
1.82336e-05
1.94977e-07
1.82047e-05
1.95732e-07
1.81758e-05
1.96505e-07
1.81467e-05
1.97302e-07
1.81175e-05
1.98107e-07
1.80883e-05
1.98906e-07
1.80589e-05
1.99683e-07
1.80295e-05
2.00429e-07
1.79999e-05
2.01139e-07
1.79702e-05
2.01814e-07
1.79404e-05
2.02461e-07
1.79106e-05
2.03087e-07
1.78806e-05
2.03702e-07
1.78505e-05
2.04313e-07
1.78203e-05
2.04928e-07
1.779e-05
2.05555e-07
1.77596e-05
2.06199e-07
1.77291e-05
2.06861e-07
1.76985e-05
2.07542e-07
1.76678e-05
2.08238e-07
1.76371e-05
2.08943e-07
1.76063e-05
2.09648e-07
1.75754e-05
2.10345e-07
1.75444e-05
2.11023e-07
1.75135e-05
2.11675e-07
1.74825e-05
2.12297e-07
1.74515e-05
2.12885e-07
1.74206e-05
2.1344e-07
1.73897e-05
2.13963e-07
1.73588e-05
2.14459e-07
1.7328e-05
2.14936e-07
1.72973e-05
2.15406e-07
1.72667e-05
2.15885e-07
1.72363e-05
2.16391e-07
1.72059e-05
2.16948e-07
1.71757e-05
2.17587e-07
1.71456e-05
2.18344e-07
1.71156e-05
2.19263e-07
1.70858e-05
2.20395e-07
1.70562e-05
2.21803e-07
1.70266e-05
2.2356e-07
1.69972e-05
2.2575e-07
1.69679e-05
2.28474e-07
1.69388e-05
2.31847e-07
1.69097e-05
2.36007e-07
1.68808e-05
2.4111e-07
1.6852e-05
2.4734e-07
1.68234e-05
2.5491e-07
1.6795e-05
2.64063e-07
1.6767e-05
2.75079e-07
1.67396e-05
2.88274e-07
1.6713e-05
3.04005e-07
1.66876e-05
3.2266e-07
1.66642e-05
3.44662e-07
1.66436e-05
3.70444e-07
1.66269e-05
4.00435e-07
1.66159e-05
4.35012e-07
1.66128e-05
4.74444e-07
1.66204e-05
5.18803e-07
1.66425e-05
5.67845e-07
1.66836e-05
6.20846e-07
1.67487e-05
6.76408e-07
1.68432e-05
7.32232e-07
1.69719e-05
7.8492e-07
1.71375e-05
8.29882e-07
1.73387e-05
8.6156e-07
8.74203e-07
1.75683e-05
1.99912e-05
1.69126e-07
1.99656e-05
3.41963e-07
1.99262e-05
3.75821e-07
1.98831e-05
3.2058e-07
1.98425e-05
2.58805e-07
1.9806e-05
2.23867e-07
1.97727e-05
2.12147e-07
1.97413e-05
2.1182e-07
1.97108e-05
2.14921e-07
1.96808e-05
2.18077e-07
1.96509e-05
2.20422e-07
1.96211e-05
2.22031e-07
1.95913e-05
2.23175e-07
1.95614e-05
2.24092e-07
1.95315e-05
2.2493e-07
1.95014e-05
2.25766e-07
1.94713e-05
2.2663e-07
1.94411e-05
2.27523e-07
1.94108e-05
2.28431e-07
1.93804e-05
2.29335e-07
1.93498e-05
2.3022e-07
1.93192e-05
2.31079e-07
1.92885e-05
2.31904e-07
1.92576e-05
2.32699e-07
1.92266e-05
2.33468e-07
1.91956e-05
2.34222e-07
1.91644e-05
2.3497e-07
1.9133e-05
2.35717e-07
1.91016e-05
2.36473e-07
1.907e-05
2.37242e-07
1.90383e-05
2.38028e-07
1.90065e-05
2.38831e-07
1.89746e-05
2.3965e-07
1.89427e-05
2.40478e-07
1.89106e-05
2.41309e-07
1.88784e-05
2.4213e-07
1.88462e-05
2.42933e-07
1.8814e-05
2.43705e-07
1.87818e-05
2.44437e-07
1.87495e-05
2.45125e-07
1.87173e-05
2.45763e-07
1.86851e-05
2.46351e-07
1.8653e-05
2.46891e-07
1.8621e-05
2.47386e-07
1.85891e-05
2.47845e-07
1.85573e-05
2.48279e-07
1.85257e-05
2.48703e-07
1.84943e-05
2.49137e-07
1.84631e-05
2.49607e-07
1.84321e-05
2.50141e-07
1.84013e-05
2.50777e-07
1.83708e-05
2.51558e-07
1.83406e-05
2.52536e-07
1.83107e-05
2.53772e-07
1.8281e-05
2.55335e-07
1.82518e-05
2.57308e-07
1.82229e-05
2.59783e-07
1.81944e-05
2.62868e-07
1.81663e-05
2.66685e-07
1.81388e-05
2.71372e-07
1.81119e-05
2.77086e-07
1.80858e-05
2.84003e-07
1.80607e-05
2.92317e-07
1.80367e-05
3.02238e-07
1.80143e-05
3.13994e-07
1.79938e-05
3.27821e-07
1.7976e-05
3.43959e-07
1.79616e-05
3.62631e-07
1.79516e-05
3.84028e-07
1.79475e-05
4.0828e-07
1.79508e-05
4.35412e-07
1.79638e-05
4.65291e-07
1.79889e-05
4.97567e-07
1.80291e-05
5.31589e-07
1.80876e-05
5.66327e-07
1.81678e-05
6.00296e-07
1.82726e-05
6.31504e-07
1.84041e-05
6.57469e-07
1.85627e-05
6.75329e-07
1.87463e-05
6.82128e-07
6.75305e-07
1.89493e-05
2.13945e-05
1.73099e-07
2.13729e-05
3.63657e-07
2.13357e-05
4.12975e-07
2.12922e-05
3.64056e-07
2.12496e-05
3.0138e-07
2.12106e-05
2.62886e-07
2.11749e-05
2.47859e-07
2.11414e-05
2.45304e-07
2.11092e-05
2.47125e-07
2.10777e-05
2.49613e-07
2.10465e-05
2.51636e-07
2.10154e-05
2.53107e-07
2.09844e-05
2.54212e-07
2.09533e-05
2.55145e-07
2.09222e-05
2.56032e-07
2.08911e-05
2.56939e-07
2.08598e-05
2.57885e-07
2.08285e-05
2.58872e-07
2.0797e-05
2.5988e-07
2.07655e-05
2.60891e-07
2.07338e-05
2.61889e-07
2.0702e-05
2.62866e-07
2.06702e-05
2.63816e-07
2.06382e-05
2.64742e-07
2.0606e-05
2.65649e-07
2.05737e-05
2.66545e-07
2.05413e-05
2.67441e-07
2.05088e-05
2.68341e-07
2.04761e-05
2.69252e-07
2.04433e-05
2.70178e-07
2.04104e-05
2.71119e-07
2.03773e-05
2.72074e-07
2.03442e-05
2.73038e-07
2.03109e-05
2.74004e-07
2.02776e-05
2.7496e-07
2.02441e-05
2.75895e-07
2.02107e-05
2.76796e-07
2.01772e-05
2.7765e-07
2.01438e-05
2.78447e-07
2.01103e-05
2.79179e-07
2.00769e-05
2.79842e-07
2.00436e-05
2.80431e-07
2.00104e-05
2.80949e-07
1.99774e-05
2.81398e-07
1.99445e-05
2.81785e-07
1.99118e-05
2.82122e-07
1.98794e-05
2.82421e-07
1.98472e-05
2.82703e-07
1.98154e-05
2.82992e-07
1.97838e-05
2.83315e-07
1.97527e-05
2.83707e-07
1.97219e-05
2.8421e-07
1.96916e-05
2.84872e-07
1.96618e-05
2.85748e-07
1.96325e-05
2.86902e-07
1.96038e-05
2.88405e-07
1.95757e-05
2.90339e-07
1.95485e-05
2.92793e-07
1.95221e-05
2.95869e-07
1.94967e-05
2.99677e-07
1.94724e-05
3.04335e-07
1.94496e-05
3.09972e-07
1.94285e-05
3.1672e-07
1.94093e-05
3.24714e-07
1.93927e-05
3.34085e-07
1.93791e-05
3.4495e-07
1.93693e-05
3.57405e-07
1.93642e-05
3.71502e-07
1.93648e-05
3.87238e-07
1.93725e-05
4.04519e-07
1.93887e-05
4.23138e-07
1.94153e-05
4.42733e-07
1.94542e-05
4.62757e-07
1.95075e-05
4.82435e-07
1.95773e-05
5.00746e-07
1.96654e-05
5.16417e-07
1.97732e-05
5.27959e-07
1.99012e-05
5.33748e-07
2.00487e-05
5.3218e-07
2.02133e-05
5.2188e-07
5.01966e-07
2.0391e-05
2.28954e-05
1.751e-07
2.28771e-05
3.81975e-07
2.28421e-05
4.47893e-07
2.27989e-05
4.07328e-07
2.27549e-05
3.45325e-07
2.27138e-05
3.03973e-07
2.2676e-05
2.8571e-07
2.26406e-05
2.80729e-07
2.26067e-05
2.81024e-07
2.25736e-05
2.82638e-07
2.25411e-05
2.84193e-07
2.25088e-05
2.8543e-07
2.24765e-05
2.86435e-07
2.24443e-05
2.87346e-07
2.24121e-05
2.88259e-07
2.23798e-05
2.8922e-07
2.23475e-05
2.90241e-07
2.23151e-05
2.91316e-07
2.22825e-05
2.92424e-07
2.22499e-05
2.93544e-07
2.22171e-05
2.9466e-07
2.21842e-05
2.95763e-07
2.21512e-05
2.96849e-07
2.21181e-05
2.97919e-07
2.20848e-05
2.98976e-07
2.20514e-05
3.00031e-07
2.20178e-05
3.01089e-07
2.19841e-05
3.02157e-07
2.19502e-05
3.03237e-07
2.19162e-05
3.0433e-07
2.1882e-05
3.05436e-07
2.18478e-05
3.06549e-07
2.18134e-05
3.07661e-07
2.17789e-05
3.08761e-07
2.17443e-05
3.09838e-07
2.17097e-05
3.10876e-07
2.16751e-05
3.1186e-07
2.16405e-05
3.12777e-07
2.16059e-05
3.13612e-07
2.15713e-05
3.14358e-07
2.15369e-05
3.15005e-07
2.15026e-05
3.15552e-07
2.14685e-05
3.15995e-07
2.14345e-05
3.16338e-07
2.14009e-05
3.16584e-07
2.13675e-05
3.16743e-07
2.13344e-05
3.16828e-07
2.13017e-05
3.16855e-07
2.12695e-05
3.16845e-07
2.12377e-05
3.16824e-07
2.12064e-05
3.16822e-07
2.11757e-05
3.16876e-07
2.11457e-05
3.17025e-07
2.11164e-05
3.17317e-07
2.10879e-05
3.17805e-07
2.10602e-05
3.18545e-07
2.10336e-05
3.19602e-07
2.10082e-05
3.21042e-07
2.0984e-05
3.2294e-07
2.09614e-05
3.25369e-07
2.09405e-05
3.28406e-07
2.09216e-05
3.32128e-07
2.09052e-05
3.36602e-07
2.08915e-05
3.41888e-07
2.08812e-05
3.48028e-07
2.08748e-05
3.55035e-07
2.08732e-05
3.62887e-07
2.08771e-05
3.71511e-07
2.08876e-05
3.80764e-07
2.09058e-05
3.90424e-07
2.09329e-05
4.00162e-07
2.09703e-05
4.09531e-07
2.10195e-05
4.17947e-07
2.10815e-05
4.2469e-07
2.11578e-05
4.28905e-07
2.1249e-05
4.29636e-07
2.13556e-05
4.25886e-07
2.14771e-05
4.16711e-07
2.16125e-05
4.01343e-07
2.17596e-05
3.79326e-07
3.50646e-07
2.19155e-05
2.45006e-05
1.75733e-07
2.44851e-05
3.97508e-07
2.44523e-05
4.80629e-07
2.44097e-05
4.4998e-07
2.43649e-05
3.90073e-07
2.43222e-05
3.4666e-07
2.42826e-05
3.25398e-07
2.42454e-05
3.17931e-07
2.42098e-05
3.16538e-07
2.41754e-05
3.17117e-07
2.41415e-05
3.18073e-07
2.41079e-05
3.18983e-07
2.40745e-05
3.19825e-07
2.40412e-05
3.20672e-07
2.40079e-05
3.21582e-07
2.39745e-05
3.22581e-07
2.39411e-05
3.23666e-07
2.39076e-05
3.24823e-07
2.3874e-05
3.26029e-07
2.38403e-05
3.27262e-07
2.38065e-05
3.28502e-07
2.37725e-05
3.29741e-07
2.37384e-05
3.30974e-07
2.37042e-05
3.322e-07
2.36698e-05
3.33422e-07
2.36352e-05
3.34649e-07
2.36005e-05
3.35883e-07
2.35656e-05
3.3713e-07
2.35306e-05
3.38388e-07
2.34954e-05
3.39656e-07
2.34601e-05
3.40929e-07
2.34247e-05
3.42199e-07
2.33891e-05
3.43455e-07
2.33535e-05
3.44682e-07
2.33178e-05
3.45865e-07
2.32821e-05
3.46987e-07
2.32464e-05
3.4803e-07
2.32107e-05
3.48977e-07
2.31751e-05
3.49813e-07
2.31396e-05
3.50527e-07
2.31042e-05
3.51108e-07
2.30691e-05
3.51551e-07
2.30342e-05
3.51852e-07
2.29996e-05
3.52009e-07
2.29653e-05
3.52027e-07
2.29314e-05
3.5191e-07
2.2898e-05
3.51668e-07
2.28651e-05
3.51314e-07
2.28327e-05
3.50865e-07
2.2801e-05
3.5034e-07
2.277e-05
3.49765e-07
2.27398e-05
3.49166e-07
2.27105e-05
3.48575e-07
2.26821e-05
3.48026e-07
2.26548e-05
3.47558e-07
2.26288e-05
3.4721e-07
2.26042e-05
3.47023e-07
2.25811e-05
3.47041e-07
2.25598e-05
3.47304e-07
2.25405e-05
3.47851e-07
2.25235e-05
3.48716e-07
2.25091e-05
3.49922e-07
2.24978e-05
3.51481e-07
2.249e-05
3.53387e-07
2.24862e-05
3.55607e-07
2.24871e-05
3.58079e-07
2.24933e-05
3.60697e-07
2.25056e-05
3.63309e-07
2.25248e-05
3.65701e-07
2.25519e-05
3.67593e-07
2.25878e-05
3.68626e-07
2.26334e-05
3.68365e-07
2.26896e-05
3.6629e-07
2.2757e-05
3.61814e-07
2.28362e-05
3.54302e-07
2.29273e-05
3.43109e-07
2.30303e-05
3.2764e-07
2.31443e-05
3.07431e-07
2.32681e-05
2.8224e-07
2.34001e-05
2.52132e-07
2.17528e-07
2.3538e-05
2.62176e-05
1.75506e-07
2.62043e-05
4.10841e-07
2.61736e-05
5.11332e-07
2.61319e-05
4.91721e-07
2.60868e-05
4.35145e-07
2.6043e-05
3.90504e-07
2.60018e-05
3.66609e-07
2.5963e-05
3.56717e-07
2.59259e-05
3.53561e-07
2.58901e-05
3.52989e-07
2.58549e-05
3.5324e-07
2.58202e-05
3.53738e-07
2.57856e-05
3.54354e-07
2.57512e-05
3.55093e-07
2.57168e-05
3.5597e-07
2.56824e-05
3.56986e-07
2.5648e-05
3.58122e-07
2.56134e-05
3.59357e-07
2.55788e-05
3.60661e-07
2.55441e-05
3.62008e-07
2.55092e-05
3.6338e-07
2.54742e-05
3.64764e-07
2.54391e-05
3.66154e-07
2.54038e-05
3.67548e-07
2.53683e-05
3.68948e-07
2.53326e-05
3.70357e-07
2.52968e-05
3.71778e-07
2.52608e-05
3.7321e-07
2.52247e-05
3.74651e-07
2.51884e-05
3.76095e-07
2.5152e-05
3.77533e-07
2.51154e-05
3.78952e-07
2.50788e-05
3.80339e-07
2.50421e-05
3.81674e-07
2.50054e-05
3.82939e-07
2.49687e-05
3.84114e-07
2.4932e-05
3.85178e-07
2.48954e-05
3.86111e-07
2.4859e-05
3.86897e-07
2.48227e-05
3.8752e-07
2.47866e-05
3.87967e-07
2.47508e-05
3.88231e-07
2.47154e-05
3.88302e-07
2.46803e-05
3.88179e-07
2.46457e-05
3.87859e-07
2.46116e-05
3.87346e-07
2.45781e-05
3.86643e-07
2.45452e-05
3.85759e-07
2.45131e-05
3.84703e-07
2.44819e-05
3.8349e-07
2.44515e-05
3.82134e-07
2.44222e-05
3.80654e-07
2.4394e-05
3.79067e-07
2.43671e-05
3.77394e-07
2.43416e-05
3.75658e-07
2.43176e-05
3.73876e-07
2.42955e-05
3.72069e-07
2.42753e-05
3.70253e-07
2.42574e-05
3.68437e-07
2.42419e-05
3.66625e-07
2.42292e-05
3.64813e-07
2.42198e-05
3.6298e-07
2.42139e-05
3.61092e-07
2.4212e-05
3.59092e-07
2.42147e-05
3.56897e-07
2.42224e-05
3.54397e-07
2.42358e-05
3.51441e-07
2.42555e-05
3.47841e-07
2.42822e-05
3.43364e-07
2.43165e-05
3.37728e-07
2.43591e-05
3.30607e-07
2.44104e-05
3.21626e-07
2.4471e-05
3.10378e-07
2.45411e-05
2.96431e-07
2.46208e-05
2.79359e-07
2.471e-05
2.58771e-07
2.48081e-05
2.3437e-07
2.49145e-05
2.06011e-07
2.50279e-05
1.73768e-07
2.5147e-05
1.3799e-07
9.93084e-08
2.52702e-05
2.80545e-05
1.74815e-07
2.80428e-05
4.22519e-07
2.8014e-05
5.40215e-07
2.79733e-05
5.32383e-07
2.79283e-05
4.80158e-07
2.78837e-05
4.35103e-07
2.78413e-05
4.09025e-07
2.78011e-05
3.96874e-07
2.77627e-05
3.91956e-07
2.77255e-05
3.90169e-07
2.76891e-05
3.89636e-07
2.76532e-05
3.8965e-07
2.76176e-05
3.89982e-07
2.75821e-05
3.90569e-07
2.75467e-05
3.91382e-07
2.75113e-05
3.92393e-07
2.74759e-05
3.93569e-07
2.74404e-05
3.94873e-07
2.74048e-05
3.96273e-07
2.7369e-05
3.97739e-07
2.73332e-05
3.99248e-07
2.72972e-05
4.00784e-07
2.7261e-05
4.02341e-07
2.72247e-05
4.03913e-07
2.71882e-05
4.055e-07
2.71515e-05
4.07099e-07
2.71147e-05
4.08711e-07
2.70777e-05
4.10332e-07
2.70405e-05
4.11954e-07
2.70032e-05
4.13567e-07
2.69657e-05
4.15157e-07
2.69282e-05
4.16709e-07
2.68906e-05
4.18202e-07
2.6853e-05
4.19616e-07
2.68154e-05
4.20927e-07
2.67778e-05
4.22111e-07
2.67403e-05
4.23146e-07
2.6703e-05
4.24008e-07
2.66658e-05
4.24676e-07
2.6629e-05
4.25132e-07
2.65924e-05
4.25362e-07
2.65562e-05
4.25351e-07
2.65204e-05
4.25089e-07
2.64852e-05
4.24569e-07
2.64505e-05
4.23784e-07
2.64165e-05
4.22732e-07
2.63833e-05
4.21412e-07
2.63509e-05
4.19826e-07
2.63194e-05
4.17975e-07
2.6289e-05
4.15865e-07
2.62597e-05
4.13501e-07
2.62317e-05
4.10888e-07
2.62051e-05
4.08032e-07
2.61801e-05
4.04939e-07
2.61568e-05
4.01612e-07
2.61355e-05
3.98051e-07
2.61163e-05
3.94254e-07
2.60995e-05
3.90212e-07
2.60853e-05
3.85908e-07
2.6074e-05
3.81317e-07
2.6066e-05
3.76402e-07
2.60616e-05
3.71113e-07
2.60611e-05
3.65382e-07
2.60651e-05
3.59121e-07
2.60738e-05
3.52222e-07
2.60879e-05
3.44549e-07
2.61077e-05
3.35942e-07
2.61337e-05
3.26211e-07
2.61664e-05
3.15139e-07
2.62063e-05
3.02482e-07
2.62536e-05
2.8797e-07
2.63086e-05
2.71319e-07
2.63716e-05
2.52237e-07
2.64425e-05
2.30438e-07
2.65211e-05
2.05666e-07
2.66072e-05
1.77724e-07
2.67e-05
1.46519e-07
2.6799e-05
1.12102e-07
2.69032e-05
7.47344e-08
2.70113e-05
3.49302e-08
-6.56513e-09
2.71224e-05
3.00197e-05
1.73966e-07
3.00092e-05
4.33028e-07
2.99819e-05
5.67529e-07
2.99424e-05
5.71893e-07
2.98977e-05
5.2482e-07
2.98527e-05
4.80105e-07
2.98094e-05
4.52339e-07
2.97681e-05
4.38167e-07
2.97285e-05
4.31561e-07
2.96901e-05
4.28546e-07
2.96526e-05
4.2718e-07
2.96156e-05
4.26655e-07
2.95789e-05
4.26654e-07
2.95424e-05
4.27048e-07
2.95061e-05
4.27766e-07
2.94697e-05
4.28751e-07
2.94333e-05
4.29951e-07
2.93969e-05
4.31317e-07
2.93604e-05
4.3281e-07
2.93237e-05
4.34395e-07
2.92869e-05
4.36045e-07
2.925e-05
4.37741e-07
2.92129e-05
4.3947e-07
2.91756e-05
4.41227e-07
2.91382e-05
4.43004e-07
2.91006e-05
4.44797e-07
2.90628e-05
4.46599e-07
2.90248e-05
4.48402e-07
2.89867e-05
4.50194e-07
2.89485e-05
4.5196e-07
2.89101e-05
4.53681e-07
2.88717e-05
4.55337e-07
2.88333e-05
4.56902e-07
2.87949e-05
4.58352e-07
2.87565e-05
4.59659e-07
2.87183e-05
4.60796e-07
2.86802e-05
4.61735e-07
2.86423e-05
4.62451e-07
2.86048e-05
4.62919e-07
2.85675e-05
4.63118e-07
2.85307e-05
4.63027e-07
2.84944e-05
4.62631e-07
2.84586e-05
4.61913e-07
2.84235e-05
4.60861e-07
2.83891e-05
4.59463e-07
2.83556e-05
4.57712e-07
2.8323e-05
4.55599e-07
2.82914e-05
4.53118e-07
2.82609e-05
4.50264e-07
2.82318e-05
4.4703e-07
2.8204e-05
4.43412e-07
2.81778e-05
4.39404e-07
2.81533e-05
4.34999e-07
2.81306e-05
4.30187e-07
2.811e-05
4.24956e-07
2.80917e-05
4.19289e-07
2.80759e-05
4.13163e-07
2.80628e-05
4.06549e-07
2.80526e-05
3.99411e-07
2.80458e-05
3.91701e-07
2.80425e-05
3.83363e-07
2.80431e-05
3.74325e-07
2.80479e-05
3.64503e-07
2.80573e-05
3.53797e-07
2.80716e-05
3.42092e-07
2.80912e-05
3.29254e-07
2.81164e-05
3.15132e-07
2.81476e-05
2.99561e-07
2.8185e-05
2.8236e-07
2.82289e-05
2.63338e-07
2.82794e-05
2.42296e-07
2.83365e-05
2.19039e-07
2.84003e-05
1.93378e-07
2.84707e-05
1.65147e-07
2.85472e-05
1.3422e-07
2.86295e-05
1.00536e-07
2.87171e-05
6.41295e-08
2.88092e-05
2.51962e-08
2.8905e-05
-1.58918e-08
2.90038e-05
-5.85424e-08
-1.01976e-07
2.91045e-05
3.21223e-05
1.73181e-07
3.21126e-05
4.42782e-07
3.20866e-05
5.93535e-07
3.20482e-05
6.10246e-07
3.20041e-05
5.68916e-07
3.1959e-05
5.25204e-07
3.19151e-05
4.96254e-07
3.18729e-05
4.80352e-07
3.18323e-05
4.72186e-07