/*--------------------------------*- C++ -*----------------------------------*\
| =========                 |                                                 |
| \\      /  F ield         | OpenFOAM: The Open Source CFD Toolbox           |
|  \\    /   O peration     | Version:  2006                                  |
|   \\  /    A nd           | Website:  www.openfoam.com                      |
|    \\/     M anipulation  |                                                 |
\*---------------------------------------------------------------------------*/
FoamFile
{
    version     2.0;
    format      ascii;
    class       volScalarField;
    location    "8.9";
    object      p;
}
// * * * * * * * * * * * * * * * * * * * * * * * * * * * * * * * * * * * * * //

dimensions      [0 2 -2 0 0 0 0];


internalField   nonuniform List<scalar> 
2790
(
146.698
146.605
146.872
147.444
148.224
149.181
150.313
151.62
153.097
154.738
156.537
158.488
160.582
162.807
165.148
167.584
170.088
172.627
175.159
177.633
179.991
182.169
184.099
185.719
186.979
187.853
188.289
188.344
188.395
188.608
146.495
146.513
146.805
147.373
148.149
149.104
150.232
151.532
153.002
154.634
156.424
158.365
160.448
162.662
164.992
167.417
169.913
172.447
174.977
177.455
179.823
182.018
183.973
185.621
186.905
187.78
188.176
188.231
188.363
188.648
146.296
146.384
146.695
147.253
148.016
148.958
150.071
151.353
152.801
154.409
156.171
158.081
160.129
162.304
164.593
166.975
169.427
171.918
174.41
176.857
179.207
181.4
183.372
185.062
186.412
187.388
187.981
188.336
188.652
188.95
146.071
146.19
146.514
147.063
147.812
148.737
149.83
151.088
152.507
154.082
155.806
157.671
159.67
161.791
164.019
166.337
168.721
171.145
173.572
175.962
178.269
180.441
182.423
184.162
185.617
186.769
187.636
188.307
188.86
189.379
145.811
145.943
146.275
146.817
147.549
148.453
149.521
150.748
152.13
153.661
155.335
157.145
159.081
161.131
163.283
165.519
167.817
170.152
172.494
174.807
177.052
179.187
181.17
182.96
184.53
185.873
187.003
187.965
188.776
189.523
145.51
145.648
145.983
146.514
147.227
148.105
149.14
150.33
151.667
153.147
154.762
156.505
158.366
160.334
162.395
164.533
166.728
168.957
171.194
173.41
175.572
177.65
179.612
181.433
183.096
184.597
185.943
187.149
188.169
189.087
145.167
145.306
145.638
146.157
146.846
147.694
148.693
149.838
151.124
152.544
154.091
155.757
157.532
159.405
161.362
163.388
165.464
167.57
169.683
171.779
173.834
175.825
177.733
179.543
181.249
182.85
184.344
185.723
186.887
187.934
144.783
144.92
145.244
145.746
146.41
147.224
148.181
149.277
150.504
151.857
153.328
154.907
156.586
158.352
160.192
162.092
164.033
165.997
167.965
169.917
171.834
173.702
175.509
177.251
178.93
180.549
182.104
183.576
184.826
185.976
144.356
144.49
144.803
145.286
145.921
146.697
147.608
148.649
149.812
151.091
152.477
153.962
155.534
157.182
158.893
160.652
162.441
164.245
166.044
167.823
169.567
171.265
172.913
174.514
176.076
177.611
179.119
180.59
181.861
183.099
143.89
144.018
144.318
144.779
145.381
146.116
146.977
147.958
149.052
150.25
151.545
152.927
154.384
155.904
157.474
159.077
160.699
162.322
163.928
165.502
167.03
168.504
169.923
171.291
172.624
173.943
175.264
176.602
177.803
179.107
143.384
143.506
143.791
144.227
144.795
145.485
146.292
147.209
148.228
149.341
150.538
151.809
153.143
154.526
155.943
157.379
158.817
160.238
161.625
162.96
164.228
165.418
166.526
167.554
168.519
169.448
170.379
171.379
172.341
173.66
142.842
142.957
143.225
143.633
144.164
144.808
145.558
146.407
147.347
148.369
149.463
150.618
151.821
153.058
154.313
155.57
156.809
158.01
159.152
160.214
161.176
162.019
162.728
163.294
163.721
164.032
164.276
164.586
164.969
166.142
142.265
142.372
142.622
143.001
143.493
144.087
144.777
145.556
146.413
147.341
148.327
149.361
150.427
151.512
152.597
153.663
154.69
155.654
156.53
157.289
157.902
158.337
158.56
158.536
158.234
157.638
156.765
155.776
154.831
155.338
141.656
141.755
141.985
142.334
142.785
143.328
143.956
144.66
145.433
146.263
147.138
148.046
148.972
149.898
150.807
151.676
152.482
153.196
153.787
154.219
154.449
154.427
154.089
153.358
152.136
150.309
147.75
144.454
140.514
138.485
141.017
141.107
141.317
141.634
142.043
142.533
143.097
143.727
144.412
145.142
145.904
146.683
147.465
148.23
148.958
149.625
150.203
150.659
150.955
151.046
150.873
150.363
149.418
147.904
145.627
142.298
137.46
130.453
120.01
107.815
0.567729
0.547859
0.478576
0.382615
0.283078
0.191995
0.11423
0.0514422
0.00376891
-0.0298265
-0.0502178
-0.0597151
-0.0609994
-0.0565953
-0.0488332
-0.0397672
-0.0309948
-0.0235557
-0.017957
-0.0142667
-0.0122006
-0.0112093
-0.0106939
-0.0101772
-0.00938834
-0.00826229
-0.00686083
-0.00526411
-0.00349428
-0.00150693
0.519215
0.49679
0.431563
0.343039
0.251238
0.166698
0.0939953
0.0349946
-0.00964361
-0.0396966
-0.0575716
-0.0651335
-0.0647684
-0.0589133
-0.0499286
-0.0399178
-0.0305068
-0.0227318
-0.0170613
-0.0135017
-0.0116875
-0.0109454
-0.0106069
-0.0101746
-0.00939525
-0.00824623
-0.0068298
-0.00524416
-0.00349785
-0.00137823
0.464625
0.437865
0.375241
0.293768
0.210304
0.133292
0.0667877
0.0127364
-0.028122
-0.055974
-0.0711607
-0.0758026
-0.0725577
-0.0639013
-0.0523431
-0.0401704
-0.0291238
-0.0202902
-0.0141669
-0.0107267
-0.0094784
-0.00941909
-0.00966135
-0.00959083
-0.00895309
-0.0078281
-0.00643189
-0.00492094
-0.00328469
-0.00131859
0.410734
0.379562
0.318737
0.243333
0.167648
0.0978522
0.0374556
-0.0115987
-0.0484367
-0.0730755
-0.0855435
-0.0873677
-0.0810908
-0.0693277
-0.0549092
-0.0403465
-0.0274998
-0.0175491
-0.0110301
-0.00787204
-0.00747058
-0.00826976
-0.00916594
-0.00943044
-0.00886528
-0.00770426
-0.00631008
-0.00489833
-0.00344608
-0.00173932
0.370905
0.335632
0.276453
0.205483
0.135535
0.0709066
0.0148768
-0.0305922
-0.0644622
-0.0864329
-0.096841
-0.0970213
-0.0884125
-0.0740269
-0.057208
-0.0406748
-0.0263708
-0.0155443
-0.00875391
-0.00586357
-0.00638068
-0.00786385
-0.00923608
-0.0096469
-0.00898999
-0.00765247
-0.00614077
-0.00471947
-0.00330702
-0.00176202
0.357323
0.31702
0.259071
0.189857
0.122258
0.0594616
0.00489406
-0.0394339
-0.0724256
-0.0939186
-0.104181
-0.103058
-0.0930078
-0.0770687
-0.0589076
-0.0412603
-0.0261023
-0.0147173
-0.00765285
-0.00462322
-0.00621087
-0.00794676
-0.00956123
-0.0100459
-0.00935063
-0.00793236
-0.00636279
-0.00494133
-0.00363305
-0.00190736
0.380859
0.332726
0.274095
0.202343
0.132099
0.0668053
0.0100889
-0.0359563
-0.0700956
-0.092036
-0.103098
-0.103878
-0.0944346
-0.0785334
-0.0603109
-0.0426038
-0.0274144
-0.0160422
-0.00904997
-0.00619571
-0.00690405
-0.00858228
-0.010071
-0.0104905
-0.00975902
-0.00831188
-0.00671423
-0.00537152
-0.0042653
-0.00210795
0.446666
0.389702
0.322496
0.242348
0.163722
0.0916127
0.0295996
-0.0204179
-0.0577047
-0.0827181
-0.0968262
-0.100006
-0.092736
-0.0787862
-0.0619502
-0.0451719
-0.0304819
-0.0191744
-0.0118789
-0.00854283
-0.00844329
-0.00977776
-0.0111658
-0.0116333
-0.0109126
-0.00935117
-0.00760752
-0.00629015
-0.00522774
-0.00233602
0.556754
0.482313
0.396583
0.300471
0.208485
0.12615
0.0567222
0.00149887
-0.0402779
-0.0700989
-0.0878274
-0.0934759
-0.0891056
-0.0778885
-0.0632873
-0.0481564
-0.0344774
-0.0235001
-0.0159249
-0.0119325
-0.0110513
-0.0119971
-0.0133573
-0.0139263
-0.0131448
-0.0112633
-0.00913158
-0.00759733
-0.00626016
-0.00256614
0.697157
0.592034
0.477028
0.358687
0.251513
0.158932
0.0815181
0.0196899
-0.0267364
-0.0590145
-0.0786971
-0.0867602
-0.085048
-0.0764816
-0.0643315
-0.0512792
-0.0390477
-0.0286548
-0.020829
-0.0161105
-0.0145406
-0.0153125
-0.0169635
-0.017848
-0.0169331
-0.0143866
-0.0114238
-0.00923349
-0.00725348
-0.00278525
0.838021
0.686419
0.543289
0.400927
0.276151
0.173563
0.0921288
0.0289385
-0.0183781
-0.0516587
-0.0725381
-0.0821757
-0.0822199
-0.0755271
-0.0654792
-0.0546426
-0.0442034
-0.0345815
-0.0264026
-0.020766
-0.0185597
-0.0195506
-0.0221016
-0.0237689
-0.0227139
-0.0190129
-0.0145507
-0.0111282
-0.0081693
-0.00298635
0.957482
0.74981
0.565306
0.404447
0.272478
0.167815
0.0864865
0.0248874
-0.0200036
-0.0513984
-0.0716783
-0.0815887
-0.0819796
-0.0757393
-0.0669549
-0.0583397
-0.05013
-0.0414801
-0.0326355
-0.0255888
-0.0226394
-0.0243871
-0.0288193
-0.0321065
-0.031014
-0.0254491
-0.0185025
-0.0131587
-0.00898004
-0.00316419
1.00004
0.721978
0.507581
0.340735
0.216177
0.1245
0.0547888
0.00213253
-0.03478
-0.0600618
-0.0774533
-0.0864419
-0.0855363
-0.0775826
-0.0686479
-0.0623058
-0.0571659
-0.0498629
-0.0397066
-0.0301913
-0.0260658
-0.0292648
-0.0370907
-0.0434042
-0.0425646
-0.0340818
-0.0231689
-0.0150892
-0.00964823
-0.00331489
0.802806
0.440847
0.277346
0.170318
0.0876764
0.0356404
-0.00510957
-0.0406973
-0.0635656
-0.0774452
-0.0898698
-0.097935
-0.0941551
-0.0810028
-0.069461
-0.0657226
-0.0655267
-0.0605307
-0.0479771
-0.0339839
-0.0277004
-0.0332723
-0.0467978
-0.0584208
-0.0584516
-0.0454603
-0.0282685
-0.0164449
-0.0101014
-0.00343644
0.148651
-0.288395
-0.23141
-0.132215
-0.126889
-0.0923853
-0.0807404
-0.10235
-0.11089
-0.104542
-0.107951
-0.116596
-0.108898
-0.0852487
-0.0671167
-0.067384
-0.0762919
-0.0757972
-0.0588925
-0.0365386
-0.0260099
-0.0351064
-0.0577308
-0.078237
-0.0803207
-0.0604301
-0.0332356
-0.0162923
-0.0101708
-0.00352898
140.338
140.418
140.607
140.891
141.256
141.691
142.189
142.741
143.336
143.963
144.608
145.256
145.889
146.489
147.032
147.49
147.834
148.026
148.019
147.759
147.173
146.164
144.6
142.287
138.926
134.022
126.657
114.918
92.7915
33.1319
139.61
139.682
139.848
140.097
140.416
140.794
141.223
141.694
142.196
142.716
143.24
143.753
144.234
144.664
145.017
145.264
145.37
145.293
144.982
144.373
143.379
141.889
139.743
136.71
132.433
126.327
117.36
103.801
84.2828
55.8173
138.841
138.902
139.045
139.259
139.53
139.849
140.208
140.596
141.002
141.413
141.815
142.189
142.517
142.776
142.938
142.974
142.844
142.504
141.898
140.955
139.584
137.664
135.031
131.454
126.607
120.037
111.15
99.3069
85.0506
68.3765
138.03
138.081
138.2
138.377
138.6
138.859
139.146
139.449
139.759
140.061
140.339
140.575
140.75
140.838
140.813
140.642
140.284
139.693
138.81
137.564
135.862
133.588
130.589
126.668
121.579
115.027
106.714
96.3067
83.7381
68.5658
137.181
137.221
137.316
137.455
137.629
137.827
138.041
138.26
138.473
138.665
138.82
138.92
138.944
138.867
138.66
138.29
137.717
136.893
135.761
134.25
132.275
129.728
126.481
122.378
117.236
110.857
103.039
93.5378
82.1845
69.1846
136.294
136.324
136.394
136.496
136.62
136.757
136.898
137.033
137.15
137.233
137.268
137.234
137.112
136.875
136.495
135.94
135.168
134.135
132.785
131.054
128.863
126.123
122.728
118.558
113.484
107.368
100.09
91.5477
81.7314
71.0528
135.373
135.392
135.438
135.502
135.576
135.653
135.722
135.774
135.796
135.774
135.691
135.529
135.266
134.878
134.338
133.611
132.661
131.445
129.912
128.004
125.656
122.792
119.332
115.186
110.269
104.5
97.8247
90.2317
81.7636
72.7562
134.421
134.43
134.45
134.477
134.503
134.52
134.519
134.489
134.419
134.294
134.099
133.814
133.42
132.891
132.203
131.323
130.217
128.845
127.164
125.123
122.668
119.741
116.281
112.228
107.528
102.142
96.0552
89.2876
81.8889
74.1315
133.441
133.44
133.436
133.427
133.405
133.363
133.293
133.185
133.027
132.804
132.501
132.102
131.585
130.928
130.106
129.091
127.852
126.353
124.557
122.422
119.906
116.965
113.555
109.639
105.188
100.186
94.6397
88.5831
82.0696
75.3272
132.438
132.427
132.4
132.354
132.286
132.188
132.052
131.869
131.626
131.311
130.908
130.402
129.773
129.001
128.062
126.931
125.581
123.981
122.101
119.908
117.368
114.45
111.127
107.375
103.183
98.5508
93.4963
88.059
82.2917
76.3798
131.416
131.395
131.346
131.266
131.153
131.001
130.802
130.547
130.225
129.824
129.329
128.725
127.995
127.121
126.081
124.853
123.414
121.739
119.802
117.579
115.046
112.181
108.967
105.394
101.46
97.1757
92.5636
87.6634
82.5232
77.2914
130.38
130.35
130.279
130.166
130.011
129.808
129.55
129.228
128.832
128.351
127.772
127.081
126.262
125.299
124.173
122.866
121.358
119.63
117.661
115.433
112.929
110.137
107.047
103.657
99.9735
96.01
91.7919
87.3557
82.7434
78.0742
129.335
129.297
129.205
129.061
128.866
128.615
128.302
127.918
127.454
126.901
126.246
125.477
124.581
123.542
122.346
120.977
119.419
117.656
115.675
113.461
111.004
108.298
105.34
102.132
98.6839
95.0131
91.1437
87.1083
82.9428
78.7434
128.288
128.241
128.13
127.958
127.725
127.429
127.065
126.624
126.099
125.481
124.759
123.923
122.96
121.859
120.607
119.191
117.598
115.818
113.84
111.655
109.258
106.646
103.82
100.788
97.5595
94.1531
90.5913
86.9025
83.1169
79.3126
127.244
127.19
127.061
126.861
126.594
126.258
125.847
125.355
124.775
124.099
123.319
122.424
121.407
120.255
118.959
117.51
115.897
114.113
112.151
110.006
107.676
105.161
102.466
99.5999
96.5739
93.405
90.1139
86.725
83.2639
79.7939
126.21
126.148
126.003
125.779
125.48
125.107
124.654
124.116
123.488
122.762
121.931
120.988
119.925
118.734
117.406
115.935
114.313
112.536
110.6
108.502
106.244
103.827
101.259
98.5475
95.7058
92.7491
89.6958
86.5669
83.3839
80.1983
125.192
125.124
124.964
124.717
124.391
123.984
123.494
122.915
122.245
121.476
120.603
119.62
118.521
117.299
115.949
114.466
112.846
111.085
109.181
107.135
104.95
102.629
100.181
97.6126
94.9377
92.1699
89.3254
86.4222
83.4781
80.5357
124.197
124.123
123.95
123.683
123.332
122.895
122.373
121.759
121.052
120.247
119.339
118.324
117.197
115.954
114.591
113.104
111.492
109.753
107.886
105.895
103.783
101.554
99.2171
96.7805
94.2558
91.6556
88.9942
86.2869
83.5487
80.8148
123.233
123.154
122.969
122.684
122.31
121.849
121.297
120.654
119.916
119.081
118.145
117.105
115.957
114.7
113.331
111.847
110.248
108.535
106.71
104.773
102.732
100.59
98.3564
96.0392
93.6489
91.1971
88.696
86.1588
83.5983
81.0435
122.306
122.223
122.027
121.728
121.334
120.85
120.275
119.606
118.843
117.983
117.025
115.966
114.804
113.539
112.169
110.693
109.113
107.429
105.644
103.762
101.788
99.7276
97.5885
95.379
93.1085
90.7874
88.4264
86.0369
83.6297
81.229
121.425
121.338
121.133
120.82
120.41
119.907
119.312
118.622
117.838
116.959
115.983
114.911
113.74
112.472
111.106
109.642
108.082
106.428
104.685
102.855
100.944
98.9584
96.9051
94.792
92.6277
90.4214
88.1825
85.9209
83.6459
81.3777
120.597
120.507
120.294
119.97
119.546
119.027
118.414
117.707
116.907
116.012
115.024
113.943
112.768
111.5
110.141
108.691
107.153
105.531
103.827
102.046
100.194
98.2761
96.2999
94.2725
92.2016
90.0955
87.9626
85.8114
83.6502
81.4956
119.831
119.737
119.518
119.184
118.747
118.215
117.589
116.868
116.055
115.149
114.152
113.065
111.889
110.625
109.275
107.841
106.325
104.733
103.066
101.331
99.5319
97.6754
95.7677
93.8156
91.8262
89.8071
87.7656
85.7092
83.6452
81.5875
119.134
119.037
118.812
118.469
118.023
117.48
116.842
116.111
115.287
114.374
113.372
112.282
111.107
109.848
108.508
107.09
105.597
104.032
102.401
100.707
98.9555
97.153
95.3054
93.4188
91.4999
89.5554
87.592
85.6164
83.635
81.6596
118.515
118.416
118.185
117.834
117.38
116.828
116.181
115.441
114.61
113.691
112.685
111.595
110.423
109.171
107.842
106.439
104.967
103.428
101.827
100.17
98.4607
96.7052
94.9092
93.0787
91.2197
89.3384
87.4408
85.533
83.6208
81.7139
117.983
117.881
117.645
117.287
116.825
116.266
115.612
114.866
114.03
113.108
112.1
111.011
109.842
108.597
107.279
105.891
104.437
102.921
101.348
99.7221
98.0487
96.3331
94.5807
92.7972
90.9882
89.1594
87.3164
85.4647
83.6097
81.7596
117.548
117.443
117.199
116.834
116.365
115.8
115.14
114.39
113.55
112.625
111.617
110.529
109.365
108.127
106.818
105.443
104.005
102.509
100.958
99.3587
97.7148
96.0317
94.3147
92.5691
90.8002
89.0133
87.2137
85.4064
83.5963
81.7903
117.223
117.111
116.859
116.486
116.013
115.443
114.78
114.025
113.183
112.257
111.249
110.163
109.003
107.77
106.47
105.105
103.68
102.2
100.668
99.089
97.4683
95.8108
94.1214
92.4053
90.6675
88.9132
87.1473
85.3745
83.5997
81.8289
117.02
116.886
116.616
116.238
115.762
115.19
114.524
113.768
112.925
111.998
110.991
109.908
108.75
107.522
106.228
104.871
103.456
101.986
100.467
98.9025
97.2976
95.6573
93.9863
92.2898
90.5726
88.8397
87.0956
85.3451
83.5926
81.8429
117.002
116.803
116.505
116.121
115.642
115.066
114.398
113.64
112.796
111.869
110.864
109.782
108.627
107.403
106.113
104.762
103.353
101.891
100.38
98.8254
97.2308
95.6016
93.9425
92.2584
90.5541
88.8343
87.1037
85.3668
83.6279
81.8912
-50.4352
-30.166
-11.1091
35.4261
27.9254
15.7747
50.831
38.7098
27.4524
52.268
41.8288
33.764
56.6119
48.3096
41.5368
61.0022
54.0819
48.1796
64.2817
58.3918
53.3351
66.8848
61.8535
57.5388
69.08
64.7428
61.0298
70.9337
67.1512
63.921
72.4928
69.1597
66.3205
73.807
70.8425
68.3224
74.9167
72.2574
70.0001
75.8541
73.45
71.4114
76.6459
74.4569
72.602
77.314
75.3078
73.6082
77.8765
76.0265
74.4592
78.3488
76.633
75.1787
78.7438
77.1436
75.7863
79.0727
77.5722
76.2981
79.3448
77.9303
76.7278
79.569
78.2285
77.0874
79.7519
78.4749
77.386
79.9015
78.6784
77.6338
80.0203
78.8426
77.8352
80.1203
78.98
78.0026
80.1926
79.0821
78.1295
80.2658
79.1781
78.2427
80.3001
79.2288
78.3074
80.3693
79.3121
78.3972
-3.03465
-2.95872
-1.51045
-0.37273
-0.332783
-0.230181
-0.172642
-0.206451
-0.188809
-0.124839
-0.111792
-0.136157
-0.133807
-0.0938581
-0.0594204
-0.0650936
-0.0901333
-0.0979842
-0.0731663
-0.035337
-0.0168838
-0.0317473
-0.0692127
-0.104638
-0.111196
-0.0807713
-0.0371561
-0.012802
-0.00937811
-0.00359784
1.9911
-0.866208
0.732146
0.206213
-1.17202
-0.90926
-0.235139
-0.221793
-0.197214
-0.0941288
-0.118996
-0.206694
-0.214801
-0.115111
-0.0240637
-0.0418061
-0.102825
-0.132682
-0.0983237
-0.0323024
0.00135537
-0.0227269
-0.0834084
-0.142424
-0.156964
-0.109831
-0.0381773
-0.00210183
-0.00625506
-0.00366548
13.1675
4.81256
1.97743
-0.484846
-0.773195
0.834251
0.972744
-0.477516
-0.820636
-0.433733
-0.0965351
-0.19594
-0.214992
-0.0322003
0.0671954
-0.0163801
-0.151175
-0.21883
-0.155251
-0.0197969
0.0492034
0.0077295
-0.0896361
-0.186214
-0.217409
-0.149103
-0.0327484
0.0228835
0.00269584
-0.00382047
22.9789
13.0775
7.17696
3.40872
1.7171
1.23118
-0.0509169
-0.728691
-0.263652
0.909314
0.732597
-0.367436
-0.734406
-0.472548
0.0636524
0.0875055
-0.150846
-0.276403
-0.168429
0.0532254
0.132227
0.0440315
-0.112545
-0.267985
-0.329696
-0.232621
-0.0198125
0.0722499
0.023677
-0.00433855
32.1686
22.3822
15.0507
9.76371
6.14175
3.67769
1.79585
0.815727
0.585361
0.540438
0.00908418
-0.596212
-0.621909
0.472619
0.983317
0.268941
-0.316563
-0.62359
-0.53605
-0.0492423
0.230554
0.121061
-0.108574
-0.33284
-0.424592
-0.247512
0.0250339
0.16104
0.0640914
-0.00597388
40.1633
31.2207
23.3224
16.8871
11.9638
8.3269
5.66193
3.78701
2.51991
1.59784
0.827147
0.240202
0.0650247
0.420923
0.416042
0.11435
-0.359108
-0.628726
-0.289097
0.504277
0.642048
0.186404
-0.162257
-0.482666
-0.691575
-0.582482
0.00576311
0.288574
0.127731
-0.0111052
46.6893
38.8701
31.0822
24.1848
18.5597
14.1063
10.5885
7.83651
5.74352
4.17083
2.95333
2.00704
1.39969
1.11837
0.858711
0.49774
0.0198388
-0.257725
-0.101257
0.253669
0.386712
0.195786
-0.137604
-0.513119
-0.732551
-0.389631
0.379872
0.543852
0.205244
-0.024157
52.0044
45.2623
37.994
31.1571
25.2722
20.3287
16.1906
12.7707
10.0051
7.79477
6.01219
4.58078
3.502
2.74285
2.14048
1.53861
0.950124
0.558436
0.470716
0.558284
0.572932
0.355516
-0.0136873
-0.376932
-0.542015
-0.294834
0.169297
0.396906
0.304642
-0.063938
56.3402
50.5153
43.9226
37.4427
31.6218
26.5101
22.0423
18.1836
14.9049
12.1501
9.84433
7.93196
6.38488
5.15775
4.14361
3.24206
2.45404
1.86057
1.50869
1.32124
1.1231
0.792968
0.381539
0.0194403
-0.153603
-0.0387552
0.243623
0.394193
0.260828
-0.303153
59.8788
54.8053
48.8961
42.906
37.3494
32.3041
27.7411
23.6559
20.0505
16.9063
14.187
11.8554
9.87918
8.21705
6.80324
5.57704
4.52286
3.66567
3.01813
2.52633
2.07989
1.6005
1.10882
0.687504
0.427244
0.376286
0.450239
0.434441
0.172163
-0.518126
62.7854
58.3216
53.0367
47.5646
42.3661
37.525
33.0283
28.8878
25.1244
21.7442
18.7354
16.078
13.7494
11.7208
9.95238
8.40502
7.05803
5.91101
4.95905
4.16392
3.45838
2.79015
2.16046
1.61465
1.20614
0.954333
0.793821
0.576423
0.17074
-0.592933
65.1931
61.2264
56.485
51.5033
46.6873
42.1158
37.7819
33.7031
29.909
26.4186
23.2357
20.3547
17.7645
15.4488
13.3845
11.5464
9.91643
8.4852
7.24116
6.15671
5.18937
4.30303
3.49027
2.77179
2.1741
1.69949
1.29739
0.866292
0.306636
-0.522101
67.2017
63.6443
59.367
54.8263
50.3793
46.0969
41.9728
38.0245
34.2838
30.7754
27.5121
24.4979
21.7312
19.2055
16.9088
14.8269
12.9463
11.2567
9.74584
8.39352
7.17193
6.0558
5.03472
4.11427
3.30337
2.59524
1.95104
1.30117
0.575653
-0.331315
68.8868
65.6698
61.7869
57.6335
53.5256
49.5256
45.6263
41.8424
38.2044
34.7387
31.4623
28.3851
25.5118
22.8429
20.3744
18.0994
16.0099
14.0976
12.3523
10.7595
9.30072
7.95792
6.72025
5.58506
4.55118
3.60779
2.72511
1.85558
0.95267
-0.0564727
70.3062
67.3749
63.8277
60.011
56.2071
52.4707
48.7928
45.1849
41.6745
38.2875
35.0423
31.9518
29.0246
26.2657
23.6765
21.2554
18.9988
16.9015
14.9564
13.1535
11.4802
9.92364
8.4737
7.12404
5.86853
4.69515
3.581
2.49347
1.40234
0.262539
71.5052
68.8153
65.5547
62.0299
58.4951
54.9987
51.5298
48.0966
44.7232
41.4337
38.2466
35.1757
32.2319
29.4227
26.7532
24.2254
21.8391
19.592
17.48
15.4967
13.6337
11.8816
10.2318
8.6767
7.20835
5.81496
4.47865
3.17647
1.88826
0.590299
72.5195
70.0345
67.0193
63.7475
60.4495
57.1685
53.8922
50.6256
47.3894
44.2055
41.0912
38.0607
35.1253
32.2945
29.5752
26.9719
24.4868
22.1203
19.8707
17.7344
15.7059
13.7787
11.9455
10.199
8.53079
6.93011
5.38244
3.87068
2.37991
0.901298
73.378
71.0673
68.2628
65.2103
62.1201
59.0309
55.9294
52.8177
49.7136
46.6364
43.602
40.6239
37.7136
34.881
32.1344
29.4796
26.9208
24.4602
22.098
19.8328
17.6615
15.5792
13.5805
11.6586
9.80564
8.0117
6.26451
4.55009
2.85556
1.18117
74.104
71.9421
69.3187
66.4562
63.5476
60.6282
57.6837
54.714
51.734
48.7604
45.8078
42.8884
40.0134
37.1928
34.4351
31.7473
29.1346
26.6005
24.1468
21.7736
19.4795
17.2614
15.1149
13.0341
11.012
9.03936
7.10524
5.19706
3.30201
1.42493
74.7169
72.682
70.2144
67.5164
64.7663
61.9962
59.1916
56.3505
53.4848
50.6094
47.7369
44.8786
42.0448
39.2451
36.4882
33.7812
31.1301
28.5393
26.0116
23.5485
21.1496
18.8131
16.5356
14.3123
12.1366
9.99995
7.89213
5.80097
3.71279
1.63391
75.2329
73.3062
70.9724
68.4167
65.8042
63.165
60.4841
57.7579
54.9963
52.2119
49.4159
46.6182
43.8282
41.055
38.3067
35.5909
32.9135
30.2796
27.6928
25.1551
22.6672
20.2283
17.8357
15.4854
13.1713
10.8854
8.61773
6.35603
4.08555
1.81226
75.6659
73.8312
71.6121
69.1788
66.6855
64.1601
61.5877
58.9634
56.2951
53.5936
50.8688
48.1292
45.3833
42.6393
39.9052
37.1879
34.4936
31.8275
29.1936
26.5946
24.0318
21.5049
19.012
16.5495
14.1118
11.6914
9.27824
6.85986
4.42053
1.96489
76.0269
74.2702
72.1488
69.8203
67.4294
65.0024
62.5243
59.9893
57.4035
54.7765
52.1165
49.4311
46.7277
44.0138
41.2967
38.583
35.8788
33.1892
30.5185
27.8695
25.2439
22.6421
20.0625
17.5019
14.9552
12.4148
9.87099
7.31081
4.71794
2.0952
76.3269
74.6357
72.5971
70.3576
68.0539
65.7109
63.3138
60.8559
58.3423
55.7807
53.1786
50.5425
47.8788
45.1942
42.4954
39.7885
37.0794
34.3731
31.6737
28.9843
26.3069
23.6419
20.9883
18.3431
15.7013
13.0557
10.3962
7.7099
4.97994
2.20693
76.5722
74.9354
72.9658
70.8009
68.5703
66.2981
63.9695
61.5773
59.1253
56.6203
54.0687
51.476
48.8481
46.1907
43.51
40.8116
38.101
35.383
32.6617
29.9401
27.2203
24.503
21.7871
19.07
16.3468
13.6103
10.8504
8.05419
5.20447
2.29963
76.7745
75.1819
73.269
71.1654
68.9951
66.7811
64.5093
62.1716
59.7711
57.3137
54.8049
52.2495
49.6526
47.0195
44.3555
41.6661
38.9561
36.2303
33.4924
30.7456
27.9919
25.2319
22.4648
19.6879
16.8966
14.0835
11.2388
8.34902
5.39714
2.37843
76.9306
75.3729
73.5049
71.4499
69.3274
67.1599
64.9333
62.6393
60.2802
57.8612
55.3871
52.8623
50.291
47.6782
45.0287
42.3475
39.6392
36.9082
34.1581
31.392
28.6117
25.8181
23.0101
20.1854
17.339
14.4638
11.5498
8.58355
5.54803
2.43632
77.0629
75.5308
73.6969
71.6788
69.5924
67.46
65.2677
63.0069
60.6794
58.2897
55.8423
53.3409
50.7896
48.1927
45.5548
42.8803
40.1739
37.4394
34.6805
31.9001
29.1
26.2809
23.4419
20.5805
17.6918
14.7687
11.8009
8.77484
5.67339
2.48581
77.1442
75.6284
73.8168
71.8237
69.7618
67.6528
65.4834
63.2449
60.9385
58.5685
56.139
53.6536
51.1158
48.5297
45.8997
43.2301
40.5251
37.7885
35.024
32.2342
29.4209
26.5847
23.7249
20.8388
17.9214
14.9656
11.9608
8.89322
5.74564
2.50574
77.2333
75.7186
73.9192
71.9411
69.8929
67.7966
65.6392
63.4124
61.117
58.7571
56.3367
53.859
51.3276
48.7465
46.1197
43.4516
40.7463
38.0076
35.2389
32.4429
29.6215
26.7752
23.9033
21.003
18.0694
15.0951
12.0694
8.97761
5.79978
2.51211
)
;

boundaryField
{
    inlet
    {
        type            zeroGradient;
    }
    outlet
    {
        type            fixedValue;
        value           uniform 0;
    }
    flap
    {
        type            zeroGradient;
    }
    upperWall
    {
        type            zeroGradient;
    }
    lowerWall
    {
        type            zeroGradient;
    }
    frontAndBack
    {
        type            empty;
    }
}


// ************************************************************************* //
