/*--------------------------------*- C++ -*----------------------------------*\
| =========                 |                                                 |
| \\      /  F ield         | OpenFOAM: The Open Source CFD Toolbox           |
|  \\    /   O peration     | Version:  4.1                                   |
|   \\  /    A nd           | Web:      www.OpenFOAM.org                      |
|    \\/     M anipulation  |                                                 |
\*---------------------------------------------------------------------------*/
FoamFile
{
    version     2.0;
    format      ascii;
    class       surfaceVectorField;
    location    "3.3";
    object      Uf;
}
// * * * * * * * * * * * * * * * * * * * * * * * * * * * * * * * * * * * * * //

dimensions      [0 1 -1 0 0 0 0];

internalField   nonuniform List<vector> 
5457
(
(9.91148 0.0247508 5.68696e-20)
(9.97465 0.0386021 1.08914e-19)
(9.809 0.0313855 6.96002e-20)
(9.92597 0.0462699 3.18847e-22)
(9.69244 0.0368723 2.93057e-20)
(9.84901 0.0546679 1.44271e-20)
(9.55944 0.0425931 1.45968e-20)
(9.75147 0.0647547 -1.42113e-20)
(9.41031 0.0485054 0)
(9.63729 0.0753274 -6.00303e-20)
(9.24552 0.0546368 0)
(9.50683 0.0863076 6.19937e-20)
(9.06509 0.0611144 -6.9477e-20)
(9.35972 0.0979288 0)
(8.86872 0.0680705 4.27496e-21)
(9.19564 0.110397 -6.83105e-20)
(8.65588 0.075629 1.06366e-19)
(9.01422 0.123907 2.07698e-19)
(8.42579 0.0839069 7.54602e-20)
(8.81492 0.138648 -6.88419e-20)
(8.17756 0.0930231 -2.01287e-21)
(8.59696 0.154796 2.06022e-21)
(7.91013 0.103101 -8.12262e-20)
(8.3594 0.17254 -7.76453e-20)
(7.62234 0.114266 -4.10586e-20)
(8.10112 0.192064 -8.1402e-20)
(7.31298 0.12665 0)
(7.82096 0.213541 -8.28126e-20)
(6.98075 0.140388 -4.91337e-20)
(7.51772 0.237154 7.8454e-19)
(6.62433 0.155608 -4.76022e-20)
(7.19005 0.263064 7.47115e-21)
(6.24245 0.172426 1.09756e-19)
(6.83658 0.291381 -7.5581e-19)
(5.83393 0.190938 5.76148e-19)
(6.45599 0.322162 8.05605e-21)
(5.39781 0.211194 -3.70676e-20)
(6.04712 0.35538 6.73345e-19)
(4.93344 0.233159 -4.78301e-19)
(5.60902 0.390831 -7.08162e-19)
(4.44073 0.256682 0)
(5.14107 0.428085 0)
(3.92033 0.281445 0)
(4.64324 0.466409 2.02263e-18)
(3.37397 0.306867 1.6498e-19)
(4.11629 0.504649 -2.39548e-18)
(2.80479 0.331944 -1.27625e-18)
(3.56208 0.54105 2.00975e-20)
(2.21806 0.35488 1.41458e-19)
(2.98405 0.572956 -1.42075e-18)
(1.62222 0.372042 3.42636e-18)
(2.38774 0.596194 1.53241e-18)
(1.03135 0.373632 2.77979e-19)
(1.78175 0.603468 2.07117e-18)
(0.472697 0.319422 2.36446e-18)
(1.17935 0.578348 4.41053e-18)
(0.0143951 -0.0503982 -6.00287e-19)
(0.581352 0.46788 -9.5018e-18)
(0.201548 0.0159958 -4.3839e-18)
(9.99823 0.0499149 5.05803e-20)
(10.0043 0.0393881 3.56615e-23)
(9.96149 0.0662927 -5.45755e-20)
(9.98327 0.0628772 5.52917e-20)
(9.90374 0.0807044 -2.95992e-20)
(9.93778 0.0817768 0)
(9.82726 0.0960048 -8.96563e-20)
(9.87206 0.102014 2.92475e-20)
(9.7323 0.112117 4.11201e-21)
(9.78877 0.123327 -6.00359e-20)
(9.61917 0.129069 6.09204e-20)
(9.68846 0.145593 3.47309e-22)
(9.48801 0.147133 0)
(9.57117 0.169166 0)
(9.33862 0.166611 1.39789e-19)
(9.43666 0.194443 -2.63188e-19)
(9.17054 0.187797 2.78535e-20)
(9.28458 0.221821 2.71516e-19)
(8.98312 0.210964 -1.41082e-19)
(9.11455 0.251677 1.05686e-19)
(8.77551 0.236387 -7.48941e-20)
(8.92586 0.284372 -2.52085e-19)
(8.54672 0.264342 -7.78786e-20)
(8.71768 0.320289 -3.82009e-20)
(8.29567 0.295094 -1.23175e-19)
(8.48902 0.359797 -1.17224e-19)
(8.02115 0.328918 7.15664e-19)
(8.23882 0.403252 6.5022e-19)
(7.72188 0.366082 8.28958e-19)
(7.96595 0.451062 3.08118e-20)
(7.39645 0.406799 -7.12749e-19)
(7.66911 0.503608 5.58871e-20)
(7.04347 0.451197 -8.45895e-19)
(7.34685 0.561151 -7.56122e-19)
(6.66161 0.499309 1.1528e-19)
(6.9977 0.62385 -1.00169e-19)
(6.24967 0.550981 -1.84604e-20)
(6.62035 0.691721 1.63062e-18)
(5.80667 0.605767 -2.19373e-19)
(6.21355 0.764462 1.33438e-20)
(5.33208 0.662832 2.05192e-18)
(5.77615 0.841336 -1.76608e-18)
(4.82596 0.720808 -4.32218e-19)
(5.30738 0.921017 2.258e-18)
(4.28926 0.777574 -2.51075e-18)
(4.80691 1.00136 -6.13787e-18)
(3.72419 0.829893 -1.41608e-19)
(4.27515 1.07903 -1.91369e-19)
(3.13478 0.872731 0)
(3.71343 1.14891 4.44244e-18)
(2.52774 0.897751 1.79617e-19)
(3.12421 1.20295 0)
(1.91388 0.889213 6.21586e-18)
(2.51077 1.22747 -1.4151e-19)
(1.30995 0.813889 -7.47421e-18)
(1.87781 1.19608 6.01167e-18)
(0.717456 0.594034 -1.32438e-17)
(1.19149 1.0636 -1.27179e-17)
(0.690193 0.73223 -9.95272e-21)
(9.99088 0.0556606 5.6376e-21)
(10.0019 0.0433707 -1.08932e-19)
(9.95765 0.0815656 1.08857e-19)
(9.97845 0.0778777 2.21367e-19)
(9.9036 0.105813 5.93928e-20)
(9.93408 0.107122 0)
(9.83209 0.131279 5.72905e-20)
(9.87144 0.136832 1.74837e-19)
(9.74379 0.158148 -6.27446e-20)
(9.792 0.167928 -1.18873e-19)
(9.63904 0.186541 -6.05927e-20)
(9.6964 0.200462 3.06792e-19)
(9.51799 0.216855 -2.677e-19)
(9.58505 0.234876 -2.5118e-19)
(9.38052 0.249558 -1.22457e-19)
(9.45776 0.271751 -5.24252e-19)
(9.22627 0.285113 3.46607e-19)
(9.31424 0.311655 5.34714e-19)
(9.05471 0.323971 -1.1215e-20)
(9.15427 0.355121 -4.82977e-19)
(8.86512 0.366588 -2.11934e-19)
(8.97731 0.40269 3.53026e-19)
(8.65669 0.413416 -7.88463e-20)
(8.78271 0.454909 -5.95174e-19)
(8.42849 0.464902 6.68528e-19)
(8.56976 0.512301 6.8474e-19)
(8.1795 0.521531 -4.45321e-20)
(8.3376 0.575414 8.91892e-19)
(7.90851 0.583815 -7.42242e-19)
(8.08527 0.644902 4.09738e-19)
(7.61418 0.652181 0)
(7.81172 0.721414 -1.36234e-18)
(7.29503 0.726904 0)
(7.51566 0.80543 0)
(6.94962 0.808111 1.44197e-18)
(7.19563 0.897255 -1.86898e-18)
(6.57652 0.895685 1.63926e-18)
(6.85036 0.997043 2.96241e-18)
(6.17429 0.989068 -1.55939e-18)
(6.47848 1.10462 2.36104e-19)
(5.74158 1.08708 -1.50524e-18)
(6.0784 1.21923 1.64761e-18)
(5.27729 1.18772 -3.56154e-18)
(5.64853 1.33933 -7.09912e-18)
(4.78065 1.28777 -3.74651e-18)
(5.18725 1.4623 -5.0163e-19)
(4.25136 1.38239 4.44699e-18)
(4.69289 1.584 3.8993e-18)
(3.68958 1.4642 4.4018e-18)
(4.16367 1.69816 3.32189e-19)
(3.09554 1.5219 -3.22372e-19)
(3.59714 1.79538 -8.25774e-18)
(2.46729 1.53787 -3.18434e-19)
(2.98866 1.86168 9.54737e-18)
(1.79357 1.48701 7.48049e-19)
(2.33183 1.87638 0)
(1.02938 1.32979 7.33148e-19)
(1.57219 1.8223 7.54501e-20)
(0.899221 1.63921 0)
(9.9866 0.0659661 1.12317e-19)
(10.0007 0.049222 -2.16586e-19)
(9.95351 0.102621 1.0844e-19)
(9.97533 0.0928259 1.10116e-19)
(9.90046 0.137299 1.18624e-19)
(9.93082 0.132013 0)
(9.83007 0.172712 -6.57832e-21)
(9.86929 0.171123 1.1652e-19)
(9.74343 0.209573 2.5816e-19)
(9.7915 0.211717 -1.18895e-19)
(9.64102 0.248275 1.06562e-19)
(9.69796 0.254131 2.46684e-19)
(9.52307 0.289417 -5.12415e-19)
(9.58919 0.298949 -2.51236e-19)
(9.38948 0.333657 1.50753e-19)
(9.46509 0.34693 -7.7855e-19)
(9.24004 0.381621 -3.11818e-19)
(9.32549 0.398753 7.96308e-19)
(9.07442 0.433928 -1.0508e-19)
(9.17025 0.455068 -6.94141e-19)
(8.89215 0.491203 -4.55254e-20)
(8.99902 0.516557 -1.39681e-19)
(8.69268 0.554056 1.88988e-19)
(8.81139 0.583889 1.29613e-19)
(8.47539 0.623114 9.11532e-19)
(8.60691 0.657722 7.6273e-19)
(8.23951 0.699084 1.33877e-18)
(8.38488 0.738786 1.25797e-18)
(7.98415 0.782738 -2.37619e-19)
(8.14456 0.827933 4.29277e-20)
(7.70829 0.874771 -1.34194e-18)
(7.88524 0.92605 -1.36345e-18)
(7.41072 0.975675 -1.89805e-18)
(7.60601 1.03387 0)
(7.09021 1.08576 -2.77599e-19)
(7.30568 1.15186 1.39793e-18)
(6.74545 1.20512 1.51963e-18)
(6.98307 1.28035 -1.43768e-18)
(6.37492 1.3334 3.46609e-18)
(6.63697 1.41947 3.14288e-18)
(5.97684 1.46951 -4.06519e-18)
(6.26572 1.56875 3.86801e-18)
(5.5492 1.61135 -3.9572e-18)
(5.86726 1.72684 -6.88223e-18)
(5.08959 1.75551 7.2066e-18)
(5.43905 1.8913 1.78497e-19)
(4.59508 1.8968 -2.56924e-19)
(4.97761 2.05813 -3.47908e-18)
(4.06161 2.02759 -1.24289e-17)
(4.47841 2.22152 3.57753e-18)
(3.48271 2.13708 1.74253e-18)
(3.93499 2.37327 -1.12378e-18)
(2.84672 2.21063 9.84019e-18)
(3.33693 2.50255 -7.81742e-18)
(2.13209 2.23266 -6.75065e-19)
(2.67245 2.59534 9.08434e-18)
(1.29994 2.18622 -6.60737e-19)
(1.88491 2.64681 -6.76649e-19)
(1.10398 2.62246 6.83845e-19)
(9.98446 0.0768286 -2.13371e-19)
(10.0001 0.0560076 -2.36061e-22)
(9.95098 0.12266 -3.58171e-22)
(9.97375 0.107961 -1.10371e-19)
(9.89878 0.166575 0)
(9.92918 0.156522 -2.24926e-19)
(9.82964 0.211097 0)
(9.86877 0.204828 3.45587e-19)
(9.74479 0.257324 -1.23996e-19)
(9.79287 0.254634 -2.35118e-19)
(9.6447 0.305901 -1.19768e-19)
(9.7017 0.306636 -1.23107e-19)
(9.52949 0.357582 -5.26301e-19)
(9.59562 0.361591 -4.99247e-19)
(9.39914 0.413142 -1.0668e-19)
(9.47468 0.420363 -2.6422e-19)
(9.25353 0.473299 3.89493e-19)
(9.33882 0.483722 5.2709e-19)
(9.09244 0.538769 -7.19697e-19)
(9.18793 0.552418 -1.34007e-19)
(8.91558 0.610275 3.96954e-20)
(9.02181 0.62722 -5.69345e-19)
(8.7226 0.688546 7.1374e-19)
(8.84022 0.708903 8.68057e-19)
(8.51302 0.774357 1.1169e-18)
(8.64281 0.798286 0)
(8.28622 0.868574 -5.6986e-20)
(8.42896 0.896265 1.10015e-18)
(8.04155 0.972141 -1.10527e-18)
(8.19809 1.00382 -1.12293e-18)
(7.77836 1.08598 0)
(7.94972 1.12197 -2.30601e-18)
(7.49581 1.2108 3.31919e-18)
(7.68329 1.2517 2.68828e-18)
(7.19287 1.34711 1.98189e-19)
(7.39795 1.39371 2.9245e-18)
(6.8684 1.49527 2.48723e-19)
(7.09252 1.54856 -2.98523e-18)
(6.52099 1.65529 3.55651e-18)
(6.76591 1.71668 3.52243e-18)
(6.14879 1.82646 9.12528e-19)
(6.41664 1.89808 5.94247e-18)
(5.74927 2.00714 -2.65403e-18)
(6.04247 2.09198 -1.28807e-17)
(5.31894 2.1944 -1.05693e-17)
(5.64042 2.29667 -3.15482e-18)
(4.85289 2.38381 4.2093e-19)
(5.20585 2.50903 6.51038e-18)
(4.34423 2.5692 1.48802e-17)
(4.7325 2.72465 4.97245e-19)
(3.78263 2.74241 -1.07359e-17)
(4.21186 2.93777 8.12776e-18)
(3.15275 2.89322 -8.55054e-18)
(3.63096 3.14116 -1.82698e-17)
(2.43207 3.01131 9.10801e-18)
(2.97689 3.32525 9.11668e-18)
(1.59521 3.09121 7.0105e-19)
(2.20585 3.48393 1.75504e-17)
(1.34111 3.61684 -1.95548e-17)
(9.98348 0.0880396 1.00982e-19)
(9.99992 0.0632203 1.62519e-19)
(9.9498 0.14253 -3.37055e-19)
(9.97313 0.123195 -5.52978e-20)
(9.8986 0.195465 1.31024e-19)
(9.92883 0.180587 -2.24986e-19)
(9.83113 0.249064 1.00129e-19)
(9.86988 0.237748 3.45676e-19)
(9.74853 0.304614 -2.32297e-19)
(9.79624 0.296459 -2.35181e-19)
(9.65116 0.362986 -5.09061e-19)
(9.70779 0.357771 2.40321e-19)
(9.5391 0.425045 -2.33175e-19)
(9.60482 0.422596 -2.4911e-19)
(9.41242 0.49164 3.82856e-19)
(9.48751 0.49183 -2.48996e-19)
(9.27107 0.563577 -7.33949e-21)
(9.35591 0.566334 -3.90104e-19)
(9.11493 0.641655 9.42123e-21)
(9.20996 0.646942 3.97604e-19)
(8.94383 0.726698 2.82139e-19)
(9.04956 0.7345 1.39479e-19)
(8.75748 0.819577 1.4042e-19)
(8.87453 0.82991 -1.55817e-18)
(8.55544 0.921225 0)
(8.68453 0.93416 1.44718e-18)
(8.33722 1.03264 0)
(8.47904 1.04828 0)
(8.10233 1.15486 -2.34172e-18)
(8.25762 1.17332 2.4871e-18)
(7.85031 1.28899 4.55898e-19)
(8.01987 1.3104 -4.84531e-18)
(7.5806 1.43599 2.29728e-18)
(7.7654 1.46069 2.69195e-18)
(7.29233 1.59663 -3.44115e-19)
(7.49361 1.62525 -8.55764e-21)
(6.98439 1.77153 3.79494e-19)
(7.20335 1.8049 0)
(6.65551 1.96114 5.94188e-18)
(6.89358 2.00036 1.13896e-20)
(6.30389 2.16537 -8.09405e-18)
(6.56295 2.21218 5.88312e-18)
(5.92686 2.38341 -1.32837e-17)
(6.20918 2.44037 -1.37647e-17)
(5.52039 2.61332 1.40595e-17)
(5.82925 2.68435 -6.48299e-18)
(5.07859 2.85197 6.55083e-18)
(5.41822 2.94234 2.13899e-17)
(4.59327 3.09534 -6.23531e-18)
(4.96897 3.21154 -6.41382e-18)
(4.05301 3.33829 4.47841e-19)
(4.47239 3.48869 1.46628e-17)
(3.44235 3.57421 -4.90735e-19)
(3.91547 3.76952 -1.46165e-17)
(2.74006 3.79272 1.75675e-17)
(3.28416 4.0476 0)
(1.93672 3.99098 -3.7815e-18)
(2.56347 4.30235 1.76214e-17)
(1.62163 4.58311 -1.97404e-17)
(9.98313 0.099386 2.527e-21)
(9.99994 0.0705869 -5.39718e-20)
(9.9496 0.162152 5.37362e-20)
(9.97312 0.138375 -1.63273e-19)
(9.89967 0.223688 0)
(9.92951 0.204077 0)
(9.83429 0.285999 0)
(9.8724 0.269687 2.27288e-19)
(9.75427 0.350522 2.45783e-19)
(9.8013 0.337026 0)
(9.65997 0.418327 4.92069e-19)
(9.71584 0.407364 -2.36486e-19)
(9.55154 0.490373 -2.64873e-19)
(9.61642 0.481714 1.22659e-18)
(9.4291 0.567567 -1.0246e-18)
(9.50331 0.561021 -7.50484e-19)
(9.29269 0.650793 2.75687e-20)
(9.37662 0.64621 -5.21809e-19)
(9.14227 0.740939 5.23733e-19)
(9.23636 0.738199 5.335e-19)
(8.97769 0.838941 -1.7281e-18)
(9.08247 0.837942 0)
(8.79869 0.945812 -2.05203e-19)
(8.91475 0.946474 -1.42372e-18)
(8.60491 1.06262 1.42588e-18)
(8.73294 1.06492 2.31036e-18)
(8.39594 1.19046 2.52543e-18)
(8.53663 1.19441 -1.1676e-18)
(8.17139 1.33048 -1.22744e-19)
(8.32544 1.33609 2.48998e-18)
(7.93086 1.48388 -2.50196e-18)
(8.09906 1.49119 -5.34961e-18)
(7.67387 1.6519 3.45741e-19)
(7.85707 1.66106 2.54048e-18)
(7.39971 1.83561 3.36402e-19)
(7.59898 1.84706 1.44468e-20)
(7.10736 2.03597 -3.68533e-19)
(7.32386 2.05035 0)
(6.79556 2.2538 2.12144e-20)
(7.0307 2.27202 3.26655e-19)
(6.46253 2.48976 -1.66919e-20)
(6.71804 2.51312 3.76428e-19)
(6.1056 2.74408 -6.86777e-18)
(6.3837 2.77458 -1.45505e-20)
(5.72085 3.01625 1.10729e-18)
(6.02472 3.05701 -6.43004e-18)
(5.30223 3.30469 8.18235e-18)
(5.63661 3.36035 6.62371e-18)
(4.84125 3.60726 1.46733e-17)
(5.21218 3.68349 4.40917e-20)
(4.32679 3.92138 -5.39985e-19)
(4.7422 4.025 2.77182e-17)
(3.7449 4.24305 -1.4112e-17)
(4.21518 4.38265 -2.76255e-17)
(3.074 4.55771 0)
(3.61213 4.75375 1.46854e-17)
(2.3182 4.85665 5.54354e-19)
(2.96302 5.09101 -8.52851e-20)
(1.94491 5.50041 -1.56179e-17)
(9.98315 0.110682 -2.21696e-19)
(9.99999 0.0779435 0)
(9.95019 0.181363 -2.14049e-19)
(9.97359 0.153312 -1.09346e-19)
(9.90183 0.251056 2.31431e-19)
(9.93115 0.226856 1.10614e-19)
(9.83881 0.321724 2.23309e-19)
(9.87608 0.300515 2.27655e-19)
(9.76168 0.394922 -4.86466e-19)
(9.8077 0.376188 -2.30518e-19)
(9.67083 0.471831 5.22803e-19)
(9.72558 0.455219 -7.16642e-19)
(9.56653 0.553472 7.08258e-19)
(9.63018 0.538682 1.45846e-18)
(9.44896 0.640815 -2.43779e-19)
(9.52183 0.627591 -2.47876e-19)
(9.31822 0.73482 1.15585e-21)
(9.40071 0.722944 -1.01828e-18)
(9.17428 0.836474 1.1198e-21)
(9.26685 0.825751 1.29582e-18)
(9.01701 0.946833 2.8283e-19)
(9.12021 0.937083 -1.33555e-18)
(8.84619 1.06703 1.14969e-18)
(8.96061 1.05809 1.36537e-18)
(8.66155 1.19826 -3.35937e-19)
(8.78784 1.19 8.62757e-19)
(8.46277 1.34171 -1.15128e-18)
(8.60163 1.33404 -8.82789e-19)
(8.2495 1.49862 -2.85146e-18)
(8.40168 1.4915 -2.93355e-19)
(8.02137 1.67037 -1.95551e-19)
(8.18768 1.66372 -5.24406e-18)
(7.77792 1.8584 2.17703e-18)
(7.95923 1.85224 5.01084e-18)
(7.51857 2.06416 -3.22966e-19)
(7.71587 2.05867 6.23688e-19)
(7.24241 2.28897 7.00302e-19)
(7.45691 2.28457 0)
(6.94817 2.53411 6.83727e-19)
(7.18135 2.53146 2.14955e-20)
(6.63403 2.8009 3.74394e-19)
(6.8877 2.80101 -6.16442e-18)
(6.29743 3.09062 3.66705e-19)
(6.57389 3.09492 5.24222e-18)
(5.93474 3.40436 -7.90697e-19)
(6.23701 3.41497 7.07258e-19)
(5.54036 3.74243 -1.58995e-18)
(5.87309 3.76294 -1.24769e-17)
(5.10622 4.10423 1.32593e-17)
(5.47571 4.1397 1.17911e-17)
(4.62176 4.48882 4.09339e-19)
(5.03573 4.54523 2.53814e-17)
(4.07484 4.89431 1.32894e-18)
(4.54366 4.97812 -3.81634e-17)
(3.44082 5.30052 1.47411e-17)
(3.97008 5.44179 2.6526e-17)
(2.73028 5.68639 -1.70905e-17)
(3.40307 5.85372 1.30323e-17)
(2.30684 6.38137 -1.63058e-17)
(9.98344 0.121765 1.1059e-19)
(10.0001 0.0851757 4.78902e-19)
(9.95151 0.200004 2.19394e-19)
(9.97446 0.167798 1.63148e-19)
(9.90497 0.277458 1.0894e-19)
(9.93357 0.248808 2.21559e-19)
(9.84444 0.356135 -2.34356e-19)
(9.88067 0.33017 -2.24026e-19)
(9.77046 0.437661 -4.69077e-19)
(9.8152 0.413812 -2.30609e-19)
(9.68349 0.523268 2.5569e-19)
(9.73681 0.501118 -9.43307e-19)
(9.58385 0.614032 4.74025e-19)
(9.64591 0.593219 7.17726e-19)
(9.47176 0.711 -1.035e-18)
(9.54287 0.691208 7.3201e-19)
(9.34733 0.815219 3.13086e-19)
(9.42791 0.796166 -1.01889e-18)
(9.21056 0.92778 -8.16858e-20)
(9.30107 0.909197 1.55094e-18)
(9.06135 1.04985 -2.1216e-19)
(9.16234 1.03147 -1.33507e-18)
(8.89954 1.18266 1.07106e-18)
(9.01161 1.16424 1.35495e-18)
(8.72495 1.3275 2.90402e-19)
(8.84875 1.30882 -2.20616e-18)
(8.53733 1.48568 -1.54738e-20)
(8.67359 1.46655 1.96092e-18)
(8.3364 1.65858 -2.75503e-18)
(8.48588 1.63883 2.80808e-19)
(8.12183 1.84773 1.00861e-19)
(8.28539 1.8272 -2.4341e-18)
(7.89321 2.0548 3.40104e-18)
(8.07175 2.03333 2.47054e-18)
(7.65 2.28154 9.40503e-19)
(7.84458 2.25911 3.35773e-19)
(7.39141 2.52972 -6.79835e-19)
(7.60333 2.50647 0)
(7.11625 2.80122 -6.90554e-18)
(7.34699 2.77748 -6.7297e-19)
(6.82276 3.09808 -1.18474e-18)
(7.07433 3.07449 -1.07551e-17)
(6.50848 3.42247 5.55049e-18)
(6.78342 3.40002 1.08379e-17)
(6.16999 3.77692 -1.11065e-17)
(6.47139 3.75689 3.05677e-20)
(5.80241 4.16379 1.07354e-18)
(6.13452 4.14849 -1.17435e-17)
(5.39844 4.58434 2.40207e-17)
(5.76755 4.57801 1.19636e-17)
(4.94801 5.03861 -1.34394e-17)
(5.36168 5.04728 1.07418e-17)
(4.44031 5.5268 -1.28532e-17)
(4.90988 5.55466 -1.42774e-17)
(3.84541 6.02457 2.49471e-17)
(4.36636 6.11311 4.94558e-19)
(3.1721 6.49642 1.21744e-17)
(3.88805 6.60177 2.41468e-17)
(2.70969 7.26272 -1.25457e-17)
(9.98397 0.132497 5.26352e-19)
(10.0003 0.0921801 -5.2124e-20)
(9.95333 0.217942 1.6638e-19)
(9.97562 0.181712 3.77509e-19)
(9.9088 0.302805 -1.1948e-19)
(9.93645 0.269844 -1.0783e-19)
(9.85097 0.389127 -2.20436e-19)
(9.88595 0.358553 2.23352e-19)
(9.78048 0.478558 -7.17067e-19)
(9.8237 0.449737 -4.54305e-19)
(9.69782 0.572383 -4.5361e-19)
(9.74941 0.544834 -2.39173e-19)
(9.60334 0.67175 9.76025e-19)
(9.66345 0.64506 -4.74478e-19)
(9.49726 0.777785 7.2053e-19)
(9.56621 0.751585 7.31273e-19)
(9.37969 0.891623 2.59458e-19)
(9.45791 0.865568 -1.23903e-18)
(9.25069 1.01444 2.5312e-19)
(9.33863 0.988186 1.00834e-18)
(9.11022 1.14751 2.72867e-19)
(9.20843 1.1207 3.14494e-21)
(8.95821 1.29213 -1.97587e-18)
(9.06728 1.26443 2.65685e-19)
(8.79455 1.44971 -4.77077e-19)
(8.91513 1.4208 -2.20853e-18)
(8.61908 1.62167 2.23538e-18)
(8.75191 1.59126 1.95221e-18)
(8.43159 1.80954 5.67337e-19)
(8.57747 1.77734 2.54477e-18)
(8.2318 2.01502 0)
(8.39164 1.98073 5.88057e-19)
(8.01942 2.24001 -6.25501e-19)
(8.19413 2.20329 -2.31849e-18)
(7.79398 2.48656 -6.10846e-19)
(7.98468 2.44717 -6.18642e-19)
(7.55477 2.75688 0)
(7.76292 2.7147 -5.98157e-19)
(7.30078 3.05351 -4.62488e-18)
(7.52791 3.00841 0)
(7.03049 3.37932 1.47601e-18)
(7.27872 3.33141 -4.58614e-18)
(6.74158 3.73749 5.22593e-18)
(7.01368 3.68726 9.43868e-19)
(6.43081 4.13169 -6.76078e-19)
(6.73023 4.0799 3.74654e-18)
(6.09392 4.56622 -7.0447e-19)
(6.42471 4.51403 1.01908e-17)
(5.72449 5.0448 -1.38967e-18)
(6.09286 4.99515 -1.0928e-17)
(5.31273 5.56875 9.89825e-18)
(5.72639 5.5279 -1.02323e-17)
(4.84857 6.14077 -8.76984e-19)
(5.3216 6.11047 2.14651e-17)
(4.29646 6.73489 -3.35584e-19)
(4.81141 6.76832 -1.14045e-17)
(3.66117 7.30392 -2.9135e-18)
(4.43 7.34106 1.0508e-18)
(3.16348 8.16168 -1.2336e-18)
(9.9847 0.142788 -1.94041e-19)
(10.0007 0.0988672 -5.31499e-19)
(9.95545 0.235095 9.45311e-20)
(9.97699 0.195009 3.23284e-19)
(9.9131 0.326995 2.40976e-19)
(9.93965 0.289888 -2.18874e-19)
(9.85827 0.420547 -2.23365e-20)
(9.89181 0.38552 4.47957e-19)
(9.79162 0.517413 2.73567e-20)
(9.83309 0.483783 -9.05447e-19)
(9.71368 0.618941 -2.63788e-19)
(9.76327 0.586165 9.28055e-19)
(9.62478 0.726367 -7.00108e-19)
(9.68262 0.693979 -1.17864e-18)
(9.52515 0.840894 -1.26011e-18)
(9.59157 0.808476 9.58056e-19)
(9.41494 0.96372 -4.55728e-19)
(9.49038 0.930865 -2.9474e-18)
(9.29427 1.0961 7.43396e-19)
(9.37916 1.06238 2.7439e-18)
(9.16319 1.23937 -2.56158e-22)
(9.25807 1.20436 -7.54729e-19)
(9.0217 1.39495 -1.79583e-21)
(9.12714 1.35821 1.81528e-18)
(8.86979 1.5643 2.79603e-19)
(8.98643 1.52542 -2.09915e-18)
(8.7074 1.74898 2.26915e-18)
(8.83597 1.70755 -2.58008e-19)
(8.53441 1.95068 2.54208e-18)
(8.67573 1.90627 2.51543e-18)
(8.35065 2.17126 -1.76722e-18)
(8.50571 2.12342 1.70764e-18)
(8.15591 2.41281 -2.29387e-18)
(8.3256 2.36102 -9.09482e-18)
(7.94993 2.67777 -6.05385e-19)
(8.13541 2.6215 -3.03669e-20)
(7.73217 2.96876 -5.92874e-19)
(7.93502 2.90757 -4.37184e-20)
(7.50181 3.2889 0)
(7.72367 3.22224 4.66731e-18)
(7.25763 3.64198 -5.07695e-18)
(7.50067 3.56935 0)
(6.9977 4.03237 -5.33959e-19)
(7.2648 3.95347 -5.04473e-18)
(6.71917 4.465 1.46848e-17)
(7.01413 4.37997 4.46059e-18)
(6.41816 4.94588 -1.23398e-19)
(6.74548 4.85502 1.02353e-17)
(6.08915 5.48164 -1.98171e-17)
(6.45521 5.38619 -1.02751e-17)
(5.72247 6.07604 1.37251e-18)
(6.13524 5.98195 -9.59239e-18)
(5.30823 6.73503 1.0892e-17)
(5.7866 6.64146 2.00107e-17)
(4.8064 7.43306 -1.0026e-17)
(5.3176 7.40441 -9.04786e-18)
(4.21559 8.11456 2.777e-18)
(5.04169 8.07246 -1.81104e-17)
(3.68053 9.07768 2.03767e-17)
(9.98553 0.15258 0)
(10.0011 0.105193 -4.19538e-19)
(9.95783 0.2514 0)
(9.97847 0.207627 -2.11759e-19)
(9.91785 0.349926 0)
(9.94314 0.308851 7.9721e-22)
(9.86627 0.450244 -4.58872e-19)
(9.89822 0.410946 -2.1984e-19)
(9.80378 0.554039 2.62983e-20)
(9.84332 0.515793 -1.93148e-21)
(9.73089 0.662736 -2.15026e-20)
(9.77825 0.624933 9.19619e-19)
(9.64794 0.777659 5.14198e-19)
(9.70324 0.73978 -9.31618e-19)
(9.55516 0.900069 -7.90229e-19)
(9.61872 0.861655 7.2265e-19)
(9.45276 1.03121 3.39321e-19)
(9.52503 0.991797 -1.70873e-18)
(9.34094 1.1724 1.19412e-18)
(9.42233 1.13148 1.2524e-18)
(9.21981 1.32504 1.09823e-18)
(9.31084 1.2821 2.37538e-19)
(9.08949 1.49062 -3.36528e-19)
(9.19069 1.44516 3.85648e-18)
(8.95005 1.6707 -2.61371e-18)
(9.06206 1.62219 -2.08689e-18)
(8.80156 1.86695 2.3026e-20)
(8.92508 1.81485 -1.57576e-18)
(8.64407 2.08121 1.67017e-18)
(8.77989 2.02492 9.19354e-21)
(8.47752 2.31546 -5.75023e-18)
(8.62664 2.2544 1.12687e-18)
(8.30185 2.57201 -6.73592e-18)
(8.46522 2.50547 -7.32665e-18)
(8.11703 2.85361 5.30923e-19)
(8.29589 2.78073 -3.04302e-20)
(7.92282 3.16336 5.26692e-18)
(8.11866 3.08327 5.5712e-19)
(7.71865 3.50498 4.63497e-18)
(7.93319 3.41671 9.15747e-18)
(7.50369 3.88304 0)
(7.73924 3.78551 -8.96417e-18)
(7.27665 4.30312 1.44332e-20)
(7.53613 4.19509 4.478e-18)
(7.03552 4.77183 1.42807e-20)
(7.32269 4.65219 5.78279e-19)
(6.77694 5.29712 0)
(7.09716 5.16511 -8.76747e-18)
(6.49612 5.88859 0)
(6.85651 5.74363 8.69461e-18)
(6.18375 6.55403 9.11111e-18)
(6.59265 6.40072 -5.158e-19)
(5.82939 7.30449 -6.07596e-20)
(6.31297 7.13883 9.11086e-18)
(5.38954 8.11791 -1.71821e-17)
(5.90077 8.01328 -1.40169e-18)
(4.84643 8.94199 2.41949e-18)
(5.74092 8.80108 -1.68329e-17)
(4.28193 10.0483 9.13802e-18)
(9.98639 0.161827 -6.27993e-19)
(10.0015 0.111146 -7.95084e-22)
(9.9604 0.266775 -2.06994e-19)
(9.98002 0.219491 -2.102e-19)
(9.92301 0.371485 -2.23038e-19)
(9.94693 0.326627 4.30221e-19)
(9.87495 0.478081 2.4099e-19)
(9.90518 0.43471 -6.56405e-19)
(9.81688 0.588283 9.07145e-19)
(9.85439 0.545627 4.49423e-19)
(9.74934 0.703601 -2.07817e-20)
(9.79431 0.660986 9.11131e-19)
(9.67263 0.825442 -6.97089e-19)
(9.72512 0.782303 -1.38081e-18)
(9.58703 0.955099 -2.33552e-19)
(9.64739 0.910941 -1.17511e-18)
(9.49283 1.09384 -7.51064e-19)
(9.56154 1.04814 9.4796e-19)
(9.39029 1.24303 2.80135e-19)
(9.46775 1.19521 -1.337e-20)
(9.27961 1.40415 3.04823e-18)
(9.3663 1.35362 -4.71976e-19)
(9.161 1.57874 2.02596e-18)
(9.25741 1.52491 4.03874e-18)
(9.03467 1.76842 -1.04065e-18)
(9.14139 1.71068 5.30148e-19)
(8.90081 1.97497 -1.57055e-18)
(9.01852 1.91264 -5.65373e-18)
(8.75965 2.20031 -5.2233e-19)
(8.88914 2.13265 3.61072e-18)
(8.61138 2.44661 -5.42382e-19)
(8.75349 2.37282 -1.55618e-18)
(8.45618 2.71638 -5.36997e-19)
(8.61187 2.6355 -1.10709e-20)
(8.29418 3.01257 0)
(8.46477 2.9235 0)
(8.12547 3.33869 4.52167e-18)
(8.31235 3.24015 0)
(7.94998 3.69909 -4.59152e-18)
(8.15487 3.58954 4.48867e-18)
(7.76749 4.09909 -4.40998e-18)
(7.99269 3.97672 -1.37712e-17)
(7.57753 4.5452 5.03055e-18)
(7.82599 4.40789 8.72387e-18)
(7.37923 5.04597 -8.25233e-18)
(7.65451 4.89091 5.65413e-19)
(7.17044 5.61177 -4.14741e-20)
(7.47838 5.43635 -1.69035e-17)
(6.94754 6.25536 8.18444e-18)
(7.29636 6.05672 2.50411e-17)
(6.70256 6.99041 -5.16263e-19)
(7.10134 6.76983 -8.19622e-18)
(6.42408 7.837 7.70686e-18)
(6.90851 7.58519 7.05174e-18)
(6.06748 8.78383 -8.75238e-19)
(6.58288 8.57547 1.17538e-18)
(5.5882 9.81531 -8.333e-18)
(6.56651 9.5247 -8.65286e-18)
(5.01897 11.1486 1.05942e-17)
(9.98725 0.170487 4.13771e-19)
(10.0018 0.11673 3.1509e-19)
(9.96313 0.281121 4.39035e-19)
(9.98166 0.230524 5.28658e-19)
(9.92862 0.39154 -2.24401e-20)
(9.95101 0.343086 2.15354e-19)
(9.88435 0.503919 -4.29055e-19)
(9.91268 0.456671 -2.20057e-19)
(9.83094 0.620014 4.60997e-19)
(9.8662 0.573171 2.11363e-22)
(9.76888 0.741408 -4.86177e-19)
(9.81122 0.694243 9.02625e-19)
(9.69857 0.869555 -1.85592e-18)
(9.74797 0.821463 -1.36924e-18)
(9.6204 1.00577 3.88932e-20)
(9.67726 0.956185 4.48895e-19)
(9.53475 1.15135 1.67222e-18)
(9.59957 1.09968 1.28262e-20)
(9.44189 1.30771 -7.7213e-19)
(9.51503 1.25333 -2.27232e-19)
(9.3421 1.47637 5.79882e-19)
(9.42399 1.41865 -2.13474e-20)
(9.23566 1.6589 2.49653e-18)
(9.32673 1.59717 -4.47346e-19)
(9.12296 1.85698 -4.163e-18)
(9.22377 1.79052 1.99349e-18)
(9.00439 2.07244 -3.59655e-19)
(9.11557 2.00043 -5.11475e-18)
(8.88033 2.30729 2.52059e-18)
(9.00258 2.22887 4.15186e-18)
(8.75121 2.5638 -1.00909e-18)
(8.88529 2.47798 -1.56496e-18)
(8.61752 2.84467 5.27177e-19)
(8.76428 2.75021 5.32846e-19)
(8.4797 3.15304 0)
(8.64033 3.04857 0)
(8.33827 3.49272 0)
(8.51409 3.37657 5.08607e-19)
(8.19379 3.86849 -4.82119e-18)
(8.38641 3.73853 4.58986e-18)
(8.04686 4.28632 -5.03485e-19)
(8.25835 4.1399 -8.34037e-18)
(7.89806 4.75357 4.2214e-18)
(8.13117 4.58752 4.24276e-18)
(7.74795 5.28023 -8.14082e-18)
(8.00606 5.0901 0)
(7.59657 5.87916 8.24292e-18)
(7.88524 5.65976 -8.59025e-18)
(7.44297 6.56683 8.66002e-18)
(7.77091 6.31163 2.30406e-17)
(7.28281 7.36412 -6.27972e-19)
(7.65961 7.06809 -7.50613e-18)
(7.10587 8.30499 4.70286e-19)
(7.57656 7.94895 5.01242e-19)
(6.87515 9.4022 -6.40563e-18)
(7.38677 9.04395 -6.88135e-18)
(6.5249 10.7578 1.09724e-17)
(7.5797 10.1951 6.81887e-19)
(5.96376 12.4404 1.24707e-17)
(9.98818 0.178521 4.33369e-19)
(10.0021 0.121913 -1.06124e-19)
(9.9661 0.294354 2.99206e-19)
(9.98348 0.240654 1.4229e-19)
(9.93463 0.409996 9.97051e-21)
(9.95534 0.358148 -1.71477e-20)
(9.89429 0.527681 2.13209e-19)
(9.92051 0.476765 -3.91768e-19)
(9.84564 0.649179 4.56827e-19)
(9.87846 0.59838 2.33103e-21)
(9.78918 0.776098 -1.68738e-20)
(9.82868 0.724664 3.85823e-20)
(9.72545 0.909902 9.64755e-19)
(9.77161 0.85717 -3.24421e-20)
(9.655 1.05193 4.16646e-19)
(9.70826 0.997247 5.48738e-19)
(9.57821 1.20356 -1.89152e-18)
(9.639 1.14627 -5.16709e-19)
(9.49534 1.36623 5.26564e-19)
(9.56399 1.30569 -9.73393e-19)
(9.40674 1.54147 -1.05441e-18)
(9.48365 1.47701 1.02729e-18)
(9.31284 1.73084 -9.20886e-19)
(9.39843 1.66174 -2.12613e-19)
(9.21421 1.93605 9.55786e-19)
(9.30907 1.86147 -3.30578e-19)
(9.11142 2.15897 -4.92222e-19)
(9.21601 2.07796 2.28252e-18)
(9.00505 2.40166 0)
(9.11995 2.31323 -1.86799e-18)
(8.89574 2.66646 0)
(9.02174 2.56948 0)
(8.78424 2.95609 0)
(8.92212 2.84915 0)
(8.67156 3.27389 5.13379e-19)
(8.82226 3.15526 0)
(8.55878 3.62387 5.13358e-18)
(8.72334 3.49142 4.47788e-20)
(8.4471 4.01097 9.95822e-19)
(8.62691 3.86213 4.21316e-18)
(8.33808 4.44148 -3.53272e-18)
(8.53489 4.27287 -3.61947e-18)
(8.23374 4.92338 0)
(8.44971 4.73065 -3.58183e-18)
(8.13654 5.46743 -4.67439e-19)
(8.37458 5.24454 6.99999e-18)
(8.04969 6.08797 6.24218e-18)
(8.31415 5.82695 -6.77547e-18)
(7.97677 6.80446 6.88843e-18)
(8.27526 6.49405 1.00672e-17)
(7.92117 7.64405 -6.3026e-18)
(8.26159 7.27004 1.75836e-19)
(7.88111 8.65581 -6.90779e-18)
(8.3125 8.18283 -6.61858e-18)
(7.84584 9.89651 2.23481e-19)
(8.32882 9.32984 -3.82538e-19)
(7.75701 11.858 2.43934e-18)
(8.95804 10.6698 1.71358e-18)
(8.58176 14.0291 -1.30021e-18)
(0.0175954 -0.0300648 2.90585e-21)
(-0.0250354 -0.0156171 4.01579e-22)
(0.146754 -0.068162 -6.05249e-23)
(0.0819824 -0.10812 3.34443e-21)
(0.32103 -0.0754226 -8.28315e-21)
(0.239265 -0.134066 -3.05555e-21)
(0.490004 -0.0641433 -2.99344e-21)
(0.402949 -0.121619 -5.32421e-21)
(0.631146 -0.0476286 5.07935e-21)
(0.554938 -0.0968621 5.00354e-21)
(0.737375 -0.0314743 0)
(0.680207 -0.0707245 0)
(0.809186 -0.0176208 -5.64477e-21)
(0.773383 -0.0470521 0)
(0.851069 -0.00666426 -1.4973e-21)
(0.836132 -0.0272784 -2.60989e-20)
(0.869738 0.00151499 4.12943e-21)
(0.873759 -0.0121284 2.56337e-20)
(0.871325 0.00724647 0)
(0.892697 -0.000939237 0)
(0.859643 0.0109059 0)
(0.897816 0.00785754 -3.3014e-21)
(0.838927 0.0128183 3.28884e-21)
(0.891844 0.0139225 -1.65282e-20)
(0.813612 0.0133683 -3.38721e-23)
(0.877925 0.0170372 1.64409e-20)
(0.786522 0.013346 -4.09022e-21)
(0.860072 0.0182423 -3.28399e-21)
(0.758224 0.0132761 2.37242e-21)
(0.84001 0.0190349 4.8073e-21)
(0.728887 0.0129635 1.62271e-21)
(0.817533 0.0196728 4.6877e-21)
(0.700221 0.0118873 -9.6373e-23)
(0.793046 0.0191388 -7.82218e-21)
(0.675339 0.00960127 -1.11126e-23)
(0.768909 0.0165242 -1.45647e-21)
(0.657303 0.00588774 -1.49083e-21)
(0.748709 0.0119138 2.83798e-21)
(0.648059 0.00139214 -1.31188e-21)
(0.735366 0.00609174 -1.42921e-21)
(0.648458 -0.00250334 -6.84985e-22)
(0.729797 -0.000193019 -6.48021e-22)
(0.657235 -0.00543801 6.48635e-22)
(0.731161 -0.00556821 6.45452e-22)
(0.672568 -0.00776671 -2.48967e-22)
(0.738463 -0.00969569 0)
(0.692975 -0.00949641 -4.63227e-24)
(0.750613 -0.0128208 -2.50195e-22)
(0.717337 -0.0107817 3.56932e-22)
(0.766305 -0.0151927 6.77599e-22)
(0.745382 -0.0120188 1.97102e-22)
(0.784856 -0.0173546 -5.12277e-22)
(0.778109 -0.0136286 8.68437e-23)
(0.806635 -0.0200962 -1.75915e-22)
(0.817125 -0.0155758 -1.21311e-22)
(0.832736 -0.0237742 2.59862e-22)
(0.862759 -0.0171767 -9.07865e-23)
(0.86425 -0.027596 -3.87858e-24)
(0.913115 -0.0295685 8.76572e-24)
(0.038846 -0.0956206 7.35631e-22)
(-0.00937648 -0.0563469 -2.15673e-20)
(0.165041 -0.184139 -1.48484e-23)
(0.0957665 -0.219854 -4.52211e-21)
(0.32144 -0.19353 -1.58946e-23)
(0.227992 -0.254992 1.39989e-20)
(0.476656 -0.167487 0)
(0.368867 -0.231873 -3.73196e-22)
(0.612445 -0.130719 0)
(0.501093 -0.188213 -3.29636e-20)
(0.721146 -0.0942269 0)
(0.612451 -0.141524 3.43518e-20)
(0.802016 -0.0622622 -2.03566e-20)
(0.698165 -0.0989323 -4.49144e-20)
(0.858122 -0.0365057 1.3666e-21)
(0.759088 -0.0631859 7.04319e-20)
(0.895458 -0.0168226 2.1534e-20)
(0.799185 -0.0361898 1.6361e-21)
(0.918099 -0.0014396 -3.30364e-21)
(0.824483 -0.0156715 -2.59573e-20)
(0.928785 0.0102298 -1.98318e-20)