/*--------------------------------*- C++ -*----------------------------------*\
| =========                 |                                                 |
| \\      /  F ield         | OpenFOAM: The Open Source CFD Toolbox           |
|  \\    /   O peration     | Version:  5.x                                   |
|   \\  /    A nd           | Web:      www.OpenFOAM.org                      |
|    \\/     M anipulation  |                                                 |
\*---------------------------------------------------------------------------*/
FoamFile
{
    version     2.0;
    format      ascii;
    class       volVectorField;
    location    "0.3";
    object      Force;
}
// * * * * * * * * * * * * * * * * * * * * * * * * * * * * * * * * * * * * * //

dimensions      [1 1 -2 0 0 0 0];

internalField   uniform (0 0 0);

boundaryField
{
    inlet
    {
        type            calculated;
        value           uniform (0 0 0);
    }
    outlet
    {
        type            calculated;
        value           uniform (0 0 0);
    }
    flap
    {
        type            calculated;
        value           nonuniform List<vector> 
33
(
(2.23826 -4.11439e-22 -0.0683149)
(2.2218 -1.47228e-18 -0.127893)
(2.20105 -7.05297e-38 -0.173063)
(2.17303 2.35099e-38 -0.202118)
(2.13426 1.64103e-18 -0.218892)
(2.08646 3.23395e-18 -0.215105)
(2.03698 -1.90286e-19 -0.185302)
(1.98843 2.11696e-22 -0.139779)
(1.93099 6.63447e-19 -0.0929708)
(1.85589 -6.3524e-19 -0.0493894)
(1.75509 -7.34684e-40 -0.0109677)
(1.61232 -1.30167e-22 0.0152653)
(1.3984 1.6095e-18 0.027446)
(1.05581 -9.7448e-23 0.0286558)
(0.416316 -1.06088e-22 0.0168461)
(-0.0269125 7.96975e-19 1.51135)
(-0.0319745 5.80101e-19 1.31742)
(-0.0212315 -7.16294e-19 1.07939)
(1.55713 -9.69011e-22 -0.0486586)
(1.56651 3.09052e-18 -0.0904689)
(1.57886 -7.21761e-25 -0.124167)
(1.59804 -1.59334e-18 -0.148344)
(1.63139 1.61779e-18 -0.16678)
(1.6872 -1.64765e-18 -0.173186)
(1.76454 -2.8581e-18 -0.159241)
(1.84807 -1.82637e-22 -0.128793)
(1.92344 4.80061e-23 -0.0918893)
(1.98141 -1.69334e-18 -0.0525079)
(2.01276 1.85232e-18 -0.0134091)
(2.0113 1.58563e-18 0.016699)
(1.98167 -1.98708e-18 0.0348542)
(1.93151 3.25583e-19 0.0438042)
(1.86621 -1.30385e-18 0.0429059)
)
;
    }
    upperWall
    {
        type            calculated;
        value           uniform (0 0 0);
    }
    lowerWall
    {
        type            calculated;
        value           uniform (0 0 0);
    }
    frontAndBack
    {
        type            empty;
    }
}


// ************************************************************************* //
