# vtk DataFile Version 2.0

ASCII

DATASET UNSTRUCTURED_GRID

POINTS 33 float 

-5.0000000000000003e-02  3.3333333335000000e-02  0.0000000000000000e+00
-5.0000000000000003e-02  9.9999999985000018e-02  0.0000000000000000e+00
-5.0000000000000003e-02  1.6666666665000002e-01  0.0000000000000000e+00
-5.0000000000000003e-02  2.3333333334999998e-01  0.0000000000000000e+00
-5.0000000000000003e-02  2.9999999999999993e-01  0.0000000000000000e+00
-5.0000000000000003e-02  3.6666666665000003e-01  0.0000000000000000e+00
-5.0000000000000003e-02  4.3333333335000002e-01  0.0000000000000000e+00
-5.0000000000000003e-02  5.0000000000000000e-01  0.0000000000000000e+00
-5.0000000000000003e-02  5.6666666664999987e-01  0.0000000000000000e+00
-5.0000000000000003e-02  6.3333333334999986e-01  0.0000000000000000e+00
-5.0000000000000003e-02  6.9999999999999984e-01  0.0000000000000000e+00
-5.0000000000000003e-02  7.6666666664999994e-01  0.0000000000000000e+00
-4.9999999999999996e-02  8.3333333334999982e-01  0.0000000000000000e+00
-5.0000000000000003e-02  8.9999999999999991e-01  0.0000000000000000e+00
-5.0000000000000003e-02  9.6666666664999990e-01  0.0000000000000000e+00
-3.3333333335000000e-02  9.9999999999999978e-01  0.0000000000000000e+00
0.0000000000000000e+00  1.0000000000000000e+00  0.0000000000000000e+00
3.3333333335000007e-02  1.0000000000000000e+00  0.0000000000000000e+00
5.0000000000000003e-02  3.3333333335000000e-02  0.0000000000000000e+00
5.0000000000000003e-02  9.9999999985000004e-02  0.0000000000000000e+00
5.0000000000000003e-02  1.6666666664999999e-01  0.0000000000000000e+00
5.0000000000000003e-02  2.3333333334999998e-01  0.0000000000000000e+00
5.0000000000000003e-02  2.9999999999999993e-01  0.0000000000000000e+00
5.0000000000000003e-02  3.6666666665000003e-01  0.0000000000000000e+00
5.0000000000000003e-02  4.3333333334999991e-01  0.0000000000000000e+00
5.0000000000000003e-02  5.0000000000000000e-01  0.0000000000000000e+00
5.0000000000000003e-02  5.6666666664999987e-01  0.0000000000000000e+00
5.0000000000000003e-02  6.3333333334999997e-01  0.0000000000000000e+00
5.0000000000000003e-02  6.9999999999999984e-01  0.0000000000000000e+00
5.0000000000000003e-02  7.6666666664999994e-01  0.0000000000000000e+00
5.0000000000000003e-02  8.3333333334999993e-01  0.0000000000000000e+00
5.0000000000000010e-02  8.9999999999999991e-01  0.0000000000000000e+00
5.0000000000000003e-02  9.6666666664999990e-01  0.0000000000000000e+00

CELLS 0 0


CELL_TYPES 0


POINT_DATA 33

VECTORS VertexNormals float

0.0000000000000000e+00 0.0000000000000000e+00 0
0.0000000000000000e+00 0.0000000000000000e+00 0
0.0000000000000000e+00 0.0000000000000000e+00 0
0.0000000000000000e+00 0.0000000000000000e+00 0
0.0000000000000000e+00 0.0000000000000000e+00 0
0.0000000000000000e+00 0.0000000000000000e+00 0
0.0000000000000000e+00 0.0000000000000000e+00 0
0.0000000000000000e+00 0.0000000000000000e+00 0
0.0000000000000000e+00 0.0000000000000000e+00 0
0.0000000000000000e+00 0.0000000000000000e+00 0
0.0000000000000000e+00 0.0000000000000000e+00 0
0.0000000000000000e+00 0.0000000000000000e+00 0
0.0000000000000000e+00 0.0000000000000000e+00 0
0.0000000000000000e+00 0.0000000000000000e+00 0
0.0000000000000000e+00 0.0000000000000000e+00 0
0.0000000000000000e+00 0.0000000000000000e+00 0
0.0000000000000000e+00 0.0000000000000000e+00 0
0.0000000000000000e+00 0.0000000000000000e+00 0
0.0000000000000000e+00 0.0000000000000000e+00 0
0.0000000000000000e+00 0.0000000000000000e+00 0
0.0000000000000000e+00 0.0000000000000000e+00 0
0.0000000000000000e+00 0.0000000000000000e+00 0
0.0000000000000000e+00 0.0000000000000000e+00 0
0.0000000000000000e+00 0.0000000000000000e+00 0
0.0000000000000000e+00 0.0000000000000000e+00 0
0.0000000000000000e+00 0.0000000000000000e+00 0
0.0000000000000000e+00 0.0000000000000000e+00 0
0.0000000000000000e+00 0.0000000000000000e+00 0
0.0000000000000000e+00 0.0000000000000000e+00 0
0.0000000000000000e+00 0.0000000000000000e+00 0
0.0000000000000000e+00 0.0000000000000000e+00 0
0.0000000000000000e+00 0.0000000000000000e+00 0
0.0000000000000000e+00 0.0000000000000000e+00 0

VECTORS Stress float
1.2440473701505280e+02 -4.6187736378073820e+00 0
1.2433734662688541e+02 -1.0752878606704519e+01 0
1.2399010037533036e+02 -1.5131711944149160e+01 0
1.2302136509466355e+02 -1.8778759084787353e+01 0
1.2120540992874275e+02 -2.1525377305881484e+01 0
1.1875722807841056e+02 -2.2472766899921311e+01 0
1.1577692804121479e+02 -2.1970164273504949e+01 0
1.1196686696096828e+02 -2.1415696683638146e+01 0
1.0753266037261616e+02 -1.9890538271852773e+01 0
1.0222485314912117e+02 -1.8154594579926524e+01 0
9.5979611975178145e+01 -1.5785431062155277e+01 0
8.7404405624062093e+01 -1.4424987236391448e+01 0
7.5664249459789218e+01 -1.2981123123654697e+01 0
5.9378398655874797e+01 -1.0450686661017730e+01 0
3.3995002988987459e+01 -5.9459489604603180e+00 0
1.8222224822194033e+01 9.6817187204344506e+01 0
1.4189770744867142e+01 7.6983802090227499e+01 0
1.0668757259649237e+01 5.9189848188285218e+01 0
2.5461086712431470e+01 -1.0149028792491217e+00 0
2.5175432787534003e+01 -2.3316594477466968e+00 0
2.5198429329210999e+01 -3.2082710289810383e+00 0
2.5726591072476673e+01 -4.0228164762358896e+00 0
2.6839246906191264e+01 -4.8558506508169383e+00 0
2.8721613565369687e+01 -5.3731804712263749e+00 0
3.1240977596427957e+01 -5.8849926643354920e+00 0
3.4188579642721734e+01 -6.3572699031861344e+00 0
3.7260346736632222e+01 -6.8019995006389351e+00 0
4.0427140667371383e+01 -6.9123108474757506e+00 0
4.3237284853617098e+01 -7.0175777756297864e+00 0
4.5221231079917793e+01 -7.4388174765451236e+00 0
4.6230746462734572e+01 -7.9716464091804831e+00 0
4.6523836689524067e+01 -8.3275013433169800e+00 0
4.6392025234512055e+01 -8.3474250999591177e+00 0

