# vtk DataFile Version 2.0

ASCII

DATASET UNSTRUCTURED_GRID

POINTS 79 float 

-5.0000000000000003e-02  0.0000000000000000e+00  0.0000000000000000e+00
-5.0000000000000003e-02  5.5555555555555552e-02  0.0000000000000000e+00
-5.0000000000000003e-02  2.7777777777777776e-02  0.0000000000000000e+00
5.0000000000000003e-02  0.0000000000000000e+00  0.0000000000000000e+00
5.0000000000000003e-02  5.5555555555555552e-02  0.0000000000000000e+00
5.0000000000000003e-02  2.7777777777777776e-02  0.0000000000000000e+00
-5.0000000000000003e-02  1.1111111111111110e-01  0.0000000000000000e+00
-5.0000000000000003e-02  8.3333333333333329e-02  0.0000000000000000e+00
5.0000000000000003e-02  1.1111111111111110e-01  0.0000000000000000e+00
5.0000000000000003e-02  8.3333333333333329e-02  0.0000000000000000e+00
-5.0000000000000003e-02  1.6666666666666666e-01  0.0000000000000000e+00
-5.0000000000000003e-02  1.3888888888888890e-01  0.0000000000000000e+00
5.0000000000000003e-02  1.6666666666666666e-01  0.0000000000000000e+00
5.0000000000000003e-02  1.3888888888888890e-01  0.0000000000000000e+00
-5.0000000000000003e-02  2.2222222222222221e-01  0.0000000000000000e+00
-5.0000000000000003e-02  1.9444444444444442e-01  0.0000000000000000e+00
5.0000000000000003e-02  2.2222222222222221e-01  0.0000000000000000e+00
5.0000000000000003e-02  1.9444444444444442e-01  0.0000000000000000e+00
-5.0000000000000003e-02  2.7777777777777779e-01  0.0000000000000000e+00
-5.0000000000000003e-02  2.5000000000000000e-01  0.0000000000000000e+00
5.0000000000000003e-02  2.7777777777777779e-01  0.0000000000000000e+00
5.0000000000000003e-02  2.5000000000000000e-01  0.0000000000000000e+00
-5.0000000000000003e-02  3.3333333333333331e-01  0.0000000000000000e+00
-5.0000000000000003e-02  3.0555555555555558e-01  0.0000000000000000e+00
5.0000000000000003e-02  3.3333333333333331e-01  0.0000000000000000e+00
5.0000000000000003e-02  3.0555555555555558e-01  0.0000000000000000e+00
-5.0000000000000003e-02  3.8888888888888884e-01  0.0000000000000000e+00
-5.0000000000000003e-02  3.6111111111111105e-01  0.0000000000000000e+00
5.0000000000000003e-02  3.8888888888888884e-01  0.0000000000000000e+00
5.0000000000000003e-02  3.6111111111111105e-01  0.0000000000000000e+00
-5.0000000000000003e-02  4.4444444444444442e-01  0.0000000000000000e+00
-5.0000000000000003e-02  4.1666666666666663e-01  0.0000000000000000e+00
5.0000000000000003e-02  4.4444444444444442e-01  0.0000000000000000e+00
5.0000000000000003e-02  4.1666666666666663e-01  0.0000000000000000e+00
-5.0000000000000003e-02  5.0000000000000000e-01  0.0000000000000000e+00
-5.0000000000000003e-02  4.7222222222222221e-01  0.0000000000000000e+00
5.0000000000000003e-02  5.0000000000000000e-01  0.0000000000000000e+00
5.0000000000000003e-02  4.7222222222222221e-01  0.0000000000000000e+00
-5.0000000000000003e-02  5.5555555555555558e-01  0.0000000000000000e+00
-5.0000000000000003e-02  5.2777777777777779e-01  0.0000000000000000e+00
5.0000000000000003e-02  5.5555555555555558e-01  0.0000000000000000e+00
5.0000000000000003e-02  5.2777777777777779e-01  0.0000000000000000e+00
-5.0000000000000003e-02  6.1111111111111105e-01  0.0000000000000000e+00
-5.0000000000000003e-02  5.8333333333333326e-01  0.0000000000000000e+00
5.0000000000000003e-02  6.1111111111111105e-01  0.0000000000000000e+00
5.0000000000000003e-02  5.8333333333333326e-01  0.0000000000000000e+00
-5.0000000000000003e-02  6.6666666666666663e-01  0.0000000000000000e+00
-5.0000000000000003e-02  6.3888888888888884e-01  0.0000000000000000e+00
5.0000000000000003e-02  6.6666666666666663e-01  0.0000000000000000e+00
5.0000000000000003e-02  6.3888888888888884e-01  0.0000000000000000e+00
-5.0000000000000003e-02  7.2222222222222221e-01  0.0000000000000000e+00
-5.0000000000000003e-02  6.9444444444444442e-01  0.0000000000000000e+00
5.0000000000000003e-02  7.2222222222222221e-01  0.0000000000000000e+00
5.0000000000000003e-02  6.9444444444444442e-01  0.0000000000000000e+00
-5.0000000000000003e-02  7.7777777777777768e-01  0.0000000000000000e+00
-5.0000000000000003e-02  7.5000000000000000e-01  0.0000000000000000e+00
5.0000000000000003e-02  7.7777777777777768e-01  0.0000000000000000e+00
5.0000000000000003e-02  7.5000000000000000e-01  0.0000000000000000e+00
-5.0000000000000003e-02  8.3333333333333326e-01  0.0000000000000000e+00
-5.0000000000000003e-02  8.0555555555555547e-01  0.0000000000000000e+00
5.0000000000000003e-02  8.3333333333333326e-01  0.0000000000000000e+00
5.0000000000000003e-02  8.0555555555555547e-01  0.0000000000000000e+00
-5.0000000000000003e-02  8.8888888888888884e-01  0.0000000000000000e+00
-5.0000000000000003e-02  8.6111111111111105e-01  0.0000000000000000e+00
5.0000000000000003e-02  8.8888888888888884e-01  0.0000000000000000e+00
5.0000000000000003e-02  8.6111111111111105e-01  0.0000000000000000e+00
-5.0000000000000003e-02  9.4444444444444442e-01  0.0000000000000000e+00
-5.0000000000000003e-02  9.1666666666666663e-01  0.0000000000000000e+00
5.0000000000000003e-02  9.4444444444444442e-01  0.0000000000000000e+00
5.0000000000000003e-02  9.1666666666666663e-01  0.0000000000000000e+00
-5.0000000000000003e-02  1.0000000000000000e+00  0.0000000000000000e+00
-1.6666666666666670e-02  1.0000000000000000e+00  0.0000000000000000e+00
-5.0000000000000003e-02  9.7222222222222221e-01  0.0000000000000000e+00
-3.3333333333333340e-02  1.0000000000000000e+00  0.0000000000000000e+00
1.6666666666666663e-02  1.0000000000000000e+00  0.0000000000000000e+00
-3.4694469519536142e-18  1.0000000000000000e+00  0.0000000000000000e+00
5.0000000000000003e-02  1.0000000000000000e+00  0.0000000000000000e+00
5.0000000000000003e-02  9.7222222222222221e-01  0.0000000000000000e+00
3.3333333333333333e-02  1.0000000000000000e+00  0.0000000000000000e+00

CELLS 0 0


CELL_TYPES 0


POINT_DATA 79

VECTORS VertexNormals float

0.0000000000000000e+00 0.0000000000000000e+00 0
0.0000000000000000e+00 0.0000000000000000e+00 0
0.0000000000000000e+00 0.0000000000000000e+00 0
0.0000000000000000e+00 0.0000000000000000e+00 0
0.0000000000000000e+00 0.0000000000000000e+00 0
0.0000000000000000e+00 0.0000000000000000e+00 0
0.0000000000000000e+00 0.0000000000000000e+00 0
0.0000000000000000e+00 0.0000000000000000e+00 0
0.0000000000000000e+00 0.0000000000000000e+00 0
0.0000000000000000e+00 0.0000000000000000e+00 0
0.0000000000000000e+00 0.0000000000000000e+00 0
0.0000000000000000e+00 0.0000000000000000e+00 0
0.0000000000000000e+00 0.0000000000000000e+00 0
0.0000000000000000e+00 0.0000000000000000e+00 0
0.0000000000000000e+00 0.0000000000000000e+00 0
0.0000000000000000e+00 0.0000000000000000e+00 0
0.0000000000000000e+00 0.0000000000000000e+00 0
0.0000000000000000e+00 0.0000000000000000e+00 0
0.0000000000000000e+00 0.0000000000000000e+00 0
0.0000000000000000e+00 0.0000000000000000e+00 0
0.0000000000000000e+00 0.0000000000000000e+00 0
0.0000000000000000e+00 0.0000000000000000e+00 0
0.0000000000000000e+00 0.0000000000000000e+00 0
0.0000000000000000e+00 0.0000000000000000e+00 0
0.0000000000000000e+00 0.0000000000000000e+00 0
0.0000000000000000e+00 0.0000000000000000e+00 0
0.0000000000000000e+00 0.0000000000000000e+00 0
0.0000000000000000e+00 0.0000000000000000e+00 0
0.0000000000000000e+00 0.0000000000000000e+00 0
0.0000000000000000e+00 0.0000000000000000e+00 0
0.0000000000000000e+00 0.0000000000000000e+00 0
0.0000000000000000e+00 0.0000000000000000e+00 0
0.0000000000000000e+00 0.0000000000000000e+00 0
0.0000000000000000e+00 0.0000000000000000e+00 0
0.0000000000000000e+00 0.0000000000000000e+00 0
0.0000000000000000e+00 0.0000000000000000e+00 0
0.0000000000000000e+00 0.0000000000000000e+00 0
0.0000000000000000e+00 0.0000000000000000e+00 0
0.0000000000000000e+00 0.0000000000000000e+00 0
0.0000000000000000e+00 0.0000000000000000e+00 0
0.0000000000000000e+00 0.0000000000000000e+00 0
0.0000000000000000e+00 0.0000000000000000e+00 0
0.0000000000000000e+00 0.0000000000000000e+00 0
0.0000000000000000e+00 0.0000000000000000e+00 0
0.0000000000000000e+00 0.0000000000000000e+00 0
0.0000000000000000e+00 0.0000000000000000e+00 0
0.0000000000000000e+00 0.0000000000000000e+00 0
0.0000000000000000e+00 0.0000000000000000e+00 0
0.0000000000000000e+00 0.0000000000000000e+00 0
0.0000000000000000e+00 0.0000000000000000e+00 0
0.0000000000000000e+00 0.0000000000000000e+00 0
0.0000000000000000e+00 0.0000000000000000e+00 0
0.0000000000000000e+00 0.0000000000000000e+00 0
0.0000000000000000e+00 0.0000000000000000e+00 0
0.0000000000000000e+00 0.0000000000000000e+00 0
0.0000000000000000e+00 0.0000000000000000e+00 0
0.0000000000000000e+00 0.0000000000000000e+00 0
0.0000000000000000e+00 0.0000000000000000e+00 0
0.0000000000000000e+00 0.0000000000000000e+00 0
0.0000000000000000e+00 0.0000000000000000e+00 0
0.0000000000000000e+00 0.0000000000000000e+00 0
0.0000000000000000e+00 0.0000000000000000e+00 0
0.0000000000000000e+00 0.0000000000000000e+00 0
0.0000000000000000e+00 0.0000000000000000e+00 0
0.0000000000000000e+00 0.0000000000000000e+00 0
0.0000000000000000e+00 0.0000000000000000e+00 0
0.0000000000000000e+00 0.0000000000000000e+00 0
0.0000000000000000e+00 0.0000000000000000e+00 0
0.0000000000000000e+00 0.0000000000000000e+00 0
0.0000000000000000e+00 0.0000000000000000e+00 0
0.0000000000000000e+00 0.0000000000000000e+00 0
0.0000000000000000e+00 0.0000000000000000e+00 0
0.0000000000000000e+00 0.0000000000000000e+00 0
0.0000000000000000e+00 0.0000000000000000e+00 0
0.0000000000000000e+00 0.0000000000000000e+00 0
0.0000000000000000e+00 0.0000000000000000e+00 0
0.0000000000000000e+00 0.0000000000000000e+00 0
0.0000000000000000e+00 0.0000000000000000e+00 0
0.0000000000000000e+00 0.0000000000000000e+00 0

VECTORS Displacement float
0.0000000000000000e+00 0.0000000000000000e+00 0
2.4349821257674351e-03 2.5158234831840071e-03 0
1.0748892127845349e-03 1.3881494973728512e-03 0
0.0000000000000000e+00 0.0000000000000000e+00 0
2.4118607992670766e-03 -2.6646256910234302e-03 0
1.0434308126891546e-03 -1.4441705440296176e-03 0
6.8920912957501374e-03 4.3132571586654254e-03 0
4.3852195455279337e-03 3.4850408621371490e-03 0
6.9291098452846341e-03 -4.5391471608457763e-03 0
4.4170501823461491e-03 -3.6923509056196865e-03 0
1.2891847929555023e-02 5.4684617626276320e-03 0
9.7848655873343446e-03 4.9512014770292361e-03 0
1.2873418299800193e-02 -5.7488675315930486e-03 0
9.7748164101749864e-03 -5.2024236302981907e-03 0
1.9858573064215485e-02 6.3177274399439792e-03 0
1.6246932206678454e-02 5.9280146389273924e-03 0
1.9925669567647519e-02 -6.5457389368883288e-03 0
1.6297097105640077e-02 -6.1969354692343733e-03 0
2.7654805083584852e-02 6.7465610192634327e-03 0
2.3692191608193545e-02 6.5899445398167594e-03 0
2.7601405245778806e-02 -6.9965405614428799e-03 0
2.3690287986582959e-02 -6.8044233382706515e-03 0
3.5666465572268498e-02 6.7805419011921896e-03 0
3.1642545478952316e-02 6.8063161687227968e-03 0
3.5707724983147553e-02 -7.0608843717186636e-03 0
3.1635439463428096e-02 -7.0963554806304863e-03 0
4.3456222559199661e-02 6.3185831586848379e-03 0
3.9665004305202096e-02 6.6011008742020878e-03 0
4.3387908910075053e-02 -6.5856658759748336e-03 0
3.9643356817103077e-02 -6.8613597646408437e-03 0
5.0338069254576900e-02 5.6681469176229210e-03 0
4.7005361937346793e-02 6.0014941680711564e-03 0
5.0350334665072709e-02 -5.8720694995664392e-03 0
4.6985639722711886e-02 -6.2516715815229152e-03 0
5.6371942536407690e-02 4.9598513277195819e-03 0
5.3454581238896855e-02 5.3198468779775913e-03 0
5.6352577397873804e-02 -5.1691563087821746e-03 0
5.3449469311177923e-02 -5.5048018754150115e-03 0
6.1663755087197569e-02 4.2067577270594137e-03 0
5.9111058185308832e-02 4.5895350868784910e-03 0
6.1655097572185888e-02 -4.4764240440249830e-03 0
5.9093563502859582e-02 -4.8390648855519292e-03 0
6.6029110125605389e-02 3.4143061598085620e-03 0
6.3988665823984894e-02 3.8051910362676532e-03 0
6.6009567541217312e-02 -3.5973693824646238e-03 0
6.3982038883846098e-02 -4.0484915724755136e-03 0
6.9378409581400166e-02 2.7573833125626611e-03 0
6.7800502987316463e-02 3.0667452280580126e-03 0
6.9327002945867577e-02 -2.9127293875333697e-03 0
6.7757052697522219e-02 -3.2098100137786922e-03 0
7.2141685047257764e-02 2.2567190526194070e-03 0
7.0818401166838837e-02 2.4905159234074044e-03 0
7.2156607777374149e-02 -2.4081865136863119e-03 0
7.0805964851852449e-02 -2.6641605872272127e-03 0
7.4468631110007899e-02 1.8222958306664428e-03 0
7.3364656555655328e-02 2.0372607388427924e-03 0
7.4406516093539155e-02 -1.9732109377214786e-03 0
7.3333056011750816e-02 -2.1733321874911242e-03 0
7.6264667431691191e-02 1.4828608153638981e-03 0
7.5428816574982488e-02 1.6318445968500381e-03 0
7.6305273712900315e-02 -1.5821151314902417e-03 0
7.5416710562789646e-02 -1.7709003186485378e-03 0
7.7858208002555399e-02 1.3693561390127624e-03 0
7.7043448305953180e-02 1.4077102015433122e-03 0
7.7810841912055589e-02 -1.4544451958466691e-03 0
7.7067040069262419e-02 -1.4732858775534903e-03 0
7.9485258446376883e-02 1.2664304236375979e-03 0
7.8686476547025694e-02 1.3193150823424451e-03 0
7.9484322490695619e-02 -1.4554304721913465e-03 0
7.8630122224151000e-02 -1.4756441059706306e-03 0
8.1085497840541032e-02 1.2349893502613431e-03 0
8.1024436851882736e-02 3.1331329717067453e-04 0
8.0285602696322150e-02 1.2314958639791380e-03 0
8.1062415843342867e-02 7.6059381574777049e-04 0
8.0982094503563237e-02 -5.4340089540966577e-04 0
8.0991848783444551e-02 -1.2438804627100671e-04 0
8.0985322962977044e-02 -1.3625050946279810e-03 0
8.0276733450935375e-02 -1.3980261085774527e-03 0
8.0986541130379397e-02 -9.5562447954779587e-04 0

VECTORS Stress float
1.1087792553401093e+02 -4.8650624224395358e+00 0
1.1080002611562270e+02 -6.2927422682384986e+00 0
1.1087186163743127e+02 -4.8566668588916855e+00 0
6.3372929060637318e+01 -3.4233008540123819e+00 0
6.0990879003037435e+01 -3.6655176342053437e+00 0
6.1625321770790833e+01 -2.9941314765784455e+00 0
1.1079421637862492e+02 -1.0385317062041850e+01 0
1.1079737901186854e+02 -8.4821548948450527e+00 0
6.1006797204079930e+01 -6.0603055872584264e+00 0
6.0946315067637215e+01 -4.9279875865202030e+00 0
1.1059794875786156e+02 -1.2626054322941400e+01 0
1.1069112586864094e+02 -1.1611139225110492e+01 0
6.1056129782425387e+01 -7.2607278732193663e+00 0
6.1030659623021165e+01 -6.7547364609911256e+00 0
1.1006470320658491e+02 -1.4523013399033971e+01 0
1.1032868991817668e+02 -1.3618825481206841e+01 0
6.1644262752064606e+01 -8.2134987136782911e+00 0
6.1324938171876511e+01 -7.7725434762378427e+00 0
1.0921431264058720e+02 -1.5474622559734598e+01 0
1.0967643017872524e+02 -1.5140855012480642e+01 0
6.2747796713752905e+01 -8.9893255649722050e+00 0
6.2129475237730276e+01 -8.6408916072887223e+00 0
1.0810971583875607e+02 -1.5435004517525158e+01 0
1.0873325330949547e+02 -1.5588816046703414e+01 0
6.4521746701680513e+01 -9.1147996793083621e+00 0
6.3491517283242956e+01 -9.1495466394644609e+00 0
1.0684395691672808e+02 -1.4245335769871417e+01 0
1.0752295791435517e+02 -1.5042106361958758e+01 0
6.6963351922277070e+01 -8.6274354281481465e+00 0
6.5629819295112611e+01 -8.8940813686317597e+00 0
1.0531723611141024e+02 -1.2261817917690223e+01 0
1.0613573132641204e+02 -1.3242794115337347e+01 0
6.9828832270239218e+01 -7.9157264833929730e+00 0
6.8369786069767088e+01 -8.2908373547957126e+00 0
1.0323394974765051e+02 -1.0523901868509711e+01 0
1.0431899316242743e+02 -1.1376230666269294e+01 0
7.2798788572170452e+01 -7.1524436494210022e+00 0
7.1345982796775843e+01 -7.5435965120032051e+00 0
1.0057370366856139e+02 -8.7719311386731533e+00 0
1.0195852318178277e+02 -9.6717336507099390e+00 0
7.5642818377404637e+01 -6.3560884293083291e+00 0
7.4266473077731007e+01 -6.7909197574990685e+00 0
9.7349756121288010e+01 -6.6409986237313205e+00 0
9.9048728180514900e+01 -7.7405305242109534e+00 0
7.8211807881919640e+01 -5.1012895504945845e+00 0
7.6976329709063521e+01 -5.7747529731443592e+00 0
9.3170489166726611e+01 -4.9711876878973271e+00 0
9.5420215408135164e+01 -5.6712612601099863e+00 0
8.0077412721235532e+01 -4.1716441453911557e+00 0
7.9250366745810652e+01 -4.5178617381816366e+00 0
8.7709192209986441e+01 -3.7873193443351738e+00 0
9.0618382553527681e+01 -4.3652036651244543e+00 0
8.1094913937276033e+01 -3.5034755705630687e+00 0
8.0668174536948072e+01 -3.8618078470613000e+00 0
8.0701819745307830e+01 -2.9565825666522869e+00 0
8.4419661199457323e+01 -3.2454891188922375e+00 0
8.1536507201335553e+01 -2.9315182127566004e+00 0
8.1338177965125624e+01 -3.1144646324646601e+00 0
7.1342111305705089e+01 -1.8275717287745010e+00 0
7.6424449412973672e+01 -2.7955542706278038e+00 0
8.1099387779671133e+01 -2.2284133642584720e+00 0
8.1636136823915876e+01 -2.8830457296425038e+00 0
5.7757506557674787e+01 1.2573952507885906e+00 0
6.5104065307805058e+01 9.4403923534844125e-01 0
7.8786082986220691e+01 -2.7265302186185636e-01 0
7.9508954661306916e+01 -3.4501076027254385e-01 0
3.7392770303640759e+01 -2.1661071401187542e+01 0
4.9123288924732492e+01 -1.1592425732195693e+01 0
8.9099218105170024e+01 -1.6410905060685792e+01 0
8.4498121268215414e+01 -9.5619605462681534e+00 0
1.9786880355187577e+00 1.1641742778244554e+02 0
3.9221103128398909e+00 1.2501585281169994e+02 0
2.1418650095939029e+01 1.5417860317290604e+01 0
3.8418058184549295e+00 1.3126770385331236e+02 0
7.9359082753124710e-01 1.0168644613095390e+02 0
2.9570495536489432e+00 1.1213272011545700e+02 0
1.4962777616178528e+01 7.5637215740656671e+01 0
6.9180116703999204e+01 7.9536556614700089e+00 0
2.1350714723721751e+00 9.0820782645823044e+01 0

