# vtk DataFile Version 2.0

ASCII

DATASET UNSTRUCTURED_GRID

POINTS 79 float 

-5.0000000000000003e-02  0.0000000000000000e+00  0.0000000000000000e+00
-5.0000000000000003e-02  5.5555555555555552e-02  0.0000000000000000e+00
-5.0000000000000003e-02  2.7777777777777776e-02  0.0000000000000000e+00
5.0000000000000003e-02  0.0000000000000000e+00  0.0000000000000000e+00
5.0000000000000003e-02  5.5555555555555552e-02  0.0000000000000000e+00
5.0000000000000003e-02  2.7777777777777776e-02  0.0000000000000000e+00
-5.0000000000000003e-02  1.1111111111111110e-01  0.0000000000000000e+00
-5.0000000000000003e-02  8.3333333333333329e-02  0.0000000000000000e+00
5.0000000000000003e-02  1.1111111111111110e-01  0.0000000000000000e+00
5.0000000000000003e-02  8.3333333333333329e-02  0.0000000000000000e+00
-5.0000000000000003e-02  1.6666666666666666e-01  0.0000000000000000e+00
-5.0000000000000003e-02  1.3888888888888890e-01  0.0000000000000000e+00
5.0000000000000003e-02  1.6666666666666666e-01  0.0000000000000000e+00
5.0000000000000003e-02  1.3888888888888890e-01  0.0000000000000000e+00
-5.0000000000000003e-02  2.2222222222222221e-01  0.0000000000000000e+00
-5.0000000000000003e-02  1.9444444444444442e-01  0.0000000000000000e+00
5.0000000000000003e-02  2.2222222222222221e-01  0.0000000000000000e+00
5.0000000000000003e-02  1.9444444444444442e-01  0.0000000000000000e+00
-5.0000000000000003e-02  2.7777777777777779e-01  0.0000000000000000e+00
-5.0000000000000003e-02  2.5000000000000000e-01  0.0000000000000000e+00
5.0000000000000003e-02  2.7777777777777779e-01  0.0000000000000000e+00
5.0000000000000003e-02  2.5000000000000000e-01  0.0000000000000000e+00
-5.0000000000000003e-02  3.3333333333333331e-01  0.0000000000000000e+00
-5.0000000000000003e-02  3.0555555555555558e-01  0.0000000000000000e+00
5.0000000000000003e-02  3.3333333333333331e-01  0.0000000000000000e+00
5.0000000000000003e-02  3.0555555555555558e-01  0.0000000000000000e+00
-5.0000000000000003e-02  3.8888888888888884e-01  0.0000000000000000e+00
-5.0000000000000003e-02  3.6111111111111105e-01  0.0000000000000000e+00
5.0000000000000003e-02  3.8888888888888884e-01  0.0000000000000000e+00
5.0000000000000003e-02  3.6111111111111105e-01  0.0000000000000000e+00
-5.0000000000000003e-02  4.4444444444444442e-01  0.0000000000000000e+00
-5.0000000000000003e-02  4.1666666666666663e-01  0.0000000000000000e+00
5.0000000000000003e-02  4.4444444444444442e-01  0.0000000000000000e+00
5.0000000000000003e-02  4.1666666666666663e-01  0.0000000000000000e+00
-5.0000000000000003e-02  5.0000000000000000e-01  0.0000000000000000e+00
-5.0000000000000003e-02  4.7222222222222221e-01  0.0000000000000000e+00
5.0000000000000003e-02  5.0000000000000000e-01  0.0000000000000000e+00
5.0000000000000003e-02  4.7222222222222221e-01  0.0000000000000000e+00
-5.0000000000000003e-02  5.5555555555555558e-01  0.0000000000000000e+00
-5.0000000000000003e-02  5.2777777777777779e-01  0.0000000000000000e+00
5.0000000000000003e-02  5.5555555555555558e-01  0.0000000000000000e+00
5.0000000000000003e-02  5.2777777777777779e-01  0.0000000000000000e+00
-5.0000000000000003e-02  6.1111111111111105e-01  0.0000000000000000e+00
-5.0000000000000003e-02  5.8333333333333326e-01  0.0000000000000000e+00
5.0000000000000003e-02  6.1111111111111105e-01  0.0000000000000000e+00
5.0000000000000003e-02  5.8333333333333326e-01  0.0000000000000000e+00
-5.0000000000000003e-02  6.6666666666666663e-01  0.0000000000000000e+00
-5.0000000000000003e-02  6.3888888888888884e-01  0.0000000000000000e+00
5.0000000000000003e-02  6.6666666666666663e-01  0.0000000000000000e+00
5.0000000000000003e-02  6.3888888888888884e-01  0.0000000000000000e+00
-5.0000000000000003e-02  7.2222222222222221e-01  0.0000000000000000e+00
-5.0000000000000003e-02  6.9444444444444442e-01  0.0000000000000000e+00
5.0000000000000003e-02  7.2222222222222221e-01  0.0000000000000000e+00
5.0000000000000003e-02  6.9444444444444442e-01  0.0000000000000000e+00
-5.0000000000000003e-02  7.7777777777777768e-01  0.0000000000000000e+00
-5.0000000000000003e-02  7.5000000000000000e-01  0.0000000000000000e+00
5.0000000000000003e-02  7.7777777777777768e-01  0.0000000000000000e+00
5.0000000000000003e-02  7.5000000000000000e-01  0.0000000000000000e+00
-5.0000000000000003e-02  8.3333333333333326e-01  0.0000000000000000e+00
-5.0000000000000003e-02  8.0555555555555547e-01  0.0000000000000000e+00
5.0000000000000003e-02  8.3333333333333326e-01  0.0000000000000000e+00
5.0000000000000003e-02  8.0555555555555547e-01  0.0000000000000000e+00
-5.0000000000000003e-02  8.8888888888888884e-01  0.0000000000000000e+00
-5.0000000000000003e-02  8.6111111111111105e-01  0.0000000000000000e+00
5.0000000000000003e-02  8.8888888888888884e-01  0.0000000000000000e+00
5.0000000000000003e-02  8.6111111111111105e-01  0.0000000000000000e+00
-5.0000000000000003e-02  9.4444444444444442e-01  0.0000000000000000e+00
-5.0000000000000003e-02  9.1666666666666663e-01  0.0000000000000000e+00
5.0000000000000003e-02  9.4444444444444442e-01  0.0000000000000000e+00
5.0000000000000003e-02  9.1666666666666663e-01  0.0000000000000000e+00
-5.0000000000000003e-02  1.0000000000000000e+00  0.0000000000000000e+00
-1.6666666666666670e-02  1.0000000000000000e+00  0.0000000000000000e+00
-5.0000000000000003e-02  9.7222222222222221e-01  0.0000000000000000e+00
-3.3333333333333340e-02  1.0000000000000000e+00  0.0000000000000000e+00
1.6666666666666663e-02  1.0000000000000000e+00  0.0000000000000000e+00
-3.4694469519536142e-18  1.0000000000000000e+00  0.0000000000000000e+00
5.0000000000000003e-02  1.0000000000000000e+00  0.0000000000000000e+00
5.0000000000000003e-02  9.7222222222222221e-01  0.0000000000000000e+00
3.3333333333333333e-02  1.0000000000000000e+00  0.0000000000000000e+00

CELLS 0 0


CELL_TYPES 0


POINT_DATA 79

VECTORS VertexNormals float

0.0000000000000000e+00 0.0000000000000000e+00 0
0.0000000000000000e+00 0.0000000000000000e+00 0
0.0000000000000000e+00 0.0000000000000000e+00 0
0.0000000000000000e+00 0.0000000000000000e+00 0
0.0000000000000000e+00 0.0000000000000000e+00 0
0.0000000000000000e+00 0.0000000000000000e+00 0
0.0000000000000000e+00 0.0000000000000000e+00 0
0.0000000000000000e+00 0.0000000000000000e+00 0
0.0000000000000000e+00 0.0000000000000000e+00 0
0.0000000000000000e+00 0.0000000000000000e+00 0
0.0000000000000000e+00 0.0000000000000000e+00 0
0.0000000000000000e+00 0.0000000000000000e+00 0
0.0000000000000000e+00 0.0000000000000000e+00 0
0.0000000000000000e+00 0.0000000000000000e+00 0
0.0000000000000000e+00 0.0000000000000000e+00 0
0.0000000000000000e+00 0.0000000000000000e+00 0
0.0000000000000000e+00 0.0000000000000000e+00 0
0.0000000000000000e+00 0.0000000000000000e+00 0
0.0000000000000000e+00 0.0000000000000000e+00 0
0.0000000000000000e+00 0.0000000000000000e+00 0
0.0000000000000000e+00 0.0000000000000000e+00 0
0.0000000000000000e+00 0.0000000000000000e+00 0
0.0000000000000000e+00 0.0000000000000000e+00 0
0.0000000000000000e+00 0.0000000000000000e+00 0
0.0000000000000000e+00 0.0000000000000000e+00 0
0.0000000000000000e+00 0.0000000000000000e+00 0
0.0000000000000000e+00 0.0000000000000000e+00 0
0.0000000000000000e+00 0.0000000000000000e+00 0
0.0000000000000000e+00 0.0000000000000000e+00 0
0.0000000000000000e+00 0.0000000000000000e+00 0
0.0000000000000000e+00 0.0000000000000000e+00 0
0.0000000000000000e+00 0.0000000000000000e+00 0
0.0000000000000000e+00 0.0000000000000000e+00 0
0.0000000000000000e+00 0.0000000000000000e+00 0
0.0000000000000000e+00 0.0000000000000000e+00 0
0.0000000000000000e+00 0.0000000000000000e+00 0
0.0000000000000000e+00 0.0000000000000000e+00 0
0.0000000000000000e+00 0.0000000000000000e+00 0
0.0000000000000000e+00 0.0000000000000000e+00 0
0.0000000000000000e+00 0.0000000000000000e+00 0
0.0000000000000000e+00 0.0000000000000000e+00 0
0.0000000000000000e+00 0.0000000000000000e+00 0
0.0000000000000000e+00 0.0000000000000000e+00 0
0.0000000000000000e+00 0.0000000000000000e+00 0
0.0000000000000000e+00 0.0000000000000000e+00 0
0.0000000000000000e+00 0.0000000000000000e+00 0
0.0000000000000000e+00 0.0000000000000000e+00 0
0.0000000000000000e+00 0.0000000000000000e+00 0
0.0000000000000000e+00 0.0000000000000000e+00 0
0.0000000000000000e+00 0.0000000000000000e+00 0
0.0000000000000000e+00 0.0000000000000000e+00 0
0.0000000000000000e+00 0.0000000000000000e+00 0
0.0000000000000000e+00 0.0000000000000000e+00 0
0.0000000000000000e+00 0.0000000000000000e+00 0
0.0000000000000000e+00 0.0000000000000000e+00 0
0.0000000000000000e+00 0.0000000000000000e+00 0
0.0000000000000000e+00 0.0000000000000000e+00 0
0.0000000000000000e+00 0.0000000000000000e+00 0
0.0000000000000000e+00 0.0000000000000000e+00 0
0.0000000000000000e+00 0.0000000000000000e+00 0
0.0000000000000000e+00 0.0000000000000000e+00 0
0.0000000000000000e+00 0.0000000000000000e+00 0
0.0000000000000000e+00 0.0000000000000000e+00 0
0.0000000000000000e+00 0.0000000000000000e+00 0
0.0000000000000000e+00 0.0000000000000000e+00 0
0.0000000000000000e+00 0.0000000000000000e+00 0
0.0000000000000000e+00 0.0000000000000000e+00 0
0.0000000000000000e+00 0.0000000000000000e+00 0
0.0000000000000000e+00 0.0000000000000000e+00 0
0.0000000000000000e+00 0.0000000000000000e+00 0
0.0000000000000000e+00 0.0000000000000000e+00 0
0.0000000000000000e+00 0.0000000000000000e+00 0
0.0000000000000000e+00 0.0000000000000000e+00 0
0.0000000000000000e+00 0.0000000000000000e+00 0
0.0000000000000000e+00 0.0000000000000000e+00 0
0.0000000000000000e+00 0.0000000000000000e+00 0
0.0000000000000000e+00 0.0000000000000000e+00 0
0.0000000000000000e+00 0.0000000000000000e+00 0
0.0000000000000000e+00 0.0000000000000000e+00 0

VECTORS Displacement float
0.0000000000000000e+00 0.0000000000000000e+00 0
1.8276445559851249e-03 2.2487011424418028e-03 0
7.5638416623021322e-04 1.1498858046050660e-03 0
0.0000000000000000e+00 0.0000000000000000e+00 0
1.9705601753614780e-03 -2.3710794280694348e-03 0
8.5038737275012761e-04 -1.2415367217447160e-03 0
5.9587958150014390e-03 4.2298683463630775e-03 0
3.6279454312472346e-03 3.3041528988046178e-03 0
6.0335045491345194e-03 -4.4141674199664298e-03 0
3.7400449774803307e-03 -3.4462159160210731e-03 0
1.2043511686227651e-02 5.6072082808797507e-03 0
8.7810906430925671e-03 4.9932340802364226e-03 0
1.2176965011879440e-02 -5.8503959620579658e-03 0
8.8796519487492117e-03 -5.2197940242943814e-03 0
1.9275351940082688e-02 6.3329896673792619e-03 0
1.5576895781759630e-02 6.0341367523218392e-03 0
1.9293468036066540e-02 -6.6312324820214687e-03 0
1.5659702737647073e-02 -6.2917751789640999e-03 0
2.6940843333598769e-02 6.6566231911341141e-03 0
2.3082276451574645e-02 6.5280372443050488e-03 0
2.7043506871131790e-02 -7.0007769613882045e-03 0
2.3116605926312206e-02 -6.8745192941171681e-03 0
3.4802481122904405e-02 6.6670473471073521e-03 0
3.0865341004476635e-02 6.7103753687619561e-03 0
3.4831678686157941e-02 -6.9000809580613501e-03 0
3.0967776655397173e-02 -6.9886983719019457e-03 0
4.2409300829634844e-02 6.2911612571524339e-03 0
3.8656915215322246e-02 6.5243694956256875e-03 0
4.2522705789206916e-02 -6.5201210399090936e-03 0
3.8699049037354029e-02 -6.7604385222269098e-03 0
4.9299142745114675e-02 5.5278554058674073e-03 0
4.5984063672146636e-02 5.9399005904289624e-03 0
4.9401405642956878e-02 -5.7711264497753182e-03 0
4.6105970021000274e-02 -6.1603696822199964e-03 0
5.5150104804716729e-02 4.6693838803916806e-03 0
5.2361357816681060e-02 5.0964101621864258e-03 0
5.5261612089479960e-02 -4.9342781505129184e-03 0
5.2466065625910302e-02 -5.3627696407685275e-03 0
6.0027391244768566e-02 3.8906551790093844e-03 0
5.7685107084077800e-02 4.2756156028649420e-03 0
6.0138621677815002e-02 -4.1819011482938859e-03 0
5.7796627203148460e-02 -4.5384331822043850e-03 0
6.4096011464096034e-02 3.0683002418647855e-03 0
6.2174183239435438e-02 3.4824877744628635e-03 0
6.4231096849075839e-02 -3.4832613721985494e-03 0
6.2293197159253147e-02 -3.8360798862409513e-03 0
6.7291483469069602e-02 2.2953610435099258e-03 0
6.5807610520209003e-02 2.6720296356305571e-03 0
6.7393983575148503e-02 -2.7020705554412871e-03 0
6.5942436262884485e-02 -3.1013065165433852e-03 0
6.9547551934512175e-02 1.6801435193176343e-03 0
6.8518867513621726e-02 1.9545831549684935e-03 0
6.9631286077660157e-02 -2.1331219511909368e-03 0
6.8586612640439942e-02 -2.3669623676394517e-03 0
7.1406155633468596e-02 1.3119451005790162e-03 0
7.0494941952165144e-02 1.4903368050038243e-03 0
7.1523535389816900e-02 -1.7834255580604411e-03 0
7.0624715973022750e-02 -1.9568182324435609e-03 0
7.2821357987378932e-02 9.2243535908805908e-04 0
7.2199380474278055e-02 1.0996108800093718e-03 0
7.2893905975183568e-02 -1.5098943516076752e-03 0
7.2267676236669187e-02 -1.6262556366853430e-03 0
7.3876851157774370e-02 8.2709194231342668e-04 0
7.3348412127435564e-02 8.4072643943223547e-04 0
7.4046060200203989e-02 -1.3826612785945321e-03 0
7.3480446066050906e-02 -1.4408451593646368e-03 0
7.5050046879895915e-02 8.3414936290633504e-04 0
7.4461112550991457e-02 8.3585661155308785e-04 0
7.5098587343575884e-02 -1.3192205894897509e-03 0
7.4575707697498633e-02 -1.3372178866204159e-03 0
7.6169367157047113e-02 8.5655903972574885e-04 0
7.6203082003356251e-02 9.8746206067339387e-05 0
7.5594601768673678e-02 8.4544892828882976e-04 0
7.6182186095457544e-02 4.8373216019213821e-04 0
7.6204473949062254e-02 -6.1902915220578834e-04 0
7.6213334266082775e-02 -2.6643040715237308e-04 0
7.6181739845271601e-02 -1.2909309904775576e-03 0
7.5633617137903203e-02 -1.3044911685219159e-03 0
7.6188495588287330e-02 -9.6010742310596343e-04 0

VECTORS Stress float
1.1149585283193858e+02 -3.7212556309722800e+00 0
1.1140745956444835e+02 -5.3597625126594721e+00 0
1.1147341754561762e+02 -3.7943586272699577e+00 0
6.4934752549579287e+01 -2.8419305281876177e+00 0
6.2542434492175744e+01 -3.2550235999302686e+00 0
6.3174703301141562e+01 -2.5096934493677736e+00 0
1.1136925562318947e+02 -1.0064418860495607e+01 0
1.1140991767851506e+02 -7.7606849233191042e+00 0
6.2534745812312394e+01 -5.9731013547345810e+00 0
6.2499077325888265e+01 -4.6222907730821134e+00 0
1.1101883120365483e+02 -1.3250636768570075e+01 0
1.1118215667053801e+02 -1.1846973020948553e+01 0
6.2485605416013641e+01 -7.7093694435998259e+00 0
6.2506219273664556e+01 -6.9762335960169821e+00 0
1.1051512766989435e+02 -1.4704312211574688e+01 0
1.1074783804865410e+02 -1.4123234536330074e+01 0
6.3073717936241792e+01 -8.5542024719511573e+00 0
6.2740752015315593e+01 -8.2360749879244395e+00 0
1.0972772870152767e+02 -1.5292622064232546e+01 0
1.1016197358492172e+02 -1.5077028727738252e+01 0
6.4274632877201839e+01 -8.9457853405206151e+00 0
6.3602118920855901e+01 -8.7857211996815749e+00 0
1.0864740271562414e+02 -1.5165842283547136e+01 0
1.0926478892690602e+02 -1.5346159678188997e+01 0
6.6040426119281619e+01 -9.1510867227025301e+00 0
6.5042863708471486e+01 -9.0432494153783409e+00 0
1.0735857658806526e+02 -1.4134454500174343e+01 0
1.0805647823036315e+02 -1.4798274255093020e+01 0
6.8438552481159604e+01 -8.8527363586272259e+00 0
6.7108250669163226e+01 -9.1012447787675228e+00 0
1.0585611890881046e+02 -1.2234792596203079e+01 0
1.0663965249309558e+02 -1.3262910809595269e+01 0
7.1387203682187646e+01 -7.9185093527621575e+00 0
6.9874006674322118e+01 -8.4240706158029752e+00 0
1.0393906773029130e+02 -9.9957524917267619e+00 0
1.0494162222926980e+02 -1.1098606131044562e+01 0
7.4489839618737733e+01 -6.8974758958697748e+00 0
7.2974785246492047e+01 -7.4115838568131949e+00 0
1.0134168203945092e+02 -8.1525723480554007e+00 0
1.0271037793613050e+02 -9.0427815372490841e+00 0
7.7353278928516374e+01 -6.0181899525246081e+00 0
7.5982166021075500e+01 -6.4613100396718437e+00 0
9.8068758117588914e+01 -6.3596854145962425e+00 0
9.9797693515883566e+01 -7.2671905600959690e+00 0
7.9829810490711679e+01 -4.9728863493480731e+00 0
7.8646398500859050e+01 -5.5285904235513499e+00 0
9.3995972846991435e+01 -4.4629014503250346e+00 0
9.6153266062383864e+01 -5.4195102916928590e+00 0
8.1741340355063585e+01 -3.7363166183790781e+00 0
8.0856492213404181e+01 -4.3602974123195963e+00 0
8.8649108989579872e+01 -2.9991093548878780e+00 0
9.1536808497976381e+01 -3.5896779593988413e+00 0
8.2784550968054191e+01 -2.7690436971083727e+00 0
8.2385519517854163e+01 -3.1486048727995239e+00 0
8.1601010551126819e+01 -2.4066034292241056e+00 0
8.5336431607198392e+01 -2.5937966270014385e+00 0
8.3072810629530977e+01 -2.4136997392229205e+00 0
8.2949365146361970e+01 -2.5073281436050365e+00 0
7.2244616870900586e+01 -1.2492552062265077e+00 0
7.7328064775602684e+01 -2.2468162050662386e+00 0
8.2531120779597018e+01 -1.6270734663859230e+00 0
8.3119738135012199e+01 -2.3473346174188237e+00 0
5.8581285810774887e+01 1.7995499170350513e+00 0
6.5974005977593038e+01 1.5373862252663457e+00 0
8.0129522972641496e+01 4.7932904099286588e-01 0
8.0885422180674709e+01 3.5094763845773969e-01 0
3.8054773392793095e+01 -2.1657966713171788e+01 0
4.9912021314151787e+01 -1.1324503715926426e+01 0
9.0617072421625664e+01 -1.5912231843282569e+01 0
8.5946307116613710e+01 -8.9265152719481193e+00 0
1.3572387685832723e+00 1.1818449018720548e+02 0
3.4103013503554678e+00 1.2713946453196132e+02 0
2.1635775315992191e+01 1.5829293594395892e+01 0
3.2364955708962384e+00 1.3334847123843929e+02 0
3.7469527682378612e-01 1.0353072728868037e+02 0
2.5327608517390274e+00 1.1416431305566684e+02 0
1.4881992129804587e+01 7.7059630993194020e+01 0
7.0249301884056976e+01 8.6612039090615269e+00 0
1.7703540263787261e+00 9.2446201126041331e+01 0

