# vtk DataFile Version 2.0

ASCII

DATASET UNSTRUCTURED_GRID

POINTS 79 float 

-5.0000000000000003e-02  0.0000000000000000e+00  0.0000000000000000e+00
-5.0000000000000003e-02  5.5555555555555552e-02  0.0000000000000000e+00
-5.0000000000000003e-02  2.7777777777777776e-02  0.0000000000000000e+00
5.0000000000000003e-02  0.0000000000000000e+00  0.0000000000000000e+00
5.0000000000000003e-02  5.5555555555555552e-02  0.0000000000000000e+00
5.0000000000000003e-02  2.7777777777777776e-02  0.0000000000000000e+00
-5.0000000000000003e-02  1.1111111111111110e-01  0.0000000000000000e+00
-5.0000000000000003e-02  8.3333333333333329e-02  0.0000000000000000e+00
5.0000000000000003e-02  1.1111111111111110e-01  0.0000000000000000e+00
5.0000000000000003e-02  8.3333333333333329e-02  0.0000000000000000e+00
-5.0000000000000003e-02  1.6666666666666666e-01  0.0000000000000000e+00
-5.0000000000000003e-02  1.3888888888888890e-01  0.0000000000000000e+00
5.0000000000000003e-02  1.6666666666666666e-01  0.0000000000000000e+00
5.0000000000000003e-02  1.3888888888888890e-01  0.0000000000000000e+00
-5.0000000000000003e-02  2.2222222222222221e-01  0.0000000000000000e+00
-5.0000000000000003e-02  1.9444444444444442e-01  0.0000000000000000e+00
5.0000000000000003e-02  2.2222222222222221e-01  0.0000000000000000e+00
5.0000000000000003e-02  1.9444444444444442e-01  0.0000000000000000e+00
-5.0000000000000003e-02  2.7777777777777779e-01  0.0000000000000000e+00
-5.0000000000000003e-02  2.5000000000000000e-01  0.0000000000000000e+00
5.0000000000000003e-02  2.7777777777777779e-01  0.0000000000000000e+00
5.0000000000000003e-02  2.5000000000000000e-01  0.0000000000000000e+00
-5.0000000000000003e-02  3.3333333333333331e-01  0.0000000000000000e+00
-5.0000000000000003e-02  3.0555555555555558e-01  0.0000000000000000e+00
5.0000000000000003e-02  3.3333333333333331e-01  0.0000000000000000e+00
5.0000000000000003e-02  3.0555555555555558e-01  0.0000000000000000e+00
-5.0000000000000003e-02  3.8888888888888884e-01  0.0000000000000000e+00
-5.0000000000000003e-02  3.6111111111111105e-01  0.0000000000000000e+00
5.0000000000000003e-02  3.8888888888888884e-01  0.0000000000000000e+00
5.0000000000000003e-02  3.6111111111111105e-01  0.0000000000000000e+00
-5.0000000000000003e-02  4.4444444444444442e-01  0.0000000000000000e+00
-5.0000000000000003e-02  4.1666666666666663e-01  0.0000000000000000e+00
5.0000000000000003e-02  4.4444444444444442e-01  0.0000000000000000e+00
5.0000000000000003e-02  4.1666666666666663e-01  0.0000000000000000e+00
-5.0000000000000003e-02  5.0000000000000000e-01  0.0000000000000000e+00
-5.0000000000000003e-02  4.7222222222222221e-01  0.0000000000000000e+00
5.0000000000000003e-02  5.0000000000000000e-01  0.0000000000000000e+00
5.0000000000000003e-02  4.7222222222222221e-01  0.0000000000000000e+00
-5.0000000000000003e-02  5.5555555555555558e-01  0.0000000000000000e+00
-5.0000000000000003e-02  5.2777777777777779e-01  0.0000000000000000e+00
5.0000000000000003e-02  5.5555555555555558e-01  0.0000000000000000e+00
5.0000000000000003e-02  5.2777777777777779e-01  0.0000000000000000e+00
-5.0000000000000003e-02  6.1111111111111105e-01  0.0000000000000000e+00
-5.0000000000000003e-02  5.8333333333333326e-01  0.0000000000000000e+00
5.0000000000000003e-02  6.1111111111111105e-01  0.0000000000000000e+00
5.0000000000000003e-02  5.8333333333333326e-01  0.0000000000000000e+00
-5.0000000000000003e-02  6.6666666666666663e-01  0.0000000000000000e+00
-5.0000000000000003e-02  6.3888888888888884e-01  0.0000000000000000e+00
5.0000000000000003e-02  6.6666666666666663e-01  0.0000000000000000e+00
5.0000000000000003e-02  6.3888888888888884e-01  0.0000000000000000e+00
-5.0000000000000003e-02  7.2222222222222221e-01  0.0000000000000000e+00
-5.0000000000000003e-02  6.9444444444444442e-01  0.0000000000000000e+00
5.0000000000000003e-02  7.2222222222222221e-01  0.0000000000000000e+00
5.0000000000000003e-02  6.9444444444444442e-01  0.0000000000000000e+00
-5.0000000000000003e-02  7.7777777777777768e-01  0.0000000000000000e+00
-5.0000000000000003e-02  7.5000000000000000e-01  0.0000000000000000e+00
5.0000000000000003e-02  7.7777777777777768e-01  0.0000000000000000e+00
5.0000000000000003e-02  7.5000000000000000e-01  0.0000000000000000e+00
-5.0000000000000003e-02  8.3333333333333326e-01  0.0000000000000000e+00
-5.0000000000000003e-02  8.0555555555555547e-01  0.0000000000000000e+00
5.0000000000000003e-02  8.3333333333333326e-01  0.0000000000000000e+00
5.0000000000000003e-02  8.0555555555555547e-01  0.0000000000000000e+00
-5.0000000000000003e-02  8.8888888888888884e-01  0.0000000000000000e+00
-5.0000000000000003e-02  8.6111111111111105e-01  0.0000000000000000e+00
5.0000000000000003e-02  8.8888888888888884e-01  0.0000000000000000e+00
5.0000000000000003e-02  8.6111111111111105e-01  0.0000000000000000e+00
-5.0000000000000003e-02  9.4444444444444442e-01  0.0000000000000000e+00
-5.0000000000000003e-02  9.1666666666666663e-01  0.0000000000000000e+00
5.0000000000000003e-02  9.4444444444444442e-01  0.0000000000000000e+00
5.0000000000000003e-02  9.1666666666666663e-01  0.0000000000000000e+00
-5.0000000000000003e-02  1.0000000000000000e+00  0.0000000000000000e+00
-1.6666666666666670e-02  1.0000000000000000e+00  0.0000000000000000e+00
-5.0000000000000003e-02  9.7222222222222221e-01  0.0000000000000000e+00
-3.3333333333333340e-02  1.0000000000000000e+00  0.0000000000000000e+00
1.6666666666666663e-02  1.0000000000000000e+00  0.0000000000000000e+00
-3.4694469519536142e-18  1.0000000000000000e+00  0.0000000000000000e+00
5.0000000000000003e-02  1.0000000000000000e+00  0.0000000000000000e+00
5.0000000000000003e-02  9.7222222222222221e-01  0.0000000000000000e+00
3.3333333333333333e-02  1.0000000000000000e+00  0.0000000000000000e+00

CELLS 0 0


CELL_TYPES 0


POINT_DATA 79

VECTORS VertexNormals float

0.0000000000000000e+00 0.0000000000000000e+00 0
0.0000000000000000e+00 0.0000000000000000e+00 0
0.0000000000000000e+00 0.0000000000000000e+00 0
0.0000000000000000e+00 0.0000000000000000e+00 0
0.0000000000000000e+00 0.0000000000000000e+00 0
0.0000000000000000e+00 0.0000000000000000e+00 0
0.0000000000000000e+00 0.0000000000000000e+00 0
0.0000000000000000e+00 0.0000000000000000e+00 0
0.0000000000000000e+00 0.0000000000000000e+00 0
0.0000000000000000e+00 0.0000000000000000e+00 0
0.0000000000000000e+00 0.0000000000000000e+00 0
0.0000000000000000e+00 0.0000000000000000e+00 0
0.0000000000000000e+00 0.0000000000000000e+00 0
0.0000000000000000e+00 0.0000000000000000e+00 0
0.0000000000000000e+00 0.0000000000000000e+00 0
0.0000000000000000e+00 0.0000000000000000e+00 0
0.0000000000000000e+00 0.0000000000000000e+00 0
0.0000000000000000e+00 0.0000000000000000e+00 0
0.0000000000000000e+00 0.0000000000000000e+00 0
0.0000000000000000e+00 0.0000000000000000e+00 0
0.0000000000000000e+00 0.0000000000000000e+00 0
0.0000000000000000e+00 0.0000000000000000e+00 0
0.0000000000000000e+00 0.0000000000000000e+00 0
0.0000000000000000e+00 0.0000000000000000e+00 0
0.0000000000000000e+00 0.0000000000000000e+00 0
0.0000000000000000e+00 0.0000000000000000e+00 0
0.0000000000000000e+00 0.0000000000000000e+00 0
0.0000000000000000e+00 0.0000000000000000e+00 0
0.0000000000000000e+00 0.0000000000000000e+00 0
0.0000000000000000e+00 0.0000000000000000e+00 0
0.0000000000000000e+00 0.0000000000000000e+00 0
0.0000000000000000e+00 0.0000000000000000e+00 0
0.0000000000000000e+00 0.0000000000000000e+00 0
0.0000000000000000e+00 0.0000000000000000e+00 0
0.0000000000000000e+00 0.0000000000000000e+00 0
0.0000000000000000e+00 0.0000000000000000e+00 0
0.0000000000000000e+00 0.0000000000000000e+00 0
0.0000000000000000e+00 0.0000000000000000e+00 0
0.0000000000000000e+00 0.0000000000000000e+00 0
0.0000000000000000e+00 0.0000000000000000e+00 0
0.0000000000000000e+00 0.0000000000000000e+00 0
0.0000000000000000e+00 0.0000000000000000e+00 0
0.0000000000000000e+00 0.0000000000000000e+00 0
0.0000000000000000e+00 0.0000000000000000e+00 0
0.0000000000000000e+00 0.0000000000000000e+00 0
0.0000000000000000e+00 0.0000000000000000e+00 0
0.0000000000000000e+00 0.0000000000000000e+00 0
0.0000000000000000e+00 0.0000000000000000e+00 0
0.0000000000000000e+00 0.0000000000000000e+00 0
0.0000000000000000e+00 0.0000000000000000e+00 0
0.0000000000000000e+00 0.0000000000000000e+00 0
0.0000000000000000e+00 0.0000000000000000e+00 0
0.0000000000000000e+00 0.0000000000000000e+00 0
0.0000000000000000e+00 0.0000000000000000e+00 0
0.0000000000000000e+00 0.0000000000000000e+00 0
0.0000000000000000e+00 0.0000000000000000e+00 0
0.0000000000000000e+00 0.0000000000000000e+00 0
0.0000000000000000e+00 0.0000000000000000e+00 0
0.0000000000000000e+00 0.0000000000000000e+00 0
0.0000000000000000e+00 0.0000000000000000e+00 0
0.0000000000000000e+00 0.0000000000000000e+00 0
0.0000000000000000e+00 0.0000000000000000e+00 0
0.0000000000000000e+00 0.0000000000000000e+00 0
0.0000000000000000e+00 0.0000000000000000e+00 0
0.0000000000000000e+00 0.0000000000000000e+00 0
0.0000000000000000e+00 0.0000000000000000e+00 0
0.0000000000000000e+00 0.0000000000000000e+00 0
0.0000000000000000e+00 0.0000000000000000e+00 0
0.0000000000000000e+00 0.0000000000000000e+00 0
0.0000000000000000e+00 0.0000000000000000e+00 0
0.0000000000000000e+00 0.0000000000000000e+00 0
0.0000000000000000e+00 0.0000000000000000e+00 0
0.0000000000000000e+00 0.0000000000000000e+00 0
0.0000000000000000e+00 0.0000000000000000e+00 0
0.0000000000000000e+00 0.0000000000000000e+00 0
0.0000000000000000e+00 0.0000000000000000e+00 0
0.0000000000000000e+00 0.0000000000000000e+00 0
0.0000000000000000e+00 0.0000000000000000e+00 0
0.0000000000000000e+00 0.0000000000000000e+00 0

VECTORS Displacement float
0.0000000000000000e+00 0.0000000000000000e+00 0
2.3648094162000994e-03 3.1902322759145224e-03 0
9.4442989823642566e-04 1.5937784385682656e-03 0
0.0000000000000000e+00 0.0000000000000000e+00 0
2.3786730489796810e-03 -3.3455648574567719e-03 0
9.5519029774694762e-04 -1.6774669823565510e-03 0
7.9746869550729200e-03 6.3122544604710959e-03 0
4.7540835685366354e-03 4.7876478008463449e-03 0
8.0335446341330621e-03 -6.5778653589193270e-03 0
4.7920242004536144e-03 -4.9993741741738221e-03 0
1.6945759965729258e-02 9.2173567580767172e-03 0
1.2054625342804614e-02 7.7626548908289756e-03 0
1.7014236144676686e-02 -9.6081064234776609e-03 0
1.2119570726354622e-02 -8.0936003585880215e-03 0
2.9103130548414007e-02 1.2097474682903106e-02 0
2.2603121448352231e-02 1.0675040186548378e-02 0
2.9166868718389419e-02 -1.2586963167403441e-02 0
2.2682002526797182e-02 -1.1107617482664445e-02 0
4.4446386320146136e-02 1.4719825214331128e-02 0
3.6403501808902700e-02 1.3434559965464367e-02 0
4.4547866385916110e-02 -1.5400652193609619e-02 0
3.6474603208685438e-02 -1.4011905435167997e-02 0
6.2785347501584626e-02 1.7128648663902679e-02 0
5.3258477669933496e-02 1.5955248421436138e-02 0
6.2876110879257610e-02 -1.8017387262960580e-02 0
5.3352050161796380e-02 -1.6743717334068878e-02 0
8.3829966937875020e-02 1.9282892731971583e-02 0
7.2972595643673588e-02 1.8241297689981631e-02 0
8.3937144326212437e-02 -2.0227651214843850e-02 0
7.3068718565362817e-02 -1.9183398658673967e-02 0
1.0701139235312221e-01 2.1123089445413704e-02 0
9.5194900510995523e-02 2.0228782196960796e-02 0
1.0709301249567084e-01 -2.2059842749310745e-02 0
9.5304467299812026e-02 -2.1158853265370692e-02 0
1.3221324179827598e-01 2.2708934767857812e-02 0
1.1937327719531082e-01 2.1958790246981330e-02 0
1.3230348791523786e-01 -2.3792823846796970e-02 0
1.1944815802277622e-01 -2.2954592400935010e-02 0
1.5915558052559228e-01 2.3889360721988245e-02 0
1.4549405878804805e-01 2.3352054103284621e-02 0
1.5924257932732516e-01 -2.5130493944887443e-02 0
1.4557772030783447e-01 -2.4525153665696093e-02 0
1.8706233754505758e-01 2.4682146615394165e-02 0
1.7302978790933510e-01 2.4315043541319858e-02 0
1.8719460498576507e-01 -2.5971889455505777e-02 0
1.7313503562316787e-01 -2.5587391323212662e-02 0
2.1569671440005722e-01 2.5327501793062174e-02 0
2.0129359114103706e-01 2.5016676506706706e-02 0
2.1582837348557654e-01 -2.6637331864082264e-02 0
2.0144433934512140e-01 -2.6310635398274211e-02 0
2.4512459018433463e-01 2.5887673267848112e-02 0
2.3029679221867400e-01 2.5625177087621263e-02 0
2.4518810519400519e-01 -2.7358312439020809e-02 0
2.3039263400691912e-01 -2.7000230414103599e-02 0
2.7524889132463659e-01 2.6163474747660051e-02 0
2.6012679241388703e-01 2.6066090798563285e-02 0
2.7532770249266325e-01 -2.7824121030077521e-02 0
2.6018792120748385e-01 -2.7646457480031271e-02 0
3.0551348018728974e-01 2.6160965326465765e-02 0
2.9039128543770659e-01 2.6184330542731379e-02 0
3.0560058200276780e-01 -2.7899024236133649e-02 0
2.9047093422203651e-01 -2.7891136927566312e-02 0
3.3560401156981318e-01 2.5920182627798681e-02 0
3.2060659671351843e-01 2.6068203921761016e-02 0
3.3573790790085312e-01 -2.7699565080514629e-02 0
3.2072111024966682e-01 -2.7823790817426270e-02 0
3.6533329560957190e-01 2.5593356761943471e-02 0
3.5050825750159131e-01 2.5758023655415862e-02 0
3.6534301718926565e-01 -2.7482881777212566e-02 0
3.5060935630585727e-01 -2.7566298521242830e-02 0
3.9464166774856491e-01 2.5370350454186383e-02 0
3.9470384520050528e-01 7.8395792601163167e-03 0
3.8004085230265239e-01 2.5445681076251052e-02 0
3.9466362686958761e-01 1.6621841218449361e-02 0
3.9476131099945622e-01 -9.7979042569247901e-03 0
3.9474244825351662e-01 -9.6970739511056578e-04 0
3.9475619872577561e-01 -2.7491683002627797e-02 0
3.8003447613517649e-01 -2.7477967590862490e-02 0
3.9476007619308018e-01 -1.8645195867058331e-02 0

VECTORS Stress float
2.1215993311319193e+02 -8.9553090774282964e+00 0
2.1325858008395528e+02 -1.3747506626963514e+01 0
2.1327064602965351e+02 -9.2995559976677669e+00 0
-9.1287924575879629e+01 8.0223307586359169e+00 0
-9.4674438767246897e+01 6.4084139498038439e+00 0
-9.4060155176115188e+01 5.0662480155683625e+00 0
2.1213483504748399e+02 -2.6487088832901009e+01 0
2.1278241230869855e+02 -2.0156468201385678e+01 0
-9.3747135621227471e+01 1.3208154536693655e+01 0
-9.4254007107888469e+01 9.8377098887715420e+00 0
2.1018539876027580e+02 -3.7888639218867866e+01 0
2.1123641995252206e+02 -3.2313918709755399e+01 0
-9.3193852312235549e+01 1.8733637499590259e+01 0
-9.3391331290352127e+01 1.6063954908484448e+01 0
2.0657134093819514e+02 -4.8764240737261389e+01 0
2.0849166086318428e+02 -4.3402611118719960e+01 0
-9.2299805096232149e+01 2.4187082508772164e+01 0
-9.2698553374907533e+01 2.1460447079339247e+01 0
2.0150445390878190e+02 -5.8355498890462513e+01 0
2.0420780876971526e+02 -5.3731210572534565e+01 0
-9.1276129463720963e+01 2.9130287098711051e+01 0
-9.1801530308691781e+01 2.6720436450991201e+01 0
1.9536682201210328e+02 -6.6415901055162522e+01 0
1.9861001470997280e+02 -6.2655077883194735e+01 0
-9.0230418946055124e+01 3.3448248877396054e+01 0
-9.0818282539565644e+01 3.1437492874186773e+01 0
1.8883208380804604e+02 -7.2485322655258642e+01 0
1.9211636576792125e+02 -6.9870039577168427e+01 0
-8.9245025236135007e+01 3.6922616034884868e+01 0
-8.9751727301490064e+01 3.5428737761227239e+01 0
1.8223494845245000e+02 -7.6736638610587306e+01 0
1.8557611552360822e+02 -7.4713397907301896e+01 0
-8.8257260568700531e+01 3.9661263276523641e+01 0
-8.8777790906767905e+01 3.8305295790805303e+01 0
1.7535029876853741e+02 -8.0194917185502618e+01 0
1.7875835001494556e+02 -7.8542732904256354e+01 0
-8.7046473511747081e+01 4.2184061863525130e+01 0
-8.7624331527713593e+01 4.0932010884653209e+01 0
1.6887913438177611e+02 -8.1821596039001633e+01 0
1.7204164076474353e+02 -8.1125940400174386e+01 0
-8.6008908339428444e+01 4.3461625338602516e+01 0
-8.6507016917214287e+01 4.2851106485587025e+01 0
1.6308766364016469e+02 -8.1660199920631840e+01 0
1.6591299752618170e+02 -8.1937762500551344e+01 0
-8.4945673265033747e+01 4.3896925204974650e+01 0
-8.5491484138166925e+01 4.3761899572676612e+01 0
1.5718385277694597e+02 -8.0883017386014217e+01 0
1.6023091918663454e+02 -8.1340598988656893e+01 0
-8.3551741851304541e+01 4.4230434240028444e+01 0
-8.4329589913899554e+01 4.4106124529572753e+01 0
1.5074816227377198e+02 -7.9834740672374892e+01 0
1.5404407990660388e+02 -8.0500153765174673e+01 0
-8.1880178611356428e+01 4.4376461034168642e+01 0
-8.2752189921209037e+01 4.4447358057918336e+01 0
1.4426357086949577e+02 -7.7978920031971711e+01 0
1.4740177619859867e+02 -7.9070335735626031e+01 0
-8.0077348749270641e+01 4.4073790621369426e+01 0
-8.0983292636277156e+01 4.4261919363316792e+01 0
1.3761515409980046e+02 -7.4636450218241635e+01 0
1.4125611213677570e+02 -7.6409524392584672e+01 0
-7.8210235534305582e+01 4.2706859373567454e+01 0
-7.9161279669691339e+01 4.3633856238319822e+01 0
1.2848783961901194e+02 -6.9705039805535534e+01 0
1.3251382102010990e+02 -7.2153184472495013e+01 0
-7.6022000904028062e+01 3.9375663806594503e+01 0
-7.7069961996407415e+01 4.0306086260214443e+01 0
1.3418917403927324e+02 -6.7278857750649195e+01 0
1.3235111247551143e+02 -6.8566000777525232e+01 0
-7.6413361944460149e+01 5.2731886624394065e+01 0
-7.5962277714060306e+01 4.6520715396994575e+01 0
2.7320392631511538e+01 -3.3435974245756483e+01 0
-2.2490204774666211e+01 -2.9608811195947055e+01 0
1.0233057912242387e+02 -5.6107770420673887e+01 0
-1.1419916395553855e+01 -2.1948967323215868e+01 0
-2.3564992324306495e+01 -5.5955940819286639e+01 0
-2.3163592584209795e+01 -4.3684624307643617e+01 0
-5.8444838258379043e+01 -3.6851986545137493e+01 0
-7.0489240518930700e+01 2.8248186119722646e+01 0
-3.1263690309611206e+01 -5.8558486156428380e+01 0

