# vtk DataFile Version 2.0

ASCII

DATASET UNSTRUCTURED_GRID

POINTS 79 float 

-5.0000000000000003e-02  0.0000000000000000e+00  0.0000000000000000e+00
-5.0000000000000003e-02  5.5555555555555552e-02  0.0000000000000000e+00
-5.0000000000000003e-02  2.7777777777777776e-02  0.0000000000000000e+00
5.0000000000000003e-02  0.0000000000000000e+00  0.0000000000000000e+00
5.0000000000000003e-02  5.5555555555555552e-02  0.0000000000000000e+00
5.0000000000000003e-02  2.7777777777777776e-02  0.0000000000000000e+00
-5.0000000000000003e-02  1.1111111111111110e-01  0.0000000000000000e+00
-5.0000000000000003e-02  8.3333333333333329e-02  0.0000000000000000e+00
5.0000000000000003e-02  1.1111111111111110e-01  0.0000000000000000e+00
5.0000000000000003e-02  8.3333333333333329e-02  0.0000000000000000e+00
-5.0000000000000003e-02  1.6666666666666666e-01  0.0000000000000000e+00
-5.0000000000000003e-02  1.3888888888888890e-01  0.0000000000000000e+00
5.0000000000000003e-02  1.6666666666666666e-01  0.0000000000000000e+00
5.0000000000000003e-02  1.3888888888888890e-01  0.0000000000000000e+00
-5.0000000000000003e-02  2.2222222222222221e-01  0.0000000000000000e+00
-5.0000000000000003e-02  1.9444444444444442e-01  0.0000000000000000e+00
5.0000000000000003e-02  2.2222222222222221e-01  0.0000000000000000e+00
5.0000000000000003e-02  1.9444444444444442e-01  0.0000000000000000e+00
-5.0000000000000003e-02  2.7777777777777779e-01  0.0000000000000000e+00
-5.0000000000000003e-02  2.5000000000000000e-01  0.0000000000000000e+00
5.0000000000000003e-02  2.7777777777777779e-01  0.0000000000000000e+00
5.0000000000000003e-02  2.5000000000000000e-01  0.0000000000000000e+00
-5.0000000000000003e-02  3.3333333333333331e-01  0.0000000000000000e+00
-5.0000000000000003e-02  3.0555555555555558e-01  0.0000000000000000e+00
5.0000000000000003e-02  3.3333333333333331e-01  0.0000000000000000e+00
5.0000000000000003e-02  3.0555555555555558e-01  0.0000000000000000e+00
-5.0000000000000003e-02  3.8888888888888884e-01  0.0000000000000000e+00
-5.0000000000000003e-02  3.6111111111111105e-01  0.0000000000000000e+00
5.0000000000000003e-02  3.8888888888888884e-01  0.0000000000000000e+00
5.0000000000000003e-02  3.6111111111111105e-01  0.0000000000000000e+00
-5.0000000000000003e-02  4.4444444444444442e-01  0.0000000000000000e+00
-5.0000000000000003e-02  4.1666666666666663e-01  0.0000000000000000e+00
5.0000000000000003e-02  4.4444444444444442e-01  0.0000000000000000e+00
5.0000000000000003e-02  4.1666666666666663e-01  0.0000000000000000e+00
-5.0000000000000003e-02  5.0000000000000000e-01  0.0000000000000000e+00
-5.0000000000000003e-02  4.7222222222222221e-01  0.0000000000000000e+00
5.0000000000000003e-02  5.0000000000000000e-01  0.0000000000000000e+00
5.0000000000000003e-02  4.7222222222222221e-01  0.0000000000000000e+00
-5.0000000000000003e-02  5.5555555555555558e-01  0.0000000000000000e+00
-5.0000000000000003e-02  5.2777777777777779e-01  0.0000000000000000e+00
5.0000000000000003e-02  5.5555555555555558e-01  0.0000000000000000e+00
5.0000000000000003e-02  5.2777777777777779e-01  0.0000000000000000e+00
-5.0000000000000003e-02  6.1111111111111105e-01  0.0000000000000000e+00
-5.0000000000000003e-02  5.8333333333333326e-01  0.0000000000000000e+00
5.0000000000000003e-02  6.1111111111111105e-01  0.0000000000000000e+00
5.0000000000000003e-02  5.8333333333333326e-01  0.0000000000000000e+00
-5.0000000000000003e-02  6.6666666666666663e-01  0.0000000000000000e+00
-5.0000000000000003e-02  6.3888888888888884e-01  0.0000000000000000e+00
5.0000000000000003e-02  6.6666666666666663e-01  0.0000000000000000e+00
5.0000000000000003e-02  6.3888888888888884e-01  0.0000000000000000e+00
-5.0000000000000003e-02  7.2222222222222221e-01  0.0000000000000000e+00
-5.0000000000000003e-02  6.9444444444444442e-01  0.0000000000000000e+00
5.0000000000000003e-02  7.2222222222222221e-01  0.0000000000000000e+00
5.0000000000000003e-02  6.9444444444444442e-01  0.0000000000000000e+00
-5.0000000000000003e-02  7.7777777777777768e-01  0.0000000000000000e+00
-5.0000000000000003e-02  7.5000000000000000e-01  0.0000000000000000e+00
5.0000000000000003e-02  7.7777777777777768e-01  0.0000000000000000e+00
5.0000000000000003e-02  7.5000000000000000e-01  0.0000000000000000e+00
-5.0000000000000003e-02  8.3333333333333326e-01  0.0000000000000000e+00
-5.0000000000000003e-02  8.0555555555555547e-01  0.0000000000000000e+00
5.0000000000000003e-02  8.3333333333333326e-01  0.0000000000000000e+00
5.0000000000000003e-02  8.0555555555555547e-01  0.0000000000000000e+00
-5.0000000000000003e-02  8.8888888888888884e-01  0.0000000000000000e+00
-5.0000000000000003e-02  8.6111111111111105e-01  0.0000000000000000e+00
5.0000000000000003e-02  8.8888888888888884e-01  0.0000000000000000e+00
5.0000000000000003e-02  8.6111111111111105e-01  0.0000000000000000e+00
-5.0000000000000003e-02  9.4444444444444442e-01  0.0000000000000000e+00
-5.0000000000000003e-02  9.1666666666666663e-01  0.0000000000000000e+00
5.0000000000000003e-02  9.4444444444444442e-01  0.0000000000000000e+00
5.0000000000000003e-02  9.1666666666666663e-01  0.0000000000000000e+00
-5.0000000000000003e-02  1.0000000000000000e+00  0.0000000000000000e+00
-1.6666666666666670e-02  1.0000000000000000e+00  0.0000000000000000e+00
-5.0000000000000003e-02  9.7222222222222221e-01  0.0000000000000000e+00
-3.3333333333333340e-02  1.0000000000000000e+00  0.0000000000000000e+00
1.6666666666666663e-02  1.0000000000000000e+00  0.0000000000000000e+00
-3.4694469519536142e-18  1.0000000000000000e+00  0.0000000000000000e+00
5.0000000000000003e-02  1.0000000000000000e+00  0.0000000000000000e+00
5.0000000000000003e-02  9.7222222222222221e-01  0.0000000000000000e+00
3.3333333333333333e-02  1.0000000000000000e+00  0.0000000000000000e+00

CELLS 0 0


CELL_TYPES 0


POINT_DATA 79

VECTORS VertexNormals float

0.0000000000000000e+00 0.0000000000000000e+00 0
0.0000000000000000e+00 0.0000000000000000e+00 0
0.0000000000000000e+00 0.0000000000000000e+00 0
0.0000000000000000e+00 0.0000000000000000e+00 0
0.0000000000000000e+00 0.0000000000000000e+00 0
0.0000000000000000e+00 0.0000000000000000e+00 0
0.0000000000000000e+00 0.0000000000000000e+00 0
0.0000000000000000e+00 0.0000000000000000e+00 0
0.0000000000000000e+00 0.0000000000000000e+00 0
0.0000000000000000e+00 0.0000000000000000e+00 0
0.0000000000000000e+00 0.0000000000000000e+00 0
0.0000000000000000e+00 0.0000000000000000e+00 0
0.0000000000000000e+00 0.0000000000000000e+00 0
0.0000000000000000e+00 0.0000000000000000e+00 0
0.0000000000000000e+00 0.0000000000000000e+00 0
0.0000000000000000e+00 0.0000000000000000e+00 0
0.0000000000000000e+00 0.0000000000000000e+00 0
0.0000000000000000e+00 0.0000000000000000e+00 0
0.0000000000000000e+00 0.0000000000000000e+00 0
0.0000000000000000e+00 0.0000000000000000e+00 0
0.0000000000000000e+00 0.0000000000000000e+00 0
0.0000000000000000e+00 0.0000000000000000e+00 0
0.0000000000000000e+00 0.0000000000000000e+00 0
0.0000000000000000e+00 0.0000000000000000e+00 0
0.0000000000000000e+00 0.0000000000000000e+00 0
0.0000000000000000e+00 0.0000000000000000e+00 0
0.0000000000000000e+00 0.0000000000000000e+00 0
0.0000000000000000e+00 0.0000000000000000e+00 0
0.0000000000000000e+00 0.0000000000000000e+00 0
0.0000000000000000e+00 0.0000000000000000e+00 0
0.0000000000000000e+00 0.0000000000000000e+00 0
0.0000000000000000e+00 0.0000000000000000e+00 0
0.0000000000000000e+00 0.0000000000000000e+00 0
0.0000000000000000e+00 0.0000000000000000e+00 0
0.0000000000000000e+00 0.0000000000000000e+00 0
0.0000000000000000e+00 0.0000000000000000e+00 0
0.0000000000000000e+00 0.0000000000000000e+00 0
0.0000000000000000e+00 0.0000000000000000e+00 0
0.0000000000000000e+00 0.0000000000000000e+00 0
0.0000000000000000e+00 0.0000000000000000e+00 0
0.0000000000000000e+00 0.0000000000000000e+00 0
0.0000000000000000e+00 0.0000000000000000e+00 0
0.0000000000000000e+00 0.0000000000000000e+00 0
0.0000000000000000e+00 0.0000000000000000e+00 0
0.0000000000000000e+00 0.0000000000000000e+00 0
0.0000000000000000e+00 0.0000000000000000e+00 0
0.0000000000000000e+00 0.0000000000000000e+00 0
0.0000000000000000e+00 0.0000000000000000e+00 0
0.0000000000000000e+00 0.0000000000000000e+00 0
0.0000000000000000e+00 0.0000000000000000e+00 0
0.0000000000000000e+00 0.0000000000000000e+00 0
0.0000000000000000e+00 0.0000000000000000e+00 0
0.0000000000000000e+00 0.0000000000000000e+00 0
0.0000000000000000e+00 0.0000000000000000e+00 0
0.0000000000000000e+00 0.0000000000000000e+00 0
0.0000000000000000e+00 0.0000000000000000e+00 0
0.0000000000000000e+00 0.0000000000000000e+00 0
0.0000000000000000e+00 0.0000000000000000e+00 0
0.0000000000000000e+00 0.0000000000000000e+00 0
0.0000000000000000e+00 0.0000000000000000e+00 0
0.0000000000000000e+00 0.0000000000000000e+00 0
0.0000000000000000e+00 0.0000000000000000e+00 0
0.0000000000000000e+00 0.0000000000000000e+00 0
0.0000000000000000e+00 0.0000000000000000e+00 0
0.0000000000000000e+00 0.0000000000000000e+00 0
0.0000000000000000e+00 0.0000000000000000e+00 0
0.0000000000000000e+00 0.0000000000000000e+00 0
0.0000000000000000e+00 0.0000000000000000e+00 0
0.0000000000000000e+00 0.0000000000000000e+00 0
0.0000000000000000e+00 0.0000000000000000e+00 0
0.0000000000000000e+00 0.0000000000000000e+00 0
0.0000000000000000e+00 0.0000000000000000e+00 0
0.0000000000000000e+00 0.0000000000000000e+00 0
0.0000000000000000e+00 0.0000000000000000e+00 0
0.0000000000000000e+00 0.0000000000000000e+00 0
0.0000000000000000e+00 0.0000000000000000e+00 0
0.0000000000000000e+00 0.0000000000000000e+00 0
0.0000000000000000e+00 0.0000000000000000e+00 0
0.0000000000000000e+00 0.0000000000000000e+00 0

VECTORS Displacement float
0.0000000000000000e+00 0.0000000000000000e+00 0
1.6598303356426215e-03 2.1235437828455248e-03 0
7.1102227075922706e-04 1.0971767526984845e-03 0
0.0000000000000000e+00 0.0000000000000000e+00 0
1.7279475272199401e-03 -2.2399611376842841e-03 0
7.2524959038186261e-04 -1.1552465343454025e-03 0
5.3972510227968118e-03 4.0737008301829480e-03 0
3.2495629723865303e-03 3.1230413423801520e-03 0
5.4506742969946840e-03 -4.2756003302289076e-03 0
3.3387076456005359e-03 -3.2749031977137638e-03 0
1.1017117355133251e-02 5.8387888106440841e-03 0
7.9954198364934354e-03 4.9582943113402160e-03 0
1.1097854061449367e-02 -6.1404351662777447e-03 0
8.0222710008609165e-03 -5.2262556979308390e-03 0
1.8606949081638485e-02 7.7801819302822962e-03 0
1.4523302791163574e-02 6.7910365441696541e-03 0
1.8709959675689482e-02 -8.0661104310278051e-03 0
1.4656516909311825e-02 -7.0735084920687703e-03 0
2.8583512236427820e-02 9.5682724585874068e-03 0
2.3311790482083972e-02 8.7258400932735507e-03 0
2.8656877539895972e-02 -1.0087102436923968e-02 0
2.3370814789935416e-02 -9.1094098319598610e-03 0
4.0528381239052017e-02 1.1107834840788870e-02 0
3.4305821605122480e-02 1.0348101515121343e-02 0
4.0678398035748520e-02 -1.1796951894218935e-02 0
3.4427971204715545e-02 -1.0970545276828367e-02 0
5.4242470358399894e-02 1.2486729808615999e-02 0
4.7191642694017363e-02 1.1817061982530755e-02 0
5.4419145032984603e-02 -1.3258346635824354e-02 0
4.7357273765550455e-02 -1.2552209809703674e-02 0
6.9519238971312874e-02 1.3594056093490868e-02 0
6.1725436243573427e-02 1.3082639024907016e-02 0
6.9651719251320687e-02 -1.4456282650608583e-02 0
6.1881381572654437e-02 -1.3890605760638164e-02 0
8.5768601086376239e-02 1.4395126787559026e-02 0
7.7544697374406946e-02 1.4017059045271365e-02 0
8.5912340958500311e-02 -1.5488014230493986e-02 0
7.7669798501552229e-02 -1.4977699042468524e-02 0
1.0291898235605723e-01 1.5245268405952844e-02 0
9.4205837878425680e-02 1.4802722112755361e-02 0
1.0307358783486328e-01 -1.6533628594320636e-02 0
9.4374366816557684e-02 -1.6005454080664488e-02 0
1.2120617314301239e-01 1.6117178282183928e-02 0
1.1192327942449969e-01 1.5691806130896945e-02 0
1.2135532984232382e-01 -1.7535545265186622e-02 0
1.1206416525473439e-01 -1.7059182920896726e-02 0
1.4048131391730481e-01 1.6806338094641583e-02 0
1.3072873162717283e-01 1.6493014313361261e-02 0
1.4065584369214640e-01 -1.8270545643488803e-02 0
1.3090344391712636e-01 -1.7937511603621663e-02 0
1.6035848523384699e-01 1.7166510104253768e-02 0
1.5040048786798535e-01 1.7013895073987803e-02 0
1.6042554954935484e-01 -1.8810677977704370e-02 0
1.5049766892913718e-01 -1.8543696253907175e-02 0
1.8063866407856638e-01 1.7587524842979547e-02 0
1.7041169229541786e-01 1.7360054297157725e-02 0
1.8072415338391035e-01 -1.9322380340113868e-02 0
1.7051450476084157e-01 -1.9069075271199637e-02 0
2.0153001419559174e-01 1.7997953360256856e-02 0
1.9102412346255013e-01 1.7807717541044796e-02 0
2.0162083024968214e-01 -1.9791485072458412e-02 0
1.9107559802261437e-01 -1.9582355964532630e-02 0
2.2284142426478265e-01 1.8273958510845428e-02 0
2.1211861579808136e-01 1.8160761632625380e-02 0
2.2294085581132131e-01 -1.9976459158915851e-02 0
2.1225709879986529e-01 -1.9918522958043181e-02 0
2.4424173010176664e-01 1.8171031697451316e-02 0
2.3360854901412947e-01 1.8251000007263252e-02 0
2.4425022776930022e-01 -1.9886404165215338e-02 0
2.3363593046935702e-01 -1.9954015874644300e-02 0
2.6535279166508285e-01 1.8153357152826215e-02 0
2.6533766806201159e-01 5.4231218755883964e-03 0
2.5477410702862630e-01 1.8143040262449651e-02 0
2.6534809410633020e-01 1.1783006862065841e-02 0
2.6531447231503169e-01 -7.2037821501426550e-03 0
2.6532077898497541e-01 -9.0142829648920918e-04 0
2.6531892438279536e-01 -1.9805565031266750e-02 0
2.5480026924756810e-01 -1.9827811333284449e-02 0
2.6531815920442453e-01 -1.3503034191116849e-02 0

VECTORS Stress float
1.5382654773258457e+02 -4.7093098307954193e+00 0
1.5511070528788474e+02 -6.8649460751044273e+00 0
1.5489238796307927e+02 -4.7859514848613003e+00 0
-3.2456229144091409e+01 2.0863146490513884e+00 0
-3.4887854318203864e+01 1.5979845870784573e+00 0
-3.4342792654650978e+01 1.3135125954031253e+00 0
1.5487139302567729e+02 -1.2777795442141610e+01 0
1.5499971665375443e+02 -9.9191960816358744e+00 0
-3.4647398752727696e+01 3.0747616164108535e+00 0
-3.4799481367493399e+01 2.3533424898298279e+00 0
1.5451495286050766e+02 -1.7580277583737711e+01 0
1.5471300347276491e+02 -1.5167766304450140e+01 0
-3.4558302842852569e+01 4.2969921517549778e+00 0
-3.4561938086584121e+01 3.7022333115531580e+00 0
1.5310116952682242e+02 -2.3425956577910284e+01 0
1.5387154409653380e+02 -2.0439689874832851e+01 0
-3.4082523672825502e+01 5.6370611426681023e+00 0
-3.4299147783801317e+01 4.9620969166251143e+00 0
1.5066671860814748e+02 -2.8781628383346117e+01 0
1.5200364107298324e+02 -2.6214228534904237e+01 0
-3.3258318981143844e+01 6.8506255915419842e+00 0
-3.3714425185100822e+01 6.2541729004747708e+00 0
1.4742674577260578e+02 -3.3116940960086481e+01 0
1.4919969652822070e+02 -3.1128942150759372e+01 0
-3.2065391341623780e+01 7.7228447296681111e+00 0
-3.2777521031267895e+01 7.3875740028878170e+00 0
1.4353777464864265e+02 -3.6514422780028298e+01 0
1.4561260569488863e+02 -3.4964900150528166e+01 0
-3.0482669887135231e+01 8.2063476904322954e+00 0
-3.1377498888829592e+01 8.0581957138403482e+00 0
1.3920752026817308e+02 -3.8790018738257686e+01 0
1.4139300166522446e+02 -3.7857432319827382e+01 0
-2.8540471728485272e+01 8.3736174093233728e+00 0
-2.9545255371350549e+01 8.3346853158743102e+00 0
1.3459365568123599e+02 -3.9632195902302868e+01 0
1.3693097811340581e+02 -3.9246928008282310e+01 0
-2.6340169245559935e+01 8.2044242096626192e+00 0
-2.7424376324678335e+01 8.2640455029703901e+00 0
1.2914422176346750e+02 -4.0347181677170880e+01 0
1.3193502998651840e+02 -3.9971787550690635e+01 0
-2.3940052018653702e+01 7.9213781925236049e+00 0
-2.5118739382926691e+01 8.0385596259876024e+00 0
1.2289872680420727e+02 -4.0748128906515603e+01 0
1.2611441680620692e+02 -4.0607229862137444e+01 0
-2.1433697002351181e+01 7.5062283099717177e+00 0
-2.2705608361656587e+01 7.7288228721148471e+00 0
1.1622080824852139e+02 -4.0304750861699503e+01 0
1.1961186671804256e+02 -4.0716209194463545e+01 0
-1.8783311770886456e+01 6.8200230757201012e+00 0
-2.0156337089867662e+01 7.2604560329717032e+00 0
1.0911380068444473e+02 -3.8892322650282310e+01 0
1.1274851512854652e+02 -3.9748425580042422e+01 0
-1.6048246028273539e+01 6.0060356144169234e+00 0
-1.7427752556950495e+01 6.4508134705447304e+00 0
1.0116550151682324e+02 -3.6926020805433382e+01 0
1.0527948561544117e+02 -3.7907858100996677e+01 0
-1.3362395095594557e+01 5.1682680526080063e+00 0
-1.4694662226242638e+01 5.6042527598076006e+00 0
9.1686119763962225e+01 -3.4269518562273134e+01 0
9.6671009521944313e+01 -3.5853920042711756e+01 0
-1.0773623706813780e+01 4.3567385978152160e+00 0
-1.2040197171321889e+01 4.6732884314073644e+00 0
8.0125567178767724e+01 -2.9441403727258304e+01 0
8.6022673892555886e+01 -3.1451764055263141e+01 0
-8.2728354541428502e+00 3.6746629495922605e+00 0
-9.5467844921161280e+00 4.1406918083159852e+00 0
6.9566479628040668e+01 -3.4930488815567003e+01 0
7.5446992421591673e+01 -3.2960920400045367e+01 0
-5.6115726076191450e+00 5.9325623496162905e-01 0
-6.8312022162022998e+00 1.7868773210126960e+00 0
3.2134234383673601e+01 3.7134257256587986e+01 0
1.1695455091297259e+01 3.7709000307443318e+01 0
5.5373509447522821e+01 -1.3912770327076430e+01 0
1.7478580418666198e+01 4.5455543074693111e+01 0
7.8635936993914690e+00 1.6144174150362147e+01 0
9.5352711651119719e+00 2.5334601808089644e+01 0
-6.6170328279860513e+00 1.0871551326345589e+01 0
-4.8767679129283437e+00 2.9010933735133548e+00 0
3.8228702732055098e+00 1.0530818033523445e+01 0

