# vtk DataFile Version 2.0

ASCII

DATASET UNSTRUCTURED_GRID

POINTS 79 float 

-5.0000000000000003e-02  0.0000000000000000e+00  0.0000000000000000e+00
-5.0000000000000003e-02  5.5555555555555552e-02  0.0000000000000000e+00
-5.0000000000000003e-02  2.7777777777777776e-02  0.0000000000000000e+00
5.0000000000000003e-02  0.0000000000000000e+00  0.0000000000000000e+00
5.0000000000000003e-02  5.5555555555555552e-02  0.0000000000000000e+00
5.0000000000000003e-02  2.7777777777777776e-02  0.0000000000000000e+00
-5.0000000000000003e-02  1.1111111111111110e-01  0.0000000000000000e+00
-5.0000000000000003e-02  8.3333333333333329e-02  0.0000000000000000e+00
5.0000000000000003e-02  1.1111111111111110e-01  0.0000000000000000e+00
5.0000000000000003e-02  8.3333333333333329e-02  0.0000000000000000e+00
-5.0000000000000003e-02  1.6666666666666666e-01  0.0000000000000000e+00
-5.0000000000000003e-02  1.3888888888888890e-01  0.0000000000000000e+00
5.0000000000000003e-02  1.6666666666666666e-01  0.0000000000000000e+00
5.0000000000000003e-02  1.3888888888888890e-01  0.0000000000000000e+00
-5.0000000000000003e-02  2.2222222222222221e-01  0.0000000000000000e+00
-5.0000000000000003e-02  1.9444444444444442e-01  0.0000000000000000e+00
5.0000000000000003e-02  2.2222222222222221e-01  0.0000000000000000e+00
5.0000000000000003e-02  1.9444444444444442e-01  0.0000000000000000e+00
-5.0000000000000003e-02  2.7777777777777779e-01  0.0000000000000000e+00
-5.0000000000000003e-02  2.5000000000000000e-01  0.0000000000000000e+00
5.0000000000000003e-02  2.7777777777777779e-01  0.0000000000000000e+00
5.0000000000000003e-02  2.5000000000000000e-01  0.0000000000000000e+00
-5.0000000000000003e-02  3.3333333333333331e-01  0.0000000000000000e+00
-5.0000000000000003e-02  3.0555555555555558e-01  0.0000000000000000e+00
5.0000000000000003e-02  3.3333333333333331e-01  0.0000000000000000e+00
5.0000000000000003e-02  3.0555555555555558e-01  0.0000000000000000e+00
-5.0000000000000003e-02  3.8888888888888884e-01  0.0000000000000000e+00
-5.0000000000000003e-02  3.6111111111111105e-01  0.0000000000000000e+00
5.0000000000000003e-02  3.8888888888888884e-01  0.0000000000000000e+00
5.0000000000000003e-02  3.6111111111111105e-01  0.0000000000000000e+00
-5.0000000000000003e-02  4.4444444444444442e-01  0.0000000000000000e+00
-5.0000000000000003e-02  4.1666666666666663e-01  0.0000000000000000e+00
5.0000000000000003e-02  4.4444444444444442e-01  0.0000000000000000e+00
5.0000000000000003e-02  4.1666666666666663e-01  0.0000000000000000e+00
-5.0000000000000003e-02  5.0000000000000000e-01  0.0000000000000000e+00
-5.0000000000000003e-02  4.7222222222222221e-01  0.0000000000000000e+00
5.0000000000000003e-02  5.0000000000000000e-01  0.0000000000000000e+00
5.0000000000000003e-02  4.7222222222222221e-01  0.0000000000000000e+00
-5.0000000000000003e-02  5.5555555555555558e-01  0.0000000000000000e+00
-5.0000000000000003e-02  5.2777777777777779e-01  0.0000000000000000e+00
5.0000000000000003e-02  5.5555555555555558e-01  0.0000000000000000e+00
5.0000000000000003e-02  5.2777777777777779e-01  0.0000000000000000e+00
-5.0000000000000003e-02  6.1111111111111105e-01  0.0000000000000000e+00
-5.0000000000000003e-02  5.8333333333333326e-01  0.0000000000000000e+00
5.0000000000000003e-02  6.1111111111111105e-01  0.0000000000000000e+00
5.0000000000000003e-02  5.8333333333333326e-01  0.0000000000000000e+00
-5.0000000000000003e-02  6.6666666666666663e-01  0.0000000000000000e+00
-5.0000000000000003e-02  6.3888888888888884e-01  0.0000000000000000e+00
5.0000000000000003e-02  6.6666666666666663e-01  0.0000000000000000e+00
5.0000000000000003e-02  6.3888888888888884e-01  0.0000000000000000e+00
-5.0000000000000003e-02  7.2222222222222221e-01  0.0000000000000000e+00
-5.0000000000000003e-02  6.9444444444444442e-01  0.0000000000000000e+00
5.0000000000000003e-02  7.2222222222222221e-01  0.0000000000000000e+00
5.0000000000000003e-02  6.9444444444444442e-01  0.0000000000000000e+00
-5.0000000000000003e-02  7.7777777777777768e-01  0.0000000000000000e+00
-5.0000000000000003e-02  7.5000000000000000e-01  0.0000000000000000e+00
5.0000000000000003e-02  7.7777777777777768e-01  0.0000000000000000e+00
5.0000000000000003e-02  7.5000000000000000e-01  0.0000000000000000e+00
-5.0000000000000003e-02  8.3333333333333326e-01  0.0000000000000000e+00
-5.0000000000000003e-02  8.0555555555555547e-01  0.0000000000000000e+00
5.0000000000000003e-02  8.3333333333333326e-01  0.0000000000000000e+00
5.0000000000000003e-02  8.0555555555555547e-01  0.0000000000000000e+00
-5.0000000000000003e-02  8.8888888888888884e-01  0.0000000000000000e+00
-5.0000000000000003e-02  8.6111111111111105e-01  0.0000000000000000e+00
5.0000000000000003e-02  8.8888888888888884e-01  0.0000000000000000e+00
5.0000000000000003e-02  8.6111111111111105e-01  0.0000000000000000e+00
-5.0000000000000003e-02  9.4444444444444442e-01  0.0000000000000000e+00
-5.0000000000000003e-02  9.1666666666666663e-01  0.0000000000000000e+00
5.0000000000000003e-02  9.4444444444444442e-01  0.0000000000000000e+00
5.0000000000000003e-02  9.1666666666666663e-01  0.0000000000000000e+00
-5.0000000000000003e-02  1.0000000000000000e+00  0.0000000000000000e+00
-1.6666666666666670e-02  1.0000000000000000e+00  0.0000000000000000e+00
-5.0000000000000003e-02  9.7222222222222221e-01  0.0000000000000000e+00
-3.3333333333333340e-02  1.0000000000000000e+00  0.0000000000000000e+00
1.6666666666666663e-02  1.0000000000000000e+00  0.0000000000000000e+00
-3.4694469519536142e-18  1.0000000000000000e+00  0.0000000000000000e+00
5.0000000000000003e-02  1.0000000000000000e+00  0.0000000000000000e+00
5.0000000000000003e-02  9.7222222222222221e-01  0.0000000000000000e+00
3.3333333333333333e-02  1.0000000000000000e+00  0.0000000000000000e+00

CELLS 0 0


CELL_TYPES 0


POINT_DATA 79

VECTORS VertexNormals float

0.0000000000000000e+00 0.0000000000000000e+00 0
0.0000000000000000e+00 0.0000000000000000e+00 0
0.0000000000000000e+00 0.0000000000000000e+00 0
0.0000000000000000e+00 0.0000000000000000e+00 0
0.0000000000000000e+00 0.0000000000000000e+00 0
0.0000000000000000e+00 0.0000000000000000e+00 0
0.0000000000000000e+00 0.0000000000000000e+00 0
0.0000000000000000e+00 0.0000000000000000e+00 0
0.0000000000000000e+00 0.0000000000000000e+00 0
0.0000000000000000e+00 0.0000000000000000e+00 0
0.0000000000000000e+00 0.0000000000000000e+00 0
0.0000000000000000e+00 0.0000000000000000e+00 0
0.0000000000000000e+00 0.0000000000000000e+00 0
0.0000000000000000e+00 0.0000000000000000e+00 0
0.0000000000000000e+00 0.0000000000000000e+00 0
0.0000000000000000e+00 0.0000000000000000e+00 0
0.0000000000000000e+00 0.0000000000000000e+00 0
0.0000000000000000e+00 0.0000000000000000e+00 0
0.0000000000000000e+00 0.0000000000000000e+00 0
0.0000000000000000e+00 0.0000000000000000e+00 0
0.0000000000000000e+00 0.0000000000000000e+00 0
0.0000000000000000e+00 0.0000000000000000e+00 0
0.0000000000000000e+00 0.0000000000000000e+00 0
0.0000000000000000e+00 0.0000000000000000e+00 0
0.0000000000000000e+00 0.0000000000000000e+00 0
0.0000000000000000e+00 0.0000000000000000e+00 0
0.0000000000000000e+00 0.0000000000000000e+00 0
0.0000000000000000e+00 0.0000000000000000e+00 0
0.0000000000000000e+00 0.0000000000000000e+00 0
0.0000000000000000e+00 0.0000000000000000e+00 0
0.0000000000000000e+00 0.0000000000000000e+00 0
0.0000000000000000e+00 0.0000000000000000e+00 0
0.0000000000000000e+00 0.0000000000000000e+00 0
0.0000000000000000e+00 0.0000000000000000e+00 0
0.0000000000000000e+00 0.0000000000000000e+00 0
0.0000000000000000e+00 0.0000000000000000e+00 0
0.0000000000000000e+00 0.0000000000000000e+00 0
0.0000000000000000e+00 0.0000000000000000e+00 0
0.0000000000000000e+00 0.0000000000000000e+00 0
0.0000000000000000e+00 0.0000000000000000e+00 0
0.0000000000000000e+00 0.0000000000000000e+00 0
0.0000000000000000e+00 0.0000000000000000e+00 0
0.0000000000000000e+00 0.0000000000000000e+00 0
0.0000000000000000e+00 0.0000000000000000e+00 0
0.0000000000000000e+00 0.0000000000000000e+00 0
0.0000000000000000e+00 0.0000000000000000e+00 0
0.0000000000000000e+00 0.0000000000000000e+00 0
0.0000000000000000e+00 0.0000000000000000e+00 0
0.0000000000000000e+00 0.0000000000000000e+00 0
0.0000000000000000e+00 0.0000000000000000e+00 0
0.0000000000000000e+00 0.0000000000000000e+00 0
0.0000000000000000e+00 0.0000000000000000e+00 0
0.0000000000000000e+00 0.0000000000000000e+00 0
0.0000000000000000e+00 0.0000000000000000e+00 0
0.0000000000000000e+00 0.0000000000000000e+00 0
0.0000000000000000e+00 0.0000000000000000e+00 0
0.0000000000000000e+00 0.0000000000000000e+00 0
0.0000000000000000e+00 0.0000000000000000e+00 0
0.0000000000000000e+00 0.0000000000000000e+00 0
0.0000000000000000e+00 0.0000000000000000e+00 0
0.0000000000000000e+00 0.0000000000000000e+00 0
0.0000000000000000e+00 0.0000000000000000e+00 0
0.0000000000000000e+00 0.0000000000000000e+00 0
0.0000000000000000e+00 0.0000000000000000e+00 0
0.0000000000000000e+00 0.0000000000000000e+00 0
0.0000000000000000e+00 0.0000000000000000e+00 0
0.0000000000000000e+00 0.0000000000000000e+00 0
0.0000000000000000e+00 0.0000000000000000e+00 0
0.0000000000000000e+00 0.0000000000000000e+00 0
0.0000000000000000e+00 0.0000000000000000e+00 0
0.0000000000000000e+00 0.0000000000000000e+00 0
0.0000000000000000e+00 0.0000000000000000e+00 0
0.0000000000000000e+00 0.0000000000000000e+00 0
0.0000000000000000e+00 0.0000000000000000e+00 0
0.0000000000000000e+00 0.0000000000000000e+00 0
0.0000000000000000e+00 0.0000000000000000e+00 0
0.0000000000000000e+00 0.0000000000000000e+00 0
0.0000000000000000e+00 0.0000000000000000e+00 0
0.0000000000000000e+00 0.0000000000000000e+00 0

VECTORS Displacement float
0.0000000000000000e+00 0.0000000000000000e+00 0
3.4054808566928033e-03 4.1823388290640022e-03 0
1.4362816756864280e-03 2.1528258181901148e-03 0
0.0000000000000000e+00 0.0000000000000000e+00 0
3.5053430012001933e-03 -4.3962186663895715e-03 0
1.5114767888737917e-03 -2.2815421154383283e-03 0
1.0807639602704484e-02 7.9989254469570656e-03 0
6.5710483000577680e-03 6.1562499223037272e-03 0
1.0810847208304889e-02 -8.4173306359553307e-03 0
6.6390429503634784e-03 -6.4538160269794424e-03 0
2.2262259541367558e-02 1.1261257150574857e-02 0
1.6078004453065939e-02 9.6711306697535061e-03 0
2.2236697160866591e-02 -1.1950078032924671e-02 0
1.6054226081800165e-02 -1.0236351356873848e-02 0
3.7166134174647397e-02 1.4152496730325752e-02 0
2.9283648773230642e-02 1.2773528372152201e-02 0
3.7157484241554684e-02 -1.5010068058340844e-02 0
2.9263662084801030e-02 -1.3550365739628902e-02 0
5.5047006217563393e-02 1.6501406938728851e-02 0
4.5815195082239545e-02 1.5361227858735213e-02 0
5.5051035735799315e-02 -1.7487768539850804e-02 0
4.5815901232300602e-02 -1.6290848830838010e-02 0
7.5365527935851218e-02 1.8737757038678561e-02 0
6.4901668297666804e-02 1.7638713679872384e-02 0
7.5319909644227273e-02 -1.9838150577266726e-02 0
6.4876810676543509e-02 -1.8681176810124132e-02 0
9.8164322207224500e-02 2.0791604346593544e-02 0
8.6430885941996591e-02 1.9797323749921422e-02 0
9.8089683788393292e-02 -2.2065892327721381e-02 0
8.6368064937689351e-02 -2.0969039398065784e-02 0
1.2322837880403584e-01 2.2513576567802764e-02 0
1.1045445693080241e-01 2.1687671516587945e-02 0
1.2317247424919270e-01 -2.4014045958982842e-02 0
1.1039196129134030e-01 -2.3085312770673147e-02 0
1.5016915216907456e-01 2.3975916385232388e-02 0
1.3649539735017419e-01 2.3268935368429399e-02 0
1.5013442095626933e-01 -2.5553996251516886e-02 0
1.3645242079051395e-01 -2.4826139098539847e-02 0
1.7870417334944971e-01 2.5117573805956493e-02 0
1.6424456166304960e-01 2.4605056332330413e-02 0
1.7863624781661847e-01 -2.6735988984239557e-02 0
1.6419396967977701e-01 -2.6196570402573338e-02 0
2.0826819082590575e-01 2.5743066119924180e-02 0
1.9339757997944607e-01 2.5485961794996563e-02 0
2.0818640971740948e-01 -2.7551611494028259e-02 0
1.9331617186945804e-01 -2.7174342580614963e-02 0
2.3833401339301591e-01 2.5991835631096590e-02 0
2.2328590147130636e-01 2.5895177226044147e-02 0
2.3826987447946590e-01 -2.8013610097224494e-02 0
2.2321345334677065e-01 -2.7824222808789101e-02 0
2.6853566399234152e-01 2.6164403992754305e-02 0
2.5342347121639386e-01 2.6074449404516045e-02 0
2.6848674010963003e-01 -2.8238990274412054e-02 0
2.5336280726796723e-01 -2.8144737459181616e-02 0
2.9895384807982761e-01 2.6443579685675053e-02 0
2.8366754334537947e-01 2.6301683806486436e-02 0
2.9889497492332046e-01 -2.8500698940193431e-02 0
2.8362782033640088e-01 -2.8360857585118818e-02 0
3.2975662970849817e-01 2.6508234253647511e-02 0
3.1434871596890623e-01 2.6507163516746552e-02 0
3.2970471189785877e-01 -2.8693710976497498e-02 0
3.1427948777679876e-01 -2.8616674085454638e-02 0
3.6055870662785128e-01 2.6325907494138732e-02 0
3.4518587613700857e-01 2.6443138514087788e-02 0
3.6045254791465553e-01 -2.8673778392158907e-02 0
3.4511426177356042e-01 -2.8707498635036591e-02 0
3.9091008463699206e-01 2.6135130429384323e-02 0
3.7578573404657084e-01 2.6201803333794085e-02 0
3.9094102422647925e-01 -2.8557260249564627e-02 0
3.7572191616071693e-01 -2.8618043691843412e-02 0
4.2118706635881564e-01 2.6116741855604919e-02 0
4.2124045591968123e-01 7.8994161185244431e-03 0
4.0604072487360265e-01 2.6120428776852729e-02 0
4.2120633850360623e-01 1.7020856628861034e-02 0
4.2125134231650996e-01 -1.0338338997108138e-02 0
4.2125822626269172e-01 -1.2296930299803461e-03 0
4.2121160032604277e-01 -2.8473939249719860e-02 0
4.0610760636845988e-01 -2.8503775368172793e-02 0
4.2122817227774079e-01 -1.9417974842196400e-02 0

VECTORS Stress float
2.2055236145612724e+02 -1.2435155584786230e+01 0
2.2129174007668394e+02 -1.9235764933156133e+01 0
2.2155120040592919e+02 -1.3406340287732519e+01 0
-8.9577809969308646e+01 1.0641242443374608e+01 0
-9.2994424405648488e+01 8.7758060864946401e+00 0
-9.2488992093639240e+01 7.2148916012972677e+00 0
2.1941071209535869e+02 -3.5211406648732464e+01 0
2.2048204890880550e+02 -2.7362229609178030e+01 0
-9.1540897156919641e+01 1.6689898712689228e+01 0
-9.2331506504523986e+01 1.2783018951115992e+01 0
2.1639876844697392e+02 -4.8661089101148264e+01 0
2.1798831143044526e+02 -4.2192982613765707e+01 0
-9.0430002775588946e+01 2.2849352158816600e+01 0
-9.0888637004285556e+01 1.9926330478604541e+01 0
2.1191297184453970e+02 -6.0002067558314138e+01 0
2.1423006302732097e+02 -5.4568607121263994e+01 0
-8.9262923632582670e+01 2.7861959217939329e+01 0
-8.9775921508218062e+01 2.5416567245167244e+01 0
2.0675974906336137e+02 -6.8122128715644067e+01 0
2.0940745871493777e+02 -6.4444723435879496e+01 0
-8.8340351748697913e+01 3.1678337306847425e+01 0
-8.8773845385622053e+01 2.9894060785100464e+01 0
2.0072246213277845e+02 -7.4827330213460300e+01 0
2.0393910281533658e+02 -7.1561066119354109e+01 0
-8.7431528147107656e+01 3.5291276451083831e+01 0
-8.7961831742802815e+01 3.3502111080022587e+01 0
1.9395706119860779e+02 -8.0650738809149516e+01 0
1.9742285753688589e+02 -7.7996508357051425e+01 0
-8.6546943598100370e+01 3.8723158987663737e+01 0
-8.7000578436557589e+01 3.7162897643618635e+01 0
1.8706288626394166e+02 -8.5007290306099094e+01 0
1.9047314051101716e+02 -8.3036482283361693e+01 0
-8.5803526296868313e+01 4.1542968251101229e+01 0
-8.6149595673075737e+01 4.0223310038654745e+01 0
1.8049721996129119e+02 -8.7832079379706556e+01 0
1.8373629377729094e+02 -8.6477554914036318e+01 0
-8.5179765089111015e+01 4.3649740446908709e+01 0
-8.5469717901489503e+01 4.2585739889186698e+01 0
1.7420463080890181e+02 -8.9585612757348827e+01 0
1.7729198519106421e+02 -8.8766908519263325e+01 0
-8.4586849406839292e+01 4.5102358434006419e+01 0
-8.4870431464621106e+01 4.4365078736498162e+01 0
1.6871770633556366e+02 -8.9675662390997786e+01 0
1.7135308251750257e+02 -8.9852032737723221e+01 0
-8.4160203885544206e+01 4.5744002046458718e+01 0
-8.4353032528428002e+01 4.5521637285543875e+01 0
1.6387286155045661e+02 -8.8192619335755808e+01 0
1.6623337551504005e+02 -8.9217694083259175e+01 0
-8.3804772168781483e+01 4.5776834905435408e+01 0
-8.3982791618970055e+01 4.5919874619408802e+01 0
1.5871832038347998e+02 -8.5911752797477220e+01 0
1.6145976420438649e+02 -8.7134494554221419e+01 0
-8.3290332345694651e+01 4.5671334778417304e+01 0
-8.3629142762562196e+01 4.5749454165277257e+01 0
1.5262069088282522e+02 -8.3434086388024753e+01 0
1.5573689654336260e+02 -8.4710964971998919e+01 0
-8.2514577674991642e+01 4.5867695174313440e+01 0
-8.2916938611526234e+01 4.5709592896972026e+01 0
1.4513435188217460e+02 -8.0290934132708117e+01 0
1.4925289817644807e+02 -8.1962920591607826e+01 0
-8.1653463751649554e+01 4.5522459641001319e+01 0
-8.2068966903260105e+01 4.5964482025240159e+01 0
1.3521479123138516e+02 -7.5020609489608432e+01 0
1.3953497969182149e+02 -7.7710073119219146e+01 0
-8.0613522198194175e+01 4.2816336193917323e+01 0
-8.1098709032159860e+01 4.3378744608824491e+01 0
1.4177035458513001e+02 -7.1692922442081681e+01 0
1.3957429704716819e+02 -7.3320697059119539e+01 0
-8.1710257032717919e+01 5.8341883549909426e+01 0
-8.0924443901660908e+01 5.1189811967119795e+01 0
2.5426192542295496e+01 -4.1226960282162167e+01 0
-2.7413958373351505e+01 -3.6658409084493542e+01 0
1.0723251481835794e+02 -6.1376670997798669e+01 0
-1.5799409134671379e+01 -2.9130485475179285e+01 0
-2.8107896423783682e+01 -6.3429512419092987e+01 0
-2.7914875341439796e+01 -5.0860013848501580e+01 0
-6.4329862210562581e+01 -4.1549253663280481e+01 0
-7.6067953923555635e+01 3.1143195768196108e+01 0
-3.5962879015582615e+01 -6.5661699947702957e+01 0

