# vtk DataFile Version 2.0

ASCII

DATASET UNSTRUCTURED_GRID

POINTS 79 float 

-5.0000000000000003e-02  0.0000000000000000e+00  0.0000000000000000e+00
-5.0000000000000003e-02  5.5555555555555552e-02  0.0000000000000000e+00
-5.0000000000000003e-02  2.7777777777777776e-02  0.0000000000000000e+00
5.0000000000000003e-02  0.0000000000000000e+00  0.0000000000000000e+00
5.0000000000000003e-02  5.5555555555555552e-02  0.0000000000000000e+00
5.0000000000000003e-02  2.7777777777777776e-02  0.0000000000000000e+00
-5.0000000000000003e-02  1.1111111111111110e-01  0.0000000000000000e+00
-5.0000000000000003e-02  8.3333333333333329e-02  0.0000000000000000e+00
5.0000000000000003e-02  1.1111111111111110e-01  0.0000000000000000e+00
5.0000000000000003e-02  8.3333333333333329e-02  0.0000000000000000e+00
-5.0000000000000003e-02  1.6666666666666666e-01  0.0000000000000000e+00
-5.0000000000000003e-02  1.3888888888888890e-01  0.0000000000000000e+00
5.0000000000000003e-02  1.6666666666666666e-01  0.0000000000000000e+00
5.0000000000000003e-02  1.3888888888888890e-01  0.0000000000000000e+00
-5.0000000000000003e-02  2.2222222222222221e-01  0.0000000000000000e+00
-5.0000000000000003e-02  1.9444444444444442e-01  0.0000000000000000e+00
5.0000000000000003e-02  2.2222222222222221e-01  0.0000000000000000e+00
5.0000000000000003e-02  1.9444444444444442e-01  0.0000000000000000e+00
-5.0000000000000003e-02  2.7777777777777779e-01  0.0000000000000000e+00
-5.0000000000000003e-02  2.5000000000000000e-01  0.0000000000000000e+00
5.0000000000000003e-02  2.7777777777777779e-01  0.0000000000000000e+00
5.0000000000000003e-02  2.5000000000000000e-01  0.0000000000000000e+00
-5.0000000000000003e-02  3.3333333333333331e-01  0.0000000000000000e+00
-5.0000000000000003e-02  3.0555555555555558e-01  0.0000000000000000e+00
5.0000000000000003e-02  3.3333333333333331e-01  0.0000000000000000e+00
5.0000000000000003e-02  3.0555555555555558e-01  0.0000000000000000e+00
-5.0000000000000003e-02  3.8888888888888884e-01  0.0000000000000000e+00
-5.0000000000000003e-02  3.6111111111111105e-01  0.0000000000000000e+00
5.0000000000000003e-02  3.8888888888888884e-01  0.0000000000000000e+00
5.0000000000000003e-02  3.6111111111111105e-01  0.0000000000000000e+00
-5.0000000000000003e-02  4.4444444444444442e-01  0.0000000000000000e+00
-5.0000000000000003e-02  4.1666666666666663e-01  0.0000000000000000e+00
5.0000000000000003e-02  4.4444444444444442e-01  0.0000000000000000e+00
5.0000000000000003e-02  4.1666666666666663e-01  0.0000000000000000e+00
-5.0000000000000003e-02  5.0000000000000000e-01  0.0000000000000000e+00
-5.0000000000000003e-02  4.7222222222222221e-01  0.0000000000000000e+00
5.0000000000000003e-02  5.0000000000000000e-01  0.0000000000000000e+00
5.0000000000000003e-02  4.7222222222222221e-01  0.0000000000000000e+00
-5.0000000000000003e-02  5.5555555555555558e-01  0.0000000000000000e+00
-5.0000000000000003e-02  5.2777777777777779e-01  0.0000000000000000e+00
5.0000000000000003e-02  5.5555555555555558e-01  0.0000000000000000e+00
5.0000000000000003e-02  5.2777777777777779e-01  0.0000000000000000e+00
-5.0000000000000003e-02  6.1111111111111105e-01  0.0000000000000000e+00
-5.0000000000000003e-02  5.8333333333333326e-01  0.0000000000000000e+00
5.0000000000000003e-02  6.1111111111111105e-01  0.0000000000000000e+00
5.0000000000000003e-02  5.8333333333333326e-01  0.0000000000000000e+00
-5.0000000000000003e-02  6.6666666666666663e-01  0.0000000000000000e+00
-5.0000000000000003e-02  6.3888888888888884e-01  0.0000000000000000e+00
5.0000000000000003e-02  6.6666666666666663e-01  0.0000000000000000e+00
5.0000000000000003e-02  6.3888888888888884e-01  0.0000000000000000e+00
-5.0000000000000003e-02  7.2222222222222221e-01  0.0000000000000000e+00
-5.0000000000000003e-02  6.9444444444444442e-01  0.0000000000000000e+00
5.0000000000000003e-02  7.2222222222222221e-01  0.0000000000000000e+00
5.0000000000000003e-02  6.9444444444444442e-01  0.0000000000000000e+00
-5.0000000000000003e-02  7.7777777777777768e-01  0.0000000000000000e+00
-5.0000000000000003e-02  7.5000000000000000e-01  0.0000000000000000e+00
5.0000000000000003e-02  7.7777777777777768e-01  0.0000000000000000e+00
5.0000000000000003e-02  7.5000000000000000e-01  0.0000000000000000e+00
-5.0000000000000003e-02  8.3333333333333326e-01  0.0000000000000000e+00
-5.0000000000000003e-02  8.0555555555555547e-01  0.0000000000000000e+00
5.0000000000000003e-02  8.3333333333333326e-01  0.0000000000000000e+00
5.0000000000000003e-02  8.0555555555555547e-01  0.0000000000000000e+00
-5.0000000000000003e-02  8.8888888888888884e-01  0.0000000000000000e+00
-5.0000000000000003e-02  8.6111111111111105e-01  0.0000000000000000e+00
5.0000000000000003e-02  8.8888888888888884e-01  0.0000000000000000e+00
5.0000000000000003e-02  8.6111111111111105e-01  0.0000000000000000e+00
-5.0000000000000003e-02  9.4444444444444442e-01  0.0000000000000000e+00
-5.0000000000000003e-02  9.1666666666666663e-01  0.0000000000000000e+00
5.0000000000000003e-02  9.4444444444444442e-01  0.0000000000000000e+00
5.0000000000000003e-02  9.1666666666666663e-01  0.0000000000000000e+00
-5.0000000000000003e-02  1.0000000000000000e+00  0.0000000000000000e+00
-1.6666666666666670e-02  1.0000000000000000e+00  0.0000000000000000e+00
-5.0000000000000003e-02  9.7222222222222221e-01  0.0000000000000000e+00
-3.3333333333333340e-02  1.0000000000000000e+00  0.0000000000000000e+00
1.6666666666666663e-02  1.0000000000000000e+00  0.0000000000000000e+00
-3.4694469519536142e-18  1.0000000000000000e+00  0.0000000000000000e+00
5.0000000000000003e-02  1.0000000000000000e+00  0.0000000000000000e+00
5.0000000000000003e-02  9.7222222222222221e-01  0.0000000000000000e+00
3.3333333333333333e-02  1.0000000000000000e+00  0.0000000000000000e+00

CELLS 0 0


CELL_TYPES 0


POINT_DATA 79

VECTORS VertexNormals float

0.0000000000000000e+00 0.0000000000000000e+00 0
0.0000000000000000e+00 0.0000000000000000e+00 0
0.0000000000000000e+00 0.0000000000000000e+00 0
0.0000000000000000e+00 0.0000000000000000e+00 0
0.0000000000000000e+00 0.0000000000000000e+00 0
0.0000000000000000e+00 0.0000000000000000e+00 0
0.0000000000000000e+00 0.0000000000000000e+00 0
0.0000000000000000e+00 0.0000000000000000e+00 0
0.0000000000000000e+00 0.0000000000000000e+00 0
0.0000000000000000e+00 0.0000000000000000e+00 0
0.0000000000000000e+00 0.0000000000000000e+00 0
0.0000000000000000e+00 0.0000000000000000e+00 0
0.0000000000000000e+00 0.0000000000000000e+00 0
0.0000000000000000e+00 0.0000000000000000e+00 0
0.0000000000000000e+00 0.0000000000000000e+00 0
0.0000000000000000e+00 0.0000000000000000e+00 0
0.0000000000000000e+00 0.0000000000000000e+00 0
0.0000000000000000e+00 0.0000000000000000e+00 0
0.0000000000000000e+00 0.0000000000000000e+00 0
0.0000000000000000e+00 0.0000000000000000e+00 0
0.0000000000000000e+00 0.0000000000000000e+00 0
0.0000000000000000e+00 0.0000000000000000e+00 0
0.0000000000000000e+00 0.0000000000000000e+00 0
0.0000000000000000e+00 0.0000000000000000e+00 0
0.0000000000000000e+00 0.0000000000000000e+00 0
0.0000000000000000e+00 0.0000000000000000e+00 0
0.0000000000000000e+00 0.0000000000000000e+00 0
0.0000000000000000e+00 0.0000000000000000e+00 0
0.0000000000000000e+00 0.0000000000000000e+00 0
0.0000000000000000e+00 0.0000000000000000e+00 0
0.0000000000000000e+00 0.0000000000000000e+00 0
0.0000000000000000e+00 0.0000000000000000e+00 0
0.0000000000000000e+00 0.0000000000000000e+00 0
0.0000000000000000e+00 0.0000000000000000e+00 0
0.0000000000000000e+00 0.0000000000000000e+00 0
0.0000000000000000e+00 0.0000000000000000e+00 0
0.0000000000000000e+00 0.0000000000000000e+00 0
0.0000000000000000e+00 0.0000000000000000e+00 0
0.0000000000000000e+00 0.0000000000000000e+00 0
0.0000000000000000e+00 0.0000000000000000e+00 0
0.0000000000000000e+00 0.0000000000000000e+00 0
0.0000000000000000e+00 0.0000000000000000e+00 0
0.0000000000000000e+00 0.0000000000000000e+00 0
0.0000000000000000e+00 0.0000000000000000e+00 0
0.0000000000000000e+00 0.0000000000000000e+00 0
0.0000000000000000e+00 0.0000000000000000e+00 0
0.0000000000000000e+00 0.0000000000000000e+00 0
0.0000000000000000e+00 0.0000000000000000e+00 0
0.0000000000000000e+00 0.0000000000000000e+00 0
0.0000000000000000e+00 0.0000000000000000e+00 0
0.0000000000000000e+00 0.0000000000000000e+00 0
0.0000000000000000e+00 0.0000000000000000e+00 0
0.0000000000000000e+00 0.0000000000000000e+00 0
0.0000000000000000e+00 0.0000000000000000e+00 0
0.0000000000000000e+00 0.0000000000000000e+00 0
0.0000000000000000e+00 0.0000000000000000e+00 0
0.0000000000000000e+00 0.0000000000000000e+00 0
0.0000000000000000e+00 0.0000000000000000e+00 0
0.0000000000000000e+00 0.0000000000000000e+00 0
0.0000000000000000e+00 0.0000000000000000e+00 0
0.0000000000000000e+00 0.0000000000000000e+00 0
0.0000000000000000e+00 0.0000000000000000e+00 0
0.0000000000000000e+00 0.0000000000000000e+00 0
0.0000000000000000e+00 0.0000000000000000e+00 0
0.0000000000000000e+00 0.0000000000000000e+00 0
0.0000000000000000e+00 0.0000000000000000e+00 0
0.0000000000000000e+00 0.0000000000000000e+00 0
0.0000000000000000e+00 0.0000000000000000e+00 0
0.0000000000000000e+00 0.0000000000000000e+00 0
0.0000000000000000e+00 0.0000000000000000e+00 0
0.0000000000000000e+00 0.0000000000000000e+00 0
0.0000000000000000e+00 0.0000000000000000e+00 0
0.0000000000000000e+00 0.0000000000000000e+00 0
0.0000000000000000e+00 0.0000000000000000e+00 0
0.0000000000000000e+00 0.0000000000000000e+00 0
0.0000000000000000e+00 0.0000000000000000e+00 0
0.0000000000000000e+00 0.0000000000000000e+00 0
0.0000000000000000e+00 0.0000000000000000e+00 0
0.0000000000000000e+00 0.0000000000000000e+00 0

VECTORS Displacement float
0.0000000000000000e+00 0.0000000000000000e+00 0
1.5710835336485856e-03 2.1166478348863468e-03 0
6.0466669927596332e-04 1.0549660205985555e-03 0
0.0000000000000000e+00 0.0000000000000000e+00 0
1.6053280001752531e-03 -2.3127730927348352e-03 0
6.0222167142552423e-04 -1.1414596831764538e-03 0
5.3397598323451922e-03 4.0199392208166308e-03 0
3.1921123528481114e-03 3.1216841547638480e-03 0
5.4196927068146791e-03 -4.3416733604248487e-03 0
3.2814430671858266e-03 -3.3925226412797526e-03 0
1.1113591032373582e-02 5.6095157039678717e-03 0
8.0254937824504359e-03 4.8272042699732520e-03 0
1.1163208898311114e-02 -6.0500905424008163e-03 0
8.0637823154654491e-03 -5.2181070068198360e-03 0
1.8521250883005394e-02 7.2436094082726958e-03 0
1.4568464420247959e-02 6.4282605351607715e-03 0
1.8635578110222324e-02 -7.6494341232360534e-03 0
1.4684026292075908e-02 -6.8598335870133122e-03 0
2.7852302214503848e-02 8.6151707587846516e-03 0
2.2992794528442669e-02 7.9780957355130837e-03 0
2.7890646787807880e-02 -9.1954014632821407e-03 0
2.3044418445255475e-02 -8.4294013538722384e-03 0
3.8511771584105861e-02 9.6243968562764372e-03 0
3.3062866064621915e-02 9.1425939197459193e-03 0
3.8672903543819977e-02 -1.0399630893494844e-02 0
3.3165114057902359e-02 -9.8505786685420781e-03 0
5.0284433120476146e-02 1.0632307509977221e-02 0
4.4226064679354526e-02 1.0129983823691149e-02 0
5.0373471864083801e-02 -1.1447241907093444e-02 0
4.4367087913259634e-02 -1.0924572110709494e-02 0
6.3135094671992673e-02 1.1474860909842476e-02 0
5.6590901636422435e-02 1.1081117740505787e-02 0
6.3266018594488438e-02 -1.2388622678372225e-02 0
5.6686585536254226e-02 -1.1943279503765870e-02 0
7.6960951296308422e-02 1.2075675558990008e-02 0
6.9941670385395949e-02 1.1807540345221121e-02 0
7.7013187789271770e-02 -1.3071843865296790e-02 0
7.0063890146442931e-02 -1.2754829480009906e-02 0
9.1263379020978919e-02 1.2477898852035282e-02 0
8.4081203061576182e-02 1.2275158814237198e-02 0
9.1350105715050894e-02 -1.3651598443653941e-02 0
8.4095658074052115e-02 -1.3373781204105968e-02 0
1.0618723870890792e-01 1.2955862206850391e-02 0
9.8614829281050351e-02 1.2724969513475248e-02 0
1.0629522949789341e-01 -1.4082010877320503e-02 0
9.8753890116497545e-02 -1.3882630383145125e-02 0
1.2168803845146349e-01 1.3183540390768253e-02 0
1.1391371473728885e-01 1.3107702801583007e-02 0
1.2172737810144514e-01 -1.4329497542893031e-02 0
1.1397924782583592e-01 -1.4230749564174389e-02 0
1.3729109014316751e-01 1.3103462666877033e-02 0
1.2947419844290114e-01 1.3188569954205500e-02 0
1.3737100303000394e-01 -1.4338437957284171e-02 0
1.2953439544464412e-01 -1.4383229124021785e-02 0
1.5249266409028267e-01 1.2607401139460017e-02 0
1.4500303173744206e-01 1.2881986114052595e-02 0
1.5250404622436287e-01 -1.3903357620680588e-02 0
1.4505078902768981e-01 -1.4146569761749089e-02 0
1.6680502875838973e-01 1.2180897265472159e-02 0
1.5975046322940395e-01 1.2357512679911344e-02 0
1.6690340169862244e-01 -1.3486643058887495e-02 0
1.5978745591371829e-01 -1.3673751023125350e-02 0
1.8086548555891607e-01 1.2064865427424439e-02 0
1.7382138665593092e-01 1.2110187242330256e-02 0
1.8087847675734209e-01 -1.3329103891184361e-02 0
1.7391155791340321e-01 -1.3369747831413717e-02 0
1.9495426308790614e-01 1.2024781280911901e-02 0
1.8790748116280814e-01 1.2028002676950027e-02 0
1.9496982124041715e-01 -1.3462215599269606e-02 0
1.8787238521550548e-01 -1.3378851267648120e-02 0
2.0916780083039857e-01 1.2059484022246306e-02 0
2.0918952086480208e-01 3.5239025968306242e-03 0
2.0204699021072495e-01 1.2044807774693501e-02 0
2.0917168662628449e-01 7.7857313406223174e-03 0
2.0924544847145082e-01 -4.9918475412065438e-03 0
2.0921970632665768e-01 -7.3354350429205486e-04 0
2.0926181306432018e-01 -1.3531133107560196e-02 0
2.0212616237331676e-01 -1.3520157517441256e-02 0
2.0925894933305994e-01 -9.2572074811145579e-03 0

VECTORS Stress float
1.3769328857992971e+02 -3.8893433633255814e+00 0
1.3860254747770881e+02 -6.0803345849629977e+00 0
1.3845925301988021e+02 -4.0945011252569827e+00 0
-1.0064343254859338e+00 4.5794237258816395e-01 0
-3.2662635721692368e+00 1.5108567162701547e-01 0
-2.7346763469515025e+00 1.5046235030757771e-01 0
1.3843036981962942e+02 -1.1634226204585218e+01 0
1.3852355496069458e+02 -8.9644018433216388e+00 0
-3.1079765526524170e+00 2.9235455521040876e-01 0
-3.2198587690722889e+00 2.4241789696338856e-01 0
1.3815220625992879e+02 -1.5812664209659260e+01 0
1.3829646570319710e+02 -1.3767094554298410e+01 0
-3.0527657275303000e+00 4.0762593583394846e-01 0
-3.0528232553030534e+00 3.4875330078727984e-01 0
1.3715557786411495e+02 -2.0209901265266240e+01 0
1.3768728648011029e+02 -1.8009195431864896e+01 0
-2.5937528284933933e+00 4.5164626511484585e-01 0
-2.8156929940315649e+00 4.2517036217930126e-01 0
1.3544316778157815e+02 -2.3804088777795414e+01 0
1.3638526184457817e+02 -2.2140787619997582e+01 0
-1.7712292458155616e+00 3.6958599328909258e-01 0
-2.2271204362477874e+00 4.1653298555286256e-01 0
1.3311074856719927e+02 -2.6329930853718679e+01 0
1.3440681159289835e+02 -2.5236589305435018e+01 0
-5.4693819405031263e-01 1.7520148857943241e-01 0
-1.2715921950556321e+00 3.2613795354382091e-01 0
1.3010464424313284e+02 -2.8236291697988122e+01 0
1.3175761514767845e+02 -2.7333698767863439e+01 0
1.0268187668095834e+00 -1.4990868401173429e-01 0
1.5371573863467347e-01 6.0022574964818887e-02 0
1.2637709500804891e+02 -2.9798512294912371e+01 0
1.2831803765997989e+02 -2.9091683813490022e+01 0
2.8771896025407386e+00 -5.9416423184529776e-01 0
1.9196730433403673e+00 -3.5472313834054603e-01 0
1.2207381138087663e+02 -3.0603556461864059e+01 0
1.2424160883566913e+02 -3.0284193796172417e+01 0
5.0174745385497772e+00 -1.1404353847226503e+00 0
3.9569278286490999e+00 -8.9479800065373638e-01 0
1.1737226153200885e+02 -3.0365055488918642e+01 0
1.1975860382393500e+02 -3.0524569876614578e+01 0
7.3812147253186708e+00 -1.8177847483881351e+00 0
6.2097930661698229e+00 -1.4992020116436606e+00 0
1.1190786560917149e+02 -3.0241817144061429e+01 0
1.1474077608927888e+02 -3.0277619286174968e+01 0
9.9089921901323805e+00 -2.5803157993559580e+00 0
8.6222285829340990e+00 -2.1908331927064637e+00 0
1.0606523307671694e+02 -2.9523556430458484e+01 0
1.0901563343872414e+02 -3.0063964087471732e+01 0
1.2557688312941536e+01 -3.4020619535062906e+00 0
1.1196488849009825e+01 -2.9520601291998219e+00 0
1.0008349921937619e+02 -2.7656244508200359e+01 0
1.0308988380513023e+02 -2.8769982037886848e+01 0
1.5400361806237811e+01 -4.0816985042677061e+00 0
1.3935006966665412e+01 -3.7355041736217345e+00 0
9.3646909938679528e+01 -2.4970031727734863e+01 0
9.6962841671987889e+01 -2.6332583571041994e+01 0
1.8289738116512666e+01 -4.6688756425853057e+00 0
1.6869757405760254e+01 -4.3553105845651885e+00 0
8.5619415049489220e+01 -2.1516752791741851e+01 0
8.9975487991892066e+01 -2.3506804082242070e+01 0
2.0514344519397980e+01 -4.9773108099531385e+00 0
1.9575476924027697e+01 -5.0181232958984765e+00 0
7.3853754176429135e+01 -1.6798307056549106e+01 0
8.0184191864323481e+01 -1.8449851512740906e+01 0
2.1359903694883471e+01 -4.3645334404465075e+00 0
2.0931333109101729e+01 -4.2683393824063103e+00 0
5.8251772506538039e+01 -2.7166607174547494e+01 0
6.6989786899291687e+01 -2.2966870216996625e+01 0
2.4734320889709046e+01 -1.2043970625694485e+01 0
2.3265544440269196e+01 -8.8577167432175088e+00 0
2.7156095078992024e+01 6.4205929513851913e+01 0
1.5295668976030662e+01 6.5637459277334443e+01 0
4.4744100720893407e+01 -1.4078480089134189e+00 0
1.8885794471946532e+01 7.3259343577456988e+01 0
1.1655266533832339e+01 4.3729059839583286e+01 0
1.3529224380301471e+01 5.3156063738123450e+01 0
5.4229953323489823e+00 2.9835959690015699e+01 0
2.0004561013520956e+01 -1.1265705658015861e+00 0
9.1087323275796308e+00 3.6141678466881274e+01 0

