# vtk DataFile Version 2.0

ASCII

DATASET UNSTRUCTURED_GRID

POINTS 79 float 

-5.0000000000000003e-02  0.0000000000000000e+00  0.0000000000000000e+00
-5.0000000000000003e-02  5.5555555555555552e-02  0.0000000000000000e+00
-5.0000000000000003e-02  2.7777777777777776e-02  0.0000000000000000e+00
5.0000000000000003e-02  0.0000000000000000e+00  0.0000000000000000e+00
5.0000000000000003e-02  5.5555555555555552e-02  0.0000000000000000e+00
5.0000000000000003e-02  2.7777777777777776e-02  0.0000000000000000e+00
-5.0000000000000003e-02  1.1111111111111110e-01  0.0000000000000000e+00
-5.0000000000000003e-02  8.3333333333333329e-02  0.0000000000000000e+00
5.0000000000000003e-02  1.1111111111111110e-01  0.0000000000000000e+00
5.0000000000000003e-02  8.3333333333333329e-02  0.0000000000000000e+00
-5.0000000000000003e-02  1.6666666666666666e-01  0.0000000000000000e+00
-5.0000000000000003e-02  1.3888888888888890e-01  0.0000000000000000e+00
5.0000000000000003e-02  1.6666666666666666e-01  0.0000000000000000e+00
5.0000000000000003e-02  1.3888888888888890e-01  0.0000000000000000e+00
-5.0000000000000003e-02  2.2222222222222221e-01  0.0000000000000000e+00
-5.0000000000000003e-02  1.9444444444444442e-01  0.0000000000000000e+00
5.0000000000000003e-02  2.2222222222222221e-01  0.0000000000000000e+00
5.0000000000000003e-02  1.9444444444444442e-01  0.0000000000000000e+00
-5.0000000000000003e-02  2.7777777777777779e-01  0.0000000000000000e+00
-5.0000000000000003e-02  2.5000000000000000e-01  0.0000000000000000e+00
5.0000000000000003e-02  2.7777777777777779e-01  0.0000000000000000e+00
5.0000000000000003e-02  2.5000000000000000e-01  0.0000000000000000e+00
-5.0000000000000003e-02  3.3333333333333331e-01  0.0000000000000000e+00
-5.0000000000000003e-02  3.0555555555555558e-01  0.0000000000000000e+00
5.0000000000000003e-02  3.3333333333333331e-01  0.0000000000000000e+00
5.0000000000000003e-02  3.0555555555555558e-01  0.0000000000000000e+00
-5.0000000000000003e-02  3.8888888888888884e-01  0.0000000000000000e+00
-5.0000000000000003e-02  3.6111111111111105e-01  0.0000000000000000e+00
5.0000000000000003e-02  3.8888888888888884e-01  0.0000000000000000e+00
5.0000000000000003e-02  3.6111111111111105e-01  0.0000000000000000e+00
-5.0000000000000003e-02  4.4444444444444442e-01  0.0000000000000000e+00
-5.0000000000000003e-02  4.1666666666666663e-01  0.0000000000000000e+00
5.0000000000000003e-02  4.4444444444444442e-01  0.0000000000000000e+00
5.0000000000000003e-02  4.1666666666666663e-01  0.0000000000000000e+00
-5.0000000000000003e-02  5.0000000000000000e-01  0.0000000000000000e+00
-5.0000000000000003e-02  4.7222222222222221e-01  0.0000000000000000e+00
5.0000000000000003e-02  5.0000000000000000e-01  0.0000000000000000e+00
5.0000000000000003e-02  4.7222222222222221e-01  0.0000000000000000e+00
-5.0000000000000003e-02  5.5555555555555558e-01  0.0000000000000000e+00
-5.0000000000000003e-02  5.2777777777777779e-01  0.0000000000000000e+00
5.0000000000000003e-02  5.5555555555555558e-01  0.0000000000000000e+00
5.0000000000000003e-02  5.2777777777777779e-01  0.0000000000000000e+00
-5.0000000000000003e-02  6.1111111111111105e-01  0.0000000000000000e+00
-5.0000000000000003e-02  5.8333333333333326e-01  0.0000000000000000e+00
5.0000000000000003e-02  6.1111111111111105e-01  0.0000000000000000e+00
5.0000000000000003e-02  5.8333333333333326e-01  0.0000000000000000e+00
-5.0000000000000003e-02  6.6666666666666663e-01  0.0000000000000000e+00
-5.0000000000000003e-02  6.3888888888888884e-01  0.0000000000000000e+00
5.0000000000000003e-02  6.6666666666666663e-01  0.0000000000000000e+00
5.0000000000000003e-02  6.3888888888888884e-01  0.0000000000000000e+00
-5.0000000000000003e-02  7.2222222222222221e-01  0.0000000000000000e+00
-5.0000000000000003e-02  6.9444444444444442e-01  0.0000000000000000e+00
5.0000000000000003e-02  7.2222222222222221e-01  0.0000000000000000e+00
5.0000000000000003e-02  6.9444444444444442e-01  0.0000000000000000e+00
-5.0000000000000003e-02  7.7777777777777768e-01  0.0000000000000000e+00
-5.0000000000000003e-02  7.5000000000000000e-01  0.0000000000000000e+00
5.0000000000000003e-02  7.7777777777777768e-01  0.0000000000000000e+00
5.0000000000000003e-02  7.5000000000000000e-01  0.0000000000000000e+00
-5.0000000000000003e-02  8.3333333333333326e-01  0.0000000000000000e+00
-5.0000000000000003e-02  8.0555555555555547e-01  0.0000000000000000e+00
5.0000000000000003e-02  8.3333333333333326e-01  0.0000000000000000e+00
5.0000000000000003e-02  8.0555555555555547e-01  0.0000000000000000e+00
-5.0000000000000003e-02  8.8888888888888884e-01  0.0000000000000000e+00
-5.0000000000000003e-02  8.6111111111111105e-01  0.0000000000000000e+00
5.0000000000000003e-02  8.8888888888888884e-01  0.0000000000000000e+00
5.0000000000000003e-02  8.6111111111111105e-01  0.0000000000000000e+00
-5.0000000000000003e-02  9.4444444444444442e-01  0.0000000000000000e+00
-5.0000000000000003e-02  9.1666666666666663e-01  0.0000000000000000e+00
5.0000000000000003e-02  9.4444444444444442e-01  0.0000000000000000e+00
5.0000000000000003e-02  9.1666666666666663e-01  0.0000000000000000e+00
-5.0000000000000003e-02  1.0000000000000000e+00  0.0000000000000000e+00
-1.6666666666666670e-02  1.0000000000000000e+00  0.0000000000000000e+00
-5.0000000000000003e-02  9.7222222222222221e-01  0.0000000000000000e+00
-3.3333333333333340e-02  1.0000000000000000e+00  0.0000000000000000e+00
1.6666666666666663e-02  1.0000000000000000e+00  0.0000000000000000e+00
-3.4694469519536142e-18  1.0000000000000000e+00  0.0000000000000000e+00
5.0000000000000003e-02  1.0000000000000000e+00  0.0000000000000000e+00
5.0000000000000003e-02  9.7222222222222221e-01  0.0000000000000000e+00
3.3333333333333333e-02  1.0000000000000000e+00  0.0000000000000000e+00

CELLS 0 0


CELL_TYPES 0


POINT_DATA 79

VECTORS VertexNormals float

0.0000000000000000e+00 0.0000000000000000e+00 0
0.0000000000000000e+00 0.0000000000000000e+00 0
0.0000000000000000e+00 0.0000000000000000e+00 0
0.0000000000000000e+00 0.0000000000000000e+00 0
0.0000000000000000e+00 0.0000000000000000e+00 0
0.0000000000000000e+00 0.0000000000000000e+00 0
0.0000000000000000e+00 0.0000000000000000e+00 0
0.0000000000000000e+00 0.0000000000000000e+00 0
0.0000000000000000e+00 0.0000000000000000e+00 0
0.0000000000000000e+00 0.0000000000000000e+00 0
0.0000000000000000e+00 0.0000000000000000e+00 0
0.0000000000000000e+00 0.0000000000000000e+00 0
0.0000000000000000e+00 0.0000000000000000e+00 0
0.0000000000000000e+00 0.0000000000000000e+00 0
0.0000000000000000e+00 0.0000000000000000e+00 0
0.0000000000000000e+00 0.0000000000000000e+00 0
0.0000000000000000e+00 0.0000000000000000e+00 0
0.0000000000000000e+00 0.0000000000000000e+00 0
0.0000000000000000e+00 0.0000000000000000e+00 0
0.0000000000000000e+00 0.0000000000000000e+00 0
0.0000000000000000e+00 0.0000000000000000e+00 0
0.0000000000000000e+00 0.0000000000000000e+00 0
0.0000000000000000e+00 0.0000000000000000e+00 0
0.0000000000000000e+00 0.0000000000000000e+00 0
0.0000000000000000e+00 0.0000000000000000e+00 0
0.0000000000000000e+00 0.0000000000000000e+00 0
0.0000000000000000e+00 0.0000000000000000e+00 0
0.0000000000000000e+00 0.0000000000000000e+00 0
0.0000000000000000e+00 0.0000000000000000e+00 0
0.0000000000000000e+00 0.0000000000000000e+00 0
0.0000000000000000e+00 0.0000000000000000e+00 0
0.0000000000000000e+00 0.0000000000000000e+00 0
0.0000000000000000e+00 0.0000000000000000e+00 0
0.0000000000000000e+00 0.0000000000000000e+00 0
0.0000000000000000e+00 0.0000000000000000e+00 0
0.0000000000000000e+00 0.0000000000000000e+00 0
0.0000000000000000e+00 0.0000000000000000e+00 0
0.0000000000000000e+00 0.0000000000000000e+00 0
0.0000000000000000e+00 0.0000000000000000e+00 0
0.0000000000000000e+00 0.0000000000000000e+00 0
0.0000000000000000e+00 0.0000000000000000e+00 0
0.0000000000000000e+00 0.0000000000000000e+00 0
0.0000000000000000e+00 0.0000000000000000e+00 0
0.0000000000000000e+00 0.0000000000000000e+00 0
0.0000000000000000e+00 0.0000000000000000e+00 0
0.0000000000000000e+00 0.0000000000000000e+00 0
0.0000000000000000e+00 0.0000000000000000e+00 0
0.0000000000000000e+00 0.0000000000000000e+00 0
0.0000000000000000e+00 0.0000000000000000e+00 0
0.0000000000000000e+00 0.0000000000000000e+00 0
0.0000000000000000e+00 0.0000000000000000e+00 0
0.0000000000000000e+00 0.0000000000000000e+00 0
0.0000000000000000e+00 0.0000000000000000e+00 0
0.0000000000000000e+00 0.0000000000000000e+00 0
0.0000000000000000e+00 0.0000000000000000e+00 0
0.0000000000000000e+00 0.0000000000000000e+00 0
0.0000000000000000e+00 0.0000000000000000e+00 0
0.0000000000000000e+00 0.0000000000000000e+00 0
0.0000000000000000e+00 0.0000000000000000e+00 0
0.0000000000000000e+00 0.0000000000000000e+00 0
0.0000000000000000e+00 0.0000000000000000e+00 0
0.0000000000000000e+00 0.0000000000000000e+00 0
0.0000000000000000e+00 0.0000000000000000e+00 0
0.0000000000000000e+00 0.0000000000000000e+00 0
0.0000000000000000e+00 0.0000000000000000e+00 0
0.0000000000000000e+00 0.0000000000000000e+00 0
0.0000000000000000e+00 0.0000000000000000e+00 0
0.0000000000000000e+00 0.0000000000000000e+00 0
0.0000000000000000e+00 0.0000000000000000e+00 0
0.0000000000000000e+00 0.0000000000000000e+00 0
0.0000000000000000e+00 0.0000000000000000e+00 0
0.0000000000000000e+00 0.0000000000000000e+00 0
0.0000000000000000e+00 0.0000000000000000e+00 0
0.0000000000000000e+00 0.0000000000000000e+00 0
0.0000000000000000e+00 0.0000000000000000e+00 0
0.0000000000000000e+00 0.0000000000000000e+00 0
0.0000000000000000e+00 0.0000000000000000e+00 0
0.0000000000000000e+00 0.0000000000000000e+00 0
0.0000000000000000e+00 0.0000000000000000e+00 0

VECTORS Displacement float
0.0000000000000000e+00 0.0000000000000000e+00 0
1.9028931063685866e-03 2.3244300192730386e-03 0
8.0547419487973283e-04 1.2196727050385249e-03 0
0.0000000000000000e+00 0.0000000000000000e+00 0
1.7648900476004308e-03 -2.2487544517711964e-03 0
7.0742322044504741e-04 -1.1517297459195353e-03 0
5.6787558900508418e-03 4.3054126284112239e-03 0
3.5297061725280618e-03 3.3445674293575548e-03 0
5.6346784628149788e-03 -4.2270125129554329e-03 0
3.4274582182939749e-03 -3.2746404073950566e-03 0
1.1625088730820174e-02 6.0522017287008654e-03 0
8.4155263460000580e-03 5.2027562796390725e-03 0
1.1530054632040872e-02 -5.9275344319602331e-03 0
8.3524447572965906e-03 -5.0980489757014458e-03 0
1.9305022816296542e-02 7.5391582998056064e-03 0
1.5246847479667643e-02 6.8377741621736300e-03 0
1.9290995595185816e-02 -7.3497646648632703e-03 0
1.5180875027826810e-02 -6.6928205684059338e-03 0
2.8453482980097124e-02 8.6905577811429296e-03 0
2.3715368185814920e-02 8.1508012695293147e-03 0
2.8381755279426088e-02 -8.4905155050612677e-03 0
2.3696330977194952e-02 -7.9267440745914106e-03 0
3.8731420797748273e-02 9.5172089716691020e-03 0
3.3503820977286616e-02 9.1368723889620213e-03 0
3.8696772851696273e-02 -9.4257246278017237e-03 0
3.3420781845565517e-02 -9.0044636352073319e-03 0
4.9805095928528366e-02 1.0162520528290954e-02 0
4.4166510628836572e-02 9.8614519198199115e-03 0
4.9731781204800596e-02 -1.0061111008370269e-02 0
4.4142772539535469e-02 -9.7562881735928555e-03 0
6.1473615072037316e-02 1.0601663904640513e-02 0
5.5573485629083180e-02 1.0404956060742215e-02 0
6.1462379692122454e-02 -1.0633072481744542e-02 0
5.5495415408890469e-02 -1.0371786003840830e-02 0
7.3729381008377476e-02 1.0837700072709618e-02 0
6.7537050147958105e-02 1.0757392103858766e-02 0
7.3633920163626104e-02 -1.0824315516263585e-02 0
6.7547693218559246e-02 -1.0772944924020778e-02 0
8.5830625360133805e-02 1.0698103901710148e-02 0
7.9866975673158633e-02 1.0787258502794255e-02 0
8.5771060245805525e-02 -1.0785274450084283e-02 0
7.9703019439922015e-02 -1.0831565448006435e-02 0
9.7602074516403153e-02 1.0654742188678637e-02 0
9.1708399645936994e-02 1.0660057005806457e-02 0
9.7515374116549938e-02 -1.0589764899316446e-02 0
9.1715620239087997e-02 -1.0671461723736765e-02 0
1.0939933354670336e-01 1.0581945993171912e-02 0
1.0352295918422195e-01 1.0634180158651366e-02 0
1.0924796924038407e-01 -1.0553796591968517e-02 0
1.0335056485157626e-01 -1.0581235475002835e-02 0
1.2097114680594070e-01 1.0445180411674412e-02 0
1.1519506383899863e-01 1.0518203981850750e-02 0
1.2092530054094514e-01 -1.0352278441307258e-02 0
1.1512509748980614e-01 -1.0467355444222459e-02 0
1.3231774084256298e-01 1.0287670948652497e-02 0
1.2669356040963567e-01 1.0352480809320844e-02 0
1.3223455685611563e-01 -1.0188810476980840e-02 0
1.2660315274457695e-01 -1.0247118235464042e-02 0
1.4360874357791226e-01 1.0332308558784666e-02 0
1.3794773947925826e-01 1.0291865510671495e-02 0
1.4356136526748353e-01 -1.0144132908336521e-02 0
1.3790712344736650e-01 -1.0159977544063666e-02 0
1.5505435350435931e-01 1.0468443241033427e-02 0
1.4931164945416725e-01 1.0393087829963499e-02 0
1.5490287755163698e-01 -1.0280075383126877e-02 0
1.4919422503763569e-01 -1.0186296272363796e-02 0
1.6667766607853851e-01 1.0666211940180206e-02 0
1.6082385014061049e-01 1.0558074003029549e-02 0
1.6662577230475772e-01 -1.0475551873327464e-02 0
1.6072425379229874e-01 -1.0395064314542688e-02 0
1.7859546481095867e-01 1.0801971058202235e-02 0
1.7854429163169042e-01 3.6659529478628638e-03 0
1.7262475255575790e-01 1.0755990769563774e-02 0
1.7857661852725451e-01 7.2258992695935706e-03 0
1.7846441401810612e-01 -3.4452342955085154e-03 0
1.7850313628516540e-01 1.0531638881541052e-04 0
1.7842353270832984e-01 -1.0502619095140008e-02 0
1.7253700144868298e-01 -1.0500257790468533e-02 0
1.7843602858175556e-01 -6.9794192711031466e-03 0

VECTORS Stress float
1.2812996360466281e+02 -4.4059193925665170e+00 0
1.2888517656852974e+02 -6.0249715091626399e+00 0
1.2874901614485825e+02 -4.4667732111810210e+00 0
1.7700249620058443e+01 -5.9976568837134892e-01 0
1.5546926024693676e+01 -7.1173871160630142e-01 0
1.6066539971630164e+01 -5.5790488715882702e-01 0
1.2878264667427834e+02 -1.0922117295732278e+01 0
1.2885707328459904e+02 -8.4349383754691871e+00 0
1.5656411001519700e+01 -1.4336703435777736e+00 0
1.5569895385282962e+01 -1.0520005796246323e+00 0
1.2845325949929872e+02 -1.5318104907775705e+01 0
1.2861960541262829e+02 -1.3192621985875462e+01 0
1.5677503450874610e+01 -1.9515236353599903e+00 0
1.5689677629045718e+01 -1.7128440740494852e+00 0
1.2759987589149182e+02 -1.8920098211041932e+01 0
1.2804450450733407e+02 -1.7194626685422691e+01 0
1.6103408608746236e+01 -2.4634869065198473e+00 0
1.5890427316085720e+01 -2.2314267431074768e+00 0
1.2613427245601724e+02 -2.1665896011011455e+01 0
1.2694397069506738e+02 -2.0400685626234235e+01 0
1.6924389785757739e+01 -2.9864656332024424e+00 0
1.6465420000917675e+01 -2.7284484998801872e+00 0
1.2411333934296658e+02 -2.3480054590912914e+01 0
1.2524155993524960e+02 -2.2727691820728296e+01 0
1.8173096395044922e+01 -3.4814377432433048e+00 0
1.7437707217708976e+01 -3.2067438241570017e+00 0
1.2155506988340312e+02 -2.4551783802799036e+01 0
1.2295085064952650e+02 -2.4112130196061571e+01 0
1.9802566235356608e+01 -4.0179617779897399e+00 0
1.8901853450093995e+01 -3.7013071857390969e+00 0
1.1842040239488142e+02 -2.5187230642536861e+01 0
1.2006137514266038e+02 -2.4903257467290359e+01 0
2.1754599003148314e+01 -4.6257563400263280e+00 0
2.0737894054903109e+01 -4.3250892094322353e+00 0
1.1479095205859880e+02 -2.5242215118294553e+01 0
1.1659614633216165e+02 -2.5343083208745611e+01 0
2.4083693333182055e+01 -5.1311227586847963e+00 0
2.2911247317643074e+01 -4.9268630483984452e+00 0
1.1109544802189157e+02 -2.3622677657607483e+01 0
1.1296102725835624e+02 -2.4512422715833964e+01 0
2.6736799134821013e+01 -5.5827795887751108e+00 0
2.5419106978204240e+01 -5.3881796857997415e+00 0
1.0659059871731972e+02 -2.2434904461731094e+01 0
1.0897104008602344e+02 -2.2932469900433489e+01 0
2.9370912911278538e+01 -6.0375814138842543e+00 0
2.8070914849697147e+01 -5.8017724399662711e+00 0
1.0128826072827951e+02 -2.1163436474104742e+01 0
1.0404490644770419e+02 -2.1899360035303062e+01 0
3.1762271797600647e+01 -6.5119983997542477e+00 0
3.0582889299485487e+01 -6.2587228530442189e+00 0
9.5127808748086863e+01 -1.9391880355432932e+01 0
9.8346193758010259e+01 -2.0331198375799659e+01 0
3.3928118795302112e+01 -6.8141186342245419e+00 0
3.2845884906355423e+01 -6.6781563103203325e+00 0
8.7695774604288715e+01 -1.7679075242979366e+01 0
9.1606248838105557e+01 -1.8433364394423506e+01 0
3.5879600119606096e+01 -7.1552053705403296e+00 0
3.4935959971058082e+01 -6.9149556585260825e+00 0
7.8312995173276420e+01 -1.5691710003937828e+01 0
8.3289240375538952e+01 -1.7027779987828922e+01 0
3.7243568068389322e+01 -7.3743061390588878e+00 0
3.6727149363927026e+01 -7.4926308543903701e+00 0
6.6044064475564994e+01 -1.1428440548034530e+01 0
7.2624004489018091e+01 -1.2782782637662876e+01 0
3.7549894504613803e+01 -6.5325566371711830e+00 0
3.7249728905699698e+01 -6.3974166750838322e+00 0
4.8412859562238424e+01 -2.4901294352273226e+01 0
5.8229207297442471e+01 -1.9282544433368855e+01 0
4.2857789797717913e+01 -1.7198809732352515e+01 0
4.0455732198507548e+01 -1.2707487107691719e+01 0
2.3449471043041285e+01 7.9011324872084828e+01 0
1.6663167954287871e+01 8.1452765740215398e+01 0
3.6322732768352907e+01 3.9667633231231889e+00 0
1.9230195569547121e+01 8.8994052145099715e+01 0
1.2427180537736362e+01 5.9562634353863146e+01 0
1.4710751958315129e+01 6.8862664610397161e+01 0
1.1585019102206225e+01 4.1872620096096284e+01 0
3.4904240118923589e+01 -1.6831863662351765e+00 0
1.0734726534386979e+01 5.1308702706154406e+01 0

