# vtk DataFile Version 2.0

ASCII

DATASET UNSTRUCTURED_GRID

POINTS 79 float 

-5.0000000000000003e-02  0.0000000000000000e+00  0.0000000000000000e+00
-5.0000000000000003e-02  5.5555555555555552e-02  0.0000000000000000e+00
-5.0000000000000003e-02  2.7777777777777776e-02  0.0000000000000000e+00
5.0000000000000003e-02  0.0000000000000000e+00  0.0000000000000000e+00
5.0000000000000003e-02  5.5555555555555552e-02  0.0000000000000000e+00
5.0000000000000003e-02  2.7777777777777776e-02  0.0000000000000000e+00
-5.0000000000000003e-02  1.1111111111111110e-01  0.0000000000000000e+00
-5.0000000000000003e-02  8.3333333333333329e-02  0.0000000000000000e+00
5.0000000000000003e-02  1.1111111111111110e-01  0.0000000000000000e+00
5.0000000000000003e-02  8.3333333333333329e-02  0.0000000000000000e+00
-5.0000000000000003e-02  1.6666666666666666e-01  0.0000000000000000e+00
-5.0000000000000003e-02  1.3888888888888890e-01  0.0000000000000000e+00
5.0000000000000003e-02  1.6666666666666666e-01  0.0000000000000000e+00
5.0000000000000003e-02  1.3888888888888890e-01  0.0000000000000000e+00
-5.0000000000000003e-02  2.2222222222222221e-01  0.0000000000000000e+00
-5.0000000000000003e-02  1.9444444444444442e-01  0.0000000000000000e+00
5.0000000000000003e-02  2.2222222222222221e-01  0.0000000000000000e+00
5.0000000000000003e-02  1.9444444444444442e-01  0.0000000000000000e+00
-5.0000000000000003e-02  2.7777777777777779e-01  0.0000000000000000e+00
-5.0000000000000003e-02  2.5000000000000000e-01  0.0000000000000000e+00
5.0000000000000003e-02  2.7777777777777779e-01  0.0000000000000000e+00
5.0000000000000003e-02  2.5000000000000000e-01  0.0000000000000000e+00
-5.0000000000000003e-02  3.3333333333333331e-01  0.0000000000000000e+00
-5.0000000000000003e-02  3.0555555555555558e-01  0.0000000000000000e+00
5.0000000000000003e-02  3.3333333333333331e-01  0.0000000000000000e+00
5.0000000000000003e-02  3.0555555555555558e-01  0.0000000000000000e+00
-5.0000000000000003e-02  3.8888888888888884e-01  0.0000000000000000e+00
-5.0000000000000003e-02  3.6111111111111105e-01  0.0000000000000000e+00
5.0000000000000003e-02  3.8888888888888884e-01  0.0000000000000000e+00
5.0000000000000003e-02  3.6111111111111105e-01  0.0000000000000000e+00
-5.0000000000000003e-02  4.4444444444444442e-01  0.0000000000000000e+00
-5.0000000000000003e-02  4.1666666666666663e-01  0.0000000000000000e+00
5.0000000000000003e-02  4.4444444444444442e-01  0.0000000000000000e+00
5.0000000000000003e-02  4.1666666666666663e-01  0.0000000000000000e+00
-5.0000000000000003e-02  5.0000000000000000e-01  0.0000000000000000e+00
-5.0000000000000003e-02  4.7222222222222221e-01  0.0000000000000000e+00
5.0000000000000003e-02  5.0000000000000000e-01  0.0000000000000000e+00
5.0000000000000003e-02  4.7222222222222221e-01  0.0000000000000000e+00
-5.0000000000000003e-02  5.5555555555555558e-01  0.0000000000000000e+00
-5.0000000000000003e-02  5.2777777777777779e-01  0.0000000000000000e+00
5.0000000000000003e-02  5.5555555555555558e-01  0.0000000000000000e+00
5.0000000000000003e-02  5.2777777777777779e-01  0.0000000000000000e+00
-5.0000000000000003e-02  6.1111111111111105e-01  0.0000000000000000e+00
-5.0000000000000003e-02  5.8333333333333326e-01  0.0000000000000000e+00
5.0000000000000003e-02  6.1111111111111105e-01  0.0000000000000000e+00
5.0000000000000003e-02  5.8333333333333326e-01  0.0000000000000000e+00
-5.0000000000000003e-02  6.6666666666666663e-01  0.0000000000000000e+00
-5.0000000000000003e-02  6.3888888888888884e-01  0.0000000000000000e+00
5.0000000000000003e-02  6.6666666666666663e-01  0.0000000000000000e+00
5.0000000000000003e-02  6.3888888888888884e-01  0.0000000000000000e+00
-5.0000000000000003e-02  7.2222222222222221e-01  0.0000000000000000e+00
-5.0000000000000003e-02  6.9444444444444442e-01  0.0000000000000000e+00
5.0000000000000003e-02  7.2222222222222221e-01  0.0000000000000000e+00
5.0000000000000003e-02  6.9444444444444442e-01  0.0000000000000000e+00
-5.0000000000000003e-02  7.7777777777777768e-01  0.0000000000000000e+00
-5.0000000000000003e-02  7.5000000000000000e-01  0.0000000000000000e+00
5.0000000000000003e-02  7.7777777777777768e-01  0.0000000000000000e+00
5.0000000000000003e-02  7.5000000000000000e-01  0.0000000000000000e+00
-5.0000000000000003e-02  8.3333333333333326e-01  0.0000000000000000e+00
-5.0000000000000003e-02  8.0555555555555547e-01  0.0000000000000000e+00
5.0000000000000003e-02  8.3333333333333326e-01  0.0000000000000000e+00
5.0000000000000003e-02  8.0555555555555547e-01  0.0000000000000000e+00
-5.0000000000000003e-02  8.8888888888888884e-01  0.0000000000000000e+00
-5.0000000000000003e-02  8.6111111111111105e-01  0.0000000000000000e+00
5.0000000000000003e-02  8.8888888888888884e-01  0.0000000000000000e+00
5.0000000000000003e-02  8.6111111111111105e-01  0.0000000000000000e+00
-5.0000000000000003e-02  9.4444444444444442e-01  0.0000000000000000e+00
-5.0000000000000003e-02  9.1666666666666663e-01  0.0000000000000000e+00
5.0000000000000003e-02  9.4444444444444442e-01  0.0000000000000000e+00
5.0000000000000003e-02  9.1666666666666663e-01  0.0000000000000000e+00
-5.0000000000000003e-02  1.0000000000000000e+00  0.0000000000000000e+00
-1.6666666666666670e-02  1.0000000000000000e+00  0.0000000000000000e+00
-5.0000000000000003e-02  9.7222222222222221e-01  0.0000000000000000e+00
-3.3333333333333340e-02  1.0000000000000000e+00  0.0000000000000000e+00
1.6666666666666663e-02  1.0000000000000000e+00  0.0000000000000000e+00
-3.4694469519536142e-18  1.0000000000000000e+00  0.0000000000000000e+00
5.0000000000000003e-02  1.0000000000000000e+00  0.0000000000000000e+00
5.0000000000000003e-02  9.7222222222222221e-01  0.0000000000000000e+00
3.3333333333333333e-02  1.0000000000000000e+00  0.0000000000000000e+00

CELLS 0 0


CELL_TYPES 0


POINT_DATA 79

VECTORS VertexNormals float

0.0000000000000000e+00 0.0000000000000000e+00 0
0.0000000000000000e+00 0.0000000000000000e+00 0
0.0000000000000000e+00 0.0000000000000000e+00 0
0.0000000000000000e+00 0.0000000000000000e+00 0
0.0000000000000000e+00 0.0000000000000000e+00 0
0.0000000000000000e+00 0.0000000000000000e+00 0
0.0000000000000000e+00 0.0000000000000000e+00 0
0.0000000000000000e+00 0.0000000000000000e+00 0
0.0000000000000000e+00 0.0000000000000000e+00 0
0.0000000000000000e+00 0.0000000000000000e+00 0
0.0000000000000000e+00 0.0000000000000000e+00 0
0.0000000000000000e+00 0.0000000000000000e+00 0
0.0000000000000000e+00 0.0000000000000000e+00 0
0.0000000000000000e+00 0.0000000000000000e+00 0
0.0000000000000000e+00 0.0000000000000000e+00 0
0.0000000000000000e+00 0.0000000000000000e+00 0
0.0000000000000000e+00 0.0000000000000000e+00 0
0.0000000000000000e+00 0.0000000000000000e+00 0
0.0000000000000000e+00 0.0000000000000000e+00 0
0.0000000000000000e+00 0.0000000000000000e+00 0
0.0000000000000000e+00 0.0000000000000000e+00 0
0.0000000000000000e+00 0.0000000000000000e+00 0
0.0000000000000000e+00 0.0000000000000000e+00 0
0.0000000000000000e+00 0.0000000000000000e+00 0
0.0000000000000000e+00 0.0000000000000000e+00 0
0.0000000000000000e+00 0.0000000000000000e+00 0
0.0000000000000000e+00 0.0000000000000000e+00 0
0.0000000000000000e+00 0.0000000000000000e+00 0
0.0000000000000000e+00 0.0000000000000000e+00 0
0.0000000000000000e+00 0.0000000000000000e+00 0
0.0000000000000000e+00 0.0000000000000000e+00 0
0.0000000000000000e+00 0.0000000000000000e+00 0
0.0000000000000000e+00 0.0000000000000000e+00 0
0.0000000000000000e+00 0.0000000000000000e+00 0
0.0000000000000000e+00 0.0000000000000000e+00 0
0.0000000000000000e+00 0.0000000000000000e+00 0
0.0000000000000000e+00 0.0000000000000000e+00 0
0.0000000000000000e+00 0.0000000000000000e+00 0
0.0000000000000000e+00 0.0000000000000000e+00 0
0.0000000000000000e+00 0.0000000000000000e+00 0
0.0000000000000000e+00 0.0000000000000000e+00 0
0.0000000000000000e+00 0.0000000000000000e+00 0
0.0000000000000000e+00 0.0000000000000000e+00 0
0.0000000000000000e+00 0.0000000000000000e+00 0
0.0000000000000000e+00 0.0000000000000000e+00 0
0.0000000000000000e+00 0.0000000000000000e+00 0
0.0000000000000000e+00 0.0000000000000000e+00 0
0.0000000000000000e+00 0.0000000000000000e+00 0
0.0000000000000000e+00 0.0000000000000000e+00 0
0.0000000000000000e+00 0.0000000000000000e+00 0
0.0000000000000000e+00 0.0000000000000000e+00 0
0.0000000000000000e+00 0.0000000000000000e+00 0
0.0000000000000000e+00 0.0000000000000000e+00 0
0.0000000000000000e+00 0.0000000000000000e+00 0
0.0000000000000000e+00 0.0000000000000000e+00 0
0.0000000000000000e+00 0.0000000000000000e+00 0
0.0000000000000000e+00 0.0000000000000000e+00 0
0.0000000000000000e+00 0.0000000000000000e+00 0
0.0000000000000000e+00 0.0000000000000000e+00 0
0.0000000000000000e+00 0.0000000000000000e+00 0
0.0000000000000000e+00 0.0000000000000000e+00 0
0.0000000000000000e+00 0.0000000000000000e+00 0
0.0000000000000000e+00 0.0000000000000000e+00 0
0.0000000000000000e+00 0.0000000000000000e+00 0
0.0000000000000000e+00 0.0000000000000000e+00 0
0.0000000000000000e+00 0.0000000000000000e+00 0
0.0000000000000000e+00 0.0000000000000000e+00 0
0.0000000000000000e+00 0.0000000000000000e+00 0
0.0000000000000000e+00 0.0000000000000000e+00 0
0.0000000000000000e+00 0.0000000000000000e+00 0
0.0000000000000000e+00 0.0000000000000000e+00 0
0.0000000000000000e+00 0.0000000000000000e+00 0
0.0000000000000000e+00 0.0000000000000000e+00 0
0.0000000000000000e+00 0.0000000000000000e+00 0
0.0000000000000000e+00 0.0000000000000000e+00 0
0.0000000000000000e+00 0.0000000000000000e+00 0
0.0000000000000000e+00 0.0000000000000000e+00 0
0.0000000000000000e+00 0.0000000000000000e+00 0
0.0000000000000000e+00 0.0000000000000000e+00 0

VECTORS Displacement float
0.0000000000000000e+00 0.0000000000000000e+00 0
2.2217872379594731e-03 2.8591700666565742e-03 0
9.1599522751426216e-04 1.4763123551167598e-03 0
0.0000000000000000e+00 0.0000000000000000e+00 0
2.1586864875063304e-03 -2.7378227873669598e-03 0
9.1426922025851433e-04 -1.4334510812655144e-03 0
7.0084289755260199e-03 5.4527988653465184e-03 0
4.2715920640074906e-03 4.1818718856808457e-03 0
6.8948017070526967e-03 -5.2331433028935358e-03 0
4.1508292763790047e-03 -4.0060734371316518e-03 0
1.4427183805198288e-02 7.6472538792356709e-03 0
1.0416730795259562e-02 6.6177637370063601e-03 0
1.4336856723241682e-02 -7.3437284122967548e-03 0
1.0337867489048295e-02 -6.3521913669180533e-03 0
2.3884399450015040e-02 9.3072271986231296e-03 0
1.8962983852102367e-02 8.5096092519881296e-03 0
2.3717459825325533e-02 -8.9635241420171780e-03 0
1.8816665104172382e-02 -8.1801814019985229e-03 0
3.4787254685446044e-02 1.0977725453398092e-02 0
2.9126863639051384e-02 1.0118002064094847e-02 0
3.4751846577532552e-02 -1.0510011416140974e-02 0
2.9016115250497833e-02 -9.7364732993604174e-03 0
4.7586293154246256e-02 1.2794713302720532e-02 0
4.0946982217994227e-02 1.1868479425916926e-02 0
4.7421862435957418e-02 -1.2166477355339354e-02 0
4.0878716687747590e-02 -1.1290667610624135e-02 0
6.2623662610118383e-02 1.4757303846497694e-02 0
5.4812505786351606e-02 1.3778436132283332e-02 0
6.2468978190091284e-02 -1.4207978459445967e-02 0
5.4618159006480815e-02 -1.3186296123178917e-02 0
7.9949949281768490e-02 1.6604839748197556e-02 0
7.1007301817003127e-02 1.5702780967766884e-02 0
7.9800792922526953e-02 -1.6024219276898406e-02 0
7.0880816509472144e-02 -1.5150465371197294e-02 0
9.9136668520205751e-02 1.8329433488109594e-02 0
8.9324581645441603e-02 1.7471329713808451e-02 0
9.9021623348746174e-02 -1.7675269764375535e-02 0
8.9160992558149868e-02 -1.6862838658518654e-02 0
1.2013627065816360e-01 1.9929596397919053e-02 0
1.0941646792467530e-01 1.9153953956863898e-02 0
1.2002042008040249e-01 -1.9129437115330362e-02 0
1.0934699107772715e-01 -1.8416898695076712e-02 0
1.4277640386851598e-01 2.1307842533895432e-02 0
1.3126050446791293e-01 2.0647432464287168e-02 0
1.4261691827029954e-01 -2.0572186415726654e-02 0
1.3108418024422525e-01 -1.9861147675727255e-02 0
1.6690209976502676e-01 2.2486286804836650e-02 0
1.5466860511230343e-01 2.1916118825204813e-02 0
1.6681954079539779e-01 -2.1758660207784955e-02 0
1.5456639128283742e-01 -2.1202234940530966e-02 0
1.9222035632288550e-01 2.3494907902007096e-02 0
1.7942515940913895e-01 2.3012605395812208e-02 0
1.9211557481125174e-01 -2.2700528201662962e-02 0
1.7931217492800275e-01 -2.2255583866592057e-02 0
2.1846992083379835e-01 2.4270460460739482e-02 0
2.0525319442986839e-01 2.3908274090860902e-02 0
2.1841915876448847e-01 -2.3370190065381165e-02 0
2.0520592870168436e-01 -2.3061411230388049e-02 0
2.4542249970648389e-01 2.4785140402869988e-02 0
2.3187679420664592e-01 2.4562999647141238e-02 0
2.4534395419224264e-01 -2.3958122115806557e-02 0
2.3178856417657917e-01 -2.3675080622661271e-02 0
2.7286821184340859e-01 2.5067835662588057e-02 0
2.5907836800579365e-01 2.4955310890211437e-02 0
2.7284694340683352e-01 -2.4364583914334631e-02 0
2.5903087763231264e-01 -2.4196006088515749e-02 0
3.0051553909801210e-01 2.5065259055438324e-02 0
2.8671845638774729e-01 2.5089756283373933e-02 0
3.0048447520700816e-01 -2.4361800536120450e-02 0
2.8670107681075152e-01 -2.4393966594081516e-02 0
3.2800358889421211e-01 2.5043594736206161e-02 0
3.2797154992068556e-01 8.6213183437159092e-03 0
3.1427598383945266e-01 2.5045544477960514e-02 0
3.2798815520733371e-01 1.6826279459237373e-02 0
3.2799609174274591e-01 -7.8319197375077768e-03 0
3.2797444154545796e-01 4.0279351845411149e-04 0
3.2804019519613969e-01 -2.4362180083324993e-02 0
3.1424787779955121e-01 -2.4350520973002950e-02 0
3.2802480364977837e-01 -1.6086978930719427e-02 0

VECTORS Stress float
1.7816808345665527e+02 -7.1358815452920794e+00 0
1.7953313143707021e+02 -1.0264722020748650e+01 0
1.7936194699413710e+02 -7.2988864585404372e+00 0
-6.6134121305963788e+01 4.7253863701599244e+00 0
-6.8962476354525904e+01 4.0650594433178640e+00 0
-6.8371759612714641e+01 3.1929184322912079e+00 0
1.7891959653818930e+02 -1.8973699482338361e+01 0
1.7927868089386754e+02 -1.4622019665292441e+01 0
-6.8548531428446381e+01 7.9451160185030858e+00 0
-6.8781585768304637e+01 6.0642318003424407e+00 0
1.7797953527875472e+02 -2.6380306398332323e+01 0
1.7844587477130744e+02 -2.2919869481823071e+01 0
-6.8436984484126015e+01 1.0811937928950329e+01 0
-6.8428770903308646e+01 9.4685556204349268e+00 0
1.7639453625372914e+02 -3.1228414891761304e+01 0
1.7721422682665559e+02 -2.8974928007491371e+01 0
-6.8091852678527971e+01 1.2917100637285330e+01 0
-6.8229078526023955e+01 1.1898346285184516e+01 0
1.7382666269536310e+02 -3.5829970501928756e+01 0
1.7524807657120687e+02 -3.3479535957346798e+01 0
-6.7444438153297938e+01 1.4805996667141926e+01 0
-6.7805178309057737e+01 1.3868068018301983e+01 0
1.6998174410103456e+02 -4.0987299139536617e+01 0
1.7216419060628232e+02 -3.8315074354322405e+01 0
-6.6396662922272412e+01 1.7201706968452982e+01 0
-6.7059843340430803e+01 1.5883507139748644e+01 0
1.6488533439162643e+02 -4.6230042919243260e+01 0
1.6764441631492878e+02 -4.3709120927215736e+01 0
-6.5049521042556648e+01 1.9699417522670728e+01 0
-6.5807706058260010e+01 1.8579232948558683e+01 0
1.5893701896248831e+02 -5.0562583992404598e+01 0
1.6196201341204164e+02 -4.8599228964553504e+01 0
-6.3484524202140619e+01 2.1653375872779634e+01 0
-6.4295000159281358e+01 2.0739394572999799e+01 0
1.5258144501496747e+02 -5.3363008719740264e+01 0
1.5577955125797007e+02 -5.2025690839055414e+01 0
-6.1625303060724832e+01 2.3132102976472424e+01 0
-6.2542069893544181e+01 2.2393795867954395e+01 0
1.4559838119241556e+02 -5.5469021253242090e+01 0
1.4911427166955548e+02 -5.4443491550954832e+01 0
-5.9466601710583177e+01 2.4040231062225075e+01 0
-6.0546830342401677e+01 2.3576187561189045e+01 0
1.3834528026886585e+02 -5.6674204996906838e+01 0
1.4199575484726211e+02 -5.6190810245995181e+01 0
-5.6971908456279493e+01 2.4699632404194062e+01 0
-5.8268534453187499e+01 2.4396638936689214e+01 0
1.3105891639413426e+02 -5.6898293942243754e+01 0
1.3471284046821518e+02 -5.6984276388808894e+01 0
-5.4210095911238454e+01 2.4771419549906796e+01 0
-5.5638810408284712e+01 2.4917477201190650e+01 0
1.2366997835635885e+02 -5.6178633918870105e+01 0
1.2739669061278147e+02 -5.6723680177700658e+01 0
-5.1215847429396717e+01 2.4258302297714181e+01 0
-5.2753437108509502e+01 2.4631877411585833e+01 0
1.1604354741049389e+02 -5.4621631835650874e+01 0
1.1987083526951272e+02 -5.5479270890418775e+01 0
-4.8022944240323028e+01 2.3479592295357861e+01 0
-4.9633353884794701e+01 2.3878579841592909e+01 0
1.0764668696008974e+02 -5.1988391718523701e+01 0
1.1209402507828781e+02 -5.3492221426295600e+01 0
-4.4727760967857847e+01 2.2367546498822662e+01 0
-4.6386205404305429e+01 2.2974880366709215e+01 0
9.7256607453381434e+01 -4.7411599165336895e+01 0
1.0230578975120881e+02 -4.9473382674372715e+01 0
-4.1386397968010101e+01 2.0396925380317896e+01 0
-4.3014766345156048e+01 2.1140537015468965e+01 0
9.3413537279624634e+01 -4.9441157407384651e+01 0
9.5986344274497199e+01 -4.8914573851475438e+01 0
-3.9916605177572741e+01 2.4168351575711519e+01 0
-4.0511847701405316e+01 2.2330969808705191e+01 0
3.2137791804146957e+01 5.2836205592042802e+00 0
-9.8296081550550696e-01 7.1666022491610590e+00 0
7.3415282020639765e+01 -3.2901966365316554e+01 0
7.4568233523791889e+00 1.4923304067305594e+01 0
-4.2871583107883442e+00 -1.6127210288929845e+01 0
-2.9995758489955975e+00 -5.8935138332259669e+00 0
-2.8367330750282953e+01 -1.0052711552332244e+01 0
-3.5587240579016026e+01 1.4426569372545309e+01 0
-1.0093926543184992e+01 -2.0048121575305654e+01 0

