# vtk DataFile Version 2.0

ASCII

DATASET UNSTRUCTURED_GRID

POINTS 79 float 

-5.0000000000000003e-02  0.0000000000000000e+00  0.0000000000000000e+00
-5.0000000000000003e-02  5.5555555555555552e-02  0.0000000000000000e+00
-5.0000000000000003e-02  2.7777777777777776e-02  0.0000000000000000e+00
5.0000000000000003e-02  0.0000000000000000e+00  0.0000000000000000e+00
5.0000000000000003e-02  5.5555555555555552e-02  0.0000000000000000e+00
5.0000000000000003e-02  2.7777777777777776e-02  0.0000000000000000e+00
-5.0000000000000003e-02  1.1111111111111110e-01  0.0000000000000000e+00
-5.0000000000000003e-02  8.3333333333333329e-02  0.0000000000000000e+00
5.0000000000000003e-02  1.1111111111111110e-01  0.0000000000000000e+00
5.0000000000000003e-02  8.3333333333333329e-02  0.0000000000000000e+00
-5.0000000000000003e-02  1.6666666666666666e-01  0.0000000000000000e+00
-5.0000000000000003e-02  1.3888888888888890e-01  0.0000000000000000e+00
5.0000000000000003e-02  1.6666666666666666e-01  0.0000000000000000e+00
5.0000000000000003e-02  1.3888888888888890e-01  0.0000000000000000e+00
-5.0000000000000003e-02  2.2222222222222221e-01  0.0000000000000000e+00
-5.0000000000000003e-02  1.9444444444444442e-01  0.0000000000000000e+00
5.0000000000000003e-02  2.2222222222222221e-01  0.0000000000000000e+00
5.0000000000000003e-02  1.9444444444444442e-01  0.0000000000000000e+00
-5.0000000000000003e-02  2.7777777777777779e-01  0.0000000000000000e+00
-5.0000000000000003e-02  2.5000000000000000e-01  0.0000000000000000e+00
5.0000000000000003e-02  2.7777777777777779e-01  0.0000000000000000e+00
5.0000000000000003e-02  2.5000000000000000e-01  0.0000000000000000e+00
-5.0000000000000003e-02  3.3333333333333331e-01  0.0000000000000000e+00
-5.0000000000000003e-02  3.0555555555555558e-01  0.0000000000000000e+00
5.0000000000000003e-02  3.3333333333333331e-01  0.0000000000000000e+00
5.0000000000000003e-02  3.0555555555555558e-01  0.0000000000000000e+00
-5.0000000000000003e-02  3.8888888888888884e-01  0.0000000000000000e+00
-5.0000000000000003e-02  3.6111111111111105e-01  0.0000000000000000e+00
5.0000000000000003e-02  3.8888888888888884e-01  0.0000000000000000e+00
5.0000000000000003e-02  3.6111111111111105e-01  0.0000000000000000e+00
-5.0000000000000003e-02  4.4444444444444442e-01  0.0000000000000000e+00
-5.0000000000000003e-02  4.1666666666666663e-01  0.0000000000000000e+00
5.0000000000000003e-02  4.4444444444444442e-01  0.0000000000000000e+00
5.0000000000000003e-02  4.1666666666666663e-01  0.0000000000000000e+00
-5.0000000000000003e-02  5.0000000000000000e-01  0.0000000000000000e+00
-5.0000000000000003e-02  4.7222222222222221e-01  0.0000000000000000e+00
5.0000000000000003e-02  5.0000000000000000e-01  0.0000000000000000e+00
5.0000000000000003e-02  4.7222222222222221e-01  0.0000000000000000e+00
-5.0000000000000003e-02  5.5555555555555558e-01  0.0000000000000000e+00
-5.0000000000000003e-02  5.2777777777777779e-01  0.0000000000000000e+00
5.0000000000000003e-02  5.5555555555555558e-01  0.0000000000000000e+00
5.0000000000000003e-02  5.2777777777777779e-01  0.0000000000000000e+00
-5.0000000000000003e-02  6.1111111111111105e-01  0.0000000000000000e+00
-5.0000000000000003e-02  5.8333333333333326e-01  0.0000000000000000e+00
5.0000000000000003e-02  6.1111111111111105e-01  0.0000000000000000e+00
5.0000000000000003e-02  5.8333333333333326e-01  0.0000000000000000e+00
-5.0000000000000003e-02  6.6666666666666663e-01  0.0000000000000000e+00
-5.0000000000000003e-02  6.3888888888888884e-01  0.0000000000000000e+00
5.0000000000000003e-02  6.6666666666666663e-01  0.0000000000000000e+00
5.0000000000000003e-02  6.3888888888888884e-01  0.0000000000000000e+00
-5.0000000000000003e-02  7.2222222222222221e-01  0.0000000000000000e+00
-5.0000000000000003e-02  6.9444444444444442e-01  0.0000000000000000e+00
5.0000000000000003e-02  7.2222222222222221e-01  0.0000000000000000e+00
5.0000000000000003e-02  6.9444444444444442e-01  0.0000000000000000e+00
-5.0000000000000003e-02  7.7777777777777768e-01  0.0000000000000000e+00
-5.0000000000000003e-02  7.5000000000000000e-01  0.0000000000000000e+00
5.0000000000000003e-02  7.7777777777777768e-01  0.0000000000000000e+00
5.0000000000000003e-02  7.5000000000000000e-01  0.0000000000000000e+00
-5.0000000000000003e-02  8.3333333333333326e-01  0.0000000000000000e+00
-5.0000000000000003e-02  8.0555555555555547e-01  0.0000000000000000e+00
5.0000000000000003e-02  8.3333333333333326e-01  0.0000000000000000e+00
5.0000000000000003e-02  8.0555555555555547e-01  0.0000000000000000e+00
-5.0000000000000003e-02  8.8888888888888884e-01  0.0000000000000000e+00
-5.0000000000000003e-02  8.6111111111111105e-01  0.0000000000000000e+00
5.0000000000000003e-02  8.8888888888888884e-01  0.0000000000000000e+00
5.0000000000000003e-02  8.6111111111111105e-01  0.0000000000000000e+00
-5.0000000000000003e-02  9.4444444444444442e-01  0.0000000000000000e+00
-5.0000000000000003e-02  9.1666666666666663e-01  0.0000000000000000e+00
5.0000000000000003e-02  9.4444444444444442e-01  0.0000000000000000e+00
5.0000000000000003e-02  9.1666666666666663e-01  0.0000000000000000e+00
-5.0000000000000003e-02  1.0000000000000000e+00  0.0000000000000000e+00
-1.6666666666666670e-02  1.0000000000000000e+00  0.0000000000000000e+00
-5.0000000000000003e-02  9.7222222222222221e-01  0.0000000000000000e+00
-3.3333333333333340e-02  1.0000000000000000e+00  0.0000000000000000e+00
1.6666666666666663e-02  1.0000000000000000e+00  0.0000000000000000e+00
-3.4694469519536142e-18  1.0000000000000000e+00  0.0000000000000000e+00
5.0000000000000003e-02  1.0000000000000000e+00  0.0000000000000000e+00
5.0000000000000003e-02  9.7222222222222221e-01  0.0000000000000000e+00
3.3333333333333333e-02  1.0000000000000000e+00  0.0000000000000000e+00

CELLS 0 0


CELL_TYPES 0


POINT_DATA 79

VECTORS VertexNormals float

0.0000000000000000e+00 0.0000000000000000e+00 0
0.0000000000000000e+00 0.0000000000000000e+00 0
0.0000000000000000e+00 0.0000000000000000e+00 0
0.0000000000000000e+00 0.0000000000000000e+00 0
0.0000000000000000e+00 0.0000000000000000e+00 0
0.0000000000000000e+00 0.0000000000000000e+00 0
0.0000000000000000e+00 0.0000000000000000e+00 0
0.0000000000000000e+00 0.0000000000000000e+00 0
0.0000000000000000e+00 0.0000000000000000e+00 0
0.0000000000000000e+00 0.0000000000000000e+00 0
0.0000000000000000e+00 0.0000000000000000e+00 0
0.0000000000000000e+00 0.0000000000000000e+00 0
0.0000000000000000e+00 0.0000000000000000e+00 0
0.0000000000000000e+00 0.0000000000000000e+00 0
0.0000000000000000e+00 0.0000000000000000e+00 0
0.0000000000000000e+00 0.0000000000000000e+00 0
0.0000000000000000e+00 0.0000000000000000e+00 0
0.0000000000000000e+00 0.0000000000000000e+00 0
0.0000000000000000e+00 0.0000000000000000e+00 0
0.0000000000000000e+00 0.0000000000000000e+00 0
0.0000000000000000e+00 0.0000000000000000e+00 0
0.0000000000000000e+00 0.0000000000000000e+00 0
0.0000000000000000e+00 0.0000000000000000e+00 0
0.0000000000000000e+00 0.0000000000000000e+00 0
0.0000000000000000e+00 0.0000000000000000e+00 0
0.0000000000000000e+00 0.0000000000000000e+00 0
0.0000000000000000e+00 0.0000000000000000e+00 0
0.0000000000000000e+00 0.0000000000000000e+00 0
0.0000000000000000e+00 0.0000000000000000e+00 0
0.0000000000000000e+00 0.0000000000000000e+00 0
0.0000000000000000e+00 0.0000000000000000e+00 0
0.0000000000000000e+00 0.0000000000000000e+00 0
0.0000000000000000e+00 0.0000000000000000e+00 0
0.0000000000000000e+00 0.0000000000000000e+00 0
0.0000000000000000e+00 0.0000000000000000e+00 0
0.0000000000000000e+00 0.0000000000000000e+00 0
0.0000000000000000e+00 0.0000000000000000e+00 0
0.0000000000000000e+00 0.0000000000000000e+00 0
0.0000000000000000e+00 0.0000000000000000e+00 0
0.0000000000000000e+00 0.0000000000000000e+00 0
0.0000000000000000e+00 0.0000000000000000e+00 0
0.0000000000000000e+00 0.0000000000000000e+00 0
0.0000000000000000e+00 0.0000000000000000e+00 0
0.0000000000000000e+00 0.0000000000000000e+00 0
0.0000000000000000e+00 0.0000000000000000e+00 0
0.0000000000000000e+00 0.0000000000000000e+00 0
0.0000000000000000e+00 0.0000000000000000e+00 0
0.0000000000000000e+00 0.0000000000000000e+00 0
0.0000000000000000e+00 0.0000000000000000e+00 0
0.0000000000000000e+00 0.0000000000000000e+00 0
0.0000000000000000e+00 0.0000000000000000e+00 0
0.0000000000000000e+00 0.0000000000000000e+00 0
0.0000000000000000e+00 0.0000000000000000e+00 0
0.0000000000000000e+00 0.0000000000000000e+00 0
0.0000000000000000e+00 0.0000000000000000e+00 0
0.0000000000000000e+00 0.0000000000000000e+00 0
0.0000000000000000e+00 0.0000000000000000e+00 0
0.0000000000000000e+00 0.0000000000000000e+00 0
0.0000000000000000e+00 0.0000000000000000e+00 0
0.0000000000000000e+00 0.0000000000000000e+00 0
0.0000000000000000e+00 0.0000000000000000e+00 0
0.0000000000000000e+00 0.0000000000000000e+00 0
0.0000000000000000e+00 0.0000000000000000e+00 0
0.0000000000000000e+00 0.0000000000000000e+00 0
0.0000000000000000e+00 0.0000000000000000e+00 0
0.0000000000000000e+00 0.0000000000000000e+00 0
0.0000000000000000e+00 0.0000000000000000e+00 0
0.0000000000000000e+00 0.0000000000000000e+00 0
0.0000000000000000e+00 0.0000000000000000e+00 0
0.0000000000000000e+00 0.0000000000000000e+00 0
0.0000000000000000e+00 0.0000000000000000e+00 0
0.0000000000000000e+00 0.0000000000000000e+00 0
0.0000000000000000e+00 0.0000000000000000e+00 0
0.0000000000000000e+00 0.0000000000000000e+00 0
0.0000000000000000e+00 0.0000000000000000e+00 0
0.0000000000000000e+00 0.0000000000000000e+00 0
0.0000000000000000e+00 0.0000000000000000e+00 0
0.0000000000000000e+00 0.0000000000000000e+00 0
0.0000000000000000e+00 0.0000000000000000e+00 0

VECTORS Displacement float
0.0000000000000000e+00 0.0000000000000000e+00 0
2.7967228427145307e-03 2.9531477123338297e-03 0
1.2354008788959714e-03 1.6278157959993622e-03 0
0.0000000000000000e+00 0.0000000000000000e+00 0
2.7920142604501491e-03 -2.7452437876068184e-03 0
1.2378809344762063e-03 -1.5379579887033448e-03 0
7.6364084926709742e-03 4.9812469077625491e-03 0
4.9944890161840996e-03 4.0436129509741235e-03 0
7.5398754579028959e-03 -4.6053443442502888e-03 0
4.9266865755009390e-03 -3.7367819919239612e-03 0
1.4164576608483571e-02 6.6322197169194500e-03 0
1.0675813749497731e-02 5.8476184664708044e-03 0
1.4135059812128911e-02 -6.1172628372808888e-03 0
1.0631143728993165e-02 -5.4028254052279562e-03 0
2.2421644505015020e-02 7.6900822323394246e-03 0
1.8146244206467335e-02 7.2535363349784804e-03 0
2.2327844317829894e-02 -7.1542217316712276e-03 0
1.8069808059156964e-02 -6.7075532025714108e-03 0
3.1358495881055173e-02 8.0507640737522979e-03 0
2.6843857300829992e-02 7.9394663867055158e-03 0
3.1371583587215063e-02 -7.4340952493583230e-03 0
2.6808001291940498e-02 -7.3926258578408625e-03 0
4.0128224333195017e-02 7.9122400042124803e-03 0
3.5818028161394733e-02 8.0173073804029986e-03 0
4.0042748785471177e-02 -7.1344824897423189e-03 0
3.5790120451553664e-02 -7.3089980404392203e-03 0
4.8369315793858031e-02 7.6656541425902149e-03 0
4.4299982081499323e-02 7.7889819954639634e-03 0
4.8365548693731095e-02 -6.7862082027635778e-03 0
4.4237874281018150e-02 -6.9652952577467899e-03 0
5.6274649849916480e-02 7.3883508171593525e-03 0
5.2380080489942138e-02 7.5302528578781646e-03 0
5.6169044447592457e-02 -6.4289172691665850e-03 0
5.2338536182976535e-02 -6.5940898382475356e-03 0
6.3718839424454082e-02 7.2039651807133658e-03 0
6.0040362755182895e-02 7.2781714191747877e-03 0
6.3728470574360846e-02 -6.0983057706817528e-03 0
5.9978923543083373e-02 -6.2772667328186774e-03 0
7.0995604269841917e-02 7.1163804530639842e-03 0
6.7346736553638598e-02 7.1644591958489948e-03 0
7.0974861616723159e-02 -5.8614222030549546e-03 0
6.7362737429760511e-02 -5.9521523980290824e-03 0
7.8191790378618814e-02 6.8331804321522917e-03 0
7.4643660471632067e-02 7.0023282860452842e-03 0
7.8153434631425683e-02 -5.6260849097019075e-03 0
7.4586177089927347e-02 -5.7659325316136486e-03 0
8.4864241293074016e-02 6.4171148681631072e-03 0
8.1598299593282311e-02 6.6299202960866908e-03 0
8.4917631269308319e-02 -5.1534195067194774e-03 0
8.1633348874743911e-02 -5.4108065309688876e-03 0
9.1022990508826312e-02 6.0501177116237849e-03 0
8.8001708534834744e-02 6.2232146844916677e-03 0
9.0991796856121535e-02 -4.7527531201725943e-03 0
8.7992028360031810e-02 -4.9298544672204203e-03 0
9.6732108503299927e-02 5.7141185690446333e-03 0
9.3930933851787968e-02 5.8759964683538311e-03 0
9.6801406914529167e-02 -4.4269679849375382e-03 0
9.3958175262799370e-02 -4.5869897110848651e-03 0
1.0225691721869629e-01 5.4521902319458367e-03 0
9.9503705454859717e-02 5.5860734472290563e-03 0
1.0221879596779015e-01 -4.2331270235671948e-03 0
9.9523428391818852e-02 -4.3103653133349951e-03 0
1.0747864515599488e-01 5.2614197160444154e-03 0
1.0490026086184415e-01 5.3269269467767109e-03 0
1.0755644801106648e-01 -4.0973956487047325e-03 0
1.0491122209429893e-01 -4.1608712825797357e-03 0
1.1274354168152753e-01 5.2811850088002599e-03 0
1.1008504516499588e-01 5.2696386918099393e-03 0
1.1277645436999695e-01 -4.0877606891910360e-03 0
1.1015325708297716e-01 -4.0727811400529824e-03 0
1.1800924372481381e-01 5.2454447615782173e-03 0
1.1800284050219437e-01 2.1741273501068234e-03 0
1.1540279726377220e-01 5.2569222722112447e-03 0
1.1800259327566388e-01 3.6984904839016258e-03 0
1.1809107305437927e-01 -9.2542660877229074e-04 0
1.1803418943741549e-01 6.3786728795506363e-04 0
1.1817670289026813e-01 -4.1291686766944972e-03 0
1.1546852704991896e-01 -4.1163895598741833e-03 0
1.1814999784040345e-01 -2.5136207595740810e-03 0

VECTORS Stress float
1.1635476791309975e+02 -5.8508313527669458e+00 0
1.1663032960298801e+02 -7.2659259853037383e+00 0
1.1660181792455739e+02 -5.8594314123325830e+00 0
4.7380248466833166e+01 -2.9411192334248142e+00 0
4.5155913980199557e+01 -2.9597156980995578e+00 0
4.5720765922827354e+01 -2.5489240993356930e+00 0
1.1658863922092087e+02 -1.1679902569264641e+01 0
1.1663138171628395e+02 -9.4781893505734160e+00 0
4.5203537905542134e+01 -4.8055890099606131e+00 0
4.5145523264597614e+01 -3.8650580546905076e+00 0
1.1624585437604060e+02 -1.5192665193128050e+01 0
1.1642133418677327e+02 -1.3528841954322615e+01 0
4.5152801688308955e+01 -6.1519394463484787e+00 0
4.5195864463614726e+01 -5.5363705018280598e+00 0
1.1551485449341908e+02 -1.7738488479824809e+01 0
1.1587222082309813e+02 -1.6608947185207171e+01 0
4.5531467282589347e+01 -7.1989922265534005e+00 0
4.5317628153528858e+01 -6.7676272336746024e+00 0
1.1459233378165368e+02 -1.8284766190199207e+01 0
1.1507259974314229e+02 -1.8272257456262196e+01 0
4.6589806812341976e+01 -7.3998454656598369e+00 0
4.5971780193400036e+01 -7.4083740239507279e+00 0
1.1345964712287105e+02 -1.7397078343759858e+01 0
1.1410408416491418e+02 -1.7987851163646155e+01 0
4.8272005058486684e+01 -7.2795291501652173e+00 0
4.7314340947763185e+01 -7.2924362440830919e+00 0
1.1195345340232325e+02 -1.6194217525258864e+01 0
1.1281021916192003e+02 -1.6757856633305437e+01 0
5.0464997099919856e+01 -7.1824982142297813e+00 0
4.9264812035784416e+01 -7.2268857251192458e+00 0
1.0995719260963574e+02 -1.5142256554608593e+01 0
1.1100862643680853e+02 -1.5689247259888816e+01 0
5.3011181656585904e+01 -7.1081945467781225e+00 0
5.1715767113373204e+01 -7.1289437849459318e+00 0
1.0740858938891552e+02 -1.4036279950209064e+01 0
1.0874087780778245e+02 -1.4538760114166507e+01 0
5.5646273126149254e+01 -7.2068882485436916e+00 0
5.4366378863552200e+01 -7.1499666039553631e+00 0
1.0401812968076342e+02 -1.3523803961527619e+01 0
1.0578169760891114e+02 -1.3763368418209666e+01 0
5.8162804194008004e+01 -7.3935459706244728e+00 0
5.6950158792875754e+01 -7.3163846451332120e+00 0
1.0006836467246308e+02 -1.2404452322487714e+01 0
1.0211285265692527e+02 -1.3070391381729678e+01 0
6.0499348747071053e+01 -7.4006879834087158e+00 0
5.9353036602656857e+01 -7.4355676111608773e+00 0
9.5431086690966822e+01 -1.0919054536587737e+01 0
9.7868201711061374e+01 -1.1665974366783075e+01 0
6.2618858438481766e+01 -7.0332193337769695e+00 0
6.1571243931069603e+01 -7.2553273732728485e+00 0
8.9750391126247450e+01 -9.3817995570771018e+00 0
9.2756630345559415e+01 -1.0151229597871406e+01 0
6.4249505253935240e+01 -6.5675708859866972e+00 0
6.3510740092923243e+01 -6.7559634076042130e+00 0
8.2556340705434536e+01 -8.2249802290853040e+00 0
8.6376456924376157e+01 -8.6604257356398193e+00 0
6.5288875182613310e+01 -6.4874979854980666e+00 0
6.4806407335449990e+01 -6.4332366176304276e+00 0
7.3105831183305554e+01 -6.8421432908046427e+00 0
7.8174776425917344e+01 -7.9425792021493180e+00 0
6.5536721962972990e+01 -6.1445381018945682e+00 0
6.5664611355789930e+01 -6.6258829450675876e+00 0
6.0111300722291503e+01 -3.0075389902792722e+00 0
6.7134086474425771e+01 -3.8897022232670224e+00 0
6.4298715872512076e+01 -4.2992386677231025e+00 0
6.4602794648585757e+01 -4.4385536132074321e+00 0
4.0382426999357250e+01 -2.2093426360565104e+01 0
5.1591351593789796e+01 -1.3818825030968128e+01 0
7.2492312723225098e+01 -1.8741434684629951e+01 0
6.8835122966122611e+01 -1.2562742717038873e+01 0
1.0727123406694318e+01 1.0283016119976810e+02 0
1.0142311502610681e+01 1.0867824391951876e+02 0
2.6326283506635917e+01 1.1847700040781604e+01 0
1.0826719154898285e+01 1.1549670349884076e+02 0
6.8676990274881717e+00 8.6179537523362711e+01 0
8.9355740280618221e+00 9.5979062540444716e+01 0
1.5616719089151033e+01 6.2892108473049774e+01 0
5.7357223289803059e+01 2.7871081977606735e+00 0
7.2007276304777008e+00 7.6373490299892353e+01 0

