# vtk DataFile Version 2.0

ASCII

DATASET UNSTRUCTURED_GRID

POINTS 79 float 

-5.0000000000000003e-02  0.0000000000000000e+00  0.0000000000000000e+00
-5.0000000000000003e-02  5.5555555555555552e-02  0.0000000000000000e+00
-5.0000000000000003e-02  2.7777777777777776e-02  0.0000000000000000e+00
5.0000000000000003e-02  0.0000000000000000e+00  0.0000000000000000e+00
5.0000000000000003e-02  5.5555555555555552e-02  0.0000000000000000e+00
5.0000000000000003e-02  2.7777777777777776e-02  0.0000000000000000e+00
-5.0000000000000003e-02  1.1111111111111110e-01  0.0000000000000000e+00
-5.0000000000000003e-02  8.3333333333333329e-02  0.0000000000000000e+00
5.0000000000000003e-02  1.1111111111111110e-01  0.0000000000000000e+00
5.0000000000000003e-02  8.3333333333333329e-02  0.0000000000000000e+00
-5.0000000000000003e-02  1.6666666666666666e-01  0.0000000000000000e+00
-5.0000000000000003e-02  1.3888888888888890e-01  0.0000000000000000e+00
5.0000000000000003e-02  1.6666666666666666e-01  0.0000000000000000e+00
5.0000000000000003e-02  1.3888888888888890e-01  0.0000000000000000e+00
-5.0000000000000003e-02  2.2222222222222221e-01  0.0000000000000000e+00
-5.0000000000000003e-02  1.9444444444444442e-01  0.0000000000000000e+00
5.0000000000000003e-02  2.2222222222222221e-01  0.0000000000000000e+00
5.0000000000000003e-02  1.9444444444444442e-01  0.0000000000000000e+00
-5.0000000000000003e-02  2.7777777777777779e-01  0.0000000000000000e+00
-5.0000000000000003e-02  2.5000000000000000e-01  0.0000000000000000e+00
5.0000000000000003e-02  2.7777777777777779e-01  0.0000000000000000e+00
5.0000000000000003e-02  2.5000000000000000e-01  0.0000000000000000e+00
-5.0000000000000003e-02  3.3333333333333331e-01  0.0000000000000000e+00
-5.0000000000000003e-02  3.0555555555555558e-01  0.0000000000000000e+00
5.0000000000000003e-02  3.3333333333333331e-01  0.0000000000000000e+00
5.0000000000000003e-02  3.0555555555555558e-01  0.0000000000000000e+00
-5.0000000000000003e-02  3.8888888888888884e-01  0.0000000000000000e+00
-5.0000000000000003e-02  3.6111111111111105e-01  0.0000000000000000e+00
5.0000000000000003e-02  3.8888888888888884e-01  0.0000000000000000e+00
5.0000000000000003e-02  3.6111111111111105e-01  0.0000000000000000e+00
-5.0000000000000003e-02  4.4444444444444442e-01  0.0000000000000000e+00
-5.0000000000000003e-02  4.1666666666666663e-01  0.0000000000000000e+00
5.0000000000000003e-02  4.4444444444444442e-01  0.0000000000000000e+00
5.0000000000000003e-02  4.1666666666666663e-01  0.0000000000000000e+00
-5.0000000000000003e-02  5.0000000000000000e-01  0.0000000000000000e+00
-5.0000000000000003e-02  4.7222222222222221e-01  0.0000000000000000e+00
5.0000000000000003e-02  5.0000000000000000e-01  0.0000000000000000e+00
5.0000000000000003e-02  4.7222222222222221e-01  0.0000000000000000e+00
-5.0000000000000003e-02  5.5555555555555558e-01  0.0000000000000000e+00
-5.0000000000000003e-02  5.2777777777777779e-01  0.0000000000000000e+00
5.0000000000000003e-02  5.5555555555555558e-01  0.0000000000000000e+00
5.0000000000000003e-02  5.2777777777777779e-01  0.0000000000000000e+00
-5.0000000000000003e-02  6.1111111111111105e-01  0.0000000000000000e+00
-5.0000000000000003e-02  5.8333333333333326e-01  0.0000000000000000e+00
5.0000000000000003e-02  6.1111111111111105e-01  0.0000000000000000e+00
5.0000000000000003e-02  5.8333333333333326e-01  0.0000000000000000e+00
-5.0000000000000003e-02  6.6666666666666663e-01  0.0000000000000000e+00
-5.0000000000000003e-02  6.3888888888888884e-01  0.0000000000000000e+00
5.0000000000000003e-02  6.6666666666666663e-01  0.0000000000000000e+00
5.0000000000000003e-02  6.3888888888888884e-01  0.0000000000000000e+00
-5.0000000000000003e-02  7.2222222222222221e-01  0.0000000000000000e+00
-5.0000000000000003e-02  6.9444444444444442e-01  0.0000000000000000e+00
5.0000000000000003e-02  7.2222222222222221e-01  0.0000000000000000e+00
5.0000000000000003e-02  6.9444444444444442e-01  0.0000000000000000e+00
-5.0000000000000003e-02  7.7777777777777768e-01  0.0000000000000000e+00
-5.0000000000000003e-02  7.5000000000000000e-01  0.0000000000000000e+00
5.0000000000000003e-02  7.7777777777777768e-01  0.0000000000000000e+00
5.0000000000000003e-02  7.5000000000000000e-01  0.0000000000000000e+00
-5.0000000000000003e-02  8.3333333333333326e-01  0.0000000000000000e+00
-5.0000000000000003e-02  8.0555555555555547e-01  0.0000000000000000e+00
5.0000000000000003e-02  8.3333333333333326e-01  0.0000000000000000e+00
5.0000000000000003e-02  8.0555555555555547e-01  0.0000000000000000e+00
-5.0000000000000003e-02  8.8888888888888884e-01  0.0000000000000000e+00
-5.0000000000000003e-02  8.6111111111111105e-01  0.0000000000000000e+00
5.0000000000000003e-02  8.8888888888888884e-01  0.0000000000000000e+00
5.0000000000000003e-02  8.6111111111111105e-01  0.0000000000000000e+00
-5.0000000000000003e-02  9.4444444444444442e-01  0.0000000000000000e+00
-5.0000000000000003e-02  9.1666666666666663e-01  0.0000000000000000e+00
5.0000000000000003e-02  9.4444444444444442e-01  0.0000000000000000e+00
5.0000000000000003e-02  9.1666666666666663e-01  0.0000000000000000e+00
-5.0000000000000003e-02  1.0000000000000000e+00  0.0000000000000000e+00
-1.6666666666666670e-02  1.0000000000000000e+00  0.0000000000000000e+00
-5.0000000000000003e-02  9.7222222222222221e-01  0.0000000000000000e+00
-3.3333333333333340e-02  1.0000000000000000e+00  0.0000000000000000e+00
1.6666666666666663e-02  1.0000000000000000e+00  0.0000000000000000e+00
-3.4694469519536142e-18  1.0000000000000000e+00  0.0000000000000000e+00
5.0000000000000003e-02  1.0000000000000000e+00  0.0000000000000000e+00
5.0000000000000003e-02  9.7222222222222221e-01  0.0000000000000000e+00
3.3333333333333333e-02  1.0000000000000000e+00  0.0000000000000000e+00

CELLS 0 0


CELL_TYPES 0


POINT_DATA 79

VECTORS VertexNormals float

0.0000000000000000e+00 0.0000000000000000e+00 0
0.0000000000000000e+00 0.0000000000000000e+00 0
0.0000000000000000e+00 0.0000000000000000e+00 0
0.0000000000000000e+00 0.0000000000000000e+00 0
0.0000000000000000e+00 0.0000000000000000e+00 0
0.0000000000000000e+00 0.0000000000000000e+00 0
0.0000000000000000e+00 0.0000000000000000e+00 0
0.0000000000000000e+00 0.0000000000000000e+00 0
0.0000000000000000e+00 0.0000000000000000e+00 0
0.0000000000000000e+00 0.0000000000000000e+00 0
0.0000000000000000e+00 0.0000000000000000e+00 0
0.0000000000000000e+00 0.0000000000000000e+00 0
0.0000000000000000e+00 0.0000000000000000e+00 0
0.0000000000000000e+00 0.0000000000000000e+00 0
0.0000000000000000e+00 0.0000000000000000e+00 0
0.0000000000000000e+00 0.0000000000000000e+00 0
0.0000000000000000e+00 0.0000000000000000e+00 0
0.0000000000000000e+00 0.0000000000000000e+00 0
0.0000000000000000e+00 0.0000000000000000e+00 0
0.0000000000000000e+00 0.0000000000000000e+00 0
0.0000000000000000e+00 0.0000000000000000e+00 0
0.0000000000000000e+00 0.0000000000000000e+00 0
0.0000000000000000e+00 0.0000000000000000e+00 0
0.0000000000000000e+00 0.0000000000000000e+00 0
0.0000000000000000e+00 0.0000000000000000e+00 0
0.0000000000000000e+00 0.0000000000000000e+00 0
0.0000000000000000e+00 0.0000000000000000e+00 0
0.0000000000000000e+00 0.0000000000000000e+00 0
0.0000000000000000e+00 0.0000000000000000e+00 0
0.0000000000000000e+00 0.0000000000000000e+00 0
0.0000000000000000e+00 0.0000000000000000e+00 0
0.0000000000000000e+00 0.0000000000000000e+00 0
0.0000000000000000e+00 0.0000000000000000e+00 0
0.0000000000000000e+00 0.0000000000000000e+00 0
0.0000000000000000e+00 0.0000000000000000e+00 0
0.0000000000000000e+00 0.0000000000000000e+00 0
0.0000000000000000e+00 0.0000000000000000e+00 0
0.0000000000000000e+00 0.0000000000000000e+00 0
0.0000000000000000e+00 0.0000000000000000e+00 0
0.0000000000000000e+00 0.0000000000000000e+00 0
0.0000000000000000e+00 0.0000000000000000e+00 0
0.0000000000000000e+00 0.0000000000000000e+00 0
0.0000000000000000e+00 0.0000000000000000e+00 0
0.0000000000000000e+00 0.0000000000000000e+00 0
0.0000000000000000e+00 0.0000000000000000e+00 0
0.0000000000000000e+00 0.0000000000000000e+00 0
0.0000000000000000e+00 0.0000000000000000e+00 0
0.0000000000000000e+00 0.0000000000000000e+00 0
0.0000000000000000e+00 0.0000000000000000e+00 0
0.0000000000000000e+00 0.0000000000000000e+00 0
0.0000000000000000e+00 0.0000000000000000e+00 0
0.0000000000000000e+00 0.0000000000000000e+00 0
0.0000000000000000e+00 0.0000000000000000e+00 0
0.0000000000000000e+00 0.0000000000000000e+00 0
0.0000000000000000e+00 0.0000000000000000e+00 0
0.0000000000000000e+00 0.0000000000000000e+00 0
0.0000000000000000e+00 0.0000000000000000e+00 0
0.0000000000000000e+00 0.0000000000000000e+00 0
0.0000000000000000e+00 0.0000000000000000e+00 0
0.0000000000000000e+00 0.0000000000000000e+00 0
0.0000000000000000e+00 0.0000000000000000e+00 0
0.0000000000000000e+00 0.0000000000000000e+00 0
0.0000000000000000e+00 0.0000000000000000e+00 0
0.0000000000000000e+00 0.0000000000000000e+00 0
0.0000000000000000e+00 0.0000000000000000e+00 0
0.0000000000000000e+00 0.0000000000000000e+00 0
0.0000000000000000e+00 0.0000000000000000e+00 0
0.0000000000000000e+00 0.0000000000000000e+00 0
0.0000000000000000e+00 0.0000000000000000e+00 0
0.0000000000000000e+00 0.0000000000000000e+00 0
0.0000000000000000e+00 0.0000000000000000e+00 0
0.0000000000000000e+00 0.0000000000000000e+00 0
0.0000000000000000e+00 0.0000000000000000e+00 0
0.0000000000000000e+00 0.0000000000000000e+00 0
0.0000000000000000e+00 0.0000000000000000e+00 0
0.0000000000000000e+00 0.0000000000000000e+00 0
0.0000000000000000e+00 0.0000000000000000e+00 0
0.0000000000000000e+00 0.0000000000000000e+00 0
0.0000000000000000e+00 0.0000000000000000e+00 0

VECTORS Displacement float
0.0000000000000000e+00 0.0000000000000000e+00 0
1.9319029635036574e-03 2.4105202826276355e-03 0
8.0569581800020928e-04 1.2574597381771594e-03 0
0.0000000000000000e+00 0.0000000000000000e+00 0
1.8783061438938128e-03 -2.4911206079264807e-03 0
7.6415102631573846e-04 -1.2781706733705164e-03 0
6.2035962953077744e-03 4.4739578533120345e-03 0
3.7461467963465995e-03 3.4932038947271104e-03 0
6.2294448222840765e-03 -4.6122051783931825e-03 0
3.7492851871680387e-03 -3.6227310565742979e-03 0
1.2478877049732844e-02 6.0330445207209243e-03 0
9.1686536722338646e-03 5.3037303000039535e-03 0
1.2433153881861690e-02 -6.1617370224838295e-03 0
9.1512703403995657e-03 -5.4382242702654864e-03 0
2.0134594378861007e-02 7.3878265027249182e-03 0
1.6131649916580570e-02 6.7133031790921746e-03 0
2.0155879554721850e-02 -7.3664271104402785e-03 0
1.6124588671881289e-02 -6.7909896478996132e-03 0
2.9275680509280158e-02 8.5398022187890971e-03 0
2.4516707763585818e-02 8.0180977278450950e-03 0
2.9188283087750101e-02 -8.4138660735009647e-03 0
2.4485266730377729e-02 -7.9129784167221388e-03 0
3.9377578701432041e-02 9.2214604156988060e-03 0
3.4239339530832080e-02 8.9234290722592837e-03 0
3.9369359150031952e-02 -9.0821280890742567e-03 0
3.4177373023494009e-02 -8.8118487465451874e-03 0
4.9999314038707762e-02 9.5840662060292219e-03 0
4.4672848754423775e-02 9.4332689362896897e-03 0
4.9918230304795967e-02 -9.2737990254515464e-03 0
4.4643991149718704e-02 -9.2093783317478833e-03 0
6.0613474492772136e-02 9.7209390755214203e-03 0
5.5316115047726155e-02 9.6734412118911761e-03 0
6.0609658022378395e-02 -9.2995172538818914e-03 0
5.5246225492789292e-02 -9.3067856006590101e-03 0
7.1331465529675703e-02 9.7873074034947934e-03 0
6.5947942584551500e-02 9.7647055030530092e-03 0
7.1213448041924976e-02 -9.2193780218638270e-03 0
6.5938688819644486e-02 -9.2581055735518943e-03 0
8.1882721343787823e-02 9.6821814446705415e-03 0
7.6662099601879322e-02 9.7512949002786578e-03 0
8.1846651196605280e-02 -9.0833886600667144e-03 0
7.6513667817879188e-02 -9.1833068969300272e-03 0
9.2160938312260743e-02 9.5001132561880093e-03 0
8.7035012979925802e-02 9.6054545715014063e-03 0
9.2137976491172405e-02 -8.6611021078101050e-03 0
8.7073342664354431e-02 -8.8868697979047513e-03 0
1.0201261242024702e-01 9.1339335410161836e-03 0
9.7187071556122773e-02 9.3258178708961192e-03 0
1.0191554976049305e-01 -8.2362125002627788e-03 0
9.7088063640127689e-02 -8.4404794553712345e-03 0
1.1126207198011751e-01 8.9424247332979007e-03 0
1.0667265470923318e-01 9.0015407416697973e-03 0
1.1124504153634662e-01 -7.9574994322612995e-03 0
1.0662330612501673e-01 -8.0699294034218324e-03 0
1.2054414836530838e-01 9.0686709292287712e-03 0
1.1587532155350433e-01 8.9699224516622423e-03 0
1.2047641609869966e-01 -8.0085108966607230e-03 0
1.1582854907484512e-01 -7.9428633354791979e-03 0
1.3016832600643757e-01 9.3632744487559798e-03 0
1.2530312411064595e-01 9.2134401643331615e-03 0
1.3017078872958765e-01 -8.1708063370719633e-03 0
1.2527776812330826e-01 -8.1003087212210730e-03 0
1.4013868167050397e-01 9.6354413819053804e-03 0
1.3510342105215123e-01 9.5073189374521201e-03 0
1.4003785581193126e-01 -8.3751006705892195e-03 0
1.3506813231162568e-01 -8.2537926978852195e-03 0
1.5030077169352590e-01 9.7944840888275694e-03 0
1.4521330753963443e-01 9.7264723237866224e-03 0
1.5029024179372164e-01 -8.5364300941398064e-03 0
1.4513540335146297e-01 -8.4798100796973155e-03 0
1.6065600834484356e-01 9.8981797493428135e-03 0
1.6057795151950008e-01 3.6918900105369309e-03 0
1.5545407589274940e-01 9.8578110300518544e-03 0
1.6062885569694949e-01 6.7800225177316199e-03 0
1.6050399489142797e-01 -2.4417430164165336e-03 0
1.6053233035124406e-01 6.1826018574688015e-04 0
1.6050334686553219e-01 -8.5291520737114275e-03 0
1.5541525670588197e-01 -8.5378724834678250e-03 0
1.6049927425190202e-01 -5.4858128650511701e-03 0

VECTORS Stress float
1.2382752949969829e+02 -4.0758409831872910e+00 0
1.2441208601718290e+02 -6.3377292048307936e+00 0
1.2433353100095036e+02 -4.3857619025742451e+00 0
2.7310729367022248e+01 -9.2252546229008203e-01 0
2.5142838046826228e+01 -1.3441529038179851e+00 0
2.5683129129982376e+01 -9.5775932372060879e-01 0
1.2428081496739026e+02 -1.1635949739470220e+01 0
1.2435915019079948e+02 -9.1257236477808874e+00 0
2.5203018415512020e+01 -2.5340844118395580e+00 0
2.5139102827699730e+01 -1.9543414738898264e+00 0
1.2399010037517610e+02 -1.5131711945097095e+01 0
1.2413294527420953e+02 -1.3490049882048197e+01 0
2.5198429329266673e+01 -3.2082710291715557e+00 0
2.5217851204187809e+01 -2.9171379740146222e+00 0
1.2321535140928086e+02 -1.8205812627902105e+01 0
1.2361928806665514e+02 -1.6694413157545341e+01 0
2.5622934189218313e+01 -3.8894983626171324e+00 0
2.5407066608158402e+01 -3.5611220751859491e+00 0
1.2184073241069837e+02 -2.0741089549781691e+01 0
1.2260203405955212e+02 -1.9561207474569983e+01 0
2.6443542546868684e+01 -4.6314200284996332e+00 0
2.5983462096434778e+01 -4.2666909846288945e+00 0
1.1999125206745111e+02 -2.2176857597001117e+01 0
1.2101508463418941e+02 -2.1669155727097859e+01 0
2.7748392006066751e+01 -5.1832240000487673e+00 0
2.6974749732027703e+01 -4.9165816376610110e+00 0
1.1779429903096388e+02 -2.2366905626874768e+01 0
1.1897202321793498e+02 -2.2454615183153237e+01 0
2.9544712819860024e+01 -5.5682348619966433e+00 0
2.8546491376536324e+01 -5.3410379197550810e+00 0
1.1518095284858919e+02 -2.1885116143037749e+01 0
1.1655797345182236e+02 -2.2117962251948484e+01 0
3.1727515102712459e+01 -5.9761304123155696e+00 0
3.0596348299640795e+01 -5.7780465427210856e+00 0
1.1196686696096822e+02 -2.1415696683638089e+01 0
1.1359998209092669e+02 -2.1689371386042694e+01 0
3.4188579642721379e+01 -6.3572699031860793e+00 0
3.2973528062479545e+01 -6.1890807210468211e+00 0
1.0831323718955582e+02 -2.0166395116309559e+01 0
1.1017516517591935e+02 -2.0843337532833175e+01 0
3.6753683618327614e+01 -6.7566972028780583e+00 0
3.5489889367592014e+01 -6.5905252222037234e+00 0
1.0406328944829295e+02 -1.8784599969891588e+01 0
1.0627148330961813e+02 -1.9483011591988998e+01 0
3.9408484842661210e+01 -6.9159527597644228e+00 0
3.8073345081735397e+01 -6.8682450511257684e+00 0
9.9279860152418223e+01 -1.6951444199267598e+01 0
1.0175100158632608e+02 -1.7968458173956833e+01 0
4.1933856771247520e+01 -6.9690330638302385e+00 0
4.0685134250475130e+01 -6.9198217750429194e+00 0
9.3405875905087328e+01 -1.5221701208856189e+01 0
9.6568443968178485e+01 -1.5960265048717247e+01 0
4.4013377214259890e+01 -7.1164572965180923e+00 0
4.3033947909753465e+01 -7.0051052997121133e+00 0
8.5687121103256516e+01 -1.4345236844796091e+01 0
8.9797414817850836e+01 -1.4670573328761407e+01 0
4.5498495356493322e+01 -7.6338254850307976e+00 0
4.4814900224739631e+01 -7.2820732365642016e+00 0
7.5664249463194096e+01 -1.2981123124926398e+01 0
8.0986446218699541e+01 -1.4058052047516981e+01 0
4.6230746462829075e+01 -7.9716464096288746e+00 0
4.6055855625742367e+01 -8.0733020864761329e+00 0
6.2563366892734621e+01 -8.9574046652719517e+00 0
6.9591385669689885e+01 -1.0156903613872430e+01 0
4.5877658310162673e+01 -6.9246426996360810e+00 0
4.5846659144444089e+01 -6.8393566782839912e+00 0
4.3515699904833752e+01 -2.3798495211779880e+01 0
5.4052510578975699e+01 -1.7578201179209941e+01 0
5.1881177271310179e+01 -1.8858805779554871e+01 0
4.9139938370997299e+01 -1.3818055329816758e+01 0
2.0522902645156307e+01 8.6234300889956899e+01 0
1.6171109887881983e+01 8.9489678804169785e+01 0
3.1738083777852950e+01 6.6283638698410527e+00 0
1.8222224821983573e+01 9.6817187204574736e+01 0
1.1811658348986896e+01 6.7763779135104059e+01 0
1.4189770744867360e+01 7.6983802090227812e+01 0
1.3896102156884986e+01 4.8328515843873603e+01 0
4.2053518783300625e+01 -1.1451994794857114e+00 0
1.0668757259513569e+01 5.9189848189290871e+01 0

