# vtk DataFile Version 2.0

ASCII

DATASET UNSTRUCTURED_GRID

POINTS 79 float 

-5.0000000000000003e-02  0.0000000000000000e+00  0.0000000000000000e+00
-5.0000000000000003e-02  5.5555555555555552e-02  0.0000000000000000e+00
-5.0000000000000003e-02  2.7777777777777776e-02  0.0000000000000000e+00
5.0000000000000003e-02  0.0000000000000000e+00  0.0000000000000000e+00
5.0000000000000003e-02  5.5555555555555552e-02  0.0000000000000000e+00
5.0000000000000003e-02  2.7777777777777776e-02  0.0000000000000000e+00
-5.0000000000000003e-02  1.1111111111111110e-01  0.0000000000000000e+00
-5.0000000000000003e-02  8.3333333333333329e-02  0.0000000000000000e+00
5.0000000000000003e-02  1.1111111111111110e-01  0.0000000000000000e+00
5.0000000000000003e-02  8.3333333333333329e-02  0.0000000000000000e+00
-5.0000000000000003e-02  1.6666666666666666e-01  0.0000000000000000e+00
-5.0000000000000003e-02  1.3888888888888890e-01  0.0000000000000000e+00
5.0000000000000003e-02  1.6666666666666666e-01  0.0000000000000000e+00
5.0000000000000003e-02  1.3888888888888890e-01  0.0000000000000000e+00
-5.0000000000000003e-02  2.2222222222222221e-01  0.0000000000000000e+00
-5.0000000000000003e-02  1.9444444444444442e-01  0.0000000000000000e+00
5.0000000000000003e-02  2.2222222222222221e-01  0.0000000000000000e+00
5.0000000000000003e-02  1.9444444444444442e-01  0.0000000000000000e+00
-5.0000000000000003e-02  2.7777777777777779e-01  0.0000000000000000e+00
-5.0000000000000003e-02  2.5000000000000000e-01  0.0000000000000000e+00
5.0000000000000003e-02  2.7777777777777779e-01  0.0000000000000000e+00
5.0000000000000003e-02  2.5000000000000000e-01  0.0000000000000000e+00
-5.0000000000000003e-02  3.3333333333333331e-01  0.0000000000000000e+00
-5.0000000000000003e-02  3.0555555555555558e-01  0.0000000000000000e+00
5.0000000000000003e-02  3.3333333333333331e-01  0.0000000000000000e+00
5.0000000000000003e-02  3.0555555555555558e-01  0.0000000000000000e+00
-5.0000000000000003e-02  3.8888888888888884e-01  0.0000000000000000e+00
-5.0000000000000003e-02  3.6111111111111105e-01  0.0000000000000000e+00
5.0000000000000003e-02  3.8888888888888884e-01  0.0000000000000000e+00
5.0000000000000003e-02  3.6111111111111105e-01  0.0000000000000000e+00
-5.0000000000000003e-02  4.4444444444444442e-01  0.0000000000000000e+00
-5.0000000000000003e-02  4.1666666666666663e-01  0.0000000000000000e+00
5.0000000000000003e-02  4.4444444444444442e-01  0.0000000000000000e+00
5.0000000000000003e-02  4.1666666666666663e-01  0.0000000000000000e+00
-5.0000000000000003e-02  5.0000000000000000e-01  0.0000000000000000e+00
-5.0000000000000003e-02  4.7222222222222221e-01  0.0000000000000000e+00
5.0000000000000003e-02  5.0000000000000000e-01  0.0000000000000000e+00
5.0000000000000003e-02  4.7222222222222221e-01  0.0000000000000000e+00
-5.0000000000000003e-02  5.5555555555555558e-01  0.0000000000000000e+00
-5.0000000000000003e-02  5.2777777777777779e-01  0.0000000000000000e+00
5.0000000000000003e-02  5.5555555555555558e-01  0.0000000000000000e+00
5.0000000000000003e-02  5.2777777777777779e-01  0.0000000000000000e+00
-5.0000000000000003e-02  6.1111111111111105e-01  0.0000000000000000e+00
-5.0000000000000003e-02  5.8333333333333326e-01  0.0000000000000000e+00
5.0000000000000003e-02  6.1111111111111105e-01  0.0000000000000000e+00
5.0000000000000003e-02  5.8333333333333326e-01  0.0000000000000000e+00
-5.0000000000000003e-02  6.6666666666666663e-01  0.0000000000000000e+00
-5.0000000000000003e-02  6.3888888888888884e-01  0.0000000000000000e+00
5.0000000000000003e-02  6.6666666666666663e-01  0.0000000000000000e+00
5.0000000000000003e-02  6.3888888888888884e-01  0.0000000000000000e+00
-5.0000000000000003e-02  7.2222222222222221e-01  0.0000000000000000e+00
-5.0000000000000003e-02  6.9444444444444442e-01  0.0000000000000000e+00
5.0000000000000003e-02  7.2222222222222221e-01  0.0000000000000000e+00
5.0000000000000003e-02  6.9444444444444442e-01  0.0000000000000000e+00
-5.0000000000000003e-02  7.7777777777777768e-01  0.0000000000000000e+00
-5.0000000000000003e-02  7.5000000000000000e-01  0.0000000000000000e+00
5.0000000000000003e-02  7.7777777777777768e-01  0.0000000000000000e+00
5.0000000000000003e-02  7.5000000000000000e-01  0.0000000000000000e+00
-5.0000000000000003e-02  8.3333333333333326e-01  0.0000000000000000e+00
-5.0000000000000003e-02  8.0555555555555547e-01  0.0000000000000000e+00
5.0000000000000003e-02  8.3333333333333326e-01  0.0000000000000000e+00
5.0000000000000003e-02  8.0555555555555547e-01  0.0000000000000000e+00
-5.0000000000000003e-02  8.8888888888888884e-01  0.0000000000000000e+00
-5.0000000000000003e-02  8.6111111111111105e-01  0.0000000000000000e+00
5.0000000000000003e-02  8.8888888888888884e-01  0.0000000000000000e+00
5.0000000000000003e-02  8.6111111111111105e-01  0.0000000000000000e+00
-5.0000000000000003e-02  9.4444444444444442e-01  0.0000000000000000e+00
-5.0000000000000003e-02  9.1666666666666663e-01  0.0000000000000000e+00
5.0000000000000003e-02  9.4444444444444442e-01  0.0000000000000000e+00
5.0000000000000003e-02  9.1666666666666663e-01  0.0000000000000000e+00
-5.0000000000000003e-02  1.0000000000000000e+00  0.0000000000000000e+00
-1.6666666666666670e-02  1.0000000000000000e+00  0.0000000000000000e+00
-5.0000000000000003e-02  9.7222222222222221e-01  0.0000000000000000e+00
-3.3333333333333340e-02  1.0000000000000000e+00  0.0000000000000000e+00
1.6666666666666663e-02  1.0000000000000000e+00  0.0000000000000000e+00
-3.4694469519536142e-18  1.0000000000000000e+00  0.0000000000000000e+00
5.0000000000000003e-02  1.0000000000000000e+00  0.0000000000000000e+00
5.0000000000000003e-02  9.7222222222222221e-01  0.0000000000000000e+00
3.3333333333333333e-02  1.0000000000000000e+00  0.0000000000000000e+00

CELLS 0 0


CELL_TYPES 0


POINT_DATA 79

VECTORS VertexNormals float

0.0000000000000000e+00 0.0000000000000000e+00 0
0.0000000000000000e+00 0.0000000000000000e+00 0
0.0000000000000000e+00 0.0000000000000000e+00 0
0.0000000000000000e+00 0.0000000000000000e+00 0
0.0000000000000000e+00 0.0000000000000000e+00 0
0.0000000000000000e+00 0.0000000000000000e+00 0
0.0000000000000000e+00 0.0000000000000000e+00 0
0.0000000000000000e+00 0.0000000000000000e+00 0
0.0000000000000000e+00 0.0000000000000000e+00 0
0.0000000000000000e+00 0.0000000000000000e+00 0
0.0000000000000000e+00 0.0000000000000000e+00 0
0.0000000000000000e+00 0.0000000000000000e+00 0
0.0000000000000000e+00 0.0000000000000000e+00 0
0.0000000000000000e+00 0.0000000000000000e+00 0
0.0000000000000000e+00 0.0000000000000000e+00 0
0.0000000000000000e+00 0.0000000000000000e+00 0
0.0000000000000000e+00 0.0000000000000000e+00 0
0.0000000000000000e+00 0.0000000000000000e+00 0
0.0000000000000000e+00 0.0000000000000000e+00 0
0.0000000000000000e+00 0.0000000000000000e+00 0
0.0000000000000000e+00 0.0000000000000000e+00 0
0.0000000000000000e+00 0.0000000000000000e+00 0
0.0000000000000000e+00 0.0000000000000000e+00 0
0.0000000000000000e+00 0.0000000000000000e+00 0
0.0000000000000000e+00 0.0000000000000000e+00 0
0.0000000000000000e+00 0.0000000000000000e+00 0
0.0000000000000000e+00 0.0000000000000000e+00 0
0.0000000000000000e+00 0.0000000000000000e+00 0
0.0000000000000000e+00 0.0000000000000000e+00 0
0.0000000000000000e+00 0.0000000000000000e+00 0
0.0000000000000000e+00 0.0000000000000000e+00 0
0.0000000000000000e+00 0.0000000000000000e+00 0
0.0000000000000000e+00 0.0000000000000000e+00 0
0.0000000000000000e+00 0.0000000000000000e+00 0
0.0000000000000000e+00 0.0000000000000000e+00 0
0.0000000000000000e+00 0.0000000000000000e+00 0
0.0000000000000000e+00 0.0000000000000000e+00 0
0.0000000000000000e+00 0.0000000000000000e+00 0
0.0000000000000000e+00 0.0000000000000000e+00 0
0.0000000000000000e+00 0.0000000000000000e+00 0
0.0000000000000000e+00 0.0000000000000000e+00 0
0.0000000000000000e+00 0.0000000000000000e+00 0
0.0000000000000000e+00 0.0000000000000000e+00 0
0.0000000000000000e+00 0.0000000000000000e+00 0
0.0000000000000000e+00 0.0000000000000000e+00 0
0.0000000000000000e+00 0.0000000000000000e+00 0
0.0000000000000000e+00 0.0000000000000000e+00 0
0.0000000000000000e+00 0.0000000000000000e+00 0
0.0000000000000000e+00 0.0000000000000000e+00 0
0.0000000000000000e+00 0.0000000000000000e+00 0
0.0000000000000000e+00 0.0000000000000000e+00 0
0.0000000000000000e+00 0.0000000000000000e+00 0
0.0000000000000000e+00 0.0000000000000000e+00 0
0.0000000000000000e+00 0.0000000000000000e+00 0
0.0000000000000000e+00 0.0000000000000000e+00 0
0.0000000000000000e+00 0.0000000000000000e+00 0
0.0000000000000000e+00 0.0000000000000000e+00 0
0.0000000000000000e+00 0.0000000000000000e+00 0
0.0000000000000000e+00 0.0000000000000000e+00 0
0.0000000000000000e+00 0.0000000000000000e+00 0
0.0000000000000000e+00 0.0000000000000000e+00 0
0.0000000000000000e+00 0.0000000000000000e+00 0
0.0000000000000000e+00 0.0000000000000000e+00 0
0.0000000000000000e+00 0.0000000000000000e+00 0
0.0000000000000000e+00 0.0000000000000000e+00 0
0.0000000000000000e+00 0.0000000000000000e+00 0
0.0000000000000000e+00 0.0000000000000000e+00 0
0.0000000000000000e+00 0.0000000000000000e+00 0
0.0000000000000000e+00 0.0000000000000000e+00 0
0.0000000000000000e+00 0.0000000000000000e+00 0
0.0000000000000000e+00 0.0000000000000000e+00 0
0.0000000000000000e+00 0.0000000000000000e+00 0
0.0000000000000000e+00 0.0000000000000000e+00 0
0.0000000000000000e+00 0.0000000000000000e+00 0
0.0000000000000000e+00 0.0000000000000000e+00 0
0.0000000000000000e+00 0.0000000000000000e+00 0
0.0000000000000000e+00 0.0000000000000000e+00 0
0.0000000000000000e+00 0.0000000000000000e+00 0
0.0000000000000000e+00 0.0000000000000000e+00 0

VECTORS Displacement float
0.0000000000000000e+00 0.0000000000000000e+00 0
2.3697561160101717e-03 2.6386451251340093e-03 0
1.0211048765948268e-03 1.3978833124758513e-03 0
0.0000000000000000e+00 0.0000000000000000e+00 0
2.3174626508717321e-03 -2.6777344916900318e-03 0
1.0350213046867928e-03 -1.4357377678108751e-03 0
6.8576984613157024e-03 4.7973089148796314e-03 0
4.3794421943899459e-03 3.7719224853531054e-03 0
6.8018251698977877e-03 -4.8338930139957435e-03 0
4.2935428473918789e-03 -3.8122140374008311e-03 0
1.3260158200331110e-02 6.6758420469467577e-03 0
9.7999893818068937e-03 5.7591285902359049e-03 0
1.3170732373994971e-02 -6.7404884879384650e-03 0
9.7572622406530557e-03 -5.7951924626628848e-03 0
2.1722358802503089e-02 8.6097128764932793e-03 0
1.7235237457033002e-02 7.6115151077635508e-03 0
2.1604498338465401e-02 -8.7552158728279247e-03 0
1.7103870751601379e-02 -7.7356294832716900e-03 0
3.2560869619678329e-02 1.0621340050309401e-02 0
2.6824162790686362e-02 9.6482167630618509e-03 0
3.2509046670999388e-02 -1.0684933640197562e-02 0
2.6756066572035390e-02 -9.7587854423557760e-03 0
4.5514092022304838e-02 1.2341175406144118e-02 0
3.8788545215909999e-02 1.1499809915118866e-02 0
4.5401287581012806e-02 -1.2365930487907028e-02 0
3.8718903834541227e-02 -1.1529329441663322e-02 0
6.0307208152068428e-02 1.3887530436308469e-02 0
5.2700506478721071e-02 1.3131215609466245e-02 0
6.0152256586131256e-02 -1.4005012192358912e-02 0
5.2546568059575596e-02 -1.3192623752370739e-02 0
7.6752897551921079e-02 1.5283662428033404e-02 0
6.8372881623008919e-02 1.4591182595649132e-02 0
7.6606780438946948e-02 -1.5449710005960241e-02 0
6.8215821904728510e-02 -1.4752027785214700e-02 0
9.4682320902371830e-02 1.6845335452555774e-02 0
8.5482863114628604e-02 1.6045076779838782e-02 0
9.4534983583077103e-02 -1.6900716098405731e-02 0
8.5347802221499819e-02 -1.6167661520056491e-02 0
1.1435016341014281e-01 1.8374551633941756e-02 0
1.0431214198922163e-01 1.7633486086387689e-02 0
1.1421024062694624e-01 -1.8318931118681221e-02 0
1.0416797012229338e-01 -1.7620217431773343e-02 0
1.3565033108955499e-01 1.9650096855084117e-02 0
1.2480315206010675e-01 1.9047601332611921e-02 0
1.3548877851951563e-01 -1.9608645794913594e-02 0
1.2466036733614738e-01 -1.8988075087854505e-02 0
1.5815475633105219e-01 2.0698431741918853e-02 0
1.4678975139512179e-01 2.0174601644586697e-02 0
1.5801306666269072e-01 -2.0677409869430268e-02 0
1.4661923002348132e-01 -2.0158701088291115e-02 0
1.8180457786337473e-01 2.1881181469623749e-02 0
1.6980001556040464e-01 2.1277148557405673e-02 0
1.8169550267113060e-01 -2.1739396616635404e-02 0
1.6967946566768052e-01 -2.1214414578069298e-02 0
2.0689494824254884e-01 2.2856189403857537e-02 0
1.9421007955216768e-01 2.2430000246731252e-02 0
2.0673855638771005e-01 -2.2548586470210925e-02 0
1.9408202471009842e-01 -2.2185871229542534e-02 0
2.3260313660141585e-01 2.3347456255577159e-02 0
2.1970194195273135e-01 2.3147333179892579e-02 0
2.3248236205001446e-01 -2.2954324283695912e-02 0
2.1956958776880128e-01 -2.2795753368291559e-02 0
2.5854563834852190e-01 2.3618276669122022e-02 0
2.4556270776759800e-01 2.3488922754462828e-02 0
2.5839410528177120e-01 -2.3204634578123582e-02 0
2.4540181190118301e-01 -2.3078095628590169e-02 0
2.8474687345797423e-01 2.3896639360968051e-02 0
2.7159426029706135e-01 2.3766823438936997e-02 0
2.8465385553447320e-01 -2.3384379260761649e-02 0
2.7149077606040406e-01 -2.3316506175011381e-02 0
3.1107673701400312e-01 2.3953758966210888e-02 0
3.1105674704031039e-01 8.2130338105659475e-03 0
2.9792812203175167e-01 2.3946920986648933e-02 0
3.1106975639104772e-01 1.6075828671868835e-02 0
3.1106973645880331e-01 -7.5473533840320394e-03 0
3.1105900386258423e-01 3.4931414394035257e-04 0
3.1107380697167897e-01 -2.3416594059029537e-02 0
2.9785412259615207e-01 -2.3412979817175314e-02 0
3.1107420501291194e-01 -1.5476627653517601e-02 0

VECTORS Stress float
1.6971128057082726e+02 -7.4575821322072500e+00 0
1.7109330660468362e+02 -9.6434959350896179e+00 0
1.7089259994112419e+02 -7.4248727779267938e+00 0
-5.7445727880078437e+01 4.1103147500238322e+00 0
-6.0149957702109646e+01 3.5140638739414953e+00 0
-5.9560270083057475e+01 2.9373205229838959e+00 0
1.7069449418136361e+02 -1.6221182554462416e+01 0
1.7090645345640365e+02 -1.2966960003478107e+01 0
-5.9828196919869640e+01 6.1680395871701421e+00 0
-6.0020780817011541e+01 4.8898220486382797e+00 0
1.7018866447342828e+02 -2.1990024431199572e+01 0
1.7045239345322659e+02 -1.9136504097491866e+01 0
-5.9696058136525835e+01 8.2154576473778889e+00 0
-5.9719116328403288e+01 7.2040745603158030e+00 0
1.6865140666760703e+02 -2.8173100239400583e+01 0
1.6948478152035943e+02 -2.5050128985503306e+01 0
-5.9113579499216485e+01 1.0744519153458896e+01 0
-5.9380006040831290e+01 9.4603159484308890e+00 0
1.6592102815690453e+02 -3.4292881150269750e+01 0
1.6743260272619227e+02 -3.1268963745555084e+01 0
-5.8232999880726311e+01 1.2927775708246372e+01 0
-5.8705710831199212e+01 1.1887359883559157e+01 0
1.6225812021518277e+02 -3.9352600704733732e+01 0
1.6425575057442620e+02 -3.7066345845599926e+01 0
-5.7099325073494697e+01 1.4717614963942196e+01 0
-5.7769325855579950e+01 1.3901462799239880e+01 0
1.5788446941326094e+02 -4.3061271960080830e+01 0
1.6020907393830441e+02 -4.1415510255856361e+01 0
-5.5722887127885315e+01 1.6155492155238790e+01 0
-5.6496212321719781e+01 1.5546721990517881e+01 0
1.5281609449073107e+02 -4.5832752764819361e+01 0
1.5544575140791051e+02 -4.4515524430180903e+01 0
-5.4105531502396957e+01 1.7268273984084317e+01 0
-5.4947609928789689e+01 1.6726080763431810e+01 0
1.4691720934586795e+02 -4.8198527104075538e+01 0
1.4991899111290650e+02 -4.7014675488330568e+01 0
-5.2174619017175928e+01 1.8266651682928341e+01 0
-5.3126291043352467e+01 1.7747399010678464e+01 0
1.4018985478081083e+02 -5.0220015732498950e+01 0
1.4358708527144859e+02 -4.9231739806050200e+01 0
-4.9899104483345582e+01 1.8997677261937724e+01 0
-5.1035064225172846e+01 1.8621731349883703e+01 0
1.3322568662709074e+02 -5.1195040318414044e+01 0
1.3672510638879822e+02 -5.0855909796226115e+01 0
-4.7383369290369956e+01 1.9191149232972407e+01 0
-4.8676416040096058e+01 1.9157960797503051e+01 0
1.2614341226139953e+02 -5.1086632338362506e+01 0
1.2972367350231099e+02 -5.1330542115471189e+01 0
-4.4617101966771031e+01 1.9057307242024081e+01 0
-4.6055665358427973e+01 1.9213945972413512e+01 0
1.1838524973015461e+02 -5.0506920479492237e+01 0
1.2243955843468933e+02 -5.0825998055723403e+01 0
-4.1665130876836230e+01 1.8720192663465241e+01 0
-4.3176639513534838e+01 1.8961892579639198e+01 0
1.0998076831639852e+02 -4.9484562966103965e+01 0
1.1413702775894092e+02 -5.0154080896423807e+01 0
-3.8528373237926559e+01 1.8048226763611808e+01 0
-4.0113278149551292e+01 1.8468909966238925e+01 0
1.0149502168448171e+02 -4.6592300261466505e+01 0
1.0591324416683142e+02 -4.8291751059127364e+01 0
-3.5216392207031674e+01 1.6693694876098704e+01 0
-3.6895983281174807e+01 1.7373463693199199e+01 0
9.1334927691533537e+01 -4.1612201576421597e+01 0
9.6379052570263383e+01 -4.3803774846869771e+01 0
-3.1854942806010850e+01 1.5023719742644104e+01 0
-3.3497114943327418e+01 1.5709070473831503e+01 0
8.5055687103930723e+01 -4.4844447492187555e+01 0
8.8902975545014499e+01 -4.3732030921728011e+01 0
-3.0028526889765018e+01 1.6748531184311354e+01 0
-3.0810711786995949e+01 1.5801995432824327e+01 0
3.2709784212839480e+01 1.4589719673289636e+01 0
3.6098040584570583e+00 1.5965205566621734e+01 0
6.7184992449217859e+01 -2.7192846261126562e+01 0
1.1313910720099670e+01 2.3736114848477996e+01 0
-3.5750883770245601e-02 -6.5719523262325907e+00 0
1.4077382896261526e+00 3.1707215584496566e+00 0
-2.1288347270245531e+01 -3.7433414567609091e+00 0
-2.6497997358499944e+01 1.0748732564130815e+01 0
-5.3242011115516732e+00 -1.0837891321970872e+01 0

