# vtk DataFile Version 2.0

ASCII

DATASET UNSTRUCTURED_GRID

POINTS 79 float 

-5.0000000000000003e-02  0.0000000000000000e+00  0.0000000000000000e+00
-5.0000000000000003e-02  5.5555555555555552e-02  0.0000000000000000e+00
-5.0000000000000003e-02  2.7777777777777776e-02  0.0000000000000000e+00
5.0000000000000003e-02  0.0000000000000000e+00  0.0000000000000000e+00
5.0000000000000003e-02  5.5555555555555552e-02  0.0000000000000000e+00
5.0000000000000003e-02  2.7777777777777776e-02  0.0000000000000000e+00
-5.0000000000000003e-02  1.1111111111111110e-01  0.0000000000000000e+00
-5.0000000000000003e-02  8.3333333333333329e-02  0.0000000000000000e+00
5.0000000000000003e-02  1.1111111111111110e-01  0.0000000000000000e+00
5.0000000000000003e-02  8.3333333333333329e-02  0.0000000000000000e+00
-5.0000000000000003e-02  1.6666666666666666e-01  0.0000000000000000e+00
-5.0000000000000003e-02  1.3888888888888890e-01  0.0000000000000000e+00
5.0000000000000003e-02  1.6666666666666666e-01  0.0000000000000000e+00
5.0000000000000003e-02  1.3888888888888890e-01  0.0000000000000000e+00
-5.0000000000000003e-02  2.2222222222222221e-01  0.0000000000000000e+00
-5.0000000000000003e-02  1.9444444444444442e-01  0.0000000000000000e+00
5.0000000000000003e-02  2.2222222222222221e-01  0.0000000000000000e+00
5.0000000000000003e-02  1.9444444444444442e-01  0.0000000000000000e+00
-5.0000000000000003e-02  2.7777777777777779e-01  0.0000000000000000e+00
-5.0000000000000003e-02  2.5000000000000000e-01  0.0000000000000000e+00
5.0000000000000003e-02  2.7777777777777779e-01  0.0000000000000000e+00
5.0000000000000003e-02  2.5000000000000000e-01  0.0000000000000000e+00
-5.0000000000000003e-02  3.3333333333333331e-01  0.0000000000000000e+00
-5.0000000000000003e-02  3.0555555555555558e-01  0.0000000000000000e+00
5.0000000000000003e-02  3.3333333333333331e-01  0.0000000000000000e+00
5.0000000000000003e-02  3.0555555555555558e-01  0.0000000000000000e+00
-5.0000000000000003e-02  3.8888888888888884e-01  0.0000000000000000e+00
-5.0000000000000003e-02  3.6111111111111105e-01  0.0000000000000000e+00
5.0000000000000003e-02  3.8888888888888884e-01  0.0000000000000000e+00
5.0000000000000003e-02  3.6111111111111105e-01  0.0000000000000000e+00
-5.0000000000000003e-02  4.4444444444444442e-01  0.0000000000000000e+00
-5.0000000000000003e-02  4.1666666666666663e-01  0.0000000000000000e+00
5.0000000000000003e-02  4.4444444444444442e-01  0.0000000000000000e+00
5.0000000000000003e-02  4.1666666666666663e-01  0.0000000000000000e+00
-5.0000000000000003e-02  5.0000000000000000e-01  0.0000000000000000e+00
-5.0000000000000003e-02  4.7222222222222221e-01  0.0000000000000000e+00
5.0000000000000003e-02  5.0000000000000000e-01  0.0000000000000000e+00
5.0000000000000003e-02  4.7222222222222221e-01  0.0000000000000000e+00
-5.0000000000000003e-02  5.5555555555555558e-01  0.0000000000000000e+00
-5.0000000000000003e-02  5.2777777777777779e-01  0.0000000000000000e+00
5.0000000000000003e-02  5.5555555555555558e-01  0.0000000000000000e+00
5.0000000000000003e-02  5.2777777777777779e-01  0.0000000000000000e+00
-5.0000000000000003e-02  6.1111111111111105e-01  0.0000000000000000e+00
-5.0000000000000003e-02  5.8333333333333326e-01  0.0000000000000000e+00
5.0000000000000003e-02  6.1111111111111105e-01  0.0000000000000000e+00
5.0000000000000003e-02  5.8333333333333326e-01  0.0000000000000000e+00
-5.0000000000000003e-02  6.6666666666666663e-01  0.0000000000000000e+00
-5.0000000000000003e-02  6.3888888888888884e-01  0.0000000000000000e+00
5.0000000000000003e-02  6.6666666666666663e-01  0.0000000000000000e+00
5.0000000000000003e-02  6.3888888888888884e-01  0.0000000000000000e+00
-5.0000000000000003e-02  7.2222222222222221e-01  0.0000000000000000e+00
-5.0000000000000003e-02  6.9444444444444442e-01  0.0000000000000000e+00
5.0000000000000003e-02  7.2222222222222221e-01  0.0000000000000000e+00
5.0000000000000003e-02  6.9444444444444442e-01  0.0000000000000000e+00
-5.0000000000000003e-02  7.7777777777777768e-01  0.0000000000000000e+00
-5.0000000000000003e-02  7.5000000000000000e-01  0.0000000000000000e+00
5.0000000000000003e-02  7.7777777777777768e-01  0.0000000000000000e+00
5.0000000000000003e-02  7.5000000000000000e-01  0.0000000000000000e+00
-5.0000000000000003e-02  8.3333333333333326e-01  0.0000000000000000e+00
-5.0000000000000003e-02  8.0555555555555547e-01  0.0000000000000000e+00
5.0000000000000003e-02  8.3333333333333326e-01  0.0000000000000000e+00
5.0000000000000003e-02  8.0555555555555547e-01  0.0000000000000000e+00
-5.0000000000000003e-02  8.8888888888888884e-01  0.0000000000000000e+00
-5.0000000000000003e-02  8.6111111111111105e-01  0.0000000000000000e+00
5.0000000000000003e-02  8.8888888888888884e-01  0.0000000000000000e+00
5.0000000000000003e-02  8.6111111111111105e-01  0.0000000000000000e+00
-5.0000000000000003e-02  9.4444444444444442e-01  0.0000000000000000e+00
-5.0000000000000003e-02  9.1666666666666663e-01  0.0000000000000000e+00
5.0000000000000003e-02  9.4444444444444442e-01  0.0000000000000000e+00
5.0000000000000003e-02  9.1666666666666663e-01  0.0000000000000000e+00
-5.0000000000000003e-02  1.0000000000000000e+00  0.0000000000000000e+00
-1.6666666666666670e-02  1.0000000000000000e+00  0.0000000000000000e+00
-5.0000000000000003e-02  9.7222222222222221e-01  0.0000000000000000e+00
-3.3333333333333340e-02  1.0000000000000000e+00  0.0000000000000000e+00
1.6666666666666663e-02  1.0000000000000000e+00  0.0000000000000000e+00
-3.4694469519536142e-18  1.0000000000000000e+00  0.0000000000000000e+00
5.0000000000000003e-02  1.0000000000000000e+00  0.0000000000000000e+00
5.0000000000000003e-02  9.7222222222222221e-01  0.0000000000000000e+00
3.3333333333333333e-02  1.0000000000000000e+00  0.0000000000000000e+00

CELLS 0 0


CELL_TYPES 0


POINT_DATA 79

VECTORS VertexNormals float

0.0000000000000000e+00 0.0000000000000000e+00 0
0.0000000000000000e+00 0.0000000000000000e+00 0
0.0000000000000000e+00 0.0000000000000000e+00 0
0.0000000000000000e+00 0.0000000000000000e+00 0
0.0000000000000000e+00 0.0000000000000000e+00 0
0.0000000000000000e+00 0.0000000000000000e+00 0
0.0000000000000000e+00 0.0000000000000000e+00 0
0.0000000000000000e+00 0.0000000000000000e+00 0
0.0000000000000000e+00 0.0000000000000000e+00 0
0.0000000000000000e+00 0.0000000000000000e+00 0
0.0000000000000000e+00 0.0000000000000000e+00 0
0.0000000000000000e+00 0.0000000000000000e+00 0
0.0000000000000000e+00 0.0000000000000000e+00 0
0.0000000000000000e+00 0.0000000000000000e+00 0
0.0000000000000000e+00 0.0000000000000000e+00 0
0.0000000000000000e+00 0.0000000000000000e+00 0
0.0000000000000000e+00 0.0000000000000000e+00 0
0.0000000000000000e+00 0.0000000000000000e+00 0
0.0000000000000000e+00 0.0000000000000000e+00 0
0.0000000000000000e+00 0.0000000000000000e+00 0
0.0000000000000000e+00 0.0000000000000000e+00 0
0.0000000000000000e+00 0.0000000000000000e+00 0
0.0000000000000000e+00 0.0000000000000000e+00 0
0.0000000000000000e+00 0.0000000000000000e+00 0
0.0000000000000000e+00 0.0000000000000000e+00 0
0.0000000000000000e+00 0.0000000000000000e+00 0
0.0000000000000000e+00 0.0000000000000000e+00 0
0.0000000000000000e+00 0.0000000000000000e+00 0
0.0000000000000000e+00 0.0000000000000000e+00 0
0.0000000000000000e+00 0.0000000000000000e+00 0
0.0000000000000000e+00 0.0000000000000000e+00 0
0.0000000000000000e+00 0.0000000000000000e+00 0
0.0000000000000000e+00 0.0000000000000000e+00 0
0.0000000000000000e+00 0.0000000000000000e+00 0
0.0000000000000000e+00 0.0000000000000000e+00 0
0.0000000000000000e+00 0.0000000000000000e+00 0
0.0000000000000000e+00 0.0000000000000000e+00 0
0.0000000000000000e+00 0.0000000000000000e+00 0
0.0000000000000000e+00 0.0000000000000000e+00 0
0.0000000000000000e+00 0.0000000000000000e+00 0
0.0000000000000000e+00 0.0000000000000000e+00 0
0.0000000000000000e+00 0.0000000000000000e+00 0
0.0000000000000000e+00 0.0000000000000000e+00 0
0.0000000000000000e+00 0.0000000000000000e+00 0
0.0000000000000000e+00 0.0000000000000000e+00 0
0.0000000000000000e+00 0.0000000000000000e+00 0
0.0000000000000000e+00 0.0000000000000000e+00 0
0.0000000000000000e+00 0.0000000000000000e+00 0
0.0000000000000000e+00 0.0000000000000000e+00 0
0.0000000000000000e+00 0.0000000000000000e+00 0
0.0000000000000000e+00 0.0000000000000000e+00 0
0.0000000000000000e+00 0.0000000000000000e+00 0
0.0000000000000000e+00 0.0000000000000000e+00 0
0.0000000000000000e+00 0.0000000000000000e+00 0
0.0000000000000000e+00 0.0000000000000000e+00 0
0.0000000000000000e+00 0.0000000000000000e+00 0
0.0000000000000000e+00 0.0000000000000000e+00 0
0.0000000000000000e+00 0.0000000000000000e+00 0
0.0000000000000000e+00 0.0000000000000000e+00 0
0.0000000000000000e+00 0.0000000000000000e+00 0
0.0000000000000000e+00 0.0000000000000000e+00 0
0.0000000000000000e+00 0.0000000000000000e+00 0
0.0000000000000000e+00 0.0000000000000000e+00 0
0.0000000000000000e+00 0.0000000000000000e+00 0
0.0000000000000000e+00 0.0000000000000000e+00 0
0.0000000000000000e+00 0.0000000000000000e+00 0
0.0000000000000000e+00 0.0000000000000000e+00 0
0.0000000000000000e+00 0.0000000000000000e+00 0
0.0000000000000000e+00 0.0000000000000000e+00 0
0.0000000000000000e+00 0.0000000000000000e+00 0
0.0000000000000000e+00 0.0000000000000000e+00 0
0.0000000000000000e+00 0.0000000000000000e+00 0
0.0000000000000000e+00 0.0000000000000000e+00 0
0.0000000000000000e+00 0.0000000000000000e+00 0
0.0000000000000000e+00 0.0000000000000000e+00 0
0.0000000000000000e+00 0.0000000000000000e+00 0
0.0000000000000000e+00 0.0000000000000000e+00 0
0.0000000000000000e+00 0.0000000000000000e+00 0
0.0000000000000000e+00 0.0000000000000000e+00 0

VECTORS Displacement float
0.0000000000000000e+00 0.0000000000000000e+00 0
4.0868497528124555e-04 4.8128516776001485e-05 0
3.1599896510232152e-04 7.7120762691675366e-05 0
0.0000000000000000e+00 0.0000000000000000e+00 0
3.1733597148256835e-04 -5.1332610534375540e-05 0
2.3350489121318717e-04 -7.0219260103614875e-05 0
4.7175653886815522e-04 1.7155670717371739e-05 0
4.5608999433783447e-04 3.1293494355208069e-05 0
3.7911740075281737e-04 -1.9369644683691431e-05 0
3.6233484567593864e-04 -3.4556161268166402e-05 0
4.7926912776432185e-04 3.3007188697461667e-06 0
4.7851136958284467e-04 8.4289454054488167e-06 0
3.8721029561949229e-04 -4.0504223263172106e-06 0
3.8612138908727624e-04 -9.7881110500593342e-06 0
4.7597498666691310e-04 -7.1815294044494199e-07 0
4.7809341517116347e-04 6.5012828454617217e-07 0
3.8448184456975381e-04 6.1352921436591519e-07 0
3.8631100958627028e-04 -1.0254795657266768e-06 0
4.7050142858608336e-04 -1.8187633177141569e-06 0
4.7338527029094061e-04 -1.4248111552639260e-06 0
3.7964394965167369e-04 2.0414264033172001e-06 0
3.8219581479710554e-04 1.5078753038093871e-06 0
4.6384947480085966e-04 -2.3054772796374300e-06 0
4.6732854434748216e-04 -2.0883838649462431e-06 0
3.7375319862232572e-04 2.7242340157680123e-06 0
3.7681480790248585e-04 2.4165198397778280e-06 0
4.5592098746976818e-04 -2.7189402954338305e-06 0
4.6006309283240710e-04 -2.5119086430213928e-06 0
3.6676538401594970e-04 3.2986970174318546e-06 0
3.7039442779690279e-04 3.0127545594052148e-06 0
4.4656078768236593e-04 -3.1472663361624925e-06 0
4.5142824549381075e-04 -2.9306325250604249e-06 0
3.5856100868589800e-04 3.8972154832453610e-06 0
3.6281990059852513e-04 3.5937118820055478e-06 0
4.3563805945105906e-04 -3.5916493055012242e-06 0
4.4129516623859030e-04 -3.3688194622652534e-06 0
3.4905991728378596e-04 4.5488179003572299e-06 0
3.5398493997355375e-04 4.2168236002775880e-06 0
4.2299970449883462e-04 -4.0431458451925938e-06 0
4.2953321600012822e-04 -3.8195534511020053e-06 0
3.3821644645545492e-04 5.2771066095473633e-06 0
3.4382177847105304e-04 4.9025070543748219e-06 0
4.0848003656021570e-04 -4.4831788043021708e-06 0
4.1598778755069169e-04 -4.2685865066767328e-06 0
3.2596049413958437e-04 6.1153949196849022e-06 0
3.3227179594276138e-04 5.6793670629885751e-06 0
3.9185016326206891e-04 -4.8630042573120414e-06 0
4.0045905014104662e-04 -4.6879875077314404e-06 0
3.1219070414847759e-04 7.1163034641194450e-06 0
3.1925981496591172e-04 6.5902083657494876e-06 0
3.7279109861833851e-04 -5.0199282252118991e-06 0
3.8265274643681935e-04 -4.9858387116969651e-06 0
2.9666730137909542e-04 8.3153016243299953e-06 0
3.0463654388733155e-04 7.6951639260294058e-06 0
3.5150685067021056e-04 -4.7052858847559173e-06 0
3.6239111212077804e-04 -4.9134943216598282e-06 0
2.8041658390339994e-04 9.5344381163277614e-06 0
2.8844750346820034e-04 8.9070309767230427e-06 0
3.2707697356632265e-04 -4.5388635608535727e-06 0
3.3991719100014058e-04 -4.5526216683202399e-06 0
2.6514337731789169e-04 1.1303014825997943e-05 0
2.7269840055060466e-04 1.0296875865521130e-05 0
2.9915775473963042e-04 -4.1174032038892114e-06 0
3.1261943370895746e-04 -4.4106214012497517e-06 0
2.5322715782865452e-04 1.3774213672585849e-05 0
2.5816346686926477e-04 1.2439112127028515e-05 0
2.6730981615906950e-04 -1.0218588686854161e-05 0
2.8835985717151234e-04 -5.6848895035439605e-06 0
2.3806560802633201e-04 2.5080719923151438e-05 0
2.5084225214030422e-04 1.7448291998490260e-05 0
1.5066711145730161e-04 -1.8759939200612848e-05 0
1.4131178947328189e-04 1.7225815137348772e-05 0
2.1471574435473256e-04 -1.5044229983723460e-05 0
1.4471600499818104e-04 1.0581913581057863e-05 0
1.3644253740480460e-04 1.4200009977449888e-05 0
1.3893236679572054e-04 1.6425181710964614e-05 0
1.3119132916951054e-04 4.7671673215272826e-05 0
1.9377772467312024e-04 3.5909232749622524e-05 0
1.3283294500663720e-04 1.8135402856314915e-05 0

VECTORS Stress float
2.4346511813236611e+02 -8.5600996105595186e+00 0
2.4363841280734050e+02 1.7008619377520517e-02 0
2.4384970912013159e+02 -2.4281724980146464e+00 0
1.4910732022896627e+02 -7.2825330770044729e+00 0
1.3917182179388874e+02 6.5542899105457764e-01 0
1.4105052545474246e+02 -1.4149417802505013e+00 0
2.4376639147854075e+02 -1.8585376544979226e-01 0
2.4365919797737843e+02 1.3468730887325364e-01 0
1.4239045997015455e+02 -2.1018900875424151e-01 0
1.4056408917659064e+02 3.6257654060136701e-01 0
2.4351505490380077e+02 4.4062067920094705e-02 0
2.4352704465104398e+02 -8.9085517531202640e-02 0
1.4509207697817692e+02 -2.6955639021252864e-02 0
1.4380510152729767e+02 -1.5185734196347767e-01 0
2.4295617616977688e+02 8.6656883504474536e-02 0
2.4310313505498198e+02 8.4916435313061811e-02 0
1.4948052660103713e+02 -1.1004179958035820e-02 0
1.4722617271509444e+02 1.0137113078599214e-02 0
2.4219004934187979e+02 9.6189468551528989e-02 0
2.4259637582682262e+02 8.5026230035509798e-02 0
1.5545265684607875e+02 -2.4850881798556657e-02 0
1.5227694665922172e+02 -2.5743392632648465e-02 0
2.4123612070524905e+02 1.1548621356814692e-01 0
2.4189939814448735e+02 1.1202626652993786e-01 0
1.6312697568819203e+02 -2.7085675117632491e-02 0
1.5889172065367165e+02 -2.6488655101275072e-02 0
2.4006716844672337e+02 1.3639237559073081e-01 0
2.4085475925681385e+02 1.3519140242533467e-01 0
1.7279349751046539e+02 -2.9316309586647549e-02 0
1.6750761256203623e+02 -2.6316833125747507e-02 0
2.3859501986608302e+02 1.6552435347330174e-01 0
2.3938259706214740e+02 1.5212627195978712e-01 0
1.8484755792142460e+02 -2.2559678645848180e-02 0
1.7848078824469849e+02 -2.5256046326830983e-02 0
2.3663616237210954e+02 2.0019234260507801e-01 0
2.3751223903506616e+02 1.6846825586071645e-01 0
1.9991327204506160e+02 -5.4540117289434420e-03 0
1.9215166717495958e+02 -2.1634766841089004e-02 0
2.3383140194469888e+02 2.1938461318859481e-01 0
2.3514883771682435e+02 1.8784389957545500e-01 0
2.1893192540777090e+02 1.0879634941375116e-02 0
2.0913256836754954e+02 -1.2018360714137089e-02 0
2.3006065859727460e+02 2.3672606386026018e-01 0
2.3208387225706247e+02 2.2288423693862569e-01 0
2.4233581018046971e+02 3.7588091916404665e-02 0
2.3007182148952052e+02 1.8131368420654326e-02 0
2.2487252120612357e+02 2.0149939316252130e-01 0
2.2788075809702423e+02 2.6354712000647851e-01 0
2.7045990626650018e+02 2.4876896355635836e-02 0
2.5552148622614186e+02 6.3771465280296979e-02 0
2.1744115473497186e+02 4.1900143019120151e-01 0
2.2176609149506658e+02 2.9105531337154389e-01 0
3.0532062193685852e+02 2.8681440496529831e-01 0
2.8650688817561604e+02 1.2098876512027346e-01 0
2.0731837745551820e+02 -1.9424380083182768e-01 0
2.1272760001809365e+02 5.4424513922185724e-01 0
3.5412976688428535e+02 -3.4461852523872949e-01 0
3.2692701838745961e+02 4.3167742377318064e-01 0
1.9170807527312081e+02 4.3687728278655413e-01 0
2.0044990698736365e+02 -1.3644459602010102e+00 0
4.2374563205698814e+02 2.7140799602466359e-01 0
3.8784001844568866e+02 -1.5836157082958380e+00 0
1.6383396307227395e+02 8.7752406306881312e+00 0
1.7835348923962283e+02 8.3764060094185879e+00 0
5.1111101669491563e+02 9.0484137288431157e+00 0
4.6124717085398515e+02 8.6781225813929268e+00 0
1.3382198042624668e+02 -6.4604711179345031e+01 0
1.5606010280077544e+02 -3.2755516659034129e+01 0
6.9794523383423166e+02 -6.9623900337149962e+01 0
6.1255536016185852e+02 -3.5319458114154031e+01 0
-3.3046665771459629e+01 3.5900895336645272e+02 0
7.0523784425304257e+00 4.6264562259268246e+02 0
7.2424067161964558e+01 4.7727750969494082e+01 0
4.2726072534605919e-02 4.2823266176744755e+02 0
-1.7079383840130049e+01 4.8047403259560053e+02 0
4.9018227441456474e-01 4.7899297711848476e+02 0
1.2744774558131905e+02 3.8995002004220339e+02 0
5.6387491940900645e+02 5.2662515343537962e+01 0
-1.1010726515064562e-01 4.5909922864577402e+02 0

