/*--------------------------------*- C++ -*----------------------------------*\
| =========                 |                                                 |
| \\      /  F ield         | OpenFOAM: The Open Source CFD Toolbox           |
|  \\    /   O peration     | Version:  4.1                                   |
|   \\  /    A nd           | Web:      www.OpenFOAM.org                      |
|    \\/     M anipulation  |                                                 |
\*---------------------------------------------------------------------------*/
FoamFile
{
    version     2.0;
    format      ascii;
    class       volVectorField;
    location    "4.9";
    object      Force;
}
// * * * * * * * * * * * * * * * * * * * * * * * * * * * * * * * * * * * * * //

dimensions      [1 1 -2 0 0 0 0];

internalField   uniform (0 0 0);

boundaryField
{
    inlet
    {
        type            calculated;
        value           uniform (0 0 0);
    }
    outlet
    {
        type            calculated;
        value           uniform (0 0 0);
    }
    flap
    {
        type            calculated;
        value           nonuniform List<vector> 
33
(
(3.0538 7.16317e-39 -0.156983)
(3.02655 2.82119e-37 -0.389298)
(2.96245 5.76258e-18 -0.614463)
(2.85544 -7.67406e-18 -0.791459)
(2.71572 7.46647e-18 -0.919899)
(2.5537 -7.52316e-37 -1.00843)
(2.3752 -6.80845e-18 -1.06601)
(2.18641 -1.76883e-18 -1.09496)
(1.99568 1.12349e-23 -1.09473)
(1.81213 -1.70931e-18 -1.0656)
(1.64192 -1.67319e-18 -1.01116)
(1.47976 3.21181e-18 -0.934899)
(1.31111 1.53125e-18 -0.836858)
(1.11375 -5.11092e-21 -0.710764)
(0.852757 -4.22351e-18 -0.543737)
(0.334937 -1.62955e-18 0.518836)
(0.183369 9.07806e-19 0.284736)
(0.0491661 -2.10992e-21 0.0792539)
(-0.06274 1.65721e-23 0.00334677)
(-0.0620519 1.35576e-18 0.00790823)
(-0.0606811 0 0.0125009)
(-0.0587414 1.23279e-18 0.0161138)
(-0.0565953 -4.28533e-18 0.0189396)
(-0.0545009 1.03922e-22 0.0212301)
(-0.0524137 -1.46041e-18 0.0231687)
(-0.0501414 -1.47939e-18 0.0247126)
(-0.0477652 -1.65486e-18 0.0257597)
(-0.0458566 -2.35099e-38 0.0264778)
(-0.0453525 1.45743e-19 0.0274275)
(-0.0471322 0 0.0293094)
(-0.051132 -2.01062e-18 0.0322716)
(-0.0548498 -3.706e-18 0.0348338)
(-0.0538028 -1.53162e-22 0.0340569)
)
;
    }
    upperWall
    {
        type            calculated;
        value           uniform (0 0 0);
    }
    lowerWall
    {
        type            calculated;
        value           uniform (0 0 0);
    }
    frontAndBack
    {
        type            empty;
    }
}


// ************************************************************************* //
