/*--------------------------------*- C++ -*----------------------------------*\
| =========                 |                                                 |
| \\      /  F ield         | OpenFOAM: The Open Source CFD Toolbox           |
|  \\    /   O peration     | Version:  5.x                                   |
|   \\  /    A nd           | Web:      www.OpenFOAM.org                      |
|    \\/     M anipulation  |                                                 |
\*---------------------------------------------------------------------------*/
FoamFile
{
    version     2.0;
    format      ascii;
    class       surfaceScalarField;
    location    "4.9";
    object      phi;
}
// * * * * * * * * * * * * * * * * * * * * * * * * * * * * * * * * * * * * * //

dimensions      [0 3 -1 0 0 0 0];

internalField   nonuniform List<scalar> 
5457
(
0.19766
0.00212189
0.195223
0.00225611
0.192675
0.00240875
0.189948
0.00262321
0.187031
0.00284316
0.183918
0.00306346
0.1806
0.00328927
0.177062
0.00352664
0.173284
0.00378115
0.169246
0.00405402
0.164926
0.00434745
0.160298
0.00466414
0.155336
0.0050058
0.150009
0.00537549
0.144285
0.00577703
0.138128
0.00621294
0.131497
0.00668653
0.124356
0.00720001
0.116663
0.00775386
0.108377
0.00834758
0.0994557
0.00897933
0.0898654
0.00964531
0.0795781
0.0103383
0.0685771
0.011047
0.0568635
0.0117535
0.0444661
0.01243
0.0314604
0.013029
0.0180242
0.0134439
0.00477942
0.0132185
0.00480729
0.199423
0.00248
0.198305
0.00319298
0.196936
0.00363834
0.195339
0.00411622
0.193503
0.00460555
0.191422
0.00509586
0.189086
0.00559667
0.186481
0.0061198
0.183592
0.00667349
0.180401
0.00726134
0.176887
0.00788845
0.173026
0.0085611
0.168794
0.00928182
0.164161
0.0100575
0.159094
0.0108976
0.153556
0.0118066
0.147505
0.0127921
0.140904
0.0138595
0.133706
0.0150137
0.125859
0.016256
0.117312
0.0175844
0.108016
0.018996
0.0979222
0.0204821
0.0869854
0.022028
0.0751679
0.0236077
0.0624525
0.0251723
0.0488651
0.0266315
0.0345188
0.027788
0.01942
0.0282791
0.0241978
0.199279
0.0029813
0.198232
0.00405743
0.196934
0.0047966
0.195431
0.00551607
0.193719
0.0062438
0.191792
0.00697378
0.189638
0.0077219
0.187243
0.00850332
0.184594
0.00932485
0.181677
0.0101941
0.178473
0.0111189
0.174963
0.012108
0.171121
0.0131677
0.166919
0.0143087
0.162326
0.0155439
0.157308
0.0168816
0.151819
0.0183333
0.14582
0.0199107
0.139269
0.0216265
0.132098
0.0234892
0.124237
0.0255022
0.115617
0.0276702
0.106154
0.0299933
0.0957493
0.0324748
0.0842806
0.0351088
0.0716019
0.0378702
0.0575197
0.0407158
0.0416655
0.043624
0.022838
0.0470494
0.0469934
0.199188
0.00357111
0.198142
0.00492042
0.196858
0.0059405
0.195368
0.00690141
0.19368
0.0078589
0.191783
0.00882097
0.189668
0.00980807
0.187323
0.0108356
0.184738
0.0119118
0.1819
0.0130469
0.178794
0.014251
0.175405
0.0155331
0.171709
0.0169076
0.167679
0.0183882
0.163291
0.0199863
0.158515
0.021717
0.153308
0.0235951
0.147626
0.0256399
0.141432
0.0278749
0.134662
0.0303201
0.12723
0.0329907
0.119043
0.0359095
0.109988
0.0390943
0.0999254
0.0425765
0.0886532
0.0464095
0.0758737
0.0506621
0.061165
0.0554138
0.0439837
0.0607695
0.0236017
0.0673561
0.0705715
0.199141
0.00420628
0.198081
0.00579475
0.196806
0.00707417
0.195332
0.00827093
0.193665
0.0094525
0.191793
0.0106436
0.189705
0.0118649
0.187395
0.0131319
0.184851
0.0144567
0.182061
0.0158511
0.17901
0.0173271
0.175682
0.0188958
0.172058
0.0205757
0.168113
0.0223831
0.163822
0.0243311
0.159159
0.0264398
0.154086
0.028729
0.148553
0.0312248
0.142519
0.0339599
0.135928
0.036969
0.128687
0.0402857
0.120682
0.0439635
0.111763
0.0480551
0.101759
0.0526148
0.0904347
0.0577575
0.0774292
0.0636744
0.0621972
0.0706261
0.0440725
0.0788426
0.0231903
0.0881514
0.0937852
0.199115
0.0048641
0.198044
0.00667874
0.196778
0.00819643
0.195325
0.00961945
0.193684
0.0110205
0.191841
0.0124364
0.189788
0.0138865
0.187516
0.0153885
0.185014
0.0169573
0.18227
0.0186067
0.17927
0.0203506
0.175998
0.0222033
0.172433
0.0241844
0.168551
0.0263136
0.164327
0.0286085
0.159731
0.0310925
0.15473
0.0337909
0.14927
0.0367424
0.1433
0.0399835
0.136763
0.0435619
0.129561
0.0475403
0.121575
0.0519954
0.112641
0.057027
0.102528
0.0627556
0.0909546
0.0693451
0.0776084
0.0770191
0.0619756
0.0862311
0.0432366
0.0975165
0.0222693
0.109019
0.116116
0.199103
0.00553095
0.198027
0.0075641
0.196775
0.00930332
0.195344
0.010945
0.193731
0.012561
0.191922
0.0141947
0.189909
0.0158674
0.187681
0.0175996
0.185227
0.0194078
0.182536
0.0213075
0.179591
0.0233154
0.176382
0.0254472
0.172884
0.027727
0.169066
0.0301786
0.164905
0.0328213
0.160368
0.0356838
0.155418
0.0387985
0.150004
0.0422131
0.144068
0.0459754
0.137538
0.0501472
0.130301
0.0548285
0.122231
0.0601084
0.113173
0.0661171
0.102886
0.0730646
0.0910283
0.0812068
0.0772554
0.0907767
0.0612579
0.102189
0.0421767
0.116515
0.02129
0.129774
0.13747
0.199098
0.00619896
0.198023
0.00844406
0.196788
0.0103908
0.195386
0.0122423
0.193807
0.0140675
0.192039
0.0159115
0.190072
0.0178005
0.187895
0.0197572
0.185498
0.0217995
0.182868
0.0239447
0.179988
0.0262109
0.176848
0.0286185
0.173422
0.0311951
0.169677
0.0339676
0.165587
0.0369598
0.161118
0.0402054
0.156224
0.0437475
0.150855
0.0476368
0.144948
0.0519378
0.138414
0.0567358
0.131143
0.0621498
0.122988
0.0683036
0.113751
0.0753808
0.103218
0.0836113
0.0910926
0.0933258
0.0769231
0.104912
0.0605587
0.118493
0.0411949
0.135765
0.020359
0.150408
0.15786
0.199097
0.00686353
0.198029
0.00931297
0.196814
0.0114545
0.195445
0.0135065
0.193906
0.0155343
0.192186
0.0175812
0.190272
0.019679
0.188153
0.0218537
0.185821
0.0241238
0.183261
0.0265085
0.18046
0.0290275
0.177397
0.0317083
0.174048
0.0345765
0.170392
0.0376649
0.16639
0.0410082
0.162005
0.0446396
0.157189
0.0486151
0.151885
0.0529935
0.146024
0.0578518
0.139502
0.0633112
0.132209
0.0694918
0.124
0.0765531
0.114651
0.0847528
0.103899
0.0943662
0.0914984
0.105707
0.0770363
0.119321
0.0602896
0.135146
0.0405317
0.155359
0.0196352
0.17101
0.177484
0.199102
0.00751881
0.198045
0.0101644
0.196852
0.0124921
0.195517
0.0147358
0.194026
0.0169566
0.19236
0.0191977
0.190505
0.0214969
0.18845
0.0238822
0.186192
0.0263718
0.183714
0.0289889
0.181004
0.0317568
0.178034
0.0347046
0.17478
0.0378591
0.171222
0.04126
0.167325
0.0449485
0.163049
0.0489625
0.158336
0.0533769
0.153125
0.0582539
0.147345
0.0636821
0.140896
0.0698099
0.133645
0.0767902
0.125416
0.084822
0.116029
0.094163
0.105181
0.10521
0.0925417
0.118311
0.0778026
0.133984
0.0606378
0.152169
0.0404928
0.17528
0.0194825
0.191641
0.196916
0.19911
0.00816118
0.198066
0.010995
0.196898
0.0134979
0.195607
0.0159201
0.194172
0.0183232
0.192565
0.0207532
0.19077
0.023248
0.188786
0.0258342
0.18661
0.028534
0.184225
0.0313756
0.181613
0.0343855
0.178751
0.0375916
0.17561
0.0410273
0.172171
0.0447346
0.168401
0.0487584
0.164256
0.0531518
0.15968
0.0579977
0.154613
0.0633669
0.148961
0.0693805
0.142637
0.0761824
0.135522
0.0839529
0.127402
0.0929775
0.118056
0.10353
0.107238
0.116019
0.0945362
0.130959
0.0796018
0.148814
0.0620644
0.169498
0.0417236
0.195314
0.0205498
0.212362
0.217367
0.19912
0.00878864
0.198095
0.0118005
0.196959
0.0144646
0.195717
0.0170534
0.194338
0.0196316
0.19279
0.0222448
0.191061
0.024926
0.189157
0.0277015
0.187073
0.0306009
0.184788
0.0336578
0.182286
0.0368996
0.179544
0.0403535
0.176538
0.0440596
0.173243
0.0480625
0.169626
0.0524117
0.165642
0.0571757
0.161246
0.0624357
0.156369
0.0682852
0.150919
0.0748699
0.14481
0.0823409
0.137914
0.0908998
0.130051
0.100872
0.120955
0.112637
0.110387
0.126571
0.0979604
0.14332
0.083189
0.163451
0.065649
0.186776
0.0455176
0.215043
0.024023
0.233318
0.241213
0.199136
0.00939649
0.19814
0.0125754
0.197043
0.0153928
0.195843
0.0181419
0.194515
0.0208869
0.193033
0.0236697
0.191385
0.0265227
0.189571
0.0294767
0.187584
0.0325675
0.185407
0.0358283
0.183026
0.0392868
0.18042
0.0429749
0.177566
0.0469369
0.174438
0.0512197
0.171006
0.0558768
0.167228
0.0609898
0.163058
0.0666428
0.158421
0.0729569
0.153255
0.0800676
0.147495
0.0881462
0.140959
0.0974776
0.1335
0.108351
0.124951
0.121184
0.11499
0.1365
0.103301
0.154929
0.0894128
0.177174
0.0728175
0.203078
0.0538701
0.233525
0.0321627
0.254431
0.273101
0.199155
0.00998209
0.198192
0.0133184
0.197134
0.016282
0.195976
0.0191825
0.194703
0.0220818
0.193296
0.0250193
0.191737
0.0280313
0.190019
0.0311547
0.188135
0.0344271
0.186077
0.0378752
0.183831
0.0415328
0.181375
0.0454405
0.178694
0.0496395
0.175759
0.0541807
0.172543
0.0591212
0.169004
0.0645587
0.165102
0.0705774
0.160787
0.077301
0.156018
0.0848737
0.150696
0.0935048
0.144693
0.103496
0.137892
0.115148
0.130185
0.128869
0.121321
0.145306
0.111123
0.165016
0.0992997
0.188785
0.0854774
0.216552
0.070143
0.248351
0.0496227
0.274349
0.322349
0.199171
0.0105485
0.198236
0.0140313
0.197215
0.0171301
0.196103
0.0201693
0.194888
0.0232098
0.193558
0.0262902
0.19209
0.029451
0.19047
0.0327325
0.188698
0.0361691
0.186768
0.0397898
0.18466
0.0436349
0.18236
0.0477435
0.17986
0.0521579
0.177135
0.0569319
0.174145
0.0621323
0.170864
0.0678608
0.16727
0.0741999
0.163334
0.0812658
0.159023
0.0892276
0.154221
0.0983351
0.148885
0.108819
0.142991
0.121018
0.136447
0.135363
0.129246
0.152411
0.121461
0.172642
0.113216
0.196755
0.104961
0.224392
0.0978813
0.254894
0.0874744
0.284186
0.409337
0.00280167
-0.00295443
0.00607295
-0.00347028
0.00883368
-0.00315234
0.0108466
-0.00256441
0.0122494
-0.00198429
0.013344
-0.00154943
0.0144089
-0.00130057
0.0156471
-0.00121431
0.0170844
-0.00119805
0.0186187
-0.00117693
0.020213
-0.00114826
0.0218475
-0.00112227
0.0234746
-0.00111535
0.025038
-0.00108793
0.0264846
-0.000982346
0.0277912
-0.000822034
0.0289285
-0.00066305
0.0298845
-0.000508097
0.0306807
-0.000355948
0.0313429
-0.000225818
0.0319237
-0.000129294
0.0324586
-7.08679e-05
0.0330076
-4.1241e-05
0.0336093
-4.57632e-05
0.0342597
-8.44492e-05
0.0349845
-0.000145864
0.0358017
-0.000224292
0.0367178
-0.000309178
0.0377294
-0.000389886
-0.000461342
0.00288702
-0.00596476
0.00607653
-0.00688657
0.00882196
-0.0063142
0.0109339
-0.00524715
0.0125488
-0.00418879
0.0139453
-0.00339595
0.0153556
-0.00293253
0.0169258
-0.00273084
0.0186754
-0.0026682
0.0205279
-0.00264937
0.0224507
-0.00263886
0.0244377
-0.00262892
0.0264501
-0.00262375
0.0284533
-0.00258068
0.0304274
-0.0024503
0.0323509
-0.00224882
0.0341835
-0.00202092
0.0358856
-0.00175746
0.0374396
-0.00146326
0.0388384
-0.001181
0.0401182
-0.000942158
0.0413194
-0.000779327
0.0424922
-0.000695407
0.0436761
-0.000680819
0.0448732
-0.00071916
0.0460896
-0.00078582
0.0473203
-0.000863714
0.0485582
-0.000941305
0.0498004
-0.00101116
-0.00104717
0.00280303
-0.00888836
0.00564164
-0.00998767
0.00797055
-0.00909476
0.00970182
-0.00757243
0.0110344
-0.00610454
0.012239
-0.00502031
0.0134969
-0.00437892
0.0148974
-0.00406143
0.0164584
-0.00394022
0.018121
-0.00392709
0.0198457
-0.00395398
0.0216261
-0.00397542
0.0234319
-0.00396641
0.0252514
-0.00390551
0.027083
-0.00377746
0.0289176
-0.00359199
0.0307317
-0.00335822
0.0325093
-0.00306499
0.0342378
-0.00272437
0.0358966
-0.00237249
0.037486
-0.0020486
0.0390047
-0.00179388
0.0404556
-0.00162497
0.0418464
-0.0015305
0.0431727
-0.00148821
0.0444335
-0.00147365
0.0456292
-0.00147088
0.0467648
-0.001473
0.0478529
-0.00147957
-0.00145976
0.00273633
-0.0117632
0.00521571
-0.0127579
0.00706346
-0.0114286
0.00831792
-0.00943767
0.0092801
-0.00760961
0.0102144
-0.00630331
0.0112264
-0.00552912
0.0123659
-0.00512795
0.013642
-0.00495817
0.0149978
-0.00492576
0.0163956
-0.00495541
0.017836
-0.00499133
0.0193045
-0.00500081
0.0208055
-0.00496453
0.0223437
-0.00486548
0.0239165
-0.00470714
0.0255067
-0.00448619
0.0271032
-0.00419475
0.0286987
-0.00384937
0.0302793
-0.0034774
0.0318301
-0.00311443
0.0333294
-0.00279411
0.0347548
-0.00253436
0.0360897
-0.00233087
0.0373193
-0.00216587
0.0384341
-0.00201965
0.0394304
-0.00188178
0.0403125
-0.00175361
0.0410992
-0.00164799
-0.00156308
0.00262996
-0.0145471
0.00470407
-0.0151513
0.00603309
-0.0132753
0.00677921
-0.0107972
0.00733476
-0.00865785
0.00794634
-0.00718214
0.00865071
-0.00630584
0.00946981
-0.00584674
0.010386
-0.00564103
0.0113442
-0.00557477
0.0123317
-0.00557993
0.013365
-0.00561605
0.0144425
-0.00566106
0.0155672
-0.00568522
0.0167461
-0.00564681
0.0179829
-0.00553006
0.0192717
-0.00533914
0.020597
-0.00507324
0.0219431
-0.00473933
0.0232894
-0.004358
0.0246117
-0.00395902
0.0258841
-0.00357395
0.0270827
-0.00322324
0.0281891
-0.00290906
0.0291911
-0.00262156
0.0300824
-0.00234671
0.0308599
-0.00207751
0.0315251
-0.00182004
0.0320921
-0.00159853
-0.00142748
0.0024468
-0.0171453
0.00402176
-0.0170924
0.0047841
-0.0145722
0.00502556
-0.011592
0.00514208
-0.00920008
0.0053564
-0.00759227
0.00569719
-0.00663333
0.00612811
-0.00612252
0.00662588
-0.00588355
0.00715383
-0.00581043
0.00771652
-0.00582835
0.00834174
-0.00588906
0.00903467
-0.00597501
0.00979522
-0.00605989
0.0106272
-0.0060942
0.0115356
-0.00604561
0.0125233
-0.00591278
0.0135765
-0.00569732
0.0146853
-0.00540626
0.0158332
-0.00505126
0.0169971
-0.00465407
0.0181466
-0.00423845
0.0192486
-0.00382242
0.0202713
-0.00341012
0.0211885
-0.00299829
0.0219823
-0.00258124
0.0226457
-0.00216311
0.0231796
-0.00175826
0.0235832
-0.00138774
-0.00106473
0.00215431
-0.0194482
0.00309769
-0.0184841
0.00322199
-0.0152217
0.00294186
-0.0117272
0.00258273
-0.00915457
0.00234032
-0.00747032
0.00226447
-0.00647284
0.00226226
-0.00594791
0.00234092
-0.00571404
0.0024862
-0.00567421
0.00270114
-0.00575577
0.00300367
-0.00589214
0.00340206
-0.00604751
0.00390691
-0.00620648
0.00451755
-0.00633134
0.00523601
-0.00638245
0.00606278
-0.00634296
0.00698477
-0.00620682
0.00798395
-0.00597772
0.00903996
-0.00566428
0.0101219
-0.00527685
0.0111908
-0.00483078
0.012201
-0.00433724
0.0131117
-0.0038061
0.0138874
-0.00323959
0.014502
-0.00264176
0.0149263
-0.00201407
0.0151403
-0.00137996
0.0151643
-0.000799946
-0.000351531
0.00174144
-0.0213484
0.00188628
-0.0191763
0.00126914
-0.0151125
0.000390233
-0.0111367
-0.000471054
-0.00847652
-0.00120208
-0.00679608
-0.00173986
-0.00584133
-0.00213436
-0.00538697
-0.00239719
-0.00524573
-0.0025399
-0.00529414
-0.00255193
-0.00546988
-0.00244777
-0.00571312
-0.00222547
-0.00597505
-0.00186772
-0.0062382
-0.00138045
-0.0064715
-0.000768477
-0.00663202
-3.97206e-05
-0.0066925
0.000784154
-0.00663414
0.00167878
-0.00645861
0.00262009
-0.00617456
0.00358086
-0.0057887
0.00451958
-0.00530179
0.00539107
-0.0047214
0.0061463
-0.00405377
0.00675066
-0.00331592
0.00717903
-0.00252163
0.00742141
-0.00168771
0.00746977
-0.000839805
0.00735428
-7.54311e-05
0.000432966
0.00114918
-0.0226657
0.000333207
-0.0189447
-0.00116561
-0.0140733
-0.00278414
-0.00972823
-0.0041993
-0.00710773
-0.00539035
-0.00558865
-0.00634195
-0.00481104
-0.00703501
-0.00452273
-0.00753724
-0.00454812
-0.0078745
-0.00474967
-0.00803502
-0.00505931
-0.00805225
-0.00542596
-0.00793382
-0.00581266
-0.00766956
-0.00619896
-0.00726555
-0.0065508
-0.00673531
-0.00681879
-0.00610308
-0.00696251
-0.00539082
-0.00696527
-0.00461443
-0.00683501
-0.00378885
-0.00658116
-0.00294053
-0.00619865
-0.00210883
-0.00567509
-0.00134187
-0.00500934
-0.000678288
-0.00421724
-0.000145132
-0.00332768
0.000245779
-0.00236987
0.00048933
-0.00136748
0.000590672
-0.000356698
0.000585678
0.000535431
0.00097654
0.000267898
-0.0230842
-0.00175777
-0.0174484
-0.00433607
-0.0118335
-0.00677785
-0.00741108
-0.00873703
-0.00509043
-0.0103322
-0.00389685
-0.0115907
-0.00345283
-0.0124938
-0.00345552
-0.0131357
-0.00371909
-0.0135662
-0.00412228
-0.0138049
-0.00459674
-0.0138872
-0.00509882
-0.0138285
-0.00560901
-0.0136276
-0.00611631
-0.0132855
-0.0065878
-0.0128165
-0.00696224
-0.0122475
-0.00718556
-0.0116015
-0.00724499
-0.0108911
-0.0071588
-0.0101269
-0.00693839
-0.00932844
-0.00656936
-0.00853016
-0.00602449
-0.00777798
-0.00529105
-0.00711358
-0.00438923
-0.00656582
-0.00336093
-0.00614737
-0.00225172
-0.00585508
-0.00110122
-0.00566187
3.01675e-05
-0.00553396
0.0010099
0.00161356
-0.00107388
-0.0221118
-0.00477292
-0.0141842
-0.00853994
-0.00826439
-0.011732
-0.00425009
-0.01423
-0.00249909
-0.0161042
-0.00189507
-0.0174831
-0.0019457
-0.0184473
-0.00234001
-0.0191034
-0.00289559
-0.0195271
-0.00351603
-0.0197682
-0.00415196
-0.019864
-0.00477851
-0.0198321
-0.00539643
-0.019665
-0.00601784
-0.019348
-0.00661747
-0.0188896
-0.00711168
-0.018327
-0.00741765
-0.0176956
-0.00752427
-0.0170048
-0.00747608
-0.0162492
-0.00729876
-0.0154373
-0.00696419
-0.0146063
-0.00641623
-0.0138116
-0.00562399
-0.0131066
-0.00460972
-0.0125251
-0.00343493
-0.0120738
-0.00217277
-0.0117355
-0.000886471
-0.0114844
0.000354538
-0.0113161
0.00144018
0.00216331
-0.00316088
-0.0189906
-0.00881083
-0.0088459
-0.0140505
-0.00310326
-0.0179509
-0.000314038
-0.0206497
0.000297741
-0.0224406
1.64274e-05
-0.0236605
-0.000595769
-0.024495
-0.0013653
-0.025048
-0.00218976
-0.0253958
-0.00299997
-0.0255871
-0.00377343
-0.0256559
-0.00450213
-0.0256192
-0.00520486
-0.0254558
-0.00593177
-0.0251265
-0.00667552
-0.0246343
-0.00731027
-0.0240381
-0.00769781
-0.0233912
-0.00783271
-0.0226932
-0.00781304
-0.0219166
-0.00769167
-0.0210567
-0.00741759
-0.0201581
-0.00688524
-0.0192983
-0.00603087
-0.0185443
-0.00488714
-0.0179277
-0.00355139
-0.0174471
-0.00212956
-0.017075
-0.000711225
-0.0167844
0.000634367
-0.0165794
0.00182963
0.00265112
-0.00664905
-0.0123235
-0.0151224
-0.000537055
-0.0215686
0.00336539
-0.0254528
0.00364732
-0.0276192
0.0025647
-0.0289001
0.0014073
-0.0297596
0.000382832
-0.0303312
-0.000665404
-0.0306868
-0.00169383
-0.0309017
-0.00262979
-0.0310026
-0.00349944
-0.0310086
-0.0043029
-0.0309473
-0.00505203
-0.0307802
-0.00586363
-0.0304176
-0.00678133
-0.0298466
-0.00760191
-0.0291706
-0.00807137
-0.0284849
-0.0081929
-0.0277733
-0.00817563
-0.0269676
-0.00812498
-0.026038
-0.00795115
-0.0250445
-0.00745866
-0.0240957
-0.00653559
-0.02328
-0.00523439
-0.0226309
-0.00370773
-0.022131
-0.00211241
-0.021738
-0.000562914
-0.0214211
0.000882701
-0.0211792
0.00217773
0.00308255
-0.0116304
-0.000591076
-0.0222255
0.0100056
-0.0288606
0.0100767
-0.0324042
0.00728537
-0.0338993
0.0041569
-0.0347079
0.00231562
-0.0353968
0.00117848
-0.035667
-0.000279323
-0.0357443
-0.00148855
-0.0358099
-0.00242174
-0.0358092
-0.00334058
-0.035715
-0.00421785
-0.035614
-0.00495237
-0.0354579
-0.00579718
-0.0350519
-0.00694322
-0.0343427
-0.00804483
-0.0335275
-0.00859704
-0.0327932
-0.00861385
-0.0320882
-0.00854324
-0.0312628
-0.00858888
-0.0302424
-0.00858567
-0.0291125
-0.00817813
-0.0280418
-0.00717098
-0.0271539
-0.00566208
-0.0264767
-0.00389968
-0.0259727
-0.00210626
-0.0255788
-0.000421632
-0.0252467
0.00111032
-0.0249683
0.00248459
0.00345642
-0.0202478
0.0199285
-0.0308003
0.0204973
-0.0373621
0.0166795
-0.039641
0.00963363
-0.0396614
0.00425515
-0.0400702
0.00280832
-0.0405461
0.00174638
-0.0401999
-0.00052339
-0.0399238
-0.00165002
-0.0398951
-0.00232104
-0.0397906
-0.00329903
-0.0395255
-0.00431779
-0.0393747
-0.00491645
-0.0393067
-0.00565565
-0.0388771
-0.00714069
-0.0379386
-0.00872887
-0.0368952
-0.00936271
-0.0361233
-0.00908389
-0.0354836
-0.00885659
-0.0346715
-0.00904988
-0.0335287
-0.00935241
-0.0321979
-0.00910767
-0.0309585
-0.00798376
-0.0299836
-0.00618483
-0.0292935
-0.00411208
-0.028813
-0.00208348
-0.0284438
-0.000262051
-0.0281137
0.00133428
-0.0278032
0.00275428
0.00376877
0.206828
0.0111042
0.205897
0.0147277
0.204887
0.0179542
0.203792
0.0211228
0.202608
0.0242948
0.201325
0.0275116
0.199907
0.0308156
0.198346
0.034244
0.196648
0.0378309
0.194799
0.0416149
0.192785
0.0456341
0.190602
0.0499211
0.188245
0.0545279
0.185686
0.0595107
0.182883
0.064946
0.179837
0.0709153
0.176555
0.0775029
0.172996
0.0848509
0.169117
0.0931303
0.164903
0.102549
0.160352
0.113334
0.155537
0.12578
0.150538
0.140273
0.145589
0.157212
0.141179
0.176819
0.138271
0.199303
0.138776
0.223402
0.146002
0.247084
0.163864
0.265719
0.274341
0.298404
0.211856
0.0116431
0.210941
0.0153976
0.209959
0.0187411
0.2089
0.0220264
0.207769
0.0253179
0.206551
0.0286633
0.20521
0.032099
0.203739
0.0356592
0.202142
0.039383
0.200413
0.0433133
0.19854
0.047485
0.196527
0.0519247
0.194363
0.056698
0.192017
0.061863
0.189482
0.0674815
0.186773
0.0736305
0.183877
0.0804108
0.180787
0.0879562
0.177493
0.0964222
0.174048
0.105959
0.170529
0.116793
0.167105
0.129119
0.164054
0.143193
0.161876
0.159187
0.161507
0.176891
0.164621
0.195769
0.173669
0.213832
0.192072
0.228093
0.221152
0.236047
0.244432
0.250615
0.21701
0.0121604
0.216118
0.0160335
0.215171
0.0194824
0.214161
0.022872
0.213089
0.026272
0.211948
0.0297306
0.210704
0.0332829
0.209338
0.036963
0.20786
0.0408064
0.206271
0.044863
0.204566
0.0491616
0.202751
0.0537311
0.200805
0.0586422
0.198718
0.0639458
0.196508
0.0696901
0.194191
0.0759553
0.191749
0.0828553
0.189218
0.0904769
0.18666
0.0989527
0.184142
0.108415
0.181845
0.119
0.180038
0.130802
0.179122
0.143928
0.179831
0.158217
0.183252
0.173119
0.190818
0.187754
0.203603
0.20053
0.22147
0.209681
0.242252
0.214751
0.216845
0.269464
0.222292
0.0126512
0.221428
0.0166287
0.220524
0.0201703
0.219573
0.0236518
0.218571
0.0271454
0.217518
0.0306997
0.21638
0.034356
0.215132
0.0381402
0.21379
0.0420842
0.212359
0.0462439
0.210848
0.0506391
0.209249
0.0553131
0.207549
0.0603264
0.205774
0.0657125
0.203933
0.0715273
0.202045
0.0778388
0.200138
0.0847461
0.198257
0.0923201
0.196505
0.100646
0.195017
0.109813
0.19403
0.119862
0.193874
0.130792
0.195046
0.142526
0.19828
0.154675
0.20437
0.166646
0.213989
0.17768
0.227237
0.186797
0.243581
0.192855
0.262801
0.195079
0.192492
0.286816
0.227705
0.0131106
0.226874
0.0171767
0.22602
0.0207968
0.225136
0.0243554
0.224221
0.027925
0.223268
0.0315622
0.222236
0.0353082
0.221121
0.0391741
0.219937
0.0431979
0.218689
0.0474292
0.217395
0.0518905
0.216028
0.0566391
0.214604
0.0617099
0.213183
0.067121
0.211758
0.0729385
0.210341
0.0792235
0.209008
0.0860368
0.207829
0.093434
0.206935
0.10145
0.206514
0.110112
0.206829
0.119389
0.208233
0.129182
0.211197
0.139292
0.216223
0.149314
0.22371
0.158763
0.233897
0.167045
0.246746
0.173497
0.261902
0.177277
0.278813
0.177771
0.173942
0.297055
0.233252
0.0135331
0.232459
0.0176704
0.231664
0.0213531
0.230861
0.0249722
0.230044
0.0286024
0.229192
0.0323088
0.228277
0.0361213
0.227316
0.0400468
0.226312
0.0441252
0.225273
0.0483957
0.224205
0.0528982
0.223089
0.0576836
0.221983
0.0627547
0.220943
0.0681379
0.219948
0.0738971
0.219037
0.0800738
0.218311
0.0866942
0.217865
0.0937839
0.217851
0.101342
0.218476
0.109333
0.219996
0.117677
0.222713
0.126226
0.226958
0.134754
0.23301
0.142917
0.241069
0.150315
0.251195
0.156496
0.263295
0.160978
0.276962
0.163227
0.291439
0.162944
0.158842
0.30626
0.238938
0.0139126
0.238187
0.0181021
0.237461
0.0218295
0.236757
0.0254944
0.236045
0.0291729
0.235293
0.0329259
0.234508
0.036778
0.23372
0.0407408
0.23292
0.0448471
0.232101
0.0491345
0.231265
0.0536509
0.230429
0.0584225
0.229675
0.0634374
0.22903
0.0687438
0.228475
0.0743828
0.228102
0.080361
0.228005
0.086691
0.228294
0.0933644
0.229135
0.100348
0.230712
0.107573
0.233229
0.11494
0.236903
0.12229
0.241949
0.129404
0.248532
0.13599
0.256727
0.141747
0.266503
0.146331
0.277727
0.149369
0.290003
0.150595
0.302722
0.149904
0.145858
0.31545
0.244767
0.014243
0.244065
0.0184633
0.243411
0.0222173
0.242816
0.0259145
0.242223
0.029626
0.241586
0.0334034
0.240936
0.0372703
0.240329
0.0412415
0.239747
0.0453528
0.239152
0.0496356
0.238568
0.0541256
0.238046
0.0588325
0.237655
0.0637495
0.237406
0.0689278
0.237321
0.074371
0.237502
0.0800714
0.238031
0.0860305
0.239024
0.0922106
0.240628
0.0985633
0.242984
0.105009
0.246249
0.111436
0.250579
0.117686
0.256114
0.123562
0.262923
0.128846
0.271012
0.133303
0.280343
0.136638
0.290737
0.138622
0.301829
0.139172
0.313185
0.138249
0.134447
0.324356
0.250741
0.0145192
0.250102
0.0187486
0.249525
0.0225097
0.249032
0.0262201
0.248572
0.0299493
0.248068
0.0337342
0.247568
0.037587
0.247146
0.0415409
0.246774
0.0456358
0.246415
0.0498817
0.24611
0.0543037
0.24592
0.0589019
0.245895
0.0636796
0.246061
0.06867
0.246463
0.073854
0.247182
0.079223
0.248296
0.0847593
0.249911
0.090414
0.252143
0.0961294
0.255108
0.101817
0.258927
0.107364
0.263706
0.112627
0.269507
0.117455
0.276351
0.121677
0.284247
0.12507
0.29311
0.127436
0.302719
0.128684
0.312793
0.128791
0.323028
0.127736
0.124238
0.33301
0.256865
0.0147356
0.256299
0.0189525
0.255815
0.0226994
0.255421
0.0264054
0.255078
0.030138
0.254722
0.0339041
0.254397
0.03772
0.254157
0.0416408
0.253993
0.0456849
0.253891
0.0498531
0.253891
0.0541652
0.254046
0.0586167
0.254393
0.0632144
0.254976
0.0679675
0.255839
0.0728561
0.257048
0.0778625
0.258677
0.0829527
0.260818
0.0880754
0.263566
0.0931644
0.267011
0.0981332
0.271237
0.102877
0.276296
0.107286
0.282212
0.111239
0.289013
0.114562
0.296669
0.117094
0.305039
0.118749
0.313933
0.119484
0.323148
0.119288
0.332457
0.118165
0.114968
0.341511
0.263139
0.0148852
0.262655
0.0190675
0.262282
0.0227859
0.261982
0.0264736
0.261742
0.030179
0.261547
0.0338979
0.26141
0.0376631
0.261368
0.041522
0.261431
0.0454777
0.261601
0.0495338
0.261914
0.0537013
0.262407
0.057977
0.263116
0.062362
0.264088
0.0668497
0.265367
0.0714188
0.267014
0.0760414
0.269095
0.0806779
0.271684
0.0852753
0.274852
0.0897665
0.278667
0.0940705
0.283172
0.0981071
0.288389
0.101787
0.294354
0.104979
0.301062
0.10755
0.308424
0.109427
0.316312
0.110561
0.324583
0.110925
0.333076
0.110524
0.341618
0.109374
0.106459
0.349921
0.269572
0.0149603
0.269171
0.0190889
0.268905
0.022768
0.268709
0.0264135
0.26859
0.030057
0.268559
0.0337084
0.268617
0.0374017
0.26879
0.0411662
0.269091
0.0450067
0.269532
0.0489252
0.270141
0.0529243
0.270953
0.057
0.272004
0.0611455
0.273337
0.0653465
0.274998
0.0695787
0.277037
0.0738091
0.279511
0.0779961
0.282473
0.0820894
0.285976
0.0860236
0.290061
0.0897319
0.294748
0.0931524
0.30007
0.0961863
0.306034
0.0987258
0.312585
0.100707
0.319635
0.102086
0.327085
0.102828
0.334817
0.102922
0.3427
0.102385
0.350602
0.101237
0.09858
0.358282
0.276175
0.014957
0.275854
0.0190139
0.275679
0.0226326
0.275604
0.0262075
0.27563
0.0297678
0.275766
0.0333324
0.276019
0.0369284
0.276406
0.040576
0.276942
0.0442787
0.277644
0.0480356
0.278538
0.0518446
0.279655
0.0556987
0.281029
0.0595856
0.282699
0.0634865
0.284704
0.0673745
0.287089
0.0712145
0.289899
0.0749646
0.293167
0.0785872
0.296921
0.0820221
0.301198
0.0851968
0.306024
0.0880574
0.311405
0.0905288
0.317305
0.0925437
0.323667
0.0940636
0.33042
0.0950546
0.337478
0.0954996
0.344742
0.0954001
0.352108
0.0947761
0.35947
0.0936495
0.0912292
0.36663
0.282941
0.0148721
0.282705
0.0188363
0.282623
0.0223691
0.282673
0.0258502
0.282849
0.0293094
0.283156
0.0327666
0.283602
0.0362435
0.284201
0.0397533
0.28497
0.0432972
0.285927
0.0468722
0.287094
0.050473
0.288499
0.0540895
0.290174
0.0577059
0.292151
0.0613002
0.294464
0.0648455
0.297149
0.0683056
0.300234
0.0716456
0.303742
0.0748356
0.3077
0.0778107
0.312133
0.0805012
0.317051
0.0828712
0.322429
0.0848772
0.328228
0.0864709
0.334397
0.0876219
0.340873
0.088311
0.347582
0.0885324
0.354441
0.0882946
0.361365
0.0876192
0.368271
0.0865279
0.0843243
0.374992
0.289869
0.0146991
0.289721
0.0185482
0.289743
0.0219734
0.28992
0.0253407
0.290248
0.0286796
0.290726
0.0320094
0.291363
0.0353473
0.292173
0.0387009
0.29317
0.0420681
0.294372
0.0454443
0.295798
0.0488231
0.297474
0.0521912
0.299425
0.0555313
0.301681
0.0588182
0.304265
0.0620299
0.307197
0.0651357
0.310505
0.0680933
0.314217
0.0708717
0.318349
0.0734191
0.322898
0.0756882
0.327851
0.0776509
0.333187
0.0792717
0.338869
0.0805202
0.34485
0.0813763
0.351073
0.0818306
0.357472
0.0818847
0.363979
0.0815505
0.370525
0.0808499
0.377042
0.0798034
0.0777985
0.383389
0.296963
0.0144332
0.296908
0.0181448
0.297039
0.0214426
0.297347
0.0246777
0.297826
0.0278775
0.298476
0.0310608
0.299301
0.034242
0.300316
0.0374233
0.301536
0.0405986
0.302973
0.0437626
0.304643
0.04691
0.30657
0.0500232
0.308773
0.0530869
0.311269
0.0560796
0.314084
0.0589692
0.317237
0.0617322
0.320746
0.0643299
0.324629
0.0667295
0.328883
0.0689018
0.333495
0.0708098
0.338453
0.0724267
0.34373
0.0737281
0.349292
0.074695
0.355095
0.0753162
0.361086
0.0755889
0.367211
0.075519
0.373413
0.0751204
0.379633
0.074414
0.385817
0.0734187
0.071597
0.391844
0.304229
0.0140701
0.304269
0.0176225
0.304512
0.0207746
0.304953
0.02386
0.305586
0.0269031
0.306403
0.0299224
0.307411
0.0329312
0.308627
0.0359263
0.310065
0.0388975
0.311726
0.0418382
0.313624
0.044749
0.315773
0.0476135
0.318197
0.0504038
0.320914
0.0531045
0.323939
0.0556852
0.327289
0.0581199
0.330969
0.0603868
0.334977
0.0624554
0.339311
0.0642999
0.343959
0.0658945
0.348901
0.0672183
0.354111
0.068255
0.359554
0.0689932
0.36519
0.0694281
0.370973
0.0695615
0.376857
0.0694017
0.382792
0.0689632
0.388731
0.0682656
0.394628
0.067326
0.0656737
0.400381
0.31167
0.0136069
0.311807
0.0169787
0.312163
0.0199673
0.312739
0.0228867
0.313529
0.0257576
0.314511
0.0285982
0.315688
0.03142
0.317102
0.034215
0.31876
0.0369744
0.320626
0.0396933
0.322722
0.0423641
0.325079
0.0449752
0.32771
0.0474973
0.33063
0.0499109
0.333844
0.0521995
0.337353
0.0543381
0.341163
0.0563052
0.345268
0.0580781
0.349661
0.0596362
0.354325
0.0609609
0.35924
0.0620374
0.364378
0.0628552
0.369707
0.0634085
0.375191
0.0636967
0.380789
0.0637246
0.38646
0.0635018
0.392163
0.0630427
0.397859
0.062365
0.40351
0.0614844
0.0599894
0.409027
0.319291
0.0130417
0.319525
0.0162119
0.31999
0.0190186
0.320709
0.0217553
0.32167
0.0244424
0.322808
0.0270961
0.324139
0.0297166
0.325736
0.0322984
0.327599
0.0348417
0.329661
0.0373385
0.331944
0.0397692
0.334499
0.0421221
0.337322
0.0443826
0.340416
0.0465296
0.343785
0.0485456
0.34743
0.0504111
0.351347
0.0521079
0.355528
0.0536185
0.359962
0.0549271
0.364631
0.0560206
0.369513
0.0568892
0.37458
0.0575268
0.379804
0.0579314
0.38515
0.0581055
0.390583
0.0580552
0.396069
0.057791
0.401572
0.0573263
0.407059
0.0566774
0.412497
0.055858
0.05451
0.41781
0.327097
0.012372
0.327431
0.0153205
0.328007
0.0179262
0.328863
0.0204655
0.329988
0.0229605
0.331289
0.0254174
0.332783
0.0278266
0.334544
0.0301891
0.336571
0.03251
0.338822