/*--------------------------------*- C++ -*----------------------------------*\
| =========                 |                                                 |
| \\      /  F ield         | OpenFOAM: The Open Source CFD Toolbox           |
|  \\    /   O peration     | Version:  5.x                                   |
|   \\  /    A nd           | Web:      www.OpenFOAM.org                      |
|    \\/     M anipulation  |                                                 |
\*---------------------------------------------------------------------------*/
FoamFile
{
    version     2.0;
    format      ascii;
    class       surfaceScalarField;
    location    "4.5";
    object      meshPhi;
}
// * * * * * * * * * * * * * * * * * * * * * * * * * * * * * * * * * * * * * //

dimensions      [0 3 -1 0 0 0 0];

internalField   nonuniform List<scalar> 
5457
(
0.000391006
-3.75748e-06
0.000735236
-1.06012e-05
0.00102299
-1.62869e-05
0.00126134
-2.09323e-05
0.00145671
-2.47501e-05
0.00161372
-2.79118e-05
0.00173589
-3.0549e-05
0.00182611
-3.27894e-05
0.00188585
-3.49314e-05
0.00191709
-3.65924e-05
0.00192535
-3.72459e-05
0.00191429
-3.75356e-05
0.00188475
-3.78119e-05
0.00183858
-3.78385e-05
0.00177777
-3.75952e-05
0.00170429
-3.70948e-05
0.00161996
-3.63528e-05
0.00152642
-3.53726e-05
0.00142512
-3.41365e-05
0.0013175
-3.26065e-05
0.00120512
-3.07281e-05
0.00108963
-2.84223e-05
0.000972489
-2.55484e-05
0.000854837
-2.18436e-05
0.000737469
-1.6847e-05
0.000620891
-9.77529e-06
0.000507473
7.42128e-07
0.000403186
1.67135e-05
0.000327156
3.94041e-05
8.48512e-05
0.000391586
-7.53178e-06
0.000736313
-2.12537e-05
0.00102438
-3.26577e-05
0.00126309
-4.19756e-05
0.00145908
-4.96375e-05
0.00161692
-5.59884e-05
0.00174006
-6.1282e-05
0.00183175
-6.57079e-05
0.00189231
-6.95256e-05
0.00192359
-7.24626e-05
0.00193298
-7.41931e-05
0.00192358
-7.52679e-05
0.00189541
-7.59465e-05
0.00185063
-7.60583e-05
0.0017913
-7.56191e-05
0.00171947
-7.46636e-05
0.00163706
-7.323e-05
0.00154572
-7.1332e-05
0.00144692
-6.8938e-05
0.00134205
-6.59717e-05
0.0012328
-6.23326e-05
0.00112119
-5.79033e-05
0.00100922
-5.24872e-05
0.00089879
-4.5714e-05
0.000792024
-3.69785e-05
0.00069062
-2.52882e-05
0.000598719
-9.05016e-06
0.000527639
1.34773e-05
0.000499122
4.20627e-05
7.73315e-05
0.00039279
-1.13307e-05
0.000738527
-3.19838e-05
0.00102717
-4.91403e-05
0.00126656
-6.31315e-05
0.00146382
-7.46441e-05
0.00162333
-8.42138e-05
0.00174828
-9.21974e-05
0.00184211
-9.87746e-05
0.00190377
-0.000103769
0.00193639
-0.000107595
0.00194879
-0.000110931
0.00194225
-0.000113347
0.00191672
-0.000114561
0.0018747
-0.000114849
0.00181831
-0.000114302
0.00174972
-0.000112979
0.00167107
-0.000110955
0.00158414
-0.000108275
0.00149034
-0.000104905
0.00139091
-0.000100729
0.00128758
-9.56006e-05
0.00118314
-8.94383e-05
0.00108052
-8.21368e-05
0.000982722
-7.34246e-05
0.000893845
-6.28726e-05
0.000818374
-4.99139e-05
0.000761216
-3.38525e-05
0.00073517
-1.44443e-05
0.000763658
6.30473e-06
1.35161e-05
0.000394638
-1.51411e-05
0.00074177
-4.27581e-05
0.00103109
-6.56801e-05
0.00127164
-8.43248e-05
0.00147093
-9.96857e-05
0.00163289
-0.000112499
0.0017604
-0.000123207
0.0018563
-0.000132026
0.00192023
-0.000138762
0.00195693
-0.000144028
0.00197356
-0.000148675
0.0019704
-0.000152065
0.00194867
-0.000153848
0.0019108
-0.000154426
0.00185876
-0.000153904
0.00179492
-0.000152344
0.00172184
-0.000149878
0.00164156
-0.000146621
0.00155551
-0.000142575
0.00146432
-0.000137564
0.00136978
-0.00013138
0.00127569
-0.000124027
0.00118571
-0.000115592
0.0011038
-0.00010607
0.00103518
-9.53731e-05
0.000987554
-8.36062e-05
0.000967938
-7.13903e-05
0.00098321
-5.94877e-05
0.00105587
-4.96929e-05
-5.61193e-05
0.000397167
-1.89428e-05
0.00074598
-5.35257e-05
0.00103583
-8.22118e-05
0.00127813
-0.000105504
0.00148032
-0.000124734
0.00164543
-0.000140815
0.00177632
-0.00015429
0.0018753
-0.000165513
0.00194358
-0.000174564
0.00198577
-0.000181754
0.00200683
-0.000187473
0.00200785
-0.00019155
0.00199113
-0.000193947
0.00195885
-0.000194976
0.00191254
-0.000194674
0.00185482
-0.000193047
0.00178888
-0.000190313
0.00171745
-0.000186728
0.00164236
-0.000182435
0.00156224
-0.000177114
0.00147904
-0.00017034
0.00139879
-0.00016235
0.00132528
-0.000153604
0.00126251
-0.000144385
0.00121406
-0.000134779
0.00118991
-0.000125372
0.00120241
-0.000118049
0.00125392
-0.000114238
0.00136602
-0.000114852
-0.000122174
0.000400295
-2.27115e-05
0.000751277
-6.42643e-05
0.00104138
-9.87381e-05
0.00128587
-0.000126654
0.00149179
-0.000149757
0.00166065
-0.0001691
0.00179598
-0.000185359
0.00189986
-0.000199163
0.00197382
-0.000210651
0.00202168
-0.000219808
0.00204788
-0.000226849
0.00205424
-0.000231832
0.00204378
-0.000234949
0.00201875
-0.000236656
0.0019795
-0.000236848
0.00192901
-0.000235365
0.00187167
-0.000232602
0.00181118
-0.000229028
0.00175165
-0.000225125
0.00168537
-0.000220267
0.0016138
-0.000213294
0.00154984
-0.000204939
0.00149733
-0.000196509
0.00146141
-0.000188917
0.00143477
-0.000181867
0.00142922
-0.000175363
0.00146931
-0.000173048
0.00155626
-0.000178003
0.0017116
-0.000191103
-0.000205582
0.000404012
-2.64188e-05
0.000757729
-7.46752e-05
0.0010472
-0.000114716
0.00129453
-0.000147477
0.00150504
-0.000174712
0.00167814
-0.000197291
0.00181927
-0.000216314
0.00192977
-0.000232883
0.00201009
-0.000247051
0.00206396
-0.000258317
0.00209658
-0.000266902
0.0021091
-0.000272967
0.0021061
-0.000276876
0.00209046
-0.000279586
0.00205935
-0.000280659
0.00201665
-0.000279495
0.00196926
-0.000276918
0.00192061
-0.00027357
0.00187748
-0.000270012
0.00182951
-0.000266195
0.0017738
-0.000260496
0.00172733
-0.000252745
0.00169704
-0.000244675
0.00169063
-0.000238392
0.00169267
-0.000234692
0.00171332
-0.00023324
0.00178445
-0.000237351
0.00190861
-0.000252053
0.0021028
-0.000279566
-0.000313978
0.000405177
-2.99074e-05
0.000762394
-8.44169e-05
0.00105508
-0.000130033
0.0013065
-0.000168207
0.00151991
-0.000199772
0.00169737
-0.000225397
0.00184605
-0.000247143
0.00196354
-0.000266021
0.00204893
-0.000281872
0.00210826
-0.000294665
0.00214816
-0.000304922
0.00216936
-0.000312944
0.00217741
-0.000319074
0.00217477
-0.000324058
0.00215255
-0.000326663
0.00211691
-0.000325857
0.00208055
-0.000323552
0.00204386
-0.000320822
0.00201168
-0.000317525
0.00198854
-0.000315051
0.00196099
-0.00031245
0.00193408
-0.000307057
0.00192601
-0.000300413
0.00193957
-0.00029522
0.0019793
-0.00029418
0.00204971
-0.000299148
0.00215973
-0.000310785
0.00231873
-0.000333277
0.00253254
-0.000369709
-0.000418741
0.000399599
-3.31792e-05
0.000762581
-9.40011e-05
0.0010685
-0.000145708
0.00132424
-0.000189047
0.00153525
-0.000224214
0.00171763
-0.000252948
0.00187463
-0.00027772
0.00199655
-0.000298276
0.00208511
-0.000314702
0.00215005
-0.000328597
0.00219829
-0.000340772
0.00223313
-0.000351721
0.00225755
-0.000361543
0.00226945
-0.000369484
0.00225658
-0.000373795
0.00222938
-0.000374055
0.00220609
-0.000372885
0.0021838
-0.000371632
0.00216376
-0.00036978
0.00216527
-0.000368856
0.00217132
-0.000369138
0.00217343
-0.000367936
0.00219532
-0.000365652
0.00223377
-0.00036449
0.00231758
-0.000367373
0.00244644
-0.000376871
0.00259887
-0.000392475
0.00278457
-0.000415584
0.00299693
-0.000447397
-0.000483113
0.000387435
-3.61773e-05
0.000760786
-0.000103473
0.00108453
-0.000161625
0.00134175
-0.000209074
0.00155005
-0.000246906
0.00174054
-0.000279653
0.00190418
-0.000308398
0.00202877
-0.000331179
0.0021234
-0.000349375
0.00219708
-0.000365373
0.00225586
-0.000379816
0.00230576
-0.000393229
0.00234653
-0.000405678
0.00236674
-0.000415046
0.00236379
-0.000420276
0.00235363
-0.000423199
0.00234684
-0.000425017
0.00234294
-0.000426134
0.00234355
-0.000426977
0.00236183
-0.000428055
0.00239846
-0.000430862
0.00244548
-0.000435306
0.002509
-0.000439771
0.0025945
-0.000445229
0.00272753
-0.000454124
0.00290358
-0.000466928
0.00309714
-0.000482194
0.00330584
-0.000498229
0.00351673
-0.000513863
-0.000509617
0.000380746
-3.93959e-05
0.000764279
-0.000112971
0.00109587
-0.000176219
0.00135018
-0.000226922
0.001567
-0.000268438
0.00177041
-0.000306129
0.00193643
-0.000338837
0.00206589
-0.000364716
0.0021717
-0.000386188
0.00225703
-0.00040509
0.00232796
-0.000421944
0.00239
-0.000437253
0.00244121
-0.000450941
0.00246496
-0.00046109
0.00247664
-0.000468262
0.00249082
-0.000474934
0.00250202
-0.000480118
0.00251935
-0.000484084
0.00254588
-0.000488585
0.00258471
-0.000493803
0.00265319
-0.000501035
0.00274766
-0.000510965
0.0028572
-0.000521931
0.00299853
-0.000534365
0.00318419
-0.000549825
0.00340484
-0.00056691
0.00364281
-0.000582245
0.00388651
-0.000591325
0.00412632
-0.00059252
-0.000555012
0.000390064
-4.27511e-05
0.000774886
-0.000121812
0.00110109
-0.000188553
0.00135563
-0.000242907
0.0015897
-0.000289455
0.0018032
-0.000330753
0.00196819
-0.000365376
0.00210374
-0.000393958
0.00222025
-0.000418474
0.0023164
-0.000439863
0.0023983
-0.000458886
0.0024699
-0.000476054
0.00252717
-0.000491031
0.00256298
-0.0005037
0.00259839
-0.000515728
0.00263699
-0.00052742
0.00266863
-0.000536831
0.00270924
-0.000544723
0.00276585
-0.000553863
0.00283877
-0.000565012
0.00294132
-0.000578184
0.00307265
-0.000593532
0.00322588
-0.000610668
0.00341874
-0.00063038
0.0036568
-0.000653311
0.00392758
-0.000677109
0.00421903
-0.000697646
0.00452198
-0.000709862
0.00483323
-0.000712103
-0.000678487
0.000403646
-4.5718e-05
0.000784102
-0.000129672
0.00110562
-0.000200186
0.00136933
-0.000258672
0.00161363
-0.000308995
0.00182705
-0.000351904
0.00199251
-0.000387329
0.00213278
-0.000417673
0.00225524
-0.000444331
0.00235914
-0.00046776
0.00244947
-0.000488835
0.00252967
-0.000508177
0.00259701
-0.000526018
0.00265816
-0.000543691
0.00272171
-0.000561885
0.0027819
-0.000578489
0.00283868
-0.000592611
0.00290793
-0.000606214
0.0029984
-0.000621447
0.0031083
-0.000638688
0.00324418
-0.00065786
0.00340828
-0.00067941
0.00360275
-0.000703654
0.00384239
-0.000731436
0.00412871
-0.00076299
0.00445025
-0.000796566
0.00480054
-0.000829717
0.00518052
-0.00085966
0.00558687
-0.00088241
-0.000896212
0.00041216
-4.85746e-05
0.000790483
-0.000137535
0.00111336
-0.000212315
0.00138702
-0.00027462
0.00163273
-0.000327663
0.00184325
-0.000372578
0.00201342
-0.000410186
0.00215929
-0.000442783
0.00228693
-0.000471772
0.00239822
-0.000497733
0.00249766
-0.000521528
0.00258963
-0.000544036
0.002677
-0.000566305
0.00276688
-0.000589465
0.00285075
-0.000611937
0.00292315
-0.000630591
0.00300654
-0.000647927
0.00311248
-0.000668116
0.00323633
-0.00069031
0.00337865
-0.000713488
0.00354623
-0.000738633
0.00374323
-0.000766574
0.00397628
-0.000798132
0.00425676
-0.000834208
0.00458329
-0.000874871
0.00494788
-0.000919665
0.00534764
-0.000969249
0.00579349
-0.00102617
0.00627924
-0.00108559
-0.00119446
0.000418574
-5.1412e-05
0.000797936
-0.000145487
0.00112374
-0.000224641
0.00140386
-0.000290776
0.00165116
-0.000346983
0.00186381
-0.00039492
0.00204209
-0.000435868
0.00219654
-0.000471686
0.00233293
-0.000503777
0.00245488
-0.000533016
0.00256761
-0.000560362
0.00267866
-0.000587326
0.00279077
-0.000614649
0.00289693
-0.000640599
0.00298441
-0.000662891
0.00306694
-0.000682845
0.00318125
-0.000705522
0.00332315
-0.00073233
0.00347593
-0.000760298
0.00364681
-0.00078891
0.00384313
-0.000819686
0.00406988
-0.000853642
0.00433592
-0.000891973
0.00464857
-0.000935572
0.00500296
-0.000984059
0.00539243
-0.00103727
0.00581037
-0.0010964
0.00625196
-0.00116318
0.00667496
-0.00122922
-0.0017109
0.000443261
-0.000226022
0.000706013
-0.000200866
0.00108292
-0.000219498
0.00152999
-0.000237413
0.00200618
-0.000253059
0.00247726
-0.000265136
0.00291417
-0.00027288
0.00330206
-0.000275581
0.00363313
-0.00027347
0.00390559
-0.00026746
0.00412434
-0.00025933
0.00429275
-0.000250046
0.00441202
-0.000239359
0.00448431
-0.000227668
0.0045114
-0.000215808
0.00449498
-0.00020342
0.00443892
-0.000190545
0.00434719
-0.000178242
0.00422046
-0.00016582
0.00405949
-0.000153591
0.0038592
-0.000142089
0.0035977
-0.000132057
0.00327788
-0.000121788
0.00293306
-0.000107871
0.00256156
-9.29518e-05
0.00215495
-7.96776e-05
0.00170564
-6.56251e-05
0.00119016
-4.88022e-05
0.000614251
-3.02522e-05
-1.0496e-05
0.000610034
-0.000367631
0.000862214
-0.000370546
0.00122613
-0.000415538
0.00165779
-0.000455807
0.00212077
-0.00048888
0.00257825
-0.00051392
0.00300022
-0.000529548
0.00337423
-0.000535074
0.00369412
-0.000531652
0.00395792
-0.000521794
0.00416867
-0.00050765
0.00432952
-0.00049002
0.00444258
-0.000469504
0.00451024
-0.000447784
0.00453322
-0.000425715
0.00451262
-0.000401295
0.00445223
-0.000372846
0.00435675
-0.000342471
0.00422749
-0.000314742
0.0040645
-0.000291212
0.00386121
-0.000271492
0.00359944
-0.000254851
0.00328433
-0.000235687
0.00293924
-0.000210768
0.00256157
-0.000183696
0.0021564
-0.000157104
0.00171355
-0.000129539
0.00119458
-9.75682e-05
0.000613986
-6.07318e-05
-2.08616e-05
0.000876397
-0.000464144
0.00112816
-0.000513529
0.00148098
-0.000588596
0.0018934
-0.000653602
0.00233461
-0.000705071
0.00276569
-0.000742373
0.00315986
-0.000764664
0.00350944
-0.000772849
0.00380936
-0.000769299
0.00405621
-0.000756986
0.00425108
-0.00073782
0.00439801
-0.000713058
0.00449988
-0.000684608
0.00455953
-0.00065544
0.00457473
-0.000625056
0.00454695
-0.000589612
0.00448056
-0.00054919
0.00437859
-0.00050633
0.00424348
-0.00046624
0.00407398
-0.000431487
0.00386415
-0.000401307
0.00360233
-0.000373902
0.00329216
-0.000343749
0.002947
-0.000308913
0.00256341
-0.00027114
0.00215619
-0.000231053
0.00171985
-0.000189526
0.00120321
-0.000143924
0.000617629
-9.05277e-05
-3.1088e-05
0.00118868
-0.000572237
0.00146094
-0.000656156
0.00181337
-0.000754429
0.00220867
-0.000838267
0.00262183
-0.000903972
0.0030179
-0.000950727
0.00337746
-0.00097875
0.00369634
-0.000989729
0.00396885
-0.000986117
0.00419074
-0.000971065
0.00436372
-0.0009475
0.00449251
-0.000917347
0.00457914
-0.000882169
0.00462582
-0.000844793
0.00462965
-0.000805773
0.00459402
-0.000763541
0.00452139
-0.000717661
0.00441157
-0.000667767
0.00426851
-0.00061841
0.0040904
-0.000573223
0.00387276
-0.0005312
0.00360893
-0.000490551
0.00329972
-0.000448131
0.00295458
-0.000403179
0.0025698
-0.000355107
0.00215578
-0.00030201
0.00171868
-0.0002457
0.00121043
-0.000185579
0.0006232
-0.000117195
-4.05223e-05
0.00153861
-0.000717876
0.00184258
-0.00081176
0.00219822
-0.00092051
0.00257577
-0.00101348
0.00295695
-0.00108718
0.0033159
-0.00114006
0.0036394
-0.00117272
0.00392339
-0.00118628
0.004162
-0.00118238
0.00435329
-0.00116453
0.00450106
-0.00113734
0.00460857
-0.00110328
0.00467605
-0.0010627
0.00470294
-0.00101607
0.00469197
-0.000966744
0.00464863
-0.00091895
0.00456931
-0.000869753
0.00445164
-0.000815301
0.00429988
-0.000759248
0.00411353
-0.000705279
0.00388865
-0.000653183
0.00362055
-0.000601356
0.00330747
-0.000547579
0.0029617
-0.000491668
0.0025815
-0.000433298
0.00216419
-0.000369258
0.00171835
-0.000299591
0.00120616
-0.000224771
0.000618129
-0.000141406
-4.88661e-05
0.00193321
-0.000883527
0.00226094
-0.000973013
0.0026137
-0.0010827
0.00297258
-0.00117909
0.00332178
-0.0012571
0.00364484
-0.00131338
0.00393303
-0.00134864
0.00417958
-0.00136353
0.00438059
-0.00135918
0.00453836
-0.00133917
0.00465854
-0.00130881
0.0047423
-0.0012716
0.00478789
-0.00122767
0.00479264
-0.00117597
0.00476454
-0.00111963
0.00470834
-0.00106312
0.00461983
-0.00100637
0.0044956
-0.000948701
0.00433538
-0.000889081
0.00414111
-0.000828178
0.00390942
-0.000767516
0.00363637
-0.00070609
0.00331832
-0.000642189
0.00297026
-0.000575003
0.00259578
-0.000505701
0.00217895
-0.00043283
0.00171906
-0.000352706
0.00119152
-0.000263673
0.000601641
-0.000164362
-5.63138e-05
0.00236569
-0.00103364
0.00269993
-0.00112872
0.00304518
-0.00123822
0.00338779
-0.00133735
0.00370848
-0.00141791
0.00399879
-0.00147544
0.00425161
-0.0015107
0.00445772
-0.00152434
0.00461934
-0.00151822
0.00474167
-0.00149622
0.00483129
-0.00146302
0.00488991
-0.00142312
0.00491276
-0.00137732
0.00489694
-0.00132376
0.00485082
-0.00126412
0.00477646
-0.00120111
0.00467475
-0.00113697
0.00454255
-0.00107386
0.00437438
-0.00100947
0.0041723
-0.000942593
0.00393385
-0.000874503
0.00365576
-0.000804717
0.00333516
-0.00073207
0.00298292
-0.000655591
0.00260582
-0.000576465
0.00218987
-0.000494659
0.00172241
-0.000404857
0.00118259
-0.000302377
0.000589638
-0.00018745
-6.3987e-05
0.00281997
-0.00116334
0.00315278
-0.0012832
0.00349468
-0.00139505
0.00382433
-0.00149578
0.00411986
-0.00157508
0.00438041
-0.00163009
0.00459364
-0.00166202
0.00475249
-0.00167098
0.00487224
-0.00166049
0.00495724
-0.00163561
0.00501363
-0.00159988
0.00504744
-0.00155841
0.0050475
-0.00151214
0.00500918
-0.00145665
0.00494433
-0.00139357
0.0048531
-0.00132726
0.0047369
-0.00125928
0.00459314
-0.00119063
0.00441638
-0.00112042
0.0042064
-0.00104796
0.00396111
-0.000973444
0.00367761
-0.000896406
0.003354
-0.000815936
0.00299614
-0.000731634
0.00261167
-0.00064448
0.00219857
-0.000553522
0.00173416
-0.00045339
0.00118862
-0.000339051
0.000592065
-0.000210478
-7.19601e-05
0.0033004
-0.00130931
0.00363795
-0.00145604
0.0039821
-0.00156698
0.00429518
-0.00166189
0.00455813
-0.0017309
0.00477754
-0.0017745
0.00494325
-0.00179739
0.00505353
-0.00180032
0.00512965
-0.00178501
0.00517601
-0.00175645
0.00519764
-0.00171785
0.00520612
-0.00167469
0.00518381
-0.00162876
0.00512157
-0.00157297
0.00503766
-0.00150752
0.00493157
-0.00143852
0.00480184
-0.0013677
0.00464584
-0.00129519
0.00445984
-0.0012206
0.00424198
-0.00114345
0.00398992
-0.00106356
0.00370057
-0.000980344
0.00337096
-0.000892828
0.00300511
-0.000800903
0.00261852
-0.000706341
0.00221324
-0.00060739
0.00174923
-0.000497218
0.0011951
-0.000371188
0.0005946
-0.000230031
-7.85369e-05
0.00384512
-0.00151269
0.00419262
-0.00166018
0.00452947
-0.00175824
0.00480783
-0.00183409
0.00501738
-0.00188238
0.00516832
-0.00190606
0.00527649
-0.00191309
0.00534605
-0.00190792
0.00538007
-0.00188913
0.00538781
-0.00185787
0.00537381
-0.0018166
0.0053517
-0.00177026
0.00530789
-0.00172328
0.00522792
-0.00166944
0.00512683
-0.00160475
0.00500683
-0.00153463
0.00486477
-0.00146222
0.00469782
-0.0013873
0.00450288
-0.00130959
0.00427747
-0.00122879
0.00401895
-0.00114456
0.0037237
-0.0010562
0.00338584
-0.00096226
0.00301057
-0.000862469
0.00263001
-0.000760359
0.00223539
-0.00065516
0.00175937
-0.000536959
0.00118655
-0.000399144
0.000581111
-0.000245095
-8.29902e-05
0.00449753
-0.00176346
0.00483988
-0.00188219
0.00513595
-0.00195311
0.00534877
-0.00199752
0.00548308
-0.00201839
0.00555247
-0.00202086
0.00559471
-0.00201167
0.00561992
-0.00199607
0.00561322
-0.00197285
0.00558403
-0.00193992
0.00553541
-0.00189735
0.00547766
-0.00184828
0.00541276
-0.00179906
0.00532322
-0.00174711
0.0052087
-0.00168515
0.00507663
-0.00161577
0.00492373
-0.00154306
0.00474713
-0.00146694
0.00454398
-0.0013873
0.00431159
-0.00130388
0.00404717
-0.00121632
0.00374679
-0.00112389
0.00340241
-0.00102495
0.00302013
-0.000918242
0.00264265
-0.000807574
0.00225135
-0.00069541
0.0017619
-0.000571312
0.00117027
-0.000424308
0.000558429
-0.000258458
-8.67087e-05
0.00525851
-0.00200741
0.00555512
-0.00208745
0.00576224
-0.00212151
0.00587845
-0.00212929
0.00592444
-0.00212278
0.00592012
-0.00210775
0.00589664
-0.00208745
0.00586682
-0.00206406
0.00582017
-0.00203686
0.00575805
-0.00200315
0.00568024
-0.00196141
0.00559052
-0.00191259
0.0055043
-0.001862
0.00540661
-0.00181026
0.00528208
-0.00175081
0.00513981
-0.00168341
0.00497749
-0.00161138
0.00479246
-0.00153506
0.004582
-0.00145445
0.00434338
-0.00136935
0.00407379
-0.0012794
0.00376962
-0.0011839
0.0034244
-0.00108158
0.00304068
-0.000970804
0.0026538
-0.000853289
0.00225113
-0.000732187
0.00175699
-0.000600663
0.00116128
-0.000447098
0.000546651
-0.00027292
-9.15977e-05
0.0060641
-0.00219751
0.00625958
-0.00224232
0.00633644
-0.00223371
0.00634116
-0.00220898
0.00630009
-0.00218377
0.00623296
-0.00215936
0.00615485
-0.00213473
0.00607628
-0.0021092
0.00599526
-0.00208144
0.00590674
-0.00204888
0.00580803
-0.0020099
0.00569786
-0.0019644
0.00559184
-0.001915
0.00548141
-0.00186302
0.00534811
-0.00180509
0.00519682
-0.00173997
0.00502616
-0.00166923
0.00483366
-0.00159341
0.00461668
-0.00151257
0.00437252
-0.00142654
0.00409842
-0.00133496
0.00379132
-0.00123718
0.00344742
-0.00113221
0.00306682
-0.00101895
0.0026679
-0.000897466
0.00224465
-0.00076858
0.00174896
-0.000628441
0.001166
-0.000469095
0.000557246
-0.000289408
-9.81929e-05
0.00679794
-0.0023324
0.00685463
-0.00232361
0.00679124
-0.0022684
0.00669521
-0.00222631
0.00658488
-0.00219847
0.00647053
-0.00217652
0.00635605
-0.00215573
0.00624618
-0.00213376
0.0061402
-0.002109
0.00603232
-0.00207964
0.00591905
-0.0020445
0.00579814
-0.00200337
0.00567684
-0.00195723
0.00555088
-0.00190658
0.00540825
-0.0018501
0.00524859
-0.00178708
0.00507033
-0.00171801
0.00487108
-0.00164319
0.00464821
-0.00156269
0.00439906
-0.00147633
0.00412093
-0.00138376
0.00381116
-0.00128435
0.00346716
-0.00117728
0.0030889
-0.00106161
0.0026826
-0.000936834
0.00224291
-0.000802369
0.00174555
-0.000655183
0.00118046
-0.000490325
0.000581989
-0.000305761
-0.000104995
0.00745119
-0.00252418
0.00729519
-0.00217385
0.00710731
-0.00217821
0.00694025
-0.00217576
0.00678706
-0.00217184
0.00664491
-0.00216518
0.00651069
-0.00215503
0.00638338
-0.00214089
0.00626107
-0.00212208
0.00613939
-0.0020978
0.00601503
-0.00206745
0.00588606
-0.00203091
0.00575356
-0.00198855
0.00561449
-0.00194057
0.00546256
-0.00188644
0.0052951
-0.00182579
0.00510991
-0.00175871
0.00490452
-0.00168534
0.00467631
-0.00160565
0.00442264
-0.00151948
0.0041409
-0.00142644
0.00382857
-0.00132595
0.00348348
-0.00121724
0.00310486
-0.0010994
0.00269382
-0.000971567
0.00224558
-0.00083254
0.00174732
-0.000679741
0.00119445
-0.00050957
0.000603073
-0.000319472
-0.000110339
0.000440765
-5.43118e-05
0.000837696
-0.000153679
0.00117967
-0.000237357
0.00147665
-0.000307456
0.00173824
-0.00036721
0.00196534
-0.000418599
0.00216068
-0.000463141
0.00233232
-0.000502542
0.00248634
-0.000538254
0.00262743
-0.000571329
0.00276299
-0.000602883
0.00290121
-0.000634305
0.00303356
-0.000664604
0.00314217
-0.000690303
0.0032333
-0.000712098
0.00334672
-0.000736467
0.00350157
-0.000766591
0.00367512
-0.000798988
0.00385851
-0.000831334
0.00406121
-0.000864684
0.00429028
-0.000900352
0.00455115
-0.000939389
0.00485279
-0.000983014
0.00519759
-0.00103171
0.0055771
-0.00108439
0.00598377
-0.00114019
0.00640558
-0.00119813
0.00682088
-0.00125475
0.00717888
-0.00129966
-0.00132253
0.00711337
0.000458456
-5.7308e-05
0.000869568
-0.000162167
0.00122388
-0.000250496
0.00153471
-0.000324681
0.00181018
-0.000388314
0.00205161
-0.000443546
0.00226327
-0.000491988
0.00245238
-0.000535326
0.00262489
-0.000574977
0.00278545
-0.000611951
0.00294293
-0.000647204
0.0030979
-0.000680732
0.00323513
-0.000711051
0.00334737
-0.000737683
0.0034612
-0.000763971
0.00361461
-0.000794725
0.00380009
-0.000829718
0.00399552
-0.000865483
0.00420352
-0.000901305
0.00443133
-0.000938346
0.00468497
-0.000977614
0.00496946
-0.00101997
0.00529068
-0.00106614
0.00564617
-0.00111602
0.00602611
-0.00116831
0.00642144
-0.00122155
0.00681862
-0.00127393
0.00720089
-0.00132238
0.00754625
-0.00136049
-0.00138711
0.00782306
0.000478663
-6.04214e-05
0.000905781
-0.000170987
0.00127232
-0.000264022
0.0015983
-0.00034232
0.0018909
-0.000410111
0.00214928
-0.000469517
0.00237893
-0.000522012
0.00258677
-0.000569249
0.00277809
-0.000612474
0.00295695
-0.000652585
0.00313036
-0.00069031
0.00329281
-0.000725285
0.00343749
-0.000757173
0.00357248
-0.000787614
0.00372227
-0.000819381
0.00390473
-0.000854247
0.0041074
-0.000891253
0.00432076
-0.000928871
0.00454848
-0.000967072
0.00479537
-0.00100644
0.00506579
-0.00104761
0.00536328
-0.00109107
0.00568945
-0.00113708
0.00603906
-0.00118507
0.0064031
-0.0012339
0.00677114
-0.00128225
0.00712839
-0.00132836
0.00745869
-0.00136942
0.00774048
-0.0014001
-0.00142652
0.00794069
0.000503038
-6.36917e-05
0.000947811
-0.000180018
0.00132459
-0.000277504
0.00166765
-0.000359982
0.00198118
-0.000432319
0.00225798
-0.000495971
0.00250586
-0.000552197
0.00273135
-0.000602765
0.00293934
-0.000648896
0.00313405
-0.000691539
0.00332001
-0.000731451
0.00349408
-0.000768862
0.00365765
-0.000804089
0.00382122
-0.000838382
0.00399913
-0.000873416
0.00419849
-0.000910188
0.0044134
-0.000948387
0.00464115
-0.000987328
0.00488321
-0.00102687
0.00514228
-0.00106724
0.00542076
-0.00110865
0.00572073
-0.00115132
0.00604102
-0.00119536
0.00637511
-0.00124018
0.00671543
-0.0012848
0.00705128
-0.00132801
0.00736747
-0.00136777
0.00764911
-0.0014014
0.00788146
-0.00142581
-0.00145078
0.0080402
0.000528697
-6.67142e-05
0.000993079
-0.000188469
0.0013839
-0.000290794
0.00174605
-0.000378011
0.00208018
-0.000454607
0.00237485
-0.000521871
0.00263975
-0.000581294
0.00288122
-0.000634698
0.00310444
-0.000683391
0.00331407
-0.000728407
0.00351388
-0.000770542
0.00370457
-0.00081031
0.00388935
-0.000848285
0.00407597
-0.00088544
0.00427334
-0.000922859
0.00448608
-0.000961188
0.00471269
-0.00100039
0.00495156
-0.00104014
0.00520297
-0.00108016
0.00546788
-0.00112048
0.00574613
-0.00116081
0.00604058
-0.0012012
0.00634996
-0.00124239
0.00666571
-0.00128382
0.00698035
-0.00132404
0.00728308
-0.00136164
0.00756043
-0.00139474
0.00780126
-0.00142166
0.00799692
-0.00144128
-0.00146286
0.00812877
0.000550903
-6.94237e-05
0.00103775
-0.000196453
0.00145375
-0.000304087
0.00183551
-0.000396001
0.00218518
-0.00047608
0.00249642
-0.000546339
0.00277743
-0.000608631
0.00303426
-0.000664635
0.00327235
-0.000715673
0.00349675
-0.000762851
0.00371127
-0.000807054
0.00391826
-0.000848933
0.00412148
-0.000889114
0.00432685
-0.000928372
0.0045404
-0.000967473
0.00476563
-0.0010069
0.00500272
-0.00104676
0.00524997
-0.00108688
0.00550666
-0.0011267
0.00577089
-0.00116561
0.00604096
-0.00120327
0.0063261
-0.00124086
0.00662402
-0.00127952
0.00692062
-0.00131751
0.00720877
-0.00135287
0.00747933
-0.00138462
0.00772267
-0.00141162
0.00793133
-0.00143302
0.00809974
-0.0014485
-0.00146559
0.00821296
0.000572366
-7.20671e-05
0.00108379
-0.000204245
0.0015284
-0.000316692
0.00192954
-0.00041259
0.0022934
-0.000495844
0.00262083
-0.00056895
0.0029178
-0.000633885
0.0031897
-0.000692266
0.00344211
-0.000745395
0.00368087
-0.000794468
0.00391011
-0.000840494
0.00413253
-0.000884163
0.00435178
-0.000926046
0.00457261
-0.000966781
0.00479947
-0.00100694
0.00503537
-0.00104694
0.00528203
-0.00108707
0.00553353
-0.00112667
0.00578781
-0.00116453
0.00604668
-0.00120075
0.0063089
-0.00123637
0.00658509
-0.00127231
0.00686961
-0.00130822
0.00714556
-0.00134204
0.00740782
-0.00137241
0.00764983
-0.00139879
0.0078651
-0.00142054
0.00804841
-0.00143724
0.00819613
-0.00144888
-0.00146141
0.00829588
0.000595974
-7.44887e-05
0.00113233
-0.000211295
0.00160225
-0.000327954
0.00202305
-0.000427424
0.00240324
-0.000513654
0.00274717
-0.000589409
0.00306027
-0.000656775
0.00334684
-0.000717308
0.00361251
-0.00077222
0.00386494
-0.000822837
0.00410857
-0.000870391
0.00434529
-0.000915518
0.00457835
-0.00095864
0.00481188
-0.00100031
0.00504926
-0.00104097
0.00529308
-0.00108093
0.00554599
-0.00112044
0.00579694
-0.0011585
0.00604391
-0.00119418
0.00629858
-0.00122878
0.00655899
-0.00126332
0.00682524
-0.00129718
0.00709133
-0.00132924
0.0073459
-0.00135842
0.0075845
-0.00138404
0.00780218
-0.00140564
0.00799434
-0.00142282
0.00815745
-0.0014354
0.00828922
-0.00144345
-0.00145169
0.00837915
0.000620653
-7.66149e-05
0.00118165
-0.000217455
0.00167523
-0.000337749
0.00211602
-0.000440354
0.00251369
-0.000529267
0.00287463
-0.000607419
0.0032045
-0.000677018
0.00350529
-0.000739523
0.00378205
-0.000795832
0.00404706
-0.000847504
0.00430501
-0.000896276
0.00455486
-0.000942581
0.00479975
-0.00098655
0.00504379
-0.00102875
0.00528934
-0.00106956
0.00553812
-0.00110912
0.00579157
-0.00114743
0.00604092
-0.00118395
0.00628642
-0.00121858
0.00653822
-0.00125207
0.0067931
-0.00128429
0.00704603
-0.00131467
0.00729257
-0.00134263
0.00752682
-0.00136752
0.00774437
-0.00138883
0.00794129
-0.00140617
0.0081143
-0.00141933
0.00826103
-0.00142821
0.00838015
-0.00143292
-0.00143724
0.0084625
0.000645738
-7.83889e-05
0.00123104
-0.000222596
0.00174735
-0.000345932
0.00220816
-0.000451198
0.0026238
-0.000542424
0.00300216
-0.000622656
0.00335078
-0.000694338
0.00366477
-0.000758492
0.00394772
-0.000815409
0.00422466
-0.000867677
0.00449826
-0.000917735
0.00476039
-0.000965159
0.0050157
-0.00100972
0.00526848
-0.00105216
0.00552036
-0.00109278
0.00577217
-0.00113167
0.00602402
-0.0011688
0.00627246
-0.00120397
0.00651843
-0.00123712
0.00676463
-0.00126845
0.00700849
-0.00129781
0.0072469
-0.00132482
0.00747616
-0.00134906
0.0076921
-0.00137006
0.00789117
-0.00138748
0.00807034
-0.00140105
0.00822726
-0.00141064
0.0083604
-0.00141624
0.00846901
-0.00141792
-0.0014188
0.00854487
0.000670758
-7.97702e-05
0.00127996
-0.000226618
0.00181837
-0.000352377
0.002299
-0.000459796
0.00273259
-0.000552901
0.00312791
-0.000634764
0.00349418
-0.000707822
0.00382072
-0.000772958
0.00411131
-0.000830764
0.00440086
-0.000884181
0.00468863
-0.0009352
0.00496178
-0.000983159
0.00522627
-0.00102796
0.00548592
-0.00107023
0.00574218
-0.00111027
0.00599563
-0.00114818
0.00624617
-0.00118395
0.0064926
-0.00121749
0.00673494
-0.00124878
0.0069734
-0.00127777
0.00720627
-0.00130433
0.00743106
-0.00132819
0.00764483
-0.00134902
0.00784454
-0.00136654
0.00802746
-0.0013805
0.00819136
-0.00139074
0.00833459
-0.00139719
0.00845616
-0.00139986
0.00855573
-0.00139885
-0.00139674
0.00862579
0.000695463
-8.0733e-05
0.00132812
-0.000229453
0.00188813
-0.000356985
0.00238828
-0.000466016
0.00283944
-0.000560535
0.00325041
-0.000643569
0.00362908
-0.000717353
0.00396948
-0.000783211
0.00427804
-0.000842483
0.00458052
-0.000897177
0.0048765
-0.000948386
0.00515836
-0.000996164
0.00543024
-0.00104074
0.00569498
-0.00108251
0.00595396
-0.0011217
0.00620779
-0.00115843
0.00645645
-0.0011927
0.00669943
-0.00122449
0.00693634
-0.00125373
0.00716661
-0.00128036
0.00738881
-0.00130423
0.00760098
-0.00132515
0.00780086
-0.00134292