/*--------------------------------*- C++ -*----------------------------------*\
| =========                 |                                                 |
| \\      /  F ield         | OpenFOAM: The Open Source CFD Toolbox           |
|  \\    /   O peration     | Version:  4.1                                   |
|   \\  /    A nd           | Web:      www.OpenFOAM.org                      |
|    \\/     M anipulation  |                                                 |
\*---------------------------------------------------------------------------*/
FoamFile
{
    version     2.0;
    format      ascii;
    class       volVectorField;
    location    "4.3";
    object      Force;
}
// * * * * * * * * * * * * * * * * * * * * * * * * * * * * * * * * * * * * * //

dimensions      [1 1 -2 0 0 0 0];

internalField   uniform (0 0 0);

boundaryField
{
    inlet
    {
        type            calculated;
        value           uniform (0 0 0);
    }
    outlet
    {
        type            calculated;
        value           uniform (0 0 0);
    }
    flap
    {
        type            calculated;
        value           nonuniform List<vector> 
33
(
(3.57531 1.80508e-18 -0.144028)
(3.54022 -1.76845e-18 -0.288398)
(3.50601 1.73671e-18 -0.409893)
(3.46709 -4.63006e-18 -0.492274)
(3.41926 -2.92796e-18 -0.547121)
(3.36109 1.68482e-18 -0.580373)
(3.29363 1.64812e-18 -0.596868)
(3.21717 -1.65274e-18 -0.601471)
(3.12781 7.80568e-23 -0.599485)
(3.0193 1.64659e-18 -0.594075)
(2.88336 -1.64319e-18 -0.584221)
(2.70886 7.17615e-21 -0.565876)
(2.47815 1.61169e-18 -0.531466)
(2.15622 -2.97339e-18 -0.468699)
(1.65072 -1.8242e-21 -0.359173)
(0.122336 -3.18107e-21 0.544675)
(0.0689493 -8.1118e-19 0.311576)
(0.0205221 6.7814e-20 0.100557)
(-0.0238656 -1.83671e-40 0.000930356)
(-0.0227878 1.59824e-20 0.0017295)
(-0.0216228 -3.67342e-40 0.002305)
(-0.0207384 -1.52937e-18 0.00263121)
(-0.0202593 -1.6475e-23 0.00285229)
(-0.0201617 -2.93874e-39 0.00303152)
(-0.0205604 3.21118e-18 0.00323404)
(-0.0217461 1.58221e-18 0.00355777)
(-0.0239585 -3.30126e-20 0.00409702)
(-0.0271165 2.51482e-24 0.00488063)
(-0.0308906 -1.49981e-24 0.00587675)
(-0.0349957 1.62474e-18 0.00703038)
(-0.0390302 5.33528e-20 0.00827823)
(-0.0416838 -1.64391e-18 0.00927713)
(-0.0423312 5.65954e-20 0.00989678)
)
;
    }
    upperWall
    {
        type            calculated;
        value           uniform (0 0 0);
    }
    lowerWall
    {
        type            calculated;
        value           uniform (0 0 0);
    }
    frontAndBack
    {
        type            empty;
    }
}


// ************************************************************************* //
