/*--------------------------------*- C++ -*----------------------------------*\
| =========                 |                                                 |
| \\      /  F ield         | OpenFOAM: The Open Source CFD Toolbox           |
|  \\    /   O peration     | Version:  5.x                                   |
|   \\  /    A nd           | Web:      www.OpenFOAM.org                      |
|    \\/     M anipulation  |                                                 |
\*---------------------------------------------------------------------------*/
FoamFile
{
    version     2.0;
    format      ascii;
    class       surfaceVectorField;
    location    "4.3";
    object      Uf;
}
// * * * * * * * * * * * * * * * * * * * * * * * * * * * * * * * * * * * * * //

dimensions      [0 1 -1 0 0 0 0];

internalField   nonuniform List<vector> 
5457
(
(9.91685 3.65093e-21 0.0241268)
(9.96223 7.02216e-21 0.0376859)
(9.81956 -1.91563e-22 0.0308327)
(9.92497 -1.78393e-20 0.045412)
(9.70772 -1.89909e-20 0.0364097)
(9.85808 3.2846e-20 0.053891)
(9.57883 -2.28855e-20 0.0422401)
(9.76506 -4.49721e-20 0.064094)
(9.43286 1.26171e-20 0.0483038)
(9.65305 -1.55099e-20 0.0748819)
(9.27003 2.80701e-21 0.0546323)
(9.52422 1.61011e-20 0.0861624)
(9.09011 9.58862e-22 0.0613622)
(9.378 -2.07143e-20 0.0981684)
(8.89256 5.20691e-20 0.0686345)
(9.21349 -4.89713e-20 0.111129)
(8.67659 3.4573e-20 0.0765747)
(9.02993 1.04468e-19 0.125239)
(8.44121 -4.33906e-20 0.0853031)
(8.82653 1.44011e-19 0.14068)
(8.18531 -1.24626e-19 0.0949455)
(8.60231 -1.76488e-19 0.157633)
(7.90762 -5.58499e-21 0.105636)
(8.35607 -8.09317e-20 0.176296)
(7.60676 -1.81403e-20 0.117512)
(8.08654 8.30495e-20 0.196863)
(7.28128 2.93931e-20 0.130712)
(7.79227 2.47424e-19 0.219517)
(6.92971 1.13427e-19 0.14537)
(7.47179 -2.53173e-19 0.244423)
(6.55062 2.63334e-19 0.161603)
(7.12359 3.22701e-19 0.271709)
(6.14274 3.53425e-20 0.179496)
(6.74626 -6.52352e-19 0.301421)
(5.7051 -2.1395e-19 0.19909)
(6.33853 1.84145e-19 0.333499)
(5.23713 0 0.220354)
(5.89949 0 0.367754)
(4.73894 0 0.24314)
(5.42873 1.02322e-18 0.403776)
(4.21152 -1.44933e-19 0.267158)
(4.9265 1.31829e-20 0.440853)
(3.65703 -1.40924e-19 0.29194)
(4.394 -1.03123e-18 0.477953)
(3.07902 0 0.316769)
(3.8338 0 0.513649)
(2.48276 0 0.340667)
(3.24993 -2.64722e-18 0.545962)
(1.87549 1.60811e-18 0.362774)
(2.64837 2.19544e-18 0.572432)
(1.26584 2.67083e-19 0.384729)
(2.03765 1.58958e-18 0.590824)
(0.659225 -3.19699e-18 0.386608)
(1.43331 -1.66109e-18 0.602704)
(0.0679001 6.3855e-19 0.095089)
(0.823775 -2.68611e-18 0.593846)
(-0.173025 3.53537e-18 -0.256531)
(0.267118 2.07231e-18 0.238995)
(0.140342 -9.65482e-19 -0.171843)
(9.9991 -1.48711e-20 0.0485851)
(9.99034 7.02246e-21 0.0380947)
(9.96482 1.60078e-20 0.0650208)
(9.97934 -7.17445e-21 0.0614122)
(9.90976 5.65642e-21 0.0796034)
(9.94262 3.6518e-20 0.08042)
(9.83578 -3.71377e-20 0.095162)
(9.88039 -2.98295e-20 0.100882)
(9.74276 -1.15347e-20 0.111656)
(9.79853 -3.50899e-23 0.122605)
(9.63072 -7.98583e-21 0.129113)
(9.69935 -3.93614e-21 0.145454)
(9.49948 -7.10746e-20 0.14782)
(9.58256 -2.86921e-23 0.169782)
(9.34859 5.75233e-21 0.168096)
(9.44739 -6.91854e-20 0.196021)
(9.17733 2.14503e-19 0.190232)
(9.29318 -6.73527e-20 0.224564)
(8.98478 6.10449e-21 0.214502)
(9.11925 2.83804e-19 0.255782)
(8.76987 -1.31369e-19 0.241187)
(8.92472 -1.42482e-19 0.290048)
(8.53137 1.01549e-20 0.270581)
(8.70851 -3.03768e-19 0.327759)
(8.2679 3.51072e-19 0.302969)
(8.46943 2.82153e-19 0.369318)
(7.978 -4.25687e-20 0.338617)
(8.20615 3.3626e-19 0.415119)
(7.66014 -3.54016e-20 0.377746)
(7.91721 -1.05117e-18 0.465521)
(7.3128 -6.07437e-19 0.420496)
(7.60112 9.80916e-19 0.520813)
(6.93455 -4.91384e-19 0.466866)
(7.25642 -7.50651e-20 0.581151)
(6.52419 3.95474e-19 0.516677)
(6.88165 -3.66753e-19 0.646475)
(6.08087 1.03816e-18 0.569497)
(6.47557 -2.02477e-19 0.716462)
(5.60432 1.02238e-18 0.624511)
(6.0374 9.16482e-19 0.790398)
(5.09507 -8.87147e-19 0.680419)
(5.56676 1.31865e-20 0.866958)
(4.55478 -8.75945e-19 0.73537)
(5.06398 -8.88263e-19 0.944101)
(3.98657 -2.68217e-18 0.786758)
(4.53067 2.51142e-19 1.01895)
(3.39542 -3.93721e-19 0.830975)
(3.96983 -2.37888e-18 1.08739)
(2.78912 2.17066e-18 0.86314)
(3.38618 1.91236e-18 1.14358)
(2.18063 -3.70468e-19 0.875854)
(2.78747 4.89995e-18 1.17902)
(1.59826 -1.16027e-18 0.846766)
(2.1874 -5.60123e-18 1.1775)
(1.09928 -1.22764e-18 0.712677)
(1.58359 5.61124e-18 1.0896)
(0.486607 -2.47681e-18 0.303257)
(1.02041 -6.69672e-18 0.835651)
(0.515763 -1.0823e-18 0.324173)
(9.9918 1.44796e-20 0.0540849)
(9.98806 0 0.0418146)
(9.96081 1.40387e-20 0.0799166)
(9.97453 1.42676e-20 0.0758842)
(9.90932 0 0.104368)
(9.9388 0 0.105241)
(9.84018 7.74192e-21 0.130222)
(9.87952 0 0.135275)
(9.75378 7.50463e-21 0.157703)
(9.80147 7.62305e-21 0.166949)
(9.65008 4.08149e-21 0.186932)
(9.70702 0 0.200351)
(9.52896 8.10881e-22 0.218309)
(9.59612 4.02011e-21 0.235901)
(9.39009 -1.42262e-19 0.252315)
(9.46818 -1.04888e-21 0.274175)
(9.23291 7.21507e-21 0.289416)
(9.32267 -1.32933e-19 0.315745)
(9.0567 1.28845e-19 0.330066)
(9.1591 -1.39875e-19 0.361157)
(8.86052 -3.17285e-19 0.374738)
(8.97676 2.76937e-19 0.410962)
(8.64332 -2.30812e-20 0.423919)
(8.7748 -3.03833e-19 0.465737)
(8.40393 2.68153e-19 0.478107)
(8.55228 2.72334e-19 0.526077)
(8.14102 -6.92922e-19 0.537776)
(8.30809 7.96235e-20 0.592591)
(7.85317 -4.97726e-21 0.603338)
(8.04106 -6.8299e-19 0.665848)
(7.53891 1.49794e-18 0.675092)
(7.74989 5.07022e-20 0.746329)
(7.19675 4.55435e-20 0.753134)
(7.4333 1.63905e-18 0.834376)
(6.82523 -9.62616e-19 0.837259)
(7.08989 -5.82002e-19 0.930057)
(6.42311 -3.08074e-19 0.926867)
(6.71827 1.87928e-19 1.03305)
(5.98946 -1.05421e-19 1.02076)
(6.31732 -1.7526e-18 1.14252)
(5.52386 0 1.11691)
(5.8861 1.9056e-19 1.25684)
(5.02666 2.54544e-19 1.21227)
(5.4239 -2.05551e-18 1.37325)
(4.49938 5.1964e-19 1.3025)
(4.93081 3.77635e-18 1.4877)
(3.94508 -2.15929e-20 1.38126)
(4.40786 -2.28993e-19 1.59428)
(3.36901 4.67156e-18 1.43936)
(3.8568 2.47342e-19 1.68414)
(2.77946 -4.24163e-19 1.46248)
(3.28056 5.45713e-18 1.74431)
(2.18564 1.24116e-18 1.42277)
(2.6835 -5.82708e-18 1.75449)
(1.57769 9.07599e-20 1.27436)
(2.05919 -4.04528e-18 1.67944)
(0.899443 -5.2013e-18 0.976302)
(1.38561 5.18764e-18 1.48232)
(0.792211 9.2233e-19 1.11574)
(9.98765 0 0.0639533)
(9.98679 0 0.0474155)
(9.95667 0 0.100372)
(9.97147 0 0.0903562)
(9.9061 0 0.135276)
(9.93554 5.77225e-20 0.129627)
(9.83807 0 0.171195)
(9.87733 0 0.169131)
(9.75333 0 0.20889)
(9.80085 9.08208e-20 0.210455)
(9.65196 0 0.248762)
(9.70837 -1.38605e-19 0.254034)
(9.5339 2.08315e-21 0.291369)
(9.60002 2.38491e-19 0.30037)
(9.39897 6.30165e-21 0.337361)
(9.4753 -2.57079e-19 0.350145)
(9.24678 -2.80133e-19 0.387383)
(9.33379 2.1206e-21 0.404077)
(9.0768 1.4404e-20 0.442071)
(9.17513 -2.71548e-19 0.462855)
(8.88836 2.81857e-19 0.502075)
(8.99879 3.03831e-19 0.527173)
(8.68069 1.20688e-22 0.56807)
(8.80415 0 0.59775)
(8.45292 8.09208e-20 0.640751)
(8.5905 -5.71029e-19 0.675336)
(8.20409 7.84741e-20 0.720806)
(8.35701 1.25356e-18 0.760702)
(7.93314 -6.1662e-19 0.808865)
(8.10283 -1.37775e-18 0.854598)
(7.63895 2.14494e-19 0.905439)
(7.82702 -2.39863e-20 0.957691)
(7.32031 9.79596e-19 1.01083)
(7.52857 7.14724e-19 1.07051)
(6.97593 5.79956e-19 1.12498)
(7.20638 -1.7587e-19 1.19333)
(6.60452 -1.28414e-18 1.24732)
(6.85924 -1.5054e-18 1.32596)
(6.2049 -1.43057e-18 1.37658)
(6.48594 -8.57676e-20 1.4676)
(5.77599 -1.89624e-18 1.51043)
(6.08522 -1.49664e-20 1.6166)
(5.31693 1.54117e-18 1.64514)
(5.65572 -2.26786e-18 1.76998)
(4.82735 2.97865e-18 1.77524)
(5.19609 3.52694e-18 1.92307)
(4.3074 4.48526e-20 1.89266)
(4.70515 -2.53028e-20 2.06904)
(3.75751 1.09065e-18 1.98579)
(4.1813 -3.44675e-18 2.19785)
(3.17747 -4.94452e-20 2.03808)
(3.62219 1.20985e-17 2.29556)
(2.56215 -1.10802e-17 2.0243)
(3.02431 1.64399e-20 2.34379)
(1.89421 1.07369e-18 1.91441)
(2.37846 -2.05882e-17 2.31611)
(1.13936 1.1212e-17 1.69223)
(1.64618 1.13759e-17 2.19173)
(0.946337 0 1.95211)
(9.9856 0 0.0744475)
(9.98616 0 0.0539472)
(9.95416 5.86486e-20 0.11993)
(9.96989 0 0.105047)
(9.90441 5.68142e-20 0.164103)
(9.93394 5.77519e-20 0.153624)
(9.83758 9.22442e-20 0.209265)
(9.87681 -5.86042e-20 0.202399)
(9.75448 -5.13272e-20 0.256564)
(9.80205 1.50775e-19 0.253137)
(9.65529 1.05653e-19 0.306637)
(9.71173 -1.53904e-19 0.306589)
(9.53996 -2.81836e-20 0.360155)
(9.60604 2.54259e-19 0.363378)
(9.40833 -2.57403e-19 0.417872)
(9.48453 -4.04207e-22 0.424293)
(9.26009 6.6527e-21 0.480549)
(9.34681 -2.67639e-19 0.490172)
(9.09479 2.6433e-20 0.548933)
(9.1926 8.05368e-23 0.561814)
(8.91195 1.74477e-20 0.623792)
(9.02148 5.62989e-19 0.640016)
(8.71097 -5.79591e-19 0.705926)
(8.83297 -5.7347e-19 0.72562)
(8.49118 6.28219e-19 0.796158)
(8.6265 -5.71394e-19 0.819509)
(8.25188 -2.40728e-19 0.895316)
(8.40141 1.25098e-18 0.922563)
(7.99231 -7.65862e-19 1.00419)
(8.15706 -2.2598e-20 1.03567)
(7.71164 4.87083e-19 1.12345)
(7.89274 -6.36476e-19 1.15966)
(7.40898 -4.53888e-19 1.25361)
(7.60768 -2.5653e-19 1.29522)
(7.08333 -2.28064e-18 1.39479)
(7.30102 -1.12874e-20 1.44282)
(6.73353 -2.88097e-19 1.54659)
(6.97179 -1.5332e-18 1.6025)
(6.35831 1.33201e-18 1.70784)
(6.61877 1.56213e-18 1.77363)
(5.95623 -4.1702e-19 1.87626)
(6.24048 -2.05773e-19 1.95474)
(5.52553 -2.08613e-19 2.04801)
(5.83511 1.99102e-19 2.14304)
(5.06414 4.77788e-19 2.21724)
(5.40029 -3.42248e-18 2.33394)
(4.56944 -3.55439e-18 2.37539)
(4.93294 7.1399e-18 2.5206)
(4.03768 7.71343e-18 2.51043)
(4.42881 -7.68588e-18 2.69316)
(3.46307 1.20584e-17 2.60659)
(3.88187 1.20287e-17 2.83823)
(2.83559 -9.62351e-18 2.64295)
(3.28423 6.15121e-19 2.93936)
(2.1386 -1.01255e-17 2.5972)
(2.62679 -9.60473e-18 2.9742)
(1.35229 0 2.45727)
(1.87238 -2.9869e-19 2.92534)
(1.09245 0 2.77768)
(9.98463 0 0.0853001)
(9.98588 -8.32602e-20 0.0609169)
(9.95299 2.31691e-23 0.139308)
(9.96926 8.44265e-20 0.119839)
(9.90421 -5.94982e-20 0.19251)
(9.93365 2.28069e-23 0.177162)
(9.83894 3.18145e-21 0.246897)
(9.87781 -1.16902e-19 0.234905)
(9.75789 4.35092e-20 0.303758)
(9.80507 3.01332e-20 0.29479)
(9.6613 9.17918e-22 0.363899)
(9.71736 2.29059e-19 0.35779)
(9.54915 2.78197e-19 0.4281)
(9.61481 -2.32638e-19 0.424689)
(9.42124 -1.45875e-20 0.497218)
(9.49695 2.5885e-19 0.496395)
(9.2773 -2.70296e-19 0.572111)
(9.36351 -2.65622e-19 0.573826)
(9.11699 5.44978e-19 0.653627)
(9.21426 -1.68872e-20 0.657865)
(8.9399 -4.44848e-20 0.742642)
(9.04885 1.10008e-18 0.749405)
(8.74556 -5.65311e-19 0.840077)
(8.86686 -1.70844e-18 0.849397)
(8.5334 7.76165e-20 0.946875)
(8.66781 6.16921e-19 0.958841)
(8.30285 1.45103e-18 1.06398)
(8.45116 1.18725e-21 1.07873)
(8.05328 9.88212e-20 1.1923)
(8.21632 1.35679e-18 1.21005)
(7.78405 -1.37559e-18 1.33267)
(7.96273 -1.22169e-18 1.35376)
(7.49445 1.89625e-19 1.48577)
(7.68971 -3.66265e-21 1.51071)
(7.18365 7.16143e-19 1.65193)
(7.3965 1.80718e-19 1.68154)
(6.85059 3.59576e-19 1.83102)
(7.08228 3.62961e-19 1.86655)
(6.4939 0 2.0221)
(6.7458 -3.10915e-18 2.06548)
(6.11181 4.15786e-19 2.22319)
(6.38531 2.99427e-18 2.27713)
(5.70194 -3.05965e-18 2.43081)
(5.99863 2.34354e-20 2.49919)
(5.26096 3.36081e-18 2.63943)
(5.58264 -3.82728e-18 2.72767)
(4.78427 2.85135e-18 2.84093)
(5.13296 7.09577e-18 2.9564)
(4.26548 -3.17515e-18 3.02394)
(4.64357 3.3272e-18 3.17631)
(3.69595 4.88455e-19 3.17395)
(4.10632 -6.36391e-18 3.37497)
(3.06438 5.62031e-19 3.27254)
(3.51093 0 3.53695)
(2.35582 2.55089e-19 3.29851)
(2.84851 3.0347e-19 3.64129)
(1.56075 -2.93326e-19 3.23445)
(2.09123 -1.56579e-19 3.66558)
(1.24602 -1.01383e-17 3.59195)
(9.98429 3.73519e-21 0.0962858)
(9.98579 -2.78435e-20 0.0680436)
(9.95282 8.30866e-20 0.158433)
(9.96925 8.42095e-20 0.134554)
(9.90519 -5.92112e-20 0.220274)
(9.93434 5.69794e-20 0.200156)
(9.84179 -8.76713e-20 0.283551)
(9.88006 -1.16475e-19 0.266501)
(9.76319 2.18755e-19 0.349605)
(9.80966 8.82934e-20 0.335202)
(9.66966 -1.15175e-20 0.419409)
(9.72497 2.74639e-19 0.407402)
(9.56114 -2.44675e-19 0.493873)
(9.62597 -2.48429e-19 0.484058)
(9.43747 0 0.57395)
(9.51225 -2.37789e-19 0.566158)
(9.29847 -8.49703e-21 0.660581)
(9.38369 7.8501e-19 0.65468)
(9.14385 5.54504e-19 0.754707)
(9.2401 -5.27744e-19 0.750596)
(8.97325 -6.04599e-19 0.857302)
(9.08116 8.64391e-21 0.854902)
(8.78624 -4.92919e-19 0.969392)
(8.90647 -5.43783e-20 0.96865)
(8.58234 5.3193e-19 1.09203)
(8.71562 -1.17596e-18 1.09294)
(8.36103 -7.43229e-20 1.22625)
(8.50813 1.09528e-18 1.22887)
(8.12174 0 1.37309)
(8.28348 0 1.37755)
(7.8639 1.67829e-19 1.53352)
(8.04111 1.5493e-19 1.54004)
(7.58683 -1.00141e-20 1.70837)
(7.78039 1.65648e-19 1.71736)
(7.28976 -1.7046e-19 1.89822)
(7.50054 -1.71137e-19 1.91034)
(6.97164 -3.1528e-18 2.10327)
(7.20069 2.5589e-18 2.11957)
(6.63093 -3.85939e-20 2.32297)
(6.87959 -8.70588e-18 2.34524)
(6.2655 2.56723e-18 2.55581)
(6.53527 5.86585e-18 2.58663)
(5.87245 -7.89598e-19 2.79897)
(6.16504 3.55187e-19 2.84206)
(5.44759 3.03868e-20 3.04777)
(5.76523 -1.56911e-20 3.10843)
(4.98509 7.53125e-18 3.29505)
(5.33061 6.40458e-18 3.38063)
(4.47703 5.00632e-20 3.5305)
(4.85397 4.84788e-19 3.65075)
(3.91323 -6.79778e-18 3.74052)
(4.32588 -7.29291e-18 3.9074)
(3.28187 -2.5632e-19 3.90738)
(3.73441 0 4.1355)
(2.56878 -1.10356e-19 4.00759)
(3.06929 -1.54108e-20 4.31427)
(1.76841 -1.0169e-17 4.01403)
(2.31614 8.35516e-18 4.41259)
(1.41098 -1.88047e-17 4.40957)
(9.98433 5.43773e-20 0.107215)
(9.98583 1.65607e-19 0.0751528)
(9.95339 5.76974e-20 0.177163)
(9.96969 -1.12071e-19 0.149026)
(9.90715 -3.00672e-21 0.247241)
(9.93581 5.69914e-20 0.222495)
(9.8459 6.26618e-20 0.319035)
(9.88336 -1.73758e-19 0.297042)
(9.77013 1.47032e-19 0.393922)
(9.81561 2.35451e-19 0.374189)
(9.68004 2.97919e-20 0.47302)
(9.73425 2.70613e-19 0.455225)
(9.5756 -2.41365e-19 0.557352)
(9.63919 -2.43945e-19 0.541238)
(9.45675 5.62369e-19 0.647939)
(9.53017 -2.53519e-19 0.633264)
(9.32335 2.467e-19 0.7458)
(9.4071 1.29035e-18 0.732352)
(9.17517 -1.06619e-18 0.851969)
(9.26986 -1.56527e-18 0.839567)
(9.01187 5.58048e-19 0.967522)
(9.11814 -1.36793e-20 0.956009)
(8.83305 -7.5302e-19 1.09358)
(8.95157 1.1159e-18 1.08284)
(8.63828 -5.8152e-19 1.23128)
(8.7698 -1.72422e-18 1.22123)
(8.4271 1.15502e-18 1.38179)
(8.57241 1.17156e-18 1.37239)
(8.19899 1.57099e-19 1.54627)
(8.35892 1.26096e-18 1.53755)
(7.95335 1.52932e-19 1.72583)
(8.12879 -5.92377e-20 1.71792)
(7.68947 0 1.92149)
(7.88136 1.26304e-18 1.91469)
(7.40648 2.59501e-18 2.13407)
(7.61581 -2.53667e-18 2.12893)
(7.10328 -3.13658e-18 2.36418)
(7.33105 2.56381e-18 2.36152)
(6.77825 -2.62445e-18 2.61179)
(7.02582 -5.59847e-18 2.61315)
(6.42888 3.5886e-18 2.87603)
(6.69806 2.70104e-18 2.88382)
(6.05171 1.12621e-18 3.15494)
(6.34456 5.63169e-19 3.17259)
(5.64193 6.43148e-18 3.44496)
(5.96115 6.22216e-18 3.47745)
(5.19287 -7.03594e-19 3.74017)
(5.54189 6.77797e-18 3.79459)
(4.69554 -6.93546e-18 4.03156)
(5.07869 -6.53102e-18 4.11757)
(4.13864 -4.28228e-19 4.30618)
(4.56098 -6.7938e-18 4.43623)
(3.50943 2.41029e-19 4.54629)
(3.9754 2.04607e-19 4.7357)
(2.79276 8.51551e-18 4.72485)
(3.30775 3.46141e-19 4.99533)
(1.98238 -8.22976e-19 4.80344)
(2.55926 8.21827e-18 5.17404)
(1.5921 -5.6757e-19 5.24739)
(9.98462 -4.97477e-21 0.117941)
(9.98594 1.49688e-22 0.0821285)
(9.95453 -1.1007e-19 0.195366)
(9.97044 -2.2286e-19 0.163111)
(9.90993 -1.17395e-19 0.273282)
(9.93787 0 0.244055)
(9.8511 5.3223e-21 0.353203)
(9.88755 -1.15597e-19 0.326393)
(9.77845 3.59593e-19 0.43654)
(9.82271 1.17336e-19 0.411602)
(9.69217 -1.08697e-20 0.524524)
(9.74497 2.1011e-21 0.501066)
(9.5923 -2.5626e-19 0.618264)
(9.6543 -2.36277e-21 0.595966)
(9.47884 4.97084e-19 0.718841)
(9.5505 1.51712e-20 0.697394)
(9.35168 -5.63159e-19 0.827354)
(9.43349 1.01185e-18 0.806473)
(9.21063 -4.905e-19 0.944934)
(9.30324 -1.55969e-18 0.924364)
(9.05538 5.60285e-19 1.07275)
(9.15938 5.24874e-19 1.05227)
(8.8856 1.05083e-19 1.21203)
(9.00169 3.43759e-20 1.19143)
(8.7009 6.92617e-20 1.36399)
(8.8299 6.99942e-20 1.34311)
(8.50089 1.2785e-18 1.52992)
(8.64358 0 1.5086)
(8.28505 1.02767e-18 1.71112)
(8.44236 -3.95784e-20 1.68929)
(8.05279 1.06868e-18 1.90887)
(8.22566 -1.52192e-19 1.88655)
(7.80335 -1.32249e-18 2.12443)
(7.99283 2.38868e-18 2.10178)
(7.53572 -2.50671e-18 2.3589)
(7.74302 -5.1688e-18 2.33634)
(7.24866 2.23623e-21 2.61327)
(7.47501 4.88116e-18 2.59145)
(6.94043 -1.70906e-19 2.88821)
(7.18733 -2.39855e-18 2.86827)
(6.60834 -3.52281e-19 3.18365)
(6.87787 -5.55959e-21 3.16766)
(6.24844 5.72356e-18 3.49866)
(6.54319 -3.50611e-19 3.48969)
(5.8553 6.57741e-18 3.83098)
(6.17858 5.67523e-18 3.83359)
(5.42152 8.18651e-19 4.17625)
(5.77749 6.06105e-18 4.19711)
(4.93711 -6.39053e-18 4.52698)
(5.33093 -5.69959e-18 4.57562)
(4.38939 -6.09701e-18 4.87118)
(4.82701 -6.37072e-18 4.96072)
(3.76383 3.10899e-19 5.19113)
(4.25066 -8.18877e-20 5.33824)
(3.04259 1.13256e-19 5.45612)
(3.58092 -4.19463e-20 5.68823)
(2.21591 8.27759e-18 5.61594)
(2.8352 2.60438e-20 5.95918)
(1.79733 8.10467e-18 6.12381)
(9.9851 -2.21075e-19 0.128352)
(9.98612 -1.64615e-19 0.0888893)
(9.95609 -1.09245e-19 0.21292)
(9.97143 -5.5558e-20 0.176693)
(9.91337 0 0.298274)
(9.9404 0 0.264723)
(9.85722 0 0.385916)
(9.89246 3.41848e-19 0.354433)
(9.78798 -2.41988e-19 0.477283)
(9.8308 -2.31243e-19 0.447285)
(9.7059 1.05106e-20 0.573691)
(9.757 -2.14781e-21 0.544719)
(9.61106 2.6944e-19 0.67632)
(9.67114 2.40039e-21 0.647992)
(9.5035 5.44445e-19 0.786314)
(9.573 -4.90288e-19 0.758259)
(9.38315 -2.15126e-20 0.904859)
(9.46258 5.03434e-19 0.876717)
(9.24983 -5.14721e-19 1.03317)
(9.33983 -2.32231e-20 1.00463)
(9.10331 -8.09304e-21 1.17251)
(9.20447 -2.10278e-21 1.14326)
(8.94336 -2.54847e-22 1.32418)
(9.05639 -1.07042e-18 1.29393)
(8.76967 -2.48036e-22 1.4895)
(8.8954 1.04046e-18 1.45797)
(8.58186 -1.31947e-18 1.66988)
(8.72112 -3.42496e-20 1.63682)
(8.37946 -1.2224e-18 1.86677)
(8.53322 -1.16255e-18 1.83197)
(8.1619 1.20051e-18 2.08167)
(8.3312 -1.08812e-18 2.045)
(7.92841 -1.55212e-18 2.31607)
(8.11443 2.28899e-18 2.27753)
(7.67795 2.34363e-18 2.57144)
(7.88207 -4.94574e-18 2.53122)
(7.4091 2.39772e-18 2.84921)
(7.6329 7.45374e-18 2.80773)
(7.11995 -2.2079e-18 3.15072)
(7.36527 -2.25185e-18 3.10876)
(6.80771 -7.33958e-21 3.47691)
(7.07697 1.65939e-19 3.43601)
(6.46817 -3.39461e-19 3.82809)
(6.76454 -3.27181e-19 3.79076)
(6.09534 5.16101e-18 4.20357)
(6.42289 -1.66524e-19 4.17376)
(5.68106 -5.72577e-19 4.60091)
(6.04498 5.28149e-18 4.58468)
(5.21422 -5.68385e-18 5.01473)
(5.62089 -4.11583e-19 5.02128)
(4.68013 -2.89946e-19 5.43473)
(5.13705 -1.08604e-17 5.47782)
(4.06122 -4.34797e-19 5.84402)
(4.57618 5.36232e-18 5.94208)
(3.33487 -1.28449e-19 6.20868)
(3.90744 -1.03849e-19 6.39614)
(2.48496 1.85328e-20 6.4672)
(3.16314 -5.03333e-20 6.77818)
(2.03916 2.4367e-20 7.06094)
(9.9857 2.40569e-21 0.138362)
(9.98634 1.08983e-19 0.0953762)
(9.95799 5.45901e-20 0.22972)
(9.9726 -1.09654e-19 0.18968)
(9.91734 3.47242e-19 0.322101)
(9.94331 -1.12284e-22 0.284399)
(9.86411 1.0183e-19 0.417031)
(9.89799 2.28714e-19 0.38104)
(9.79861 1.20876e-20 0.515973)
(9.83977 -2.31311e-19 0.481076)
(9.72108 -1.01602e-20 0.620306)
(9.77022 -5.60865e-20 0.585994)
(9.63167 -7.64741e-19 0.731267)
(9.68951 -2.42042e-21 0.697102)
(9.53045 -5.17189e-19 0.850071)
(9.59743 -9.67303e-20 0.815608)
(9.4174 4.94265e-19 0.977985)
(9.49402 -4.9396e-19 0.942802)
(9.29237 4.90038e-19 1.1163)
(9.37926 3.82911e-21 1.08002)
(9.15525 -1.07942e-18 1.26635)
(9.25301 1.23462e-20 1.22858)
(9.00589 -1.3309e-21 1.42949)
(9.11524 4.96896e-19 1.38983)
(8.84406 9.9266e-19 1.60717)
(8.9658 1.0498e-18 1.56525)
(8.66943 1.0843e-19 1.80092)
(8.80445 -1.07237e-18 1.75635)
(8.48163 -1.02703e-18 2.01234)
(8.63091 7.17333e-20 1.96478)
(8.28013 4.13541e-20 2.24313)
(8.44479 -1.15179e-18 2.19228)
(8.06422 -1.19237e-18 2.49508)
(8.24556 1.23601e-18 2.4407)
(7.83291 3.08597e-19 2.77004)
(8.03245 5.99287e-20 2.71203)
(7.58476 2.69327e-18 3.06995)
(7.80436 2.48195e-19 3.0084)
(7.31774 1.51248e-19 3.39688)
(7.55966 -2.35991e-18 3.33213)
(7.02903 -1.59308e-19 3.75284)
(7.29612 2.37977e-18 3.68576)
(6.71432 -1.52481e-19 4.13961)
(7.01038 -5.61208e-21 4.07194)
(6.36732 3.54161e-21 4.55841)
(6.69736 1.57284e-19 4.49317)
(5.97918 5.39233e-18 5.00929)
(6.3497 4.89004e-18 4.95151)
(5.53753 -5.69116e-18 5.48992)
(5.9568 4.14255e-19 5.44792)
(5.02508 -5.04269e-18 5.9932)
(5.50326 -5.93707e-18 5.98085)
(4.41963 5.63477e-18 6.50492)
(4.9691 6.481e-19 6.54224)
(3.69067 -2.52095e-20 6.98941)
(4.31041 5.11089e-18 7.11915)
(2.81065 -4.28014e-20 7.37607)
(3.57058 -5.31169e-18 7.64183)
(2.33812 5.56761e-18 8.08895)
(9.98641 -6.60634e-21 0.147902)
(9.98659 2.17621e-19 0.101545)
(9.96014 -1.62591e-19 0.245675)
(9.9739 -1.1041e-19 0.201994)
(9.92179 -1.15152e-19 0.344655)
(9.94654 1.10813e-19 0.302982)
(9.87171 -1.11502e-19 0.446412)
(9.90405 -8.08397e-22 0.406093)
(9.81021 -2.96869e-19 0.552445)
(9.84949 0 0.512836)
(9.73754 -4.75908e-20 0.664175)
(9.78446 5.52688e-20 0.624729)
(9.6539 6.64498e-19 0.782885)
(9.70924 6.1066e-20 0.743103)
(9.55941 -7.90336e-20 0.909857)
(9.62356 4.25132e-19 0.869224)
(9.45408 -9.77745e-19 1.04643)
(9.52752 -9.77986e-19 1.00447)
(9.33789 -4.74119e-19 1.19397)
(9.42122 4.94026e-21 1.15022)
(9.21079 1.59594e-18 1.35383)
(9.30463 -1.62756e-21 1.30782)
(9.07271 1.55629e-18 1.52746)
(9.17777 5.61856e-19 1.47871)
(8.92352 -1.04377e-18 1.7164)
(9.04058 1.0405e-18 1.66442)
(8.76301 -1.09506e-18 1.9223)
(8.89295 -2.09435e-18 1.86658)
(8.5909 -6.79518e-20 2.14692)
(8.73473 9.94582e-19 2.08694)
(8.4068 7.20286e-20 2.39215)
(8.56567 0 2.3274)
(8.21011 2.47604e-18 2.66004)
(8.3854 7.12179e-20 2.59005)
(7.99998 2.91355e-21 2.95287)
(8.19332 2.37966e-18 2.87719)
(7.77512 -4.83994e-18 3.27311)
(7.98855 -4.56692e-18 3.19138)
(7.53365 -8.28464e-20 3.6236)
(7.76972 -2.65708e-19 3.53559)
(7.27281 2.5119e-18 4.0075)
(7.53483 4.65421e-18 3.91325)
(6.98852 3.0616e-19 4.42819)
(7.28087 -2.12353e-18 4.32837)
(6.67449 5.09339e-18 4.88914)
(7.00325 1.71538e-19 4.78544)
(6.32162 -1.32873e-19 5.39362)
(6.69479 4.90023e-18 5.28932)
(5.91649 1.10594e-19 5.9437)
(6.3449 -4.95976e-18 5.84516)
(5.43908 -1.70779e-19 6.53791)
(5.93701 4.88227e-19 6.45758)
(4.86101 1.76082e-19 7.16847)
(5.44869 -5.69477e-19 7.12644)
(4.13954 -2.8897e-19 7.80266)
(4.82067 9.48843e-18 7.84987)
(3.22563 5.57815e-19 8.36713)
(4.10043 -5.38012e-18 8.55898)
(2.73137 8.51119e-19 9.25285)
(9.98719 1.08965e-19 0.156919)
(9.98688 1.61304e-19 0.10736)
(9.96252 1.66606e-19 0.260705)
(9.97534 1.63445e-19 0.213569)
(9.92663 2.23458e-19 0.365832)
(9.95005 1.10956e-19 0.320386)
(9.8799 1.10743e-19 0.473937)
(9.91056 1.11996e-19 0.429494)
(9.82263 3.53059e-19 0.586555)
(9.85984 0 0.542449)
(9.7551 1.64075e-19 0.705129)
(9.79959 2.90418e-19 0.66077)
(9.67754 -1.73207e-19 0.830979)
(9.73013 -2.34476e-19 0.785816)
(9.59012 -4.93889e-19 0.965444)
(9.65115 5.95602e-20 0.918912)
(9.49292 1.86131e-20 1.10993)
(9.56281 -4.87437e-19 1.06148)
(9.38603 4.77662e-19 1.26583)
(9.46538 4.92488e-19 1.21494)
(9.26948 -1.02892e-18 1.43456)
(9.35889 -5.0293e-19 1.38067)
(9.14328 5.15151e-20 1.61762)
(9.24345 -5.5583e-19 1.56016)
(9.00743 -4.98139e-20 1.81664)
(9.11911 1.03308e-18 1.75501)
(8.86187 3.44092e-20 2.03336)
(8.98591 -1.06426e-18 1.96691)
(8.70646 1.05107e-18 2.26966)
(8.84385 1.06449e-18 2.19772)
(8.54099 0 2.52762)
(8.69288 -1.05503e-18 2.44946)
(8.36508 0 2.80956)
(8.53285 1.06278e-18 2.72441)
(8.17811 -2.2685e-18 3.11809)
(8.36344 -4.14376e-21 3.02513)
(7.97911 5.56057e-20 3.45623)
(8.1841 -4.39849e-18 3.35459)
(7.76657 4.52554e-18 3.82754)
(7.99394 4.41053e-18 3.7163)
(7.5382 -4.90565e-20 4.23632)
(7.79148 2.25741e-18 4.11453)
(7.2905 -2.23923e-18 4.68764)
(7.57448 -2.31341e-18 4.55456)
(7.01787 1.74195e-20 5.18749)
(7.33949 -3.22388e-20 5.04293)
(6.71173 -1.75374e-20 5.74286)
(7.08047 -4.26205e-18 5.58745)
(6.35873 -4.53163e-18 6.36182)
(6.7882 4.24094e-18 6.19817)
(5.93721 7.30589e-20 7.05188)
(6.44716 -4.72059e-19 6.88797)
(5.4126 8.87477e-18 7.81857)
(6.0353 -3.36629e-18 7.66979)
(4.72566 4.2496e-18 8.64453)
(5.48015 8.22062e-18 8.56386)
(3.78795 -5.1101e-18 9.47646)
(4.8269 -1.33967e-19 9.52709)
(3.29495 -1.29971e-18 10.6338)
(9.98805 2.15973e-19 0.165362)
(9.9872 -1.07841e-19 0.112786)
(9.9651 1.06955e-19 0.274738)
(9.97691 1.08462e-19 0.224344)
(9.93182 -4.87e-22 0.385548)
(9.95382 -1.09484e-19 0.336539)
(9.88859 -4.72231e-22 0.499508)
(9.91745 -2.22094e-19 0.451165)
(9.83574 -5.83714e-20 0.618178)
(9.87073 0 0.569812)
(9.77359 -1.15894e-19 0.743016)
(9.81547 -1.70935e-19 0.693986)
(9.7024 2.56337e-21 0.875375)
(9.75199 -4.62775e-19 0.825092)
(9.62234 5.84102e-20 1.01664)
(9.67995 5.73144e-20 0.9645)
(9.53361 0 1.16824)
(9.59962 9.46778e-19 1.11363)
(9.43639 -5.01897e-19 1.33162)
(9.51139 2.32178e-21 1.27394)
(9.33082 -3.0351e-20 1.50821)
(9.41536 -1.04029e-18 1.44684)
(9.21702 4.46571e-19 1.69958)
(9.31175 5.14011e-19 1.63386)
(9.09512 -8.09149e-21 1.90739)
(9.20075 -9.65984e-19 1.83661)
(8.96521 -7.89293e-21 2.13347)
(9.08255 1.00232e-18 2.05685)
(8.82736 -1.06818e-18 2.37979)
(8.95734 0 2.29648)
(8.68159 3.19672e-20 2.64856)
(8.82531 -1.05515e-18 2.55764)
(8.5278 1.04742e-18 2.94231)
(8.68657 1.09187e-18 2.84271)
(8.36574 -2.18154e-18 3.26394)
(8.54117 2.03486e-18 3.15445)
(8.19492 4.62131e-20 3.61689)
(8.38905 -4.25523e-18 3.49611)
(8.01445 2.11929e-18 4.00535)
(8.22994 9.55902e-20 3.87162)
(7.82288 -5.00577e-20 4.43454)
(8.0632 2.05698e-18 4.28585)
(7.61787 -8.32402e-20 4.91116)
(7.88782 -1.0048e-21 4.74507)
(7.39547 -4.35316e-18 5.44357)
(7.70217 2.09716e-18 5.25748)
(7.14908 6.62648e-20 6.04261)
(7.50266 -8.12428e-18 5.83353)
(6.86771 8.26728e-18 6.72326)
(7.28382 8.00181e-18 6.48795)
(6.53191 -3.93143e-18 7.50522)
(7.03537 2.1583e-18 7.24233)
(6.10588 -3.89011e-18 8.41685)
(6.74371 -7.83179e-18 8.12682)
(5.51712 3.74433e-18 9.48361)
(6.33966 3.66092e-18 9.1981)
(4.61887 3.47593e-18 10.7601)
(5.88865 0 10.494)
(4.18812 3.51937e-18 12.3929)
(9.98898 -2.12198e-19 0.173187)
(9.98754 3.27177e-20 0.117791)
(9.96786 -1.11515e-19 0.287711)
(9.97858 -3.56182e-19 0.234266)
(9.9373 -3.32887e-19 0.403731)
(9.9578 1.97013e-19 0.351386)
(9.89771 -2.18286e-19 0.523035)
(9.92464 -4.33997e-19 0.471041)
(9.84945 -1.15112e-19 0.647196)
(9.8821 -4.45092e-22 0.59484)
(9.79286 -5.22149e-19 0.777685)
(9.83199 -1.15558e-19 0.724282)
(9.72824 -4.00708e-19 0.915892)
(9.77465 -2.50551e-19 0.86082)
(9.65579 9.58269e-19 1.06322)
(9.7098 4.36498e-19 1.00585)
(9.57581 9.36482e-19 1.22112)
(9.63778 5.22903e-19 1.16078)
(9.48858 -5.5003e-19 1.39103)
(9.55905 2.3668e-21 1.32705)
(9.39433 -4.75696e-19 1.57443)
(9.47384 -4.42174e-19 1.50614)
(9.29333 -9.18009e-19 1.77292)
(9.38247 -9.41464e-19 1.69955)
(9.18583 6.88107e-20 1.98817)
(9.28528 -9.05014e-20 1.90894)
(9.07213 9.98518e-19 2.22204)
(9.18264 1.03019e-18 2.13604)
(8.9525 1.01725e-21 2.47657)
(9.07494 -5.83762e-20 2.38281)
(8.82725 2.91817e-20 2.75405)
(8.96262 1.02488e-21 2.65139)
(8.69663 2.09013e-18 3.05711)
(8.84614 -1.47501e-21 2.94422)
(8.56086 -1.03366e-19 3.38884)
(8.72597 2.10954e-19 3.26415)
(8.42004 -4.16499e-18 3.75293)
(8.60262 -2.73797e-19 3.61454)
(8.27415 4.95665e-20 4.15397)
(8.47658 -2.24042e-19 3.99952)
(8.12295 2.08841e-18 4.59781)
(8.34832 2.4368e-19 4.42422)
(7.96577 2.20003e-18 5.09219)
(8.21845 1.46208e-19 4.89541)
(7.80133 -1.75942e-18 5.64716)
(8.08759 3.85868e-18 5.42199)
(7.62703 -5.57096e-20 6.27662)
(7.95597 -5.69407e-18 6.01587)
(7.43788 1.84174e-18 7.00122)
(7.82448 4.01661e-18 6.69432)
(7.22423 -1.83407e-18 7.85228)
(7.6934 -1.69649e-18 7.48398)
(6.96462 -1.37857e-19 8.8849)
(7.57107 0 8.42743)
(6.60505 -1.34178e-19 10.1992)
(7.43587 3.25435e-20 9.61454)
(5.98785 7.9036e-20 12.2973)
(7.60832 0 11.2138)
(6.93753 1.49089e-19 14.8089)
(0.195658 1.39824e-20 -0.111242)
(0.10773 -5.24969e-22 -0.177779)
(0.412556 4.8167e-23 -0.10701)
(0.298443 1.15078e-20 -0.18801)
(0.610441 -1.01359e-20 -0.089303)
(0.499707 -1.04624e-20 -0.163578)
(0.779386 5.32384e-22 -0.0710683)
(0.683355 -2.99887e-20 -0.134766)
(0.920309 -4.94809e-21 -0.0554913)
(0.840242 4.09294e-20 -0.109391)
(1.03692 1.7611e-21 -0.0427928)
(0.971565 -7.95656e-21 -0.0886148)
(1.13294 4.96155e-21 -0.032403)
(1.08164 -2.43788e-21 -0.0717207)
(1.21124 -1.83583e-21 -0.0236591)
(1.17441 -2.51162e-21 -0.0576453)
(1.27374 -5.25935e-22 -0.0160123)
(1.25244 0 -0.045417)
(1.32159 -1.51728e-22 -0.00908247)
(1.31732 -3.69066e-22 -0.0343337)
(1.35541 3.89185e-22 -0.002671)
(1.37003 3.99711e-22 -0.0239588)
(1.37562 -9.16302e-23 0.00315069)
(1.41111 -1.30663e-23 -0.0141149)
(1.38307 -9.29813e-23 0.00795198)
(1.44088 -1.16189e-23 -0.00508368)
(1.37958 -1.59355e-22 0.0111602)
(1.4598 2.88378e-22 0.00248055)
(1.36754 1.82104e-22 0.0126265)
(1.46892 3.38968e-22 0.00823922)
(1.35062 4.65393e-22 0.0126041)
(1.47022 -3.28014e-22 0.0113861)
(1.3323 -1.1333e-23 0.0114149)
(1.46693 -4.52749e-22 0.0121471)
(1.31596 -1.49879e-22 0.00940744)
(1.46283 4.45099e-22 0.010703)
(1.30437 -9.4031e-23 0.00690515)
(1.46116 -2.37424e-22 0.0075205)
(1.29933 -9.562e-23 0.00413591)
(1.4641 1.55449e-22 0.00329319)
(1.30178 0 0.00126886)
(1.47291 -1.57185e-22 -0.00139262)
(1.31163 -2.44105e-23 -0.00145088)
(1.4878 0 -0.00587974)
(1.32791 -2.4822e-23 -0.00381263)
(1.50803 4.21164e-23 -0.00965835)
(1.3492 -6.88557e-25 -0.0057294)
(1.53229 -1.10312e-23 -0.0124695)
(1.37398 2.51392e-24 -0.00719156)
(1.55897 -8.13474e-24 -0.0143164)
(1.40087 3.68453e-25 -0.00822768)
(1.58665 1.43906e-24 -0.0153158)
(1.4287 -7.58594e-24 -0.00886457)
(1.61401 3.85992e-26 -0.0156132)
(1.45643 -1.07312e-23 -0.00905536)
(1.63992 1.49097e-25 -0.0153288)
(1.48298 -1.44468e-24 -0.00854035)
(1.66361 9.30856e-24 -0.0144562)
(1.68859 -8.87016e-24 -0.0125037)
(0.18375 -2.52476e-21 -0.281072)
(0.0896215 -5.15267e-21 -0.363527)
(0.392978 3.24134e-22 -0.269091)
(0.270147 -1.28656e-23 -0.369595)
(0.58456 -2.98907e-20 -0.22893)
(0.454619 1.02864e-21 -0.320878)
(0.751112 1.23249e-20 -0.188251)
(0.622209 -3.04606e-20 -0.266617)
(0.893996 3.78514e-20 -0.153818)
(0.766537 4.09355e-20 -0.219636)
(1.01679 -1.23294e-20 -0.125942)
(0.889445 -1.97111e-20 -0.181563)
(1.12298 -9.93773e-21 -0.103233)
(0.995065 -5.01899e-21 -0.150898)
(1.21531 -6.94992e-22 -0.0841354)
(1.08696 1.20638e-20 -0.125606)
(1.29567 1.35253e-22 -0.0673826)