/*--------------------------------*- C++ -*----------------------------------*\
| =========                 |                                                 |
| \\      /  F ield         | OpenFOAM: The Open Source CFD Toolbox           |
|  \\    /   O peration     | Version:  5.x                                   |
|   \\  /    A nd           | Web:      www.OpenFOAM.org                      |
|    \\/     M anipulation  |                                                 |
\*---------------------------------------------------------------------------*/
FoamFile
{
    version     2.0;
    format      ascii;
    class       volVectorField;
    location    "3.2";
    object      cellDisplacement;
}
// * * * * * * * * * * * * * * * * * * * * * * * * * * * * * * * * * * * * * //

dimensions      [0 1 0 0 0 0 0];

internalField   nonuniform List<vector> 
2790
(
(0.00512046 0 -4.03855e-06)
(0.0146766 0 -1.15479e-05)
(0.0229452 0 -1.79696e-05)
(0.0300169 0 -2.33227e-05)
(0.0359887 0 -2.76172e-05)
(0.0409503 0 -3.08385e-05)
(0.0449839 0 -3.29445e-05)
(0.0481637 0 -3.38634e-05)
(0.0505562 0 -3.34895e-05)
(0.0522205 0 -3.16837e-05)
(0.0532091 0 -2.82662e-05)
(0.0535688 0 -2.3024e-05)
(0.0533411 0 -1.57062e-05)
(0.0525632 0 -6.0194e-06)
(0.0512687 0 6.38158e-06)
(0.0494895 0 2.18804e-05)
(0.0472565 0 4.08979e-05)
(0.0446018 0 6.38837e-05)
(0.0415592 0 9.12953e-05)
(0.0381653 0 0.000123579)
(0.0344632 0 0.000161198)
(0.0305047 0 0.000204576)
(0.0263532 0 0.000254082)
(0.0220879 0 0.000310022)
(0.0178084 0 0.000372598)
(0.0136382 0 0.000441695)
(0.00973201 0 0.000516757)
(0.00628795 0 0.000596294)
(0.00357614 0 0.000676456)
(0.00204454 0 0.000745271)
(0.00512773 0 -1.21346e-05)
(0.014698 0 -3.47011e-05)
(0.0229806 0 -5.40076e-05)
(0.0300665 0 -7.01156e-05)
(0.0360533 0 -8.30579e-05)
(0.0410311 0 -9.27945e-05)
(0.0450829 0 -9.9203e-05)
(0.0482831 0 -0.000102074)
(0.0506986 0 -0.000101095)
(0.0523893 0 -9.5857e-05)
(0.053408 0 -8.58262e-05)
(0.0538021 0 -7.0374e-05)
(0.0536139 0 -4.87609e-05)
(0.0528812 0 -2.01244e-05)
(0.0516381 0 1.65595e-05)
(0.049917 0 6.24223e-05)
(0.0477498 0 0.000118707)
(0.0451689 0 0.000186744)
(0.0422099 0 0.000267885)
(0.0389088 0 0.000363403)
(0.0353089 0 0.000474663)
(0.0314623 0 0.000602858)
(0.027432 0 0.000748965)
(0.023296 0 0.000913707)
(0.0191561 0 0.00109753)
(0.0151376 0 0.00129955)
(0.0114007 0 0.00151726)
(0.00815124 0 0.00174446)
(0.00566728 0 0.0019669)
(0.00438347 0 0.00214696)
(0.00514153 0 -2.02825e-05)
(0.014739 0 -5.8012e-05)
(0.0230484 0 -9.03198e-05)
(0.0301621 0 -0.000117321)
(0.0361782 0 -0.000139081)
(0.0411882 0 -0.000155545)
(0.0452758 0 -0.000166522)
(0.0485165 0 -0.000171682)
(0.0509781 0 -0.000170519)
(0.0527213 0 -0.000162385)
(0.0537999 0 -0.000146402)
(0.0542626 0 -0.000121558)
(0.054153 0 -8.66633e-05)
(0.0535106 0 -4.03464e-05)
(0.0523699 0 1.9068e-05)
(0.0507648 0 9.33972e-05)
(0.0487282 0 0.000184642)
(0.046294 0 0.000294965)
(0.0435017 0 0.000426571)
(0.0403853 0 0.000581312)
(0.0369892 0 0.000761429)
(0.033366 0 0.000968661)
(0.0295782 0 0.00120422)
(0.025698 0 0.00146861)
(0.0218331 0 0.00176238)
(0.0181082 0 0.00208251)
(0.0146906 0 0.00242303)
(0.0117913 0 0.00277039)
(0.00968432 0 0.00309723)
(0.00877125 0 0.00334425)
(0.00516203 0 -2.851e-05)
(0.0147998 0 -8.15664e-05)
(0.0231493 0 -0.000127059)
(0.0303041 0 -0.000165173)
(0.036364 0 -0.000196024)
(0.0414217 0 -0.000219558)
(0.0455624 0 -0.000235535)
(0.0488631 0 -0.000243535)
(0.0513929 0 -0.000242872)
(0.0532141 0 -0.000232724)
(0.0543815 0 -0.000211869)
(0.0549458 0 -0.000178975)
(0.0549523 0 -0.000132453)
(0.054444 0 -7.0549e-05)
(0.0534549 0 9.0475e-06)
(0.0520216 0 0.000108722)
(0.0501786 0 0.000231113)
(0.0479595 0 0.000379125)
(0.0454067 0 0.00055527)
(0.0425624 0 0.000762263)
(0.0394668 0 0.00100306)
(0.036175 0 0.0012796)
(0.0327524 0 0.00159298)
(0.0292652 0 0.00194394)
(0.0258066 0 0.00233048)
(0.0225016 0 0.00274657)
(0.0195305 0 0.00318282)
(0.0171049 0 0.00361702)
(0.0154863 0 0.0040093)
(0.0150361 0 0.00428525)
(0.00518906 0 -3.68428e-05)
(0.0148801 0 -0.000105444)
(0.0232823 0 -0.000164367)
(0.0304914 0 -0.00021389)
(0.0366088 0 -0.000254199)
(0.0417291 0 -0.00028527)
(0.0459397 0 -0.000306826)
(0.0493192 0 -0.000318419)
(0.0519383 0 -0.000319175)
(0.0538619 0 -0.000308227)
(0.0551453 0 -0.000283965)
(0.0558425 0 -0.000244849)
(0.0560003 0 -0.000188918)
(0.0556621 0 -0.000114077)
(0.0548694 0 -1.78361e-05)
(0.0536593 0 0.000102823)
(0.0520688 0 0.000250976)
(0.0501345 0 0.000429893)
(0.047895 0 0.000642704)
(0.0454004 0 0.000892826)
(0.0426941 0 0.00118323)
(0.039831 0 0.00151602)
(0.0368756 0 0.00189215)
(0.0339035 0 0.00231099)
(0.0309943 0 0.00276744)
(0.0282548 0 0.00325448)
(0.0258328 0 0.00375633)
(0.0239769 0 0.00424369)
(0.0229277 0 0.00466685)
(0.022995 0 0.00494213)
(0.00522238 0 -4.53019e-05)
(0.0149791 0 -0.00012971)
(0.0234464 0 -0.00020236)
(0.0307223 0 -0.000263655)
(0.0369103 0 -0.000313873)
(0.0421072 0 -0.000353054)
(0.0464033 0 -0.000380892)
(0.0498793 0 -0.000397025)
(0.0526074 0 -0.000400292)
(0.0546528 0 -0.00038968)
(0.0560763 0 -0.000363786)
(0.0569346 0 -0.000320718)
(0.0572762 0 -0.000258319)
(0.0571452 0 -0.000174092)
(0.0565901 0 -6.54819e-05)
(0.0556502 0 7.08062e-05)
(0.0543654 0 0.000238179)
(0.052776 0 0.000440194)
(0.0509242 0 0.000680411)
(0.0488571 0 0.000962338)
(0.0466231 0 0.00128895)
(0.044279 0 0.00166208)
(0.0418885 0 0.00208192)
(0.0395238 0 0.0025461)
(0.0372678 0 0.00304811)
(0.0352258 0 0.00357642)
(0.0334923 0 0.00411177)
(0.0322728 0 0.00461956)
(0.0318489 0 0.00504194)
(0.0324591 0 0.0052916)
(0.00526165 0 -5.39023e-05)
(0.0150957 0 -0.000154412)
(0.0236399 0 -0.000241128)
(0.0309945 0 -0.000314608)
(0.0372655 0 -0.000375251)
(0.0425519 0 -0.000423216)
(0.0469479 0 -0.000458118)
(0.0505337 0 -0.000479523)
(0.0533849 0 -0.000486573)
(0.0555721 0 -0.000477943)
(0.0571604 0 -0.00045251)
(0.0582054 0 -0.000408105)
(0.0587603 0 -0.000342499)
(0.0588742 0 -0.000253126)
(0.0585958 0 -0.000137153)
(0.0579694 0 8.70268e-06)
(0.057039 0 0.000187928)
(0.0558489 0 0.000404136)
(0.0544445 0 0.000660938)
(0.0528732 0 0.000961738)
(0.0511852 0 0.00130932)
(0.0494413 0 0.00170489)
(0.0477045 0 0.00214754)
(0.0460431 0 0.00263322)
(0.0445327 0 0.0031533)
(0.0432605 0 0.0036929)
(0.0423232 0 0.00422867)
(0.0418295 0 0.004724)
(0.0420677 0 0.00511641)
(0.0432216 0 0.00531805)
(0.00530642 0 -6.26528e-05)
(0.0152288 0 -0.000179578)
(0.0238611 0 -0.000280724)
(0.0313054 0 -0.000366845)
(0.0376709 0 -0.00043847)
(0.0430553 0 -0.00049563)
(0.0475587 0 -0.0005384)
(0.0512687 0 -0.00056621)
(0.054263 0 -0.000578546)
(0.056613 0 -0.000574001)
(0.058387 0 -0.000551427)
(0.0596416 0 -0.000508549)
(0.0604358 0 -0.000443278)
(0.0608227 0 -0.000353101)
(0.0608537 0 -0.000235189)
(0.0605778 0 -8.63883e-05)
(0.0600434 0 9.6636e-05)
(0.0592991 0 0.000317287)
(0.0583938 0 0.00057888)
(0.0573768 0 0.000884432)
(0.056295 0 0.00123654)
(0.05522 0 0.0016354)
(0.0542132 0 0.0020788)
(0.0533375 0 0.00256099)
(0.0526567 0 0.00307135)
(0.0522374 0 0.00359236)
(0.0521486 0 0.00409776)
(0.0524611 0 0.00455118)
(0.0533831 0 0.00488801)
(0.0550582 0 0.00502448)
(0.00535615 0 -7.15548e-05)
(0.0153768 0 -0.000205215)
(0.0241076 0 -0.000321168)
(0.0316518 0 -0.000420414)
(0.0381133 0 -0.000503268)
(0.0436046 0 -0.00057029)
(0.0482327 0 -0.000621948)
(0.0520825 0 -0.00065769)
(0.0552339 0 -0.000676943)
(0.057761 0 -0.000678298)
(0.0597327 0 -0.000660606)
(0.0612136 0 -0.000622188)
(0.0622665 0 -0.000560929)
(0.0629476 0 -0.000474482)
(0.0633119 0 -0.00036024)
(0.0634134 0 -0.000215368)
(0.0633052 0 -3.69164e-05)
(0.0630408 0 0.000178028)
(0.062674 0 0.000432138)
(0.0622596 0 0.000727503)
(0.0618497 0 0.00106631)
(0.0614958 0 0.00144897)
(0.0612785 0 0.00187078)
(0.0612557 0 0.00232452)
(0.0614759 0 0.00279815)
(0.0619818 0 0.00327275)
(0.0628088 0 0.0037207)
(0.0639832 0 0.00410667)
(0.0655843 0 0.00437012)
(0.0677408 0 0.00443263)
(0.00541017 0 -8.06022e-05)
(0.0155375 0 -0.000231304)
(0.024377 0 -0.000362433)
(0.0320219 0 -0.000475012)
(0.0385863 0 -0.000569614)
(0.0442009 0 -0.000647564)
(0.0489644 0 -0.000709165)
(0.0529648 0 -0.000754055)
(0.0562796 0 -0.000781403)
(0.0589915 0 -0.000790538)
(0.0611734 0 -0.000780162)
(0.062896 0 -0.000749202)
(0.0642222 0 -0.000695678)
(0.0652126 0 -0.000617537)
(0.0659266 0 -0.000512574)
(0.0664228 0 -0.000378469)
(0.0667598 0 -0.000212892)
(0.0669961 0 -1.36678e-05)
(0.0671913 0 0.000221011)
(0.0674064 0 0.000492313)
(0.067705 0 0.000800397)
(0.0681279 0 0.00114571)
(0.0687365 0 0.0015244)
(0.0696139 0 0.00192563)
(0.0707883 0 0.00233723)
(0.0722758 0 0.00274054)
(0.0740709 0 0.00310904)
(0.0761443 0 0.00340864)
(0.0784458 0 0.00358668)
(0.0810448 0 0.00357305)
(0.00546773 0 -8.97813e-05)
(0.0157082 0 -0.000257799)
(0.0246591 0 -0.000404373)
(0.0324118 0 -0.000530594)
(0.0390916 0 -0.000637759)
(0.0448371 0 -0.000727379)
(0.0497447 0 -0.000799954)
(0.0538958 0 -0.000854783)
(0.0573808 0 -0.000891694)
(0.0602903 0 -0.000910585)
(0.0626966 0 -0.000910326)
(0.0646712 0 -0.000889874)
(0.066281 0 -0.000847757)
(0.067591 0 -0.000782393)
(0.0686648 0 -0.000692142)
(0.0695657 0 -0.000575372)
(0.0703571 0 -0.000430582)
(0.0711029 0 -0.000256565)
(0.071868 0 -5.26146e-05)
(0.0727183 0 0.000181245)
(0.0737191 0 0.00044399)
(0.0749312 0 0.000733264)
(0.0763932 0 0.00104681)
(0.0781933 0 0.00137308)
(0.0803493 0 0.00169943)
(0.0828541 0 0.00200954)
(0.0856591 0 0.00228075)
(0.0886653 0 0.00248382)
(0.0917183 0 0.00257284)
(0.0947419 0 0.00248756)
(0.00552808 0 -9.90724e-05)
(0.015887 0 -0.00028465)
(0.0249519 0 -0.000446945)
(0.0328182 0 -0.000587249)
(0.0396217 0 -0.000707531)
(0.0455054 0 -0.000809525)
(0.0505561 0 -0.00089368)
(0.0548625 0 -0.000959564)
(0.0585308 0 -0.00100793)
(0.0616448 0 -0.00103851)
(0.0642809 0 -0.00105061)
(0.0665128 0 -0.0010435)
(0.068411 0 -0.00101622)
(0.070044 0 -0.000967779)
(0.0714795 0 -0.000897232)
(0.0727849 0 -0.000803781)
(0.074028 0 -0.00068692)
(0.0752774 0 -0.000546598)
(0.0766028 0 -0.000383424)
(0.0780742 0 -0.000198874)
(0.0797609 0 4.49019e-06)
(0.0817276 0 0.00022279)
(0.0840351 0 0.000451891)
(0.0867398 0 0.000682655)
(0.089866 0 0.00090262)
(0.0933926 0 0.00109975)
(0.0972373 0 0.00125905)
(0.101238 0 0.00136105)
(0.105111 0 0.00137012)
(0.10859 0 0.00122707)
(0.00559044 0 -0.000108448)
(0.0160722 0 -0.000311788)
(0.0252524 0 -0.000490053)
(0.0332355 0 -0.000644756)
(0.0401692 0 -0.000778683)
(0.0461924 0 -0.00089366)
(0.051389 0 -0.000990016)
(0.0558603 0 -0.00106841)
(0.0597149 0 -0.0011296)
(0.0630365 0 -0.00117358)
(0.065904 0 -0.00120012)
(0.0683938 0 -0.0012089)
(0.0705791 0 -0.00119952)
(0.0725317 0 -0.00117166)
(0.0743225 0 -0.00112515)
(0.0760222 0 -0.00106014)
(0.077702 0 -0.000977228)
(0.0794342 0 -0.000877639)
(0.0812918 0 -0.000763449)
(0.0833486 0 -0.00063777)
(0.0856776 0 -0.000504942)
(0.0883491 0 -0.000370707)
(0.0914381 0 -0.000241524)
(0.0949689 0 -0.000122779)
(0.0989964 0 -2.83977e-05)
(0.103492 0 3.57028e-05)
(0.108362 0 6.60702e-05)
(0.113412 0 6.14234e-05)
(0.118228 0 6.95279e-06)
(0.122282 0 -0.000169166)
(0.00565385 0 -0.000117871)
(0.0162627 0 -0.000339131)
(0.0255556 0 -0.00053336)
(0.0336569 0 -0.000702826)
(0.0407275 0 -0.000850924)
(0.0468912 0 -0.000979512)
(0.0522357 0 -0.00108883)
(0.0568756 0 -0.0011807)
(0.0609176 0 -0.00125594)
(0.0644463 0 -0.00131485)
(0.0675433 0 -0.00135763)
(0.0702869 0 -0.00138447)
(0.0727527 0 -0.00139557)
(0.0750148 0 -0.00139131)
(0.0771463 0 -0.00137235)
(0.0792202 0 -0.00133981)
(0.08131 0 -0.00129543)
(0.0834895 0 -0.00124177)
(0.0858337 0 -0.0011824)
(0.0884176 0 -0.00112212)
(0.0913159 0 -0.00106714)
(0.0946015 0 -0.00102509)
(0.0983458 0 -0.00100488)
(0.102579 0 -0.00101211)
(0.107363 0 -0.00106038)
(0.112675 0 -0.00115252)
(0.118443 0 -0.00128121)
(0.124495 0 -0.00142171)
(0.130374 0 -0.00153979)
(0.135246 0 -0.00170871)
(0.00571688 0 -0.00012729)
(0.016448 0 -0.000366401)
(0.0258574 0 -0.00057665)
(0.0340837 0 -0.000761314)
(0.0412917 0 -0.000923912)
(0.0475913 0 -0.00106631)
(0.0530844 0 -0.00118944)
(0.0578957 0 -0.00129571)
(0.0621236 0 -0.00138602)
(0.0658561 0 -0.00146111)
(0.0691769 0 -0.00152163)
(0.0721658 0 -0.00156828)
(0.0749003 0 -0.00160187)
(0.0774555 0 -0.00162348)
(0.079906 0 -0.0016346)
(0.0823255 0 -0.0016373)
(0.0847877 0 -0.00163441)
(0.0873665 0 -0.00162974)
(0.0901356 0 -0.00162826)
(0.0931686 0 -0.00163638)
(0.0965369 0 -0.00166204)
(0.100309 0 -0.00171478)
(0.104544 0 -0.00180542)
(0.109298 0 -0.0019451)
(0.114598 0 -0.00214649)
(0.120429 0 -0.00241761)
(0.126744 0 -0.00275522)
(0.133419 0 -0.00312379)
(0.140088 0 -0.00340397)
(0.14599 0 -0.00352408)
(0.00228089 0 -0.000890195)
(0.00442177 0 -0.000914585)
(0.00844546 0 -0.000933447)
(0.0139587 0 -0.000948125)
(0.0205024 0 -0.000956036)
(0.0276132 0 -0.000954438)
(0.0348773 0 -0.000942086)
(0.0419619 0 -0.000919466)
(0.0486218 0 -0.000888203)
(0.0546904 0 -0.000850368)
(0.060064 0 -0.000807996)
(0.0646841 0 -0.000762827)
(0.0685239 0 -0.00071629)
(0.0715761 0 -0.000669493)
(0.0738431 0 -0.00062319)
(0.0753306 0 -0.00057782)
(0.0760433 0 -0.000534023)
(0.0759808 0 -0.000491862)
(0.0751365 0 -0.000451207)
(0.0734974 0 -0.000411867)
(0.0710444 0 -0.000373774)
(0.0677515 0 -0.000336668)
(0.0635856 0 -0.000300195)
(0.0585077 0 -0.000264011)
(0.0524733 0 -0.000227696)
(0.0454336 0 -0.000190769)
(0.0373358 0 -0.000152671)
(0.0281252 0 -0.000112747)
(0.0177468 0 -7.02292e-05)
(0.0061329 0 -2.41399e-05)
(0.00449098 0 -0.00264868)
(0.00664864 0 -0.00272615)
(0.010644 0 -0.00278881)
(0.0160924 0 -0.00283588)
(0.0225348 0 -0.00286089)
(0.0295059 0 -0.00285592)
(0.0366013 0 -0.00281802)
(0.0435022 0 -0.00274925)
(0.0499761 0 -0.00265483)
(0.0558659 0 -0.00254112)
(0.0610735 0 -0.00241418)
(0.0655432 0 -0.00227911)
(0.0692498 0 -0.0021401)
(0.072186 0 -0.00200043)
(0.0743534 0 -0.0018623)
(0.0757561 0 -0.00172679)
(0.0763978 0 -0.00159616)
(0.0762759 0 -0.00147042)
(0.0753819 0 -0.00134911)
(0.0737011 0 -0.00123161)
(0.0712134 0 -0.00111785)
(0.0678915 0 -0.00100702)
(0.0637012 0 -0.000898013)
(0.0586027 0 -0.000789849)
(0.0525507 0 -0.000681261)
(0.0454954 0 -0.000570821)
(0.0373835 0 -0.00045685)
(0.0281596 0 -0.000337398)
(0.0177679 0 -0.000210168)
(0.00614011 0 -7.22413e-05)
(0.00864963 0 -0.00436382)
(0.0109272 0 -0.00450578)
(0.0149161 0 -0.00462117)
(0.0202599 0 -0.00470439)
(0.0265156 0 -0.00474819)
(0.0332126 0 -0.0047378)
(0.0399751 0 -0.00467091)
(0.0465149 0 -0.00455289)
(0.0526248 0 -0.00439328)
(0.0581654 0 -0.00420295)
(0.0630489 0 -0.00399192)
(0.0672246 0 -0.00376814)
(0.0706705 0 -0.00353837)
(0.0733798 0 -0.00330788)
(0.0753523 0 -0.00308025)
(0.0765884 0 -0.00285615)
(0.0770912 0 -0.00264099)
(0.0768525 0 -0.00243381)
(0.0758609 0 -0.00223378)
(0.074098 0 -0.00203957)
(0.0715417 0 -0.00185168)
(0.068163 0 -0.00166855)
(0.0639249 0 -0.00148822)
(0.0587859 0 -0.00130922)
(0.0526993 0 -0.00112942)
(0.0456138 0 -0.000946464)
(0.0374748 0 -0.000757581)
(0.0282253 0 -0.000559547)
(0.0178084 0 -0.000348569)
(0.00615405 0 -0.000119816)
(0.014625 0 -0.00606878)
(0.0170836 0 -0.00627042)
(0.0210838 0 -0.00643551)
(0.0262931 0 -0.00655078)
(0.0322697 0 -0.00660435)
(0.0385521 0 -0.00657818)
(0.0448249 0 -0.00647391)
(0.0508426 0 -0.00630114)
(0.0564306 0 -0.00607378)
(0.0614719 0 -0.00580677)
(0.0658922 0 -0.00551366)
(0.0696469 0 -0.00520413)
(0.0727194 0 -0.00488729)
(0.0751037 0 -0.00457022)
(0.076797 0 -0.00425809)
(0.0777988 0 -0.00395333)
(0.0781016 0 -0.00365778)
(0.0776939 0 -0.00337264)
(0.0765609 0 -0.00309706)
(0.0746781 0 -0.00282825)
(0.072022 0 -0.00256882)
(0.0685607 0 -0.00231575)
(0.0642528 0 -0.002066)
(0.0590546 0 -0.00181805)
(0.0529174 0 -0.00156873)
(0.0457877 0 -0.0013149)
(0.037609 0 -0.00105268)
(0.028322 0 -0.000777609)
(0.0178679 0 -0.000484457)
(0.00617457 0 -0.000166532)
(0.0222621 0 -0.00779084)
(0.0249293 0 -0.00803785)
(0.0289385 0 -0.00823928)
(0.0339778 0 -0.00837622)
(0.0395519 0 -0.00841874)
(0.0452916 0 -0.00836135)
(0.0509411 0 -0.00820847)
(0.0562998 0 -0.00797385)
(0.0612318 0 -0.00767563)
(0.0656471 0 -0.00733228)
(0.0694877 0 -0.00696055)
(0.0727124 0 -0.00656928)
(0.0753155 0 -0.00617029)
(0.0772915 0 -0.0057721)
(0.0786347 0 -0.00538077)
(0.0793398 0 -0.00500107)
(0.0793886 0 -0.00463109)
(0.0787674 0 -0.00427326)
(0.0774567 0 -0.00392742)
(0.0754242 0 -0.00359035)
(0.0726404 0 -0.00326326)
(0.0690742 0 -0.0029436)
(0.0646765 0 -0.00262681)
(0.0594021 0 -0.00231254)
(0.0531998 0 -0.001996)
(0.046013 0 -0.00167353)
(0.037783 0 -0.00134009)
(0.0284475 0 -0.000990093)
(0.0179453 0 -0.000616916)
(0.00620119 0 -0.000212077)
(0.0314012 0 -0.00953852)
(0.0342681 0 -0.00981481)
(0.0382553 0 -0.0100335)
(0.0430383 0 -0.01017)
(0.0481104 0 -0.0101851)
(0.0532067 0 -0.0100817)
(0.0581169 0 -0.00986858)
(0.0626975 0 -0.00956417)
(0.0668604 0 -0.00919137)
(0.070545 0 -0.0087716)
(0.0736927 0 -0.00831922)
(0.0762964 0 -0.00784979)
(0.0783543 0 -0.00737403)
(0.0798568 0 -0.00690093)
(0.0807927 0 -0.00643664)
(0.0811479 0 -0.00598508)
(0.0809017 0 -0.00554677)
(0.0800316 0 -0.00512269)
(0.0785119 0 -0.0047127)
(0.0763067 0 -0.00431534)
(0.0733751 0 -0.00392608)
(0.0696872 0 -0.0035447)
(0.0651852 0 -0.00316632)
(0.0598196 0 -0.0027893)
(0.0535398 0 -0.00240824)
(0.0462845 0 -0.00201994)
(0.0379931 0 -0.00161793)
(0.028599 0 -0.00119562)
(0.0180386 0 -0.000745099)
(0.00623333 0 -0.000256163)
(0.0418574 0 -0.0113028)
(0.0448902 0 -0.0115952)
(0.0487943 0 -0.0118121)
(0.0532085 0 -0.0119208)
(0.0576946 0 -0.011891)
(0.0620396 0 -0.0117247)
(0.0661021 0 -0.011438)
(0.0698029 0 -0.0110553)
(0.073109 0 -0.010605)
(0.0759583 0 -0.0101059)
(0.0783374 0 -0.00957578)
(0.0802635 0 -0.00903271)
(0.0817254 0 -0.00848684)
(0.0827097 0 -0.0079463)
(0.0831989 0 -0.00741674)
(0.0831711 0 -0.0069016)
(0.0825992 0 -0.00640194)
(0.0814531 0 -0.00591821)
(0.0796985 0 -0.00544959)
(0.0772965 0 -0.00499506)
(0.0742006 0 -0.00454916)
(0.070373 0 -0.00411117)
(0.0657555 0 -0.00367774)
(0.0602944 0 -0.00324312)
(0.0539299 0 -0.00280271)
(0.046596 0 -0.00235204)
(0.0382349 0 -0.00188449)
(0.0287731 0 -0.00139295)
(0.0181459 0 -0.000868233)
(0.00627027 0 -0.000298525)
(0.0534252 0 -0.0130688)
(0.0565747 0 -0.0133654)
(0.0603282 0 -0.0135638)
(0.0642564 0 -0.0136204)
(0.0680346 0 -0.0135203)
(0.0715147 0 -0.0132713)
(0.0746292 0 -0.0128973)
(0.077365 0 -0.0124283)
(0.0797306 0 -0.0118971)
(0.0816898 0 -0.0113211)
(0.0832762 0 -0.0107217)
(0.0844928 0 -0.0101131)
(0.0853298 0 -0.00950542)
(0.0857697 0 -0.00890584)
(0.0857884 0 -0.00831936)
(0.0853563 0 -0.0077489)
(0.0844384 0 -0.00719531)
(0.0829982 0 -0.00665887)
(0.0809925 0 -0.00613774)
(0.0783754 0 -0.00562976)
(0.0750992 0 -0.00513189)
(0.0711157 0 -0.00464161)
(0.066369 0 -0.00415602)
(0.0608025 0 -0.00366852)
(0.0543491 0 -0.00317473)
(0.0469386 0 -0.00266646)
(0.0385042 0 -0.00213826)
(0.0289662 0 -0.00158093)
(0.0182648 0 -0.000985625)
(0.00631122 0 -0.000338926)
(0.0658937 0 -0.0148202)
(0.0690919 0 -0.015108)
(0.0725765 0 -0.0152652)
(0.0758942 0 -0.0152447)
(0.0788362 0 -0.0150482)
(0.0813378 0 -0.0146965)
(0.0834172 0 -0.0142238)
(0.0851263 0 -0.013665)
(0.0865022 0 -0.0130522)
(0.0875674 0 -0.0124079)
(0.0883482 0 -0.0117472)
(0.0888479 0 -0.0110826)
(0.089054 0 -0.0104226)
(0.0889432 0 -0.00977343)
(0.0884846 0 -0.00913917)
(0.0876412 0 -0.0085222)
(0.0863685 0 -0.0079225)
(0.0846263 0 -0.00734104)
(0.0823612 0 -0.00677421)
(0.0795201 0 -0.00621902)
(0.0760542 0 -0.00567446)
(0.0719075 0 -0.00513665)
(0.0670208 0 -0.00460202)
(0.0613341 0 -0.00406515)
(0.0547852 0 -0.00352124)
(0.047293 0 -0.00296077)
(0.0387823 0 -0.00237627)
(0.0291742 0 -0.00175862)
(0.0183929 0 -0.00109668)
(0.00635534 0 -0.000377164)
(0.0790556 0 -0.0165362)
(0.0822127 0 -0.0168028)
(0.085268 0 -0.0168894)
(0.0878245 0 -0.0167607)
(0.0897822 0 -0.0164403)
(0.0911955 0 -0.0159689)
(0.0921758 0 -0.0153913)
(0.0928383 0 -0.014746)
(0.0932229 0 -0.0140596)
(0.0934031 0 -0.0133557)
(0.0933952 0 -0.0126442)
(0.0931967 0 -0.0119345)
(0.0927883 0 -0.0112332)
(0.0921395 0 -0.0105447)
(0.091213 0 -0.00987233)
(0.0899654 0 -0.00921831)
(0.0883387 0 -0.00858025)
(0.0862886 0 -0.00795918)
(0.0837652 0 -0.00735404)
(0.0807028 0 -0.00676013)
(0.0770438 0 -0.00617478)
(0.0727302 0 -0.00559447)
(0.0676987 0 -0.00501588)
(0.0618871 0 -0.00443388)
(0.0552292 0 -0.00384254)
(0.0476529 0 -0.00323413)
(0.0390621 0 -0.00259747)
(0.0293795 0 -0.00192384)
(0.0185279 0 -0.00120094)
(0.00640193 0 -0.000413079)
(0.0927072 0 -0.0181989)
(0.0957101 0 -0.0184284)
(0.098135 0 -0.0184033)
(0.099707 0 -0.0181225)
(0.100515 0 -0.0176506)
(0.10075 0 -0.01705)
(0.100602 0 -0.0163701)
(0.100225 0 -0.0156485)
(0.0996711 0 -0.0149047)
(0.0990161 0 -0.0141549)
(0.0982682 0 -0.0134064)
(0.0974156 0 -0.0126647)
(0.0964302 0 -0.0119339)
(0.0952734 0 -0.0112169)
(0.0939026 0 -0.0105163)
(0.0922611 0 -0.00983253)
(0.0902962 0 -0.00916526)
(0.0879477 0 -0.00851211)
(0.0851657 0 -0.00787413)
(0.0818854 0 -0.00724808)
(0.0780413 0 -0.00662919)
(0.0735662 0 -0.00601364)
(0.0683877 0 -0.00539606)
(0.0624493 0 -0.00477356)
(0.0556813 0 -0.00413944)
(0.048011 0 -0.00348591)
(0.0393398 0 -0.00280218)
(0.029576 0 -0.00207597)
(0.0186536 0 -0.00129682)
(0.00645057 0 -0.000446567)
(0.106653 0 -0.0198013)
(0.10931 0 -0.0199508)
(0.110782 0 -0.0197416)
(0.1111 0 -0.0192588)
(0.110615 0 -0.0186195)
(0.109639 0 -0.0178971)
(0.108398 0 -0.0171338)
(0.107042 0 -0.0163555)
(0.105645 0 -0.0155757)
(0.104243 0 -0.0147994)
(0.102833 0 -0.0140303)
(0.101394 0 -0.0132711)
(0.0998881 0 -0.0125237)
(0.0982675 0 -0.011789)
(0.0964832 0 -0.0110695)
(0.094477 0 -0.0103652)
(0.092194 0 -0.00967598)
(0.0895693 0 -0.00900014)
(0.0865426 0 -0.00833677)
(0.0830479 0 -0.00768316)
(0.079018 0 -0.00703553)
(0.0743872 0 -0.00639072)
(0.0690731 0 -0.00574144)
(0.0630084 0 -0.00508329)
(0.0561304 0 -0.00441098)
(0.0483593 0 -0.00371622)
(0.0396086 0 -0.00298924)
(0.0297745 0 -0.00221624)
(0.0187675 0 -0.0013841)
(0.00648604 0 -0.00047646)
(0.120672 0 -0.0213271)
(0.122563 0 -0.0212834)
(0.122611 0 -0.0207846)
(0.121427 0 -0.0200676)
(0.119603 0 -0.019278)
(0.11749 0 -0.0184695)
(0.115284 0 -0.0176608)
(0.113091 0 -0.0168592)
(0.110978 0 -0.0160689)
(0.108946 0 -0.0152879)
(0.106978 0 -0.0145163)
(0.105039 0 -0.0137546)
(0.103085 0 -0.0130035)
(0.101062 0 -0.0122637)
(0.0989122 0 -0.0115353)
(0.0965832 0 -0.0108202)
(0.0940112 0 -0.0101176)
(0.0911303 0 -0.009426)
(0.0878753 0 -0.00874405)
(0.0841784 0 -0.00806924)
(0.0799703 0 -0.00739819)
(0.0751806 0 -0.00672713)
(0.069733 0 -0.00605075)
(0.0635522 0 -0.00536248)
(0.0565678 0 -0.00465668)
(0.0486997 0 -0.00392522)
(0.0398604 0 -0.00315806)
(0.0299576 0 -0.0023429)
(0.0188821 0 -0.001464)
(0.00652235 0 -0.000503779)
(0.134231 0 -0.022666)
(0.134553 0 -0.0221992)
(0.13271 0 -0.0213306)
(0.129976 0 -0.0204262)
(0.12698 0 -0.019565)
(0.123963 0 -0.0187419)
(0.121032 0 -0.017944)
(0.118225 0 -0.0171615)
(0.115571 0 -0.0163905)
(0.113056 0 -0.0156276)
(0.11065 0 -0.0148716)
(0.108309 0 -0.0141224)
(0.105986 0 -0.0133803)
(0.103625 0 -0.0126458)
(0.101168 0 -0.0119196)
(0.0985568 0 -0.0112025)
(0.0957272 0 -0.0104941)
(0.0926135 0 -0.00979348)
(0.0891485 0 -0.00909918)
(0.0852633 0 -0.00840892)
(0.0808872 0 -0.00771958)
(0.0759477 0 -0.00702729)
(0.0703688 0 -0.00632699)
(0.0640741 0 -0.00561258)
(0.0569873 0 -0.00487757)
(0.0490263 0 -0.00411371)
(0.0401026 0 -0.00331078)
(0.0301212 0 -0.00245632)
(0.0189786 0 -0.00153519)
(0.00655606 0 -0.000528403)
(0.14542 0 -0.0233204)
(0.143529 0 -0.0221767)
(0.13998 0 -0.0211122)
(0.136186 0 -0.0202395)
(0.132483 0 -0.0194609)
(0.128944 0 -0.018722)
(0.125587 0 -0.0179971)
(0.122413 0 -0.0172757)
(0.119413 0 -0.0165543)
(0.116568 0 -0.0158318)
(0.113843 0 -0.0151084)
(0.111197 0 -0.0143852)
(0.108582 0 -0.0136633)
(0.105946 0 -0.0129438)
(0.10323 0 -0.0122277)
(0.100376 0 -0.011516)
(0.0973214 0 -0.0108086)
(0.0940001 0 -0.0101051)
(0.0903451 0 -0.00940405)
(0.0862873 0 -0.00870358)
(0.0817553 0 -0.00800076)
(0.0766759 0 -0.00729185)
(0.070973 0 -0.00657201)
(0.0645689 0 -0.00583534)
(0.0573842 0 -0.00507505)
(0.049335 0 -0.00428274)
(0.0403314 0 -0.00344813)
(0.0302775 0 -0.00255866)
(0.0190702 0 -0.00159921)
(0.00658695 0 -0.00055047)
(0.00577994 0 -0.000136805)
(0.0166293 0 -0.000393893)
(0.0261595 0 -0.000620656)
(0.0345173 0 -0.000821015)
(0.0418595 0 -0.000998521)
(0.0482971 0 -0.00115516)
(0.0539457 0 -0.00129319)
(0.0589279 0 -0.0014148)
(0.0633407 0 -0.00152131)
(0.0672744 0 -0.00161387)
(0.070814 0 -0.00169361)
(0.0740405 0 -0.00176174)
(0.077032 0 -0.00181967)
(0.0798641 0 -0.00186916)
(0.0826111 0 -0.00191248)
(0.085346 0 -0.00195256)
(0.0881409 0 -0.00199321)
(0.0910671 0 -0.00203931)
(0.0941943 0 -0.00209703)
(0.0975902 0 -0.00217406)
(0.101318 0 -0.00227979)
(0.105436 0 -0.00242541)
(0.109991 0 -0.002624)
(0.115025 0 -0.00289113)
(0.120524 0 -0.00324092)
(0.12645 0 -0.00369519)
(0.132722 0 -0.00428486)
(0.139154 0 -0.00506919)
(0.145361 0 -0.00618953)
(0.151055 0 -0.00808806)
(0.0058434 0 -0.00014645)
(0.016815 0 -0.000421873)
(0.0264687 0 -0.000665634)
(0.0349561 0 -0.000882056)
(0.0424289 0 -0.00107493)
(0.0490092 0 -0.00124682)
(0.0548182 0 -0.00140065)
(0.0599709 0 -0.00153859)
(0.0645669 0 -0.0016624)
(0.0686981 0 -0.00177367)
(0.0724501 0 -0.001874)
(0.0759043 0 -0.00196508)
(0.0791385 0 -0.00204891)
(0.0822276 0 -0.00212784)
(0.0852443 0 -0.00220483)
(0.088259 0 -0.00228352)
(0.09134 0 -0.00236848)
(0.0945532 0 -0.00246539)
(0.0979611 0 -0.0025812)
(0.101621 0 -0.00272434)
(0.105584 0 -0.00290492)
(0.109891 0 -0.00313482)
(0.114565 0 -0.00342796)
(0.119612 0 -0.00380064)
(0.124974 0 -0.00426824)
(0.130572 0 -0.00485647)
(0.136256 0 -0.00560095)
(0.141783 0 -0.00655895)
(0.146805 0 -0.007824)
(0.150904 0 -0.00953623)
(0.00590617 0 -0.000156106)
(0.0170002 0 -0.000449943)
(0.0267762 0 -0.000710768)
(0.0353902 0 -0.00094338)
(0.0429939 0 -0.00115196)
(0.0497171 0 -0.00133976)
(0.0556814 0 -0.00150982)
(0.0609993 0 -0.00166465)
(0.0657717 0 -0.0018064)
(0.0700908 0 -0.00193708)
(0.0740425 0 -0.0020587)
(0.0777075 0 -0.00217343)
(0.0811625 0 -0.00228371)
(0.0844804 0 -0.00239245)
(0.0877308 0 -0.00250307)
(0.09098 0 -0.00261978)
(0.0942908 0 -0.00274761)
(0.0977212 0 -0.00289266)
(0.101324 0 -0.00306216)
(0.105144 0 -0.00326467)
(0.109215 0 -0.00351009)
(0.113557 0 -0.00380979)
(0.118169 0 -0.00417662)
(0.123019 0 -0.00462498)
(0.128034 0 -0.00517068)
(0.133102 0 -0.00583527)
(0.138061 0 -0.00664891)
(0.142666 0 -0.00764441)
(0.146613 0 -0.00885989)
(0.149611 0 -0.0103688)
(0.00596718 0 -0.000165699)
(0.017181 0 -0.000477869)
(0.0270765 0 -0.000755711)
(0.0358135 0 -0.00100454)
(0.0435456 0 -0.00122897)
(0.0504067 0 -0.00143278)
(0.056519 0 -0.00161925)
(0.061994 0 -0.00179122)
(0.0669325 0 -0.00195119)
(0.0714265 0 -0.00210154)
(0.0755612 0 -0.00224465)
(0.079416 0 -0.00238307)
(0.0830654 0 -0.00251963)
(0.0865795 0 -0.00265758)
(0.0900237 0 -0.00280074)
(0.093459 0 -0.00295358)
(0.0969412 0 -0.00312135)
(0.10052 0 -0.00331019)
(0.104236 0 -0.00352721)
(0.108122 0 -0.00378052)
(0.112196 0 -0.00407922)
(0.116458 0 -0.00443343)
(0.120887 0 -0.00485406)
(0.125433 0 -0.00535315)
(0.13001 0 -0.00594347)
(0.134513 0 -0.00664323)
(0.138768 0 -0.00746586)
(0.142559 0 -0.00842245)
(0.145688 0 -0.00953263)
(0.147956 0 -0.0108327)
(0.00602529 0 -0.000175142)
(0.017354 0 -0.000505394)
(0.0273641 0 -0.000800068)
(0.0362193 0 -0.001065)
(0.0440751 0 -0.00130526)
(0.0510676 0 -0.00152504)
(0.0573195 0 -0.00172794)
(0.0629417 0 -0.00191709)
(0.0680342 0 -0.00209532)
(0.0726883 0 -0.0022653)
(0.0769876 0 -0.00242973)
(0.0810095 0 -0.00259144)
(0.0848258 0 -0.00275356)
(0.0885027 0 -0.00291958)
(0.092101 0 -0.00309347)
(0.0956757 0 -0.00327979)
(0.0992748 0 -0.00348374)
(0.102939 0 -0.00371121)
(0.1067 0 -0.00396881)
(0.110576 0 -0.00426386)
(0.114572 0 -0.00460422)
(0.118676 0 -0.00499842)
(0.122855 0 -0.00545498)
(0.12705 0 -0.00598394)
(0.131181 0 -0.0065943)
(0.13513 0 -0.007294)
(0.138749 0 -0.00808505)
(0.141892 0 -0.00897411)
(0.144423 0 -0.0099681)
(0.146213 0 -0.0110716)
(0.00607932 0 -0.000184337)
(0.0175155 0 -0.000532235)
(0.0276339 0 -0.000843395)
(0.0366009 0 -0.00112416)
(0.0445736 0 -0.00138005)
(0.0516897 0 -0.00161562)
(0.0580716 0 -0.00183477)
(0.0638296 0 -0.00204091)
(0.0690628 0 -0.00223716)
(0.0738607 0 -0.00242643)
(0.078305 0 -0.00261166)
(0.0824705 0 -0.00279588)
(0.0864257 0 -0.00298238)
(0.0902328 0 -0.00317476)
(0.0939472 0 -0.00337702)
(0.0976176 0 -0.00359359)
(0.101285 0 -0.0038294)
(0.104982 0 -0.00408988)
(0.108729 0 -0.00438087)
(0.112538 0 -0.00470874)
(0.116402 0 -0.00507972)
(0.120302 0 -0.00550118)
(0.124203 0 -0.0059798)
(0.128042 0 -0.00652101)
(0.13173 0 -0.00712814)
(0.135174 0 -0.00780318)
(0.138266 0 -0.00854703)
(0.140903 0 -0.00935978)
(0.142994 0 -0.0102389)
(0.144463 0 -0.0111739)
(0.00612811 0 -0.000193177)
(0.0176623 0 -0.000558083)
(0.0278807 0 -0.000885203)
(0.0369516 0 -0.00118136)
(0.0450331 0 -0.00145249)
(0.0522633 0 -0.00170347)
(0.0587645 0 -0.00193849)
(0.0646459 0 -0.00216122)
(0.0700052 0 -0.00237498)
(0.0749298 0 -0.00258291)
(0.079499 0 -0.00278807)
(0.0837845 0 -0.00299363)
(0.0878512 0 -0.00320293)
(0.0917571 0 -0.00341955)
(0.0955525 0 -0.00364739)
(0.0992798 0 -0.00389059)
(0.102974 0 -0.00415362)
(0.106659 0 -0.00444137)
(0.11035 0 -0.00475865)
(0.11405 0 -0.00511115)
(0.117754 0 -0.00550423)
(0.121433 0 -0.00594245)
(0.125041 0 -0.00642911)
(0.128521 0 -0.00696597)
(0.131805 0 -0.00755469)
(0.134817 0 -0.00819495)
(0.137479 0 -0.00888477)
(0.139722 0 -0.00962016)
(0.141484 0 -0.0103936)
(0.142725 0 -0.0111903)
(0.00617059 0 -0.000201548)
(0.0177914 0 -0.000582604)
(0.0280998 0 -0.000924961)
(0.0372651 0 -0.00123588)
(0.0454458 0 -0.00152166)
(0.0527796 0 -0.00178748)
(0.059388 0 -0.00203777)
(0.0653795 0 -0.00227643)
(0.0708498 0 -0.00250697)
(0.0758837 0 -0.00273263)
(0.0805575 0 -0.00295657)
(0.0849399 0 -0.00318196)
(0.0890919 0 -0.00341211)
(0.0930677 0 -0.00365049)
(0.0969131 0 -0.00390087)
(0.100664 0 -0.00416685)
(0.104349 0 -0.00445235)
(0.107989 0 -0.0047619)
(0.111598 0 -0.00509992)
(0.115172 0 -0.0054703)
(0.118691 0 -0.00587616)
(0.122129 0 -0.0063195)