/*--------------------------------*- C++ -*----------------------------------*\
| =========                 |                                                 |
| \\      /  F ield         | OpenFOAM: The Open Source CFD Toolbox           |
|  \\    /   O peration     | Version:  4.1                                   |
|   \\  /    A nd           | Web:      www.OpenFOAM.org                      |
|    \\/     M anipulation  |                                                 |
\*---------------------------------------------------------------------------*/
FoamFile
{
    version     2.0;
    format      ascii;
    class       volVectorField;
    location    "3.2";
    object      U;
}
// * * * * * * * * * * * * * * * * * * * * * * * * * * * * * * * * * * * * * //

dimensions      [0 1 -1 0 0 0 0];

internalField   nonuniform List<vector> 
2790
(
(9.94763 -3.00269e-20 0.0207598)
(9.87013 0 0.0293174)
(9.7619 0 0.0352351)
(9.63273 0 0.0413532)
(9.48663 1.66704e-20 0.0477032)
(9.32351 0 0.0542199)
(9.14271 -4.44334e-21 0.0610314)
(8.94379 -1.15007e-21 0.0682945)
(8.72627 0 0.0761391)
(8.48942 -7.98318e-20 0.0846815)
(8.23232 -9.84259e-22 0.0940386)
(7.95387 8.57298e-20 0.104331)
(7.65289 0 0.115687)
(7.32809 -4.72699e-20 0.128233)
(6.97817 -4.96861e-20 0.142093)
(6.60182 0 0.157371)
(6.19789 0 0.174143)
(5.76544 -4.73296e-19 0.192442)
(5.30393 3.71402e-19 0.212244)
(4.81339 1.33338e-19 0.233417)
(4.29458 0 0.25567)
(3.74941 0 0.2785)
(3.18116 0 0.301104)
(2.59494 1.44672e-18 0.322249)
(1.99811 -1.95262e-18 0.340088)
(1.40076 -4.27722e-19 0.351804)
(0.814097 4.67788e-19 0.353319)
(0.287518 -5.11187e-19 0.332124)
(-0.290413 -4.31005e-18 -0.0444203)
(-0.108415 3.89038e-18 -0.420401)
(10.0068 8.97952e-20 0.0409202)
(9.98486 -3.05427e-20 0.0612994)
(9.93518 3.11172e-20 0.0767014)
(9.86328 0 0.0928914)
(9.77188 4.9397e-20 0.110018)
(9.66105 -6.7147e-20 0.127894)
(9.53037 4.33744e-21 0.146775)
(9.3795 1.47198e-19 0.16701)
(9.20799 -1.51771e-19 0.188898)
(9.01517 0 0.212703)
(8.80017 -3.39187e-19 0.23869)
(8.56193 3.27758e-19 0.267123)
(8.29925 0 0.298269)
(8.01088 4.47738e-20 0.332382)
(7.69545 -4.66606e-20 0.369671)
(7.3516 -9.79364e-20 0.410279)
(6.97804 1.02868e-19 0.454223)
(6.57359 0 0.501343)
(6.13749 1.96113e-18 0.551271)
(5.66945 -1.80743e-18 0.603311)
(5.16981 2.07652e-18 0.656277)
(4.63992 -2.45952e-18 0.708379)
(4.0825 0 0.757025)
(3.50198 4.44037e-18 0.79854)
(2.90532 -4.39401e-18 0.827809)
(2.3032 3.67117e-19 0.837387)
(1.71129 5.17944e-18 0.815028)
(1.15592 -6.45485e-18 0.735704)
(0.64086 0 0.500723)
(0.360431 5.37681e-19 -0.0167762)
(10.0039 -3.00057e-20 0.0428751)
(9.97926 -3.04133e-20 0.0731719)
(9.93194 1.24413e-19 0.099159)
(9.86508 -6.3443e-20 0.126075)
(9.78008 -1.30843e-19 0.154511)
(9.67713 1.33375e-19 0.184396)
(9.5561 0 0.21608)
(9.41678 2.20898e-21 0.250063)
(9.25887 2.98363e-19 0.286805)
(9.08183 3.31106e-21 0.326743)
(8.88493 3.37278e-19 0.370319)
(8.66727 -6.8345e-19 0.417983)
(8.42779 -5.92028e-19 0.470186)
(8.16536 7.80422e-19 0.527362)
(7.87877 2.53723e-22 0.589904)
(7.56668 1.62222e-18 0.658108)
(7.22775 -7.65499e-20 0.732091)
(6.8606 -1.85553e-18 0.811671)
(6.46409 -1.75491e-18 0.89632)
(6.03746 1.59107e-18 0.985032)
(5.58019 0 1.07602)
(5.09241 -4.36641e-18 1.16648)
(4.57526 4.31028e-18 1.25229)
(4.03094 5.77477e-19 1.32749)
(3.46339 -1.23032e-18 1.38365)
(2.87858 0 1.40869)
(2.28372 -1.06901e-17 1.38408)
(1.68693 1.23445e-17 1.27877)
(1.05149 0 1.03886)
(0.565213 0 0.600022)
(10.0023 -5.96931e-20 0.04853)
(9.97532 -8.08572e-23 0.0900613)
(9.9279 -1.24312e-19 0.127669)
(9.86236 -6.90185e-22 0.165389)
(9.77916 1.29286e-19 0.2045)
(9.67844 -3.3213e-20 0.245355)
(9.56033 -1.70527e-20 0.288485)
(9.42479 -1.31595e-20 0.334545)
(9.27166 0 0.384172)
(9.10059 0 0.437978)
(8.9111 0 0.496588)
(8.70252 -6.0105e-19 0.560637)
(8.47409 4.9061e-19 0.630749)
(8.22498 -8.55984e-20 0.707537)
(7.95431 1.51882e-18 0.791597)
(7.66104 -2.95382e-18 0.883427)
(7.34415 1.52733e-18 0.983334)
(7.00248 3.43162e-18 1.09127)
(6.63477 4.61374e-20 1.20672)
(6.24005 -3.92071e-18 1.32863)
(5.81734 0 1.45501)
(5.36571 9.65576e-19 1.58258)
(4.88464 -8.69153e-18 1.70641)
(4.37382 8.5564e-18 1.81926)
(3.83308 1.70789e-18 1.91084)
(3.26209 9.75604e-18 1.96689)
(2.65869 6.42513e-20 1.96806)
(2.02081 -1.12873e-17 1.88783)
(1.29701 -1.32961e-17 1.69992)
(0.680741 1.45565e-17 1.35204)
(10.0015 0 0.0556308)
(9.97327 -1.20838e-19 0.106747)
(9.92576 1.23243e-19 0.15451)
(9.8614 0 0.202065)
(9.77999 0 0.251126)
(9.68148 6.60204e-20 0.302423)
(9.56604 -5.27263e-19 0.356626)
(9.43377 1.12208e-18 0.414482)
(9.28455 -5.69689e-19 0.476723)
(9.11814 5.92564e-19 0.544077)
(8.93419 -6.42184e-19 0.617288)
(8.73218 0 0.69712)
(8.51158 8.11335e-20 0.784315)
(8.27173 -1.67195e-19 0.879602)
(8.01194 1.22489e-18 0.983713)
(7.73151 -1.61011e-18 1.0973)
(7.42966 -3.7259e-19 1.22083)
(7.10556 -2.74201e-18 1.35445)
(6.75807 6.06645e-18 1.49779)
(6.38606 -2.926e-18 1.64987)
(5.98831 7.07914e-18 1.80881)
(5.56319 -7.77248e-18 1.97135)
(5.10874 -4.75501e-19 2.13242)
(4.62251 1.00761e-18 2.28467)
(4.10094 -1.07171e-18 2.4177)
(3.53897 1.12722e-18 2.51758)
(2.92823 1.20405e-18 2.56678)
(2.26295 0 2.54425)
(1.48759 1.42704e-18 2.43623)
(0.784585 -1.63938e-18 2.18894)
(10.0012 1.18504e-19 0.0633852)
(9.9724 3.61765e-19 0.12342)
(9.9252 -1.22388e-19 0.180854)
(9.86228 -1.25047e-19 0.238173)
(9.78304 2.57068e-19 0.297171)
(9.68716 3.45189e-20 0.358815)
(9.57487 -3.01153e-19 0.423901)
(9.44633 0 0.493247)
(9.3015 0 0.567679)
(9.14018 3.63002e-20 0.648035)
(8.96206 3.74928e-20 0.73518)
(8.76673 0 0.829985)
(8.55379 -1.58676e-19 0.933319)
(8.32268 1.6459e-19 1.04603)
(8.07278 2.90246e-18 1.16896)
(7.80353 -2.61414e-18 1.30287)
(7.51431 7.26433e-19 1.44837)
(7.20441 -7.52688e-19 1.60583)
(6.87284 -2.36295e-18 1.77511)
(6.51835 3.62616e-18 1.95547)
(6.13944 7.2012e-18 2.14533)
(5.73394 8.05084e-20 2.34182)
(5.29885 -6.36004e-18 2.54039)
(4.83007 -9.95424e-21 2.73433)
(4.32174 -7.07128e-18 2.91423)
(3.76621 7.3753e-18 3.06778)
(3.15183 -1.18461e-20 3.17959)
(2.47183 1.93599e-17 3.23105)
(1.67306 -2.0892e-17 3.21107)
(0.901843 1.49499e-18 3.0677)
(10.0011 -1.18372e-19 0.0713965)
(9.97232 -2.40046e-19 0.13999)
(9.92584 -1.22075e-19 0.206609)
(9.86464 -2.49978e-19 0.273338)
(9.78788 1.26721e-19 0.341929)
(9.69507 -6.51196e-20 0.413521)
(9.58644 3.33245e-20 0.489042)
(9.46226 5.47944e-19 0.569402)
(9.32252 -5.56969e-19 0.655522)
(9.16702 1.13633e-18 0.748355)
(8.99549 -2.44827e-20 0.848864)
(8.80761 -6.2359e-20 0.95801)
(8.60301 -2.34162e-18 1.07677)
(8.38123 3.86709e-18 1.20612)
(8.1417 -1.33233e-19 1.34699)
(7.88389 3.34178e-20 1.50025)
(7.60717 -3.16058e-18 1.66668)
(7.3108 3.65992e-19 1.84682)
(6.99381 -7.5346e-19 2.04087)
(6.65484 -7.05395e-18 2.24845)
(6.29203 6.01627e-18 2.46844)
(5.90274 -8.31912e-19 2.69869)
(5.48324 -6.98861e-18 2.93559)
(5.02827 7.1907e-18 3.17359)
(4.53056 -9.50483e-19 3.40476)
(3.98093 0 3.61851)
(3.36642 -2.09262e-18 3.80121)
(2.67998 0 3.93446)
(1.87604 -1.98137e-17 4.00248)
(1.04174 6.33775e-19 3.95898)
(10.0013 -5.8985e-20 0.0794285)
(9.97279 2.99086e-19 0.156288)
(9.92738 3.86355e-22 0.231633)
(9.86818 -1.23706e-19 0.307369)
(9.79422 5.07417e-19 0.385183)
(9.70492 -5.78895e-19 0.466328)
(9.60052 0 0.551852)
(9.48132 -5.42043e-19 0.642757)
(9.34731 5.50354e-19 0.740066)
(9.19833 -1.77373e-20 0.844829)
(9.03418 3.63918e-20 0.958087)
(8.8546 -1.12423e-18 1.08089)
(8.65926 3.83407e-18 1.21431)
(8.44772 -2.50355e-18 1.35946)
(8.21952 1.62318e-19 1.5174)
(7.9741 2.67829e-18 1.68912)
(7.71076 -2.38388e-18 1.87557)
(7.42865 -3.50949e-19 2.07755)
(7.12667 6.21206e-18 2.29559)
(6.8033 -5.58336e-18 2.5298)
(6.45635 6.21395e-18 2.77967)
(6.08272 -5.54638e-18 3.04395)
(5.67811 6.62783e-18 3.32023)
(5.23647 -7.66246e-18 3.60446)
(4.74961 1.4255e-17 3.89041)
(4.20727 -1.38398e-17 4.16904)
(3.59569 9.79533e-19 4.42778)
(2.9067 1.69763e-17 4.64741)
(2.10688 -1.75009e-17 4.80243)
(1.20707 -1.39001e-20 4.85421)
(10.0015 -5.8752e-20 0.0873287)
(9.97365 5.94001e-20 0.172159)
(9.92961 0 0.255803)
(9.87271 1.23288e-19 0.340121)
(9.8019 4.07935e-22 0.426742)
(9.71654 -5.77159e-19 0.516996)
(9.61687 5.20689e-19 0.612046)
(9.50317 0 0.712986)
(9.37548 -1.11349e-18 0.820928)
(9.2337 -1.00378e-20 0.936998)
(9.07773 1.13834e-18 1.06232)
(8.90732 7.2981e-20 1.19802)
(8.72217 -2.48938e-18 1.34531)
(8.52191 2.44903e-18 1.50538)
(8.30612 1.57126e-19 1.67943)
(8.07424 0 1.86867)
(7.82553 -3.22291e-21 2.07424)
(7.55901 -5.14167e-18 2.29721)
(7.27342 1.12e-17 2.53852)
(6.96708 -5.72119e-18 2.79887)
(6.63748 0 3.07854)
(6.28114 0 3.37724)
(5.89321 0 3.69395)
(5.46704 0 4.02635)
(4.99364 0 4.37009)
(4.46176 -1.72091e-18 4.71774)
(3.85649 0 5.05736)
(3.16616 1.46138e-17 5.36882)
(2.3732 -3.21538e-17 5.61375)
(1.40029 1.70061e-17 5.76064)
(10.0018 5.85031e-20 0.0949909)
(9.9748 2.95848e-19 0.18747)
(9.93241 -3.61091e-19 0.278996)
(9.87809 -1.16213e-21 0.371444)
(9.81077 4.97334e-19 0.466407)
(9.72973 4.85872e-22 0.565287)
(9.63521 -6.45201e-20 0.669353)
(9.5275 -1.05978e-18 0.779775)
(9.4067 2.17285e-18 0.897732)
(9.27281 -1.09648e-18 1.02442)
(9.12576 -1.75254e-20 1.16105)
(8.96534 -7.21163e-20 1.30885)
(8.79131 -1.47009e-19 1.4691)
(8.60336 0 1.64314)
(8.4011 -1.54484e-19 1.83231)
(8.18398 2.53049e-18 2.03801)
(7.95127 -3.20698e-18 2.26163)
(7.70196 3.27306e-19 2.5046)
(7.43468 0 2.76829)
(7.14758 0 3.05406)
(6.83799 0 3.36312)
(6.50212 -5.78455e-18 3.69634)
(6.13466 5.87549e-18 4.0542)
(5.72839 0 4.43634)
(5.27351 -1.2036e-17 4.84061)
(4.75738 1.1499e-18 5.26164)
(4.16329 1.31622e-17 5.68842)
(3.47259 2.10836e-19 6.10091)
(2.6848 1.47495e-17 6.44659)
(1.62634 -3.12501e-17 6.69649)
(10.0023 3.48718e-19 0.102335)
(9.9762 -3.53519e-19 0.202112)
(9.93565 0 0.301094)
(9.8842 2.42494e-19 0.401192)
(9.82068 -6.19261e-19 0.503997)
(9.74429 1.13181e-18 0.610993)
(9.6553 -3.18641e-19 0.723534)
(9.55405 -9.82381e-19 0.842835)
(9.44068 9.93724e-19 0.970134)
(9.31528 0 1.1067)
(9.17781 1.30376e-20 1.25383)
(9.02813 0 1.41283)
(8.86608 1.44001e-19 1.58509)
(8.6914 0 1.77205)
(8.50376 -2.40967e-18 1.97522)
(8.30266 -2.17351e-20 2.19618)
(8.08743 2.79764e-18 2.43661)
(7.85712 -4.04269e-21 2.69829)
(7.61037 3.21455e-19 2.98311)
(7.34526 5.29373e-18 3.29313)
(7.0591 -5.34895e-18 3.63056)
(6.748 -3.37889e-19 3.99763)
(6.40638 -3.43191e-19 4.39653)
(6.02658 -1.09614e-17 4.82919)
(5.59795 -3.90146e-19 5.29625)
(5.10602 1.13429e-17 5.79537)
(4.53129 0 6.31796)
(3.8438 -1.96798e-19 6.84652)
(3.05761 -5.36413e-20 7.31606)
(1.8955 -1.40485e-17 7.6932)
(10.0028 -2.31955e-19 0.109298)
(9.97777 -2.34692e-19 0.215999)
(9.93925 3.57818e-23 0.321987)
(9.89095 -2.41725e-19 0.429224)
(9.83152 0 0.539356)
(9.76003 0 0.653938)
(9.67692 5.07851e-19 0.774368)
(9.58255 -5.78755e-19 0.901894)
(9.4771 3.75678e-22 1.03782)
(9.36071 0 1.18348)
(9.2334 -1.07154e-18 1.34024)
(9.09511 3.32095e-18 1.50949)
(8.94577 -5.27107e-20 1.69271)
(8.78521 -2.28797e-18 1.89144)
(8.61319 2.34671e-18 2.10734)
(8.42935 -4.75404e-18 2.34218)
(8.23312 2.4067e-18 2.59792)
(8.02368 4.4628e-18 2.8767)
(7.79981 -1.02689e-17 3.18093)
(7.55973 9.93302e-18 3.5134)
(7.30092 -1.0213e-17 3.87735)
(7.01966 3.07301e-19 4.27648)
(6.71053 1.61369e-17 4.71495)
(6.36581 -1.08479e-17 5.19735)
(5.97431 0 5.72798)
(5.51956 0 6.30936)
(4.97856 0 6.93843)
(4.30556 0 7.60546)
(3.52168 4.03838e-20 8.24024)
(2.2312 1.19851e-17 8.80476)
(10.0033 0 0.115836)
(9.97945 2.33376e-19 0.229053)
(9.9432 8.69754e-22 0.341569)
(9.8983 0 0.455419)
(9.8431 -2.44886e-19 0.572356)
(9.77674 1.11073e-18 0.693968)
(9.69985 -6.25938e-19 0.821652)
(9.61275 0 0.956711)
(9.51561 6.49476e-20 1.10051)
(9.40867 1.12241e-18 1.25445)
(9.29201 -1.08353e-18 1.41993)
(9.16567 -2.17486e-18 1.59841)
(9.02967 -1.58655e-20 1.79146)
(8.88398 -1.5984e-20 2.0007)
(8.7285 2.34013e-18 2.22791)
(8.56302 2.38847e-18 2.47505)
(8.38719 -2.33169e-18 2.74432)
(8.2004 1.48978e-19 3.03818)
(8.00173 -4.79329e-18 3.35956)
(7.78975 1.33627e-19 3.71193)
(7.56238 4.69897e-18 4.09951)
(7.3165 0 4.52744)
(7.04742 -1.54743e-19 5.00197)
(6.74818 0 5.5307)
(6.40797 0 6.12257)
(6.00947 9.63696e-18 6.78725)
(5.52698 -1.45049e-19 7.53237)
(4.89666 -1.92129e-17 8.36609)
(4.13508 9.73517e-18 9.23292)
(2.68623 -3.69333e-20 10.1246)
(10.0037 -4.57477e-19 0.121922)
(9.98123 -2.30247e-19 0.241196)
(9.94751 -7.03474e-19 0.359739)
(9.9061 2.37379e-19 0.479687)
(9.85524 2.41701e-19 0.602899)
(9.79428 -8.5459e-19 0.730937)
(9.72392 9.95479e-19 0.865203)
(9.64436 -1.00473e-18 1.00708)
(9.55585 1.27385e-19 1.15799)
(9.45872 9.75753e-19 1.31935)
(9.35313 -1.04942e-18 1.4926)
(9.23919 -2.14208e-18 1.67925)
(9.11706 -3.04516e-20 1.88092)
(8.98687 -1.34551e-20 2.09931)
(8.84868 -8.27274e-20 2.33627)
(8.70252 2.16675e-18 2.59392)
(8.5483 -4.54097e-18 2.87464)
(8.38575 -1.8491e-20 3.18119)
(8.21435 -1.38855e-20 3.51689)
(8.03327 9.97978e-21 3.88578)
(7.84122 4.76217e-18 4.29289)
(7.63612 4.60116e-18 4.7446)
(7.41485 -9.31248e-20 5.24905)
(7.17237 -4.54913e-18 5.81688)
(6.90032 0 6.46204)
(6.58382 8.89715e-18 7.20309)
(6.19958 -8.33335e-18 8.06405)
(5.67199 0 9.08612)
(5.0084 0 10.2753)
(3.37857 2.45574e-19 11.8238)
(10.0042 4.56972e-19 0.127532)
(9.98312 4.61534e-19 0.252358)
(9.95206 -2.32508e-19 0.376427)
(9.91419 -1.90013e-21 0.501971)
(9.86782 1.19523e-18 0.630885)
(9.81255 9.96569e-22 0.764696)
(9.74889 0 0.904852)
(9.67704 0 1.05282)
(9.59742 -1.2654e-19 1.21003)
(9.51038 1.02518e-18 1.37792)
(9.41614 -2.00641e-18 1.55794)
(9.31494 9.79991e-19 1.75164)
(9.20711 -2.04343e-18 1.96066)
(9.09293 -1.09442e-20 2.18673)
(8.97264 2.15801e-18 2.43176)
(8.84656 -3.38523e-20 2.69795)
(8.7149 -2.18126e-18 2.98782)
(8.57779 2.16746e-18 3.3043)
(8.43529 0 3.65098)
(8.28734 4.39433e-18 4.03225)
(8.13373 -1.20738e-20 4.45365)
(7.97395 -2.42644e-20 4.92234)
(7.80716 -8.51764e-18 5.44776)
(7.63176 8.40649e-18 6.04275)
(7.44472 -4.37379e-18 6.72513)
(7.23961 -4.1006e-18 7.52127)
(7.00811 -5.72341e-20 8.47196)
(6.69175 6.64254e-19 9.65873)
(6.34367 3.22265e-18 11.211)
(4.53999 -5.47495e-18 14.306)
(0.00672289 3.22495e-21 -0.0235214)
(0.124967 3.07091e-21 -0.069973)
(0.286545 0 -0.0811842)
(0.446421 0 -0.0732794)
(0.590627 -6.00188e-22 -0.0585519)
(0.709611 1.11223e-21 -0.042685)
(0.799968 2.07496e-21 -0.0280102)
(0.862942 0 -0.0155675)
(0.902243 2.91541e-20 -0.00565788)
(0.922281 -3.21853e-20 0.00182231)
(0.927646 -6.73723e-21 0.00678213)
(0.923123 -1.92635e-20 0.00890512)
(0.913185 1.88365e-20 0.00955437)
(0.900486 0 0.0095568)
(0.885804 1.13175e-20 0.00924033)
(0.87005 -1.65731e-20 0.00817119)
(0.855639 5.3363e-21 0.00624352)
(0.844621 0 0.00414349)
(0.835835 2.4113e-21 0.00324904)
(0.825927 2.25327e-21 0.00322474)
(0.81418 4.07114e-21 0.00233087)
(0.805119 0 0.000577436)
(0.806499 2.57098e-21 -0.00206971)
(0.822619 7.84976e-22 -0.00580904)
(0.852073 0 -0.00976883)
(0.890982 0 -0.0144987)
(0.937927 1.66591e-21 -0.0198255)
(0.993642 0 -0.0244352)
(1.05736 -7.41899e-22 -0.0271784)
(1.14705 0 -0.0272989)
(0.0137373 -2.07832e-19 -0.0914055)
(0.138452 -1.93269e-19 -0.192348)
(0.288394 1.78456e-19 -0.210515)
(0.435981 0 -0.191574)
(0.571489 5.93264e-22 -0.159149)
(0.687964 -1.10385e-21 -0.124331)
(0.782608 1.31319e-19 -0.0917482)
(0.856242 -1.26425e-19 -0.0636887)
(0.911805 7.3209e-21 -0.040711)
(0.952524 5.17711e-20 -0.0221289)
(0.980824 -3.42846e-20 -0.00815971)
(0.999759 6.43579e-21 -0.00018279)
(1.01224 -6.17819e-21 0.00364573)
(1.01882 2.33993e-20 0.00743577)
(1.01824 -2.30464e-20 0.0109941)
(1.01155 -3.23402e-20 0.0117951)
(1.00272 2.11359e-20 0.0102409)
(0.995097 -9.66287e-21 0.00905002)
(0.987218 4.87135e-21 0.0107218)
(0.974565 -8.70515e-21 0.0132171)
(0.957356 -1.21126e-20 0.0113553)
(0.941694 -3.87925e-21 0.00271446)
(0.932204 -6.84143e-21 -0.0105041)
(0.928244 0 -0.0222973)
(0.931334 1.1727e-21 -0.0291548)
(0.934965 -1.15433e-21 -0.0325659)
(0.936852 -1.66637e-21 -0.0353415)
(0.943348 0 -0.0391368)
(0.960359 6.82428e-22 -0.0445523)
(1.00792 6.26004e-23 -0.0495361)
(0.0049302 6.30777e-21 -0.189014)
(0.1223 0 -0.311828)
(0.250895 -3.39657e-19 -0.327607)
(0.370251 6.38718e-19 -0.29709)
(0.477577 -1.11282e-20 -0.248942)
(0.569286 -5.58103e-19 -0.197637)
(0.643662 2.63612e-19 -0.149438)
(0.701583 -1.30063e-19 -0.10826)
(0.745585 1.27604e-19 -0.0748208)
(0.778985 -1.04564e-19 -0.0475323)
(0.802544 9.64263e-20 -0.0268344)
(0.81735 1.03224e-19 -0.0127795)
(0.829423 -5.20243e-20 -0.00171967)
(0.839834 -1.2389e-21 0.00924322)
(0.83969 -1.04205e-19 0.017282)
(0.827652 1.23588e-20 0.0189994)
(0.809674 2.22712e-20 0.0130543)
(0.789826 2.05532e-20 0.00767442)
(0.7675 2.80402e-20 0.0116192)
(0.735102 -9.37982e-21 0.0202635)
(0.688153 2.57691e-22 0.0242848)
(0.63031 1.55344e-20 0.0192102)
(0.569053 0 0.00784029)
(0.513185 0 -0.00244334)
(0.478165 0 -0.00875631)
(0.461328 -4.40008e-21 -0.0154271)
(0.457884 0 -0.026814)
(0.471358 2.50217e-21 -0.0429801)
(0.495203 -2.91597e-21 -0.0614894)
(0.539921 -1.2757e-22 -0.0779037)
(-0.0329019 3.86395e-19 -0.30813)
(0.0772801 -7.3165e-19 -0.421632)
(0.185252 3.32343e-19 -0.421704)
(0.273872 -4.88679e-21 -0.375648)
(0.349061 2.89915e-19 -0.312882)
(0.410838 -2.83693e-19 -0.248356)
(0.459258 0 -0.187943)
(0.496611 7.88434e-21 -0.137665)
(0.522487 -3.0016e-20 -0.0970707)
(0.542926 1.13783e-19 -0.0601718)
(0.55722 -1.12283e-19 -0.0330053)
(0.563562 -1.05688e-19 -0.0251771)
(0.563678 1.29964e-19 -0.0230284)
(0.555143 -4.90262e-20 -0.00511751)
(0.524437 6.02202e-20 0.0167986)
(0.471954 -4.53378e-20 0.0328786)
(0.400059 4.48726e-20 0.038711)
(0.308012 5.32127e-22 0.0414963)
(0.24058 -9.54454e-21 0.0530549)
(0.192419 1.81524e-20 0.0654731)
(0.14557 -1.11434e-21 0.0699574)
(0.105507 -1.6596e-20 0.0635857)
(0.0735468 0 0.0468746)
(0.0500298 0 0.0218248)
(0.0447524 0 -0.00393886)
(0.0481546 4.55566e-21 -0.0240846)
(0.0544562 0 -0.0415441)
(0.0617823 -2.58405e-21 -0.0581816)
(0.0660348 3.28045e-21 -0.0747497)
(0.0716205 -1.29519e-22 -0.0906583)
(-0.0904079 -7.6877e-19 -0.431896)
(0.00469764 7.28151e-19 -0.516943)
(0.0867551 1.0476e-20 -0.491132)
(0.138918 4.92047e-21 -0.42611)
(0.176479 2.01181e-21 -0.350395)
(0.20209 0 -0.277054)
(0.217676 2.63851e-19 -0.209134)
(0.231345 -2.44881e-19 -0.154041)
(0.22708 2.5873e-19 -0.117235)
(0.226324 -2.704e-19 -0.0850596)
(0.218243 0 -0.0469809)
(0.169247 0 -0.0131904)
(0.0674565 -1.34885e-19 0.00992527)
(-0.0103809 1.33144e-19 0.0412058)
(-0.0477482 -4.99331e-20 0.0724158)
(-0.0920574 2.47599e-20 0.091484)
(-0.146173 -4.57627e-20 0.0964453)
(-0.207226 4.38733e-20 0.0904376)
(-0.247563 -2.16173e-20 0.0862985)
(-0.275892 0 0.0859672)
(-0.295745 1.76951e-20 0.0820952)
(-0.307231 0 0.0682454)
(-0.314113 6.89321e-21 0.0449743)
(-0.320053 -7.95645e-22 0.0184062)
(-0.324146 -5.88686e-21 -0.00438433)
(-0.327994 0 -0.0235005)
(-0.334364 -5.44028e-21 -0.0404908)
(-0.342267 -6.94176e-21 -0.0562945)
(-0.352963 4.94335e-22 -0.0728898)
(-0.362388 0 -0.0894261)
(-0.155553 1.19279e-20 -0.543154)
(-0.0909913 0 -0.584487)
(-0.0453869 6.55187e-19 -0.526419)
(-0.0401139 -1.7895e-20 -0.438225)
(-0.0498673 -6.22999e-19 -0.34955)
(-0.0713729 0 -0.270768)
(-0.102112 -2.74168e-19 -0.202341)
(-0.116869 2.22478e-19 -0.137432)
(-0.196238 0 -0.0750875)
(-0.297426 3.10249e-20 -0.0221415)
(-0.355187 -2.99059e-20 0.0268994)
(-0.391182 0 0.0594164)
(-0.442334 2.741e-20 0.0703606)
(-0.486727 2.03993e-22 0.0758397)
(-0.517482 0 0.0944221)
(-0.546297 2.35902e-20 0.110356)
(-0.575887 2.26694e-20 0.114699)
(-0.606412 4.26892e-20 0.109021)
(-0.630833 0 0.101119)
(-0.647939 -1.80621e-20 0.094321)
(-0.657636 -1.59832e-20 0.0843532)
(-0.662575 5.72422e-22 0.0675263)
(-0.667041 -1.33838e-20 0.044764)
(-0.673747 7.38037e-21 0.0203537)
(-0.681248 5.70623e-21 -0.00144705)
(-0.690055 0 -0.0198644)
(-0.702275 1.19775e-20 -0.0358251)
(-0.718136 9.9846e-21 -0.0507902)
(-0.736155 -4.81414e-21 -0.067517)
(-0.749079 2.12584e-21 -0.0845)
(-0.220469 -2.1849e-21 -0.622916)
(-0.204085 7.2212e-19 -0.605815)
(-0.210074 0 -0.508473)
(-0.263471 -5.07187e-21 -0.391907)
(-0.331958 4.80539e-21 -0.288851)
(-0.414686 0 -0.2009)
(-0.508652 0 -0.12304)
(-0.594238 3.28526e-20 -0.0565417)
(-0.660595 -3.16628e-20 -0.00991934)
(-0.712627 0 0.0199805)
(-0.752278 2.58384e-19 0.0451716)
(-0.784563 -4.43291e-19 0.0681082)
(-0.819997 1.87921e-19 0.0845504)
(-0.853412 -5.07909e-20 0.0966605)
(-0.880267 9.58948e-20 0.111029)
(-0.90174 -7.04425e-20 0.122434)
(-0.921062 -2.19591e-20 0.125182)
(-0.940444 2.00759e-20 0.119771)
(-0.958174 -4.00995e-20 0.110809)
(-0.97214 1.83164e-20 0.100581)
(-0.981856 -1.62166e-20 0.0872835)
(-0.989213 4.59361e-20 0.0692101)
(-0.996911 -2.74476e-20 0.0471414)
(-1.00654 1.92228e-20 0.0240679)
(-1.01747 5.53326e-21 0.00344397)
(-1.02941 -3.74103e-21 -0.0135786)
(-1.04623 -9.23045e-21 -0.0280774)
(-1.0679 -1.35126e-20 -0.042006)
(-1.09105 5.38043e-21 -0.0583353)
(-1.1057 -1.10261e-22 -0.0744886)
(-0.282446 -7.48926e-19 -0.646644)
(-0.326505 6.87314e-19 -0.558587)
(-0.40179 -1.65257e-20 -0.41773)
(-0.512654 -1.29021e-18 -0.291646)
(-0.628416 6.23169e-19 -0.190671)
(-0.737664 0 -0.113399)
(-0.830335 3.4413e-20 -0.0562164)
(-0.905133 0 -0.0118494)
(-0.96752 -2.48416e-22 0.0240229)
(-1.01781 -2.98459e-20 0.0517997)
(-1.05833 0 0.0736816)
(-1.09292 -2.73415e-20 0.0911177)
(-1.12497 0 0.104189)
(-1.1544 2.48313e-20 0.115067)
(-1.17922 -9.45443e-20 0.125735)
(-1.19953 6.98e-20 0.133289)
(-1.21765 0 0.134348)
(-1.23558 0 0.128915)
(-1.253 1.94008e-20 0.119464)
(-1.26856 1.68806e-20 0.107427)
(-1.28182 -3.41462e-20 0.0922589)
(-1.29383 -1.43169e-20 0.0734105)
(-1.30617 -1.19552e-20 0.0517524)
(-1.31988 7.30391e-22 0.029633)
(-1.33486 9.88225e-21 0.00999393)
(-1.35017 0 -0.0055741)
(-1.37083 6.24772e-21 -0.0182055)
(-1.39717 8.72271e-21 -0.0308194)
(-1.42448 -2.02879e-22 -0.0462923)
(-1.44038 -1.55973e-21 -0.0613398)
(-0.340995 -1.80901e-20 -0.593583)
(-0.445858 2.26879e-20 -0.444235)
(-0.58125 -6.86535e-19 -0.288405)
(-0.725743 1.30327e-18 -0.169443)
(-0.858639 -1.25194e-18 -0.0848115)
(-0.974668 5.54568e-19 -0.0249989)
(-1.07367 -3.40778e-20 0.0179194)
(-1.15425 -3.24266e-20 0.0486301)
(-1.21807 -1.90343e-22 0.0705343)
(-1.27086 5.8516e-20 0.0873892)
(-1.31487 -1.94016e-19 0.102013)
(-1.35207 2.16378e-19 0.11431)
(-1.38491 1.02289e-19 0.124183)
(-1.41431 4.80324e-20 0.132764)
(-1.43997 -1.19801e-19 0.14043)
(-1.46239 0 0.145212)
(-1.48313 4.23222e-20 0.144941)
(-1.50364 -8.12879e-20 0.139322)
(-1.52401 5.71605e-20 0.129542)
(-1.54352 -3.6408e-20 0.116498)
(-1.56186 -3.18473e-20 0.100235)
(-1.57955 1.5326e-20 0.080878)
(-1.59745 2.53968e-20 0.0594418)
(-1.61615 -4.53625e-20 0.0379212)
(-1.63569 7.59054e-22 0.0188776)
(-1.65598 0 0.00430393)
(-1.67899 -1.17364e-20 -0.00651921)
(-1.70914 0 -0.0172377)
(-1.74001 0 -0.031576)
(-1.75696 0 -0.0455595)
(-0.389588 7.94768e-19 -0.467762)
(-0.543784 -7.73229e-19 -0.281799)
(-0.72884 6.89206e-19 -0.130239)
(-0.902494 -6.7639e-19 -0.0266739)
(-1.05481 6.24417e-19 0.0376066)
(-1.1815 -5.5114e-19 0.0742777)
(-1.28411 0 0.0950063)
(-1.36789 -2.5194e-19 0.107914)
(-1.4366 2.75028e-19 0.117345)
(-1.49329 -2.87701e-20 0.125219)
(-1.54043 -2.75612e-20 0.13258)
(-1.58028 8.00798e-20 0.139389)
(-1.61503 0 0.145597)
(-1.64601 -1.4658e-19 0.151506)
(-1.67392 1.18932e-19 0.156691)
(-1.6997 0 0.159494)
(-1.72454 1.20854e-21 0.158242)
(-1.74941 8.07165e-20 0.152399)
(-1.77455 -7.11779e-22 0.142409)
(-1.7996 0 0.128798)
(-1.82424 1.59131e-20 0.111848)
(-1.84859 0 0.0920521)
(-1.87296 0 0.0705694)
(-1.89751 1.19034e-20 0.0492759)
(-1.92233 1.43253e-20 0.0304875)
(-1.94797 -8.41332e-22 0.0162285)
(-1.97612 1.94464e-20 0.00643228)
(-2.00824 7.45707e-21 -0.00248908)
(-2.0403 -3.79145e-21 -0.0148803)
(-2.05776 -1.62702e-21 -0.027459)
(-0.425532 -8.23244e-19 -0.277216)
(-0.627781 8.00105e-19 -0.0683981)
(-0.863918 -1.6656e-20 0.0780462)
(-1.06369 -6.82917e-19 0.142889)
(-1.22851 6.17468e-19 0.167899)
(-1.36449 -3.49205e-20 0.175546)
(-1.47483 4.87959e-19 0.174678)
(-1.56384 -4.74804e-19 0.170763)
(-1.63576 0 0.167171)
(-1.69463 0 0.165293)
(-1.74367 -1.63173e-19 0.165165)
(-1.78526 2.13613e-19 0.166358)
(-1.82157 0 0.168666)
(-1.8543 0 0.171907)
(-1.88481 -9.3494e-20 0.175172)
(-1.91439 9.14613e-20 0.176742)
(-1.94407 4.28065e-20 0.174986)
(-1.97447 -4.11424e-20 0.169127)
(-2.00571 -3.72588e-20 0.159151)
(-2.03752 3.47155e-20 0.145305)
(-2.06948 0 0.127917)
(-2.10136 -4.15641e-20 0.107653)
(-2.133 1.31534e-20 0.0858135)
(-2.16416 -9.9408e-21 0.0643476)
(-2.19488 5.68273e-21 0.0455305)
(-2.2262 7.22053e-21 0.0312857)
(-2.2606 -1.41244e-20 0.0218302)
(-2.29958 -9.81499e-22 0.0142682)
(-2.33636 4.7078e-21 0.00434904)
(-2.35421 1.25355e-21 -0.00638897)
(-0.441923 0 0.0180289)
(-0.695521 7.48881e-19 0.237486)
(-0.982675 -6.86536e-19 0.308108)
(-1.21432 -5.75827e-19 0.31956)
(-1.39875 5.94154e-19 0.305645)
(-1.54419 -5.00088e-19 0.282946)
(-1.65838 5.19536e-19 0.257917)
(-1.74803 0 0.235151)
(-1.81931 -5.81166e-20 0.217792)
(-1.87763 -2.79938e-19 0.206119)
(-1.9266 3.80847e-19 0.198694)
(-1.96843 -2.639e-19 0.194392)
(-2.00519 1.53251e-19 0.192922)
(-2.03908 -9.93465e-20 0.193921)
(-2.07206 4.58309e-20 0.196078)
(-2.10561 -1.37799e-19 0.197315)
(-2.14066 -8.59958e-20 0.195742)
(-2.17754 3.9201e-20 0.190278)
(-2.21606 -3.84257e-20 0.180587)
(-2.25577 -3.40587e-20 0.166721)
(-2.29607 4.58203e-20 0.148981)
(-2.3364 5.37843e-20 0.128103)
(-2.37619 -1.28551e-20 0.105516)
(-2.41476 0 0.0833472)
(-2.4518 0 0.0640324)
(-2.48836 1.38282e-20 0.0495562)
(-2.52747 -1.07843e-21 0.0402756)
(-2.57119 1.52956e-22 0.0337535)
(-2.61215 6.24559e-22 0.0259368)
(-2.63225 0 0.0172873)
(-0.432548 -2.6188e-20 0.412707)
(-0.763272 -6.97422e-19 0.577629)
(-1.12551 7.03199e-19 0.576735)
(-1.38963 6.11664e-19 0.516156)
(-1.58188 -5.591e-19 0.449239)
(-1.72585 -2.54508e-19 0.391322)
(-1.83592 5.66857e-21 0.339988)
(-1.91975 5.30037e-19 0.297053)
(-1.98515 -3.4221e-19 0.266117)
(-2.03922 2.76973e-19 0.245722)
(-2.08567 5.39862e-20 0.231843)
(-2.12579 -5.29204e-20 0.222427)
(-2.16127 5.14168e-20 0.217583)
(-2.19495 -9.99065e-20 0.217192)
(-2.22956 1.42269e-19 0.219447)
(-2.26677 -4.74705e-20 0.221545)
(-2.30726 4.27969e-20 0.221067)
(-2.35087 -3.928e-20 0.216584)
(-2.39705 7.44926e-20 0.207525)
(-2.44504 -2.72469e-21 0.193818)
(-2.4939 -1.73233e-20 0.175721)
(-2.54261 -5.41683e-20 0.153984)
(-2.59012 1.25618e-20 0.130132)
(-2.63529 2.00074e-20 0.106511)
(-2.6774 3.81423e-21 0.0858547)
(-2.7174 -2.02788e-20 0.0704634)
(-2.75881 1.87388e-21 0.0610856)
(-2.80465 -4.8602e-21 0.0557524)
(-2.84772 -5.82151e-22 0.0503995)
(-2.86875 0 0.044093)
(-0.42957 -7.64155e-19 0.851605)
(-0.88164 -3.56977e-20 1.01193)
(-1.33523 -5.88762e-19 0.889037)
(-1.60956 5.04341e-19 0.720394)
(-1.78152 2.48617e-19 0.584001)
(-1.90608 -2.14014e-19 0.492288)
(-2.00247 5.78035e-20 0.414794)
(-2.07239 -5.72316e-20 0.350577)
(-2.12455 -5.57682e-20 0.307609)
(-2.16961 0 0.281605)
(-2.21069 2.24073e-22 0.263095)
(-2.24647 5.23048e-20 0.249012)
(-2.27768 5.10767e-20 0.241233)
(-2.3082 -1.011e-19 0.240683)
(-2.34199 0 0.244735)
(-2.3809 4.73538e-20 0.249205)
(-2.42497 -1.73573e-21 0.250872)
(-2.47332 3.90467e-20 0.247994)
(-2.5249 -3.87602e-20 0.239902)
(-2.57863 3.41099e-20 0.22648)
(-2.63333 8.41715e-23 0.207929)
(-2.68764 0 0.184949)
(-2.74007 1.21118e-20 0.159154)
(-2.78922 -9.17266e-21 0.133182)
(-2.83425 -1.60904e-20 0.110189)
(-2.87609 0 0.0929704)
(-2.91862 1.05407e-20 0.0829174)
(-2.96571 4.46516e-21 0.0787257)
(-3.01066 5.50373e-22 0.0761654)
(-3.03297 0 0.0723683)
(-0.46799 0 1.40488)
(-1.07686 3.25333e-20 1.8459)
(-1.65461 0 1.34513)
(-1.89691 2.23843e-19 0.915187)
(-1.9968 -1.95079e-19 0.651019)
(-2.0732 -5.50974e-20 0.559798)
(-2.1482 1.90735e-19 0.472452)
(-2.19442 -2.15134e-19 0.390225)
(-2.22243 0 0.337725)
(-2.25278 -1.34678e-19 0.312014)
(-2.28646 -5.47959e-20 0.29104)
(-2.31515 1.05063e-19 0.271649)
(-2.33769 5.20613e-20 0.260713)
(-2.36051 5.27234e-20 0.261539)
(-2.38999 9.9119e-20 0.269703)
(-2.42804 -2.39544e-19 0.278288)
(-2.47339 4.44006e-20 0.283052)
(-2.52419 -4.10913e-20 0.282203)
(-2.57894 -3.83482e-20 0.275212)
(-2.63647 -1.00456e-19 0.262067)
(-2.69557 3.1801e-20 0.242932)
(-2.75465 0 0.218376)
(-2.8118 -5.54103e-20 0.190106)
(-2.86517 1.02938e-20 0.161168)
(-2.91363 1.59593e-20 0.135274)
(-2.9579 -9.73879e-21 0.115783)
(-3.00198 -2.15438e-20 0.104809)
(-3.05057 -5.9484e-21 0.101935)
(-3.09774 -1.08129e-22 0.102827)
(-3.12175 1.32989e-22 0.102072)
(10.0046 0 0.132732)
(9.98516 0 0.262683)
(9.95683 1.48327e-22 0.391876)
(9.9227 2.26529e-19 0.522602)
(9.88119 -6.86365e-19 0.656731)
(9.83191 -4.63474e-19 0.795788)
(9.77522 -1.17485e-18 0.941287)
(9.71147 9.48418e-19 1.09474)
(9.64117 0 1.25758)
(9.56472 0 1.43122)
(9.48242 -9.26513e-19 1.61713)
(9.39467 1.1795e-18 1.81687)
(9.30196 -2.07806e-18 2.03205)
(9.20475 2.08694e-18 2.26442)
(9.1035 0 2.5159)
(8.99879 3.23328e-20 2.78871)
(8.89119 -1.62406e-20 3.0854)
(8.7813 3.25573e-20 3.40896)
(8.66987 1.27722e-19 3.76302)
(8.55778 0 4.15206)
(8.44611 -3.92949e-18 4.58169)
(8.33629 4.02651e-18 5.05916)
(8.23038 -2.41721e-19 5.59416)
(8.13143 -3.76615e-18 6.19979)
(8.04443 3.9377e-18 6.89448)
(7.97787 0 7.70586)
(7.95689 0 8.67732)
(8.01155 -3.67062e-19 9.88976)
(8.72313 -5.22721e-19 11.4165)
(9.30063 3.23562e-19 14.4451)
(10.0052 0 0.137527)
(9.9873 0 0.272186)
(9.9618 -4.32336e-19 0.406077)
(9.93163 2.19842e-19 0.541509)
(9.89525 -4.44479e-19 0.68032)
(9.85214 8.99273e-19 0.824058)
(9.80263 -2.25514e-19 0.974288)
(9.74725 0 1.13253)
(9.68655 -1.15686e-19 1.30019)
(9.62099 9.40883e-19 1.47869)
(9.55098 -1.06549e-18 1.66947)
(9.47708 -1.2021e-19 1.87403)
(9.39996 2.05233e-18 2.09398)
(9.32023 -2.00037e-18 2.33103)
(9.23862 -1.95431e-18 2.58707)
(9.15595 1.95727e-18 2.86426)
(9.07315 0 3.16506)
(8.99134 1.95622e-18 3.49234)
(8.91197 1.8157e-18 3.84957)
(8.83686 -3.87225e-18 4.24093)
(8.76842 -1.20635e-19 4.6716)
(8.70995 -3.70954e-18 5.14812)
(8.66632 3.89631e-18 5.67892)
(8.64487 -4.30183e-19 6.27492)
(8.6577 0 6.95035)
(8.72519 1.49538e-18 7.72404)
(8.89175 -1.28614e-19 8.61873)
(9.17128 -1.26544e-18 9.66215)
(9.88483 4.91277e-19 10.8055)
(10.598 0 12.0569)
(10.0057 0 0.14183)
(9.98953 0 0.280719)
(9.96698 4.21722e-19 0.418812)
(9.94095 0 0.558417)
(9.90988 0 0.701358)
(9.87311 2.18059e-19 0.849205)
(9.83101 8.80454e-19 1.00353)