/*--------------------------------*- C++ -*----------------------------------*\
| =========                 |                                                 |
| \\      /  F ield         | OpenFOAM: The Open Source CFD Toolbox           |
|  \\    /   O peration     | Version:  5.x                                   |
|   \\  /    A nd           | Web:      www.OpenFOAM.org                      |
|    \\/     M anipulation  |                                                 |
\*---------------------------------------------------------------------------*/
FoamFile
{
    version     2.0;
    format      ascii;
    class       surfaceScalarField;
    location    "0.8";
    object      meshPhi;
}
// * * * * * * * * * * * * * * * * * * * * * * * * * * * * * * * * * * * * * //

dimensions      [0 3 -1 0 0 0 0];

internalField   nonuniform List<scalar> 
5457
(
0.000371059
-4.74288e-06
0.000705238
-1.34366e-05
0.000989306
-2.07931e-05
0.00122299
-2.69577e-05
0.00140774
-3.22388e-05
0.00154887
-3.64812e-05
0.00165587
-3.95084e-05
0.00173356
-4.1842e-05
0.00178369
-4.37172e-05
0.00180938
-4.50635e-05
0.00181316
-4.59733e-05
0.00179661
-4.62969e-05
0.00176196
-4.58589e-05
0.00171185
-4.47805e-05
0.00164802
-4.30804e-05
0.00157199
-4.06117e-05
0.00148549
-3.72991e-05
0.00138995
-3.30876e-05
0.00128542
-2.78116e-05
0.00117257
-2.12313e-05
0.00105337
-1.32051e-05
0.000929191
-3.6217e-06
0.000800914
7.67417e-06
0.000669294
2.08159e-05
0.00053547
3.5841e-05
0.000402206
5.26445e-05
0.000274724
7.08406e-05
0.000162325
8.94579e-05
8.28984e-05
0.000106615
0.000110761
0.000369485
-9.4804e-06
0.000704667
-2.68684e-05
0.000990616
-4.1597e-05
0.00122613
-5.39245e-05
0.0014117
-6.46067e-05
0.0015523
-7.32233e-05
0.00165976
-7.92129e-05
0.00173873
-8.38801e-05
0.00178971
-8.77081e-05
0.00181641
-9.04316e-05
0.00182162
-9.23829e-05
0.00180627
-9.31932e-05
0.00177267
-9.23462e-05
0.00172403
-9.02079e-05
0.00166186
-8.69399e-05
0.00158749
-8.21919e-05
0.00150298
-7.57784e-05
0.0014106
-6.76758e-05
0.00130929
-5.75607e-05
0.00119925
-4.4861e-05
0.00108369
-2.93415e-05
0.000964255
-1.08529e-05
0.000841961
1.09226e-05
0.000717729
3.62735e-05
0.000592471
6.53475e-05
0.000468395
9.80535e-05
0.000349858
0.000133819
0.000246352
0.000171417
0.000178233
0.000208337
0.00023381
0.000365838
-1.42115e-05
0.000703366
-4.03051e-05
0.00099327
-6.24533e-05
0.0012327
-8.09089e-05
0.00141958
-9.63579e-05
0.00155848
-0.000108789
0.0016674
-0.000118364
0.00174927
-0.000126155
0.00180179
-0.00013211
0.00183042
-0.000136202
0.00183872
-0.000139467
0.00182577
-0.000141138
0.00179405
-0.0001399
0.00174839
-0.000136762
0.0016896
-0.000132276
0.00161841
-0.000125642
0.00153738
-0.000116496
0.00145193
-0.00010513
0.00135735
-9.10974e-05
0.00125216
-7.31696e-05
0.00114368
-5.11769e-05
0.0010335
-2.51464e-05
0.000922801
5.46817e-06
0.00081297
4.11824e-05
0.000705462
8.2372e-05
0.00060221
0.000129016
0.000506025
0.000180586
0.000425569
0.000236277
0.000391924
0.00029314
0.000325463
0.00035885
-1.87914e-05
0.000700965
-5.358e-05
0.000997196
-8.33387e-05
0.00124062
-0.000107863
0.00142888
-0.000127288
0.00156817
-0.000143002
0.00168057
-0.000157069
0.00176561
-0.000168904
0.00181981
-0.000177071
0.00185099
-0.000182311
0.00186281
-0.000186226
0.0018534
-0.000188408
0.00182562
-0.000187696
0.00178477
-0.000184709
0.00173142
-0.000179761
0.00166472
-0.000171872
0.00158692
-0.000160358
0.00150921
-0.000145986
0.00142632
-0.000129048
0.00133125
-0.000107845
0.00123363
-8.13865e-05
0.00113742
-4.98503e-05
0.00104325
-1.28307e-05
0.000953658
3.04726e-05
0.000872334
8.06873e-05
0.000802894
0.000137979
0.000748938
0.000201955
0.000714398
0.000272392
0.000748329
0.00034569
0.000395268
0.000354022
-2.34842e-05
0.000700795
-6.70919e-05
0.00100272
-0.000104385
0.00124772
-0.000134909
0.00143809
-0.00015898
0.00158372
-0.000178672
0.00170149
-0.000196913
0.00178822
-0.000212566
0.00184351
-0.000222924
0.0018773
-0.000228966
0.00189143
-0.000232735
0.0018869
-0.000235041
0.00186695
-0.000236032
0.00183289
-0.000234557
0.00178784
-0.000230107
0.00172726
-0.000221912
0.00165232
-0.000208752
0.00157841
-0.000191802
0.00150943
-0.000172533
0.0014338
-0.000149887
0.0013532
-0.000121771
0.00127711
-8.78133e-05
0.00120608
-4.79722e-05
0.0011433
-1.18942e-06
0.00109614
5.33926e-05
0.00107353
0.000115797
0.00108509
0.000185072
0.00113278
0.000260699
0.00127844
0.000337797
0.000401224
0.0003575
-2.84504e-05
0.00070606
-8.09824e-05
0.00101027
-0.000125586
0.00125648
-0.000162218
0.0014501
-0.00019164
0.00160439
-0.00021562
0.0017277
-0.000236625
0.00181425
-0.000254234
0.00187065
-0.0002668
0.00190899
-0.000275317
0.0019273
-0.000281019
0.00192931
-0.000284766
0.00191848
-0.000287235
0.00189209
-0.000286921
0.00185544
-0.000282859
0.0018037
-0.000274792
0.00173769
-0.000262072
0.00166981
-0.000245203
0.00161256
-0.0002253
0.00155795
-0.000202173
0.00150004
-0.000174245
0.00145057
-0.000141033
0.00141271
-0.000102658
0.00138951
-5.82917e-05
0.0013886
-6.75859e-06
0.00142764
5.17488e-05
0.00152954
0.000114113
0.00170627
0.000176575
0.00200394
0.000232849
0.000269519
0.000361685
-3.32134e-05
0.000712539
-9.45613e-05
0.00101982
-0.000146683
0.00126916
-0.000189772
0.00146577
-0.000224572
0.00162609
-0.000252326
0.00175318
-0.000275086
0.00183994
-0.000293433
0.00190123
-0.000308716
0.00194784
-0.00032184
0.00197423
-0.000331466
0.00198396
-0.000337741
0.00198069
-0.000341568
0.0019631
-0.000342483
0.0019306
-0.000338805
0.00188906
-0.000330734
0.00184215
-0.000320147
0.0017902
-0.000306179
0.00174654
-0.000288275
0.0017094
-0.000266907
0.00167652
-0.000241499
0.00165736
-0.000211986
0.00166026
-0.00017894
0.0016927
-0.000143092
0.00175862
-0.000104308
0.0018766
-6.23302e-05
0.00208685
-2.1612e-05
0.00242365
7.60356e-06
0.00288773
1.65976e-05
-2.85319e-06
0.000366619
-3.8192e-05
0.000720471
-0.000108534
0.00103199
-0.000167945
0.00128498
-0.000216774
0.00148248
-0.000256305
0.00164642
-0.00028826
0.00177777
-0.00031446
0.00187003
-0.00033572
0.00194069
-0.000354288
0.00199586
-0.00037086
0.00203071
-0.000383556
0.0020487
-0.000392373
0.00205306
-0.000398145
0.0020444
-0.00040057
0.00201774
-0.000398466
0.00198898
-0.000392766
0.00196314
-0.000385266
0.00193126
-0.000374547
0.00190609
-0.00036016
0.00189084
-0.000343345
0.00188725
-0.000324101
0.00190255
-0.000302434
0.00194922
-0.000279303
0.00204354
-0.000257102
0.00219453
-0.000239136
0.00241006
-0.000226914
0.00273206
-0.000223888
0.00321576
-0.000243925
0.00383518
-0.000299369
-0.00038157
0.000380798
-4.36489e-05
0.000733947
-0.000123235
0.0010441
-0.000189227
0.00129994
-0.00024266
0.00150065
-0.000286646
0.00166989
-0.000324054
0.00180807
-0.000355489
0.00191022
-0.000381271
0.00199016
-0.000403252
0.00205201
-0.000422159
0.00209466
-0.00043733
0.00212148
-0.000448854
0.0021354
-0.000457326
0.00213223
-0.000461354
0.00211865
-0.000461283
0.00211118
-0.000460535
0.00210245
-0.000458004
0.00208929
-0.000451278
0.00208574
-0.000441895
0.00209766
-0.000431586
0.00212795
-0.000420959
0.00218553
-0.000411097
0.00228235
-0.000403578
0.0024362
-0.000400932
0.0026723
-0.000409496
0.00300301
-0.000437422
0.00343607
-0.000487345
0.00402431
-0.000568221
0.00476153
-0.000692778
-0.000846966
0.000399327
-4.88097e-05
0.000748255
-0.000136815
0.00105106
-0.000208968
0.00131203
-0.000268236
0.00152418
-0.000318258
0.00170122
-0.000361209
0.00184596
-0.000397322
0.00195772
-0.000427284
0.00204585
-0.000452818
0.00211467
-0.000474652
0.00216562
-0.000492681
0.00220204
-0.000507163
0.0022254
-0.000518312
0.00222892
-0.000524989
0.00223345
-0.000528935
0.00225205
-0.000533991
0.0022605
-0.000537352
0.00226579
-0.000535983
0.00228721
-0.000533232
0.00232789
-0.000531613
0.00239366
-0.000531867
0.0024978
-0.000536238
0.0026515
-0.000547885
0.002866
-0.000569948
0.00317613
-0.000609146
0.00361576
-0.000678853
0.00415471
-0.000785517
0.00481761
-0.000931152
0.00560262
-0.00111412
-0.00134019
0.0004097
-5.28893e-05
0.000758258
-0.000148385
0.00105948
-0.000227834
0.00132868
-0.000294789
0.00155378
-0.000351476
0.00173833
-0.000399329
0.00188909
-0.000439663
0.00200952
-0.000473753
0.00210624
-0.000503031
0.00218327
-0.000528235
0.00224296
-0.000549448
0.00228992
-0.000567313
0.00231934
-0.000580964
0.00233635
-0.000590713
0.00236385
-0.000600595
0.00240218
-0.000611454
0.00242988
-0.000620381
0.00245757
-0.000626392
0.00250679
-0.000632318
0.00258012
-0.000641372
0.00268518
-0.000655312
0.00283435
-0.000676222
0.00304259
-0.000708211
0.00332134
-0.000756948
0.00369633
-0.000828587
0.00419993
-0.000933394
0.00482056
-0.00108315
0.00554085
-0.00127643
0.00629315
-0.00148294
-0.00172399
0.000405675
-5.64422e-05
0.000765426
-0.000159986
0.00107886
-0.00024817
0.00135502
-0.000322557
0.00158753
-0.000385026
0.00177886
-0.000437662
0.00193649
-0.000482349
0.00206547
-0.000520607
0.0021713
-0.000553836
0.00225739
-0.000582808
0.00232593
-0.000607433
0.00238219
-0.00062823
0.00241945
-0.000645317
0.00245506
-0.000660171
0.00250471
-0.000675901
0.00255436
-0.000691427
0.00260408
-0.000706262
0.00266297
-0.000721983
0.00274137
-0.000738765
0.00284995
-0.000759339
0.00299778
-0.000787832
0.0031918
-0.000826706
0.00344953
-0.000879801
0.00378975
-0.000954097
0.00421953
-0.00105513
0.00475139
-0.001188
0.00541135
-0.00136089
0.00614519
-0.00156346
0.00682477
-0.00174554
-0.00189842
0.000401626
-6.09472e-05
0.00077647
-0.000173504
0.0011049
-0.00026982
0.00138663
-0.000350647
0.00162448
-0.000418561
0.00182259
-0.000476079
0.00198755
-0.000525215
0.00212523
-0.000567697
0.00224079
-0.000605057
0.00233685
-0.000638263
0.0024131
-0.000666485
0.00247488
-0.000689351
0.00252913
-0.000710663
0.00258781
-0.000733136
0.00265416
-0.000755526
0.00272016
-0.00077767
0.00279476
-0.000800759
0.00288394
-0.000825205
0.00299218
-0.00085204
0.00313467
-0.00088449
0.0033222
-0.000926757
0.00356093
-0.000982513
0.00386501
-0.00105542
0.00425183
-0.00115046
0.00472114
-0.00127226
0.00527678
-0.00142379
0.00593575
-0.00160396
0.00663896
-0.00179314
0.00728799
-0.00194267
-0.00200088
0.000410873
-6.61443e-05
0.000795427
-0.000187901
0.00113219
-0.000291556
0.00141999
-0.000378549
0.00166409
-0.000451974
0.00186924
-0.000514461
0.00204174
-0.000568106
0.00218829
-0.000614826
0.00231425
-0.000656411
0.00241877
-0.000693265
0.00250106
-0.000724584
0.00257268
-0.000751776
0.00265107
-0.000779744
0.00273184
-0.000809254
0.00281391
-0.000837626
0.0029053
-0.000866967
0.00300582
-0.000899199
0.00311853
-0.000933011
0.00325519
-0.000969604
0.00343061
-0.0010137
0.00365208
-0.00106914
0.00392968
-0.00113935
0.0042714
-0.00122785
0.00468623
-0.00133747
0.00517853
-0.00147164
0.00574767
-0.00163128
0.00638777
-0.00181172
0.0070634
-0.00199927
0.00776749
-0.00217494
-0.00241182
0.000425614
-7.12496e-05
0.000817794
-0.000202069
0.00116057
-0.000313095
0.00145508
-0.000406387
0.00170625
-0.000485443
0.00191878
-0.000553036
0.00209874
-0.000611246
0.00225406
-0.000662155
0.00239014
-0.000707944
0.00249876
-0.000747637
0.00258953
-0.000781872
0.00268312
-0.00081591
0.00278294
-0.000851284
0.00287882
-0.000885935
0.00297901
-0.000920141
0.0030906
-0.000955429
0.00321535
-0.00099431
0.00335674
-0.00103881
0.00352214
-0.00108783
0.00372925
-0.00114382
0.00398059
-0.00121135
0.00428752
-0.00129347
0.00465524
-0.00139331
0.00508795
-0.00151293
0.00559145
-0.00165394
0.00615862
-0.00181493
0.00677627
-0.00199063
0.00740332
-0.00216886
0.00800587
-0.00232899
-0.0035865
0.000156219
-4.898e-05
0.000490175
-0.000108365
0.00112055
-0.000181631
0.00200616
-0.000271842
0.00302264
-0.000360418
0.00402853
-0.000433925
0.00491945
-0.000489667
0.00563504
-0.00052727
0.00616012
-0.000545093
0.00651277
-0.000545201
0.00674251
-0.000527802
0.00688362
-0.000499704
0.0069358
-0.000476708
0.00692023
-0.000462961
0.00684696
-0.000431375
0.00672142
-0.000379897
0.00655081
-0.000347898
0.00633236
-0.000330914
0.00607841
-0.000307149
0.00577992
-0.00028002
0.00541929
-0.000254537
0.00500213
-0.000231076
0.0045341
-0.000208209
0.00402362
-0.000187091
0.00348433
-0.000166234
0.00287562
-0.00013981
0.00217698
-0.000107395
0.00145734
-7.37119e-05
0.000735679
-4.3033e-05
-1.45223e-05
0.000278687
-0.000153666
0.000666
-0.000252645
0.00134356
-0.000399786
0.00224931
-0.000573184
0.00325675
-0.000739082
0.00423421
-0.000873577
0.00509393
-0.000975289
0.00577579
-0.00104472
0.00626756
-0.00107445
0.00659219
-0.00106834
0.00680391
-0.00103643
0.00693051
-0.000978682
0.00697436
-0.000916265
0.00695453
-0.000879303
0.00687219
-0.00082848
0.00674083
-0.000747947
0.00656497
-0.000681273
0.00634302
-0.000627004
0.00608735
-0.000573855
0.00578855
-0.000532176
0.00542701
-0.000496796
0.00500779
-0.000456378
0.00453525
-0.000411197
0.0040256
-0.000366999
0.00349818
-0.000321815
0.00290236
-0.00026891
0.00220612
-0.000211206
0.00146931
-0.000151303
0.000730409
-9.05051e-05
-3.04835e-05
0.000552221
-0.000289781
0.00103775
-0.000456149
0.00179065
-0.000673657
0.00272243
-0.00091515
0.00370222
-0.00113868
0.00461611
-0.00131093
0.00540878
-0.00143323
0.0060243
-0.00151668
0.00645329
-0.00155153
0.00672762
-0.00153575
0.00690594
-0.00149055
0.00700831
-0.00142078
0.00703979
-0.00133491
0.00700719
-0.00126063
0.00691174
-0.0011838
0.00677132
-0.00108713
0.00658851
-0.000991989
0.00636297
-0.000912723
0.00609995
-0.000843072
0.00579759
-0.000785538
0.00543854
-0.000734385
0.00501969
-0.00067321
0.00454121
-0.000603824
0.00403635
-0.000533355
0.00352334
-0.000462696
0.0029291
-0.000389608
0.00223214
-0.00031189
0.00148699
-0.000228265
0.000731986
-0.000139327
-4.72431e-05
0.00100302
-0.000509151
0.00161545
-0.000733398
0.00244005
-0.00100356
0.00337403
-0.0012834
0.00429118
-0.00153378
0.00511028
-0.00172218
0.00580117
-0.00184433
0.0063213
-0.00191681
0.00666858
-0.00194263
0.00688629
-0.00192074
0.00703161
-0.0018731
0.00711151
-0.00180943
0.007121
-0.00171774
0.00706297
-0.001608
0.00696007
-0.00150751
0.0068125
-0.00140798
0.00662073
-0.00129876
0.00639055
-0.00120058
0.00611815
-0.00111349
0.00580968
-0.00103266
0.0054553
-0.000956908
0.00503855
-0.000874639
0.00455872
-0.000784578
0.00405629
-0.000690336
0.00354227
-0.000596257
0.00294321
-0.000505119
0.00225105
-0.000408445
0.00151403
-0.000301765
0.000754531
-0.000186878
-6.41054e-05
0.0016537
-0.000839822
0.00238756
-0.00108246
0.00324228
-0.0013765
0.00412301
-0.00165898
0.00493979
-0.00190416
0.00565311
-0.0020938
0.00622869
-0.00221712
0.00663183
-0.002274
0.00688901
-0.00227827
0.00706079
-0.00225107
0.00717433
-0.00220381
0.00722692
-0.00213714
0.00720802
-0.00204193
0.00712576
-0.00192108
0.00701454
-0.00180412
0.0068616
-0.00169611
0.00666189
-0.00158291
0.00642344
-0.00146937
0.00614298
-0.00136045
0.0058273
-0.0012551
0.0054742
-0.00115487
0.00506013
-0.00105661
0.0045852
-0.000953058
0.00408104
-0.000842388
0.0035508
-0.000729802
0.00294893
-0.000618097
0.00226893
-0.000500436
0.0015421
-0.000371719
0.000781003
-0.000231824
-7.99915e-05
0.00249313
-0.00122031
0.00329907
-0.0014666
0.00412778
-0.00176177
0.0049135
-0.00203213
0.00560842
-0.00225917
0.00620278
-0.00243115
0.00665655
-0.00254185
0.00694534
-0.00258842
0.00712475
-0.00258322
0.00725409
-0.00255023
0.00732548
-0.00249591
0.00734164
-0.00241843
0.00729989
-0.00232111
0.00720169
-0.00220297
0.00706888
-0.00207059
0.00690765
-0.00194278
0.00670525
-0.00182537
0.006459
-0.00170623
0.00617318
-0.00158349
0.00585037
-0.00146136
0.00549117
-0.00134272
0.0050784
-0.00122832
0.00461012
-0.00111103
0.004104
-0.000986925
0.00355936
-0.000858855
0.0029546
-0.000727412
0.00228409
-0.000588526
0.00156256
-0.000438201
0.000797645
-0.000274172
-9.4833e-05
0.00344192
-0.00159128
0.00424885
-0.00183808
0.00501659
-0.00212183
0.005698
-0.00237843
0.00626295
-0.00258608
0.00671935
-0.00273242
0.00704101
-0.00281546
0.00724151
-0.00284653
0.00737061
-0.00284249
0.00745173
-0.00280884
0.00747724
-0.00274799
0.00745584
-0.00266315
0.00739173
-0.00256036
0.00727896
-0.00244138
0.00712278
-0.0023034
0.0069491
-0.00216376
0.00674511
-0.00203881
0.00649437
-0.0019148
0.00620483
-0.00178404
0.0058767
-0.00165229
0.00550954
-0.00152175
0.00509506
-0.00139223
0.0046303
-0.00125997
0.00412243
-0.00112223
0.00357026
-0.00097916
0.00296293
-0.000830053
0.00229643
-0.000671817
0.00157712
-0.00050088
0.000808403
-0.000313901
-0.000108696
0.00440484
-0.00194561
0.00515174
-0.00217004
0.0058352
-0.00243711
0.00640935
-0.00267901
0.00685443
-0.00286887
0.00718371
-0.00299547
0.00739129
-0.00305987
0.00752313
-0.00307737
0.00760797
-0.00306603
0.00763964
-0.00302779
0.00762317
-0.00296217
0.00756621
-0.00287193
0.00747258
-0.0027609
0.0073448
-0.00263712
0.00717972
-0.00250399
0.00699358
-0.00236613
0.00678266
-0.00223359
0.00652812
-0.00210204
0.00623468
-0.0019652
0.00590235
-0.00182587
0.00552978
-0.00168546
0.0051123
-0.00154381
0.00464763
-0.00139873
0.00413776
-0.00124814
0.00358111
-0.001091
0.00297164
-0.000925857
0.00230633
-0.000749872
0.00158746
-0.000559569
0.000815523
-0.000350995
-0.000121606
0.00531139
-0.00224671
0.00596498
-0.00244885
0.00655548
-0.00271237
0.00702972
-0.00294694
0.00737568
-0.00312015
0.00760607
-0.00322743
0.00773374
-0.00327719
0.00780105
-0.00328389
0.00782681
-0.00326004
0.00780935
-0.00321107
0.00775493
-0.00313986
0.00766788
-0.00304749
0.00754805
-0.00293523
0.007406
-0.00281067
0.00723854
-0.00268101
0.00704291
-0.00254667
0.00682076
-0.00240989
0.00656073
-0.0022713
0.00626284
-0.00212877
0.00592622
-0.00198295
0.00554921
-0.00183441
0.0051287
-0.00168285
0.0046626
-0.0015268
0.00415061
-0.00136451
0.00359089
-0.00119446
0.00297957
-0.00101472
0.00231412
-0.000822453
0.00159479
-0.000614139
0.000820273
-0.000385427
-0.000133569
0.00610639
-0.00243732
0.00668027
-0.00269051
0.00719887
-0.00297455
0.00758647
-0.00320166
0.0078402
-0.00334864
0.00798438
-0.00342824
0.00804229
-0.0034569
0.00804722
-0.00344891
0.00801504
-0.00341469
0.007954
-0.00335866
0.00786952
-0.00328426
0.00776103
-0.00319293
0.00762643
-0.00308528
0.00747189
-0.00296533
0.00729594
-0.00283735
0.00709167
-0.0027032
0.00685888
-0.00256452
0.00659205
-0.00242205
0.006289
-0.00227524
0.00594796
-0.00212421
0.00556693
-0.00196907
0.00514339
-0.00180939
0.00467522
-0.001644
0.00416111
-0.00147131
0.00359904
-0.00128956
0.00298608
-0.00109658
0.00231996
-0.000889444
0.00159983
-0.000664518
0.000823362
-0.00041718
-0.000144587
0.00677879
-0.00255953
0.00733141
-0.00295897
0.00778949
-0.00325674
0.00808378
-0.00344808
0.00823665
-0.00354844
0.00829498
-0.00359005
0.00828585
-0.00359455
0.0082382
-0.0035729
0.0081667
-0.00353216
0.00807601
-0.00347451
0.00797042
-0.00340096
0.00784662
-0.00331261
0.00770187
-0.0032099
0.00753659
-0.0030948
0.00734934
-0.00297005
0.00713609
-0.00283758
0.00689454
-0.00269886
0.00662094
-0.00255469
0.00631255
-0.00240514
0.00596708
-0.00225025
0.00558228
-0.00208992
0.00515576
-0.00192365
0.00468534
-0.00175037
0.0041692
-0.00156856
0.00360521
-0.00137637
0.00299084
-0.00117146
0.0023239
-0.000950814
0.001603
-0.000710684
0.000825195
-0.000446255
-0.000154666
0.00739473
-0.00280189
0.00795918
-0.00331718
0.00831993
-0.00355951
0.00849512
-0.00366765
0.00854473
-0.0037052
0.00852559
-0.00370812
0.00846684
-0.00369239
0.00838449
-0.00366245
0.00828963
-0.00361943
0.00818137
-0.00356327
0.00806033
-0.00349316
0.00792372
-0.00340912
0.00776869
-0.00331157
0.00759373
-0.00320167
0.007397
-0.00308114
0.00717543
-0.00295159
0.00692628
-0.00281428
0.00664636
-0.00267003
0.0063328
-0.00251913
0.00598306
-0.00236167
0.00559472
-0.00219746
0.00516536
-0.00202593
0.00469273
-0.00184607
0.00417472
-0.0016564
0.00360914
-0.001455
0.00299362
-0.00123943
0.00232598
-0.00100659
0.00160453
-0.000752657
0.00082601
-0.000472673
-0.000163816
0.008051
-0.00333324
0.00854874
-0.0037344
0.0087579
-0.00382874
0.00880298
-0.0038283
0.00876934
-0.00380651
0.00869639
-0.00378213
0.00860688
-0.00375516
0.00850436
-0.00372257
0.00839338
-0.00368095
0.00827201
-0.00362819
0.00813859
-0.00356281
0.00799087
-0.00348421
0.00782633
-0.00339246
0.00764274
-0.00328823
0.00743785
-0.00317265
0.00720891
-0.00304694
0.0069531
-0.00291216
0.00666744
-0.00276906
0.0063491
-0.00261803
0.00599539
-0.00245916
0.00560379
-0.00229221
0.00517182
-0.00211663
0.00469714
-0.00193139
0.00417751
-0.00173503
0.00361067
-0.00152559
0.0029943
-0.00130059
0.00232623
-0.00105685
0.00160458
-0.000790491
0.000825954
-0.000496474
-0.000172053
0.0087781
-0.00400956
0.00908445
-0.00408159
0.00911064
-0.0039769
0.00904046
-0.0038911
0.00894465
-0.00384049
0.00883653
-0.00380939
0.0087241
-0.00378357
0.00860582
-0.00375481
0.00848119
-0.00371831
0.00834814
-0.00367128
0.0082043
-0.00361209
0.0080472
-0.00353991
0.00787431
-0.00345459
0.00768315
-0.00335651
0.00747123
-0.00324642
0.00723586
-0.00312525
0.00697426
-0.00299384
0.00668355
-0.00285287
0.00636091
-0.0027027
0.00600364
-0.00254341
0.00560911
-0.00237477
0.00517483
-0.00219619
0.00469838
-0.00200666
0.00417743
-0.0018047
0.00360966
-0.00158836
0.0029928
-0.00135508
0.00232464
-0.0011017
0.00160323
-0.000824271
0.000825125
-0.000517716
-0.0001794
0.00982753
-0.00481673
0.00964179
-0.00385353
0.00942116
-0.00382792
0.00924087
-0.00380719
0.00909009
-0.00379685
0.00895265
-0.00378936
0.00882055
-0.00377871
0.0086882
-0.00376096
0.00855211
-0.00373346
0.00840922
-0.00369446
0.00825665
-0.00364284
0.00809167
-0.00357796
0.00791164
-0.00349967
0.00771395
-0.0034082
0.00749601
-0.00330409
0.00725513
-0.00318803
0.00698856
-0.00306069
0.00669349
-0.00292264
0.00636714
-0.00277418
0.00600678
-0.00261538
0.0056098
-0.00244598
0.00517362
-0.00226536
0.0046958
-0.00207253
0.00417395
-0.00186599
0.00360572
-0.00164378
0.00298883
-0.00140335
0.00232108
-0.00114148
0.00160048
-0.000854257
0.000823562
-0.000536571
-0.000185918
0.000456078
-7.62864e-05
0.000872291
-0.000216159
0.00123568
-0.000334694
0.00154939
-0.000434463
0.00181857
-0.000519356
0.00204737
-0.000592297
0.00224139
-0.000655151
0.00241171
-0.000710142
0.00256092
-0.00075953
0.00267796
-0.00080263
0.00278814
-0.000841883
0.00290987
-0.000882404
0.0030261
-0.000922586
0.0031411
-0.000962051
0.00327022
-0.00100466
0.00340149
-0.00104816
0.0035484
-0.00109234
0.00373097
-0.00114537
0.00393614
-0.00120726
0.00417641
-0.00127403
0.00446459
-0.00135101
0.00480702
-0.00144309
0.00520927
-0.00155174
0.00567417
-0.00167825
0.00620603
-0.00182301
0.00679525
-0.00198276
0.0074277
-0.00214864
0.00805445
-0.00230032
0.00862418
-0.00239764
-0.00246143
0.00803693
0.000480786
-8.12237e-05
0.000917094
-0.000230076
0.00129809
-0.000356217
0.00162858
-0.000462611
0.00191417
-0.000553534
0.00215742
-0.000632133
0.00236186
-0.000699661
0.00254385
-0.000758174
0.0027029
-0.000810457
0.00283535
-0.000858182
0.00297022
-0.000904751
0.00311162
-0.000951608
0.00324203
-0.000996681
0.00338113
-0.00104215
0.00353838
-0.00109161
0.00368986
-0.00114212
0.00385906
-0.00119396
0.00407801
-0.00125555
0.00431384
-0.00132571
0.00457764
-0.00140005
0.00489913
-0.00148562
0.00527182
-0.00158653
0.00570236
-0.00170231
0.00619254
-0.00183357
0.00674365
-0.00197875
0.0073432
-0.00213215
0.00797299
-0.00228143
0.00859968
-0.00240928
0.00922082
-0.0024963
-0.00256131
0.00978644
0.000505539
-8.60235e-05
0.000963244
-0.000243685
0.00136359
-0.000377412
0.00171242
-0.000490462
0.00201697
-0.000587522
0.00227458
-0.000671366
0.00248671
-0.000742878
0.00267965
-0.00080533
0.00285349
-0.000862421
0.00301012
-0.00091621
0.00317039
-0.000969527
0.00332861
-0.00102236
0.00347882
-0.00107323
0.00364093
-0.00112428
0.0038143
-0.00117732
0.00398793
-0.00123241
0.00419233
-0.00129321
0.00443344
-0.00136142
0.00468644
-0.00143511
0.00498203
-0.00151778
0.00533894
-0.00161379
0.00574153
-0.00172224
0.00619743
-0.00184245
0.00670509
-0.00197371
0.00725829
-0.00211175
0.0078387
-0.00224894
0.00842297
-0.00237434
0.00898598
-0.00247793
0.00950214
-0.00255066
-0.00260958
0.00990645
0.000530815
-9.07032e-05
0.00101109
-0.000256981
0.00143185
-0.000398135
0.00179975
-0.000517641
0.00212344
-0.000620372
0.00239454
-0.000708642
0.0026174
-0.000784505
0.00282557
-0.000852786
0.00301937
-0.000916181
0.00320119
-0.000975932
0.00338424
-0.00103483
0.0035613
-0.00109317
0.00373072
-0.00114923
0.0039106
-0.00120475
0.00409942
-0.00126283
0.0042975
-0.00132399
0.00453198
-0.00139027
0.00478383
-0.00146165
0.00505978
-0.00154006
0.00539693
-0.00163179
0.00578399
-0.00173537
0.0062101
-0.001847
0.00667878
-0.00196593
0.0071839
-0.00208978
0.00771339
-0.00221371
0.00824765
-0.00233085
0.00876926
-0.00243456
0.0092645
-0.00252049
0.00970486
-0.00258157
-0.00263453
0.010031
0.000557205
-9.52549e-05
0.00106115
-0.000269917
0.00150276
-0.000418265
0.00188982
-0.000544002
0.00223047
-0.000652161
0.00251805
-0.000745622
0.00276141
-0.000827346
0.00298746
-0.000901454
0.00319782
-0.000969611
0.00340215
-0.00103403
0.00360923
-0.0010986
0.00380327
-0.00116179
0.00398618
-0.00122111
0.00418747
-0.00128149
0.00440192
-0.00134643
0.00462182
-0.00141342
0.0048745
-0.0014841
0.00514763
-0.00156127
0.00545691
-0.00164649
0.00582327
-0.00174214
0.00622573
-0.00184591
0.00666036
-0.00195471
0.00712331
-0.00206673
0.00760641
-0.00217867
0.00809758
-0.00228641
0.00858172
-0.00238549
0.00904793
-0.00247239
0.00948286
-0.00254386
0.00985964
-0.00259386
-0.00263902
0.0101312
0.000584614
-9.96119e-05
0.00111319
-0.000282319
0.00157632
-0.000437619
0.00198342
-0.00056947
0.00234277
-0.000683371
0.00265256
-0.000783046
0.00291964
-0.000870907
0.00315828
-0.000948815
0.00337941
-0.00101946
0.00360773
-0.0010884
0.0038388
-0.00115819
0.00404202
-0.001224
0.00424115
-0.00128662
0.00447251
-0.00135384
0.00471103
-0.00142457
0.00495252
-0.00149616
0.00522884
-0.00157303
0.00553254
-0.00165644
0.00586754
-0.00174517
0.00624283
-0.00183981
0.00664703
-0.00193944
0.0070761
-0.00204204
0.00752083
-0.00214492
0.00797156
-0.00224383
0.00842174
-0.00233569
0.00886253
-0.00241962
0.00928161
-0.00249314
0.00966316
-0.00255182
0.00998842
-0.00259171
-0.00262818
0.0102217
0.000612638
-0.000103712
0.00116661
-0.000294017
0.00165228
-0.000455937
0.00208078
-0.00059366
0.00246373
-0.000713305
0.00279766
-0.000818552
0.00307907
-0.00091013
0.00332332
-0.000989711
0.00356114
-0.00106389
0.00381745
-0.00113914
0.00406482
-0.00121323
0.00428057
-0.00128232
0.00450869
-0.00135136
0.00476712
-0.0014248
0.00502418
-0.00149943
0.00529201
-0.00157522
0.00559268
-0.00165587
0.00591621
-0.00174084
0.0062633
-0.00182895
0.00663804
-0.00192039
0.0070366
-0.00201443
0.00745484
-0.00210986
0.00787548
-0.00220273
0.00828702
-0.00228757
0.00869939
-0.00236521
0.00910487
-0.00243753
0.00948227
-0.00249968
0.00981873
-0.00254685
0.0101035
-0.00257782
-0.00260568
0.0103086
0.000641207
-0.000107527
0.00122125
-0.000304916
0.00173025
-0.000473034
0.00218054
-0.000616179
0.00258636
-0.000740556
0.00293979
-0.000849391
0.00323017
-0.000943525
0.00348808
-0.00102724
0.00375544
-0.00110817
0.0040354
-0.00118912
0.00429579
-0.00126675
0.0045383
-0.00134083
0.00479667
-0.00141547
0.00507111
-0.00149189
0.00534696
-0.00156892
0.00563723
-0.00164727
0.00595129
-0.00172839
0.00628332
-0.00181215
0.00663388
-0.00189771
0.00700354
-0.00198433
0.00739105
-0.00207121
0.00779445
-0.00215768
0.00819
-0.00223992
0.00856654
-0.00231374
0.00894661
-0.00238124
0.00931927
-0.00244302
0.00965862
-0.00249397
0.00995777
-0.00253105
0.0102108
-0.00255424
-0.0025741
0.0103941
0.0006705
-0.000111009
0.00127735
-0.000314883
0.0018103
-0.000488695
0.00228196
-0.00063677
0.0027048
-0.000765051
0.00307364
-0.000877126
0.00338568
-0.000975817
0.00367444
-0.00106611
0.00396951
-0.00115272
0.0042638
-0.00123669
0.00454155
-0.00131729
0.00481205
-0.00139531
0.00509069
-0.00147282
0.00537721
-0.00155075
0.00566979
-0.00162904
0.00597429
-0.00170807
0.00629537
-0.00178846
0.00663179
-0.00187012
0.00698054
-0.00195211
0.00733931
-0.00203267
0.00771073
-0.00211131
0.00809368
-0.0021884
0.00846797
-0.00226148
0.00882437
-0.00232774
0.0091757
-0.0023869
0.00951265
-0.00243777
0.00981766
-0.00247793
0.0100858
-0.00250621
0.010313
-0.00252246
-0.00253517
0.0104788
0.000700549
-0.000114061
0.00133497
-0.000323647
0.00189253
-0.000502529
0.0023858
-0.00065506
0.00282514
-0.000787246
0.00321269
-0.000903355
0.00355548
-0.00100695
0.00387637
-0.00110208
0.00419098
-0.00119212
0.0044982
-0.00127848
0.00479473
-0.00136157
0.00508597
-0.0014422
0.00537994
-0.00152159
0.00567881
-0.00160044
0.00598354
-0.00167895
0.00629721
-0.00175734
0.00662286
-0.00183585
0.00696254
-0.00191487
0.00730531
-0.00199255
0.00764562
-0.00206556
0.00800017
-0.00213589
0.00836538
-0.00220592
0.00872077
-0.00227177
0.00906038
-0.00232999
0.00938485
-0.0023801
0.00968876
-0.00242134
0.00996399
-0.00245263
0.010206
-0.00247337
0.0104116
-0.00248354
-0.00249004
0.0105628
0.000731095
-0.000116589
0.00139368
-0.000330953
0.00197654
-0.000514157
0.00249238
-0.000670569
0.00295169
-0.000806297
0.00336145
-0.000925962
0.00373157
-0.00103341
0.00407767
-0.0011322
0.00441071
-0.00122508
0.00473352
-0.00131357
0.00504719
-0.00139857
0.00535555
-0.00148088
0.00566338
-0.00156129
0.00597321
-0.00164031
0.00628684
-0.00171818
0.0066054
-0.00179487
0.00693069
-0.00187006
0.00726969
-0.00194448
0.00760527
-0.00201688
0.00792936
-0.00208426
0.0082699
-0.00214882
0.00861954
-0.00221205
0.00895494
-0.00227001
0.00927335
-0.00232011
0.00957302
-0.00236198
0.00985015
-0.0023951
0.0101002
-0.00241895
0.01032
-0.00243329
0.0105074
-0.0024382
-0.00243942
0.0106459
0.000761886
-0.000118534
0.0014531
-0.00033663
0.0020619
-0.000523316
0.00260126
-0.000682942
0.00308209
-0.000821641
0.00351384
-0.000944176
0.00390783
-0.00105453
0.00427649
-0.00115604
0.00462811
-0.0012511
0.00496706
-0.00134122
0.00529681
-0.00142752
0.00562007
-0.00151075
0.00594012
-0.00159145
0.006259
-0.00166994
0.00657961
-0.00174656
0.00689837
-0.00182057
0.00721478
-0.00189068
0.0075461
-0.00195904
0.00787906
-0.00202693
0.00820041
-0.00209139
0.00852856
-0.00215151
0.0088573
-0.00220728
0.00917151
-0.00225699
0.00946841
-0.00229939
0.00974543
-0.00233386
0.00999967
-0.00236
0.0102283
-0.00237754
0.0104291
-0.00238644
0.0106007
-0.00238687
-0.00238367
0.0107282
0.000792768
-0.000119835
0.00151295
-0.000340507
0.00214838
-0.000529748
0.00271216
-0.000691837
0.00321507