/*--------------------------------*- C++ -*----------------------------------*\
| =========                 |                                                 |
| \\      /  F ield         | OpenFOAM: The Open Source CFD Toolbox           |
|  \\    /   O peration     | Version:  5.x                                   |
|   \\  /    A nd           | Web:      www.OpenFOAM.org                      |
|    \\/     M anipulation  |                                                 |
\*---------------------------------------------------------------------------*/
FoamFile
{
    version     2.0;
    format      ascii;
    class       volVectorField;
    location    "4.4";
    object      Force;
}
// * * * * * * * * * * * * * * * * * * * * * * * * * * * * * * * * * * * * * //

dimensions      [1 1 -2 0 0 0 0];

internalField   uniform (0 0 0);

boundaryField
{
    inlet
    {
        type            calculated;
        value           uniform (0 0 0);
    }
    outlet
    {
        type            calculated;
        value           uniform (0 0 0);
    }
    flap
    {
        type            calculated;
        value           nonuniform List<vector> 
33
(
(3.72614 -0.105771 5.60108e-19)
(3.71717 -0.24889 -1.08624e-20)
(3.70266 -0.388148 3.49059e-18)
(3.67674 -0.487428 1.72185e-18)
(3.64013 -0.550157 1.6867e-18)
(3.58888 -0.583641 -1.66361e-18)
(3.52554 -0.577635 -4.05694e-22)
(3.46706 -0.540543 -4.69732e-18)
(3.39763 -0.503526 -1.11353e-20)
(3.30643 -0.449907 1.60755e-18)
(3.20256 -0.389656 -4.3803e-18)
(3.06937 -0.33292 2.09706e-18)
(2.874 -0.294749 1.15141e-22)
(2.55277 -0.259346 1.59685e-18)
(1.97079 -0.202029 -9.45158e-22)
(0.0657932 0.598069 6.36212e-19)
(0.0397309 0.370026 -8.09938e-19)
(0.0129331 0.13624 -7.87615e-19)
(-0.0231344 0.000659214 -5.556e-24)
(-0.0225993 0.00147809 2.24615e-23)
(-0.0213476 0.00211958 -4.29048e-24)
(-0.0193291 0.00234424 4.59177e-41)
(-0.017636 0.00232738 1.58153e-18)
(-0.0168184 0.00231326 3.24902e-18)
(-0.0167829 0.00225093 3.34641e-18)
(-0.0170996 0.00217114 2.28463e-20)
(-0.0186733 0.00229612 -9.25782e-23)
(-0.0219149 0.00259987 -2.91388e-20)
(-0.0254752 0.00281763 3.3286e-18)
(-0.0285781 0.00303654 -1.7092e-18)
(-0.0296161 0.0032706 0)
(-0.0259848 0.00318241 0)
(-0.0161225 0.002343 1.7277e-18)
)
;
    }
    upperWall
    {
        type            calculated;
        value           uniform (0 0 0);
    }
    lowerWall
    {
        type            calculated;
        value           uniform (0 0 0);
    }
    frontAndBack
    {
        type            empty;
    }
}


// ************************************************************************* //
