/*--------------------------------*- C++ -*----------------------------------*\
| =========                 |                                                 |
| \\      /  F ield         | OpenFOAM: The Open Source CFD Toolbox           |
|  \\    /   O peration     | Version:  5.x                                   |
|   \\  /    A nd           | Web:      www.OpenFOAM.org                      |
|    \\/     M anipulation  |                                                 |
\*---------------------------------------------------------------------------*/
FoamFile
{
    version     2.0;
    format      ascii;
    class       volVectorField;
    location    "4.4";
    object      U;
}
// * * * * * * * * * * * * * * * * * * * * * * * * * * * * * * * * * * * * * //

dimensions      [0 1 -1 0 0 0 0];

internalField   nonuniform List<vector> 
2790
(
(9.93796 0.0205438 0)
(9.86853 0.0290294 0)
(9.767 0.0349149 0)
(9.64052 0.0410118 3.21975e-20)
(9.49578 0.0473572 0)
(9.33417 0.0538907 -3.41157e-20)
(9.15504 0.0607384 0)
(8.9576 0.0680557 0)
(8.7412 0.0759727 -3.77462e-20)
(8.50506 0.0846066 -3.91979e-20)
(8.24824 0.0940778 -8.2117e-20)
(7.96961 0.104513 1.27168e-19)
(7.66792 0.116038 0)
(7.34185 0.128783 4.66217e-20)
(6.99006 0.142869 0)
(6.61127 0.158401 0)
(6.20436 0.175454 0)
(5.76847 0.194055 1.15743e-19)
(5.3032 0.214153 0)
(4.80882 0.235596 -3.98335e-19)
(4.28645 0.258089 5.60295e-19)
(3.73837 0.281152 0)
(3.16824 0.304071 0)
(2.58136 0.325856 3.55237e-19)
(1.98487 0.345243 -1.5516e-18)
(1.38698 0.361393 1.68346e-18)
(0.805599 0.377032 4.6162e-19)
(0.196156 0.316936 5.01234e-19)
(-0.316041 -0.227213 0)
(-0.0450393 -0.343023 8.70323e-18)
(9.99617 0.0403978 5.99136e-20)
(9.9813 0.0606317 -6.08931e-20)
(9.93735 0.0760083 -6.21168e-20)
(9.86727 0.0922052 -3.17803e-20)
(9.77645 0.109376 0)
(9.66642 0.127342 -3.33879e-20)
(9.53676 0.146353 6.87222e-20)
(9.38679 0.166755 0)
(9.21591 0.188845 1.09661e-19)
(9.02339 0.212888 3.78285e-20)
(8.80832 0.239154 -3.15421e-19)
(8.5696 0.267918 -4.47461e-20)
(8.30599 0.299445 6.77575e-19)
(8.01612 0.333974 -4.83231e-19)
(7.69865 0.371706 -1.84353e-19)
(7.35219 0.412762 0)
(6.97546 0.457136 -1.02132e-18)
(6.56741 0.504642 7.42544e-19)
(6.12738 0.554832 0)
(5.65525 0.606914 -1.19724e-19)
(5.15174 0.659653 0)
(4.61865 0.711252 2.18155e-18)
(4.05918 0.759236 2.45778e-20)
(3.47835 0.800318 -2.78973e-18)
(2.88372 0.830159 -5.38089e-18)
(2.28629 0.842767 6.9335e-19)
(1.70714 0.828246 3.71995e-19)
(1.14327 0.746536 1.9871e-17)
(0.700726 0.521159 -9.27236e-19)
(0.25322 -0.120963 -1.69658e-17)
(9.99329 0.0421972 -7.48769e-20)
(9.97559 0.0722647 4.5596e-20)
(9.9338 0.0982106 9.2926e-20)
(9.86852 0.125143 0)
(9.78384 0.153653 1.94678e-19)
(9.68141 0.183681 6.73279e-20)
(9.5611 0.215569 -2.04125e-19)
(9.4224 0.249812 0)
(9.26484 0.286873 -7.23131e-20)
(9.08784 0.32719 0)
(8.89064 0.37121 -4.6427e-19)
(8.67233 0.419401 3.17459e-19)
(8.43183 0.472218 0)
(8.1679 0.530084 8.61325e-20)
(7.8793 0.593367 1.79352e-19)
(7.56469 0.662328 0)
(7.22272 0.737033 1.95548e-19)
(6.85215 0.817263 -2.05613e-18)
(6.45195 0.902393 3.43473e-18)
(6.02139 0.991231 -1.34383e-18)
(5.56034 1.08185 0)
(5.06942 1.17135 4.05376e-18)
(4.55034 1.25561 -4.25098e-18)
(4.00631 1.32894 5.67069e-19)
(3.44266 1.38352 0)
(2.86676 1.40792 -1.94976e-18)
(2.28987 1.38341 -7.00911e-19)
(1.70903 1.27092 0)
(1.11844 1.0214 8.39953e-19)
(0.632612 0.60374 0)
(9.99165 0.0477662 -2.98823e-20)
(9.97169 0.0889713 1.51512e-19)
(9.92976 0.126512 0)
(9.86572 0.164269 1.25933e-19)
(9.78275 0.2035 -6.44717e-20)
(9.68247 0.244567 -1.32448e-19)
(9.56497 0.287985 4.06742e-19)
(9.42993 0.334409 -2.76999e-19)
(9.27701 0.384477 0)
(9.10585 0.438801 -5.92926e-19)
(8.9159 0.498006 2.97319e-19)
(8.70653 0.562743 6.25186e-19)
(8.47695 0.63366 0)
(8.22627 0.711368 0)
(7.95352 0.796424 -1.40992e-18)
(7.65769 0.889278 1.80875e-18)
(7.33772 0.990153 0)
(6.99254 1.09894 3.95948e-19)
(6.62113 1.21502 4.1148e-19)
(6.22257 1.33712 -3.48074e-18)
(5.79612 1.46295 4.05129e-18)
(5.34137 1.589 -4.7429e-19)
(4.85843 1.71007 0)
(4.34801 1.81875 -9.04942e-18)
(3.81169 1.90485 -1.19229e-18)
(3.25121 1.95416 1.07594e-17)
(2.66765 1.94638 -1.2832e-18)
(2.05451 1.85004 1.39251e-18)
(1.3775 1.64169 -1.53666e-18)
(0.770351 1.30433 -1.78784e-18)
(9.99087 0.0547619 0)
(9.96966 0.105463 -6.05071e-20)
(9.9276 0.153133 -6.14616e-20)
(9.86466 0.200748 -2.50861e-19)
(9.78341 0.249981 -2.56518e-19)
(9.68526 0.301559 -1.32397e-19)
(9.57039 0.356136 5.37365e-19)
(9.43854 0.414457 -2.74499e-19)
(9.28948 0.477266 0)
(9.12291 0.545283 0)
(8.93842 0.619254 -3.00043e-19)
(8.73549 0.699947 -4.68393e-19)
(8.51353 0.788132 4.7613e-19)
(8.2719 0.884557 -1.00131e-18)
(8.00983 0.989905 -1.79937e-20)
(7.7266 1.10476 1.05438e-18)
(7.42145 1.22949 0)
(7.09352 1.36411 -3.81427e-19)
(6.74194 1.50814 -3.99439e-19)
(6.36572 1.66034 -4.16319e-19)
(5.96381 1.81843 3.05168e-18)
(5.53504 1.97869 -1.04354e-17)
(5.07812 2.1355 7.55369e-18)
(4.59153 2.28076 -8.02148e-18)
(4.07337 2.40333 1.68599e-17)
(3.521 2.48861 -8.91061e-18)
(2.92995 2.51812 2.15717e-17)
(2.29369 2.46716 -2.19174e-17)
(1.57447 2.32131 2.41471e-17)
(0.884856 2.06432 -2.2697e-17)
(9.99054 0.0624083 -2.37582e-19)
(9.96879 0.121965 1.20397e-19)
(9.92698 0.179295 0)
(9.8654 0.236703 1.24926e-19)
(9.78623 0.295922 3.82936e-19)
(9.69066 0.357913 1.63944e-21)
(9.57888 0.423449 -2.65469e-19)
(9.45071 0.493361 -5.48279e-19)
(9.30599 0.568485 5.57675e-19)
(9.14444 0.649659 1.43564e-19)
(8.96568 0.737743 1.4818e-19)
(8.76928 0.833618 -1.37818e-18)
(8.55475 0.938159 1.71917e-18)
(8.32154 1.05223 -3.247e-19)
(8.06906 1.17663 -1.34704e-18)
(7.79668 1.31207 1.37496e-18)
(7.50377 1.45903 0)
(7.18955 1.61769 3.35833e-18)
(6.8532 1.78773 3.93404e-20)
(6.49364 1.96811 -3.96874e-18)
(6.10953 2.15676 -5.85346e-18)
(5.69909 2.35014 6.87402e-18)
(5.25993 2.54279 8.96946e-19)
(4.78883 2.72672 7.58414e-18)
(4.28152 2.89092 -6.89996e-18)
(3.73251 3.02117 1.68197e-17)
(3.13473 3.10031 -2.00117e-17)
(2.48352 3.10624 1.80489e-17)
(1.74839 3.02257 -4.18751e-17)
(0.999462 2.82733 2.21459e-17)
(9.99045 0.0703152 5.55198e-22)
(9.96868 0.138386 1.19653e-19)
(9.92753 0.204896 0)
(9.86757 0.271737 3.72793e-19)
(9.79081 0.340589 -2.52503e-19)
(9.69827 0.412582 -3.88159e-19)
(9.5901 0.488631 7.9326e-19)
(9.46623 0.569658 4.29791e-21)
(9.32651 0.656606 -4.13228e-19)
(9.17066 0.750422 1.45163e-19)
(8.99835 0.852071 -5.80153e-19)
(8.80924 0.962522 0)
(8.60285 1.08274 -6.16132e-19)
(8.37871 1.2137 1.27654e-18)
(8.13624 1.35631 -1.29963e-18)
(7.87486 1.51138 -2.37725e-18)
(7.5939 1.67956 -3.44211e-20)
(7.29257 1.86118 5.38908e-18)
(6.9699 2.05616 -6.67773e-18)
(6.62465 2.26376 3.06104e-18)
(6.25511 2.48229 -7.19682e-18)
(5.85891 2.7087 7.3807e-18)
(5.43275 2.93811 -1.00164e-20)
(4.97215 3.16316 7.17402e-18)
(4.4712 3.37348 6.63657e-18)
(3.92263 3.55526 -1.56463e-17)
(3.31774 3.69116 1.04608e-18)
(2.65287 3.75837 2.22601e-18)
(1.90783 3.73215 -6.00483e-19)
(1.11196 3.57383 -6.71818e-19)
(9.99053 0.0782513 2.95736e-19)
(9.96909 0.15456 -2.99279e-19)
(9.92896 0.229796 -2.42414e-19)
(9.87092 0.305658 -1.24485e-19)
(9.7969 0.383767 -1.22592e-21)
(9.70781 0.465369 3.83949e-19)
(9.60378 0.551503 0)
(9.48477 0.643185 5.36952e-19)
(9.35068 0.74146 -6.81961e-19)
(9.20124 0.847378 -2.82204e-19)
(9.03621 0.961987 -5.8268e-19)
(8.85526 1.08635 8.7834e-19)
(8.65796 1.22153 6.04337e-19)
(8.44383 1.3686 -1.24883e-18)
(8.21233 1.52859 1.26904e-18)
(7.96284 1.70246 -6.56015e-19)
(7.69462 1.89103 0)
(7.40676 2.09484 3.33352e-21)
(7.09809 2.31411 7.1939e-19)
(6.76707 2.54848 5.9437e-18)
(6.41155 2.79684 -6.05622e-18)
(6.02855 3.05684 -1.01827e-20)
(5.61395 3.32444 -8.18315e-19)
(5.16212 3.59328 0)
(4.66579 3.85385 8.83763e-19)
(4.11614 4.09266 0)
(3.50278 4.29145 9.59553e-19)
(2.82041 4.42493 -1.03906e-18)
(2.05678 4.4585 -1.75938e-17)
(1.21795 4.32914 4.02878e-17)
(9.99071 0.0860681 -2.35137e-19)
(9.96988 0.170329 0)
(9.93109 0.253865 1.2091e-19)
(9.87526 0.338318 -1.24134e-19)
(9.80431 0.42527 -1.16558e-21)
(9.71906 0.516047 -2.56404e-19)
(9.61964 0.611793 5.16813e-19)
(9.50603 0.713619 0)
(9.37816 0.822661 0)
(9.23585 0.940059 -1.10997e-18)
(9.07888 1.06695 -1.0464e-20)
(8.90697 1.20449 2.78826e-19)
(8.7197 1.35384 -3.09296e-19)
(8.51662 1.51619 1.20827e-18)
(8.29721 1.6927 3.0992e-19)
(8.06082 1.8845 3.20542e-19)
(7.80665 2.09264 -3.25736e-19)
(7.53363 2.31792 3.03986e-18)
(7.24036 2.56092 -2.74418e-18)
(6.92497 2.82181 7.12369e-19)
(6.58487 3.10016 0)
(6.21644 3.39454 -7.53148e-19)
(5.81469 3.70205 -6.1861e-18)
(5.37289 4.01758 6.32986e-18)
(4.88223 4.33284 0)
(4.33197 4.6349 -1.37378e-17)
(3.70933 4.90448 1.34052e-17)
(3.0053 5.1133 4.70024e-19)
(2.21256 5.21751 1.66818e-17)
(1.32608 5.12467 -1.8403e-17)
(9.99096 0.0936636 2.3493e-19)
(9.97095 0.185563 2.36676e-19)
(9.93377 0.276977 0)
(9.88044 0.36957 -2.44194e-19)
(9.81287 0.464912 0)
(9.73182 0.564388 0)
(9.63744 0.66923 5.1506e-19)
(9.52973 0.780639 -7.82518e-19)
(9.40866 0.899831 2.66133e-19)
(9.27412 1.02803 0)
(9.12594 1.16645 1.11744e-18)
(8.96388 1.31636 -1.13147e-18)
(8.78758 1.47902 1.16715e-18)
(8.59664 1.65573 -1.18171e-18)
(8.3905 1.84779 -3.04803e-19)
(8.16854 2.05653 0)
(7.92996 2.28326 2.87063e-18)
(7.67357 2.52912 -2.97409e-19)
(7.39778 2.79512 -2.64249e-18)
(7.10045 3.08208 6.73703e-19)
(6.77857 3.3904 5.57651e-18)
(6.42795 3.71978 -4.95507e-18)
(6.04277 4.06877 0)
(5.61506 4.43395 0)
(5.13423 4.80881 0)
(4.58687 5.18183 -3.91554e-19)
(3.95655 5.53349 0)
(3.22806 5.83272 -4.40706e-19)
(2.39239 6.02706 0)
(1.44454 5.98387 2.29073e-19)
(9.99128 0.100963 2.33193e-19)
(9.97225 0.200149 -2.36312e-19)
(9.93691 0.299011 0)
(9.88634 0.399276 0)
(9.82243 0.502523 0)
(9.74593 0.610183 7.50492e-19)
(9.65698 0.723567 -2.50619e-19)
(9.55562 0.843954 4.62774e-21)
(9.44187 0.972629 -1.31812e-18)
(9.31568 1.11089 5.34912e-19)
(9.17696 1.26004 0)
(9.02551 1.42143 0)
(8.86108 1.59643 -2.83315e-19)
(8.68332 1.78646 -2.04278e-18)
(8.49165 1.99296 2.7309e-19)
(8.2855 2.21746 2.40249e-18)
(8.06417 2.46156 -3.05616e-19)
(7.82644 2.72681 2.83256e-18)
(7.57062 3.01471 -2.8596e-18)
(7.29443 3.32681 4.88618e-18)
(6.9946 3.66451 -4.94528e-18)
(6.66654 4.02886 4.72217e-18)
(6.30373 4.42022 -5.8051e-18)
(5.89708 4.8375 0)
(5.4339 5.2769 0)
(4.89739 5.72991 1.0608e-20)
(4.26571 6.179 0)
(3.51364 6.5921 1.26417e-17)
(2.61889 6.91015 -1.45106e-20)
(1.585 6.94759 -1.74867e-19)
(9.99164 0.107908 -4.65132e-19)
(9.97372 0.213993 0)
(9.94044 0.319858 -2.37786e-19)
(9.89286 0.427307 2.41209e-19)
(9.83287 0.537946 -2.43591e-19)
(9.76121 0.653246 2.48423e-19)
(9.67805 0.774582 -5.00747e-19)
(9.58345 0.903298 2.56403e-19)
(9.47748 1.04074 1.04385e-18)
(9.36018 1.18828 -1.05463e-18)
(9.2315 1.34728 0)
(9.09137 1.51918 2.72797e-19)
(8.93961 1.70544 -1.1169e-18)
(8.77594 1.90762 8.44794e-19)
(8.59994 2.12731 -2.89805e-19)
(8.41105 2.3662 -2.64568e-18)
(8.2086 2.62617 5.06474e-18)
(7.99162 2.9092 -2.41031e-18)
(7.75848 3.21736 4.92899e-18)
(7.50688 3.55298 -1.02622e-17)
(7.23361 3.91855 -3.43303e-19)
(6.93396 4.31669 1.0191e-17)
(6.60117 4.74994 6.58706e-19)
(6.22538 5.22029 -1.04149e-17)
(5.79212 5.72803 5.26744e-18)
(5.28091 6.27014 -5.00262e-18)
(4.66277 6.83532 5.29415e-18)
(3.89801 7.39629 -4.28695e-20)
(2.93502 7.89441 -1.18396e-17)
(1.77719 8.09443 6.48812e-18)
(9.99204 0.114454 2.31944e-19)
(9.97534 0.227017 2.33029e-19)
(9.94427 0.339421 0)
(9.8999 0.45355 4.78782e-19)
(9.84406 0.571043 -4.84321e-19)
(9.77751 0.69341 7.37162e-19)
(9.70044 0.822074 -2.47299e-19)
(9.61296 0.958437 7.5921e-19)
(9.51518 1.1039 5.18125e-19)
(9.40722 1.25987 -1.2994e-18)
(9.28913 1.42779 0)
(9.16092 1.60915 -1.34933e-18)
(9.02252 1.8055 1.3624e-18)
(8.87377 2.01851 -2.22441e-18)
(8.71448 2.24993 4.49656e-18)
(8.54416 2.50163 -4.55406e-18)
(8.36227 2.77567 2.30035e-18)
(8.16811 3.07444 0)
(7.96028 3.40062 2.66133e-18)
(7.73682 3.75727 2.39323e-18)
(7.49487 4.14802 -9.87941e-18)
(7.23014 4.57713 9.33609e-18)
(6.9363 5.04958 -5.14033e-18)
(6.60368 5.57106 0)
(6.21745 6.14762 4.83351e-18)
(5.75466 6.78476 -1.82862e-19)
(5.17923 7.48402 -4.73524e-18)
(4.43425 8.23561 3.95943e-20)
(3.42098 9.00082 0)
(2.0845 9.53055 1.86929e-19)
(9.99247 0.120563 -4.59826e-19)
(9.97708 0.239154 -2.32705e-19)
(9.94838 0.357612 0)
(9.90738 0.4779 2.36741e-19)
(9.85589 0.601693 0)
(9.79468 0.730529 2.4266e-19)
(9.72396 0.865875 -4.94289e-19)
(9.64388 1.00917 2.48012e-19)
(9.55465 1.16186 -1.269e-18)
(9.45643 1.3254 1.28263e-18)
(9.34937 1.50125 -2.5942e-19)
(9.23359 1.69096 2.62826e-19)
(9.10915 1.89616 2.6615e-19)
(8.97605 2.11857 2.17283e-18)
(8.83426 2.36008 -2.18512e-18)
(8.68361 2.62272 3.5515e-21)
(8.52383 2.90875 0)
(8.35436 3.22083 0)
(8.17426 3.56212 -2.27031e-18)
(7.98221 3.93641 4.83326e-18)
(7.77613 4.34829 -6.54982e-18)
(7.55279 4.80352 4.5636e-18)
(7.30723 5.30949 1.39639e-19)
(7.0316 5.87571 0)
(6.71339 6.51487 -6.80178e-20)
(6.33132 7.24364 2.06507e-19)
(5.84801 8.08387 -6.4793e-20)
(5.19475 9.06372 6.26408e-20)
(4.2154 10.2158 4.09033e-18)
(2.63698 11.451 -4.30431e-18)
(9.99293 0.126207 4.59469e-19)
(9.97892 0.250351 3.45974e-19)
(9.95269 0.374363 -3.49127e-19)
(9.91521 0.50027 -2.3616e-19)
(9.86824 0.629782 -2.38689e-19)
(9.81255 0.764463 -2.41477e-19)
(9.74839 0.905808 0)
(9.67597 1.05529 -2.49027e-19)
(9.59555 1.21438 1.75315e-18)
(9.50738 1.38454 -7.58115e-19)
(9.41171 1.56729 5.1249e-19)
(9.30877 1.76418 -2.60382e-19)
(9.19876 1.97688 -5.24113e-19)
(9.08188 2.20717 -7.98262e-19)
(8.95828 2.45698 1.066e-18)
(8.82817 2.72848 2.71002e-19)
(8.69162 3.0241 -2.68881e-19)
(8.54829 3.34667 2.17872e-18)
(8.39784 3.69966 -2.17925e-18)
(8.23988 4.08732 -2.72329e-18)
(8.07345 4.51493 2.03903e-18)
(7.89698 4.98937 2.72908e-19)
(7.708 5.51979 1.98176e-18)
(7.5024 6.11876 -2.1012e-18)
(7.27358 6.80448 6.50183e-20)
(7.00974 7.60413 -5.56171e-20)
(6.6885 8.56152 1.88118e-18)
(6.26239 9.75702 -1.90444e-18)
(5.58429 11.3752 -8.86805e-20)
(3.72304 14.3614 -9.03117e-19)
(0.100118 -0.092911 -2.75687e-20)
(0.288907 -0.103238 2.49263e-20)
(0.477231 -0.0907348 0)
(0.645517 -0.0716894 0)
(0.781789 -0.0525018 1.23051e-20)
(0.883497 -0.0347833 -1.377e-20)
(0.951853 -0.0186441 -4.70385e-21)
(0.988936 -0.00419762 4.61432e-21)
(0.997597 0.00778973 0)
(0.982429 0.0158076 0)
(0.948265 0.02103 8.34384e-22)
(0.901148 0.023941 1.83765e-21)
(0.846656 0.024686 -2.28647e-21)
(0.789805 0.0235849 0)
(0.73485 0.0211094 -1.13553e-21)
(0.685016 0.0177386 -7.24838e-23)
(0.642532 0.0138827 1.79384e-21)
(0.608875 0.00985836 -9.17687e-22)
(0.585034 0.00575097 0)
(0.572242 0.00132993 -5.94993e-22)
(0.572364 -0.00299468 2.95026e-22)
(0.583427 -0.00604756 -2.6877e-22)
(0.601121 -0.00735822 0)
(0.621259 -0.007376 -2.12572e-22)
(0.640846 -0.00681648 -8.2381e-23)
(0.65887 -0.00630491 2.27375e-22)
(0.676071 -0.00624282 0)
(0.694232 -0.00675294 0)
(0.715147 -0.0075225 -5.34041e-23)
(0.746471 -0.00793458 4.12462e-24)
(0.0904117 -0.261094 1.17237e-19)
(0.284892 -0.270652 -9.84126e-20)
(0.464829 -0.235665 7.40514e-20)
(0.628366 -0.190226 -1.08491e-19)
(0.765285 -0.146119 3.35099e-20)
(0.874346 -0.105537 -2.82955e-21)
(0.957009 -0.0681177 0)
(1.01486 -0.0337952 9.46967e-21)
(1.04949 -0.00345591 -9.11055e-21)
(1.06103 0.0207639 0)
(1.05212 0.0383505 -8.34707e-21)
(1.02843 0.0495309 9.3643e-21)
(0.995523 0.0547102 8.04725e-22)
(0.958471 0.0548245 -7.99852e-21)
(0.92141 0.051068 5.20636e-21)
(0.887458 0.0445699 0)
(0.85891 0.0362326 1.83259e-21)
(0.837409 0.0267599 -2.09583e-21)
(0.824069 0.0166575 -6.18191e-22)
(0.818542 0.00628098 -1.17892e-21)
(0.818179 -0.00338886 1.44191e-21)
(0.822746 -0.0107488 -2.70788e-22)
(0.832525 -0.0148345 0)
(0.845372 -0.0157588 2.08892e-22)
(0.858671 -0.0148504 0)
(0.870656 -0.0137309 -1.44282e-22)
(0.880941 -0.0136252 0)
(0.890314 -0.0150657 0)
(0.900353 -0.017842 4.85671e-23)
(0.917316 -0.019929 -3.39475e-23)
(0.0645749 -0.429718 -1.26984e-20)
(0.245332 -0.434138 0)
(0.394091 -0.375905 -4.17771e-21)
(0.531153 -0.30617 0)
(0.645395 -0.240145 0)
(0.737226 -0.179561 8.06134e-21)
(0.80836 -0.123567 -1.64973e-20)
(0.860039 -0.0720938 1.25232e-20)
(0.892973 -0.026403 1.45019e-20)
(0.910914 0.0120415 -1.25919e-20)
(0.910483 0.041867 8.03199e-22)
(0.897026 0.0615432 -7.78747e-22)
(0.875508 0.071511 0)
(0.850217 0.0734113 0)
(0.824333 0.0691856 5.56365e-24)
(0.800035 0.0605859 0)
(0.778774 0.0489741 5.59788e-21)
(0.761383 0.0354314 -4.91902e-21)
(0.748008 0.0210644 6.22199e-22)
(0.737121 0.00713341 -6.23874e-22)
(0.726859 -0.00526766 0)
(0.715004 -0.0151419 5.3968e-22)
(0.703832 -0.0213691 0)
(0.694692 -0.0232228 4.30722e-22)
(0.686932 -0.0216833 0)
(0.679496 -0.0187389 0)
(0.672027 -0.0163849 0)
(0.664752 -0.0159336 0)
(0.65874 -0.0179989 -1.16269e-22)
(0.658224 -0.0215298 5.11667e-23)
(0.0408418 -0.573593 0)
(0.197188 -0.564459 0)
(0.304976 -0.482093 9.17335e-21)
(0.408618 -0.391761 -7.09236e-21)
(0.491929 -0.309028 -5.10358e-20)
(0.558543 -0.233644 3.90427e-20)
(0.610463 -0.163738 3.02794e-20)
(0.648949 -0.0986404 1.09291e-21)
(0.673756 -0.0402217 -2.5575e-20)
(0.687771 0.0112078 -1.38019e-21)
(0.687827 0.0506955 1.11598e-20)
(0.675683 0.0756803 -1.22701e-20)
(0.656616 0.0879639 1.80171e-21)
(0.634515 0.0901378 2.02875e-21)
(0.611567 0.0848573 1.13122e-21)
(0.588702 0.074385 4.99549e-21)
(0.565754 0.0605989 -4.9233e-21)
(0.541665 0.0453315 5.29753e-21)
(0.514667 0.030723 -3.88466e-21)
(0.483652 0.0186668 6.37321e-22)
(0.446241 0.00957354 1.24963e-21)
(0.40392 0.00314125 -3.34488e-21)
(0.359832 -0.000618548 1.11849e-21)
(0.319344 -0.00189826 -4.44968e-22)
(0.286593 -0.00202297 0)
(0.262335 -0.00226286 -3.04678e-22)
(0.246727 -0.00379543 -2.34076e-22)
(0.238959 -0.007936 6.82253e-23)
(0.237142 -0.0155529 3.56628e-23)
(0.243865 -0.0262528 0)
(0.0212898 -0.688574 3.31669e-21)
(0.144001 -0.656645 1.4692e-19)
(0.202326 -0.55086 0)
(0.267547 -0.445114 7.19893e-21)
(0.312386 -0.351368 6.01263e-21)
(0.346544 -0.267147 0)
(0.371521 -0.189607 -3.71394e-21)
(0.390063 -0.116957 -3.35417e-21)
(0.403423 -0.0538688 -2.22579e-20)
(0.411808 0.000374906 3.47183e-20)
(0.403003 0.0490374 -2.17976e-20)
(0.383249 0.0810879 1.20696e-20)
(0.359505 0.0984717 -1.8579e-21)
(0.333077 0.1037 -2.09063e-21)
(0.303672 0.100468 -2.31418e-21)
(0.270657 0.0921867 -1.05075e-20)
(0.232253 0.0814405 1.03608e-20)
(0.187961 0.0700202 0)
(0.139331 0.0593875 4.08152e-23)
(0.0905422 0.0508015 0)
(0.047391 0.0431616 -1.28973e-21)
(0.00775249 0.0343589 1.18933e-21)
(-0.0241278 0.0247495 -1.94416e-23)
(-0.0493743 0.0158332 0)
(-0.0686854 0.0083684 0)
(-0.0832979 0.00238233 3.08152e-22)
(-0.0943325 -0.00288133 2.36388e-22)
(-0.102381 -0.00893786 1.35965e-22)
(-0.110067 -0.0177948 -1.33407e-22)
(-0.115966 -0.0294746 -6.62277e-23)
(0.00609726 -0.763775 1.46438e-19)
(0.0865742 -0.702142 0)
(0.0898413 -0.574835 1.15013e-19)
(0.112344 -0.458778 -1.13987e-19)
(0.111639 -0.357487 -3.5391e-20)
(0.106161 -0.268379 4.06459e-20)
(0.0949888 -0.188505 3.86156e-21)
(0.0817921 -0.115892 -2.05207e-20)
(0.0835937 -0.0472862 4.81004e-20)
(0.0290032 0.0212034 -1.04707e-20)
(0.0232772 0.0751477 -1.40923e-21)
(-0.000715688 0.106684 -1.18212e-20)
(-0.0217788 0.121692 -1.84354e-21)
(-0.0480714 0.126252 -9.06833e-21)
(-0.0780983 0.124373 8.87065e-21)
(-0.110933 0.118411 -2.6034e-21)
(-0.146577 0.109609 0)
(-0.182801 0.0987396 0)
(-0.217957 0.0863686 -7.04612e-21)
(-0.250612 0.0733476 6.93957e-21)
(-0.279164 0.0605657 0)
(-0.305263 0.048213 0)
(-0.329278 0.0368044 -1.95128e-23)
(-0.351224 0.0268669 0)
(-0.370886 0.0187511 -6.79152e-22)
(-0.38853 0.0120161 7.66281e-23)
(-0.404554 0.00588707 0)
(-0.418906 -0.00143374 -3.09379e-22)
(-0.432261 -0.0122883 3.18151e-23)
(-0.441847 -0.0258921 3.40231e-23)
(-0.00669929 -0.788316 -1.40458e-19)
(0.022763 -0.692515 0)
(-0.0285088 -0.546856 0)
(-0.0552708 -0.426112 0)
(-0.104783 -0.320156 7.63302e-20)
(-0.155435 -0.229187 -8.52617e-20)
(-0.208396 -0.149053 0)
(-0.258612 -0.0762948 6.54283e-23)
(-0.30231 -0.00902421 -2.37291e-20)
(-0.345718 0.0463256 2.05097e-20)
(-0.363599 0.0870044 2.68065e-21)
(-0.381931 0.118474 1.53149e-21)
(-0.399352 0.135461 9.56306e-24)
(-0.417869 0.142348 -1.75834e-20)
(-0.437297 0.142131 1.72195e-20)
(-0.45738 0.136842 -1.06574e-20)
(-0.477945 0.12776 7.65091e-21)
(-0.4985 0.115897 0)
(-0.519129 0.102315 0)
(-0.540071 0.0882732 -1.36414e-21)
(-0.561213 0.0747778 -6.38555e-21)
(-0.582544 0.0618976 6.17587e-21)
(-0.604184 0.049781 -1.98376e-21)
(-0.62564 0.038933 1.93053e-21)
(-0.646461 0.0296973 0)
(-0.666463 0.0220273 7.36299e-23)
(-0.685782 0.0151039 9.09353e-22)
(-0.703899 0.00672199 3.02697e-22)
(-0.718861 -0.00623809 -1.63804e-22)
(-0.728475 -0.0213192 0)
(-0.0203568 -0.758924 -1.521e-19)
(-0.0485762 -0.628676 0)
(-0.149784 -0.473803 0)
(-0.228979 -0.352058 1.03161e-19)
(-0.322533 -0.248442 -2.22176e-20)
(-0.412332 -0.163347 -4.43443e-20)
(-0.495663 -0.09174 -2.97226e-20)
(-0.568786 -0.0288723 -3.02877e-21)
(-0.630971 0.0268557 -2.08139e-20)
(-0.667623 0.070333 2.02055e-20)
(-0.693942 0.103956 -1.11785e-20)
(-0.711951 0.129478 1.23662e-20)
(-0.724748 0.14466 1.71503e-21)
(-0.734851 0.151016 0)
(-0.743599 0.150567 2.28832e-21)
(-0.751905 0.145135 1.30798e-20)
(-0.760608 0.13612 -7.70486e-21)
(-0.770495 0.124693 -2.89888e-21)
(-0.782372 0.111956 -8.66425e-21)
(-0.796749 0.0989163 1.28297e-22)
(-0.813537 0.0862207 1.17971e-20)
(-0.832306 0.0739894 -1.07295e-20)
(-0.852793 0.0622977 7.44656e-21)
(-0.874266 0.0515122 -1.91127e-21)
(-0.896074 0.0420478 1.25855e-21)
(-0.917954 0.0340005 -1.70954e-21)
(-0.939696 0.0263379 -3.21524e-22)
(-0.960133 0.0162487 2.51949e-22)
(-0.976397 0.000958165 1.60825e-22)
(-0.985729 -0.0153209 -9.17156e-23)
(-0.0360569 -0.678416 -1.61052e-19)
(-0.116573 -0.516699 1.5924e-19)
(-0.270877 -0.355379 0)
(-0.400107 -0.237263 0)
(-0.530616 -0.144468 -4.19839e-20)
(-0.648898 -0.0712056 4.61993e-20)
(-0.753083 -0.0120471 -3.02311e-20)
(-0.839026 0.0347012 5.08073e-20)
(-0.897268 0.0697232 -4.16071e-20)
(-0.938936 0.0979448 4.09742e-20)
(-0.967956 0.121589 -1.94596e-20)
(-0.985867 0.13946 -1.42574e-21)
(-0.995811 0.150117 1.65392e-21)
(-1.00066 0.154006 0)
(-1.00262 0.152442 -9.62869e-21)
(-1.00351 0.146902 2.01607e-20)
(-1.00499 0.138654 -1.04814e-20)
(-1.00847 0.128725 1.46126e-20)
(-1.01508 0.117942 -8.6883e-21)
(-1.02546 0.106924 2.94319e-21)
(-1.03961 0.0960187 2.41187e-21)
(-1.05714 0.0852779 -1.75133e-21)
(-1.0775 0.0746739 -4.48492e-21)
(-1.09973 0.0644696 1.55318e-21)
(-1.12293 0.0551617 -1.52649e-21)
(-1.14656 0.0469117 9.22438e-22)
(-1.17011 0.0384265 -3.91297e-22)
(-1.19224 0.0264924 -2.47429e-22)
(-1.20983 0.00880882 0)
(-1.21877 -0.00867193 1.62898e-22)
(-0.0543793 -0.53754 1.94273e-19)
(-0.18661 -0.353669 -2.61326e-21)
(-0.400803 -0.197422 2.49841e-21)
(-0.580145 -0.0908997 0)
(-0.747477 -0.0116859 6.33267e-21)
(-0.883963 0.0390473 1.25725e-23)
(-0.987995 0.0711671 -3.78917e-21)
(-1.06518 0.0933941 -2.22936e-20)
(-1.12496 0.1114 1.01147e-21)
(-1.16896 0.126812 1.77304e-20)
(-1.1987 0.139591 -1.03047e-20)
(-1.21633 0.148861 -3.24155e-21)
(-1.22473 0.153686 2.60026e-20)
(-1.22673 0.154043 -1.40102e-20)
(-1.22481 0.150741 7.49797e-21)
(-1.22126 0.144953 1.31739e-21)
(-1.21828 0.137735 -7.78957e-21)
(-1.21775 0.129813 0)
(-1.22107 0.121617 0)
(-1.22907 0.113372 -2.89375e-21)
(-1.24197 0.105099 -1.39226e-22)
(-1.25946 0.0965915 -5.92536e-21)
(-1.2807 0.0876202 2.62224e-21)
(-1.30441 0.0783448 3.3781e-21)
(-1.32935 0.0693423 -8.4853e-22)
(-1.35473 0.0608439 -4.79008e-22)
(-1.37997 0.0513727 8.94662e-22)
(-1.40362 0.0374531 0)
(-1.42233 0.0173443 1.69242e-22)
(-1.43148 -0.00139709 -8.79808e-23)
(-0.0889509 -0.33216 4.48252e-19)
(-0.291108 -0.137948 -2.10153e-19)
(-0.58426 0.0308378 -5.05357e-21)
(-0.793664 0.103891 0)
(-0.956176 0.132074 -6.18002e-21)
(-1.08369 0.142865 -2.40373e-21)
(-1.18501 0.148011 3.51862e-21)
(-1.26458 0.151493 0)
(-1.32545 0.154128 1.73491e-20)
(-1.36947 0.156066 -1.69289e-20)
(-1.39853 0.157382 0)
(-1.41513 0.157696 2.48811e-21)
(-1.42213 0.156183 -3.05933e-21)
(-1.42215 0.152404 0)
(-1.41754 0.146841 2.28937e-21)
(-1.4108 0.140569 0)
(-1.40459 0.134506 -2.85625e-21)
(-1.40126 0.128991 0)
(-1.40254 0.12394 0)
(-1.40945 0.119124 -6.04517e-21)
(-1.42236 0.114181 8.74409e-21)
(-1.44093 0.108526 5.09534e-21)
(-1.46406 0.101618 1.89717e-21)
(-1.49001 0.0934629 -1.86428e-21)
(-1.51707 0.0847394 5.38358e-22)
(-1.54415 0.07581 0)
(-1.57076 0.0651494 -5.55607e-22)
(-1.59566 0.0491814 -2.07071e-22)
(-1.61542 0.0267177 -1.51673e-22)
(-1.62527 0.00663743 -1.27147e-23)
(-0.168985 -0.0158125 2.06383e-20)
(-0.447551 0.224077 2.25249e-19)
(-0.745153 0.275578 2.49098e-21)
(-0.963675 0.278873 0)
(-1.13494 0.264349 2.95591e-21)
(-1.26761 0.244765 -1.90775e-21)
(-1.36961 0.225634 -1.64803e-21)
(-1.44791 0.209618 0)
(-1.50692 0.196183 0)
(-1.54879 0.184183 6.65965e-22)
(-1.57543 0.173806 8.87064e-21)
(-1.58969 0.165249 -2.03887e-20)
(-1.59465 0.157473 1.15453e-20)
(-1.59263 0.14934 0)
(-1.58552 0.14111 -1.46603e-20)
(-1.57581 0.134139 9.91456e-21)
(-1.56671 0.129432 -1.60963e-20)
(-1.56117 0.126863 9.20721e-21)
(-1.56123 0.125617 3.54939e-21)
(-1.56802 0.124905 -3.4477e-21)
(-1.58196 0.123946 -5.72793e-21)
(-1.60268 0.121705 7.8677e-21)
(-1.62872 0.117187 -6.61441e-21)
(-1.65771 0.110159 4.93191e-22)
(-1.68715 0.101388 -6.9201e-22)
(-1.71557 0.0915537 1.13223e-21)
(-1.74276 0.0793987 -2.53514e-22)
(-1.76815 0.0614013 2.25078e-22)
(-1.78846 0.0366732 -5.30096e-23)
(-1.79854 0.0150716 1.27062e-23)
(-0.223799 0.460277 0)
(-0.554841 0.56676 0)
(-0.907863 0.534132 0)
(-1.14957 0.467191 1.35395e-21)
(-1.325 0.402533 0)
(-1.45366 0.34634 1.85778e-21)
(-1.54875 0.299525 -4.27626e-22)
(-1.6203 0.263783 -2.57507e-22)
(-1.67427 0.235206 0)
(-1.71189 0.209593 -6.56179e-22)
(-1.73405 0.187502 -3.04049e-22)
(-1.74417 0.170538 -7.79104e-21)
(-1.74611 0.157192 -3.65187e-21)
(-1.74171 0.144824 1.20652e-20)
(-1.73183 0.133504 2.28466e-21)
(-1.71872 0.125545 0)
(-1.70636 0.122536 3.16642e-21)
(-1.69868 0.123731 -1.11899e-20)
(-1.69803 0.127156 7.40242e-21)
(-1.70543 0.131298 6.82007e-21)
(-1.72128 0.134995 -6.0701e-21)
(-1.74519 0.136738 3.0862e-21)
(-1.77531 0.134912 -1.87326e-21)
(-1.80829 0.128846 5.7862e-22)
(-1.84051 0.119348 1.24032e-21)
(-1.86993 0.107793 3.80928e-22)
(-1.8969 0.0936668 -3.62413e-23)
(-1.92199 0.0737068 3.56963e-23)
(-1.94231 0.0469684 3.22116e-23)
(-1.95238 0.0237261 -7.80622e-23)
(-0.272251 0.915677 0)
(-0.720651 0.997852 -2.3261e-21)
(-1.14055 0.829909 0)
(-1.38039 0.6595 -1.29989e-21)
(-1.53651 0.532718 0)
(-1.64738 0.43671 2.42748e-22)
(-1.72602 0.360465 4.18562e-22)
(-1.78366 0.308619 -1.08194e-21)
(-1.82934 0.269907 1.9433e-21)
(-1.8613 0.232027 -4.99148e-22)
(-1.87686 0.197117 -4.49609e-22)
(-1.88046 0.171825 -6.78674e-21)
(-1.87825 0.154465 1.67173e-20)
(-1.87134 0.138512 -1.72431e-20)
(-1.85825 0.123529 1.62925e-20)
(-1.84058 0.11406 -2.38013e-20)
(-1.82381 0.113358 1.30032e-20)
(-1.81358 0.119679 0)
(-1.8125 0.128985 -1.6119e-20)
(-1.82109 0.138842 1.90425e-20)
(-1.83957 0.147934 -8.16819e-22)
(-1.86764 0.154364 -6.62337e-21)
(-1.90304 0.15558 0)
(-1.94114 0.150061 2.56332e-21)
(-1.9766 0.138726 -1.65043e-21)
(-2.00644 0.124182 7.57165e-23)
(-2.03178 0.107355 -4.9696e-23)
(-2.05503 0.0855817 0)
(-2.07441 0.0572866 3.08837e-22)
(-2.08408 0.0323637 7.79923e-23)
(-0.386696 1.76919 5.96591e-20)
(-0.975668 1.78714 2.12226e-21)
(-1.48889 1.21756 -9.3342e-23)
(-1.68179 0.79897 0)
(-1.77881 0.596258 0)
(-1.85239 0.49511 9.2416e-23)
(-1.901 0.410142 -2.02346e-21)
(-1.93358 0.353505 1.72907e-21)
(-1.96964 0.310146 0)
(-1.99868 0.254448 -2.92939e-21)
(-2.0064 0.198624 3.23228e-21)
(-1.99926 0.165262 -1.88977e-22)
(-1.99098 0.149691 1.24366e-21)
(-1.98224 0.132222 -1.56768e-21)
(-1.96582 0.111906 1.16012e-21)
(-1.94157 0.0989066 0)
(-1.91806 0.101011 -1.67762e-20)
(-1.90433 0.114565 7.48188e-21)
(-1.9031 0.131376 1.78504e-20)
(-1.91343 0.147858 0)
(-1.93516 0.163087 -4.1168e-21)
(-1.96845 0.175056 3.03678e-21)
(-2.01078 0.179831 0)
(-2.05572 0.174347 -1.41063e-21)
(-2.09531 0.159554 0)
(-2.12503 0.140059 1.20437e-22)
(-2.14694 0.119435 7.5687e-22)
(-2.16636 0.0961209 -2.06601e-22)
(-2.1836 0.067011 -3.06335e-22)
(-2.19252 0.0406399 0)
(9.99341 0.131451 3.83526e-19)
(9.98087 0.260754 -5.5801e-20)
(9.95725 0.389906 3.35122e-19)
(9.92349 0.520996 2.25081e-19)
(9.88127 0.655757 2.27472e-19)
(9.83139 0.795774 2.31299e-19)
(9.77414 0.942558 0)
(9.70979 1.0976 -9.44722e-19)
(9.63866 1.26238 2.3855e-19)
(9.56111 1.43837 -2.42235e-19)
(9.47749 1.62709 -9.79786e-19)
(9.38815 1.83011 -4.31768e-21)
(9.29346 2.04909 2.23878e-18)
(9.19382 2.28581 -1.25283e-18)
(9.08962 2.54221 2.02264e-18)
(8.9814 2.82051 -2.02759e-18)
(8.86955 3.12327 2.04343e-18)
(8.75424 3.45337 -4.33356e-18)
(8.63594 3.81436 2.54393e-19)
(8.51519 4.21061 4.31287e-18)
(8.39246 4.64767 -1.88924e-18)
(8.26834 5.13278 -1.97483e-18)
(8.14366 5.67571 1.89862e-18)
(8.01972 6.29005 0)
(7.89927 6.99571 1.79052e-18)
(7.78856 7.82305 -1.76539e-18)
(7.70514 8.82149 -9.6136e-20)
(7.71339 10.0774 2.13485e-19)
(8.29116 11.7059 7.68067e-20)
(8.68269 14.569 6.779e-19)
(9.99393 0.136304 -4.8132e-19)
(9.98293 0.270365 1.61254e-19)
(9.96207 0.404229 -3.25787e-19)
(9.9322 0.540029 -2.19524e-19)
(9.89496 0.679518 -2.2178e-19)
(9.85112 0.824291 0)
(9.80105 0.975865 0)
(9.74506 1.13574 2.28946e-19)
(9.68356 1.30537 4.60912e-19)
(9.61698 1.48626 -7.00904e-19)
(9.54581 1.67987 1.64308e-18)
(9.47052 1.88777 3.2581e-21)
(9.39166 2.11159 -7.15758e-19)
(9.30983 2.35306 -9.6185e-19)
(9.22567 2.61409 9.64204e-19)
(9.13998 2.89686 -1.9374e-18)
(9.05355 3.2039 2.44218e-19)
(8.96723 3.53803 2.46863e-19)
(8.88223 3.90261 1.68551e-18)
(8.80004 4.30179 1.90402e-18)
(8.72264 4.74081 -1.89292e-18)
(8.65274 5.22635 0)
(8.59444 5.76719 7.12167e-20)
(8.55426 6.37505 -1.71377e-18)
(8.54351 7.06588 1.73525e-18)
(8.58322 7.86113 0)
(8.71425 8.78797 9.06762e-20)
(8.97406 9.87721 -1.56488e-19)
(9.65321 11.0784 2.57285e-19)
(10.2613 12.2511 1.43657e-19)
(9.99448 0.140679 5.18191e-20)
(9.98509 0.279025 -4.68417e-19)
(9.96711 0.417113 0)
(9.94129 0.557105 -2.12572e-19)
(9.9092 0.700768 -4.25279e-22)
(9.87163 0.849691 2.16224e-19)
(9.82897 1.00539 0)
(9.7816 1.16934 -4.41807e-19)
(9.72999 1.34299 2.21056e-19)
(9.67469 1.52779 -2.25483e-19)
(9.61627 1.7252 0)
(9.55535 1.9367 9.12318e-19)