/*--------------------------------*- C++ -*----------------------------------*\
| =========                 |                                                 |
| \\      /  F ield         | OpenFOAM: The Open Source CFD Toolbox           |
|  \\    /   O peration     | Version:  2006                                  |
|   \\  /    A nd           | Website:  www.openfoam.com                      |
|    \\/     M anipulation  |                                                 |
\*---------------------------------------------------------------------------*/
FoamFile
{
    version     2.0;
    format      ascii;
    class       surfaceScalarField;
    location    "5.4";
    object      phi;
}
// * * * * * * * * * * * * * * * * * * * * * * * * * * * * * * * * * * * * * //

dimensions      [0 3 -1 0 0 0 0];
oriented        oriented;


internalField   nonuniform List<scalar> 
5457
(
0.198418
0.00158236
0.19648
0.00193734
0.194192
0.00228804
0.191509
0.00268352
0.188428
0.00308112
0.184951
0.00347668
0.181072
0.00387848
0.176779
0.0042939
0.17205
0.0047281
0.166865
0.0051851
0.161197
0.00566838
0.155016
0.00618089
0.148291
0.00672483
0.14099
0.0073012
0.133081
0.00790936
0.124534
0.00854631
0.115329
0.00920576
0.105452
0.00987706
0.0949076
0.010544
0.0837242
0.0111834
0.0719596
0.0117646
0.0597113
0.0122483
0.0471226
0.0125887
0.0343823
0.0127403
0.0216872
0.0126951
0.00903693
0.0126503
-0.00291664
0.0119536
-0.00847236
0.00555572
-0.00804311
-0.00042925
-0.00804311
0.199928
0.00165419
0.199176
0.00268975
0.197965
0.00349893
0.196332
0.00431664
0.194272
0.0051411
0.191782
0.00596667
0.188855
0.00680536
0.185478
0.00767067
0.181633
0.0085729
0.177298
0.00952038
0.172446
0.0105204
0.167048
0.0115791
0.161071
0.0127014
0.154482
0.01389
0.147247
0.0151443
0.139334
0.0164593
0.130717
0.0178236
0.121377
0.0192171
0.111312
0.0206087
0.100542
0.0219532
0.0891177
0.023189
0.0771301
0.0242359
0.0647241
0.0249947
0.0521165
0.0253478
0.0396561
0.0251556
0.0281059
0.0242005
0.0185952
0.0214642
0.00879726
0.0153536
0.00118352
0.00718449
-0.00685959
0.199781
0.00187361
0.199087
0.00338356
0.197946
0.00463982
0.196409
0.0058532
0.194483
0.00706717
0.192164
0.00828564
0.189447
0.00952271
0.186322
0.0107961
0.182774
0.0121207
0.178785
0.0135092
0.174333
0.0149724
0.169392
0.01652
0.163934
0.0181599
0.157927
0.0198971
0.151338
0.0217324
0.144137
0.0236609
0.136291
0.0256689
0.127778
0.0277309
0.118581
0.0298055
0.108703
0.0318311
0.0981711
0.0337208
0.0870488
0.0353582
0.075452
0.0365915
0.0635748
0.037225
0.0517329
0.0369975
0.0403975
0.0355358
0.0297391
0.0321226
0.0191661
0.0259266
0.00959767
0.0167529
0.00273809
0.199703
0.00217053
0.199008
0.00407884
0.197887
0.0057603
0.196376
0.00736406
0.194488
0.00895522
0.192222
0.0105516
0.189575
0.0121703
0.186539
0.0138319
0.183105
0.0155551
0.179258
0.0173555
0.174983
0.0192473
0.170261
0.0212426
0.165069
0.0233515
0.159385
0.0255811
0.153184
0.027934
0.146438
0.030406
0.139124
0.0329832
0.131217
0.0356381
0.122698
0.0383246
0.113557
0.0409719
0.1038
0.0434777
0.0934575
0.0457008
0.0825962
0.0474528
0.0713333
0.0484879
0.0598413
0.0484896
0.0483172
0.04706
0.0368111
0.0436286
0.0251879
0.0375498
0.0133356
0.0286053
0.0160737
0.199667
0.00250311
0.198964
0.00478208
0.197863
0.00686158
0.196381
0.0088457
0.194533
0.0108039
0.192318
0.0127661
0.189734
0.014754
0.186776
0.0167905
0.183434
0.0188967
0.179699
0.0210912
0.175556
0.0233901
0.170991
0.0258075
0.165987
0.0283552
0.160527
0.0310413
0.154591
0.0338695
0.148161
0.0368365
0.141215
0.0399289
0.133734
0.0431196
0.125697
0.0463614
0.117088
0.0495813
0.107894
0.0526712
0.0981152
0.0554799
0.0877652
0.0578028
0.076879
0.059374
0.065509
0.0598597
0.0537081
0.0588608
0.041454
0.0558827
0.0285877
0.0504161
0.0148523
0.0423407
0.030926
0.199653
0.0028503
0.198949
0.00548611
0.197871
0.00793949
0.196427
0.0102898
0.194627
0.0126039
0.192473
0.0149196
0.189964
0.0172636
0.187093
0.0196612
0.183854
0.0221359
0.180237
0.0247083
0.17623
0.0273965
0.171822
0.0302161
0.166997
0.0331798
0.161741
0.0362971
0.156038
0.0395723
0.149872
0.043003
0.143224
0.0465771
0.136074
0.0502689
0.128402
0.0540337
0.120183
0.0578009
0.111388
0.0614656
0.101989
0.0648787
0.091955
0.0678371
0.0812541
0.0700749
0.0698542
0.0712596
0.0577167
0.0709982
0.0447605
0.068839
0.0308489
0.0643276
0.015873
0.0573166
0.046799
0.19965
0.00320023
0.198954
0.00618208
0.197905
0.00898908
0.196505
0.0116895
0.194763
0.0143461
0.192681
0.0170015
0.190257
0.0196872
0.187488
0.0224307
0.184366
0.0252578
0.180883
0.0281911
0.177029
0.0312504
0.172793
0.0344526
0.168161
0.0378118
0.163119
0.0413386
0.157653
0.0450384
0.151745
0.0489104
0.145378
0.0529446
0.138528
0.0571184
0.13117
0.0613919
0.123269
0.0657018
0.114783
0.0699524
0.105655
0.0740067
0.0958167
0.077675
0.0851861
0.0807056
0.073668
0.0827777
0.0611611
0.0835051
0.0475548
0.0824453
0.0327583
0.0791242
0.0167827
0.0732922
0.0635817
0.199655
0.00354557
0.198975
0.00686217
0.197959
0.0100048
0.19661
0.0130382
0.194934
0.016022
0.192934
0.019002
0.190608
0.0220132
0.187953
0.0250859
0.184963
0.0282477
0.181631
0.0315231
0.177947
0.0349337
0.173902
0.0384979
0.169483
0.0422313
0.164675
0.0461459
0.159465
0.0502492
0.153832
0.0545427
0.147757
0.0590197
0.141212
0.063663
0.134164
0.0684402
0.126567
0.0732986
0.118362
0.0781576
0.109469
0.0828996
0.0997863
0.0873579
0.0891869
0.091305
0.0775246
0.09444
0.0646468
0.096383
0.0504168
0.0966752
0.0347676
0.0947734
0.0177895
0.0902703
0.0813712
0.199664
0.00388138
0.199006
0.00751995
0.19803
0.010981
0.196739
0.0143296
0.195137
0.017624
0.193227
0.0209118
0.191009
0.0242309
0.188481
0.0276144
0.185637
0.0310916
0.182471
0.0346887
0.178976
0.038429
0.175141
0.0423327
0.170955
0.046417
0.166405
0.0506962
0.161474
0.0551802
0.156143
0.0598739
0.150387
0.064776
0.144174
0.0698759
0.137462
0.0751517
0.130196
0.0805651
0.122298
0.0860554
0.113667
0.0915309
0.104168
0.0968566
0.0936333
0.10184
0.0818639
0.106209
0.0686485
0.109598
0.0538011
0.111523
0.0372358
0.111339
0.019083
0.108423
0.100454
0.199677
0.00420415
0.199047
0.00815017
0.198116
0.0119123
0.196887
0.0155578
0.195367
0.0191449
0.193556
0.0227223
0.191456
0.0263307
0.189066
0.0300051
0.18638
0.0337767
0.183396
0.0376735
0.180105
0.0417201
0.176499
0.0459387
0.172567
0.0503486
0.168297
0.0549662
0.163672
0.0598049
0.158672
0.0648741
0.15327
0.0701785
0.147429
0.0757167
0.141101
0.0814794
0.13422
0.0874459
0.126696
0.0935798
0.118405
0.099822
0.109183
0.106078
0.0988186
0.112204
0.0870515
0.117977
0.0735886
0.123061
0.0581472
0.126964
0.0405508
0.128935
0.0209007
0.128073
0.121355
0.199693
0.00451122
0.199095
0.00874854
0.198213
0.0127939
0.197053
0.0167174
0.19562
0.0205782
0.193916
0.0244261
0.191943
0.0283037
0.189701
0.0322479
0.187186
0.0362917
0.184395
0.0404643
0.181323
0.0447922
0.177962
0.0492991
0.174304
0.0540064
0.170337
0.0589334
0.166045
0.0640968
0.161408
0.0695113
0.156398
0.0751887
0.150977
0.0811378
0.145093
0.0873633
0.138674
0.0938651
0.131619
0.100635
0.123789
0.107651
0.114995
0.114872
0.104982
0.122217
0.0934176
0.129541
0.0798964
0.136582
0.0639662
0.142894
0.0452332
0.147668
0.0236107
0.149696
0.144966
0.199711
0.00480052
0.199148
0.00931153
0.19832
0.0136215
0.197234
0.0178037
0.195894
0.0219183
0.194303
0.0260164
0.192465
0.0301421
0.190379
0.034334
0.188044
0.0386263
0.185459
0.0430498
0.182619
0.0476321
0.179519
0.0523987
0.176153
0.057373
0.172509
0.0625768
0.168575
0.0680307
0.164332
0.0737544
0.159754
0.0797672
0.154804
0.0860881
0.14943
0.0927371
0.14356
0.099735
0.137091
0.107104
0.129878
0.114865
0.121715
0.123035
0.112313
0.131619
0.101271
0.140583
0.0880431
0.149811
0.0719206
0.159017
0.0520839
0.167505
0.027884
0.173896
0.17285
0.19973
0.00507044
0.199205
0.00983629
0.198435
0.0143914
0.197427
0.0188123
0.196185
0.0231603
0.194714
0.0274876
0.193016
0.0318394
0.191094
0.0362558
0.188949
0.0407721
0.186578
0.0454201
0.183982
0.0502286
0.181156
0.0552244
0.178096
0.0604328
0.174795
0.0658779
0.171242
0.0715836
0.167422
0.0775744
0.163313
0.0838763
0.158883
0.0905182
0.154086
0.0975339
0.148857
0.104964
0.143101
0.11286
0.136679
0.121286
0.129392
0.130323
0.12094
0.14007
0.110881
0.150642
0.0985403
0.162151
0.0828977
0.174659
0.062432
0.18797
0.035122
0.201206
0.207972
0.199751
0.00531973
0.199266
0.0103205
0.198557
0.0151008
0.19763
0.0197398
0.19649
0.0243001
0.195143
0.0288348
0.193592
0.0333902
0.19184
0.0380072
0.18989
0.042722
0.187743
0.0475672
0.185399
0.0525725
0.182858
0.0577657
0.180118
0.0631732
0.177174
0.0688212
0.174022
0.0747362
0.17065
0.0809464
0.167043
0.0874833
0.163177
0.0943837
0.159019
0.101692
0.154516
0.109467
0.149594
0.117782
0.144142
0.126738
0.137991
0.136473
0.130884
0.147178
0.122404
0.159122
0.111857
0.172698
0.0980124
0.188504
0.078531
0.207452
0.0486583
0.231078
0.25663
0.199772
0.00554742
0.19933
0.0107624
0.198684
0.0157473
0.19784
0.0205833
0.196806
0.0253345
0.195586
0.0300544
0.194186
0.0347903
0.19261
0.0395834
0.190862
0.0444707
0.188944
0.0494852
0.186859
0.0546569
0.18461
0.0600143
0.182199
0.0655847
0.179625
0.0713951
0.176888
0.0774738
0.173983
0.0838514
0.170903
0.0905628
0.167637
0.0976496
0.164166
0.105164
0.160459
0.113173
0.156474
0.121767
0.152145
0.131068
0.147371
0.141248
0.141993
0.152556
0.135748
0.165367
0.128166
0.180281
0.118305
0.198365
0.103913
0.221844
0.0776782
0.257313
0.334308
0.00364537
-0.00364537
0.00711292
-0.00346755
0.00995619
-0.00284326
0.0121739
-0.00221768
0.0138671
-0.00169323
0.0151437
-0.00127663
0.0160972
-0.000953464
0.0168052
-0.000708029
0.0173311
-0.000525892
0.0177252
-0.000394046
0.0180268
-0.000301627
0.0182669
-0.000240076
0.0184695
-0.0002026
0.0186529
-0.00018348
0.0188304
-0.000177413
0.0190093
-0.000178933
0.0191914
-0.000182101
0.0193721
-0.000180688
0.019541
-0.000168966
0.0196841
-0.000143015
0.0197862
-0.00010217
0.0198365
-5.02679e-05
0.0198342
2.30817e-06
0.019778
5.62085e-05
0.0196745
0.000103453
0.0195249
0.000149624
0.0193294
0.000195498
0.0190867
0.000242725
0.018811
0.000275661
0.000220903
0.00338648
-0.00703185
0.00661804
-0.00669911
0.00931878
-0.005544
0.0114966
-0.00439552
0.0132478
-0.00344437
0.0146669
-0.00269581
0.015832
-0.00211851
0.0168051
-0.00168115
0.0176353
-0.00135608
0.0183602
-0.00111897
0.0190085
-0.000949961
0.0196022
-0.000833689
0.0201578
-0.000758198
0.0206881
-0.000713777
0.0212025
-0.000691901
0.0217078
-0.000684239
0.0222077
-0.000681963
0.0227028
-0.000675736
0.0231905
-0.00065667
0.0236656
-0.000618199
0.0241216
-0.000558165
0.0245514
-0.000480012
0.0249447
-0.000391041
0.0252993
-0.000298337
0.0256139
-0.000211201
0.0258904
-0.000126813
0.0261235
-3.7682e-05
0.026303
6.33e-05
0.0264316
0.000146995
0.000150361
0.00286466
-0.00989651
0.00549503
-0.00932949
0.00764382
-0.00769278
0.00935672
-0.00610843
0.0107325
-0.00482011
0.0118532
-0.00381659
0.0127816
-0.0030469
0.0135657
-0.00246522
0.0142426
-0.00203302
0.0148402
-0.00171656
0.0153793
-0.00148904
0.0158756
-0.00133
0.0163411
-0.00122368
0.0167849
-0.00115753
0.0172138
-0.00112089
0.0176333
-0.00110367
0.0180465
-0.00109523
0.018455
-0.00108416
0.0188576
-0.00105933
0.0192516
-0.0010122
0.0196329
-0.000939429
0.0199973
-0.00084438
0.0203425
-0.000736337
0.0206705
-0.000626262
0.0209829
-0.00052361
0.0212859
-0.000429835
0.0215868
-0.000338528
0.0218896
-0.000239511
0.0221761
-0.000139508
-4.58732e-05
0.00228204
-0.0121785
0.00420152
-0.011249
0.0056816
-0.00917286
0.00682489
-0.00725172
0.00772826
-0.00572349
0.00845699
-0.00454531
0.00905433
-0.00364424
0.00955112
-0.00296201
0.00997274
-0.00245463
0.0103365
-0.00208034
0.0106552
-0.00180767
0.0109383
-0.00161313
0.0111932
-0.00147864
0.0114259
-0.00139014
0.011641
-0.00133607
0.0118431
-0.00130575
0.0120357
-0.00128785
0.0122214
-0.00126984
0.0124011
-0.00123902
0.0125742
-0.00118526
0.0127386
-0.00110382
0.0128913
-0.000997136
0.0130302
-0.000875248
0.0131556
-0.0007516
0.0132684
-0.000636461
0.0133747
-0.00053608
0.0134764
-0.000440303
0.013575
-0.000338065
0.0136717
-0.000236178
-0.000101114
0.00159937
-0.0137779
0.00272701
-0.0123766
0.00347461
-0.00992046
0.00399425
-0.00777135
0.00436832
-0.00609756
0.00464256
-0.00481955
0.00484049
-0.00384217
0.00497548
-0.003097
0.00506338
-0.00254253
0.00511285
-0.00212981
0.00513017
-0.00182499
0.00512039
-0.00160334
0.0050875
-0.00144576
0.00503507
-0.0013377
0.00496697
-0.00126797
0.00488766
-0.00122644
0.00480188
-0.00120207
0.00471371
-0.00118167
0.00462562
-0.00115093
0.0045381
-0.00109773
0.00444952
-0.00101524
0.00435601
-0.000903626
0.00425351
-0.000772744
0.00413856
-0.000636656
0.00400391
-0.000501813
0.00385052
-0.000382684
0.00367905
-0.000268833
0.00346163
-0.000120643
0.0031806
4.48477e-05
0.000111785
0.000810774
-0.0145887
0.00106694
-0.0126328
0.00104146
-0.00989498
0.000909276
-0.00763917
0.000702743
-0.00589103
0.000457191
-0.004574
0.000184836
-0.00356982
-0.00011347
-0.00279869
-0.000431459
-0.00222454
-0.000761789
-0.00179948
-0.00110023
-0.00148655
-0.00144312
-0.00126045
-0.00178746
-0.00110143
-0.00213062
-0.000994547
-0.00246917
-0.000929425
-0.00279898
-0.000896626
-0.00311629
-0.00088475
-0.00341928
-0.000878677
-0.00370925
-0.000860964
-0.00399022
-0.000816771
-0.00426723
-0.00073823
-0.00454563
-0.000625225
-0.00482827
-0.000490104
-0.00511337
-0.000351555
-0.00540798
-0.000207199
-0.00574202
-4.86492e-05
-0.00611292
0.000102069
-0.00644731
0.000213752
-0.00666784
0.000265377
0.000249519
-0.000144863
-0.0144438
-0.000779248
-0.0119984
-0.00158915
-0.00908507
-0.00243344
-0.00679488
-0.00328054
-0.00504392
-0.00410283
-0.00375171
-0.00488562
-0.00278703
-0.00562529
-0.00205902
-0.00632797
-0.00152186
-0.006992
-0.00113545
-0.00761463
-0.000863924
-0.00819505
-0.000680031
-0.00873525
-0.000561219
-0.00923983
-0.000489967
-0.00971311
-0.000456149
-0.0101588
-0.000450928
-0.01058
-0.000463547
-0.0109803
-0.000478401
-0.0113651
-0.000476124
-0.0117414
-0.000440497
-0.012115
-0.000364589
-0.0124921
-0.000248128
-0.012879
-0.000103254
-0.0132734
4.28951e-05
-0.0136411
0.00016043
-0.0139374
0.00024764
-0.0141642
0.000328953
-0.0143523
0.000401848
-0.0145179
0.000430984
0.000405118
-0.00115104
-0.0132928
-0.00279624
-0.0103532
-0.00444969
-0.00743162
-0.00604661
-0.00519796
-0.00754024
-0.0035503
-0.00890291
-0.00238904
-0.0101184
-0.00157149
-0.011195
-0.000982486
-0.0121507
-0.000566162
-0.0130049
-0.000281223
-0.0137745
-9.42962e-05
-0.014474
1.94748e-05
-0.0151093
7.40299e-05
-0.0156879
8.86601e-05
-0.0162226
7.85031e-05
-0.0167252
5.16793e-05
-0.0172033
1.45861e-05
-0.0176599
-2.18558e-05
-0.0180994
-3.65664e-05
-0.018533
-6.87093e-06
-0.0189681
7.04304e-05
-0.0193915
0.000175271
-0.0197732
0.000278515
-0.0200921
0.00036176
-0.0203555
0.000423818
-0.0205814
0.000473592
-0.0207757
0.000523266
-0.0209427
0.000568819
-0.0210939
0.000582217
0.00056251
-0.00234989
-0.0109429
-0.00511581
-0.00758729
-0.00772395
-0.00482347
-0.0100982
-0.00282369
-0.0122267
-0.00142182
-0.0141178
-0.000497925
-0.0157648
7.54943e-05
-0.0171454
0.000398085
-0.0182716
0.000560082
-0.0191967
0.000643852
-0.0199711
0.00068008
-0.0206333
0.000681731
-0.0212188
0.000659516
-0.0217545
0.000624373
-0.0222569
0.000580881
-0.0227343
0.000529111
-0.0231888
0.000469072
-0.0236202
0.000409499
-0.0240269
0.000370201
-0.0244056
0.000371821
-0.0247566
0.000421423
-0.0250874
0.00050605
-0.0254033
0.000594381
-0.025697
0.000655526
-0.025955
0.000681754
-0.0261706
0.000689221
-0.0263482
0.000700853
-0.0264987
0.000719293
-0.0266399
0.000723398
0.000715668
-0.00388738
-0.00705552
-0.00806701
-0.00340765
-0.0118952
-0.000995237
-0.0151171
0.000398124
-0.0176655
0.00112664
-0.0196276
0.00146418
-0.0211456
0.00159352
-0.0223593
0.00161169
-0.023373
0.00157382
-0.0242358
0.00150668
-0.0249826
0.00142686
-0.0256385
0.00133766
-0.0262217
0.00124271
-0.0267479
0.00115053
-0.0272325
0.00106545
-0.027685
0.000981606
-0.0281062
0.000890329
-0.0284931
0.000796401
-0.028847
0.000724082
-0.0291783
0.000703146
-0.0295019
0.000744982
-0.0298254
0.000829573
-0.0301436
0.000912575
-0.0304401
0.000952051
-0.0306955
0.000937179
-0.0309007
0.000894337
-0.0310623
0.000862494
-0.0311981
0.000855094
-0.0313298
0.000855139
0.000859443
-0.00607993
-0.000975583
-0.011559
0.00207145
-0.0158644
0.00331017
-0.0191335
0.00366721
-0.0216462
0.00363931
-0.0236258
0.00344376
-0.0252062
0.00317398
-0.02648
0.00288543
-0.0275166
0.00261048
-0.0283803
0.00237037
-0.0291204
0.00216694
-0.0297668
0.00198404
-0.0303366
0.00181255
-0.0308469
0.00166079
-0.0313172
0.00153577
-0.0317601
0.00142448
-0.0321737
0.00130401
-0.032549
0.00117167
-0.0328843
0.00105942
-0.0331942
0.00101296
-0.0335008
0.00105165
-0.0338181
0.00114688
-0.0341403
0.00123473
-0.0344433
0.00125501
-0.0346983
0.00119224
-0.0348919
0.00108791
-0.0350353
0.00100592
-0.0351551
0.000974836
-0.0352759
0.000975959
0.000992341
-0.00787841
0.00690283
-0.0141955
0.00838854
-0.018935
0.00804963
-0.0225248
0.00725703
-0.0252385
0.00635299
-0.0272915
0.00549683
-0.0288785
0.00476089
-0.0301305
0.00413752
-0.0311305
0.0036104
-0.0319521
0.00319201
-0.0326579
0.00287271
-0.0332794
0.00260561
-0.0338259
0.00235903
-0.0343111
0.00214602
-0.0347609
0.00198556
-0.0351933
0.00185686
-0.0356017
0.0017124
-0.0359651
0.00153502
-0.0362753
0.00136964
-0.0365531
0.00129079
-0.0368347
0.00133327
-0.0371438
0.00145593
-0.0374736
0.00156449
-0.037789
0.00157044
-0.038047
0.00145029
-0.0382268
0.00126765
-0.0383463
0.00112543
-0.0384455
0.00107402
-0.0385531
0.00108364
0.00111304
-0.00951817
0.016421
-0.017216
0.0160864
-0.022541
0.0133746
-0.0262398
0.0109558
-0.0289048
0.00901805
-0.0308368
0.00742877
-0.0322922
0.00621634
-0.0334336
0.00527892
-0.0343287
0.00450549
-0.0350526
0.00391587
-0.0356884
0.00350852
-0.0362685
0.00318571
-0.0367793
0.00286985
-0.0372229
0.00258963
-0.037637
0.00239969
-0.0380531
0.00227294
-0.0384579
0.0021172
-0.038809
0.00188609
-0.0390846
0.00164525
-0.0393149
0.00152114
-0.0395598
0.0015781
-0.0398586
0.00175478
-0.0402027
0.0019086
-0.0405405
0.00190821
-0.040807
0.00171675
-0.0409689
0.00142954
-0.0410542
0.00121078
-0.0411251
0.00114489
-0.0412178
0.00117634
0.00122134
-0.0126324
0.0290534
-0.0219666
0.0254206
-0.0272665
0.0186745
-0.0304706
0.0141599
-0.0327842
0.0113317
-0.0343486
0.0089932
-0.0354859
0.00735357
-0.0364223
0.00621535
-0.0371507
0.00523391
-0.0377138
0.00447896
-0.0382403
0.00403498
-0.0387715
0.00371692
-0.0392411
0.00333945
-0.039622
0.00297051
-0.039977
0.00275479
-0.0403704
0.00266634
-0.0407806
0.00252738
-0.0411256
0.00223104
-0.0413561
0.00187575
-0.0415164
0.00168148
-0.0417073
0.00176904
-0.0419946
0.002042
-0.0423643
0.00227832
-0.0427398
0.00228368
-0.0430233
0.00200029
-0.0431611
0.00156733
-0.0431952
0.00124493
-0.0432254
0.00117505
-0.0433029
0.00125388
0.00132013
-0.0180144
0.0470678
-0.029298
0.0367043
-0.0338323
0.0232088
-0.0352753
0.0156028
-0.0369267
0.0129831
-0.0377923
0.00985876
-0.0383483
0.00790963
-0.03905
0.00691704
-0.0396234
0.00580733
-0.0399471
0.00480262
-0.0402985
0.00438643
-0.0407857
0.00420412
-0.0412254
0.00377914
-0.0415205
0.00326562
-0.0417812
0.00301551
-0.0421494
0.00303445
-0.0425908
0.0029688
-0.0429498
0.00259008
-0.0431225
0.00204837
-0.0431749
0.00173392
-0.0432835
0.00187762
-0.0435573
0.00231586
-0.0439697
0.00269074
-0.0444056
0.00271954
-0.0447196
0.00231428
-0.0448241
0.00167189
-0.0447792
0.00119998
-0.0447484
0.00114425
-0.0448144
0.00131988
0.00141958
0.207447
0.00576017
0.207034
0.011175
0.206432
0.0163498
0.205647
0.0213678
0.204688
0.0262937
0.203561
0.0311819
0.202271
0.0360797
0.200826
0.0410291
0.199229
0.046067
0.197488
0.0512264
0.195607
0.0565377
0.193593
0.0620291
0.191449
0.0677281
0.189182
0.0736619
0.186797
0.0798593
0.184297
0.0863514
0.181685
0.0931742
0.178964
0.100371
0.176134
0.107995
0.173192
0.116115
0.170134
0.124824
0.166957
0.134245
0.163654
0.14455
0.160228
0.155982
0.1567
0.168895
0.153164
0.183816
0.149986
0.201543
0.14884
0.22299
0.160513
0.24564
0.25882
0.236001
0.21249
0.00595259
0.212118
0.0115478
0.211574
0.0168934
0.210868
0.0220737
0.210008
0.0271541
0.209
0.0321893
0.207853
0.0372268
0.206574
0.0423083
0.20517
0.0474705
0.20365
0.0527464
0.202023
0.0581656
0.200296
0.0637559
0.19848
0.069544
0.196585
0.0755565
0.194624
0.0818208
0.192608
0.0883671
0.190553
0.0952294
0.188475
0.102448
0.186397
0.110073
0.184346
0.118166
0.182364
0.126807
0.18051
0.136099
0.178884
0.146176
0.177657
0.157209
0.177151
0.169401
0.17802
0.182948
0.181678
0.197885
0.190727
0.21394
0.206174
0.230193
0.24572
0.219274
0.217658
0.00612252
0.217329
0.0118768
0.21685
0.017372
0.21623
0.0226933
0.215478
0.0279065
0.214601
0.0330659
0.213609
0.0382189
0.212511
0.0434069
0.211315
0.0486659
0.210034
0.0540279
0.208678
0.0595218
0.20726
0.0651739
0.205794
0.0710096
0.204297
0.0770534
0.202787
0.0833306
0.201287
0.0898678
0.199821
0.0966948
0.198424
0.103846
0.197136
0.111361
0.196014
0.119288
0.195136
0.127685
0.194615
0.13662
0.194621
0.14617
0.195417
0.156412
0.197414
0.167403
0.201223
0.179139
0.207613
0.191495
0.217245
0.204308
0.229842
0.217595
0.22878
0.246782
0.222951
0.00626797
0.22267
0.0121581
0.222262
0.0177802
0.221735
0.0232196
0.2211
0.028542
0.220364
0.0338014
0.219539
0.0390445
0.218634
0.0443118
0.217661
0.0496385
0.216634
0.0550552
0.215567
0.0605891
0.214475
0.066265
0.213379
0.0721056
0.2123
0.0781327
0.211263
0.0843678
0.210298
0.0908328
0.209442
0.0975509
0.208741
0.104547
0.208253
0.111849
0.208054
0.119486
0.208248
0.127491
0.208975
0.135894
0.210427
0.144718
0.212869
0.153971
0.216646
0.163626
0.222179
0.173607
0.229917
0.183758
0.240431
0.193794
0.254641
0.203386
0.210283
0.273138
0.228374
0.00638709
0.228144
0.0123881
0.227812
0.0181127
0.227385
0.0236459
0.226875
0.0290528
0.226289
0.0343866
0.225641
0.0396931
0.224941
0.0450115
0.224204
0.0503758
0.223444
0.0558147
0.22268
0.0613536
0.22193
0.0670146
0.221218
0.0728175
0.220571
0.0787804
0.220018
0.0849201
0.219599
0.0912525
0.219357
0.0977928
0.219348
0.104556
0.219642
0.111555
0.220327
0.118802
0.221515
0.126303
0.223352
0.134057
0.226022
0.142048
0.229757
0.150236
0.234836
0.158547
0.241588
0.166855
0.250391
0.174954
0.261693
0.182492
0.275967
0.189113
0.193731
0.292518
0.233929
0.00647818
0.233754
0.0125636
0.233502
0.0183649
0.233181
0.0239662
0.232803
0.0294316
0.232376
0.0348131
0.231914
0.0401554
0.231429
0.0454961
0.230938
0.0508673
0.230457
0.0562958
0.230006
0.0618044
0.229608
0.0674125
0.229289
0.0731362
0.22908
0.0789894
0.229017
0.0849837
0.229141
0.0911282
0.229504
0.0974301
0.230166
0.103893
0.231203
0.110518
0.232705
0.1173
0.234784
0.124224
0.237576
0.131264
0.241246
0.138378
0.245985
0.145497
0.252014
0.152518
0.259575
0.159293
0.26891
0.165619
0.280199
0.171203
0.293537
0.175775
0.17882
0.308448
0.23962
0.00653976
0.239502
0.0126817
0.239334
0.0185327
0.239125
0.0241753
0.238884
0.0296722
0.238623
0.0350742
0.238354
0.040424
0.238093
0.0457576
0.237855
0.051105
0.23766
0.0564906
0.23753
0.0619346
0.23749
0.0674529
0.237568
0.0730582
0.237798
0.0787596
0.238218
0.0845633
0.238874
0.090472
0.239819
0.0964848
0.241117
0.102596
0.242841
0.108795
0.245078
0.115062
0.247934
0.121368
0.251525
0.127673
0.255989
0.133914
0.261475
0.140012
0.268138
0.145855
0.27613
0.151302
0.28557
0.156179
0.296504
0.160269
0.30892
0.163358
0.165179
0.322561
0.245448
0.00657057
0.24539
0.01274
0.24531
0.0186126
0.245217
0.0242689
0.245119
0.0297698
0.245029
0.0351643
0.24496
0.0404932
0.244927
0.0457905
0.244948
0.0510836
0.245044
0.0563948
0.245238
0.061741
0.245555
0.0671351
0.246028
0.0725857
0.24669
0.0780977
0.247581
0.0836719
0.248748
0.089305
0.250244
0.0949891
0.252129
0.100711
0.254474
0.106449
0.257359
0.112177
0.260872
0.117855
0.265112
0.123432
0.270184
0.128842
0.276195
0.134001
0.283243
0.138806
0.291411
0.143134
0.300745
0.146845
0.311234
0.14978
0.322811
0.151781
0.152716
0.335274
0.251418
0.00656958
0.251422
0.0127365
0.251432
0.0186019
0.251458
0.0242437
0.251507
0.0297206
0.251592
0.0350795
0.251726
0.0403592
0.251925
0.0455912
0.252208
0.0508008
0.252595
0.0560073
0.253111
0.0612249
0.253783
0.066463
0.254642
0.0717267
0.255723
0.0770167
0.257066
0.0823293
0.258715
0.0876559
0.260721
0.092983
0.263141
0.0982912
0.266036
0.103554
0.269476
0.108737
0.273534
0.113798
0.278285
0.118681
0.283805
0.123322
0.290164
0.127642
0.297419
0.131552
0.305602
0.134951
0.314716
0.137731
0.324715
0.139781
0.335501
0.140996
0.141316
0.346901
0.257532
0.00653605
0.257599
0.0126698
0.257702
0.0184987
0.257849
0.0240973
0.258047
0.0295221
0.258309
0.0348176
0.258648
0.0400202
0.25908
0.0451591
0.259624
0.050257
0.260301
0.0553305
0.261135
0.060391
0.262153
0.0654449
0.263385
0.070494
0.264867
0.0755352
0.266635
0.0805612
0.268732
0.0855593
0.271203
0.0905119
0.274098
0.0953957
0.277471
0.100181
0.281378
0.10483
0.285875
0.1093
0.291018
0.113539
0.296855
0.117484
0.303428
0.12107
0.310759
0.12422
0.318852
0.126858
0.32768
0.128903
0.337177
0.130284
0.347239
0.130933
0.130831
0.357725
0.263794
0.00646951
0.263925
0.0125391
0.264122
0.0183018
0.26439
0.0238287
0.264739
0.0291734
0.265179
0.0343781
0.265722
0.0394766
0.266386
0.0444956
0.267187
0.0494553
0.268148
0.0543699
0.269291
0.059248
0.270643
0.0640933
0.272232
0.0689047
0.274091
0.0736763
0.276254
0.0783977
0.27876
0.0830537
0.281648
0.087624
0.28496
0.0920832
0.288741
0.0964005
0.293032
0.100539
0.297875
0.104457
0.303306
0.108107
0.309355
0.111436
0.316037
0.114387
0.323356
0.116902
0.331291
0.118922
0.3398
0.120394
0.348814
0.12127
0.358232
0.121515
0.121127
0.367936
0.270207
0.00636977
0.270402
0.0123441
0.270693
0.0180109
0.271084
0.0234376
0.271582
0.0286749
0.272198
0.0337621
0.272944
0.0387305
0.273835
0.0436045
0.274889
0.0484018
0.276125
0.0531341
0.277565
0.0578077
0.279235
0.062424
0.28116
0.0669795
0.28337
0.0714664
0.285895
0.0758721
0.288769
0.0801798
0.292025
0.0843683
0.295696
0.0884117
0.299817
0.0922799
0.304418
0.0959386
0.309525
0.0993496
0.315161
0.102471
0.321337
0.10526
0.328054
0.107671
0.335297
0.109659
0.343035
0.111184
0.35122
0.112209
0.359781
0.112709
0.36863
0.112666
0.112091
0.377666
0.276774
0.00623696
0.277033
0.0120849
0.277417
0.0176265
0.27793
0.0229252
0.278576
0.0280282
0.279366
0.0329723
0.28031
0.0377862
0.281423
0.0424918
0.28272
0.0471046
0.28422
0.0516341
0.285943
0.0560846
0.287912
0.0604555
0.290149
0.0647419
0.292681
0.0689343
0.295534
0.0730191
0.298735
0.0769791
0.30231
0.080793
0.306286
0.084436
0.310686
0.0878802
0.31553
0.0910946
0.320833
0.0940462
0.326604
0.0967001
0.332843
0.0990214
0.339538
0.100976
0.346665
0.102531
0.354188
0.103661
0.362055
0.104343
0.3702
0.104564
0.378547
0.10432
0.103628
0.387009
0.283498
0.00607144
0.283821
0.0117625
0.284297
0.0171501
0.284929
0.0222934
0.285721
0.0272364
0.28668
0.0320131
0.287816
0.0366496
0.289143
0.0411655
0.290673
0.0455741
0.292424
0.0498832
0.294413
0.0540954
0.29666
0.0582086
0.299185
0.0622169
0.30201
0.0661099
0.305155
0.069874
0.308642
0.0734921
0.312491
0.0769441
0.316719
0.0802071
0.321343
0.0832562
0.326373
0.0860646
0.331815
0.0886047
0.337667
0.0908484
0.343919
0.0927691
0.350553
0.0943415
0.35754
0.0955444
0.36484
0.0963606
0.372404
0.0967792
0.380171
0.0967966
0.388075
0.0964161
0.0956582
0.396044
0.290384
0.00587385
0.290768
0.011378
0.291335
0.0165836
0.292083
0.0215452
0.293016
0.0263037
0.294139
0.0308901
0.29546
0.0353281
0.296991
0.039635
0.298743
0.0438225
0.300729
0.0478964
0.302966
0.0518583
0.30547
0.0557052
0.308256
0.0594304
0.311343
0.0630235
0.314745
0.0664714
0.31848
0.0697578
0.322559
0.0728644
0.326995
0.0757711
0.331796
0.0784561
0.336963
0.0808972
0.342496
0.0830721
0.348385
0.0849594
0.354614
0.0865392
0.361162
0.0877943
0.367995
0.0887114
0.375074
0.0892813
0.382353
0.0895006
0.389778
0.0893717
0.397291
0.0889028
0.0881152
0.404834
0.297435
0.00564506
0.297879
0.0109332
0.298533
0.0159296
0.299394
0.0206845
0.300463
0.0252351
0.301743
0.0296099
0.303241
0.0338302
0.304965
0.0379112
0.306924
0.0418628
0.309131
0.0456898
0.311597
0.0493926
0.314334
0.0529678
0.317356
0.0564085
0.320675
0.0597048
0.324302
0.0628442
0.328247
0.0658124
0.332519
0.0685929
0.337121
0.0711684
0.342057
0.073521
0.347321
0.0756327
0.352907
0.0774863
0.3588
0.0790659
0.364982
0.0803576
0.371425
0.0813508
0.378099
0.082038
0.384964
0.082416
0.391978
0.0824864
0.399094
0.0822555
0.406263
0.0817341
0.0809431
0.413435
0.304654
0.00538613
0.305157
0.0104302
0.305895
0.0151915
0.306864
0.0197157
0.308062
0.0240367
0.309492
0.0281803
0.311157
0.0321655
0.313062
0.0360056
0.315216
0.0397092
0.317626
0.0432799
0.320301
0.0467176
0.32325
0.0500187
0.326482
0.0531765
0.330005
0.0561818
0.333825
0.0590235
0.337949
0.0616888
0.342378
0.0641639
0.347112
0.0664344
0.352147
0.0684857
0.357476
0.070304
0.363086
0.0718766
0.368959
0.0731922
0.375075
0.0742421
0.381406
0.0750203
0.387919
0.0755241
0.394581
0.0757543
0.401352
0.0757158
0.40819
0.0754171
0.415054
0.0748703
0.0740951
0.421902
0.312046
0.00509827
0.312605
0.00987146
0.313424
0.0143728
0.314495
0.0186438
0.315817
0.022715
0.317388
0.0266095
0.319209
0.0303441
0.321284
0.0339306
0.323617
0.0373761
0.326214
0.0406837
0.329079
0.0438527
0.332218
0.0468797
0.335636
0.0497584
0.339337
0.0524808
0.343323
0.055037
0.347596
0.0574164
0.352152
0.0596074
0.356988
0.0615985
0.362095
0.0633784
0.367462
0.0649369
0.373074
0.0662649
0.378911
0.0673554
0.384949
0.0682033
0.391163
0.0688064
0.397522
0.0691652
0.403993
0.0692834
0.410541
0.0691677
0.417131
0.0688278
0.423725
0.0682762
0.0675309
0.430289
0.319615
0.00478282
0.320227
0.00925948
0.321122
0.0134776
0.322292
0.0174743
0.32373
0.0212769
0.325433
0.024906
0.327401
0.0283764
0.329633
0.0316983
0.332131
0.0348779
0.334898
0.0379174
0.337934
0.0408163
0.341243
0.0435711
0.344825
0.0461765
0.34868
0.0486254
0.352807
0.0509097
0.357203
0.0530205
0.361862
0.0549486
0.366775
0.0566851
0.371932
0.0582216
0.377318
0.0595509
0.382916
0.0606672
0.388705
0.0615664
0.394662
0.0622465
0.40076
0.062708
0.406972
0.0629537
0.413266
0.0629888
0.419613
0.0628212
0.42598
0.062461
0.432336
0.0619202
0.0612152
0.438651
0.327365
0.00444112
0.328027
0.008597
0.328995
0.0125098
0.330257
0.0162125
0.331804
0.0197295
0.333632
0.0230786
0.335735
0.0262729