/*--------------------------------*- C++ -*----------------------------------*\
| =========                 |                                                 |
| \\      /  F ield         | OpenFOAM: The Open Source CFD Toolbox           |
|  \\    /   O peration     | Version:  5.x                                   |
|   \\  /    A nd           | Web:      www.OpenFOAM.org                      |
|    \\/     M anipulation  |                                                 |
\*---------------------------------------------------------------------------*/
FoamFile
{
    version     2.0;
    format      ascii;
    class       volVectorField;
    location    "3.7";
    object      Force;
}
// * * * * * * * * * * * * * * * * * * * * * * * * * * * * * * * * * * * * * //

dimensions      [1 1 -2 0 0 0 0];

internalField   uniform (0 0 0);

boundaryField
{
    inlet
    {
        type            calculated;
        value           uniform (0 0 0);
    }
    outlet
    {
        type            calculated;
        value           uniform (0 0 0);
    }
    flap
    {
        type            calculated;
        value           nonuniform List<vector> 
33
(
(3.93328 -0.179612 1.85214e-18)
(3.90341 -0.412187 3.62696e-18)
(3.86267 -0.599677 -3.27284e-18)
(3.81464 -0.723757 1.74291e-18)
(3.75777 -0.773662 -1.71984e-18)
(3.69919 -0.77183 -7.52316e-37)
(3.64394 -0.735835 -1.64081e-18)
(3.58107 -0.681028 -3.27645e-18)
(3.50973 -0.6003 -1.60943e-18)
(3.43237 -0.514847 -1.00824e-20)
(3.33582 -0.44084 -2.75491e-22)
(3.20201 -0.380731 4.98817e-22)
(2.99888 -0.335796 5.67511e-18)
(2.66704 -0.289494 1.47111e-22)
(2.06301 -0.220808 -1.54605e-18)
(0.0758528 0.66392 8.3713e-19)
(0.0479619 0.426585 8.84863e-22)
(0.0163169 0.157263 -1.28427e-21)
(-0.0256328 0.00131151 1.40519e-18)
(-0.0257533 0.00290302 2.2212e-23)
(-0.0256996 0.00414514 -1.51948e-18)
(-0.0247397 0.00463034 1.58366e-18)
(-0.0235444 0.00461747 -3.19223e-20)
(-0.0234599 0.00447862 -3.1468e-20)
(-0.0240887 0.00437963 -1.33779e-22)
(-0.0252744 0.00425216 8.08152e-39)
(-0.0278322 0.00422869 7.34684e-39)
(-0.0322394 0.00441089 1.70194e-18)
(-0.0367113 0.00460359 3.84336e-22)
(-0.0397104 0.00476371 -1.62338e-18)
(-0.0394438 0.00473235 -1.66977e-18)
(-0.035024 0.00442409 4.6718e-20)
(-0.0266137 0.00344222 1.74492e-18)
)
;
    }
    upperWall
    {
        type            calculated;
        value           uniform (0 0 0);
    }
    lowerWall
    {
        type            calculated;
        value           uniform (0 0 0);
    }
    frontAndBack
    {
        type            empty;
    }
}


// ************************************************************************* //
