/*--------------------------------*- C++ -*----------------------------------*\
| =========                 |                                                 |
| \\      /  F ield         | OpenFOAM: The Open Source CFD Toolbox           |
|  \\    /   O peration     | Version:  2006                                  |
|   \\  /    A nd           | Website:  www.openfoam.com                      |
|    \\/     M anipulation  |                                                 |
\*---------------------------------------------------------------------------*/
FoamFile
{
    version     2.0;
    format      ascii;
    class       volVectorField;
    location    "1";
    object      flux;
}
// * * * * * * * * * * * * * * * * * * * * * * * * * * * * * * * * * * * * * //

dimensions      [0 1 -1 1 0 0 0];


internalField   nonuniform List<vector> 
512
(
(0.0133256 -26.4632 0)
(0.037861 -26.3555 0)
(0.0568545 -26.1575 0)
(0.0687871 -25.8971 0)
(0.0739157 -25.6038 0)
(0.0735678 -25.3031 0)
(0.0694093 -25.0133 0)
(0.0629412 -24.7466 0)
(0.0553592 -24.5092 0)
(0.0474864 -24.3036 0)
(0.0398366 -24.1294 0)
(0.0326933 -23.9851 0)
(0.0261769 -23.8682 0)
(0.0202967 -23.776 0)
(0.0149897 -23.7061 0)
(0.0101476 -23.6563 0)
(0.00563402 -23.6251 0)
(0.00129773 -23.6113 0)
(-0.0030179 -23.6147 0)
(-0.00746488 -23.6354 0)
(-0.0121774 -23.6743 0)
(-0.0172519 -23.7326 0)
(-0.0227167 -23.8121 0)
(-0.0284872 -23.9142 0)
(-0.0343051 -24.04 0)
(-0.0396677 -24.1889 0)
(-0.0437663 -24.358 0)
(-0.0454823 -24.5402 0)
(-0.0435188 -24.7237 0)
(-0.0367572 -24.8908 0)
(-0.0248475 -25.0203 0)
(-0.0088158 -25.0916 0)
(0.0405091 -26.4893 0)
(0.114973 -26.3773 0)
(0.172336 -26.1723 0)
(0.208068 -25.9045 0)
(0.223126 -25.6048 0)
(0.221667 -25.2993 0)
(0.208813 -25.0066 0)
(0.189114 -24.7383 0)
(0.166162 -24.5002 0)
(0.142413 -24.2946 0)
(0.119391 -24.1208 0)
(0.0979303 -23.9771 0)
(0.0783779 -23.8608 0)
(0.0607522 -23.7692 0)
(0.0448577 -23.6998 0)
(0.0303644 -23.6504 0)
(0.0168607 -23.6194 0)
(0.00389011 -23.6058 0)
(-0.00901965 -23.6091 0)
(-0.0223279 -23.6296 0)
(-0.036442 -23.6681 0)
(-0.0516592 -23.7261 0)
(-0.0680755 -23.8052 0)
(-0.0854523 -23.907 0)
(-0.103033 -24.0329 0)
(-0.119323 -24.1826 0)
(-0.1319 -24.3534 0)
(-0.137373 -24.5387 0)
(-0.131762 -24.7266 0)
(-0.111565 -24.899 0)
(-0.0755787 -25.0337 0)
(-0.0268499 -25.1084 0)
(0.069342 -26.5426 0)
(0.196372 -26.4214 0)
(0.293248 -26.2019 0)
(0.352536 -25.9189 0)
(0.376489 -25.6063 0)
(0.37265 -25.2915 0)
(0.349951 -24.9928 0)
(0.316136 -24.7213 0)
(0.277196 -24.4821 0)
(0.237184 -24.2765 0)
(0.198578 -24.1036 0)
(0.162711 -23.9611 0)
(0.130116 -23.846 0)
(0.100791 -23.7557 0)
(0.0743894 -23.6873 0)
(0.0503452 -23.6387 0)
(0.0279627 -23.6082 0)
(0.00647332 -23.5947 0)
(-0.0149183 -23.5979 0)
(-0.0369883 -23.6179 0)
(-0.0604322 -23.6558 0)
(-0.0857703 -23.713 0)
(-0.1132 -23.7912 0)
(-0.142375 -23.8926 0)
(-0.172093 -24.0187 0)
(-0.199921 -24.1698 0)
(-0.221825 -24.3441 0)
(-0.232052 -24.5354 0)
(-0.223672 -24.7322 0)
(-0.190338 -24.9156 0)
(-0.129509 -25.0611 0)
(-0.0461323 -25.1426 0)
(0.101109 -26.6255 0)
(0.285324 -26.4893 0)
(0.423593 -26.2466 0)
(0.505873 -25.9398 0)
(0.536838 -25.6075 0)
(0.528408 -25.2787 0)
(0.493909 -24.9713 0)
(0.444493 -24.6953 0)
(0.388552 -24.4545 0)
(0.331649 -24.2492 0)
(0.27712 -24.0777 0)
(0.226709 -23.937 0)
(0.181068 -23.824 0)
(0.140127 -23.7354 0)
(0.103355 -23.6686 0)
(0.0699292 -23.6212 0)
(0.0388557 -23.5914 0)
(0.00904199 -23.5782 0)
(-0.0206417 -23.5812 0)
(-0.0513037 -23.6006 0)
(-0.0839512 -23.6374 0)
(-0.119365 -23.6933 0)
(-0.157899 -23.7703 0)
(-0.199175 -23.8708 0)
(-0.241646 -23.9969 0)
(-0.282024 -24.1501 0)
(-0.314698 -24.3293 0)
(-0.331416 -24.5296 0)
(-0.321854 -24.7399 0)
(-0.276015 -24.9406 0)
(-0.189094 -25.1033 0)
(-0.0676392 -25.1962 0)
(0.137413 -26.7415 0)
(0.385776 -26.583 0)
(0.567982 -26.3066 0)
(0.672093 -25.9663 0)
(0.707083 -25.607 0)
(0.690766 -25.2595 0)
(0.641654 -24.941 0)
(0.574556 -24.6594 0)
(0.50022 -24.4169 0)
(0.425582 -24.2124 0)
(0.354687 -24.0429 0)
(0.289563 -23.9049 0)
(0.230888 -23.7946 0)
(0.178459 -23.7086 0)
(0.131515 -23.6439 0)
(0.0889508 -23.5981 0)
(0.049453 -23.5693 0)
(0.0115915 -23.5565 0)
(-0.0261128 -23.5591 0)
(-0.0651207 -23.5777 0)
(-0.106782 -23.6131 0)
(-0.152188 -23.6671 0)
(-0.201926 -23.7422 0)
(-0.255699 -23.8413 0)
(-0.311749 -23.9672 0)
(-0.366088 -24.1226 0)
(-0.411603 -24.308 0)
(-0.437396 -24.5202 0)
(-0.429153 -24.7491 0)
(-0.372005 -24.974 0)
(-0.257324 -25.1619 0)
(-0.0925974 -25.2719 0)
(0.180383 -26.8965 0)
(0.502784 -26.7053 0)
(0.731951 -26.3818 0)
(0.855668 -25.9966 0)
(0.890214 -25.6027 0)
(0.861428 -25.2322 0)
(0.793969 -24.9005 0)
(0.70652 -24.6128 0)
(0.612053 -24.3689 0)
(0.51866 -24.1658 0)
(0.430882 -23.9992 0)
(0.350868 -23.8647 0)
(0.279201 -23.758 0)
(0.215466 -23.6753 0)
(0.15862 -23.6133 0)
(0.107238 -23.5695 0)
(0.0596656 -23.542 0)
(0.0141184 -23.5296 0)
(-0.0312489 -23.5319 0)
(-0.0782722 -23.5493 0)
(-0.128682 -23.5828 0)
(-0.183939 -23.6345 0)
(-0.244964 -23.707 0)
(-0.31168 -23.8038 0)
(-0.382317 -23.929 0)
(-0.452404 -24.0865 0)
(-0.513493 -24.2789 0)
(-0.551943 -24.5055 0)
(-0.548738 -24.7581 0)
(-0.482427 -25.0155 0)
(-0.338071 -25.2389 0)
(-0.122658 -25.374 0)
(0.233014 -27.0985 0)
(0.643122 -26.8599 0)
(0.922346 -26.4717 0)
(1.06163 -26.0282 0)
(1.08925 -25.5917 0)
(1.04189 -25.1943 0)
(0.951373 -24.848 0)
(0.840347 -24.5542 0)
(0.723728 -24.3096 0)
(0.610431 -24.1089 0)
(0.505221 -23.9464 0)
(0.410161 -23.8164 0)
(0.325599 -23.7143 0)
(0.25081 -23.6356 0)
(0.184408 -23.5769 0)
(0.124611 -23.5356 0)
(0.0694008 -23.5096 0)
(0.0166199 -23.4978 0)
(-0.0359602 -23.4997 0)
(-0.0905751 -23.5156 0)
(-0.149375 -23.5468 0)
(-0.214264 -23.5954 0)
(-0.286603 -23.6644 0)
(-0.366716 -23.7581 0)
(-0.453069 -23.8815 0)
(-0.541026 -24.0404 0)
(-0.621109 -24.2401 0)
(-0.676976 -24.4831 0)
(-0.684166 -24.7647 0)
(-0.612412 -25.0645 0)
(-0.436576 -25.3368 0)
(-0.160169 -25.5088 0)
(0.299718 -27.3595 0)
(0.816211 -27.051 0)
(1.1478 -26.5746 0)
(1.29564 -26.0571 0)
(1.30713 -25.5701 0)
(1.23329 -25.1427 0)
(1.11402 -24.7814 0)
(0.975698 -24.4823 0)
(0.8347 -24.2383 0)
(0.700298 -24.0414 0)
(0.577126 -23.8842 0)
(0.466921 -23.7601 0)
(0.369634 -23.6634 0)
(0.284124 -23.5896 0)
(0.2086 -23.535 0)
(0.140883 -23.4966 0)
(0.0785627 -23.4725 0)
(0.0190942 -23.4613 0)
(-0.0401504 -23.4627 0)
(-0.101829 -23.4768 0)
(-0.168555 -23.5051 0)
(-0.242744 -23.5498 0)
(-0.326328 -23.6144 0)
(-0.420233 -23.7037 0)
(-0.523474 -23.8239 0)
(-0.631686 -23.9829 0)
(-0.734856 -24.1892 0)
(-0.814257 -24.45 0)
(-0.839405 -24.7656 0)
(-0.76847 -25.1191 0)
(-0.560208 -25.4586 0)
(-0.208633 -25.6853 0)
(0.387273 -27.6969 0)
(1.03557 -27.2833 0)
(1.41929 -26.687 0)
(1.5639 -26.0776 0)
(1.54646 -25.5326 0)
(1.43624 -25.0736 0)
(1.28156 -24.6981 0)
(1.11187 -24.3956 0)
(0.944173 -24.1541 0)
(0.787493 -23.9629 0)
(0.645911 -23.8126 0)
(0.52056 -23.6956 0)
(0.410818 -23.6056 0)
(0.315023 -23.5376 0)
(0.230908 -23.4876 0)
(0.155858 -23.4527 0)
(0.0870509 -23.4307 0)
(0.0215389 -23.4203 0)
(-0.0437179 -23.421 0)
(-0.11182 -23.4332 0)
(-0.185878 -23.458 0)
(-0.268896 -23.498 0)
(-0.363508 -23.5569 0)
(-0.471465 -23.6401 0)
(-0.592701 -23.7553 0)
(-0.723684 -23.9123 0)
(-0.854636 -24.1235 0)
(-0.965189 -24.4018 0)
(-1.01874 -24.7559 0)
(-0.958909 -25.176 0)
(-0.719655 -25.6075 0)
(-0.273492 -25.9173 0)
(0.506523 -28.137 0)
(1.32116 -27.5606 0)
(1.75065 -26.8019 0)
(1.87285 -26.0812 0)
(1.80913 -25.4727 0)
(1.65053 -24.9827 0)
(1.45302 -24.5957 0)
(1.2477 -24.2925 0)
(1.05106 -24.0563 0)
(0.871073 -23.8729 0)
(0.71078 -23.7314 0)
(0.570421 -23.6231 0)
(0.448624 -23.541 0)
(0.343094 -23.4797 0)
(0.251026 -23.4352 0)
(0.169332 -23.4043 0)
(0.0947602 -23.3848 0)
(0.0239498 -23.3752 0)
(-0.0465582 -23.3752 0)
(-0.120318 -23.3849 0)
(-0.200973 -23.4057 0)
(-0.292175 -23.4401 0)
(-0.397391 -23.4919 0)
(-0.519434 -23.5673 0)
(-0.659564 -23.6749 0)
(-0.81578 -23.8268 0)
(-0.979615 -24.0396 0)
(-1.13047 -24.3335 0)
(-1.22651 -24.7283 0)
(-1.19426 -25.2289 0)
(-0.930833 -25.7855 0)
(-0.363544 -26.2256 0)
(0.675518 -28.7206 0)
(1.70314 -27.8827 0)
(2.15897 -26.9065 0)
(2.22848 -26.0559 0)
(2.0957 -25.3824 0)
(1.87478 -24.8651 0)
(1.62664 -24.4712 0)
(1.38157 -24.1717 0)
(1.15399 -23.9441 0)
(0.949909 -23.7713 0)
(0.770826 -23.6408 0)
(0.615783 -23.5428 0)
(0.482487 -23.4699 0)
(0.367903 -23.4165 0)
(0.268635 -23.3781 0)
(0.181094 -23.3517 0)
(0.101579 -23.3349 0)
(0.0263184 -23.3264 0)
(-0.048568 -23.3256 0)
(-0.127091 -23.3326 0)
(-0.213443 -23.3488 0)
(-0.311979 -23.3764 0)
(-0.427114 -23.4197 0)
(-0.562946 -23.4851 0)
(-0.722488 -23.5821 0)
(-0.906071 -23.725 0)
(-1.10795 -23.9343 0)
(-1.30955 -24.2387 0)
(-1.46645 -24.6732 0)
(-1.48747 -25.2665 0)
(-1.21801 -25.9915 0)
(-0.493556 -26.6429 0)
(0.925496 -29.513 0)
(2.22821 -28.2388 0)
(2.66404 -26.9789 0)
(2.6349 -25.9856 0)
(2.40452 -25.2522 0)
(2.10611 -24.7159 0)
(1.79973 -24.3223 0)
(1.51129 -24.0319 0)
(1.25125 -23.8171 0)
(1.02269 -23.6582 0)
(0.825041 -23.541 0)
(0.655865 -23.4552 0)
(0.511807 -23.3929 0)
(0.388997 -23.3482 0)
(0.283407 -23.3169 0)
(0.190922 -23.2955 0)
(0.107388 -23.2819 0)
(0.0286289 -23.2745 0)
(-0.0496504 -23.2728 0)
(-0.131906 -23.2768 0)
(-0.222882 -23.2877 0)
(-0.327667 -23.3077 0)
(-0.451714 -23.3409 0)
(-0.600602 -23.3938 0)
(-0.779493 -23.4767 0)
(-0.991896 -23.6053 0)
(-1.23648 -23.8041 0)
(-1.49991 -24.1102 0)
(-1.74045 -24.5772 0)
(-1.85339 -25.2703 0)
(-1.61901 -26.2149 0)
(-0.689258 -27.2221 0)
(1.31263 -30.6233 0)
(2.97019 -28.5909 0)
(3.28555 -26.9839 0)
(3.09186 -25.8497 0)
(2.73059 -25.0718 0)
(2.33973 -24.53 0)
(1.9686 -24.1466 0)
(1.63416 -23.8723 0)
(1.34087 -23.6751 0)
(1.08797 -23.5335 0)
(0.872331 -23.4322 0)
(0.689838 -23.3605 0)
(0.535961 -23.3102 0)
(0.405909 -23.2754 0)
(0.295001 -23.2519 0)
(0.19859 -23.2361 0)
(0.112061 -23.226 0)
(0.0308565 -23.2199 0)
(-0.0497205 -23.2173 0)
(-0.134541 -23.2181 0)
(-0.228887 -23.2231 0)
(-0.338576 -23.2345 0)
(-0.470163 -23.2558 0)
(-0.630837 -23.2938 0)
(-0.828222 -23.3586 0)
(-1.06979 -23.4669 0)
(-1.36042 -23.6459 0)
(-1.69612 -23.9404 0)
(-2.04646 -24.4237 0)
(-2.30627 -25.21 0)
(-2.19393 -26.4216 0)
(-0.997175 -28.0521 0)
(1.94171 -32.2411 0)
(4.04793 -28.8363 0)
(4.03464 -26.8699 0)
(3.59094 -25.6238 0)
(3.06435 -24.8315 0)
(2.56872 -24.3036 0)
(2.12859 -23.9425 0)
(1.74702 -23.6922 0)
(1.42066 -23.518 0)
(1.14418 -23.3974 0)
(0.911547 -23.3146 0)
(0.716844 -23.259 0)
(0.55432 -23.2222 0)
(0.418168 -23.1984 0)
(0.30308 -23.1834 0)
(0.20387 -23.1738 0)
(0.115463 -23.1675 0)
(0.0329664 -23.163 0)
(-0.0487112 -23.1594 0)
(-0.134796 -23.1567 0)
(-0.231077 -23.1553 0)
(-0.344052 -23.1572 0)
(-0.481403 -23.1651 0)
(-0.651983 -23.1857 0)
(-0.866012 -23.2282 0)
(-1.13555 -23.3093 0)
(-1.47324 -23.4574 0)
(-1.8888 -23.722 0)
(-2.37526 -24.193 0)
(-2.85236 -25.0422 0)
(-3.04004 -26.5225 0)
(-1.50448 -29.2884 0)
(3.01507 -34.7096 0)
(5.65581 -28.7214 0)
(4.89177 -26.5752 0)
(4.11108 -25.2838 0)
(3.39072 -24.5241 0)
(2.78418 -24.0345 0)
(2.27428 -23.7098 0)
(1.84641 -23.492 0)
(1.48829 -23.3464 0)
(1.1897 -23.2506 0)
(0.941522 -23.1889 0)
(0.736016 -23.1515 0)
(0.566264 -23.1297 0)
(0.425311 -23.1178 0)
(0.307309 -23.1123 0)
(0.206543 -23.1092 0)
(0.117455 -23.1072 0)
(0.0349149 -23.1044 0)
(-0.0465792 -23.0999 0)
(-0.132503 -23.0936 0)
(-0.229116 -23.0854 0)
(-0.34348 -23.077 0)
(-0.484407 -23.0699 0)
(-0.662363 -23.0706 0)
(-0.890044 -23.0868 0)
(-1.18441 -23.1336 0)
(-1.56675 -23.2385 0)
(-2.06391 -23.4506 0)
(-2.70656 -23.8666 0)
(-3.47102 -24.7153 0)
(-4.31705 -26.3009 0)
(-2.38012 -31.2151 0)
(4.9358 -38.6748 0)
(8.11512 -27.6454 0)
(5.75347 -26.0663 0)
(4.61652 -24.8101 0)
(3.68901 -24.1483 0)
(2.97587 -23.7232 0)
(2.39983 -23.4492 0)
(1.9287 -23.2727 0)
(1.54135 -23.1612 0)
(1.22291 -23.0942 0)
(0.961087 -23.056 0)
(0.746472 -23.0389 0)
(0.571197 -23.0334 0)
(0.426871 -23.0343 0)
(0.307354 -23.0392 0)
(0.206392 -23.0431 0)
(0.117879 -23.0458 0)
(0.0366452 -23.0449 0)
(-0.0433204 -23.0394 0)
(-0.12754 -23.0297 0)
(-0.222743 -23.0141 0)
(-0.336317 -22.9951 0)
(-0.478229 -22.9714 0)
(-0.660415 -22.9504 0)
(-0.897529 -22.9364 0)
(-1.21143 -22.9422 0)
(-1.63173 -22.9915 0)
(-2.20285 -23.1271 0)
(-3.00762 -23.4309 0)
(-4.06948 -24.2033 0)
(-6.28993 -25.2459 0)
(-3.96161 -34.3698 0)
)
;

boundaryField
{
    left
    {
        type            calculated;
        value           nonuniform List<vector> 
16
(
(0 -26.4632 0)
(0 -26.4893 0)
(0 -26.5426 0)
(0 -26.6255 0)
(0 -26.7415 0)
(0 -26.8965 0)
(0 -27.0985 0)
(0 -27.3595 0)
(0 -27.6969 0)
(0 -28.137 0)
(0 -28.7206 0)
(0 -29.513 0)
(0 -30.6233 0)
(0 -32.2411 0)
(0 -34.7096 0)
(0 -38.6748 0)
)
;
    }
    right
    {
        type            calculated;
        value           nonuniform List<vector> 
16
(
(0 -25.0916 0)
(0 -25.1084 0)
(0 -25.1426 0)
(0 -25.1962 0)
(0 -25.2719 0)
(0 -25.374 0)
(0 -25.5088 0)
(0 -25.6853 0)
(0 -25.9173 0)
(0 -26.2256 0)
(0 -26.6429 0)
(0 -27.2221 0)
(0 -28.0521 0)
(0 -29.2884 0)
(0 -31.2151 0)
(0 -34.3698 0)
)
;
    }
    interface
    {
        type            calculated;
        value           nonuniform List<vector> 
32
(
(4.9358 -41.1376 0)
(8.11512 -26.7617 0)
(5.75347 -25.7578 0)
(4.61652 -24.5378 0)
(3.68901 -23.9436 0)
(2.97587 -23.5573 0)
(2.39983 -23.3122 0)
(1.9287 -23.1584 0)
(1.54135 -23.0653 0)
(1.22291 -23.0136 0)
(0.961087 -22.9878 0)
(0.746472 -22.9814 0)
(0.571197 -22.9843 0)
(0.426871 -22.9918 0)
(0.307354 -23.0022 0)
(0.206392 -23.0097 0)
(0.117879 -23.0149 0)
(0.0366452 -23.015 0)
(-0.0433204 -23.009 0)
(-0.12754 -22.9976 0)
(-0.222743 -22.9782 0)
(-0.336317 -22.9539 0)
(-0.478229 -22.9215 0)
(-0.660415 -22.8892 0)
(-0.897529 -22.8592 0)
(-1.21143 -22.8429 0)
(-1.63173 -22.8615 0)
(-2.20285 -22.9528 0)
(-3.00762 -23.1845 0)
(-4.06948 -23.9008 0)
(-6.28993 -24.4206 0)
(-3.96161 -36.3423 0)
)
;
    }
    bottom
    {
        type            calculated;
        value           nonuniform List<vector> 
32
(
(0.0133256 -26.4567 0)
(0.037861 -26.3501 0)
(0.0568545 -26.1538 0)
(0.0687871 -25.8953 0)
(0.0739157 -25.6036 0)
(0.0735678 -25.304 0)
(0.0694093 -25.015 0)
(0.0629412 -24.7487 0)
(0.0553592 -24.5115 0)
(0.0474864 -24.3058 0)
(0.0398366 -24.1316 0)
(0.0326933 -23.9871 0)
(0.0261769 -23.87 0)
(0.0202967 -23.7777 0)
(0.0149897 -23.7077 0)
(0.0101476 -23.6578 0)
(0.00563402 -23.6265 0)
(0.00129773 -23.6127 0)
(-0.0030179 -23.6161 0)
(-0.00746488 -23.6369 0)
(-0.0121774 -23.6758 0)
(-0.0172519 -23.7343 0)
(-0.0227167 -23.8138 0)
(-0.0284872 -23.916 0)
(-0.0343051 -24.0417 0)
(-0.0396677 -24.1905 0)
(-0.0437663 -24.3591 0)
(-0.0454823 -24.5406 0)
(-0.0435188 -24.7229 0)
(-0.0367572 -24.8887 0)
(-0.0248475 -25.017 0)
(-0.0088158 -25.0875 0)
)
;
    }
    defaultFaces
    {
        type            empty;
    }
}


// ************************************************************************* //
