/*--------------------------------*- C++ -*----------------------------------*\
| =========                 |                                                 |
| \\      /  F ield         | OpenFOAM: The Open Source CFD Toolbox           |
|  \\    /   O peration     | Version:  4.1                                   |
|   \\  /    A nd           | Web:      www.OpenFOAM.org                      |
|    \\/     M anipulation  |                                                 |
\*---------------------------------------------------------------------------*/
FoamFile
{
    version     2.0;
    format      ascii;
    class       pointVectorField;
    location    "4.8";
    object      pointDisplacement;
}
// * * * * * * * * * * * * * * * * * * * * * * * * * * * * * * * * * * * * * //

dimensions      [0 1 0 0 0 0 0];

internalField   nonuniform List<vector> 
5828
(
(0 0 0)
(0.0135502 0 0)
(0.0256926 0 0)
(0.0360975 0 0)
(0.0449114 0 0)
(0.0522754 0 0)
(0.0583165 0 0)
(0.0631485 0 0)
(0.0668724 0 0)
(0.0695762 0 0)
(0.071337 0 0)
(0.0722239 0 0)
(0.0722981 0 0)
(0.0716148 0 0)
(0.0702238 0 0)
(0.0681725 0 0)
(0.0655049 0 0)
(0.062264 0 0)
(0.0584948 0 0)
(0.0542458 0 0)
(0.0495709 0 0)
(0.0445311 0 0)
(0.039197 0 0)
(0.0336523 0 0)
(0.0279988 0 0)
(0.0223666 0 0)
(0.0169228 0 0)
(0.0118868 0 0)
(0.00756778 0 0)
(0.00450598 0 0)
(-8.39606e-16 0 0)
(0 0 0)
(0.0135586 3.86465e-05 0)
(0.0257104 7.47617e-05 0)
(0.0361248 0.000108459 0)
(0.0449486 0.000140897 0)
(0.0523234 0.000173038 0)
(0.0583763 0.000205621 0)
(0.0632216 0.00023931 0)
(0.0669608 0.000274775 0)
(0.0696819 0.000312651 0)
(0.0714626 0.000353351 0)
(0.0723718 0.000397302 0)
(0.0724717 0.000445121 0)
(0.0718175 0.000497396 0)
(0.0704595 0.000554764 0)
(0.0684458 0.000618056 0)
(0.0658212 0.000687482 0)
(0.0626285 0.000763296 0)
(0.0589133 0.000846383 0)
(0.054725 0.000937439 0)
(0.050118 0.00103719 0)
(0.0451546 0.0011464 0)
(0.0399064 0.00126598 0)
(0.0344583 0.00139712 0)
(0.0289125 0.00154157 0)
(0.0234024 0.00170346 0)
(0.0181024 0.00188817 0)
(0.0132433 0.00210095 0)
(0.00914984 0.00234409 0)
(0.00636076 0.0025998 0)
(0.00267866 0.00297434 0)
(0 0 0)
(0.0135876 7.71484e-05 0)
(0.0257675 0.000149246 0)
(0.0362099 0.000216509 0)
(0.0450632 0.000281248 0)
(0.0524702 0.000345397 0)
(0.0585582 0.00041041 0)
(0.063443 0.000477583 0)
(0.0672275 0.000548274 0)
(0.0700005 0.00062382 0)
(0.0718397 0.000704966 0)
(0.0728156 0.000792496 0)
(0.0729918 0.000887711 0)
(0.0724244 0.000991743 0)
(0.0711644 0.00110577 0)
(0.0692613 0.00123107 0)
(0.0667628 0.00136841 0)
(0.0637129 0.00151875 0)
(0.0601581 0.00168353 0)
(0.0561494 0.00186403 0)
(0.051744 0.00206161 0)
(0.0470071 0.00227771 0)
(0.0420139 0.0025139 0)
(0.0368547 0.00277208 0)
(0.0316335 0.00305495 0)
(0.0264854 0.00336743 0)
(0.0215964 0.00371529 0)
(0.0172259 0.00410524 0)
(0.0137316 0.004536 0)
(0.0116324 0.00496906 0)
(0.00873674 0.00554245 0)
(0 0 0)
(0.0136364 0.000115351 0)
(0.0258636 0.000223157 0)
(0.0363524 0.000323709 0)
(0.0452548 0.000420452 0)
(0.0527153 0.000516333 0)
(0.0588614 0.000613449 0)
(0.0638113 0.000713671 0)
(0.0676708 0.000819049 0)
(0.0705288 0.00093141 0)
(0.0724639 0.00105196 0)
(0.0735493 0.00118207 0)
(0.0738512 0.00132357 0)
(0.073427 0.00147804 0)
(0.0723293 0.00164704 0)
(0.0706088 0.00183184 0)
(0.0683167 0.00203428 0)
(0.0655011 0.00225638 0)
(0.0622097 0.00249968 0)
(0.0584959 0.00276579 0)
(0.0544205 0.00305668 0)
(0.0500535 0.00337424 0)
(0.0454752 0.00372025 0)
(0.0407828 0.00409673 0)
(0.03609 0.00450616 0)
(0.031534 0.00494973 0)
(0.0272983 0.00542821 0)
(0.02365 0.00594236 0)
(0.0209779 0.00648087 0)
(0.0197708 0.00698964 0)
(0.0178312 0.00752578 0)
(0 0 0)
(0.0137049 0.000153086 0)
(0.0259981 0.00029617 0)
(0.0365509 0.000429572 0)
(0.0455215 0.00055783 0)
(0.0530561 0.00068478 0)
(0.0592816 0.0008132 0)
(0.064321 0.000945651 0)
(0.0682831 0.00108472 0)
(0.0712575 0.00123251 0)
(0.0733247 0.00139088 0)
(0.0745614 0.00156194 0)
(0.0750362 0.00174784 0)
(0.0748092 0.00195056 0)
(0.073936 0.00217201 0)
(0.0724697 0.00241387 0)
(0.070464 0.00267859 0)
(0.0679714 0.0029687 0)
(0.0650435 0.00328591 0)
(0.0617348 0.00363194 0)
(0.0581112 0.00400928 0)
(0.0542489 0.00442005 0)
(0.0502316 0.00486536 0)
(0.0461628 0.00534645 0)
(0.0421679 0.00586362 0)
(0.038393 0.00641363 0)
(0.0350169 0.00699051 0)
(0.0322714 0.00758235 0)
(0.0305403 0.00816595 0)
(0.0302837 0.00868165 0)
(0.0290973 0.00909136 0)
(0 0 0)
(0.0137932 0.000190171 0)
(0.0261707 0.000367831 0)
(0.0368032 0.000533313 0)
(0.0458576 0.000692271 0)
(0.0534845 0.000849283 0)
(0.0598113 0.00100789 0)
(0.0649645 0.00117142 0)
(0.0690558 0.00134283 0)
(0.0721765 0.00152454 0)
(0.0744104 0.00171899 0)
(0.0758377 0.00192891 0)
(0.07653 0.00215678 0)
(0.0765506 0.00240492 0)
(0.0759592 0.00267565 0)
(0.0748129 0.00297126 0)
(0.0731686 0.00329436 0)
(0.0710833 0.00364755 0)
(0.0686149 0.00403294 0)
(0.0658212 0.00445251 0)
(0.0627692 0.0049087 0)
(0.0595389 0.00540269 0)
(0.0562169 0.00593439 0)
(0.0529126 0.00650378 0)
(0.04976 0.00710824 0)
(0.0469096 0.0077401 0)
(0.0445377 0.00838628 0)
(0.0428376 0.00902523 0)
(0.042121 0.00962421 0)
(0.0427993 0.0101252 0)
(0.0422145 0.0105162 0)
(0 0 0)
(0.0138975 0.000226284 0)
(0.0263741 0.000437502 0)
(0.0371029 0.000634046 0)
(0.0462584 0.000822679 0)
(0.0539953 0.00100867 0)
(0.0604439 0.00119627 0)
(0.065734 0.0013895 0)
(0.0699791 0.00159163 0)
(0.0732735 0.00180533 0)
(0.0757057 0.00203368 0)
(0.0773598 0.00227994 0)
(0.0783102 0.0025468 0)
(0.0786245 0.0028369 0)
(0.0783666 0.00315287 0)
(0.0775986 0.00349738 0)
(0.0763813 0.00387319 0)
(0.0747776 0.00428318 0)
(0.0728528 0.00472979 0)
(0.0706733 0.00521543 0)
(0.068306 0.00574138 0)
(0.0658298 0.00630723 0)
(0.0633344 0.00691217 0)
(0.0609253 0.00755418 0)
(0.0587413 0.00822741 0)
(0.0569361 0.00891978 0)
(0.0556691 0.00961188 0)
(0.0551059 0.0102769 0)
(0.0554528 0.0108757 0)
(0.0570464 0.0113544 0)
(0.0571597 0.0117687 0)
(0 0 0)
(0.0140171 0.000261166 0)
(0.0266063 0.000504755 0)
(0.0374468 0.00073121 0)
(0.0467192 0.000948321 0)
(0.0545821 0.00116197 0)
(0.0611714 0.00137713 0)
(0.0666197 0.0015985 0)
(0.0710412 0.00182952 0)
(0.0745353 0.00207321 0)
(0.0771962 0.0023332 0)
(0.0791104 0.00261298 0)
(0.080356 0.00291546 0)
(0.0810053 0.00324352 0)
(0.0811276 0.00360005 0)
(0.0807898 0.00398787 0)
(0.0800568 0.0044098 0)
(0.0789987 0.00486903 0)
(0.0776879 0.00536827 0)
(0.0761979 0.00590959 0)
(0.0746037 0.00649353 0)
(0.0729868 0.0071189 0)
(0.07144 0.00778384 0)
(0.0700554 0.00848346 0)
(0.0689549 0.0092085 0)
(0.0682932 0.00994331 0)
(0.06821 0.0106635 0)
(0.068825 0.0113373 0)
(0.0702577 0.0119228 0)
(0.0727421 0.0123686 0)
(0.0734963 0.012725 0)
(0 0 0)
(0.0141515 0.000294666 0)
(0.0268652 0.000569223 0)
(0.0378308 0.000824265 0)
(0.0472346 0.00106854 0)
(0.0552386 0.0013085 0)
(0.0619868 0.00154978 0)
(0.0676123 0.00179739 0)
(0.0722297 0.00205509 0)
(0.0759466 0.00232654 0)
(0.0788619 0.00261557 0)
(0.0810643 0.00292563 0)
(0.0826364 0.00325989 0)
(0.0836559 0.00362143 0)
(0.0841977 0.00401326 0)
(0.0843351 0.00443825 0)
(0.0841395 0.00489937 0)
(0.0836854 0.00539981 0)
(0.0830478 0.00594172 0)
(0.0823082 0.00652684 0)
(0.081555 0.00715587 0)
(0.0808763 0.00782709 0)
(0.0803657 0.00853694 0)
(0.0801106 0.00927835 0)
(0.0802021 0.0100393 0)
(0.0807732 0.0108012 0)
(0.0819408 0.0115357 0)
(0.0837621 0.0122071 0)
(0.0862788 0.0127738 0)
(0.0895992 0.0131856 0)
(0.0908823 0.0134964 0)
(0 0 0)
(0.0142933 0.000326503 0)
(0.0271447 0.000630598 0)
(0.0382516 0.000912935 0)
(0.0478022 0.0011829 0)
(0.0559607 0.00144762 0)
(0.0628803 0.00171324 0)
(0.0686963 0.00198488 0)
(0.0735271 0.00226683 0)
(0.0774862 0.00256332 0)
(0.0806761 0.00287815 0)
(0.083189 0.0032148 0)
(0.0851122 0.00357655 0)
(0.0865288 0.00396655 0)
(0.0875197 0.00438786 0)
(0.0881658 0.00484344 0)
(0.0885491 0.00533642 0)
(0.088746 0.00586917 0)
(0.088833 0.00644321 0)
(0.0888975 0.00706036 0)
(0.0890376 0.007721 0)
(0.0893529 0.00842285 0)
(0.0899365 0.00916108 0)
(0.0908747 0.00992726 0)
(0.0922399 0.0107083 0)
(0.0941248 0.0114839 0)
(0.0966011 0.012223 0)
(0.0996618 0.0128875 0)
(0.103256 0.0134371 0)
(0.107366 0.0138237 0)
(0.109168 0.014146 0)
(0 0 0)
(0.0144448 0.000356639 0)
(0.0274476 0.000688771 0)
(0.038705 0.0009968 0)
(0.0484104 0.00129068 0)
(0.0567359 0.00157831 0)
(0.0638391 0.00186631 0)
(0.0698589 0.00215995 0)
(0.0749194 0.0024639 0)
(0.0791375 0.00278263 0)
(0.0826185 0.00311992 0)
(0.0854596 0.00347927 0)
(0.0877528 0.00386395 0)
(0.0895863 0.00427706 0)
(0.0910466 0.00472161 0)
(0.092222 0.00520058 0)
(0.0932031 0.00571678 0)
(0.0940734 0.00627184 0)
(0.0949194 0.00686703 0)
(0.0958281 0.0075036 0)
(0.0968947 0.00818134 0)
(0.098233 0.0088977 0)
(0.0999445 0.00964698 0)
(0.10211 0.0104201 0)
(0.104794 0.0112047 0)
(0.108043 0.0119806 0)
(0.111869 0.0127161 0)
(0.116202 0.013373 0)
(0.120888 0.0139104 0)
(0.125777 0.0142763 0)
(0.128204 0.0145948 0)
(0 0 0)
(0.0146078 0.000385021 0)
(0.0277674 0.000743305 0)
(0.0391818 0.0010752 0)
(0.0490521 0.00139137 0)
(0.0575569 0.00170023 0)
(0.0648564 0.00200873 0)
(0.0710923 0.00232233 0)
(0.0763942 0.00264588 0)
(0.0808831 0.0029839 0)
(0.0846678 0.00334021 0)
(0.0878501 0.00371826 0)
(0.0905262 0.00412119 0)
(0.0927892 0.00455189 0)
(0.0947297 0.00501311 0)
(0.096443 0.00550772 0)
(0.0980268 0.006038 0)
(0.0995737 0.00660513 0)
(0.10118 0.00720978 0)
(0.102939 0.00785209 0)
(0.104942 0.00853135 0)
(0.107304 0.00924498 0)
(0.110139 0.00998677 0)
(0.113527 0.0107476 0)
(0.117529 0.0115166 0)
(0.12215 0.0122764 0)
(0.12735 0.0129991 0)
(0.132997 0.0136486 0)
(0.138824 0.0141816 0)
(0.144505 0.0145305 0)
(0.147577 0.0148266 0)
(0 0 0)
(0.0147735 0.000411309 0)
(0.0280969 0.000793894 0)
(0.0396801 0.00114805 0)
(0.0497267 0.00148494 0)
(0.058419 0.00181324 0)
(0.0659216 0.00214009 0)
(0.0723796 0.00247116 0)
(0.0779293 0.00281154 0)
(0.082696 0.00316576 0)
(0.0867913 0.00353753 0)
(0.0903208 0.00393015 0)
(0.0933852 0.00434654 0)
(0.0960817 0.0047892 0)
(0.0985062 0.00526061 0)
(0.100758 0.00576331 0)
(0.102938 0.00629891 0)
(0.105151 0.00686786 0)
(0.107495 0.00746989 0)
(0.110073 0.00810398 0)
(0.112984 0.00876873 0)
(0.116336 0.00946142 0)
(0.120242 0.0101753 0)
(0.124792 0.0109017 0)
(0.130041 0.0116314 0)
(0.135985 0.0123524 0)
(0.142551 0.0130452 0)
(0.149543 0.0136822 0)
(0.156589 0.0142228 0)
(0.163117 0.0145761 0)
(0.167087 0.0148863 0)
(0 0 0)
(0.0149427 0.000435507 0)
(0.0284386 0.000840612 0)
(0.040199 0.00121534 0)
(0.0504269 0.00157102 0)
(0.0593083 0.00191658 0)
(0.067015 0.00225934 0)
(0.0736992 0.00260533 0)
(0.0795009 0.00295978 0)
(0.0845477 0.00332702 0)
(0.0889546 0.00371063 0)
(0.0928307 0.00411368 0)
(0.0962806 0.00453879 0)
(0.0994058 0.00498806 0)
(0.102309 0.00546349 0)
(0.10509 0.00596691 0)
(0.107849 0.00649925 0)
(0.110698 0.00706009 0)
(0.11374 0.00764794 0)
(0.117081 0.00826049 0)
(0.12083 0.00889508 0)
(0.125087 0.00954806 0)
(0.129961 0.0102124 0)
(0.135547 0.010879 0)
(0.141896 0.0115397 0)
(0.149017 0.0121879 0)
(0.15683 0.012815 0)
(0.165109 0.0134115 0)
(0.173427 0.0139625 0)
(0.180941 0.0143671 0)
(0.186401 0.0148259 0)
(0 0 0)
(0.0151194 0.000457742 0)
(0.0287916 0.000883415 0)
(0.0407298 0.00127667 0)
(0.0511385 0.00164898 0)
(0.0602097 0.00200957 0)
(0.0681235 0.00236608 0)
(0.0750376 0.0027247 0)
(0.0810933 0.00309052 0)
(0.0864193 0.00346769 0)
(0.0911348 0.0038596 0)
(0.0953517 0.00426904 0)
(0.0991778 0.00469826 0)
(0.102718 0.00514897 0)
(0.106079 0.00562246 0)
(0.109363 0.00611952 0)
(0.11267 0.00664037 0)
(0.11611 0.00718384 0)
(0.119792 0.0077469 0)
(0.123816 0.00832571 0)
(0.128292 0.00891578 0)
(0.133323 0.0095117 0)
(0.13901 0.0101055 0)
(0.145432 0.010686 0)
(0.152639 0.0112436 0)
(0.160647 0.0117714 0)
(0.169383 0.0122659 0)
(0.178636 0.0127345 0)
(0.188028 0.0132168 0)
(0.196645 0.0136944 0)
(0.205557 0.0147896 0)
(0 0 0)
(0.0153029 0.000478128 0)
(0.0291517 0.000922389 0)
(0.0412657 0.00133213 0)
(0.051858 0.00171918 0)
(0.0611253 0.00209302 0)
(0.0692509 0.00246136 0)
(0.0763969 0.00283036 0)
(0.0827062 0.00320496 0)
(0.0883096 0.00358908 0)
(0.0933292 0.00398592 0)
(0.0978793 0.0043979 0)
(0.10207 0.00482681 0)
(0.106007 0.00527387 0)
(0.109798 0.00573963 0)
(0.113547 0.00622385 0)
(0.11736 0.0067258 0)
(0.12134 0.00724336 0)
(0.125585 0.00777194 0)
(0.130192 0.00830594 0)
(0.135266 0.00883911 0)
(0.14091 0.00936347 0)
(0.147206 0.00986842 0)
(0.154199 0.0103397 0)
(0.161923 0.0107617 0)
(0.170378 0.0111182 0)
(0.17946 0.0113893 0)
(0.18894 0.0115458 0)
(0.19844 0.0115425 0)
(0.207275 0.0112016 0)
(0.224575 0.0147659 0)
(0 0 0)
(0.0135502 0 0)
(0.0256926 0 0)
(0.0360975 0 0)
(0.0449114 0 0)
(0.0522754 0 0)
(0.0583165 0 0)
(0.0631485 0 0)
(0.0668724 0 0)
(0.0695762 0 0)
(0.071337 0 0)
(0.0722239 0 0)
(0.0722981 0 0)
(0.0716148 0 0)
(0.0702238 0 0)
(0.0681725 0 0)
(0.0655049 0 0)
(0.062264 0 0)
(0.0584948 0 0)
(0.0542458 0 0)
(0.0495709 0 0)
(0.0445311 0 0)
(0.039197 0 0)
(0.0336523 0 0)
(0.0279988 0 0)
(0.0223666 0 0)
(0.0169228 0 0)
(0.0118868 0 0)
(0.00756778 0 0)
(0.00450598 0 0)
(-5.89806e-17 0 0)
(0 0 0)
(0.0135586 3.86465e-05 0)
(0.0257104 7.47617e-05 0)
(0.0361248 0.000108459 0)
(0.0449486 0.000140897 0)
(0.0523234 0.000173038 0)
(0.0583763 0.000205621 0)
(0.0632216 0.00023931 0)
(0.0669608 0.000274775 0)
(0.0696819 0.000312651 0)
(0.0714626 0.000353351 0)
(0.0723718 0.000397302 0)
(0.0724717 0.000445121 0)
(0.0718175 0.000497396 0)
(0.0704595 0.000554764 0)
(0.0684458 0.000618056 0)
(0.0658212 0.000687482 0)
(0.0626285 0.000763296 0)
(0.0589133 0.000846383 0)
(0.054725 0.000937439 0)
(0.050118 0.00103719 0)
(0.0451546 0.0011464 0)
(0.0399064 0.00126598 0)
(0.0344583 0.00139712 0)
(0.0289125 0.00154157 0)
(0.0234024 0.00170346 0)
(0.0181024 0.00188817 0)
(0.0132433 0.00210095 0)
(0.00914984 0.00234409 0)
(0.00636076 0.0025998 0)
(0.00267866 0.00297434 0)
(0 0 0)
(0.0135876 7.71484e-05 0)
(0.0257675 0.000149246 0)
(0.0362099 0.000216509 0)
(0.0450632 0.000281248 0)
(0.0524702 0.000345397 0)
(0.0585582 0.00041041 0)
(0.063443 0.000477583 0)
(0.0672275 0.000548274 0)
(0.0700005 0.00062382 0)
(0.0718397 0.000704966 0)
(0.0728156 0.000792496 0)
(0.0729918 0.000887711 0)
(0.0724244 0.000991743 0)
(0.0711644 0.00110577 0)
(0.0692613 0.00123107 0)
(0.0667628 0.00136841 0)
(0.0637129 0.00151875 0)
(0.0601581 0.00168353 0)
(0.0561494 0.00186403 0)
(0.051744 0.00206161 0)
(0.0470071 0.00227771 0)
(0.0420139 0.0025139 0)
(0.0368547 0.00277208 0)
(0.0316335 0.00305495 0)
(0.0264854 0.00336743 0)
(0.0215964 0.00371529 0)
(0.0172259 0.00410524 0)
(0.0137316 0.004536 0)
(0.0116324 0.00496906 0)
(0.00873674 0.00554245 0)
(0 0 0)
(0.0136364 0.000115351 0)
(0.0258636 0.000223157 0)
(0.0363524 0.000323709 0)
(0.0452548 0.000420452 0)
(0.0527153 0.000516333 0)
(0.0588614 0.000613449 0)
(0.0638113 0.000713671 0)
(0.0676708 0.000819049 0)
(0.0705288 0.00093141 0)
(0.0724639 0.00105196 0)
(0.0735493 0.00118207 0)
(0.0738512 0.00132357 0)
(0.073427 0.00147804 0)
(0.0723293 0.00164704 0)
(0.0706088 0.00183184 0)
(0.0683167 0.00203428 0)
(0.0655011 0.00225638 0)
(0.0622097 0.00249968 0)
(0.0584959 0.00276579 0)
(0.0544205 0.00305668 0)
(0.0500535 0.00337424 0)
(0.0454752 0.00372025 0)
(0.0407828 0.00409673 0)
(0.03609 0.00450616 0)
(0.031534 0.00494973 0)
(0.0272983 0.00542821 0)
(0.02365 0.00594236 0)
(0.0209779 0.00648087 0)
(0.0197708 0.00698964 0)
(0.0178312 0.00752578 0)
(0 0 0)
(0.0137049 0.000153086 0)
(0.0259981 0.00029617 0)
(0.0365509 0.000429572 0)
(0.0455215 0.00055783 0)
(0.0530561 0.00068478 0)
(0.0592816 0.0008132 0)
(0.064321 0.000945651 0)
(0.0682831 0.00108472 0)
(0.0712575 0.00123251 0)
(0.0733247 0.00139088 0)
(0.0745614 0.00156194 0)
(0.0750362 0.00174784 0)
(0.0748092 0.00195056 0)
(0.073936 0.00217201 0)
(0.0724697 0.00241387 0)
(0.070464 0.00267859 0)
(0.0679714 0.0029687 0)
(0.0650435 0.00328591 0)
(0.0617348 0.00363194 0)
(0.0581112 0.00400928 0)
(0.0542489 0.00442005 0)
(0.0502316 0.00486536 0)
(0.0461628 0.00534645 0)
(0.0421679 0.00586362 0)
(0.038393 0.00641363 0)
(0.0350169 0.00699051 0)
(0.0322714 0.00758235 0)
(0.0305403 0.00816595 0)
(0.0302837 0.00868165 0)
(0.0290973 0.00909136 0)
(0 0 0)
(0.0137932 0.000190171 0)
(0.0261707 0.000367831 0)
(0.0368032 0.000533313 0)
(0.0458576 0.000692271 0)
(0.0534845 0.000849283 0)
(0.0598113 0.00100789 0)
(0.0649645 0.00117142 0)
(0.0690558 0.00134283 0)
(0.0721765 0.00152454 0)
(0.0744104 0.00171899 0)
(0.0758377 0.00192891 0)
(0.07653 0.00215678 0)
(0.0765506 0.00240492 0)
(0.0759592 0.00267565 0)
(0.0748129 0.00297126 0)
(0.0731686 0.00329436 0)
(0.0710833 0.00364755 0)
(0.0686149 0.00403294 0)
(0.0658212 0.00445251 0)
(0.0627692 0.0049087 0)
(0.0595389 0.00540269 0)
(0.0562169 0.00593439 0)
(0.0529126 0.00650378 0)
(0.04976 0.00710824 0)
(0.0469096 0.0077401 0)
(0.0445377 0.00838628 0)
(0.0428376 0.00902523 0)
(0.042121 0.00962421 0)
(0.0427993 0.0101252 0)
(0.0422145 0.0105162 0)
(0 0 0)
(0.0138975 0.000226284 0)
(0.0263741 0.000437502 0)
(0.0371029 0.000634046 0)
(0.0462584 0.000822679 0)
(0.0539953 0.00100867 0)
(0.0604439 0.00119627 0)
(0.065734 0.0013895 0)
(0.0699791 0.00159163 0)
(0.0732735 0.00180533 0)
(0.0757057 0.00203368 0)
(0.0773598 0.00227994 0)
(0.0783102 0.0025468 0)
(0.0786245 0.0028369 0)
(0.0783666 0.00315287 0)
(0.0775986 0.00349738 0)
(0.0763813 0.00387319 0)
(0.0747776 0.00428318 0)
(0.0728528 0.00472979 0)
(0.0706733 0.00521543 0)
(0.068306 0.00574138 0)
(0.0658298 0.00630723 0)
(0.0633344 0.00691217 0)
(0.0609253 0.00755418 0)
(0.0587413 0.00822741 0)
(0.0569361 0.00891978 0)
(0.0556691 0.00961188 0)
(0.0551059 0.0102769 0)
(0.0554528 0.0108757 0)
(0.0570464 0.0113544 0)
(0.0571597 0.0117687 0)
(0 0 0)
(0.0140171 0.000261166 0)
(0.0266063 0.000504755 0)
(0.0374468 0.00073121 0)
(0.0467192 0.000948321 0)
(0.0545821 0.00116197 0)
(0.0611714 0.00137713 0)
(0.0666197 0.0015985 0)
(0.0710412 0.00182952 0)
(0.0745353 0.00207321 0)
(0.0771962 0.0023332 0)
(0.0791104 0.00261298 0)
(0.080356 0.00291546 0)
(0.0810053 0.00324352 0)
(0.0811276 0.00360005 0)
(0.0807898 0.00398787 0)
(0.0800568 0.0044098 0)
(0.0789987 0.00486903 0)
(0.0776879 0.00536827 0)
(0.0761979 0.00590959 0)
(0.0746037 0.00649353 0)
(0.0729868 0.0071189 0)
(0.07144 0.00778384 0)
(0.0700554 0.00848346 0)
(0.0689549 0.0092085 0)
(0.0682932 0.00994331 0)
(0.06821 0.0106635 0)
(0.068825 0.0113373 0)
(0.0702577 0.0119228 0)
(0.0727421 0.0123686 0)
(0.0734963 0.012725 0)
(0 0 0)
(0.0141515 0.000294666 0)
(0.0268652 0.000569223 0)
(0.0378308 0.000824265 0)
(0.0472346 0.00106854 0)
(0.0552386 0.0013085 0)
(0.0619868 0.00154978 0)
(0.0676123 0.00179739 0)
(0.0722297 0.00205509 0)
(0.0759466 0.00232654 0)
(0.0788619 0.00261557 0)
(0.0810643 0.00292563 0)
(0.0826364 0.00325989 0)
(0.0836559 0.00362143 0)
(0.0841977 0.00401326 0)
(0.0843351 0.00443825 0)
(0.0841395 0.00489937 0)
(0.0836854 0.00539981 0)
(0.0830478 0.00594172 0)
(0.0823082 0.00652684 0)
(0.081555 0.00715587 0)
(0.0808763 0.00782709 0)
(0.0803657 0.00853694 0)
(0.0801106 0.00927835 0)
(0.0802021 0.0100393 0)
(0.0807732 0.0108012 0)
(0.0819408 0.0115357 0)
(0.0837621 0.0122071 0)
(0.0862788 0.0127738 0)
(0.0895992 0.0131856 0)
(0.0908823 0.0134964 0)
(0 0 0)
(0.0142933 0.000326503 0)
(0.0271447 0.000630598 0)
(0.0382516 0.000912935 0)
(0.0478022 0.0011829 0)
(0.0559607 0.00144762 0)
(0.0628803 0.00171324 0)
(0.0686963 0.00198488 0)
(0.0735271 0.00226683 0)
(0.0774862 0.00256332 0)
(0.0806761 0.00287815 0)
(0.083189 0.0032148 0)
(0.0851122 0.00357655 0)
(0.0865288 0.00396655 0)
(0.0875197 0.00438786 0)
(0.0881658 0.00484344 0)
(0.0885491 0.00533642 0)
(0.088746 0.00586917 0)
(0.088833 0.00644321 0)
(0.0888975 0.00706036 0)
(0.0890376 0.007721 0)
(0.0893529 0.00842285 0)
(0.0899365 0.00916108 0)
(0.0908747 0.00992726 0)
(0.0922399 0.0107083 0)
(0.0941248 0.0114839 0)
(0.0966011 0.012223 0)
(0.0996618 0.0128875 0)
(0.103256 0.0134371 0)
(0.107366 0.0138237 0)
(0.109168 0.014146 0)
(0 0 0)
(0.0144448 0.000356639 0)
(0.0274476 0.000688771 0)
(0.038705 0.0009968 0)
(0.0484104 0.00129068 0)
(0.0567359 0.00157831 0)
(0.0638391 0.00186631 0)
(0.0698589 0.00215995 0)
(0.0749194 0.0024639 0)
(0.0791375 0.00278263 0)
(0.0826185 0.00311992 0)
(0.0854596 0.00347927 0)
(0.0877528 0.00386395 0)
(0.0895863 0.00427706 0)
(0.0910466 0.00472161 0)
(0.092222 0.00520058 0)
(0.0932031 0.00571678 0)
(0.0940734 0.00627184 0)
(0.0949194 0.00686703 0)
(0.0958281 0.0075036 0)
(0.0968947 0.00818134 0)
(0.098233 0.0088977 0)
(0.0999445 0.00964698 0)
(0.10211 0.0104201 0)
(0.104794 0.0112047 0)
(0.108043 0.0119806 0)
(0.111869 0.0127161 0)
(0.116202 0.013373 0)
(0.120888 0.0139104 0)
(0.125777 0.0142763 0)
(0.128204 0.0145948 0)
(0 0 0)
(0.0146078 0.000385021 0)
(0.0277674 0.000743305 0)
(0.0391818 0.0010752 0)
(0.0490521 0.00139137 0)
(0.0575569 0.00170023 0)
(0.0648564 0.00200873 0)
(0.0710923 0.00232233 0)
(0.0763942 0.00264588 0)
(0.0808831 0.0029839 0)
(0.0846678 0.00334021 0)
(0.0878501 0.00371826 0)
(0.0905262 0.00412119 0)
(0.0927892 0.00455189 0)
(0.0947297 0.00501311 0)
(0.096443 0.00550772 0)
(0.0980268 0.006038 0)
(0.0995737 0.00660513 0)
(0.10118 0.00720978 0)
(0.102939 0.00785209 0)
(0.104942 0.00853135 0)
(0.107304 0.00924498 0)
(0.110139 0.00998677 0)
(0.113527 0.0107476 0)
(0.117529 0.0115166 0)
(0.12215 0.0122764 0)
(0.12735 0.0129991 0)
(0.132997 0.0136486 0)
(0.138824 0.0141816 0)
(0.144505 0.0145305 0)
(0.147577 0.0148266 0)
(0 0 0)
(0.0147735 0.000411309 0)
(0.0280969 0.000793894 0)
(0.0396801 0.00114805 0)
(0.0497267 0.00148494 0)
(0.058419 0.00181324 0)
(0.0659216 0.00214009 0)
(0.0723796 0.00247116 0)
(0.0779293 0.00281154 0)
(0.082696 0.00316576 0)
(0.0867913 0.00353753 0)
(0.0903208 0.00393015 0)
(0.0933852 0.00434654 0)
(0.0960817 0.0047892 0)
(0.0985062 0.00526061 0)
(0.100758 0.00576331 0)
(0.102938 0.00629891 0)
(0.105151 0.00686786 0)
(0.107495 0.00746989 0)
(0.110073 0.00810398 0)
(0.112984 0.00876873 0)
(0.116336 0.00946142 0)
(0.120242 0.0101753 0)
(0.124792 0.0109017 0)
(0.130041 0.0116314 0)
(0.135985 0.0123524 0)
(0.142551 0.0130452 0)
(0.149543 0.0136822 0)
(0.156589 0.0142228 0)
(0.163117 0.0145761 0)
(0.167087 0.0148863 0)
(0 0 0)
(0.0149427 0.000435507 0)
(0.0284386 0.000840612 0)
(0.040199 0.00121534 0)
(0.0504269 0.00157102 0)
(0.0593083 0.00191658 0)
(0.067015 0.00225934 0)
(0.0736992 0.00260533 0)
(0.0795009 0.00295978 0)
(0.0845477 0.00332702 0)
(0.0889546 0.00371063 0)
(0.0928307 0.00411368 0)
(0.0962806 0.00453879 0)
(0.0994058 0.00498806 0)
(0.102309 0.00546349 0)
(0.10509 0.00596691 0)
(0.107849 0.00649925 0)
(0.110698 0.00706009 0)
(0.11374 0.00764794 0)
(0.117081 0.00826049 0)
(0.12083 0.00889508 0)
(0.125087 0.00954806 0)
(0.129961 0.0102124 0)
(0.135547 0.010879 0)
(0.141896 0.0115397 0)
(0.149017 0.0121879 0)
(0.15683 0.012815 0)
(0.165109 0.0134115 0)
(0.173427 0.0139625 0)
(0.180941 0.0143671 0)
(0.186401 0.0148259 0)
(0 0 0)
(0.0151194 0.000457742 0)
(0.0287916 0.000883415 0)
(0.0407298 0.00127667 0)
(0.0511385 0.00164898 0)
(0.0602097 0.00200957 0)
(0.0681235 0.00236608 0)
(0.0750376 0.0027247 0)
(0.0810933 0.00309052 0)
(0.0864193 0.00346769 0)
(0.0911348 0.0038596 0)
(0.0953517 0.00426904 0)
(0.0991778 0.00469826 0)
(0.102718 0.00514897 0)
(0.106079 0.00562246 0)
(0.109363 0.00611952 0)
(0.11267 0.00664037 0)
(0.11611 0.00718384 0)
(0.119792 0.0077469 0)
(0.123816 0.00832571 0)
(0.128292 0.00891578 0)
(0.133323 0.0095117 0)
(0.13901 0.0101055 0)
(0.145432 0.010686 0)
(0.152639 0.0112436 0)
(0.160647 0.0117714 0)
(0.169383 0.0122659 0)
(0.178636 0.0127345 0)
(0.188028 0.0132168 0)
(0.196645 0.0136944 0)
(0.205557 0.0147896 0)
(0 0 0)
(0.0153029 0.000478128 0)
(0.0291517 0.000922389 0)
(0.0412657 0.00133213 0)
(0.051858 0.00171918 0)
(0.0611253 0.00209302 0)
(0.0692509 0.00246136 0)
(0.0763969 0.00283036 0)
(0.0827062 0.00320496 0)
(0.0883096 0.00358908 0)
(0.0933292 0.00398592 0)
(0.0978793 0.0043979 0)
(0.10207 0.00482681 0)
(0.106007 0.00527387 0)
(0.109798 0.00573963 0)
(0.113547 0.00622385 0)
(0.11736 0.0067258 0)
(0.12134 0.00724336 0)
(0.125585 0.00777194 0)
(0.130192 0.00830594 0)
(0.135266 0.00883911 0)
(0.14091 0.00936347 0)
(0.147206 0.00986842 0)
(0.154199 0.0103397 0)
(0.161923 0.0107617 0)
(0.170378 0.0111182 0)
(0.17946 0.0113893 0)
(0.18894 0.0115458 0)
(0.19844 0.0115425 0)
(0.207275 0.0112016 0)
(0.224575 0.0147659 0)
(-7.80626e-17 0 0)
(0.00615178 0 0)
(0.0115678 0 0)
(0.0197264 0 0)
(0.0298102 0 0)
(0.0409493 0 0)
(0.0523755 0 0)
(0.0634988 0 0)
(0.0739042 0 0)
(0.0833137 0 0)
(0.0915655 0 0)
(0.0985855 0 0)
(0.104356 0 0)
(0.108877 0 0)
(0.112167 0 0)
(0.114266 0 0)
(0.11521 0 0)
(0.115018 0 0)
(0.113699 0 0)
(0.111251 0 0)
(0.107666 0 0)
(0.10292 0 0)
(0.0969744 0 0)
(0.0897865 0 0)
(0.0813072 0 0)
(0.071479 0 0)
(0.0602346 0 0)
(0.0474999 0 0)
(0.0332007 0 0)
(0.0172548 0 0)
(0 0 0)
(0.00265315 -0.00298793 0)
(0.00808547 -0.00267509 0)
(0.0134716 -0.00259779 0)
(0.0215564 -0.00246005 0)
(0.0315338 -0.00230069 0)
(0.0425289 -0.00213011 0)
(0.0537889 -0.00195492 0)
(0.0647453 -0.00178059 0)
(0.0749908 -0.00161197 0)
(0.0842497 -0.00145274 0)
(0.092363 -0.00130429 0)
(0.0992588 -0.00116688 0)
(0.10492 -0.00104177 0)
(0.109347 -0.000927574 0)
(0.112557 -0.000824099 0)
(0.114588 -0.000731889 0)
(0.115476 -0.000649413 0)
(0.115238 -0.000575655 0)
(0.113881 -0.000509478 0)
(0.111402 -0.000449393 0)
(0.107792 -0.000394995 0)
(0.103024 -0.00034605 0)
(0.0970594 -0.000301349 0)
(0.089856 -0.000260059 0)
(0.0813638 -0.000221476 0)
(0.0715252 -0.000184767 0)
(0.0602719 -0.000149058 0)
(0.047529 -0.00011355 0)
(0.0332211 -7.74e-05 0)
(0.0172656 -3.96233e-05 0)
(0 0 0)
(0.00872436 -0.00554245 0)
(0.0136093 -0.00509612 0)
(0.018982 -0.00497952 0)
(0.0268964 -0.00474746 0)
(0.0365673 -0.00446181 0)
(0.0471405 -0.00414216 0)
(0.0579317 -0.0038076 0)
(0.0684153 -0.00347454 0)
(0.0781961 -0.00315094 0)
(0.0870093 -0.00284271 0)
(0.0947105 -0.00255435 0)
(0.101241 -0.00228762 0)
(0.106582 -0.0020442 0)
(0.110729 -0.00182201 0)
(0.113701 -0.00161989 0)
(0.115536 -0.00143897 0)
(0.116261 -0.00127753 0)
(0.115888 -0.0011332 0)
(0.11442 -0.00100377 0)
(0.111851 -0.00088683 0)
(0.108163 -0.000780889 0)
(0.10333 -0.000684858 0)
(0.0973118 -0.000596864 0)
(0.0900623 -0.000515405 0)
(0.0815317 -0.000439219 0)
(0.0716622 -0.000366638 0)
(0.060383 -0.000295906 0)
(0.0476154 -0.000225489 0)
(0.0332817 -0.00015374 0)
(0.0172976 -7.87203e-05 0)
(0 0 0)
(0.017802 -0.00749648 0)
(0.0221448 -0.00713666 0)
(0.0275966 -0.00702752 0)
(0.0352999 -0.00675195 0)
(0.0444971 -0.00638024 0)
(0.0544316 -0.0059481 0)
(0.0645207 -0.00548651 0)
(0.074273 -0.00502061 0)
(0.0833117 -0.00456344 0)
(0.0914113 -0.00412382 0)
(0.0984608 -0.0037104 0)
(0.104414 -0.0033284 0)
(0.109244 -0.00297808 0)
(0.112945 -0.0026581 0)
(0.115544 -0.00236775 0)
(0.117068 -0.00210675 0)
(0.117534 -0.00187326 0)
(0.116944 -0.00166404 0)
(0.115297 -0.00147618 0)
(0.112578 -0.00130658 0)
(0.108766 -0.00115255 0)
(0.103829 -0.00101216 0)
(0.0977238 -0.000883011 0)
(0.0903987 -0.000763089 0)
(0.0818042 -0.000650656 0)
(0.0718849 -0.000543387 0)
(0.0605642 -0.000438794 0)
(0.0477563 -0.000334511 0)
(0.0333803 -0.000228141 0)
(0.0173494 -0.000116847 0)
(0 0 0)
(0.0290503 -0.00905301 0)
(0.0331522 -0.00882043 0)
(0.0387533 -0.0087319 0)
(0.0462173 -0.00844155 0)
(0.0548353 -0.00801641 0)
(0.0639932 -0.00750644 0)
(0.0731926 -0.00695073 0)
(0.0819836 -0.00637972 0)
(0.0900451 -0.00581309 0)
(0.0972185 -0.0052654 0)
(0.103427 -0.00474821 0)
(0.108625 -0.00426867 0)
(0.11278 -0.00382681 0)
(0.1159 -0.00342273 0)
(0.118011 -0.00305638 0)
(0.119125 -0.00272601 0)
(0.119247 -0.00242928 0)
(0.118368 -0.00216228 0)
(0.116477 -0.00192138 0)
(0.113557 -0.0017034 0)
(0.109578 -0.00150506 0)
(0.104502 -0.00132369 0)
(0.0982811 -0.00115641 0)
(0.0908565 -0.00100056 0)
(0.0821773 -0.000853709 0)
(0.0721883 -0.000713291 0)
(0.0608099 -0.00057635 0)
(0.0479483 -0.000439674 0)
(0.0335147 -0.000300053 0)
(0.01742 -0.000153727 0)
(0 0 0)
(0.0421947 -0.0104137 0)
(0.0462047 -0.0102182 0)
(0.0519494 -0.0101301 0)
(0.0591331 -0.00982853 0)
(0.0671114 -0.00937069 0)
(0.0753825 -0.00880715 0)
(0.0835257 -0.00818168 0)
(0.0911715 -0.00753104 0)
(0.0980857 -0.00688065 0)
(0.104173 -0.00624913 0)
(0.109385 -0.00565071 0)
(0.11368 -0.00509308 0)
(0.117037 -0.00457767 0)
(0.119474 -0.00410548 0)
(0.121003 -0.00367594 0)
(0.121625 -0.00328722 0)
(0.121331 -0.00293651 0)
(0.120103 -0.00261944 0)
(0.117917 -0.00233185 0)
(0.114751 -0.0020706 0)
(0.110567 -0.00183254 0)
(0.10532 -0.00161425 0)
(0.0989578 -0.00141257 0)
(0.0914157 -0.0012241 0)
(0.0826371 -0.00104567 0)
(0.0725621 -0.000874495 0)
(0.0611087 -0.000707231 0)
(0.0481778 -0.000540054 0)
(0.0336777 -0.000368897 0)
(0.0175096 -0.000189113 0)
(0 0 0)
(0.0571098 -0.0115833 0)
(0.0609701 -0.0113668 0)
(0.0667881 -0.0112592 0)
(0.0736234 -0.0109403 0)
(0.0808879 -0.0104571 0)
(0.08816 -0.00985431 0)
(0.0951077 -0.00917745 0)
(0.101471 -0.008469 0)
(0.10711 -0.00775859 0)
(0.111986 -0.00706599 0)
(0.11608 -0.00640724 0)
(0.119369 -0.00579164 0)
(0.121846 -0.00522154 0)
(0.123526 -0.00469743 0)
(0.124404 -0.0042183 0)
(0.124473 -0.00378278 0)
(0.123709 -0.0033878 0)
(0.122084 -0.00302899 0)
(0.119567 -0.00270236 0)
(0.116122 -0.00240441 0)
(0.111704 -0.0021319 0)
(0.10626 -0.00188112 0)
(0.0997326 -0.00164867 0)
(0.0920548 -0.00143081 0)
(0.0831615 -0.00122393 0)
(0.0729852 -0.00102477 0)
(0.0614411 -0.00082963 0)
(0.0484323 -0.000634186 0)
(0.0338598 -0.000433569 0)
(0.0176062 -0.000222383 0)
(0 0 0)
(0.0734684 -0.012459 0)
(0.0771293 -0.0122814 0)
(0.0829267 -0.012147 0)
(0.0893185 -0.0118047 0)
(0.095759 -0.0112948 0)
(0.10191 -0.0106588 0)
(0.107539 -0.00994373 0)
(0.112506 -0.00919508 0)
(0.116775 -0.00844481 0)
(0.120355 -0.00771264 0)
(0.123258 -0.00701455 0)
(0.125485 -0.00636096 0)
(0.127036 -0.00575441 0)
(0.127911 -0.00519426 0)
(0.128096 -0.00467944 0)
(0.127569 -0.00420872 0)
(0.1263 -0.00377976 0)
(0.124251 -0.00338844 0)
(0.121377 -0.00303071 0)
(0.117631 -0.00270292 0)
(0.112958 -0.00240159 0)
(0.1073 -0.00212306 0)
(0.100591 -0.00186373 0)
(0.0927612 -0.0016198 0)
(0.0837387 -0.0013875 0)
(0.0734474 -0.00116307 0)
(0.0618014 -0.000942475 0)