/*--------------------------------*- C++ -*----------------------------------*\
| =========                 |                                                 |
| \\      /  F ield         | OpenFOAM: The Open Source CFD Toolbox           |
|  \\    /   O peration     | Version:  5.x                                   |
|   \\  /    A nd           | Web:      www.OpenFOAM.org                      |
|    \\/     M anipulation  |                                                 |
\*---------------------------------------------------------------------------*/
FoamFile
{
    version     2.0;
    format      ascii;
    class       volVectorField;
    location    "2.8";
    object      cellDisplacement;
}
// * * * * * * * * * * * * * * * * * * * * * * * * * * * * * * * * * * * * * //

dimensions      [0 1 0 0 0 0 0];

internalField   nonuniform List<vector> 
2790
(
(0.012535 2.12933e-05 0)
(0.0356871 6.15716e-05 0)
(0.0552808 9.80721e-05 0)
(0.0716304 0.000132136 0)
(0.0850875 0.000164814 0)
(0.0959664 0.000197006 0)
(0.10454 0.000229435 0)
(0.111045 0.000262716 0)
(0.115688 0.000297474 0)
(0.118649 0.000334957 0)
(0.120086 0.000374274 0)
(0.120146 0.000416635 0)
(0.118954 0.000462626 0)
(0.11662 0.000512835 0)
(0.113249 0.000567915 0)
(0.108933 0.000628608 0)
(0.10376 0.000695769 0)
(0.0978157 0.000770426 0)
(0.0911832 0.00085382 0)
(0.0839453 0.000947274 0)
(0.0761862 0.00105232 0)
(0.0679948 0.00117082 0)
(0.0594678 0.00130501 0)
(0.0507148 0.00145753 0)
(0.041864 0.0016313 0)
(0.0330717 0.00182947 0)
(0.0245968 0.00206984 0)
(0.0168069 0.00236445 0)
(0.0103223 0.00273863 0)
(0.00662662 0.0031838 0)
(0.0125541 6.39063e-05 0)
(0.0357442 0.000184806 0)
(0.0553755 0.00029439 0)
(0.0717622 0.000396689 0)
(0.0852576 0.000494825 0)
(0.0961778 0.000591515 0)
(0.104796 0.000688929 0)
(0.111352 0.000788891 0)
(0.116052 0.000893048 0)
(0.119073 0.00100278 0)
(0.120578 0.00112007 0)
(0.120715 0.00124663 0)
(0.119609 0.001384 0)
(0.117374 0.00153393 0)
(0.114113 0.00169833 0)
(0.109921 0.0018794 0)
(0.104889 0.00207966 0)
(0.0991031 0.00230214 0)
(0.0926517 0.00255067 0)
(0.0856219 0.00282915 0)
(0.0781036 0.00314219 0)
(0.0701935 0.00349552 0)
(0.0620004 0.00389637 0)
(0.0536525 0.00435406 0)
(0.0453107 0.00488062 0)
(0.0371308 0.00549026 0)
(0.0293867 0.00620076 0)
(0.0225275 0.00704139 0)
(0.0173648 0.00807733 0)
(0.0155899 0.0092433 0)
(0.0125925 0.000106321 0)
(0.0358579 0.000307465 0)
(0.0555636 0.000489788 0)
(0.0720236 0.000660039 0)
(0.0855941 0.000823273 0)
(0.0965964 0.000984086 0)
(0.105305 0.00114607 0)
(0.111959 0.00131223 0)
(0.116768 0.00148509 0)
(0.119911 0.00166619 0)
(0.121556 0.0018607 0)
(0.121849 0.00207047 0)
(0.120917 0.002298 0)
(0.118878 0.00254613 0)
(0.115838 0.00281801 0)
(0.111895 0.00311716 0)
(0.107143 0.00344759 0)
(0.101674 0.00381402 0)
(0.0955831 0.0042232 0)
(0.0889669 0.0046811 0)
(0.0819246 0.00519491 0)
(0.0745657 0.00577361 0)
(0.0670158 0.00642869 0)
(0.0594276 0.00717553 0)
(0.0520207 0.00803819 0)
(0.0450466 0.00903634 0)
(0.0388389 0.0101827 0)
(0.0338571 0.0115081 0)
(0.0309248 0.0130387 0)
(0.0322308 0.0146753 0)
(0.0126495 0.000148184 0)
(0.0360266 0.000428499 0)
(0.0558434 0.000682538 0)
(0.0724124 0.000919844 0)
(0.0860937 0.00114707 0)
(0.0972177 0.00137086 0)
(0.10606 0.00159617 0)
(0.112861 0.00182715 0)
(0.117833 0.00206745 0)
(0.121161 0.0023204 0)
(0.123012 0.00259067 0)
(0.123535 0.00288169 0)
(0.122863 0.00319701 0)
(0.121115 0.00354051 0)
(0.118403 0.00391643 0)
(0.11483 0.00432952 0)
(0.110498 0.004785 0)
(0.105496 0.00528831 0)
(0.0999417 0.0058507 0)
(0.0939421 0.0064789 0)
(0.0876117 0.0071821 0)
(0.0810796 0.00797179 0)
(0.0744985 0.00886254 0)
(0.0680442 0.00987396 0)
(0.0619621 0.0110245 0)
(0.0566047 0.0123366 0)
(0.0525085 0.0138423 0)
(0.0503061 0.015546 0)
(0.0506477 0.0174158 0)
(0.0555998 0.0192293 0)
(0.0127244 0.000189499 0)
(0.0362485 0.000547936 0)
(0.0562142 0.000872674 0)
(0.0729254 0.00117502 0)
(0.086751 0.00146478 0)
(0.0980359 0.00175009 0)
(0.107054 0.00203712 0)
(0.11405 0.00233117 0)
(0.119237 0.00263695 0)
(0.122806 0.00295897 0)
(0.124927 0.00330221 0)
(0.125753 0.00367126 0)
(0.125421 0.00407062 0)
(0.124055 0.00450507 0)
(0.121774 0.0049799 0)
(0.118689 0.00550105 0)
(0.114914 0.00607519 0)
(0.110546 0.00671082 0)
(0.105696 0.00741651 0)
(0.100504 0.00820206 0)
(0.0951024 0.00907823 0)
(0.0896416 0.010058 0)
(0.0843068 0.0111577 0)
(0.0793604 0.0123986 0)
(0.0750646 0.01379 0)
(0.0718096 0.0153552 0)
(0.0701984 0.0171058 0)
(0.0712318 0.0190355 0)
(0.0756544 0.0210683 0)
(0.0844406 0.0228236 0)
(0.012817 0.000230075 0)
(0.0365214 0.000665205 0)
(0.0566559 0.00105909 0)
(0.0735444 0.00142517 0)
(0.0875623 0.00177632 0)
(0.099048 0.00212172 0)
(0.108285 0.00246886 0)
(0.115521 0.00282413 0)
(0.120975 0.00319322 0)
(0.124841 0.00358153 0)
(0.127295 0.00399462 0)
(0.128494 0.00443812 0)
(0.128581 0.00491725 0)
(0.127687 0.00543756 0)
(0.125936 0.00600518 0)
(0.123448 0.00662704 0)
(0.120348 0.00731186 0)
(0.116758 0.00806881 0)
(0.112776 0.00890274 0)
(0.108582 0.00982962 0)
(0.104327 0.0108587 0)
(0.10019 0.0120032 0)
(0.0963873 0.0132804 0)
(0.0932017 0.014703 0)
(0.0910278 0.0162822 0)
(0.0903631 0.0180278 0)
(0.0917205 0.0199238 0)
(0.0962009 0.0219318 0)
(0.10482 0.0239268 0)
(0.117457 0.0254929 0)
(0.0129262 0.000269529 0)
(0.0368427 0.000779202 0)
(0.0571804 0.00124037 0)
(0.0742799 0.00166925 0)
(0.0885218 0.00208012 0)
(0.100245 0.00248378 0)
(0.10974 0.00288899 0)
(0.11726 0.00330316 0)
(0.123029 0.00373284 0)
(0.127246 0.00418414 0)
(0.13009 0.00466315 0)
(0.131728 0.00517671 0)
(0.132308 0.00573039 0)
(0.131968 0.00633031 0)
(0.130841 0.0069832 0)
(0.129051 0.00769619 0)
(0.126746 0.00848025 0)
(0.124059 0.00934258 0)
(0.121116 0.0102934 0)
(0.11809 0.0113442 0)
(0.115171 0.0125035 0)
(0.112566 0.0137845 0)
(0.110575 0.0152026 0)
(0.109478 0.016761 0)
(0.109701 0.0184648 0)
(0.111852 0.0203062 0)
(0.116601 0.0222498 0)
(0.124689 0.0242029 0)
(0.137322 0.0260095 0)
(0.153418 0.0272895 0)
(0.0130508 0.000307698 0)
(0.0372098 0.000889469 0)
(0.057782 0.00141571 0)
(0.075122 0.00190503 0)
(0.0896174 0.00237328 0)
(0.101611 0.00283272 0)
(0.1114 0.00329326 0)
(0.119243 0.00376329 0)
(0.125371 0.0042501 0)
(0.129985 0.00476032 0)
(0.133271 0.00530029 0)
(0.135409 0.00587875 0)
(0.13655 0.00650091 0)
(0.13684 0.00717344 0)
(0.136427 0.00790368 0)
(0.135449 0.00870061 0)
(0.134046 0.0095726 0)
(0.132383 0.0105281 0)
(0.130612 0.0115775 0)
(0.128924 0.0127301 0)
(0.127532 0.0139938 0)
(0.126682 0.0153817 0)
(0.126661 0.0168992 0)
(0.127916 0.0185476 0)
(0.130852 0.0203161 0)
(0.136016 0.0221752 0)
(0.144264 0.0240649 0)
(0.156061 0.0258602 0)
(0.172325 0.0273738 0)
(0.191133 0.0283043 0)
(0.0131897 0.000344429 0)
(0.0376197 0.000995566 0)
(0.0584549 0.00158437 0)
(0.076063 0.00213158 0)
(0.09084 0.00265464 0)
(0.103135 0.00316711 0)
(0.113251 0.00368 0)
(0.121455 0.0042026 0)
(0.12798 0.00474284 0)
(0.133038 0.00530783 0)
(0.136827 0.00590582 0)
(0.139524 0.00654399 0)
(0.141287 0.00722801 0)
(0.142274 0.00796535 0)
(0.142649 0.00876447 0)
(0.142569 0.00963387 0)
(0.142164 0.010579 0)
(0.14164 0.0116112 0)
(0.141167 0.0127406 0)
(0.140947 0.013974 0)
(0.141225 0.0153167 0)
(0.142335 0.0167789 0)
(0.144545 0.0183592 0)
(0.148278 0.0200488 0)
(0.154114 0.0218237 0)
(0.162498 0.0236373 0)
(0.174233 0.0254016 0)
(0.189613 0.0269756 0)
(0.208935 0.0281631 0)
(0.229585 0.0287651 0)
(0.0133423 0.000379741 0)
(0.0380705 0.00109756 0)
(0.059196 0.00174643 0)
(0.0770994 0.00234906 0)
(0.0921856 0.00292437 0)
(0.10481 0.00348712 0)
(0.115285 0.00404931 0)
(0.123885 0.00462109 0)
(0.130848 0.00521093 0)
(0.136392 0.00582675 0)
(0.140728 0.00647733 0)
(0.144028 0.00716838 0)
(0.146467 0.00790679 0)
(0.148207 0.00869976 0)
(0.149435 0.00955698 0)
(0.150313 0.0104847 0)
(0.151005 0.0114916 0)
(0.151712 0.0125862 0)
(0.152642 0.0137757 0)
(0.15402 0.0150648 0)
(0.156129 0.0164605 0)
(0.159273 0.0179643 0)
(0.163889 0.0195692 0)
(0.170316 0.0212564 0)
(0.179125 0.0229908 0)
(0.190878 0.0247131 0)
(0.205966 0.0263143 0)
(0.224618 0.027656 0)
(0.246398 0.0285631 0)
(0.268222 0.0289351 0)
(0.0135075 0.000413491 0)
(0.0385586 0.00119502 0)
(0.0599989 0.00190122 0)
(0.0782218 0.00255654 0)
(0.093642 0.0031813 0)
(0.106623 0.0037913 0)
(0.117485 0.00439938 0)
(0.12651 0.00501666 0)
(0.133942 0.0056518 0)
(0.140006 0.00631297 0)
(0.144911 0.0070082 0)
(0.148856 0.00774555 0)
(0.152019 0.00853079 0)
(0.15458 0.00937237 0)
(0.156716 0.0102775 0)
(0.158614 0.0112526 0)
(0.160463 0.0123056 0)
(0.162473 0.0134429 0)
(0.164885 0.014672 0)
(0.167932 0.0159955 0)
(0.17198 0.0174155 0)
(0.177307 0.0189279 0)
(0.184331 0.0205208 0)
(0.193568 0.0221676 0)
(0.205413 0.0238242 0)
(0.220475 0.0254221 0)
(0.238784 0.0268503 0)
(0.260371 0.0279905 0)
(0.284124 0.0286999 0)
(0.306755 0.0289379 0)
(0.013683 0.000445383 0)
(0.0390775 0.00128707 0)
(0.0608528 0.00204732 0)
(0.0794156 0.00275215 0)
(0.0951905 0.00342312 0)
(0.108548 0.00407689 0)
(0.119818 0.00472699 0)
(0.129296 0.00538578 0)
(0.137225 0.00606163 0)
(0.143835 0.0067628 0)
(0.149357 0.00749856 0)
(0.153983 0.0082758 0)
(0.157908 0.00910079 0)
(0.161329 0.00998121 0)
(0.164405 0.0109218 0)
(0.167369 0.0119305 0)
(0.17042 0.0130143 0)
(0.173774 0.0141781 0)
(0.177733 0.0154262 0)
(0.182531 0.0167593 0)
(0.188502 0.018175 0)
(0.196058 0.0196634 0)
(0.205542 0.021208 0)
(0.217517 0.0227777 0)
(0.232368 0.0243236 0)
(0.250548 0.0257744 0)
(0.271931 0.0270335 0)
(0.296169 0.028012 0)
(0.321546 0.0285978 0)
(0.344828 0.0287451 0)
(0.0138676 0.000475309 0)
(0.0396227 0.00137341 0)
(0.0617505 0.00218427 0)
(0.0806713 0.0029353 0)
(0.0968192 0.00364914 0)
(0.11057 0.00434312 0)
(0.122278 0.00503251 0)
(0.132235 0.00572896 0)
(0.140682 0.00644089 0)
(0.147867 0.00717732 0)
(0.154029 0.00794748 0)
(0.159352 0.00875641 0)
(0.164063 0.00961232 0)
(0.16835 0.0105201 0)
(0.172414 0.0114865 0)
(0.176474 0.0125173 0)
(0.180755 0.0136161 0)
(0.185497 0.0147882 0)
(0.190976 0.0160347 0)
(0.197531 0.0173518 0)
(0.205452 0.0187334 0)
(0.215142 0.020166 0)
(0.227074 0.0216279 0)
(0.241636 0.0230835 0)
(0.259298 0.0244837 0)
(0.280343 0.0257619 0)
(0.304497 0.0268456 0)
(0.331133 0.0276831 0)
(0.357844 0.0281995 0)
(0.381752 0.0282714 0)
(0.0140601 0.000503304 0)
(0.0401919 0.00145416 0)
(0.0626888 0.00231225 0)
(0.0819849 0.00310624 0)
(0.098524 0.00385971 0)
(0.112695 0.00459097 0)
(0.124856 0.00531574 0)
(0.135298 0.00604499 0)
(0.144279 0.00678799 0)
(0.15205 0.00755358 0)
(0.158858 0.00835055 0)
(0.16491 0.00918533 0)
(0.170424 0.0100642 0)
(0.175597 0.0109909 0)
(0.180651 0.0119715 0)
(0.185807 0.0130096 0)
(0.191318 0.0141091 0)
(0.197433 0.0152713 0)
(0.204441 0.0164943 0)
(0.212648 0.017772 0)
(0.222451 0.0190913 0)
(0.234175 0.0204363 0)
(0.248342 0.0217787 0)
(0.265238 0.0230794 0)
(0.285355 0.024292 0)
(0.308785 0.0253549 0)
(0.335188 0.0262217 0)
(0.363721 0.0268807 0)
(0.391538 0.0273324 0)
(0.416386 0.0273263 0)
(0.0142591 0.000529289 0)
(0.04078 0.00152905 0)
(0.0636594 0.00243085 0)
(0.0833452 0.00326445 0)
(0.100289 0.00405409 0)
(0.114889 0.00481868 0)
(0.127505 0.00557371 0)
(0.138446 0.00633149 0)
(0.147972 0.00710062 0)
(0.156352 0.00789089 0)
(0.163826 0.00870985 0)
(0.17061 0.00956307 0)
(0.176925 0.0104558 0)
(0.182979 0.0113911 0)
(0.189016 0.0123748 0)
(0.19525 0.0134088 0)
(0.201966 0.0144937 0)
(0.20939 0.0156285 0)
(0.217865 0.016808 0)
(0.227639 0.0180217 0)
(0.239137 0.019253 0)
(0.252698 0.0204797 0)
(0.268754 0.0216668 0)
(0.28759 0.0227701 0)
(0.309589 0.0237384 0)
(0.334577 0.0245136 0)
(0.362251 0.0250458 0)
(0.39153 0.0253365 0)
(0.419675 0.0254945 0)
(0.446198 0.0251598 0)
(0.011176 -0.00305009 0)
(0.0243642 -0.00336258 0)
(0.0495738 -0.00342924 0)
(0.0844453 -0.00331169 0)
(0.12373 -0.00307581 0)
(0.162169 -0.00278227 0)
(0.1965 -0.00246949 0)
(0.225455 -0.00218355 0)
(0.248882 -0.00192438 0)
(0.267291 -0.00169162 0)
(0.281319 -0.00149606 0)
(0.29147 -0.00131722 0)
(0.298203 -0.00116742 0)
(0.301861 -0.0010302 0)
(0.302722 -0.000914986 0)
(0.300971 -0.000811372 0)
(0.29675 -0.000718051 0)
(0.290141 -0.000636156 0)
(0.281188 -0.000560801 0)
(0.26992 -0.000496199 0)
(0.256283 -0.000436447 0)
(0.24027 -0.00038029 0)
(0.221865 -0.000330682 0)
(0.200943 -0.000283437 0)
(0.177475 -0.000237781 0)
(0.151433 -0.000195193 0)
(0.122683 -0.000153165 0)
(0.0911058 -0.000111041 0)
(0.0567408 -6.78425e-05 0)
(0.019451 -2.30682e-05 0)
(0.0195477 -0.0089936 0)
(0.0341821 -0.009787 0)
(0.0597987 -0.00986333 0)
(0.0941753 -0.00948584 0)
(0.132333 -0.00880016 0)
(0.169405 -0.00797195 0)
(0.202476 -0.00711164 0)
(0.230353 -0.00630696 0)
(0.252854 -0.00557518 0)
(0.270534 -0.00492364 0)
(0.283957 -0.00435761 0)
(0.293611 -0.00385159 0)
(0.299946 -0.00341379 0)
(0.30328 -0.00302224 0)
(0.303884 -0.00268247 0)
(0.301929 -0.00238135 0)
(0.297539 -0.00210915 0)
(0.290805 -0.0018717 0)
(0.281739 -0.00165479 0)
(0.270376 -0.0014625 0)
(0.25669 -0.00128751 0)
(0.240611 -0.00112475 0)
(0.222144 -0.000976738 0)
(0.201213 -0.00083772 0)
(0.177699 -0.000704464 0)
(0.1516 -0.000577265 0)
(0.12283 -0.000453035 0)
(0.0912527 -0.000328676 0)
(0.0568559 -0.000201337 0)
(0.0194862 -6.84932e-05 0)
(0.0354059 -0.0143461 0)
(0.052385 -0.0153585 0)
(0.0785299 -0.0153306 0)
(0.112058 -0.0146744 0)
(0.148232 -0.0136172 0)
(0.182935 -0.0123769 0)
(0.213752 -0.0111119 0)
(0.239607 -0.00990487 0)
(0.2604 -0.0087949 0)
(0.276705 -0.00781082 0)
(0.288968 -0.00693154 0)
(0.297691 -0.00615354 0)
(0.303263 -0.00546391 0)
(0.305989 -0.00485443 0)
(0.306094 -0.00431209 0)
(0.303753 -0.00383645 0)
(0.299044 -0.00340665 0)
(0.292052 -0.00302613 0)
(0.282788 -0.00268278 0)
(0.271253 -0.00237077 0)
(0.257437 -0.00208982 0)
(0.241254 -0.00182996 0)
(0.222691 -0.00158848 0)
(0.201688 -0.00136348 0)
(0.178125 -0.00114927 0)
(0.151956 -0.00094231 0)
(0.123105 -0.000739928 0)
(0.0914724 -0.000537233 0)
(0.0570086 -0.000329734 0)
(0.0195404 -0.000112257 0)
(0.0579884 -0.0189149 0)
(0.0772643 -0.019853 0)
(0.103914 -0.0196842 0)
(0.136172 -0.0187906 0)
(0.169788 -0.0174752 0)
(0.201461 -0.0159593 0)
(0.229311 -0.0144155 0)
(0.252446 -0.0129271 0)
(0.270953 -0.0115446 0)
(0.285338 -0.0102985 0)
(0.295992 -0.00917529 0)
(0.303425 -0.00817881 0)
(0.307933 -0.007285 0)
(0.309811 -0.00649454 0)
(0.30923 -0.00578587 0)
(0.306334 -0.00515799 0)
(0.301186 -0.00459424 0)
(0.293827 -0.00408559 0)
(0.284284 -0.00362981 0)
(0.272507 -0.00321312 0)
(0.258489 -0.00283445 0)
(0.242172 -0.0024862 0)
(0.223479 -0.00216133 0)
(0.202349 -0.00185741 0)
(0.178689 -0.00156803 0)
(0.152426 -0.00128797 0)
(0.123479 -0.00101244 0)
(0.0917585 -0.000735727 0)
(0.0571974 -0.000451983 0)
(0.019608 -0.000153956 0)
(0.0861541 -0.0225848 0)
(0.107269 -0.0232834 0)
(0.134118 -0.0229431 0)
(0.164704 -0.0218801 0)
(0.195394 -0.0204146 0)
(0.223628 -0.0187406 0)
(0.24805 -0.0170287 0)
(0.268012 -0.0153625 0)
(0.283817 -0.0138044 0)
(0.29587 -0.0123724 0)
(0.30462 -0.0110742 0)
(0.31048 -0.00991052 0)
(0.313709 -0.0088631 0)
(0.314541 -0.0079256 0)
(0.313131 -0.0070877 0)
(0.309544 -0.00633257 0)
(0.303856 -0.00565631 0)
(0.296049 -0.00504179 0)
(0.286138 -0.00448671 0)
(0.274085 -0.00398136 0)
(0.259825 -0.00351748 0)
(0.243303 -0.00309042 0)
(0.224441 -0.00269229 0)
(0.20316 -0.00231744 0)
(0.179372 -0.00195933 0)
(0.152991 -0.00161168 0)
(0.123929 -0.00126829 0)
(0.0920964 -0.000922454 0)
(0.0574154 -0.0005671 0)
(0.0196855 -0.000193245 0)
(0.118658 -0.0253343 0)
(0.140924 -0.0257217 0)
(0.167536 -0.0252224 0)
(0.196127 -0.0240673 0)
(0.223658 -0.0225387 0)
(0.24823 -0.020797 0)
(0.2689 -0.0189983 0)
(0.285395 -0.0172352 0)
(0.298228 -0.0155742 0)
(0.307723 -0.0140289 0)
(0.314389 -0.0126223 0)
(0.318485 -0.0113425 0)
(0.320305 -0.0101902 0)
(0.319967 -0.0091451 0)
(0.317607 -0.00820539 0)
(0.313248 -0.00735404 0)
(0.306928 -0.00658494 0)
(0.298628 -0.00588714 0)
(0.288301 -0.00525058 0)
(0.275905 -0.00466974 0)
(0.261365 -0.00413552 0)
(0.244605 -0.00364085 0)
(0.225542 -0.00317807 0)
(0.204088 -0.00274028 0)
(0.180147 -0.00232035 0)
(0.153627 -0.00191121 0)
(0.124435 -0.00150564 0)
(0.092472 -0.00109602 0)
(0.0576547 -0.000674238 0)
(0.0197699 -0.000229832 0)
(0.15425 -0.0271687 0)
(0.176958 -0.0272875 0)
(0.202903 -0.0266876 0)
(0.229232 -0.0255069 0)
(0.253404 -0.0239685 0)
(0.274121 -0.022216 0)
(0.290844 -0.0203917 0)
(0.303783 -0.0185941 0)
(0.313495 -0.0168867 0)
(0.320356 -0.0152908 0)
(0.324817 -0.0138246 0)
(0.327089 -0.0124815 0)
(0.327407 -0.0112609 0)
(0.325847 -0.0101495 0)
(0.322466 -0.00913725 0)
(0.317297 -0.00821847 0)
(0.310303 -0.00738059 0)
(0.301454 -0.00661749 0)
(0.290679 -0.00591925 0)
(0.277908 -0.00527815 0)
(0.263056 -0.00468578 0)
(0.246034 -0.00413436 0)
(0.226747 -0.00361612 0)
(0.205098 -0.00312351 0)
(0.180988 -0.00264896 0)
(0.154314 -0.00218477 0)
(0.124977 -0.00172303 0)
(0.0928721 -0.00125534 0)
(0.0579071 -0.000772713 0)
(0.0198583 -0.00026348 0)
(0.191672 -0.0281941 0)
(0.214356 -0.0281615 0)
(0.239274 -0.0275257 0)
(0.263043 -0.0263519 0)
(0.283588 -0.024823 0)
(0.300246 -0.0230819 0)
(0.31298 -0.0212703 0)
(0.322376 -0.0194862 0)
(0.328955 -0.0177806 0)
(0.333217 -0.0161837 0)
(0.335466 -0.0147029 0)
(0.335929 -0.0133397 0)
(0.334722 -0.0120867 0)
(0.33193 -0.0109402 0)
(0.327536 -0.00988782 0)
(0.321534 -0.00892566 0)
(0.31386 -0.00804415 0)
(0.304443 -0.00723574 0)
(0.293197 -0.006492 0)
(0.28003 -0.00580499 0)
(0.264846 -0.00516667 0)
(0.247542 -0.00456919 0)
(0.228016 -0.00400473 0)
(0.206159 -0.00346551 0)
(0.181867 -0.00294365 0)
(0.155029 -0.00243108 0)
(0.125538 -0.00191939 0)
(0.0932837 -0.00139957 0)
(0.058165 -0.000862001 0)
(0.0199481 -0.000294008 0)
(0.229929 -0.0286805 0)
(0.252404 -0.0285728 0)
(0.275934 -0.0279139 0)
(0.29671 -0.0267308 0)
(0.313282 -0.0251982 0)
(0.325729 -0.0234736 0)
(0.3345 -0.0216979 0)
(0.34042 -0.0199582 0)
(0.344 -0.0182958 0)
(0.345769 -0.016736 0)
(0.345916 -0.0152811 0)
(0.344645 -0.0139329 0)
(0.342005 -0.0126832 0)
(0.338027 -0.0115298 0)
(0.332661 -0.0104652 0)
(0.325846 -0.009484 0)
(0.317492 -0.0085791 0)
(0.307505 -0.00774348 0)
(0.295779 -0.0069697 0)
(0.282209 -0.00625035 0)
(0.266682 -0.00557787 0)
(0.249088 -0.00494467 0)
(0.229312 -0.0043431 0)
(0.20724 -0.00376537 0)
(0.182758 -0.00320354 0)
(0.155751 -0.00264932 0)
(0.126102 -0.00209399 0)
(0.0936946 -0.00152816 0)
(0.0584209 -0.000941741 0)
(0.0200368 -0.000321288 0)
(0.268554 -0.0288801 0)
(0.290655 -0.0287001 0)
(0.312247 -0.0279706 0)
(0.329389 -0.0267225 0)
(0.341618 -0.025157 0)
(0.349769 -0.0234483 0)
(0.3547 -0.0217282 0)
(0.35734 -0.0200626 0)
(0.35817 -0.0184774 0)
(0.35761 -0.0169862 0)
(0.355852 -0.0155908 0)
(0.353002 -0.0142858 0)
(0.349062 -0.0130679 0)
(0.34399 -0.0119341 0)
(0.337706 -0.01088 0)
(0.330113 -0.00990071 0)
(0.321102 -0.00899078 0)
(0.310557 -0.00814425 0)
(0.298358 -0.00735477 0)
(0.284385 -0.00661571 0)
(0.268515 -0.00592019 0)
(0.250628 -0.00526113 0)
(0.2306 -0.00463122 0)
(0.208311 -0.00402289 0)
(0.183638 -0.00342829 0)
(0.156459 -0.0028391 0)
(0.126652 -0.00224647 0)
(0.0940935 -0.00164081 0)
(0.0586678 -0.00101172 0)
(0.0201219 -0.000345245 0)
(0.307372 -0.0288998 0)
(0.328735 -0.0286137 0)
(0.347441 -0.0277286 0)
(0.360135 -0.0263469 0)
(0.367726 -0.0247255 0)
(0.371614 -0.0230443 0)
(0.372976 -0.0214055 0)
(0.372611 -0.0198432 0)
(0.371032 -0.0183679 0)
(0.368461 -0.0169742 0)
(0.36506 -0.0156606 0)
(0.360837 -0.0144236 0)
(0.355738 -0.0132602 0)
(0.349679 -0.0121681 0)
(0.342551 -0.0111441 0)
(0.334234 -0.0101848 0)
(0.324602 -0.00928604 0)
(0.313524 -0.00844312 0)
(0.300869 -0.00765088 0)
(0.286504 -0.00690366 0)
(0.270299 -0.00619542 0)
(0.252124 -0.00551974 0)
(0.231848 -0.00486982 0)
(0.209344 -0.00423847 0)
(0.184482 -0.00361807 0)
(0.157135 -0.00300045 0)
(0.127174 -0.00237679 0)
(0.0944699 -0.00173743 0)
(0.0588992 -0.00107188 0)
(0.0202013 -0.000365856 0)
(0.346326 -0.0287611 0)
(0.366065 -0.0283057 0)
(0.380379 -0.0271447 0)
(0.387778 -0.0255741 0)
(0.390618 -0.0239069 0)
(0.390521 -0.0222911 0)
(0.388765 -0.0207724 0)
(0.385911 -0.0193461 0)
(0.382336 -0.0180007 0)
(0.378155 -0.0167263 0)
(0.373396 -0.015517 0)
(0.368011 -0.0143691 0)
(0.36191 -0.0132798 0)
(0.354981 -0.0122476 0)
(0.347096 -0.0112706 0)
(0.338121 -0.0103466 0)
(0.327917 -0.00947291 0)
(0.316342 -0.00864629 0)
(0.303256 -0.00786276 0)
(0.288519 -0.00711776 0)
(0.271992 -0.00640619 0)
(0.25354 -0.0057224 0)
(0.233025 -0.00506024 0)
(0.210313 -0.00441302 0)
(0.18527 -0.0037735 0)
(0.157762 -0.00313376 0)
(0.127656 -0.00248517 0)
(0.094814 -0.00181816 0)
(0.0591095 -0.00112228 0)
(0.0202731 -0.00038314 0)
(0.385234 -0.0284784 0)
(0.401327 -0.0276866 0)
(0.409329 -0.0260998 0)
(0.410943 -0.0243445 0)
(0.409353 -0.0226993 0)
(0.406039 -0.0212112 0)
(0.401852 -0.0198529 0)
(0.397145 -0.0185915 0)
(0.392062 -0.0174025 0)
(0.386619 -0.0162701 0)
(0.380771 -0.0151857 0)
(0.374431 -0.0141451 0)
(0.367487 -0.0131464 0)
(0.359811 -0.0121892 0)
(0.351265 -0.0112729 0)
(0.341704 -0.010397 0)
(0.330982 -0.00956026 0)
(0.318953 -0.00876079 0)
(0.305469 -0.00799593 0)
(0.290385 -0.00726229 0)
(0.273558 -0.00655577 0)
(0.254844 -0.00587161 0)
(0.234103 -0.00520436 0)
(0.211195 -0.00454795 0)
(0.185982 -0.0038956 0)
(0.158325 -0.00323977 0)
(0.128083 -0.00257213 0)
(0.0951174 -0.00188333 0)
(0.0592932 -0.00116312 0)
(0.0203354 -0.000397158 0)
(0.422928 -0.0280025 0)
(0.431548 -0.0264643 0)
(0.431965 -0.024372 0)
(0.428624 -0.0225537 0)
(0.423722 -0.0210543 0)
(0.418191 -0.0197818 0)
(0.412374 -0.0186493 0)
(0.406379 -0.0175995 0)
(0.400213 -0.0165999 0)
(0.393827 -0.0156335 0)
(0.387139 -0.0146925 0)
(0.38004 -0.0137746 0)
(0.372408 -0.0128799 0)
(0.364108 -0.0120096 0)
(0.354996 -0.0111652 0)
(0.344926 -0.0103477 0)
(0.333748 -0.0095575 0)
(0.321312 -0.00879421 0)
(0.307469 -0.00805648 0)
(0.292068 -0.00734209 0)
(0.274963 -0.00664801 0)
(0.256009 -0.00597036 0)
(0.235059 -0.00530452 0)
(0.211971 -0.00464504 0)
(0.186602 -0.00398571 0)
(0.158808 -0.00331948 0)
(0.128447 -0.00263838 0)
(0.0953724 -0.00193342 0)
(0.0594459 -0.00119467 0)
(0.0203867 -0.000408007 0)
(0.453513 -0.0267459 0)
(0.453433 -0.023637 0)
(0.44742 -0.0213461 0)
(0.440805 -0.0199042 0)
(0.434058 -0.0188607 0)
(0.427291 -0.0179878 0)
(0.420522 -0.0171833 0)
(0.413723 -0.0164024 0)
(0.40684 -0.0156259 0)
(0.399795 -0.0148469 0)
(0.39249 -0.0140645 0)
(0.384812 -0.013281 0)
(0.376637 -0.0125001 0)
(0.367829 -0.0117257 0)
(0.358248 -0.0109614 0)
(0.347745 -0.0102103 0)
(0.336174 -0.00947429 0)
(0.323382 -0.00875447 0)
(0.309219 -0.00805083 0)
(0.293536 -0.00736237 0)
(0.276182 -0.00668706 0)
(0.25701 -0.006022 0)
(0.235872 -0.00536333 0)
(0.212622 -0.00470635 0)
(0.187114 -0.00404545 0)
(0.159202 -0.00337411 0)
(0.128738 -0.00268484 0)
(0.0955724 -0.00196908 0)
(0.0595637 -0.00121731 0)
(0.0204259 -0.000415816 0)
(0.0144662 0.000553521 0)
(0.0413903 0.00159878 0)
(0.064668 0.00254117 0)
(0.0847613 0.00341144 0)
(0.102127 0.00423421 0)
(0.117169 0.00502871 0)
(0.130266 0.00581135 0)
(0.141729 0.00659408 0)
(0.151824 0.00738558 0)
(0.160825 0.00819524 0)
(0.168971 0.00902914 0)
(0.176495 0.00989359 0)
(0.183621 0.0107927 0)
(0.190557 0.0117282 0)
(0.197576 0.0127039 0)
(0.204878 0.0137204 0)
(0.21275 0.014776 0)
(0.221449 0.0158665 0)
(0.231264 0.0169822 0)
(0.242496 0.0181091 0)
(0.255486 0.0192256 0)
(0.270581 0.0203029 0)
(0.288111 0.0212988 0)
(0.308295 0.0221611 0)
(0.331299 0.0228224 0)
(0.356725 0.0232053 0)
(0.384123 0.0231906 0)
(0.411996 0.0225776 0)
(0.437831 0.0209259 0)
(0.460676 0.0167228 0)
(0.0146834 0.000576085 0)
(0.0420261 0.0016635 0)
(0.0657239 0.00264386 0)
(0.0862482 0.00354815 0)
(0.104056 0.00440118 0)
(0.119573 0.00522312 0)
(0.13317 0.00602983 0)
(0.145161 0.00683272 0)
(0.155836 0.00764156 0)
(0.165477 0.0084653 0)
(0.174318 0.00930923 0)
(0.182591 0.0101778 0)
(0.190524 0.0110738 0)
(0.198349 0.012 0)
(0.206324 0.0129573 0)
(0.214688 0.0139438 0)
(0.223654 0.0149549 0)
(0.233544 0.0159831 0)
(0.244559 0.0170154 0)
(0.257056 0.0180326 0)
(0.271243 0.0190099 0)
(0.287477 0.0199105 0)
(0.305933 0.0206854 0)
(0.326692 0.0212731 0)
(0.349643 0.0215939 0)
(0.37419 0.0215459 0)
(0.399484 0.0209822 0)
(0.423568 0.0197276 0)
(0.444305 0.0175281 0)
(0.46055 0.0139941 0)
(0.0149106 0.000596789 0)
(0.0427059 0.00172342 0)
(0.0668365 0.00273824 0)
(0.0877868 0.00367238 0)
(0.10605 0.00455214 0)
(0.122051 0.00539772 0)
(0.136149 0.0062237 0)
(0.148691 0.00704313 0)
(0.159966 0.00786533 0)
(0.170251 0.00869776 0)
(0.179773 0.00954391 0)
(0.188781 0.0104091 0)
(0.197519 0.0112952 0)
(0.206225 0.0122031 0)
(0.21511 0.0131316 0)
(0.224439 0.0140751 0)
(0.234412 0.0150281 0)
(0.245333 0.0159788 0)
(0.257373 0.0169115 0)
(0.270848 0.017802 0)
(0.28589 0.0186216 0)
(0.302792 0.0193304 0)
(0.321546 0.0198732 0)
(0.342069 0.0201846 0)
(0.363984 0.0201862 0)
(0.386502 0.0197841 0)
(0.408465 0.0188762 0)
(0.428263 0.0173745 0)
(0.444768 0.0151101 0)
(0.457039 0.0119054 0)
(0.0151441 0.000615349 0)
(0.0433997 0.00177692 0)
(0.0679704 0.00282205 0)
(0.0893555 0.00378222 0)
(0.10809 0.00468538 0)
(0.12459 0.0055509 0)
(0.139208 0.0063928 0)
(0.152303 0.00722415 0)
(0.164174 0.00805395 0)
(0.175089 0.00888895 0)
(0.185289 0.00973187 0)
(0.195035 0.0105871 0)
(0.20454 0.0114556 0)
(0.214055 0.012335 0)
(0.223779 0.0132235 0)
(0.233968 0.014114 0)
(0.244826 0.0149972 0)
(0.256584 0.0158589 0)
(0.269427 0.01668 0)
(0.283554 0.0174341 0)
(0.29908 0.0180883 0)
(0.316141 0.0186029 0)
(0.33458 0.0189242 0)
(0.354155 0.0189906 0)
(0.374292 0.0187431 0)
(0.39416 0.0181134 0)
(0.412781 0.0170441 0)
(0.429174 0.0154674 0)
(0.44257 0.0132916 0)
(0.452313 0.0104872 0)
(0.0153812 0.000631528 0)
(0.0441031 0.00182346 0)
(0.0691226 0.00289482 0)
(0.0909679 0.0038779 0)
(0.110181 0.00480064 0)
(0.127166 0.0056811 0)
(0.14231 0.0065347 0)
(0.155964 0.00737385 0)
(0.168422 0.0082059 0)
(0.179954 0.00903746 0)
(0.190823 0.00987194 0)
(0.201255 0.0107095 0)
(0.211474 0.0115517 0)
(0.221726 0.0123952 0)
(0.232214 0.0132354 0)
(0.243147 0.0140635 0)
(0.254724 0.0148679 0)
(0.267121 0.0156323 0)
(0.280495 0.0163354 0)
(0.294959 0.0169504 0)
(0.31056 0.0174432 0)
(0.32731 0.0177763 0)
(0.344918 0.0179066 0)
(0.363024 0.0177826 0)
(0.381058 0.0173648 0)
(0.398355 0.0166068 0)
(0.414198 0.0154706 0)
(0.427967 0.0139118 0)
(0.439084 0.0119146 0)
(0.44715 0.0095019 0)
(0.015619 0.00064512 0)
(0.0448104 0.00186257 0)
(0.0702797 0.00295562 0)
(0.0925877 0.00395736 0)
(0.112284 0.00489554 0)
(0.129776 0.00578788 0)
(0.145434 0.00664828 0)
(0.159628 0.00748976 0)
(0.172664 0.0083195 0)
(0.184804 0.00914239 0)
(0.196292 0.00996147 0)
(0.207355 0.0107754 0)
(0.218241 0.0115849 0)
(0.22915 0.0123853 0)
(0.240287 0.0131699 0)
(0.251824 0.0139288 0)
(0.26394 0.0146485 0)
(0.276757 0.0153118 0)
(0.290388 0.0158969 0)
(0.304872 0.016378 0)
(0.320192 0.0167233 0)
(0.33622 0.0169014 0)
(0.352636 0.0168793 0)
(0.369095 0.0166195 0)
(0.38512 0.0160915 0)
(0.400191 0.0152672 0)
(0.413807 0.0141231 0)
(0.425505 0.012646 0)
(0.434914 0.010858 0)
(0.441827 0.00879049 0)
(0.015855 0.000655928 0)
(0.0455176 0.00189384 0)
(0.0714592 0.00300492 0)
(0.0942176 0.00402037 0)
(0.114381 0.00496905 0)
(0.132381 0.00586917 0)
(0.148544 0.00673205 0)
(0.163274 0.00757146 0)
(0.176866 0.00839402 0)
(0.189561 0.00920238 0)
(0.201626 0.00999978 0)
(0.213273 0.0107851 0)
(0.224749 0.0115559 0)
(0.236212 0.0123076 0)
(0.247877 0.0130313 0)
(0.259859 0.0137172 0)
(0.27233 0.0143499 0)
(0.285342 0.0149131 0)
(0.298972 0.0153853 0)
(0.313193 0.0157448 0)
(0.32792 0.0159636 0)
(0.34298 0.0160174 0)
(0.358106 0.0158795 0)
(0.372973 0.0155244 0)
(0.387201 0.0149317 0)
(0.400399 0.0140852 0)
(0.412203 0.0129749 0)
(0.42227 0.0116132 0)
(0.430376 0.0100267 0)
(0.436437 0.0082521 0)
(0.0160854 0.000663749 0)
(0.0462164 0.00191679 0)
(0.0726273 0.00304102 0)
(0.0958387 0.00406596 0)
(0.11647 0.00502095 0)
(0.134958 0.00592394 0)
(0.151616 0.00678504 0)
(0.166855 0.00761755 0)
(0.180957 0.0084272 0)
(0.19418 0.009217 0)
(0.206776 0.00998802 0)
(0.218943 0.0107393 0)
(0.230912 0.0114669 0)
(0.242828 0.0121655 0)
(0.254878 0.0128255 0)
(0.267157 0.0134365 0)
(0.279787 0.0139844 0)
(0.292778 0.0144528 0)
(0.30617 0.0148228 0)
(0.319898 0.0150762 0)
(0.333864 0.0151907 0)
(0.347894 0.0151465 0)
(0.36175 0.0149242 0)
(0.375157 0.0145072 0)
(0.387818 0.0138836 0)
(0.399452 0.013044 0)
(0.409764 0.0119956 0)
(0.418522 0.0107586 0)
(0.425617 0.00935615 0)
(0.431012 0.00782552 0)
(0.0163041 0.000668311 0)
(0.0468958 0.00193087 0)
(0.0737733 0.00306337 0)
(0.0974356 0.00409337 0)
(0.118524 0.00505014 0)
(0.137475 0.00595119 0)
(0.154609 0.00680632 0)
(0.17033 0.00762737 0)
(0.184907 0.00842004 0)
(0.198621 0.00918659 0)
(0.211674 0.009927 0)
(0.224285 0.0106399 0)
(0.236644 0.0113211 0)
(0.248906 0.0119637 0)
(0.261197 0.0125601 0)
(0.273606 0.0130976 0)
(0.286195 0.0135649 0)
(0.298989 0.0139471 0)
(0.311983 0.0142281 0)
(0.325108 0.0143919 0)
(0.338254 0.0144219 0)
(0.35126 0.0143031 0)
(0.363923 0.0140223 0)
(0.376023 0.0135698 0)
(0.387346 0.0129373 0)
(0.397652 0.012128 0)
(0.40672 0.011157 0)
(0.414425 0.0100403 0)
(0.420708 0.00880122 0)
(0.425558 0.00747332 0)
(0.0165417 0.000670836 0)
(0.0475819 0.00193713 0)
(0.0748864 0.00307153 0)
(0.0989881 0.0041019 0)
(0.120517 0.00505577 0)
(0.139899 0.00594996 0)
(0.157497 0.00679524 0)
(0.173658 0.00760057 0)
(0.18867 0.00837217 0)
(0.202811 0.00911206 0)
(0.216243 0.00981817 0)
(0.229207 0.0104898 0)
(0.24186 0.011123 0)
(0.254328 0.0117097 0)
(0.266715 0.0122429 0)
(0.279101 0.0127117 0)
(0.291531 0.0131052 0)
(0.304014 0.0134106 0)
(0.316525 0.0136147 0)
(0.328993 0.0137048 0)
(0.341311 0.0136685 0)
(0.353338 0.0134953 0)
(0.36491 0.0131772 0)
(0.375872 0.0127066 0)
(0.386031 0.0120848 0)
(0.395192 0.0113224 0)
(0.403232 0.0104307 0)
(0.410073 0.00942622 0)
(0.415685 0.00833035 0)
(0.420072 0.00717169 0)
(0.0167594 0.000669725 0)
(0.0482295 0.00193376 0)
(0.0759466 0.0030648 0)
(0.100481 0.00409093 0)
(0.122425 0.00503737 0)
(0.142224 0.00592069 0)
(0.160248 0.00675174 0)
(0.176792 0.00753719 0)
(0.192187 0.00828368 0)
(0.206671 0.00899334 0)
(0.220415 0.00966361 0)
(0.233631 0.0102926 0)
(0.246457 0.0108769 0)