/*--------------------------------*- C++ -*----------------------------------*\
| =========                 |                                                 |
| \\      /  F ield         | OpenFOAM: The Open Source CFD Toolbox           |
|  \\    /   O peration     | Version:  4.1                                   |
|   \\  /    A nd           | Web:      www.OpenFOAM.org                      |
|    \\/     M anipulation  |                                                 |
\*---------------------------------------------------------------------------*/
FoamFile
{
    version     2.0;
    format      ascii;
    class       surfaceVectorField;
    location    "4.5";
    object      Uf;
}
// * * * * * * * * * * * * * * * * * * * * * * * * * * * * * * * * * * * * * //

dimensions      [0 1 -1 0 0 0 0];

internalField   nonuniform List<vector> 
5457
(
(9.91609 0.024689 0)
(9.96459 0.038362 -2.98475e-20)
(9.81651 0.0317695 0)
(9.9241 0.0468838 3.03355e-20)
(9.70105 0.0377125 -1.62917e-20)
(9.85292 0.0560799 0)
(9.56731 0.0439114 -1.58051e-20)
(9.75532 0.0669981 -2.05834e-22)
(9.41531 0.0503487 -1.73333e-20)
(9.63789 0.0785019 -6.5012e-20)
(9.24529 0.0570549 -1.68813e-20)
(9.50246 0.0904988 1.61583e-20)
(9.05711 0.0641647 -1.84943e-20)
(9.34847 0.103219 1.70933e-20)
(8.85027 0.0718186 -3.70143e-20)
(9.1751 0.116888 -4.96602e-22)
(8.62402 0.0801406 1.28637e-21)
(8.9817 0.131699 -5.87379e-22)
(8.37747 0.0892473 4.02012e-20)
(8.76752 0.147828 6.88401e-22)
(8.10956 0.0992577 -2.25325e-20)
(8.53165 0.165445 -1.56299e-19)
(7.81912 0.110295 -1.09873e-19)
(8.27298 0.184727 2.82777e-19)
(7.50489 0.122482 -6.75806e-20)
(7.99028 0.205842 -2.56415e-19)
(7.1656 0.13594 9.73974e-20)
(7.68231 0.228942 -1.26755e-21)
(6.79998 0.15078 9.58399e-20)
(7.34775 0.254154 9.72508e-20)
(6.40688 0.167088 0)
(6.98532 0.28155 0)
(5.98537 0.184911 -2.3641e-19)
(6.5939 0.311121 -3.07358e-19)
(5.53491 0.204233 1.82194e-20)
(6.17262 0.342731 2.97751e-19)
(5.05551 0.224949 2.40865e-19)
(5.72105 0.37607 2.44426e-19)
(4.54796 0.246835 -5.74942e-19)
(5.23935 0.41061 0)
(4.01408 0.269501 5.17943e-20)
(4.72855 0.445534 -5.66838e-19)
(3.45697 0.292351 5.93646e-19)
(4.19078 0.479667 -4.86458e-19)
(2.88133 0.314535 -1.79692e-19)
(3.62955 0.511412 -8.8686e-19)
(2.29363 0.334959 -5.65675e-19)
(3.05008 0.538724 4.94505e-18)
(1.7022 0.3526 -3.80901e-19)
(2.45968 0.559175 -3.2849e-20)
(1.11664 0.368495 1.39641e-18)
(1.86798 0.570563 1.54811e-20)
(0.54335 0.361625 -6.46423e-19)
(1.29122 0.574257 -1.34221e-18)
(-0.0046942 0.0644373 -6.22866e-18)
(0.726037 0.555153 5.56581e-18)
(-0.196203 -0.275971 3.65735e-19)
(0.217081 0.189409 -1.25845e-17)
(0.134482 -0.193617 4.37972e-18)
(9.99763 0.0502038 1.35715e-21)
(9.99245 0.0394483 7.44489e-21)
(9.96072 0.067748 2.98687e-20)
(9.97801 0.0642683 -2.26817e-20)
(9.90176 0.0834095 1.60804e-20)
(9.93684 0.0847252 -4.63459e-20)
(9.82269 0.100038 -5.03926e-20)
(9.86993 0.106614 1.5809e-20)
(9.72345 0.117603 -3.03068e-20)
(9.78261 0.129767 -6.4984e-20)
(9.60408 0.13613 5.01493e-20)
(9.67684 0.154053 3.32382e-20)
(9.46446 0.155902 3.48326e-20)
(9.55234 0.179819 1.71509e-20)
(9.30417 0.177233 3.59314e-20)
(9.40842 0.207488 5.26354e-20)
(9.12254 0.200406 -1.16732e-21)
(9.24451 0.237451 1.63208e-19)
(8.91873 0.225685 -1.98091e-19)
(9.05999 0.270064 -1.29815e-19)
(8.69171 0.253328 1.55359e-19)
(8.85402 0.305679 1.63807e-20)
(8.44034 0.283594 1.28467e-19)
(8.6256 0.34466 1.66619e-19)
(8.16335 0.316726 -1.86438e-19)
(8.3736 0.387359 6.11106e-20)
(7.85945 0.352936 0)
(8.09681 0.4341 4.58401e-21)
(7.52728 0.392378 0)
(7.79393 0.48517 -3.55315e-19)
(7.16559 0.435105 -3.11808e-19)
(7.46367 0.540752 -7.516e-19)
(6.77328 0.481018 2.35474e-19)
(7.10479 0.600876 1.05758e-18)
(6.34958 0.529798 5.23214e-19)
(6.71623 0.665334 -1.00129e-18)
(5.89418 0.580832 0)
(6.2972 0.733582 8.51271e-19)
(5.40751 0.633129 0)
(5.84739 0.804637 -1.81574e-18)
(4.89093 0.68521 -1.10422e-18)
(5.36716 0.876944 -2.4405e-20)
(4.34705 0.73499 -1.9736e-18)
(4.85779 0.948199 6.59199e-19)
(3.78012 0.779663 4.31631e-18)
(4.32179 1.01517 -1.15457e-18)
(3.19642 0.815539 5.4173e-18)
(3.76322 1.07348 5.12441e-18)
(2.60508 0.837681 3.67173e-19)
(3.18833 1.11723 3.54024e-19)
(2.02044 0.838541 -2.73208e-18)
(2.60615 1.1378 1.54799e-20)
(1.47174 0.796225 4.91865e-18)
(2.03121 1.11862 2.87353e-18)
(1.01398 0.650717 -8.88119e-19)
(1.46322 1.01169 -2.04457e-21)
(0.441528 0.251316 -8.19896e-18)
(0.943391 0.746809 5.85316e-18)
(0.480897 0.257113 -3.43993e-17)
(9.99031 0.0567068 -1.70488e-20)
(9.99018 0.0438801 3.73021e-20)
(9.95666 0.0843475 -9.92605e-20)
(9.9732 0.0801101 -5.30277e-20)
(9.90131 0.110585 -4.56829e-20)
(9.93304 0.111609 -1.5559e-20)
(9.82718 0.138214 4.29084e-24)
(9.86915 0.143749 3.13993e-20)
(9.7347 0.167476 3.32189e-23)
(9.78575 0.177525 3.24207e-20)
(9.62389 0.198492 0)
(9.68486 0.21304 -1.31364e-19)
(9.49467 0.231654 3.54746e-20)
(9.56646 0.250703 1.35571e-19)
(9.34676 0.267434 1.81531e-19)
(9.43003 0.291079 -1.37937e-19)
(9.17966 0.306288 3.03044e-20)
(9.27515 0.334736 1.50053e-21)
(8.99266 0.348648 8.6769e-20)
(9.10136 0.382203 -1.37563e-21)
(8.78491 0.394951 2.98083e-20)
(8.908 0.433998 1.93339e-19)
(8.55543 0.44564 9.77164e-20)
(8.6943 0.490657 -1.58468e-19)
(8.30311 0.501139 2.51374e-19)
(8.45938 0.552713 2.50591e-19)
(8.02673 0.561831 -3.55905e-19)
(8.2022 0.620678 4.58506e-21)
(7.72504 0.628018 -1.11271e-18)
(7.9217 0.695007 -2.6824e-19)
(7.39677 0.699857 6.43701e-19)
(7.61678 0.776039 -7.51831e-19)
(7.04068 0.77727 -2.08299e-19)
(7.28629 0.863929 1.4603e-18)
(6.65569 0.85983 -6.47291e-19)
(6.92914 0.958519 -1.73042e-18)
(6.24102 0.946637 -1.00234e-18)
(6.54434 1.05918 1.05703e-18)
(5.79633 1.03617 -1.81604e-18)
(6.13112 1.16469 -8.06737e-20)
(5.32193 1.12609 1.74794e-18)
(5.68913 1.27302 -1.82104e-18)
(4.8191 1.21298 1.45434e-18)
(5.2185 1.38102 1.98743e-18)
(4.29037 1.29207 -2.63666e-19)
(4.72016 1.48411 -2.67221e-19)
(3.74 1.35683 0)
(4.19602 1.57584 0)
(3.17466 1.39794 0)
(3.6493 1.64715 4.50346e-18)
(2.60388 1.40099 5.64504e-18)
(3.08434 1.68488 3.12125e-20)
(2.03722 1.33898 -2.05381e-18)
(2.50662 1.66876 -1.66107e-19)
(1.46406 1.1695 6.6932e-18)
(1.91148 1.56566 4.29126e-18)
(0.832567 0.862196 -2.08458e-17)
(1.27899 1.34379 -1.10963e-17)
(0.733652 0.963832 -4.97244e-18)
(9.98621 0.0676302 0)
(9.98894 0.0501861 4.4502e-20)
(9.95259 0.106532 3.12603e-20)
(9.9702 0.0959427 -1.50821e-20)
(9.89822 0.143895 6.22236e-20)
(9.9299 0.138023 -6.12354e-20)
(9.82527 0.182252 6.38262e-20)
(9.86716 0.180299 1.56326e-19)
(9.73456 0.222382 -1.01424e-19)
(9.78544 0.224379 1.60381e-19)
(9.62623 0.264692 8.14993e-21)
(9.68665 0.27072 -1.31138e-19)
(9.50026 0.30973 -4.18563e-20)
(9.57098 0.319815 1.08788e-21)
(9.35652 0.358136 -3.15961e-19)
(9.43797 0.372334 -2.42707e-19)
(9.19467 0.410543 -3.02345e-20)
(9.28729 0.428989 3.51606e-19)
(9.01421 0.467559 1.08012e-19)
(9.11867 0.490446 -1.7972e-19)
(8.81456 0.529792 0)
(8.93161 0.557353 -7.47432e-20)
(8.59501 0.597864 2.53701e-22)
(8.72555 0.630379 -7.70885e-20)
(8.35476 0.672386 2.46583e-22)
(8.49983 0.710213 8.02003e-19)
(8.09292 0.753925 8.84196e-20)
(8.25372 0.797518 -6.55958e-19)
(7.80857 0.842962 8.59521e-20)
(7.98645 0.892884 1.71997e-19)
(7.50073 0.939828 9.6096e-20)
(7.69717 0.996808 0)
(7.16837 1.04459 -1.07023e-19)
(7.38501 1.10961 2.78033e-19)
(6.81049 1.15687 1.33749e-20)
(7.0491 1.23125 -1.73631e-18)
(6.42616 1.27573 1.963e-18)
(6.68847 1.36115 -2.12948e-19)
(6.01461 1.39943 -1.08344e-19)
(6.30216 1.49807 1.7158e-18)
(5.57536 1.52517 -1.53181e-18)
(5.88937 1.63979 3.39962e-18)
(5.1083 1.64868 2.3514e-19)
(5.44931 1.78275 -3.35607e-18)
(4.61394 1.76384 0)
(4.98139 1.92161 4.71525e-19)
(4.09349 1.86207 4.55621e-18)
(4.48517 2.04871 0)
(3.54875 1.93144 4.48938e-18)
(3.96032 2.15343 3.98235e-18)
(2.98095 1.95524 -5.77325e-18)
(3.40608 2.2214 3.12125e-20)
(2.38656 1.90899 6.18312e-18)
(2.82056 2.23388 4.40038e-18)
(1.75066 1.76524 -1.35226e-17)
(2.19717 2.16553 2.1871e-18)
(1.04445 1.51034 4.77917e-18)
(1.50238 1.99795 -2.51413e-17)
(0.861228 1.70952 3.07625e-17)
(9.98421 0.0791511 2.85905e-20)
(9.98834 0.0574058 -1.33186e-19)
(9.95018 0.127769 -1.08277e-19)
(9.96871 0.111972 -4.50271e-20)
(9.89671 0.175056 3.6162e-20)
(9.92846 0.164005 -2.73985e-22)
(9.82508 0.223306 2.52953e-19)
(9.86691 0.216199 6.28686e-20)
(9.73615 0.273683 1.26344e-19)
(9.78704 0.270326 1.28072e-19)
(9.63017 0.326838 -1.36251e-19)
(9.69059 0.327164 2.40252e-22)
(9.50712 0.38343 -2.03347e-19)
(9.57777 0.387349 -1.34515e-19)
(9.36686 0.444195 4.3353e-19)
(9.44814 0.451648 2.03889e-19)
(9.20915 0.509874 1.94507e-19)
(9.30146 0.520867 1.4697e-19)
(9.03362 0.581187 -3.6103e-19)
(9.13754 0.595776 -5.77923e-19)
(8.83983 0.65885 -1.51883e-19)
(8.95597 0.677144 2.92958e-19)
(8.62723 0.743598 7.37197e-19)
(8.75631 0.765754 -4.60861e-19)
(8.39523 0.836164 1.25297e-19)
(8.538 0.8624 1.34671e-18)
(8.14319 0.937238 -5.60884e-19)
(8.30053 0.967858 -1.46822e-18)
(7.87044 1.04743 8.36351e-20)
(8.04331 1.08284 -9.09811e-20)
(7.57626 1.16721 1.85836e-19)
(7.76563 1.20797 5.14206e-19)
(7.2599 1.2968 -1.37944e-18)
(7.46682 1.3437 4.12323e-21)
(6.92049 1.43596 -1.94262e-18)
(7.14625 1.49017 -1.5396e-18)
(6.55713 1.58382 -4.34877e-19)
(6.80296 1.64696 -1.77129e-18)
(6.16882 1.73867 5.24661e-18)
(6.43584 1.8129 1.16596e-18)
(5.7545 1.89758 1.49202e-18)
(6.04379 1.9859 5.20211e-18)
(5.313 2.05598 -3.07405e-18)
(5.62536 2.16236 -3.59766e-18)
(4.84297 2.20715 4.6621e-19)
(5.17866 2.33681 -4.27144e-19)
(4.34272 2.34164 -5.28681e-19)
(4.70128 2.50131 -3.78107e-18)
(3.8098 2.4467 -5.17933e-19)
(4.19002 2.64489 -4.02943e-18)
(3.24018 2.50586 1.02342e-17)
(3.64051 2.75319 1.66912e-17)
(2.62637 2.4981 4.0392e-19)
(3.04686 2.80852 1.29529e-18)
(1.95596 2.40239 -9.56068e-18)
(2.4036 2.78832 -1.97827e-17)
(1.21428 2.20545 1.64165e-18)
(1.67909 2.67706 2.11826e-17)
(0.971295 2.44991 -1.08808e-17)
(9.9833 0.0910064 -2.05516e-19)
(9.98809 0.0650411 -7.41935e-20)
(9.94914 0.14879 6.36716e-20)
(9.96817 0.128066 4.49148e-20)
(9.89675 0.205743 2.73929e-20)
(9.92836 0.18947 1.52643e-19)
(9.82682 0.263847 -6.10426e-20)
(9.86826 0.251257 -1.23836e-19)
(9.74012 0.324407 6.0823e-23)
(9.79059 0.315141 -6.3104e-20)
(9.63692 0.388255 0)
(9.69691 0.382143 0)
(9.51722 0.456161 2.77694e-19)
(9.58739 0.453074 -2.64382e-19)
(9.38087 0.52894 -8.35107e-20)
(9.46164 0.528783 6.09857e-19)
(9.22772 0.607425 -6.35972e-19)
(9.31952 0.610132 -7.07837e-20)
(9.05747 0.692442 8.85013e-20)
(9.16086 0.698 -5.70694e-19)
(8.86972 0.784825 -2.66337e-20)
(8.98531 0.793272 3.67823e-19)
(8.664 0.885406 1.73961e-19)
(8.79246 0.896834 -5.33711e-19)
(8.43984 0.995019 -2.86253e-19)
(8.58184 1.00955 -7.37738e-20)
(8.19674 1.11447 -9.79268e-19)
(8.35302 1.1323 1.33885e-19)
(7.93411 1.24449 3.47909e-19)
(8.10547 1.26592 -1.33402e-20)
(7.65133 1.38566 3.25652e-19)
(7.83854 1.41116 5.1571e-19)
(7.34778 1.53836 -1.76868e-19)
(7.55157 1.56856 -1.79344e-19)
(7.02272 1.70255 -1.37103e-18)
(7.24402 1.73846 0)
(6.67511 1.87753 -1.32604e-19)
(6.9149 1.9207 -1.35374e-18)
(6.30373 2.06174 1.17277e-18)
(6.5629 2.11432 1.57333e-18)
(5.9071 2.25245 0)
(6.18659 2.31746 -3.19133e-18)
(5.48313 2.44521 -9.10054e-19)
(5.78388 2.52687 3.27237e-18)
(5.02901 2.63338 -4.71404e-18)
(5.35187 2.73743 -4.70536e-19)
(4.54089 2.80751 -7.28787e-18)
(4.88664 2.94151 -3.78462e-18)
(4.01358 2.95492 1.33714e-17)
(4.38293 3.12843 -3.50871e-18)
(3.44038 3.05948 7.6343e-18)
(3.83415 3.2839 2.45448e-17)
(2.81313 3.10135 -1.90269e-17)
(3.23233 3.39007 -1.71021e-17)
(2.12293 3.05938 1.11976e-17)
(2.57351 3.42388 -1.04371e-17)
(1.36737 2.91205 8.19309e-18)
(1.83383 3.36442 2.14244e-17)
(1.07605 3.17276 -1.21149e-17)
(9.98302 0.102962 1.78004e-19)
(9.98804 0.0728069 1.03532e-19)
(9.94913 0.169503 1.35531e-19)
(9.96827 0.144037 1.93913e-19)
(9.89803 0.235708 -2.76164e-21)
(9.92927 0.214317 6.08846e-20)
(9.83014 0.303314 -1.24982e-19)
(9.87091 0.285306 -6.17972e-20)
(9.74606 0.373678 -6.2235e-20)
(9.79577 0.358618 6.24907e-20)
(9.64608 0.447802 -2.68276e-19)
(9.70525 0.435432 -1.27499e-19)
(9.53023 0.526578 8.04671e-20)
(9.59949 0.51671 -5.26382e-19)
(9.39845 0.610901 6.12845e-19)
(9.47824 0.603378 6.02063e-19)
(9.25057 0.70169 -1.25301e-20)
(9.34136 0.696375 2.77567e-19)
(9.08632 0.799877 -2.78143e-19)
(9.18867 0.79668 -2.82155e-19)
(8.90537 0.906396 -1.5194e-19)
(9.0199 0.905278 0)
(8.70729 1.02217 -7.75141e-19)
(8.83467 1.02314 -7.40754e-19)
(8.49166 1.14811 3.49126e-19)
(8.6326 1.15123 -6.25391e-19)
(8.25799 1.28514 1.09842e-18)
(8.41321 1.29051 1.40768e-18)
(8.00572 1.43411 1.61622e-19)
(8.17596 1.44196 -1.43698e-18)
(7.73421 1.59573 1.1717e-21)
(7.92025 1.60646 1.4681e-18)
(7.44281 1.7705 0)
(7.64539 1.78467 1.67687e-19)
(7.13072 1.95864 0)
(7.35059 1.97711 0)
(6.79681 2.15974 3.89927e-19)
(7.03486 2.18396 0)
(6.43952 2.37253 -2.85152e-18)
(6.69675 2.40463 3.85311e-19)
(6.05684 2.59465 1.56442e-19)
(6.33425 2.63759 -1.42131e-19)
(5.64591 2.82218 3.67216e-18)
(5.94467 2.88022 1.56688e-19)
(5.20274 3.04899 4.25209e-19)
(5.52422 3.12805 2.77138e-20)
(4.72193 3.26617 0)
(5.06771 3.3742 0)
(4.19652 3.46129 7.92046e-18)
(4.56835 3.6085 6.58517e-18)
(3.61831 3.618 -5.3627e-19)
(4.01789 3.8167 7.90488e-18)
(2.97897 3.71535 -8.46127e-18)
(3.40675 3.9798 -8.20328e-18)
(2.27236 3.72797 3.28231e-20)
(2.73105 4.07205 -1.64429e-17)
(1.50212 3.61964 6.46388e-19)
(1.97513 4.06317 2.71009e-19)
(1.17438 3.89181 1.05485e-17)
(9.98312 0.11482 1.20766e-19)
(9.98812 0.0805263 -1.46538e-19)
(9.94988 0.189757 1.17225e-19)
(9.96882 0.15971 -8.86481e-20)
(9.90031 0.264785 0)
(9.93097 0.238427 0)
(9.83476 0.341508 1.27548e-19)
(9.87462 0.318198 0)
(9.75368 0.421307 -5.56866e-21)
(9.80233 0.400561 1.25682e-19)
(9.65738 0.505307 -3.91448e-19)
(9.71538 0.48679 -2.54078e-19)
(9.54594 0.59451 1.15477e-20)
(9.61388 0.577959 -2.5372e-21)
(9.41933 0.689897 2.62113e-19)
(9.49768 0.675087 2.86002e-21)
(9.2774 0.792469 0)
(9.36665 0.779203 -4.05269e-19)
(9.11992 0.903252 0)
(9.22064 0.891368 -2.79271e-19)
(8.94659 1.02327 -5.99157e-19)
(9.05942 1.01265 5.61632e-19)
(8.75707 1.15355 -5.89458e-19)
(8.88268 1.14411 -5.91116e-19)
(8.5509 1.29508 4.60943e-19)
(8.69008 1.28683 -6.45298e-21)
(8.32758 1.44891 -1.16655e-18)
(8.48109 1.44188 4.61227e-19)
(8.08654 1.61604 -9.23794e-20)
(8.25513 1.61036 -1.4447e-18)
(7.82712 1.79731 1.61833e-18)
(8.01168 1.79331 1.30941e-18)
(7.5485 1.99339 1.65621e-19)
(7.74996 1.99158 3.66101e-21)
(7.24971 2.20477 0)
(7.46887 2.20588 0)
(6.9295 2.43143 0)
(7.16734 2.43674 0)
(6.58593 2.67256 3.09037e-18)
(6.84372 2.68409 2.48897e-18)
(6.21636 2.92636 -1.35874e-19)
(6.49542 2.94699 1.68299e-19)
(5.81717 3.18968 -3.49479e-18)
(6.11909 3.22357 -3.1234e-18)
(5.38331 3.45724 -3.98438e-19)
(5.71006 3.51032 -1.62302e-20)
(4.90808 3.72092 6.65145e-18)
(5.26197 3.80134 0)
(4.383 3.9687 6.58274e-18)
(4.76653 4.08737 1.39822e-17)
(3.79835 4.1836 1.03755e-19)
(4.21366 4.35427 -6.52477e-18)
(3.14489 4.34226 -1.62608e-17)
(3.59168 4.58161 7.2094e-18)
(2.41699 4.41287 -1.60233e-17)
(2.89438 4.7398 -2.37149e-17)
(1.61886 4.33962 1.03078e-17)
(2.1106 4.78796 -3.12743e-20)
(1.26642 4.63309 1.0189e-17)
(9.98348 0.126433 -3.55097e-19)
(9.98829 0.0880809 8.72765e-20)
(9.95119 0.209414 -2.04537e-19)
(9.9697 0.174938 -2.0737e-19)
(9.90342 0.292843 0)
(9.93328 0.261676 0)
(9.84049 0.378268 0)
(9.87923 0.349791 0)
(9.76279 0.467091 -1.28428e-19)
(9.8101 0.440779 0)
(9.67061 0.560523 1.38528e-19)
(9.72709 0.535976 -1.26099e-19)
(9.56408 0.659659 -1.11135e-20)
(9.63032 0.636545 1.30364e-19)
(9.4432 0.76557 -6.70444e-19)
(9.51967 0.743598 -2.64889e-19)
(9.30786 0.879342 -6.82877e-19)
(9.39506 0.858249 3.93586e-19)
(9.15786 1.00208 2.94047e-19)
(9.25639 0.981631 -6.85642e-19)
(8.99298 1.13489 5.54053e-19)
(9.10347 1.11489 1.11947e-18)
(8.81287 1.27891 0)
(8.93604 1.25919 1.46427e-19)
(8.61712 1.43526 0)
(8.75379 1.41573 -1.01518e-18)
(8.4052 1.60509 1.58033e-19)
(8.55622 1.58572 -4.53723e-19)
(8.17654 1.78953 -6.68781e-21)
(8.34274 1.77035 1.36206e-18)
(7.93046 1.98964 -3.2291e-19)
(8.11283 1.97083 -3.04455e-21)
(7.66598 2.20631 -1.62195e-19)
(7.86567 2.1883 -6.79322e-21)
(7.38191 2.44031 0)
(7.59995 2.42372 0)
(7.07674 2.6921 2.51961e-18)
(7.3144 2.67798 -3.28917e-19)
(6.7482 2.9615 -4.59977e-19)
(7.00709 2.95166 2.83269e-18)
(6.39305 3.24751 -2.85858e-18)
(6.67501 3.24461 -5.6723e-18)
(6.00685 3.54792 3.90831e-19)
(6.31416 3.55592 -2.18297e-20)
(5.58353 3.85863 3.82981e-19)
(5.91901 3.88332 5.82588e-18)
(5.11502 4.17266 7.4652e-18)
(5.48194 4.22232 -2.96235e-18)
(4.59104 4.47876 6.82812e-19)
(4.99293 4.56504 8.84464e-19)
(3.99956 4.75946 7.13949e-19)
(4.43946 4.89812 5.84526e-18)
(3.32874 4.98869 -5.514e-19)
(3.80654 5.20019 6.00825e-19)
(2.57064 5.12756 -7.45978e-18)
(3.08291 5.43784 -7.52861e-18)
(1.72476 5.09905 0)
(2.25452 5.56063 0)
(1.3573 5.43688 -8.25536e-18)
(9.98403 0.137684 2.30854e-19)
(9.98851 0.095386 8.81229e-20)
(9.95295 0.228349 3.58195e-22)
(9.97082 0.189599 2.06402e-19)
(9.90722 0.319749 0)
(9.9361 0.283943 5.93634e-20)
(9.84718 0.413434 0)
(9.88461 0.379948 0)
(9.7732 0.510824 4.85517e-22)
(9.81893 0.479098 1.22407e-19)
(9.68555 0.613196 -1.30564e-19)
(9.74021 0.582775 9.96398e-22)
(9.5844 0.721731 -1.29102e-19)
(9.64858 0.692216 -5.1064e-19)
(9.46977 0.837581 8.08596e-19)
(9.54396 0.808616 2.55645e-19)
(9.34161 0.961909 3.75989e-19)
(9.42631 0.933163 8.50295e-21)
(9.19979 1.0959 1.64605e-19)
(9.29559 1.06706 2.61866e-19)
(9.04409 1.24074 6.98648e-19)
(9.15166 1.21154 4.21747e-19)
(8.87424 1.39767 -8.84452e-19)
(8.99432 1.36785 5.66125e-19)
(8.68986 1.56795 -1.46197e-18)
(8.82329 1.53731 -2.43574e-18)
(8.49047 1.75285 7.73883e-19)
(8.63815 1.72125 -2.26745e-20)
(8.2755 1.95365 1.3488e-18)
(8.43838 1.921 1.20681e-18)
(8.0442 2.17163 3.1327e-19)
(8.22341 2.13796 3.05471e-19)
(7.79556 2.408 1.5567e-19)
(7.99238 2.37355 3.29498e-21)
(7.52819 2.66387 -3.32949e-19)
(7.74401 2.6291 0)
(7.24029 2.94024 1.95837e-20)
(7.47676 2.90594 2.3912e-18)
(6.9293 3.2377 -2.47548e-18)
(7.18846 3.20531 -2.24252e-18)
(6.59148 3.55624 -2.77538e-18)
(6.87586 3.52806 -1.36252e-19)
(6.22167 3.89492 5.47569e-18)
(6.53443 3.87448 -2.86426e-18)
(5.81274 4.25117 2.39566e-18)
(6.15786 4.24391 5.95948e-18)
(5.35504 4.61975 -9.51671e-18)
(5.73728 4.63383 -2.79439e-18)
(4.83598 4.99097 6.10352e-18)
(5.26069 5.03864 -6.52194e-18)
(4.24005 5.34789 5.66799e-18)
(4.71244 5.44708 1.25302e-17)
(3.55058 5.66244 -6.45638e-18)
(4.07262 5.8384 -6.61216e-18)
(2.75359 5.88973 2.63137e-20)
(3.32213 6.17692 1.77112e-21)
(1.83823 5.9307 -8.37338e-18)
(2.43422 6.4058 1.02604e-19)
(1.46249 6.35518 -8.25608e-18)
(9.98472 0.148481 6.54088e-20)
(9.98879 0.102378 -1.45773e-19)
(9.95507 0.246447 2.6316e-19)
(9.97214 0.203591 2.6461e-19)
(9.91161 0.345378 5.84743e-20)
(9.93934 0.305115 1.18298e-19)
(9.85472 0.446853 1.2423e-19)
(9.89065 0.408538 -1.19862e-19)
(9.78476 0.552316 1.21153e-19)
(9.82868 0.515358 1.21923e-19)
(9.70202 0.663102 -3.86474e-19)
(9.75457 0.626991 1.24362e-19)
(9.60666 0.780459 -1.15007e-19)
(9.66845 0.744738 -6.33337e-19)
(9.49878 0.905616 -5.48028e-19)
(9.57029 0.869862 5.12012e-19)
(9.37836 1.0398 -1.02313e-19)
(9.4601 1.00362 -6.60765e-19)
(9.24532 1.18428 5.21335e-19)
(9.33789 1.14728 6.68502e-19)
(9.09953 1.34032 2.91052e-19)
(9.20359 1.30215 -1.34773e-21)
(8.94075 1.50925 -1.02486e-18)
(9.05707 1.46956 5.55992e-19)
(8.76868 1.69246 -9.65036e-19)
(8.8981 1.65093 -7.22425e-19)
(8.58293 1.89136 4.25971e-19)
(8.72638 1.84771 -1.32311e-19)
(8.38293 2.10738 1.5165e-19)
(8.54147 2.06139 1.4317e-19)
(8.16796 2.34208 -8.28392e-21)
(8.34282 2.29358 1.48166e-19)
(7.93699 2.59697 -1.52571e-19)
(8.12961 2.54598 -1.54451e-19)
(7.68857 2.87362 2.75294e-18)
(7.90063 2.82032 -1.36134e-18)
(7.42072 3.17361 7.81708e-20)
(7.65428 3.11843 6.55477e-18)
(7.13069 3.49841 1.2e-19)
(7.38829 3.4423 -7.54971e-18)
(6.81442 3.84923 -2.5122e-19)
(7.09932 3.79386 5.15667e-18)
(6.46622 4.22671 -2.29649e-18)
(6.78261 4.17489 -2.5282e-18)
(6.07801 4.63034 6.82456e-19)
(6.43132 4.58674 3.51947e-19)
(5.63854 5.05749 1.70095e-19)
(6.03563 5.02962 -1.5229e-19)
(5.13249 5.50141 9.04516e-20)
(5.58169 5.50143 0)
(4.53977 5.94764 4.18109e-20)
(5.05031 5.99503 5.01934e-21)
(3.8362 6.3686 -7.08164e-20)
(4.41512 6.4936 -2.36733e-20)
(2.99695 6.71594 7.96343e-20)
(3.64599 6.96282 -2.4981e-20)
(1.99662 6.86977 1.01083e-19)
(2.69175 7.34288 8.22068e-21)
(1.60983 7.42692 0)
(9.98551 0.15875 5.93885e-20)
(9.9891 0.109007 0)
(9.95747 0.26361 1.17468e-19)
(9.97363 0.216831 1.74753e-19)
(9.91649 0.369614 -6.36009e-20)
(9.94291 0.325089 -5.93683e-20)
(9.863 0.478386 -1.1861e-19)
(9.89725 0.435442 -8.13787e-22)
(9.79734 0.591399 1.25162e-19)
(9.83923 0.549412 -1.03626e-21)
(9.71982 0.710035 -1.3335e-19)
(9.77001 0.668447 1.23868e-19)
(9.63064 0.8356 9.89116e-21)
(9.68974 0.793897 -2.51856e-19)
(9.52994 0.969387 3.8302e-19)
(9.59842 0.927083 2.54614e-19)
(9.41776 1.11269 1.28386e-19)
(9.49612 1.06932 1.30185e-19)
(9.29409 1.26683 1.36637e-19)
(9.38293 1.22194 5.22196e-19)
(9.15885 1.43316 2.71036e-19)
(9.25883 1.3863 -3.9211e-19)
(9.0119 1.6131 8.42011e-19)
(9.12379 1.56382 1.46949e-21)
(8.85303 1.80813 1.18382e-19)
(8.97767 1.756 6.98664e-19)
(8.68194 2.0198 -4.11977e-19)
(8.82027 1.9644 -1.67451e-18)
(8.49815 2.24974 1.3978e-19)
(8.65129 2.19066 1.12067e-18)
(8.30101 2.49973 -1.64624e-21)
(8.47027 2.4366 -1.44714e-19)
(8.08958 2.77165 -1.37768e-18)
(8.2765 2.70418 -1.43007e-19)
(7.8625 3.06752 2.5297e-18)
(8.06898 2.99554 -1.21571e-18)
(7.6178 3.38957 -1.22737e-18)
(7.84624 3.31305 3.83506e-18)
(7.3527 3.74024 -2.38039e-18)
(7.6061 3.65945 -7.19949e-18)
(7.06315 4.12206 2.80274e-18)
(7.34543 4.03782 4.89576e-18)
(6.74325 4.5376 1.50479e-19)
(7.05965 4.45157 1.65907e-19)
(6.38445 4.98902 -4.88387e-19)
(6.74198 4.90444 -2.36831e-19)
(5.97432 5.47737 -3.21044e-19)
(6.38242 5.40011 -2.45562e-19)
(5.495 6.00072 -8.55248e-20)
(5.96609 5.9414 3.70432e-20)
(4.92126 6.55056 -6.07556e-20)
(5.47089 6.5282 2.32205e-18)
(4.21858 7.10492 2.21933e-20)
(4.8634 7.15305 -2.3876e-18)
(3.34406 7.61763 -9.6356e-20)
(4.09914 7.79108 2.4417e-18)
(2.24619 7.95023 -9.3308e-20)
(3.08822 8.38784 -1.21562e-19)
(1.84522 8.70655 -1.10443e-20)
(9.98639 0.168428 1.17885e-19)
(9.98945 0.115234 0)
(9.96011 0.279752 -5.68118e-21)
(9.97524 0.229246 1.76315e-22)
(9.9218 0.392352 4.29985e-21)
(9.94677 0.343775 -3.52341e-19)
(9.8719 0.507906 1.16784e-19)
(9.90432 0.460554 5.53476e-22)
(9.81079 0.62792 -5.23395e-22)
(9.85047 0.581131 -9.65357e-22)
(9.73878 0.75381 0)
(9.78638 0.706986 0)
(9.65613 0.886934 0)
(9.71225 0.839505 0)
(9.56299 1.02863 0)
(9.6281 0.980059 0)
(9.45949 1.18026 5.29374e-19)
(9.53408 1.13001 -1.26062e-19)
(9.34568 1.34318 -1.87552e-20)
(9.43033 1.29072 5.22363e-19)
(9.22158 1.51882 -6.56683e-19)
(9.31694 1.46363 -5.27147e-19)
(9.08714 1.70867 -1.33041e-19)
(9.19395 1.65019 -3.59625e-21)
(8.94226 1.9143 -1.12464e-18)
(9.06135 1.85198 0)
(8.78677 2.13738 -1.07266e-19)
(8.91908 2.07065 -1.1109e-18)
(8.62032 2.37973 8.21133e-19)
(8.76698 2.30799 9.77982e-19)
(8.44244 2.64333 -2.86139e-19)
(8.60476 2.56596 -5.80596e-21)
(8.25236 2.93039 7.02106e-21)
(8.43196 2.84679 -1.12119e-18)
(8.04896 3.2434 1.45143e-19)
(8.24784 3.15295 1.26926e-18)
(7.83052 3.58524 -2.25649e-18)
(8.05125 3.48735 1.40207e-19)
(7.59455 3.95927 2.03296e-19)
(7.84044 3.85342 -3.5135e-18)
(7.33737 4.36945 2.21056e-18)
(7.61282 4.25531 3.52659e-18)
(7.05351 4.82037 -2.25548e-19)
(7.36457 4.69806 -2.42108e-18)
(6.73478 5.31737 6.09971e-21)
(7.08981 5.18785 2.2633e-18)
(6.36874 5.86619 1.15524e-19)
(6.77967 5.7323 1.15795e-19)
(5.93637 6.47203 2.47154e-18)
(6.42022 6.34046 2.20255e-18)
(5.40827 7.13722 -6.54517e-20)
(5.98921 7.02237 2.36942e-18)
(4.73857 7.85486 1.03093e-19)
(5.44909 7.78737 -6.69333e-18)
(3.85741 8.59584 2.36135e-18)
(4.74154 8.63597 4.57199e-18)
(2.66007 9.2221 -4.36461e-20)
(3.72488 9.54633 1.97932e-18)
(2.25905 10.2994 -2.26732e-18)
(9.98734 0.177467 -1.17724e-19)
(9.98982 0.121026 0)
(9.96294 0.294797 -3.51888e-19)
(9.97695 0.240779 -1.16063e-19)
(9.92745 0.413499 -3.50849e-19)
(9.95086 0.361097 -1.175e-19)
(9.88133 0.535304 -1.17255e-19)
(9.91178 0.483779 -1.18553e-19)
(9.82498 0.661745 -4.25166e-22)
(9.86228 0.610404 -4.31431e-22)
(9.75874 0.794271 0)
(9.80354 0.742473 1.21094e-19)
(9.68288 0.934276 0)
(9.73578 0.881404 -3.64641e-19)
(9.59764 1.08314 -1.27809e-19)
(9.65908 1.0286 -2.47216e-19)
(9.50318 1.24226 -1.24378e-19)
(9.57365 1.18545 -3.76759e-19)
(9.39967 1.41304 0)
(9.4797 1.35338 5.04426e-19)
(9.2872 1.59695 1.32941e-19)
(9.37742 1.53382 0)
(9.16584 1.79554 1.29559e-19)
(9.26696 1.7283 1.26097e-21)
(9.03564 2.01045 0)
(9.14845 1.93842 0)
(8.89655 2.24345 0)
(9.02196 2.16591 1.19133e-18)
(8.74845 2.49649 1.38996e-19)
(8.88754 2.41265 -9.31913e-19)
(8.59108 2.77174 -8.54021e-19)
(8.74513 2.68074 2.08392e-21)
(8.42398 3.07168 1.67938e-19)
(8.59456 2.97257 -9.7867e-19)
(8.24639 3.39921 1.25227e-18)
(8.43549 3.2909 2.21069e-18)
(8.05708 3.75775 -1.1555e-18)
(8.26727 3.63903 -2.17407e-18)
(7.85422 4.1515 -1.17989e-19)
(8.08883 4.02097 8.94458e-19)
(7.635 4.58566 -1.16702e-18)
(7.89855 4.4417 5.31563e-20)
(7.39517 5.06678 1.14223e-19)
(7.69396 4.90757 -2.27035e-18)
(7.12813 5.60333 2.35145e-18)
(7.47113 5.42691 2.37149e-18)
(6.82344 6.20622 2.22579e-18)
(7.22404 6.01091 1.10433e-18)
(6.46413 6.88954 2.10427e-18)
(6.94283 6.67494 1.13276e-18)
(6.02138 7.67141 -4.37329e-18)
(6.61099 7.44075 -3.8652e-20)
(5.44362 8.57385 -2.06171e-18)
(6.19767 8.34077 -4.28082e-18)
(4.63252 9.62095 4.13366e-18)
(5.64894 9.4241 2.96278e-18)
(3.38781 10.7726 -3.59435e-19)
(4.79831 10.7726 1.9409e-18)
(3.05888 12.4406 -1.55853e-18)
(9.98835 0.185826 0)
(9.99021 0.12636 -2.1465e-19)
(9.96592 0.308685 1.18337e-19)
(9.97875 0.251382 2.7037e-19)
(9.93338 0.432975 1.14818e-19)
(9.95514 0.376991 6.40887e-20)
(9.8912 0.560476 0)
(9.91956 0.505042 1.10608e-19)
(9.83979 0.692745 1.22848e-19)
(9.87457 0.637138 -1.11129e-19)
(9.77951 0.831253 -2.50434e-19)
(9.82136 0.7748 3.50146e-19)
(9.71069 0.977423 -6.10294e-19)
(9.76019 0.919466 -5.99021e-19)
(9.6336 1.13266 -4.9801e-19)
(9.69121 1.07256 -3.67101e-19)
(9.5485 1.29839 2.63888e-19)
(9.61466 1.23549 -6.06693e-19)
(9.45562 1.47604 4.97858e-19)
(9.53086 1.4097 8.68158e-19)
(9.35517 1.66712 -1.31693e-19)
(9.44009 1.59664 0)
(9.24735 1.87321 -1.28366e-19)
(9.34262 1.79785 3.51276e-19)
(9.13235 2.09598 1.20638e-18)
(9.23872 2.01497 -1.09557e-18)
(9.01032 2.33728 2.33884e-19)
(9.12866 2.24974 1.4589e-18)
(8.88136 2.59913 -1.05802e-18)
(9.01269 2.50411 -1.07433e-18)
(8.74551 2.88383 -1.33763e-19)
(8.89103 2.78023 -1.37899e-19)
(8.60268 3.19405 1.10013e-18)
(8.76386 3.08059 0)
(8.45262 3.53294 -1.26418e-18)
(8.63132 3.40812 1.10854e-18)
(8.29481 3.90434 -9.12097e-20)
(8.49341 3.76631 -2.42078e-18)
(8.12837 4.31301 1.05693e-18)
(8.34997 4.1595 2.21727e-18)
(7.95188 4.76504 -1.07384e-18)
(8.20066 4.59312 -1.16661e-18)
(7.76309 5.26841 3.30376e-20)
(8.04487 5.07427 9.67426e-19)
(7.55842 5.83397 1.11129e-18)
(7.88158 5.61248 -9.56928e-19)
(7.33206 6.47689 1.28289e-20)
(7.70926 6.22103 1.07336e-18)
(7.07416 7.21929 -1.02112e-18)
(7.52563 6.91922 -1.92288e-18)
(6.76677 8.09564 0)
(7.32768 7.73681 9.14299e-19)
(6.37362 9.1655 8.46887e-19)
(7.11113 8.72473 4.71834e-20)
(5.80669 10.5568 7.64137e-19)
(6.88641 9.98472 1.16189e-18)
(4.80172 12.7687 5.70393e-19)
(6.79372 11.7864 -3.5832e-19)
(5.98671 15.665 9.16993e-19)
(0.178249 -0.0967929 0)
(0.0945587 -0.160588 0)
(0.380989 -0.0963713 0)
(0.278507 -0.173981 0)
(0.566052 -0.0806408 0)
(0.465491 -0.152559 -3.12919e-20)
(0.719029 -0.0616888 -5.52864e-21)
(0.634747 -0.122958 3.3419e-20)
(0.837594 -0.0433961 3.07169e-22)
(0.7742 -0.0936756 7.69996e-21)
(0.922563 -0.0264921 5.48569e-21)
(0.881739 -0.0662211 -1.08074e-20)
(0.97511 -0.0110614 -3.47806e-22)
(0.95881 -0.0404188 1.7461e-21)
(0.997035 0.00231139 6.78185e-22)
(1.00713 -0.0165909 6.22214e-21)
(0.992091 0.0126261 1.01055e-22)
(1.02874 0.00385084 1.03961e-21)
(0.964201 0.0197682 -1.03258e-21)
(1.02513 0.0208674 -1.02443e-21)
(0.919839 0.0242256 0)
(1.00055 0.0326702 0)
(0.864668 0.0261894 0)
(0.960997 0.0400193 0)
(0.804528 0.0258773 -1.26392e-22)
(0.912636 0.0429537 -8.53286e-22)
(0.744757 0.0236828 -1.76121e-22)
(0.861263 0.042016 1.54181e-21)
(0.689735 0.0201161 2.15861e-22)
(0.811827 0.0380502 -7.08204e-22)
(0.642758 0.0157134 4.10495e-22)
(0.768174 0.0319499 5.28671e-22)
(0.606055 0.0109717 -9.30666e-23)
(0.733047 0.0245445 1.0095e-24)
(0.580966 0.00624966 -8.93444e-23)
(0.708217 0.0164964 -1.65306e-22)
(0.568304 0.00152935 7.6645e-23)
(0.694607 0.00819414 -1.8085e-22)
(0.569476 -0.003368 9.12749e-23)
(0.692383 -0.000715262 1.55936e-22)
(0.584219 -0.00765174 5.01799e-24)
(0.700833 -0.00915042 6.25247e-22)
(0.609422 -0.0102108 -1.82538e-22)
(0.718548 -0.0153856 8.88135e-23)
(0.640214 -0.0109519 0)
(0.743096 -0.0184742 1.77756e-22)
(0.672085 -0.0104472 0)
(0.771296 -0.0187892 -2.4509e-22)
(0.70224 -0.00945465 3.04242e-23)
(0.799899 -0.0174699 8.10643e-23)
(0.72982 -0.00859155 2.83537e-25)
(0.826655 -0.0157022 3.06952e-23)
(0.75553 -0.0081798 -3.86407e-23)
(0.850804 -0.014388 -3.01072e-23)
(0.780839 -0.00811805 -1.28322e-23)
(0.872872 -0.0139247 -8.34496e-24)
(0.806599 -0.00791665 4.44429e-24)
(0.893906 -0.013937 8.58213e-24)
(0.919649 -0.0132291 -1.23232e-24)
(0.172328 -0.259103 0)
(0.077878 -0.332858 -7.00076e-20)
(0.368132 -0.250903 -3.06871e-20)
(0.253835 -0.343526 6.19452e-20)
(0.54715 -0.212527 5.97804e-21)
(0.422226 -0.299931 -9.45466e-20)
(0.699225 -0.168721 4.6992e-20)
(0.576435 -0.244707 2.98448e-20)
(0.823298 -0.126865 -3.60044e-21)
(0.705415 -0.191308 7.70723e-21)
(0.920449 -0.0878528 -1.41386e-20)
(0.808535 -0.14163 -3.18486e-20)
(0.991817 -0.0514486 8.53047e-21)
(0.887534 -0.0950817 9.3631e-21)
(1.03814 -0.0180973 6.59106e-21)
(0.943749 -0.05155 1.34166e-20)
(1.0597 0.0105406 0)
(0.978324 -0.0120889 0)
(1.05885 0.0328749 0)
(0.991748 0.0217341 0)
(1.03899 0.0484021 0)
(0.984561 0.0474111 -1.41763e-21)
(1.00648 0.0570998 -8.46039e-22)
(0.962317 0.063639 1.05943e-21)
(0.967369 0.0595273 6.97114e-22)
(0.930909 0.0708855 -8.53195e-22)
(0.926866 0.0567472 1.07767e-21)
(0.895762 0.0704558 -1.76567e-22)
(0.889225 0.0500064 -4.23307e-22)
(0.861283 0.0640371 1.92335e-21)