/*--------------------------------*- C++ -*----------------------------------*\
| =========                 |                                                 |
| \\      /  F ield         | OpenFOAM: The Open Source CFD Toolbox           |
|  \\    /   O peration     | Version:  2006                                  |
|   \\  /    A nd           | Website:  www.openfoam.com                      |
|    \\/     M anipulation  |                                                 |
\*---------------------------------------------------------------------------*/
FoamFile
{
    version     2.0;
    format      ascii;
    class       surfaceScalarField;
    location    "1";
    object      phi;
}
// * * * * * * * * * * * * * * * * * * * * * * * * * * * * * * * * * * * * * //

dimensions      [1 0 -1 0 0 0 0];
oriented        oriented;


internalField   nonuniform List<scalar> 
23692
(
2.32736e-06
-3.68047e-10
2.32795e-06
-5.86655e-10
2.32859e-06
-6.40325e-10
2.3291e-06
-5.08764e-10
2.32932e-06
-2.10046e-10
2.32912e-06
2.07015e-10
2.32846e-06
6.69571e-10
2.32737e-06
1.10078e-09
2.32595e-06
1.44024e-09
2.3243e-06
1.65717e-09
2.32257e-06
1.75055e-09
2.32085e-06
1.74107e-09
2.31921e-06
1.65962e-09
2.3177e-06
1.53707e-09
2.31633e-06
1.39787e-09
2.3151e-06
1.25805e-09
2.31401e-06
1.1258e-09
2.31304e-06
1.00362e-09
2.31219e-06
8.90652e-10
2.31145e-06
7.84381e-10
2.31081e-06
6.82263e-10
2.31028e-06
5.82115e-10
2.30985e-06
4.82217e-10
2.30952e-06
3.81665e-10
2.3093e-06
2.79987e-10
2.30918e-06
1.77032e-10
2.30917e-06
7.30378e-11
2.30927e-06
-3.17537e-11
2.30948e-06
-1.3699e-10
2.3098e-06
-2.4217e-10
2.31022e-06
-3.46875e-10
2.31075e-06
-4.5065e-10
2.31139e-06
-5.52888e-10
2.31213e-06
-6.53072e-10
2.31297e-06
-7.50545e-10
2.31391e-06
-8.44613e-10
2.31494e-06
-9.34627e-10
2.31606e-06
-1.01964e-09
2.31726e-06
-1.0988e-09
2.31853e-06
-1.17115e-09
2.31988e-06
-1.23559e-09
2.32127e-06
-1.29097e-09
2.32272e-06
-1.33601e-09
2.3242e-06
-1.3694e-09
2.32571e-06
-1.38964e-09
2.32722e-06
-1.39514e-09
2.32872e-06
-1.38418e-09
2.3302e-06
-1.35489e-09
2.33162e-06
-1.30519e-09
2.33298e-06
-1.23285e-09
2.33424e-06
-1.1353e-09
2.33537e-06
-1.00975e-09
2.33635e-06
-8.53018e-10
2.33714e-06
-6.61499e-10
2.3377e-06
-4.30957e-10
2.33798e-06
-1.5652e-10
2.33794e-06
1.67342e-10
2.33752e-06
5.47528e-10
2.33666e-06
9.91992e-10
2.33528e-06
1.51037e-09
2.33329e-06
2.11447e-09
2.3306e-06
2.81875e-09
2.32709e-06
3.64123e-09
2.32261e-06
4.60455e-09
2.31701e-06
5.73754e-09
2.31006e-06
7.07739e-09
2.30151e-06
8.67267e-09
2.29105e-06
1.0588e-08
2.27826e-06
1.29107e-08
2.26263e-06
1.57607e-08
2.24345e-06
1.93063e-08
2.21978e-06
2.37884e-08
2.19035e-06
2.95589e-08
2.15333e-06
3.71433e-08
2.1061e-06
4.73426e-08
2.04482e-06
6.14003e-08
1.96367e-06
8.12673e-08
1.85374e-06
1.10054e-07
1.70078e-06
1.53073e-07
1.4805e-06
2.20399e-07
3.38956e-07
1.14166e-06
2.49037e-06
-7.57715e-10
2.491e-06
-1.21595e-09
2.4917e-06
-1.32995e-09
2.49225e-06
-1.05979e-09
2.4925e-06
-4.43442e-10
2.49229e-06
4.18367e-10
2.4916e-06
1.37556e-09
2.49044e-06
2.26871e-09
2.48892e-06
2.97308e-09
2.48717e-06
3.42418e-09
2.48532e-06
3.61972e-09
2.48348e-06
3.60236e-09
2.48173e-06
3.43578e-09
2.48011e-06
3.18366e-09
2.47864e-06
2.89673e-09
2.47732e-06
2.60824e-09
2.47615e-06
2.33519e-09
2.47511e-06
2.08288e-09
2.47419e-06
1.84944e-09
2.47339e-06
1.63008e-09
2.4727e-06
1.41933e-09
2.47212e-06
1.21255e-09
2.47165e-06
1.0065e-09
2.47129e-06
7.99166e-10
2.47105e-06
5.89569e-10
2.47091e-06
3.77529e-10
2.47089e-06
1.63307e-10
2.47098e-06
-5.24617e-11
2.47119e-06
-2.68979e-10
2.47151e-06
-4.85405e-10
2.47195e-06
-7.00773e-10
2.4725e-06
-9.14026e-10
2.47316e-06
-1.12417e-09
2.47393e-06
-1.32987e-09
2.47481e-06
-1.52998e-09
2.47579e-06
-1.72302e-09
2.47686e-06
-1.90746e-09
2.47803e-06
-2.08161e-09
2.47928e-06
-2.2436e-09
2.48061e-06
-2.39142e-09
2.48202e-06
-2.52286e-09
2.48348e-06
-2.63554e-09
2.48499e-06
-2.72685e-09
2.48653e-06
-2.79398e-09
2.4881e-06
-2.83397e-09
2.48967e-06
-2.84347e-09
2.49123e-06
-2.819e-09
2.49276e-06
-2.75666e-09
2.49424e-06
-2.65227e-09
2.49564e-06
-2.50114e-09
2.49693e-06
-2.29811e-09
2.4981e-06
-2.03743e-09
2.49909e-06
-1.71256e-09
2.49988e-06
-1.31609e-09
2.50042e-06
-8.39556e-10
2.50068e-06
-2.72831e-10
2.50059e-06
3.9515e-10
2.50009e-06
1.1785e-09
2.49913e-06
2.09318e-09
2.49762e-06
3.15871e-09
2.49547e-06
4.39882e-09
2.49259e-06
5.84248e-09
2.48884e-06
7.52567e-09
2.48409e-06
9.49339e-09
2.47816e-06
1.18026e-08
2.47085e-06
1.45262e-08
2.4619e-06
1.77589e-08
2.451e-06
2.16253e-08
2.43775e-06
2.62918e-08
2.42166e-06
3.19839e-08
2.40209e-06
3.90125e-08
2.3782e-06
4.78126e-08
2.34889e-06
5.90022e-08
2.31269e-06
7.34707e-08
2.26765e-06
9.25088e-08
2.21119e-06
1.17988e-07
2.14002e-06
1.52563e-07
2.05038e-06
1.99826e-07
1.93927e-06
2.64306e-07
1.81004e-06
3.49747e-07
4.45904e-07
1.70322e-06
2.66481e-06
-1.16953e-09
2.66548e-06
-1.8914e-09
2.66623e-06
-2.07333e-09
2.66684e-06
-1.66047e-09
2.66711e-06
-7.10183e-10
2.66692e-06
6.22456e-10
2.6662e-06
2.10569e-09
2.66499e-06
3.49269e-09
2.66339e-06
4.58959e-09
2.66153e-06
5.29569e-09
2.65957e-06
5.60624e-09
2.65761e-06
5.58628e-09
2.65573e-06
5.33382e-09
2.654e-06
4.94751e-09
2.65242e-06
4.50584e-09
2.651e-06
4.06066e-09
2.64974e-06
3.63861e-09
2.64861e-06
3.24812e-09
2.64762e-06
2.88678e-09
2.64675e-06
2.54723e-09
2.646e-06
2.22112e-09
2.64537e-06
1.90147e-09
2.64485e-06
1.58316e-09
2.64445e-06
1.26312e-09
2.64416e-06
9.39841e-10
2.644e-06
6.13012e-10
2.64395e-06
2.83106e-10
2.64403e-06
-4.89968e-11
2.64422e-06
-3.82009e-10
2.64454e-06
-7.147e-10
2.64497e-06
-1.04548e-09
2.64552e-06
-1.37292e-09
2.64619e-06
-1.69515e-09
2.64697e-06
-2.01046e-09
2.64786e-06
-2.31677e-09
2.64885e-06
-2.61202e-09
2.64995e-06
-2.89374e-09
2.65114e-06
-3.15933e-09
2.65242e-06
-3.40591e-09
2.65378e-06
-3.63037e-09
2.65521e-06
-3.8293e-09
2.65669e-06
-3.99904e-09
2.65823e-06
-4.13555e-09
2.6598e-06
-4.2346e-09
2.66139e-06
-4.29148e-09
2.66298e-06
-4.30119e-09
2.66455e-06
-4.25824e-09
2.66609e-06
-4.15679e-09
2.66757e-06
-3.99033e-09
2.66896e-06
-3.75173e-09
2.67023e-06
-3.4331e-09
2.67137e-06
-3.02565e-09
2.67232e-06
-2.51946e-09
2.67305e-06
-1.90323e-09
2.67352e-06
-1.16405e-09
2.67368e-06
-2.86924e-10
2.67348e-06
7.45417e-10
2.67285e-06
1.95353e-09
2.67173e-06
3.36162e-09
2.67003e-06
4.99873e-09
2.66768e-06
6.89999e-09
2.66456e-06
9.10823e-09
2.66056e-06
1.16761e-08
2.65553e-06
1.4669e-08
2.64931e-06
1.81691e-08
2.6417e-06
2.22805e-08
2.63247e-06
2.71365e-08
2.62133e-06
3.29102e-08
2.60794e-06
3.98283e-08
2.59187e-06
4.81916e-08
2.57263e-06
5.84035e-08
2.54957e-06
7.10096e-08
2.52196e-06
8.67527e-08
2.48893e-06
1.06645e-07
2.44952e-06
1.3205e-07
2.40289e-06
1.64761e-07
2.34862e-06
2.0697e-07
2.28762e-06
2.60958e-07
2.22401e-06
3.28052e-07
2.16866e-06
4.05229e-07
4.75471e-07
2.13922e-06
2.85146e-06
-1.60521e-09
2.85219e-06
-2.61569e-09
2.85299e-06
-2.87611e-09
2.85366e-06
-2.32032e-09
2.85398e-06
-1.02344e-09
2.85381e-06
8.03155e-10
2.85308e-06
2.84242e-09
2.85184e-06
4.75569e-09
2.85017e-06
6.27559e-09
2.84822e-06
7.26163e-09
2.84614e-06
7.70479e-09
2.84406e-06
7.69231e-09
2.84207e-06
7.35771e-09
2.84021e-06
6.83552e-09
2.83851e-06
6.23427e-09
2.83698e-06
5.6254e-09
2.83562e-06
5.04652e-09
2.8344e-06
4.50996e-09
2.83332e-06
4.01299e-09
2.83237e-06
3.54588e-09
2.83155e-06
3.09765e-09
2.83085e-06
2.65871e-09
2.83028e-06
2.22215e-09
2.82982e-06
1.78376e-09
2.82949e-06
1.34151e-09
2.82929e-06
8.94907e-10
2.8292e-06
4.44491e-10
2.82925e-06
-8.37681e-12
2.82941e-06
-4.62164e-10
2.8297e-06
-9.15012e-10
2.83012e-06
-1.36486e-09
2.83065e-06
-1.80956e-09
2.83131e-06
-2.2468e-09
2.83208e-06
-2.67407e-09
2.83296e-06
-3.08862e-09
2.83395e-06
-3.48745e-09
2.83504e-06
-3.86733e-09
2.83623e-06
-4.22462e-09
2.8375e-06
-4.55543e-09
2.83885e-06
-4.85548e-09
2.84028e-06
-5.12013e-09
2.84175e-06
-5.3443e-09
2.84328e-06
-5.52262e-09
2.84483e-06
-5.64918e-09
2.8464e-06
-5.71764e-09
2.84796e-06
-5.72119e-09
2.8495e-06
-5.65244e-09
2.85099e-06
-5.50335e-09
2.85241e-06
-5.26516e-09
2.85374e-06
-4.92827e-09
2.85494e-06
-4.48202e-09
2.85598e-06
-3.91453e-09
2.85683e-06
-3.21255e-09
2.85744e-06
-2.36097e-09
2.85778e-06
-1.34257e-09
2.85778e-06
-1.37454e-10
2.85741e-06
1.27728e-09
2.85659e-06
2.92849e-09
2.85526e-06
4.8479e-09
2.85335e-06
7.07329e-09
2.85075e-06
9.64997e-09
2.84739e-06
1.26328e-08
2.84313e-06
1.60886e-08
2.83786e-06
2.00994e-08
2.83142e-06
2.47672e-08
2.82364e-06
3.0219e-08
2.81431e-06
3.66149e-08
2.80322e-06
4.41583e-08
2.79009e-06
5.31094e-08
2.77464e-06
6.38028e-08
2.75652e-06
7.66713e-08
2.73541e-06
9.22745e-08
2.71098e-06
1.11333e-07
2.68301e-06
1.3476e-07
2.65153e-06
1.63679e-07
2.61706e-06
1.99376e-07
2.58107e-06
2.43109e-07
2.54658e-06
2.95588e-07
2.51896e-06
3.55821e-07
2.50559e-06
4.18738e-07
4.71238e-07
2.50996e-06
3.05118e-06
-2.06672e-09
3.05196e-06
-3.39219e-09
3.05284e-06
-3.7453e-09
3.05357e-06
-3.05071e-09
3.05396e-06
-1.39976e-09
3.05383e-06
9.39473e-10
3.05313e-06
3.56227e-09
3.05186e-06
6.03439e-09
3.05015e-06
8.01041e-09
3.04812e-06
9.30625e-09
3.04594e-06
9.90568e-09
3.04375e-06
9.91692e-09
3.04162e-06
9.50875e-09
3.03964e-06
8.85337e-09
3.03782e-06
8.09008e-09
3.03617e-06
7.31218e-09
3.03469e-06
6.56929e-09
3.03337e-06
5.87877e-09
3.0322e-06
5.23813e-09
3.03116e-06
4.63594e-09
3.03026e-06
4.05846e-09
3.02949e-06
3.49369e-09
3.02884e-06
2.93299e-09
3.02833e-06
2.37088e-09
3.02794e-06
1.80473e-09
3.02768e-06
1.23389e-09
3.02755e-06
6.59042e-10
3.02755e-06
8.17413e-11
3.02768e-06
-4.95931e-10
3.02793e-06
-1.0716e-09
3.02831e-06
-1.6427e-09
3.02881e-06
-2.20649e-09
3.02944e-06
-2.75996e-09
3.03018e-06
-3.29981e-09
3.03103e-06
-3.82265e-09
3.03199e-06
-4.32459e-09
3.03305e-06
-4.80139e-09
3.0342e-06
-5.24849e-09
3.03544e-06
-5.66087e-09
3.03675e-06
-6.03308e-09
3.03813e-06
-6.35911e-09
3.03956e-06
-6.63266e-09
3.04103e-06
-6.84671e-09
3.04252e-06
-6.99385e-09
3.04402e-06
-7.06604e-09
3.04551e-06
-7.05459e-09
3.04696e-06
-6.95017e-09
3.04836e-06
-6.74266e-09
3.04967e-06
-6.42104e-09
3.05088e-06
-5.97315e-09
3.05194e-06
-5.3857e-09
3.05283e-06
-4.64394e-09
3.05352e-06
-3.73127e-09
3.05395e-06
-2.62903e-09
3.05409e-06
-1.31597e-09
3.05389e-06
2.32233e-10
3.05329e-06
2.04349e-09
3.05224e-06
4.15025e-09
3.05066e-06
6.59062e-09
3.0485e-06
9.40966e-09
3.04565e-06
1.26608e-08
3.04205e-06
1.6408e-08
3.03758e-06
2.07283e-08
3.03213e-06
2.57151e-08
3.02558e-06
3.1482e-08
3.0178e-06
3.81684e-08
3.00864e-06
4.59458e-08
2.99794e-06
5.50262e-08
2.98554e-06
6.56721e-08
2.9713e-06
7.8209e-08
2.95509e-06
9.30382e-08
2.93688e-06
1.10651e-07
2.91674e-06
1.31635e-07
2.89498e-06
1.56674e-07
2.87232e-06
1.86506e-07
2.85003e-06
2.21819e-07
2.83028e-06
2.63016e-07
2.81627e-06
3.09754e-07
2.81209e-06
3.60148e-07
2.82138e-06
4.09599e-07
4.49658e-07
2.84312e-06
3.2649e-06
-2.55575e-09
3.26573e-06
-4.22449e-09
3.26668e-06
-4.68865e-09
3.2675e-06
-3.86484e-09
3.26797e-06
-1.85855e-09
3.26792e-06
1.00613e-09
3.26726e-06
4.23616e-09
3.26601e-06
7.29894e-09
3.26427e-06
9.76707e-09
3.26219e-06
1.14078e-08
3.25993e-06
1.2194e-08
3.25762e-06
1.22522e-08
3.25538e-06
1.17857e-08
3.25326e-06
1.10044e-08
3.25131e-06
1.00804e-08
3.24953e-06
9.13005e-09
3.24793e-06
8.21685e-09
3.24649e-06
7.36454e-09
3.24521e-06
6.5721e-09
3.24408e-06
5.82673e-09
3.24309e-06
5.11248e-09
3.24224e-06
4.41521e-09
3.24152e-06
3.72438e-09
3.24093e-06
3.03335e-09
3.24048e-06
2.33883e-09
3.24016e-06
1.63989e-09
3.23997e-06
9.3738e-10
3.23991e-06
2.33118e-10
3.23999e-06
-4.70445e-10
3.24019e-06
-1.17035e-09
3.24052e-06
-1.86354e-09
3.24097e-06
-2.54654e-09
3.24155e-06
-3.21569e-09
3.24224e-06
-3.86704e-09
3.24304e-06
-4.49624e-09
3.24394e-06
-5.09858e-09
3.24494e-06
-5.66889e-09
3.24603e-06
-6.20155e-09
3.24721e-06
-6.69036e-09
3.24845e-06
-7.12873e-09
3.24975e-06
-7.50939e-09
3.25109e-06
-7.8245e-09
3.25246e-06
-8.0657e-09
3.25385e-06
-8.22389e-09
3.25524e-06
-8.28936e-09
3.2566e-06
-8.25166e-09
3.25791e-06
-8.09954e-09
3.25916e-06
-7.8208e-09
3.26031e-06
-7.40219e-09
3.26134e-06
-6.82936e-09
3.26221e-06
-6.08642e-09
3.2629e-06
-5.15586e-09
3.26336e-06
-4.0182e-09
3.26356e-06
-2.65156e-09
3.26345e-06
-1.03121e-09
3.26299e-06
8.70862e-10
3.26213e-06
3.08656e-09
3.26081e-06
5.6528e-09
3.25897e-06
8.61251e-09
3.25654e-06
1.20157e-08
3.25346e-06
1.59211e-08
3.24965e-06
2.03981e-08
3.24503e-06
2.55286e-08
3.23952e-06
3.14105e-08
3.23302e-06
3.816e-08
3.22545e-06
4.59164e-08
3.21673e-06
5.48462e-08
3.20678e-06
6.51482e-08
3.19557e-06
7.70593e-08
3.1831e-06
9.08588e-08
3.16944e-06
1.06872e-07
3.15479e-06
1.2547e-07
3.13954e-06
1.47058e-07
3.12434e-06
1.72048e-07
3.11022e-06
2.00801e-07
3.09868e-06
2.33518e-07
3.09182e-06
2.70045e-07
3.09217e-06
3.09567e-07
3.10229e-06
3.50196e-07
3.12353e-06
3.88526e-07
4.19534e-07
3.15381e-06
3.49358e-06
-3.07426e-09
3.49448e-06
-5.11663e-09
3.49551e-06
-5.71458e-09
3.49643e-06
-4.77739e-09
3.497e-06
-2.42201e-09
3.49705e-06
9.74037e-10
3.49647e-06
4.8301e-09
3.49527e-06
8.51396e-09
3.49355e-06
1.15122e-08
3.49144e-06
1.35386e-08
3.48911e-06
1.45494e-08
3.48671e-06
1.46858e-08
3.48434e-06
1.41834e-08
3.4821e-06
1.32896e-08
3.48001e-06
1.22101e-08
3.47809e-06
1.10865e-08
3.47636e-06
9.998e-09
3.4748e-06
8.97655e-09
3.47341e-06
8.02385e-09
3.47217e-06
7.12687e-09
3.47108e-06
6.26808e-09
3.47014e-06
5.43124e-09
3.46934e-06
4.60424e-09
3.46867e-06
3.7793e-09
3.46815e-06
2.95228e-09
3.46776e-06
2.1221e-09
3.4675e-06
1.28955e-09
3.46738e-06
4.56709e-10
3.46739e-06
-3.73508e-10
3.46753e-06
-1.19778e-09
3.46779e-06
-2.01228e-09
3.46818e-06
-2.81299e-09
3.46869e-06
-3.59557e-09
3.4693e-06
-4.35524e-09
3.47003e-06
-5.08682e-09
3.47085e-06
-5.78469e-09
3.47177e-06
-6.44273e-09
3.47277e-06
-7.05423e-09
3.47385e-06
-7.61195e-09
3.47498e-06
-8.10796e-09
3.47616e-06
-8.53377e-09
3.47738e-06
-8.88019e-09
3.47862e-06
-9.13733e-09
3.47986e-06
-9.29459e-09
3.48108e-06
-9.34065e-09
3.48227e-06
-9.2633e-09
3.4834e-06
-9.04947e-09
3.48444e-06
-8.68513e-09
3.48537e-06
-8.15503e-09
3.48617e-06
-7.44262e-09
3.4868e-06
-6.52986e-09
3.48723e-06
-5.39691e-09
3.48742e-06
-4.02185e-09
3.48734e-06
-2.38018e-09
3.48694e-06
-4.44527e-10
3.48619e-06
1.81577e-09
3.48503e-06
4.43535e-09
3.48342e-06
7.45399e-09
3.48131e-06
1.09172e-08
3.47864e-06
1.48773e-08
3.47536e-06
1.93948e-08
3.47141e-06
2.45398e-08
3.46674e-06
3.03936e-08
3.46129e-06
3.70507e-08
3.45502e-06
4.46208e-08
3.4479e-06
5.32312e-08
3.43991e-06
6.30285e-08
3.43107e-06
7.41806e-08
3.42144e-06
8.68773e-08
3.41116e-06
1.0133e-07
3.40045e-06
1.17765e-07
3.38969e-06
1.36416e-07
3.37943e-06
1.57505e-07
3.37045e-06
1.81206e-07
3.36385e-06
2.07592e-07
3.36099e-06
2.36551e-07
3.36355e-06
2.67662e-07
3.37326e-06
3.00036e-07
3.39149e-06
3.3214e-07
3.41849e-06
3.61708e-07
3.85884e-07
3.45231e-06
3.73829e-06
-3.62385e-09
3.73925e-06
-6.07254e-09
3.74037e-06
-6.83156e-09
3.7414e-06
-5.80331e-09
3.7421e-06
-3.11319e-09
3.74228e-06
8.11908e-10
3.74182e-06
5.30677e-09
3.74071e-06
9.63962e-09
3.73904e-06
1.32079e-08
3.73694e-06
1.56656e-08
3.73457e-06
1.69468e-08
3.73208e-06
1.7201e-08
3.72961e-06
1.66929e-08
3.72723e-06
1.57065e-08
3.725e-06
1.44817e-08
3.72295e-06
1.3187e-08
3.72108e-06
1.19199e-08
3.71939e-06
1.07225e-08
3.71788e-06
9.60129e-09
3.71653e-06
8.54413e-09
3.71534e-06
7.5326e-09
3.71429e-06
6.54913e-09
3.7134e-06
5.57997e-09
3.71265e-06
4.61621e-09
3.71204e-06
3.65312e-09
3.71157e-06
2.68912e-09
3.71124e-06
1.72502e-09
3.71104e-06
7.63108e-10
3.71098e-06
-1.93364e-10
3.71104e-06
-1.14056e-09
3.71123e-06
-2.0741e-09
3.71153e-06
-2.98923e-09
3.71195e-06
-3.88107e-09
3.71248e-06
-4.74389e-09
3.71311e-06
-5.5717e-09
3.71383e-06
-6.358e-09
3.71464e-06
-7.09566e-09
3.71552e-06
-7.77694e-09
3.71646e-06
-8.39346e-09
3.71745e-06
-8.93612e-09
3.71849e-06
-9.39521e-09
3.71954e-06
-9.76015e-09
3.7206e-06
-1.00197e-08
3.72165e-06
-1.01619e-08
3.72266e-06
-1.01738e-08
3.72363e-06
-1.00417e-08
3.72452e-06
-9.75094e-09
3.72531e-06
-9.28574e-09
3.72598e-06
-8.62919e-09
3.7265e-06
-7.76302e-09
3.72683e-06
-6.66738e-09
3.72696e-06
-5.32064e-09
3.72683e-06
-3.69908e-09
3.72643e-06
-1.77651e-09
3.72572e-06
4.75999e-10
3.72465e-06
3.09038e-09
3.72318e-06
6.10267e-09
3.72129e-06
9.55331e-09
3.71893e-06
1.34879e-08
3.71605e-06
1.79581e-08
3.71263e-06
2.30221e-08
3.70863e-06
2.87462e-08
3.70403e-06
3.52052e-08
3.6988e-06
4.24832e-08
3.69295e-06
5.06752e-08
3.6865e-06
5.98865e-08
3.6795e-06
7.02332e-08
3.67204e-06
8.18409e-08
3.66428e-06
9.48421e-08
3.65644e-06
1.09371e-07
3.64885e-06
1.25556e-07
3.64196e-06
1.43506e-07
3.63637e-06
1.63291e-07
3.63286e-06
1.84912e-07
3.63238e-06
2.08263e-07
3.63605e-06
2.33081e-07
3.64502e-06
2.58878e-07
3.66037e-06
2.84879e-07
3.68272e-06
3.09975e-07
3.71187e-06
3.32742e-07
3.51598e-07
3.74634e-06
4.00013e-06
-4.20593e-09
4.00116e-06
-7.09559e-09
4.00238e-06
-8.0475e-09
4.00354e-06
-6.95692e-09
4.00439e-06
-3.95462e-09
4.00473e-06
4.88886e-10
4.00442e-06
5.62857e-09
4.00345e-06
1.06348e-08
4.00187e-06
1.48133e-08
3.99981e-06
1.77527e-08
3.99743e-06
1.93564e-08
3.99489e-06
1.97762e-08
3.99232e-06
1.93008e-08
3.98982e-06
1.82486e-08
3.98745e-06
1.68939e-08
3.98526e-06
1.54342e-08
3.98324e-06
1.39875e-08
3.98142e-06
1.26087e-08
3.97977e-06
1.13112e-08
3.9783e-06
1.00854e-08
3.977e-06
8.91302e-09
3.97586e-06
7.77568e-09
3.97487e-06
6.65854e-09
3.97402e-06
5.55154e-09
3.97333e-06
4.44925e-09
3.97277e-06
3.3497e-09
3.97235e-06
2.25353e-09
3.97207e-06
1.1632e-09
3.97191e-06
8.22823e-11
3.97188e-06
-9.84898e-10
3.97198e-06
-2.03345e-09
3.97218e-06
-3.05802e-09
3.9725e-06
-4.0529e-09
3.97292e-06
-5.01168e-09
3.97343e-06
-5.92747e-09
3.97402e-06
-6.79279e-09
3.97469e-06
-7.59964e-09
3.97542e-06
-8.33923e-09
3.9762e-06
-9.00215e-09
3.97702e-06
-9.57816e-09
3.97786e-06
-1.00563e-08
3.97871e-06
-1.04249e-08
3.97955e-06
-1.06715e-08
3.98037e-06
-1.07827e-08
3.98113e-06
-1.07443e-08
3.98183e-06
-1.05413e-08
3.98244e-06
-1.01577e-08
3.98294e-06
-9.5764e-09
3.98329e-06
-8.77919e-09
3.98349e-06
-7.74655e-09
3.98349e-06
-6.45741e-09
3.98327e-06
-4.88911e-09
3.9828e-06
-3.01696e-09
3.98206e-06
-8.14129e-10
3.981e-06
1.74847e-09
3.97961e-06
4.70279e-09
3.97785e-06
8.08419e-09
3.97569e-06
1.19317e-08
3.97311e-06
1.62884e-08
3.97009e-06
2.12018e-08
3.9666e-06
2.67245e-08
3.96266e-06
3.29142e-08
3.95825e-06
3.98342e-08
3.9534e-06
4.75531e-08
3.94815e-06
5.61444e-08
3.94257e-06
6.56859e-08
3.93676e-06
7.62575e-08
3.93088e-06
8.79386e-08
3.92514e-06
1.00804e-07
3.91981e-06
1.14917e-07
3.91526e-06
1.30321e-07
3.91195e-06
1.47028e-07
3.91045e-06
1.65004e-07
3.91142e-06
1.84146e-07
3.91563e-06
2.04262e-07
3.92387e-06
2.25049e-07
3.9369e-06
2.46058e-07
3.95529e-06
2.66691e-07
3.97927e-06
2.86193e-07
4.00851e-06
3.03704e-07
3.18355e-07
4.04195e-06
4.28031e-06
-4.82172e-09
4.28141e-06
-8.18844e-09
4.28273e-06
-9.3686e-09
4.28404e-06
-8.25007e-09
4.28506e-06
-4.96564e-09
4.28559e-06
-2.25654e-11
4.28547e-06
5.76085e-09
4.28467e-06
1.14603e-08
4.28322e-06
1.62882e-08
4.28124e-06
1.9762e-08
4.27888e-06
2.1746e-08
4.27631e-06
2.23862e-08
4.27366e-06
2.19892e-08
4.27105e-06
2.09048e-08
4.26855e-06
1.94415e-08
4.26621e-06
1.7827e-08
4.26406e-06
1.62027e-08
4.26209e-06
1.46392e-08
4.26031e-06
1.31588e-08
4.25872e-06
1.17565e-08
4.2573e-06
1.04157e-08
4.25604e-06
9.11785e-09
4.25495e-06
7.84733e-09
4.254e-06
6.5933e-09
4.25321e-06
5.34952e-09
4.25256e-06
4.1136e-09
4.25204e-06
2.88606e-09
4.25166e-06
1.66936e-09
4.2514e-06
4.67277e-10
4.25127e-06
-7.15402e-10
4.25125e-06
-1.87322e-09
4.25134e-06
-3.00017e-09
4.25153e-06
-4.08997e-09
4.25182e-06
-5.13541e-09
4.25218e-06
-6.12867e-09
4.25262e-06
-7.06147e-09
4.25312e-06
-7.92489e-09
4.25367e-06
-8.70917e-09
4.25426e-06
-9.40389e-09
4.25486e-06
-9.99783e-09
4.25548e-06
-1.04791e-08
4.25609e-06
-1.08347e-08
4.25667e-06
-1.10513e-08
4.25721e-06
-1.11144e-08
4.25768e-06
-1.10089e-08
4.25807e-06
-1.07187e-08
4.25836e-06
-1.02267e-08
4.25852e-06
-9.5152e-09
4.25852e-06
-8.56497e-09
4.25836e-06
-7.35597e-09
4.25799e-06
-5.86664e-09
4.2574e-06
-4.07407e-09
4.25657e-06
-1.95371e-09
4.25547e-06
5.20625e-10
4.25407e-06
3.3769e-09
4.25236e-06
6.64551e-09
4.25032e-06
1.03592e-08
4.24793e-06
1.45533e-08
4.24519e-06
1.92659e-08
4.24209e-06
2.45375e-08
4.23864e-06
3.04117e-08
4.23486e-06
3.69344e-08
4.23078e-06
4.41538e-08
4.22644e-06
5.21191e-08
4.22194e-06
6.08799e-08
4.21738e-06
7.0484e-08
4.2129e-06
8.09751e-08
4.20868e-06
9.23894e-08
4.20496e-06
1.04751e-07
4.20205e-06
1.18066e-07
4.20028e-06
1.32316e-07
4.20009e-06
1.47449e-07
4.20195e-06
1.6337e-07
4.20639e-06
1.7993e-07
4.21396e-06
1.96916e-07
4.22518e-06
2.14044e-07
4.24051e-06
2.30952e-07
4.26022e-06
2.47204e-07
4.28431e-06
2.62311e-07
4.31247e-06
2.75761e-07
2.87082e-07
4.34396e-06
4.58011e-06
-5.47161e-09
4.58128e-06
-9.35243e-09
4.58272e-06
-1.07986e-08
4.58417e-06
-9.69068e-09
4.58538e-06
-6.16006e-09
4.58611e-06
-7.43373e-10
4.58622e-06
5.67567e-09
4.58562e-06
1.20829e-08
4.58434e-06
1.75969e-08
4.58247e-06
2.16579e-08
4.58017e-06
2.40831e-08
4.57759e-06
2.50033e-08
4.57488e-06
2.47366e-08
4.57218e-06
2.36598e-08
4.56956e-06
2.21147e-08
4.56708e-06
2.03606e-08
4.56478e-06
1.85644e-08
4.56268e-06
1.68154e-08
4.56076e-06
1.51476e-08
4.55904e-06
1.35627e-08
4.5575e-06
1.2047e-08
4.55612e-06
1.05829e-08
4.55492e-06
9.15473e-09
4.55386e-06
7.75087e-09
4.55296e-06
6.36451e-09
4.5522e-06
4.99278e-09
4.55158e-06
3.63593e-09
4.55108e-06
2.29637e-09
4.55071e-06
9.78143e-10
4.55045e-06
-3.13663e-10
4.5503e-06
-1.57309e-09
4.55025e-06
-2.79324e-09
4.5503e-06
-3.96784e-09
4.55042e-06
-5.08865e-09
4.55061e-06
-6.14677e-09
4.55086e-06
-7.13336e-09
4.55116e-06
-8.03861e-09
4.5515e-06
-8.85195e-09
4.55186e-06
-9.56211e-09
4.55222e-06
-1.01569e-08
4.55257e-06
-1.06237e-08
4.55289e-06
-1.09487e-08
4.55317e-06
-1.11176e-08
4.5534e-06
-1.11153e-08
4.55354e-06
-1.0926e-08
4.55358e-06
-1.05329e-08
4.5535e-06
-9.9186e-09
4.55328e-06
-9.06484e-09
4.55291e-06
-7.95241e-09
4.55235e-06
-6.56126e-09
4.5516e-06
-4.87027e-09
4.55062e-06
-2.85726e-09
4.54941e-06
-4.98912e-10
4.54795e-06
2.22897e-09
4.54622e-06
5.35202e-09
4.54422e-06
8.89735e-09
4.54194e-06
1.28934e-08
4.53937e-06
1.73696e-08
4.53653e-06
2.23569e-08
4.53344e-06
2.78869e-08
4.53011e-06
3.39916e-08
4.52659e-06
4.07032e-08
4.52295e-06
4.80529e-08
4.51925e-06
5.60695e-08
4.5156e-06
6.47787e-08
4.51214e-06
7.42001e-08
4.50901e-06
8.43453e-08
4.50644e-06
9.52148e-08
4.50464e-06
1.06794e-07
4.50391e-06
1.19049e-07
4.50455e-06
1.31922e-07
4.50691e-06
1.45327e-07
4.51138e-06
1.59144e-07
4.51833e-06
1.73217e-07
4.52814e-06
1.87346e-07
4.54113e-06
2.01297e-07
4.55752e-06
2.14795e-07
4.57742e-06
2.27538e-07
4.60074e-06
2.39216e-07
4.6272e-06
2.49529e-07
2.58223e-07
4.65629e-06
4.90091e-06
-6.15563e-09
4.90215e-06
-1.05875e-08
4.9037e-06
-1.23383e-08
4.9053e-06
-1.12815e-08
4.9067e-06
-7.54427e-09
4.90766e-06
-1.68503e-09
4.908e-06
5.35553e-09
4.90763e-06
1.24792e-08
4.90654e-06
1.87112e-08
4.90482e-06
2.34099e-08
4.9026e-06
2.63372e-08
4.90005e-06
2.75997e-08
4.89731e-06
2.7519e-08
4.89453e-06
2.64946e-08
4.8918e-06
2.48998e-08
4.8892e-06
2.3026e-08
4.88676e-06
2.10682e-08
4.88451e-06
1.91367e-08
4.88246e-06
1.728e-08
4.8806e-06
1.55086e-08
4.87893e-06
1.38138e-08
4.87743e-06
1.21797e-08
4.8761e-06
1.05911e-08
4.87493e-06
9.03629e-09
4.87391e-06
7.50787e-09
4.87302e-06
6.00253e-09
4.87227e-06
4.52019e-09
4.87165e-06
3.06325e-09
4.87114e-06
1.63579e-09
4.87073e-06
2.43192e-10
4.87043e-06
-1.10828e-09
4.87021e-06
-2.4101e-09
4.87008e-06
-3.65733e-09
4.87001e-06
-4.84024e-09
4.87e-06
-5.94844e-09
4.87003e-06
-6.97321e-09
4.8701e-06
-7.90381e-09
4.87018e-06
-8.72894e-09
4.87026e-06
-9.43676e-09
4.87034e-06
-1.00142e-08
4.87038e-06
-1.04483e-08
4.87038e-06
-1.07244e-08
4.87032e-06
-1.0828e-08
4.87018e-06
-1.07435e-08
4.86995e-06
-1.04548e-08
4.86961e-06
-9.94512e-09
4.86913e-06
-9.19704e-09
4.86851e-06
-8.19259e-09
4.86772e-06
-6.91317e-09
4.86675e-06
-5.33956e-09
4.86559e-06
-3.4519e-09
4.86422e-06
-1.2298e-09
4.86264e-06
1.3475e-09
4.86083e-06
4.30129e-09
4.8588e-06
7.65357e-09
4.85653e-06
1.14267e-08
4.85405e-06
1.5643e-08
4.85136e-06
2.03251e-08
4.84849e-06
2.54948e-08
4.84548e-06
3.11736e-08
4.84236e-06
3.7381e-08
4.83919e-06
4.41348e-08
4.83607e-06
5.14491e-08
4.83307e-06
5.93341e-08
4.83033e-06
6.77934e-08
4.82797e-06
7.68234e-08
4.82617e-06
8.64105e-08
4.82513e-06
9.65288e-08
4.82505e-06
1.07138e-07
4.82618e-06
1.18182e-07
4.82878e-06
1.29582e-07
4.83312e-06
1.41242e-07
4.83949e-06
1.5304e-07
4.84813e-06
1.64832e-07
4.85928e-06
1.76453e-07
4.87311e-06
1.87719e-07
4.88972e-06
1.98433e-07
4.90912e-06
2.08393e-07
4.93118e-06
2.17403e-07
4.95566e-06
2.25291e-07
2.31923e-07
4.98221e-06
5.24418e-06
-6.87299e-09
5.24549e-06
-1.18914e-08
5.24714e-06
-1.39847e-08
5.24889e-06
-1.30192e-08
5.25048e-06
-9.11584e-09
5.25166e-06
-2.84794e-09
5.25224e-06
4.79548e-09
5.25211e-06
1.26383e-08
5.25124e-06
1.96142e-08
5.24968e-06
2.49963e-08
5.24758e-06
2.84833e-08
5.24507e-06
3.01492e-08
5.24233e-06
3.03118e-08
5.23949e-06
2.93878e-08
5.23667e-06
2.77797e-08
5.23395e-06
2.58112e-08
5.23139e-06
2.37068e-08
5.229e-06
2.16003e-08
5.22681e-06
1.95573e-08
5.22481e-06
1.75993e-08
5.223e-06
1.57239e-08
5.22137e-06
1.39186e-08
5.2199e-06
1.21695e-08
5.21859e-06
1.04649e-08
5.21743e-06
8.79711e-09
5.21641e-06
7.16252e-09
5.21551e-06
5.56076e-09
5.21473e-06
3.99408e-09
5.21405e-06
2.4666e-09
5.21348e-06
9.83905e-10
5.21299e-06
-4.47241e-10
5.21257e-06
-1.81895e-09
5.21223e-06
-3.12388e-09
5.21193e-06
-4.35253e-09
5.21168e-06
-5.49464e-09
5.21145e-06
-6.54033e-09
5.21124e-06
-7.4783e-09
5.21102e-06
-8.29674e-09
5.21079e-06
-8.98351e-09
5.21053e-06
-9.52503e-09
5.21023e-06
-9.90781e-09
5.20986e-06
-1.01175e-08
5.20942e-06
-1.01391e-08
5.20888e-06
-9.95709e-09
5.20824e-06
-9.55575e-09
5.20747e-06
-8.91869e-09
5.20656e-06
-8.02919e-09
5.2055e-06
-6.87025e-09
5.20428e-06
-5.42454e-09
5.20289e-06
-3.67452e-09
5.20132e-06
-1.60256e-09
5.19956e-06
8.08848e-10
5.1976e-06
3.57715e-09
5.19547e-06
6.71979e-09
5.19315e-06
1.02538e-08
5.19066e-06
1.41958e-08
5.18803e-06
1.85611e-08
5.18528e-06
2.33642e-08
5.18244e-06
2.86177e-08
5.17957e-06
3.43322e-08
5.17673e-06
4.05151e-08
5.17398e-06
4.71705e-08
5.17142e-06
5.42976e-08
5.16915e-06
6.189e-08
5.1673e-06
6.99345e-08
5.166e-06
7.84096e-08
5.16541e-06
8.72844e-08
5.1657e-06
9.6517e-08
5.16707e-06
1.06053e-07
5.16971e-06
1.15826e-07
5.17382e-06
1.25755e-07
5.17959e-06
1.35744e-07
5.18723e-06
1.45684e-07
5.19688e-06
1.55455e-07
5.20868e-06
1.64928e-07
5.2227e-06
1.73964e-07
5.23898e-06
1.82428e-07
5.25745e-06
1.90187e-07
5.278e-06
1.9712e-07
5.30043e-06
2.0313e-07
2.08146e-07
5.32446e-06
5.61149e-06
-7.62195e-09
5.61286e-06
-1.32605e-08
5.61462e-06
-1.57312e-08
5.61651e-06
-1.48947e-08
5.61827e-06
-1.08638e-08
5.61966e-06
-4.22115e-09
5.62048e-06
4.00359e-09
5.62058e-06
1.2563e-08
5.61992e-06
2.03018e-08
5.61855e-06
2.64054e-08
5.61657e-06
3.05039e-08
5.61414e-06
3.26308e-08
5.61141e-06
3.30926e-08
5.60854e-06
3.23182e-08
5.60564e-06
3.07365e-08
5.60282e-06
2.87025e-08
5.60014e-06
2.64715e-08
5.59762e-06
2.42026e-08
5.59528e-06
2.19807e-08
5.59314e-06
1.98403e-08
5.59118e-06
1.77871e-08
5.5894e-06
1.58131e-08
5.58779e-06
1.39064e-08
5.58632e-06
1.20561e-08
5.585e-06
1.02545e-08
5.58381e-06
8.49778e-09
5.58274e-06
6.78524e-09
5.58177e-06
5.11895e-09
5.5809e-06
3.50304e-09
5.58012e-06
1.94325e-09
5.57941e-06
4.46535e-10
5.57876e-06
-9.79156e-10
5.57815e-06
-2.32539e-09
5.57759e-06
-3.58261e-09
5.57705e-06
-4.74046e-09
5.57651e-06
-5.78823e-09
5.57598e-06
-6.71459e-09
5.57542e-06
-7.50717e-09
5.57483e-06
-8.15396e-09
5.57419e-06
-8.64112e-09
5.57349e-06
-8.95472e-09
5.57271e-06
-9.0817e-09
5.57183e-06
-9.00638e-09
5.57086e-06
-8.71435e-09
5.56976e-06
-8.19044e-09
5.56854e-06
-7.41936e-09
5.56717e-06
-6.38568e-09
5.56566e-06
-5.07402e-09
5.56399e-06
-3.4691e-09
5.56216e-06
-1.55591e-09
5.56017e-06
6.80055e-10
5.55802e-06
3.25281e-09
5.55572e-06
6.17583e-09
5.55328e-06
9.46168e-09
5.55071e-06
1.31218e-08
5.54805e-06
1.71662e-08
5.54531e-06
2.1603e-08
5.54254e-06
2.64385e-08
5.53979e-06
3.16761e-08
5.53711e-06
3.73161e-08
5.53458e-06
4.33552e-08
5.53227e-06
4.97856e-08
5.53028e-06
5.65945e-08
5.52871e-06
6.37631e-08
5.52769e-06
7.12659e-08
5.52733e-06
7.90703e-08
5.52779e-06
8.71352e-08
5.5292e-06
9.54112e-08
5.53171e-06
1.0384e-07
5.53549e-06
1.12353e-07
5.54066e-06
1.20876e-07
5.54738e-06
1.29323e-07
5.55576e-06
1.37604e-07
5.56589e-06
1.45623e-07
5.57782e-06
1.53283e-07
5.59159e-06
1.60485e-07
5.60717e-06
1.67138e-07
5.62449e-06
1.73156e-07
5.64342e-06
1.78466e-07
5.66382e-06
1.83013e-07
1.86765e-07
5.68548e-06
6.00452e-06
-8.40027e-09
6.00595e-06
-1.4689e-08
6.0078e-06
-1.75682e-08
6.00981e-06
-1.68936e-08
6.01173e-06
-1.27698e-08
6.01332e-06
-5.78396e-09
6.01435e-06
2.9998e-09
6.01467e-06
1.2269e-08
6.01422e-06
2.07824e-08
6.01303e-06
2.76375e-08
6.01119e-06
3.23911e-08
6.00884e-06
3.503e-08
6.00614e-06
3.58436e-08
6.00325e-06
3.52673e-08
6.0003e-06
3.37532e-08
5.9974e-06
3.16868e-08
5.99459e-06
2.93538e-08
5.99195e-06
2.69405e-08
5.98947e-06
2.45524e-08
5.98718e-06
2.2239e-08
5.98506e-06
2.00154e-08
5.98311e-06
1.78794e-08
5.98133e-06
1.58221e-08
5.97968e-06
1.38338e-08
5.97818e-06
1.19073e-08
5.97679e-06
1.00387e-08
5.97551e-06
8.22694e-09
5.97432e-06
6.47405e-09
5.97322e-06
4.78406e-09
5.97218e-06
3.16267e-09
5.97121e-06
1.617e-09
5.97027e-06
1.55093e-10
5.96937e-06
-1.2141e-09
5.96849e-06
-2.48101e-09
5.96761e-06
-3.63507e-09
5.96672e-06
-4.66524e-09
5.9658e-06
-5.56024e-09
5.96485e-06
-6.30808e-09
5.96385e-06
-6.89614e-09
5.96278e-06
-7.31137e-09
5.96163e-06
-7.54039e-09
5.96039e-06
-7.56989e-09
5.95905e-06
-7.38597e-09
5.95759e-06
-6.97487e-09
5.95601e-06
-6.32267e-09
5.9543e-06
-5.41597e-09
5.95245e-06
-4.24092e-09
5.95046e-06
-2.78466e-09
5.94833e-06
-1.03458e-09
5.94607e-06
1.02109e-09
5.94366e-06
3.39327e-09
5.94114e-06
6.09202e-09
5.93851e-06
9.12607e-09
5.93578e-06
1.25027e-08
5.933e-06
1.62274e-08
5.93018e-06
2.03037e-08
5.92738e-06
2.47326e-08
5.92463e-06
2.95125e-08
5.92199e-06
3.46386e-08
5.91953e-06
4.01027e-08
5.91732e-06
4.58923e-08
5.91545e-06
5.19908e-08
5.91399e-06
5.83764e-08
5.91306e-06
6.50223e-08
5.91276e-06
7.18958e-08
5.9132e-06
7.89583e-08
5.91449e-06
8.61651e-08
5.91676e-06
9.34656e-08
5.92012e-06
1.00803e-07
5.92468e-06
1.08116e-07
5.93054e-06