/*--------------------------------*- C++ -*----------------------------------*\
| =========                 |                                                 |
| \\      /  F ield         | OpenFOAM: The Open Source CFD Toolbox           |
|  \\    /   O peration     | Version:  5.x                                   |
|   \\  /    A nd           | Web:      www.OpenFOAM.org                      |
|    \\/     M anipulation  |                                                 |
\*---------------------------------------------------------------------------*/
FoamFile
{
    version     2.0;
    format      ascii;
    class       volVectorField;
    location    "1";
    object      cellDisplacement;
}
// * * * * * * * * * * * * * * * * * * * * * * * * * * * * * * * * * * * * * //

dimensions      [0 1 0 0 0 0 0];

internalField   nonuniform List<vector> 
2790
(
(0.0107256 0 -3.67671e-05)
(0.0306162 0 -0.000105355)
(0.0475744 0 -0.000165536)
(0.0618593 0 -0.000218479)
(0.0737582 0 -0.000265567)
(0.0835146 0 -0.000307704)
(0.0913376 0 -0.000345499)
(0.0974111 0 -0.000378938)
(0.101898 0 -0.000408202)
(0.104938 0 -0.000433209)
(0.106653 0 -0.000453661)
(0.10715 0 -0.000469074)
(0.106524 0 -0.000478793)
(0.104858 0 -0.000482086)
(0.102236 0 -0.000478912)
(0.0987243 0 -0.000465971)
(0.0943898 0 -0.000442701)
(0.0892974 0 -0.000407403)
(0.0835121 0 -0.000357961)
(0.0771013 0 -0.000291899)
(0.0701375 0 -0.000206351)
(0.0627016 0 -9.80474e-05)
(0.0548873 0 3.66509e-05)
(0.0468003 0 0.00020201)
(0.0385634 0 0.000402964)
(0.0303628 0 0.000646597)
(0.0224445 0 0.00093906)
(0.0151726 0 0.00128629)
(0.00915112 0 0.00168426)
(0.00568339 0 0.00206856)
(0.0107393 0 -0.000110421)
(0.0306591 0 -0.000316427)
(0.0476441 0 -0.000497332)
(0.0619543 0 -0.000656456)
(0.0738825 0 -0.000798071)
(0.0836719 0 -0.00092488)
(0.0915309 0 -0.00103884)
(0.0976441 0 -0.0011397)
(0.102176 0 -0.00122816)
(0.105268 0 -0.00130396)
(0.107041 0 -0.00136626)
(0.107605 0 -0.00141361)
(0.107053 0 -0.00144403)
(0.105471 0 -0.00145498)
(0.102942 0 -0.00144345)
(0.0995411 0 -0.00140633)
(0.0953314 0 -0.00133919)
(0.0903814 0 -0.00123676)
(0.0847591 0 -0.00109287)
(0.0785352 0 -0.000900326)
(0.0717866 0 -0.000650868)
(0.0646 0 -0.000335027)
(0.0570832 0 5.7422e-05)
(0.0493596 0 0.000538627)
(0.0415519 0 0.00112404)
(0.0338531 0 0.00182813)
(0.0265471 0 0.00266217)
(0.0200178 0 0.00363265)
(0.015027 0 0.00471531)
(0.0129842 0 0.00568593)
(0.0107675 0 -0.000184408)
(0.0307482 0 -0.000528485)
(0.0477868 0 -0.000829493)
(0.062147 0 -0.00109493)
(0.0741342 0 -0.0013314)
(0.0839899 0 -0.0015433)
(0.0919207 0 -0.00173443)
(0.0981121 0 -0.00190352)
(0.102734 0 -0.00205232)
(0.105927 0 -0.00218044)
(0.107816 0 -0.00228651)
(0.10851 0 -0.00236826)
(0.108108 0 -0.00242252)
(0.106696 0 -0.00244506)
(0.104357 0 -0.00242984)
(0.101171 0 -0.00237464)
(0.0972084 0 -0.00227143)
(0.0925409 0 -0.00211177)
(0.0872415 0 -0.00188599)
(0.0813869 0 -0.00158296)
(0.0750614 0 -0.00119001)
(0.0683565 0 -0.000692438)
(0.0614073 0 -7.62785e-05)
(0.054355 0 0.000676408)
(0.0473759 0 0.0015841)
(0.0406947 0 0.00266051)
(0.0346391 0 0.00391139)
(0.0295763 0 0.00533222)
(0.0262508 0 0.00683584)
(0.0264968 0 0.00802126)
(0.0108093 0 -0.000258427)
(0.0308663 0 -0.000740518)
(0.047985 0 -0.00116192)
(0.0624329 0 -0.00153429)
(0.0745091 0 -0.00186621)
(0.0844646 0 -0.00216375)
(0.0924998 0 -0.00243035)
(0.0988062 0 -0.00266833)
(0.103561 0 -0.00287884)
(0.106905 0 -0.00306125)
(0.108964 0 -0.00321376)
(0.109852 0 -0.00333346)
(0.109669 0 -0.0034163)
(0.108507 0 -0.00345701)
(0.106453 0 -0.00344903)
(0.103588 0 -0.00338614)
(0.099992 0 -0.00325967)
(0.0957433 0 -0.00305902)
(0.0909228 0 -0.00277198)
(0.0856175 0 -0.0023848)
(0.0799263 0 -0.00188243)
(0.0739532 0 -0.00124772)
(0.0678319 0 -0.00046256)
(0.0617456 0 0.000488632)
(0.0559016 0 0.00162123)
(0.0505982 0 0.00294046)
(0.0462518 0 0.00442942)
(0.0433396 0 0.0060322)
(0.0423525 0 0.0076178)
(0.0453108 0 0.00860811)
(0.0108644 0 -0.000332059)
(0.0310274 0 -0.000951684)
(0.0482524 0 -0.00149448)
(0.0628107 0 -0.00197417)
(0.075003 0 -0.00240219)
(0.0850812 0 -0.00278612)
(0.0932555 0 -0.00312958)
(0.0997217 0 -0.00343854)
(0.104653 0 -0.00371328)
(0.108195 0 -0.0039532)
(0.11048 0 -0.00415631)
(0.111622 0 -0.00431928)
(0.111728 0 -0.00443749)
(0.110895 0 -0.00450498)
(0.109213 0 -0.0045143)
(0.106769 0 -0.00445696)
(0.103653 0 -0.00432422)
(0.0999523 0 -0.00410407)
(0.095757 0 -0.00378289)
(0.0911642 0 -0.00334554)
(0.0862767 0 -0.00277485)
(0.0812564 0 -0.00205922)
(0.0762335 0 -0.00117958)
(0.0714157 0 -0.000125547)
(0.0670495 0 0.00110805)
(0.063448 0 0.00251156)
(0.0611051 0 0.00403005)
(0.0606754 0 0.00553361)
(0.0626324 0 0.00684026)
(0.0683317 0 0.00729702)
(0.0109322 0 -0.000405225)
(0.0312291 0 -0.00116168)
(0.0485845 0 -0.00182536)
(0.0632752 0 -0.00241209)
(0.0756093 0 -0.00293642)
(0.085841 0 -0.00340773)
(0.0941886 0 -0.00383193)
(0.100849 0 -0.00421426)
(0.105997 0 -0.00455619)
(0.109783 0 -0.00485746)
(0.112343 0 -0.00511613)
(0.113797 0 -0.00532871)
(0.114257 0 -0.00549038)
(0.113826 0 -0.00559501)
(0.112601 0 -0.00563449)
(0.110668 0 -0.00559822)
(0.108138 0 -0.00547986)
(0.105107 0 -0.00526637)
(0.101676 0 -0.00494421)
(0.0979612 0 -0.00449938)
(0.0940762 0 -0.00391566)
(0.0901776 0 -0.00318073)
(0.0864566 0 -0.002287)
(0.0831407 0 -0.00123244)
(0.0805467 0 -3.3933e-05)
(0.0789943 0 0.00127537)
(0.0789119 0 0.00261673)
(0.0811185 0 0.00378098)
(0.0861019 0 0.0045085)
(0.0944222 0 0.00421699)
(0.011012 0 -0.000478175)
(0.0314702 0 -0.00137125)
(0.0489777 0 -0.0021544)
(0.0638207 0 -0.00284782)
(0.0763217 0 -0.00346875)
(0.0867351 0 -0.00402835)
(0.0952852 0 -0.00453427)
(0.102172 0 -0.00499204)
(0.107573 0 -0.00540411)
(0.111645 0 -0.00577076)
(0.114526 0 -0.00609034)
(0.116343 0 -0.00635953)
(0.117215 0 -0.00657367)
(0.117253 0 -0.00672729)
(0.116562 0 -0.00681264)
(0.115243 0 -0.00682043)
(0.113395 0 -0.00674001)
(0.111142 0 -0.00656244)
(0.108597 0 -0.00627556)
(0.10589 0 -0.00586753)
(0.103166 0 -0.00532775)
(0.10059 0 -0.0046481)
(0.0983848 0 -0.0038316)
(0.0967929 0 -0.00288692)
(0.0961349 0 -0.00184829)
(0.0968628 0 -0.000797407)
(0.0993181 0 0.000167713)
(0.10415 0 0.000809694)
(0.111928 0 0.000796576)
(0.122638 0 -0.000314981)
(0.0111026 0 -0.000550773)
(0.0317318 0 -0.00157944)
(0.0494137 0 -0.00248194)
(0.0644431 0 -0.00328288)
(0.0771368 0 -0.0040013)
(0.0877588 0 -0.00465058)
(0.0965398 0 -0.00524)
(0.103684 0 -0.00577592)
(0.109373 0 -0.00626176)
(0.113769 0 -0.0066986)
(0.117015 0 -0.00708534)
(0.119245 0 -0.00741904)
(0.120581 0 -0.0076954)
(0.121148 0 -0.00791079)
(0.121059 0 -0.00805798)
(0.120429 0 -0.00812987)
(0.119348 0 -0.00811155)
(0.117971 0 -0.00800148)
(0.116423 0 -0.00778927)
(0.114851 0 -0.00746721)
(0.113417 0 -0.00703003)
(0.112296 0 -0.00647515)
(0.111777 0 -0.00582443)
(0.112118 0 -0.00510231)
(0.113585 0 -0.00434992)
(0.116698 0 -0.00368643)
(0.121817 0 -0.00325141)
(0.129263 0 -0.00325881)
(0.139611 0 -0.00406718)
(0.152371 0 -0.00595393)
(0.0112032 0 -0.000622573)
(0.0320263 0 -0.00178573)
(0.0499038 0 -0.00280803)
(0.0651377 0 -0.00371661)
(0.0780465 0 -0.00453325)
(0.0889013 0 -0.00527349)
(0.0979388 0 -0.00594825)
(0.105368 0 -0.00656502)
(0.111377 0 -0.00712831)
(0.116131 0 -0.0076403)
(0.119781 0 -0.00810065)
(0.122465 0 -0.0085071)
(0.124311 0 -0.00885528)
(0.125461 0 -0.00914565)
(0.12603 0 -0.00937078)
(0.126141 0 -0.0095242)
(0.125915 0 -0.00959772)
(0.125496 0 -0.00958742)
(0.125037 0 -0.00948934)
(0.124695 0 -0.00930046)
(0.124683 0 -0.00902864)
(0.125178 0 -0.00867669)
(0.12644 0 -0.00826959)
(0.128822 0 -0.00786396)
(0.132614 0 -0.0075198)
(0.138152 0 -0.00734605)
(0.145904 0 -0.00753307)
(0.155974 0 -0.00826474)
(0.168713 0 -0.00986097)
(0.183261 0 -0.0124432)
(0.0113126 0 -0.000693449)
(0.0323493 0 -0.00198964)
(0.0504397 0 -0.00313054)
(0.065895 0 -0.00414619)
(0.0790376 0 -0.0050611)
(0.0901455 0 -0.00589298)
(0.0994613 0 -0.00665447)
(0.1072 0 -0.00735435)
(0.113553 0 -0.00799835)
(0.118695 0 -0.00859022)
(0.122781 0 -0.00913058)
(0.125956 0 -0.00961844)
(0.128363 0 -0.0100525)
(0.13014 0 -0.0104316)
(0.131416 0 -0.0107511)
(0.132324 0 -0.0110073)
(0.133006 0 -0.0111969)
(0.13361 0 -0.0113177)
(0.134313 0 -0.0113731)
(0.135295 0 -0.0113673)
(0.136754 0 -0.0113095)
(0.138962 0 -0.0112289)
(0.142139 0 -0.011151)
(0.146614 0 -0.0111383)
(0.15278 0 -0.0112915)
(0.160819 0 -0.0117009)
(0.171201 0 -0.0125743)
(0.183863 0 -0.0140625)
(0.198872 0 -0.0164169)
(0.215041 0 -0.01963)
(0.0114304 0 -0.000763584)
(0.0326981 0 -0.00219167)
(0.0510184 0 -0.00345042)
(0.0667114 0 -0.00457297)
(0.0801056 0 -0.00558657)
(0.0914857 0 -0.00651115)
(0.1011 0 -0.00736113)
(0.109169 0 -0.00814666)
(0.115891 0 -0.00887474)
(0.121447 0 -0.0095514)
(0.125997 0 -0.0101782)
(0.129694 0 -0.0107558)
(0.132689 0 -0.0112848)
(0.135127 0 -0.011765)
(0.137145 0 -0.0121946)
(0.138889 0 -0.0125729)
(0.140519 0 -0.0129023)
(0.142182 0 -0.0131815)
(0.144092 0 -0.0134251)
(0.146453 0 -0.0136462)
(0.149457 0 -0.0138582)
(0.15337 0 -0.014095)
(0.158514 0 -0.014415)
(0.165131 0 -0.0148715)
(0.17364 0 -0.0155834)
(0.184253 0 -0.0166555)
(0.197261 0 -0.0182638)
(0.212511 0 -0.0205282)
(0.229733 0 -0.0236137)
(0.247415 0 -0.0274114)
(0.0115558 0 -0.00083282)
(0.0330696 0 -0.0023913)
(0.0516341 0 -0.00376688)
(0.067579 0 -0.0049959)
(0.0812401 0 -0.00610836)
(0.0929084 0 -0.00712644)
(0.102838 0 -0.00806641)
(0.111255 0 -0.00893992)
(0.118363 0 -0.00975479)
(0.124354 0 -0.0105208)
(0.12939 0 -0.0112398)
(0.13363 0 -0.0119142)
(0.137237 0 -0.0125473)
(0.140359 0 -0.0131403)
(0.143144 0 -0.0136943)
(0.145744 0 -0.0142115)
(0.148353 0 -0.0147036)
(0.15112 0 -0.0151722)
(0.154239 0 -0.0156306)
(0.157963 0 -0.0161077)
(0.162525 0 -0.0166322)
(0.168154 0 -0.017237)
(0.175209 0 -0.0179976)
(0.183992 0 -0.0189904)
(0.194801 0 -0.0203149)
(0.20797 0 -0.0221087)
(0.223535 0 -0.0244812)
(0.241393 0 -0.0275453)
(0.260815 0 -0.0313409)
(0.279959 0 -0.03569)
(0.0116865 0 -0.000900596)
(0.0334577 0 -0.00258696)
(0.0522774 0 -0.00407749)
(0.0684852 0 -0.00541172)
(0.0824246 0 -0.00662243)
(0.0943932 0 -0.00773409)
(0.104652 0 -0.00876492)
(0.113428 0 -0.00972824)
(0.120943 0 -0.0106354)
(0.127388 0 -0.0114952)
(0.132924 0 -0.0123114)
(0.137724 0 -0.0130896)
(0.141955 0 -0.0138347)
(0.145771 0 -0.0145497)
(0.149334 0 -0.0152407)
(0.152814 0 -0.0159151)
(0.156383 0 -0.0165822)
(0.160251 0 -0.0172609)
(0.164595 0 -0.0179643)
(0.169649 0 -0.0187221)
(0.175697 0 -0.0195819)
(0.183017 0 -0.0205955)
(0.191882 0 -0.0218262)
(0.202695 0 -0.0233854)
(0.215684 0 -0.0253598)
(0.231242 0 -0.0279049)
(0.249267 0 -0.03108)
(0.269731 0 -0.034985)
(0.2913 0 -0.0394678)
(0.311944 0 -0.0443559)
(0.0118217 0 -0.000967033)
(0.03386 0 -0.00277901)
(0.0529451 0 -0.00438287)
(0.069426 0 -0.00582128)
(0.083654 0 -0.00712983)
(0.0959336 0 -0.00833525)
(0.106532 0 -0.00945783)
(0.115685 0 -0.0105133)
(0.123616 0 -0.0115146)
(0.130517 0 -0.0124706)
(0.13656 0 -0.0133877)
(0.141924 0 -0.0142744)
(0.146783 0 -0.015138)
(0.151292 0 -0.0159823)
(0.155634 0 -0.0168204)
(0.159981 0 -0.017663)
(0.164513 0 -0.0185227)
(0.169423 0 -0.0194185)
(0.174947 0 -0.0203827)
(0.181294 0 -0.0214444)
(0.188731 0 -0.0226534)
(0.19759 0 -0.024085)
(0.208109 0 -0.0258013)
(0.220703 0 -0.0279273)
(0.235619 0 -0.0305619)
(0.253197 0 -0.0338525)
(0.273387 0 -0.037858)
(0.296113 0 -0.0426356)
(0.319639 0 -0.0478281)
(0.341994 0 -0.0533084)
(0.0119606 0 -0.00103194)
(0.0342732 0 -0.00296685)
(0.0536313 0 -0.00468205)
(0.0703928 0 -0.00622326)
(0.0849171 0 -0.00762881)
(0.0975147 0 -0.00892774)
(0.10846 0 -0.0101423)
(0.117993 0 -0.0112904)
(0.126345 0 -0.0123874)
(0.133708 0 -0.013442)
(0.140257 0 -0.0144624)
(0.146189 0 -0.0154623)
(0.151674 0 -0.01645)
(0.156878 0 -0.0174328)
(0.161977 0 -0.0184235)
(0.167144 0 -0.0194353)
(0.172601 0 -0.0204955)
(0.178517 0 -0.0216205)
(0.185112 0 -0.0228432)
(0.19265 0 -0.024214)
(0.201347 0 -0.0257766)
(0.211535 0 -0.0276154)
(0.223487 0 -0.0298118)
(0.237522 0 -0.0324792)
(0.253913 0 -0.0357365)
(0.272905 0 -0.0397246)
(0.294451 0 -0.0445207)
(0.318323 0 -0.0501602)
(0.342808 0 -0.0561841)
(0.367286 0 -0.0626277)
(0.00772396 0 -0.0028502)
(0.0164088 0 -0.00326595)
(0.0336815 0 -0.0037642)
(0.0583835 0 -0.00425453)
(0.0876051 0 -0.00467044)
(0.117778 0 -0.0049406)
(0.145919 0 -0.00507085)
(0.170405 0 -0.00508826)
(0.190682 0 -0.00499467)
(0.206823 0 -0.00481286)
(0.219224 0 -0.00460081)
(0.228324 0 -0.00437956)
(0.234514 0 -0.00411697)
(0.238111 0 -0.00385215)
(0.239383 0 -0.00360155)
(0.238511 0 -0.00332941)
(0.23564 0 -0.00307392)
(0.230843 0 -0.00282849)
(0.224166 0 -0.00258641)
(0.21561 0 -0.00235269)
(0.205172 0 -0.0021259)
(0.192811 0 -0.00190574)
(0.178476 0 -0.00168876)
(0.162103 0 -0.0014769)
(0.143607 0 -0.00126264)
(0.122918 0 -0.00105246)
(0.0998969 0 -0.000838769)
(0.0744648 0 -0.000617219)
(0.0465436 0 -0.000383495)
(0.0159726 0 -0.000131966)
(0.0139366 0 -0.0086454)
(0.0232856 0 -0.00986887)
(0.040942 0 -0.0113231)
(0.0654036 0 -0.0126979)
(0.0939877 0 -0.0138598)
(0.123302 0 -0.0146348)
(0.150548 0 -0.0149776)
(0.174196 0 -0.0149824)
(0.193732 0 -0.0146969)
(0.209278 0 -0.0141905)
(0.221205 0 -0.0135641)
(0.229914 0 -0.01289)
(0.235791 0 -0.0121493)
(0.239141 0 -0.0113656)
(0.240218 0 -0.01061)
(0.239192 0 -0.00983061)
(0.236197 0 -0.00908094)
(0.231305 0 -0.00836218)
(0.224551 0 -0.00764646)
(0.215934 0 -0.00695877)
(0.205446 0 -0.00628965)
(0.193048 0 -0.00564109)
(0.178681 0 -0.00499902)
(0.162288 0 -0.00437531)
(0.143766 0 -0.0037508)
(0.123038 0 -0.00312901)
(0.0999918 0 -0.00249504)
(0.0745382 0 -0.00183676)
(0.0465934 0 -0.00114159)
(0.0159919 0 -0.000392919)
(0.0256478 0 -0.0146569)
(0.0364433 0 -0.0167067)
(0.0545731 0 -0.0189504)
(0.0785684 0 -0.0210653)
(0.105989 0 -0.0227816)
(0.133729 0 -0.0239331)
(0.159317 0 -0.0244295)
(0.181399 0 -0.0243465)
(0.19958 0 -0.0238528)
(0.21401 0 -0.0230651)
(0.225008 0 -0.0220369)
(0.232975 0 -0.0209149)
(0.238257 0 -0.0197316)
(0.241131 0 -0.018479)
(0.241834 0 -0.017239)
(0.240512 0 -0.016001)
(0.237278 0 -0.0147886)
(0.2322 0 -0.0136121)
(0.225302 0 -0.0124658)
(0.216566 0 -0.0113543)
(0.205981 0 -0.0102653)
(0.193513 0 -0.00921541)
(0.179081 0 -0.00818027)
(0.162622 0 -0.0071681)
(0.144046 0 -0.00615936)
(0.123263 0 -0.00514386)
(0.100172 0 -0.00410462)
(0.0746752 0 -0.00302333)
(0.0466844 0 -0.00187984)
(0.0160261 0 -0.000647151)
(0.0423375 0 -0.0210723)
(0.0547731 0 -0.0238243)
(0.0732648 0 -0.0266797)
(0.0966634 0 -0.029386)
(0.122518 0 -0.0314978)
(0.148194 0 -0.0328588)
(0.171549 0 -0.0334097)
(0.191495 0 -0.0332027)
(0.207833 0 -0.0324725)
(0.220695 0 -0.0313803)
(0.230395 0 -0.0299827)
(0.237325 0 -0.0284456)
(0.241766 0 -0.0268282)
(0.243975 0 -0.0251545)
(0.244146 0 -0.0234758)
(0.242402 0 -0.0218096)
(0.238832 0 -0.0201693)
(0.233483 0 -0.0185676)
(0.226367 0 -0.017017)
(0.217471 0 -0.0155166)
(0.206748 0 -0.0140478)
(0.194159 0 -0.012626)
(0.179628 0 -0.0112308)
(0.16308 0 -0.00985421)
(0.144427 0 -0.00847878)
(0.123574 0 -0.00708756)
(0.100419 0 -0.00565955)
(0.0748619 0 -0.00417079)
(0.0468066 0 -0.00259424)
(0.0160712 0 -0.000893212)
(0.0632166 0 -0.0279261)
(0.0770609 0 -0.0311898)
(0.0958723 0 -0.0345575)
(0.118496 0 -0.0376805)
(0.14256 0 -0.0400492)
(0.165788 0 -0.041467)
(0.186466 0 -0.0419237)
(0.203884 0 -0.0415334)
(0.217989 0 -0.0405312)
(0.228943 0 -0.0391046)
(0.237081 0 -0.0373643)
(0.242736 0 -0.0354438)
(0.246147 0 -0.0334295)
(0.247532 0 -0.0313628)
(0.247042 0 -0.0292838)
(0.244775 0 -0.0272267)
(0.240784 0 -0.0251932)
(0.235105 0 -0.0232219)
(0.227718 0 -0.0213008)
(0.218601 0 -0.0194449)
(0.2077 0 -0.017637)
(0.194959 0 -0.015874)
(0.180301 0 -0.0141406)
(0.163643 0 -0.0124223)
(0.144894 0 -0.0106999)
(0.123954 0 -0.00895182)
(0.100721 0 -0.00715284)
(0.0750871 0 -0.00527379)
(0.0469521 0 -0.00328133)
(0.0161241 0 -0.00112985)
(0.0874147 0 -0.0351648)
(0.102411 0 -0.0388425)
(0.121437 0 -0.0426227)
(0.143115 0 -0.0460063)
(0.165165 0 -0.0484589)
(0.185606 0 -0.0497548)
(0.203307 0 -0.0499878)
(0.217908 0 -0.049322)
(0.229517 0 -0.0480038)
(0.238348 0 -0.0462391)
(0.244731 0 -0.0441577)
(0.248945 0 -0.0418797)
(0.25119 0 -0.0395022)
(0.251641 0 -0.0370778)
(0.250396 0 -0.0346345)
(0.247533 0 -0.0322297)
(0.243063 0 -0.0298574)
(0.236995 0 -0.0275556)
(0.229295 0 -0.0253174)
(0.219919 0 -0.0231439)
(0.208805 0 -0.0210241)
(0.195884 0 -0.0189482)
(0.181075 0 -0.0169006)
(0.164288 0 -0.0148635)
(0.145427 0 -0.0128149)
(0.124387 0 -0.0107296)
(0.101062 0 -0.00857858)
(0.0753401 0 -0.00632774)
(0.0471138 0 -0.00393811)
(0.0161823 0 -0.001356)
(0.114092 0 -0.0427409)
(0.130068 0 -0.0467998)
(0.149176 0 -0.0508928)
(0.169671 0 -0.0543569)
(0.18938 0 -0.0566732)
(0.206766 0 -0.0576743)
(0.221286 0 -0.0575545)
(0.232903 0 -0.0565319)
(0.241873 0 -0.0548589)
(0.248466 0 -0.0527502)
(0.252992 0 -0.0503382)
(0.255675 0 -0.0477294)
(0.256675 0 -0.0450205)
(0.256131 0 -0.0422802)
(0.254085 0 -0.0395296)
(0.250578 0 -0.0368237)
(0.245591 0 -0.0341685)
(0.239097 0 -0.0315809)
(0.231047 0 -0.0290604)
(0.221381 0 -0.026604)
(0.210027 0 -0.0242015)
(0.196905 0 -0.0218403)
(0.181926 0 -0.0195034)
(0.164994 0 -0.0171705)
(0.146007 0 -0.0148172)
(0.124856 0 -0.0124152)
(0.101429 0 -0.00993184)
(0.0756106 0 -0.00732879)
(0.047285 0 -0.00456209)
(0.0162433 0 -0.00157075)
(0.142605 0 -0.0506677)
(0.159468 0 -0.0550837)
(0.17845 0 -0.0593534)
(0.197381 0 -0.0626716)
(0.214342 0 -0.0646014)
(0.228452 0 -0.0651381)
(0.239661 0 -0.0645526)
(0.248231 0 -0.0631097)
(0.254527 0 -0.0610578)
(0.258861 0 -0.0586065)
(0.261516 0 -0.0558838)
(0.262649 0 -0.0529755)
(0.262403 0 -0.049987)
(0.260851 0 -0.0469784)
(0.257995 0 -0.0439801)
(0.253822 0 -0.0410251)
(0.248289 0 -0.0381261)
(0.241344 0 -0.0352929)
(0.232921 0 -0.0325256)
(0.222944 0 -0.0298194)
(0.211331 0 -0.0271638)
(0.197991 0 -0.0245446)
(0.182828 0 -0.0219434)
(0.165739 0 -0.0193379)
(0.146615 0 -0.0167017)
(0.125345 0 -0.014004)
(0.10181 0 -0.0112086)
(0.0758889 0 -0.00827385)
(0.0474597 0 -0.00515122)
(0.0163049 0 -0.00177339)
(0.172551 0 -0.0589787)
(0.190195 0 -0.0636917)
(0.208675 0 -0.0679309)
(0.225494 0 -0.0708213)
(0.239287 0 -0.0721263)
(0.249903 0 -0.0720345)
(0.257743 0 -0.0708939)
(0.263299 0 -0.0689933)
(0.266985 0 -0.0665582)
(0.269123 0 -0.0637774)
(0.269975 0 -0.0607765)
(0.269638 0 -0.0576242)
(0.268202 0 -0.0544147)
(0.26567 0 -0.0511943)
(0.262009 0 -0.047993)
(0.257167 0 -0.0448347)
(0.25108 0 -0.0417318)
(0.243673 0 -0.0386909)
(0.234864 0 -0.0357114)
(0.224564 0 -0.0327873)
(0.212679 0 -0.0299077)
(0.199111 0 -0.0270573)
(0.183754 0 -0.0242165)
(0.166499 0 -0.0213617)
(0.147234 0 -0.0184647)
(0.12584 0 -0.0154923)
(0.102193 0 -0.0124059)
(0.0761657 0 -0.00916047)
(0.047632 0 -0.00570392)
(0.0163652 0 -0.00196335)
(0.203697 0 -0.0676758)
(0.221899 0 -0.0725646)
(0.239223 0 -0.0764665)
(0.253203 0 -0.0785993)
(0.263395 0 -0.079056)
(0.270379 0 -0.078218)
(0.274892 0 -0.076476)
(0.277571 0 -0.0741165)
(0.278803 0 -0.0713196)
(0.278934 0 -0.0682584)
(0.278138 0 -0.0650281)
(0.276463 0 -0.0616943)
(0.273916 0 -0.0583176)
(0.270455 0 -0.0549365)
(0.266018 0 -0.0515771)
(0.260525 0 -0.0482582)
(0.25389 0 -0.0449902)
(0.246023 0 -0.0417776)
(0.236826 0 -0.038619)
(0.226198 0 -0.0355076)
(0.214037 0 -0.0324321)
(0.200234 0 -0.0293766)
(0.184679 0 -0.0263206)
(0.167256 0 -0.0232394)
(0.147845 0 -0.0201034)
(0.126324 0 -0.0168776)
(0.102564 0 -0.0135214)
(0.0764326 0 -0.0099869)
(0.0477964 0 -0.00621901)
(0.0164222 0 -0.00214022)
(0.235905 0 -0.0767228)
(0.254178 0 -0.0815617)
(0.269294 0 -0.0846882)
(0.279583 0 -0.0857164)
(0.285817 0 -0.0851559)
(0.289164 0 -0.083523)
(0.29052 0 -0.0811904)
(0.290584 0 -0.0784175)
(0.289683 0 -0.0753315)
(0.288079 0 -0.0720601)
(0.285844 0 -0.0686689)
(0.28297 0 -0.0652064)
(0.27941 0 -0.0617132)
(0.275091 0 -0.0582189)
(0.269925 0 -0.0547447)
(0.263812 0 -0.0513051)
(0.256651 0 -0.0479086)
(0.248335 0 -0.0445582)
(0.238757 0 -0.0412517)
(0.227805 0 -0.0379822)
(0.215369 0 -0.0347378)
(0.201333 0 -0.0315023)
(0.185579 0 -0.0282548)
(0.167987 0 -0.0249697)
(0.148432 0 -0.0216164)
(0.126785 0 -0.0181586)
(0.102914 0 -0.0145537)
(0.0766814 0 -0.0107519)
(0.0479481 0 -0.00669571)
(0.0164742 0 -0.00230373)
(0.269045 0 -0.0860403)
(0.286331 0 -0.0903887)
(0.297748 0 -0.092167)
(0.303549 0 -0.0918007)
(0.305685 0 -0.0901659)
(0.305603 0 -0.087788)
(0.304229 0 -0.0849722)
(0.302103 0 -0.0818824)
(0.299462 0 -0.078605)
(0.29641 0 -0.0752039)
(0.292949 0 -0.0717191)
(0.289029 0 -0.0681828)
(0.284571 0 -0.0646224)
(0.279479 0 -0.0610596)
(0.273645 0 -0.0575108)
(0.266957 0 -0.0539876)
(0.2593 0 -0.0504967)
(0.250558 0 -0.0470401)
(0.240613 0 -0.0436153)
(0.229349 0 -0.040215)
(0.216644 0 -0.0368273)
(0.20238 0 -0.033436)
(0.186432 0 -0.0300198)
(0.168674 0 -0.0265527)
(0.148978 0 -0.0230033)
(0.12721 0 -0.0193344)
(0.103233 0 -0.0155021)
(0.076905 0 -0.011455)
(0.0480825 0 -0.00713362)
(0.0165197 0 -0.00245373)
(0.302768 0 -0.0954331)
(0.316898 0 -0.0984389)
(0.322988 0 -0.0982815)
(0.323864 0 -0.0964171)
(0.322266 0 -0.0938539)
(0.319374 0 -0.0909251)
(0.315878 0 -0.087798)
(0.312069 0 -0.084536)
(0.308048 0 -0.0811687)
(0.303825 0 -0.0777196)
(0.299349 0 -0.0742069)
(0.294544 0 -0.0706506)
(0.289311 0 -0.0670694)
(0.283539 0 -0.0634794)
(0.277108 0 -0.0598933)
(0.269897 0 -0.0563205)
(0.261784 0 -0.0527665)
(0.252644 0 -0.049233)
(0.242356 0 -0.045717)
(0.230794 0 -0.0422114)
(0.217834 0 -0.0387046)
(0.20335 0 -0.0351803)
(0.187216 0 -0.0316173)
(0.169299 0 -0.0279894)
(0.149468 0 -0.0242647)
(0.127586 0 -0.0204054)
(0.103511 0 -0.0163667)
(0.0770966 0 -0.012096)
(0.0481957 0 -0.00753264)
(0.0165574 0 -0.00259022)
(0.335577 0 -0.104239)
(0.343058 0 -0.104558)
(0.343045 0 -0.102236)
(0.339799 0 -0.0992257)
(0.335362 0 -0.096087)
(0.330492 0 -0.0929111)
(0.325489 0 -0.0896917)
(0.320456 0 -0.0864115)
(0.315397 0 -0.0830625)
(0.310267 0 -0.0796467)
(0.304977 0 -0.0761674)
(0.299447 0 -0.0726411)
(0.293564 0 -0.0690819)
(0.287209 0 -0.0655021)
(0.280257 0 -0.0619122)
(0.272582 0 -0.0583205)
(0.264057 0 -0.0547319)
(0.254555 0 -0.0511478)
(0.243949 0 -0.0475656)
(0.23211 0 -0.0439785)
(0.218911 0 -0.040375)
(0.204222 0 -0.0367392)
(0.187912 0 -0.0330502)
(0.169847 0 -0.0292818)
(0.149891 0 -0.0254019)
(0.127903 0 -0.0213723)
(0.10374 0 -0.0171479)
(0.0772505 0 -0.0126752)
(0.0482843 0 -0.00789302)
(0.0165863 0 -0.00271329)
(0.361887 0 -0.110111)
(0.362859 0 -0.10716)
(0.357318 0 -0.103239)
(0.351254 0 -0.0999153)
(0.345108 0 -0.096829)
(0.339038 0 -0.0937885)
(0.333089 0 -0.0907109)
(0.327248 0 -0.0875628)
(0.32147 0 -0.0843339)
(0.315687 0 -0.0810272)
(0.309795 0 -0.0776417)
(0.303693 0 -0.0741891)
(0.297284 0 -0.0706897)
(0.290443 0 -0.0671532)
(0.283047 0 -0.0635892)
(0.27497 0 -0.0600057)
(0.266082 0 -0.0564077)
(0.256256 0 -0.0527968)
(0.245363 0 -0.049171)
(0.233273 0 -0.0455239)
(0.219854 0 -0.0418446)
(0.204976 0 -0.0381175)
(0.188504 0 -0.0343222)
(0.170303 0 -0.0304326)
(0.150233 0 -0.0264169)
(0.128152 0 -0.0222368)
(0.103913 0 -0.0178468)
(0.0773618 0 -0.0131935)
(0.0483454 0 -0.00821522)
(0.0166055 0 -0.00282315)
(0.0121044 0 -0.00109629)
(0.0347014 0 -0.00315332)
(0.0543426 0 -0.0049795)
(0.0713949 0 -0.00662361)
(0.0862262 0 -0.00812675)
(0.0991518 0 -0.00952021)
(0.110454 0 -0.0108279)
(0.120385 0 -0.012072)
(0.129168 0 -0.0132676)
(0.136992 0 -0.0144231)
(0.144064 0 -0.0155541)
(0.150565 0 -0.0166716)
(0.156661 0 -0.0177847)
(0.162551 0 -0.0189112)
(0.168384 0 -0.020059)
(0.174355 0 -0.0212492)
(0.180679 0 -0.0225107)
(0.187541 0 -0.0238696)
(0.195132 0 -0.025356)
(0.20372 0 -0.0270277)
(0.213545 0 -0.0289435)
(0.224834 0 -0.0311698)
(0.237907 0 -0.0338139)
(0.252935 0 -0.036962)
(0.270194 0 -0.0407583)
(0.289718 0 -0.0453193)
(0.311307 0 -0.0507582)
(0.334272 0 -0.0571837)
(0.356621 0 -0.0646359)
(0.376709 0 -0.074274)
(0.0122536 0 -0.00116044)
(0.0351456 0 -0.00333943)
(0.0550809 0 -0.0052769)
(0.0724354 0 -0.00702464)
(0.0875855 0 -0.00862653)
(0.10085 0 -0.0101162)
(0.112527 0 -0.0115215)
(0.122868 0 -0.012864)
(0.132082 0 -0.0141585)
(0.14038 0 -0.0154187)
(0.147977 0 -0.0166639)
(0.155038 0 -0.0179017)
(0.161753 0 -0.0191485)
(0.168296 0 -0.0204179)
(0.174843 0 -0.021728)
(0.1816 0 -0.023105)
(0.188727 0 -0.0245674)
(0.196437 0 -0.026154)
(0.204939 0 -0.0279047)
(0.21442 0 -0.0298626)
(0.225133 0 -0.0320999)
(0.237249 0 -0.034676)
(0.251028 0 -0.0376956)
(0.266527 0 -0.0412279)
(0.283922 0 -0.0454094)
(0.302921 0 -0.0502871)
(0.323074 0 -0.0559378)
(0.343146 0 -0.062279)
(0.361236 0 -0.0691174)
(0.375819 0 -0.0764398)
(0.0124054 0 -0.00122349)
(0.0355985 0 -0.00352262)
(0.0558349 0 -0.00557021)
(0.0734979 0 -0.00742088)
(0.0889753 0 -0.00912132)
(0.102597 0 -0.0107089)
(0.114653 0 -0.0122123)
(0.125394 0 -0.0136525)
(0.135039 0 -0.0150475)
(0.143815 0 -0.016416)
(0.151919 0 -0.0177731)
(0.159533 0 -0.0191337)
(0.166846 0 -0.0205157)
(0.174023 0 -0.0219322)
(0.181241 0 -0.0234029)
(0.188703 0 -0.0249588)
(0.196557 0 -0.0266179)
(0.205015 0 -0.0284228)
(0.214252 0 -0.030412)
(0.224428 0 -0.0326263)
(0.235758 0 -0.0351347)
(0.248375 0 -0.0379963)
(0.262401 0 -0.0412858)
(0.277835 0 -0.0450662)
(0.294592 0 -0.0494062)
(0.312185 0 -0.0542891)
(0.329924 0 -0.0596843)
(0.346622 0 -0.06542)
(0.361081 0 -0.0713628)
(0.37211 0 -0.0773629)
(0.0125585 0 -0.00128499)
(0.0360555 0 -0.00370157)
(0.0565972 0 -0.00585732)
(0.0745705 0 -0.00780941)
(0.0903848 0 -0.00960932)
(0.104366 0 -0.0112943)
(0.116794 0 -0.0128927)
(0.127936 0 -0.0144308)
(0.138016 0 -0.0159276)
(0.147258 0 -0.0174043)
(0.155857 0 -0.0188751)
(0.164 0 -0.0203566)
(0.171873 0 -0.0218698)
(0.179639 0 -0.0234301)
(0.187466 0 -0.0250559)
(0.19555 0 -0.0267802)
(0.204048 0 -0.0286277)
(0.213106 0 -0.0306269)
(0.222891 0 -0.0328202)
(0.233557 0 -0.035252)
(0.245229 0 -0.0379722)
(0.257987 0 -0.0410309)
(0.271837 0 -0.0444735)
(0.286672 0 -0.0483335)
(0.302212 0 -0.0526118)
(0.31793 0 -0.0572583)
(0.333155 0 -0.0621914)
(0.347044 0 -0.0672834)
(0.358739 0 -0.0724003)
(0.367393 0 -0.0773372)
(0.0127111 0 -0.00134438)
(0.0365113 0 -0.00387463)
(0.0573601 0 -0.00613567)
(0.0756602 0 -0.0081886)
(0.0918114 0 -0.0100862)
(0.106134 0 -0.0118651)
(0.118936 0 -0.0135595)
(0.130476 0 -0.0151948)
(0.140976 0 -0.016791)
(0.15067 0 -0.018373)
(0.15974 0 -0.0199553)
(0.168377 0 -0.0215548)
(0.176774 0 -0.0231957)
(0.185064 0 -0.0248898)
(0.193438 0 -0.0266636)
(0.202059 0 -0.0285439)
(0.211058 0 -0.0305533)
(0.220568 0 -0.0327198)
(0.230731 0 -0.0350821)
(0.241652 0 -0.0376769)
(0.253392 0 -0.0405381)
(0.265963 0 -0.0436998)
(0.279271 0 -0.0471756)
(0.293123 0 -0.0509673)
(0.307192 0 -0.0550448)
(0.321024 0 -0.0593518)
(0.334066 0 -0.0638041)
(0.345724 0 -0.0683037)
(0.355347 0 -0.0726943)
(0.362402 0 -0.076801)
(0.0128625 0 -0.00140143)
(0.0369612 0 -0.00404084)
(0.0581139 0 -0.00640337)
(0.0767372 0 -0.00855373)
(0.0932211 0 -0.010545)
(0.107896 0 -0.0124173)
(0.121063 0 -0.0142054)
(0.132971 0 -0.0159328)
(0.143879 0 -0.017627)
(0.154009 0 -0.0193121)
(0.163516 0 -0.0209997)
(0.172618 0 -0.022714)
(0.181485 0 -0.0244747)
(0.190238 0 -0.0262933)
(0.199068 0 -0.0281991)
(0.208115 0 -0.0302142)
(0.217475 0 -0.0323561)
(0.227302 0 -0.0346612)
(0.237654 0 -0.0371477)
(0.24861 0 -0.039847)
(0.260165 0 -0.0427755)
(0.272268 0 -0.0459472)
(0.284782 0 -0.0493577)
(0.297502 0 -0.0529935)
(0.31012 0 -0.0568153)
(0.322246 0 -0.0607617)
(0.333489 0 -0.0647691)
(0.343364 0 -0.0687285)
(0.351421 0 -0.0724994)
(0.357374 0 -0.0759678)
(0.0130096 0 -0.00145519)
(0.0373941 0 -0.00419726)
(0.0588443 0 -0.00665683)
(0.0777873 0 -0.00890062)
(0.0946014 0 -0.0109825)
(0.109618 0 -0.0129443)
(0.123133 0 -0.0148203)
(0.135403 0 -0.0166375)
(0.146702 0 -0.0184269)
(0.157236 0 -0.0202097)
(0.167148 0 -0.0219974)
(0.176664 0 -0.0238173)
(0.18594 0 -0.0256868)
(0.195083 0 -0.0276165)
(0.204278 0 -0.0296358)
(0.213633 0 -0.0317613)
(0.223249 0 -0.0340126)
(0.233225 0 -0.0364142)
(0.243582 0 -0.0389751)
(0.254363 0 -0.041717)
(0.265525 0 -0.0446441)
(0.276996 0 -0.0477591)
(0.288629 0 -0.0510495)
(0.30022 0 -0.0544901)
(0.311501 0 -0.058039)
(0.322165 0 -0.0616407)
(0.331894 0 -0.0652302)
(0.34034 0 -0.0687073)
(0.347218 0 -0.0719732)
(0.35237 0 -0.0749432)
(0.0131525 0 -0.00150517)
(0.0378314 0 -0.00434487)
(0.0595613 0 -0.00689436)
(0.0787957 0 -0.00922457)
(0.0959333 0 -0.0113926)
(0.111281 0 -0.0134392)
(0.12513 0 -0.015399)
(0.137745 0 -0.0173014)
(0.149408 0 -0.0191796)
(0.160308 0 -0.0210526)
(0.170585 0 -0.0229322)
(0.18046 0 -0.0248466)
(0.190076 0 -0.026811)
(0.199532 0 -0.0288356)
(0.208998 0 -0.0309478)
(0.218558 0 -0.0331592)
(0.22829 0 -0.0354849)
(0.238245 0 -0.037937)
(0.248453 0 -0.0405265)
(0.258914 0 -0.0432623)
(0.269578 0 -0.0461435)
(0.280352 0 -0.0491625)
(0.291093 0 -0.0523007)
(0.301617 0 -0.0555284)
(0.311703 0 -0.0588049)
(0.321116 0 -0.0620829)
(0.329595 0 -0.0652933)
(0.336895 0 -0.0683563)
(0.342858 0 -0.0712064)
(0.347392 0 -0.0737793)
(0.0132885 0 -0.00155073)
(0.0382452 0 -0.00447936)
(0.0602563 0 -0.00711266)
(0.0797652 0 -0.00952203)
(0.0971978 0 -0.0117689)
(0.112861 0 -0.0138946)
(0.127025 0 -0.015932)
(0.139964 0 -0.0179132)
(0.151961 0 -0.0198729)
(0.163183 0 -0.0218264)
(0.173777 0 -0.0237876)
(0.183953 0 -0.0257836)
(0.193834 0 -0.0278262)
(0.203524 0 -0.029927)
(0.213154 0 -0.0321059)
(0.222795 0 -0.0343715)
(0.232513 0 -0.0367358)
(0.242345 0 -0.0392072)
(0.252303 0 -0.0417907)
(0.262365 0 -0.0444874)
(0.272473 0 -0.0472913)
(0.282534 0 -0.0501889)
(0.292415 0 -0.0531579)
(0.301961 0 -0.0561686)
(0.311004 0 -0.0591875)
(0.319343 0 -0.0621631)
(0.326776 0 -0.0650335)
(0.333159 0 -0.0677457)
(0.338392 0 -0.0702508)
(0.342427 0 -0.0725012)
(0.0134147 0 -0.00159094)
(0.038629 0 -0.00459842)
(0.0608968 0 -0.00730592)
(0.0806837 0 -0.00978889)
(0.0984005 0 -0.012108)
(0.114339 0 -0.0143028)
(0.128786 0 -0.0164094)
(0.142034 0 -0.0184637)
(0.154327 0 -0.0204948)
(0.165818 0 -0.0225162)
(0.176679 0 -0.0245468)
(0.187084 0 -0.0266073)
(0.197148 0 -0.0287083)
(0.20698 0 -0.0308626)
(0.216681 0 -0.0330833)
(0.226318 0 -0.0353789)
(0.235939 0 -0.0377564)
(0.24557 0 -0.04022)
(0.255207 0 -0.0427701)
(0.264822 0 -0.0454026)
(0.274355 0 -0.0481077)