/*--------------------------------*- C++ -*----------------------------------*\
| =========                 |                                                 |
| \\      /  F ield         | OpenFOAM: The Open Source CFD Toolbox           |
|  \\    /   O peration     | Version:  4.1                                   |
|   \\  /    A nd           | Web:      www.OpenFOAM.org                      |
|    \\/     M anipulation  |                                                 |
\*---------------------------------------------------------------------------*/
FoamFile
{
    version     2.0;
    format      ascii;
    class       volVectorField;
    location    "1";
    object      Force;
}
// * * * * * * * * * * * * * * * * * * * * * * * * * * * * * * * * * * * * * //

dimensions      [1 1 -2 0 0 0 0];

internalField   uniform (0 0 0);

boundaryField
{
    inlet
    {
        type            calculated;
        value           uniform (0 0 0);
    }
    outlet
    {
        type            calculated;
        value           uniform (0 0 0);
    }
    flap
    {
        type            calculated;
        value           nonuniform List<vector> 
33
(
(4.55146 1.93787e-18 -0.281745)
(4.48851 -1.9106e-18 -0.683262)
(4.3666 1.84232e-18 -1.06709)
(4.19198 -1.84447e-18 -1.35793)
(3.99644 1.11848e-17 -1.54939)
(3.80955 1.76439e-18 -1.65685)
(3.64402 1.75842e-18 -1.70982)
(3.4955 -1.70907e-18 -1.73606)
(3.34995 2.14244e-20 -1.74761)
(3.20206 -1.13902e-21 -1.74256)
(3.05469 1.27053e-17 -1.71765)
(2.90369 -1.7273e-20 -1.67451)
(2.73981 -1.4032e-17 -1.61034)
(2.55432 1.60463e-17 -1.51422)
(2.3211 -1.27197e-18 -1.38051)
(-0.221217 -1.60806e-21 -0.372717)
(-0.339744 2.35099e-38 -0.568724)
(-0.440313 7.70043e-19 -0.734222)
(-1.83255 -1.29129e-18 0.116237)
(-1.82653 1.31579e-18 0.279042)
(-1.81609 1.34603e-18 0.446693)
(-1.80627 1.37824e-18 0.587519)
(-1.80039 2.36883e-21 0.700588)
(-1.80035 2.96213e-18 0.785621)
(-1.801 -7.01197e-18 0.847504)
(-1.79806 1.52393e-18 0.896071)
(-1.79145 1.5538e-18 0.938398)
(-1.78333 -1.56851e-18 0.974861)
(-1.77368 -1.60052e-20 1.00254)
(-1.76127 1.74411e-20 1.02173)
(-1.74681 -3.85868e-18 1.03343)
(-1.73067 3.6396e-18 1.03382)
(-1.71307 2.34851e-18 1.02751)
)
;
    }
    upperWall
    {
        type            calculated;
        value           uniform (0 0 0);
    }
    lowerWall
    {
        type            calculated;
        value           uniform (0 0 0);
    }
    frontAndBack
    {
        type            empty;
    }
}


// ************************************************************************* //
