/*--------------------------------*- C++ -*----------------------------------*\
| =========                 |                                                 |
| \\      /  F ield         | OpenFOAM: The Open Source CFD Toolbox           |
|  \\    /   O peration     | Version:  4.1                                   |
|   \\  /    A nd           | Web:      www.OpenFOAM.org                      |
|    \\/     M anipulation  |                                                 |
\*---------------------------------------------------------------------------*/
FoamFile
{
    version     2.0;
    format      ascii;
    class       volScalarField;
    location    "1";
    object      p;
}
// * * * * * * * * * * * * * * * * * * * * * * * * * * * * * * * * * * * * * //

dimensions      [0 2 -2 0 0 0 0];

internalField   nonuniform List<scalar> 
2790
(
175.524
175.194
175.209
175.541
176.063
176.728
177.531
178.472
179.548
180.752
182.079
183.527
185.089
186.762
188.538
190.411
192.371
194.406
196.499
198.627
200.765
202.88
204.933
206.878
208.666
210.242
211.55
212.539
213.165
213.387
175.357
175.131
175.167
175.495
176.014
176.677
177.477
178.415
179.485
180.683
182.003
183.443
184.997
186.661
188.427
190.288
192.237
194.262
196.344
198.463
200.595
202.708
204.763
206.717
208.52
210.117
211.452
212.468
213.113
213.525
175.204
175.051
175.103
175.422
175.932
176.585
177.375
178.3
179.355
180.536
181.837
183.253
184.782
186.416
188.148
189.972
191.88
193.857
195.889
197.955
200.032
202.089
204.091
205.996
207.759
209.329
210.657
211.701
212.424
212.929
175.044
174.926
174.991
175.303
175.801
176.444
177.221
178.129
179.165
180.323
181.597
182.983
184.475
186.068
187.754
189.526
191.373
193.282
195.238
197.221
199.207
201.169
203.072
204.876
206.539
208.014
209.251
210.2
210.778
210.769
174.866
174.768
174.844
175.15
175.636
176.264
177.024
177.912
178.923
180.051
181.291
182.637
184.085
185.626
187.254
188.959
190.73
192.554
194.414
196.29
198.159
199.994
201.76
203.419
204.925
206.227
207.262
207.94
208.15
207.12
174.669
174.58
174.662
174.962
175.433
176.044
176.782
177.645
178.626
179.719
180.918
182.218
183.612
185.093
186.652
188.278
189.962
191.687
193.434
195.185
196.915
198.596
200.192
201.661
202.954
204.005
204.731
204.987
204.74
202.531
174.448
174.365
174.448
174.739
175.194
175.784
176.498
177.331
178.277
179.33
180.482
181.729
183.062
184.474
185.955
187.493
189.078
190.69
192.312
193.921
195.494
196.997
198.392
199.633
200.66
201.394
201.732
201.466
200.762
197.451
174.203
174.124
174.203
174.482
174.92
175.486
176.172
176.972
177.88
178.887
179.986
181.173
182.439
183.775
185.168
186.609
188.084
189.574
191.057
192.511
193.907
195.21
196.378
197.356
198.073
198.436
198.333
197.488
196.35
192.041
173.935
173.856
173.929
174.195
174.612
175.153
175.807
176.571
177.435
178.392
179.434
180.555
181.747
182.998
184.297
185.632
186.989
188.344
189.678
190.962
192.165
193.248
194.164
194.846
195.217
195.167
194.587
193.122
191.561
186.318
173.643
173.564
173.628
173.877
174.273
174.785
175.405
176.129
176.946
177.848
178.827
179.878
180.99
182.151
183.348
184.57
185.799
187.012
188.184
189.285
190.279
191.125
191.765
192.124
192.115
191.617
190.527
188.403
186.399
180.245
173.328
173.247
173.3
173.532
173.903
174.385
174.968
175.648
176.416
177.259
178.171
179.147
180.173
181.237
182.327
183.43
184.523
185.583
186.584
187.49
188.262
188.854
189.196
189.209
188.793
187.809
186.172
183.34
180.823
173.73
172.992
172.906
172.948
173.161
173.506
173.954
174.498
175.133
175.846
176.627
177.469
178.365
179.302
180.264
181.242
182.219
183.169
184.069
184.889
185.591
186.13
186.452
186.479
186.125
185.276
183.772
181.538
177.931
174.752
166.596
172.635
172.543
172.572
172.765
173.083
173.496
173.998
174.584
175.241
175.957
176.725
177.537
178.38
179.238
180.1
180.945
181.747
182.48
183.112
183.602
183.9
183.94
183.641
182.905
181.6
179.539
176.645
172.167
168.046
158.462
172.259
172.159
172.175
172.346
172.635
173.012
173.47
174.005
174.603
175.251
175.943
176.669
177.415
178.165
178.906
179.616
180.265
180.827
181.268
181.541
181.591
181.345
180.717
179.591
177.815
175.175
171.549
166.072
160.524
148.51
171.864
171.755
171.757
171.907
172.166
172.504
172.917
173.399
173.935
174.514
175.128
175.766
176.412
177.052
177.67
178.241
178.736
179.126
179.373
179.429
179.231
178.704
177.75
176.24
174.004
170.793
166.405
159.837
152.217
135.168
98.5629
98.3242
97.8472
97.0984
96.0008
94.541
92.6952
90.4312
87.712
84.5523
80.9764
77.0105
72.6942
68.0863
63.2563
58.2874
53.2787
48.329
43.5386
39.0144
34.8627
31.1671
27.9192
25.0763
22.6012
20.4394
18.4107
15.8052
11.136
5.03515
98.5428
98.3202
97.8807
97.1588
96.0861
94.6168
92.753
90.4689
87.7387
84.5677
80.9761
76.9927
72.657
68.0267
63.1719
58.1765
53.1395
48.1619
43.3451
38.7931
34.6024
30.8373
27.525
24.6138
22.0451
19.7343
17.4785
14.7348
10.5723
4.34729
98.6387
98.4569
98.0311
97.3103
96.2217
94.7342
92.8373
90.5121
87.744
84.5365
80.9068
76.8842
72.5089
67.8369
62.938
57.8965
52.8107
47.7845
42.9207
38.3192
34.0718
30.2425
26.8473
23.8572
21.1969
18.7498
16.3088
13.4952
9.65621
3.71007
98.8527
98.7291
98.3339
97.5759
96.4393
94.896
92.9343
90.5411
87.7066
84.4338
80.738
76.6461
72.1983
67.4506
62.4727
57.3492
52.1782
47.0658
42.1177
37.433
33.098
29.172
25.685
22.6092
19.8643
17.3217
14.7937
12.0059
8.42591
3.10054
99.1976
99.1498
98.719
97.9068
96.6931
95.0633
93.0112
90.5291
87.6089
84.2512
80.4692
76.2877
71.7458
66.8998
61.8205
56.5928
51.3153
46.0954
41.0418
36.2557
31.8204
27.7929
24.2046
21.0387
18.2234
15.631
13.0954
10.392
7.08526
2.5242
99.6941
99.6437
99.1519
98.2456
96.9252
95.1884
93.0311
90.4471
87.4274
83.9699
80.0848
75.7945
71.137
66.1681
60.9597
55.5985
50.185
44.8292
39.6434
34.7331
30.1854
26.0587
22.3802
19.1468
16.2989
13.7191
11.255
8.70157
5.72601
1.98051
100.285
100.169
99.5626
98.5273
97.0816
95.2297
92.9639
90.2738
87.1479
83.5813
79.5808
75.167
70.3769
65.2661
59.9079
54.3919
48.8216
43.3105
37.9748
32.9252
28.2552
24.0299
20.2794
17.0025
14.1558
11.644
9.31809
6.97893
4.39345
1.46917
100.891
100.634
99.8745
98.6955
97.1235
95.1604
92.7916
89.999
86.7669
83.0869
78.9632
74.4147
69.4779
64.2095
58.6845
52.9959
47.251
41.5673
36.0662
30.8647
26.0658
21.745
17.9398
14.6487
11.8418
9.44833
7.31909
5.25506
3.10875
0.989795
101.402
100.947
100.026
98.7128
97.0313
94.9726
92.5133
89.6269
86.2924
82.498
78.2457
73.5537
68.4595
63.0212
57.317
51.4428
45.51
39.6409
33.9627
28.6006
23.6678
19.2529
15.4051
12.1301
9.40317
7.17009
5.28751
3.55231
1.88266
0.541637
101.721
101.041
99.9825
98.5665
96.8071
94.6779
92.1453
89.1757
85.7434
81.8341
77.449
72.6071
67.348
61.7323
55.8406
49.7723
43.6427
37.5789
31.7151
26.1849
21.1132
16.6037
12.7237
9.49264
6.88429
4.84378
3.24936
1.888
0.721575
0.124036
101.801
100.886
99.7453
98.2746
96.4777
94.3072
91.7196
88.6759
85.148
81.1218
76.6002
71.6045
66.1766
60.3796
54.2966
48.03
41.6987
35.4349
29.3796
23.6761
18.462
13.8583
9.95453
6.78603
4.31775
2.5015
1.22912
0.277405
-0.369474
-0.263282
101.609
100.484
99.3535
97.8883
96.0978
93.9121
91.2814
88.1659
84.5399
80.393
75.7319
70.5805
64.9829
59.0045
52.7307
46.2663
39.7334
33.2682
27.019
21.1389
15.7794
11.0793
7.14904
4.04335
1.7397
0.179584
-0.747886
-1.26414
-1.38501
-0.620089
101.113
99.8829
98.8954
97.4947
95.7487
93.5595
90.8833
87.6881
83.9558
79.6827
74.8796
69.5725
63.8071
57.6514
51.192
44.5357
37.8065
31.1436
24.7018
18.6441
13.1356
8.33227
4.36459
1.31566
-0.802451
-2.07859
-2.65506
-2.72021
-2.31785
-0.945234
100.295
99.2766
98.4989
97.2193
95.5317
93.3241
90.5785
87.2835
83.4313
79.0244
74.0778
68.6173
62.689
56.3649
49.731
42.8949
35.9818
29.1304
22.5028
16.2703
10.6111
5.69895
1.68637
-1.30932
-3.25355
-4.25636
-4.46349
-4.07105
-3.15682
-1.23566
99.3001
98.782
98.359
97.2614
95.5624
93.2625
90.397
86.9697
82.9799
78.4345
73.3516
67.7479
61.664
55.1867
48.3952
41.3985
34.3219
27.2978
20.4984
14.101
8.29608
3.27603
-0.788839
-3.75578
-5.57048
-6.29987
-6.12278
-5.29028
-3.88412
-1.48558
171.444
171.326
171.313
171.44
171.667
171.966
172.33
172.755
173.228
173.736
174.268
174.814
175.357
175.883
176.374
176.804
177.14
177.354
177.406
177.243
176.8
175.996
174.727
172.853
170.197
166.483
161.427
153.925
143.941
115.138
170.995
170.867
170.837
170.939
171.133
171.389
171.703
172.068
172.475
172.908
173.355
173.804
174.241
174.649
175.01
175.293
175.468
175.506
175.363
174.983
174.302
173.234
171.673
169.487
166.501
162.459
157.106
149.604
140.792
132.231
170.519
170.381
170.332
170.409
170.567
170.779
171.039
171.343
171.681
172.037
172.396
172.746
173.073
173.362
173.59
173.724
173.739
173.602
173.268
172.681
171.774
170.467
168.661
166.238
163.057
158.943
153.817
147.481
140.949
136.828
170.016
169.868
169.801
169.85
169.971
170.136
170.341
170.583
170.851
171.125
171.394
171.644
171.861
172.029
172.122
172.108
171.965
171.661
171.144
170.361
169.25
167.739
165.744
163.17
159.921
155.909
151.145
145.601
139.411
133.241
169.487
169.331
169.244
169.262
169.344
169.462
169.611
169.79
169.985
170.177
170.353
170.502
170.609
170.656
170.614
170.457
170.164
169.698
169.008
168.047
166.761
165.086
162.957
160.304
157.067
153.2
148.706
143.557
137.7
131.676
168.934
168.77
168.661
168.647
168.69
168.76
168.852
168.966
169.086
169.194
169.279
169.327
169.324
169.25
169.077
168.784
168.347
167.728
166.88
165.762
164.33
162.532
160.316
157.635
154.451
150.737
146.497
141.748
136.524
131.249
168.358
168.185
168.054
168.007
168.01
168.031
168.066
168.113
168.158
168.183
168.176
168.124
168.012
167.82
167.522
167.099
166.526
165.765
164.776
163.527
161.978
160.09
157.825
155.151
152.044
148.496
144.52
140.157
135.451
130.654
167.763
167.578
167.423
167.344
167.307
167.279
167.256
167.236
167.205
167.147
167.05
166.9
166.682
166.376
165.96
165.415
164.714
163.825
162.715
161.357
159.718
157.769
155.483
152.839
149.825
146.443
142.713
138.671
134.35
129.925
167.149
166.95
166.771
166.661
166.583
166.506
166.425
166.338
166.233
166.093
165.907
165.661
165.341
164.927
164.4
163.74
162.923
161.922
160.71
159.263
157.556
155.57
153.284
150.686
147.771
144.549
141.038
137.27
133.277
129.193
166.518
166.306
166.103
165.96
165.841
165.714
165.576
165.424
165.244
165.025
164.753
164.415
163.997
163.481
162.85
162.086
161.166
160.068
158.77
157.253
155.497
153.492
151.223
148.679
145.865
142.793
139.48
135.956
132.246
128.461
165.871
165.646
165.42
165.243
165.082
164.908
164.714
164.497
164.246
163.949
163.594
163.168
162.658
162.048
161.322
160.463
159.452
158.272
156.904
155.332
153.544
151.533
149.29
146.808
144.093
141.161
138.027
134.716
131.252
127.722
165.213
164.976
164.726
164.515
164.313
164.091
163.843
163.563
163.243
162.871
162.437
161.928
161.332
160.635
159.822
158.879
157.79
156.54
155.116
153.503
151.696
149.69
147.479
145.061
142.443
139.64
136.667
133.544
130.292
126.984
164.546
164.296
164.023
163.779
163.537
163.269
162.967
162.627
162.24
161.798
161.289
160.703
160.027
159.251
158.36
157.343
156.187
154.879
153.41
151.769
149.953
147.959
145.784
143.431
140.906
138.221
135.392
132.436
129.369
126.255
163.873
163.612
163.315
163.039
162.757
162.445
162.091
161.693
161.244
160.735
160.157
159.499
158.751
157.902
156.942
155.861
154.648
153.293
151.789
150.13
148.313
146.336
144.201
141.91
139.472
136.897
134.197
131.389
128.485
125.541
163.199
162.925
162.606
162.299
161.98
161.624
161.221
160.769
160.261
159.689
159.046
158.322
157.508
156.595
155.575
154.438
153.177
151.785
150.255
148.585
146.772
144.818
142.724
140.494
138.137
135.661
133.078
130.4
127.641
124.847
162.526
162.241
161.9
161.564
161.209
160.812
160.363
159.859
159.296
158.666
157.963
157.179
156.306
155.337
154.264
153.08
151.779
150.357
148.809
147.133
145.33
143.401
141.348
139.176
136.893
134.508
132.03
129.47
126.839
124.178
161.86
161.564
161.203
160.838
160.45
160.013
159.521
158.969
158.354
157.672
156.915
156.077
155.151
154.132
153.013
151.789
150.456
149.011
147.451
145.775
143.985
142.081
140.069
137.953
135.739
133.436
131.052
128.597
126.081
123.537
161.205
160.899
160.518
160.127
159.706
159.233
158.7
158.105
157.443
156.712
155.906
155.019
154.047
152.985
151.827
150.57
149.212
147.749
146.182
144.51
142.734
140.857
138.884
136.819
134.669
132.441
130.142
127.781
125.367
122.928
160.566
160.251
159.851
159.436
158.985
158.478
157.908
157.271
156.567
155.792
154.942
154.013
153
151.9
150.71
149.426
148.047
146.573
145.002
143.336
141.576
139.727
137.791
135.774
133.682
131.521
129.298
127.022
124.698
122.353
159.948
159.624
159.208
158.77
158.292
157.753
157.148
156.475
155.732
154.918
154.03
153.063
152.015
150.883
149.665
148.36
146.965
145.482
143.911
142.253
140.51
138.687
136.786
134.814
132.775
130.675
128.521
126.319
124.076
121.815
159.356
159.025
158.594
158.135
157.631
157.064
156.428
155.721
154.944
154.096
153.173
152.174
151.096
149.937
148.696
147.373
145.967
144.479
142.909
141.26
139.535
137.737
135.87
133.938
131.947
129.902
127.809
125.674
123.503
121.315
158.797
158.459
158.014
157.536
157.01
156.417
155.752
155.016
154.209
153.33
152.378
151.351
150.247
149.066
147.807
146.47
145.055
143.564
141.998
140.359
138.651
136.876
135.04
133.145
131.197
129.201
127.163
125.087
122.979
120.856
158.277
157.933
157.475
156.98
156.433
155.817
155.127
154.365
153.532
152.627
151.649
150.598
149.473
148.273
146.999
145.651
144.231
142.739
141.177
139.549
137.857
136.105
134.296
132.434
130.525
128.573
126.582
124.558
122.506
120.44
157.802
157.452
156.983
156.472
155.908
155.271
154.56
153.775
152.919
151.991
150.992
149.921
148.778
147.563
146.278
144.922
143.497
142.006
140.45
138.832
137.155
135.423
133.639
131.807
129.932
128.018
126.069
124.091
122.087
120.07
157.379
157.024
156.545
156.02
155.439
154.785
154.055
153.251
152.375
151.429
150.412
149.324
148.166
146.94
145.645
144.283
142.857
141.367
139.816
138.208
136.545
134.831
133.069
131.263
129.418
127.537
125.624
123.685
121.722
119.747
157.016
156.655
156.166
155.628
155.033
154.364
153.619
152.799
151.907
150.946
149.914
148.813
147.644
146.408
145.107
143.741
142.313
140.826
139.281
137.682
136.031
134.333
132.59
130.807
128.987
127.134
125.252
123.346
121.418
119.479
156.72
156.354
155.853
155.303
154.696
154.015
153.256
152.423
151.519
150.545
149.502
148.391
147.213
145.971
144.664
143.296
141.868
140.383
138.844
137.252
135.613
133.927
132.201
130.436
128.636
126.806
124.949
123.069
121.169
119.258
156.502
156.126
155.612
155.053
154.437
153.747
152.978
152.135
151.221
150.238
149.187
148.069
146.885
145.638
144.328
142.959
141.532
140.049
138.515
136.931
135.3
133.626
131.912
130.163
128.38
126.569
124.732
122.874
120.998
119.11
156.375
155.971
155.439
154.872
154.252
153.555
152.78
151.931
151.011
150.023
148.966
147.844
146.656
145.406
144.095
142.725
141.299
139.819
138.288
136.708
135.084
133.417
131.712
129.972
128.201
126.401
124.578
122.733
120.87
118.995
156.38
155.919
155.363
154.789
154.164
153.463
152.684
151.83
150.907
149.916
148.857
147.733
146.545
145.295
143.985
142.617
141.193
139.717
138.19
136.616
134.998
133.339
131.642
129.91
128.148
126.359
124.545
122.711
120.861
118.997
43.411
66.3305
85.7263
124.949
123.197
118.857
129.925
123.798
118.861
125.389
120.587
117.357
125.744
121.937
118.917
126.321
122.93
120.008
126.198
123.115
120.421
125.864
123.063
120.601
125.472
122.898
120.633
125.016
122.626
120.527
124.508
122.274
120.318
123.968
121.869
120.036
123.412
121.43
119.705
122.851
120.972
119.343
122.292
120.507
118.962
121.744
120.042
118.573
121.212
119.586
118.185
120.701
119.143
117.802
120.214
118.717
117.432
119.755
118.314
117.077
119.326
117.935
116.741
118.931
117.584
116.429
118.571
117.264
116.142
118.251
116.979
115.886
117.97
116.729
115.661
117.739
116.523
115.476
117.546
116.352
115.323
117.425
116.248
115.231
117.325
116.161
115.155
117.345
116.193
115.193
100.898
98.5454
98.5908
97.7855
95.9374
93.4192
90.3589
86.7557
82.6045
77.9103
72.6879
66.9526
60.7444
54.1401
47.224
40.1006
32.8783
25.7
18.7494
12.2033
6.26486
1.14232
-2.99403
-5.97061
-7.69518
-8.17853
-7.63488
-6.37713
-4.49567
-1.69362
110.186
103.474
101.516
99.4706
96.8056
93.8096
90.4511
86.6265
82.2947
77.4481
72.0933
66.2452
59.9403
53.2447
46.2376
39.016
31.6881
24.4119
17.3594
10.713
4.67547
-0.568164
-4.79793
-7.80921
-9.50589
-9.88086
-8.99346
-7.28296
-4.98062
-1.86048
112.027
105.855
103.102
100.599
97.5741
94.2111
90.5444
86.4904
81.988
77.0102
71.5513
65.6218
59.2538
52.5052
45.4509
38.185
30.8194
23.5061
16.4119
9.71568
3.60935
-1.711
-5.98601
-9.02872
-10.7379
-11.0647
-9.89831
-7.98318
-5.35389
-1.99239
112.743
107.351
103.809
100.772
97.5712
94.1224
90.3594
86.1978
81.5966
76.5417
71.029
65.0666
58.6825
51.9292
44.8791
37.6253
30.2813
22.9903
15.9162
9.23686
3.14556
-2.1514
-6.41312
-9.44885
-11.1474
-11.4709
-10.5099
-8.45531
-5.45502
-2.10206
114.505
109.258
104.95
101.163
97.5072
93.8052
89.9137
85.6972
81.0731
76.0105
70.5049
64.5671
58.224
51.5242
44.5372
37.3542
30.0877
22.8758
15.8793
9.27559
3.25908
-1.96274
-6.17069
-9.18022
-10.8797
-11.2463
-10.3715
-8.40901
-5.62177
-2.31057
115.931
110.967
106.261
101.897
97.7598
93.6885
89.5389
85.18
80.5081
75.4583
70.0013
64.1365
57.8866
51.2961
44.4306
37.3776
30.2466
23.171
16.3071
9.82937
3.9281
-1.19606
-5.34152
-8.33731
-10.0774
-10.5407
-9.80341
-8.0249
-5.42637
-2.29609
116.802
112.231
107.44
102.769
98.2944
93.9042
89.4766
84.9115
80.1231
75.0419
69.6216
63.843
57.7147
51.2716
44.5721
37.6979
30.7529
23.8642
17.181
10.8709
5.11576
0.104767
-3.97759
-6.97598
-8.79258
-9.40634
-8.88266
-7.36564
-5.05231
-2.24464
117.356
113.148
108.449
103.685
99.0348
94.437
89.7961
85.0414
80.114
74.9603
69.5375
63.8206
57.8071
51.5195
45.0052
38.3365
31.6086
24.9396
18.469
12.3538
6.76348
1.87275
-2.15159
-5.17043
-7.09519
-7.90508
-7.65504
-6.47061
-4.52881
-2.12522
117.678
113.788
109.279
104.571
99.8897
95.2075
90.4529
85.5788
80.5494
75.3301
69.8905
64.2116
58.29
52.1422
45.8065
39.3443
32.84
26.4004
20.1523
14.2392
8.81576
4.03968
0.0596965
-3.00102
-5.06326
-6.10634
-6.17506
-5.37716
-3.86836
-1.92635
117.807
114.201
109.925
105.368
100.765
96.1083
91.3445
86.4423
81.3827
76.1466
70.7163
65.0821
59.2457
53.224
47.0512
40.7814
34.4887
28.2678
22.232
16.5093
11.238
6.55789
2.59974
-0.528472
-2.75651
-4.064
-4.48669
-4.11577
-3.08564
-1.65036
117.795
114.44
110.406
106.047
101.592
97.0441
92.3591
87.5153
82.5047
77.3189
71.9499
66.3957
60.6641
54.7744
48.7604
42.6715
36.5747
30.5538
24.7091
19.1537
14.009
9.3971
5.43202
2.20754
-0.214497
-1.81436
-2.6201
-2.70796
-2.19264
-1.30217
117.683
114.55
110.75
106.605
102.334
97.9468
93.4023
88.6844
83.7909
78.7196
73.469
68.0425
62.4516
56.7178
50.8746
44.9684
39.0602
33.2252
27.5519
22.1397
17.0942
12.5217
8.52046
5.17174
2.5297
0.613222
-0.599268
-1.17102
-1.19934
-0.885335
117.5
114.564
110.982
107.05
102.978
98.7764
94.4085
89.8599
85.1312
80.2235
75.1387
69.8833
64.4706
58.9224
53.271
47.5595
41.8431
36.1892
30.6758
25.3898
20.423
15.867
11.8067
8.31211
5.43072
3.18045
1.5451
0.472573
-0.119444
-0.404191
117.267
114.508
111.126
107.397
103.523
99.5147
95.3389
90.9816
86.4439
81.7291
76.8409
71.7868
66.5801
61.2417
55.8013
50.298
44.781
39.3097
33.9524
28.7843
23.8848
19.3326
15.2005
11.549
8.41955
5.82912
3.76586
2.18715
1.02354
0.13071
117.002
114.399
111.199
107.66
103.975
100.158
96.1758
92.0152
87.6775
83.1671
78.4887
73.6499
68.6629
63.5466
58.3274
53.0398
47.7269
42.4398
37.2373
32.1841
27.3477
22.7953
18.5891
14.7808
11.4065
8.4821
5.99902
3.92258
2.19421
0.698842
116.715
114.252
111.217
107.853
104.346
100.71
96.9143
92.9451
88.8043
84.4967
80.0277
75.404
70.6365
65.7418
60.7428
55.6692
50.5576
45.4515
40.4006
35.4594
30.6849
26.1336
21.8579
17.9016
14.2959
11.0549
8.17259
5.62055
3.34922
1.27142
116.417
114.078
111.192
107.988
104.645
101.177
97.5561
93.7675
89.8135
85.6992
81.4295
77.0107
72.4525
67.7688
62.9791
58.1085
53.1878
48.2531
43.346
38.5115
33.7969
29.2491
24.9115
20.8209
17.0034
13.4712
10.2197
7.22522
4.44542
1.81787
116.115
113.885
111.134
108.075
104.881
101.568
98.1071
94.4856
90.7048
86.7693
82.6839
78.4545
74.0891
69.5995
65.0018
60.3171
55.5708
50.7927
46.0168
41.28
36.6209
32.0778
27.6863
23.4763
19.4692
15.6751
12.0898
8.69318
5.44834
2.31321
115.816
113.682
111.05
108.122
105.063
101.89
98.5757
95.1063
91.4831
87.7104
83.7923
79.7341
75.5423
71.2268
66.8009
62.2818
57.6905
53.0511
48.3911
43.7405
39.1303
34.5913
30.1522
25.8369
21.6624
17.6363
13.7544
9.99891
6.33722
2.74275
115.523
113.474
110.949
108.138
105.201
102.153
98.9704
95.638
92.1567
88.5301
84.7619
80.8561
76.8183
72.6566
68.3817
64.0076
59.5511
55.0319
50.4718
45.8948
41.3257
36.789
32.3071
27.899
23.5775
19.348
15.2059
11.1348
7.10564
3.10274
115.242
113.267
110.837
108.13
105.301
102.366
99.2997
96.0895
92.7345
89.2379
85.6024
81.8311
77.9285
73.901
69.7573
65.5086
61.168
56.7512
52.2758
47.7604
43.2247
38.6877
34.167
29.677
25.2272
20.8207
16.4523
12.1068
7.75804
3.39752
114.977
113.067
110.719
108.105
105.37
102.535
99.5723
96.4698
93.2264
89.8442
86.3252
82.6715
78.8864
74.9751
70.9445
66.8032
62.5614
58.2313
53.8266
49.3621
44.8528
40.3135
35.7575
31.1955
26.6342
22.0746
17.5111
12.9294
8.30578
3.63615
114.732
112.876
110.601
108.067
105.417
102.667
99.7957
96.7875
93.6413
90.3589
86.9414
83.3896
79.7056
75.8938
71.9597
67.9098
63.7517
59.4944
55.1486
50.7256
46.2369
41.6937
37.1058
32.4809
27.8232
23.1324
18.402
13.6189
8.76125
3.82755
114.511
112.702
110.489
108.025
105.447
102.772
99.9787
97.0518
93.9897
90.7935
87.4633
83.999
80.4012
76.6732
72.8206
68.8481
64.7604
60.5639
56.2667
51.8774
47.4046
42.8565
38.2403
33.5611
28.8212
24.0188
19.1472
14.1939
9.13923
3.98186
114.316
112.546
110.386
107.981
105.464
102.853
100.126
97.2684
94.2776
91.1543
87.8982
84.5081
80.9822
77.3238
73.5396
69.6322
65.6029
61.4562
57.1985
52.836
48.3752
43.8218
39.1808
34.4552
29.6457
24.7496
19.76
14.6648
9.44608
4.10233
114.155
112.417
110.302
107.947
105.481
102.923
100.251
97.451
94.5193
91.4563
88.2616
84.9327
81.466
77.8653
74.1379
70.2837
66.3018
62.1954
57.9693
53.6281
49.1763
44.6178
39.9557
35.1916
30.3247
25.3516
20.265
15.0533
9.70007
4.20107
114.022
112.309
110.23
107.915
105.491
102.975
100.348
97.5938
94.7096
91.6946
88.548
85.2668
81.8478
78.2943
74.6111
70.7974
66.8522
62.7772
58.5755
54.2505
49.805
45.2416
40.562
35.7664
30.8532
25.8182
20.654
15.3494
9.8893
4.26822
113.943
112.248
110.196
107.913
105.521
103.039
100.446
97.7279
94.8802
91.902
88.7919
85.547
82.1655
78.649
74.9992
71.2157
67.2978
63.2463
59.0629
54.7497
50.3087
45.7412
41.0478
36.2279
31.2791
26.1965
20.9726
15.596
10.0521
4.33005
113.88
112.196
110.163
107.901
105.531
103.07
100.5
97.8057
94.9819
92.0279
88.9419
85.7214
82.3651
78.8727
75.2448
71.4809
67.5805
63.5439
59.372
55.0661
50.6274
46.0564
41.3532
36.5165
31.5431
26.4279
21.1627
15.7365
10.1352
4.34785
113.915
112.232
110.211
107.965
105.608
103.162
100.606
97.9253
95.116
92.1763
89.1044
85.898
82.5554
79.0761
75.4599
71.7061
67.8143
63.7845
59.6174
55.3137
50.8744
46.2996
41.589
36.7409
31.7519
26.6164
21.3256
15.8667
10.222
4.3642
)
;

boundaryField
{
    inlet
    {
        type            zeroGradient;
    }
    outlet
    {
        type            fixedValue;
        value           uniform 0;
    }
    flap
    {
        type            zeroGradient;
    }
    upperWall
    {
        type            zeroGradient;
    }
    lowerWall
    {
        type            zeroGradient;
    }
    frontAndBack
    {
        type            empty;
    }
}


// ************************************************************************* //
