/*--------------------------------*- C++ -*----------------------------------*\
| =========                 |                                                 |
| \\      /  F ield         | OpenFOAM: The Open Source CFD Toolbox           |
|  \\    /   O peration     | Version:  5.x                                   |
|   \\  /    A nd           | Web:      www.OpenFOAM.org                      |
|    \\/     M anipulation  |                                                 |
\*---------------------------------------------------------------------------*/
FoamFile
{
    version     2.0;
    format      ascii;
    class       pointVectorField;
    location    "1";
    object      pointDisplacement;
}
// * * * * * * * * * * * * * * * * * * * * * * * * * * * * * * * * * * * * * //

dimensions      [0 1 0 0 0 0 0];

internalField   nonuniform List<vector> 
5828
(
(0 0 0)
(0.0207077 0 0)
(0.0391285 0 0)
(0.0547426 0 0)
(0.0678284 0 0)
(0.0786512 0 0)
(0.0874371 0 0)
(0.0943822 0 0)
(0.0996598 0 0)
(0.103421 0 0)
(0.105797 0 0)
(0.106902 0 0)
(0.106836 0 0)
(0.10569 0 0)
(0.103545 0 0)
(0.100477 0 0)
(0.096554 0 0)
(0.0918403 0 0)
(0.0864012 0 0)
(0.0803031 0 0)
(0.0736157 0 0)
(0.066416 0 0)
(0.0587911 0 0)
(0.0508406 0 0)
(0.0426789 0 0)
(0.0344607 0 0)
(0.0264018 0 0)
(0.0188076 0 0)
(0.0121621 0 0)
(0.00741485 0 0)
(0 0 0)
(0 0 0)
(0.0207214 0 -0.000142493)
(0.0391558 0 -0.00027139)
(0.0547829 0 -0.000384631)
(0.0678825 0 -0.000484786)
(0.0787209 0 -0.000574169)
(0.0875241 0 -0.000654321)
(0.0944883 0 -0.000725814)
(0.0997872 0 -0.000788801)
(0.103573 0 -0.000843418)
(0.105977 0 -0.000889293)
(0.107113 0 -0.000925656)
(0.107082 0 -0.000951371)
(0.105975 0 -0.000964956)
(0.103875 0 -0.000964831)
(0.100859 0 -0.000948634)
(0.0969946 0 -0.00091351)
(0.092348 0 -0.000856473)
(0.0869856 0 -0.000773713)
(0.0809753 0 -0.000660742)
(0.0743889 0 -0.000512364)
(0.0673057 0 -0.000322617)
(0.0598179 0 -8.48572e-05)
(0.0520332 0 0.000208475)
(0.0440702 0 0.000566561)
(0.0360851 0 0.000999866)
(0.0283051 0 0.00151811)
(0.0210494 0 0.00212871)
(0.014846 0 0.00282767)
(0.0107098 0 0.00353672)
(0.00468298 0 0.00462633)
(0 0 0)
(0.020765 0 -0.000285437)
(0.0392421 0 -0.000543389)
(0.0549081 0 -0.000769913)
(0.0680484 0 -0.0009705)
(0.0789338 0 -0.00114964)
(0.0877887 0 -0.00131054)
(0.0948093 0 -0.00145426)
(0.100172 0 -0.00158103)
(0.104029 0 -0.00169129)
(0.106515 0 -0.00178433)
(0.107744 0 -0.00185867)
(0.107818 0 -0.0019121)
(0.106831 0 -0.00194161)
(0.104865 0 -0.00194328)
(0.102001 0 -0.0019135)
(0.0983109 0 -0.00184782)
(0.0938634 0 -0.0017397)
(0.0887287 0 -0.00158177)
(0.0829788 0 -0.00136548)
(0.076691 0 -0.00108103)
(0.0699499 0 -0.000717145)
(0.062861 0 -0.000261749)
(0.0555509 0 0.000298713)
(0.0481605 0 0.000980224)
(0.040869 0 0.00179828)
(0.0339334 0 0.00276415)
(0.0276944 0 0.00388256)
(0.0227157 0 0.00512621)
(0.0201811 0 0.00631293)
(0.0156274 0 0.00806449)
(0 0 0)
(0.0208344 0 -0.000428714)
(0.0393793 0 -0.000815787)
(0.0551131 0 -0.0011557)
(0.0683248 0 -0.00145714)
(0.0792887 0 -0.0017265)
(0.0882293 0 -0.00196823)
(0.0953422 0 -0.00218437)
(0.100808 0 -0.00237591)
(0.104785 0 -0.00254332)
(0.107405 0 -0.00268555)
(0.108786 0 -0.00280052)
(0.109034 0 -0.00288512)
(0.108244 0 -0.00293518)
(0.106502 0 -0.00294515)
(0.10389 0 -0.00290981)
(0.100488 0 -0.00282284)
(0.0963688 0 -0.00267534)
(0.0916098 0 -0.00245706)
(0.0862899 0 -0.00215632)
(0.0804959 0 -0.00175998)
(0.0743223 0 -0.00125316)
(0.0678853 0 -0.000619891)
(0.061333 0 0.000156224)
(0.0548424 0 0.00109201)
(0.0486397 0 0.00220065)
(0.0430414 0 0.0034841)
(0.0384443 0 0.00492457)
(0.035369 0 0.00645242)
(0.0350873 0 0.00777087)
(0.0325349 0 0.00976668)
(0 0 0)
(0.0209286 0 -0.00057168)
(0.0395656 0 -0.00108806)
(0.0553955 0 -0.00154194)
(0.0687081 0 -0.00194479)
(0.0797789 0 -0.00230503)
(0.0888359 0 -0.00262781)
(0.0960784 0 -0.00291698)
(0.101691 0 -0.00317496)
(0.105832 0 -0.00340179)
(0.108638 0 -0.00359622)
(0.11023 0 -0.00375574)
(0.110717 0 -0.00387662)
(0.110199 0 -0.00395388)
(0.108766 0 -0.00398122)
(0.106504 0 -0.00395146)
(0.103498 0 -0.00385657)
(0.0998327 0 -0.00368655)
(0.0955912 0 -0.00342929)
(0.0908626 0 -0.00307111)
(0.0857433 0 -0.00259674)
(0.08035 0 -0.00199095)
(0.0748153 0 -0.00123726)
(0.0693026 0 -0.000319898)
(0.0640231 0 0.000772769)
(0.0592428 0 0.00204478)
(0.0553415 0 0.00347717)
(0.0528288 0 0.00500579)
(0.0522298 0 0.00650594)
(0.0546386 0 0.0075933)
(0.0542841 0 0.00942092)
(0 0 0)
(0.0210504 0 -0.000713923)
(0.0398065 0 -0.00135944)
(0.0557562 0 -0.00192743)
(0.0691939 0 -0.00243194)
(0.0803982 0 -0.00288369)
(0.0896024 0 -0.0032893)
(0.0970115 0 -0.00365393)
(0.102811 0 -0.00398084)
(0.107161 0 -0.00427023)
(0.110202 0 -0.00452089)
(0.112061 0 -0.00473016)
(0.112851 0 -0.00489395)
(0.112676 0 -0.00500689)
(0.111632 0 -0.00506207)
(0.109811 0 -0.00505081)
(0.107305 0 -0.00496459)
(0.10421 0 -0.00479336)
(0.10062 0 -0.00452409)
(0.0966363 0 -0.00414269)
(0.0923658 0 -0.00363354)
(0.0879424 0 -0.00298232)
(0.0835259 0 -0.00217637)
(0.0793053 0 -0.00120592)
(0.0755299 0 -7.07504e-05)
(0.0724988 0 0.00121553)
(0.0706005 0 0.00260887)
(0.0704327 0 0.00399152)
(0.0726056 0 0.00516845)
(0.0778559 0 0.00571986)
(0.079641 0 0.00703135)
(0 0 0)
(0.0211983 0 -0.000855596)
(0.0400988 0 -0.00162955)
(0.0561903 0 -0.00231101)
(0.0697763 0 -0.00291714)
(0.0811416 0 -0.003461)
(0.0905235 0 -0.00395112)
(0.0981317 0 -0.00439356)
(0.104153 0 -0.00479198)
(0.108753 0 -0.00514737)
(0.112076 0 -0.00545882)
(0.114253 0 -0.00572375)
(0.115403 0 -0.00593807)
(0.115637 0 -0.00609651)
(0.115059 0 -0.00619221)
(0.113767 0 -0.00621622)
(0.111859 0 -0.00615934)
(0.109443 0 -0.00601182)
(0.106627 0 -0.00576174)
(0.103527 0 -0.00539621)
(0.100269 0 -0.00490206)
(0.0969967 0 -0.00426749)
(0.0938952 0 -0.00348621)
(0.091185 0 -0.00255875)
(0.0891426 0 -0.00149948)
(0.0881197 0 -0.000349727)
(0.0885023 0 0.000817564)
(0.0908504 0 0.00184681)
(0.0957956 0 0.00247872)
(0.103762 0 0.0023061)
(0.107393 0 0.00293191)
(0 0 0)
(0.021367 0 -0.000996675)
(0.0404321 0 -0.00189836)
(0.0566899 0 -0.00269303)
(0.0704505 0 -0.0034012)
(0.0820032 0 -0.00403806)
(0.091591 0 -0.00461395)
(0.0994285 0 -0.00513607)
(0.105706 0 -0.00560885)
(0.110594 0 -0.00603409)
(0.114241 0 -0.00641145)
(0.116783 0 -0.00673866)
(0.118346 0 -0.00701192)
(0.119049 0 -0.00722671)
(0.119004 0 -0.00737701)
(0.118321 0 -0.00745497)
(0.117101 0 -0.00745012)
(0.115461 0 -0.00735344)
(0.113529 0 -0.00715666)
(0.111436 0 -0.00684926)
(0.109325 0 -0.00642238)
(0.10736 0 -0.00586937)
(0.105753 0 -0.00519372)
(0.104757 0 -0.00440992)
(0.104643 0 -0.00354507)
(0.105802 0 -0.00266805)
(0.10865 0 -0.00188837)
(0.11361 0 -0.00137848)
(0.121208 0 -0.00142373)
(0.131635 0 -0.00238176)
(0.13672 0 -0.0024102)
(0 0 0)
(0.0215542 0 -0.00113665)
(0.0408031 0 -0.00216561)
(0.057251 0 -0.00307382)
(0.0712112 0 -0.00388468)
(0.0829762 0 -0.00461559)
(0.0927962 0 -0.00527883)
(0.100891 0 -0.0058829)
(0.107457 0 -0.00643322)
(0.112667 0 -0.00693259)
(0.116677 0 -0.00738146)
(0.119628 0 -0.00777816)
(0.121651 0 -0.00811923)
(0.122875 0 -0.00840171)
(0.123423 0 -0.00862113)
(0.123413 0 -0.00877043)
(0.122956 0 -0.00884044)
(0.122179 0 -0.00882403)
(0.121228 0 -0.00871623)
(0.120246 0 -0.00851076)
(0.119405 0 -0.00820557)
(0.118885 0 -0.00780136)
(0.118913 0 -0.00730989)
(0.119776 0 -0.006763)
(0.121768 0 -0.00620624)
(0.125241 0 -0.00572198)
(0.130616 0 -0.00544943)
(0.13821 0 -0.00557094)
(0.148361 0 -0.00635597)
(0.160996 0 -0.00808007)
(0.167267 0 -0.00862662)
(0 0 0)
(0.0217616 0 -0.00127513)
(0.0412144 0 -0.00243055)
(0.0578708 0 -0.00345198)
(0.0720497 0 -0.00436561)
(0.0840483 0 -0.00519127)
(0.0941235 0 -0.00594316)
(0.102501 0 -0.00663121)
(0.109381 0 -0.00726204)
(0.114944 0 -0.0078397)
(0.11935 0 -0.00836572)
(0.122748 0 -0.00883936)
(0.125274 0 -0.00925839)
(0.127068 0 -0.00962121)
(0.12826 0 -0.00992463)
(0.128976 0 -0.010163)
(0.129344 0 -0.0103311)
(0.129503 0 -0.0104243)
(0.12961 0 -0.0104411)
(0.129829 0 -0.0103816)
(0.13035 0 -0.0102502)
(0.131385 0 -0.0100593)
(0.133168 0 -0.00982943)
(0.135989 0 -0.00960301)
(0.140188 0 -0.0094498)
(0.146068 0 -0.00945995)
(0.153991 0 -0.00978269)
(0.164205 0 -0.0106017)
(0.176828 0 -0.0121441)
(0.191486 0 -0.0145885)
(0.198874 0 -0.0155581)
(0 0 0)
(0.0219869 0 -0.00141212)
(0.0416614 0 -0.00269286)
(0.0585432 0 -0.00382685)
(0.0729583 0 -0.00484318)
(0.0852096 0 -0.00576414)
(0.0955603 0 -0.0066059)
(0.104242 0 -0.00737993)
(0.11146 0 -0.00809414)
(0.117401 0 -0.00875415)
(0.122233 0 -0.00936294)
(0.126109 0 -0.00992097)
(0.129176 0 -0.010428)
(0.13158 0 -0.0108835)
(0.133456 0 -0.0112854)
(0.134942 0 -0.0116312)
(0.136182 0 -0.0119194)
(0.137326 0 -0.012149)
(0.138545 0 -0.0123235)
(0.140033 0 -0.0124518)
(0.141983 0 -0.0125438)
(0.144627 0 -0.012621)
(0.148234 0 -0.0127199)
(0.153084 0 -0.0128907)
(0.159522 0 -0.013217)
(0.167849 0 -0.0138023)
(0.178355 0 -0.0147919)
(0.191179 0 -0.0163497)
(0.20622 0 -0.0186484)
(0.222786 0 -0.0217706)
(0.231399 0 -0.0231428)
(0 0 0)
(0.0222282 0 -0.00154762)
(0.0421406 0 -0.00295258)
(0.0592633 0 -0.00419855)
(0.0739303 0 -0.00531757)
(0.0864513 0 -0.00633445)
(0.0970957 0 -0.00726735)
(0.1061 0 -0.0081294)
(0.113676 0 -0.00892973)
(0.120019 0 -0.00967599)
(0.125301 0 -0.010373)
(0.12968 0 -0.0110223)
(0.133314 0 -0.0116257)
(0.136353 0 -0.0121844)
(0.138943 0 -0.0126985)
(0.141229 0 -0.0131681)
(0.143374 0 -0.0135971)
(0.14554 0 -0.0139892)
(0.147904 0 -0.0143515)
(0.150681 0 -0.0147012)
(0.154092 0 -0.0150595)
(0.158367 0 -0.0154535)
(0.163799 0 -0.0159334)
(0.170696 0 -0.016565)
(0.179372 0 -0.0174354)
(0.190142 0 -0.0186596)
(0.203228 0 -0.0203703)
(0.218647 0 -0.022697)
(0.236093 0 -0.025751)
(0.254505 0 -0.029518)
(0.264664 0 -0.031316)
(0 0 0)
(0.0224827 0 -0.00168094)
(0.0426458 0 -0.00320841)
(0.0600219 0 -0.00456519)
(0.0749539 0 -0.00578638)
(0.0877583 0 -0.00689927)
(0.0987108 0 -0.00792415)
(0.108053 0 -0.00887584)
(0.116005 0 -0.00976539)
(0.122768 0 -0.0106022)
(0.128518 0 -0.0113923)
(0.13342 0 -0.0121391)
(0.137638 0 -0.0128467)
(0.141331 0 -0.0135181)
(0.144652 0 -0.0141562)
(0.147758 0 -0.0147652)
(0.150822 0 -0.0153527)
(0.154024 0 -0.0159291)
(0.157547 0 -0.0165061)
(0.161607 0 -0.017105)
(0.166452 0 -0.0177594)
(0.17234 0 -0.0185095)
(0.179555 0 -0.0194113)
(0.188431 0 -0.0205463)
(0.199276 0 -0.022008)
(0.212404 0 -0.0239163)
(0.227982 0 -0.0263871)
(0.24596 0 -0.0295161)
(0.2658 0 -0.0333308)
(0.286028 0 -0.0377177)
(0.298454 0 -0.0399962)
(0 0 0)
(0.0227473 0 -0.00181167)
(0.0431716 0 -0.00345955)
(0.0608119 0 -0.00492572)
(0.0760196 0 -0.00624824)
(0.0891185 0 -0.00745698)
(0.100391 0 -0.00857432)
(0.110084 0 -0.00961715)
(0.118426 0 -0.0105988)
(0.125622 0 -0.0115297)
(0.131852 0 -0.0124168)
(0.137286 0 -0.0132662)
(0.142099 0 -0.0140844)
(0.146452 0 -0.0148763)
(0.150508 0 -0.0156482)
(0.15444 0 -0.0164096)
(0.158422 0 -0.0171704)
(0.16264 0 -0.0179455)
(0.167301 0 -0.0187558)
(0.172617 0 -0.0196273)
(0.178838 0 -0.020599)
(0.186252 0 -0.021727)
(0.195141 0 -0.0230745)
(0.205837 0 -0.0247319)
(0.218663 0 -0.0268047)
(0.233923 0 -0.0294152)
(0.251762 0 -0.032669)
(0.27212 0 -0.0366359)
(0.294206 0 -0.0412295)
(0.316231 0 -0.0462406)
(0.332537 0 -0.0490677)
(0 0 0)
(0.0230202 0 -0.0019397)
(0.0437145 0 -0.00370588)
(0.0616277 0 -0.00527992)
(0.07712 0 -0.00670287)
(0.0905224 0 -0.00800712)
(0.102124 0 -0.00921718)
(0.112178 0 -0.0103521)
(0.120918 0 -0.0114274)
(0.128553 0 -0.0124545)
(0.135265 0 -0.0134413)
(0.141236 0 -0.0143972)
(0.146645 0 -0.0153315)
(0.151658 0 -0.016251)
(0.156446 0 -0.0171648)
(0.161184 0 -0.0180855)
(0.166059 0 -0.0190289)
(0.171262 0 -0.0200138)
(0.176998 0 -0.0210655)
(0.183498 0 -0.0222201)
(0.191002 0 -0.0235209)
(0.199796 0 -0.025031)
(0.210175 0 -0.0268264)
(0.22245 0 -0.0290026)
(0.236934 0 -0.0316737)
(0.253907 0 -0.0349666)
(0.273491 0 -0.0389879)
(0.295592 0 -0.0437965)
(0.319271 0 -0.049212)
(0.342913 0 -0.0549759)
(0.36668 0 -0.0583545)
(0 0 0)
(0.0233018 0 -0.00206579)
(0.0442747 0 -0.00394875)
(0.0624695 0 -0.00562972)
(0.0782553 0 -0.00715267)
(0.0919698 0 -0.00855251)
(0.103908 0 -0.00985582)
(0.114333 0 -0.0110841)
(0.123481 0 -0.0122551)
(0.131559 0 -0.0133806)
(0.138759 0 -0.0144707)
(0.145271 0 -0.0155377)
(0.151273 0 -0.0165921)
(0.156941 0 -0.0176444)
(0.162447 0 -0.0187062)
(0.167963 0 -0.0197911)
(0.173692 0 -0.0209218)
(0.17983 0 -0.0221229)
(0.18657 0 -0.0234209)
(0.194147 0 -0.0248585)
(0.202809 0 -0.0264884)
(0.212808 0 -0.0283739)
(0.224433 0 -0.0306)
(0.237957 0 -0.0332641)
(0.253638 0 -0.0364817)
(0.271688 0 -0.0403838)
(0.292114 0 -0.0450829)
(0.314632 0 -0.0506642)
(0.338079 0 -0.0570583)
(0.360914 0 -0.0644443)
(0.400858 0 -0.0677465)
(0 0 0)
(0.0207077 0 0)
(0.0391285 0 0)
(0.0547426 0 0)
(0.0678284 0 0)
(0.0786512 0 0)
(0.0874371 0 0)
(0.0943822 0 0)
(0.0996598 0 0)
(0.103421 0 0)
(0.105797 0 0)
(0.106902 0 0)
(0.106836 0 0)
(0.10569 0 0)
(0.103545 0 0)
(0.100477 0 0)
(0.096554 0 0)
(0.0918403 0 0)
(0.0864012 0 0)
(0.0803031 0 0)
(0.0736157 0 0)
(0.066416 0 0)
(0.0587911 0 0)
(0.0508406 0 0)
(0.0426789 0 0)
(0.0344607 0 0)
(0.0264018 0 0)
(0.0188076 0 0)
(0.0121621 0 0)
(0.00741485 0 0)
(0 0 0)
(0 0 0)
(0.0207214 0 -0.000142493)
(0.0391558 0 -0.00027139)
(0.0547829 0 -0.000384631)
(0.0678825 0 -0.000484786)
(0.0787209 0 -0.000574169)
(0.0875241 0 -0.000654321)
(0.0944883 0 -0.000725814)
(0.0997872 0 -0.000788801)
(0.103573 0 -0.000843418)
(0.105977 0 -0.000889293)
(0.107113 0 -0.000925656)
(0.107082 0 -0.000951371)
(0.105975 0 -0.000964956)
(0.103875 0 -0.000964831)
(0.100859 0 -0.000948634)
(0.0969946 0 -0.00091351)
(0.092348 0 -0.000856473)
(0.0869856 0 -0.000773713)
(0.0809753 0 -0.000660742)
(0.0743889 0 -0.000512364)
(0.0673057 0 -0.000322617)
(0.0598179 0 -8.48572e-05)
(0.0520332 0 0.000208475)
(0.0440702 0 0.000566561)
(0.0360851 0 0.000999866)
(0.0283051 0 0.00151811)
(0.0210494 0 0.00212871)
(0.014846 0 0.00282767)
(0.0107098 0 0.00353672)
(0.00468298 0 0.00462633)
(0 0 0)
(0.020765 0 -0.000285437)
(0.0392421 0 -0.000543389)
(0.0549081 0 -0.000769913)
(0.0680484 0 -0.0009705)
(0.0789338 0 -0.00114964)
(0.0877887 0 -0.00131054)
(0.0948093 0 -0.00145426)
(0.100172 0 -0.00158103)
(0.104029 0 -0.00169129)
(0.106515 0 -0.00178433)
(0.107744 0 -0.00185867)
(0.107818 0 -0.0019121)
(0.106831 0 -0.00194161)
(0.104865 0 -0.00194328)
(0.102001 0 -0.0019135)
(0.0983109 0 -0.00184782)
(0.0938634 0 -0.0017397)
(0.0887287 0 -0.00158177)
(0.0829788 0 -0.00136548)
(0.076691 0 -0.00108103)
(0.0699499 0 -0.000717145)
(0.062861 0 -0.000261749)
(0.0555509 0 0.000298713)
(0.0481605 0 0.000980224)
(0.040869 0 0.00179828)
(0.0339334 0 0.00276415)
(0.0276944 0 0.00388256)
(0.0227157 0 0.00512621)
(0.0201811 0 0.00631293)
(0.0156274 0 0.00806449)
(0 0 0)
(0.0208344 0 -0.000428714)
(0.0393793 0 -0.000815787)
(0.0551131 0 -0.0011557)
(0.0683248 0 -0.00145714)
(0.0792887 0 -0.0017265)
(0.0882293 0 -0.00196823)
(0.0953422 0 -0.00218437)
(0.100808 0 -0.00237591)
(0.104785 0 -0.00254332)
(0.107405 0 -0.00268555)
(0.108786 0 -0.00280052)
(0.109034 0 -0.00288512)
(0.108244 0 -0.00293518)
(0.106502 0 -0.00294515)
(0.10389 0 -0.00290981)
(0.100488 0 -0.00282284)
(0.0963688 0 -0.00267534)
(0.0916098 0 -0.00245706)
(0.0862899 0 -0.00215632)
(0.0804959 0 -0.00175998)
(0.0743223 0 -0.00125316)
(0.0678853 0 -0.000619891)
(0.061333 0 0.000156224)
(0.0548424 0 0.00109201)
(0.0486397 0 0.00220065)
(0.0430414 0 0.0034841)
(0.0384443 0 0.00492457)
(0.035369 0 0.00645242)
(0.0350873 0 0.00777087)
(0.0325349 0 0.00976668)
(0 0 0)
(0.0209286 0 -0.00057168)
(0.0395656 0 -0.00108806)
(0.0553955 0 -0.00154194)
(0.0687081 0 -0.00194479)
(0.0797789 0 -0.00230503)
(0.0888359 0 -0.00262781)
(0.0960784 0 -0.00291698)
(0.101691 0 -0.00317496)
(0.105832 0 -0.00340179)
(0.108638 0 -0.00359622)
(0.11023 0 -0.00375574)
(0.110717 0 -0.00387662)
(0.110199 0 -0.00395388)
(0.108766 0 -0.00398122)
(0.106504 0 -0.00395146)
(0.103498 0 -0.00385657)
(0.0998327 0 -0.00368655)
(0.0955912 0 -0.00342929)
(0.0908626 0 -0.00307111)
(0.0857433 0 -0.00259674)
(0.08035 0 -0.00199095)
(0.0748153 0 -0.00123726)
(0.0693026 0 -0.000319898)
(0.0640231 0 0.000772769)
(0.0592428 0 0.00204478)
(0.0553415 0 0.00347717)
(0.0528288 0 0.00500579)
(0.0522298 0 0.00650594)
(0.0546386 0 0.0075933)
(0.0542841 0 0.00942092)
(0 0 0)
(0.0210504 0 -0.000713923)
(0.0398065 0 -0.00135944)
(0.0557562 0 -0.00192743)
(0.0691939 0 -0.00243194)
(0.0803982 0 -0.00288369)
(0.0896024 0 -0.0032893)
(0.0970115 0 -0.00365393)
(0.102811 0 -0.00398084)
(0.107161 0 -0.00427023)
(0.110202 0 -0.00452089)
(0.112061 0 -0.00473016)
(0.112851 0 -0.00489395)
(0.112676 0 -0.00500689)
(0.111632 0 -0.00506207)
(0.109811 0 -0.00505081)
(0.107305 0 -0.00496459)
(0.10421 0 -0.00479336)
(0.10062 0 -0.00452409)
(0.0966363 0 -0.00414269)
(0.0923658 0 -0.00363354)
(0.0879424 0 -0.00298232)
(0.0835259 0 -0.00217637)
(0.0793053 0 -0.00120592)
(0.0755299 0 -7.07504e-05)
(0.0724988 0 0.00121553)
(0.0706005 0 0.00260887)
(0.0704327 0 0.00399152)
(0.0726056 0 0.00516845)
(0.0778559 0 0.00571986)
(0.079641 0 0.00703135)
(0 0 0)
(0.0211983 0 -0.000855596)
(0.0400988 0 -0.00162955)
(0.0561903 0 -0.00231101)
(0.0697763 0 -0.00291714)
(0.0811416 0 -0.003461)
(0.0905235 0 -0.00395112)
(0.0981317 0 -0.00439356)
(0.104153 0 -0.00479198)
(0.108753 0 -0.00514737)
(0.112076 0 -0.00545882)
(0.114253 0 -0.00572375)
(0.115403 0 -0.00593807)
(0.115637 0 -0.00609651)
(0.115059 0 -0.00619221)
(0.113767 0 -0.00621622)
(0.111859 0 -0.00615934)
(0.109443 0 -0.00601182)
(0.106627 0 -0.00576174)
(0.103527 0 -0.00539621)
(0.100269 0 -0.00490206)
(0.0969967 0 -0.00426749)
(0.0938952 0 -0.00348621)
(0.091185 0 -0.00255875)
(0.0891426 0 -0.00149948)
(0.0881197 0 -0.000349727)
(0.0885023 0 0.000817564)
(0.0908504 0 0.00184681)
(0.0957956 0 0.00247872)
(0.103762 0 0.0023061)
(0.107393 0 0.00293191)
(0 0 0)
(0.021367 0 -0.000996675)
(0.0404321 0 -0.00189836)
(0.0566899 0 -0.00269303)
(0.0704505 0 -0.0034012)
(0.0820032 0 -0.00403806)
(0.091591 0 -0.00461395)
(0.0994285 0 -0.00513607)
(0.105706 0 -0.00560885)
(0.110594 0 -0.00603409)
(0.114241 0 -0.00641145)
(0.116783 0 -0.00673866)
(0.118346 0 -0.00701192)
(0.119049 0 -0.00722671)
(0.119004 0 -0.00737701)
(0.118321 0 -0.00745497)
(0.117101 0 -0.00745012)
(0.115461 0 -0.00735344)
(0.113529 0 -0.00715666)
(0.111436 0 -0.00684926)
(0.109325 0 -0.00642238)
(0.10736 0 -0.00586937)
(0.105753 0 -0.00519372)
(0.104757 0 -0.00440992)
(0.104643 0 -0.00354507)
(0.105802 0 -0.00266805)
(0.10865 0 -0.00188837)
(0.11361 0 -0.00137848)
(0.121208 0 -0.00142373)
(0.131635 0 -0.00238176)
(0.13672 0 -0.0024102)
(0 0 0)
(0.0215542 0 -0.00113665)
(0.0408031 0 -0.00216561)
(0.057251 0 -0.00307382)
(0.0712112 0 -0.00388468)
(0.0829762 0 -0.00461559)
(0.0927962 0 -0.00527883)
(0.100891 0 -0.0058829)
(0.107457 0 -0.00643322)
(0.112667 0 -0.00693259)
(0.116677 0 -0.00738146)
(0.119628 0 -0.00777816)
(0.121651 0 -0.00811923)
(0.122875 0 -0.00840171)
(0.123423 0 -0.00862113)
(0.123413 0 -0.00877043)
(0.122956 0 -0.00884044)
(0.122179 0 -0.00882403)
(0.121228 0 -0.00871623)
(0.120246 0 -0.00851076)
(0.119405 0 -0.00820557)
(0.118885 0 -0.00780136)
(0.118913 0 -0.00730989)
(0.119776 0 -0.006763)
(0.121768 0 -0.00620624)
(0.125241 0 -0.00572198)
(0.130616 0 -0.00544943)
(0.13821 0 -0.00557094)
(0.148361 0 -0.00635597)
(0.160996 0 -0.00808007)
(0.167267 0 -0.00862662)
(0 0 0)
(0.0217616 0 -0.00127513)
(0.0412144 0 -0.00243055)
(0.0578708 0 -0.00345198)
(0.0720497 0 -0.00436561)
(0.0840483 0 -0.00519127)
(0.0941235 0 -0.00594316)
(0.102501 0 -0.00663121)
(0.109381 0 -0.00726204)
(0.114944 0 -0.0078397)
(0.11935 0 -0.00836572)
(0.122748 0 -0.00883936)
(0.125274 0 -0.00925839)
(0.127068 0 -0.00962121)
(0.12826 0 -0.00992463)
(0.128976 0 -0.010163)
(0.129344 0 -0.0103311)
(0.129503 0 -0.0104243)
(0.12961 0 -0.0104411)
(0.129829 0 -0.0103816)
(0.13035 0 -0.0102502)
(0.131385 0 -0.0100593)
(0.133168 0 -0.00982943)
(0.135989 0 -0.00960301)
(0.140188 0 -0.0094498)
(0.146068 0 -0.00945995)
(0.153991 0 -0.00978269)
(0.164205 0 -0.0106017)
(0.176828 0 -0.0121441)
(0.191486 0 -0.0145885)
(0.198874 0 -0.0155581)
(0 0 0)
(0.0219869 0 -0.00141212)
(0.0416614 0 -0.00269286)
(0.0585432 0 -0.00382685)
(0.0729583 0 -0.00484318)
(0.0852096 0 -0.00576414)
(0.0955603 0 -0.0066059)
(0.104242 0 -0.00737993)
(0.11146 0 -0.00809414)
(0.117401 0 -0.00875415)
(0.122233 0 -0.00936294)
(0.126109 0 -0.00992097)
(0.129176 0 -0.010428)
(0.13158 0 -0.0108835)
(0.133456 0 -0.0112854)
(0.134942 0 -0.0116312)
(0.136182 0 -0.0119194)
(0.137326 0 -0.012149)
(0.138545 0 -0.0123235)
(0.140033 0 -0.0124518)
(0.141983 0 -0.0125438)
(0.144627 0 -0.012621)
(0.148234 0 -0.0127199)
(0.153084 0 -0.0128907)
(0.159522 0 -0.013217)
(0.167849 0 -0.0138023)
(0.178355 0 -0.0147919)
(0.191179 0 -0.0163497)
(0.20622 0 -0.0186484)
(0.222786 0 -0.0217706)
(0.231399 0 -0.0231428)
(0 0 0)
(0.0222282 0 -0.00154762)
(0.0421406 0 -0.00295258)
(0.0592633 0 -0.00419855)
(0.0739303 0 -0.00531757)
(0.0864513 0 -0.00633445)
(0.0970957 0 -0.00726735)
(0.1061 0 -0.0081294)
(0.113676 0 -0.00892973)
(0.120019 0 -0.00967599)
(0.125301 0 -0.010373)
(0.12968 0 -0.0110223)
(0.133314 0 -0.0116257)
(0.136353 0 -0.0121844)
(0.138943 0 -0.0126985)
(0.141229 0 -0.0131681)
(0.143374 0 -0.0135971)
(0.14554 0 -0.0139892)
(0.147904 0 -0.0143515)
(0.150681 0 -0.0147012)
(0.154092 0 -0.0150595)
(0.158367 0 -0.0154535)
(0.163799 0 -0.0159334)
(0.170696 0 -0.016565)
(0.179372 0 -0.0174354)
(0.190142 0 -0.0186596)
(0.203228 0 -0.0203703)
(0.218647 0 -0.022697)
(0.236093 0 -0.025751)
(0.254505 0 -0.029518)
(0.264664 0 -0.031316)
(0 0 0)
(0.0224827 0 -0.00168094)
(0.0426458 0 -0.00320841)
(0.0600219 0 -0.00456519)
(0.0749539 0 -0.00578638)
(0.0877583 0 -0.00689927)
(0.0987108 0 -0.00792415)
(0.108053 0 -0.00887584)
(0.116005 0 -0.00976539)
(0.122768 0 -0.0106022)
(0.128518 0 -0.0113923)
(0.13342 0 -0.0121391)
(0.137638 0 -0.0128467)
(0.141331 0 -0.0135181)
(0.144652 0 -0.0141562)
(0.147758 0 -0.0147652)
(0.150822 0 -0.0153527)
(0.154024 0 -0.0159291)
(0.157547 0 -0.0165061)
(0.161607 0 -0.017105)
(0.166452 0 -0.0177594)
(0.17234 0 -0.0185095)
(0.179555 0 -0.0194113)
(0.188431 0 -0.0205463)
(0.199276 0 -0.022008)
(0.212404 0 -0.0239163)
(0.227982 0 -0.0263871)
(0.24596 0 -0.0295161)
(0.2658 0 -0.0333308)
(0.286028 0 -0.0377177)
(0.298454 0 -0.0399962)
(0 0 0)
(0.0227473 0 -0.00181167)
(0.0431716 0 -0.00345955)
(0.0608119 0 -0.00492572)
(0.0760196 0 -0.00624824)
(0.0891185 0 -0.00745698)
(0.100391 0 -0.00857432)
(0.110084 0 -0.00961715)
(0.118426 0 -0.0105988)
(0.125622 0 -0.0115297)
(0.131852 0 -0.0124168)
(0.137286 0 -0.0132662)
(0.142099 0 -0.0140844)
(0.146452 0 -0.0148763)
(0.150508 0 -0.0156482)
(0.15444 0 -0.0164096)
(0.158422 0 -0.0171704)
(0.16264 0 -0.0179455)
(0.167301 0 -0.0187558)
(0.172617 0 -0.0196273)
(0.178838 0 -0.020599)
(0.186252 0 -0.021727)
(0.195141 0 -0.0230745)
(0.205837 0 -0.0247319)
(0.218663 0 -0.0268047)
(0.233923 0 -0.0294152)
(0.251762 0 -0.032669)
(0.27212 0 -0.0366359)
(0.294206 0 -0.0412295)
(0.316231 0 -0.0462406)
(0.332537 0 -0.0490677)
(0 0 0)
(0.0230202 0 -0.0019397)
(0.0437145 0 -0.00370588)
(0.0616277 0 -0.00527992)
(0.07712 0 -0.00670287)
(0.0905224 0 -0.00800712)
(0.102124 0 -0.00921718)
(0.112178 0 -0.0103521)
(0.120918 0 -0.0114274)
(0.128553 0 -0.0124545)
(0.135265 0 -0.0134413)
(0.141236 0 -0.0143972)
(0.146645 0 -0.0153315)
(0.151658 0 -0.016251)
(0.156446 0 -0.0171648)
(0.161184 0 -0.0180855)
(0.166059 0 -0.0190289)
(0.171262 0 -0.0200138)
(0.176998 0 -0.0210655)
(0.183498 0 -0.0222201)
(0.191002 0 -0.0235209)
(0.199796 0 -0.025031)
(0.210175 0 -0.0268264)
(0.22245 0 -0.0290026)
(0.236934 0 -0.0316737)
(0.253907 0 -0.0349666)
(0.273491 0 -0.0389879)
(0.295592 0 -0.0437965)
(0.319271 0 -0.049212)
(0.342913 0 -0.0549759)
(0.36668 0 -0.0583545)
(0 0 0)
(0.0233018 0 -0.00206579)
(0.0442747 0 -0.00394875)
(0.0624695 0 -0.00562972)
(0.0782553 0 -0.00715267)
(0.0919698 0 -0.00855251)
(0.103908 0 -0.00985582)
(0.114333 0 -0.0110841)
(0.123481 0 -0.0122551)
(0.131559 0 -0.0133806)
(0.138759 0 -0.0144707)
(0.145271 0 -0.0155377)
(0.151273 0 -0.0165921)
(0.156941 0 -0.0176444)
(0.162447 0 -0.0187062)
(0.167963 0 -0.0197911)
(0.173692 0 -0.0209218)
(0.17983 0 -0.0221229)
(0.18657 0 -0.0234209)
(0.194147 0 -0.0248585)
(0.202809 0 -0.0264884)
(0.212808 0 -0.0283739)
(0.224433 0 -0.0306)
(0.237957 0 -0.0332641)
(0.253638 0 -0.0364817)
(0.271688 0 -0.0403838)
(0.292114 0 -0.0450829)
(0.314632 0 -0.0506642)
(0.338079 0 -0.0570583)
(0.360914 0 -0.0644443)
(0.400858 0 -0.0677465)
(0 0 0)
(0.0120616 0 0)
(0.0250084 0 0)
(0.045987 0 0)
(0.0729605 0 0)
(0.10268 0 0)
(0.131854 0 0)
(0.158174 0 0)
(0.180554 0 0)
(0.19876 0 0)
(0.213028 0 0)
(0.223776 0 0)
(0.23142 0 0)
(0.236313 0 0)
(0.238747 0 0)
(0.238947 0 0)
(0.237076 0 0)
(0.233242 0 0)
(0.227505 0 0)
(0.219889 0 0)
(0.210393 0 0)
(0.198994 0 0)
(0.185646 0 0)
(0.170292 0 0)
(0.152858 0 0)
(0.133267 0 0)
(0.111412 0 0)
(0.0871849 0 0)
(0.0605084 0 0)
(0.0312676 0 0)
(0 0 0)
(0.00414694 0 -0.00563808)
(0.0153214 0 -0.00615469)
(0.0285215 0 -0.00704937)
(0.049528 0 -0.00800474)
(0.0762768 0 -0.00886759)
(0.105623 0 -0.00952563)
(0.134363 0 -0.00990667)
(0.160256 0 -0.010031)
(0.182248 0 -0.00994185)
(0.200125 0 -0.00967487)
(0.214129 0 -0.009293)
(0.224664 0 -0.00885934)
(0.232134 0 -0.00838454)
(0.236888 0 -0.00787149)
(0.239213 0 -0.00735769)
(0.239326 0 -0.00684321)
(0.237386 0 -0.00632899)
(0.233498 0 -0.00583662)
(0.227719 0 -0.00535611)
(0.220068 0 -0.00488628)
(0.210545 0 -0.00443194)
(0.199124 0 -0.00399077)
(0.185759 0 -0.00355883)
(0.170392 0 -0.00313516)
(0.152947 0 -0.00271657)
(0.133339 0 -0.00229889)
(0.111468 0 -0.00187898)
(0.0872305 0 -0.00144711)
(0.060543 0 -0.00099494)
(0.0312889 0 -0.000512758)
(0 0 0)
(0.0137032 0 -0.0113355)
(0.0248036 0 -0.0124632)
(0.0387524 0 -0.0142018)
(0.0598063 0 -0.0160008)
(0.0859334 0 -0.0175968)
(0.114221 0 -0.0188017)
(0.141711 0 -0.0194954)
(0.166361 0 -0.0196866)
(0.187225 0 -0.0194722)
(0.204149 0 -0.0189535)
(0.217374 0 -0.0182161)
(0.227274 0 -0.0173531)
(0.234233 0 -0.0164227)
(0.23858 0 -0.0154324)
(0.240581 0 -0.0144243)
(0.24044 0 -0.0134209)
(0.238296 0 -0.0124259)
(0.234247 0 -0.0114615)
(0.228342 0 -0.0105221)
(0.220591 0 -0.00960678)
(0.210986 0 -0.00871742)
(0.199502 0 -0.00785325)
(0.186086 0 -0.00700931)
(0.170673 0 -0.00618101)
(0.153186 0 -0.00536371)
(0.133534 0 -0.00454607)
(0.111623 0 -0.00371845)
(0.0873516 0 -0.00286526)
(0.0606307 0 -0.00197071)
(0.0313373 0 -0.00101589)
(0 0 0)
(0.0287576 0 -0.0174246)
(0.039768 0 -0.0190563)
(0.0547077 0 -0.0215281)
(0.0757139 0 -0.0240111)
(0.100899 0 -0.0261786)
(0.127593 0 -0.0277682)
(0.153197 0 -0.0286606)
(0.175945 0 -0.0288509)
(0.195081 0 -0.0284723)
(0.210532 0 -0.0276958)
(0.222528 0 -0.0266189)
(0.231426 0 -0.0253473)
(0.237581 0 -0.0239819)
(0.241283 0 -0.0225498)
(0.242772 0 -0.0210884)
(0.242224 0 -0.0196325)
(0.239757 0 -0.0181931)
(0.23545 0 -0.0167852)
(0.229341 0 -0.0154164)
(0.22143 0 -0.0140891)
(0.211695 0 -0.0127966)
(0.200105 0 -0.0115392)
(0.1866 0 -0.0103136)
(0.171108 0 -0.00910883)
(0.153549 0 -0.00791558)
(0.133834 0 -0.00671784)
(0.111864 0 -0.00549935)
(0.0875392 0 -0.00424004)
(0.0607647 0 -0.00291753)
(0.0314102 0 -0.00150435)
(0 0 0)
(0.0484903 0 -0.0240628)
(0.0593088 0 -0.025993)
(0.0751921 0 -0.0290505)
(0.0960339 0 -0.0320675)
(0.120041 0 -0.0346506)
(0.144767 0 -0.0364701)
(0.168011 0 -0.037419)
(0.188361 0 -0.037522)
(0.20531 0 -0.0369393)
(0.218871 0 -0.0358759)
(0.229282 0 -0.034461)
(0.236886 0 -0.0328117)
(0.241995 0 -0.031039)
(0.244856 0 -0.0291956)
(0.245675 0 -0.0273208)
(0.244593 0 -0.0254503)
(0.2417 0 -0.0236009)
(0.237053 0 -0.021789)
(0.230671 0 -0.0200278)
(0.222542 0 -0.0183207)
(0.212634 0 -0.0166624)
(0.200896 0 -0.0150469)
(0.187266 0 -0.0134685)
(0.171668 0 -0.0119126)
(0.154017 0 -0.0103644)
(0.134218 0 -0.00880509)
(0.112174 0 -0.00721352)
(0.0877793 0 -0.00556483)
(0.0609344 0 -0.00383064)
(0.0315014 0 -0.00197561)
(0 0 0)
(0.0720274 0 -0.0311756)
(0.0824829 0 -0.0332694)
(0.0991517 0 -0.0367918)
(0.119703 0 -0.0402103)
(0.142331 0 -0.0430482)
(0.164795 0 -0.0449362)
(0.185313 0 -0.0457886)
(0.20291 0 -0.0456969)
(0.217338 0 -0.0448522)
(0.228708 0 -0.0434736)
(0.237281 0 -0.0417197)
(0.243377 0 -0.0397142)
(0.247257 0 -0.0375662)
(0.249129 0 -0.0353451)
(0.249154 0 -0.0330915)
(0.247438 0 -0.0308452)
(0.244041 0 -0.0286281)
(0.238989 0 -0.0264582)
(0.232281 0 -0.02435)
(0.223886 0 -0.0223027)
(0.21376 0 -0.0203134)
(0.201841 0 -0.0183716)
(0.188059 0 -0.0164666)
(0.172332 0 -0.0145825)
(0.154568 0 -0.0127008)
(0.134671 0 -0.0107997)
(0.112537 0 -0.0088539)
(0.0880593 0 -0.00683393)
(0.0611305 0 -0.00470595)
(0.0316057 0 -0.00242746)
(0 0 0)
(0.098323 0 -0.0386121)
(0.108449 0 -0.0408742)
(0.125738 0 -0.0447799)
(0.145837 0 -0.0484661)
(0.166845 0 -0.0513762)
(0.186756 0 -0.0531459)
(0.204269 0 -0.0537489)
(0.218873 0 -0.0533545)
(0.230566 0 -0.0521838)
(0.239562 0 -0.0504668)
(0.246141 0 -0.0483745)
(0.250591 0 -0.046029)
(0.253125 0 -0.0435353)
(0.253912 0 -0.0409723)
(0.253065 0 -0.0383824)
(0.25065 0 -0.035806)
(0.246693 0 -0.0332713)
(0.241189 0 -0.0307919)
(0.234112 0 -0.0283798)
(0.225414 0 -0.0260325)
(0.215037 0 -0.0237443)
(0.20291 0 -0.0215044)
(0.188952 0 -0.019299)
(0.173076 0 -0.0171103)
(0.155184 0 -0.0149173)
(0.135175 0 -0.012695)
(0.11294 0 -0.0104146)
(0.0883672 0 -0.00804252)
(0.0613444 0 -0.00553998)
(0.0317185 0 -0.00285803)
(0 0 0)
(0.126512 0 -0.0463315)
(0.136507 0 -0.0488089)
(0.154266 0 -0.0530254)
(0.173673 0 -0.0568189)
(0.19272 0 -0.0595813)
(0.209769 0 -0.0610288)
(0.224071 0 -0.0612363)
(0.235543 0 -0.0604425)
(0.2444 0 -0.0588939)
(0.250943 0 -0.0568219)
(0.255466 0 -0.0543976)
(0.258213 0 -0.0517343)
(0.259354 0 -0.0489304)
(0.259018 0 -0.0460686)
(0.257268 0 -0.0431939)
(0.254122 0 -0.0403413)
(0.249572 0 -0.0375373)
(0.243583 0 -0.0347934)
(0.236105 0 -0.0321162)
(0.227077 0 -0.0295035)
(0.216425 0 -0.0269482)
(0.204068 0 -0.0244385)
(0.189917 0 -0.0219588)
(0.173876 0 -0.0194897)
(0.155844 0 -0.0170077)
(0.135711 0 -0.0144854)
(0.113366 0 -0.0118907)
(0.0886913 0 -0.00918663)