/*--------------------------------*- C++ -*----------------------------------*\
| =========                 |                                                 |
| \\      /  F ield         | OpenFOAM: The Open Source CFD Toolbox           |
|  \\    /   O peration     | Version:  4.1                                   |
|   \\  /    A nd           | Web:      www.OpenFOAM.org                      |
|    \\/     M anipulation  |                                                 |
\*---------------------------------------------------------------------------*/
FoamFile
{
    version     2.0;
    format      ascii;
    class       volVectorField;
    location    "4.3";
    object      Force;
}
// * * * * * * * * * * * * * * * * * * * * * * * * * * * * * * * * * * * * * //

dimensions      [1 1 -2 0 0 0 0];

internalField   uniform (0 0 0);

boundaryField
{
    inlet
    {
        type            calculated;
        value           uniform (0 0 0);
    }
    outlet
    {
        type            calculated;
        value           uniform (0 0 0);
    }
    flap
    {
        type            calculated;
        value           nonuniform List<vector> 
33
(
(3.661 -0.091122 -2.69039e-21)
(3.64524 -0.207103 -1.73474e-18)
(3.62842 -0.300719 -1.70595e-18)
(3.604 -0.36134 -4.08853e-18)
(3.57646 -0.385511 -7.94824e-21)
(3.54956 -0.402659 2.17627e-25)
(3.51076 -0.429874 -1.31815e-20)
(3.44757 -0.462602 -4.62574e-18)
(3.36617 -0.491839 -1.6795e-18)
(3.25689 -0.512725 -4.49449e-22)
(3.12601 -0.505934 2.56294e-18)
(2.9653 -0.483969 -7.72768e-21)
(2.74718 -0.445759 3.71808e-18)
(2.41774 -0.387503 3.27589e-18)
(1.85995 -0.288392 -1.42292e-21)
(0.105771 0.654766 -3.44182e-21)
(0.0657945 0.410186 1.09705e-18)
(0.0251264 0.167063 7.88063e-19)
(0.0299535 -0.000808205 -2.87277e-23)
(0.0312416 -0.00201489 -1.53494e-18)
(0.0333363 -0.00309784 2.28404e-20)
(0.0355067 -0.00397772 6.77527e-24)
(0.0364327 -0.00441023 -2.47592e-20)
(0.0359626 -0.00461194 -4.89463e-20)
(0.0347027 -0.00481951 1.65404e-18)
(0.0325663 -0.00493093 -4.45241e-20)
(0.0297391 -0.0048979 1.61521e-18)
(0.0274636 -0.00476045 -1.25046e-22)
(0.0262884 -0.00459115 3.28946e-18)
(0.02611 -0.00443304 2.55898e-23)
(0.0263143 -0.00418601 1.67463e-18)
(0.0293029 -0.00434355 3.9989e-20)
(0.0381804 -0.00545918 -1.80633e-18)
)
;
    }
    upperWall
    {
        type            calculated;
        value           uniform (0 0 0);
    }
    lowerWall
    {
        type            calculated;
        value           uniform (0 0 0);
    }
    frontAndBack
    {
        type            empty;
    }
}


// ************************************************************************* //
