/*--------------------------------*- C++ -*----------------------------------*\
| =========                 |                                                 |
| \\      /  F ield         | OpenFOAM: The Open Source CFD Toolbox           |
|  \\    /   O peration     | Version:  4.1                                   |
|   \\  /    A nd           | Web:      www.OpenFOAM.org                      |
|    \\/     M anipulation  |                                                 |
\*---------------------------------------------------------------------------*/
FoamFile
{
    version     2.0;
    format      ascii;
    class       pointVectorField;
    location    "1.9";
    object      pointDisplacement;
}
// * * * * * * * * * * * * * * * * * * * * * * * * * * * * * * * * * * * * * //

dimensions      [0 1 0 0 0 0 0];

internalField   nonuniform List<vector> 
5828
(
(0 0 0)
(0.0280233 0 0)
(0.0526903 0 0)
(0.0732823 0 0)
(0.0902344 0 0)
(0.103958 0 0)
(0.114811 0 0)
(0.123118 0 0)
(0.129158 0 0)
(0.133171 0 0)
(0.135364 0 0)
(0.13592 0 0)
(0.135 0 0)
(0.132749 0 0)
(0.129298 0 0)
(0.124764 0 0)
(0.119258 0 0)
(0.112882 0 0)
(0.105733 0 0)
(0.0979052 0 0)
(0.0894918 0 0)
(0.0805885 0 0)
(0.071295 0 0)
(0.061719 0 0)
(0.0519826 0 0)
(0.0422337 0 0)
(0.0326679 0 0)
(0.0236087 0 0)
(0.0156097 0 0)
(0.00990438 0 0)
(-2.64719e-15 0 0)
(0 0 0)
(0.0280429 0.000115272 0)
(0.0527332 0.000221393 0)
(0.0733481 0.00031815 0)
(0.0903245 0.00040893 0)
(0.104073 0.000496539 0)
(0.114951 0.000583014 0)
(0.123285 0.000670071 0)
(0.129357 0.000759326 0)
(0.133404 0.000852084 0)
(0.135635 0.000949613 0)
(0.136233 0.00105313 0)
(0.13536 0.00116384 0)
(0.133161 0.00128298 0)
(0.129768 0.00141194 0)
(0.1253 0.00155227 0)
(0.119868 0.00170583 0)
(0.113576 0.00187468 0)
(0.106523 0.00206115 0)
(0.0988045 0.0022681 0)
(0.0905174 0.00249906 0)
(0.0817619 0.00275855 0)
(0.0726443 0.003052 0)
(0.063282 0.00338609 0)
(0.0538114 0.00376967 0)
(0.0444028 0.00421485 0)
(0.035267 0.00473835 0)
(0.026741 0.00537067 0)
(0.0194571 0.00616504 0)
(0.0148299 0.00715801 0)
(0.00715976 0.00823132 0)
(0 0 0)
(0.0281152 0.000230485 0)
(0.0528748 0.000442704 0)
(0.0735567 0.000636217 0)
(0.0906007 0.000817721 0)
(0.104421 0.000992245 0)
(0.115376 0.00116441 0)
(0.123795 0.00133821 0)
(0.12996 0.00151636 0)
(0.134109 0.00170145 0)
(0.136453 0.00189601 0)
(0.137176 0.00210247 0)
(0.136443 0.0023232 0)
(0.134401 0.00256065 0)
(0.131183 0.00281753 0)
(0.126911 0.0030969 0)
(0.1217 0.00340245 0)
(0.115659 0.00373825 0)
(0.108891 0.00410881 0)
(0.101499 0.00451962 0)
(0.0935867 0.00497754 0)
(0.0852683 0.00549163 0)
(0.0766681 0.00607272 0)
(0.0679266 0.00673402 0)
(0.0592154 0.00749388 0)
(0.0507718 0.00838004 0)
(0.0428977 0.00942518 0)
(0.0360072 0.0106631 0)
(0.0308265 0.0121529 0)
(0.0291031 0.0139232 0)
(0.0240382 0.0156331 0)
(0 0 0)
(0.0282365 0.000344875 0)
(0.0531117 0.000662431 0)
(0.0739047 0.000951985 0)
(0.0910591 0.00122353 0)
(0.104996 0.00148474 0)
(0.116083 0.00174246 0)
(0.124645 0.00200248 0)
(0.130964 0.00226885 0)
(0.135282 0.00254541 0)
(0.137813 0.002836 0)
(0.138745 0.00314428 0)
(0.138245 0.00347368 0)
(0.136463 0.00382782 0)
(0.133536 0.0042106 0)
(0.12959 0.00462642 0)
(0.124746 0.00508086 0)
(0.119121 0.00557996 0)
(0.112827 0.00613 0)
(0.105977 0.00673866 0)
(0.0986859 0.00741542 0)
(0.0910903 0.00817416 0)
(0.0833467 0.00903078 0)
(0.0756297 0.0100031 0)
(0.0681554 0.0111171 0)
(0.0612326 0.0124084 0)
(0.0553174 0.0139171 0)
(0.0510632 0.0156846 0)
(0.0493353 0.0177512 0)
(0.0518922 0.0200457 0)
(0.0502153 0.0220133 0)
(0 0 0)
(0.028405 0.000457727 0)
(0.0534409 0.000879191 0)
(0.0743882 0.00126343 0)
(0.091698 0.00162372 0)
(0.1058 0.00197071 0)
(0.117067 0.00231308 0)
(0.125825 0.00265797 0)
(0.132357 0.00301096 0)
(0.136909 0.00337709 0)
(0.1397 0.00376157 0)
(0.140921 0.00416928 0)
(0.140743 0.00460458 0)
(0.139321 0.00507218 0)
(0.136797 0.00557702 0)
(0.133302 0.00612445 0)
(0.128966 0.00672228 0)
(0.12392 0.00737868 0)
(0.118285 0.00810111 0)
(0.112192 0.00889933 0)
(0.105772 0.00978567 0)
(0.0991825 0.0107768 0)
(0.0926197 0.0118911 0)
(0.0863105 0.0131503 0)
(0.0805516 0.0145859 0)
(0.0757286 0.0162296 0)
(0.0724059 0.0181171 0)
(0.0715237 0.0202945 0)
(0.0743358 0.0227777 0)
(0.0822733 0.0253589 0)
(0.0844187 0.0273869 0)
(0 0 0)
(0.0286193 0.000568604 0)
(0.0538601 0.00109217 0)
(0.0750034 0.00156937 0)
(0.0925116 0.00201669 0)
(0.106825 0.00244758 0)
(0.118319 0.00287258 0)
(0.127325 0.00330025 0)
(0.134127 0.00373754 0)
(0.138976 0.00419045 0)
(0.142096 0.0046657 0)
(0.143684 0.0051695 0)
(0.143914 0.00570685 0)
(0.142949 0.00628355 0)
(0.140939 0.00690564 0)
(0.138023 0.00757994 0)
(0.134337 0.00831565 0)
(0.130025 0.00912171 0)
(0.125227 0.0100071 0)
(0.120094 0.0109841 0)
(0.114786 0.0120678 0)
(0.109481 0.0132738 0)
(0.104416 0.0146214 0)
(0.0998823 0.0161364 0)
(0.0962555 0.0178488 0)
(0.0940544 0.0197851 0)
(0.0939863 0.0219729 0)
(0.0971091 0.0244317 0)
(0.105102 0.0271383 0)
(0.119082 0.0297981 0)
(0.125191 0.0317324 0)
(0 0 0)
(0.0288785 0.000677335 0)
(0.0543671 0.00130079 0)
(0.0757461 0.0018687 0)
(0.0934934 0.00240093 0)
(0.108061 0.00291352 0)
(0.11983 0.00341885 0)
(0.129134 0.0039269 0)
(0.136261 0.00444592 0)
(0.141471 0.00498327 0)
(0.144991 0.00554673 0)
(0.147022 0.00614302 0)
(0.147744 0.00677811 0)
(0.14733 0.00745901 0)
(0.14594 0.00819306 0)
(0.143724 0.00898896 0)
(0.140828 0.00985549 0)
(0.137403 0.0108012 0)
(0.133608 0.0118372 0)
(0.129624 0.0129781 0)
(0.125647 0.0142401 0)
(0.12189 0.0156384 0)
(0.118632 0.017193 0)
(0.116238 0.0189286 0)
(0.115152 0.0208674 0)
(0.116007 0.0230291 0)
(0.119729 0.0254296 0)
(0.12748 0.0280527 0)
(0.141097 0.0308195 0)
(0.16129 0.0333894 0)
(0.171203 0.0351676 0)
(0 0 0)
(0.0291757 0.000783629 0)
(0.0549495 0.00150446 0)
(0.0766068 0.00216075 0)
(0.0946377 0.00277575 0)
(0.109503 0.00336775 0)
(0.121592 0.00395093 0)
(0.131243 0.00453676 0)
(0.138752 0.0051348 0)
(0.144383 0.00575418 0)
(0.14837 0.00640275 0)
(0.150916 0.00708716 0)
(0.15221 0.0078148 0)
(0.152435 0.00859389 0)
(0.151761 0.0094328 0)
(0.150349 0.0103405 0)
(0.148362 0.0113265 0)
(0.145971 0.0124005 0)
(0.143352 0.0135744 0)
(0.140706 0.0148637 0)
(0.138269 0.0162834 0)
(0.136304 0.0178497 0)
(0.135138 0.019581 0)
(0.135205 0.0214967 0)
(0.137053 0.0236116 0)
(0.141423 0.0259347 0)
(0.149368 0.0284595 0)
(0.162267 0.0311407 0)
(0.181812 0.0338384 0)
(0.207969 0.0361849 0)
(0.221345 0.0377668 0)
(0 0 0)
(0.0295085 0.000886852 0)
(0.0556033 0.00170244 0)
(0.0775808 0.00244494 0)
(0.095938 0.00314042 0)
(0.111143 0.00380931 0)
(0.123596 0.00446765 0)
(0.133642 0.00512831 0)
(0.141582 0.00580203 0)
(0.147688 0.0064988 0)
(0.152197 0.00722705 0)
(0.155323 0.00799416 0)
(0.157262 0.00880812 0)
(0.158207 0.00967836 0)
(0.158344 0.010614 0)
(0.157843 0.0116238 0)
(0.156884 0.0127188 0)
(0.15566 0.0139093 0)
(0.154375 0.0152076 0)
(0.153248 0.0166274 0)
(0.152546 0.0181826 0)
(0.152599 0.0198898 0)
(0.153789 0.0217639 0)
(0.156621 0.023818 0)
(0.161744 0.0260589 0)
(0.170032 0.0284812 0)
(0.182597 0.0310511 0)
(0.200969 0.0336909 0)
(0.226462 0.0362039 0)
(0.25808 0.0382229 0)
(0.274488 0.0395271 0)
(0 0 0)
(0.0298792 0.000986512 0)
(0.0563321 0.00189377 0)
(0.0786641 0.0027196 0)
(0.0973824 0.00349258 0)
(0.112965 0.00423526 0)
(0.125821 0.00496549 0)
(0.136304 0.00569744 0)
(0.144721 0.00644263 0)
(0.151347 0.00721141 0)
(0.156433 0.00801359 0)
(0.160201 0.0088577 0)
(0.162857 0.00975213 0)
(0.164605 0.0107069 0)
(0.16564 0.0117312 0)
(0.166153 0.0128347 0)
(0.166336 0.0140275 0)
(0.166394 0.0153196 0)
(0.166571 0.0167241 0)
(0.16712 0.0182538 0)
(0.168338 0.0199213 0)
(0.170622 0.0217417 0)
(0.174413 0.0237252 0)
(0.180284 0.0258774 0)
(0.188991 0.0281948 0)
(0.201495 0.0306546 0)
(0.218991 0.0331992 0)
(0.242941 0.0357123 0)
(0.274115 0.0379532 0)
(0.310553 0.0395835 0)
(0.329377 0.0404886 0)
(0 0 0)
(0.0302845 0.00108224 0)
(0.057129 0.00207745 0)
(0.0798469 0.00298309 0)
(0.0989575 0.0038301 0)
(0.11495 0.00464298 0)
(0.128247 0.00544137 0)
(0.139207 0.00624065 0)
(0.148142 0.00705294 0)
(0.155338 0.00788951 0)
(0.161056 0.00876111 0)
(0.165525 0.00967664 0)
(0.168967 0.0106455 0)
(0.171589 0.0116772 0)
(0.173595 0.0127801 0)
(0.175197 0.0139647 0)
(0.176608 0.015241 0)
(0.178061 0.0166194 0)
(0.179823 0.0181125 0)
(0.18219 0.0197316 0)
(0.1855 0.021488 0)
(0.190194 0.0233929 0)
(0.196792 0.0254507 0)
(0.20593 0.0276597 0)
(0.218464 0.0300062 0)
(0.235413 0.0324495 0)
(0.258052 0.0349115 0)
(0.287507 0.0372389 0)
(0.323935 0.0391719 0)
(0.36445 0.04042 0)
(0.385042 0.0410056 0)
(0 0 0)
(0.0307214 0.00117369 0)
(0.0579878 0.00225286 0)
(0.0811208 0.00323455 0)
(0.100653 0.00415195 0)
(0.117087 0.00503163 0)
(0.130861 0.00589475 0)
(0.142336 0.00675737 0)
(0.15183 0.00763244 0)
(0.159644 0.00853259 0)
(0.166042 0.00946836 0)
(0.17126 0.0104485 0)
(0.175533 0.0114831 0)
(0.179079 0.0125813 0)
(0.182118 0.013752 0)
(0.184881 0.0150055 0)
(0.187604 0.016352 0)
(0.190547 0.0178018 0)
(0.194002 0.0193652 0)
(0.198303 0.0210518 0)
(0.203838 0.0228711 0)
(0.211082 0.0248291 0)
(0.22062 0.0269246 0)
(0.233202 0.02915 0)
(0.249727 0.0314798 0)
(0.271288 0.0338604 0)
(0.299113 0.0361948 0)
(0.333867 0.0383076 0)
(0.375104 0.0399503 0)
(0.418994 0.0408859 0)
(0.441288 0.0413904 0)
(0 0 0)
(0.0311876 0.00126077 0)
(0.0589042 0.00241982 0)
(0.0824805 0.00347375 0)
(0.102465 0.00445801 0)
(0.119376 0.00540123 0)
(0.133657 0.00632532 0)
(0.145675 0.0072468 0)
(0.155763 0.00817982 0)
(0.164227 0.00913756 0)
(0.171338 0.0101304 0)
(0.177341 0.0111673 0)
(0.182483 0.0122586 0)
(0.187004 0.0134141 0)
(0.191136 0.0146427 0)
(0.19513 0.015954 0)
(0.199233 0.0173565 0)
(0.203728 0.0188599 0)
(0.20895 0.0204735 0)
(0.215263 0.0222041 0)
(0.223102 0.024058 0)
(0.232982 0.0260361 0)
(0.245562 0.0281326 0)
(0.261666 0.0303329 0)
(0.282237 0.0326003 0)
(0.308444 0.0348718 0)
(0.341281 0.0370374 0)
(0.381012 0.0389237 0)
(0.426588 0.0403203 0)
(0.473341 0.0410151 0)
(0.497991 0.041717 0)
(0 0 0)
(0.0316803 0.00134336 0)
(0.059873 0.0025781 0)
(0.0839181 0.00370037 0)
(0.104383 0.00474776 0)
(0.121796 0.00575026 0)
(0.136604 0.00673041 0)
(0.149191 0.00770575 0)
(0.159897 0.0086912 0)
(0.169036 0.00970009 0)
(0.17689 0.0107431 0)
(0.183715 0.0118298 0)
(0.189772 0.0129705 0)
(0.195313 0.0141746 0)
(0.20058 0.0154501 0)
(0.205837 0.0168053 0)
(0.211361 0.0182482 0)
(0.217458 0.0197875 0)
(0.224487 0.0214304 0)
(0.232851 0.02318 0)
(0.243027 0.025039 0)
(0.255576 0.0270036 0)
(0.271217 0.0290624 0)
(0.290792 0.0311908 0)
(0.315327 0.0333447 0)
(0.345943 0.0354517 0)
(0.383351 0.0373956 0)
(0.427555 0.0390265 0)
(0.47685 0.0401859 0)
(0.526153 0.0406044 0)
(0.555109 0.0419964 0)
(0 0 0)
(0.0321949 0.001421 0)
(0.0608845 0.00272679 0)
(0.085419 0.00391304 0)
(0.106385 0.00501921 0)
(0.124317 0.00607624 0)
(0.139672 0.00710751 0)
(0.152849 0.00813176 0)
(0.1642 0.0091646 0)
(0.174046 0.0102194 0)
(0.182673 0.0113066 0)
(0.190352 0.0124361 0)
(0.197348 0.0136176 0)
(0.203927 0.0148596 0)
(0.210349 0.0161697 0)
(0.216894 0.0175556 0)
(0.223862 0.0190237 0)
(0.231578 0.0205806 0)
(0.240417 0.0222307 0)
(0.250825 0.0239742 0)
(0.263317 0.0258084 0)
(0.278481 0.0277238 0)
(0.297059 0.0297011 0)
(0.319933 0.0317063 0)
(0.348131 0.0336844 0)
(0.382544 0.035549 0)
(0.423712 0.0371778 0)
(0.47139 0.0384323 0)
(0.52332 0.0391796 0)
(0.574786 0.03896 0)
(0.61254 0.0422168 0)
(0 0 0)
(0.0327313 0.00149387 0)
(0.0619386 0.00286626 0)
(0.0869828 0.00411229 0)
(0.108471 0.00527319 0)
(0.126945 0.00638071 0)
(0.142874 0.00745918 0)
(0.156672 0.00852844 0)
(0.168701 0.00960434 0)
(0.17928 0.0106996 0)
(0.188702 0.0118244 0)
(0.197252 0.0129886 0)
(0.205209 0.0142016 0)
(0.212848 0.0154716 0)
(0.220449 0.0168053 0)
(0.228302 0.0182087 0)
(0.236721 0.0196859 0)
(0.246053 0.0212412 0)
(0.25669 0.0228763 0)
(0.269098 0.0245873 0)
(0.283813 0.0263649 0)
(0.301445 0.0281921 0)
(0.32274 0.0300407 0)
(0.348567 0.0318638 0)
(0.379768 0.0335872 0)
(0.417002 0.035098 0)
(0.460562 0.0362341 0)
(0.509676 0.0367566 0)
(0.561407 0.0362569 0)
(0.610805 0.033581 0)
(0.670193 0.0422981 0)
(0 0 0)
(0.0280233 0 0)
(0.0526903 0 0)
(0.0732823 0 0)
(0.0902344 0 0)
(0.103958 0 0)
(0.114811 0 0)
(0.123118 0 0)
(0.129158 0 0)
(0.133171 0 0)
(0.135364 0 0)
(0.13592 0 0)
(0.135 0 0)
(0.132749 0 0)
(0.129298 0 0)
(0.124764 0 0)
(0.119258 0 0)
(0.112882 0 0)
(0.105733 0 0)
(0.0979052 0 0)
(0.0894918 0 0)
(0.0805885 0 0)
(0.071295 0 0)
(0.061719 0 0)
(0.0519826 0 0)
(0.0422337 0 0)
(0.0326679 0 0)
(0.0236087 0 0)
(0.0156097 0 0)
(0.00990438 0 0)
(1.21431e-16 0 0)
(0 0 0)
(0.0280429 0.000115272 0)
(0.0527332 0.000221393 0)
(0.0733481 0.00031815 0)
(0.0903245 0.00040893 0)
(0.104073 0.000496539 0)
(0.114951 0.000583014 0)
(0.123285 0.000670071 0)
(0.129357 0.000759326 0)
(0.133404 0.000852084 0)
(0.135635 0.000949613 0)
(0.136233 0.00105313 0)
(0.13536 0.00116384 0)
(0.133161 0.00128298 0)
(0.129768 0.00141194 0)
(0.1253 0.00155227 0)
(0.119868 0.00170583 0)
(0.113576 0.00187468 0)
(0.106523 0.00206115 0)
(0.0988045 0.0022681 0)
(0.0905174 0.00249906 0)
(0.0817619 0.00275855 0)
(0.0726443 0.003052 0)
(0.063282 0.00338609 0)
(0.0538114 0.00376967 0)
(0.0444028 0.00421485 0)
(0.035267 0.00473835 0)
(0.026741 0.00537067 0)
(0.0194571 0.00616504 0)
(0.0148299 0.00715801 0)
(0.00715976 0.00823132 0)
(0 0 0)
(0.0281152 0.000230485 0)
(0.0528748 0.000442704 0)
(0.0735567 0.000636217 0)
(0.0906007 0.000817721 0)
(0.104421 0.000992245 0)
(0.115376 0.00116441 0)
(0.123795 0.00133821 0)
(0.12996 0.00151636 0)
(0.134109 0.00170145 0)
(0.136453 0.00189601 0)
(0.137176 0.00210247 0)
(0.136443 0.0023232 0)
(0.134401 0.00256065 0)
(0.131183 0.00281753 0)
(0.126911 0.0030969 0)
(0.1217 0.00340245 0)
(0.115659 0.00373825 0)
(0.108891 0.00410881 0)
(0.101499 0.00451962 0)
(0.0935867 0.00497754 0)
(0.0852683 0.00549163 0)
(0.0766681 0.00607272 0)
(0.0679266 0.00673402 0)
(0.0592154 0.00749388 0)
(0.0507718 0.00838004 0)
(0.0428977 0.00942518 0)
(0.0360072 0.0106631 0)
(0.0308265 0.0121529 0)
(0.0291031 0.0139232 0)
(0.0240382 0.0156331 0)
(0 0 0)
(0.0282365 0.000344875 0)
(0.0531117 0.000662431 0)
(0.0739047 0.000951985 0)
(0.0910591 0.00122353 0)
(0.104996 0.00148474 0)
(0.116083 0.00174246 0)
(0.124645 0.00200248 0)
(0.130964 0.00226885 0)
(0.135282 0.00254541 0)
(0.137813 0.002836 0)
(0.138745 0.00314428 0)
(0.138245 0.00347368 0)
(0.136463 0.00382782 0)
(0.133536 0.0042106 0)
(0.12959 0.00462642 0)
(0.124746 0.00508086 0)
(0.119121 0.00557996 0)
(0.112827 0.00613 0)
(0.105977 0.00673866 0)
(0.0986859 0.00741542 0)
(0.0910903 0.00817416 0)
(0.0833467 0.00903078 0)
(0.0756297 0.0100031 0)
(0.0681554 0.0111171 0)
(0.0612326 0.0124084 0)
(0.0553174 0.0139171 0)
(0.0510632 0.0156846 0)
(0.0493353 0.0177512 0)
(0.0518922 0.0200457 0)
(0.0502153 0.0220133 0)
(0 0 0)
(0.028405 0.000457727 0)
(0.0534409 0.000879191 0)
(0.0743882 0.00126343 0)
(0.091698 0.00162372 0)
(0.1058 0.00197071 0)
(0.117067 0.00231308 0)
(0.125825 0.00265797 0)
(0.132357 0.00301096 0)
(0.136909 0.00337709 0)
(0.1397 0.00376157 0)
(0.140921 0.00416928 0)
(0.140743 0.00460458 0)
(0.139321 0.00507218 0)
(0.136797 0.00557702 0)
(0.133302 0.00612445 0)
(0.128966 0.00672228 0)
(0.12392 0.00737868 0)
(0.118285 0.00810111 0)
(0.112192 0.00889933 0)
(0.105772 0.00978567 0)
(0.0991825 0.0107768 0)
(0.0926197 0.0118911 0)
(0.0863105 0.0131503 0)
(0.0805516 0.0145859 0)
(0.0757286 0.0162296 0)
(0.0724059 0.0181171 0)
(0.0715237 0.0202945 0)
(0.0743358 0.0227777 0)
(0.0822733 0.0253589 0)
(0.0844187 0.0273869 0)
(0 0 0)
(0.0286193 0.000568604 0)
(0.0538601 0.00109217 0)
(0.0750034 0.00156937 0)
(0.0925116 0.00201669 0)
(0.106825 0.00244758 0)
(0.118319 0.00287258 0)
(0.127325 0.00330025 0)
(0.134127 0.00373754 0)
(0.138976 0.00419045 0)
(0.142096 0.0046657 0)
(0.143684 0.0051695 0)
(0.143914 0.00570685 0)
(0.142949 0.00628355 0)
(0.140939 0.00690564 0)
(0.138023 0.00757994 0)
(0.134337 0.00831565 0)
(0.130025 0.00912171 0)
(0.125227 0.0100071 0)
(0.120094 0.0109841 0)
(0.114786 0.0120678 0)
(0.109481 0.0132738 0)
(0.104416 0.0146214 0)
(0.0998823 0.0161364 0)
(0.0962555 0.0178488 0)
(0.0940544 0.0197851 0)
(0.0939863 0.0219729 0)
(0.0971091 0.0244317 0)
(0.105102 0.0271383 0)
(0.119082 0.0297981 0)
(0.125191 0.0317324 0)
(0 0 0)
(0.0288785 0.000677335 0)
(0.0543671 0.00130079 0)
(0.0757461 0.0018687 0)
(0.0934934 0.00240093 0)
(0.108061 0.00291352 0)
(0.11983 0.00341885 0)
(0.129134 0.0039269 0)
(0.136261 0.00444592 0)
(0.141471 0.00498327 0)
(0.144991 0.00554673 0)
(0.147022 0.00614302 0)
(0.147744 0.00677811 0)
(0.14733 0.00745901 0)
(0.14594 0.00819306 0)
(0.143724 0.00898896 0)
(0.140828 0.00985549 0)
(0.137403 0.0108012 0)
(0.133608 0.0118372 0)
(0.129624 0.0129781 0)
(0.125647 0.0142401 0)
(0.12189 0.0156384 0)
(0.118632 0.017193 0)
(0.116238 0.0189286 0)
(0.115152 0.0208674 0)
(0.116007 0.0230291 0)
(0.119729 0.0254296 0)
(0.12748 0.0280527 0)
(0.141097 0.0308195 0)
(0.16129 0.0333894 0)
(0.171203 0.0351676 0)
(0 0 0)
(0.0291757 0.000783629 0)
(0.0549495 0.00150446 0)
(0.0766068 0.00216075 0)
(0.0946377 0.00277575 0)
(0.109503 0.00336775 0)
(0.121592 0.00395093 0)
(0.131243 0.00453676 0)
(0.138752 0.0051348 0)
(0.144383 0.00575418 0)
(0.14837 0.00640275 0)
(0.150916 0.00708716 0)
(0.15221 0.0078148 0)
(0.152435 0.00859389 0)
(0.151761 0.0094328 0)
(0.150349 0.0103405 0)
(0.148362 0.0113265 0)
(0.145971 0.0124005 0)
(0.143352 0.0135744 0)
(0.140706 0.0148637 0)
(0.138269 0.0162834 0)
(0.136304 0.0178497 0)
(0.135138 0.019581 0)
(0.135205 0.0214967 0)
(0.137053 0.0236116 0)
(0.141423 0.0259347 0)
(0.149368 0.0284595 0)
(0.162267 0.0311407 0)
(0.181812 0.0338384 0)
(0.207969 0.0361849 0)
(0.221345 0.0377668 0)
(0 0 0)
(0.0295085 0.000886852 0)
(0.0556033 0.00170244 0)
(0.0775808 0.00244494 0)
(0.095938 0.00314042 0)
(0.111143 0.00380931 0)
(0.123596 0.00446765 0)
(0.133642 0.00512831 0)
(0.141582 0.00580203 0)
(0.147688 0.0064988 0)
(0.152197 0.00722705 0)
(0.155323 0.00799416 0)
(0.157262 0.00880812 0)
(0.158207 0.00967836 0)
(0.158344 0.010614 0)
(0.157843 0.0116238 0)
(0.156884 0.0127188 0)
(0.15566 0.0139093 0)
(0.154375 0.0152076 0)
(0.153248 0.0166274 0)
(0.152546 0.0181826 0)
(0.152599 0.0198898 0)
(0.153789 0.0217639 0)
(0.156621 0.023818 0)
(0.161744 0.0260589 0)
(0.170032 0.0284812 0)
(0.182597 0.0310511 0)
(0.200969 0.0336909 0)
(0.226462 0.0362039 0)
(0.25808 0.0382229 0)
(0.274488 0.0395271 0)
(0 0 0)
(0.0298792 0.000986512 0)
(0.0563321 0.00189377 0)
(0.0786641 0.0027196 0)
(0.0973824 0.00349258 0)
(0.112965 0.00423526 0)
(0.125821 0.00496549 0)
(0.136304 0.00569744 0)
(0.144721 0.00644263 0)
(0.151347 0.00721141 0)
(0.156433 0.00801359 0)
(0.160201 0.0088577 0)
(0.162857 0.00975213 0)
(0.164605 0.0107069 0)
(0.16564 0.0117312 0)
(0.166153 0.0128347 0)
(0.166336 0.0140275 0)
(0.166394 0.0153196 0)
(0.166571 0.0167241 0)
(0.16712 0.0182538 0)
(0.168338 0.0199213 0)
(0.170622 0.0217417 0)
(0.174413 0.0237252 0)
(0.180284 0.0258774 0)
(0.188991 0.0281948 0)
(0.201495 0.0306546 0)
(0.218991 0.0331992 0)
(0.242941 0.0357123 0)
(0.274115 0.0379532 0)
(0.310553 0.0395835 0)
(0.329377 0.0404886 0)
(0 0 0)
(0.0302845 0.00108224 0)
(0.057129 0.00207745 0)
(0.0798469 0.00298309 0)
(0.0989575 0.0038301 0)
(0.11495 0.00464298 0)
(0.128247 0.00544137 0)
(0.139207 0.00624065 0)
(0.148142 0.00705294 0)
(0.155338 0.00788951 0)
(0.161056 0.00876111 0)
(0.165525 0.00967664 0)
(0.168967 0.0106455 0)
(0.171589 0.0116772 0)
(0.173595 0.0127801 0)
(0.175197 0.0139647 0)
(0.176608 0.015241 0)
(0.178061 0.0166194 0)
(0.179823 0.0181125 0)
(0.18219 0.0197316 0)
(0.1855 0.021488 0)
(0.190194 0.0233929 0)
(0.196792 0.0254507 0)
(0.20593 0.0276597 0)
(0.218464 0.0300062 0)
(0.235413 0.0324495 0)
(0.258052 0.0349115 0)
(0.287507 0.0372389 0)
(0.323935 0.0391719 0)
(0.36445 0.04042 0)
(0.385042 0.0410056 0)
(0 0 0)
(0.0307214 0.00117369 0)
(0.0579878 0.00225286 0)
(0.0811208 0.00323455 0)
(0.100653 0.00415195 0)
(0.117087 0.00503163 0)
(0.130861 0.00589475 0)
(0.142336 0.00675737 0)
(0.15183 0.00763244 0)
(0.159644 0.00853259 0)
(0.166042 0.00946836 0)
(0.17126 0.0104485 0)
(0.175533 0.0114831 0)
(0.179079 0.0125813 0)
(0.182118 0.013752 0)
(0.184881 0.0150055 0)
(0.187604 0.016352 0)
(0.190547 0.0178018 0)
(0.194002 0.0193652 0)
(0.198303 0.0210518 0)
(0.203838 0.0228711 0)
(0.211082 0.0248291 0)
(0.22062 0.0269246 0)
(0.233202 0.02915 0)
(0.249727 0.0314798 0)
(0.271288 0.0338604 0)
(0.299113 0.0361948 0)
(0.333867 0.0383076 0)
(0.375104 0.0399503 0)
(0.418994 0.0408859 0)
(0.441288 0.0413904 0)
(0 0 0)
(0.0311876 0.00126077 0)
(0.0589042 0.00241982 0)
(0.0824805 0.00347375 0)
(0.102465 0.00445801 0)
(0.119376 0.00540123 0)
(0.133657 0.00632532 0)
(0.145675 0.0072468 0)
(0.155763 0.00817982 0)
(0.164227 0.00913756 0)
(0.171338 0.0101304 0)
(0.177341 0.0111673 0)
(0.182483 0.0122586 0)
(0.187004 0.0134141 0)
(0.191136 0.0146427 0)
(0.19513 0.015954 0)
(0.199233 0.0173565 0)
(0.203728 0.0188599 0)
(0.20895 0.0204735 0)
(0.215263 0.0222041 0)
(0.223102 0.024058 0)
(0.232982 0.0260361 0)
(0.245562 0.0281326 0)
(0.261666 0.0303329 0)
(0.282237 0.0326003 0)
(0.308444 0.0348718 0)
(0.341281 0.0370374 0)
(0.381012 0.0389237 0)
(0.426588 0.0403203 0)
(0.473341 0.0410151 0)
(0.497991 0.041717 0)
(0 0 0)
(0.0316803 0.00134336 0)
(0.059873 0.0025781 0)
(0.0839181 0.00370037 0)
(0.104383 0.00474776 0)
(0.121796 0.00575026 0)
(0.136604 0.00673041 0)
(0.149191 0.00770575 0)
(0.159897 0.0086912 0)
(0.169036 0.00970009 0)
(0.17689 0.0107431 0)
(0.183715 0.0118298 0)
(0.189772 0.0129705 0)
(0.195313 0.0141746 0)
(0.20058 0.0154501 0)
(0.205837 0.0168053 0)
(0.211361 0.0182482 0)
(0.217458 0.0197875 0)
(0.224487 0.0214304 0)
(0.232851 0.02318 0)
(0.243027 0.025039 0)
(0.255576 0.0270036 0)
(0.271217 0.0290624 0)
(0.290792 0.0311908 0)
(0.315327 0.0333447 0)
(0.345943 0.0354517 0)
(0.383351 0.0373956 0)
(0.427555 0.0390265 0)
(0.47685 0.0401859 0)
(0.526153 0.0406044 0)
(0.555109 0.0419964 0)
(0 0 0)
(0.0321949 0.001421 0)
(0.0608845 0.00272679 0)
(0.085419 0.00391304 0)
(0.106385 0.00501921 0)
(0.124317 0.00607624 0)
(0.139672 0.00710751 0)
(0.152849 0.00813176 0)
(0.1642 0.0091646 0)
(0.174046 0.0102194 0)
(0.182673 0.0113066 0)
(0.190352 0.0124361 0)
(0.197348 0.0136176 0)
(0.203927 0.0148596 0)
(0.210349 0.0161697 0)
(0.216894 0.0175556 0)
(0.223862 0.0190237 0)
(0.231578 0.0205806 0)
(0.240417 0.0222307 0)
(0.250825 0.0239742 0)
(0.263317 0.0258084 0)
(0.278481 0.0277238 0)
(0.297059 0.0297011 0)
(0.319933 0.0317063 0)
(0.348131 0.0336844 0)
(0.382544 0.035549 0)
(0.423712 0.0371778 0)
(0.47139 0.0384323 0)
(0.52332 0.0391796 0)
(0.574786 0.03896 0)
(0.61254 0.0422168 0)
(0 0 0)
(0.0327313 0.00149387 0)
(0.0619386 0.00286626 0)
(0.0869828 0.00411229 0)
(0.108471 0.00527319 0)
(0.126945 0.00638071 0)
(0.142874 0.00745918 0)
(0.156672 0.00852844 0)
(0.168701 0.00960434 0)
(0.17928 0.0106996 0)
(0.188702 0.0118244 0)
(0.197252 0.0129886 0)
(0.205209 0.0142016 0)
(0.212848 0.0154716 0)
(0.220449 0.0168053 0)
(0.228302 0.0182087 0)
(0.236721 0.0196859 0)
(0.246053 0.0212412 0)
(0.25669 0.0228763 0)
(0.269098 0.0245873 0)
(0.283813 0.0263649 0)
(0.301445 0.0281921 0)
(0.32274 0.0300407 0)
(0.348567 0.0318638 0)
(0.379768 0.0335872 0)
(0.417002 0.035098 0)
(0.460562 0.0362341 0)
(0.509676 0.0367566 0)
(0.561407 0.0362569 0)
(0.610805 0.033581 0)
(0.670193 0.0422981 0)
(5.55112e-17 0 0)
(0.0257843 0 0)
(0.0573033 0 0)
(0.110038 0 0)
(0.177033 0 0)
(0.245279 0 0)
(0.304633 0 0)
(0.351735 0 0)
(0.387398 0 0)
(0.413554 0 0)
(0.432036 0 0)
(0.444256 0 0)
(0.45127 0 0)
(0.45384 0 0)
(0.452489 0 0)
(0.447587 0 0)
(0.439402 0 0)
(0.4281 0 0)
(0.41375 0 0)
(0.396382 0 0)
(0.376007 0 0)
(0.35261 0 0)
(0.326161 0 0)
(0.296622 0 0)
(0.263947 0 0)
(0.228089 0 0)
(0.188998 0 0)
(0.146627 0 0)
(0.100943 0 0)
(0.051837 0 0)
(0 0 0)
(0.00723225 -0.00842347 0)
(0.0314569 -0.00820323 0)
(0.0638043 -0.00905101 0)
(0.116575 -0.00922781 0)
(0.182927 -0.00886663 0)
(0.250219 -0.00816599 0)
(0.308645 -0.00735546 0)
(0.354969 -0.00657099 0)
(0.390006 -0.00585154 0)
(0.415654 -0.00521228 0)
(0.433723 -0.00464027 0)
(0.44562 -0.00412636 0)
(0.452383 -0.00367382 0)
(0.45475 -0.00327021 0)
(0.453238 -0.00290781 0)
(0.448214 -0.00258157 0)
(0.439932 -0.00228502 0)
(0.428547 -0.00202046 0)
(0.414129 -0.00178577 0)
(0.396707 -0.001576 0)
(0.376287 -0.0013872 0)
(0.352851 -0.00121587 0)
(0.32637 -0.00105884 0)
(0.296802 -0.000913219 0)
(0.264102 -0.000776299 0)
(0.228221 -0.000645545 0)
(0.189108 -0.000518519 0)
(0.146715 -0.000392815 0)
(0.101007 -0.000266015 0)
(0.051873 -0.000135374 0)
(0 0 0)
(0.0240681 -0.016044 0)
(0.0479499 -0.0157798 0)
(0.0827211 -0.017141 0)
(0.135909 -0.0173776 0)
(0.200629 -0.0166864 0)
(0.26514 -0.0154177 0)
(0.320715 -0.0139495 0)
(0.364616 -0.0125174 0)
(0.3977 -0.0111899 0)
(0.421798 -0.00998812 0)
(0.438648 -0.0089104 0)
(0.449597 -0.0079467 0)
(0.455611 -0.00708775 0)
(0.457381 -0.00631659 0)
(0.455404 -0.00562442 0)
(0.450018 -0.00500034 0)
(0.441447 -0.00443636 0)
(0.429825 -0.00393234 0)
(0.415212 -0.00348231 0)
(0.397631 -0.00307846 0)
(0.377079 -0.00271377 0)
(0.353532 -0.00238183 0)
(0.326956 -0.00207674 0)
(0.297306 -0.00179305 0)
(0.264533 -0.00152566 0)
(0.228585 -0.00126974 0)
(0.189409 -0.00102062 0)
(0.146953 -0.000773652 0)
(0.101178 -0.000524173 0)
(0.0519658 -0.00026684 0)
(0 0 0)
(0.0502779 -0.0226588 0)
(0.0738869 -0.0224013 0)
(0.111847 -0.0239167 0)
(0.165502 -0.0240771 0)
(0.227789 -0.0231018 0)
(0.288198 -0.0214293 0)
(0.339484 -0.0194965 0)
(0.379652 -0.0175811 0)
(0.4097 -0.015785 0)
(0.431404 -0.0141414 0)
(0.44638 -0.0126593 0)
(0.455844 -0.0113266 0)
(0.460677 -0.0101266 0)
(0.461519 -0.00904522 0)
(0.458813 -0.00807036 0)
(0.452852 -0.00719036 0)
(0.443824 -0.00639789 0)
(0.431829 -0.00568688 0)
(0.416911 -0.00504827 0)
(0.399078 -0.00447247 0)
(0.378316 -0.00395031 0)
(0.354592 -0.00347316 0)
(0.327866 -0.00303299 0)
(0.298086 -0.00262228 0)
(0.265197 -0.00223393 0)
(0.229144 -0.00186115 0)
(0.189868 -0.00149732 0)
(0.147313 -0.00113584 0)
(0.101433 -0.000770009 0)
(0.0521024 -0.000392139 0)
(0 0 0)
(0.0844574 -0.0282391 0)
(0.107923 -0.0279908 0)
(0.149065 -0.0294022 0)
(0.202888 -0.0293877 0)
(0.262036 -0.028172 0)
(0.317383 -0.0262223 0)
(0.363354 -0.0239812 0)
(0.398859 -0.021732 0)
(0.425113 -0.0196025 0)
(0.443806 -0.01764 0)
(0.456382 -0.015853 0)
(0.463929 -0.0142311 0)
(0.467251 -0.0127616 0)
(0.466902 -0.0114306 0)
(0.463255 -0.0102253 0)
(0.456551 -0.00913608 0)
(0.446927 -0.00815373 0)
(0.434445 -0.00726826 0)
(0.419128 -0.00646889 0)
(0.400964 -0.00574463 0)
(0.379926 -0.00508479 0)
(0.35597 -0.00447921 0)
(0.329045 -0.00391825 0)
(0.299092 -0.00339279 0)
(0.266051 -0.00289415 0)
(0.229859 -0.00241394 0)
(0.190451 -0.0019439 0)
(0.147767 -0.00147574 0)
(0.101752 -0.00100102 0)
(0.0522715 -0.000509978 0)
(0 0 0)
(0.125245 -0.0327704 0)
(0.148621 -0.0325442 0)
(0.192437 -0.0336904 0)
(0.245836 -0.0334468 0)
(0.301141 -0.0320292 0)
(0.350714 -0.0298925 0)
(0.390724 -0.0274586 0)
(0.421017 -0.0250031 0)
(0.442997 -0.022661 0)
(0.45823 -0.0204831 0)
(0.468027 -0.0184807 0)
(0.473376 -0.0166501 0)
(0.474958 -0.0149809 0)
(0.473234 -0.0134605 0)
(0.468502 -0.0120791 0)
(0.460933 -0.0108269 0)
(0.450606 -0.00969294 0)
(0.43755 -0.00866587 0)
(0.421759 -0.00773393 0)
(0.403201 -0.00688528 0)
(0.381833 -0.00610832 0)
(0.357598 -0.00539187 0)
(0.330434 -0.00472524 0)
(0.300275 -0.00409816 0)
(0.267051 -0.00350075 0)
(0.230692 -0.00292338 0)
(0.191128 -0.00235647 0)
(0.14829 -0.00179037 0)
(0.102117 -0.00121515 0)
(0.0524632 -0.00061929 0)
(0 0 0)
(0.171218 -0.0363945 0)
(0.194583 -0.0361144 0)
(0.240269 -0.0369135 0)
(0.292442 -0.0364237 0)
(0.34318 -0.0348363 0)
(0.386451 -0.0325742 0)
(0.420154 -0.03003 0)
(0.444949 -0.0274629 0)
(0.462347 -0.0250006 0)
(0.473856 -0.0226933 0)
(0.480694 -0.0205572 0)
(0.483692 -0.0185914 0)
(0.483413 -0.0167873 0)
(0.480222 -0.0151365 0)
(0.474322 -0.0136304 0)
(0.465807 -0.0122587 0)
(0.454708 -0.0110105 0)
(0.441015 -0.0098741 0)
(0.424695 -0.00883742 0)
(0.405697 -0.00788837 0)
(0.383958 -0.00701496 0)
(0.359408 -0.00620552 0)
(0.331976 -0.00544874 0)
(0.301583 -0.00473363 0)
(0.268153 -0.00404951 0)
(0.231607 -0.00338582 0)
(0.191868 -0.00273203 0)
(0.148859 -0.00207737 0)
(0.102511 -0.00141076 0)
(0.0526687 -0.000719228 0)
(0 0 0)
(0.221362 -0.0391644 0)
(0.244507 -0.0387737 0)
(0.291116 -0.0392169 0)
(0.341116 -0.0384897 0)
(0.386539 -0.0367532 0)
(0.423121 -0.0344015 0)
(0.450341 -0.0318004 0)
(0.469482 -0.0291879 0)
(0.482186 -0.0266769 0)
(0.489932 -0.0243131 0)
(0.493779 -0.022113 0)
(0.494408 -0.0200761 0)
(0.492265 -0.0181968 0)
(0.48759 -0.0164689 0)
(0.480487 -0.0148844 0)
(0.470989 -0.0134338 0)
(0.459078 -0.0121068 0)
(0.444712 -0.0108918 0)
(0.42783 -0.00977722 0)
(0.408359 -0.0087511 0)
(0.386222 -0.00780155 0)
(0.361335 -0.00691684 0)
(0.333612 -0.00608545 0)
(0.302968 -0.00529606 0)
(0.269316 -0.00453753 0)
(0.232569 -0.00379871 0)
(0.192642 -0.00306839 0)
(0.14945 -0.00233502 0)
(0.102918 -0.00158666 0)
(0.0528803 -0.000809165 0)
(0 0 0)
(0.274513 -0.0410393 0)
(0.297191 -0.0406186 0)
(0.343758 -0.0407505 0)
(0.390515 -0.0398005 0)
(0.429827 -0.0379163 0)
(0.459386 -0.0354889 0)
(0.480017 -0.0328648 0)
(0.493507 -0.0302548 0)
(0.501643 -0.0277533 0)
(0.505768 -0.0253936 0)
(0.506752 -0.0231872 0)
(0.505135 -0.0211344 0)
(0.501204 -0.0192314 0)
(0.495078 -0.0174728 0)
(0.486785 -0.0158517 0)
(0.476301 -0.0143594 0)
(0.46357 -0.0129862 0)
(0.448517 -0.0117216 0)
(0.431057 -0.0105544 0)
(0.4111 -0.0094735 0)
(0.38855 -0.00846735 0)
(0.363311 -0.00752459 0)
(0.335287 -0.00663384 0)
(0.304382 -0.0057838 0)
(0.270499 -0.00496314 0)
(0.233543 -0.00416048 0)
(0.193422 -0.00336418 0)
(0.150044 -0.0025622 0)
(0.103325 -0.00174203 0)
(0.0530906 -0.000888682 0)
(0 0 0)
(0.329382 -0.0421104 0)
(0.351618 -0.0418098 0)
(0.397164 -0.0416743 0)
(0.439412 -0.0404871 0)
(0.471732 -0.0384299 0)
(0.493937 -0.0359256 0)
(0.507996 -0.0333045 0)
(0.516092 -0.0307381 0)
(0.519994 -0.0282922 0)
(0.520818 -0.0259849 0)
(0.51922 -0.0238202 0)
(0.515553 -0.0217984 0)
(0.509956 -0.0199158 0)
(0.502457 -0.0181676 0)