/*--------------------------------*- C++ -*----------------------------------*\
| =========                 |                                                 |
| \\      /  F ield         | OpenFOAM: The Open Source CFD Toolbox           |
|  \\    /   O peration     | Version:  5.x                                   |
|   \\  /    A nd           | Web:      www.OpenFOAM.org                      |
|    \\/     M anipulation  |                                                 |
\*---------------------------------------------------------------------------*/
FoamFile
{
    version     2.0;
    format      ascii;
    class       volVectorField;
    location    "3.5";
    object      Force;
}
// * * * * * * * * * * * * * * * * * * * * * * * * * * * * * * * * * * * * * //

dimensions      [1 1 -2 0 0 0 0];

internalField   uniform (0 0 0);

boundaryField
{
    inlet
    {
        type            calculated;
        value           uniform (0 0 0);
    }
    outlet
    {
        type            calculated;
        value           uniform (0 0 0);
    }
    flap
    {
        type            calculated;
        value           nonuniform List<vector> 
33
(
(3.78066 -1.09508e-18 -0.0734555)
(3.77066 -1.25452e-18 -0.163262)
(3.76293 1.70795e-18 -0.251164)
(3.74702 -8.30644e-19 -0.318148)
(3.72093 -8.35975e-19 -0.361785)
(3.68472 -2.49365e-18 -0.382451)
(3.63893 -4.30076e-22 -0.382759)
(3.58546 1.61993e-18 -0.365506)
(3.52346 1.61293e-18 -0.336417)
(3.44915 -1.61286e-18 -0.304493)
(3.35143 4.91909e-21 -0.278332)
(3.21048 -3.14175e-23 -0.260916)
(2.99614 2.02808e-18 -0.246348)
(2.6539 1.60485e-18 -0.221096)
(2.04144 1.56133e-18 -0.169607)
(0.0588154 8.24777e-19 0.650244)
(0.0371054 2.74279e-22 0.424469)
(0.0132287 -7.84481e-19 0.165045)
(-0.0139155 1.53728e-18 0.000254285)
(-0.0136524 -4.73068e-21 0.000491723)
(-0.013026 -6.5071e-25 0.000675763)
(-0.0120267 5.95603e-25 0.00073772)
(-0.0109143 4.91436e-24 0.000703496)
(-0.0100946 1.61574e-18 0.000637658)
(-0.0100613 -1.63731e-18 0.000626334)
(-0.0112481 9.18355e-41 0.000733873)
(-0.0136129 -5.21771e-25 0.000947147)
(-0.016306 -1.65736e-18 0.00117922)
(-0.0181143 1.64135e-18 0.00135872)
(-0.0188743 -2.86986e-42 0.00159529)
(-0.0172671 3.2782e-18 0.00171043)
(-0.0122067 -1.66555e-18 0.00154718)
(-0.00322541 -3.413e-18 0.000744041)
)
;
    }
    upperWall
    {
        type            calculated;
        value           uniform (0 0 0);
    }
    lowerWall
    {
        type            calculated;
        value           uniform (0 0 0);
    }
    frontAndBack
    {
        type            empty;
    }
}


// ************************************************************************* //
