/*--------------------------------*- C++ -*----------------------------------*\
| =========                 |                                                 |
| \\      /  F ield         | OpenFOAM: The Open Source CFD Toolbox           |
|  \\    /   O peration     | Version:  5.x                                   |
|   \\  /    A nd           | Web:      www.OpenFOAM.org                      |
|    \\/     M anipulation  |                                                 |
\*---------------------------------------------------------------------------*/
FoamFile
{
    version     2.0;
    format      ascii;
    class       surfaceVectorField;
    location    "3.5";
    object      Uf;
}
// * * * * * * * * * * * * * * * * * * * * * * * * * * * * * * * * * * * * * //

dimensions      [0 1 -1 0 0 0 0];

internalField   nonuniform List<vector> 
5457
(
(9.91642 -2.75422e-22 0.0253295)
(9.97404 9.68824e-22 0.0392411)
(9.81547 -7.3062e-22 0.0328718)
(9.92668 6.87554e-21 0.048688)
(9.69739 0 0.0391824)
(9.84886 -7.99468e-21 0.0585785)
(9.55999 0 0.0456975)
(9.74723 1.02267e-21 0.0700919)
(9.40341 0 0.0524176)
(9.62605 2.09498e-21 0.0821353)
(9.22797 -2.29729e-21 0.0593779)
(9.48581 0 0.0946127)
(9.03357 1.68711e-20 0.0667215)
(9.32594 -3.1181e-20 0.107771)
(8.81973 1.87961e-20 0.0745939)
(9.14588 5.51391e-20 0.12185)
(8.58572 -2.52568e-20 0.083121)
(8.94507 2.03632e-22 0.137044)
(8.33062 -2.4774e-20 0.092422)
(8.72277 -2.02503e-20 0.153531)
(8.05338 5.58103e-20 0.102617)
(8.47801 0 0.171485)
(7.75278 -3.85985e-20 0.113829)
(8.20963 4.45962e-20 0.191079)
(7.42752 -5.42352e-20 0.126178)
(7.91639 -9.16782e-20 0.212475)
(7.07629 8.68139e-20 0.139779)
(7.59696 -1.36042e-19 0.235818)
(6.69776 2.35838e-20 0.154734)
(7.24996 2.39672e-19 0.26121)
(6.29078 2.62872e-21 0.171112)
(6.87411 -1.42047e-21 0.288694)
(5.8544 2.7777e-20 0.188942)
(6.46824 2.12991e-19 0.318219)
(5.38813 0 0.208177)
(6.03152 2.25597e-19 0.349594)
(4.89209 -6.89684e-20 0.228668)
(5.56357 -4.63342e-19 0.382434)
(4.3673 -6.71299e-20 0.25012)
(5.06473 -5.04506e-19 0.416094)
(3.81597 0 0.272044)
(4.53632 1.18426e-18 0.449599)
(3.24181 3.46886e-19 0.293688)
(3.98097 -5.58635e-19 0.481564)
(2.65043 -3.49512e-20 0.313966)
(3.40296 3.42375e-19 0.510104)
(2.04969 -1.18352e-18 0.331407)
(2.80866 -3.68398e-19 0.532782)
(1.44987 9.04072e-20 0.344443)
(2.20705 -4.60592e-19 0.546678)
(0.862966 8.70779e-19 0.352776)
(1.60989 -6.35786e-19 0.549232)
(0.297787 0 0.294194)
(1.04326 5.32967e-18 0.54162)
(-0.172015 -2.17049e-18 -0.00947425)
(0.462802 4.50129e-19 0.457231)
(-0.281134 2.3736e-18 -0.312596)
(0.0748082 -5.6352e-18 0.105015)
(0.0518362 5.62944e-19 -0.284185)
(9.99602 8.19606e-21 0.0520952)
(10.0012 4.83198e-22 0.0411086)
(9.95675 -5.96416e-22 0.070856)
(9.97934 7.61685e-21 0.0676304)
(9.89448 -6.84597e-21 0.0875)
(9.93114 -7.99485e-21 0.089473)
(9.81127 3.13258e-21 0.104974)
(9.85998 3.86784e-24 0.112542)
(9.70714 2.06605e-21 0.123297)
(9.7688 -3.34507e-20 0.136763)
(9.58216 -2.93128e-20 0.142511)
(9.6582 2.97873e-20 0.162014)
(9.43624 8.27063e-21 0.162919)
(9.52787 -3.33032e-20 0.188674)
(9.26893 3.57965e-20 0.184846)
(9.37737 -3.62199e-20 0.217189)
(9.07957 4.93155e-21 0.208579)
(9.20624 6.46816e-20 0.247952)
(8.86727 4.79948e-21 0.234383)
(9.01379 4.8656e-21 0.281321)
(8.63098 -1.06136e-20 0.262519)
(8.79916 0 0.317656)
(8.36949 -1.03304e-20 0.293239)
(8.5613 -1.04724e-20 0.357314)
(8.08151 -1.74081e-19 0.326774)
(8.29901 0 0.400638)
(7.76564 2.18862e-20 0.363311)
(8.01101 -3.94224e-19 0.447932)
(7.4205 2.11404e-19 0.402964)
(7.69596 3.71861e-19 0.499436)
(7.0448 2.11813e-19 0.445731)
(7.35249 -2.33339e-20 0.555271)
(6.63742 4.11018e-19 0.491442)
(6.97935 1.84835e-19 0.615381)
(6.19762 -2.46948e-19 0.539677)
(6.57546 2.25631e-19 0.679446)
(5.72523 -8.99395e-19 0.589677)
(6.1401 -1.35515e-18 0.746763)
(5.2209 7.69471e-19 0.640244)
(5.6731 4.89536e-19 0.816109)
(4.68641 6.02732e-19 0.689618)
(5.17511 -5.23954e-20 0.885597)
(4.12506 -5.5133e-19 0.735335)
(4.64791 4.77407e-19 0.952485)
(3.54211 0 0.774061)
(4.09479 2.76173e-19 1.01294)
(2.94542 3.53331e-19 0.801372)
(3.52103 -2.077e-18 1.06175)
(2.34659 -1.18915e-18 0.811303)
(2.93466 4.76997e-18 1.09185)
(1.76438 3.88623e-18 0.79475)
(2.34724 -4.22428e-18 1.09273)
(1.23711 5.72598e-18 0.719518)
(1.77879 2.01836e-18 1.04435)
(0.794415 -3.07354e-18 0.5331)
(1.22689 2.85438e-18 0.884515)
(0.307179 -7.34804e-18 0.0666161)
(0.746233 -3.92131e-18 0.572158)
(0.351437 -1.28235e-17 0.0279709)
(9.9887 0 0.0598298)
(9.999 1.92262e-21 0.0464169)
(9.95267 0 0.0893337)
(9.97457 0 0.0850082)
(9.89411 -1.03324e-21 0.117153)
(9.92742 0 0.118526)
(9.81598 -3.70452e-20 0.146174)
(9.85939 3.15211e-20 0.152405)
(9.7188 -4.85435e-21 0.176696)
(9.7723 -1.01885e-19 0.187746)
(9.60262 2.4931e-20 0.20887)
(9.66677 1.3602e-19 0.22468)
(9.46736 -7.78326e-20 0.243121)
(9.54276 -7.37277e-20 0.263667)
(9.31274 -5.95864e-21 0.279935)
(9.40003 -6.76782e-22 0.305305)
(9.13824 6.38059e-20 0.319768)
(9.23823 7.04685e-22 0.350159)
(8.94314 0 0.363059)
(9.05687 0 0.398764)
(8.72655 0 0.410249)
(8.85526 -1.95111e-20 0.45165)
(8.48742 0 0.461767)
(8.63259 0 0.509348)
(8.2246 -2.25461e-19 0.518018)
(8.38788 0 0.572379)
(7.93679 -3.39428e-20 0.579348)
(8.12007 -1.79094e-19 0.641223)
(7.62267 1.31821e-19 0.64599)
(7.82801 1.83094e-19 0.716278)
(7.28091 -4.74997e-20 0.718008)
(7.51052 -4.81522e-20 0.797797)
(6.91026 0 0.795197)
(7.1664 0 0.885802)
(6.50964 -9.0378e-19 0.87696)
(6.79452 -9.20357e-19 0.979966)
(6.07835 5.82833e-20 0.962149)
(6.39397 8.08078e-19 1.07944)
(5.61626 -3.39532e-19 1.04889)
(5.96407 -8.5421e-19 1.18265)
(5.12406 -1.71138e-19 1.13435)
(5.50467 -4.24391e-19 1.28705)
(4.60365 1.30259e-18 1.21448)
(5.01633 7.9143e-19 1.38887)
(4.05853 -1.83071e-18 1.28366)
(4.50068 1.60217e-20 1.48265)
(3.49447 2.42247e-18 1.33415)
(3.9607 -4.83475e-18 1.56079)
(2.92029 1.63148e-18 1.35501)
(3.40114 9.38968e-18 1.61261)
(2.34867 -6.02249e-18 1.32947)
(2.82843 -5.20062e-18 1.62274)
(1.79285 -8.48416e-19 1.22478)
(2.25158 -3.30693e-18 1.56817)
(1.23938 1.93436e-18 0.998448)
(1.66868 2.7692e-18 1.40995)
(0.660764 -9.52896e-18 0.612919)
(1.05982 -3.5907e-20 1.11975)
(0.57401 -9.90334e-18 0.652747)
(9.98468 1.89676e-21 0.0719528)
(9.99784 -1.91595e-21 0.0536091)
(9.9487 0 0.113341)
(9.97169 1.55991e-20 0.102368)
(9.89121 3.29955e-20 0.152862)
(9.92445 -1.58145e-20 0.147053)
(9.8144 -3.51704e-20 0.193129)
(9.8577 6.29031e-20 0.191601)
(9.71915 4.22778e-20 0.234983)
(9.77245 -9.92096e-20 0.237722)
(9.60564 3.44792e-20 0.278878)
(9.66923 9.78221e-20 0.285914)
(9.47386 4.42709e-21 0.325409)
(9.54813 -6.07269e-20 0.336741)
(9.32367 6.00836e-21 0.375234)
(9.40906 2.31817e-19 0.390909)
(9.15474 -6.31189e-20 0.428988)
(9.25179 -3.3683e-19 0.449123)
(8.96657 -1.97755e-20 0.48729)
(9.07596 3.17986e-19 0.512058)
(8.75852 -1.92497e-20 0.550756)
(8.88107 1.56556e-19 0.580383)
(8.52984 0 0.619998)
(8.66651 -3.55713e-19 0.654773)
(8.27967 4.39735e-20 0.695601)
(8.43155 0 0.735891)
(8.00706 4.2812e-20 0.778088)
(8.17542 3.42858e-19 0.824364)
(7.71099 0 0.867861)
(7.89724 -3.49262e-19 0.920732)
(7.3904 0 0.965122)
(7.5961 9.08607e-20 1.02538)
(7.04423 -9.3273e-19 1.06976)
(7.27106 -9.43071e-20 1.13846)
(6.67147 8.14414e-19 1.18119)
(6.92115 -8.22035e-19 1.2597)
(6.27124 -1.26155e-19 1.29813)
(6.54549 8.75932e-19 1.38828)
(5.84291 -9.34244e-19 1.41837)
(6.14317 -9.32505e-19 1.5225)
(5.38626 5.54084e-19 1.53846)
(5.71346 1.0369e-18 1.65954)
(4.90169 -5.05377e-19 1.65328)
(5.25591 -1.06353e-20 1.79504)
(4.3905 -3.04877e-18 1.75561)
(4.77045 -2.60205e-19 1.92261)
(3.85509 2.30238e-18 1.8354)
(4.25747 -2.49867e-18 2.03327)
(3.29888 2.39147e-18 1.87884)
(3.71784 5.73018e-19 2.11471)
(2.72527 -2.46641e-18 1.86683)
(3.1524 6.83417e-18 2.15047)
(2.13365 3.7207e-19 1.77149)
(2.56166 3.14755e-20 2.11956)
(1.51126 7.78946e-19 1.56516)
(1.94251 -5.08055e-18 1.99342)
(0.834036 -5.67868e-19 1.22859)
(1.25758 4.08457e-19 1.75454)
(0.665228 3.53252e-19 1.37105)
(9.98279 1.20225e-20 0.0846722)
(9.99735 -1.72493e-20 0.0616887)
(9.94646 -6.55443e-22 0.136383)
(9.97034 6.21898e-20 0.119898)
(9.88999 1.5192e-20 0.186371)
(9.92324 -4.73041e-20 0.175081)
(9.81465 -3.38543e-21 0.237024)
(9.85784 3.23723e-20 0.23005)
(9.72137 -4.09492e-20 0.289573)
(9.77465 -3.69595e-20 0.286673)
(9.61041 4.35738e-22 0.344725)
(9.67397 -4.44666e-23 0.345784)
(9.48177 1.70659e-19 0.403192)
(9.55595 -1.37392e-19 0.408087)
(9.33536 -1.18751e-19 0.465732)
(9.42056 2.64558e-19 0.474379)
(9.17092 5.31283e-20 0.533094)
(9.26765 -4.5334e-19 0.545476)
(8.98808 4.92178e-19 0.60601)
(9.09691 4.46486e-19 0.622172)
(8.78634 -1.8679e-19 0.68521)
(8.90794 1.76099e-19 0.705252)
(8.56512 -3.50994e-19 0.77142)
(8.70026 -2.11199e-21 0.795501)
(8.32377 3.03483e-19 0.865344)
(8.47328 -3.20307e-19 0.893697)
(8.06158 -5.84121e-20 0.967626)
(8.22637 3.82631e-19 1.00058)
(7.77778 -2.52609e-19 1.07879)
(7.95887 4.27521e-19 1.1168)
(7.47157 -5.89082e-21 1.19916)
(7.67003 -7.92138e-19 1.24288)
(7.14211 6.85697e-21 1.32873)
(7.35908 -8.33702e-19 1.37906)
(6.78853 -7.38363e-19 1.46701)
(7.02521 8.55385e-19 1.5252)
(6.40995 4.549e-20 1.61277)
(6.66753 -9.23501e-19 1.68058)
(6.00542 1.06473e-18 1.76372)
(6.28499 -8.03213e-19 1.84362)
(5.57403 4.58524e-19 1.91618)
(5.87645 1.92188e-18 2.0115)
(5.11495 2.31548e-19 2.06462)
(5.44059 -1.55678e-18 2.17974)
(4.62738 2.6251e-19 2.20109)
(4.97588 3.72329e-18 2.34177)
(4.11051 -4.19073e-18 2.31463)
(4.48053 -1.44088e-18 2.48831)
(3.56308 5.0815e-18 2.39066)
(3.95219 -8.78786e-18 2.60677)
(2.98269 9.26093e-18 2.4107)
(3.38768 1.36761e-17 2.68095)
(2.36399 -5.4643e-18 2.35169)
(2.78268 3.14577e-20 2.69147)
(1.69626 -5.40066e-18 2.193)
(2.13464 -1.0216e-17 2.6143)
(0.964102 1.32607e-18 1.91622)
(1.4034 5.23281e-18 2.43626)
(0.740767 -5.07686e-18 2.1193)
(9.982 3.39814e-20 0.0976866)
(9.99721 -1.72218e-20 0.0701434)
(9.94565 1.40102e-20 0.159144)
(9.96998 4.65932e-20 0.137439)
(9.89039 -2.90133e-20 0.219306)
(9.92344 -3.1491e-20 0.202511)
(9.81695 -2.16394e-21 0.280277)
(9.85966 2.00917e-21 0.267539)
(9.72611 4.45527e-21 0.343438)
(9.7789 4.04233e-21 0.334356)
(9.61817 -1.39756e-19 0.409672)
(9.68124 8.37285e-21 0.404035)
(9.49317 -3.8031e-20 0.479798)
(9.56683 -1.37565e-19 0.477429)
(9.35104 -7.97514e-20 0.554667)
(9.4357 1.21953e-19 0.55543)
(9.19156 -4.78533e-20 0.635133)
(9.28773 -1.80423e-19 0.638951)
(9.01442 1.26746e-19 0.722038)
(9.12268 1.10308e-19 0.728889)
(8.81919 3.58418e-19 0.816222)
(8.94019 -2.63418e-19 0.826132)
(8.60539 2.44171e-20 0.918517)
(8.73984 3.88616e-19 0.931565)
(8.37246 -2.31913e-19 1.02973)
(8.52111 3.1176e-19 1.04606)
(8.11981 8.69247e-19 1.15063)
(8.28346 3.33063e-19 1.17047)
(7.84678 -1.27877e-19 1.28183)
(8.02628 2.67784e-20 1.30554)
(7.55269 -1.62083e-18 1.42378)
(7.7489 -1.49239e-18 1.45189)
(7.23677 3.66622e-20 1.57659)
(7.45057 -2.99299e-20 1.60991)
(6.89818 6.47511e-19 1.73993)
(7.13048 6.65378e-19 1.7796)
(6.53593 -1.77095e-18 1.9127)
(6.7876 -9.75253e-20 1.96044)
(6.14879 8.75769e-20 2.09281)
(6.42069 -2.62228e-19 2.15108)
(5.73524 -1.3677e-19 2.27668)
(6.02819 7.33166e-20 2.34898)
(5.29336 1.99926e-18 2.45887)
(5.60799 -1.79245e-18 2.54996)
(4.82071 1.95959e-18 2.63151)
(5.1573 7.05966e-18 2.74776)
(4.31403 -6.12352e-18 2.78374)
(4.67264 -9.54686e-18 2.93353)
(3.76898 5.30844e-20 2.90125)
(4.14938 -2.9257e-19 3.09517)
(3.17999 4.30556e-18 2.96644)
(3.5817 4.35093e-18 3.21691)
(2.54011 -4.81752e-18 2.95848)
(2.96259 -4.652e-18 3.27997)
(1.84106 5.50944e-19 2.85796)
(2.2907 -3.69569e-19 3.26126)
(1.07657 -1.30451e-18 2.63977)
(1.52803 5.22452e-18 3.14531)
(0.813068 -1.29356e-17 2.87838)
(9.98182 -3.75936e-21 0.110747)
(9.99729 2.2812e-20 0.0786804)
(9.94588 0 0.181519)
(9.97027 1.54551e-20 0.154784)
(9.89208 0 0.251412)
(9.92468 -2.92295e-20 0.229221)
(9.8209 8.24387e-21 0.322322)
(9.86286 0 0.303888)
(9.73294 8.01973e-21 0.39569)
(9.78488 4.0888e-21 0.380536)
(9.62854 8.57754e-21 0.472557)
(9.69069 0 0.460388)
(9.50779 2.59524e-20 0.553865)
(9.58044 1.34917e-19 0.544442)
(9.3706 1.72033e-20 0.640564)
(9.45419 -1.19325e-19 0.633686)
(9.21681 -1.83483e-20 0.733606)
(9.31187 1.76435e-20 0.729122)
(9.04614 -2.84883e-19 0.833935)
(9.15327 -1.76895e-22 0.831744)
(8.85822 -2.24623e-19 0.942486)
(8.97809 -6.3297e-19 0.942534)
(8.65261 6.74979e-19 1.06019)
(8.78592 6.38479e-19 1.06248)
(8.42881 8.7723e-19 1.18795)
(8.57632 3.24227e-19 1.19254)
(8.18623 -5.13533e-19 1.32662)
(8.34875 2.89933e-19 1.33367)
(7.92427 -1.35784e-18 1.47695)
(8.10261 -7.50668e-19 1.48673)
(7.64222 1.17681e-19 1.6395)
(7.83723 -6.09295e-19 1.65249)
(7.33926 6.07966e-19 1.81455)
(7.55181 1.00711e-19 1.83146)
(7.01441 -8.96831e-20 2.00194)
(7.24536 -7.27652e-19 2.02387)
(6.66643 1.40973e-18 2.20086)
(6.91665 2.93931e-18 2.22946)
(6.29375 -2.71692e-19 2.40956)
(6.56413 1.59965e-18 2.44723)
(5.89423 -1.60647e-18 2.62489)
(6.18572 -3.1821e-18 2.67513)
(5.46497 3.37477e-18 2.84188)
(5.7786 1.42516e-18 2.90961)
(5.00212 -4.64205e-18 3.05327)
(5.33879 1.8797e-18 3.14511)
(4.50069 -3.61278e-18 3.24892)
(4.86137 -7.63208e-18 3.3736)
(3.9543 4.05722e-18 3.4151)
(4.34001 4.32877e-18 3.58385)
(3.35549 -4.70001e-18 3.53457)
(3.76698 3.84438e-18 3.76051)
(2.69664 -1.65652e-19 3.58641)
(3.13331 -8.4409e-18 3.88448)
(1.97165 4.35336e-18 3.54869)
(2.43825 4.39696e-18 3.93107)
(1.17999 -6.64287e-18 3.38438)
(1.64699 4.76984e-18 3.87864)
(0.88586 -1.14568e-17 3.65114)
(9.98203 4.19387e-20 0.123645)
(9.9975 4.17665e-20 0.0871173)
(9.9469 -1.43936e-20 0.203341)
(9.97102 3.084e-20 0.171742)
(9.89484 -2.88238e-20 0.282506)
(9.92674 -6.21872e-20 0.255078)
(9.82623 -4.09899e-21 0.362933)
(9.86718 -1.22969e-22 0.33893)
(9.74159 -3.98774e-21 0.446097)
(9.79234 -1.36661e-19 0.424989)
(9.64124 1.28183e-19 0.533164)
(9.70207 1.30152e-19 0.514575)
(9.52528 -1.38009e-20 0.625187)
(9.59649 1.34768e-19 0.60881)
(9.39369 -1.17059e-19 0.723209)
(9.47571 -2.72978e-19 0.708776)
(9.24633 3.55804e-20 0.828274)
(9.33971 1.55577e-19 0.815561)
(9.08295 -3.5667e-19 0.941415)
(9.18833 1.79991e-20 0.930247)
(8.90323 2.46956e-19 1.06367)
(9.02128 -2.97186e-19 1.05391)
(8.70677 2.8361e-19 1.19605)
(8.83822 8.64573e-19 1.18763)
(8.49307 -2.63738e-19 1.33958)
(8.63873 -6.10205e-19 1.33248)
(8.26158 3.93893e-20 1.49521)
(8.42229 3.99117e-20 1.48951)
(8.01166 0 1.66383)
(8.1883 6.41191e-19 1.65972)
(7.74253 -6.17296e-19 1.84617)
(7.93603 -7.31668e-19 1.84404)
(7.45323 -1.24604e-18 2.0427)
(7.66458 -6.09733e-19 2.04319)
(7.14257 2.34748e-18 2.25353)
(7.37279 -6.36283e-19 2.25766)
(6.80901 3.11387e-18 2.47823)
(7.05918 3.11711e-18 2.48754)
(6.45047 -1.36924e-18 2.71553)
(6.7218 2.07816e-19 2.73233)
(6.06419 -9.48061e-20 2.96296)
(6.35802 -3.05799e-18 2.99063)
(5.64636 -6.50057e-20 3.21639)
(5.96423 3.15046e-18 3.25977)
(5.19181 -1.21912e-18 3.46947)
(5.53547 -1.45815e-18 3.53528)
(4.69403 4.45276e-19 3.71308)
(5.06531 4.22759e-19 3.81024)
(4.14503 4.11041e-18 3.93427)
(4.54574 1.11044e-20 4.07448)
(3.53568 -2.45736e-20 4.11571)
(3.96725 3.84677e-18 4.31331)
(2.85736 -3.74886e-18 4.23493)
(3.31848 -3.79028e-18 4.50674)
(2.10465 4.81989e-18 4.26522)
(2.59762 -4.02784e-18 4.62705)
(1.27902 -2.34899e-19 4.15286)
(1.77136 9.11161e-18 4.64449)
(0.961423 -4.93833e-18 4.45305)
(9.98251 3.05394e-20 0.136222)
(9.99781 7.58687e-21 0.0953312)
(9.94851 -1.82409e-20 0.224456)
(9.9721 1.53851e-20 0.188157)
(9.89847 -3.26228e-20 0.312436)
(9.92945 -9.48513e-20 0.279939)
(9.83276 -1.34575e-19 0.40193)
(9.87246 -2.76313e-22 0.372501)
(9.75182 1.13407e-21 0.49444)
(9.8011 -6.3186e-20 0.467508)
(9.65598 1.36804e-19 0.591224)
(9.71514 -7.70877e-21 0.566344)
(9.54538 -1.29921e-19 0.693439)
(9.61471 1.31323e-19 0.670234)
(9.42 5.40541e-21 0.802215)
(9.49996 -1.53011e-19 0.780351)
(9.27975 1.36181e-19 0.918678)
(9.37091 -1.36672e-19 0.897862)
(9.12444 7.33581e-20 1.04395)
(9.22744 2.77925e-19 1.02393)
(8.95379 3.35704e-19 1.17916)
(9.06933 3.66957e-20 1.15973)
(8.76742 -4.84975e-20 1.32544)
(8.89627 8.09434e-19 1.30642)
(8.56489 -2.98156e-19 1.48389)
(8.70788 -8.93894e-19 1.4652)
(8.34563 6.49515e-19 1.65562)
(8.50367 0 1.63723)
(8.10897 -1.07829e-19 1.84167)
(8.28304 6.41482e-19 1.82367)
(7.85405 -7.22696e-19 2.04296)
(8.04521 -7.31242e-19 2.02562)
(7.57979 0 2.26024)
(7.78922 8.07749e-20 2.24409)
(7.28477 1.78913e-19 2.49398)
(7.51375 0 2.47989)
(6.96712 1.74641e-19 2.74421)
(7.21709 9.12727e-20 2.73355)
(6.62428 -1.5198e-18 3.01031)
(6.89694 -1.39841e-18 3.0052)
(6.25279 2.6003e-19 3.2907)
(6.55012 4.00393e-21 3.29427)
(5.84796 1.70527e-18 3.58238)
(6.17222 1.7257e-18 3.59922)
(5.40341 2.05659e-19 3.88032)
(5.75744 0 3.91704)
(4.91098 -1.62025e-20 4.17662)
(5.29781 -8.61088e-20 4.24231)
(4.36076 -2.12622e-19 4.45943)
(4.78328 -3.13329e-19 4.56635)
(3.7414 0 4.71139)
(4.20193 0 4.87562)
(3.0419 -4.07367e-18 4.90788)
(3.53889 3.47033e-18 5.14954)
(2.25506 4.16688e-19 5.01618)
(2.7886 -7.6856e-18 5.35686)
(1.3807 4.24993e-18 4.96124)
(1.91464 3.74094e-19 5.45886)
(1.0447 4.31378e-18 5.31123)
(9.98317 -7.45443e-21 0.148354)
(9.9982 -1.50955e-20 0.103234)
(9.95059 -6.27641e-20 0.244725)
(9.97346 7.58416e-21 0.203895)
(9.90283 -6.119e-20 0.341054)
(9.93268 -5.4239e-20 0.30367)
(9.84032 7.02614e-20 0.439134)
(9.87855 6.22192e-20 0.40445)
(9.76345 -7.12656e-20 0.540494)
(9.81098 5.47397e-21 0.507903)
(9.67256 -1.13226e-20 0.646469)
(9.72971 -2.58492e-19 0.615464)
(9.56779 1.04431e-19 0.758303)
(9.63487 2.53002e-19 0.728441)
(9.44919 -2.94887e-19 0.877206)
(9.52665 -1.13794e-22 0.848089)
(9.3167 1.05238e-20 1.00439)
(9.40513 1.31014e-20 0.975648)
(9.17018 2.3813e-19 1.14105)
(9.27022 -1.30373e-20 1.11236)
(9.00941 5.20505e-19 1.28841)
(9.12177 2.45674e-19 1.25948)
(8.83406 -5.7912e-20 1.4477)
(8.95954 8.73946e-19 1.41827)
(8.64372 -5.84359e-19 1.62015)
(8.78319 -1.13552e-18 1.59002)
(8.43785 0 1.80701)
(8.59228 -6.33498e-19 1.77603)
(8.21577 8.06505e-22 2.00949)
(8.38624 6.02697e-19 1.97764)
(7.97658 8.25821e-20 2.22877)
(8.1643 6.9861e-19 2.19616)
(7.71911 7.9816e-20 2.46592)
(7.92546 -6.2484e-19 2.43288)
(7.44177 -8.66028e-20 2.72183)
(7.66833 -1.28872e-18 2.68901)
(7.14242 -1.50002e-18 2.99714)
(7.39105 1.13518e-18 2.96563)
(6.81811 1.41934e-19 3.29202)
(7.0911 -2.73705e-18 3.2636)
(6.46476 1.49032e-18 3.60598)
(6.76487 2.85871e-18 3.58339)
(6.07683 0 3.93748)
(6.40733 -1.38789e-18 3.9248)
(5.6468 -2.92975e-19 4.28323)
(6.01185 1.40607e-18 4.28666)
(5.16469 -3.85947e-19 4.63717)
(5.56906 -1.09946e-19 4.66574)
(4.61804 -9.71926e-20 4.98913)
(5.06658 -4.98859e-21 5.0557)
(3.99197 3.51158e-18 5.32255)
(4.4891 4.67387e-20 5.44521)
(3.27074 -2.69041e-19 5.61107)
(3.81639 3.12576e-19 5.81452)
(2.44166 -7.63351e-18 5.81581)
(3.03544 -3.5279e-19 6.12983)
(1.49811 4.64471e-19 5.83651)
(2.09867 -3.97456e-18 6.34358)
(1.14721 4.35672e-18 6.26713)
(9.98398 2.37424e-22 0.159943)
(9.99864 -1.50299e-20 0.110757)
(9.95303 1.52469e-20 0.264025)
(9.97501 3.78345e-20 0.218847)
(9.90781 7.07969e-20 0.368221)
(9.93635 -9.15991e-20 0.326147)
(9.84877 -3.35126e-21 0.474378)
(9.88533 1.24063e-19 0.434633)
(9.77631 -1.8536e-19 0.584058)
(9.82184 -6.4971e-20 0.546001)
(9.69074 1.27435e-20 0.698657)
(9.74559 6.82059e-21 0.661724)
(9.59226 1.4507e-19 0.819493)
(9.65673 1.30753e-19 0.783182)
(9.48094 3.08099e-19 0.947851)
(9.55549 -1.2219e-19 0.911697)
(9.3568 -1.07752e-20 1.08501)
(9.442 3.83967e-21 1.04858)
(9.21973 -2.17377e-21 1.23225)
(9.31624 -2.76138e-19 1.19514)
(9.06959 6.07283e-19 1.39088)
(9.17812 8.32563e-19 1.3527)
(8.90611 -2.29404e-19 1.56222)
(9.02747 1.12721e-20 1.52262)
(8.72894 -1.17837e-18 1.74764)
(8.86403 -5.44022e-19 1.7063)
(8.53759 -1.53945e-20 1.94852)
(8.68743 -5.97339e-19 1.90516)
(8.33143 1.30201e-18 2.16628)
(8.49717 6.0298e-19 2.12072)
(8.10958 -2.48939e-20 2.40237)
(8.29256 1.3003e-18 2.35451)
(7.87084 -2.00201e-18 2.6582)
(8.07263 -2.53657e-18 2.60814)
(7.61357 -3.84524e-20 2.93518)
(7.83604 1.26267e-18 2.88323)
(7.3355 -1.46458e-19 3.23462)
(7.58093 -2.88657e-20 3.18147)
(7.03345 4.36151e-20 3.55767)
(7.3047 -1.39298e-19 3.50457)
(6.70294 -6.79424e-20 3.90513)
(7.00358 -1.74731e-20 3.85417)
(6.33778 4.90264e-20 4.27722)
(6.67227 -2.70072e-18 4.23169)
(5.92939 1.5734e-18 4.67297)
(6.30353 4.05792e-18 4.63818)
(5.46605 2.72541e-19 5.08907)
(5.8869 -1.2044e-18 5.0734)
(4.93216 1.39657e-19 5.51844)
(5.40785 2.80056e-18 5.53474)
(4.30779 -3.15462e-18 5.9471)
(4.84692 -2.77111e-18 6.01513)
(3.5692 2.26681e-19 6.34915)
(4.17655 -3.16595e-18 6.49881)
(2.69233 3.26375e-18 6.68096)
(3.37154 3.58275e-19 6.95303)
(1.65624 0 6.81559)
(2.36092 3.14209e-18 7.32383)
(1.29281 0 7.37712)
(9.9849 2.32688e-20 0.17091)
(9.99912 -7.49085e-21 0.11785)
(9.95577 -7.08186e-20 0.282248)
(9.97674 3.77705e-20 0.232924)
(9.9133 -3.53475e-20 0.393812)
(9.94037 -1.06837e-19 0.34726)
(9.85799 5.98458e-20 0.507513)
(9.89269 5.40383e-20 0.462924)
(9.79023 1.28206e-19 0.62495)
(9.83353 -2.91741e-21 0.581647)
(9.71033 1.26515e-19 0.74757)
(9.7626 1.27452e-19 0.70494)
(9.61852 -1.39905e-19 0.876754)
(9.68006 -3.20297e-21 0.834235)
(9.51495 -4.2485e-19 1.01385)
(9.58619 -1.30719e-19 0.970917)
(9.39966 -2.65245e-19 1.1602)
(9.48118 -2.84142e-19 1.11635)
(9.27263 5.73053e-19 1.31716)
(9.36508 2.82755e-19 1.27191)
(9.13378 2.25995e-19 1.4861)
(9.23787 2.81262e-19 1.43897)
(8.98293 -3.10433e-19 1.66844)
(9.09946 -8.31741e-19 1.61899)
(8.81983 3.65756e-20 1.86567)
(8.9497 5.20953e-19 1.81345)
(8.64407 3.59767e-20 2.07932)
(8.78833 3.64348e-20 2.0239)
(8.45512 6.09631e-19 2.31101)
(8.61496 -6.12456e-19 2.25201)
(8.25218 -1.25795e-18 2.56244)
(8.42903 1.1829e-18 2.49954)
(8.03418 7.73775e-19 2.83542)
(8.22974 -1.86817e-18 2.76839)
(7.79953 1.25798e-18 3.13186)
(8.01588 2.44165e-18 3.06063)
(7.54603 -2.32418e-20 3.45384)
(7.78579 -1.17538e-18 3.37855)
(7.27052 -1.98754e-19 3.80355)
(7.53703 1.3148e-18 3.72474)
(6.96847 -2.68135e-18 4.18328)
(7.26604 -1.37042e-18 4.10208)
(6.63345 1.38284e-18 4.59532)
(6.96772 -1.31267e-18 4.5138)
(6.2563 1.22242e-18 5.04162)
(6.6348 2.63377e-18 4.96354)
(5.82393 1.36863e-18 5.52286)
(6.25653 -1.42557e-18 5.45484)
(5.31773 -1.74562e-19 6.03709)
(5.81708 5.23021e-18 5.99049)
(4.71171 -2.78596e-18 6.57647)
(5.29347 -5.34082e-18 6.57082)
(3.97062 -2.99398e-18 7.12068)
(4.64987 -2.33429e-23 7.18967)
(3.05049 2.86939e-19 7.62687)
(3.84422 -2.95694e-18 7.82405)
(1.90071 3.09783e-18 7.9451)
(2.76502 3.11544e-18 8.4232)
(1.52851 0 8.71586)
(9.98591 7.61907e-21 0.181191)
(9.99965 0 0.12447)
(9.95875 -2.58491e-22 0.299302)
(9.97859 7.51834e-21 0.246052)
(9.91923 -1.52187e-20 0.417716)
(9.94468 1.50153e-20 0.366914)
(9.86787 -9.51078e-21 0.538407)
(9.90054 5.34134e-20 0.489209)
(9.80505 -1.9105e-21 0.663011)
(9.84593 -6.15033e-20 0.614706)
(9.73112 -4.03184e-21 0.793018)
(9.78056 0 0.744948)
(9.64633 4.30018e-21 0.929861)
(9.70463 3.9158e-21 0.881412)
(9.55088 8.01137e-21 1.07494)
(9.61847 1.60923e-20 1.02553)
(9.44489 2.71307e-19 1.22965)
(9.52231 8.07791e-21 1.1787)
(9.3284 -9.10148e-21 1.39539)
(9.4163 2.51488e-19 1.34236)
(9.20142 -7.90847e-19 1.57363)
(9.30048 -5.53916e-19 1.51794)
(9.06387 1.67166e-20 1.76584)
(9.17488 -2.48682e-19 1.70695)
(8.91562 5.14879e-19 1.97362)
(9.03946 -2.7141e-20 1.91095)
(8.75641 -6.20111e-19 2.19863)
(8.8941 5.17394e-19 2.1316)
(8.58583 -1.76218e-20 2.44268)
(8.73859 -6.12309e-19 2.3707)
(8.4033 5.36634e-19 2.70771)
(8.57257 5.80752e-19 2.6302)
(8.20791 -1.49761e-19 2.99588)
(8.39544 -5.73506e-19 2.91227)
(7.99837 -3.39927e-20 3.30964)
(8.20634 1.6892e-18 3.21937)
(7.77273 1.91136e-19 3.65176)
(8.00394 -1.0816e-18 3.55434)
(7.52819 1.13339e-19 4.02552)
(7.78627 1.13919e-19 3.9206)
(7.26066 0 4.43473)
(7.55041 0 4.32223)
(6.96412 -1.93768e-20 4.88399)
(7.29208 0 4.76425)
(6.62972 -5.89995e-20 5.37861)
(7.00491 1.16217e-18 5.25301)
(6.2442 2.51014e-18 5.92444)
(6.67924 -1.1965e-18 5.79631)
(5.78738 -5.69135e-20 6.5272)
(6.30009 2.53115e-18 6.40376)
(5.22819 -2.49014e-18 7.19043)
(5.84393 -2.52299e-18 7.08661)
(4.51837 3.12599e-22 7.90947)
(5.26998 3.16871e-22 7.85632)
(3.5839 -3.18718e-20 8.65854)
(4.51938 0 8.71701)
(2.31396 -3.09419e-20 9.28666)
(3.42233 -2.26e-20 9.65179)
(1.95214 0 10.4049)
(9.98698 0 0.190732)
(10.0002 1.46932e-20 0.130584)
(9.96192 2.28982e-20 0.31511)
(9.98056 0 0.258169)
(9.92552 8.41844e-20 0.439836)
(9.94922 -5.23885e-20 0.38503)
(9.87828 -1.54424e-22 0.566944)
(9.90877 6.84491e-20 0.513395)
(9.82062 -5.87652e-20 0.698105)
(9.8589 1.42512e-21 0.645066)
(9.7529 8.00079e-21 0.834845)
(9.7993 1.23858e-19 0.781616)
(9.67542 1.58705e-20 0.978632)
(9.73021 -1.20748e-19 0.924553)
(9.58841 1.60544e-20 1.13091)
(9.65202 4.45153e-23 1.07534)
(9.49207 -8.60826e-21 1.29311)
(9.56502 5.23256e-23 1.23542)
(9.38653 -3.037e-19 1.46668)
(9.46943 -2.5987e-19 1.40625)
(9.27189 -7.80072e-21 1.65313)
(9.36539 2.56603e-19 1.58931)
(9.14821 -2.89803e-19 1.85401)
(9.25305 4.90281e-21 1.78614)
(9.01547 -1.80847e-20 2.07097)
(9.1325 -1.08592e-18 1.99836)
(8.8736 5.11607e-19 2.3058)
(9.00379 1.09117e-18 2.22771)
(8.7224 4.09227e-22 2.56044)
(8.86693 3.47455e-20 2.47608)
(8.56153 -5.43363e-19 2.83705)
(8.72178 0 2.74556)
(8.39042 1.29207e-18 3.13808)
(8.56809 -5.1996e-19 3.03854)
(8.20817 6.10317e-19 3.46641)
(8.40541 1.78459e-18 3.35777)
(8.01337 -1.14576e-18 3.82546)
(8.23295 -2.27448e-18 3.70655)
(7.80396 -7.16344e-22 4.21942)
(8.0495 2.19475e-18 4.0889)
(7.57679 0 4.65354)
(7.85317 -1.11322e-18 4.50989)
(7.32713 1.19463e-18 5.13456)
(7.64117 4.2604e-21 4.97606)
(7.0478 -2.80601e-22 5.67121)
(7.40919 2.27013e-18 5.49607)
(6.72756 -1.13565e-18 6.27503)
(7.15053 -2.25933e-18 6.0817)
(6.34815 7.53469e-21 6.96132)
(6.85454 3.81402e-22 6.74942)
(5.87868 -1.11889e-21 7.75049)
(6.50359 -1.13253e-21 7.52311)
(5.26392 0 8.66863)
(6.06394 0 8.43899)
(4.39808 9.01649e-21 9.7466)
(5.48034 -8.67646e-19 9.5532)
(3.06369 8.78001e-21 10.9398)
(4.54905 8.19668e-19 10.961)
(2.79043 1.41274e-18 12.7016)
(9.98812 1.44964e-20 0.199492)
(10.0008 1.08708e-21 0.136165)
(9.96526 -7.60248e-20 0.32961)
(9.98261 -1.39121e-20 0.269227)
(9.93209 -6.64611e-20 0.460091)
(9.95395 -1.32754e-19 0.401545)
(9.88912 6.91158e-20 0.593021)
(9.91733 7.33946e-21 0.535403)
(9.83679 1.8572e-19 0.730102)
(9.87234 1.19447e-19 0.672637)
(9.77548 -8.15078e-21 0.872883)
(9.81869 2.46027e-19 0.814839)
(9.70552 -1.34992e-19 1.02286)
(9.75666 -2.48064e-19 0.963537)
(9.62721 -1.596e-20 1.18151)
(9.68668 -8.08074e-21 1.12022)
(9.5408 -2.54594e-19 1.35029)
(9.60912 -8.17955e-21 1.28634)
(9.44652 3.07071e-19 1.53067)
(9.52426 -1.29549e-20 1.46339)
(9.34459 2.66196e-19 1.72419)
(9.43238 3.06806e-19 1.65285)
(9.23519 -8.04923e-19 1.93244)
(9.33373 -2.693e-19 1.85629)
(9.11847 5.00365e-20 2.15713)
(9.22855 -3.22984e-20 2.07536)
(8.99455 6.01477e-19 2.4001)
(9.11711 -4.20525e-19 2.31182)
(8.86349 3.3924e-20 2.66339)
(8.9996 3.31451e-20 2.56764)
(8.72526 1.73795e-20 2.94931)
(8.87623 1.03345e-18 2.84497)
(8.5797 -1.05341e-21 3.26051)
(8.74711 1.03645e-20 3.14632)
(8.42645 -1.14678e-18 3.60016)
(8.61228 -5.37788e-19 3.4746)
(8.26486 1.11651e-18 3.97214)
(8.47167 -1.65264e-18 3.83338)
(8.0939 1.04632e-18 4.3813)
(8.32502 2.23918e-18 4.22704)
(7.91192 -1.09696e-18 4.8339)
(8.17182 -1.63611e-18 4.6612)
(7.71636 1.10447e-18 5.33829)
(8.01133 1.01823e-18 5.14326)
(7.50325 -3.64503e-20 5.90585)
(7.84227 1.109e-18 5.68326)
(7.26624 -1.09823e-18 6.55278)
(7.66285 -1.10764e-18 6.29528)
(6.99464 -8.29112e-21 7.30308)
(7.47051 -5.17323e-19 7.00011)
(6.66912 0 8.1947)
(7.26213 4.44529e-19 7.83026)
(6.25061 -8.78037e-19 9.29402)
(7.03305 -4.32806e-19 8.84183)
(5.64407 -3.51871e-20 10.7445)
(6.79897 -5.1193e-19 10.1476)
(4.55738 2.22561e-18 13.0935)
(6.68421 6.74786e-19 12.0491)
(5.92151 1.26081e-18 16.1972)
(0.129493 -1.0119e-20 -0.0709553)
(0.0621858 -4.10109e-21 -0.120287)
(0.301347 -4.69007e-21 -0.0888498)
(0.230333 -5.46899e-21 -0.156494)
(0.473219 0 -0.0831542)
(0.395493 -9.04645e-22 -0.150996)
(0.624666 0 -0.0688543)
(0.55177 0 -0.12931)
(0.749744 0 -0.0529729)
(0.687948 3.80451e-21 -0.104266)
(0.848026 5.02844e-22 -0.0379231)
(0.799818 -3.69065e-21 -0.0802075)
(0.920766 2.02364e-22 -0.0244404)
(0.887498 -9.35643e-22 -0.0582045)
(0.970133 -4.20545e-22 -0.0128019)
(0.952801 1.40574e-21 -0.0387613)
(0.998933 -1.37817e-22 -0.00305829)
(0.998282 -4.65979e-22 -0.0221886)
(1.0101 -2.98037e-22 0.00474407)
(1.0268 -5.49348e-22 -0.00842227)
(1.00681 1.66144e-23 0.01023)
(1.04095 1.43488e-22 0.0024779)
(0.992286 8.96335e-23 0.0134518)
(1.04334 2.95433e-22 0.0106498)
(0.970771 1.20751e-22 0.0150887)
(1.03665 -2.10813e-22 0.0154637)
(0.945113 1.01165e-22 0.0157172)
(1.0241 6.63904e-22 0.0180897)
(0.916875 -2.25979e-22 0.0154533)
(1.00769 -1.1499e-21 0.0195279)
(0.88825 0 0.0139698)
(0.98849 4.68984e-22 0.0194136)
(0.862577 0 0.0112659)
(0.968774 1.23471e-22 0.0170757)
(0.842177 0 0.00801813)
(0.951591 0 0.0133092)
(0.826624 6.68799e-23 0.00517865)
(0.938283 0 0.00995357)
(0.813846 3.74638e-24 0.00318832)
(0.927504 6.75704e-23 0.00802156)
(0.80279 -1.97442e-22 0.00153812)
(0.916888 -2.00717e-22 0.00680535)
(0.79524 2.60463e-23 -0.000525596)
(0.905871 -1.95027e-22 0.00456218)
(0.794537 1.29102e-22 -0.00300243)
(0.896502 3.44151e-22 0.000434632)
(0.803375 -3.04864e-23 -0.00554694)
(0.891462 -2.67147e-22 -0.0050887)
(0.821851 0 -0.00787929)
(0.893192 0 -0.010452)
(0.848364 0 -0.0099459)
(0.902481 0 -0.0147141)
(0.881489 -2.23063e-24 -0.0122143)
(0.918091 6.86313e-23 -0.0180334)
(0.921268 9.89086e-26 -0.0148407)
(0.939032 -2.25305e-24 -0.021244)
(0.967724 2.22903e-24 -0.0168509)
(0.965545 4.17348e-24 -0.0243404)
(1.0091 -1.92826e-24 -0.0248624)
(0.155263 1.07437e-21 -0.213916)
(0.0619318 -3.73608e-20 -0.270743)
(0.323075 -1.73253e-21 -0.232174)
(0.23438 -2.80324e-22 -0.310156)
(0.482575 -9.18111e-22 -0.212089)
(0.381468 8.4266e-22 -0.291013)
(0.623621 3.75568e-21 -0.178206)
(0.518316 0 -0.24936)
(0.743189 -2.75721e-22 -0.142488)
(0.63658 1.03911e-20 -0.203592)
(0.841521 -5.12857e-21 -0.108997)
(0.734854 -1.01103e-20 -0.160206)
(0.919789 3.01892e-22 -0.0789508)
(0.814134 -1.41319e-21 -0.120675)
(0.980013 1.40975e-21 -0.0529206)
(0.876079 1.67553e-21 -0.0859685)
(1.02483 -8.76628e-22 -0.0309191)
(0.922689 2.65928e-22 -0.0567125)
(1.05632 -7.17852e-23 -0.0126319)
(0.956649 -1.29901e-21 -0.0322554)
(1.07582 4.48839e-22 0.00178539)
(0.980007 4.44392e-22 -0.0120367)