/*--------------------------------*- C++ -*----------------------------------*\
| =========                 |                                                 |
| \\      /  F ield         | OpenFOAM: The Open Source CFD Toolbox           |
|  \\    /   O peration     | Version:  2006                                  |
|   \\  /    A nd           | Website:  www.openfoam.com                      |
|    \\/     M anipulation  |                                                 |
\*---------------------------------------------------------------------------*/
FoamFile
{
    version     2.0;
    format      ascii;
    class       volScalarField;
    location    "7.8";
    object      p;
}
// * * * * * * * * * * * * * * * * * * * * * * * * * * * * * * * * * * * * * //

dimensions      [0 2 -2 0 0 0 0];


internalField   nonuniform List<scalar> 
2790
(
146.747
146.655
146.922
147.493
148.273
149.23
150.363
151.669
153.146
154.787
156.586
158.537
160.631
162.856
165.197
167.632
170.137
172.676
175.207
177.682
180.04
182.218
184.148
185.768
187.028
187.902
188.338
188.394
188.444
188.657
146.544
146.562
146.854
147.422
148.199
149.153
150.281
151.581
153.051
154.683
156.473
158.414
160.497
162.711
165.041
167.466
169.962
172.495
175.026
177.504
179.872
182.067
184.022
185.67
186.954
187.829
188.226
188.28
188.413
188.697
146.346
146.433
146.745
147.303
148.066
149.007
150.12
151.402
152.85
154.458
156.22
158.13
160.178
162.353
164.642
167.024
169.476
171.967
174.459
176.906
179.256
181.449
183.421
185.111
186.461
187.437
188.03
188.385
188.701
188.999
146.121
146.239
146.563
147.112
147.861
148.786
149.879
151.137
152.557
154.131
155.855
157.72
159.719
161.839
164.068
166.386
168.77
171.193
173.62
176.011
178.318
180.49
182.472
184.211
185.666
186.818
187.686
188.356
188.909
189.428
145.86
145.992
146.325
146.866
147.598
148.502
149.57
150.797
152.179
153.71
155.384
157.194
159.129
161.18
163.332
165.568
167.866
170.201
172.543
174.856
177.101
179.236
181.218
183.009
184.579
185.922
187.052
188.014
188.825
189.572
145.559
145.697
146.032
146.564
147.276
148.154
149.19
150.379
151.716
153.196
154.811
156.554
158.414
160.382
162.444
164.582
166.777
169.006
171.243
173.458
175.621
177.698
179.66
181.481
183.144
184.646
185.992
187.198
188.218
189.136
145.217
145.356
145.687
146.206
146.895
147.743
148.742
149.887
151.173
152.593
154.14
155.806
157.581
159.454
161.411
163.437
165.513
167.619
169.732
171.828
173.883
175.874
177.782
179.592
181.298
182.898
184.392
185.771
186.936
187.983
144.832
144.969
145.293
145.796
146.459
147.273
148.23
149.326
150.554
151.906
153.377
154.956
156.635
158.401
160.241
162.14
164.081
166.046
168.014
169.965
171.883
173.75
175.558
177.3
178.978
180.598
182.152
183.625
184.874
186.025
144.406
144.539
144.853
145.336
145.97
146.746
147.657
148.698
149.861
151.14
152.526
154.011
155.583
157.231
158.942
160.701
162.49
164.294
166.093
167.872
169.615
171.314
172.962
174.562
176.124
177.659
179.168
180.638
181.909
183.148
143.939
144.067
144.368
144.828
145.431
146.165
147.026
148.007
149.101
150.299
151.594
152.976
154.433
155.953
157.522
159.126
160.748
162.37
163.976
165.55
167.078
168.553
169.971
171.339
172.672
173.991
175.312
176.65
177.85
179.155
143.434
143.556
143.841
144.276
144.844
145.535
146.342
147.258
148.278
149.39
150.587
151.859
153.192
154.575
155.992
157.428
158.866
160.287
161.674
163.008
164.276
165.466
166.574
167.602
168.567
169.496
170.427
171.426
172.388
173.707
142.892
143.006
143.274
143.683
144.214
144.857
145.607
146.456
147.396
148.418
149.512
150.667
151.87
153.107
154.362
155.619
156.857
158.058
159.2
160.263
161.224
162.067
162.775
163.342
163.768
164.079
164.323
164.632
165.015
166.188
142.315
142.422
142.671
143.051
143.543
144.137
144.827
145.605
146.463
147.39
148.377
149.41
150.476
151.561
152.646
153.712
154.739
155.703
156.579
157.338
157.951
158.385
158.608
158.583
158.281
157.684
156.811
155.821
154.875
155.382
141.706
141.804
142.034
142.383
142.834
143.377
144.005
144.71
145.482
146.312
147.188
148.095
149.021
149.948
150.856
151.725
152.53
153.244
153.836
154.268
154.498
154.475
154.137
153.405
152.183
150.355
147.795
144.498
140.555
138.524
141.066
141.156
141.366
141.684
142.092
142.583
143.146
143.776
144.461
145.191
145.953
146.733
147.514
148.279
149.007
149.674
150.252
150.708
151.004
151.094
150.921
150.411
149.466
147.952
145.674
142.343
137.504
130.494
120.046
107.845
0.67643
0.656574
0.587664
0.492434
0.39403
0.3045
0.228515
0.167225
0.120001
0.0850157
0.0607018
0.0446004
0.0344063
0.0283672
0.0251381
0.0236393
0.023001
0.0225561
0.021827
0.0205137
0.0184926
0.0158087
0.0126435
0.00928413
0.00616782
0.00357008
0.0016209
0.000347231
-0.000351213
-0.000636817
0.628359
0.605974
0.541186
0.453431
0.36279
0.279879
0.209129
0.151915
0.10805
0.0765979
0.0549118
0.0405812
0.0316835
0.0266252
0.024151
0.0232257
0.0229965
0.0228137
0.0222175
0.0209263
0.0188413
0.0160323
0.0127117
0.00918006
0.00598218
0.00337194
0.00144986
0.000232965
-0.000397558
-0.000358608
0.574702
0.54799
0.485794
0.405054
0.322753
0.24749
0.183216
0.1314
0.0919563
0.063607
0.0446794
0.0329533
0.0263223
0.0231484
0.0222587
0.0226409
0.0234334
0.0239696
0.0237854
0.0226115
0.0203988
0.0173005
0.013566
0.00968009
0.00600909
0.00304602
0.00110962
-1.0708e-05
-0.000492205
-0.000207136
0.522332
0.491184
0.430713
0.355934
0.281366
0.213427
0.155544
0.109185
0.0744032
0.0500683
0.0340529
0.0246423
0.0201319
0.0188335
0.0196106
0.0213916
0.0232824
0.0246078
0.0248947
0.0238833
0.021546
0.0180554
0.0138097
0.00945726
0.00549197
0.00232661
0.000323055
-0.000602725
-0.00100584
-0.000783587
0.484711
0.449358
0.390414
0.319873
0.250915
0.188157
0.134799
0.0923262
0.0609597
0.0397072
0.0264032
0.0187236
0.0149873
0.0147529
0.0166943
0.0195445
0.0223604
0.0244156
0.0251781
0.0243378
0.0218128
0.0179559
0.0135223
0.00901778
0.00504477
0.00219719
0.00043122
-0.000596327
-0.00100649
-0.000954329
0.474099
0.433595
0.375656
0.306555
0.239681
0.178588
0.126599
0.0852545
0.0549882
0.0347669
0.0215691
0.0137247
0.0111395
0.0115002
0.0140397
0.0175076
0.021014
0.0237863
0.025141
0.0247126
0.0224077
0.0184685
0.0135628
0.00850375
0.0041225
0.00110371
-0.000506204
-0.00122988
-0.00156207
-0.00115769
0.501251
0.453033
0.393751
0.321709
0.251735
0.187763
0.133241
0.0898589
0.0581875
0.0373986
0.0247873
0.0159237
0.0103864
0.00968857
0.0118549
0.0151911
0.0187265
0.0216844
0.0233603
0.0232824
0.0212962
0.0176644
0.0129721
0.00803472
0.00377844
0.000858149
-0.000744133
-0.00164495
-0.00222685
-0.00138542
0.570735
0.51352
0.445183
0.364248
0.285523
0.214395
0.154243
0.106434
0.070921
0.0460634
0.0289171
0.0179293
0.0119468
0.00997727
0.0108885
0.0133726
0.016418
0.0192127
0.021015
0.0212264
0.0195468
0.0161299
0.0115579
0.00672208
0.00261155
-0.000128593
-0.001638
-0.00266565
-0.00330587
-0.00166314
0.682692
0.60718
0.520307
0.423391
0.33097
0.249139
0.181157
0.127536
0.0866105
0.0564768
0.035702
0.0222608
0.0144287
0.0109237
0.0104149
0.0116885
0.0138432
0.0161591
0.0178939
0.0182922
0.0168267
0.0134889
0.00889695
0.00414278
0.000354948
-0.00191296
-0.00306516
-0.00399548
-0.00442509
-0.00194558
0.819988
0.713446
0.597612
0.479768
0.37292
0.280336
0.203257
0.142474
0.0969648
0.0640657
0.0409394
0.0256015
0.0163525
0.0116238
0.00985216
0.00982621
0.0108757
0.0125606
0.0142066
0.0148097
0.0134488
0.00987583
0.00483838
-0.000143853
-0.00358761
-0.00502365
-0.00531652
-0.00566235
-0.00551135
-0.00221539
0.950362
0.802559
0.658984
0.51676
0.393142
0.292121
0.211734
0.149015
0.101743
0.0672438
0.0427203
0.0262756
0.0163814
0.0111717
0.00859949
0.0073232
0.00709928
0.00809998
0.0098563
0.0109364
0.00971098
0.00552453
-0.000618938
-0.00639554
-0.00958788
-0.00974555
-0.00848517
-0.0076229
-0.00653043
-0.00246502
1.05823
0.85602
0.675558
0.516387
0.385235
0.281614
0.201479
0.14059
0.0956341
0.0628215
0.0389485
0.0227192
0.0134273
0.0090068
0.00644576
0.00398831
0.0021614
0.00238234
0.00467203
0.00685118
0.00600306
0.000743198
-0.00749566
-0.0149929
-0.0181508
-0.0163864
-0.0125764
-0.00976685
-0.00745184
-0.00268833
1.0835
0.812718
0.605547
0.444085
0.322624
0.232875
0.164643
0.112868
0.0759217
0.0492824
0.0285482
0.0137267
0.00647199
0.00477231
0.003537
-0.000124066
-0.00432714
-0.00519864
-0.00164248
0.00283789
0.00297246
-0.00392462
-0.0157379
-0.0264387
-0.0299844
-0.0253347
-0.0174932
-0.0118664
-0.00823734
-0.00288097
0.861634
0.516243
0.364699
0.266074
0.187932
0.138179
0.099168
0.0647681
0.0419957
0.0270435
0.0117706
-0.00162977
-0.00556755
-0.0014219
0.000986708
-0.00415498
-0.0125412
-0.0154603
-0.00953138
-0.000614411
0.00168735
-0.00758509
-0.0251948
-0.0414426
-0.04615
-0.0371499
-0.0229734
-0.0134516
-0.00881035
-0.00304028
0.188922
-0.224822
-0.149808
-0.0385778
-0.0297834
0.00455112
0.0175828
-0.0016718
-0.00980102
-0.00421493
-0.00976092
-0.0233549
-0.023485
-0.008803
0.00106831
-0.0067864
-0.0233985
-0.0306406
-0.0204938
-0.00317451
0.00361487
-0.00894292
-0.0356053
-0.0610143
-0.0682654
-0.0527091
-0.0284931
-0.0135973
-0.00899316
-0.00316484
140.387
140.468
140.656
140.941
141.306
141.741
142.239
142.79
143.386
144.012
144.657
145.305
145.939
146.538
147.081
147.54
147.883
148.075
148.068
147.808
147.222
146.213
144.648
142.335
138.973
134.068
126.701
114.958
92.8215
33.1257
139.66
139.731
139.897
140.147
140.466
140.844
141.273
141.744
142.246
142.766
143.29
143.802
144.284
144.713
145.066
145.313
145.419
145.342
145.032
144.422
143.428
141.938
139.792
136.759
132.481
126.374
117.406
103.844
84.3221
55.8555
138.89
138.952
139.094
139.308
139.58
139.899
140.257
140.645
141.051
141.463
141.864
142.239
142.567
142.825
142.988
143.023
142.893
142.553
141.947
141.004
139.633
137.713
135.08
131.503
126.656
120.085
111.199
99.3566
85.1034
68.4391
138.08
138.131
138.25
138.427
138.65
138.909
139.195
139.499
139.809
140.11
140.388
140.625
140.799
140.888
140.863
140.691
140.333
139.742
138.86
137.613
135.912
133.637
130.638
126.718
121.629
115.078
106.766
96.361
83.7966
68.6313
137.23
137.271
137.365
137.505
137.678
137.877
138.091
138.31
138.523
138.714
138.87
138.97
138.993
138.916
138.71
138.34
137.767
136.943
135.811
134.3
132.325
129.778
126.532
122.429
117.288
110.91
103.093
93.5944
82.2448
69.2503
136.343
136.374
136.443
136.545
136.669
136.807
136.948
137.083
137.199
137.283
137.317
137.284
137.161
136.925
136.545
135.99
135.218
134.185
132.835
131.104
128.914
126.174
122.779
118.61
113.536
107.422
100.145
91.6057
81.7928
71.1191
135.422
135.442
135.487
135.551
135.626
135.703
135.772
135.824
135.846
135.823
135.741
135.578
135.316
134.928
134.387
133.661
132.711
131.495
129.962
128.055
125.707
122.844
119.383
115.239
110.322
104.554
97.8811
90.2905
81.8256
72.8222
134.47
134.48
134.5
134.527
134.553
134.57
134.569
134.539
134.469
134.344
134.149
133.864
133.47
132.941
132.253
131.373
130.267
128.896
127.214
125.174
122.719
119.793
116.333
112.281
107.582
102.197
96.1121
89.3467
81.9507
74.1965
133.491
133.49
133.486
133.477
133.455
133.413
133.343
133.235
133.076
132.854
132.551
132.152
131.635
130.978
130.156
129.142
127.902
126.404
124.608
122.473
119.958
117.017
113.608
109.692
105.242
100.241
94.6968
88.6421
82.1309
75.3911
132.488
132.477
132.45
132.404
132.336
132.238
132.102
131.919
131.676
131.361
130.958
130.452
129.823
129.051
128.112
126.981
125.631
124.032
122.152
119.959
117.42
114.503
111.18
107.429
103.237
98.6064
93.5534
88.1176
82.3523
76.4424
131.466
131.445
131.396
131.316
131.203
131.051
130.852
130.597
130.275
129.874
129.379
128.775
128.046
127.171
126.131
124.903
123.464
121.79
119.853
117.631
115.098
112.233
109.02
105.448
101.515
97.2313
92.6204
87.7216
82.5829
77.3527
130.43
130.4
130.329
130.216
130.061
129.858
129.6
129.278
128.882
128.401
127.822
127.131
126.312
125.349
124.224
122.917
121.409
119.681
117.712
115.484
112.981
110.189
107.1
103.711
100.028
96.0654
91.8484
87.4133
82.8022
78.1343
129.385
129.347
129.255
129.111
128.916
128.665
128.352
127.968
127.504
126.951
126.296
125.528
124.631
123.593
122.397
121.028
119.47
117.708
115.726
113.513
111.056
108.351
105.393
102.185
98.7383
95.0682
91.1997
87.1653
83.0007
78.8024
128.338
128.291
128.18
128.008
127.775
127.479
127.115
126.674
126.15
125.531
124.81
123.973
123.011
121.91
120.658
119.242
117.65
115.87
113.892
111.707
109.31
106.698
103.873
100.841
97.6136
94.2079
90.6468
86.9587
83.174
79.3705
127.294
127.24
127.111
126.911
126.644
126.308
125.897
125.405
124.825
124.149
123.369
122.475
121.457
120.305
119.01
117.56
115.948
114.164
112.202
110.058
107.728
105.214
102.519
99.6533
96.6278
93.4594
90.1688
86.7806
83.3201
79.8507
126.26
126.198
126.053
125.829
125.531
125.157
124.704
124.167
123.538
122.812
121.982
121.039
119.976
118.784
117.457
115.986
114.364
112.588
110.652
108.554
106.296
103.88
101.312
98.6006
95.7593
92.803
89.7502
86.6218
83.4392
80.2541
125.242
125.174
125.014
124.767
124.441
124.034
123.544
122.966
122.295
121.526
120.653
119.67
118.571
117.35
116
114.517
112.897
111.136
109.233
107.187
105.002
102.682
100.233
97.6655
94.9908
92.2234
89.3793
86.4764
83.5327
80.5906
124.247
124.173
124
123.734
123.382
122.946
122.423
121.81
121.102
120.297
119.389
118.374
117.248
116.005
114.642
113.155
111.543
109.804
107.938
105.947
103.835
101.606
99.2694
96.8331
94.3086
91.7087
89.0476
86.3405
83.6026
80.8689
123.283
123.204
123.019
122.735
122.361
121.899
121.348
120.704
119.967
119.131
118.195
117.155
116.008
114.751
113.381
111.898
110.3
108.587
106.761
104.825
102.783
100.642
98.4084
96.0915
93.7014
91.2497
88.7489
86.2118
83.6515
81.0968
122.356
122.273
122.078
121.778
121.385
120.901
120.325
119.657
118.893
118.033
117.075
116.016
114.855
113.59
112.22
110.744
109.164
107.48
105.695
103.814
101.84
99.7793
97.6403
95.4309
93.1606
90.8396
88.4788
86.0893
83.6823
81.2817
121.475
121.388
121.184
120.871
120.461
119.958
119.362
118.672
117.888
117.009
116.034
114.961
113.791
112.523
111.156
109.693
108.133
106.48
104.736
102.906
100.995
99.0099
96.9567
94.8437
92.6795
90.4732
88.2344
85.9728
83.6979
81.4297
120.648
120.557
120.345
120.02
119.596
119.077
118.464
117.758
116.957
116.063
115.075
113.994
112.819
111.551
110.192
108.742
107.204
105.582
103.878
102.097
100.245
98.3274
96.3513
94.3239
92.253
90.147
88.0141
85.8629
83.7016
81.547
119.881
119.787
119.568
119.234
118.798
118.266
117.639
116.919
116.105
115.2
114.203
113.116
111.94
110.676
109.326
107.891
106.376
104.783
103.117
101.382
99.583
97.7265
95.8188
93.8667
91.8774
89.8582
87.8167
85.7603
83.6962
81.6385
119.184
119.088
118.863
118.52
118.073
117.53
116.893
116.161
115.338
114.424
113.422
112.333
111.157
109.899
108.559
107.141
105.648
104.083
102.451
100.757
99.0064
97.204
95.3563
93.4697
91.5508
89.6062
87.6428
85.6671
83.6856
81.7101
118.565
118.466
118.236
117.885
117.43
116.878
116.231
115.492
114.661
113.742
112.736
111.646
110.473
109.221
107.893
106.49
105.017
103.479
101.878
100.221
98.5114
96.7559
94.9599
93.1294
91.2704
89.389
87.4913
85.5834
83.6711
81.7641
118.033
117.932
117.695
117.337
116.875
116.316
115.663
114.917
114.081
113.158
112.151
111.061
109.893
108.648
107.33
105.942
104.488
102.972
101.399
99.7727
98.0993
96.3837
94.6313
92.8477
91.0387
89.2098
87.3667
85.5149
83.6597
81.8095
117.599
117.493
117.25
116.884
116.415
115.85
115.191
114.44
113.601
112.675
111.668
110.58
109.415
108.177
106.869
105.494
104.056
102.559
101.009
99.4093
97.7654
96.0822
94.3651
92.6194
90.8504
89.0635
87.2638
85.4563
83.6461
81.8399
117.273
117.162
116.909
116.537
116.063
115.493
114.83
114.076
113.234
112.307
111.3
110.214
109.053
107.821
106.52
105.156
103.731
102.25
100.718
99.1395
97.5188
95.8612
94.1717
92.4555
90.7177
88.9633
87.1972
85.4243
83.6493
81.8783
117.071
116.936
116.666
116.288
115.812
115.24
114.574
113.818
112.975
112.049
111.042
109.958
108.801
107.573
106.279
104.922
103.507
102.037
100.518
98.953
97.348
95.7076
94.0366
92.34
90.6227
88.8896
87.1454
85.3948
83.642
81.8922
117.053
116.854
116.556
116.171
115.692
115.117
114.448
113.69
112.846
111.92
110.914
109.832
108.677
107.453
106.164
104.812
103.404
101.942
100.431
98.8758
97.2812
95.6519
93.9927
92.3085
90.6041
88.8842
87.1535
85.4164
83.6773
81.9404
-50.5254
-30.2658
-11.157
35.4721
27.9976
15.9022
50.9079
38.7998
27.5615
52.3409
41.9076
33.8513
56.6841
48.3871
41.6203
61.0742
54.1582
48.2601
64.3521
58.4654
53.4117
66.9533
61.9244
57.6119
69.1466
64.8113
61.0999
70.9984
67.2174
63.9885
72.5558
69.2239
66.3857
73.8684
70.9048
68.3855
74.9766
72.318
70.0614
75.9127
73.5091
71.471
76.7033
74.5147
72.66
77.3702
75.3643
73.6649
77.9317
76.0819
74.5147
78.4031
76.6874
75.2332
78.7973
77.1971
75.8398
79.1253
77.6248
76.3508
79.3968
77.9823
76.7798
79.6204
78.2799
77.1386
79.8027
78.5256
77.4367
79.9519
78.7287
77.684
80.0703
78.8925
77.885
80.1699
79.0295
78.052
80.242
79.1314
78.1787
80.315
79.2272
78.2917
80.3492
79.2777
78.3562
80.4184
79.361
78.446
-2.96455
-2.87496
-1.4169
-0.276845
-0.240311
-0.141714
-0.0810349
-0.108382
-0.0915021
-0.0295268
-0.0172757
-0.045803
-0.0516143
-0.0211865
0.0056252
-0.00592223
-0.0374839
-0.0530289
-0.035373
-0.00251699
0.012745
-0.00500554
-0.0462243
-0.0868314
-0.099319
-0.0738714
-0.0332329
-0.0104954
-0.00829457
-0.00325753
2.12402
-0.767866
0.824559
0.30115
-1.05569
-0.806173
-0.157137
-0.126609
-0.106322
-0.0048985
-0.024426
-0.113689
-0.131426
-0.0456402
0.0360667
0.0154953
-0.0498495
-0.0874283
-0.0613838
-0.000730297
0.0307468
0.00483147
-0.0589396
-0.123371
-0.145074
-0.10415
-0.035523
-0.000311857
-0.00523826
-0.00333654
13.2859
4.92338
2.10883
-0.34322
-0.653413
0.853186
1.01861
-0.351116
-0.71365
-0.347495
-0.00374321
-0.102736
-0.136752
0.0221797
0.117674
0.0397028
-0.0956922
-0.17245
-0.121152
0.00769496
0.0776836
0.0361152
-0.0632032
-0.16536
-0.205696
-0.145643
-0.0321638
0.0239605
0.0036984
-0.00348386
23.0786
13.1867
7.2997
3.52995
1.81698
1.29583
0.0630701
-0.6122
-0.206898
0.963507
0.829759
-0.258357
-0.633852
-0.407032
0.101296
0.141649
-0.0928362
-0.230211
-0.140312
0.0790734
0.161861
0.0741563
-0.0828995
-0.243803
-0.317509
-0.230837
-0.0225137
0.0727581
0.0247939
-0.00396974
32.261
22.4824
15.1561
9.86739
6.24022
3.77364
1.90276
0.913378
0.660131
0.638383
0.118693
-0.47739
-0.526628
0.469049
0.986145
0.348122
-0.240296
-0.562078
-0.499766
-0.0418731
0.251607
0.152
-0.0757818
-0.30418
-0.411995
-0.253503
0.0174305
0.161352
0.0656162
-0.00554396
40.2496
31.3127
23.4186
16.985
12.0617
8.42305
5.757
3.88072
2.61206
1.69871
0.929977
0.341627
0.142978
0.448386
0.449755
0.182411
-0.28179
-0.573134
-0.294659
0.507438
0.681916
0.219819
-0.123945
-0.444521
-0.671597
-0.595297
-0.015292
0.289336
0.12995
-0.0106319
46.77
38.9553
31.1716
24.277
18.6526
14.1983
10.6804
7.92952
5.83642
4.26415
3.04593
2.09436
1.47081
1.16637
0.903973
0.558831
0.0873748
-0.209133
-0.0853341
0.2761
0.410254
0.228218
-0.0964525
-0.471501
-0.720564
-0.426621
0.361245
0.555851
0.207357
-0.0236351
52.0805
45.3418
38.0772
31.2429
25.3595
20.4165
16.2792
12.8598
10.0935
7.88215
6.09782
4.66116
3.57146
2.79848
2.19108
1.5956
1.00871
0.604138
0.498632
0.581582
0.597068
0.38906
0.0254195
-0.342674
-0.533245
-0.313519
0.159857
0.397023
0.304416
-0.0641729
56.4125
50.5902
44.0003
37.5228
31.7036
26.5929
22.1259
18.2673
14.9881
12.2321
9.92409
8.00711
6.45232
5.21615
4.19721
3.29644
2.50701
1.9047
1.54079
1.34729
1.15067
0.825707
0.415708
0.0464619
-0.144967
-0.0476521
0.234858
0.391618
0.261169
-0.303033
59.9479
54.8763
48.9694
42.9813
37.4262
32.3819
27.8194
23.7344
20.1284
16.9829
14.2614
11.9259
9.9441
8.27577
6.85755
5.6293
4.57221
3.70852
3.05268
2.55584
2.10909
1.63107
1.13825
0.710074
0.436721
0.373185
0.444396
0.43255
0.172758
-0.517937
62.8517
58.3894
53.1062
47.6356
42.4384
37.5981
33.1019
28.9613
25.1974
21.8159
18.8049
16.1444
13.8117
11.7784
10.006
8.45548
7.10501
5.95288
4.99492
4.19537
3.4879
2.81871
2.18654
1.63468
1.21659
0.955595
0.791604
0.575604
0.171197
-0.593019
65.257
61.2914
56.5512
51.5707
46.7557
42.1848
37.8512
33.7722
29.9775
26.4859
23.3012
20.4175
17.8241
15.5048
13.4367
11.5953
9.96175
8.52623
7.27745
6.18894
5.2188
4.3302
3.51426
2.79046
2.18551
1.70397
1.29818
0.86664
0.307171
-0.522367
67.2636
63.707
59.4306
54.8907
50.4444
46.1623
42.0384
38.0899
34.3485
30.839
27.574
24.5576
21.7883
19.2594
16.9596
14.8743
12.9904
11.297
9.78205
8.42596
7.20118
6.0821
5.05752
4.13236
3.31571
2.60207
1.95422
1.30283
0.576591
-0.331556
68.9468
65.7304
61.8482
57.6953
53.5878
49.5881
45.6887
41.9045
38.2658
34.7991
31.5212
28.4421
25.5666
22.895
20.4236
18.1456
16.0529
14.1371
12.3882
10.7919
9.32981
7.98376
6.74251
5.60307
4.56442
3.61642
2.73023
1.85855
0.954209
-0.0565013
70.3646
67.4337
63.887
60.0706
56.2669
52.5306
48.8526
45.2443
41.7332
38.3452
35.0987
32.0065
29.0773
26.316
23.7242
21.3004
19.0409
16.9404
14.992
13.1858
11.5092
9.94929
8.49584
7.14229
5.88263
4.70522
3.58769
2.49764
1.40458
0.262869
71.5621
68.8725
65.6121
62.0876
58.5529
55.0564
51.5873
48.1536
44.7795
41.4892
38.3008
35.2284
32.2827
29.4715
26.7997
24.2693
21.8802
19.6302
17.5152
15.5288
13.6626
11.9072
10.254
8.69534
7.22324
5.8262
4.48662
3.18172
1.89121
0.591069
72.5752
70.0903
67.0752
63.8035
60.5056
57.2244
53.9478
50.6807
47.4438
44.2589
41.1436
38.1116
35.1746
32.3419
29.6205
27.0148
24.5272
22.158
19.9056
17.7663
15.7348
13.8044
11.968
10.218
8.5464
6.94231
5.39146
3.87685
2.38354
0.902518
73.4326
71.1219
68.3175
65.2649
62.1746
59.0851
55.9833
52.8711
49.7663
46.6882
43.6527
40.6733
37.7615
34.9272
32.1786
29.5217
26.9605
24.4974
22.1326
19.8646
17.6903
15.6051
13.6032
11.6781
9.82188
8.0247
6.27438
4.55705
2.85979
1.1828
74.1575
71.9956
69.3722
66.5096
63.6008
60.6811
57.7362
54.766
51.7852
48.8108
45.8571
42.9365
40.0601
37.2379
34.4784
31.7886
29.1737
26.6372
24.181
21.8052
19.5084
17.2874
15.1379
13.0541
11.0288
9.05301
7.1158
5.20465
3.30675
1.4269
74.7696
72.7346
70.2669
67.5687
64.8183
62.0479
59.2429
56.4012
53.5348
50.6585
47.7851
44.9256
42.0905
39.2893
36.5306
33.8218
31.1686
28.5756
26.0456
23.58
21.1784
18.8392
16.5589
14.3326
12.1538
10.0141
7.90326
5.80908
3.71793
1.63614
75.2848
73.358
71.0241
68.4681
65.8553
63.2157
60.5344
57.8076
55.0452
52.26
49.463
46.6642
43.873
41.0983
38.3485
35.6309
32.9516
30.3156
27.7265
25.1864
22.696
20.2544
17.8591
15.5059
13.1889
10.9
8.62929
6.36455
4.09101
1.81468
75.7171
73.8823
71.6629
69.2293
66.7357
64.21
61.6371
59.0122
56.3431
53.6409
50.9151
48.1744
45.4273
42.682
39.9463
37.2273
34.5312
31.8631
29.2271
26.6258
24.0605
21.5311
19.0355
16.5702
14.1297
11.7063
9.29015
6.86869
4.42623
1.96745
76.0775
74.3206
72.199
69.8702
67.479
65.0515
62.5729
60.0373
57.4508
54.823
52.162
49.4756
46.771
44.0559
41.3373
38.622
35.916
33.2245
30.5517
27.9005
25.2726
22.6683
20.0861
17.5228
14.9733
12.43
9.88315
7.31989
4.72383
2.09786
76.377
74.6856
72.6467
70.4069
68.1028
65.7593
63.3617
60.9033
58.3889
55.8266
53.2236
50.5864
47.9215
45.2357
42.5355
39.8271
37.1163
34.4081
31.7067
29.0152
26.3355
23.6682
21.012
18.3642
15.7196
13.0711
10.4086
7.71916
4.98597
2.20965
76.6218
74.9848
73.015
70.8497
68.6187
66.346
64.0169
61.6241
59.1714
56.6657
54.1132
51.5195
48.8904
46.2318
43.5497
40.8498
38.1376
35.4178
32.6945
29.9709
27.2489
24.5292
21.8109
19.0911
16.3652
13.6258
10.863
8.06359
5.21061
2.30239
76.8238
75.2309
73.3178
71.2138
69.0431
66.8287
64.5563
62.218
59.8168
57.3586
54.8489
52.2926
49.6946
47.0602
44.3949
41.704
38.9925
36.2649
33.5251
30.7763
28.0204
25.2581
22.4886
19.7091
16.9151
14.0992
11.2514
8.35853
5.40335
2.38122
76.9796
75.4217
73.5533
71.498
69.375
67.2071
64.9799
62.6854
60.3255
57.9058
55.4308
52.905
50.3327
47.7187
45.0679
42.3852
39.6754
36.9426
34.1907
31.4226
28.6402
25.8443
23.034
20.2066
17.3576
14.4796
11.5625
8.59313
5.5543
2.43912
77.1116
75.5794
73.7451
71.7266
69.6398
67.507
65.3141
63.0527
60.7244
58.334
55.8857
53.3834
50.831
48.233
45.5937
42.9179
40.2099
37.4737
34.7131
31.9307
29.1285
26.3071
23.4657
20.6018
17.7105
14.7845
11.8137
8.78449
5.6797
2.48863
77.1929
75.6768
73.8648
71.8714
69.809
67.6996
65.5296
63.2905
60.9834
58.6127
56.1823
53.6959
51.1571
48.5698
45.9386
43.2675
40.561
37.8228
35.0564
32.2647
29.4493
26.611
23.7488
20.8601
17.9401
14.9814
11.9736
8.90291
5.75198
2.50855
77.2819
75.7669
73.9672
71.9888
69.9401
67.8433
65.6854
63.458
61.1619
58.8012
56.3799
53.9013
51.3688
48.7865
46.1585
43.489
40.7822
38.0418
35.2714
32.4735
29.65
26.8015
23.9272
21.0244
18.0881
15.111
12.0823
8.98735
5.80617
2.51495
)
;

boundaryField
{
    inlet
    {
        type            zeroGradient;
    }
    outlet
    {
        type            fixedValue;
        value           uniform 0;
    }
    flap
    {
        type            zeroGradient;
    }
    upperWall
    {
        type            zeroGradient;
    }
    lowerWall
    {
        type            zeroGradient;
    }
    frontAndBack
    {
        type            empty;
    }
}


// ************************************************************************* //
