/*--------------------------------*- C++ -*----------------------------------*\
| =========                 |                                                 |
| \\      /  F ield         | OpenFOAM: The Open Source CFD Toolbox           |
|  \\    /   O peration     | Version:  2006                                  |
|   \\  /    A nd           | Website:  www.openfoam.com                      |
|    \\/     M anipulation  |                                                 |
\*---------------------------------------------------------------------------*/
FoamFile
{
    version     2.0;
    format      ascii;
    class       volVectorField;
    location    "7.8";
    object      U;
}
// * * * * * * * * * * * * * * * * * * * * * * * * * * * * * * * * * * * * * //

dimensions      [0 1 -1 0 0 0 0];


internalField   nonuniform List<vector> 
2790
(
(9.94399 0.0205232 0)
(9.87572 0.0295878 0)
(9.77521 0.0359896 0)
(9.64944 0.0425564 0)
(9.50409 0.0493858 0)
(9.34006 0.0564289 0)
(9.15654 0.0638166 0)
(8.95262 0.0717126 0)
(8.72746 0.0802566 0)
(8.48007 0.0895754 0)
(8.20926 0.0997959 0)
(7.91362 0.111049 0)
(7.59165 0.123464 0)
(7.24174 0.13717 0)
(6.86228 0.152278 0)
(6.45173 0.168877 0)
(6.00881 0.187005 0)
(5.5326 0.206628 0)
(5.02287 0.227599 0)
(4.48034 0.24962 0)
(3.90704 0.272185 0)
(3.30671 0.294533 0)
(2.68516 0.315626 0)
(2.0505 0.334292 0)
(1.41168 0.350608 0)
(0.79794 0.372887 0)
(0.110575 0.325009 0)
(-0.469571 -0.114885 0)
(-0.453793 -0.297134 0)
(-0.231165 -0.423851 0)
(9.9985 0.0407031 0)
(9.98145 0.062383 0)
(9.93574 0.0791405 0)
(9.86416 0.0966254 0)
(9.77097 0.115125 0)
(9.65715 0.134489 0)
(9.52205 0.154977 0)
(9.36485 0.176946 0)
(9.18471 0.200711 0)
(8.98066 0.226554 0)
(8.75151 0.25475 0)
(8.49586 0.285568 0)
(8.21217 0.319259 0)
(7.89879 0.356035 0)
(7.55399 0.396034 0)
(7.17614 0.439279 0)
(6.76372 0.48561 0)
(6.31558 0.534605 0)
(5.83116 0.58548 0)
(5.31078 0.636971 0)
(4.75605 0.687219 0)
(4.1703 0.733658 0)
(3.55918 0.77296 0)
(2.93144 0.801095 0)
(2.29985 0.813745 0)
(1.69286 0.807245 0)
(1.10707 0.747227 0)
(0.658841 0.547898 0)
(0.18636 0.224563 0)
(-0.00819861 -0.453753 0)
(9.99559 0.0432071 0)
(9.97556 0.0752721 0)
(9.9318 0.103347 0)
(9.86489 0.132372 0)
(9.77778 0.163061 0)
(9.67155 0.195401 0)
(9.54587 0.229745 0)
(9.40013 0.266607 0)
(9.23365 0.306476 0)
(9.04563 0.349814 0)
(8.83507 0.397081 0)
(8.60079 0.448733 0)
(8.34142 0.505206 0)
(8.05547 0.56688 0)
(7.74134 0.634031 0)
(7.39739 0.706753 0)
(7.02205 0.78486 0)
(6.61388 0.867748 0)
(6.17186 0.954219 0)
(5.69555 1.04228 0)
(5.18553 1.1289 0)
(4.64385 1.2098 0)
(4.07469 1.27916 0)
(3.48527 1.32933 0)
(2.88674 1.35008 0)
(2.29938 1.32641 0)
(1.73177 1.22074 0)
(1.2162 0.972963 0)
(0.701104 0.570098 0)
(0.358015 -0.156628 0)
(9.99403 0.0494995 0)
(9.97181 0.0932068 0)
(9.92788 0.133573 0)
(9.86224 0.17421 0)
(9.77693 0.216435 0)
(9.67298 0.260664 0)
(9.55031 0.307434 0)
(9.40849 0.357421 0)
(9.24702 0.411298 0)
(9.06532 0.469715 0)
(8.86267 0.533314 0)
(8.63818 0.602738 0)
(8.39082 0.67861 0)
(8.11949 0.761495 0)
(7.82296 0.851845 0)
(7.49996 0.949902 0)
(7.14919 1.05558 0)
(6.76937 1.16827 0)
(6.35942 1.28663 0)
(5.91851 1.40829 0)
(5.44643 1.52949 0)
(4.9439 1.6447 0)
(4.41306 1.74615 0)
(3.85816 1.82321 0)
(3.28572 1.86135 0)
(2.70631 1.84029 0)
(2.12557 1.72596 0)
(1.5542 1.47781 0)
(0.957911 1.08363 0)
(0.509412 0.502252 0)
(9.99331 0.0572139 0)
(9.96994 0.110959 0)
(9.92593 0.162105 0)
(9.86146 0.213349 0)
(9.77799 0.266359 0)
(9.67635 0.321918 0)
(9.55654 0.380707 0)
(9.41821 0.443495 0)
(9.26097 0.511065 0)
(9.08432 0.584182 0)
(8.88769 0.663602 0)
(8.67037 0.750081 0)
(8.43157 0.844356 0)
(8.17043 0.947109 0)
(7.88604 1.05891 0)
(7.57743 1.18011 0)
(7.24361 1.31072 0)
(6.88354 1.45022 0)
(6.4962 1.59726 0)
(6.08064 1.74936 0)
(5.63606 1.90244 0)
(5.16201 2.05033 0)
(4.65866 2.18418 0)
(4.1271 2.29173 0)
(3.56929 2.35654 0)
(2.98879 2.35728 0)
(2.38675 2.2649 0)
(1.76632 2.04756 0)
(1.08995 1.69131 0)
(0.536633 1.15405 0)
(9.99302 0.065539 0)
(9.96923 0.128702 0)
(9.92556 0.190115 0)
(9.86253 0.251845 0)
(9.78128 0.315581 0)
(9.68244 0.382323 0)
(9.56601 0.45288 0)
(9.43171 0.528109 0)
(9.2792 0.60889 0)
(9.10805 0.696098 0)
(8.91776 0.790596 0)
(8.70772 0.893245 0)
(8.47726 1.00488 0)
(8.22565 1.12629 0)
(7.95211 1.25812 0)
(7.65584 1.40085 0)
(7.33597 1.55458 0)
(6.99157 1.7189 0)
(6.62161 1.89259 0)
(6.22491 2.07326 0)
(5.80018 2.25688 0)
(5.34593 2.43722 0)
(4.86059 2.60521 0)
(4.34258 2.74821 0)
(3.79027 2.84952 0)
(3.20246 2.88815 0)
(2.57647 2.83815 0)
(1.91339 2.67151 0)
(1.1727 2.37388 0)
(0.549944 1.89427 0)
(9.99297 0.0740752 0)
(9.96926 0.146315 0)
(9.92637 0.217484 0)
(9.86508 0.289294 0)
(9.78642 0.363358 0)
(9.69085 0.440832 0)
(9.57835 0.522667 0)
(9.44871 0.60982 0)
(9.30164 0.703267 0)
(9.13677 0.80398 0)
(8.95363 0.912919 0)
(8.75169 1.03103 0)
(8.53032 1.15925 0)
(8.28885 1.29843 0)
(8.02655 1.44934 0)
(7.74264 1.61252 0)
(7.43624 1.78823 0)
(7.10633 1.97621 0)
(6.75172 2.17546 0)
(6.37091 2.38386 0)
(5.96199 2.59778 0)
(5.52252 2.81141 0)
(5.0494 3.01617 0)
(4.53887 3.19996 0)
(3.98652 3.34665 0)
(3.38777 3.4359 0)
(2.73713 3.44321 0)
(2.03614 3.34137 0)
(1.24168 3.11342 0)
(0.563484 2.69298 0)
(9.99306 0.0825884 0)
(9.96981 0.163607 0)
(9.92807 0.244051 0)
(9.86885 0.325482 0)
(9.79313 0.409449 0)
(9.70126 0.497211 0)
(9.59323 0.589846 0)
(9.46888 0.688405 0)
(9.32796 0.793952 0)
(9.17014 0.907546 0)
(8.99502 1.03024 0)
(8.80209 1.16306 0)
(8.5908 1.30704 0)
(8.36048 1.46313 0)
(8.11041 1.63219 0)
(7.83976 1.81492 0)
(7.54756 2.01172 0)
(7.2326 2.22257 0)
(6.89342 2.44679 0)
(6.52807 2.68275 0)
(6.13398 2.92741 0)
(5.70772 3.17581 0)
(5.24482 3.42039 0)
(4.73962 3.6502 0)
(4.18531 3.8502 0)
(3.57459 4.00082 0)
(2.89936 4.07779 0)
(2.16198 4.05222 0)
(1.31603 3.9015 0)
(0.583178 3.53993 0)
(9.99326 0.0909286 0)
(9.97072 0.180409 0)
(9.93046 0.269669 0)
(9.87362 0.360243 0)
(9.80118 0.45365 0)
(9.71344 0.551214 0)
(9.61038 0.654119 0)
(9.49188 0.763506 0)
(9.35776 0.880518 0)
(9.20773 1.0063 0)
(9.04145 1.14198 0)
(8.85847 1.2887 0)
(8.65826 1.44755 0)
(8.4402 1.61963 0)
(8.20355 1.80591 0)
(7.94742 2.00726 0)
(7.67073 2.22431 0)
(7.3721 2.45734 0)
(7.04971 2.70613 0)
(6.70117 2.96964 0)
(6.32323 3.24573 0)
(5.91151 3.53059 0)
(5.4602 3.8181 0)
(4.96182 4.099 0)
(4.40721 4.35984 0)
(3.78619 4.58202 0)
(3.08736 4.74094 0)
(2.31253 4.80426 0)
(1.41052 4.74083 0)
(0.61425 4.44163 0)
(9.99352 0.0989923 0)
(9.97191 0.196579 0)
(9.9334 0.294196 0)
(9.87924 0.393418 0)
(9.8104 0.495758 0)
(9.72717 0.602593 0)
(9.62953 0.715189 0)
(9.51742 0.834771 0)
(9.39069 0.962558 0)
(9.24913 1.09977 0)
(9.09245 1.24761 0)
(8.92028 1.40732 0)
(8.73212 1.5801 0)
(8.52741 1.76715 0)
(8.30541 1.96961 0)
(8.06523 2.18854 0)
(7.80568 2.42486 0)
(7.52524 2.67925 0)
(7.22183 2.95201 0)
(6.89266 3.24291 0)
(6.5339 3.55088 0)
(6.14032 3.87357 0)
(5.70486 4.20676 0)
(5.21826 4.54341 0)
(4.66874 4.87242 0)
(4.04259 5.17689 0)
(3.32341 5.43215 0)
(2.50951 5.60172 0)
(1.54168 5.64316 0)
(0.66397 5.41764 0)
(9.99384 0.106704 0)
(9.9733 0.212 0)
(9.9368 0.317503 0)
(9.88558 0.424857 0)
(9.82064 0.535591 0)
(9.74226 0.651124 0)
(9.65045 0.772793 0)
(9.54518 0.901894 0)
(9.42638 1.03971 0)
(9.29391 1.18754 0)
(9.14753 1.34666 0)
(8.98694 1.51838 0)
(8.81175 1.70403 0)
(8.62142 1.90492 0)
(8.4153 2.12237 0)
(8.1925 2.35767 0)
(7.95184 2.61205 0)
(7.69173 2.88663 0)
(7.40997 3.18239 0)
(7.10354 3.49997 0)
(6.76821 3.83959 0)
(6.39816 4.20065 0)
(5.98534 4.58128 0)
(5.51882 4.97739 0)
(4.98406 5.38133 0)
(4.36291 5.77949 0)
(3.63152 6.14897 0)
(2.77976 6.45037 0)
(1.73318 6.62807 0)
(0.744698 6.50255 0)
(9.9942 0.114006 0)
(9.97487 0.226575 0)
(9.94056 0.339473 0)
(9.89252 0.454424 0)
(9.83174 0.572984 0)
(9.75851 0.696612 0)
(9.67289 0.826699 0)
(9.57489 0.964601 0)
(9.46449 1.11166 0)
(9.34163 1.26923 0)
(9.20616 1.43867 0)
(9.05787 1.62137 0)
(8.89645 1.81873 0)
(8.72147 2.03221 0)
(8.53237 2.2633 0)
(8.32835 2.51352 0)
(8.10832 2.78444 0)
(7.87076 3.07767 0)
(7.61354 3.39485 0)
(7.33363 3.73762 0)
(7.02678 4.1076 0)
(6.68696 4.50617 0)
(6.30563 4.93425 0)
(5.87076 5.39156 0)
(5.36538 5.87541 0)
(4.76642 6.37822 0)
(4.04018 6.88306 0)
(3.16092 7.35315 0)
(2.02431 7.72263 0)
(0.880508 7.75631 0)
(9.99459 0.120853 0)
(9.97657 0.240224 0)
(9.94461 0.360007 0)
(9.89996 0.482 0)
(9.84356 0.607796 0)
(9.77576 0.738884 0)
(9.69663 0.876701 0)
(9.60624 1.02265 0)
(9.50465 1.17813 0)
(9.39186 1.34453 0)
(9.26783 1.52328 0)
(9.13243 1.71582 0)
(8.98549 1.92365 0)
(8.8267 2.14835 0)
(8.65563 2.39155 0)
(8.47167 2.65502 0)
(8.2739 2.94063 0)
(8.06104 3.25047 0)
(7.8312 3.58683 0)
(7.58169 3.95234 0)
(7.30864 4.35002 0)
(7.00644 4.78335 0)
(6.66692 5.2563 0)
(6.27809 5.77313 0)
(5.82196 6.33783 0)
(5.27186 6.95246 0)
(4.58379 7.61352 0)
(3.70915 8.30054 0)
(2.48746 8.95747 0)
(1.12407 9.29205 0)
(9.99501 0.12721 0)
(9.97838 0.252883 0)
(9.94891 0.379019 0)
(9.9078 0.507485 0)
(9.85599 0.639907 0)
(9.79382 0.777802 0)
(9.72144 0.922641 0)
(9.63895 1.07586 0)
(9.54649 1.2389 0)
(9.44415 1.41319 0)
(9.33197 1.60018 0)
(9.20997 1.80139 0)
(9.07807 2.01838 0)
(8.93616 2.25281 0)
(8.78399 2.50646 0)
(8.62117 2.78127 0)
(8.44708 3.0794 0)
(8.26078 3.40333 0)
(8.06089 3.75594 0)
(7.84535 4.1407 0)
(7.61116 4.5619 0)
(7.35385 5.02496 0)
(7.06682 5.53681 0)
(6.73996 6.10643 0)
(6.35732 6.74552 0)
(5.89327 7.46911 0)
(5.29976 8.29634 0)
(4.50764 9.24765 0)
(3.26758 10.3409 0)
(1.60421 11.3572 0)
(9.99545 0.13305 0)
(9.98026 0.264502 0)
(9.95339 0.39644 0)
(9.91596 0.530786 0)
(9.86889 0.669197 0)
(9.81254 0.813211 0)
(9.74709 0.964323 0)
(9.67273 1.124 0)
(9.58965 1.29369 0)
(9.49804 1.47485 0)
(9.39805 1.66898 0)
(9.2898 1.8776 0)
(9.1734 2.10233 0)
(9.04889 2.3449 0)
(8.91626 2.60717 0)
(8.7754 2.89121 0)
(8.62607 3.19939 0)
(8.46782 3.53446 0)
(8.29991 3.89973 0)
(8.12121 4.29929 0)
(7.93 4.73836 0)
(7.72374 5.22379 0)
(7.49856 5.76478 0)
(7.24857 6.37416 0)
(6.96426 7.07036 0)
(6.63008 7.88117 0)
(6.2132 8.85199 0)
(5.66418 10.0657 0)
(4.68806 11.73 0)
(2.68578 14.5886 0)
(0.120493 -0.119614 0)
(0.28277 -0.108613 0)
(0.448068 -0.0849959 0)
(0.585248 -0.0620482 0)
(0.688587 -0.0424817 0)
(0.761727 -0.0263638 0)
(0.809668 -0.0132715 0)
(0.836703 -0.00281163 0)
(0.846538 0.00520941 0)
(0.842683 0.0104493 0)
(0.82837 0.0135821 0)
(0.806787 0.0152454 0)
(0.780638 0.0157907 0)
(0.752096 0.0154724 0)
(0.72297 0.0145008 0)
(0.694775 0.0130744 0)
(0.668706 0.011392 0)
(0.645587 0.0096383 0)
(0.625866 0.00796682 0)
(0.609638 0.00648823 0)
(0.596713 0.00526634 0)
(0.586674 0.00433439 0)
(0.57891 0.00368795 0)
(0.572677 0.003269 0)
(0.567219 0.00304645 0)
(0.56187 0.002984 0)
(0.556158 0.00299233 0)
(0.549883 0.00298105 0)
(0.543104 0.00286794 0)
(0.535085 0.00225625 0)
(0.104169 -0.281476 0)
(0.263413 -0.263509 0)
(0.418984 -0.213339 0)
(0.551409 -0.163245 0)
(0.6566 -0.120083 0)
(0.737976 -0.0841891 0)
(0.799784 -0.0547091 0)
(0.845539 -0.0308015 0)
(0.877994 -0.0118293 0)
(0.899476 0.00269901 0)
(0.91113 0.0131523 0)
(0.914777 0.020088 0)
(0.912911 0.024099 0)
(0.907632 0.025744 0)
(0.900712 0.0254938 0)
(0.893651 0.023795 0)
(0.887629 0.0210951 0)
(0.883456 0.0178272 0)
(0.881571 0.0143786 0)
(0.882069 0.0110666 0)
(0.884768 0.00811759 0)
(0.889243 0.00569351 0)
(0.894857 0.00397006 0)
(0.900856 0.00301098 0)
(0.90665 0.00277014 0)
(0.911786 0.00301381 0)
(0.915926 0.00343548 0)
(0.91902 0.00383774 0)
(0.921155 0.00406425 0)
(0.922861 0.00363541 0)
(0.0835802 -0.446331 0)
(0.222071 -0.417318 0)
(0.347766 -0.340723 0)
(0.454817 -0.264932 0)
(0.540063 -0.199946 0)
(0.606978 -0.145984 0)
(0.658846 -0.101773 0)
(0.698294 -0.0660848 0)
(0.727636 -0.0378776 0)
(0.748972 -0.0159528 0)
(0.765754 0.000717616 0)
(0.777804 0.0125285 0)
(0.78577 0.01992 0)
(0.791043 0.023613 0)
(0.794686 0.0242505 0)
(0.797634 0.0225256 0)
(0.800633 0.0191614 0)
(0.804169 0.014862 0)
(0.80846 0.0102627 0)
(0.813476 0.00588726 0)
(0.818975 0.00213528 0)
(0.824227 -0.000639789 0)
(0.829053 -0.00231849 0)
(0.833733 -0.00295841 0)
(0.838371 -0.00271093 0)
(0.842979 -0.0018522 0)
(0.847644 -0.000734915 0)
(0.852429 0.000275043 0)
(0.857138 0.0011369 0)
(0.86162 0.00176214 0)
(0.0635519 -0.578521 0)
(0.175272 -0.533352 0)
(0.264088 -0.433098 0)
(0.340766 -0.337245 0)
(0.400856 -0.256213 0)
(0.448621 -0.18915 0)
(0.486187 -0.134194 0)
(0.51511 -0.0897162 0)
(0.536797 -0.054601 0)
(0.55282 -0.0280695 0)
(0.564613 -0.00886959 0)
(0.576193 0.0047255 0)
(0.584759 0.0139265 0)
(0.591467 0.0189509 0)
(0.59674 0.0204119 0)
(0.600986 0.0191626 0)
(0.604502 0.0160761 0)
(0.607447 0.0120073 0)
(0.609868 0.00772798 0)
(0.61177 0.00389773 0)
(0.613196 0.00106395 0)
(0.613936 -0.000762015 0)
(0.614113 -0.00195194 0)
(0.613679 -0.00256111 0)
(0.612711 -0.00260705 0)
(0.611272 -0.00236297 0)
(0.60941 -0.00199615 0)
(0.607023 -0.00144161 0)
(0.604193 -0.000738411 0)
(0.6011 0.000480668 0)
(0.0427693 -0.679635 0)
(0.12224 -0.613517 0)
(0.168483 -0.493073 0)
(0.212189 -0.383737 0)
(0.243634 -0.292821 0)
(0.269227 -0.217923 0)
(0.289674 -0.156607 0)
(0.305688 -0.106823 0)
(0.317799 -0.0674652 0)
(0.326715 -0.0379471 0)
(0.333305 -0.0165614 0)
(0.33921 -0.000932761 0)
(0.346851 0.00937993 0)
(0.351253 0.015218 0)
(0.35334 0.0173436 0)
(0.353457 0.0167436 0)
(0.351747 0.0142445 0)
(0.348334 0.0106689 0)
(0.343368 0.00674825 0)
(0.337084 0.003051 0)
(0.329852 0.000129131 0)
(0.322626 -0.00180396 0)
(0.314328 -0.00257035 0)
(0.304202 -0.0021486 0)
(0.291678 -0.000785141 0)
(0.276787 0.00090596 0)
(0.260258 0.00227945 0)
(0.243126 0.00342937 0)
(0.226528 0.0045238 0)
(0.210075 0.00503764 0)
(0.0206561 -0.744204 0)
(0.062464 -0.653313 0)
(0.0619771 -0.516304 0)
(0.0705189 -0.399757 0)
(0.0699387 -0.304112 0)
(0.0698259 -0.226073 0)
(0.0692807 -0.162608 0)
(0.0688327 -0.111141 0)
(0.0685007 -0.070373 0)
(0.0685347 -0.0406468 0)
(0.0681427 -0.0222322 0)
(0.068686 -0.0089013 0)
(0.0648955 0.00423442 0)
(0.0583969 0.0137963 0)
(0.0491299 0.0187151 0)
(0.0367099 0.0205315 0)
(0.0209232 0.0203758 0)
(0.00116737 0.0188688 0)
(-0.021079 0.0164977 0)
(-0.045329 0.0137776 0)
(-0.0706638 0.0112927 0)
(-0.0957215 0.00983234 0)
(-0.119318 0.00959798 0)
(-0.140415 0.0103191 0)
(-0.158031 0.0116417 0)
(-0.172073 0.0132531 0)
(-0.183901 0.0144136 0)
(-0.195969 0.0146025 0)
(-0.208634 0.0136194 0)
(-0.219043 0.0110603 0)
(-0.00433181 -0.765304 0)
(-0.00562814 -0.647118 0)
(-0.0540265 -0.498521 0)
(-0.0846663 -0.380958 0)
(-0.120211 -0.286069 0)
(-0.151066 -0.210502 0)
(-0.178315 -0.150525 0)
(-0.201362 -0.102823 0)
(-0.220715 -0.0645993 0)
(-0.239202 -0.0340594 0)
(-0.263521 -0.010804 0)
(-0.296842 0.00605798 0)
(-0.3168 0.0182686 0)
(-0.332716 0.0265324 0)
(-0.349124 0.0317264 0)
(-0.366331 0.0346627 0)
(-0.384553 0.0357914 0)
(-0.403858 0.0353278 0)
(-0.424115 0.0335757 0)
(-0.445235 0.030995 0)
(-0.466891 0.028047 0)
(-0.48847 0.0251227 0)
(-0.509222 0.0225052 0)
(-0.528242 0.0203482 0)
(-0.54445 0.0188248 0)
(-0.557337 0.0180993 0)
(-0.567509 0.0179458 0)
(-0.576377 0.0176792 0)
(-0.584577 0.0165245 0)
(-0.590233 0.0145535 0)
(-0.0353636 -0.735459 0)
(-0.0838891 -0.592665 0)
(-0.1783 -0.441979 0)
(-0.253528 -0.327553 0)
(-0.327227 -0.238006 0)
(-0.393553 -0.167905 0)
(-0.452953 -0.112627 0)
(-0.505184 -0.0682966 0)
(-0.550492 -0.0322519 0)
(-0.590497 -0.00422712 0)
(-0.622396 0.0146215 0)
(-0.643887 0.0253543 0)
(-0.664981 0.0326007 0)
(-0.684078 0.0387736 0)
(-0.701979 0.0433903 0)
(-0.719338 0.046142 0)
(-0.736499 0.0471224 0)
(-0.753616 0.0465231 0)
(-0.77083 0.0446887 0)
(-0.788342 0.0420949 0)
(-0.806292 0.039159 0)
(-0.824545 0.0361104 0)
(-0.842574 0.032987 0)
(-0.85946 0.0298453 0)
(-0.874092 0.0269502 0)
(-0.885733 0.024627 0)
(-0.894584 0.0229535 0)
(-0.901682 0.0215567 0)
(-0.907687 0.019872 0)
(-0.911236 0.0181484 0)
(-0.0727513 -0.652632 0)
(-0.169472 -0.489589 0)
(-0.313753 -0.342292 0)
(-0.43496 -0.236444 0)
(-0.545813 -0.158711 0)
(-0.641818 -0.100322 0)
(-0.723501 -0.0556575 0)
(-0.791881 -0.0217397 0)
(-0.847144 0.00340244 0)
(-0.886354 0.0209643 0)
(-0.916083 0.0331308 0)
(-0.941955 0.0416798 0)
(-0.964668 0.0478291 0)
(-0.984808 0.0524559 0)
(-1.00309 0.0558513 0)
(-1.02018 0.0578564 0)
(-1.0365 0.0583117 0)
(-1.0522 0.0572738 0)
(-1.06746 0.0551047 0)
(-1.08263 0.0523223 0)
(-1.09812 0.0492933 0)
(-1.11409 0.0460445 0)
(-1.13018 0.0423557 0)
(-1.14544 0.0381226 0)
(-1.15867 0.0336773 0)
(-1.16907 0.0296749 0)
(-1.17678 0.0265911 0)
(-1.18274 0.02432 0)
(-1.18753 0.0224321 0)
(-1.19007 0.0210742 0)
(-0.120548 -0.512124 0)
(-0.270946 -0.337282 0)
(-0.467617 -0.203697 0)
(-0.632323 -0.113909 0)
(-0.776049 -0.0525432 0)
(-0.893533 -0.012386 0)
(-0.982941 0.0128422 0)
(-1.05006 0.0296165 0)
(-1.09998 0.0410726 0)
(-1.14029 0.0496063 0)
(-1.17325 0.0559873 0)
(-1.20087 0.0605363 0)
(-1.22434 0.0637313 0)
(-1.24461 0.0661484 0)
(-1.26265 0.067989 0)
(-1.27929 0.0689694 0)
(-1.29495 0.0686574 0)
(-1.30969 0.0669434 0)
(-1.32357 0.0642403 0)
(-1.33702 0.061202 0)
(-1.3507 0.0581958 0)
(-1.36508 0.0550091 0)
(-1.3799 0.0510517 0)
(-1.39413 0.0459371 0)
(-1.40637 0.0400073 0)
(-1.41569 0.0342821 0)
(-1.42228 0.0297454 0)
(-1.42719 0.026631 0)
(-1.43103 0.0245825 0)
(-1.43293 0.0234914 0)
(-0.189755 -0.314545 0)
(-0.417812 -0.133944 0)
(-0.680327 -0.00533928 0)
(-0.867467 0.0475178 0)
(-1.01022 0.0679486 0)
(-1.11818 0.0744682 0)
(-1.20323 0.0767913 0)
(-1.27015 0.0777177 0)
(-1.32304 0.0783759 0)
(-1.3652 0.0790938 0)
(-1.39934 0.0797154 0)
(-1.42747 0.0799246 0)
(-1.4508 0.0797371 0)
(-1.47047 0.0796187 0)
(-1.48774 0.0797876 0)
(-1.50371 0.0797323 0)
(-1.5188 0.0785942 0)
(-1.53279 0.0760089 0)
(-1.54552 0.0725087 0)
(-1.55745 0.0690508 0)
(-1.56959 0.0661115 0)
(-1.58277 0.0632018 0)
(-1.59688 0.0592142 0)
(-1.61066 0.0533315 0)
(-1.6223 0.0458662 0)
(-1.63066 0.0383072 0)
(-1.63604 0.0323045 0)
(-1.63979 0.0284652 0)
(-1.64271 0.0263498 0)
(-1.64412 0.025465 0)
(-0.297289 0.037454 0)
(-0.581153 0.190691 0)
(-0.855155 0.208757 0)
(-1.05346 0.199819 0)
(-1.20412 0.180547 0)
(-1.31831 0.159977 0)
(-1.40546 0.142243 0)
(-1.47264 0.127935 0)
(-1.52481 0.116798 0)
(-1.56583 0.108851 0)
(-1.59894 0.103417 0)
(-1.62617 0.0991317 0)
(-1.64842 0.0952818 0)
(-1.66666 0.0923836 0)
(-1.68251 0.0909073 0)
(-1.69754 0.0900446 0)
(-1.71213 0.0882192 0)
(-1.72557 0.0846237 0)
(-1.73722 0.0800169 0)
(-1.74755 0.0759494 0)
(-1.7581 0.0731896 0)
(-1.77028 0.0708958 0)
(-1.78416 0.067205 0)
(-1.79808 0.0606465 0)
(-1.80955 0.051445 0)
(-1.817 0.0417402 0)
(-1.82092 0.0341448 0)
(-1.82326 0.0297232 0)
(-1.82518 0.0276994 0)
(-1.82617 0.0269961 0)
(-0.375227 0.487045 0)
(-0.714297 0.519694 0)
(-1.03878 0.444826 0)
(-1.25444 0.366968 0)
(-1.40762 0.300975 0)
(-1.51776 0.246279 0)
(-1.59885 0.205344 0)
(-1.66057 0.175515 0)
(-1.70793 0.152846 0)
(-1.74459 0.136544 0)
(-1.7744 0.125667 0)
(-1.79949 0.117337 0)
(-1.81984 0.109663 0)
(-1.83573 0.103651 0)
(-1.84931 0.100665 0)
(-1.86299 0.0995681 0)
(-1.87723 0.0974963 0)
(-1.89041 0.0928073 0)
(-1.90095 0.0866552 0)
(-1.90933 0.0817006 0)
(-1.91794 0.0793317 0)
(-1.92915 0.0782096 0)
(-1.94327 0.075322 0)
(-1.95802 0.0682138 0)
(-1.96981 0.0569257 0)
(-1.97632 0.0445151 0)
(-1.97834 0.0350515 0)
(-1.97882 0.0302525 0)
(-1.97965 0.0286161 0)
(-1.98027 0.0281098 0)
(-0.500034 1.00964 0)
(-0.93228 0.927308 0)
(-1.29452 0.708319 0)
(-1.49555 0.53141 0)
(-1.62873 0.41285 0)
(-1.72059 0.320607 0)
(-1.78471 0.258641 0)
(-1.83424 0.218082 0)
(-1.8729 0.185656 0)
(-1.90202 0.160752 0)
(-1.92627 0.145085 0)
(-1.94838 0.133748 0)
(-1.96641 0.122354 0)
(-1.97891 0.112912 0)
(-1.98886 0.108849 0)
(-2.00058 0.108732 0)
(-2.01482 0.107274 0)
(-2.02831 0.101288 0)
(-2.03774 0.0926667 0)
(-2.04345 0.0861653 0)
(-2.04936 0.084406 0)
(-2.05942 0.0852717 0)
(-2.07432 0.0839298 0)
(-2.09079 0.0764498 0)
(-2.10355 0.0625264 0)
(-2.109 0.0464895 0)
(-2.10835 0.0346535 0)
(-2.10629 0.0298089 0)
(-2.1059 0.0291273 0)
(-2.10626 0.0289063 0)
(-0.737994 2.04331 0)
(-1.27587 1.60795 0)
(-1.66353 1.00525 0)
(-1.79525 0.616759 0)
(-1.87028 0.483087 0)
(-1.92597 0.374768 0)
(-1.95764 0.302736 0)
(-1.98922 0.256519 0)
(-2.0191 0.210232 0)
(-2.0384 0.172628 0)
(-2.05383 0.155979 0)
(-2.07205 0.147461 0)
(-2.08788 0.134378 0)
(-2.09576 0.120383 0)
(-2.10001 0.114437 0)
(-2.10892 0.116506 0)
(-2.12405 0.116675 0)
(-2.13907 0.108953 0)
(-2.14743 0.0964463 0)
(-2.14918 0.0875581 0)
(-2.15091 0.0871241 0)
(-2.1593 0.0916601 0)
(-2.17561 0.0932609 0)
(-2.195 0.0858369 0)
(-2.20958 0.0685396 0)
(-2.21373 0.0474382 0)
(-2.20913 0.0323386 0)
(-2.20339 0.027992 0)
(-2.20165 0.029338 0)
(-2.20202 0.0296711 0)
(9.9959 0.138444 0)
(9.98225 0.275236 0)
(9.95811 0.412521 0)
(9.92454 0.552269 0)
(9.88243 0.696156 0)
(9.83217 0.845736 0)
(9.774 1.00251 0)
(9.70816 1.16797 0)
(9.63494 1.34356 0)
(9.5546 1.53075 0)
(9.46742 1.73105 0)
(9.37366 1.94598 0)
(9.27359 2.17719 0)
(9.16746 2.42641 0)
(9.05552 2.69556 0)
(8.93799 2.98678 0)
(8.81507 3.30251 0)
(8.68687 3.64566 0)
(8.55349 4.01972 0)
(8.41491 4.4291 0)
(8.27105 4.87942 0)
(8.1218 5.37814 0)
(7.96709 5.93544 0)
(7.80718 6.56568 0)
(7.64325 7.28992 0)
(7.48024 8.14074 0)
(7.33132 9.17207 0)
(7.28636 10.4774 0)
(7.74249 12.2015 0)
(7.92028 14.919 0)
(9.99638 0.143404 0)
(9.98434 0.28509 0)
(9.96306 0.427248 0)
(9.93352 0.571878 0)
(9.89657 0.72067 0)
(9.85263 0.875182 0)
(9.80198 1.03692 0)
(9.74494 1.20737 0)
(9.68186 1.38798 0)
(9.61312 1.5802 0)
(9.5391 1.78553 0)
(9.46022 2.00548 0)
(9.37692 2.24167 0)
(9.28967 2.49583 0)
(9.19901 2.76984 0)
(9.1055 3.06582 0)
(9.00979 3.38619 0)
(8.91264 3.73381 0)
(8.81496 4.11212 0)
(8.71792 4.5254 0)
(8.62313 4.97906 0)
(8.53295 5.48014 0)
(8.45108 6.03795 0)
(8.38377 6.6651 0)
(8.34217 7.37881 0)
(8.34831 8.20251 0)
(8.44096 9.16637 0)
(8.67594 10.3037 0)
(9.32183 11.5596 0)
(9.81019 12.6505 0)
(9.99688 0.14784 0)
(9.98651 0.293901 0)
(9.96819 0.440398 0)
(9.94283 0.589346 0)
(9.91122 0.742441 0)
(9.87378 0.901234 0)
(9.83087 1.06722 0)
(9.78285 1.24186 0)
(9.73016 1.42659 0)
(9.67326 1.62284 0)
(9.61266 1.83204 0)
(9.54892 2.05568 0)
(9.48266 2.29532 0)
(9.41457 2.55262 0)
(9.34545 2.82938 0)
(9.27623 3.12759 0)
(9.20799 3.44954 0)
(9.14208 3.79785 0)
(9.08019 4.17566 0)
(9.02452 4.58672 0)
(8.97809 5.03563 0)
(8.94518 5.52809 0)
(8.93206 6.07107 0)
(8.94826 6.67298 0)
(9.00825 7.34328 0)
(9.13416 8.09066 0)
(9.35699 8.91704 0)
(9.68626 9.81144 0)
(10.252 10.7227 0)
(10.9396 11.4412 0)
(9.9974 0.151702 0)
(9.98874 0.301562 0)
(9.97347 0.451803 0)
(9.95239 0.604443 0)
(9.92623 0.761169 0)
(9.89545 0.923516 0)
(9.86043 1.09296 0)
(9.82159 1.27092 0)
(9.77944 1.45879 0)
(9.73454 1.65796 0)
(9.68751 1.8698 0)
(9.63902 2.09573 0)
(9.58988 2.3372 0)
(9.54097 2.59575 0)
(9.49334 2.87305 0)
(9.44824 3.17089 0)
(9.40714 3.49128 0)
(9.37187 3.83648 0)
(9.34473 4.20908 0)
(9.32868 4.61205 0)
(9.32767 5.0488 0)
(9.34698 5.52317 0)
(9.39386 6.0393 0)
(9.47823 6.60117 0)
(9.61327 7.21157 0)
(9.81584 7.87021 0)
(10.1087 8.57001 0)
(10.5006 9.2964 0)
(11.0586 10.0392 0)
(11.8523 10.6854 0)
(9.99792 0.154941 0)
(9.99101 0.30798 0)
(9.97884 0.461329 0)
(9.96212 0.616993 0)
(9.94151 0.776637 0)
(9.91746 0.941768 0)
(9.89041 1.11382 0)
(9.86083 1.29418 0)
(9.82929 1.48418 0)
(9.79643 1.68513 0)
(9.76295 1.89833 0)
(9.72967 2.12508 0)
(9.69751 2.36672 0)
(9.66754 2.62463 0)
(9.64101 2.90025 0)
(9.61942 3.19513 0)
(9.60455 3.51091 0)
(9.59856 3.84938 0)
(9.60415 4.21246 0)
(9.62471 4.60219 0)
(9.66457 5.02069 0)
(9.72924 5.46997 0)
(9.8258 5.95166 0)
(9.96323 6.46645 0)
(10.1526 7.01329 0)
(10.4069 7.58831 0)
(10.7437 8.18341 0)
(11.1744 8.78391 0)
(11.7222 9.37824 0)
(12.4761 9.89147 0)
(9.99845 0.157514 0)
(9.9933 0.31307 0)
(9.98427 0.468849 0)
(9.97194 0.626828 0)
(9.9569 0.78864 0)
(9.93962 0.95575 0)
(9.92055 1.12954 0)
(9.90023 1.31135 0)
(9.87926 1.50242 0)
(9.85835 1.70399 0)
(9.83828 1.91724 0)
(9.81996 2.14336 0)
(9.80442 2.38352 0)
(9.79288 2.63891 0)
(9.78673 2.91072 0)
(9.78764 3.20019 0)
(9.79756 3.50855 0)
(9.81887 3.83706 0)
(9.85443 4.18694 0)
(9.90773 4.55931 0)
(9.98306 4.95509 0)
(10.0856 5.37474 0)
(10.2218 5.818 0)
(10.3991 6.28344 0)
(10.6264 6.7678 0)
(10.9134 7.2653 0)
(11.2713 7.76674 0)
(11.7082 8.25656 0)
(12.2248 8.71804 0)
(12.9016 9.10964 0)
(9.99898 0.159383 0)
(9.9956 0.316754 0)
(9.98971 0.47425 0)
(9.98177 0.633802 0)
(9.97229 0.796997 0)
(9.96174 0.965251 0)
(9.9506 1.13989 0)
(9.93943 1.32216 0)
(9.92888 1.51324 0)
(9.9197 1.71425 0)
(9.91274 1.92626 0)
(9.90896 2.15031 0)
(9.90948 2.3874 0)
(9.9156 2.63848 0)
(9.9288 2.90449 0)
(9.95083 3.18631 0)
(9.98371 3.48478 0)
(10.0299 3.80061 0)
(10.0921 4.13437 0)
(10.1738 4.48634 0)
(10.279 4.85645 0)
(10.4121 5.24398 0)
(10.5785 5.64736 0)
(10.7843 6.06379 0)
(11.0357 6.48879 0)
(11.3392 6.91566 0)
(11.701 7.33504 0)
(12.1251 7.73351 0)
(12.6056 8.09648 0)
(13.2119 8.40339 0)
(9.99951 0.160514 0)
(9.99789 0.318967 0)
(9.9951 0.477435 0)
(9.99151 0.637788 0)
(9.98753 0.80156 0)
(9.98362 0.970101 0)
(9.98028 1.14466 0)
(9.97807 1.32641 0)
(9.97769 1.51643 0)
(9.9799 1.71573 0)
(9.98559 1.92524 0)
(9.99577 2.14583 0)
(10.0116 2.37832 0)
(10.0344 2.62344 0)
(10.0656 2.88185 0)
(10.1071 3.15409 0)
(10.1608 3.4406 0)
(10.229 3.74159 0)
(10.3145 4.05707 0)
(10.4201 4.38664 0)
(10.5495 4.72946 0)
(10.7062 5.084 0)
(10.8947 5.44786 0)
(11.119 5.81755 0)
(11.3837 6.18813 0)
(11.6924 6.55307 0)
(12.0479 6.90406 0)
(12.4519 7.23077 0)
(12.8968 7.52204 0)
(13.4405 7.76653 0)
(10 0.160878 0)
(10.0001 0.319654 0)
(10.0004 0.478323 0)
(10.0011 0.638686 0)
(10.0025 0.802208 0)
(10.0051 0.970168 0)
(10.0093 1.14374 0)
(10.0158 1.32399 0)
(10.0252 1.51189 0)
(10.0384 1.70835 0)
(10.0561 1.91414 0)
(10.0795 2.12997 0)
(10.1097 2.35647 0)
(10.1479 2.59414 0)
(10.1957 2.84337 0)
(10.2548 3.10441 0)
(10.327 3.37731 0)
(10.4144 3.66189 0)
(10.5194 3.95766 0)
(10.6447 4.26374 0)
(10.7929 4.57876 0)
(10.9672 4.90068 0)
(11.1706 5.22672 0)
(11.4059 5.55316 0)
(11.6759 5.87525 0)
(11.9823 6.18712 0)
(12.326 6.48191 0)
(12.7068 6.75177 0)
(13.1169 6.98832 0)
(13.6053 7.18469 0)
(10.0005 0.160454 0)
(10.0023 0.318772 0)
(10.0056 0.476856 0)
(10.0104 0.636423 0)
(10.0171 0.79886 0)
(10.0259 0.965368 0)
(10.0375 1.13703 0)
(10.0523 1.31481 0)
(10.0711 1.49959 0)
(10.0946 1.69212 0)
(10.1237 1.89305 0)
(10.1594 2.10293 0)
(10.2028 2.32218 0)
(10.2552 2.55111 0)
(10.3179 2.78986 0)
(10.3925 3.0384 0)
(10.4808 3.29647 0)
(10.5844 3.56358 0)
(10.7056 3.83888 0)
(10.8463 4.12116 0)
(11.0089 4.40871 0)
(11.1954 4.69928 0)
(11.408 4.98998 0)
(11.6484 5.27725 0)
(11.918 5.55677 0)
(12.2173 5.82356 0)
(12.546 6.07208 0)
(12.9026 6.29643 0)
(13.2802 6.49055 0)
(13.7206 6.65025 0)
(10.001 0.159228 0)
(10.0044 0.316293 0)
(10.0106 0.472993 0)
(10.0194 0.630951 0)
(10.0311 0.79147 0)
(10.0459 0.955663 0)
(10.0645 1.12452 0)
(10.0872 1.2989 0)
(10.1148 1.47958 0)
(10.148 1.66717 0)
(10.1877 1.86219 0)
(10.2347 2.06503 0)
(10.2902 2.27595 0)
(10.3553 2.49505 0)
(10.4312 2.72227 0)
(10.5193 2.95734 0)
(10.6212 3.19979 0)
(10.7383 3.44885 0)
(10.8723 3.70347 0)
(11.0248 3.96222 0)
(11.1975 4.22325 0)
(11.3919 4.48429 0)
(11.6091 4.74257 0)
(11.8502 4.99482 0)
(12.1155 5.23731 0)
(12.4048 5.46595 0)
(12.7169 5.6764 0)
(13.05 5.8643 0)
(13.3978 6.02539 0)
(13.797 6.15715 0)
(10.0015 0.157192 0)
(10.0065 0.312202 0)
(10.0154 0.466716 0)
(10.028 0.622255 0)
(10.0445 0.78003 0)
(10.065 0.941062 0)
(10.0901 1.10624 0)
(10.1203 1.27634 0)
(10.1561 1.45199 0)
(10.1983 1.63371 0)
(10.2476 1.82188 0)
(10.305 2.01674 0)
(10.3712 2.2184 0)
(10.4475 2.4268 0)
(10.5348 2.64169 0)
(10.6344 2.86265 0)
(10.7476 3.08902 0)
(10.8754 3.31988 0)
(11.0193 3.55403 0)
(11.1804 3.78997 0)
(11.3598 4.02586 0)
(11.5584 4.25951 0)
(11.7768 4.48838 0)
(12.0154 4.70961 0)
(12.2738 4.9201 0)
(12.5514 5.11654 0)
(12.8466 5.29563 0)
(13.1574 5.4542 0)
(13.4785 5.5893 0)
(13.8423 5.69945 0)
(10.0019 0.154344 0)
(10.0084 0.306499 0)
(10.0199 0.458029 0)
(10.0362 0.610347 0)
(10.0571 0.764568 0)
(10.083 0.92162 0)
(10.1142 1.0823 0)
(10.1513 1.24726 0)
(10.1947 1.41704 0)
(10.245 1.59205 0)
(10.3031 1.77253 0)
(10.3696 1.95861 0)
(10.4454 2.15026 0)
(10.5313 2.34728 0)
(10.6284 2.54931 0)
(10.7375 2.75578 0)
(10.8597 2.96593 0)
(10.9959 3.17874 0)
(11.147 3.39298 0)
(11.3138 3.60715 0)
(11.497 3.8195 0)
(11.697 4.02801 0)
(11.914 4.23045 0)
(12.1478 4.42438 0)
(12.3978 4.60728 0)
(12.6629 4.77655 0)
(12.9415 4.9297 0)
(13.2317 5.06446 0)
(13.5288 5.17884 0)
(13.8621 5.27199 0)
(10.0024 0.15069 0)
(10.0102 0.299196 0)
(10.0241 0.446956 0)
(10.0438 0.595268 0)
(10.0689 0.74515 0)
(10.0997 0.897435 0)
(10.1366 1.05282 0)
(10.18 1.21187 0)
(10.2302 1.37502 0)
(10.288 1.54255 0)
(10.3538 1.71463 0)
(10.4284 1.89127 0)
(10.5124 2.07233 0)
(10.6065 2.2575 0)
(10.7117 2.44633 0)
(10.8285 2.63818 0)
(10.9577 2.83221 0)
(11.1 3.0274 0)
(11.2561 3.22252 0)
(11.4263 3.41615 0)
(11.6109 3.60667 0)
(11.8102 3.7923 0)
(12.0238 3.97111 0)
(12.2514 4.14109 0)
(12.492 4.30021 0)
(12.7444 4.44648 0)
(13.0072 4.57805 0)
(13.2784 4.69331 0)
(13.5542 4.79093 0)
(13.861 4.87048 0)
(10.0027 0.146243 0)
(10.0119 0.29032 0)
(10.0281 0.433539 0)
(10.0508 0.577084 0)
(10.0798 0.721872 0)
(10.1152 0.868645 0)
(10.1572 1.018 0)
(10.2062 1.17042 0)
(10.2627 1.32624 0)
(10.3269 1.48566 0)
(10.3996 1.64874 0)
(10.4811 1.8154 0)
(10.572 1.98544 0)
(10.6731 2.15846 0)
(10.7847 2.33396 0)
(10.9075 2.51125 0)
(11.0419 2.68948 0)
(11.1885 2.86765 0)
(11.3475 3.0446 0)
(11.5192 3.219 0)
(11.7035 3.38943 0)
(11.9003 3.55433 0)
(12.1092 3.71209 0)
(12.3296 3.86108 0)
(12.5604 3.99969 0)
(12.8004 4.1264 0)
(13.0482 4.23988 0)
(13.3021 4.339 0)
(13.5589 4.42289 0)
(13.8427 4.49138 0)
(10.0031 0.141022 0)
(10.0134 0.27991 0)
(10.0317 0.417841 0)
(10.0573 0.555885 0)
(10.0898 0.694862 0)
(10.1293 0.835422 0)
(10.1759 0.978079 0)
(10.23 1.12322 0)
(10.2919 1.2711 0)
(10.3619 1.42184 0)
(10.4403 1.57543 0)
(10.5277 1.73173 0)
(10.6245 1.89045 0)
(10.731 2.05118 0)
(10.8477 2.21337 0)
(10.975 2.37632 0)
(11.1131 2.53921 0)
(11.2623 2.70109 0)
(11.4227 2.86089 0)
(11.5942 3.01742 0)
(11.7768 3.16944 0)
(11.97 3.31564 0)
(12.1733 3.45467 0)
(12.3858 3.58523 0)
(12.6068 3.70609 0)
(12.8348 3.81609 0)
(13.0687 3.91428 0)