/*--------------------------------*- C++ -*----------------------------------*\
| =========                 |                                                 |
| \\      /  F ield         | OpenFOAM: The Open Source CFD Toolbox           |
|  \\    /   O peration     | Version:  4.1                                   |
|   \\  /    A nd           | Web:      www.OpenFOAM.org                      |
|    \\/     M anipulation  |                                                 |
\*---------------------------------------------------------------------------*/
FoamFile
{
    version     2.0;
    format      ascii;
    class       surfaceScalarField;
    location    "4.1";
    object      phi;
}
// * * * * * * * * * * * * * * * * * * * * * * * * * * * * * * * * * * * * * //

dimensions      [0 3 -1 0 0 0 0];

internalField   nonuniform List<scalar> 
5457
(
0.198119
0.00165384
0.195966
0.00195353
0.193542
0.00225654
0.190796
0.00260798
0.187724
0.00296039
0.184328
0.00330973
0.180599
0.00366439
0.176524
0.0040315
0.172083
0.00441583
0.167254
0.00482114
0.162012
0.00525073
0.156328
0.00570754
0.150171
0.00619388
0.143511
0.00671132
0.136313
0.00726036
0.128546
0.0078399
0.120183
0.00844659
0.1112
0.00907424
0.101585
0.00971296
0.0913405
0.0103482
0.080489
0.0109597
0.0690793
0.0115203
0.0571939
0.0119959
0.0449553
0.0123456
0.0325286
0.0125264
0.0200865
0.0125296
0.00759737
0.0125589
-0.00260302
0.0102478
-0.00540118
0.00282511
-0.0054243
0.199723
0.00170343
0.198807
0.00266949
0.1975
0.00339537
0.195837
0.0041327
0.193812
0.00487424
0.191421
0.00561383
0.188656
0.00636377
0.185506
0.0071372
0.181952
0.00794385
0.177973
0.0087915
0.173544
0.00968713
0.168638
0.0106369
0.163222
0.011646
0.157265
0.0127181
0.150732
0.013855
0.143588
0.0150555
0.135803
0.016314
0.127347
0.0176192
0.118204
0.0189529
0.108367
0.0202872
0.0978506
0.0215823
0.0866966
0.0227836
0.074982
0.0238198
0.0628346
0.0245997
0.0504587
0.0250029
0.0382305
0.024848
0.0271121
0.0237516
0.0173059
0.0201065
0.00659585
0.01356
0.00119767
0.199575
0.00190052
0.19872
0.00332305
0.197482
0.00446496
0.195913
0.00556289
0.194017
0.00665806
0.191789
0.00775332
0.189224
0.00886295
0.186311
0.0100043
0.183036
0.0111915
0.179381
0.0124365
0.175325
0.0137497
0.170842
0.0151408
0.165904
0.016618
0.160482
0.0181877
0.154542
0.019854
0.14805
0.0216174
0.14097
0.0234723
0.133271
0.0254058
0.124922
0.027395
0.115903
0.0294036
0.10621
0.0313775
0.0958599
0.0332403
0.0848977
0.0348887
0.0734185
0.0361836
0.0615892
0.036933
0.0496784
0.0368516
0.0380165
0.0354926
0.0262157
0.0319645
0.0140484
0.025746
0.0153125
0.199491
0.00217991
0.198634
0.00397836
0.197412
0.00551742
0.195862
0.00697246
0.193996
0.00841046
0.191812
0.00984844
0.189303
0.0113037
0.186464
0.0127963
0.183282
0.014344
0.179745
0.015962
0.175834
0.0176638
0.171531
0.0194617
0.166814
0.0213666
0.161659
0.023387
0.156038
0.0255298
0.149924
0.0277974
0.143286
0.0301858
0.136091
0.032683
0.128309
0.0352657
0.119907
0.037895
0.110872
0.0405093
0.101192
0.0430213
0.0908722
0.0453097
0.0799467
0.0472082
0.0684801
0.0484967
0.0565415
0.0488819
0.0441306
0.0479822
0.0309397
0.045211
0.016414
0.0402795
0.0318154
0.199449
0.00249987
0.19858
0.00464424
0.197372
0.00655488
0.195843
0.00835937
0.194006
0.010132
0.191861
0.0119029
0.189401
0.0136939
0.18662
0.0155275
0.183508
0.017424
0.180053
0.0194015
0.176241
0.021476
0.172055
0.0236619
0.167477
0.025972
0.162487
0.0284166
0.157062
0.0310045
0.15118
0.0337399
0.144816
0.0366209
0.137938
0.0396383
0.130515
0.0427703
0.122511
0.0459805
0.113898
0.049208
0.104649
0.052363
0.0947281
0.0553222
0.0841077
0.057915
0.072767
0.0599247
0.060648
0.0610858
0.0476206
0.061079
0.0334014
0.0594746
0.0175448
0.0561318
0.0494413
0.199429
0.00283903
0.198553
0.00531525
0.19736
0.00757439
0.195859
0.00971664
0.194059
0.011815
0.191959
0.013909
0.189555
0.0160258
0.18684
0.0181902
0.183804
0.020425
0.180436
0.0227506
0.176722
0.0251853
0.172647
0.0277456
0.168196
0.0304459
0.16335
0.0332982
0.158085
0.0363129
0.152382
0.0394961
0.146219
0.0428487
0.139563
0.0463646
0.132382
0.050026
0.124637
0.0538012
0.11628
0.0576384
0.107266
0.061453
0.0975375
0.0651278
0.0870144
0.0685069
0.0756209
0.0713869
0.0632432
0.0735316
0.0496967
0.0746758
0.0347308
0.0744643
0.0181038
0.0727431
0.0675868
0.199419
0.00318531
0.198544
0.00598361
0.197371
0.00857224
0.195904
0.0110385
0.194147
0.013452
0.192101
0.0158584
0.189762
0.0182897
0.187122
0.0207735
0.184174
0.0233348
0.180905
0.0259964
0.177302
0.0287788
0.173351
0.0317001
0.169037
0.0347772
0.164341
0.0380243
0.159239
0.0414528
0.153708
0.0450719
0.147725
0.0488861
0.141257
0.0528927
0.134268
0.0570807
0.126711
0.0614259
0.118523
0.0658871
0.109639
0.0703942
0.099981
0.0748461
0.0894342
0.0791061
0.0778737
0.0829892
0.0651719
0.0862692
0.0511493
0.0887205
0.0355914
0.0900188
0.0184453
0.0898615
0.0860261
0.199417
0.00353124
0.198549
0.0066422
0.1974
0.0095439
0.195971
0.0123196
0.194264
0.0150359
0.192281
0.0177425
0.190016
0.0204759
0.187463
0.0232664
0.184614
0.0261407
0.181458
0.0291243
0.177983
0.0322401
0.174173
0.0355084
0.170012
0.0389487
0.165479
0.0425778
0.160554
0.0464089
0.155208
0.0504545
0.149413
0.0547232
0.143137
0.0592185
0.136332
0.0639379
0.128943
0.0688681
0.120897
0.0739801
0.11211
0.0792231
0.102477
0.0845198
0.0918614
0.0897553
0.0800987
0.0947656
0.0670362
0.09933
0.0525343
0.103212
0.036425
0.106096
0.0187923
0.10745
0.104781
0.19942
0.00387188
0.198565
0.00728498
0.197445
0.0104845
0.196059
0.0135544
0.194409
0.0165599
0.192495
0.0195534
0.190313
0.0225752
0.187858
0.0256574
0.185121
0.0288293
0.182093
0.0321196
0.17876
0.0355538
0.175107
0.0391545
0.171115
0.0429429
0.166764
0.0469386
0.162035
0.0511586
0.156897
0.0556191
0.151319
0.0603336
0.14526
0.0653148
0.138666
0.0705705
0.13147
0.0761003
0.123589
0.0818922
0.114918
0.0879182
0.105329
0.0941272
0.0946601
0.100432
0.0827204
0.106694
0.0693156
0.112704
0.0543156
0.118171
0.0375929
0.122764
0.0193344
0.125645
0.124081
0.199426
0.00420364
0.198589
0.00790693
0.197501
0.0113892
0.196164
0.0147377
0.194577
0.0180176
0.19274
0.0212833
0.19065
0.0245778
0.188304
0.027935
0.185692
0.0313885
0.182803
0.03497
0.179625
0.0387059
0.176143
0.0426213
0.172339
0.0467397
0.168194
0.0510836
0.163686
0.0556749
0.158786
0.0605333
0.153464
0.0656789
0.147668
0.0711373
0.141335
0.0769279
0.13439
0.0830641
0.12674
0.0895553
0.118262
0.0964006
0.108803
0.103581
0.0981723
0.111046
0.0861426
0.118689
0.0724742
0.12632
0.0569729
0.133611
0.0395075
0.140158
0.0203546
0.14472
0.144424
0.199434
0.00452384
0.198619
0.00850384
0.197569
0.0122535
0.196284
0.0158645
0.194766
0.0194028
0.193014
0.0229247
0.191026
0.0264746
0.188797
0.0300899
0.186319
0.0338086
0.183581
0.0376635
0.180572
0.0416814
0.177279
0.0458904
0.173683
0.0503175
0.169768
0.0549876
0.165515
0.059926
0.160893
0.0651588
0.155865
0.070716
0.150384
0.0766322
0.144381
0.0829414
0.137772
0.0896749
0.130457
0.0968639
0.122301
0.104541
0.113128
0.112727
0.102713
0.121421
0.0907774
0.130569
0.0770023
0.140026
0.061069
0.149466
0.0427531
0.158392
0.0222858
0.165107
0.166713
0.199445
0.00483031
0.198655
0.00907215
0.197646
0.013073
0.196419
0.0169298
0.194976
0.0207098
0.193315
0.0244706
0.191435
0.0282582
0.189331
0.0321144
0.186996
0.0360797
0.184422
0.0401869
0.181598
0.0444649
0.178512
0.0489442
0.175147
0.0536538
0.171492
0.0586224
0.167531
0.0638784
0.163229
0.0694565
0.158538
0.075397
0.153426
0.0817386
0.147831
0.0885315
0.141661
0.0958277
0.134818
0.10368
0.127163
0.11216
0.118504
0.121338
0.108587
0.131277
0.0970734
0.142009
0.0835258
0.153488
0.0674287
0.165471
0.048285
0.177446
0.0259505
0.187371
0.192656
0.199457
0.00512129
0.198695
0.00960881
0.19773
0.0138441
0.196566
0.0179292
0.195202
0.0219332
0.193639
0.0259149
0.191875
0.0299222
0.189903
0.0340004
0.18772
0.0381913
0.185322
0.0425281
0.182698
0.047042
0.179837
0.051765
0.17673
0.0567272
0.173363
0.0619618
0.169721
0.0675038
0.165771
0.0733913
0.161475
0.0796688
0.156799
0.0863897
0.15169
0.0936133
0.146078
0.101403
0.139869
0.109843
0.132933
0.11904
0.125086
0.129117
0.116068
0.140215
0.105502
0.152482
0.0928384
0.166049
0.0772812
0.180921
0.0577756
0.196856
0.03314
0.211949
0.225763
0.19947
0.00539531
0.198739
0.0101112
0.197822
0.0145634
0.196724
0.0188588
0.195444
0.0230684
0.193985
0.0272523
0.192341
0.0314608
0.190507
0.0357408
0.188487
0.0401342
0.186276
0.0446763
0.183865
0.0494001
0.181246
0.0543379
0.178413
0.0595219
0.175357
0.0649874
0.172056
0.0707744
0.168493
0.0769243
0.164645
0.0834857
0.160471
0.0905228
0.155939
0.0980948
0.151008
0.106278
0.145604
0.115184
0.139627
0.124944
0.132934
0.135724
0.125314
0.147738
0.116431
0.161256
0.105731
0.176632
0.0922399
0.194292
0.0742236
0.214771
0.0482844
0.237834
0.273991
0.199484
0.00565141
0.198785
0.0105775
0.197919
0.0152284
0.196889
0.0197157
0.195697
0.024112
0.194344
0.0284791
0.192824
0.0328694
0.191136
0.0373293
0.189286
0.0419017
0.187271
0.0466244
0.18508
0.0515306
0.182713
0.0566528
0.180165
0.0620254
0.177431
0.0676844
0.174498
0.0736696
0.171351
0.0800279
0.167981
0.0868139
0.164366
0.0940836
0.160494
0.101899
0.156348
0.110352
0.151895
0.119559
0.147089
0.129662
0.14187
0.140844
0.136146
0.153351
0.129762
0.16752
0.122427
0.18384
0.113526
0.203069
0.101517
0.226676
0.0810632
0.25823
0.354981
0.00394607
-0.00392752
0.00813083
-0.00422999
0.0118758
-0.00383913
0.0150165
-0.00327826
0.0175915
-0.00273897
0.019683
-0.00226324
0.0213647
-0.00184604
0.0226889
-0.00147107
0.0236886
-0.0011236
0.0243844
-0.000794031
0.0247906
-0.000477977
0.0249263
-0.000181417
0.0248273
7.85522e-05
0.0245463
0.000285055
0.0241486
0.000424686
0.0237003
0.000496437
0.0232545
0.000513682
0.0228592
0.00048211
0.0225564
0.00040796
0.0223773
0.000302645
0.0223416
0.000177812
0.0224577
4.47099e-05
0.0227223
-8.4475e-05
0.0231265
-0.000204096
0.0236664
-0.000319062
0.0243342
-0.000425099
0.0251138
-0.00051437
0.0259895
-0.000586855
0.0269398
-0.000637083
-0.000604625
0.00389158
-0.0078504
0.00786778
-0.00824815
0.011403
-0.00747106
0.0144312
-0.00644437
0.0170087
-0.00547728
0.0192131
-0.00463314
0.02111
-0.00389916
0.0227439
-0.00324358
0.0241432
-0.00263918
0.0253265
-0.0020688
0.0263015
-0.00151913
0.0270601
-0.000981045
0.0275891
-0.000466942
0.0279073
-2.56682e-05
0.0280582
0.000303742
0.0281195
0.000485562
0.0281464
0.000556391
0.0281919
0.000524638
0.0282991
0.000407023
0.0284927
0.000233272
0.0287806
3.26561e-05
0.0291435
-0.000156935
0.029561
-0.000321417
0.0300233
-0.000466096
0.0305176
-0.000592299
0.0310268
-0.000691369
0.031534
-0.000756091
0.0320376
-0.000801473
0.0325691
-0.000855098
-0.000845647
0.00347246
-0.0113961
0.00684907
-0.0116632
0.00974962
-0.0104704
0.0122139
-0.00904454
0.0143263
-0.0077431
0.016165
-0.00662432
0.0177865
-0.00566061
0.0192233
-0.00480306
0.0204953
-0.00401288
0.0216169
-0.0032693
0.022596
-0.00255371
0.0234293
-0.00184673
0.0241154
-0.00116246
0.0246555
-0.00055184
0.0250709
-7.59973e-05
0.0253738
0.000237403
0.0256081
0.000394833
0.0258174
0.000405807
0.026031
0.000301396
0.0262539
0.000135991
0.0264797
-4.93662e-05
0.0266975
-0.000212545
0.0268975
-0.000340297
0.0270692
-0.000437005
0.0272072
-0.000508727
0.0273133
-0.000554288
0.027388
-0.000564881
0.0274335
-0.000557609
0.027495
-0.000602568
-0.000764814
0.00296261
-0.0144506
0.00561618
-0.0143559
0.00776516
-0.0127166
0.00954251
-0.0109505
0.0110551
-0.00939732
0.0123855
-0.00808682
0.0135817
-0.00697165
0.0146644
-0.00598639
0.0156497
-0.00508018
0.0165506
-0.00423201
0.0173774
-0.00342168
0.0181208
-0.00261093
0.0187663
-0.00180835
0.0193258
-0.0010883
0.0197925
-0.000498737
0.0201215
-3.13924e-05
0.0203025
0.000290823
0.0203556
0.000446336
0.0202838
0.000483247
0.0201067
0.000440479
0.0198513
0.000351329
0.0195561
0.000245967
0.019251
0.000146736
0.0189745
4.07869e-05
0.0187697
-8.19626e-05
0.0186681
-0.000208922
0.0186698
-0.000300189
0.0187472
-0.000345022
0.0188994
-0.000440057
-0.000721561
0.00234429
-0.0168684
0.00417629
-0.0162333
0.00551501
-0.0141463
0.00654463
-0.0120959
0.00737946
-0.0103554
0.00810255
-0.00891681
0.0087508
-0.00770837
0.00934113
-0.00665409
0.00989188
-0.00569145
0.0104182
-0.00480138
0.01094
-0.00396904
0.0114446
-0.00312397
0.0118777
-0.00223227
0.0121377
-0.00131709
0.0122058
-0.000515628
0.0121545
8.59585e-05
0.0120283
0.000498854
0.0118445
0.000727149
0.0116146
0.000825491
0.0113697
0.000814635
0.0111391
0.000728978
0.0109493
0.000600416
0.0108363
0.000442425
0.0108143
0.000264582
0.0108627
9.20653e-05
0.0109518
-5.38024e-05
0.0110576
-0.000138953
0.011152
-0.000148765
0.0112091
-0.000181532
-0.000501063
0.00162438
-0.0185163
0.00255149
-0.0172162
0.00304365
-0.0147201
0.00329756
-0.0124463
0.00341735
-0.0105674
0.00346971
-0.00904653
0.00348163
-0.00778786
0.00348252
-0.00671018
0.00349221
-0.00574032
0.00350011
-0.00483369
0.00347447
-0.00395365
0.00344096
-0.00308602
0.0034379
-0.00220751
0.00348646
-0.00132653
0.00357136
-0.000545438
0.0036466
8.22347e-05
0.00370096
0.000531117
0.00370351
0.000825151
0.00368088
0.000962546
0.00364548
0.000980999
0.00361342
0.000910285
0.00360199
0.000778014
0.00362025
0.000607489
0.00367107
0.000415806
0.00373816
0.000247858
0.00379531
0.000133976
0.00382163
0.000102441
0.00380227
0.000162079
0.00374721
0.00019008
-0.000167782
0.000808249
-0.0193018
0.000775367
-0.017248
0.000392812
-0.0144085
-0.000142843
-0.0119822
-0.00074168
-0.0100223
-0.00135502
-0.00847675
-0.00195544
-0.00722951
-0.00249734
-0.00619761
-0.00295589
-0.00529798
-0.0033146
-0.00447994
-0.00356319
-0.00369985
-0.00370752
-0.00292411
-0.00374731
-0.00213079
-0.0036836
-0.0013388
-0.00355855
-0.000608473
-0.00342034
2.23682e-05
-0.00330489
0.000507314
-0.00321934
0.000843376
-0.00317331
0.00103223
-0.0031577
0.00109583
-0.00315515
0.00105797
-0.0031528
0.000943551
-0.00314102
0.000779491
-0.00311659
0.000593367
-0.00308193
0.000436541
-0.00306119
0.000358985
-0.00308845
0.000398213
-0.00315957
0.000525547
-0.00321346
0.000561611
0.000286228
-0.000127918
-0.0191345
-0.00116126
-0.0162817
-0.00241225
-0.0132161
-0.00370938
-0.0107302
-0.00495473
-0.00879893
-0.00610001
-0.0073436
-0.00710308
-0.00623577
-0.007936
-0.00536501
-0.00859083
-0.00463501
-0.00908239
-0.00397341
-0.00943423
-0.00332851
-0.00965987
-0.00266778
-0.0097639
-0.0019775
-0.00976555
-0.00127702
-0.00970647
-0.000599741
-0.00962236
2.00038e-05
-0.00955287
0.000531749
-0.00951554
0.00091231
-0.00951445
0.00114993
-0.00954271
0.0012542
-0.00957936
0.00124382
-0.00960844
0.00114159
-0.00962415
0.000978938
-0.00962684
0.000797369
-0.00962099
0.000654639
-0.00963066
0.000615571
-0.00968915
0.000726106
-0.00980268
0.000932312
-0.00995368
0.00103141
0.00084702
-0.00117669
-0.0179345
-0.00318488
-0.0143346
-0.00533145
-0.0111113
-0.0073765
-0.00870441
-0.00919954
-0.00697235
-0.010754
-0.00577435
-0.0120307
-0.00493836
-0.0130453
-0.00432408
-0.0138265
-0.00382269
-0.014411
-0.00335485
-0.0148395
-0.00286763
-0.0151247
-0.00233602
-0.0152811
-0.00175714
-0.0153558
-0.00113655
-0.0153894
-0.000496249
-0.0154105
0.000120714
-0.0154445
0.000656597
-0.0155018
0.00107394
-0.0155787
0.00134863
-0.0156693
0.00147952
-0.0157578
0.00148221
-0.0158278
0.00138103
-0.0158785
0.00121257
-0.0159129
0.00102995
-0.0159362
0.000901725
-0.015976
0.000904061
-0.0160605
0.00108086
-0.0161976
0.00136355
-0.0163783
0.0015321
0.00143076
-0.00244733
-0.01548
-0.00549378
-0.0113372
-0.00856529
-0.00805882
-0.011322
-0.00594057
-0.0136442
-0.00462297
-0.0155233
-0.00385671
-0.0170043
-0.00341283
-0.0181488
-0.00313121
-0.0190162
-0.00290443
-0.0196589
-0.00265979
-0.0201253
-0.00235293
-0.0204371
-0.00196314
-0.0206334
-0.00148347
-0.0207737
-0.000920034
-0.0208909
-0.000301139
-0.0210101
0.000323058
-0.0211444
0.000883115
-0.0212992
0.00133029
-0.0214644
0.00163182
-0.0216264
0.00177903
-0.0217752
0.00178346
-0.0218953
0.00167148
-0.0219841
0.00148446
-0.0220441
0.00128558
-0.022078
0.001158
-0.0221139
0.00118955
-0.0221877
0.0014256
-0.0223154
0.00178603
-0.0225015
0.00203927
0.00202354
-0.00397564
-0.0114897
-0.00834751
-0.00699939
-0.0124397
-0.00396098
-0.015874
-0.0024739
-0.0186177
-0.00183135
-0.0207279
-0.00168914
-0.0223173
-0.00176113
-0.0234957
-0.00188785
-0.0243509
-0.00198258
-0.0249598
-0.00198202
-0.025396
-0.00184888
-0.0257116
-0.001578
-0.0259445
-0.00117257
-0.0261354
-0.000645907
-0.0263204
-3.00054e-05
-0.0265237
0.000617418
-0.0267549
0.00121472
-0.0270119
0.00169354
-0.0272797
0.00201487
-0.0275337
0.00216808
-0.0277591
0.0021622
-0.0279405
0.00202305
-0.0280681
0.00179653
-0.0281414
0.00155711
-0.0281674
0.00140628
-0.0281781
0.00144893
-0.028218
0.00173655
-0.0283173
0.00218075
-0.0284918
0.00253585
0.00261565
-0.00615857
-0.00528933
-0.0126308
-0.000544791
-0.017822
0.00125761
-0.0216441
0.00140056
-0.0244201
0.0010082
-0.0264002
0.000361557
-0.027846
-0.000241123
-0.0289076
-0.000750153
-0.0296648
-0.00114773
-0.0301959
-0.00136983
-0.0305753
-0.00138471
-0.0308674
-0.0012092
-0.0311002
-0.000864808
-0.0313013
-0.000360177
-0.0315166
0.000274963
-0.0317796
0.000976212
-0.0320905
0.00163081
-0.0324333
0.00214982
-0.0327846
0.00248603
-0.033114
0.00263209
-0.0333986
0.00259966
-0.0336203
0.00241379
-0.0337626
0.00212398
-0.0338219
0.00181803
-0.0338118
0.00161959
-0.0337716
0.00165641
-0.0337561
0.00199197
-0.0338121
0.00253257
-0.0339643
0.00301099
0.00319545
-0.00973897
0.00450885
-0.0181073
0.00782393
-0.023735
0.00692807
-0.0275872
0.00531733
-0.030227
0.00372098
-0.0320512
0.00226396
-0.0332838
0.00107237
-0.0341663
0.000214583
-0.0347731
-0.000457072
-0.0351685
-0.000887325
-0.0354413
-0.0010193
-0.03566
-0.000906281
-0.0358426
-0.000604015
-0.0360085
-0.000107742
-0.0362221
0.000580962
-0.0365205
0.00137349
-0.0369002
0.00211757
-0.0373237
0.00268943
-0.0377496
0.00303664
-0.0381439
0.0031633
-0.0384807
0.00308932
-0.0387365
0.00283843
-0.0388882
0.00246075
-0.038926
0.00205864
-0.0388664
0.00178395
-0.038758
0.00179522
-0.0386703
0.00217518
-0.0386702
0.00282865
-0.0387931
0.00345748
0.00376056
-0.0135133
0.018079
-0.024014
0.0183422
-0.0300201
0.0129854
-0.0335533
0.00891934
-0.0358894
0.0061333
-0.0373808
0.00383586
-0.038294
0.00206848
-0.0389725
0.000977461
-0.0393676
2.39805e-05
-0.0395456
-0.000620969
-0.0396588
-0.000814195
-0.0397742
-0.00070262
-0.0398722
-0.000421402
-0.0399669
7.64872e-05
-0.0401475
0.000856375
-0.040473
0.00180007
-0.0409264
0.00267972
-0.04144
0.00332049
-0.0419465
0.00367012
-0.0424063
0.00376196
-0.0427968
0.00363316
-0.0430904
0.00330095
-0.0432534
0.00280915
-0.0432664
0.002275
-0.0431455
0.00188739
-0.0429512
0.00184782
-0.0427728
0.00226761
-0.0427026
0.00305475
-0.0427903
0.00386938
0.00431522
-0.0188704
0.0370081
-0.0321951
0.031694
-0.0378842
0.0187263
-0.0399547
0.0110555
-0.0416273
0.0078793
-0.0424619
0.00474852
-0.0426337
0.00232139
-0.0429274
0.00135447
-0.0431122
0.000293879
-0.04306
-0.000585909
-0.0429583
-0.000826463
-0.0429572
-0.000614631
-0.0429606
-0.000329217
-0.0429434
0.000151222
-0.0430593
0.00106913
-0.0434143
0.00225801
-0.0439672
0.00334295
-0.0445979
0.00407009
-0.0452008
0.00440178
-0.0457332
0.00443471
-0.0461853
0.0042395
-0.0465289
0.0038139
-0.0467132
0.00317935
-0.0467018
0.00246757
-0.0465084
0.00191855
-0.0462085
0.0017947
-0.0459172
0.00224707
-0.0457589
0.00319297
-0.045807
0.0042422
0.00486391
0.207141
0.00589616
0.206452
0.0110203
0.20561
0.0158575
0.204618
0.0205237
0.203478
0.025093
0.202191
0.0296289
0.200753
0.0341845
0.199167
0.0388067
0.197439
0.0435392
0.195566
0.0484204
0.193543
0.0534834
0.191373
0.0587614
0.189054
0.0642889
0.186586
0.0701024
0.183967
0.0762408
0.181189
0.0827509
0.178257
0.0896852
0.175178
0.0970935
0.171956
0.10504
0.168607
0.113615
0.165147
0.122924
0.16161
0.133096
0.158046
0.144293
0.154547
0.156727
0.151265
0.170672
0.148475
0.186498
0.146723
0.204695
0.147462
0.225831
0.157854
0.24777
0.264211
0.248564
0.21217
0.006124
0.211505
0.0114293
0.210704
0.0164358
0.209771
0.0212635
0.208708
0.0259882
0.207516
0.0306739
0.206195
0.0353745
0.204749
0.0401375
0.203183
0.0450062
0.201498
0.0500185
0.199695
0.0552078
0.197778
0.0606068
0.195751
0.0662491
0.193622
0.0721696
0.191396
0.078406
0.18908
0.0849997
0.186696
0.0919956
0.184267
0.0994408
0.181824
0.107393
0.179419
0.115924
0.177121
0.125117
0.175036
0.135067
0.173328
0.14588
0.172251
0.157675
0.172229
0.170563
0.173991
0.184606
0.178932
0.199635
0.189625
0.21504
0.207298
0.230028
0.246563
0.224907
0.217323
0.00633231
0.216686
0.0117996
0.215932
0.0169567
0.215066
0.0219269
0.21409
0.0267872
0.213006
0.031602
0.211816
0.0364255
0.210525
0.0413053
0.209139
0.0462837
0.207663
0.0513978
0.206102
0.0566802
0.204465
0.0621623
0.202762
0.0678755
0.201005
0.0738518
0.199212
0.0801246
0.197405
0.0867288
0.195614
0.093701
0.193884
0.101079
0.192271
0.108907
0.190856
0.117234
0.189749
0.126112
0.189109
0.135589
0.18916
0.145705
0.190225
0.156482
0.192772
0.167888
0.197454
0.179803
0.205047
0.191933
0.21613
0.203868
0.230192
0.2159
0.227004
0.249712
0.222602
0.00651864
0.221997
0.0121268
0.221297
0.0174139
0.220506
0.0225059
0.219626
0.0274804
0.218661
0.0324018
0.217614
0.0373245
0.216493
0.0422953
0.215304
0.0473552
0.214056
0.0525397
0.212758
0.0578801
0.211423
0.0634055
0.210067
0.069144
0.20871
0.0751232
0.207378
0.0813706
0.206104
0.0879134
0.204933
0.0947782
0.203922
0.101991
0.203147
0.109577
0.202708
0.117562
0.20274
0.125964
0.203419
0.134789
0.204978
0.144023
0.207721
0.153616
0.212032
0.163457
0.218351
0.173371
0.22707
0.183114
0.238546
0.192311
0.253581
0.200804
0.206975
0.273572
0.228011
0.00668056
0.227443
0.0124067
0.226802
0.0178014
0.226092
0.0229928
0.225318
0.0280585
0.224482
0.0330628
0.223591
0.0380593
0.222652
0.0430937
0.221676
0.0482053
0.220672
0.0534276
0.219654
0.0587898
0.218641
0.0643177
0.217652
0.0700355
0.216714
0.0759654
0.215861
0.0821277
0.215136
0.088541
0.21459
0.0952215
0.214294
0.102181
0.214333
0.109427
0.214818
0.116963
0.215884
0.12478
0.217704
0.132848
0.220496
0.141111
0.224517
0.149476
0.230057
0.157804
0.237413
0.165912
0.246871
0.173565
0.258719
0.180388
0.273361
0.186104
0.189796
0.290503
0.233553
0.00681575
0.233024
0.0126352
0.232448
0.0181136
0.231828
0.0233805
0.231167
0.0285132
0.230471
0.0335751
0.229746
0.0386187
0.229002
0.0436883
0.22825
0.048821
0.227505
0.0540479
0.226783
0.0593951
0.226105
0.064885
0.225497
0.0705371
0.22499
0.0763677
0.224624
0.0823894
0.224447
0.0886119
0.224519
0.0950418
0.224912
0.101676
0.225717
0.108509
0.22704
0.115524
0.229014
0.122686
0.231801
0.129943
0.235582
0.137213
0.240557
0.144389
0.246924
0.151332
0.254876
0.157863
0.264588
0.16377
0.276138
0.168769
0.289557
0.17263
0.174744
0.304573
0.239231
0.006922
0.238746
0.0128083
0.238239
0.0183452
0.237714
0.0236624
0.237175
0.0288366
0.236626
0.0339299
0.236077
0.0389932
0.235538
0.0440689
0.235023
0.0491917
0.234547
0.0543897
0.23413
0.0596859
0.233798
0.0650984
0.233578
0.070642
0.233505
0.0763275
0.233624
0.0821591
0.233984
0.0881391
0.234647
0.0942656
0.235687
0.100521
0.237193
0.106887
0.239266
0.113333
0.242028
0.119808
0.24561
0.126245
0.250151
0.132559
0.25579
0.138644
0.262657
0.144365
0.270864
0.149567
0.280478
0.154079
0.291483
0.157699
0.303821
0.160241
0.161227
0.317302
0.245048
0.00699726
0.24461
0.0129227
0.244178
0.0184915
0.243754
0.0238329
0.243342
0.0290221
0.242949
0.0341198
0.242584
0.0391749
0.242258
0.0442274
0.241986
0.0493094
0.241787
0.054446
0.241682
0.0596563
0.241699
0.0649541
0.241867
0.0703506
0.242223
0.0758515
0.242813
0.0814515
0.243688
0.0871465
0.24491
0.0929258
0.24655
0.0987629
0.24869
0.10463
0.25142
0.110486
0.254838
0.116274
0.259045
0.121926
0.26414
0.127356
0.270218
0.132464
0.277356
0.137133
0.285602
0.141237
0.294966
0.144642
0.305397
0.147206
0.316795
0.148793
0.149031
0.328955
0.251006
0.00703974
0.250619
0.0129755
0.250265
0.0185485
0.249947
0.023887
0.249669
0.0290644
0.249437
0.0341392
0.249261
0.0391579
0.249153
0.0441583
0.249131
0.0491694
0.249212
0.0542132
0.249421
0.0593053
0.249784
0.0644554
0.250334
0.0696706
0.251109
0.0749503
0.252153
0.0802839
0.253517
0.0856605
0.255261
0.0910617
0.257446
0.0964581
0.260142
0.101815
0.263426
0.107086
0.267371
0.112215
0.272055
0.117134
0.277545
0.121763
0.283897
0.126015
0.291148
0.129794
0.299307
0.132999
0.308347
0.135532
0.318199
0.137296
0.328741
0.138203
0.137961
0.339777
0.257111
0.00704794
0.256775
0.012964
0.256503
0.018513
0.256295
0.0238211
0.256154
0.0289593
0.256087
0.0339837
0.256105
0.0389385
0.256219
0.0438585
0.256448
0.0487699
0.25681
0.0536915
0.25733
0.0586355
0.258035
0.0636083
0.258958
0.0686116
0.260136
0.0736396
0.261612
0.0786797
0.263432
0.0837156
0.265646
0.0887236
0.268311
0.0936724
0.271485
0.0985237
0.275225
0.103231
0.27959
0.10774
0.284631
0.111987
0.290389
0.115905
0.296893
0.119419
0.304149
0.122453
0.312142
0.124931
0.320824
0.126783
0.330116
0.127948
0.339899
0.128374
0.127825
0.35
0.263363
0.00702048
0.263083
0.0128863
0.262895
0.0183825
0.2628
0.0236322
0.262799
0.0287039
0.262901
0.0336509
0.263113
0.0385146
0.263451
0.043327
0.26393
0.0481115
0.264571
0.0528839
0.265397
0.057653
0.266434
0.062422
0.267715
0.0671884
0.269274
0.0719433
0.27115
0.0766719
0.273383
0.081354
0.276017
0.0859636
0.2791
0.0904684
0.282676
0.0948301
0.286789
0.0990042
0.291479
0.102941
0.296778
0.106585
0.302707
0.10988
0.309272
0.112765
0.316462
0.115182
0.324244
0.117077
0.332561
0.118402
0.341334
0.119121
0.350455
0.119207
0.118469
0.359777
0.269768
0.00695622
0.269545
0.0127408
0.269443
0.0181551
0.269462
0.0233187
0.269604
0.0282968
0.269874
0.0331398
0.270282
0.0378864
0.270842
0.0425657
0.271568
0.0471982
0.272481
0.0517969
0.273602
0.0563679
0.274958
0.0609115
0.276576
0.0654221
0.27849
0.0698887
0.280731
0.0742947
0.283335
0.0786182
0.28634
0.0828326
0.28978
0.0869061
0.293691
0.0908023
0.298102
0.094481
0.303038
0.097898
0.308516
0.101007
0.31454
0.103762
0.321102
0.106116
0.328179
0.108027
0.335729
0.109457
0.343693
0.110376
0.351996
0.110765
0.360544
0.110615
0.109768
0.369211
0.276329
0.00685444
0.276163
0.0125267
0.276149
0.0178302
0.276283
0.02288
0.276567
0.027738
0.277005
0.0324516
0.277607
0.0370564
0.278383
0.0415787
0.27935
0.0460366
0.280526
0.0504403
0.28193
0.0547937
0.283586
0.0590947
0.28552
0.063336
0.287758
0.0675048
0.29033
0.0715837
0.293265
0.0755507
0.29659
0.0793798
0.300332
0.0830412
0.304516
0.0865018
0.30916
0.0897261
0.314277
0.0926768
0.319869
0.0953165
0.325932
0.0976082
0.332447
0.0995178
0.339384
0.101015
0.346696
0.102076
0.354328
0.102684
0.36221
0.102832
0.370261
0.10252
0.101618
0.378376
0.283048
0.00671471
0.282941
0.0122438
0.283014
0.0174079
0.283263
0.0223169
0.283687
0.0270293
0.284291
0.0315891
0.285082
0.036029
0.28607
0.0403727
0.287269
0.0446357
0.288695
0.0488263
0.290367
0.0529463
0.292303
0.0569921
0.294528
0.060955
0.297062
0.0648216
0.299929
0.0685746
0.303152
0.0721928
0.306751
0.0756518
0.310745
0.0789247
0.315148
0.0819823
0.31997
0.0847945
0.325213
0.0873308
0.330872
0.0895615
0.336932
0.0914588
0.34337
0.0929983
0.350151
0.0941602
0.35723
0.0949304
0.364554
0.0953016
0.372061
0.0952745
0.379682
0.0948561
0.0939369
0.387329
0.28993
0.00653694
0.289881
0.0118924
0.290041
0.0168891
0.290403
0.0216312
0.290966
0.0261734
0.291731
0.0305565
0.292705
0.0348102
0.293897
0.0389558
0.295317
0.0430066
0.29698
0.046969
0.298902
0.0508434
0.301098
0.0546251
0.303587
0.058305
0.306387
0.0618697
0.309514
0.0653024
0.312987
0.0685837
0.316817
0.0716914
0.321017
0.0746019
0.325593
0.0772905
0.330546
0.0797323
0.335872
0.081903
0.341559
0.0837801
0.347587
0.0853435
0.353928
0.0865766
0.360549
0.0874676
0.367404
0.0880097
0.374446
0.0882022
0.38162
0.0880507
0.388867
0.0875659
0.0866548
0.396115
0.296978
0.00632134
0.296988
0.0114735
0.297233
0.0162756
0.297706
0.0208257
0.298403
0.0251745
0.299324
0.0293595
0.300474
0.0334077
0.301859
0.0373379
0.303489
0.0411616
0.305374
0.0448837
0.307527
0.0485037
0.30996
0.0520162
0.312688
0.055412
0.315724
0.0586785
0.31908
0.0618002
0.322765
0.0647594
0.326789
0.0675369
0.331155
0.0701126
0.335864
0.0724659
0.340911
0.0745771
0.346285
0.0764275
0.351971
0.0780005
0.357946
0.0792825
0.36418
0.0802632
0.37064
0.0809366
0.377285
0.0813012
0.38407
0.0813606
0.390947
0.0811233
0.397868
0.0806019
0.0797172
0.404771
0.304196
0.0060684
0.304263
0.0109886
0.304591
0.0155699
0.305172
0.0199041
0.305998
0.0240376
0.307069
0.0280049
0.308387
0.0318301
0.309955
0.0355299
0.311781
0.0391142
0.313871
0.0425868
0.316237
0.0459463
0.318886
0.0491875
0.321828
0.0523014
0.325071
0.0552764
0.328624
0.0580987
0.332491
0.0607527
0.336673
0.0632223
0.341172
0.0654906
0.34598
0.0675413
0.35109
0.0693591
0.356487
0.0709302
0.362151
0.0722431
0.368059
0.073289
0.374182
0.0740627
0.380485
0.0745623
0.386933
0.07479
0.393485
0.0747522
0.4001
0.0744588
0.406736
0.0739232
0.0730773
0.413341
0.311588
0.00577884
0.311711
0.0104394
0.31212
0.0147751
0.312803
0.0188706
0.313754
0.0227687
0.314967
0.0265002
0.316443
0.0300869
0.318183
0.0335436
0.320191
0.0368785
0.322471
0.0400946
0.32503
0.0431904
0.327873
0.0461606
0.331005
0.048997
0.334431
0.0516894
0.338152
0.0542255
0.342171
0.0565924
0.346483
0.0587765
0.351085
0.0607644
0.355967
0.0625433
0.361116
0.0641019
0.366515
0.0654305
0.372144
0.0665216
0.377978
0.0673704
0.383988
0.0679752
0.390143
0.0683371
0.396409
0.0684607
0.402751
0.0683539
0.409133
0.0680273
0.415519
0.0674941
0.0666958
0.421865
0.319158
0.00545359
0.319334
0.00982827
0.319821
0.0138946
0.320604
0.0177303
0.321672
0.0213741
0.32302
0.0248537
0.324644
0.0281883
0.326543
0.0313909
0.328719
0.0344685
0.331173
0.0374235
0.333908
0.0402542
0.336924
0.0429558
0.340224
0.0455211
0.343808
0.047941
0.347675
0.0502054
0.35182
0.0523033
0.356238
0.054224
0.36092
0.055957
0.365853
0.0574928
0.371024
0.0588232
0.376412
0.0599418
0.381996
0.0608445
0.387752
0.0615294
0.393653
0.0619971
0.399669
0.0622509
0.40577
0.062297
0.411924
0.0621436
0.4181
0.0618016
0.424267
0.0612835
0.0605389
0.430388
0.326909
0.00509369
0.327138
0.0091575
0.3277
0.0129321
0.328576
0.0164884
0.329755
0.0198607
0.331229
0.0230738
0.332992
0.0261444
0.335039
0.0290837
0.33737
0.031898
0.339982
0.034589
0.342874
0.0371551