/*--------------------------------*- C++ -*----------------------------------*\
| =========                 |                                                 |
| \\      /  F ield         | OpenFOAM: The Open Source CFD Toolbox           |
|  \\    /   O peration     | Version:  5.x                                   |
|   \\  /    A nd           | Web:      www.OpenFOAM.org                      |
|    \\/     M anipulation  |                                                 |
\*---------------------------------------------------------------------------*/
FoamFile
{
    version     2.0;
    format      ascii;
    class       volVectorField;
    location    "0.9";
    object      U;
}
// * * * * * * * * * * * * * * * * * * * * * * * * * * * * * * * * * * * * * //

dimensions      [0 1 -1 0 0 0 0];

internalField   nonuniform List<vector> 
2790
(
(9.92933 -2.76968e-19 0.0196206)
(9.86476 -2.84033e-19 0.026805)
(9.77126 0 0.031504)
(9.65468 1.50786e-19 0.0364495)
(9.52308 -1.55668e-19 0.0416125)
(9.37862 1.60849e-19 0.0469316)
(9.22076 0 0.0525282)
(9.04859 2.5898e-19 0.0585349)
(8.86136 -8.87407e-20 0.0650651)
(8.65839 0 0.0722274)
(8.43888 0 0.0801351)
(8.20177 0 0.0889145)
(7.94587 0 0.098705)
(7.66987 0 0.109653)
(7.37234 5.7102e-20 0.121908)
(7.05178 0 0.135635)
(6.70668 0 0.151012)
(6.33549 0 0.16822)
(5.93671 2.80068e-19 0.187418)
(5.50904 0 0.208733)
(5.05144 1.26846e-18 0.232242)
(4.56334 6.94136e-19 0.257953)
(4.04479 2.88925e-20 0.285742)
(3.49667 -3.07347e-18 0.315292)
(2.92098 4.17117e-18 0.346057)
(2.32109 -7.19099e-18 0.377172)
(1.70175 -3.92598e-18 0.407125)
(1.06942 8.43271e-18 0.430375)
(0.402046 0 0.381337)
(-0.150997 -2.57305e-18 -0.3683)
(9.99184 3.10687e-19 0.0375947)
(9.9858 1.76325e-19 0.054095)
(9.95309 7.23684e-20 0.0659566)
(9.8955 -1.48777e-19 0.0787655)
(9.81994 1.53068e-19 0.0925016)
(9.72878 -1.57612e-19 0.106974)
(9.62178 -1.62357e-19 0.122417)
(9.49823 2.52407e-19 0.139125)
(9.35742 -6.04404e-19 0.157362)
(9.19879 0 0.177374)
(9.02166 -9.25262e-20 0.19943)
(8.82502 0 0.22383)
(8.60776 0 0.250899)
(8.36859 0 0.280969)
(8.10611 -1.89513e-18 0.314365)
(7.81881 3.48482e-18 0.351418)
(7.5051 -1.86872e-18 0.392472)
(7.16333 0 0.437832)
(6.79183 -4.40919e-18 0.487692)
(6.38902 4.31543e-18 0.542084)
(5.95347 -4.02887e-18 0.600823)
(5.48408 5.41236e-18 0.663429)
(4.9802 1.27838e-18 0.728949)
(4.44173 0 0.795724)
(3.86951 7.22274e-19 0.861202)
(3.26568 1.0893e-17 0.921452)
(2.63439 -1.15917e-17 0.969761)
(1.98337 3.55774e-18 0.991035)
(1.27465 -3.06086e-17 0.946074)
(0.808688 3.84925e-17 0.754365)
(9.98905 0 0.0373595)
(9.98053 5.62643e-19 0.0616105)
(9.95032 7.21382e-19 0.0818233)
(9.8977 1.48759e-19 0.103156)
(9.82829 1.07497e-21 0.125985)
(9.74452 -3.12624e-19 0.150212)
(9.64647 1.61252e-19 0.17614)
(9.53354 3.31938e-19 0.2042)
(9.40512 1.71271e-19 0.234798)
(9.26078 -8.86067e-19 0.268328)
(9.09998 8.18487e-19 0.30524)
(8.92188 1.51658e-18 0.346036)
(8.7255 -1.55581e-18 0.391256)
(8.50977 -1.62781e-18 0.441473)
(8.27344 1.77736e-18 0.497258)
(8.01511 1.0922e-19 0.559194)
(7.73331 2.26731e-19 0.627905)
(7.42645 -3.80648e-18 0.703981)
(7.09281 3.43504e-18 0.787862)
(6.73057 0 0.879753)
(6.33788 -5.4096e-19 0.979521)
(5.91287 1.1304e-18 1.08659)
(5.45391 -1.19289e-18 1.19973)
(4.95906 1.00781e-17 1.31655)
(4.42642 -1.24085e-18 1.43313)
(3.85418 1.27298e-17 1.54342)
(3.23922 -2.82128e-17 1.63792)
(2.57683 -1.53991e-20 1.70029)
(1.80706 0 1.7088)
(1.09668 0 1.6427)
(9.98725 0 0.0406136)
(9.97632 -1.54345e-18 0.073983)
(9.94589 1.43614e-19 0.103674)
(9.8944 -2.9488e-19 0.133711)
(9.8264 0 0.165153)
(9.74436 1.84575e-21 0.198285)
(9.64864 -6.3907e-19 0.233558)
(9.53873 -3.29757e-19 0.271556)
(9.41419 -3.39163e-19 0.312832)
(9.27475 -1.22971e-18 0.357931)
(9.11999 1.4379e-18 0.407485)
(8.94931 1.49672e-18 0.462171)
(8.76203 -1.48488e-18 0.522709)
(8.55741 -3.20043e-18 0.589899)
(8.33457 3.17805e-18 0.66457)
(8.09237 0 0.747544)
(7.82967 -2.21747e-19 0.839716)
(7.54535 4.58851e-19 0.942017)
(7.23797 4.78692e-19 1.05525)
(6.90592 -7.99723e-18 1.17997)
(6.54737 8.24125e-18 1.31637)
(6.16007 -9.76426e-18 1.46413)
(5.74182 8.97689e-18 1.62234)
(5.28939 0 1.78881)
(4.79805 2.46023e-18 1.95949)
(4.26177 0 2.12843)
(3.67089 2.74111e-18 2.28732)
(3.01358 -2.90286e-18 2.42496)
(2.23861 0 2.52995)
(1.37853 -5.95074e-17 2.65087)
(9.98642 -1.09643e-18 0.0453677)
(9.97393 1.11992e-18 0.0862596)
(9.94315 -8.60268e-19 0.124063)
(9.89255 2.93601e-19 0.161913)
(9.82586 1.20692e-18 0.20131)
(9.7454 1.50339e-21 0.242871)
(9.65165 0 0.287166)
(9.54413 0 0.334859)
(9.42258 3.3661e-19 0.386595)
(9.2867 3.45896e-19 0.443038)
(9.1362 3.56267e-19 0.504938)
(8.97065 -2.95421e-18 0.573087)
(8.78952 6.02228e-18 0.648304)
(8.59231 -3.11241e-18 0.731542)
(8.37849 1.01277e-19 0.823858)
(8.14721 -2.08701e-19 0.926269)
(7.89754 0 1.03984)
(7.62878 -4.48809e-19 1.16576)
(7.33992 6.5371e-18 1.30518)
(7.02977 -7.6565e-18 1.45907)
(6.69672 -9.94327e-19 1.6281)
(6.33851 1.66438e-17 1.81244)
(5.95255 -1.71283e-17 2.01178)
(5.53539 1.79593e-17 2.22495)
(5.08097 -2.08822e-17 2.44895)
(4.58056 0 2.67924)
(4.02174 0 2.91048)
(3.3894 0 3.13768)
(2.66775 -1.37913e-18 3.34064)
(1.69888 6.20597e-18 3.65429)
(9.9861 1.09465e-18 0.0508409)
(9.97272 0 0.0986231)
(9.94187 0 0.144128)
(9.89228 5.85799e-19 0.189789)
(9.82717 -1.19905e-18 0.237203)
(9.74868 0 0.28719)
(9.65723 0 0.340418)
(9.55248 0 0.397612)
(9.4342 0 0.459512)
(9.30211 6.90203e-19 0.526893)
(9.15602 -1.75726e-18 0.600609)
(8.99564 2.91388e-18 0.68156)
(8.82055 -2.97631e-18 0.770667)
(8.63026 -5.4055e-20 0.868973)
(8.42451 -3.19054e-18 0.977722)
(8.20281 3.46585e-18 1.09816)
(7.96433 6.79533e-18 1.23147)
(7.70857 6.80158e-20 1.37905)
(7.43492 9.73773e-19 1.54235)
(7.14252 7.10021e-20 1.72271)
(6.83009 -6.69779e-18 1.92136)
(6.4957 0 2.13916)
(6.1365 0 2.37649)
(5.74917 0 2.63346)
(5.32807 1.98329e-17 2.90892)
(4.86394 -2.04117e-17 3.20015)
(4.34455 0 3.5039)
(3.74919 0 3.8214)
(3.12362 2.31192e-20 4.10254)
(2.06365 -2.81118e-18 4.59687)
(9.98598 2.04315e-18 0.0566568)
(9.97224 9.71712e-19 0.111047)
(9.94163 1.42016e-18 0.163853)
(9.8932 -1.1631e-18 0.217049)
(9.8299 0 0.27221)
(9.75367 0 0.330309)
(9.66497 -6.25992e-19 0.392118)
(9.56349 0 0.458444)
(9.44902 -1.98284e-18 0.53013)
(9.32133 1.68979e-18 0.60804)
(9.18025 2.79432e-18 0.693103)
(9.02562 -2.85043e-18 0.786318)
(8.85715 -2.95415e-18 0.888724)
(8.67432 6.09998e-18 1.00142)
(8.47696 -3.10035e-18 1.12574)
(8.26488 0 1.26314)
(8.03746 4.11327e-19 1.415)
(7.79425 0 1.5828)
(7.535 0 1.76827)
(7.25895 0 1.97316)
(6.96504 0 2.19916)
(6.65201 0 2.44795)
(6.3173 1.57791e-17 2.72069)
(5.95756 -1.61192e-17 3.01855)
(5.56814 -2.09081e-18 3.34227)
(5.14112 2.14973e-18 3.6911)
(4.66688 0 4.06203)
(4.11309 0 4.46382)
(3.61077 1.01975e-18 4.79721)
(2.46934 4.12484e-17 5.44786)
(9.98597 -2.03957e-18 0.0626054)
(9.97225 -1.24639e-18 0.123401)
(9.94223 -1.13256e-18 0.183131)
(9.89518 1.73856e-18 0.243546)
(9.83388 -1.18553e-18 0.306181)
(9.76023 6.05811e-19 0.372097)
(9.67465 -6.24076e-19 0.442168)
(9.57683 1.27095e-18 0.517289)
(9.46662 1.30591e-18 0.598383)
(9.34388 -6.68608e-19 0.686391)
(9.20847 -2.75759e-18 0.782313)
(9.06026 5.99146e-18 0.887229)
(8.89904 -2.52217e-18 1.00229)
(8.72447 5.78185e-18 1.12867)
(8.53626 -6.17239e-18 1.26774)
(8.33442 0 1.42112)
(8.11869 -2.02935e-19 1.59041)
(7.88849 0 1.77714)
(7.6439 -1.36325e-17 1.98336)
(7.38433 1.38797e-17 2.21115)
(7.10879 0 2.46262)
(6.81658 -1.56167e-17 2.74014)
(6.50583 1.49685e-17 3.04586)
(6.1736 0 3.3818)
(5.81595 3.14112e-17 3.74993)
(5.42671 -3.19679e-17 4.15132)
(5.00125 0 4.58163)
(4.48812 3.17653e-20 5.05923)
(4.11805 1.32614e-19 5.42102)
(2.90242 -3.73034e-17 6.18944)
(9.98605 -2.16382e-18 0.0685461)
(9.97268 0 0.135551)
(9.94353 0 0.201868)
(9.89801 -5.7649e-19 0.269176)
(9.839 5.88138e-19 0.338988)
(9.76827 0 0.412406)
(9.68615 2.46729e-18 0.490394)
(9.59237 6.28485e-21 0.573934)
(9.48685 -2.58086e-18 0.664003)
(9.36953 1.32317e-18 0.76161)
(9.24035 6.7644e-19 0.867841)
(9.0992 2.43943e-18 0.983857)
(8.94591 -2.83701e-18 1.11088)
(8.78036 5.46209e-19 1.25018)
(8.60219 -6.09175e-18 1.40317)
(8.41145 6.09885e-18 1.57155)
(8.20823 -2.45469e-19 1.75714)
(7.99201 0 1.96163)
(7.7627 4.09195e-19 2.18718)
(7.52023 0 2.43632)
(7.264 -1.4646e-17 2.71156)
(6.99336 1.48742e-17 3.01573)
(6.70719 0 3.3519)
(6.40323 0 3.72298)
(6.07843 -2.86313e-17 4.13177)
(5.72726 3.0361e-17 4.58057)
(5.35198 1.16578e-19 5.06233)
(4.8751 9.02325e-19 5.60758)
(4.62747 -3.01705e-17 5.98465)
(3.34496 3.32723e-17 6.82959)
(9.98619 4.31487e-18 0.0743734)
(9.97339 0 0.147387)
(9.94534 0 0.219983)
(9.90154 0 0.293846)
(9.84504 1.16864e-18 0.37049)
(9.77751 1.19435e-18 0.451062)
(9.69915 1.21062e-21 0.536598)
(9.6098 -1.24717e-18 0.628144)
(9.50944 1.27801e-18 0.726721)
(9.39802 -3.27673e-18 0.833395)
(9.27556 1.32901e-18 0.949346)
(9.14202 0 1.07581)
(8.9973 -3.50374e-19 1.21404)
(8.84141 -1.88812e-21 1.36541)
(8.67411 -5.32197e-18 1.53142)
(8.49543 5.77036e-18 1.7138)
(8.30559 6.17757e-18 1.91451)
(8.10442 -6.21491e-18 2.13553)
(7.89151 -3.9937e-19 2.37906)
(7.66714 2.01616e-19 2.64788)
(7.43134 6.24456e-19 2.945)
(7.18355 4.16568e-19 3.27367)
(6.92336 -2.11024e-19 3.63776)
(6.64897 0 4.04095)
(6.35834 -8.74382e-19 4.48675)
(6.04556 -8.70131e-19 4.9786)
(5.72025 7.50947e-19 5.50568)
(5.27464 -8.76523e-19 6.11283)
(5.12743 0 6.50889)
(3.78623 0 7.40656)
(9.9863 -2.15098e-18 0.0800236)
(9.97429 0 0.158813)
(9.94758 0 0.237388)
(9.90571 0 0.317463)
(9.85191 3.79539e-22 0.400577)
(9.78779 -2.37315e-18 0.487926)
(9.71349 0 0.580606)
(9.62892 2.48107e-18 0.679705)
(9.53413 -3.15494e-18 0.786289)
(9.42907 6.44101e-19 0.901482)
(9.31376 6.60341e-19 1.02654)
(9.18834 -5.39998e-18 1.16274)
(9.05275 5.47837e-18 1.31139)
(8.9071 -1.05042e-18 1.47391)
(8.75133 -3.58655e-19 1.65191)
(8.58557 6.0353e-18 1.8472)
(8.40999 6.00003e-18 2.06179)
(8.2247 -2.42005e-17 2.29792)
(8.02956 1.20773e-17 2.55796)
(7.8248 -2.08114e-21 2.84476)
(7.61076 1.98953e-19 3.16169)
(7.38718 -4.02643e-19 3.51243)
(7.15444 6.0348e-19 3.90166)
(6.91141 -8.03707e-19 4.33392)
(6.65654 0 4.81322)
(6.38308 4.0848e-19 5.34467)
(6.10729 -8.12462e-19 5.91406)
(5.69109 0 6.58089)
(5.62181 -6.25702e-18 7.01556)
(4.23101 2.70765e-17 7.97396)
(9.98637 2.13736e-18 0.0854658)
(9.97531 2.17247e-18 0.169745)
(9.95013 0 0.253985)
(9.91038 0 0.339935)
(9.85946 1.15567e-18 0.42915)
(9.79894 3.57228e-21 0.522877)
(9.72894 4.3264e-21 0.622259)
(9.64944 -1.22281e-18 0.728416)
(9.56057 2.50537e-18 0.842469)
(9.46223 -5.73643e-18 0.965605)
(9.35454 -1.38676e-20 1.09911)
(9.23773 2.64148e-18 1.24432)
(9.11188 5.41352e-18 1.40255)
(8.97704 7.21407e-19 1.57525)
(8.83335 -1.11895e-17 1.76415)
(8.6812 6.38233e-18 1.97115)
(8.5207 -1.15935e-17 2.19829)
(8.35214 1.17019e-17 2.44794)
(8.17585 -1.24654e-17 2.7227)
(7.99212 1.18082e-17 3.02558)
(7.80144 -7.53117e-19 3.36016)
(7.60386 1.22018e-17 3.73047)
(7.39999 1.18253e-17 4.14163)
(7.19014 2.20718e-18 4.59949)
(6.97326 -2.57943e-17 5.10884)
(6.74129 0 5.67689)
(6.51645 0 6.28848)
(6.1349 0 7.01573)
(6.12994 1.15123e-17 7.51957)
(4.70153 2.42319e-17 8.57959)
(9.98652 -2.13292e-18 0.0906697)
(9.97644 -2.70801e-18 0.180124)
(9.95291 2.20252e-18 0.269702)
(9.91546 5.61778e-19 0.361178)
(9.86762 -1.14741e-18 0.45611)
(9.81091 1.16653e-18 0.5558)
(9.74544 2.3848e-18 0.661422)
(9.67131 9.25922e-21 0.774126)
(9.58858 -1.23288e-18 0.895084)
(9.49729 0 1.02554)
(9.39763 -3.8451e-18 1.1668)
(9.28984 7.82539e-18 1.32023)
(9.1742 -6.60847e-18 1.48717)
(9.05071 0 1.66907)
(8.91961 5.48405e-18 1.86772)
(8.78167 -6.92232e-18 2.08514)
(8.637 1.19682e-17 2.32338)
(8.48599 -1.06408e-17 2.58485)
(8.32937 7.21364e-19 2.87235)
(8.16768 -1.15738e-17 3.18905)
(8.00167 1.23316e-17 3.53874)
(7.83201 1.16092e-17 3.92584)
(7.659 -1.15792e-17 4.3555)
(7.4843 2.14025e-17 4.83473)
(7.30818 -2.40222e-17 5.36981)
(7.12192 -2.18994e-17 5.97051)
(6.95298 2.1659e-17 6.62457)
(6.62222 -5.08264e-18 7.41312)
(6.68187 -2.52629e-17 8.02418)
(5.23735 4.01688e-17 9.26334)
(9.98683 -4.50164e-18 0.0955868)
(9.9777 2.42018e-18 0.189906)
(9.95591 -1.64749e-18 0.284475)
(9.92097 5.59773e-19 0.381104)
(9.8764 -1.13682e-18 0.481356)
(9.8237 2.31343e-18 0.586574)
(9.76302 2.3628e-18 0.697961)
(9.69448 -2.39677e-18 0.816697)
(9.61812 -1.22357e-18 0.943982)
(9.53412 3.72776e-18 1.08109)
(9.44274 -2.51251e-18 1.22938)
(9.34427 -5.13992e-18 1.39019)
(9.23921 1.04189e-17 1.56489)
(9.12748 -5.26685e-18 1.75498)
(9.00945 -1.3319e-18 1.96219)
(8.88616 -4.74275e-18 2.1886)
(8.75788 -6.18229e-18 2.43637)
(8.62508 -7.26071e-19 2.70787)
(8.48875 9.69482e-18 3.00594)
(8.34997 1.25048e-17 3.33397)
(8.20962 -9.73284e-18 3.69578)
(8.06909 0 4.09608)
(7.92935 -1.09122e-17 4.54034)
(7.79226 1.07971e-17 5.03576)
(7.66037 -1.55965e-17 5.59036)
(7.5262 4.05756e-17 6.21649)
(7.42207 -1.49211e-17 6.90871)
(7.17193 4.72608e-18 7.75223)
(7.31832 -2.17519e-17 8.50776)
(5.90344 2.0226e-17 10.0748)
(9.9872 3.96441e-18 0.100173)
(9.97908 -1.34194e-18 0.199049)
(9.95913 -5.45303e-19 0.298249)
(9.92684 0 0.399633)
(9.88567 -2.25583e-18 0.504784)
(9.83716 -4.59708e-18 0.61508)
(9.78147 2.33331e-18 0.731747)
(9.7187 -3.56604e-18 0.855984)
(9.64901 2.41046e-18 0.98901)
(9.57251 -1.22871e-18 1.13212)
(9.48955 1.24721e-18 1.28668)
(9.40072 -1.25785e-18 1.45401)
(9.30647 1.28217e-18 1.6355)
(9.20681 1.289e-18 1.83271)
(9.10234 -3.92692e-18 2.0473)
(8.99393 5.26941e-18 2.28127)
(8.88229 -1.32305e-18 2.53689)
(8.76822 -1.32912e-18 2.81655)
(8.65261 2.67859e-18 3.12295)
(8.53727 8.02385e-18 3.45958)
(8.42334 -1.19971e-17 3.83023)
(8.31268 -1.05158e-17 4.23954)
(8.20777 1.04005e-17 4.69332)
(8.11073 0 5.19844)
(8.02668 1.69266e-17 5.76371)
(7.95179 -1.89254e-17 6.40253)
(7.92402 -4.51049e-18 7.11736)
(7.79618 -8.11389e-18 7.98711)
(8.08536 2.62568e-17 8.88348)
(6.79965 -1.66331e-17 11.1129)
(0.25037 0 -0.219466)
(0.317512 0 0.00664134)
(0.20623 -3.06476e-18 0.0825452)
(-0.0301794 3.74759e-18 0.119381)
(-0.385843 -3.32932e-18 0.151046)
(-0.855151 3.12035e-18 0.175551)
(-1.41225 0 0.191462)
(-2.02657 0 0.199529)
(-2.67059 1.45605e-19 0.201089)
(-3.32255 0 0.197233)
(-3.9671 0 0.188798)
(-4.59202 0 0.176337)
(-5.18693 0 0.160259)
(-5.74305 2.9217e-19 0.141004)
(-6.25175 -1.13235e-19 0.118866)
(-6.70479 2.01861e-19 0.094029)
(-7.09373 7.23299e-20 0.0666268)
(-7.40989 0 0.0366997)
(-7.64452 0 0.00420931)
(-7.78729 -1.77703e-20 -0.0312755)
(-7.82779 1.76259e-20 -0.0714073)
(-7.75985 0 -0.119984)
(-7.5604 0 -0.177467)
(-7.21436 0 -0.244934)
(-6.71076 4.27023e-20 -0.324615)
(-6.02515 0 -0.421355)
(-5.11333 0 -0.547153)
(-3.91999 0 -0.722135)
(-2.39215 6.71961e-20 -0.934375)
(-0.186629 0 -1.00217)
(-0.0294087 1.04921e-17 -0.219588)
(-0.0953541 -8.744e-18 0.0701715)
(-0.342732 -2.85217e-18 0.211471)
(-0.720528 0 0.32093)
(-1.21587 0 0.411378)
(-1.80738 -5.34716e-18 0.48294)
(-2.46655 2.06152e-19 0.535798)
(-3.16458 4.69345e-18 0.571669)
(-3.87736 -1.27642e-19 0.592712)
(-4.58611 0 0.600758)
(-5.27821 -8.05741e-19 0.59736)
(-5.94369 -1.33928e-18 0.583485)
(-6.57408 7.16966e-19 0.559635)
(-7.16234 -2.2193e-19 0.52637)
(-7.70041 -4.01846e-19 0.483856)
(-8.18045 3.90661e-19 0.432064)
(-8.5941 -1.44271e-20 0.371102)
(-8.93288 -1.29193e-19 0.301151)
(-9.18845 0 0.222281)
(-9.35154 3.13581e-20 0.134239)
(-9.41457 9.87522e-20 0.0356492)
(-9.36934 -8.67458e-20 -0.0768208)
(-9.21026 -1.99835e-20 -0.202528)
(-8.93046 -6.31207e-20 -0.340106)
(-8.52708 -2.85438e-20 -0.490327)
(-7.9917 1.07284e-21 -0.657068)
(-7.31151 -1.05822e-20 -0.851746)
(-6.47604 9.11625e-20 -1.09023)
(-5.53554 -5.10633e-20 -1.3427)
(-4.81694 -5.81149e-20 -1.47566)
(-0.0885243 1.16716e-18 -0.0266841)
(-0.299015 4.0856e-18 0.299096)
(-0.667882 1.74825e-18 0.501085)
(-1.14564 1.21649e-17 0.660042)
(-1.72329 -1.10699e-17 0.787289)
(-2.37764 1.09734e-17 0.885009)
(-3.08093 -9.77009e-18 0.954313)
(-3.80783 3.92753e-18 0.997656)
(-4.53874 -2.40009e-19 1.01802)
(-5.25885 -3.45519e-18 1.01784)
(-5.95865 6.81738e-21 0.999301)
(-6.63032 1.22599e-18 0.963788)
(-7.26726 -1.18556e-18 0.911956)
(-7.8636 4.79744e-19 0.844368)
(-8.41198 0 0.761322)
(-8.90545 3.24759e-19 0.662987)
(-9.3369 -2.61593e-19 0.549748)
(-9.69783 -3.95559e-19 0.42231)
(-9.98006 1.87435e-19 0.281501)
(-10.1756 0 0.128224)
(-10.278 -1.00539e-19 -0.0368328)
(-10.2818 -2.17999e-20 -0.21342)
(-10.1855 -1.88553e-20 -0.404315)
(-9.98553 5.93361e-20 -0.6097)
(-9.68445 0 -0.827779)
(-9.28387 0 -1.05787)
(-8.78525 5.70535e-20 -1.30198)
(-8.19021 -1.45151e-19 -1.56281)
(-7.55219 3.24713e-21 -1.82297)
(-7.1325 1.34178e-19 -2.02493)
(-0.0503276 -4.01989e-17 0.265662)
(-0.354632 -3.78778e-18 0.619739)
(-0.818824 2.58056e-17 0.860962)
(-1.36923 -4.03128e-19 1.05408)
(-1.99944 -2.0567e-17 1.20618)
(-2.68649 -1.15425e-18 1.32017)
(-3.40583 5.26692e-19 1.39879)
(-4.13696 -7.6671e-18 1.44582)
(-4.8649 1.38341e-17 1.46507)
(-5.57883 -8.65837e-18 1.45943)
(-6.27238 1.6298e-18 1.4314)
(-6.93969 2.54281e-18 1.38249)
(-7.57514 -9.80034e-19 1.31336)
(-8.17338 1.25992e-19 1.22422)
(-8.72796 7.45539e-20 1.1152)
(-9.23186 -3.1125e-19 0.986293)
(-9.67827 2.51488e-19 0.837379)
(-10.0593 1.98702e-19 0.66866)
(-10.3668 1.50419e-19 0.480754)
(-10.5936 1.28261e-19 0.274397)
(-10.7339 1.42416e-19 0.0504156)
(-10.7835 -6.71304e-21 -0.190593)
(-10.7414 5.80687e-21 -0.446965)
(-10.61 7.28358e-20 -0.716627)
(-10.3936 5.19105e-20 -0.996452)
(-10.099 1.05663e-20 -1.28256)
(-9.73307 -1.46796e-19 -1.57004)
(-9.30204 1.61297e-19 -1.85391)
(-8.85483 -8.90121e-20 -2.12574)
(-8.58142 -8.13524e-20 -2.34951)
(0.0510528 2.11015e-18 0.628622)
(-0.300992 0 1.01058)
(-0.836232 -2.40197e-17 1.2761)
(-1.43671 1.6166e-17 1.48789)
(-2.09809 0 1.65217)
(-2.79731 -1.70309e-17 1.77256)
(-3.51454 2.39615e-17 1.85342)
(-4.23462 -7.20328e-18 1.89927)
(-4.94701 -8.12888e-19 1.91377)
(-5.6447 7.16107e-19 1.89988)
(-6.32341 -6.57291e-19 1.85978)
(-6.9787 0 1.79449)
(-7.60571 1.84496e-18 1.70433)
(-8.19914 -1.02271e-18 1.58909)
(-8.75341 -4.80149e-20 1.44863)
(-9.26162 5.53008e-19 1.28291)
(-9.71665 4.3534e-19 1.09203)
(-10.1116 0 0.876676)
(-10.4393 -2.73787e-19 0.638286)
(-10.6929 2.39927e-19 0.378947)
(-10.8672 -3.45208e-19 0.101247)
(-10.9586 1.06348e-19 -0.19207)
(-10.9648 2.58944e-20 -0.498322)
(-10.894 -6.24559e-20 -0.816311)
(-10.7505 -5.07737e-20 -1.14107)
(-10.543 0 -1.46522)
(-10.2809 6.81988e-20 -1.77925)
(-9.97369 -8.0037e-20 -2.07496)
(-9.66425 3.11694e-20 -2.34702)
(-9.48378 0 -2.56201)
(0.207169 -3.18184e-17 1.04353)
(-0.157513 2.63472e-17 1.45098)
(-0.746572 2.24389e-17 1.73101)
(-1.37799 -2.02618e-17 1.94939)
(-2.05221 -2.25946e-18 2.11559)
(-2.74671 1.72579e-17 2.2349)
(-3.44717 -1.55312e-17 2.31309)
(-4.14365 0 2.35477)
(-4.82992 6.82761e-18 2.36313)
(-5.50257 -1.26378e-17 2.34097)
(-6.15871 2.84931e-18 2.28987)
(-6.79492 1.22577e-18 2.21025)
(-7.40715 -9.18963e-19 2.10208)
(-7.99024 0 1.96485)
(-8.53893 4.04505e-20 1.79813)
(-9.0471 4.19552e-20 1.60174)
(-9.50776 -6.74526e-20 1.37582)
(-9.91431 -6.47931e-19 1.12101)
(-10.2598 0 0.838737)
(-10.5377 -4.2611e-20 0.531382)
(-10.7428 1.31213e-19 0.202504)
(-10.8719 -4.49552e-20 -0.143064)
(-10.9229 2.489e-20 -0.499862)
(-10.9049 0 -0.864002)
(-10.8243 0 -1.22994)
(-10.6896 4.94478e-22 -1.58724)
(-10.5113 8.28015e-21 -1.92348)
(-10.3017 1.80427e-21 -2.22878)
(-10.0968 6.29042e-20 -2.49759)
(-9.98174 2.88119e-20 -2.69737)
(0.413311 2.62835e-17 1.49784)
(0.0629552 -6.09715e-18 1.92439)
(-0.568347 -2.10569e-17 2.21053)
(-1.21306 4.52785e-17 2.42571)
(-1.88262 -1.54934e-17 2.58614)
(-2.55676 1.46179e-17 2.69937)
(-3.22727 -1.54817e-17 2.77181)
(-3.88926 8.28434e-19 2.80753)
(-4.54061 1.49636e-18 2.80926)
(-5.18051 5.1745e-18 2.77912)
(-5.80719 -5.02387e-18 2.71779)
(-6.41815 -8.99734e-19 2.62505)
(-7.0099 4.48087e-18 2.50027)
(-7.57784 -2.47712e-19 2.34253)
(-8.11683 -1.98424e-18 2.15112)
(-8.62117 0 1.92562)
(-9.08426 -3.20855e-19 1.66615)
(-9.49945 8.51957e-19 1.37357)
(-9.86001 -6.82726e-20 1.04965)
(-10.1596 -5.17371e-20 0.697452)
(-10.3932 0 0.321716)
(-10.5577 1.06653e-20 -0.0707326)
(-10.6524 -2.04263e-20 -0.471855)
(-10.6818 0 -0.875998)
(-10.6566 1.29656e-20 -1.27696)
(-10.5842 -1.25733e-20 -1.66176)
(-10.4755 -6.3912e-21 -2.01591)
(-10.3453 -5.37587e-20 -2.32804)
(-10.2225 -3.52228e-20 -2.59108)
(-10.1568 -2.8764e-20 -2.77541)
(0.663894 6.33165e-17 1.98875)
(0.34832 -1.72465e-17 2.41909)
(-0.316004 1.98875e-17 2.70171)
(-0.955773 -2.08506e-17 2.90513)
(-1.60329 1.04606e-18 3.0543)
(-2.24213 0 3.15832)
(-2.87052 4.51651e-19 3.2233)
(-3.4885 -8.24993e-19 3.25237)
(-4.09741 -1.49213e-18 3.24772)
(-4.69786 1.29706e-18 3.21037)
(-5.28901 -1.13978e-18 3.14002)
(-5.86923 1.8828e-18 3.03585)
(-6.43546 -1.83846e-18 2.89654)
(-6.98371 0 2.72078)
(-7.50915 5.15685e-19 2.50756)
(-8.00619 -8.3121e-20 2.25626)
(-8.4687 2.77829e-19 1.96692)
(-8.89022 -5.23576e-19 1.64051)
(-9.26436 1.03293e-19 1.27915)
(-9.58486 2.87527e-20 0.886399)
(-9.84629 -7.6631e-21 0.467914)
(-10.0452 0 0.0319812)
(-10.1815 0 -0.411276)
(-10.2534 -1.09872e-19 -0.852523)
(-10.2777 1.03708e-19 -1.2848)
(-10.2596 2.13173e-19 -1.69379)
(-10.2101 9.65001e-21 -2.06348)
(-10.1456 5.18506e-20 -2.38084)
(-10.0896 1.75671e-20 -2.6372)
(-10.063 0 -2.80743)
(0.949939 -2.97995e-17 2.51367)
(0.685491 -2.64153e-17 2.9252)
(-0.00153037 3.83926e-17 3.19312)
(-0.616028 1.63704e-18 3.37719)
(-1.22417 -1.78727e-17 3.51149)
(-1.81368 -1.49564e-17 3.60457)
(-2.38919 1.36267e-17 3.66137)
(-2.95493 0 3.68409)
(-3.51465 0 3.67405)
(-4.06979 -1.30947e-18 3.63081)
(-4.62021 -9.82416e-19 3.55312)
(-5.16483 3.8989e-18 3.43955)
(-5.70107 -2.58142e-18 3.28817)
(-6.22528 1.3132e-18 3.09724)
(-6.73305 0 2.86542)
(-7.21913 -4.32226e-19 2.59185)
(-7.6779 0 2.27648)
(-8.10341 -1.75226e-19 1.92033)
(-8.48961 -3.38652e-19 1.52574)
(-8.83027 -1.62645e-21 1.09674)
(-9.11926 -2.02548e-20 0.639526)
(-9.35216 7.27857e-20 0.16316)
(-9.52857 -1.161e-19 -0.320541)
(-9.639 5.7664e-19 -0.796412)
(-9.70829 -1.34225e-19 -1.25671)
(-9.739 7.20281e-20 -1.68751)
(-9.74148 2.64318e-20 -2.07131)
(-9.73317 -1.87544e-20 -2.3932)
(-9.73317 9.32262e-21 -2.64286)
(-9.73963 -3.10222e-21 -2.80029)
(1.25961 -2.45603e-17 3.06128)
(1.06132 2.54424e-17 3.43089)
(0.36521 -1.60046e-17 3.67294)
(-0.201061 3.27067e-17 3.83168)
(-0.752827 -6.72083e-19 3.94922)
(-1.28019 -1.56488e-17 4.03096)
(-1.79378 -5.93364e-18 4.08008)
(-2.30057 4.47581e-19 4.09768)
(-2.80537 4.56712e-18 4.08354)
(-3.31026 4.84162e-18 4.03599)
(-3.81561 -4.70635e-18 3.95302)
(-4.32035 0 3.83236)
(-4.82226 2.28019e-18 3.67163)
(-5.318 -2.77495e-18 3.46869)
(-5.8036 0 3.22185)
(-6.27442 0 2.93006)
(-6.72549 0 2.59315)
(-7.15158 3.89881e-19 2.2121)
(-7.54718 2.89791e-20 1.7893)
(-7.90609 0 1.32885)
(-8.2213 3.34591e-19 0.836895)
(-8.4866 -1.05639e-19 0.322697)
(-8.69889 1.67848e-19 -0.199442)
(-8.85085 -4.69264e-19 -0.708596)
(-8.96203 4.82848e-19 -1.19431)
(-9.03886 1.08006e-19 -1.64538)
(-9.08913 -4.31353e-21 -2.04271)
(-9.13082 -1.5648e-20 -2.36936)
(-9.18007 0 -2.61289)
(-9.2161 8.85056e-20 -2.75835)
(1.58121 0 3.61199)
(1.46489 0 3.9215)
(0.776364 -2.30868e-18 4.12777)
(0.283925 -1.71808e-17 4.25803)
(-0.195854 3.20787e-17 4.35869)
(-0.649886 -1.58335e-17 4.43005)
(-1.09421 0 4.47325)
(-1.53692 7.79769e-18 4.48768)
(-1.98276 -4.54736e-18 4.47115)
(-2.43383 0 4.42115)
(-2.89047 0 4.33513)
(-3.35153 0 4.20999)
(-3.81495 1.4135e-18 4.04288)
(-4.27772 -1.38762e-18 3.83129)
(-4.73635 -1.30826e-18 3.5733)
(-5.18686 7.52736e-19 3.26766)
(-5.62507 2.67182e-19 2.91415)
(-6.04659 -8.27293e-20 2.51356)
(-6.44659 -6.4033e-20 2.06805)
(-6.8191 3.86116e-20 1.58133)
(-7.1564 -4.6424e-19 1.05908)
(-7.45018 -2.24415e-20 0.510807)
(-7.69534 1.45115e-19 -0.0461945)
(-7.89617 -6.68804e-19 -0.587945)
(-8.04697 -5.09179e-19 -1.09791)
(-8.16933 -4.34828e-19 -1.56816)
(-8.26636 4.13732e-19 -1.97902)
(-8.35555 3.03155e-19 -2.31163)
(-8.45097 -1.94087e-19 -2.55039)
(-8.51578 -8.94008e-20 -2.68423)
(1.90456 -2.30967e-17 4.14606)
(1.88975 1.9108e-17 4.37968)
(1.22471 0 4.54232)
(0.835184 1.11097e-18 4.64538)
(0.439592 1.07664e-18 4.73025)
(0.0677626 0 4.79344)
(-0.301852 0 4.83335)
(-0.676836 3.02548e-18 4.84718)
(-1.06113 -6.10477e-18 4.83089)
(-1.45601 1.16083e-18 4.78106)
(-1.86108 -4.41846e-18 4.69453)
(-2.2752 2.01195e-18 4.56784)
(-2.69642 1.0754e-19 4.39741)
(-3.12194 2.98574e-19 4.18063)
(-3.54877 1.98256e-18 3.91539)
(-3.97356 -8.75365e-19 3.60031)
(-4.39292 5.31018e-20 3.23517)
(-4.80346 1.85751e-20 2.82054)
(-5.20127 0 2.35807)
(-5.5811 0 1.85087)
(-5.93538 -1.52737e-19 1.30405)
(-6.25468 1.56462e-19 0.727267)
(-6.53354 -9.78161e-20 0.139423)
(-6.77998 9.12735e-19 -0.433854)
(-6.96723 -8.95956e-20 -0.967428)
(-7.13517 3.40855e-20 -1.45502)
(-7.28077 -4.95623e-19 -1.87937)
(-7.41888 -2.93944e-19 -2.22011)
(-7.5615 2.01259e-19 -2.45666)
(-7.65753 -1.24391e-19 -2.57901)
(2.21246 1.67598e-18 4.6486)
(2.33673 -7.4015e-20 4.77594)
(1.6991 0 4.91298)
(1.44928 1.14786e-18 4.98007)
(1.14286 2.21416e-18 5.05277)
(0.860824 0 5.11157)
(0.56949 1.86725e-18 5.15258)
(0.264461 1.71512e-18 5.16966)
(-0.0567222 0 5.15694)
(-0.393791 4.0411e-20 5.11022)
(-0.745151 0 5.02606)
(-1.10973 -1.71684e-18 4.90119)
(-1.48563 -2.72678e-18 4.73055)
(-1.86999 7.0969e-19 4.51205)
(-2.26042 -1.30727e-18 4.2434)
(-2.65404 4.89127e-19 3.92305)
(-3.04827 2.84688e-19 3.55115)
(-3.44101 0 3.12798)
(-3.82958 -3.4145e-19 2.6546)
(-4.20978 -1.51e-19 2.1334)
(-4.5746 1.54027e-19 1.56904)
(-4.91367 1.106e-19 0.970604)
(-5.22144 -1.14126e-19 0.356258)
(-5.50903 -9.04795e-19 -0.249269)
(-5.72534 -1.61537e-19 -0.803986)
(-5.93733 8.07825e-19 -1.30409)
(-6.13472 0 -1.74055)
(-6.32658 0 -2.09195)
(-6.52208 -2.73184e-19 -2.33071)
(-6.65666 1.29833e-19 -2.44213)
(2.45599 -3.41146e-19 5.10699)
(2.75854 -2.3217e-18 5.10531)
(2.21783 7.03671e-18 5.21091)
(2.09811 -1.38609e-17 5.24274)
(1.90198 -1.05528e-17 5.30807)
(1.71483 -1.5461e-18 5.37067)
(1.50593 4.62192e-19 5.42064)
(1.27365 5.44632e-18 5.44808)
(1.01823 4.57923e-18 5.44559)
(0.739032 -2.79778e-19 5.40733)
(0.439691 -1.33236e-18 5.32831)
(0.125644 0 5.20657)
(-0.202926 1.57431e-18 5.03813)
(-0.542702 1.20814e-18 4.82028)
(-0.892504 8.56396e-19 4.55081)
(-1.24956 -5.20847e-19 4.22915)
(-1.6118 1.22539e-19 3.85558)
(-1.97879 -7.33316e-20 3.42946)
(-2.34979 4.34636e-19 2.95104)
(-2.72221 7.03082e-19 2.42163)
(-3.09023 9.13025e-19 1.84591)
(-3.44077 1.07721e-18 1.23307)
(-3.7644 1.4239e-19 0.600106)
(-4.06497 9.79475e-19 -0.0298754)
(-4.32764 -1.02435e-18 -0.6087)
(-4.57762 -8.92334e-19 -1.11408)
(-4.82835 0 -1.55816)
(-5.07902 -5.05361e-19 -1.92098)
(-5.33662 -1.92509e-20 -2.16783)
(-5.52539 0 -2.27064)
(2.62103 -2.34381e-17 5.43104)
(3.05022 -5.50508e-18 5.37068)
(2.76714 1.1099e-17 5.41421)
(2.76305 1.0322e-17 5.41807)
(2.6965 -8.01608e-18 5.4813)
(2.60574 1.82972e-18 5.55893)
(2.47912 -3.33936e-18 5.62728)
(2.31919 1.36925e-18 5.67223)
(2.1295 -1.48002e-18 5.68531)
(1.91295 2.28948e-18 5.66056)
(1.67239 -1.37717e-18 5.59284)
(1.41256 -1.93739e-18 5.47884)
(1.13572 6.39003e-19 5.31741)
(0.8448 -6.46965e-19 5.10564)
(0.54174 3.0273e-19 4.84204)
(0.223169 -3.06108e-19 4.52032)
(-0.103071 -1.08759e-19 4.14559)
(-0.436415 2.5122e-19 3.71881)
(-0.778867 0 3.23924)
(-1.12947 -7.62739e-19 2.70634)
(-1.48563 -8.53652e-19 2.12318)
(-1.83332 -1.31848e-18 1.49461)
(-2.16578 1.38671e-18 0.836574)
(-2.48396 0 0.192902)
(-2.79337 1.30731e-18 -0.388582)
(-3.06834 -6.94766e-20 -0.891205)
(-3.36676 -8.0717e-19 -1.3323)
(-3.67454 -5.01843e-20 -1.70012)
(-4.00066 -1.14707e-20 -1.95852)
(-4.27288 -2.36551e-21 -2.05903)
(9.98753 4.29859e-18 0.104488)
(9.98054 2.5669e-19 0.207682)
(9.96256 8.3079e-23 0.311239)
(9.93302 -5.31789e-19 0.417068)
(9.8954 3.25112e-18 0.526783)
(9.85131 -2.19294e-18 0.64179)
(9.80088 -3.36289e-18 0.763343)
(9.74424 3.41482e-18 0.892639)
(9.68162 -1.15221e-18 1.03092)
(9.61304 2.34266e-18 1.1795)
(9.53905 -2.36664e-18 1.33969)
(9.46046 -3.60567e-18 1.51278)
(9.3775 1.19393e-18 1.70019)
(9.29053 -2.47532e-20 1.90349)
(9.20049 3.71177e-18 2.12437)
(9.10789 6.23387e-18 2.36463)
(9.0137 -3.7481e-18 2.62649)
(8.91932 1.26343e-18 2.91243)
(8.82574 -1.13053e-17 3.22496)
(8.73487 1.27572e-18 3.56732)
(8.64866 9.9296e-18 3.94325)
(8.56954 -9.74016e-18 4.35707)
(8.50106 8.82435e-20 4.8142)
(8.44682 9.34355e-18 5.32082)
(8.41426 -8.82771e-18 5.88472)
(8.40542 8.57259e-18 6.51702)
(8.46495 7.7352e-18 7.2229)
(8.50579 -2.66139e-20 8.05255)
(9.18255 2.626e-18 8.91884)
(9.80654 -8.49305e-20 11.2578)
(9.98787 -3.94432e-18 0.108538)
(9.98212 4.99262e-19 0.215794)
(9.96627 -5.08028e-19 0.323437)
(9.9396 0 0.433393)
(9.90572 2.09652e-18 0.547292)
(9.86628 8.16648e-21 0.666593)
(9.82139 2.16222e-18 0.792588)
(9.77119 2.20365e-18 0.926457)
(9.71579 -1.11749e-18 1.06945)
(9.65542 -1.13575e-18 1.22286)
(9.59088 5.72356e-18 1.38793)
(9.52289 -3.46623e-18 1.56597)
(9.45158 -1.17204e-18 1.75834)
(9.37761 -5.89992e-18 1.96657)
(9.30222 4.75032e-18 2.19237)
(9.22594 -1.19798e-18 2.43745)
(9.14971 9.56538e-18 2.70378)
(9.07541 -9.56278e-18 2.99378)
(9.00445 0 3.30986)
(8.93845 0 3.65473)
(8.88016 0 4.03177)
(8.83277 2.27539e-18 4.44475)
(8.80048 -4.43363e-18 4.898)
(8.78838 0 5.39613)
(8.8053 0 5.94401)
(8.85767 7.68907e-18 6.54668)
(8.98846 -1.1034e-17 7.20203)
(9.13118 -3.31362e-18 7.91416)
(9.59324 -6.12081e-18 8.60234)
(10.0675 -2.79547e-18 9.51545)
(9.98822 2.39123e-19 0.112254)
(9.98381 3.63298e-18 0.22326)
(9.97021 0 0.334683)
(9.94658 -1.00342e-18 0.448418)
(9.91663 -2.04284e-18 0.566081)
(9.88201 3.10714e-18 0.689223)
(9.84286 -2.10378e-18 0.819197)
(9.79929 -7.3996e-21 0.957158)
(9.75128 3.46772e-21 1.10429)
(9.69944 -1.0939e-18 1.26183)
(9.64463 1.10629e-18 1.431)
(9.58742 -3.33733e-18 1.61311)
(9.5282 0 1.8095)
(9.46765 0 2.02153)
(9.40698 -3.40744e-18 2.25086)
(9.34712 4.55917e-18 2.49915)
(9.28916 9.12313e-18 2.76811)
(9.23507 -6.84616e-18 3.05989)
(9.18649 6.78801e-18 3.37672)
(9.14545 -4.01666e-20 3.72089)
(9.11486 -8.85125e-18 4.09492)
(9.09825 -4.32272e-18 4.50164)
(9.10034 4.24455e-18 4.94401)
(9.12657 0 5.42427)
(9.18514 7.64655e-18 5.94354)
(9.2813 -7.43638e-18 6.50011)
(9.44118 5.16706e-18 7.08397)
(9.61094 1.59478e-18 7.66973)
(9.86707 0 8.22491)
(10.2758 2.80565e-18 8.90018)
(9.98858 2.32391e-19 0.115596)
(9.98552 -4.48562e-18 0.229987)