/*--------------------------------*- C++ -*----------------------------------*\
| =========                 |                                                 |
| \\      /  F ield         | OpenFOAM: The Open Source CFD Toolbox           |
|  \\    /   O peration     | Version:  2006                                  |
|   \\  /    A nd           | Website:  www.openfoam.com                      |
|    \\/     M anipulation  |                                                 |
\*---------------------------------------------------------------------------*/
FoamFile
{
    version     2.0;
    format      ascii;
    class       surfaceScalarField;
    location    "0.6";
    object      meshPhi;
}
// * * * * * * * * * * * * * * * * * * * * * * * * * * * * * * * * * * * * * //

dimensions      [0 3 -1 0 0 0 0];
oriented        oriented;


internalField   nonuniform List<scalar> 
5457
(
0.000131045
2.80851e-07
0.000252924
8.41798e-07
0.000370287
1.45752e-06
0.000486898
2.20743e-06
0.00060494
3.16309e-06
0.000725101
4.39156e-06
0.000846747
5.95237e-06
0.000968118
7.89482e-06
0.00108636
1.02581e-05
0.00119752
1.30657e-05
0.00129669
1.63133e-05
0.00137836
1.99563e-05
0.00143676
2.39055e-05
0.00146647
2.803e-05
0.00146304
3.21571e-05
0.00142377
3.60753e-05
0.00134821
3.95399e-05
0.00123854
4.22685e-05
0.00109975
4.39404e-05
0.000939274
4.42012e-05
0.000766387
4.26723e-05
0.000591332
3.90576e-05
0.000424334
3.32521e-05
0.00027472
2.5487e-05
0.000150274
1.64985e-05
5.66243e-05
7.63965e-06
-4.07783e-06
6.89462e-07
-3.53038e-05
-3.08258e-06
-4.73028e-05
-4.6733e-06
-1.40078e-05
0.000130444
5.54192e-07
0.000251923
1.66229e-06
0.000369014
2.88085e-06
0.000485465
4.36593e-06
0.000603544
6.25933e-06
0.000723971
8.69635e-06
0.000846104
1.17966e-05
0.000968243
1.56575e-05
0.00108764
2.03581e-05
0.00120041
2.59495e-05
0.00130167
3.24278e-05
0.00138589
3.97079e-05
0.00144734
4.76128e-05
0.00148048
5.58869e-05
0.00148078
6.41938e-05
0.00144538
7.21205e-05
0.00137361
7.91932e-05
0.00126734
8.48623e-05
0.00113129
8.84991e-05
0.000972682
8.94066e-05
0.000800504
8.6859e-05
0.000624716
8.02394e-05
0.000455312
6.92238e-05
0.00030157
5.40829e-05
0.000171497
3.60434e-05
7.14477e-05
1.75955e-05
4.6353e-06
2.39525e-06
-3.21993e-05
-5.9106e-06
-5.17167e-05
-6.6449e-06
7.93567e-06
0.000130144
8.18898e-07
0.000251516
2.45837e-06
0.000368573
4.26512e-06
0.000485091
6.46696e-06
0.000603558
9.2736e-06
0.000724732
1.2892e-05
0.000847894
1.75026e-05
0.000971447
2.32463e-05
0.0010929
3.02415e-05
0.00120847
3.85743e-05
0.0013133
4.82407e-05
0.00140191
5.91135e-05
0.0014686
7.09474e-05
0.00150781
8.33801e-05
0.00151483
9.5921e-05
0.00148665
0.000107976
0.00142225
0.000118872
0.00132298
0.00012783
0.00119298
0.000133948
0.00103897
0.000136237
0.000869397
0.000133694
0.000693606
0.000125398
0.000521122
0.000110717
0.000361062
8.9726e-05
0.000221724
6.36957e-05
0.000110529
3.54928e-05
3.28962e-05
9.60015e-06
-1.10637e-05
-9.02887e-06
-3.23778e-05
-1.8421e-05
-2.62672e-05
0.000130228
1.07428e-06
0.000251873
3.22815e-06
0.000369171
5.60806e-06
0.000485946
8.50513e-06
0.000605168
1.21928e-05
0.000727636
1.69581e-05
0.000852352
2.30393e-05
0.000977862
3.06063e-05
0.00110217
3.98213e-05
0.00122169
5.08211e-05
0.00133145
6.35965e-05
0.00142612
7.79786e-05
0.00150011
9.3677e-05
0.00154783
0.000110241
0.00156446
0.00012704
0.00154686
0.000143334
0.00149357
0.00015829
0.00140521
0.000170946
0.00128515
0.000180222
0.00113927
0.000184933
0.000975107
0.000183857
0.000801266
0.000175833
0.000626694
0.000159976
0.000460221
0.000136077
0.000310422
0.000105112
0.000185636
6.96218e-05
9.35215e-05
3.40326e-05
3.92911e-05
4.39191e-06
1.84131e-05
-1.44204e-05
-3.18839e-05
0.000130424
1.31775e-06
0.000252614
3.96455e-06
0.00037027
6.8856e-06
0.000487216
1.0434e-05
0.000607459
1.49676e-05
0.000731792
2.0844e-05
0.00085849
2.83426e-05
0.000986334
3.76489e-05
0.00111431
4.8974e-05
0.00123899
6.25378e-05
0.00135514
7.83356e-05
0.00145763
9.61512e-05
0.00154105
0.000115642
0.00159979
0.000136266
0.001629
0.000157292
0.00162563
0.000177912
0.00158758
0.000197197
0.00151444
0.000214033
0.00140879
0.000227233
0.00127552
0.000235544
0.00112088
0.000237633
0.000952523
0.000232242
0.000778783
0.00021838
0.000608313
0.000195618
0.000450305
0.000164486
0.000314114
0.000126649
0.000209324
8.52545e-05
0.000145663
4.59275e-05
0.000128681
1.74542e-05
1.68481e-05
0.00013065
1.54573e-06
0.000253473
4.65252e-06
0.000371596
8.06935e-06
0.00048905
1.2228e-05
0.00061059
1.75766e-05
0.000737197
2.45108e-05
0.000866148
3.33216e-05
0.000996354
4.42294e-05
0.0011288
5.75599e-05
0.00125999
7.3607e-05
0.00138397
9.23375e-05
0.00149589
0.000113487
0.0015906
0.000136647
0.00166263
0.0001612
0.00170735
0.000186377
0.00172201
0.000211389
0.00170366
0.000235248
0.00165041
0.000256679
0.00156425
0.000274463
0.00144939
0.000287467
0.00131058
0.000294462
0.00115393
0.000294265
0.000986684
0.000285936
0.000818208
0.000269119
0.000659123
0.000244159
0.000519582
0.000211722
0.00041014
0.000172681
0.000341555
0.000129184
0.000334445
8.93679e-05
3.64311e-05
0.000130759
1.75427e-06
0.000254154
5.28727e-06
0.000372867
9.17641e-06
0.000491657
1.39184e-05
0.000614703
2.00203e-05
0.00074331
2.79063e-05
0.000874668
3.7885e-05
0.00100798
5.02805e-05
0.00114571
6.55414e-05
0.00128435
8.39474e-05
0.00141752
0.000105471
0.00154019
0.000129816
0.00164775
0.000156473
0.00173521
0.000184803
0.00179812
0.000214021
0.00183461
0.000243407
0.00184062
0.000271945
0.00181195
0.000298132
0.00175065
0.000320838
0.00166108
0.000339341
0.00154664
0.000352711
0.001411
0.000359939
0.00125972
0.000360438
0.00110412
0.000354573
0.000957387
0.000343203
0.000830539
0.000327018
0.000733973
0.000306895
0.000676181
0.000285255
0.000694903
0.000269982
0.000230692
0.000131163
1.95578e-06
0.000254996
5.88191e-06
0.000374241
1.01984e-05
0.000494621
1.5477e-05
0.000619358
2.22654e-05
0.000749476
3.10122e-05
0.00088347
4.20771e-05
0.00102151
5.58839e-05
0.00116515
7.29184e-05
0.0013117
9.34811e-05
0.00145516
0.000117575
0.00158901
0.000144787
0.0017102
0.00017459
0.00181447
0.00020639
0.00189816
0.00023946
0.00196136
0.000273325
0.00199733
0.000306765
0.00199769
0.000337684
0.00196622
0.000365218
0.00190927
0.000389495
0.0018287
0.000409991
0.00172613
0.000425971
0.00160607
0.00043769
0.00148035
0.00044666
0.00136641
0.000454728
0.00128078
0.000463547
0.00123651
0.000475913
0.00124653
0.000498925
0.00136201
0.000543757
0.000591054
0.000132186
2.14097e-06
0.00025598
6.40967e-06
0.000375956
1.11069e-05
0.000497857
1.6891e-05
0.000624361
2.43138e-05
0.000756
3.38307e-05
0.000892647
4.58674e-05
0.00103597
6.09418e-05
0.00118585
7.9547e-05
0.00134026
0.000101971
0.00149366
0.000128188
0.00163894
0.000157822
0.00177496
0.000190506
0.00189797
0.000225705
0.00200638
0.000262768
0.00210115
0.000301241
0.00217045
0.000339317
0.00220407
0.00037437
0.00220871
0.00040619
0.00219187
0.000435977
0.00215546
0.000463605
0.00210053
0.000488704
0.00203115
0.000512407
0.0019572
0.000537388
0.00190325
0.000566952
0.00189682
0.00060321
0.00195846
0.000647886
0.00211813
0.000706955
0.00243791
0.000787013
0.000854635
0.000132965
2.29008e-06
0.000256867
6.86601e-06
0.00037853
1.19442e-05
0.000501838
1.81903e-05
0.000629216
2.6118e-05
0.0007623
3.62455e-05
0.000902202
4.9144e-05
0.0010508
6.53843e-05
0.00120689
8.53816e-05
0.00136833
0.000109376
0.00153081
0.000137404
0.00168923
0.00016929
0.00184264
0.000204762
0.00198783
0.000243287
0.00212404
0.000284124
0.00225028
0.000326425
0.00235315
0.000368386
0.00242578
0.000407547
0.00247464
0.000443183
0.00250532
0.000477053
0.0025244
0.000510657
0.00253317
0.000543996
0.00253293
0.000578287
0.00253603
0.00061766
0.00257473
0.000667355
0.0026844
0.000728956
0.00289432
0.00079939
0.0032533
0.000875418
0.00382151
0.000948995
0.000956708
0.000133029
2.41474e-06
0.000258214
7.28262e-06
0.000381924
1.27116e-05
0.000505689
1.9305e-05
0.000632936
2.76056e-05
0.000768102
3.82913e-05
0.000912706
5.20272e-05
0.00106662
6.93019e-05
0.00122848
9.04715e-05
0.00139681
0.000115826
0.00156895
0.000145504
0.00174182
0.00017942
0.00191399
0.000217316
0.00208294
0.000258653
0.00224654
0.000302528
0.00240191
0.000347781
0.00254081
0.000392994
0.00265958
0.000436326
0.00275936
0.000475728
0.00284262
0.000511947
0.00292785
0.000548775
0.00301715
0.000587741
0.00310419
0.000629517
0.00321339
0.000679193
0.00337734
0.00074399
0.00363235
0.000825248
0.00401527
0.00091406
0.00457612
0.000994467
0.00533035
0.0010435
0.00103608
0.000133137
2.53407e-06
0.000260112
7.65936e-06
0.000384968
1.33553e-05
0.000508446
2.02142e-05
0.000636229
2.88703e-05
0.000774824
4.01061e-05
0.000924392
5.45678e-05
0.00108326
7.26864e-05
0.00125077
9.48282e-05
0.00142622
0.0001213
0.00160829
0.000152285
0.00179482
0.000187756
0.00198495
0.000227523
0.00217726
0.000271124
0.00236803
0.000317538
0.00255388
0.000365367
0.00273214
0.00041318
0.0029017
0.000459593
0.00305461
0.000501961
0.00319338
0.00053945
0.00335565
0.000576906
0.00354042
0.000617694
0.00373369
0.000662533
0.00397068
0.000716882
0.00428246
0.000788941
0.00470866
0.000881237
0.00527832
0.000982123
0.00601231
0.00106427
0.00684196
0.00109304
0.00101629
0.000133919
2.64856e-06
0.000261732
7.97884e-06
0.000387191
1.38791e-05
0.000511248
2.10014e-05
0.000640576
3.00038e-05
0.00078242
4.16789e-05
0.000936392
5.67055e-05
0.00110043
7.55373e-05
0.00127351
9.84793e-05
0.00145551
0.000125796
0.00164643
0.000157719
0.00184453
0.000194244
0.00205123
0.000235287
0.00226719
0.000280611
0.00248631
0.000329075
0.00270474
0.000378926
0.00292335
0.00042864
0.0031443
0.000476892
0.00334933
0.00052072
0.0035488
0.000558489
0.0037975
0.000594722
0.00408397
0.00063321
0.00439199
0.000675257
0.00475979
0.000727648
0.00523285
0.000800251
0.00584914
0.000898318
0.00660342
0.00101477
0.00747561
0.00112386
0.00832426
0.00118499
0.00112386
0.000135294
2.75492e-06
0.000262855
8.256e-06
0.000389074
1.43243e-05
0.000515068
2.16963e-05
0.000646169
3.1002e-05
0.000789991
4.29979e-05
0.000947444
5.83987e-05
0.00111654
7.77163e-05
0.00129533
0.000101267
0.00148322
0.000129225
0.00168127
0.000161749
0.00188984
0.000198964
0.00211359
0.000240999
0.00235304
0.000287562
0.00259961
0.000337295
0.00285043
0.000388345
0.00310836
0.000439078
0.00337698
0.000487865
0.00363373
0.000531896
0.00390067
0.000569206
0.00423686
0.000602581
0.00462023
0.000635254
0.00503634
0.000669233
0.00552955
0.000712828
0.00616243
0.000779214
0.00695648
0.000879061
0.00787985
0.0010158
0.00890374
0.00117725
0.00986369
0.00131876
0.00138119
0.000136563
2.8392e-06
0.000264209
8.50225e-06
0.000391168
1.47326e-05
0.000519026
2.22898e-05
0.000652228
3.18321e-05
0.000798125
4.41159e-05
0.000957256
5.97585e-05
0.00112909
7.92474e-05
0.00131351
0.000103081
0.00150788
0.000131471
0.00171333
0.000164478
0.00193438
0.000202323
0.00217601
0.00024509
0.00243548
0.000292189
0.00270632
0.000342309
0.00298791
0.000393726
0.00328273
0.000444615
0.00359052
0.000492742
0.0038961
0.000535515
0.00423593
0.000571552
0.00465287
0.000601421
0.00511896
0.000626383
0.00562909
0.000649214
0.00623306
0.000678886
0.00699113
0.000730523
0.00791096
0.000820416
0.00896456
0.000960405
0.0101259
0.00114526
0.0111977
0.00131637
0.0013186
-6.09189e-05
2.75023e-06
1.74661e-05
-3.80986e-05
0.000207231
-6.88916e-05
0.00051723
-9.7131e-05
0.0009155
-0.000118376
0.00135006
-0.000131398
0.00177173
-0.000136827
0.00214548
-0.000136061
0.00245151
-0.000130589
0.00268171
-0.00012182
0.0028361
-0.000111036
0.0029188
-9.93419e-05
0.00293605
-8.74252e-05
0.00289651
-7.57971e-05
0.00280845
-6.48599e-05
0.00267961
-5.47157e-05
0.00251791
-4.5455e-05
0.00233234
-3.73444e-05
0.00213232
-3.05803e-05
0.00192417
-2.49215e-05
0.00171219
-2.0065e-05
0.00150029
-1.59166e-05
0.00129246
-1.24302e-05
0.00109175
-9.55815e-06
0.000899871
-7.2152e-06
0.000716833
-5.31848e-06
0.000540297
-3.79201e-06
0.000366149
-2.54896e-06
0.0001884
-1.48663e-06
-4.96758e-07
-5.81852e-05
-9.42393e-05
4.64538e-05
-0.000115802
0.000270581
-0.000161829
0.000612588
-0.000209658
0.00103259
-0.000246732
0.0014775
-0.000268694
0.00189959
-0.00027646
0.00226623
-0.000272696
0.00256049
-0.000260327
0.0027767
-0.000241949
0.002917
-0.000219939
0.00298653
-0.000196403
0.00299117
-0.000172643
0.00294071
-0.000149654
0.00284357
-0.000128129
0.00270691
-0.000108103
0.00253806
-8.98738e-05
0.00234536
-7.38834e-05
0.00214035
-6.03211e-05
0.00192952
-4.90191e-05
0.00171568
-3.94746e-05
0.00150212
-3.1324e-05
0.00129298
-2.44612e-05
0.00109142
-1.88094e-05
0.000899027
-1.42035e-05
0.000715695
-1.04841e-05
0.00053915
-7.48308e-06
0.000365394
-5.02999e-06
0.00018817
-2.93432e-06
-9.81151e-07
-1.30594e-05
-0.000174108
0.000137008
-0.000221285
0.00042515
-0.000284109
0.000824775
-0.000346038
0.00128227
-0.000391374
0.00174429
-0.00041561
0.00216499
-0.000420768
0.00251522
-0.000410384
0.00278453
-0.000388497
0.00297238
-0.000358971
0.00308483
-0.000325131
0.0031291
-0.000289866
0.00310857
-0.000254604
0.00303526
-0.000220202
0.00292075
-0.000188153
0.00276876
-0.000158896
0.00258586
-0.00013247
0.0023803
-0.000109206
0.00216474
-8.90723e-05
0.00194749
-7.21202e-05
0.00172995
-5.80287e-05
0.001513
-4.61479e-05
0.00130071
-3.61412e-05
0.00109673
-2.78578e-05
0.000902292
-2.10776e-05
0.000717442
-1.55628e-05
0.000539919
-1.10996e-05
0.000365908
-7.45622e-06
0.000188694
-4.34955e-06
-1.45484e-06
9.0513e-05
-0.000284632
0.000319583
-0.000355425
0.000701357
-0.000437062
0.00117537
-0.000507778
0.00167667
-0.000553008
0.00215676
-0.000571991
0.00256861
-0.000568911
0.00288677
-0.000547491
0.00311552
-0.000512932
0.00326018
-0.00047059
0.00333236
-0.000424456
0.00333983
-0.000377683
0.00328352
-0.000331443
0.00317622
-0.000286236
0.00303444
-0.00024394
0.00286006
-0.00020597
0.00265739
-0.000172107
0.00243652
-0.000142203
0.00220704
-0.000116251
0.00197853
-9.41317e-05
0.00175396
-7.56546e-05
0.00153155
-6.02631e-05
0.00131424
-4.73538e-05
0.00110664
-3.66054e-05
0.00090977
-2.77767e-05
0.000722537
-2.05499e-05
0.000542733
-1.46597e-05
0.000367776
-9.83727e-06
0.000190234
-5.73584e-06
-1.91914e-06
0.000273452
-0.000443133
0.000623683
-0.00052591
0.00112829
-0.000621755
0.00168524
-0.000692688
0.00222421
-0.000727805
0.00270788
-0.000732176
0.00309452
-0.00071439
0.00336487
-0.000678969
0.00353779
-0.000630304
0.00362409
-0.000574105
0.0036447
-0.000515458
0.00360477
-0.000457755
0.00350413
-0.000401388
0.00335665
-0.000346762
0.00317777
-0.000295636
0.00297388
-0.000249535
0.00274681
-0.00020859
0.00250743
-0.000172555
0.00226294
-0.000141464
0.00202031
-0.000114894
0.00178421
-9.24351e-05
0.00155357
-7.36479e-05
0.00132983
-5.79107e-05
0.00111774
-4.47888e-05
0.000918234
-3.3992e-05
0.000728569
-2.51828e-05
0.000546485
-1.80063e-05
0.000370554
-1.2102e-05
0.000192968
-7.06419e-06
-2.36581e-06
0.000591392
-0.000617339
0.00110325
-0.000743492
0.00174593
-0.000840461
0.00237721
-0.000895684
0.00293033
-0.000908431
0.0033813
-0.000888989
0.00371687
-0.000849824
0.00392965
-0.000798038
0.00403433
-0.00073586
0.0040482
-0.000666678
0.00400448
-0.000596078
0.00391113
-0.000528569
0.00376046
-0.000463878
0.0035678
-0.000401178
0.00334761
-0.000342482
0.00310822
-0.000289335
0.0028517
-0.000241887
0.00258831
-0.000200145
0.00232652
-0.00016422
0.00206936
-0.00013368
0.00182028
-0.000107822
0.00157985
-8.60121e-05
0.00134917
-6.76665e-05
0.00113161
-5.23695e-05
0.000927141
-3.97535e-05
0.000733981
-2.94455e-05
0.000550343
-2.10711e-05
0.000373713
-1.41948e-05
0.000195723
-8.30563e-06
-2.78516e-06
0.00115209
-0.000920011
0.00184146
-0.00102871
0.00259841
-0.0010882
0.00326473
-0.00110276
0.00379088
-0.00108068
0.00417118
-0.0010327
0.00442571
-0.000970415
0.00456164
-0.000901052
0.00458524
-0.000825837
0.00451609
-0.000745721
0.00439527
-0.000665028
0.00424436
-0.000589108
0.0040426
-0.000517783
0.00379917
-0.000448589
0.00353591
-0.000383443
0.00325843
-0.000324433
0.00296954
-0.00027161
0.00267827
-0.000224945
0.00239446
-0.000184534
0.00212067
-0.000150173
0.00185964
-0.000121251
0.00161033
-9.6951e-05
0.00137196
-7.64396e-05
0.00114803
-5.92457e-05
0.000937849
-4.505e-05
0.00074018
-3.34134e-05
0.000554276
-2.39235e-05
0.000376732
-1.61341e-05
0.000197238
-9.4562e-06
-3.17475e-06
0.00209559
-0.00129184
0.00290833
-0.00132699
0.00370172
-0.00132126
0.00433338
-0.00128226
0.00477849
-0.001222
0.00505892
-0.0011474
0.00520682
-0.0010665
0.00523797
-0.000983104
0.00516738
-0.00089719
0.00500936
-0.000808937
0.0048036
-0.000721059
0.00458882
-0.000638631
0.00433651
-0.000561983
0.00404126
-0.000487999
0.00373341
-0.000418041
0.00341772
-0.00035444
0.0030972
-0.000297419
0.00277854
-0.000246947
0.00246987
-0.000202943
0.0021758
-0.000165212
0.00190106
-0.000133366
0.00164239
-0.000106711
0.00139541
-8.42824e-05
0.00116439
-6.54303e-05
0.000949529
-4.98243e-05
0.000748206
-3.70242e-05
0.000559505
-2.65564e-05
0.00038029
-1.79333e-05
0.00019861
-1.05214e-05
-3.53473e-06
0.00345387
-0.00151979
0.00428136
-0.0015276
0.00500345
-0.00147292
0.00552288
-0.00139631
0.00583256
-0.00131069
0.0059792
-0.00121921
0.00600554
-0.00112797
0.00592416
-0.00103798
0.00575391
-0.000946836
0.00550895
-0.000854745
0.00521705
-0.00076336
0.00492897
-0.000676354
0.00462685
-0.000595702
0.00428578
-0.000519059
0.00393339
-0.000446167
0.00357988
-0.0003792
0.00322829
-0.000319002
0.00288392
-0.000265601
0.00255235
-0.000218923
0.00223808
-0.000178673
0.0019462
-0.0001444
0.00167469
-0.00011553
0.0014189
-9.12858e-05
0.00118106
-7.09752e-05
0.000961409
-5.41243e-05
0.000757249
-4.02772e-05
0.000566536
-2.89494e-05
0.000384724
-1.95871e-05
0.000199918
-1.14998e-05
-3.86266e-06
0.00505674
-0.00158283
0.00580698
-0.0015781
0.00637768
-0.0015117
0.00673512
-0.00142994
0.00688019
-0.00134119
0.00686634
-0.00124724
0.00676268
-0.00115404
0.00658045
-0.00106353
0.00631788
-0.000973161
0.00599537
-0.000882249
0.0056275
-0.000791543
0.00525847
-0.000702962
0.00489909
-0.000619389
0.00452147
-0.000541226
0.00413041
-0.000467457
0.00374031
-0.000398764
0.00335723
-0.000336397
0.00298706
-0.000280805
0.00263452
-0.000232048
0.00230233
-0.000189879
0.00199348
-0.000153791
0.00170761
-0.000123184
0.00144263
-9.73953e-05
0.00119839
-7.58136e-05
0.000973822
-5.79056e-05
0.000767225
-4.31774e-05
0.000574787
-3.11106e-05
0.000389196
-2.10825e-05
0.000200259
-1.23775e-05
-4.15551e-06
0.00666982
-0.00148553
0.00729498
-0.00150991
0.00769484
-0.00146924
0.0078803
-0.00140709
0.00786413
-0.00132921
0.00769657
-0.00124187
0.00746225
-0.0011522
0.0071833
-0.00106476
0.00683924
-0.000978907
0.00644814
-0.000892471
0.00602096
-0.000805389
0.00558055
-0.000718836
0.00515189
-0.000634759
0.00473309
-0.000555307
0.00431369
-0.000481394
0.00389444
-0.000412877
0.00348133
-0.000349755
0.00308491
-0.000292692
0.00271185
-0.000242426
0.00236289
-0.000198868
0.00203924
-0.000161439
0.00174024
-0.000129525
0.0014658
-0.00010253
0.00121565
-7.99383e-05
0.000987247
-6.12048e-05
0.000778264
-4.57577e-05
0.000582737
-3.30281e-05
0.000392583
-2.23896e-05
0.000200401
-1.3142e-05
-4.41248e-06
0.00816163
-0.00133814
0.00865799
-0.00144208
0.00889745
-0.00142744
0.00891315
-0.00137564
0.00874449
-0.00130131
0.00844465
-0.00121708
0.00809234
-0.00113135
0.00772066
-0.00104919
0.00730399
-0.000969426
0.00685
-0.000888454
0.00637377
-0.000806127
0.00588387
-0.000723671
0.00539503
-0.000642165
0.00492433
-0.000563446
0.00447447
-0.000489655
0.00403274
-0.000421507
0.00359493
-0.000358496
0.00317516
-0.000301032
0.00278328
-0.000250086
0.00241881
-0.000205723
0.00208203
-0.000167427
0.00177178
-0.000134632
0.00148859
-0.000106788
0.00123296
-8.34248e-05
0.00100116
-6.40149e-05
0.000788747
-4.79508e-05
0.000588942
-3.46461e-05
0.000395081
-2.34996e-05
0.000201875
-1.38049e-05
-4.63856e-06
0.00958176
-0.00141792
0.00993612
-0.00149332
0.00998061
-0.00144192
0.0098107
-0.00136174
0.00949044
-0.00127261
0.00907322
-0.00118358
0.0086202
-0.00109921
0.00816877
-0.00102129
0.0076929
-0.00094695
0.00718731
-0.000871925
0.00667021
-0.000795451
0.00614573
-0.00071821
0.00562016
-0.000641003
0.00510707
-0.000565357
0.00461928
-0.000493085
0.0041507
-0.000425444
0.00369314
-0.000362915
0.00325584
-0.000305969
0.00284785
-0.000255157
0.00246967
-0.000210558
0.0021215
-0.000171849
0.00180231
-0.000138565
0.00151192
-0.000110207
0.00125036
-8.62939e-05
0.00101392
-6.63207e-05
0.000797348
-4.97384e-05
0.000594037
-3.59813e-05
0.000398132
-2.44419e-05
0.000204419
-1.4382e-05
-4.83729e-06
0.0110902
-0.00167187
0.0111573
-0.00159194
0.0109157
-0.00145911
0.0105369
-0.00133649
0.0100737
-0.0012301
0.00956207
-0.00113706
0.00903387
-0.0010552
0.00851663
-0.00098174
0.00799459
-0.000912734
0.00745456
-0.000844379
0.00690774
-0.000774805
0.00635723
-0.000703705
0.00580841
-0.000631712
0.00526961
-0.000560202
0.00475064
-0.000490859
0.00425418
-0.000425117
0.00377809
-0.000363944
0.00332652
-0.000308037
0.00290496
-0.000257859
0.00251501
-0.000213515
0.00215707
-0.000174802
0.00183046
-0.000141355
0.00153419
-0.000112739
0.00126698
-8.84956e-05
0.00102557
-6.8149e-05
0.000805107
-5.11948e-05
0.000599406
-3.70961e-05
0.000402181
-2.52442e-05
0.000206627
-1.48776e-05
-5.00814e-06
0.0124978
-0.00175942
0.0121423
-0.0014415
0.0116131
-0.00134061
0.0110554
-0.00123844
0.0104818
-0.00114578
0.00990554
-0.00106398
0.00933441
-0.000992262
0.00877464
-0.000927987
0.00821897
-0.000867418
0.00765684
-0.000807223
0.00709003
-0.000745371
0.0065212
-0.000681227
0.00595517
-0.000615277
0.00539891
-0.000548787
0.00486004
-0.00048338
0.00434331
-0.0004206
0.0038511
-0.000361657
0.00338684
-0.000307408
0.00295402
-0.000258372
0.00255433
-0.000214734
0.00218823
-0.0001764
0.0018551
-0.000143098
0.00155365
-0.000114464
0.00128186
-9.0091e-05
0.00103642
-6.95444e-05
0.000812764
-5.23587e-05
0.000605031
-3.80198e-05
0.000406372
-2.59234e-05
0.000208495
-1.53004e-05
-5.15425e-06
0.000142316
2.89855e-06
0.000275885
8.69592e-06
0.000408309
1.50627e-05
0.000542169
2.27509e-05
0.000683046
3.24703e-05
0.000837656
4.49816e-05
0.00100428
6.08225e-05
0.00118367
8.04003e-05
0.00137941
0.000104268
0.00158805
0.000132744
0.00181093
0.000165934
0.00205521
0.000204071
0.00232202
0.000247003
0.00260769
0.000293962
0.00291242
0.000343974
0.00323468
0.000395372
0.00357273
0.000445695
0.00392257
0.000492237
0.0042879
0.000532753
0.00471531
0.000566289
0.00521739
0.000591871
0.00576699
0.000608702
0.00637361
0.000619512
0.00708201
0.000632879
0.00793817
0.000663221
0.00894395
0.000727856
0.0100792
0.000839887
0.0113029
0.000994741
0.0123757
0.0011397
0.00123556
0.012996
0.000145846
2.9457e-06
0.000283503
8.83435e-06
0.000419514
1.52819e-05
0.000557901
2.30651e-05
0.000704555
3.28938e-05
0.000865074
4.54636e-05
0.00103801
6.13354e-05
0.00122398
8.09379e-05
0.00142764
0.000104742
0.00164728
0.000133071
0.001885
0.000166069
0.00214754
0.000203896
0.00243307
0.000246322
0.00273969
0.000292573
0.00307246
0.000341739
0.00342783
0.000392286
0.00379968
0.000441555
0.00418812
0.000486662
0.00461205
0.000525203
0.00510704
0.000555457
0.00566664
0.000575846
0.00627434
0.000585122
0.00694504
0.000585247
0.00770797
0.000583318
0.00858818
0.000591375
0.00957986
0.000623881
0.0106586
0.000690561
0.0117725
0.000786476
0.0127265
0.000883116
0.000940721
0.0133024
0.000149435
2.97487e-06
0.000290737
8.91769e-06
0.000430339
1.54091e-05
0.000573412
2.32262e-05
0.000725096
3.30599e-05
0.000889981
4.55561e-05
0.00106881
6.12771e-05
0.00126255
8.06912e-05
0.00147466
0.000104229
0.00170545
0.000132199
0.00195707
0.000164724
0.00223394
0.000201797
0.00253521
0.000243137
0.00286083
0.000288066
0.00321538
0.000335592
0.00359712
0.000384254
0.00400224
0.000431795
0.00443494
0.0004754
0.00491128
0.000512162
0.00544881
0.000539577
0.00604276
0.000555694
0.00668735
0.000559305
0.00739132
0.000551682
0.00816645
0.000538143
0.00901885
0.000527995
0.009936
0.000531859
0.010887
0.000555319
0.0118157
0.000593325
0.012597
0.000630156
0.000618896
0.013086
0.000152969
2.98466e-06
0.0002978
8.94115e-06
0.000441002
1.5428e-05
0.000588187
2.32107e-05
0.000744195
3.29607e-05
0.000913133
4.52879e-05
0.00109711
6.07373e-05
0.00129791
7.97753e-05
0.00151817
0.000102795
0.00175923
0.000130069
0.00202286
0.000161701
0.00231159
0.000197617
0.00262627
0.000237493
0.00296813
0.000280669
0.00334011
0.000326138
0.00374314
0.00037246
0.00417745
0.000417572
0.00464658
0.000458882
0.00515834
0.000493544
0.00572059
0.00051882
0.00633236
0.000532367
0.00699226
0.000532872
0.00770208
0.000521183
0.00845822
0.000500935
0.00925497
0.0004786
0.0100786
0.000461434
0.0108966
0.000452935
0.0116566
0.000450196
0.0122797
0.000443649
0.000396578
0.0126624
0.00015636
2.97292e-06
0.000304519
8.89893e-06
0.000451074
1.53308e-05
0.00060188
2.30145e-05
0.000761726
3.25963e-05
0.00093457
4.46525e-05
0.00112318
5.96977e-05
0.0013298
7.81742e-05
0.00155677
0.000100441
0.00180586
0.000126736
0.00207878
0.000157138
0.00237757
0.000191535
0.00270365
0.000229572
0.00305862
0.000270594
0.00344499
0.000313616
0.00386453
0.00035725
0.00431836
0.0003996
0.00480901
0.000438315
0.00533991
0.000470727
0.00591471
0.000494179
0.00652958
0.00050619
0.00718531
0.000505521
0.00788228
0.000492919
0.00860446
0.00047044
0.00933761
0.000442007
0.0100685
0.000412726
0.0107683
0.000385918
0.0113938
0.00036091
0.0118938
0.000331959
0.000275425
0.0121985
0.000159491
2.93814e-06
0.000310684
8.78703e-06
0.00046026
1.51118e-05
0.000614211
2.26315e-05
0.000777342
3.19628e-05
0.000953589
4.36465e-05
0.001146
5.81608e-05
0.00135709
7.59131e-05
0.00158917
9.72229e-05
0.00184417
0.000122292
0.00212395
0.00015117
0.00243037
0.000183721
0.00276488
0.000219574
0.00312904
0.000258081
0.00352514
0.000298302
0.00395495
0.000338943
0.0044191
0.000378251
0.00491976
0.000414139
0.00545642
0.000444154
0.00603353
0.000466055
0.00664009
0.000477681
0.00727263
0.000477323
0.00794094
0.000465392
0.00862297
0.000443485
0.00929389
0.000414055
0.00994064
0.000380784
0.0105424
0.000346739
0.0110677
0.000312491
0.0114824
0.000275488
0.000221959
0.0117398
0.000162245
2.87954e-06
0.000316082
8.60352e-06
0.000468244
1.47686e-05
0.000624797
2.2061e-05
0.000790573
3.10628e-05
0.000969513
4.22765e-05
0.00116479
5.61403e-05
0.00137903
7.30204e-05
0.00161454
9.31935e-05
0.00187329
0.000116821
0.00215726
0.000143924
0.00246839
0.000174356
0.00280793
0.00020774
0.00317673
0.000243423
0.00357732
0.000280541
0.00401148
0.000317941
0.00447719
0.000353946
0.00497923
0.000386851
0.00551163
0.000414625
0.00607709
0.000435027
0.00666989
0.000446561
0.00727212
0.000447506
0.00789706
0.000437243
0.00853039
0.000417443
0.00914053
0.00039027
0.00971491
0.000358181
0.0102378
0.000323626
0.0106874
0.000287821
0.0110418
0.000250361
0.000203503
0.0112679
0.000164513
2.79712e-06
0.000320507
8.34877e-06
0.000474724
1.43031e-05
0.000633258
2.13077e-05
0.000800944
2.99064e-05
0.000981723
4.05609e-05
0.0011788
5.36666e-05
0.00139482
6.95459e-05
0.00163202
8.84305e-05
0.00189215
0.000110434
0.00217732
0.000135549
0.00249009
0.000163643
0.00283132
0.000194353
0.00319961
0.000226966
0.00359905
0.000260721
0.00403358
0.000294785
0.00449373
0.000327498
0.00498538
0.000357144
0.00550716
0.000382445
0.00604921
0.00040136
0.0066175
0.000412237
0.00719171
0.000414136
0.00776788
0.000406355
0.00834374
0.000389858
0.00889363
0.000366434
0.00940419
0.000337866
0.00986153
0.000306075
0.0102507
0.000272469
0.0105579
0.000237666
0.00019742
0.0107584
0.000166191
2.69164e-06
0.000323764
8.0255e-06
0.000479419
1.37209e-05
0.000639228
2.03824e-05
0.000808006
2.85121e-05
0.000989664
3.85292e-05
0.00118739
5.07856e-05
0.0014038
6.55604e-05
0.00164106
8.30429e-05
0.00190001
0.000103281
0.00218269
0.000126219
0.00249386
0.0001518
0.00283488
0.000179764
0.00319849
0.000209281
0.00358892
0.000239474
0.00401761
0.000269855
0.00446932
0.000299225
0.00493976
0.000325658
0.00544107
0.000347973
0.0059584
0.000364971
0.00648962
0.00037505
0.00702717
0.000377437
0.00755682
0.000371942
0.00807546
0.00035896
0.00856703
0.000339578
0.00901852
0.000315179
0.00941823
0.000287277
0.00975544
0.000257195
0.0100213
0.000225885
0.000191173
0.0101966
0.000167184
2.56467e-06
0.000325673
7.63862e-06
0.000482068
1.30315e-05
0.000642374
1.93011e-05
0.000811344
2.69054e-05
0.000992837
3.62204e-05
0.00118999
4.7555e-05
0.00140545
6.11496e-05
0.0016418
7.71732e-05
0.00189815
9.56245e-05
0.00217407
0.000116316
0.00247832
0.000139188
0.00281592
0.000164191
0.00317374
0.000190618
0.0035501
0.000217389
0.00396177
0.000243907
0.0043995
0.000269502
0.00484845
0.000292685
0.00531921
0.000312088
0.0058055
0.000326825
0.00629662
0.000335932
0.00678884
0.000338691
0.0072714
0.000334856
0.00773618
0.000324652
0.00817185
0.000308783
0.00856779
0.000288253
0.00891458
0.000264217
0.00920433
0.000237789
0.00943111
0.00020992
0.000179705
0.00957998
0.000167398
2.41793e-06
0.000326053
7.19357e-06
0.000482409
1.22451e-05
0.000642352
1.80804e-05
0.000810531
2.51119e-05
0.000990704
3.3672e-05
0.0011859
4.40268e-05
0.00139879
5.63766e-05
0.00163247
7.08617e-05
0.00188541
8.74823e-05
0.00215378
0.000106015
0.00244671
0.000126265
0.002773
0.000148157
0.00312151
0.000171255
0.00348461
0.000194661
0.00387309
0.00021759
0.00428605
0.000239404
0.00471123
0.000259132
0.00514897
0.000275725
0.00559686
0.00028834
0.00604702
0.000296235
0.00649292
0.000298863
0.00692604
0.000296002
0.00733804
0.000287777
0.00771993
0.000274654
0.00806319
0.000257346
0.0083604
0.000236714
0.00860565
0.000213644
0.00879481
0.000188962
0.000162565
0.00891672
0.000166748
2.25422e-06
0.00032474
6.69872e-06
0.000480201
1.13763e-05
0.000638841
1.67431e-05
0.000805157
2.31654e-05
0.000982749
3.0932e-05
0.00117446
4.02668e-05
0.00138274
5.13291e-05
0.00161028
6.42107e-05
0.00185692
7.89121e-05
0.00211934
9.52864e-05
0.00240163
0.000113081
0.00271065
0.000132051
0.00304207
0.000151837
0.00338921
0.000171827
0.00375435
0.000191342
0.0041375
0.000209727
0.00453251
0.000226224
0.00493612
0.000240041
0.00534437
0.000250485
0.0057511
0.000256973
0.00614975
0.000259092
0.00653304
0.000256658
0.00689355
0.000249744
0.00722392
0.000238666
0.00751733
0.000223933
0.00776801
0.000206184
0.00797155
0.00018611
0.00812508
0.000164395
0.000141426
0.00822091
0.000165189
2.07754e-06
0.000321641
6.16615e-06
0.00047531