/*--------------------------------*- C++ -*----------------------------------*\
| =========                 |                                                 |
| \\      /  F ield         | OpenFOAM: The Open Source CFD Toolbox           |
|  \\    /   O peration     | Version:  2006                                  |
|   \\  /    A nd           | Website:  www.openfoam.com                      |
|    \\/     M anipulation  |                                                 |
\*---------------------------------------------------------------------------*/
FoamFile
{
    version     2.0;
    format      ascii;
    class       volScalarField;
    location    "0.6";
    object      p;
}
// * * * * * * * * * * * * * * * * * * * * * * * * * * * * * * * * * * * * * //

dimensions      [0 2 -2 0 0 0 0];


internalField   nonuniform List<scalar> 
2790
(
99.0752
98.8685
98.9736
99.3536
99.9098
100.607
101.444
102.423
103.545
104.809
106.214
107.761
109.449
111.274
113.231
115.31
117.494
119.76
122.076
124.402
126.69
128.884
130.924
132.749
134.303
135.539
136.43
136.978
137.225
137.326
98.8844
98.7887
98.9191
99.2967
99.8501
100.545
101.379
102.354
103.47
104.726
106.123
107.66
109.337
111.152
113.097
115.163
117.336
119.591
121.899
124.222
126.511
128.713
130.768
132.615
134.197
135.464
136.386
136.968
137.286
137.557
98.7095
98.6843
98.8349
99.2041
99.747
100.432
101.255
102.215
103.314
104.551
105.925
107.436
109.083
110.862
112.769
114.793
116.919
119.126
121.386
123.661
125.908
128.076
130.111
131.957
133.561
134.885
135.911
136.66
137.199
137.683
98.5196
98.526
98.6909
99.0542
99.5861
100.259
101.067
102.01
103.087
104.297
105.64
107.115
108.72
110.451
112.303
114.266
116.325
118.458
120.641
122.838
125.01
127.111
129.094
130.91
132.517
133.887
135.011
135.907
136.589
137.138
98.3049
98.3264
98.502
98.8614
99.3814
100.039
100.828
101.747
102.795
103.972
105.275
106.703
108.255
109.926
111.709
113.595
115.568
117.608
119.692
121.787
123.858
125.864
127.764
129.518
131.092
132.461
133.612
134.54
135.204
135.592
98.0609
98.0893
98.27
98.6238
99.1294
99.768
100.533
101.423
102.438
103.573
104.829
106.203
107.692
109.292
110.994
112.789
114.661
116.591
118.558
120.53
122.475
124.358
126.141
127.791
129.276
130.57
131.644
132.468
132.958
132.963
97.7857
97.8164
97.9972
98.3429
98.8322
99.4486
100.186
101.044
102.018
103.107
104.309
105.62
107.038
108.556
110.166
111.857
113.614
115.419
117.25
119.079
120.875
122.604
124.233
125.73
127.062
128.193
129.082
129.668
129.863
129.292
97.4783
97.5085
97.6857
98.0206
98.4914
99.0828
99.7894
100.609
101.539
102.576
103.717
104.958
106.296
107.723
109.231
110.806
112.435
114.1
115.779
117.444
119.064
120.608
122.042
123.333
124.441
125.322
125.917
126.139
125.933
124.601
97.1389
97.1667
97.3374
97.659
98.1089
98.6725
99.3448
100.123
101.004
101.983
103.057
104.222
105.472
106.8
108.195
109.645
111.133
112.643
114.152
115.632
117.051
118.375
119.569
120.596
121.407
121.947
122.144
121.885
121.195
118.969
96.768
96.7922
96.954
97.2598
97.6867
98.2202
98.8549
99.5877
100.415
101.332
102.334
103.417
104.573
105.794
107.068
108.381
109.718
111.059
112.381
113.654
114.844
115.913
116.82
117.521
117.958
118.063
117.757
116.908
115.69
112.589
96.3666
96.3863
96.5371
96.8252
97.2272
97.7281
98.3223
99.0065
99.7763
100.627
101.553
102.548
103.604
104.711
105.856
107.025
108.199
109.359
110.478
111.524
112.458
113.234
113.806
114.117
114.098
113.663
112.736
111.173
109.378
105.525
95.9359
95.9503
96.0888
96.3574
96.7325
97.1987
97.7499
98.3825
99.092
99.8728
100.718
101.621
102.572
103.56
104.57
105.586
106.59
107.557
108.458
109.259
109.912
110.361
110.549
110.406
109.84
108.745
107.043
104.581
102.038
97.4447
95.4773
95.4859
95.611
95.8585
96.2051
96.6346
97.1406
97.7194
98.3659
99.0738
99.8358
100.643
101.485
102.349
103.218
104.077
104.903
105.668
106.34
106.882
107.232
107.323
107.086
106.428
105.223
103.326
100.63
96.9331
93.1364
87.1512
94.9925
94.9948
95.1056
95.3309
95.6472
96.0384
96.4977
97.0208
97.6021
98.2348
98.9106
99.6197
100.35
101.086
101.812
102.509
103.152
103.709
104.147
104.418
104.45
104.164
103.475
102.255
100.331
97.4797
93.4969
87.9912
81.805
72.3519
94.4831
94.4789
94.5747
94.7766
95.0615
95.413
95.824
96.2901
96.8048
97.3604
97.9483
98.5571
99.1729
99.7798
100.36
100.894
101.352
101.7
101.901
101.897
101.607
100.941
99.7916
97.9962
95.3153
91.4174
85.8805
77.8185
67.16
48.7758
2.79453
2.32791
1.1012
-1.10831
-4.39901
-8.77492
-14.1755
-20.4987
-27.614
-35.3688
-43.5894
-52.0799
-60.619
-68.9556
-76.8068
-83.8599
-89.7789
-94.216
-96.8203
-97.2436
-95.1832
-90.384
-82.7208
-72.2037
-58.9608
-43.2148
-25.3173
-6.38655
9.81937
15.4661
2.97813
2.38398
1.06044
-1.24528
-4.62553
-9.08187
-14.5543
-20.9429
-28.119
-35.9316
-44.2084
-52.755
-61.3512
-69.7457
-77.6548
-84.7646
-90.7375
-95.2256
-97.8857
-98.3902
-96.4122
-91.7136
-84.2041
-73.9176
-61.0092
-45.7703
-28.6805
-10.723
5.32207
10.7525
2.8912
1.98378
0.365289
-2.20377
-5.7971
-10.415
-16.0023
-22.4666
-29.6872
-37.5215
-45.8057
-54.3534
-62.9518
-71.3543
-79.2788
-86.4109
-92.411
-96.9272
-99.6118
-100.13
-98.1907
-93.5505
-86.1472
-76.0477
-63.4379
-48.6706
-32.3231
-15.2764
0.317425
6.46048
2.33738
1.04215
-0.931441
-3.82866
-7.68709
-12.5024
-18.2257
-24.7757
-32.0439
-39.9005
-48.1937
-56.7474
-65.3573
-73.7825
-81.7422
-88.9206
-94.9743
-99.545
-102.28
-102.845
-100.944
-96.3653
-89.0781
-79.1806
-66.8822
-52.5571
-36.7949
-20.3865
-5.07007
2.74854
1.19724
-0.498295
-2.80969
-6.03562
-10.1636
-15.1792
-21.0354
-27.6618
-34.9649
-42.8292
-51.1156
-59.6592
-68.2654
-76.6998
-84.684
-91.9008
-98.002
-102.622
-105.397
-105.989
-104.119
-99.5865
-92.3985
-82.6889
-70.6864
-56.7584
-41.4531
-25.4729
-10.1966
-0.322753
-0.53123
-2.63605
-5.24979
-8.77457
-13.1415
-18.3296
-24.2936
-30.9742
-38.2941
-46.1533
-54.4261
-62.9577
-71.5637
-80.0163
-88.0383
-95.3097
-101.475
-106.154
-108.968
-109.568
-107.693
-103.161
-96.0213
-86.4431
-74.6667
-61.0324
-46.0216
-30.2453
-14.7572
-2.82465
-2.7592
-5.29734
-8.1737
-11.9504
-16.5019
-21.8129
-27.8441
-34.5474
-41.8604
-49.6985
-57.9481
-66.463
-75.0667
-83.5376
-91.5992
-98.9279
-105.16
-109.9
-112.747
-113.337
-111.429
-106.858
-99.7192
-90.2172
-78.5952
-65.1527
-50.2912
-34.5272
-18.6374
-4.84085
-5.38201
-8.37425
-11.4575
-15.4218
-20.0883
-25.4612
-31.5106
-38.2009
-45.482
-53.2818
-61.4983
-69.9925
-78.5924
-87.0823
-95.187
-102.579
-108.885
-113.691
-116.565
-117.124
-115.153
-110.499
-103.312
-93.8306
-82.2942
-68.9534
-54.1247
-38.2313
-21.8282
-6.4435
-8.31249
-11.7619
-14.9523
-19.0156
-23.7161
-29.087
-35.105
-41.7467
-48.9729
-56.7196
-64.8939
-73.3636
-81.9585
-90.4664
-98.6149
-106.072
-112.457
-117.332
-120.23
-120.741
-118.684
-113.911
-106.635
-97.1287
-85.623
-72.3161
-57.4393
-41.3308
-24.3746
-7.69429
-11.6147
-15.3527
-18.4704
-22.5262
-27.1773
-32.4867
-38.4322
-44.997
-52.1506
-59.8334
-67.9578
-76.3982
-84.9857
-93.5085
-101.697
-109.22
-115.684
-120.633
-123.555
-124.005
-121.855
-116.939
-109.545
-99.9834
-88.4733
-75.1606
-60.1953
-43.8415
-26.3518
-8.65183
-15.1564
-18.9094
-21.7476
-25.7132
-30.2468
-35.4507
-41.298
-47.7721
-54.8442
-62.4578
-70.527
-78.9316
-87.5053
-96.0362
-104.257
-111.836
-118.377
-123.404
-126.356
-126.747
-124.504
-119.436
-111.918
-102.291
-90.7646
-77.4363
-62.3835
-45.8061
-27.8512
-9.37889
-18.6509
-21.9892
-24.456
-28.321
-32.697
-37.7791
-43.5246
-49.9117
-56.9056
-64.4506
-72.4619
-80.8217
-89.3676
-97.8908
-106.126
-113.741
-120.34
-125.436
-128.429
-128.807
-126.459
-121.267
-113.653
-103.981
-92.4506
-79.122
-64.0127
-47.2678
-28.9533
-9.93435
-21.3558
-24.086
-26.4138
-30.1136
-34.3465
-39.3353
-45.009
-51.3343
-58.267
-65.7498
-73.6986
-81.9974
-90.4899
-98.9713
-107.18
-114.787
-121.395
-126.523
-129.561
-129.984
-127.561
-122.324
-114.688
-105.027
-93.5352
-80.2418
-65.1169
-48.2528
-29.7044
-10.3177
-22.7212
-25.1706
-27.2826
-30.8644
-35.053
-40.0188
-45.678
-51.9834
-58.8825
-66.3147
-74.1992
-82.4233
-90.8362
-99.239
-107.377
-114.927
-121.498
-126.613
-129.664
-130.088
-127.683
-122.496
-114.934
-105.372
-93.9873
-80.78
-65.6884
-48.7717
-30.0963
-10.5294
-23.1707
-24.958
-26.8506
-30.43
-34.7603
-39.827
-45.5549
-51.8926
-58.7879
-66.1817
-73.9981
-82.1307
-90.4346
-98.7176
-106.732
-114.164
-120.626
-125.644
-128.623
-128.992
-126.692
-121.671
-114.314
-104.967
-93.7769
-80.7204
-65.7249
-48.8421
-30.1679
-10.6125
93.9409
93.9298
94.0098
94.1871
94.439
94.749
95.11
95.517
95.9628
96.439
96.936
97.4414
97.9399
98.4153
98.8482
99.2146
99.4849
99.6232
99.5853
99.3051
98.6941
97.6555
96.0613
93.7143
90.3209
85.4424
78.4022
67.6213
50.512
4.56858
93.3591
93.3408
93.4041
93.5555
93.7726
94.0392
94.3479
94.6934
95.0677
95.4616
95.8646
96.2632
96.6416
96.9827
97.2651
97.4627
97.5445
97.4724
97.1963
96.6442
95.727
94.3422
92.348
89.5343
85.5963
80.0845
72.3265
61.0011
46.3182
28.1301
92.742
92.7162
92.762
92.8863
93.0673
93.2891
93.5441
93.8261
94.1268
94.4364
94.7433
95.0335
95.2908
95.4967
95.6286
95.659
95.5553
95.2772
94.7707
93.964
92.7705
91.086
88.7695
85.6268
81.3992
75.7546
68.3448
58.7257
47.911
37.7498
92.0901
92.0567
92.0844
92.1808
92.3247
92.5006
92.7005
92.9177
93.1436
93.3676
93.5776
93.7591
93.8954
93.9671
93.9506
93.8178
93.5348
93.0597
92.3388
91.3035
89.8719
87.9454
85.397
82.0668
77.7656
72.2863
65.4748
57.1325
47.373
36.566
91.4046
91.3635
91.3727
91.4405
91.5466
91.6757
91.8196
91.9713
92.1216
92.2598
92.373
92.4467
92.4635
92.4036
92.2431
91.9534
91.5005
90.8428
89.9288
88.6953
87.0678
84.9588
82.2616
78.8521
74.5973
69.3604
63.034
55.4767
46.6075
36.8864
90.6869
90.638
90.6286
90.6673
90.7351
90.8169
90.9045
90.9904
91.0652
91.1179
91.1356
91.1032
91.0035
90.8163
90.518
90.0803
89.4698
88.6471
87.5643
86.1647
84.3831
82.146
79.3674
75.9533
71.8111
66.8509
61.0043
54.2236
46.5199
38.3183
89.9388
89.8822
89.854
89.8636
89.8928
89.9273
89.9586
89.9789
89.979
89.9476
89.8717
89.7364
89.5243
89.2157
88.7877
88.2127
87.4592
86.4907
85.2643
83.7305
81.834
79.5153
76.7082
73.3434
69.3593
64.7036
59.3446
53.2824
46.5421
39.4066
89.1624
89.0983
89.0515
89.0319
89.0229
89.0103
88.9858
88.9415
88.8682
88.7547
88.5884
88.3543
88.0352
87.6123
87.0642
86.3642
85.4833
84.3893
83.0442
81.4063
79.43
77.0684
74.2728
70.9947
67.1947
62.8452
57.9348
52.4754
46.4864
40.1799
88.3603
88.2891
88.2238
88.1756
88.1286
88.0697
87.9904
87.883
87.7384
87.5457
87.2928
86.965
86.5454
86.0164
85.3586
84.5471
83.5551
82.3556
80.9159
79.2009
77.175
74.8021
72.0474
68.8787
65.2721
61.2147
56.7063
51.7638
46.4085
40.8114
87.5356
87.4575
87.3744
87.2979
87.2139
87.1097
86.9771
86.8088
86.5955
86.3271
85.9921
85.5767
85.064
84.4379
83.6816
82.7725
81.6861
80.4
78.8876
77.1197
75.0692
72.7096
70.0166
66.97
63.557
59.774
55.6275
51.1371
46.325
41.3278
86.6917
86.6072
86.5068
86.403
86.283
86.1349
85.9511
85.7243
85.4458
85.1058
84.6938
84.1971
83.5997
82.8865
82.0429
81.0496
79.8853
78.5307
76.9648
75.1649
73.1103
70.7823
68.165
65.2469
62.0228
58.4949
54.6735
50.5783
46.2306
41.7396
85.8324
85.742
85.6252
85.495
85.3404
85.1504
84.9177
84.6354
84.2956
83.8889
83.4056
82.8341
82.1604
81.3706
80.4514
79.387
78.1597
76.7532
75.1509
73.3361
71.2936
69.0109
66.4784
63.6907
60.6476
57.3549
53.8246
50.0753
46.1267
42.0674
84.962
84.8663
84.734
84.5787
84.3911
84.1613
83.8824
83.5482
83.1512
82.6831
82.1347
81.4956
80.754
79.8976
78.9144
77.7915
76.5147
75.0709
73.4472
71.6317
69.614
67.3863
64.9437
62.285
59.4133
56.3362
53.0664
49.621
46.018
42.3294
84.0852
83.9847
83.838
83.659
83.4405
83.1733
82.8512
82.4687
82.0192
81.495
80.888
80.1889
79.3878
78.4742
77.438
76.2683
74.9544
73.4859
71.8535
70.049
68.0657
65.8995
63.5488
61.0154
58.3044
55.4245
52.3878
49.2102
45.9078
42.5392
83.2069
83.1025
82.9424
82.7415
82.4939
82.192
81.8301
81.4034
80.906
80.3313
79.6721
78.9205
78.0683
77.1067
76.0274
74.8218
73.4817
71.9995
70.3688
68.5842
66.6422
64.5414
62.2826
59.8695
57.3082
54.6078
51.78
48.8388
45.7987
42.7078
82.3328
82.2249
82.0528
81.8316
81.5573
81.2235
80.8252
80.3583
79.8179
79.1983
78.4933
77.6966
76.8012
75.8002
74.687
73.455
72.0983
70.6117
68.991
67.2333
65.3374
63.3038
61.1351
58.836
56.4134
53.8762
51.2353
48.5034
45.6931
42.844
81.4685
81.3579
81.175
80.9353
80.6367
80.2739
79.8427
79.3399
78.7612
78.1022
77.3578
76.5228
75.5917
74.5592
73.4203
72.1704
70.8053
69.3217
67.7176
65.9918
64.1448
62.1786
60.0969
57.9052
55.6104
53.2212
50.7477
48.2011
45.5926
42.9548
80.6202
80.5075
80.315
80.0587
79.7382
79.3494
78.8889
78.3542
77.7421
77.0491
76.2711
75.4043
74.4444
73.3876
72.2304
70.9696
69.6029
68.1284
66.5457
64.8551
63.0584
61.1585
59.1599
57.0683
54.8908
52.6355
50.3117
47.9293
45.4983
43.0456
79.7943
79.6801
79.4794
79.2083
78.8682
78.4563
77.97
77.4075
76.7666
76.0446
75.2387
74.3459
73.3635
72.2888
71.1195
69.8539
68.4909
67.0302
65.4724
63.8189
62.0725
60.2368
58.3166
56.3178
54.2473
52.1127
49.9225
47.6855
45.4108
43.1203
78.9976
78.8824
78.6746
78.3906
78.0332
77.6011
77.0924
76.506
75.8405
75.0943
74.2655
73.3523
72.3527
71.2655
70.0894
68.8239
67.469
66.0254
64.4946
62.879
61.1819
59.4074
57.5605
55.647
53.6736
51.6474
49.5761
47.4678
45.3303
43.1821
78.237
78.1213
77.9076
77.6122
77.2399
76.7902
76.2622
75.6556
74.9696
74.2036
73.3565
72.4274
71.4155
70.3204
69.1418
67.8802
66.5365
65.1122
63.6096
62.0316
60.3819
58.6649
56.8857
55.0501
53.1643
51.2349
49.2691
47.2741
45.257
43.2331
77.5198
77.4039
77.1852
76.8801
76.4948
76.0301
75.4859
74.8623
74.1595
73.3775
72.5161
71.5753
70.5551
69.4558
68.2783
67.0234
65.693
64.2893
62.8149
61.2732
59.6684
58.0048
56.2876
54.5223
52.7149
50.8715
48.9988
47.1031
45.1911
43.2754
76.8534
76.7377
76.5148
76.2013
75.8049
75.3275
74.7696
74.1321
73.4157
72.6211
71.7489
70.7998
69.7746
68.6742
67.5
66.2539
64.938
63.555
62.1081
60.6009
59.0377
57.4229
55.7617
54.0592
52.3213
50.5537
48.7623
46.9532
45.1322
43.3101
76.2458
76.1302
75.9037
75.5829
75.177
74.6889
74.1198
73.471
72.7439
71.9397
71.0597
70.1051
69.0774
67.9781
66.8092
65.5729
64.2719
62.9092
61.4883
60.0131
58.4877
56.9169
55.3054
53.6585
51.9814
50.2797
48.5588
46.8243
45.0816
43.3397
75.705
75.5895
75.3595
75.032
74.6179
74.1209
73.5427
72.8848
72.1492
71.3378
70.4522
69.4943
68.466
67.3692
66.2064
64.9803
63.6938
62.3502
60.9532
59.5068
58.0152
56.483
54.915
53.3161
51.6915
50.0461
48.3853
46.7141
45.0376
43.3634
75.2397
75.1239
74.8899
74.5561
74.135
73.6309
73.0455
72.3807
71.6388
70.8223
69.9332
68.9737
67.946
66.8527
65.6965
64.4802
63.2072
61.881
60.5052
59.084
57.6217
56.1227
54.5917
53.0335
51.4529
49.8549
48.2443
46.626
45.0046
43.3868
74.8595
74.742
74.5022
74.1613
73.7335
73.2232
72.6318
71.9614
71.2148
70.3946
69.5033
68.5433
67.5172
66.4276
65.2777
64.0705
62.8094
61.4981
60.1404
58.7404
57.3024
55.8307
54.3301
52.805
51.2602
49.7003
48.13
46.5538
44.9762
43.4026
74.5756
74.4539
74.2062
73.8591
73.4265
72.9115
72.3155
71.641
70.891
70.0683
69.1756
68.2157
67.1912
66.1052
64.9607
63.761
62.5098
61.2106
59.8674
58.4843
57.0656
55.6155
54.1386
52.6393
51.1223
49.592
48.0529
46.5094
44.9659
43.4272
74.4015
74.2579
73.994
73.6414
73.2065
72.6889
72.09
71.4131
70.6615
69.8379
68.9451
67.9859
66.9632
65.8802
64.7401
63.5461
62.302
61.0115
59.6786
58.3072
56.9017
55.4663
54.0054
52.5236
51.0251
49.5145
47.996
46.4739
44.9525
43.4357
74.4001
74.1906
73.8986
73.5399
73.1023
72.5813
71.9794
71.3003
70.5472
69.7229
68.8301
67.8717
66.8506
65.7699
64.633
63.4432
62.2041
60.9195
59.5933
58.2295
56.8325
55.4063
53.9554
52.4842
50.9969
49.4979
47.9915
46.4818
44.9728
43.4682
-75.3921
-54.6891
-37.4118
13.4223
7.50423
-0.494561
26.0277
17.0899
9.10114
24.4727
16.6588
10.5378
27.2174
20.6777
15.135
30.2878
24.5971
19.5524
32.4008
27.41
22.96
34.0404
29.6736
25.7795
35.4121
31.5713
28.1511
36.5416
33.138
30.1163
37.466
34.4292
31.743
38.2274
35.5011
33.0977
38.8587
36.3968
34.2335
39.3852
37.1501
35.192
39.8272
37.7879
36.0065
40.2008
38.3318
36.7034
40.5188
38.7987
37.3033
40.7912
39.2016
37.8222
41.0255
39.5506
38.2726
41.2272
39.8531
38.6636
41.4007
40.1149
39.0024
41.55
40.3413
39.2956
41.6772
40.5353
39.5475
41.7866
40.7021
39.7636
41.8774
40.8416
39.9447
41.9572
40.9617
40.0987
42.017
41.0538
40.2185
42.0771
41.1385
40.3231
42.1078
41.1865
40.3862
42.1607
41.2543
40.4619
-23.8851
-23.3625
-25.2458
-29.0111
-33.6333
-38.9104
-44.7739
-51.1793
-58.0829
-65.4337
-73.1639
-81.1753
-89.3306
-97.4449
-105.278
-112.523
-118.8
-123.645
-126.503
-126.853
-124.665
-119.906
-112.873
-103.844
-92.9278
-80.0859
-65.2529
-48.4962
-29.9579
-10.5963
-7.20852
-15.4699
-21.2141
-26.5195
-31.8919
-37.5333
-43.5588
-50.0119
-56.8889
-64.1564
-71.7554
-79.5953
-87.5461
-95.4303
-103.015
-110.004
-116.029
-120.649
-123.366
-123.726
-121.695
-117.272
-110.647
-102.012
-91.4308
-78.8602
-64.2589
-47.7309
-29.4737
-10.498
-1.34661
-11.7146
-18.2319
-23.9905
-29.8796
-35.9192
-42.1339
-48.6084
-55.4004
-62.5147
-69.9116
-77.5105
-85.1889
-92.7761
-100.048
-106.72
-112.444
-116.813
-119.391
-119.79
-117.964
-113.913
-107.728
-99.5163
-89.2997
-77.0399
-62.7367
-46.5455
-28.722
-10.3253
1.74765
-8.3262
-15.6948
-22.028
-28.1685
-34.3152
-40.5677
-47.0125
-53.6957
-60.6234
-67.7684
-75.0658
-82.4067
-89.6326
-96.532
-102.837
-108.226
-112.331
-114.775
-115.238
-113.649
-109.965
-104.202
-96.3938
-86.5362
-74.612
-60.6753
-44.9388
-27.7109
-10.0882
7.06978
-2.63499
-11.1056
-18.5912
-25.4753
-32.0381
-38.488
-44.9775
-51.5942
-58.3673
-65.2812
-72.2815
-79.2728
-86.1136
-92.6121
-98.5249
-103.561
-107.397
-109.711
-110.243
-108.882
-105.516
-100.1
-92.6343
-83.1104
-71.5481
-58.0604
-42.9127
-26.4524
-9.79658
12.4641
3.55724
-5.33871
-13.6255
-21.2274
-28.3588
-35.2238
-41.9639
-48.6741
-55.4086
-62.1786
-68.9507
-75.6469
-82.1437
-88.2715
-93.8145
-98.5166
-102.097
-104.28
-104.848
-103.645
-100.494
-95.3313
-88.1474
-78.9524
-67.81
-54.8856
-40.4814
-24.9666
-9.45762
16.9453
9.09181
0.461508
-7.99814
-15.9175
-23.4054
-30.6148
-37.6373
-44.5322
-51.3403
-58.0764
-64.7198
-71.2093
-77.4411
-83.2681
-88.5018
-92.9184
-96.2726
-98.3221
-98.8576
-97.6976
-94.6647
-89.7011
-82.8004
-73.9947
-63.386
-51.1759
-37.6845
-23.2855
-9.07286
20.6482
13.8084
5.82142
-2.33646
-10.1692
-17.6951
-25.011
-32.1607
-39.1624
-46.0276
-52.7551
-59.3195
-65.6639
-71.696
-77.2866
-82.27
-86.4487
-89.6041
-91.5107
-91.9492
-90.7603
-87.822
-83.0907
-76.5563
-68.2656
-58.3459
-47.0166
-34.5979
-21.4557
-8.63723
23.7109
17.7504
10.5463
2.96306
-4.4877
-11.7685
-18.9325
-25.989
-32.9238
-39.7212
-46.3601
-52.8028
-58.9884
-64.8277
-70.2014
-74.9597
-78.925
-81.8979
-83.6647
-84.0018
-82.8018
-80.0188
-75.6142
-69.5707
-61.9412
-52.8633
-42.5583
-31.333
-19.5357
-8.14281
26.2273
21.0065
14.5843
7.68592
0.786765
-6.05193
-12.8583
-19.6213
-26.3066
-32.8788
-39.3004
-45.5225
-51.478
-57.0777
-62.2082
-66.7311
-70.4841
-73.2855
-74.9376
-75.2317
-74.1098
-71.5772
-67.6008
-62.1601
-55.3083
-47.1813
-37.9896
-28.0174
-17.5882
-7.5858
28.3022
23.6967
17.9871
11.7771
5.49144
-0.804312
-7.12761
-13.4591
-19.7549
-25.9687
-32.0527
-37.9508
-43.5921
-48.8881
-53.731
-57.9926
-61.5262
-64.1691
-65.7471
-66.0815
-65.1358
-62.9361
-59.4599
-54.6905
-48.6782
-41.5487
-33.4942
-24.7706
-15.6713
-6.9722
30.0285
25.9355
20.8481
15.2757
9.59452
3.86598
-1.92481
-7.75694
-13.5842
-19.3565
-25.0221
-30.5221
-35.7855
-40.7271
-45.2464
-49.2268
-52.5379
-55.038
-56.5803
-57.0204
-56.3206
-54.5033
-51.5591
-47.4803
-42.3132
-36.1691
-29.2183
-21.6859
-13.8323
-6.31875
31.4774
27.8146
23.2617
18.257
13.1353
7.95065
2.68792
-2.63331
-7.96853
-13.2683
-18.4811
-23.5493
-28.4052
-32.9695
-37.1506
-40.845
-43.9388
-46.3119
-47.8432
-48.4193
-47.997
-46.5771
-44.1607
-40.7513
-36.3914
-31.1773
-25.2564
-18.823
-12.104
-5.64909
32.7026
29.4048
25.3105
20.8031
16.1818
11.4939
6.72438
1.89008
-2.96803
-7.80346
-12.5676
-17.2062
-21.6572
-25.8485
-29.6987
-33.1176
-36.0077
-38.2681
-39.8002
-40.5158
-40.3635
-39.3267
-37.409
-34.6218
-31.0048
-26.6403
-21.6536
-16.2108
-10.506
-4.98787
33.7462
30.7606
27.0616
22.9873
18.8056
14.5598
10.2356
5.84665
1.42952
-2.97319
-7.31678
-11.552
-15.6225
-19.4647
-23.0072
-26.1722
-28.8769
-31.0373
-32.5726
-33.4127
-33.504
-32.8181
-31.3548
-29.1293
-26.1788
-22.5732
-18.4184
-13.8546
-9.04647
-4.35578
34.6409
31.9244
28.5668
24.8684
21.0707
17.2137
13.2844
9.29322
5.27245
1.26046
-2.7024
-6.57191
-10.2982
-13.8251
-17.0909
-20.0287
-22.5687
-24.6405
-26.1773
-27.1216
-27.4225
-27.0461
-25.9861
-24.258
-21.8956
-18.9586
-15.536
-11.7453
-7.72563
-3.76704
35.4121
32.9281
29.8662
26.4937
23.0303
19.5138
15.9313
12.2909
8.62078
4.95523
1.3303
-2.21477
-5.63598
-8.88437
-11.9064
-14.6449
-17.0405
-19.034
-20.5694
-21.5983
-22.0751
-21.966
-21.2581
-19.9648
-18.1164
-15.7636
-12.981
-9.86715
-6.53894
-3.22929
36.0794
33.7961
30.9906
27.9013
24.7288
21.509
18.2295
14.8961
11.5334
8.17187
4.84345
1.58282
-1.57143
-4.57659
-7.38634
-9.95156
-12.2216
-14.1463
-15.678
-16.7752
-17.3982
-17.5177
-17.1137
-16.1974
-14.7953
-12.9504
-10.7251
-8.2018
-5.47924
-2.74499
36.6582
34.5475
31.9644
29.1215
26.2019
23.2401
20.2241
17.158
14.0632
10.9666
7.8965
4.88339
1.9611
-0.833147
-3.45918
-5.87467
-8.03615
-9.90056
-11.4271
-12.5796
-13.3283
-13.6391
-13.495
-12.9037
-11.8875
-10.4823
-8.74051
-6.73136
-4.53833
-2.31331
37.1607
35.1988
32.8077
30.1786
27.4786
24.7403
21.9527
19.1183
16.2558
13.3889
10.5426
7.74378
5.02196
2.4097
-0.0580606
-2.34465
-4.41257
-6.22466
-7.74571
-8.94423
-9.79416
-10.2681
-10.3467
-10.0348
-9.35079
-8.3251
-7.00162
-5.43878
-3.70751
-1.93154
37.5961
35.763
33.5374
31.0925
28.5824
26.0373
23.4468
20.8124
18.1503
15.4815
12.8281
10.2137
7.66422
5.20825
2.87623
0.700108
-1.28754
-3.05449
-4.57012
-5.8069
-6.74214
-7.35263
-7.62057
-7.54746
-7.14834
-6.44873
-5.48571
-4.30876
-2.9785
-1.59642
37.9725
36.2499
34.1668
31.8804
29.5334
27.1543
24.7331
22.2703
19.7801
17.2811
14.7929
12.3363
9.93423
7.61172
5.39551
3.31358
1.3944
-0.333857
-1.84441
-3.11309
-4.11978
-4.84491
-5.27289
-5.40282
-5.24662
-4.82579
-4.17181
-3.32686
-2.34303
-1.30425
38.2959
36.6673
34.7058
32.5553
30.3478
28.1103
25.8333
23.5167
21.1729
18.8183
16.4706
14.1481
11.8711
9.66169
7.54358
5.54137
3.68017
1.98477
0.478774
-0.81643
-1.88291
-2.70409
-3.26661
-3.56798
-3.61749
-3.43335
-3.04249
-2.48111
-1.79433
-1.05209
38.5724
37.023
35.1647
33.1294
31.0401
28.9222
26.767
24.5738
22.3533
20.1205
17.891
15.6812
13.5093
11.395
9.35914
7.4238
5.61124
3.94347
2.4415
1.12439
0.00824373
-0.892807
-1.56742
-2.01219
-2.23436
-2.24941
-2.08057
-1.75922
-1.32475
-0.836177
38.8043
37.3209
35.5488
33.6099
31.6193
29.6012
27.5474
25.4568
23.339
21.2073
19.0759
16.9597
14.8748
12.8391
10.8713
8.99127
7.2189
5.57399
4.07539
2.74028
1.58322
0.616416
-0.150423
-0.713539
-1.07864
-1.25901
-1.27491
-1.15384
-0.930522
-0.655204
38.9992
37.5696
35.8681
34.0082
32.0984
30.1618
28.1908
26.1839
24.1496
22.1002
20.0486
18.0083
15.9942
14.0222
12.1096
10.2743
8.53452
6.90813
5.41231
4.0627
2.87262
1.85278
1.01146
0.352465
-0.128838
-0.44401
-0.610949
-0.654085
-0.604388
-0.505327
39.1527
37.7658
36.12
34.3227
32.4768
30.6047
28.6991
26.7581
24.7897
22.8051
20.8163
18.8357
16.8771
14.9552
13.086
11.2858
9.5715
7.95964
6.46605
5.10514
3.88924
2.82799
1.92881
1.19493
0.622518
0.20133
-0.0847659
-0.257874
-0.345991
-0.387056
39.2805
37.925
36.3213
34.5709
32.7729
30.949
29.0921
27.2004
25.281
23.3446
21.4024
19.4661
17.5486
15.6637
13.8263
12.052
10.3563
8.75499
7.26275
5.89319
4.65791
3.56571
2.62298
1.83257
1.19118
0.689626
0.313027
0.0408997
-0.152604
-0.300838
39.3618
38.0264
36.4506
34.7321
32.9665
31.175
29.3508
27.492
25.6055
23.7014
21.7904
19.8838
17.9939
16.1339
14.318
12.5612
10.8783
9.28433
7.79341
6.41865
5.17155
4.06075
3.09144
2.26535
1.57935
1.02483
0.587651
0.248061
-0.019213
-0.24654
39.4387
38.1058
36.5441
34.8434
33.0948
31.3196
29.5117
27.6692
25.7987
23.9102
22.014
20.1214
18.2442
16.3955
14.5893
12.84
11.1623
9.5709
8.07939
6.70026
5.44383
4.31859
3.33117
2.48368
1.77258
1.18916
0.71942
0.3437
0.0361741
-0.236973
)
;

boundaryField
{
    inlet
    {
        type            zeroGradient;
    }
    outlet
    {
        type            fixedValue;
        value           uniform 0;
    }
    flap
    {
        type            zeroGradient;
    }
    upperWall
    {
        type            zeroGradient;
    }
    lowerWall
    {
        type            zeroGradient;
    }
    frontAndBack
    {
        type            empty;
    }
}


// ************************************************************************* //
