/*--------------------------------*- C++ -*----------------------------------*\
| =========                 |                                                 |
| \\      /  F ield         | OpenFOAM: The Open Source CFD Toolbox           |
|  \\    /   O peration     | Version:  4.1                                   |
|   \\  /    A nd           | Web:      www.OpenFOAM.org                      |
|    \\/     M anipulation  |                                                 |
\*---------------------------------------------------------------------------*/
FoamFile
{
    version     2.0;
    format      ascii;
    class       volVectorField;
    location    "0.4";
    object      U;
}
// * * * * * * * * * * * * * * * * * * * * * * * * * * * * * * * * * * * * * //

dimensions      [0 1 -1 0 0 0 0];

internalField   nonuniform List<vector> 
12013
(
(0.0999931 4.00598e-06 0)
(0.0999211 1.13831e-05 0)
(0.0997594 1.87817e-05 0)
(0.0995382 2.28108e-05 0)
(0.0993032 2.29899e-05 0)
(0.0990869 2.09747e-05 0)
(0.0988992 1.86638e-05 0)
(0.0987345 1.71174e-05 0)
(0.0985825 1.65268e-05 0)
(0.0984349 1.6636e-05 0)
(0.098287 1.71121e-05 0)
(0.0981372 1.77126e-05 0)
(0.0979851 1.8311e-05 0)
(0.0978314 1.8862e-05 0)
(0.0976765 1.93635e-05 0)
(0.097521 1.98277e-05 0)
(0.0973652 2.02691e-05 0)
(0.0972092 2.06992e-05 0)
(0.0970533 2.11245e-05 0)
(0.0968975 2.15484e-05 0)
(0.0967419 2.19709e-05 0)
(0.0965865 2.23916e-05 0)
(0.0964316 2.28084e-05 0)
(0.0962771 2.322e-05 0)
(0.0961232 2.36251e-05 0)
(0.09597 2.40224e-05 0)
(0.0958176 2.4412e-05 0)
(0.0956662 2.47938e-05 0)
(0.0955158 2.51689e-05 0)
(0.0953665 2.55377e-05 0)
(0.0952184 2.59025e-05 0)
(0.0950716 2.62647e-05 0)
(0.0949261 2.66267e-05 0)
(0.094782 2.69901e-05 0)
(0.0946393 2.73577e-05 0)
(0.094498 2.77319e-05 0)
(0.0943581 2.81155e-05 0)
(0.0942196 2.85109e-05 0)
(0.0940825 2.89221e-05 0)
(0.0939467 2.93519e-05 0)
(0.0938122 2.98051e-05 0)
(0.0936788 3.02873e-05 0)
(0.0935466 3.08049e-05 0)
(0.0934152 3.13659e-05 0)
(0.0932847 3.19797e-05 0)
(0.0931548 3.26578e-05 0)
(0.0930253 3.34132e-05 0)
(0.0928959 3.42627e-05 0)
(0.0927662 3.52246e-05 0)
(0.0926358 3.63225e-05 0)
(0.0925043 3.75828e-05 0)
(0.0923712 3.90378e-05 0)
(0.0922357 4.0726e-05 0)
(0.0920972 4.26932e-05 0)
(0.0919547 4.49949e-05 0)
(0.0918071 4.76981e-05 0)
(0.0916533 5.08839e-05 0)
(0.0914918 5.46515e-05 0)
(0.0913209 5.9123e-05 0)
(0.0911384 6.44488e-05 0)
(0.0909421 7.08174e-05 0)
(0.0907289 7.84652e-05 0)
(0.0904953 8.76928e-05 0)
(0.0902369 9.88866e-05 0)
(0.0899486 0.000112547 0)
(0.0896236 0.000129334 0)
(0.0892538 0.000150125 0)
(0.0888287 0.00017611 0)
(0.0883348 0.000208925 0)
(0.0877546 0.000250864 0)
(0.087065 0.000305201 0)
(0.0862345 0.000376703 0)
(0.0852203 0.000472464 0)
(0.083962 0.000603264 0)
(0.0823737 0.00078585 0)
(0.0803308 0.00104681 0)
(0.077648 0.0014293 0)
(0.0740325 0.00200691 0)
(0.069029 0.0029274 0)
(0.0621014 0.00460223 0)
(0.0542925 0.00888055 0)
(0.0999943 1.21575e-05 0)
(0.0999239 3.47631e-05 0)
(0.0997647 5.74626e-05 0)
(0.0995458 6.98716e-05 0)
(0.0993122 7.04904e-05 0)
(0.0990965 6.43668e-05 0)
(0.0989088 5.73127e-05 0)
(0.0987437 5.258e-05 0)
(0.0985913 5.07628e-05 0)
(0.0984435 5.1086e-05 0)
(0.0982955 5.25329e-05 0)
(0.0981457 5.43635e-05 0)
(0.0979939 5.61905e-05 0)
(0.0978404 5.78754e-05 0)
(0.0976858 5.94091e-05 0)
(0.0975306 6.08304e-05 0)
(0.0973751 6.21834e-05 0)
(0.0972195 6.35021e-05 0)
(0.0970639 6.48066e-05 0)
(0.0969085 6.61066e-05 0)
(0.0967532 6.74032e-05 0)
(0.0965982 6.86942e-05 0)
(0.0964436 6.9974e-05 0)
(0.0962894 7.12377e-05 0)
(0.0961358 7.24816e-05 0)
(0.095983 7.37028e-05 0)
(0.0958309 7.49e-05 0)
(0.0956797 7.60745e-05 0)
(0.0955295 7.72281e-05 0)
(0.0953804 7.83641e-05 0)
(0.0952325 7.94878e-05 0)
(0.0950859 8.06042e-05 0)
(0.0949405 8.17202e-05 0)
(0.0947965 8.28417e-05 0)
(0.0946538 8.39764e-05 0)
(0.0945125 8.51324e-05 0)
(0.0943726 8.63175e-05 0)
(0.094234 8.75402e-05 0)
(0.0940967 8.88106e-05 0)
(0.0939607 9.01397e-05 0)
(0.0938259 9.15417e-05 0)
(0.0936923 9.30331e-05 0)
(0.0935597 9.46339e-05 0)
(0.093428 9.63684e-05 0)
(0.093297 9.82657e-05 0)
(0.0931666 0.00010036 0)
(0.0930366 0.000102693 0)
(0.0929065 0.000105315 0)
(0.0927761 0.000108282 0)
(0.0926451 0.000111666 0)
(0.0925129 0.000115547 0)
(0.092379 0.000120026 0)
(0.0922427 0.000125217 0)
(0.0921034 0.000131263 0)
(0.09196 0.000138331 0)
(0.0918117 0.000146626 0)
(0.0916572 0.000156393 0)
(0.091495 0.000167934 0)
(0.0913236 0.000181619 0)
(0.0911408 0.000197904 0)
(0.0909445 0.000217358 0)
(0.0907316 0.000240694 0)
(0.0904989 0.000268817 0)
(0.0902423 0.000302884 0)
(0.0899567 0.000344394 0)
(0.0896359 0.00039531 0)
(0.0892724 0.000458234 0)
(0.0888565 0.000536673 0)
(0.0883762 0.000635418 0)
(0.0878159 0.000761123 0)
(0.0871554 0.000923191 0)
(0.0863684 0.00113514 0)
(0.0854199 0.00141672 0)
(0.0842631 0.00179732 0)
(0.0828355 0.00232116 0)
(0.0810538 0.00305548 0)
(0.0788092 0.00410198 0)
(0.075959 0.00561228 0)
(0.0723448 0.00780735 0)
(0.0680198 0.0109403 0)
(0.0642585 0.0148644 0)
(0.0999952 2.03879e-05 0)
(0.0999285 5.90564e-05 0)
(0.099775 9.8003e-05 0)
(0.0995617 0.000119531 0)
(0.0993319 0.000120926 0)
(0.0991177 0.000110701 0)
(0.0989298 9.87549e-05 0)
(0.0987638 9.0677e-05 0)
(0.0986105 8.75288e-05 0)
(0.098462 8.80236e-05 0)
(0.0983138 9.04449e-05 0)
(0.0981641 9.35365e-05 0)
(0.0980126 9.66367e-05 0)
(0.0978597 9.9506e-05 0)
(0.0977058 0.000102125 0)
(0.0975513 0.000104558 0)
(0.0973966 0.000106878 0)
(0.0972417 0.000109141 0)
(0.0970869 0.000111383 0)
(0.0969322 0.000113617 0)
(0.0967777 0.000115847 0)
(0.0966235 0.000118068 0)
(0.0964696 0.000120271 0)
(0.0963162 0.000122448 0)
(0.0961634 0.000124592 0)
(0.0960112 0.000126699 0)
(0.0958597 0.000128767 0)
(0.0957092 0.000130798 0)
(0.0955596 0.000132795 0)
(0.095411 0.000134764 0)
(0.0952636 0.000136715 0)
(0.0951174 0.000138655 0)
(0.0949724 0.000140596 0)
(0.0948286 0.00014255 0)
(0.0946862 0.000144529 0)
(0.094545 0.000146548 0)
(0.0944051 0.000148618 0)
(0.0942665 0.000150755 0)
(0.0941291 0.000152977 0)
(0.0939929 0.000155304 0)
(0.0938578 0.000157758 0)
(0.0937238 0.000160368 0)
(0.0935907 0.000163169 0)
(0.0934585 0.000166202 0)
(0.0933268 0.000169517 0)
(0.0931957 0.000173174 0)
(0.0930647 0.000177242 0)
(0.0929337 0.000181807 0)
(0.0928023 0.000186968 0)
(0.0926702 0.000192843 0)
(0.0925368 0.000199573 0)
(0.0924016 0.000207324 0)
(0.0922641 0.000216296 0)
(0.0921234 0.000226726 0)
(0.0919788 0.0002389 0)
(0.0918292 0.000253161 0)
(0.0916736 0.000269925 0)
(0.0915104 0.000289699 0)
(0.0913382 0.000313101 0)
(0.0911551 0.000340894 0)
(0.0909588 0.000374024 0)
(0.0907467 0.000413675 0)
(0.0905158 0.000461336 0)
(0.0902623 0.000518907 0)
(0.0899817 0.000588825 0)
(0.0896686 0.000674258 0)
(0.0893163 0.000779371 0)
(0.0889168 0.000909703 0)
(0.08846 0.00107272 0)
(0.0879337 0.0012786 0)
(0.0873227 0.00154145 0)
(0.0866082 0.00188097 0)
(0.085767 0.00232502 0)
(0.0847718 0.00291322 0)
(0.083591 0.00370181 0)
(0.0821922 0.00476954 0)
(0.0805509 0.00622221 0)
(0.0786661 0.00818948 0)
(0.0766031 0.0107994 0)
(0.0746222 0.0140577 0)
(0.0734129 0.0173676 0)
(0.0999962 2.8444e-05 0)
(0.0999347 8.37007e-05 0)
(0.0997904 0.000139677 0)
(0.0995863 0.000171213 0)
(0.0993628 0.000174055 0)
(0.0991513 0.000160057 0)
(0.0989632 0.000143271 0)
(0.0987958 0.000131752 0)
(0.098641 0.000127141 0)
(0.0984915 0.000127701 0)
(0.098343 0.000131035 0)
(0.0981935 0.000135366 0)
(0.0980426 0.000139747 0)
(0.0978906 0.000143829 0)
(0.0977377 0.000147574 0)
(0.0975844 0.000151066 0)
(0.0974309 0.000154405 0)
(0.0972773 0.000157668 0)
(0.0971237 0.000160904 0)
(0.0969703 0.000164131 0)
(0.096817 0.000167355 0)
(0.096664 0.000170567 0)
(0.0965114 0.000173757 0)
(0.0963592 0.000176911 0)
(0.0962076 0.000180022 0)
(0.0960565 0.000183082 0)
(0.0959062 0.000186091 0)
(0.0957567 0.000189051 0)
(0.0956082 0.000191967 0)
(0.0954606 0.000194847 0)
(0.095314 0.000197705 0)
(0.0951685 0.000200554 0)
(0.0950242 0.000203408 0)
(0.0948811 0.000206287 0)
(0.0947391 0.000209207 0)
(0.0945983 0.000212187 0)
(0.0944587 0.000215248 0)
(0.0943203 0.000218412 0)
(0.0941829 0.000221702 0)
(0.0940467 0.000225148 0)
(0.0939115 0.000228784 0)
(0.0937771 0.00023265 0)
(0.0936436 0.000236797 0)
(0.0935108 0.000241284 0)
(0.0933785 0.000246183 0)
(0.0932466 0.000251578 0)
(0.0931148 0.000257572 0)
(0.0929828 0.000264285 0)
(0.0928503 0.00027186 0)
(0.0927169 0.000280464 0)
(0.0925823 0.000290298 0)
(0.0924458 0.000301598 0)
(0.092307 0.000314647 0)
(0.092165 0.000329781 0)
(0.0920191 0.000347403 0)
(0.0918684 0.000367995 0)
(0.0917117 0.000392141 0)
(0.0915479 0.000420546 0)
(0.0913754 0.000454073 0)
(0.0911926 0.000493776 0)
(0.0909975 0.000540956 0)
(0.0907877 0.000597231 0)
(0.0905605 0.000664623 0)
(0.0903129 0.000745686 0)
(0.0900409 0.000843666 0)
(0.0897401 0.000962732 0)
(0.0894055 0.00110828 0)
(0.0890308 0.00128738 0)
(0.0886089 0.00150935 0)
(0.0881317 0.0017866 0)
(0.08759 0.00213578 0)
(0.0869736 0.00257934 0)
(0.0862727 0.00314754 0)
(0.085479 0.00388092 0)
(0.0845893 0.00483267 0)
(0.0836119 0.00606958 0)
(0.0825776 0.00766755 0)
(0.081556 0.00969358 0)
(0.0806787 0.0121588 0)
(0.080165 0.0149054 0)
(0.0802844 0.01736 0)
(0.0999971 3.60911e-05 0)
(0.0999426 0.000108 0)
(0.0998105 0.00018157 0)
(0.0996191 0.000224153 0)
(0.0994046 0.000229501 0)
(0.099197 0.000212456 0)
(0.0990091 0.000191136 0)
(0.09884 0.000176169 0)
(0.0986832 0.000169941 0)
(0.0985324 0.000170386 0)
(0.0983835 0.000174491 0)
(0.0982343 0.000179975 0)
(0.0980843 0.000185601 0)
(0.0979336 0.000190893 0)
(0.0977822 0.000195786 0)
(0.0976305 0.000200374 0)
(0.0974787 0.000204778 0)
(0.0973269 0.000209093 0)
(0.0971751 0.000213377 0)
(0.0970234 0.000217656 0)
(0.096872 0.000221933 0)
(0.0967208 0.000226198 0)
(0.0965699 0.000230438 0)
(0.0964194 0.000234637 0)
(0.0962695 0.000238783 0)
(0.0961201 0.00024287 0)
(0.0959715 0.000246895 0)
(0.0958235 0.000250863 0)
(0.0956764 0.000254781 0)
(0.0955302 0.000258661 0)
(0.095385 0.000262519 0)
(0.0952407 0.000266373 0)
(0.0950975 0.000270244 0)
(0.0949553 0.000274154 0)
(0.0948142 0.000278127 0)
(0.0946742 0.000282188 0)
(0.0945352 0.000286364 0)
(0.0943972 0.000290683 0)
(0.0942602 0.000295178 0)
(0.0941242 0.000299888 0)
(0.093989 0.000304856 0)
(0.0938547 0.000310138 0)
(0.093721 0.000315799 0)
(0.0935878 0.000321918 0)
(0.0934551 0.000328589 0)
(0.0933226 0.000335924 0)
(0.0931901 0.000344056 0)
(0.0930573 0.000353141 0)
(0.0929239 0.000363367 0)
(0.0927896 0.000374951 0)
(0.092654 0.000388154 0)
(0.0925165 0.000403283 0)
(0.0923766 0.0004207 0)
(0.0922337 0.000440839 0)
(0.0920871 0.000464216 0)
(0.0919358 0.000491446 0)
(0.0917789 0.00052327 0)
(0.0916153 0.000560581 0)
(0.0914437 0.000604459 0)
(0.0912627 0.000656222 0)
(0.0910706 0.00071748 0)
(0.0908653 0.000790218 0)
(0.0906449 0.000876894 0)
(0.0904066 0.00098057 0)
(0.0901478 0.00110509 0)
(0.0898652 0.00125531 0)
(0.0895554 0.0014374 0)
(0.0892145 0.00165925 0)
(0.0888386 0.00193099 0)
(0.088424 0.00226568 0)
(0.0879673 0.0026802 0)
(0.0874669 0.00319621 0)
(0.0869242 0.0038413 0)
(0.0863459 0.00464978 0)
(0.0857482 0.0056625 0)
(0.0851618 0.00692395 0)
(0.0846402 0.00847339 0)
(0.0842661 0.0103243 0)
(0.084155 0.0124248 0)
(0.0844394 0.0145908 0)
(0.0851955 0.0164234 0)
(0.099998 4.30637e-05 0)
(0.0999516 0.000131201 0)
(0.0998344 0.000222671 0)
(0.0996587 0.000277461 0)
(0.0994557 0.000286771 0)
(0.0992535 0.000267833 0)
(0.0990663 0.000242574 0)
(0.0988955 0.000224269 0)
(0.0987366 0.000216259 0)
(0.0985845 0.000216341 0)
(0.0984351 0.000220994 0)
(0.0982865 0.000227475 0)
(0.0981377 0.000234257 0)
(0.0979886 0.000240724 0)
(0.0978392 0.000246767 0)
(0.0976896 0.000252475 0)
(0.09754 0.000257981 0)
(0.0973904 0.000263394 0)
(0.0972409 0.000268778 0)
(0.0970916 0.000274163 0)
(0.0969424 0.000279551 0)
(0.0967936 0.000284931 0)
(0.096645 0.000290286 0)
(0.0964968 0.000295597 0)
(0.0963491 0.00030085 0)
(0.096202 0.000306039 0)
(0.0960554 0.000311163 0)
(0.0959095 0.000316225 0)
(0.0957644 0.000321238 0)
(0.0956201 0.000326215 0)
(0.0954766 0.000331177 0)
(0.095334 0.000336147 0)
(0.0951923 0.00034115 0)
(0.0950516 0.000346214 0)
(0.0949117 0.000351368 0)
(0.0947728 0.000356644 0)
(0.0946348 0.000362074 0)
(0.0944977 0.000367695 0)
(0.0943614 0.000373549 0)
(0.094226 0.000379682 0)
(0.0940912 0.000386151 0)
(0.0939571 0.000393024 0)
(0.0938236 0.000400384 0)
(0.0936905 0.000408328 0)
(0.0935577 0.000416973 0)
(0.0934249 0.000426459 0)
(0.0932921 0.000436949 0)
(0.0931589 0.000448636 0)
(0.0930251 0.00046175 0)
(0.0928904 0.00047656 0)
(0.0927542 0.000493383 0)
(0.0926163 0.000512591 0)
(0.0924761 0.000534627 0)
(0.0923331 0.000560011 0)
(0.0921865 0.000589365 0)
(0.0920357 0.000623423 0)
(0.0918798 0.000663065 0)
(0.091718 0.000709344 0)
(0.091549 0.000763525 0)
(0.0913718 0.000827133 0)
(0.0911851 0.000902019 0)
(0.0909873 0.000990434 0)
(0.090777 0.00109513 0)
(0.0905525 0.00121948 0)
(0.0903119 0.00136766 0)
(0.0900534 0.0015448 0)
(0.0897755 0.0017573 0)
(0.0894765 0.0020131 0)
(0.0891558 0.00232204 0)
(0.0888134 0.00269635 0)
(0.0884513 0.00315105 0)
(0.0880743 0.00370438 0)
(0.0876915 0.00437795 0)
(0.0873188 0.00519629 0)
(0.0869812 0.00618505 0)
(0.0867166 0.00736676 0)
(0.0865784 0.00875204 0)
(0.0866357 0.0103241 0)
(0.086967 0.0120148 0)
(0.0876379 0.0136754 0)
(0.0886511 0.01506 0)
(0.0999989 4.9111e-05 0)
(0.0999611 0.000152588 0)
(0.0998604 0.000261978 0)
(0.0997026 0.000330197 0)
(0.0995132 0.000345273 0)
(0.0993181 0.000326004 0)
(0.0991324 0.000297701 0)
(0.0989604 0.000276312 0)
(0.0987997 0.000266373 0)
(0.0986463 0.000265794 0)
(0.0984968 0.000270702 0)
(0.0983489 0.000277959 0)
(0.0982017 0.000285757 0)
(0.0980547 0.000293329 0)
(0.0979077 0.000300497 0)
(0.0977607 0.000307335 0)
(0.0976138 0.000313972 0)
(0.0974669 0.000320523 0)
(0.0973202 0.000327054 0)
(0.0971737 0.000333597 0)
(0.0970274 0.000340152 0)
(0.0968813 0.000346707 0)
(0.0967356 0.00035324 0)
(0.0965902 0.000359732 0)
(0.0964452 0.000366168 0)
(0.0963008 0.00037254 0)
(0.0961568 0.000378848 0)
(0.0960135 0.000385099 0)
(0.0958708 0.000391306 0)
(0.0957289 0.000397488 0)
(0.0955876 0.000403669 0)
(0.0954471 0.000409876 0)
(0.0953074 0.00041614 0)
(0.0951684 0.000422492 0)
(0.0950303 0.000428969 0)
(0.0948929 0.000435607 0)
(0.0947563 0.000442446 0)
(0.0946204 0.00044953 0)
(0.0944853 0.000456907 0)
(0.0943508 0.000464637 0)
(0.0942169 0.000472786 0)
(0.0940835 0.000481437 0)
(0.0939505 0.000490688 0)
(0.0938179 0.000500656 0)
(0.0936854 0.00051148 0)
(0.093553 0.000523326 0)
(0.0934204 0.000536388 0)
(0.0932874 0.000550896 0)
(0.0931537 0.000567116 0)
(0.0930191 0.000585366 0)
(0.0928832 0.000606014 0)
(0.0927457 0.000629496 0)
(0.0926061 0.00065632 0)
(0.092464 0.000687086 0)
(0.0923187 0.000722503 0)
(0.0921697 0.000763404 0)
(0.0920164 0.000810778 0)
(0.091858 0.000865799 0)
(0.0916938 0.000929864 0)
(0.0915228 0.00100464 0)
(0.0913443 0.00109211 0)
(0.0911573 0.00119468 0)
(0.090961 0.00131522 0)
(0.0907544 0.00145717 0)
(0.0905369 0.00162472 0)
(0.0903081 0.00182289 0)
(0.090068 0.00205774 0)
(0.0898172 0.0023365 0)
(0.0895575 0.00266785 0)
(0.0892922 0.003062 0)
(0.0890268 0.00353077 0)
(0.0887702 0.00408757 0)
(0.0885356 0.00474683 0)
(0.0883418 0.00552297 0)
(0.0882151 0.00642816 0)
(0.0881903 0.00746842 0)
(0.0883105 0.00863727 0)
(0.088624 0.0099064 0)
(0.0891767 0.0112144 0)
(0.0899953 0.0124573 0)
(0.0910608 0.0134915 0)
(0.0999997 5.40534e-05 0)
(0.0999705 0.000171591 0)
(0.0998866 0.000298627 0)
(0.0997478 0.000381471 0)
(0.0995735 0.000404348 0)
(0.099387 0.000386641 0)
(0.0992043 0.000356474 0)
(0.0990321 0.000332419 0)
(0.0988702 0.00032046 0)
(0.098716 0.000318906 0)
(0.0985667 0.00032373 0)
(0.09842 0.000331491 0)
(0.0982747 0.000340123 0)
(0.0981301 0.000348696 0)
(0.0979859 0.000356945 0)
(0.0978419 0.000364904 0)
(0.0976981 0.00037269 0)
(0.0975545 0.00038041 0)
(0.097411 0.000388131 0)
(0.0972678 0.00039588 0)
(0.0971248 0.000403657 0)
(0.096982 0.000411445 0)
(0.0968395 0.000419221 0)
(0.0966973 0.000426965 0)
(0.0965556 0.00043466 0)
(0.0964142 0.000442299 0)
(0.0962734 0.000449884 0)
(0.096133 0.000457424 0)
(0.0959932 0.000464935 0)
(0.095854 0.000472439 0)
(0.0957153 0.000479963 0)
(0.0955773 0.00048754 0)
(0.09544 0.000495203 0)
(0.0953033 0.000502991 0)
(0.0951672 0.000510943 0)
(0.0950317 0.000519101 0)
(0.0948969 0.000527513 0)
(0.0947627 0.000536229 0)
(0.0946291 0.000545306 0)
(0.0944959 0.000554811 0)
(0.0943633 0.000564825 0)
(0.0942311 0.000575442 0)
(0.0940991 0.000586776 0)
(0.0939674 0.000598963 0)
(0.0938359 0.000612163 0)
(0.0937043 0.000626565 0)
(0.0935724 0.000642392 0)
(0.0934403 0.000659905 0)
(0.0933075 0.000679407 0)
(0.0931738 0.000701256 0)
(0.0930391 0.000725866 0)
(0.0929029 0.000753721 0)
(0.092765 0.000785386 0)
(0.092625 0.000821522 0)
(0.0924824 0.0008629 0)
(0.0923368 0.000910425 0)
(0.0921879 0.000965157 0)
(0.092035 0.00102834 0)
(0.0918777 0.00110143 0)
(0.0917156 0.00118615 0)
(0.0915483 0.00128453 0)
(0.0913753 0.00139895 0)
(0.0911965 0.00153221 0)
(0.0910119 0.00168761 0)
(0.0908218 0.00186903 0)
(0.0906269 0.00208099 0)
(0.0904287 0.00232873 0)
(0.0902295 0.00261828 0)
(0.0900329 0.00295647 0)
(0.0898443 0.00335088 0)
(0.089671 0.00380964 0)
(0.0895235 0.00434107 0)
(0.0894157 0.00495294 0)
(0.0893657 0.00565129 0)
(0.0893962 0.00643853 0)
(0.0895344 0.00731067 0)
(0.0898106 0.00825358 0)
(0.0902546 0.00923847 0)
(0.09089 0.0102177 0)
(0.091724 0.0111238 0)
(0.0927358 0.0118748 0)
(0.1 5.78209e-05 0)
(0.099979 0.00018787 0)
(0.0999111 0.000332012 0)
(0.0997913 0.000430543 0)
(0.0996329 0.000463325 0)
(0.0994564 0.000449281 0)
(0.0992783 0.000418655 0)
(0.0991072 0.000392526 0)
(0.0989452 0.000378553 0)
(0.098791 0.000375741 0)
(0.0986424 0.000380132 0)
(0.0984973 0.0003881 0)
(0.0983543 0.000397355 0)
(0.0982125 0.000406798 0)
(0.0980714 0.000416062 0)
(0.0979308 0.000425122 0)
(0.0977906 0.000434063 0)
(0.0976505 0.000442978 0)
(0.0975107 0.000451924 0)
(0.0973712 0.000460925 0)
(0.0972318 0.000469975 0)
(0.0970927 0.000479055 0)
(0.0969538 0.00048814 0)
(0.0968153 0.000497208 0)
(0.0966771 0.000506243 0)
(0.0965392 0.000515239 0)
(0.0964018 0.0005242 0)
(0.0962647 0.000533136 0)
(0.0961281 0.000542066 0)
(0.095992 0.000551017 0)
(0.0958564 0.000560019 0)
(0.0957212 0.000569107 0)
(0.0955866 0.000578319 0)
(0.0954524 0.000587697 0)
(0.0953187 0.000597285 0)
(0.0951856 0.000607131 0)
(0.0950529 0.000617286 0)
(0.0949207 0.000627808 0)
(0.094789 0.000638762 0)
(0.0946577 0.000650224 0)
(0.0945267 0.000662285 0)
(0.094396 0.000675051 0)
(0.0942657 0.000688651 0)
(0.0941354 0.000703236 0)
(0.0940053 0.000718986 0)
(0.0938751 0.00073611 0)
(0.0937447 0.000754856 0)
(0.0936141 0.000775511 0)
(0.093483 0.000798407 0)
(0.0933512 0.000823933 0)
(0.0932185 0.000852538 0)
(0.0930848 0.000884741 0)
(0.0929497 0.000921145 0)
(0.0928131 0.000962448 0)
(0.0926747 0.00100946 0)
(0.0925342 0.00106311 0)
(0.0923915 0.00112448 0)
(0.0922462 0.00119484 0)
(0.0920982 0.00127562 0)
(0.0919475 0.00136851 0)
(0.091794 0.00147545 0)
(0.091638 0.00159865 0)
(0.0914798 0.00174069 0)
(0.0913203 0.00190449 0)
(0.0911605 0.00209337 0)
(0.0910021 0.00231104 0)
(0.0908477 0.00256164 0)
(0.0907005 0.00284966 0)
(0.0905653 0.00317985 0)
(0.0904481 0.00355704 0)
(0.090357 0.00398585 0)
(0.0903019 0.00447018 0)
(0.0902955 0.00501258 0)
(0.0903528 0.00561324 0)
(0.090491 0.00626871 0)
(0.0907291 0.00697031 0)
(0.0910861 0.0077023 0)
(0.0915785 0.00844022 0)
(0.0922163 0.00915006 0)
(0.0929984 0.00978942 0)
(0.0939074 0.0103121 0)
(0.100001 6.04624e-05 0)
(0.0999861 0.000201354 0)
(0.0999325 0.000361846 0)
(0.0998304 0.0004769 0)
(0.099688 0.000521585 0)
(0.0995227 0.00051335 0)
(0.0993507 0.000483817 0)
(0.0991824 0.000456371 0)
(0.0990217 0.000440519 0)
(0.0988686 0.000436245 0)
(0.0987214 0.000439892 0)
(0.0985784 0.000447773 0)
(0.0984381 0.00045743 0)
(0.0982995 0.000467601 0)
(0.0981619 0.0004778 0)
(0.0980249 0.000487924 0)
(0.0978885 0.000498017 0)
(0.0977524 0.000508145 0)
(0.0976165 0.000518349 0)
(0.0974809 0.000528643 0)
(0.0973455 0.000539017 0)
(0.0972103 0.000549448 0)
(0.0970754 0.000559909 0)
(0.0969408 0.000570378 0)
(0.0968064 0.000580839 0)
(0.0966723 0.000591287 0)
(0.0965386 0.000601727 0)
(0.0964051 0.000612173 0)
(0.096272 0.000622648 0)
(0.0961392 0.000633178 0)
(0.0960068 0.000643799 0)
(0.0958748 0.000654546 0)
(0.0957431 0.000665462 0)
(0.0956118 0.000676591 0)
(0.0954809 0.000687981 0)
(0.0953504 0.000699684 0)
(0.0952202 0.000711755 0)
(0.0950904 0.000724258 0)
(0.0949609 0.000737264 0)
(0.0948317 0.000750857 0)
(0.0947029 0.000765137 0)
(0.0945743 0.000780221 0)
(0.0944459 0.000796248 0)
(0.0943177 0.000813384 0)
(0.0941895 0.000831823 0)
(0.0940614 0.000851792 0)
(0.0939332 0.000873554 0)
(0.0938048 0.000897416 0)
(0.0936762 0.000923731 0)
(0.0935471 0.000952907 0)
(0.0934176 0.000985411 0)
(0.0932874 0.00102178 0)
(0.0931565 0.00106264 0)
(0.0930247 0.00110868 0)
(0.0928919 0.00116073 0)
(0.0927582 0.00121969 0)
(0.0926234 0.00128664 0)
(0.0924877 0.00136276 0)
(0.0923511 0.00144941 0)
(0.092214 0.00154815 0)
(0.0920767 0.0016607 0)
(0.09194 0.00178901 0)
(0.0918047 0.00193525 0)
(0.0916722 0.00210181 0)
(0.0915442 0.00229126 0)
(0.091423 0.00250638 0)
(0.0913117 0.00275005 0)
(0.0912141 0.00302515 0)
(0.0911352 0.00333444 0)
(0.0910809 0.0036803 0)
(0.0910586 0.00406444 0)
(0.091077 0.0044875 0)
(0.0911462 0.0049485 0)
(0.0912774 0.00544422 0)
(0.0914825 0.00596848 0)
(0.0917733 0.00651139 0)
(0.0921606 0.0070587 0)
(0.0926521 0.00759152 0)
(0.0932507 0.00808662 0)
(0.093952 0.0085179 0)
(0.0947426 0.00885916 0)
(0.100001 6.2127e-05 0)
(0.0999916 0.000212225 0)
(0.0999499 0.000388162 0)
(0.0998637 0.000520292 0)
(0.0997366 0.000578618 0)
(0.0995831 0.000578229 0)
(0.0994189 0.000551387 0)
(0.0992551 0.000523517 0)
(0.0990972 0.00050607 0)
(0.0989462 0.000500251 0)
(0.0988014 0.000502913 0)
(0.098661 0.000510453 0)
(0.0985238 0.000520304 0)
(0.0983886 0.000531057 0)
(0.0982547 0.000542102 0)
(0.0981217 0.000553249 0)
(0.0979893 0.000564483 0)
(0.0978573 0.000575834 0)
(0.0977256 0.000587324 0)
(0.0975942 0.000598952 0)
(0.097463 0.000610701 0)
(0.097332 0.000622544 0)
(0.0972013 0.000634451 0)
(0.0970707 0.000646401 0)
(0.0969404 0.000658378 0)
(0.0968103 0.000670379 0)
(0.0966804 0.00068241 0)
(0.0965507 0.000694488 0)
(0.0964213 0.000706636 0)
(0.0962921 0.000718885 0)
(0.0961632 0.000731269 0)
(0.0960345 0.000743829 0)
(0.095906 0.000756608 0)
(0.0957778 0.000769652 0)
(0.0956499 0.00078301 0)
(0.0955222 0.000796737 0)
(0.0953948 0.000810893 0)
(0.0952677 0.000825543 0)
(0.0951409 0.000840766 0)
(0.0950143 0.00085665 0)
(0.0948879 0.000873301 0)
(0.0947618 0.000890845 0)
(0.0946359 0.00090943 0)
(0.0945102 0.000929229 0)
(0.0943847 0.000950447 0)
(0.0942593 0.00097332 0)
(0.0941339 0.000998122 0)
(0.0940086 0.00102517 0)
(0.0938833 0.00105482 0)
(0.093758 0.00108749 0)
(0.0936326 0.00112364 0)
(0.0935071 0.00116382 0)
(0.0933815 0.00120863 0)
(0.0932559 0.00125875 0)
(0.0931303 0.00131495 0)
(0.0930048 0.0013781 0)
(0.0928797 0.00144917 0)
(0.0927553 0.00152924 0)
(0.0926319 0.00161952 0)
(0.0925101 0.00172132 0)
(0.0923908 0.00183609 0)
(0.0922749 0.0019654 0)
(0.0921637 0.00211091 0)
(0.0920589 0.00227438 0)
(0.0919626 0.00245759 0)
(0.0918774 0.00266232 0)
(0.0918064 0.00289023 0)
(0.0917536 0.00314277 0)
(0.0917235 0.00342098 0)
(0.0917214 0.00372534 0)
(0.0917535 0.00405549 0)
(0.0918265 0.00440992 0)
(0.0919479 0.00478572 0)
(0.0921253 0.00517813 0)
(0.0923661 0.00558033 0)
(0.092677 0.00598313 0)
(0.0930631 0.00637494 0)
(0.0935272 0.00674196 0)
(0.0940686 0.00706879 0)
(0.094682 0.00733946 0)
(0.0953574 0.00753903 0)
(0.100001 6.30226e-05 0)
(0.0999954 0.000220845 0)
(0.0999632 0.000411252 0)
(0.0998905 0.00056071 0)
(0.0997776 0.000634056 0)
(0.0996362 0.000643317 0)
(0.099481 0.000620718 0)
(0.0993233 0.000593406 0)
(0.0991696 0.000574797 0)
(0.099022 0.000567486 0)
(0.0988802 0.00056903 0)
(0.0987431 0.000576037 0)
(0.0986093 0.000585904 0)
(0.0984778 0.000597106 0)
(0.0983479 0.00060891 0)
(0.098219 0.000621032 0)
(0.0980908 0.000633391 0)
(0.0979631 0.000645973 0)
(0.0978358 0.000658774 0)
(0.0977087 0.000671776 0)
(0.0975819 0.000684952 0)
(0.0974553 0.000698269 0)
(0.0973288 0.000711698 0)
(0.0972025 0.000725214 0)
(0.0970764 0.000738803 0)
(0.0969504 0.000752463 0)
(0.0968245 0.000766202 0)
(0.0966988 0.000780037 0)
(0.0965732 0.000793994 0)
(0.0964477 0.000808103 0)
(0.0963224 0.000822401 0)
(0.0961972 0.000836928 0)
(0.0960722 0.000851727 0)
(0.0959473 0.000866845 0)
(0.0958226 0.000882332 0)
(0.095698 0.000898244 0)
(0.0955737 0.000914641 0)
(0.0954496 0.000931591 0)
(0.0953257 0.000949176 0)
(0.0952021 0.000967486 0)
(0.0950787 0.000986632 0)
(0.0949555 0.00100674 0)
(0.0948326 0.00102797 0)
(0.09471 0.00105049 0)
(0.0945877 0.00107451 0)
(0.0944656 0.00110027 0)
(0.0943439 0.00112804 0)
(0.0942224 0.00115814 0)
(0.0941014 0.00119091 0)
(0.0939807 0.00122677 0)
(0.0938604 0.00126616 0)
(0.0937407 0.00130959 0)
(0.0936217 0.00135763 0)
(0.0935035 0.0014109 0)
(0.0933864 0.0014701 0)
(0.0932706 0.00153599 0)
(0.0931566 0.00160942 0)
(0.0930448 0.0016913 0)
(0.092936 0.0017826 0)
(0.0928309 0.00188436 0)
(0.0927304 0.00199769 0)
(0.0926359 0.0021237 0)
(0.0925489 0.00226353 0)
(0.0924712 0.00241828 0)
(0.092405 0.00258896 0)
(0.0923529 0.00277643 0)
(0.0923179 0.0029813 0)
(0.0923034 0.00320385 0)
(0.0923134 0.00344385 0)
(0.0923523 0.00370045 0)
(0.0924246 0.00397203 0)
(0.0925353 0.00425596 0)
(0.0926893 0.0045485 0)
(0.0928914 0.00484466 0)
(0.0931458 0.00513809 0)
(0.0934556 0.00542114 0)
(0.0938227 0.00568497 0)
(0.0942471 0.0059199 0)
(0.0947266 0.00611587 0)
(0.0952563 0.00626319 0)
(0.0958288 0.00635329 0)
(0.100001 6.3372e-05 0)
(0.0999978 0.000227667 0)
(0.0999727 0.000431571 0)
(0.0999112 0.000598338 0)
(0.0998112 0.000687688 0)
(0.0996817 0.000708096 0)
(0.0995361 0.000691165 0)
(0.0993857 0.000665432 0)
(0.0992375 0.000646215 0)
(0.0990943 0.000637607 0)
(0.0989565 0.000638014 0)
(0.0988231 0.000644376 0)
(0.0986932 0.000654132 0)
(0.0985658 0.000665673 0)
(0.09844 0.000678158 0)
(0.0983154 0.000691209 0)
(0.0981915 0.000704675 0)
(0.0980683 0.000718493 0)
(0.0979454 0.000732628 0)
(0.0978228 0.000747043 0)
(0.0977004 0.000761699 0)
(0.0975782 0.000776558 0)
(0.0974561 0.000791586 0)
(0.0973342 0.000806759 0)
(0.0972123 0.000822062 0)
(0.0970905 0.000837493 0)
(0.0969688 0.000853061 0)
(0.0968471 0.000868783 0)
(0.0967254 0.000884685 0)
(0.0966038 0.000900797 0)
(0.0964823 0.000917156 0)
(0.0963608 0.0009338 0)
(0.0962393 0.00095077 0)
(0.096118 0.000968114 0)
(0.0959967 0.000985879 0)
(0.0958756 0.00100412 0)
(0.0957546 0.0010229 0)
(0.0956338 0.00104227 0)
(0.0955133 0.00106234 0)
(0.0953929 0.00108317 0)
(0.0952729 0.00110489 0)
(0.0951532 0.00112763 0)
(0.0950338 0.00115152 0)
(0.0949149 0.00117675 0)
(0.0947964 0.00120352 0)
(0.0946784 0.00123205 0)
(0.094561 0.00126262 0)
(0.0944443 0.00129551 0)
(0.0943283 0.00133106 0)
(0.0942132 0.00136964 0)
(0.0940991 0.00141166 0)
(0.0939863 0.00145758 0)
(0.0938749 0.0015079 0)
(0.0937652 0.00156316 0)
(0.0936577 0.00162394 0)
(0.0935528 0.00169088 0)
(0.093451 0.00176464 0)
(0.0933529 0.00184592 0)
(0.0932594 0.00193544 0)
(0.0931714 0.00203392 0)
(0.0930901 0.00214209 0)
(0.0930168 0.00226063 0)
(0.092953 0.00239013 0)
(0.0929007 0.0025311 0)
(0.0928618 0.00268387 0)
(0.0928388 0.00284854 0)
(0.0928342 0.00302492 0)
(0.092851 0.00321242 0)
(0.0928922 0.00340999 0)
(0.0929611 0.00361603 0)
(0.0930609 0.00382825 0)
(0.093195 0.00404367 0)
(0.0933664 0.00425849 0)
(0.0935776 0.00446814 0)
(0.0938307 0.00466727 0)
(0.0941267 0.00484992 0)
(0.0944658 0.00500963 0)
(0.0948466 0.00513979 0)
(0.0952666 0.00523397 0)
(0.0957216 0.00528629 0)
(0.0962061 0.00529184 0)
(0.100001 6.33775e-05 0)
(0.0999992 0.000233156 0)
(0.0999793 0.000449643 0)
(0.0999268 0.000633481 0)
(0.0998379 0.000739448 0)
(0.0997198 0.000772162 0)
(0.0995842 0.000762149 0)
(0.099442 0.000738998 0)
(0.0993003 0.000719814 0)
(0.0991624 0.000710227 0)
(0.0990292 0.000709591 0)
(0.0989002 0.000715283 0)
(0.0987745 0.000724855 0)
(0.0986513 0.000736657 0)
(0.0985299 0.000749762 0)
(0.0984097 0.000763703 0)
(0.0982903 0.000778259 0)
(0.0981715 0.000793319 0)
(0.0980532 0.000808811 0)
(0.0979352 0.00082468 0)
(0.0978173 0.000840872 0)
(0.0976996 0.000857342 0)
(0.097582 0.000874051 0)
(0.0974645 0.000890974 0)
(0.097347 0.000908095 0)
(0.0972295 0.000925412 0)
(0.0971119 0.000942931 0)
(0.0969944 0.00096067 0)
(0.0968768 0.000978653 0)
(0.0967592 0.000996908 0)
(0.0966415 0.00101547 0)
(0.0965238 0.00103437 0)
(0.0964062 0.00105365 0)
(0.0962885 0.00107336 0)
(0.096171 0.00109353 0)
(0.0960535 0.00111422 0)
(0.0959362 0.00113548 0)
(0.0958191 0.00115739 0)
(0.0957022 0.00118 0)
(0.0955857 0.00120342 0)
(0.0954695 0.00122775 0)
(0.0953537 0.00125309 0)
(0.0952384 0.00127961 0)
(0.0951238 0.00130745 0)
(0.0950098 0.00133681 0)
(0.0948965 0.0013679 0)
(0.0947842 0.00140096 0)
(0.094673 0.00143625 0)
(0.0945629 0.00147407 0)
(0.0944543 0.00151474 0)
(0.0943473 0.00155862 0)
(0.0942423 0.00160608 0)
(0.0941395 0.00165753 0)
(0.0940394 0.00171341 0)
(0.0939424 0.00177416 0)
(0.0938492 0.00184024 0)
(0.0937602 0.00191213 0)
(0.0936763 0.00199029 0)
(0.0935985 0.00207517 0)
(0.0935276 0.00216718 0)
(0.0934649 0.00226666 0)
(0.0934116 0.00237388 0)
(0.0933694 0.00248899 0)
(0.0933398 0.00261196 0)
(0.0933247 0.00274261 0)
(0.0933261 0.00288045 0)
(0.0933461 0.00302475 0)
(0.0933869 0.00317439 0)
(0.0934508 0.00332787 0)
(0.0935401 0.00348324 0)
(0.0936569 0.00363806 0)
(0.0938031 0.0037894 0)
(0.0939804 0.00393385 0)
(0.0941901 0.00406755 0)
(0.0944326 0.00418628 0)
(0.0947081 0.00428556 0)
(0.0950156 0.00436085 0)
(0.0953535 0.00440772 0)
(0.0957194 0.00442212 0)
(0.0961098 0.00440052 0)
(0.0965205 0.00434015 0)
(0.100001 6.32024e-05 0)
(0.0999999 0.000237735 0)
(0.0999835 0.000465988 0)
(0.0999381 0.000666513 0)
(0.0998589 0.000789385 0)
(0.0997513 0.000835242 0)
(0.0996258 0.000833186 0)
(0.0994923 0.000813556 0)
(0.0993578 0.00079509 0)
(0.0992259 0.000784932 0)
(0.0990979 0.00078345 0)
(0.0989737 0.00078853 0)