/*--------------------------------*- C++ -*----------------------------------*\
| =========                 |                                                 |
| \\      /  F ield         | OpenFOAM: The Open Source CFD Toolbox           |
|  \\    /   O peration     | Version:  5.x                                   |
|   \\  /    A nd           | Web:      www.OpenFOAM.org                      |
|    \\/     M anipulation  |                                                 |
\*---------------------------------------------------------------------------*/
FoamFile
{
    version     2.0;
    format      ascii;
    class       volScalarField;
    location    "1.8";
    object      p;
}
// * * * * * * * * * * * * * * * * * * * * * * * * * * * * * * * * * * * * * //

dimensions      [0 2 -2 0 0 0 0];

internalField   nonuniform List<scalar> 
2790
(
111.906
111.712
111.849
112.246
112.8
113.474
114.265
115.174
116.196
117.33
118.571
119.919
121.373
122.93
124.589
126.347
128.198
130.135
132.15
134.229
136.356
138.509
140.659
142.771
144.803
146.704
148.414
149.865
150.98
151.686
111.741
111.655
111.811
112.204
112.754
113.426
114.214
115.118
116.135
117.262
118.496
119.836
121.28
122.827
124.475
126.22
128.057
129.98
131.981
134.046
136.16
138.302
140.445
142.556
144.593
146.509
148.245
149.741
150.928
151.771
111.597
111.582
111.753
112.136
112.677
113.34
114.118
115.009
116.011
117.121
118.335
119.651
121.069
122.585
124.197
125.902
127.693
129.565
131.507
133.507
135.551
137.616
139.679
141.705
143.656
145.484
147.129
148.516
149.517
149.858
111.446
111.466
111.649
112.025
112.554
113.206
113.971
114.846
115.829
116.915
118.102
119.388
120.769
122.242
123.806
125.454
127.18
128.977
130.833
132.735
134.667
136.607
138.528
140.395
142.164
143.776
145.151
146.156
146.601
145.512
111.28
111.318
111.512
111.882
112.4
113.038
113.786
114.64
115.597
116.654
117.806
119.051
120.386
121.806
123.308
124.885
126.529
128.231
129.978
131.755
133.543
135.317
137.046
138.688
140.187
141.464
142.397
142.757
142.415
139.226
111.095
111.143
111.343
111.707
112.21
112.83
113.557
114.385
115.312
116.333
117.444
118.642
119.922
121.278
122.708
124.201
125.749
127.34
128.959
130.589
132.205
133.78
135.273
136.632
137.786
138.624
138.982
138.505
137.354
131.984
110.89
110.943
111.143
111.499
111.986
112.586
113.288
114.087
114.978
115.958
117.022
118.165
119.382
120.666
122.013
123.412
124.85
126.316
127.79
129.252
130.674
132.019
133.24
134.27
135.018
135.342
135.045
133.62
131.735
124.425
110.664
110.717
110.915
111.261
111.73
112.307
112.98
113.745
114.597
115.531
116.541
117.623
118.77
119.974
121.229
122.522
123.84
125.166
126.481
127.758
128.964
130.056
130.974
131.639
131.937
131.697
130.712
128.284
125.745
116.859
110.417
110.468
110.661
110.993
111.443
111.994
112.636
113.363
114.171
115.053
116.005
117.02
118.09
119.208
120.362
121.54
122.726
123.902
125.044
126.121
127.094
127.911
128.502
128.774
128.593
127.759
126.077
122.649
119.54
109.616
110.148
110.197
110.381
110.698
111.126
111.649
112.257
112.943
113.703
114.53
115.418
116.36
117.348
118.372
119.417
120.471
121.518
122.533
123.491
124.354
125.079
125.605
125.851
125.71
125.031
123.585
121.215
116.832
113.235
102.784
109.859
109.903
110.077
110.377
110.781
111.273
111.845
112.488
113.196
113.963
114.784
115.648
116.548
117.472
118.402
119.326
120.225
121.071
121.834
122.474
122.939
123.161
123.049
122.481
121.29
119.222
116.171
110.896
106.826
95.9989
109.55
109.589
109.751
110.033
110.41
110.87
111.403
111.999
112.652
113.357
114.106
114.889
115.696
116.513
117.325
118.113
118.857
119.528
120.089
120.497
120.694
120.603
120.123
119.117
117.403
114.701
110.963
104.827
100.188
88.7098
109.223
109.255
109.405
109.665
110.015
110.441
110.933
111.48
112.075
112.714
113.388
114.086
114.797
115.504
116.192
116.841
117.426
117.915
118.27
118.441
118.364
117.954
117.1
115.647
113.399
110.051
105.588
98.5688
93.0644
80.1695
108.878
108.904
109.039
109.277
109.597
109.989
110.438
110.933
111.468
112.039
112.636
113.246
113.856
114.452
115.013
115.519
115.941
116.246
116.392
116.324
115.97
115.24
114.008
112.105
109.316
105.309
100.062
92.078
85.1626
69.5777
108.516
108.535
108.655
108.87
109.16
109.515
109.92
110.361
110.835
111.336
111.853
112.373
112.882
113.363
113.796
114.157
114.415
114.536
114.472
114.165
113.537
112.489
110.883
108.533
105.21
100.556
94.4803
85.47
76.5052
56.2248
2.19436
2.21553
2.1879
2.08549
1.90051
1.66254
1.41292
1.17865
0.973935
0.805747
0.673782
0.576819
0.514361
0.481565
0.471134
0.481645
0.517283
0.576336
0.646468
0.713978
0.771367
0.81728
0.852359
0.875521
0.881688
0.861949
0.804891
0.696263
0.519456
0.262476
2.19825
2.20439
2.16615
2.05476
1.8629
1.62142
1.37094
1.13784
0.935885
0.771042
0.641858
0.54803
0.490039
0.460951
0.451689
0.463127
0.502113
0.566519
0.640627
0.709112
0.766152
0.812194
0.849042
0.876392
0.888505
0.87682
0.828816
0.727876
0.551967
0.273924
2.20685
2.19118
2.13474
2.00629
1.80174
1.55449
1.30344
1.07359
0.877648
0.719435
0.594893
0.506169
0.456046
0.433466
0.423645
0.431459
0.473681
0.548976
0.63962
0.721274
0.785361
0.834285
0.871192
0.897611
0.905993
0.889009
0.834981
0.728591
0.548966
0.269081
2.2041
2.17137
2.09194
1.94122
1.72121
1.4684
1.21886
0.995535
0.809731
0.66279
0.543948
0.459325
0.418415
0.411822
0.42201
0.440947
0.481001
0.545235
0.622394
0.701581
0.771832
0.828661
0.869313
0.89989
0.905247
0.883007
0.821788
0.707589
0.521929
0.23911
2.21197
2.14605
2.03854
1.8646
1.63071
1.37712
1.13446
0.92198
0.749368
0.620189
0.519083
0.443266
0.399783
0.384561
0.390443
0.419898
0.470619
0.540851
0.61885
0.692639
0.758895
0.815052
0.857204
0.882743
0.883173
0.852389
0.781267
0.65801
0.46676
0.193125
2.21325
2.10999
1.97771
1.7857
1.54305
1.29534
1.06738
0.869825
0.707437
0.582704
0.485554
0.413536
0.372217
0.358346
0.365696
0.395199
0.445752
0.512517
0.585474
0.659482
0.726439
0.782237
0.822661
0.843117
0.83701
0.798177
0.719421
0.591256
0.401577
0.145284
2.17494
2.06457
1.91903
1.7159
1.47046
1.22833
1.01135
0.825412
0.667013
0.537591
0.440825
0.372483
0.331879
0.317262
0.325525
0.355662
0.40554
0.469901
0.540343
0.611289
0.676996
0.731541
0.769479
0.785321
0.773258
0.728032
0.643913
0.513055
0.329818
0.110215
2.11931
2.02543
1.8723
1.65578
1.40699
1.16918
0.95226
0.763184
0.607858
0.481102
0.383192
0.313678
0.271922
0.256321
0.264664
0.295011
0.344315
0.406971
0.476388
0.547243
0.613057
0.667413
0.704199
0.717598
0.702288
0.653796
0.567163
0.435959
0.262884
0.0824937
2.07443
2.00335
1.83166
1.59373
1.33579
1.08884
0.873052
0.686259
0.528977
0.400529
0.301004
0.230297
0.187845
0.172276
0.181436
0.212776
0.262867
0.326257
0.397635
0.47095
0.53928
0.595818
0.634083
0.648189
0.633013
0.584331
0.497575
0.367905
0.20617
0.0603596
2.05723
1.99137
1.78165
1.50976
1.23494
0.985692
0.766672
0.578417
0.419669
0.289985
0.189808
0.119224
0.0776771
0.0639722
0.0757421
0.109911
0.163247
0.231062
0.307797
0.386858
0.460972
0.522972
0.566122
0.58457
0.572936
0.526476
0.441046
0.313613
0.161735
0.0434378
2.08354
1.96685
1.69472
1.3853
1.09253
0.837819
0.619073
0.432179
0.274698
0.14642
0.0481581
-0.019835
-0.0581301
-0.0676433
-0.0507602
-0.0110564
0.0487671
0.124914
0.211061
0.29974
0.383478
0.454731
0.506472
0.532933
0.527915
0.485305
0.4018
0.276106
0.130652
0.031713
2.09393
1.89011
1.53393
1.18159
0.880442
0.631897
0.423546
0.245339
0.0939136
-0.0293938
-0.122445
-0.184715
-0.217034
-0.220064
-0.195467
-0.146775
-0.0765848
0.0118959
0.11165
0.214217
0.311808
0.396437
0.460572
0.498172
0.502117
0.465042
0.383738
0.257645
0.113644
0.0252976
2.0373
1.68515
1.23138
0.862134
0.580853
0.363847
0.183566
0.023369
-0.117798
-0.233278
-0.31787
-0.371046
-0.394678
-0.389451
-0.355254
-0.294075
-0.208979
-0.103909
0.0136993
0.134609
0.250467
0.352781
0.433137
0.484347
0.498938
0.469426
0.390356
0.26023
0.111538
0.0244255
1.82379
1.20805
0.708169
0.391663
0.189292
0.0467666
-0.0820719
-0.218665
-0.350889
-0.458674
-0.531979
-0.572326
-0.584871
-0.570685
-0.526203
-0.449962
-0.345384
-0.218845
-0.0788334
0.0648495
0.203295
0.327632
0.428098
0.495609
0.522542
0.501598
0.423959
0.286233
0.126053
0.0296033
1.28618
0.165932
-0.13247
-0.239894
-0.272678
-0.285242
-0.337033
-0.458756
-0.594823
-0.698789
-0.757227
-0.779559
-0.779043
-0.757942
-0.704889
-0.612014
-0.483208
-0.32931
-0.162009
0.00853316
0.17358
0.324615
0.449695
0.536699
0.577463
0.564898
0.487618
0.339356
0.159962
0.0415666
108.132
108.144
108.247
108.438
108.697
109.014
109.37
109.755
110.165
110.594
111.028
111.455
111.859
112.223
112.526
112.738
112.83
112.763
112.489
111.941
111.039
109.675
107.703
104.921
101.092
95.8431
88.9656
78.9387
66.9541
34.7611
107.722
107.726
107.811
107.976
108.202
108.478
108.783
109.11
109.454
109.807
110.155
110.485
110.781
111.026
111.194
111.255
111.178
110.923
110.438
109.652
108.481
106.816
104.499
101.333
97.0767
91.3764
83.9635
73.5622
60.938
48.7926
107.287
107.283
107.35
107.487
107.68
107.912
108.164
108.431
108.706
108.981
109.241
109.473
109.659
109.782
109.814
109.724
109.479
109.039
108.348
107.331
105.908
103.969
101.355
97.8827
93.3439
87.4716
80.1259
70.8734
60.7014
54.494
106.829
106.817
106.865
106.974
107.131
107.317
107.515
107.72
107.925
108.121
108.292
108.422
108.498
108.499
108.396
108.157
107.747
107.128
106.239
105.009
103.361
101.189
98.3426
94.6739
90.0443
84.3133
77.4879
69.5537
60.6388
52.3444
106.349
106.329
106.357
106.437
106.556
106.694
106.837
106.98
107.115
107.229
107.31
107.34
107.305
107.186
106.95
106.565
105.999
105.21
104.137
102.716
100.88
98.5236
95.5241
91.7866
87.2422
81.8367
75.6072
68.5679
60.5725
52.5395
105.848
105.819
105.828
105.879
105.957
106.046
106.134
106.214
106.277
106.311
106.3
106.23
106.088
105.851
105.486
104.962
104.249
103.303
102.065
100.482
98.4967
96.0136
92.9476
89.2526
84.8997
79.8712
74.1949
67.8979
60.9543
54.019
105.326
105.289
105.279
105.299
105.336
105.376
105.409
105.426
105.417
105.37
105.269
105.102
104.856
104.505
104.016
103.362
102.513
101.423
100.042
98.333
96.2406
93.6912
90.6354
87.0546
82.9379
78.2852
73.1243
67.5021
61.4524
55.363
104.786
104.741
104.711
104.7
104.696
104.686
104.663
104.619
104.538
104.41
104.223
103.963
103.616
103.154
102.55
101.776
100.802
99.5862
98.0934
96.2922
94.1355
91.5737
88.5812
85.1511
81.2832
76.9889
72.2984
67.2616
61.9214
56.5288
104.229
104.177
104.126
104.085
104.039
103.979
103.902
103.797
103.646
103.44
103.167
102.818
102.373
101.809
101.099
100.216
99.1307
97.8133
96.2377
94.3762
92.1934
89.6597
86.7615
83.498
79.8767
75.9158
71.6467
67.116
62.37
57.5919
103.659
103.599
103.527
103.455
103.368
103.259
103.13
102.965
102.745
102.462
102.109
101.673
101.137
100.479
99.6733
98.6927
97.5151
96.1212
94.4879
92.593
90.4153
87.9365
85.1488
82.0565
78.6721
75.0172
71.1235
67.0339
62.7926
58.5386
103.077
103.009
102.917
102.814
102.685
102.53
102.35
102.126
101.84
101.484
101.053
100.536
99.9161
99.1739
98.2826
97.2178
95.9689
94.5201
92.8495
90.9454
88.7958
86.3873
83.7177
80.7947
77.6333
74.2567
70.6962
66.9896
63.1757
59.3623
102.486
102.411
102.297
102.162
101.996
101.798
101.566
101.284
100.935
100.51
100.006
99.4139
98.7197
97.9023
96.9352
95.8022
94.5014
93.0148
91.3257
89.432
87.3247
84.9948
82.4454
79.6861
76.7316
73.6062
70.3404
66.9658
63.5146
60.0729
101.89
101.806
101.671
101.505
101.304
101.064
100.783
100.444
100.036
99.5465
98.9743
98.3155
97.5548
96.6709
95.64
94.4553
93.1175
91.6083
89.9176
88.0466
85.9892
83.7422
81.3124
78.7091
75.9448
73.0445
70.0383
66.9517
63.8102
60.6833
101.291
101.197
101.043
100.848
100.613
100.333
100.003
99.6121
99.1476
98.5978
97.9654
97.2478
96.4278
95.486
94.4052
93.1836
91.8204
90.3014
88.6211
86.7807
84.7782
82.6155
80.3013
77.8445
75.2548
72.5562
69.7781
66.9409
64.0645
61.2055
100.693
100.589
100.416
100.195
99.9265
99.6067
99.231
98.792
98.2743
97.6705
96.9867
96.2168
95.3444
94.355
93.2371
91.9897
90.6111
89.0922
87.43
85.626
83.682
81.6027
79.3975
77.0754
74.6461
72.1297
69.5513
66.9293
64.2806
61.6508
100.098
99.9844
99.7935
99.548
99.2488
98.8907
98.472
97.9874
97.4221
96.7725
96.0441
95.2277
94.3106
93.2837
92.1386
90.8739
89.4883
87.977
86.3387
84.5754
82.6909
80.6922
78.5887
76.39
74.1063
71.7535
69.351
66.9157
64.463
62.03
99.5101
99.3884
99.1802
98.9121
98.584
98.1895
97.7293
97.2031
96.5981
95.9102
95.1419
94.2849
93.3314
92.2753
91.1104
89.8355
88.4501
86.9524
85.3423
83.6219
81.7959
79.8734
77.8651
75.7798
73.6269
71.4191
69.1716
66.8993
64.616
62.3525
98.9342
98.8044
98.5794
98.2906
97.9367
97.5077
97.0084
96.4461
95.8086
95.0874
94.2837
93.3929
92.4103
91.3316
90.1529
88.8736
87.4942
86.0148
84.4359
82.7589
80.9887
79.1379
77.2186
75.2373
73.2012
71.1211
69.0096
66.8797
64.7435
62.6266
98.3743
98.2359
97.9952
97.6879
97.3107
96.8503
96.3163
95.7235
95.0577
94.3069
93.4732
92.5551
91.5495
90.4538
89.2664
87.9875
86.6187
85.1609
83.6142
81.979
80.2622
78.4798
76.6431
74.7557
72.823
70.8551
68.8628
66.8574
64.849
62.8591
97.8351
97.6869
97.4326
97.1082
96.7093
96.2226
95.6608
95.0407
94.3484
93.5721
92.7139
91.7739
90.7505
89.6429
88.451
87.1764
85.8215
84.3873
82.8713
81.2753
79.6116
77.8953
76.1335
74.3288
72.4872
70.6178
68.73
66.8331
64.9358
63.0561
97.3205
97.1626
96.8969
96.5563
96.1366
95.6296
95.0471
94.4019
93.6846
92.8865
92.0085
91.0515
90.0152
88.8999
87.707
86.4393
85.1
83.6889
82.2019
80.645
79.0339
77.3788
75.6831
73.9513
72.19
70.4071
68.6105
66.808
65.0072
63.2229
96.8345
96.669
96.393
96.0371
95.5991
95.0762
94.4772
93.81
93.0706
92.2539
91.3601
90.3904
89.3453
88.2256
87.0342
85.7751
84.4512
83.0614
81.604
80.0875
78.5253
76.9238
75.2868
73.6197
71.9291
70.2217
68.5043
66.7837
65.0663
63.3645
96.3817
96.2118
95.9263
95.5563
95.103
94.5665
93.953
93.2679
92.5104
91.6783
90.7718
89.7929
88.7423
87.6202
86.4315
85.182
83.8733
82.5042
81.0768
79.599
78.08
76.5257
74.9409
73.331
71.7022
70.0603
68.4114
66.7613
65.1156
63.4847
95.9678
95.796
95.5021
95.1194
94.653
94.1045
93.4785
92.7791
92.0077
91.1631
90.2461
89.2608
88.2079
87.0849
85.8989
84.6597
83.3668
82.0186
80.6191
79.1755
77.6947
76.1823
74.6434
73.0836
71.5082
69.9228
68.3325
66.7427
65.1583
63.5879
95.5995
95.4266
95.1254
94.7312
94.2536
93.6946
93.0579
92.3474
91.5655
90.7116
89.7854
88.7942
87.7408
86.6194
85.4378
84.2086
82.9308
81.6021
80.2275
78.8135
77.3658
75.8899
74.391
72.8742
71.3445
69.8069
68.2664
66.7274
65.1946
63.675
95.2839
95.1093
94.8007
94.3965
93.9094
93.3418
92.6964
91.9772
91.1884
90.3286
89.3946
88.3966
87.3427
86.2268
85.053
83.8327
82.5671
81.2555
79.9024
78.5135
77.0942
75.6495
74.1844
72.7038
71.2124
69.7149
68.2157
66.7191
65.2292
63.752
95.0283
94.8499
94.5327
94.119
93.6238
93.0488
92.3962
91.67
90.8757
90.0116
89.0721
88.0689
87.0147
85.9051
84.7401
83.5279
82.2721
80.9747
79.6394
78.2713
76.8754
75.4563
74.0189
72.5677
71.1073
69.642
68.176
66.7132
65.2573
63.8133
94.8416
94.6546
94.3276
93.9071
93.4065
92.8263
92.1682
91.4368
90.637
89.768
88.8268
87.8232
86.7688
85.6627
84.5043
83.2993
82.0521
80.7659
79.4447
78.093
76.7153
75.3163
73.9005
72.4723
71.036
69.5959
68.1557
66.7193
65.2902
63.8728
94.7355
94.5197
94.1773
93.7527
93.2499
92.6668
92.0053
91.2705
90.4666
89.5941
88.654
87.653
86.5991
85.4945
84.3405
83.1412
81.9006
80.6227
79.3113
77.9709
76.6058
75.2204
73.8193
72.4066
70.9866
69.5631
68.14
66.7209
65.3091
63.9081
94.7519
94.4776
94.1101
93.6806
93.1758
92.59
91.9254
91.1874
90.3808
89.5068
88.5675
87.5682
86.5151
85.4118
84.2606
83.065
81.829
80.5565
79.2515
77.9182
76.5611
75.1844
73.7925
72.3895
70.9795
69.5663
68.1538
66.7453
65.344
63.9529
-69.0534
-27.6903
-8.2717
32.2905
24.7079
13.1636
42.0684
30.7239
21.6328
40.3335
32.62
27.1287
43.7446
37.8576
33.2111
47.0433
42.1079
38.0146
49.4259
45.2403
41.7458
51.4159
47.8404
44.8464
53.1441
50.0409
47.4379
54.6197
51.8887
49.5979
55.8739
53.4449
51.4077
56.9409
54.7613
52.9325
57.8493
55.8776
54.2223
58.6227
56.8263
55.3171
59.2815
57.6339
56.2487
59.8431
58.3228
57.0436
60.3223
58.9114
57.7232
60.7315
59.415
58.3053
61.081
59.8462
58.8043
61.3794
60.2154
59.2324
61.6341
60.5315
59.5994
61.8517
60.8023
59.9141
62.0372
61.0335
60.1831
62.1963
61.2317
60.4134
62.3302
61.3985
60.6074
62.4467
61.5423
60.7733
62.5386
61.6561
60.9054
62.6237
61.7581
61.0204
62.6746
61.821
61.0936
62.7362
61.8946
61.1728
-3.00642
-2.91891
-1.84732
-1.30096
-0.903399
-0.590718
-0.483422
-0.64486
-0.828051
-0.945578
-0.988507
-0.984671
-0.968508
-0.947801
-0.891681
-0.780097
-0.619834
-0.43148
-0.232854
-0.0317238
0.164351
0.348109
0.503698
0.613476
0.668666
0.663863
0.586854
0.425875
0.217436
0.0614423
2.34722
-0.166892
-0.0100485
-0.0477063
-0.0983397
-0.0746959
-0.376096
-0.885097
-1.20783
-1.31627
-1.27522
-1.17419
-1.11767
-1.11563
-1.07267
-0.945568
-0.748804
-0.519682
-0.285867
-0.0478803
0.181909
0.40323
0.597278
0.734062
0.80406
0.806626
0.731906
0.558216
0.306853
0.0910118
12.0434
5.66135
3.21243
1.74022
0.692141
0.0401894
-0.448203
-0.811369
-1.09387
-1.20413
-1.16098
-1.11182
-1.18033
-1.3219
-1.34451
-1.18947
-0.914206
-0.58809
-0.281142
-0.00703516
0.231891
0.490666
0.742204
0.91426
0.99832
1.00342
0.929729
0.747164
0.437703
0.130743
19.9938
12.7671
8.38452
5.48494
3.39432
1.91348
0.867692
0.103466
-0.481501
-0.870648
-1.08746
-1.2142
-1.31764
-1.39449
-1.33005
-1.08385
-0.753455
-0.45839
-0.225301
-0.000221755
0.299705
0.621386
0.958838
1.15768
1.24474
1.23049
1.14091
0.964816
0.606406
0.182372
26.9813
20.1417
14.7919
10.7565
7.71448
5.41758
3.66804
2.31057
1.25654
0.47275
-0.0791268
-0.459788
-0.727185
-0.898154
-0.937138
-0.833711
-0.635142
-0.392661
-0.118017
0.211386
0.608365
1.00203
1.3162
1.49588
1.55968
1.55096
1.4961
1.36294
1.02808
0.285008
32.7696
26.7743
21.197
16.5089
12.7712
9.80408
7.42861
5.51885
3.99348
2.79789
1.88183
1.18937
0.670347
0.301484
0.0870258
0.0259393
0.0897153
0.238543
0.446526
0.7071
1.01178
1.32704
1.60881
1.81577
1.93183
1.95676
1.87105
1.62353
1.15402
0.308808
37.4252
32.2858
26.9321
22.0683
17.9836
14.5921
11.7601
9.39857
7.44527
5.84828
4.55897
3.53026
2.72204
2.10854
1.67722
1.41433
1.29306
1.27978
1.34848
1.4844
1.6725
1.88393
2.07777
2.21415
2.26913
2.22931
2.06757
1.73021
1.14643
0.135521
41.2057
36.7687
31.8378
27.1107
22.9622
19.3795
16.2746
13.5934
11.3008
9.36124
7.73605
6.38823
5.28625
4.40442
3.72225
3.21968
2.87218
2.65235
2.53564
2.50146
2.52773
2.58466
2.63595
2.6465
2.58842
2.43694
2.15806
1.69941
0.994419
-0.1158
44.2933
40.4126
35.949
31.5096
27.4738
23.8723
20.653
17.7883
15.267
13.0722
11.1759
9.55201
8.17859
7.03333
6.09424
5.34032
4.74954
4.2983
3.96297
3.72044
3.54619
3.41173
3.285
3.13342
2.92635
2.63338
2.21913
1.63915
0.847891
-0.276455
46.8341
43.3974
39.3723
35.2681
31.4354
27.9245
24.7059
21.7702
19.1239
16.7618
14.6651
12.8208
11.218
9.83815
8.65975
7.66348
6.8305
6.14061
5.57238
5.10341
4.70973
4.3648
4.03952
3.70361
3.327
2.87967
2.33021
1.64556
0.800453
-0.297208
48.9469
45.8698
42.2299
38.4555
34.8596
31.4977
28.3528
25.4269
22.7355
20.2781
18.0453
16.0392
14.2589
12.6858
11.2988
10.0823
9.02238
8.10274
7.30511
6.60935
5.99342
5.43322
4.90273
4.37488
3.82258
3.21935
2.5398
1.76119
0.872044
-0.19585
50.719
47.9382
44.6292
41.1578
37.8011
34.6126
31.582
28.7165
26.0323
23.5321
21.2177
19.1054
17.1994
15.4766
13.9156
12.5077
11.2448
10.1153
9.10397
8.19355
7.36459
6.5959
5.86489
5.14824
4.42281
3.66666
2.86028
1.98866
1.04824
-0.00867837
52.2145
49.6817
46.6563
43.4553
40.325
37.3145
34.4163
31.6373
28.9926
26.4886
24.1366
21.9645
19.9772
18.1431
16.441
14.8713
13.4332
12.1192
10.917
9.81169
8.78674
7.82403
6.90442
6.00835
5.11674
4.21198
3.2794
2.30909
1.30117
0.22565
53.4825
51.16
48.3783
45.4158
42.493
39.654
36.8916
34.211
31.627
29.1489
26.7941
24.5963
22.5582
20.6426
18.8289
17.1252
15.5399
14.0691
12.7015
11.4245
10.2244
9.08591
7.99314
6.93002
5.88105
4.83228
3.77255
2.69496
1.60048
0.473895
54.5614
52.4188
49.8475
47.0944
44.3588
41.6799
39.0498
36.4724
33.9621
31.5313
29.2005
26.9992
24.9267
22.9493
21.0492
19.2396
17.5353
15.9343
14.4264
13.0011
11.6471
10.3519
9.10237
7.88535
6.68835
5.50023
4.31214
3.11866
1.92001
0.712398
55.4823
53.4944
51.1054
48.5364
45.9684
43.4368
40.9328
38.4592
36.03
33.6599
31.3682
29.175
27.0774
25.0519
23.0884
21.2009
19.4039
17.6968
16.0714
14.5193
13.0314
11.5976
10.207
8.8488
7.51295
6.1903
4.87342
3.55731
2.2407
0.927837
56.2703
54.4161
52.1856
49.7783
47.3602
44.9631
42.5777
40.2057
37.8599
35.5552
33.3069
31.1269
29.0143
26.9578
24.9527
23.0085
21.1381
19.3446
17.6221
15.9629
14.3595
12.8038
11.2867
9.79944
8.33364
6.88168
5.43696
3.99434
2.55078
1.11552
56.9459
55.2074
53.1152
50.8502
48.5656
46.2904
44.0147
41.739
39.4744
37.2342
35.0296
32.8687
30.7537
28.6826
26.6522
24.6662
22.7362
20.8708
19.068
17.3199
15.6186
13.9566
12.3265
10.7213
9.13428
7.5589
5.98899
4.41901
2.84428
1.27663
57.5258
55.8877
53.9161
51.7761
49.61
47.4443
45.2687
43.0822
40.894
38.7154
36.5554
34.4202
32.3139
30.2384
28.1931
26.178
24.2012
22.275
20.4038
18.582
16.7994
15.0461
13.3154
11.6028
9.90325
8.21111
6.52034
4.82499
3.11903
1.41521
58.0238
56.4729
54.6063
52.5761
50.5146
48.4466
46.3613
44.2562
42.1389
40.0188
37.9035
35.7984
33.7077
31.6351
29.5821
27.5482
25.537
23.56
21.6286
19.7447
17.8962
16.0658
14.2458
12.4356
10.6325
8.83108
7.02536
5.20897
3.37498
1.53599
58.4513
56.9758
55.2007
53.2664
51.2971
49.3157
47.311
45.2796
43.2274
41.1623
39.0906
37.0174
34.9465
32.8821
30.8274
28.7828
26.7474
24.728
22.7434
20.8085
18.9072
17.0101
15.1104
13.2131
11.3161
9.41383
7.50034
5.56907
3.6126
1.64282
58.8181
57.4077
55.7119
53.8611
51.9724
50.0672
48.1341
46.1687
44.1756
42.1615
40.1316
38.0904
36.0415
33.9889
31.9373
29.8872
27.8336
25.7815
23.7563
21.7784
19.8279
17.8709
15.9033
13.9311
11.9508
9.95667
7.94337
5.90457
3.83274
1.7386
59.1318
57.7774
56.1498
54.3713
52.5526
50.7139
48.8438
46.937
44.997
43.0294
41.0388
39.0288
37.0027
34.9637
32.9159
30.8604
28.7963
26.7298
24.6782
22.6556
20.6498
18.6394
16.619
14.5864
12.5341
10.4572
8.35221
6.21391
4.03489
1.82441
59.3999
58.093
56.5239
54.8074
53.0488
51.2676
49.4523
47.5968
45.7039
43.7782
41.8236
39.8429
37.839
35.8142
33.7699
31.7108
29.6459
27.5771
25.5039
23.436
21.3766
19.3189
17.2566
15.1772
13.0649
10.9142
8.72605
6.49702
4.2199
1.90184
59.6261
58.3591
56.8393
55.1751
53.4676
51.7354
49.9668
48.1556
46.3036
44.4146
42.4919
40.5378
38.5544
36.5437
34.5069
32.4503
30.3843
28.3089
26.2181
24.1166
22.0122
19.9105
17.8139
15.6999
13.5367
11.3204
9.05843
6.74868
4.38376
1.96887
59.8178
58.5836
57.1047
55.484
53.819
52.1276
50.3983
48.6244
46.807
44.9495
43.0545
41.1239
39.1595
37.163
35.1362
33.0824
31.01
28.9277
26.8291
24.7051
22.5642
20.4258
18.2994
16.1537
13.9466
11.6762
9.35266
6.97338
4.5313
2.02941
59.9716
58.7636
57.3173
55.7314
54.1004
52.4418
50.7441
49.0004
47.2113
45.3796
43.5076
41.5968
39.6488
37.6649
35.6466
33.5944
31.5179
29.4321
27.3269
25.1852
23.0209
20.8584
18.7005
16.5169
14.2735
11.965
9.59417
7.15772
4.65068
2.07562
60.1011
58.9127
57.4915
55.9325
54.3276
52.6941
51.0209
49.3007
47.5335
45.7221
43.8682
41.9732
40.0384
38.065
36.0543
34.0077
31.9328
29.8402
27.7226
25.5697
23.3951
21.2163
19.0299
16.8125
14.5412
12.2057
9.80033
7.31956
4.75925
2.11997
60.1864
59.0101
57.6055
56.0648
54.4777
52.8613
51.2045
49.4999
47.7476
45.9497
44.108
42.2237
40.2979
38.3318
36.3271
34.2857
32.2122
30.1117
27.9831
25.8246
23.6441
21.4521
19.2458
17.0072
14.7162
12.3599
9.93009
7.41897
4.82171
2.13905
60.2648
59.0886
57.6933
56.1644
54.588
52.9813
51.3339
49.6384
47.8947
46.1047
44.2701
42.392
40.4715
38.51
36.5089
34.4702
32.3967
30.2923
28.1593
25.9983
23.8143
21.6151
19.3992
17.151
14.8496
12.4804
10.0353
7.50561
4.88178
2.15484
)
;

boundaryField
{
    inlet
    {
        type            zeroGradient;
    }
    outlet
    {
        type            fixedValue;
        value           uniform 0;
    }
    flap
    {
        type            zeroGradient;
    }
    upperWall
    {
        type            zeroGradient;
    }
    lowerWall
    {
        type            zeroGradient;
    }
    frontAndBack
    {
        type            empty;
    }
}


// ************************************************************************* //
