/*--------------------------------*- C++ -*----------------------------------*\
| =========                 |                                                 |
| \\      /  F ield         | OpenFOAM: The Open Source CFD Toolbox           |
|  \\    /   O peration     | Version:  5.x                                   |
|   \\  /    A nd           | Web:      www.OpenFOAM.org                      |
|    \\/     M anipulation  |                                                 |
\*---------------------------------------------------------------------------*/
FoamFile
{
    version     2.0;
    format      ascii;
    class       surfaceVectorField;
    location    "1.8";
    object      Uf;
}
// * * * * * * * * * * * * * * * * * * * * * * * * * * * * * * * * * * * * * //

dimensions      [0 1 -1 0 0 0 0];

internalField   nonuniform List<vector> 
5457
(
(9.91004 0.0233233 -1.16974e-20)
(9.96646 0.0366776 2.22676e-20)
(9.812 0.0285952 8.89522e-22)
(9.92655 0.0417364 -3.4259e-20)
(9.7049 0.0328446 1.15618e-20)
(9.86135 0.0478553 1.05589e-19)
(9.58588 0.0373613 0)
(9.77696 0.0557383 -2.71247e-22)
(9.45515 0.0420483 5.3622e-20)
(9.67924 0.064065 9.95155e-20)
(9.31312 0.0469222 5.14314e-20)
(9.56952 0.0727445 -1.01951e-19)
(9.15976 0.0521063 -5.79185e-20)
(9.44751 0.0820074 -1.06372e-19)
(8.99471 0.0577193 6.38023e-20)
(9.31274 0.0920605 -5.67797e-20)
(8.8174 0.0638634 5.26912e-20)
(9.1647 0.10307 1.74028e-19)
(8.62712 0.0706394 -5.98749e-20)
(9.0029 0.115193 -2.03475e-21)
(8.42304 0.0781584 6.7441e-20)
(8.82671 0.128593 -1.22236e-19)
(8.20417 0.086546 1.35362e-19)
(8.63529 0.143462 1.29589e-19)
(7.96939 0.0959422 6.78538e-20)
(8.42762 0.16002 3.12381e-21)
(7.71743 0.106503 7.69476e-20)
(8.20256 0.178506 0)
(7.44686 0.118404 7.42841e-20)
(7.95879 0.199179 4.09079e-21)
(7.15611 0.131847 -3.41786e-19)
(7.69485 0.222331 -1.20285e-18)
(6.84345 0.147055 -6.50696e-20)
(7.40909 0.248277 7.47203e-19)
(6.50702 0.164275 2.56507e-19)
(7.0997 0.277349 3.42531e-19)
(6.14483 0.183772 0)
(6.76473 0.309885 0)
(5.75479 0.205828 -2.11195e-19)
(6.40204 0.346204 1.09205e-18)
(5.33478 0.230742 -2.04768e-19)
(6.0094 0.386593 -1.52321e-18)
(4.88269 0.258839 0)
(5.58444 0.431279 0)
(4.39645 0.290471 -1.81314e-18)
(5.12475 0.480406 -4.22135e-19)
(3.8741 0.325998 4.24777e-19)
(4.62783 0.533973 -2.46187e-18)
(3.31385 0.365716 2.1427e-18)
(4.09096 0.591727 2.16814e-18)
(2.71424 0.409588 0)
(3.51128 0.652946 7.17925e-18)
(2.07424 0.456122 0)
(2.88515 0.715748 -7.57228e-18)
(1.3943 0.497547 7.36527e-19)
(2.20734 0.774876 -9.35831e-18)
(0.672907 0.476178 -1.88428e-19)
(1.4464 0.818734 1.00201e-17)
(0.755474 0.777569 -1.60811e-18)
(10.0031 0.0452845 -1.50776e-21)
(9.99825 0.0354333 2.22708e-20)
(9.97416 0.0579924 7.36539e-20)
(9.98788 0.0540969 -2.04728e-19)
(9.92816 0.0689987 9.13896e-20)
(9.95546 0.0684568 1.87293e-19)
(9.86732 0.0809622 1.01398e-19)
(9.90363 0.0842823 2.89317e-19)
(9.79187 0.0936794 -6.0309e-20)
(9.83713 0.101108 -9.87501e-20)
(9.70218 0.10715 -2.59861e-19)
(9.75758 0.118757 -5.19636e-20)
(9.59842 0.121646 -1.04241e-19)
(9.66498 0.137583 -5.7636e-22)
(9.48041 0.137451 5.79885e-20)
(9.55902 0.157989 4.38874e-19)
(9.34775 0.15481 1.1592e-19)
(9.43931 0.180316 -5.05676e-19)
(9.1999 0.173962 -6.66602e-20)
(9.30552 0.204862 5.90167e-20)
(9.03617 0.195174 -5.5437e-20)
(9.15714 0.231955 2.43243e-19)
(8.85572 0.218757 -4.99346e-21)
(8.99347 0.261993 -5.59731e-19)
(8.65751 0.245058 -6.48207e-20)
(8.81365 0.295427 -3.25171e-19)
(8.44035 0.274452 -7.28283e-20)
(8.61665 0.332749 1.08421e-18)
(8.20287 0.307356 -1.29431e-18)
(8.4013 0.3745 -1.18316e-18)
(7.94352 0.344231 -8.04468e-20)
(8.16622 0.42129 2.58371e-19)
(7.66057 0.385573 1.14845e-18)
(7.90989 0.473788 -2.6892e-19)
(7.35207 0.431899 8.03749e-20)
(7.63054 0.53271 8.17573e-20)
(7.01592 0.483727 1.10988e-18)
(7.32625 0.598809 -2.65375e-18)
(6.64981 0.541552 -2.6006e-19)
(6.99485 0.672842 1.39649e-18)
(6.25122 0.605813 -1.29598e-18)
(6.63383 0.755547 1.18151e-18)
(5.81748 0.676876 -4.2831e-19)
(6.24047 0.847609 -3.75463e-19)
(5.34567 0.755017 -1.09848e-18)
(5.81162 0.949631 -8.13276e-19)
(4.8325 0.840378 -6.65158e-19)
(5.34375 1.06212 -6.94726e-18)
(4.27408 0.932893 7.2571e-18)
(4.8324 1.18543 6.94171e-18)
(3.66532 1.03218 -4.84625e-19)
(4.27167 1.31979 1.64437e-17)
(2.99794 1.13775 -1.69632e-17)
(3.65308 1.46551 -1.62895e-17)
(2.25408 1.25177 -2.87099e-19)
(2.9637 1.6243 6.986e-18)
(1.38377 1.39133 8.22345e-18)
(2.16281 1.80879 9.39513e-18)
(1.30546 2.05417 -1.91265e-17)
(9.99572 0.047608 -1.85588e-19)
(9.99586 0.037181 0)
(9.97027 0.0678051 -8.21204e-20)
(9.98292 0.0649234 -1.47578e-22)
(9.92757 0.0865091 3.87481e-19)
(9.95151 0.0875213 -9.33659e-20)
(9.87113 0.106441 8.07504e-20)
(9.90241 0.110701 2.89968e-19)
(9.80157 0.127659 -8.94195e-20)
(9.83926 0.135182 -3.95847e-19)
(9.71915 0.150247 2.08439e-19)
(9.76376 0.160963 3.06436e-19)
(9.62402 0.174588 5.51433e-19)
(9.67609 0.188455 1.05846e-19)
(9.51608 0.201114 -1.43333e-19)
(9.57603 0.218203 4.39005e-19)
(9.39508 0.230214 -5.5187e-19)
(9.46336 0.25069 -1.013e-18)
(9.26058 0.262271 3.72428e-19)
(9.33783 0.286351 4.60758e-19)
(9.11204 0.297725 -2.75925e-19)
(9.19908 0.325665 -5.95904e-19)
(8.94875 0.337101 -8.75854e-19)
(9.04654 0.369207 6.08004e-19)
(8.76987 0.380983 8.49215e-19)
(8.87959 0.417636 -2.91668e-21)
(8.57437 0.430012 -6.58637e-20)
(8.69743 0.471677 1.7289e-20)
(8.36109 0.484906 3.94719e-19)
(8.49908 0.532135 2.1937e-18)
(8.12864 0.546467 6.14407e-20)
(8.28346 0.599924 -8.03537e-19)
(7.87549 0.615568 -1.33136e-18)
(8.04933 0.676069 1.62069e-18)
(7.59986 0.693143 -2.69794e-18)
(7.79521 0.761681 -2.44104e-18)
(7.29973 0.780183 -2.30642e-18)
(7.51949 0.857975 -2.65755e-18)
(6.97276 0.877703 2.83562e-18)
(7.22025 0.966273 9.65078e-19)
(6.61622 0.986705 2.08373e-18)
(6.89514 1.08796 2.84975e-18)
(6.22693 1.10814 -7.67477e-19)
(6.54137 1.22446 7.0042e-19)
(5.80115 1.24295 -6.74378e-18)
(6.1556 1.37726 -6.41577e-18)
(5.3342 1.3921 7.97574e-19)
(5.73364 1.54801 -9.85049e-20)
(4.81975 1.55684 1.62274e-17)
(5.26998 1.73876 6.16456e-18)
(4.24866 1.73936 5.00086e-19)
(4.75689 1.95245 8.43437e-18)
(3.60674 1.94451 7.68032e-18)
(4.18329 2.19432 -8.73831e-18)
(2.8688 2.1817 1.67994e-17)
(3.53238 2.47594 3.10008e-17)
(2.01498 2.50847 -1.90581e-17)
(2.80028 2.80414 1.47741e-17)
(1.81185 3.36084 -8.56921e-17)
(9.99123 0.0547621 1.85462e-19)
(9.99441 0.0407609 3.54607e-19)
(9.9659 0.083772 -1.35213e-20)
(9.97951 0.0757124 2.72583e-19)
(9.92401 0.110858 -1.82318e-19)
(9.94789 0.106248 9.22382e-20)
(9.86841 0.138655 -2.01435e-19)
(9.89974 0.136749 -3.824e-19)
(9.80014 0.167797 1.4792e-20)
(9.83787 0.168661 -1.97582e-19)
(9.71949 0.198636 1.99738e-19)
(9.76389 0.202305 8.16279e-22)
(9.62663 0.231701 0)
(9.67813 0.238167 0)
(9.52159 0.267568 -4.59105e-19)
(9.58048 0.276881 4.32901e-19)
(9.40422 0.306768 2.78807e-20)
(9.47081 0.319045 -1.11514e-18)
(9.27426 0.349834 -5.27459e-19)
(9.34896 0.365223 1.38281e-18)
(9.13131 0.397369 3.10074e-19)
(9.21468 0.416022 -2.85554e-18)
(8.97489 0.450078 1.47075e-18)
(9.06757 0.47215 1.96018e-18)
(8.8044 0.508759 -8.34864e-19)
(8.9072 0.534433 2.56563e-19)
(8.61909 0.574293 2.31484e-18)
(8.733 0.603799 -1.06859e-18)
(8.41811 0.647673 9.45722e-19)
(8.54423 0.68127 3.30952e-18)
(8.20045 0.730026 7.95232e-19)
(8.34011 0.768011 -3.10683e-18)
(7.96496 0.822596 4.47445e-19)
(8.11979 0.865352 4.44212e-18)
(7.71032 0.926755 -2.40488e-18)
(7.88222 0.974754 -4.82485e-18)
(7.43498 1.04403 6.72142e-19)
(7.6262 1.09786 -4.99556e-18)
(7.13704 1.1761 1.00484e-18)
(7.35038 1.23658 5.76165e-18)
(6.81409 1.32477 1.4347e-18)
(7.05295 1.393 -5.66997e-18)
(6.46319 1.49198 -5.04006e-18)
(6.73159 1.56947 5.85865e-18)
(6.08057 1.67994 2.96957e-19)
(6.38343 1.76863 -4.62413e-18)
(5.66124 1.89132 5.34788e-18)
(6.0046 1.99371 6.9559e-18)
(5.19835 2.12978 -1.66033e-18)
(5.58997 2.24894 -4.72816e-20)
(4.68192 2.40119 -8.52897e-19)
(5.13241 2.54033 -8.55094e-19)
(4.09818 2.71696 1.44343e-17)
(4.62281 2.87724 -1.42846e-17)
(3.42061 3.08488 2.94175e-17)
(4.03822 3.28154 2.74124e-17)
(2.69622 3.56827 -5.6734e-17)
(3.46797 3.70242 -8.94334e-18)
(2.37296 4.5225 -3.83052e-17)
(9.9888 0.0624107 4.40135e-19)
(9.99361 0.0453363 3.54145e-19)
(9.96301 0.0986338 3.74216e-19)
(9.97754 0.0867143 9.07601e-20)
(9.92187 0.132931 -1.18423e-19)
(9.94583 0.124663 -2.78175e-19)
(9.86725 0.167797 -3.74566e-19)
(9.89862 0.162374 9.5292e-19)
(9.80026 0.204288 -2.07424e-19)
(9.83815 0.201561 -3.89978e-19)
(9.72129 0.242983 -1.99037e-19)
(9.76586 0.242854 -1.00899e-18)
(9.63052 0.284509 4.41573e-19)
(9.68214 0.286853 0)
(9.528 0.329522 -2.53096e-19)
(9.58696 0.334267 5.91258e-21)
(9.41366 0.378656 2.87154e-19)
(9.48025 0.385794 -4.44477e-19)
(9.28733 0.432552 -1.02391e-18)
(9.36192 0.442109 -4.43298e-19)
(9.1487 0.491926 -1.11843e-18)
(9.23178 0.50393 -1.66962e-18)
(8.99743 0.557608 7.15363e-19)
(9.08956 0.572072 -2.51944e-19)
(8.83311 0.630559 0)
(8.93489 0.647508 1.98064e-18)
(8.65516 0.711841 0)
(8.7674 0.731347 0)
(8.46297 0.802645 -8.5167e-19)
(8.58656 0.824769 0)
(8.2559 0.90434 6.6284e-19)
(8.39182 0.929124 -1.94701e-18)
(8.03314 1.01847 -9.77097e-19)
(8.18266 1.046 4.27781e-18)
(7.79382 1.14677 -7.42186e-18)
(7.95845 1.17716 -7.07905e-18)
(7.53689 1.29123 2.4565e-19)
(7.71831 1.32462 -8.2353e-19)
(7.26111 1.45414 -1.06657e-18)
(7.46149 1.49074 3.87243e-18)
(6.96476 1.63812 -1.1135e-18)
(7.1869 1.67832 -5.39482e-18)
(6.64558 1.8462 6.17909e-18)
(6.89297 1.89059 4.79786e-18)
(6.30062 2.08199 2.15201e-18)
(6.57774 2.1314 7.48727e-19)
(5.92578 2.35012 1.49728e-18)
(6.23854 2.40557 1.11678e-17)
(5.51556 2.65686 7.64813e-19)
(5.87184 2.71941 -1.18919e-17)
(5.06254 3.01071 -1.42709e-17)
(5.4728 3.08139 1.14759e-17)
(4.55944 3.42688 -1.87973e-18)
(5.03879 3.50129 -2.9019e-18)
(3.97516 3.90435 -1.02906e-17)
(4.53026 4.01456 -9.75183e-18)
(3.4191 4.48142 9.12287e-18)
(4.17769 4.46599 -2.41487e-17)
(2.98879 5.48134 2.93433e-17)
(9.98751 0.0704808 -6.07787e-22)
(9.99321 0.0504387 -1.05951e-18)
(9.9614 0.113422 -5.7034e-19)
(9.97657 0.0978681 0)
(9.92111 0.15481 8.20753e-19)
(9.94498 0.142727 -1.11227e-18)
(9.86777 0.196863 9.08929e-19)
(9.89883 0.187446 1.14586e-18)
(9.80239 0.240799 -1.2047e-18)
(9.83999 0.233734 3.90285e-19)
(9.72545 0.287356 -7.89654e-19)
(9.76972 0.282454 -4.04599e-19)
(9.63713 0.337243 -4.35728e-19)
(9.68842 0.334338 -8.27897e-19)
(9.53754 0.391197 -1.94269e-19)
(9.59614 0.390174 8.42871e-19)
(9.42665 0.449947 -1.17517e-18)
(9.49284 0.450742 6.56456e-19)
(9.30434 0.514242 -1.11193e-18)
(9.3785 0.516817 -9.16916e-19)
(9.17041 0.584907 -7.77121e-19)
(9.253 0.58922 2.54509e-18)
(9.02459 0.662896 1.05218e-18)
(9.11614 0.668878 -3.3511e-18)
(8.86654 0.749325 1.94826e-18)
(8.96757 0.756894 1.98304e-18)
(8.69588 0.84541 0)
(8.80717 0.854514 0)
(8.51222 0.952487 -1.12702e-18)
(8.6346 0.963035 0)
(8.31514 1.07212 1.76588e-18)
(8.44937 1.08395 -1.64733e-18)
(8.10419 1.20611 -1.99499e-18)
(8.25133 1.21907 2.81828e-18)
(7.87882 1.35651 -3.86758e-19)
(8.04015 1.37042 -4.70595e-18)
(7.63842 1.52568 2.87641e-18)
(7.81531 1.54032 9.47123e-18)
(7.38238 1.71645 -5.76411e-19)
(7.57648 1.73152 5.30117e-21)
(7.10976 1.93219 6.37426e-19)
(7.32329 1.94738 6.85447e-18)
(6.81926 2.17691 -6.88101e-19)
(7.05506 2.19194 -2.01027e-17)
(6.50918 2.45551 9.84726e-18)
(6.77094 2.47004 9.52602e-18)
(6.1773 2.77419 -2.27691e-18)
(6.46994 2.78778 1.17941e-17)
(5.8207 3.14107 -1.25105e-18)
(6.15092 3.1529 -2.19667e-17)
(5.43559 3.56578 2.31359e-17)
(5.81169 3.57551 2.37021e-18)
(5.0244 4.06375 -1.0625e-17)
(5.45962 4.06162 1.43788e-17)
(4.5469 4.62257 -2.34423e-17)
(5.02434 4.66716 -2.86592e-18)
(4.14662 5.23335 -5.11774e-20)
(4.90625 5.10031 -2.02426e-17)
(3.63115 6.25632 4.0654e-17)
(9.98693 0.0787677 -1.03797e-18)
(9.99306 0.055779 2.60385e-19)
(9.96076 0.12807 -5.67496e-19)
(9.97627 0.109061 8.97565e-20)
(9.92136 0.176228 -7.37257e-19)
(9.94504 0.160431 1.82546e-19)
(9.86947 0.225211 6.10867e-19)
(9.90009 0.211887 -5.67992e-19)
(9.806 0.2763 1.17447e-18)
(9.84311 0.26505 3.35243e-21)
(9.73142 0.330377 -4.51172e-19)
(9.77517 0.320937 7.99297e-19)
(9.64598 0.388261 4.83615e-19)
(9.69667 0.38042 -1.64989e-18)
(9.54979 0.450773 1.69083e-18)
(9.6077 0.444364 2.10952e-18)
(9.44286 0.51873 8.86215e-19)
(9.5083 0.51362 8.71041e-19)
(9.32515 0.592983 2.8045e-18)
(9.39849 0.589047 -4.34334e-19)
(9.19651 0.674464 -1.31877e-19)
(9.27821 0.671575 1.8648e-18)
(9.05673 0.764231 -2.33072e-18)
(9.14733 0.762244 -2.37008e-18)
(8.90562 0.863509 0)
(9.00556 0.862225 4.80702e-19)
(8.74301 0.973648 0)
(8.85304 0.972857 -4.93841e-19)
(8.56863 1.09611 -5.45602e-19)
(8.68957 1.09562 0)
(8.38222 1.23262 -5.29494e-19)
(8.5147 1.23212 -5.37973e-19)
(8.18364 1.38519 0)
(8.32853 1.38431 0)
(7.97267 1.55613 5.35099e-18)
(8.13106 1.55445 4.42477e-18)
(7.74906 1.74813 6.48887e-18)
(7.9222 1.74514 8.0694e-19)
(7.51271 1.96443 7.52828e-18)
(7.70193 1.95944 -4.69882e-19)
(7.26349 2.20897 -1.41521e-17)
(7.47046 2.20113 5.05344e-18)
(7.00116 2.48657 -9.73179e-18)
(7.22809 2.47486 -2.13983e-17)
(6.72549 2.80308 1.15089e-17)
(6.97522 2.78621 1.9999e-17)
(6.43642 3.16585 -7.93946e-18)
(6.7125 3.14215 1.01657e-19)
(6.13429 3.58381 -1.85218e-17)
(6.44143 3.55112 -2.02386e-17)
(5.81858 4.06599 -6.75103e-18)
(6.16201 4.02408 -9.34879e-18)
(5.50112 4.62614 2.27016e-17)
(5.89425 4.55953 1.56928e-18)
(5.13121 5.24229 9.93988e-19)
(5.52411 5.24222 2.0396e-17)
(4.85438 5.84692 2.64248e-17)
(5.63077 5.62788 -2.91017e-18)
(4.2754 6.88015 5.26283e-18)
(9.98676 0.087106 1.38553e-18)
(9.99305 0.0611883 7.06136e-19)
(9.96085 0.142497 8.42292e-19)
(9.9764 0.120168 4.10375e-22)
(9.92247 0.197111 3.35487e-19)
(9.94583 0.177712 7.3787e-19)
(9.87226 0.252753 -1.16372e-18)
(9.90229 0.235599 -3.77565e-19)
(9.81099 0.31073 -3.55888e-19)
(9.84744 0.295367 -7.77963e-19)
(9.73914 0.372047 -4.48447e-19)
(9.78212 0.358137 7.92818e-19)
(9.65696 0.437628 4.89738e-20)
(9.70676 0.424906 -1.22738e-18)
(9.56459 0.508364 1.26619e-18)
(9.62152 0.496612 4.23042e-19)
(9.46212 0.585144 -4.73901e-19)
(9.52647 0.574162 -1.28172e-18)
(9.34956 0.668911 -1.33507e-18)
(9.42171 0.658491 1.30085e-18)
(9.22684 0.760702 -4.47438e-19)
(9.30725 0.750635 1.80023e-18)
(9.09383 0.861656 4.91246e-19)
(9.18301 0.851744 -1.37442e-18)
(8.95048 0.973065 -2.87982e-20)
(9.04889 0.963003 1.9106e-18)
(8.7968 1.09643 -4.86651e-19)
(8.905 1.08584 -5.36334e-18)
(8.6326 1.23336 0)
(8.75135 1.22196 3.96464e-18)
(8.45778 1.38566 0)
(8.58779 1.37309 0)
(8.27245 1.55553 4.48893e-18)
(8.41444 1.54119 0)
(8.0768 1.7455 -1.66085e-19)
(8.23165 1.72874 5.49953e-18)
(7.87096 1.95854 -6.19276e-18)
(8.03977 1.93859 -4.50181e-18)
(7.65523 2.19819 -2.91068e-18)
(7.83913 2.17408 -6.17402e-19)
(7.43024 2.46885 -2.3771e-18)
(7.63048 2.43928 -1.19005e-18)
(7.19685 2.77586 8.60849e-18)
(7.41499 2.73924 -4.74101e-20)
(6.95636 3.12564 8.55987e-18)
(7.19432 3.08003 9.79155e-18)
(6.71067 3.52611 -1.21494e-17)
(6.97067 3.46904 6.78703e-18)
(6.46315 3.98644 -1.11499e-17)
(6.74793 3.91488 -1.89382e-17)
(6.21598 4.51369 -1.21125e-18)
(6.5271 4.42917 -1.15133e-18)
(5.9884 5.1187 -1.22903e-18)
(6.34312 4.99951 -1.20512e-18)
(5.72148 5.7735 1.71935e-17)
(6.02931 5.74526 -1.34941e-17)
(5.53182 6.34868 -2.40589e-17)
(6.33336 6.07184 3.20692e-17)
(4.90349 7.37192 -5.21331e-17)
(9.98685 0.0953719 -6.93816e-19)
(9.99312 0.0665644 -7.02422e-19)
(9.96147 0.156603 -8.73792e-20)
(9.97685 0.131067 -4.44893e-22)
(9.92435 0.217362 0)
(9.9472 0.194468 0)
(9.87609 0.279366 0)
(9.90537 0.258467 0)
(9.81731 0.343939 4.033e-19)
(9.85291 0.324545 7.68161e-19)
(9.74849 0.412184 -2.6104e-20)
(9.79048 0.3939 -1.17378e-18)
(9.66992 0.485113 -8.21749e-19)
(9.71854 0.467617 3.99445e-19)
(9.58181 0.56368 -2.15799e-18)
(9.63739 0.546697 8.25253e-19)
(9.48429 0.648836 5.39524e-19)
(9.54714 0.632098 -2.98369e-18)
(9.37745 0.741608 4.44817e-18)
(9.44794 0.724832 1.75445e-18)
(9.2613 0.843137 8.21122e-19)
(9.33982 0.826035 3.29762e-20)
(9.1358 0.954638 9.78236e-20)
(9.22282 0.936936 -1.84703e-18)
(9.00096 1.07745 -3.54003e-18)
(9.09708 1.05879 5.6188e-18)
(8.85686 1.21318 -7.7432e-19)
(8.96248 1.19309 -6.77783e-18)
(8.70362 1.36359 3.91375e-18)
(8.81931 1.34163 4.45815e-18)
(8.54134 1.53059 0)
(8.66796 1.50627 3.00458e-18)
(8.37029 1.71644 1.07512e-18)
(8.50847 1.68906 -3.02986e-18)
(8.19101 1.9239 1.05111e-18)
(8.34142 1.89257 2.60172e-20)
(8.00406 2.15618 1.12748e-18)
(8.16758 2.1199 -1.04194e-18)
(7.8102 2.41708 1.10949e-18)
(7.98773 2.37463 1.12011e-18)
(7.61072 2.71123 1.15504e-18)
(7.80322 2.66102 -1.06352e-18)
(7.4075 3.04431 1.14805e-18)
(7.6159 2.98431 9.78045e-18)
(7.2032 3.4231 8.00835e-18)
(7.42852 3.35091 -8.59024e-18)
(7.00155 3.85545 2.41476e-19)
(7.24475 3.76838 9.14077e-18)
(6.80829 4.35036 -9.13788e-18)
(7.07057 4.24485 -7.96253e-18)
(6.62718 4.91257 -1.14616e-18)
(6.90636 4.79282 -1.12829e-18)
(6.48236 5.54895 -1.3202e-17)
(6.80335 5.38686 1.29805e-17)
(6.31019 6.22927 -6.79687e-19)
(6.53808 6.18313 -2.94592e-17)
(6.16786 6.76933 -4.89925e-18)
(7.00214 6.45877 1.44788e-17)
(5.50428 7.77184 -1.59961e-17)
(9.98713 0.103466 5.2624e-21)
(9.99325 0.0718295 -8.74432e-20)
(9.96254 0.17028 8.70075e-20)
(9.97756 0.141651 8.90794e-20)
(9.92693 0.236863 0)
(9.94908 0.210594 -7.24615e-19)
(9.88086 0.30492 7.84676e-19)
(9.90919 0.280369 0)
(9.82484 0.375794 -8.48782e-19)
(9.85932 0.35247 7.68716e-19)
(9.7593 0.450641 -7.17794e-19)
(9.79998 0.428114 -1.96143e-18)
(9.68464 0.530535 2.05573e-18)
(9.73175 0.508407 1.20205e-18)
(9.60117 0.616496 -6.92642e-20)
(9.65504 0.594418 -3.96498e-19)
(9.50906 0.709543 -1.68557e-18)
(9.57 0.687193 8.19847e-19)
(9.40841 0.810783 -2.69443e-18)
(9.47675 0.787823 -4.34843e-19)
(9.29931 0.921433 -2.66956e-18)
(9.37541 0.897503 -3.98761e-18)
(9.18189 1.04279 3.7948e-18)
(9.26618 1.01751 2.2074e-18)
(9.05619 1.17624 2.19904e-18)
(9.14931 1.14923 6.71581e-20)
(8.92237 1.32343 -1.38288e-18)
(9.02472 1.29416 1.3438e-18)
(8.78089 1.48624 3.52691e-18)
(8.89287 1.45407 9.54764e-19)
(8.63211 1.66671 -9.779e-20)
(8.75449 1.63101 9.84329e-20)
(8.47642 1.86721 -4.05293e-18)
(8.6098 1.82718 -4.05752e-18)
(8.31457 2.09058 -2.0842e-18)
(8.4595 2.0452 -7.65506e-20)
(8.14761 2.34023 -1.03627e-18)
(8.30468 2.28827 3.99774e-18)
(7.97686 2.62017 -1.07219e-18)
(8.14674 2.56018 9.17001e-18)
(7.80421 2.93517 7.61288e-18)
(7.98759 2.86534 -8.19683e-18)
(7.63237 3.29107 5.65399e-20)
(7.82966 3.2091 8.6846e-18)
(7.46518 3.69479 -7.59429e-18)
(7.67659 3.59799 -8.65727e-18)
(7.30786 4.15403 1.09254e-18)
(7.53325 4.03968 1.0858e-18)
(7.16808 4.67708 0)
(7.40759 4.54155 0)
(7.04991 5.267 1.27434e-17)
(7.29794 5.11738 0)
(6.9789 5.92637 -2.33055e-18)
(7.27144 5.72824 1.48687e-17)
(6.89086 6.62785 -1.61988e-17)
(7.04935 6.56626 -2.79222e-17)
(6.76368 7.14829 5.02602e-19)
(7.63831 6.81653 8.87097e-19)
(6.08199 8.14655 1.39168e-17)
(9.98756 0.111305 0)
(9.99342 0.0769208 -1.73236e-19)
(9.96397 0.183433 -7.41448e-19)
(9.97846 0.151834 -1.7666e-19)
(9.93006 0.255517 -7.08939e-19)
(9.95135 0.226006 7.19476e-19)
(9.88636 0.329318 0)
(9.91351 0.301236 -3.68799e-19)
(9.83326 0.406195 -3.99113e-19)
(9.86633 0.379067 7.57299e-19)
(9.77123 0.487297 2.05056e-20)
(9.81034 0.460666 -2.70957e-18)
(9.70082 0.573735 -1.28155e-18)
(9.74618 0.547116 1.18554e-18)
(9.62235 0.666616 5.14183e-19)
(9.67423 0.639596 -1.64083e-18)
(9.53599 0.767043 2.05138e-18)
(9.59473 0.739262 1.6764e-18)
(9.44191 0.87618 -1.78686e-18)
(9.50779 0.847249 0)
(9.34032 0.995285 9.9095e-19)
(9.41366 0.964774 -1.32947e-18)
(9.23145 1.12573 -1.55543e-18)
(9.31267 1.09316 3.12834e-18)
(9.1155 1.26898 -7.75868e-19)
(9.20513 1.2339 -9.52e-18)
(8.99279 1.42669 3.68346e-18)
(9.09122 1.38851 5.98386e-18)
(8.86386 1.60079 -2.49077e-18)
(8.97148 1.55876 -4.18702e-18)
(8.72934 1.79345 -3.91812e-18)
(8.8467 1.74679 1.77058e-18)
(8.58987 2.00714 -3.43191e-20)
(8.71751 1.95495 3.75667e-18)
(8.44641 2.24476 6.05354e-18)
(8.5848 2.18593 -3.84918e-18)
(8.30043 2.50983 1.42728e-17)
(8.44994 2.44293 6.03029e-18)
(8.15386 2.80653 1.99219e-18)
(8.31486 2.72984 4.34292e-19)
(8.00917 3.13973 -7.1457e-18)
(8.18201 3.05127 -8.1354e-18)
(7.86973 3.5153 0)
(8.05445 3.41269 7.70384e-18)
(7.74036 3.94018 0)
(7.93655 3.82056 0)
(7.62744 4.42191 0)
(7.8341 4.28254 1.54621e-17)
(7.54004 4.96821 0)
(7.75673 4.80533 -2.79567e-17)
(7.48198 5.5814 1.69292e-18)
(7.70016 5.40475 2.45712e-17)
(7.47596 6.26122 -9.90158e-18)
(7.74517 6.03047 -1.05615e-17)
(7.46317 6.98911 -1.21696e-17)
(7.56584 6.90606 -1.56143e-18)
(7.34147 7.52452 1.7187e-17)
(8.25679 7.16678 -9.68507e-18)
(6.65689 8.5542 3.4499e-17)
(9.9881 0.118828 -3.49942e-19)
(9.99363 0.0817961 -9.8293e-22)
(9.96565 0.195996 1.30552e-18)
(9.97951 0.161555 -1.05288e-18)
(9.93352 0.273274 1.03655e-18)
(9.9539 0.240669 2.1621e-18)
(9.89224 0.3525 4.12213e-19)
(9.91818 0.321046 -3.69096e-19)
(9.84225 0.43503 -1.62304e-18)
(9.87382 0.404246 7.57928e-19)
(9.7841 0.521983 -1.47026e-18)
(9.82152 0.491377 -1.55193e-18)
(9.7183 0.614517 7.74731e-19)
(9.76175 0.58355 8.02094e-21)
(9.64515 0.713837 -4.19635e-19)
(9.69487 0.682055 0)
(9.56488 0.821113 -4.05403e-19)
(9.62118 0.788112 -3.32651e-21)
(9.47777 0.93754 4.36853e-19)
(9.54091 0.902869 0)
(9.38413 1.06441 8.78117e-19)
(9.45441 1.02757 -8.41386e-19)
(9.28428 1.20315 -5.02646e-18)
(9.36206 1.1636 -3.01318e-18)
(9.17862 1.35529 -2.54746e-18)
(9.26429 1.31248 -1.01453e-18)
(9.0676 1.52249 -2.02368e-18)
(9.16154 1.47578 9.38755e-19)
(8.95184 1.70671 1.43829e-19)
(9.05444 1.65528 -3.78899e-18)
(8.83219 1.91022 9.4872e-18)
(8.94381 1.85314 7.44165e-18)
(8.70961 2.13557 -1.22224e-19)
(8.83069 2.07184 3.86309e-18)
(8.58535 2.38571 -3.82261e-18)
(8.71625 2.3141 -4.83685e-18)
(8.46124 2.66418 -7.88158e-18)
(8.60216 2.5831 -8.991e-19)
(8.33967 2.97526 -9.76538e-18)
(8.49069 2.8828 -8.82734e-18)
(8.22372 3.32397 6.74096e-18)
(8.38477 3.21796 -3.87639e-20)
(8.11746 3.71616 7.77571e-18)
(8.28826 3.59414 7.7561e-18)
(8.02648 4.15873 1.53644e-17)
(8.20622 4.01772 -8.72459e-19)
(7.95804 4.65892 -1.1826e-17)
(8.1451 4.49623 2.90272e-17)
(7.922 5.22475 -4.57026e-18)
(8.11595 5.03605 -3.96103e-17)
(7.92231 5.85879 1.34123e-17)
(8.11213 5.65533 2.48846e-17)
(7.97512 6.56198 -2.40116e-18)
(8.22474 6.298 -2.28838e-17)
(8.03542 7.32806 1.00265e-18)
(8.09616 7.20931 2.90257e-17)
(7.93321 7.92666 1.40354e-17)
(8.88023 7.52202 -1.15843e-17)
(7.26133 9.03574 1.16805e-17)
(9.98872 0.125988 -7.25137e-19)
(9.99384 0.086424 1.72572e-19)
(9.96752 0.207925 -1.2354e-19)
(9.9807 0.170765 5.19054e-19)
(9.93729 0.290095 7.00966e-19)
(9.95671 0.254533 2.49921e-21)
(9.89858 0.374394 0)
(9.92323 0.339726 7.29904e-19)
(9.85195 0.462161 7.83812e-19)
(9.88193 0.427879 -7.43471e-19)
(9.79799 0.554525 -4.28387e-20)
(9.83362 0.520088 7.68921e-19)
(9.73708 0.652713 -7.67804e-19)
(9.77846 0.61756 2.32444e-18)
(9.66951 0.757998 4.16613e-19)
(9.71682 0.721651 7.34876e-21)
(9.59564 0.871577 4.02753e-19)
(9.64922 0.833571 4.17785e-19)
(9.51585 0.994664 -1.29262e-18)
(9.57593 0.954486 -1.63838e-18)
(9.43053 1.12858 -4.76984e-18)
(9.49736 1.08569 1.24047e-18)
(9.34011 1.2748 1.02976e-18)
(9.41399 1.22859 -4.30923e-18)
(9.24511 1.43487 2.50606e-18)
(9.32636 1.38471 6.75266e-20)
(9.14618 1.61048 -8.8652e-19)
(9.23513 1.55566 -6.3118e-20)
(9.04407 1.8036 3.63853e-18)
(9.14104 1.74324 -3.54644e-18)
(8.93981 2.01658 1.7722e-18)
(9.04503 1.94964 7.18567e-18)
(8.83469 2.252 -9.25635e-19)
(8.94844 2.17734 1.76657e-18)
(8.73028 2.51281 -1.8815e-18)
(8.85279 2.4291 -3.59133e-18)
(8.62867 2.80255 -1.86614e-18)
(8.76001 2.70809 -9.70868e-19)
(8.53267 3.12556 9.35211e-19)
(8.67266 3.0183 8.82218e-19)
(8.44597 3.48697 9.3875e-19)
(8.59412 3.36451 -6.05931e-18)
(8.3734 3.89262 -8.68735e-19)
(8.52909 3.7523 6.87691e-18)
(8.32128 4.34926 1.24246e-17)
(8.4834 4.18795 -5.78748e-18)
(8.29754 4.86414 2.53973e-18)
(8.46397 4.67904 1.90854e-17)
(8.31248 5.44617 -1.16438e-17)
(8.48344 5.2321 -2.14736e-18)
(8.3715 6.09936 -1.01646e-17)
(8.53377 5.86694 -9.51491e-18)
(8.48219 6.83194 7.66732e-18)
(8.71249 6.5306 -6.63088e-19)
(8.62468 7.64833 1.84823e-17)
(8.65368 7.47276 1.83541e-17)
(8.57965 8.37007 -1.29099e-17)
(9.53077 7.88129 -8.97144e-18)
(7.93056 9.61009 4.68011e-18)
(9.98941 0.132744 1.42448e-18)
(9.99407 0.090774 -1.70643e-19)
(9.96961 0.219163 6.33776e-19)
(9.98204 0.179407 8.7544e-19)
(9.94142 0.305899 4.69108e-20)
(9.9598 0.267529 -3.60297e-19)
(9.90549 0.394878 -4.40062e-20)
(9.92869 0.357177 3.69023e-19)
(9.8625 0.487442 -7.29165e-19)
(9.89073 0.449841 -4.15385e-21)
(9.81291 0.584784 3.16663e-18)
(9.84654 0.546705 -4.93644e-22)
(9.75702 0.688189 3.06039e-18)
(9.79603 0.649085 3.10644e-18)
(9.69522 0.798938 1.54395e-20)
(9.73982 0.758292 7.35753e-21)
(9.628 0.91823 -1.65806e-18)
(9.67855 0.875509 8.10421e-19)
(9.55581 1.0473 9.40133e-19)
(9.61247 1.00195 -3.25677e-18)
(9.4791 1.18751 1.6257e-18)
(9.54209 1.13894 1.69868e-18)
(9.3984 1.34034 -5.21553e-18)
(9.46798 1.2879 -8.43061e-19)
(9.31441 1.50734 -2.51239e-18)
(9.39077 1.45034 -4.3311e-18)
(9.22789 1.69025 -2.7635e-18)
(9.31133 1.6279 2.6002e-18)
(9.13979 1.89102 1.00789e-19)
(9.23055 1.82238 -4.44059e-18)
(9.05134 2.112 7.1407e-18)
(9.1495 2.03593 3.58453e-18)
(8.96407 2.35578 -9.31657e-19)
(9.06977 2.27104 -7.56005e-19)
(8.87989 2.62532 -2.67319e-18)
(8.99318 2.53045 -9.96816e-19)
(8.80121 2.92414 1.79085e-18)
(8.92197 2.81736 9.08405e-19)
(8.73117 3.25654 -6.11861e-18)
(8.85905 3.13569 2.65969e-20)
(8.67403 3.62765 -1.98915e-19)
(8.80827 3.49009 -7.85989e-18)
(8.63543 4.04325 2.0883e-18)
(8.77495 3.88597 6.91706e-18)
(8.62245 4.50995 4.80761e-19)
(8.76569 4.3296 -5.72638e-18)
(8.64385 5.03552 1.48578e-17)
(8.78834 4.82869 1.71049e-17)
(8.71044 5.62956 1.92891e-19)
(8.85704 5.38989 -9.21447e-19)
(8.83091 6.29919 -2.21251e-19)
(8.96445 6.03376 -9.61738e-18)
(9.00468 7.06446 9.64504e-18)
(9.20964 6.71968 1.75616e-17)
(9.24979 7.93343 -7.28502e-18)
(9.24827 7.67685 -9.2465e-19)
(9.31391 8.85102 8.39169e-18)
(10.2102 8.2255 -1.48666e-17)
(8.69137 10.2739 2.39984e-17)
(9.99019 0.139054 -6.99566e-19)
(9.99433 0.0948129 1.10659e-18)
(9.97192 0.229655 -1.47161e-19)
(9.98348 0.187426 -2.05711e-19)
(9.94591 0.320632 -2.22656e-20)
(9.96308 0.27961 2.88935e-20)
(9.91291 0.413897 4.01296e-19)
(9.93454 0.373342 3.12003e-19)
(9.87367 0.510846 7.25471e-19)
(9.90002 0.470096 6.18415e-20)
(9.82851 0.612768 -4.25042e-21)
(9.85992 0.571233 -7.09195e-19)
(9.77774 0.720955 -3.63223e-21)
(9.81419 0.678102 -7.25754e-19)
(9.72191 0.836645 8.1637e-19)
(9.76368 0.791906 7.30703e-19)
(9.66156 0.961046 -8.52408e-19)
(9.70895 0.913838 7.28761e-20)
(9.59719 1.09544 -2.42553e-18)
(9.65033 1.04517 1.37782e-18)
(9.52934 1.2412 -8.08782e-19)
(9.58841 1.18724 -8.33315e-19)
(9.45862 1.39978 0)
(9.52385 1.34147 0)
(9.38586 1.57276 8.69259e-19)
(9.45737 1.50933 0)
(9.312 1.76185 8.50209e-19)
(9.39002 1.69244 1.66455e-18)
(9.23819 1.969 -8.80951e-19)
(9.32284 1.89261 7.92821e-19)
(9.16579 2.1965 -4.36392e-18)
(9.25704 2.11197 -8.90734e-19)
(9.09656 2.44695 -8.27565e-19)
(9.19447 2.35295 -1.94264e-18)
(9.03274 2.72326 2.6054e-18)
(9.13719 2.61823 9.83081e-18)
(8.97714 3.0289 -8.61895e-19)
(9.08775 2.91093 -1.26019e-17)
(8.93331 3.36804 -1.68926e-18)
(9.04953 3.2349 4.56778e-18)
(8.90591 3.74559 -8.33062e-19)
(9.02692 3.59454 -8.02467e-20)
(8.90129 4.16705 -7.79761e-19)
(9.02549 3.99484 -5.77916e-18)
(8.92755 4.63908 1.05679e-17)
(9.05268 4.44183 4.79681e-18)
(8.99452 5.1697 1.67819e-18)
(9.11781 4.94301 1.17855e-17)
(9.11385 5.769 -1.0565e-17)
(9.23585 5.50496 -1.98269e-17)
(9.29932 6.44863 7.50982e-18)
(9.40328 6.14763 8.7878e-18)
(9.54386 7.24071 6.80892e-18)
(9.71496 6.84789 7.7893e-18)
(9.91074 8.164 -6.93389e-18)
(9.88557 7.78995 2.10878e-18)
(10.1476 9.52791 3.45582e-18)
(10.987 8.51283 -9.73544e-18)
(10.765 10.9405 9.18498e-18)
(0.0976338 -0.0545391 7.36812e-20)
(0.0286673 -0.0631922 1.80274e-19)
(0.259574 -0.062558 9.16492e-20)
(0.140541 -0.0970861 3.58902e-19)
(0.474741 -0.0614402 4.87181e-20)
(0.333053 -0.103304 -2.41628e-19)
(0.723878 -0.0591592 1.54927e-20)
(0.561871 -0.103502 5.27678e-20)
(0.972976 -0.055727 -2.646e-20)
(0.806839 -0.0997376 -4.97523e-20)
(1.1947 -0.0517709 -7.79741e-21)
(1.03681 -0.0935959 -2.75322e-22)
(1.38092 -0.0477817 1.90403e-20)
(1.23391 -0.0864959 -1.70628e-20)
(1.53589 -0.0439735 1.47777e-20)
(1.39752 -0.079525 3.29022e-20)
(1.66646 -0.0403287 -1.81324e-20)
(1.53357 -0.0730321 -1.55686e-20)
(1.77783 -0.0366892 -2.88064e-21)
(1.64771 -0.0667705 2.01891e-22)
(1.87292 -0.0332065 0)
(1.74411 -0.0601934 1.82128e-20)
(1.95515 -0.0304458 0)
(1.82537 -0.0543283 -6.32198e-21)
(2.02945 -0.0283389 -1.99927e-23)
(1.89473 -0.0507572 -1.18658e-20)
(2.09798 -0.0259422 1.878e-21)
(1.95727 -0.0480492 1.51488e-21)
(2.15852 -0.0229563 1.84927e-21)
(2.0154 -0.0433431 1.85981e-21)
(2.20957 -0.020423 -9.96533e-22)
(2.06637 -0.0371928 3.83228e-21)
(2.25464 -0.0193512 -9.89724e-22)
(2.10743 -0.0333078 -8.04247e-21)
(2.29996 -0.019365 1.2514e-21)
(2.14169 -0.0338692 4.25e-21)
(2.34933 -0.019225 1.30569e-21)
(2.1758 -0.0372323 2.57986e-21)
(2.40261 -0.0182938 -2.11742e-21)
(2.21377 -0.0404945 1.82794e-21)
(2.45737 -0.0171001 -2.16749e-21)
(2.25531 -0.0419421 -4.27661e-21)
(2.5116 -0.0168205 8.15814e-22)
(2.29784 -0.0418428 0)
(2.56513 -0.0185566 8.12814e-22)
(2.33925 -0.0415892 3.34272e-21)
(2.61997 -0.0229186 0)
(2.37895 -0.0428907 -5.17431e-21)
(2.67955 -0.0299963 3.94597e-22)
(2.41832 -0.0468657 0)
(2.74766 -0.0394218 3.67921e-22)
(2.46038 -0.053867 3.93989e-22)
(2.82843 -0.0504066 2.90414e-22)
(2.50963 -0.06419 1.60107e-21)
(2.92604 -0.061626 -2.72293e-22)
(2.57198 -0.0779201 -2.7849e-22)
(3.04316 -0.0704837 -5.75472e-22)
(2.65412 -0.0939696 -1.24524e-21)
(2.79353 -0.107041 6.07652e-22)
(0.0561726 -0.112533 4.53345e-19)
(-0.000931265 -0.103878 1.82616e-19)
(0.196496 -0.150939 8.47464e-20)
(0.0821104 -0.185836 2.6309e-20)
(0.402974 -0.15802 -2.59424e-19)
(0.253415 -0.204064 -1.77647e-20)
(0.642622 -0.156656 -1.12914e-20)
(0.456311 -0.205025 -1.84648e-19)
(0.880701 -0.149387 -2.17073e-20)
(0.674167 -0.197343 1.73283e-19)
(1.09015 -0.139107 -9.82841e-21)
(0.874601 -0.184417 -1.02709e-20)
(1.26306 -0.12797 0)
(1.04117 -0.169278 0)
(1.40393 -0.117241 0)
(1.17356 -0.154353 -1.46774e-20)
(1.5201 -0.107141 3.03751e-21)
(1.27787 -0.14059 -4.75227e-20)