/*--------------------------------*- C++ -*----------------------------------*\
| =========                 |                                                 |
| \\      /  F ield         | OpenFOAM: The Open Source CFD Toolbox           |
|  \\    /   O peration     | Version:  2006                                  |
|   \\  /    A nd           | Website:  www.openfoam.com                      |
|    \\/     M anipulation  |                                                 |
\*---------------------------------------------------------------------------*/
FoamFile
{
    version     2.0;
    format      ascii;
    class       volVectorField;
    location    "8.1";
    object      U;
}
// * * * * * * * * * * * * * * * * * * * * * * * * * * * * * * * * * * * * * //

dimensions      [0 1 -1 0 0 0 0];


internalField   nonuniform List<vector> 
2790
(
(9.94399 0.0205233 0)
(9.87572 0.0295879 0)
(9.77521 0.0359898 0)
(9.64943 0.0425566 0)
(9.50409 0.0493861 0)
(9.34006 0.0564292 0)
(9.15654 0.063817 0)
(8.95261 0.0717131 0)
(8.72745 0.0802572 0)
(8.48006 0.089576 0)
(8.20924 0.0997966 0)
(7.91361 0.111049 0)
(7.59164 0.123465 0)
(7.24172 0.137171 0)
(6.86226 0.152279 0)
(6.45171 0.168878 0)
(6.00878 0.187006 0)
(5.53257 0.206628 0)
(5.02285 0.2276 0)
(4.48031 0.249621 0)
(3.90701 0.272185 0)
(3.30668 0.294533 0)
(2.68514 0.315626 0)
(2.05047 0.334292 0)
(1.41166 0.350607 0)
(0.797917 0.372886 0)
(0.110544 0.324997 0)
(-0.469572 -0.11489 0)
(-0.453796 -0.29713 0)
(-0.231165 -0.423849 0)
(9.9985 0.0407033 0)
(9.98145 0.0623833 0)
(9.93574 0.079141 0)
(9.86416 0.096626 0)
(9.77097 0.115126 0)
(9.65715 0.13449 0)
(9.52205 0.154978 0)
(9.36484 0.176947 0)
(9.1847 0.200713 0)
(8.98065 0.226556 0)
(8.7515 0.254752 0)
(8.49585 0.28557 0)
(8.21216 0.319261 0)
(7.89877 0.356037 0)
(7.55397 0.396036 0)
(7.17612 0.439281 0)
(6.76369 0.485612 0)
(6.31556 0.534607 0)
(5.83114 0.585482 0)
(5.31075 0.636973 0)
(4.75602 0.68722 0)
(4.17027 0.733658 0)
(3.55915 0.772959 0)
(2.93141 0.801093 0)
(2.29982 0.813742 0)
(1.69284 0.807241 0)
(1.10705 0.747219 0)
(0.658827 0.547889 0)
(0.186338 0.224549 0)
(-0.00819843 -0.453759 0)
(9.99559 0.0432074 0)
(9.97556 0.0752726 0)
(9.9318 0.103347 0)
(9.86489 0.132373 0)
(9.77778 0.163062 0)
(9.67154 0.195402 0)
(9.54587 0.229747 0)
(9.40012 0.266609 0)
(9.23364 0.306478 0)
(9.04562 0.349817 0)
(8.83506 0.397084 0)
(8.60078 0.448737 0)
(8.34141 0.50521 0)
(8.05545 0.566884 0)
(7.74132 0.634034 0)
(7.39737 0.706756 0)
(7.02202 0.784864 0)
(6.61386 0.867752 0)
(6.17183 0.954221 0)
(5.69552 1.04228 0)
(5.1855 1.1289 0)
(4.64382 1.2098 0)
(4.07466 1.27916 0)
(3.48524 1.32933 0)
(2.88672 1.35007 0)
(2.29935 1.3264 0)
(1.73175 1.22073 0)
(1.21618 0.972951 0)
(0.701093 0.570085 0)
(0.358009 -0.156647 0)
(9.99403 0.0494999 0)
(9.97181 0.0932075 0)
(9.92788 0.133574 0)
(9.86224 0.174212 0)
(9.77693 0.216437 0)
(9.67298 0.260666 0)
(9.55031 0.307436 0)
(9.40848 0.357423 0)
(9.24701 0.411301 0)
(9.06531 0.469718 0)
(8.86266 0.533318 0)
(8.63816 0.602743 0)
(8.39081 0.678615 0)
(8.11947 0.761501 0)
(7.82294 0.85185 0)
(7.49994 0.949907 0)
(7.14916 1.05558 0)
(6.76935 1.16827 0)
(6.35939 1.28664 0)
(5.91848 1.4083 0)
(5.4464 1.52949 0)
(4.94387 1.6447 0)
(4.41303 1.74615 0)
(3.85813 1.82321 0)
(3.28569 1.86134 0)
(2.70628 1.84028 0)
(2.12555 1.72594 0)
(1.55418 1.47779 0)
(0.957902 1.08361 0)
(0.509409 0.502232 0)
(9.99331 0.0572144 0)
(9.96994 0.11096 0)
(9.92593 0.162106 0)
(9.86146 0.213351 0)
(9.77798 0.266361 0)
(9.67634 0.32192 0)
(9.55653 0.38071 0)
(9.41821 0.443499 0)
(9.26096 0.511069 0)
(9.08431 0.584186 0)
(8.88768 0.663607 0)
(8.67035 0.750087 0)
(8.43155 0.844362 0)
(8.17041 0.947115 0)
(7.88602 1.05891 0)
(7.57741 1.18011 0)
(7.24358 1.31073 0)
(6.88351 1.45022 0)
(6.49618 1.59726 0)
(6.08061 1.74936 0)
(5.63603 1.90244 0)
(5.16198 2.05034 0)
(4.65863 2.18418 0)
(4.12707 2.29173 0)
(3.56926 2.35653 0)
(2.98876 2.35727 0)
(2.38673 2.26488 0)
(1.76631 2.04754 0)
(1.08994 1.69128 0)
(0.536629 1.15402 0)
(9.99302 0.0655395 0)
(9.96923 0.128703 0)
(9.92556 0.190116 0)
(9.86253 0.251848 0)
(9.78128 0.315584 0)
(9.68244 0.382326 0)
(9.566 0.452884 0)
(9.4317 0.528114 0)
(9.27919 0.608896 0)
(9.10804 0.696103 0)
(8.91775 0.790602 0)
(8.70771 0.893252 0)
(8.47724 1.00489 0)
(8.22563 1.12629 0)
(7.95209 1.25813 0)
(7.65582 1.40086 0)
(7.33595 1.55459 0)
(6.99155 1.71891 0)
(6.62158 1.8926 0)
(6.22489 2.07327 0)
(5.80015 2.25688 0)
(5.3459 2.43723 0)
(4.86056 2.6052 0)
(4.34254 2.74821 0)
(3.79024 2.84951 0)
(3.20243 2.88813 0)
(2.57645 2.83813 0)
(1.91337 2.67148 0)
(1.17269 2.37385 0)
(0.549939 1.89424 0)
(9.99297 0.0740758 0)
(9.96926 0.146316 0)
(9.92637 0.217486 0)
(9.86508 0.289297 0)
(9.78642 0.363362 0)
(9.69084 0.440836 0)
(9.57834 0.522671 0)
(9.44871 0.609825 0)
(9.30164 0.703273 0)
(9.13676 0.803987 0)
(8.95362 0.912927 0)
(8.75167 1.03104 0)
(8.5303 1.15926 0)
(8.28883 1.29844 0)
(8.02654 1.44935 0)
(7.74262 1.61253 0)
(7.43622 1.78824 0)
(7.10631 1.97622 0)
(6.7517 2.17546 0)
(6.37088 2.38387 0)
(5.96196 2.59778 0)
(5.52249 2.81141 0)
(5.04936 3.01616 0)
(4.53883 3.19995 0)
(3.98649 3.34663 0)
(3.38774 3.43588 0)
(2.7371 3.44319 0)
(2.03612 3.34133 0)
(1.24167 3.11338 0)
(0.563478 2.69293 0)
(9.99306 0.0825891 0)
(9.96981 0.163608 0)
(9.92807 0.244053 0)
(9.86885 0.325485 0)
(9.79312 0.409453 0)
(9.70126 0.497216 0)
(9.59323 0.589851 0)
(9.46887 0.688411 0)
(9.32795 0.793959 0)
(9.17013 0.907554 0)
(8.99501 1.03025 0)
(8.80208 1.16307 0)
(8.59078 1.30705 0)
(8.36047 1.46314 0)
(8.1104 1.6322 0)
(7.83974 1.81493 0)
(7.54753 2.01173 0)
(7.23258 2.22258 0)
(6.89339 2.4468 0)
(6.52804 2.68276 0)
(6.13394 2.92741 0)
(5.70769 3.17581 0)
(5.24479 3.42039 0)
(4.73958 3.65019 0)
(4.18528 3.85019 0)
(3.57455 4.00079 0)
(2.89933 4.07776 0)
(2.16195 4.05218 0)
(1.31602 3.90145 0)
(0.583171 3.53988 0)
(9.99326 0.0909294 0)
(9.97072 0.180411 0)
(9.93046 0.269671 0)
(9.87362 0.360247 0)
(9.80118 0.453654 0)
(9.71343 0.551219 0)
(9.61038 0.654125 0)
(9.49188 0.763513 0)
(9.35775 0.880526 0)
(9.20772 1.00631 0)
(9.04144 1.14199 0)
(8.85846 1.28871 0)
(8.65824 1.44757 0)
(8.44018 1.61964 0)
(8.20353 1.80593 0)
(7.9474 2.00728 0)
(7.67071 2.22432 0)
(7.37207 2.45736 0)
(7.04968 2.70614 0)
(6.70114 2.96965 0)
(6.32319 3.24574 0)
(5.91147 3.53059 0)
(5.46016 3.8181 0)
(4.96178 4.09899 0)
(4.40716 4.35982 0)
(3.78615 4.582 0)
(3.08732 4.7409 0)
(2.3125 4.80421 0)
(1.4105 4.74077 0)
(0.614241 4.44157 0)
(9.99352 0.0989933 0)
(9.97191 0.196581 0)
(9.9334 0.294199 0)
(9.87924 0.393422 0)
(9.8104 0.495763 0)
(9.72717 0.602598 0)
(9.62953 0.715196 0)
(9.51741 0.834779 0)
(9.39068 0.962566 0)
(9.24912 1.09978 0)
(9.09244 1.24763 0)
(8.92026 1.40733 0)
(8.73211 1.58012 0)
(8.52739 1.76716 0)
(8.30539 1.96963 0)
(8.0652 2.18856 0)
(7.80566 2.42488 0)
(7.52521 2.67926 0)
(7.2218 2.95202 0)
(6.89263 3.24292 0)
(6.53386 3.55089 0)
(6.14027 3.87358 0)
(5.70482 4.20676 0)
(5.21821 4.54341 0)
(4.66869 4.8724 0)
(4.04254 5.17686 0)
(3.32336 5.43211 0)
(2.50947 5.60166 0)
(1.54166 5.64309 0)
(0.663958 5.41757 0)
(9.99384 0.106705 0)
(9.9733 0.212002 0)
(9.9368 0.317506 0)
(9.88558 0.424861 0)
(9.82064 0.535596 0)
(9.74225 0.65113 0)
(9.65045 0.772801 0)
(9.54518 0.901903 0)
(9.42638 1.03972 0)
(9.2939 1.18755 0)
(9.14752 1.34667 0)
(8.98693 1.5184 0)
(8.81173 1.70404 0)
(8.62141 1.90494 0)
(8.41528 2.12239 0)
(8.19248 2.35768 0)
(7.95182 2.61206 0)
(7.6917 2.88665 0)
(7.40994 3.1824 0)
(7.1035 3.49999 0)
(6.76817 3.8396 0)
(6.39811 4.20066 0)
(5.98529 4.58128 0)
(5.51876 4.97739 0)
(4.984 5.38132 0)
(4.36284 5.77946 0)
(3.63146 6.14892 0)
(2.77971 6.4503 0)
(1.73314 6.62799 0)
(0.74468 6.50245 0)
(9.9942 0.114007 0)
(9.97487 0.226577 0)
(9.94056 0.339476 0)
(9.89252 0.454428 0)
(9.83174 0.57299 0)
(9.75851 0.696619 0)
(9.67289 0.826707 0)
(9.57488 0.96461 0)
(9.46449 1.11167 0)
(9.34162 1.26925 0)
(9.20616 1.43869 0)
(9.05786 1.62138 0)
(8.89644 1.81875 0)
(8.72146 2.03223 0)
(8.53235 2.26332 0)
(8.32833 2.51354 0)
(8.1083 2.78446 0)
(7.87073 3.07769 0)
(7.6135 3.39487 0)
(7.33359 3.73764 0)
(7.02673 4.10761 0)
(6.6869 4.50619 0)
(6.30558 4.93426 0)
(5.8707 5.39156 0)
(5.36531 5.8754 0)
(4.76634 6.37819 0)
(4.0401 6.88301 0)
(3.16085 7.35308 0)
(2.02425 7.72252 0)
(0.880481 7.75618 0)
(9.99459 0.120854 0)
(9.97657 0.240226 0)
(9.94461 0.36001 0)
(9.89996 0.482005 0)
(9.84356 0.607802 0)
(9.77576 0.738891 0)
(9.69663 0.87671 0)
(9.60624 1.02266 0)
(9.50464 1.17814 0)
(9.39185 1.34454 0)
(9.26782 1.52329 0)
(9.13242 1.71583 0)
(8.98548 1.92367 0)
(8.82668 2.14837 0)
(8.65561 2.39157 0)
(8.47165 2.65504 0)
(8.27388 2.94065 0)
(8.06101 3.25049 0)
(7.83116 3.58685 0)
(7.58165 3.95236 0)
(7.30859 4.35004 0)
(7.00638 4.78337 0)
(6.66686 5.25632 0)
(6.27801 5.77314 0)
(5.82187 6.33783 0)
(5.27176 6.95244 0)
(4.58368 7.61347 0)
(3.70905 8.30046 0)
(2.48737 8.95733 0)
(1.12402 9.29186 0)
(9.99501 0.127211 0)
(9.97838 0.252886 0)
(9.94891 0.379023 0)
(9.9078 0.50749 0)
(9.85599 0.639913 0)
(9.79382 0.77781 0)
(9.72143 0.92265 0)
(9.63894 1.07587 0)
(9.54648 1.23891 0)
(9.44414 1.4132 0)
(9.33196 1.6002 0)
(9.20996 1.80141 0)
(9.07806 2.0184 0)
(8.93615 2.25283 0)
(8.78398 2.50648 0)
(8.62115 2.78129 0)
(8.44705 3.07943 0)
(8.26075 3.40336 0)
(8.06086 3.75597 0)
(7.84532 4.14073 0)
(7.61111 4.56194 0)
(7.3538 5.02499 0)
(7.06675 5.53684 0)
(6.73988 6.10645 0)
(6.35722 6.74553 0)
(5.89316 7.4691 0)
(5.29962 8.2963 0)
(4.50749 9.24756 0)
(3.26744 10.3407 0)
(1.60412 11.3569 0)
(9.99545 0.133051 0)
(9.98026 0.264505 0)
(9.95339 0.396444 0)
(9.91596 0.530791 0)
(9.86889 0.669203 0)
(9.81253 0.813219 0)
(9.74709 0.964332 0)
(9.67272 1.12401 0)
(9.58965 1.2937 0)
(9.49803 1.47487 0)
(9.39804 1.66899 0)
(9.28979 1.87762 0)
(9.17339 2.10235 0)
(9.04888 2.34492 0)
(8.91625 2.60719 0)
(8.77539 2.89124 0)
(8.62605 3.19942 0)
(8.46779 3.5345 0)
(8.29988 3.89977 0)
(8.12117 4.29933 0)
(7.92996 4.7384 0)
(7.72368 5.22382 0)
(7.49849 5.76482 0)
(7.24848 6.3742 0)
(6.96415 7.07039 0)
(6.62994 7.88119 0)
(6.21303 8.85197 0)
(5.66397 10.0656 0)
(4.68781 11.7299 0)
(2.68559 14.5881 0)
(0.120491 -0.119571 0)
(0.282908 -0.108789 0)
(0.448611 -0.0853595 0)
(0.586483 -0.0625858 0)
(0.690815 -0.0431506 0)
(0.765183 -0.0270763 0)
(0.814416 -0.0139036 0)
(0.842539 -0.00322307 0)
(0.852939 0.00514003 0)
(0.848844 0.0107488 0)
(0.833286 0.0142847 0)
(0.809375 0.0163471 0)
(0.779861 0.0172197 0)
(0.747106 0.0170987 0)
(0.713234 0.0161632 0)
(0.68015 0.0146118 0)
(0.649432 0.0126766 0)
(0.622216 0.0105979 0)
(0.599128 0.0085962 0)
(0.580276 0.00684573 0)
(0.565313 0.0054472 0)
(0.553585 0.00442239 0)
(0.5443 0.0037383 0)
(0.53668 0.00331371 0)
(0.53007 0.00304606 0)
(0.523984 0.00286817 0)
(0.518082 0.00274551 0)
(0.51213 0.00265213 0)
(0.505997 0.00253121 0)
(0.498831 0.00200587 0)
(0.104331 -0.281552 0)
(0.263762 -0.263895 0)
(0.419674 -0.214069 0)
(0.55263 -0.164364 0)
(0.658599 -0.12154 0)
(0.740982 -0.0858034 0)
(0.803908 -0.0562007 0)
(0.850692 -0.0318336 0)
(0.883833 -0.0120504 0)
(0.905443 0.00361486 0)
(0.91599 0.0152233 0)
(0.917365 0.0233208 0)
(0.912105 0.02831 0)
(0.902537 0.0306049 0)
(0.89079 0.0306052 0)
(0.878782 0.0287595 0)
(0.868088 0.0255789 0)
(0.859826 0.0216134 0)
(0.854598 0.0174108 0)
(0.852492 0.0134574 0)
(0.853148 0.0101007 0)
(0.855913 0.00749976 0)
(0.859993 0.00564909 0)
(0.864624 0.00446751 0)
(0.869219 0.00379767 0)
(0.873421 0.00348686 0)
(0.877042 0.00341774 0)
(0.879998 0.00349084 0)
(0.882179 0.00360108 0)
(0.883888 0.00328329 0)
(0.0838395 -0.446695 0)
(0.222623 -0.417986 0)
(0.348649 -0.341821 0)
(0.456128 -0.266613 0)
(0.542006 -0.202181 0)
(0.609782 -0.148519 0)
(0.662665 -0.104192 0)
(0.703128 -0.0678913 0)
(0.733308 -0.0385522 0)
(0.754994 -0.01494 0)
(0.772245 0.00388608 0)
(0.78287 0.0177234 0)
(0.788498 0.0267904 0)
(0.790751 0.0315405 0)
(0.791045 0.0325349 0)
(0.790693 0.0305125 0)
(0.790786 0.0263098 0)
(0.792078 0.0208088 0)
(0.794936 0.0148978 0)
(0.799316 0.00937897 0)
(0.804803 0.00482081 0)
(0.810691 0.00152875 0)
(0.815968 -0.000373688 0)
(0.82035 -0.00117376 0)
(0.823998 -0.00123991 0)
(0.827235 -0.000902917 0)
(0.8304 -0.000372012 0)
(0.833745 0.000269993 0)
(0.837059 0.000924273 0)
(0.840259 0.00157345 0)
(0.0638859 -0.57931 0)
(0.176061 -0.534359 0)
(0.265255 -0.43451 0)
(0.342291 -0.339367 0)
(0.402864 -0.259086 0)
(0.45129 -0.192475 0)
(0.48967 -0.137455 0)
(0.519487 -0.0922928 0)
(0.542022 -0.0558652 0)
(0.558675 -0.0274298 0)
(0.570597 -0.00552241 0)
(0.582003 0.0107881 0)
(0.589593 0.022113 0)
(0.594614 0.0285296 0)
(0.598021 0.0303786 0)
(0.60065 0.0285513 0)
(0.603077 0.0241392 0)
(0.605628 0.0182718 0)
(0.608393 0.0120871 0)
(0.611195 0.0066263 0)
(0.61369 0.00262409 0)
(0.615435 0.000430201 0)
(0.616097 -0.000396632 0)
(0.615597 -0.000521725 0)
(0.613885 -0.000454786 0)
(0.611158 -0.000421602 0)
(0.607825 -0.000443669 0)
(0.604161 -0.000347195 0)
(0.600442 -7.43102e-06 0)
(0.596314 0.000968502 0)
(0.0431892 -0.681025 0)
(0.12334 -0.614969 0)
(0.17006 -0.494794 0)
(0.214101 -0.386208 0)
(0.245864 -0.296169 0)
(0.271792 -0.221824 0)
(0.292641 -0.160503 0)
(0.309212 -0.110063 0)
(0.322044 -0.069369 0)
(0.331743 -0.0377752 0)
(0.338661 -0.0134116 0)
(0.347088 0.00561491 0)
(0.353188 0.0183873 0)
(0.356723 0.0256229 0)
(0.358106 0.0279741 0)
(0.357958 0.0264973 0)
(0.356468 0.0222878 0)
(0.353686 0.0164881 0)
(0.349708 0.0103954 0)
(0.344559 0.00516852 0)
(0.338209 0.00147702 0)
(0.331033 -0.000305538 0)
(0.322924 -0.000557005 0)
(0.312477 0.000323787 0)
(0.299404 0.00173178 0)
(0.284265 0.00302508 0)
(0.267877 0.00389001 0)
(0.251087 0.00451112 0)
(0.234817 0.00532842 0)
(0.218279 0.00564171 0)
(0.0212123 -0.746422 0)
(0.0640048 -0.655418 0)
(0.0641067 -0.518419 0)
(0.0730504 -0.402516 0)
(0.0726463 -0.307717 0)
(0.0724764 -0.230182 0)
(0.0717889 -0.166681 0)
(0.0714061 -0.114619 0)
(0.0715365 -0.0727461 0)
(0.072309 -0.0413827 0)
(0.0727957 -0.0204384 0)
(0.0750336 -0.00270886 0)
(0.071652 0.0142029 0)
(0.0666447 0.0247058 0)
(0.05844 0.0293884 0)
(0.0471532 0.0300179 0)
(0.0323733 0.027922 0)
(0.0136054 0.0240839 0)
(-0.00870314 0.0194171 0)
(-0.0322764 0.0151731 0)
(-0.0568705 0.0120179 0)
(-0.080765 0.010585 0)
(-0.102763 0.0110935 0)
(-0.121909 0.0125944 0)
(-0.138057 0.0142391 0)
(-0.151972 0.0153528 0)
(-0.164922 0.0156505 0)
(-0.178068 0.0153644 0)
(-0.19124 0.0143056 0)
(-0.202254 0.0116854 0)
(-0.00357956 -0.76864 0)
(-0.00348968 -0.650322 0)
(-0.0511635 -0.501263 0)
(-0.0811677 -0.384026 0)
(-0.116562 -0.289658 0)
(-0.147559 -0.214249 0)
(-0.175057 -0.153951 0)
(-0.198154 -0.105583 0)
(-0.217319 -0.0664943 0)
(-0.235545 -0.0349623 0)
(-0.258468 -0.00988234 0)
(-0.288472 0.0103889 0)
(-0.30112 0.025361 0)
(-0.314043 0.0350069 0)
(-0.328258 0.0405336 0)
(-0.344186 0.0427518 0)
(-0.362042 0.0423687 0)
(-0.381697 0.0400089 0)
(-0.402795 0.036359 0)
(-0.424816 0.0322368 0)
(-0.447163 0.0284497 0)
(-0.469057 0.0253886 0)
(-0.489663 0.0232277 0)
(-0.507956 0.021829 0)
(-0.523231 0.0209324 0)
(-0.535581 0.0203234 0)
(-0.545832 0.0197877 0)
(-0.555008 0.019048 0)
(-0.563465 0.0176078 0)
(-0.569365 0.0155088 0)
(-0.0344355 -0.740325 0)
(-0.0811862 -0.59722 0)
(-0.174334 -0.445706 0)
(-0.248566 -0.331211 0)
(-0.321621 -0.241916 0)
(-0.387334 -0.171964 0)
(-0.445939 -0.116686 0)
(-0.49703 -0.072383 0)
(-0.540899 -0.0362254 0)
(-0.579291 -0.00741987 0)
(-0.611466 0.0132048 0)
(-0.631667 0.0265865 0)
(-0.65068 0.0370599 0)
(-0.667276 0.0456243 0)
(-0.682927 0.0512618 0)
(-0.698583 0.0539045 0)
(-0.714733 0.0538983 0)
(-0.731535 0.0517539 0)
(-0.749022 0.0481925 0)
(-0.767174 0.0440927 0)
(-0.78586 0.0401816 0)
(-0.804701 0.036771 0)
(-0.822961 0.033824 0)
(-0.83958 0.0311719 0)
(-0.853576 0.0286987 0)
(-0.864572 0.0264572 0)
(-0.873043 0.0245366 0)
(-0.880016 0.0228123 0)
(-0.886034 0.0209155 0)
(-0.889655 0.019109 0)
(-0.0716082 -0.659478 0)
(-0.166177 -0.495772 0)
(-0.308577 -0.347412 0)
(-0.428233 -0.241212 0)
(-0.537911 -0.163588 0)
(-0.632891 -0.105467 0)
(-0.713588 -0.0607641 0)
(-0.781148 -0.0264504 0)
(-0.837362 -0.000247806 0)
(-0.877542 0.0185585 0)
(-0.907049 0.0322201 0)
(-0.932341 0.0426851 0)
(-0.953703 0.0510943 0)
(-0.971903 0.0576811 0)
(-0.988069 0.0622188 0)
(-1.00324 0.0644486 0)
(-1.01807 0.0643274 0)
(-1.03286 0.0621522 0)
(-1.0478 0.0586025 0)
(-1.06312 0.0545373 0)
(-1.07902 0.0505887 0)
(-1.09541 0.0468974 0)
(-1.11172 0.0432156 0)
(-1.12685 0.039277 0)
(-1.13964 0.0351407 0)
(-1.14949 0.0312371 0)
(-1.15674 0.028012 0)
(-1.16243 0.0255093 0)
(-1.1671 0.0234508 0)
(-1.16963 0.0220281 0)
(-0.119103 -0.520956 0)
(-0.267323 -0.345028 0)
(-0.462187 -0.210041 0)
(-0.625012 -0.120076 0)
(-0.767532 -0.0587731 0)
(-0.885854 -0.0177747 0)
(-0.975973 0.00802994 0)
(-1.04394 0.0255227 0)
(-1.09367 0.0376666 0)
(-1.13394 0.0470585 0)
(-1.16676 0.0546732 0)
(-1.19391 0.060902 0)
(-1.21633 0.0659719 0)
(-1.23502 0.0700504 0)
(-1.2512 0.0729958 0)
(-1.26599 0.0743776 0)
(-1.28006 0.0737945 0)
(-1.29363 0.0712994 0)
(-1.30685 0.0675526 0)
(-1.32009 0.0634798 0)
(-1.33387 0.0596687 0)
(-1.34846 0.0560215 0)
(-1.36341 0.0519504 0)
(-1.37754 0.0469624 0)
(-1.38944 0.041215 0)
(-1.39831 0.0355658 0)
(-1.40448 0.0309557 0)
(-1.40909 0.0276948 0)
(-1.41275 0.0255282 0)
(-1.4146 0.0243947 0)
(-0.187635 -0.324693 0)
(-0.413124 -0.146099 0)
(-0.677246 -0.0137158 0)
(-0.86469 0.0409409 0)
(-1.00797 0.0626526 0)
(-1.11531 0.0695896 0)
(-1.20002 0.0722635 0)
(-1.26667 0.0736226 0)
(-1.3194 0.0748772 0)
(-1.36146 0.0764518 0)
(-1.39542 0.0781848 0)
(-1.42307 0.0797796 0)
(-1.4455 0.0811073 0)
(-1.46384 0.082374 0)
(-1.4795 0.0835491 0)
(-1.49381 0.0839756 0)
(-1.50738 0.0827797 0)
(-1.52017 0.0797005 0)
(-1.53208 0.0754549 0)
(-1.54359 0.0712093 0)
(-1.55562 0.0676145 0)
(-1.56883 0.0642835 0)
(-1.58297 0.0601264 0)
(-1.59663 0.0542617 0)
(-1.60801 0.0468827 0)
(-1.61599 0.0393675 0)
(-1.621 0.0333248 0)
(-1.62446 0.0293959 0)
(-1.62718 0.0272034 0)
(-1.62852 0.0262913 0)
(-0.297965 0.0218346 0)
(-0.582992 0.182443 0)
(-0.856309 0.201526 0)
(-1.05411 0.19338 0)
(-1.20418 0.174652 0)
(-1.31791 0.15454 0)
(-1.40477 0.137362 0)
(-1.47176 0.123655 0)
(-1.52382 0.113192 0)
(-1.56473 0.106074 0)
(-1.59763 0.101644 0)
(-1.62441 0.0985219 0)
(-1.64587 0.0959099 0)
(-1.66296 0.0941708 0)
(-1.67744 0.0935989 0)
(-1.69101 0.0932512 0)
(-1.70423 0.0915103 0)
(-1.71652 0.0876346 0)
(-1.72731 0.0825229 0)
(-1.73711 0.0778848 0)
(-1.74741 0.0746199 0)
(-1.75951 0.0719676 0)
(-1.77333 0.0680888 0)
(-1.78711 0.0614811 0)
(-1.79834 0.0522989 0)
(-1.80547 0.042612 0)
(-1.80907 0.0349972 0)
(-1.81113 0.0305263 0)
(-1.81286 0.0284557 0)
(-1.81377 0.0277347 0)
(-0.378101 0.477023 0)
(-0.716733 0.510863 0)
(-1.04126 0.437068 0)
(-1.25692 0.360122 0)
(-1.4099 0.294771 0)
(-1.5198 0.240601 0)
(-1.60072 0.200264 0)
(-1.66233 0.17109 0)
(-1.70963 0.149131 0)
(-1.74622 0.133634 0)
(-1.77585 0.123657 0)
(-1.80054 0.116301 0)
(-1.82018 0.109636 0)
(-1.83508 0.1046 0)
(-1.84747 0.102437 0)
(-1.8599 0.101872 0)
(-1.87294 0.0999816 0)
(-1.88505 0.0951668 0)
(-1.89476 0.0886982 0)
(-1.90255 0.0833594 0)
(-1.91083 0.0806278 0)
(-1.92187 0.0792198 0)
(-1.93588 0.0761475 0)
(-1.95046 0.0689484 0)
(-1.96202 0.0576327 0)
(-1.96825 0.0452212 0)
(-1.96998 0.0357539 0)
(-1.9702 0.0309363 0)
(-1.97085 0.0292753 0)
(-1.97139 0.0287569 0)
(-0.503303 1.00056 0)
(-0.935591 0.919142 0)
(-1.29858 0.701014 0)
(-1.50001 0.52477 0)
(-1.6333 0.406591 0)
(-1.72508 0.314789 0)
(-1.78912 0.253501 0)
(-1.83865 0.213694 0)
(-1.87733 0.181974 0)
(-1.90645 0.157814 0)
(-1.9306 0.142925 0)
(-1.95238 0.13236 0)
(-1.96979 0.12175 0)
(-1.98139 0.113124 0)
(-1.9903 0.109826 0)
(-2.00096 0.110263 0)
(-2.01416 0.109048 0)
(-2.02669 0.103039 0)
(-2.03531 0.094244 0)
(-2.04043 0.0875197 0)
(-2.04597 0.0855321 0)
(-2.05581 0.0861871 0)
(-2.07055 0.0846742 0)
(-2.08684 0.0770763 0)
(-2.09936 0.0630915 0)
(-2.10454 0.0470422 0)
(-2.10362 0.0352198 0)
(-2.10133 0.0303837 0)
(-2.10076 0.029693 0)
(-2.10105 0.0294615 0)
(-0.742022 2.03884 0)
(-1.28037 1.60196 0)
(-1.66928 0.998724 0)
(-1.80191 0.610105 0)
(-1.87736 0.47648 0)
(-1.93291 0.368649 0)
(-1.96444 0.297524 0)
(-1.99617 0.252162 0)
(-2.02623 0.206422 0)
(-2.04564 0.169466 0)
(-2.06108 0.15355 0)
(-2.07907 0.145662 0)
(-2.09431 0.133193 0)
(-2.10133 0.119898 0)
(-2.10464 0.114705 0)
(-2.11264 0.11737 0)
(-2.1269 0.117826 0)
(-2.14105 0.110137 0)
(-2.14862 0.0975613 0)
(-2.14978 0.0885961 0)
(-2.15112 0.088065 0)
(-2.15928 0.0924638 0)
(-2.17541 0.0939095 0)
(-2.1946 0.086346 0)
(-2.20893 0.0689597 0)
(-2.21279 0.0478415 0)
(-2.20794 0.0327796 0)
(-2.20199 0.0284701 0)
(-2.20009 0.0298174 0)
(-2.20039 0.030137 0)
(9.9959 0.138446 0)
(9.98225 0.275239 0)
(9.95811 0.412525 0)
(9.92454 0.552274 0)
(9.88243 0.696163 0)
(9.83217 0.845745 0)
(9.774 1.00252 0)
(9.70816 1.16798 0)
(9.63494 1.34357 0)
(9.5546 1.53077 0)
(9.46742 1.73106 0)
(9.37366 1.946 0)
(9.27358 2.17721 0)
(9.16745 2.42643 0)
(9.05551 2.69559 0)
(8.93798 2.98681 0)
(8.81504 3.30254 0)
(8.68685 3.64569 0)
(8.55346 4.01976 0)
(8.41487 4.42914 0)
(8.271 4.87946 0)
(8.12174 5.37819 0)
(7.96702 5.9355 0)
(7.80709 6.56573 0)
(7.64313 7.28997 0)
(7.48008 8.14078 0)
(7.33111 9.17211 0)
(7.28605 10.4774 0)
(7.74195 12.2014 0)
(7.91933 14.9188 0)
(9.99638 0.143405 0)
(9.98434 0.285093 0)
(9.96306 0.427253 0)
(9.93352 0.571883 0)
(9.89657 0.720677 0)
(9.85263 0.875191 0)
(9.80198 1.03693 0)
(9.74494 1.20738 0)
(9.68186 1.38799 0)
(9.61311 1.58022 0)
(9.53909 1.78555 0)
(9.46021 2.0055 0)
(9.37691 2.24169 0)
(9.28966 2.49585 0)
(9.199 2.76987 0)
(9.10548 3.06585 0)
(9.00977 3.38622 0)
(8.91262 3.73385 0)
(8.81493 4.11217 0)
(8.71789 4.52545 0)
(8.62309 4.97912 0)
(8.53289 5.4802 0)
(8.45101 6.03802 0)
(8.38368 6.66517 0)
(8.34205 7.37889 0)
(8.34815 8.2026 0)
(8.44075 9.16648 0)
(8.67563 10.3039 0)
(9.32137 11.5598 0)
(9.8095 12.6509 0)
(9.99688 0.147842 0)
(9.98651 0.293904 0)
(9.96819 0.440402 0)
(9.94283 0.589352 0)
(9.91121 0.742448 0)
(9.87378 0.901243 0)
(9.83087 1.06723 0)
(9.78285 1.24188 0)
(9.73015 1.42661 0)
(9.67325 1.62285 0)
(9.61265 1.83206 0)
(9.54891 2.0557 0)
(9.48265 2.29535 0)
(9.41456 2.55265 0)
(9.34544 2.82941 0)
(9.27622 3.12762 0)
(9.20798 3.44958 0)
(9.14207 3.7979 0)
(9.08017 4.17571 0)
(9.02449 4.58677 0)
(8.97806 5.03569 0)
(8.94513 5.52816 0)
(8.93201 6.07115 0)
(8.94819 6.67307 0)
(9.00816 7.3434 0)
(9.13403 8.0908 0)
(9.35682 8.91722 0)
(9.68603 9.81169 0)
(10.2517 10.723 0)
(10.9393 11.4418 0)
(9.9974 0.151703 0)
(9.98874 0.301565 0)
(9.97347 0.451808 0)
(9.95239 0.604449 0)
(9.92623 0.761177 0)
(9.89545 0.923525 0)
(9.86043 1.09297 0)
(9.82159 1.27093 0)
(9.77944 1.45881 0)
(9.73454 1.65798 0)
(9.6875 1.86982 0)
(9.63902 2.09575 0)
(9.58987 2.33722 0)
(9.54096 2.59578 0)
(9.49334 2.87308 0)
(9.44823 3.17092 0)
(9.40713 3.49132 0)
(9.37185 3.83653 0)
(9.34471 4.20913 0)
(9.32866 4.61211 0)
(9.32764 5.04886 0)
(9.34694 5.52325 0)
(9.39382 6.03939 0)
(9.47817 6.60128 0)
(9.6132 7.21171 0)
(9.81575 7.87037 0)
(10.1086 8.57023 0)
(10.5005 9.29668 0)
(11.0584 10.0396 0)
(11.8521 10.6859 0)
(9.99792 0.154942 0)
(9.99101 0.307983 0)
(9.97884 0.461334 0)
(9.96212 0.616999 0)
(9.94151 0.776644 0)
(9.91746 0.941777 0)
(9.89041 1.11383 0)
(9.86083 1.29419 0)
(9.82929 1.48419 0)
(9.79643 1.68515 0)
(9.76295 1.89835 0)
(9.72967 2.1251 0)
(9.6975 2.36674 0)
(9.66753 2.62465 0)
(9.64101 2.90028 0)
(9.61942 3.19516 0)
(9.60454 3.51095 0)
(9.59855 3.84943 0)
(9.60414 4.21251 0)
(9.6247 4.60226 0)
(9.66455 5.02076 0)
(9.72921 5.47006 0)
(9.82577 5.95176 0)
(9.96319 6.46657 0)
(10.1525 7.01343 0)
(10.4069 7.58849 0)
(10.7436 8.18363 0)
(11.1743 8.78419 0)
(11.7221 9.37859 0)
(12.4761 9.8919 0)
(9.99845 0.157516 0)
(9.9933 0.313073 0)
(9.98427 0.468854 0)
(9.97194 0.626834 0)
(9.9569 0.788647 0)
(9.93962 0.955759 0)
(9.92055 1.12956 0)
(9.90023 1.31136 0)
(9.87926 1.50244 0)
(9.85835 1.704 0)
(9.83828 1.91726 0)
(9.81996 2.14338 0)
(9.80442 2.38355 0)
(9.79288 2.63894 0)
(9.78673 2.91075 0)
(9.78764 3.20022 0)
(9.79756 3.50859 0)
(9.81887 3.83711 0)
(9.85442 4.187 0)
(9.90772 4.55938 0)
(9.98305 4.95516 0)
(10.0856 5.37482 0)
(10.2218 5.81811 0)
(10.3991 6.28356 0)
(10.6264 6.76794 0)
(10.9134 7.26548 0)
(11.2713 7.76696 0)
(11.7082 8.25682 0)
(12.2249 8.71835 0)
(12.9016 9.11001 0)
(9.99898 0.159384 0)
(9.9956 0.316757 0)
(9.98971 0.474255 0)
(9.98177 0.633808 0)
(9.97229 0.797005 0)
(9.96174 0.965261 0)
(9.9506 1.1399 0)
(9.93943 1.32217 0)
(9.92888 1.51325 0)
(9.9197 1.71427 0)
(9.91274 1.92628 0)
(9.90896 2.15034 0)
(9.90948 2.38742 0)
(9.9156 2.6385 0)
(9.9288 2.90452 0)
(9.95083 3.18635 0)
(9.98371 3.48483 0)
(10.0299 3.80066 0)
(10.0921 4.13442 0)
(10.1738 4.48641 0)
(10.279 4.85652 0)
(10.4121 5.24407 0)
(10.5786 5.64746 0)
(10.7843 6.06391 0)
(11.0357 6.48893 0)
(11.3392 6.91583 0)
(11.701 7.33524 0)
(12.1252 7.73374 0)
(12.6057 8.09675 0)
(13.212 8.4037 0)
(9.99951 0.160515 0)
(9.99789 0.31897 0)
(9.9951 0.477439 0)
(9.99151 0.637794 0)
(9.98753 0.801567 0)
(9.98362 0.97011 0)
(9.98028 1.14467 0)
(9.97808 1.32643 0)
(9.97769 1.51645 0)
(9.9799 1.71575 0)
(9.98559 1.92526 0)
(9.99577 2.14586 0)
(10.0116 2.37835 0)
(10.0344 2.62347 0)
(10.0656 2.88188 0)
(10.1071 3.15413 0)
(10.1608 3.44064 0)
(10.229 3.74164 0)
(10.3145 4.05712 0)
(10.4201 4.38671 0)
(10.5495 4.72953 0)
(10.7063 5.08408 0)
(10.8947 5.44796 0)
(11.1191 5.81766 0)
(11.3837 6.18827 0)
(11.6924 6.55322 0)
(12.048 6.90423 0)
(12.452 7.23097 0)
(12.8969 7.52227 0)
(13.4407 7.76678 0)
(10 0.160879 0)
(10.0001 0.319657 0)
(10.0004 0.478328 0)
(10.0011 0.638692 0)
(10.0025 0.802216 0)
(10.0051 0.970177 0)
(10.0093 1.14375 0)
(10.0158 1.324 0)
(10.0252 1.51191 0)
(10.0384 1.70836 0)
(10.0561 1.91416 0)
(10.0795 2.13 0)
(10.1097 2.3565 0)
(10.1479 2.59417 0)
(10.1957 2.84341 0)
(10.2548 3.10445 0)
(10.327 3.37735 0)
(10.4144 3.66193 0)
(10.5194 3.95771 0)
(10.6447 4.26381 0)
(10.793 4.57883 0)
(10.9673 4.90076 0)
(11.1706 5.22681 0)
(11.406 5.55326 0)
(11.6759 5.87536 0)
(11.9824 6.18726 0)
(12.3261 6.48206 0)
(12.7069 6.75193 0)
(13.1171 6.9885 0)
(13.6055 7.18488 0)
(10.0005 0.160456 0)
(10.0023 0.318775 0)
(10.0056 0.47686 0)
(10.0104 0.636428 0)
(10.0171 0.798868 0)
(10.0259 0.965377 0)
(10.0375 1.13704 0)
(10.0523 1.31482 0)
(10.0711 1.4996 0)
(10.0946 1.69213 0)
(10.1237 1.89307 0)
(10.1594 2.10295 0)
(10.2028 2.32221 0)
(10.2552 2.55114 0)
(10.3179 2.78989 0)
(10.3925 3.03843 0)
(10.4808 3.29651 0)
(10.5845 3.56363 0)
(10.7056 3.83893 0)
(10.8464 4.12122 0)
(11.0089 4.40877 0)
(11.1954 4.69935 0)
(11.408 4.99006 0)
(11.6484 5.27734 0)
(11.918 5.55687 0)
(12.2174 5.82367 0)
(12.5461 6.0722 0)
(12.9028 6.29656 0)
(13.2804 6.49068 0)
(13.7208 6.65039 0)
(10.001 0.15923 0)
(10.0044 0.316296 0)
(10.0106 0.472997 0)
(10.0194 0.630957 0)
(10.0311 0.791478 0)
(10.0459 0.955672 0)
(10.0645 1.12453 0)
(10.0872 1.29892 0)
(10.1148 1.47959 0)
(10.148 1.66718 0)
(10.1877 1.86221 0)
(10.2347 2.06505 0)
(10.2902 2.27597 0)
(10.3553 2.49508 0)
(10.4312 2.7223 0)
(10.5193 2.95737 0)
(10.6212 3.19982 0)
(10.7383 3.44889 0)
(10.8723 3.70352 0)
(11.0248 3.96227 0)
(11.1975 4.22331 0)
(11.3919 4.48436 0)
(11.6092 4.74264 0)
(11.8503 4.99489 0)
(12.1156 5.23739 0)
(12.4049 5.46604 0)
(12.717 5.6765 0)
(13.0501 5.8644 0)
(13.398 6.02549 0)
(13.7972 6.15724 0)
(10.0015 0.157193 0)
(10.0065 0.312205 0)
(10.0154 0.46672 0)
(10.028 0.62226 0)
(10.0445 0.780037 0)
(10.065 0.94107 0)
(10.0901 1.10625 0)
(10.1203 1.27635 0)
(10.1561 1.452 0)
(10.1983 1.63372 0)
(10.2476 1.82189 0)
(10.305 2.01676 0)
(10.3712 2.21842 0)
(10.4475 2.42682 0)
(10.5348 2.64172 0)
(10.6345 2.86268 0)
(10.7476 3.08905 0)
(10.8754 3.31991 0)
(11.0193 3.55407 0)
(11.1804 3.79002 0)
(11.3598 4.02591 0)
(11.5584 4.25956 0)
(11.7769 4.48843 0)
(12.0154 4.70967 0)
(12.2739 4.92016 0)
(12.5515 5.11661 0)
(12.8467 5.2957 0)
(13.1575 5.45427 0)
(13.4787 5.58937 0)
(13.8424 5.69951 0)
(10.0019 0.154345 0)
(10.0084 0.306502 0)
(10.0199 0.458033 0)
(10.0362 0.610352 0)
(10.0571 0.764575 0)
(10.083 0.921628 0)
(10.1142 1.0823 0)
(10.1513 1.24727 0)
(10.1947 1.41706 0)
(10.245 1.59206 0)
(10.3031 1.77254 0)
(10.3696 1.95863 0)
(10.4454 2.15028 0)
(10.5313 2.34731 0)
(10.6284 2.54934 0)
(10.7375 2.75581 0)
(10.8597 2.96596 0)
(10.9959 3.17877 0)
(11.147 3.39302 0)
(11.3138 3.60719 0)
(11.497 3.81954 0)
(11.6971 4.02805 0)
(11.9141 4.23049 0)
(12.1479 4.42443 0)
(12.3979 4.60733 0)
(12.663 4.7766 0)
(12.9416 4.92975 0)
(13.2318 5.06451 0)
(13.529 5.17888 0)
(13.8622 5.27202 0)
(10.0024 0.150691 0)
(10.0102 0.299199 0)
(10.0241 0.446959 0)
(10.0438 0.595273 0)
(10.0689 0.745156 0)
(10.0997 0.897442 0)
(10.1366 1.05283 0)
(10.18 1.21188 0)
(10.2302 1.37503 0)
(10.288 1.54256 0)
(10.3538 1.71465 0)
(10.4284 1.89129 0)
(10.5124 2.07234 0)
(10.6066 2.25752 0)
(10.7117 2.44636 0)
(10.8285 2.63821 0)
(10.9577 2.83224 0)
(11.1001 3.02743 0)
(11.2561 3.22255 0)
(11.4263 3.41618 0)
(11.611 3.6067 0)
(11.8102 3.79233 0)
(12.0239 3.97114 0)
(12.2514 4.14113 0)
(12.492 4.30024 0)
(12.7445 4.44651 0)
(13.0073 4.57808 0)
(13.2785 4.69333 0)
(13.5543 4.79095 0)
(13.8611 4.87049 0)
(10.0027 0.146244 0)
(10.0119 0.290323 0)
(10.0281 0.433543 0)
(10.0508 0.577088 0)
(10.0798 0.721878 0)
(10.1152 0.868652 0)
(10.1572 1.01801 0)
(10.2063 1.17043 0)
(10.2627 1.32625 0)
(10.327 1.48567 0)
(10.3996 1.64875 0)
(10.4811 1.81542 0)
(10.5721 1.98545 0)
(10.6731 2.15848 0)
(10.7847 2.33398 0)
(10.9075 2.51127 0)
(11.042 2.68951 0)
(11.1885 2.86768 0)
(11.3476 3.04462 0)
(11.5192 3.21903 0)
(11.7036 3.38945 0)
(11.9004 3.55435 0)
(12.1093 3.71212 0)
(12.3296 3.8611 0)
(12.5604 3.99971 0)
(12.8005 4.12642 0)
(13.0483 4.23989 0)
(13.3022 4.339 0)
(13.559 4.42288 0)
(13.8428 4.49137 0)
(10.0031 0.141023 0)
(10.0134 0.279912 0)
(10.0317 0.417844 0)
(10.0573 0.555889 0)
(10.0898 0.694867 0)
(10.1293 0.835428 0)
(10.1759 0.978086 0)
(10.23 1.12323 0)
(10.2919 1.27111 0)
(10.3619 1.42185 0)
(10.4403 1.57544 0)
(10.5277 1.73174 0)
(10.6245 1.89046 0)
(10.731 2.05119 0)
(10.8477 2.21338 0)
(10.975 2.37633 0)
(11.1131 2.53923 0)
(11.2623 2.70111 0)
(11.4227 2.86091 0)
(11.5943 3.01744 0)
(11.7768 3.16946 0)
(11.97 3.31565 0)
(12.1733 3.45468 0)
(12.3859 3.58525 0)
(12.6068 3.70609 0)
(12.8349 3.8161 0)