/*--------------------------------*- C++ -*----------------------------------*\
| =========                 |                                                 |
| \\      /  F ield         | OpenFOAM: The Open Source CFD Toolbox           |
|  \\    /   O peration     | Version:  2006                                  |
|   \\  /    A nd           | Website:  www.openfoam.com                      |
|    \\/     M anipulation  |                                                 |
\*---------------------------------------------------------------------------*/
FoamFile
{
    version     2.0;
    format      ascii;
    class       surfaceVectorField;
    location    "8.1";
    object      Uf;
}
// * * * * * * * * * * * * * * * * * * * * * * * * * * * * * * * * * * * * * //

dimensions      [0 1 -1 0 0 0 0];


internalField   nonuniform List<vector> 
5457
(
(9.92088 0.0251097 0)
(9.97125 0.038746 0)
(9.82401 0.0328271 0)
(9.92859 0.0485856 0)
(9.70961 0.0393124 0)
(9.85547 0.0587688 0)
(9.57543 0.0460121 0)
(9.7568 0.0705943 0)
(9.42137 0.0529497 0)
(9.63753 0.0830147 0)
(9.24754 0.0601672 0)
(9.4986 0.0959383 0)
(9.05361 0.0678122 0)
(9.33929 0.109615 0)
(8.83891 0.0760362 0)
(9.15873 0.124292 0)
(8.6025 0.0849722 0)
(8.95607 0.140171 0)
(8.34324 0.0947473 0)
(8.73036 0.157438 0)
(8.05981 0.10549 0)
(8.48037 0.176275 0)
(7.75076 0.117331 0)
(8.20473 0.196863 0)
(7.4145 0.1304 0)
(7.9019 0.219369 0)
(7.04943 0.144815 0)
(7.57025 0.243931 0)
(6.65396 0.160678 0)
(7.20812 0.270642 0)
(6.22663 0.17805 0)
(6.81391 0.299511 0)
(5.76633 0.196934 0)
(6.38624 0.330425 0)
(5.27247 0.21724 0)
(5.92407 0.363095 0)
(4.74526 0.238742 0)
(5.42699 0.396986 0)
(4.18608 0.261038 0)
(4.89553 0.431246 0)
(3.59784 0.283493 0)
(4.33152 0.464627 0)
(2.98543 0.305205 0)
(3.73848 0.495429 0)
(2.35599 0.32507 0)
(3.12214 0.521514 0)
(1.71898 0.342547 0)
(2.49094 0.540555 0)
(1.08424 0.36188 0)
(1.85574 0.551667 0)
(0.45173 0.348655 0)
(1.24538 0.563015 0)
(-0.145904 0.102425 0)
(0.608797 0.544843 0)
(-0.423644 -0.207099 0)
(0.0946275 0.259331 0)
(-0.402164 -0.361247 0)
(-0.133729 -0.0205415 0)
(-0.119682 -0.393895 0)
(9.99641 0.0516729 0)
(9.99705 0.040505 0)
(9.95879 0.0708623 0)
(9.97851 0.0674552 0)
(9.89824 0.087988 0)
(9.93377 0.0898712 0)
(9.81658 0.105986 0)
(9.86453 0.113557 0)
(9.71358 0.124924 0)
(9.77437 0.138517 0)
(9.58908 0.144857 0)
(9.66434 0.16465 0)
(9.44273 0.166094 0)
(9.53396 0.192336 0)
(9.27389 0.188972 0)
(9.38248 0.222036 0)
(9.08164 0.213789 0)
(9.20917 0.254156 0)
(8.86487 0.240823 0)
(9.01313 0.289073 0)
(8.62226 0.270345 0)
(8.79328 0.327163 0)
(8.35234 0.302617 0)
(8.54832 0.368799 0)
(8.0535 0.337869 0)
(8.27678 0.414331 0)
(7.72405 0.376275 0)
(7.97711 0.464063 0)
(7.36229 0.417917 0)
(7.64765 0.518208 0)
(6.96663 0.462723 0)
(7.28674 0.576827 0)
(6.53573 0.510402 0)
(6.89286 0.639747 0)
(6.06872 0.560348 0)
(6.46471 0.706449 0)
(5.56547 0.611535 0)
(6.00148 0.77593 0)
(5.02697 0.662396 0)
(5.50314 0.846542 0)
(4.45574 0.710716 0)
(4.97076 0.915821 0)
(3.85636 0.753544 0)
(4.40705 0.980316 0)
(3.23606 0.787194 0)
(3.8169 1.03546 0)
(2.60569 0.807493 0)
(3.20833 1.07548 0)
(1.98268 0.810453 0)
(2.59327 1.09313 0)
(1.40519 0.776872 0)
(1.9961 1.07706 0)
(0.929662 0.646363 0)
(1.4194 0.978365 0)
(0.439772 0.384287 0)
(0.937504 0.716751 0)
(0.0591314 -0.118658 0)
(0.443715 0.343467 0)
(0.174905 -0.335979 0)
(9.98903 0.0594316 0)
(9.99481 0.045878 0)
(9.95434 0.0894778 0)
(9.97368 0.0848553 0)
(9.89729 0.118034 0)
(9.92984 0.119176 0)
(9.82046 0.147901 0)
(9.86357 0.153979 0)
(9.72415 0.179425 0)
(9.77735 0.190412 0)
(9.6082 0.21278 0)
(9.67226 0.228642 0)
(9.47233 0.248398 0)
(9.54809 0.269135 0)
(9.31606 0.286782 0)
(9.4043 0.312505 0)
(9.13866 0.328406 0)
(9.24032 0.359335 0)
(8.93922 0.373733 0)
(9.05547 0.410186 0)
(8.71661 0.423219 0)
(8.84886 0.465612 0)
(8.46956 0.477311 0)
(8.61947 0.526169 0)
(8.19662 0.536415 0)
(8.36611 0.592391 0)
(7.89626 0.60086 0)
(8.08746 0.664759 0)
(7.56684 0.67083 0)
(7.78213 0.743641 0)
(7.20675 0.746277 0)
(7.44865 0.829214 0)
(6.81447 0.826803 0)
(7.08559 0.921344 0)
(6.38877 0.911503 0)
(6.6916 1.01943 0)
(5.92892 0.998776 0)
(6.26561 1.1222 0)
(5.43502 1.08611 0)
(5.807 1.22744 0)
(4.90842 1.16984 0)
(5.31595 1.33176 0)
(4.3523 1.2449 0)
(4.79385 1.4302 0)
(3.77246 1.30455 0)
(4.24384 1.51588 0)
(3.17861 1.33982 0)
(3.67169 1.57942 0)
(2.58652 1.3381 0)
(3.0862 1.60772 0)
(2.01977 1.27293 0)
(2.50282 1.58154 0)
(1.48686 1.09536 0)
(1.92865 1.46419 0)
(0.95824 0.769111 0)
(1.38518 1.21034 0)
(0.479844 0.202377 0)
(0.829497 0.800961 0)
(0.433709 0.133998 0)
(9.98515 0.0716148 0)
(9.99367 0.0531486 0)
(9.95039 0.113632 0)
(9.97087 0.102292 0)
(9.89436 0.154136 0)
(9.9269 0.147956 0)
(9.81882 0.195577 0)
(9.86185 0.193725 0)
(9.72441 0.238816 0)
(9.77746 0.241282 0)
(9.61111 0.284331 0)
(9.67466 0.29117 0)
(9.47873 0.332729 0)
(9.55342 0.343964 0)
(9.32693 0.384684 0)
(9.41334 0.400382 0)
(9.15521 0.440859 0)
(9.25398 0.461152 0)
(8.96288 0.501898 0)
(9.07481 0.526976 0)
(8.74913 0.568445 0)
(8.87517 0.598554 0)
(8.513 0.641132 0)
(8.65426 0.676583 0)
(8.25341 0.720553 0)
(8.41118 0.761745 0)
(7.9692 0.807215 0)
(8.14494 0.854664 0)
(7.6591 0.901464 0)
(7.85448 0.955849 0)
(7.32184 1.00338 0)
(7.53867 1.0656 0)
(6.95611 1.1126 0)
(7.19637 1.18388 0)
(6.56074 1.22816 0)
(6.82643 1.31011 0)
(6.13478 1.34819 0)
(6.42778 1.44295 0)
(5.67772 1.46962 0)
(5.99955 1.57993 0)
(5.18987 1.58778 0)
(5.54122 1.7171 0)
(4.67274 1.69603 0)
(5.05292 1.84855 0)
(4.12967 1.78514 0)
(4.53583 1.96583 0)
(3.56653 1.8425 0)
(3.9926 2.05729 0)
(2.99194 1.85069 0)
(3.42748 2.10711 0)
(2.41575 1.78243 0)
(2.84752 2.09443 0)
(1.84046 1.60038 0)
(2.25614 1.98866 0)
(1.25933 1.27834 0)
(1.66024 1.75295 0)
(0.666747 0.789446 0)
(1.02392 1.36765 0)
(0.523019 0.787036 0)
(9.98337 0.0844085 0)
(9.99316 0.0612922 0)
(9.94821 0.136839 0)
(9.96958 0.119929 0)
(9.89314 0.188035 0)
(9.92575 0.176243 0)
(9.81906 0.240173 0)
(9.86199 0.232702 0)
(9.72662 0.294473 0)
(9.77963 0.291092 0)
(9.61589 0.351666 0)
(9.67939 0.352281 0)
(9.4867 0.41248 0)
(9.56127 0.416986 0)
(9.33877 0.477688 0)
(9.42495 0.48602 0)
(9.17169 0.548065 0)
(9.27007 0.560218 0)
(8.9849 0.624371 0)
(9.09618 0.640404 0)
(8.77775 0.707364 0)
(8.90271 0.727388 0)
(8.54949 0.797788 0)
(8.68903 0.82198 0)
(8.2993 0.896353 0)
(8.4544 0.924969 0)
(8.02629 1.00368 0)
(8.19802 1.03709 0)
(7.7295 1.12024 0)
(7.91905 1.15895 0)
(7.40797 1.2462 0)
(7.61661 1.29096 0)
(7.06067 1.38131 0)
(7.28977 1.43319 0)
(6.68659 1.52462 0)
(6.93753 1.58514 0)
(6.28474 1.67422 0)
(6.55888 1.74554 0)
(5.85426 1.82682 0)
(6.15275 1.91192 0)
(5.39458 1.97727 0)
(5.71809 2.08019 0)
(4.90562 2.11806 0)
(5.25394 2.2441 0)
(4.38811 2.2386 0)
(4.75959 2.3946 0)
(3.84381 2.32452 0)
(4.23481 2.51917 0)
(3.27531 2.3569 0)
(3.67975 2.60119 0)
(2.68529 2.31052 0)
(3.0956 2.61963 0)
(2.0726 2.15491 0)
(2.48159 2.54722 0)
(1.42932 1.86728 0)
(1.83984 2.3536 0)
(0.74258 1.41944 0)
(1.13131 2.02438 0)
(0.543284 1.51435 0)
(9.98264 0.0974989 0)
(9.99299 0.0697937 0)
(9.94744 0.159777 0)
(9.96925 0.137585 0)
(9.89354 0.221351 0)
(9.92597 0.203929 0)
(9.82133 0.284097 0)
(9.8638 0.270692 0)
(9.73133 0.349354 0)
(9.78385 0.339588 0)
(9.62366 0.418027 0)
(9.68664 0.411705 0)
(9.49818 0.490949 0)
(9.57217 0.487913 0)
(9.35464 0.568987 0)
(9.4402 0.569117 0)
(9.19267 0.653021 0)
(9.29041 0.65625 0)
(9.01181 0.743918 0)
(9.1224 0.750233 0)
(8.81148 0.84254 0)
(8.93569 0.851981 0)
(8.59105 0.949737 0)
(8.72969 0.962395 0)
(8.3498 1.06632 0)
(8.50377 1.08236 0)
(8.087 1.193 0)
(8.25723 1.21268 0)
(7.80185 1.33035 0)
(7.98931 1.35409 0)
(7.49352 1.47864 0)
(7.69922 1.50707 0)
(7.1611 1.63773 0)
(7.38608 1.67181 0)
(6.80362 1.80679 0)
(7.04893 1.84797 0)
(6.41999 1.98401 0)
(6.68664 2.03441 0)
(6.009 2.16617 0)
(6.29788 2.22888 0)
(5.56927 2.34813 0)
(5.88106 2.42752 0)
(5.09932 2.52222 0)
(5.43419 2.62428 0)
(4.5976 2.67756 0)
(4.95496 2.8103 0)
(4.06255 2.79946 0)
(4.44069 2.97321 0)
(3.49256 2.86905 0)
(3.88836 3.09658 0)
(2.88571 2.86283 0)
(3.29509 3.15982 0)
(2.23791 2.75381 0)
(2.65677 3.13779 0)
(1.54237 2.52089 0)
(1.97474 3.00304 0)
(0.79361 2.13118 0)
(1.20718 2.74043 0)
(0.556708 2.29164 0)
(9.9825 0.110628 0)
(9.99302 0.0783623 0)
(9.9477 0.182326 0)
(9.96954 0.155039 0)
(9.89522 0.253821 0)
(9.92722 0.230889 0)
(9.82524 0.326772 0)
(9.86697 0.307513 0)
(9.73813 0.402562 0)
(9.78977 0.386528 0)
(9.63403 0.482242 0)
(9.69605 0.469156 0)
(9.51285 0.566769 0)
(9.58578 0.556408 0)
(9.37437 0.657107 0)
(9.45879 0.649284 0)
(9.21826 0.754232 0)
(9.31479 0.748805 0)
(9.04412 0.859108 0)
(9.15345 0.855984 0)
(8.85142 0.97269 0)
(8.97431 0.971828 0)
(8.63959 1.09592 0)
(8.77688 1.09733 0)
(8.40798 1.22968 0)
(8.56054 1.23346 0)
(8.1559 1.3748 0)
(8.32465 1.38112 0)
(7.88258 1.53191 0)
(8.06847 1.54113 0)
(7.58719 1.70144 0)
(7.79118 1.71411 0)
(7.26881 1.88335 0)
(7.49187 1.90037 0)
(6.92632 2.07703 0)
(7.16944 2.09977 0)
(6.55839 2.28091 0)
(6.82254 2.31146 0)
(6.16333 2.49211 0)
(6.44946 2.53355 0)
(5.73898 2.70588 0)
(6.04795 2.7627 0)
(5.28257 2.91501 0)
(5.61509 2.9935 0)
(4.79067 3.10916 0)
(5.14707 3.21786 0)
(4.25913 3.27417 0)
(4.63921 3.42426 0)
(3.68323 3.39179 0)
(4.08588 3.5971 0)
(3.0579 3.43958 0)
(3.48115 3.71645 0)
(2.37761 3.39165 0)
(2.81822 3.75799 0)
(1.63782 3.22599 0)
(2.09904 3.6938 0)
(0.839084 2.90065 0)
(1.27884 3.50426 0)
(0.573325 3.11347 0)
(9.98273 0.123583 0)
(9.99316 0.0868183 0)
(9.94873 0.204312 0)
(9.97027 0.172095 0)
(9.89794 0.285256 0)
(9.92926 0.256978 0)
(9.83051 0.367971 0)
(9.87123 0.342992 0)
(9.7467 0.453859 0)
(9.79715 0.431684 0)
(9.64668 0.544087 0)
(9.70735 0.524359 0)
(9.53037 0.63972 0)
(9.6018 0.622147 0)
(9.39761 0.741816 0)
(9.48038 0.726141 0)
(9.24812 0.851435 0)
(9.34285 0.837444 0)
(9.08151 0.969633 0)
(9.18893 0.957156 0)
(8.89734 1.09745 0)
(9.01822 1.08637 0)
(8.69507 1.23592 0)
(8.83027 1.22617 0)
(8.47409 1.38603 0)
(8.62451 1.37762 0)
(8.23371 1.54868 0)
(8.40032 1.54173 0)
(7.97316 1.72466 0)
(8.15696 1.71944 0)
(7.69154 1.91451 0)
(7.89357 1.9115 0)
(7.38777 2.11842 0)
(7.60912 2.11843 0)
(7.06052 2.33603 0)
(7.30233 2.34037 0)
(6.70809 2.56619 0)
(6.97154 2.57684 0)
(6.32823 2.80655 0)
(6.61459 2.82651 0)
(5.91795 3.0531 0)
(6.22857 3.08677 0)
(5.47329 3.29956 0)
(5.80958 3.35322 0)
(4.98913 3.53666 0)
(5.35247 3.61901 0)
(4.45915 3.75138 0)
(4.85068 3.87399 0)
(3.87604 3.92639 0)
(4.29622 4.10389 0)
(3.23216 4.03974 0)
(3.68035 4.28959 0)
(2.52068 4.06481 0)
(2.99333 4.40662 0)
(1.73826 3.97591 0)
(2.23722 4.42436 0)
(0.889413 3.7185 0)
(1.36326 4.31602 0)
(0.598706 3.9846 0)
(9.98321 0.136205 0)
(9.99339 0.0950412 0)
(9.95032 0.225574 0)
(9.97131 0.188591 0)
(9.90151 0.3155 0)
(9.93193 0.282052 0)
(9.83694 0.407508 0)
(9.87643 0.376964 0)
(9.75684 0.50302 0)
(9.80579 0.474847 0)
(9.66135 0.603287 0)
(9.7203 0.577058 0)
(9.55046 0.709472 0)
(9.61995 0.684826 0)
(9.42403 0.822718 0)
(9.50465 0.799332 0)
(9.28183 0.944168 0)
(9.37422 0.921755 0)
(9.12355 1.07496 0)
(9.22842 1.05327 0)
(8.94877 1.21622 0)
(9.06694 1.19507 0)
(8.75703 1.36909 0)
(8.88936 1.34831 0)
(8.54773 1.53463 0)
(8.69518 1.51417 0)
(8.32021 1.7139 0)
(8.48379 1.69376 0)
(8.07365 1.9078 0)
(8.25446 1.88817 0)
(7.80707 2.1171 0)
(8.0063 2.09834 0)
(7.51924 2.34223 0)
(7.73818 2.32505 0)
(7.20858 2.58323 0)
(7.44864 2.56877 0)
(6.87299 2.83947 0)
(7.13574 2.82954 0)
(6.50964 3.10934 0)
(6.79688 3.10672 0)
(6.11473 3.38987 0)
(6.42853 3.3987 0)
(5.68314 3.67607 0)
(6.02587 3.70237 0)
(5.20819 3.96023 0)
(5.58249 4.01253 0)
(4.68144 4.23096 0)
(5.09 4.32097 0)
(4.09296 4.47224 0)
(4.53793 4.61534 0)
(3.4322 4.6624 0)
(3.91434 4.87776 0)
(2.68985 4.77294 0)
(3.20534 5.08339 0)
(1.86164 4.77211 0)
(2.41098 5.19769 0)
(0.954064 4.58938 0)
(1.47608 5.18394 0)
(0.639099 4.91904 0)
(9.98386 0.14837 0)
(9.99368 0.102945 0)
(9.95235 0.245973 0)
(9.9726 0.204396 0)
(9.90578 0.344403 0)
(9.9351 0.305973 0)
(9.84437 0.445204 0)
(9.88241 0.409275 0)
(9.76833 0.549819 0)
(9.81552 0.515823 0)
(9.6778 0.65957 0)
(9.73471 0.62702 0)
(9.57281 0.775702 0)
(9.63999 0.74417 0)
(9.45327 0.899436 0)
(9.5313 0.868533 0)
(9.31901 1.03199 0)
(9.40853 1.00136 0)
(9.16977 1.17458 0)
(9.27151 1.1439 0)
(9.00521 1.32843 0)
(9.11998 1.29742 0)
(8.8249 1.49476 0)
(8.9536 1.46317 0)
(8.62832 1.67476 0)
(8.77192 1.64242 0)
(8.41481 1.8696 0)
(8.5744 1.83642 0)
(8.18356 2.0804 0)
(8.36034 2.04642 0)
(7.93354 2.30813 0)
(8.12884 2.27358 0)
(7.6634 2.55359 0)
(7.87874 2.51897 0)
(7.37134 2.81727 0)
(7.60846 2.78349 0)
(7.05493 3.09921 0)
(7.31587 3.06779 0)
(6.71087 3.39874 0)
(6.99806 3.37207 0)
(6.33462 3.71416 0)
(6.65102 3.69588 0)
(5.92004 4.04216 0)
(6.26919 4.03775 0)
(5.45892 4.3771 0)
(5.84505 4.39459 0)
(4.94067 4.70987 0)
(5.36849 4.76075 0)
(4.35229 5.02645 0)
(4.82635 5.12671 0)
(3.67915 5.30601 0)
(4.20269 5.47694 0)
(2.9071 5.5179 0)
(3.47741 5.78724 0)
(2.02733 5.62263 0)
(2.64459 6.01914 0)
(1.04492 5.52898 0)
(1.6374 6.12343 0)
(0.704319 5.94248 0)
(9.98465 0.159983 0)
(9.99402 0.110463 0)
(9.95473 0.265384 0)
(9.97409 0.219402 0)
(9.91065 0.371825 0)
(9.93868 0.328616 0)
(9.85267 0.48089 0)
(9.88905 0.439781 0)
(9.781 0.594054 0)
(9.82619 0.554441 0)
(9.69581 0.712693 0)
(9.75038 0.674035 0)
(9.59716 0.838123 0)
(9.66167 0.79993 0)
(9.48502 0.971636 0)
(9.56003 0.933453 0)
(9.35927 1.11452 0)
(9.44543 1.07592 0)
(9.21973 1.26806 0)
(9.31776 1.22864 0)
(9.06612 1.43356 0)
(9.17684 1.39295 0)
(8.89809 1.61233 0)
(9.0224 1.5702 0)
(8.71519 1.80569 0)
(8.85408 1.76174 0)
(8.51682 2.01496 0)
(8.67143 1.96897 0)
(8.30222 2.24144 0)
(8.47382 2.19328 0)
(8.07034 2.48639 0)
(8.2604 2.4361 0)
(7.81981 2.751 0)
(8.03006 2.69881 0)
(7.54874 3.0363 0)
(7.78122 2.98279 0)
(7.25452 3.34309 0)
(7.51172 3.28934 0)
(6.93353 3.67182 0)
(7.21854 3.61962 0)
(6.58074 4.02229 0)
(6.89745 3.97453 0)
(6.18923 4.39324 0)
(6.54251 4.35448 0)
(5.74949 4.7817 0)
(6.14543 4.75893 0)
(5.24877 5.18177 0)
(5.69473 5.18565 0)
(4.67054 5.58277 0)
(5.17465 5.62926 0)
(3.99446 5.9664 0)
(4.56459 6.07875 0)
(3.19796 6.30141 0)
(3.83578 6.51338 0)
(2.26137 6.54021 0)
(2.97028 6.89365 0)
(1.18036 6.56447 0)
(1.8787 7.15721 0)
(0.81258 7.09857 0)
(9.98553 0.170965 0)
(9.9944 0.117547 0)
(9.95739 0.283701 0)
(9.97572 0.233521 0)
(9.91601 0.397639 0)
(9.94259 0.349872 0)
(9.86169 0.514417 0)
(9.89624 0.468356 0)
(9.79469 0.635543 0)
(9.83765 0.590547 0)
(9.71517 0.76244 0)
(9.76713 0.717919 0)
(9.62325 0.896483 0)
(9.68476 0.851888 0)
(9.51894 1.03902 0)
(9.59056 0.993836 0)
(9.40221 1.1914 0)
(9.48456 1.14513 0)
(9.27293 1.35498 0)
(9.36674 1.30714 0)
(9.13094 1.53113 0)
(9.23699 1.48127 0)
(8.97595 1.72124 0)
(9.09514 1.66892 0)
(8.80762 1.92676 0)
(8.94096 1.87156 0)
(8.62544 2.14915 0)
(8.77407 2.0907 0)
(8.42873 2.38992 0)
(8.59398 2.3279 0)
(8.21657 2.65062 0)
(8.39999 2.5848 0)
(7.98763 2.93283 0)
(8.19109 2.86315 0)
(7.74009 3.23817 0)
(7.96587 3.16478 0)
(7.47137 3.5683 0)
(7.72233 3.49168 0)
(7.17784 3.92484 0)
(7.45762 3.84599 0)
(6.85435 4.30928 0)
(7.16766 4.23004 0)
(6.49364 4.72278 0)
(6.84664 4.64628 0)
(6.08544 5.16564 0)
(6.48622 5.09715 0)
(5.6153 5.63637 0)
(6.07436 5.5846 0)
(5.06315 6.1298 0)
(5.59359 6.10914 0)
(4.40169 6.63362 0)
(5.01905 6.66753 0)
(3.59555 7.12085 0)
(4.31189 7.24831 0)
(2.60377 7.54 0)
(3.43495 7.8197 0)
(1.39393 7.73955 0)
(2.25581 8.31418 0)
(1.00225 8.46384 0)
(9.9865 0.181253 0)
(9.9948 0.124157 0)
(9.96027 0.300834 0)
(9.97747 0.246681 0)
(9.92177 0.421736 0)
(9.94676 0.369649 0)
(9.87134 0.545655 0)
(9.90388 0.494889 0)
(9.80924 0.67413 0)
(9.84977 0.624009 0)
(9.73568 0.808624 0)
(9.78479 0.758514 0)
(9.65081 0.950558 0)
(9.70903 0.899858 0)
(9.55472 1.10133 0)
(9.62259 1.04946 0)
(9.44743 1.26234 0)
(9.52556 1.20874 0)
(9.32891 1.43499 0)
(9.418 1.37911 0)
(9.19909 1.62071 0)
(9.29989 1.56201 0)
(9.0578 1.82099 0)
(9.17119 1.75892 0)
(8.9048 2.03736 0)
(9.03177 1.97137 0)
(8.73974 2.27142 0)
(8.88141 2.20099 0)
(8.56208 2.52488 0)
(8.71979 2.44947 0)
(8.37107 2.79955 0)
(8.5464 2.71868 0)
(8.16559 3.09742 0)
(8.36047 3.01065 0)
(7.94407 3.42068 0)
(8.16088 3.32765 0)
(7.7042 3.77179 0)
(7.94601 3.6723 0)
(7.4427 4.15358 0)
(7.71348 4.04766 0)
(7.15483 4.5693 0)
(7.45985 4.45742 0)
(6.8337 5.02267 0)
(7.18009 4.90607 0)
(6.46925 5.51782 0)
(6.86681 5.39911 0)
(6.04661 6.05886 0)
(6.50895 5.94325 0)
(5.54354 6.6488 0)
(6.08955 6.54636 0)
(4.92642 7.28691 0)
(5.58246 7.21685 0)
(4.14422 7.96107 0)
(4.94165 7.96141 0)
(3.12095 8.63282 0)
(4.10827 8.77514 0)
(1.75564 9.12659 0)
(2.87741 9.61984 0)
(1.36407 10.1834 0)
(9.98754 0.190799 0)
(9.99523 0.13026 0)
(9.96332 0.316708 0)
(9.97932 0.258825 0)
(9.92786 0.444024 0)
(9.95115 0.387869 0)
(9.88148 0.574493 0)
(9.91188 0.519288 0)
(9.82449 0.709685 0)
(9.86244 0.654718 0)
(9.75713 0.851095 0)
(9.80318 0.79569 0)
(9.67959 1.00018 0)
(9.73426 0.943686 0)
(9.59202 1.15837 0)
(9.65583 1.10016 0)
(9.49452 1.3271 0)
(9.56806 1.26655 0)
(9.38716 1.50782 0)
(9.47109 1.44431 0)
(9.26997 1.702 0)
(9.365 1.6349 0)
(9.1429 1.9112 0)
(9.24988 1.83986 0)
(9.00588 2.13701 0)
(9.12573 2.06077 0)
(8.8587 2.38117 0)
(8.99251 2.29932 0)
(8.70106 2.64553 0)
(8.85011 2.55735 0)
(8.53245 2.93214 0)
(8.69827 2.83686 0)
(8.35208 3.24333 0)
(8.53655 3.14013 0)
(8.15879 3.58177 0)
(8.36427 3.46977 0)
(7.95082 3.95065 0)
(8.18037 3.8289 0)
(7.72565 4.35385 0)
(7.98324 4.22132 0)
(7.4795 4.79623 0)
(7.77053 4.65185 0)
(7.20682 5.28397 0)
(7.53874 5.12666 0)
(6.89922 5.82505 0)
(7.28262 5.65397 0)
(6.54373 6.42981 0)
(6.99418 6.24492 0)
(6.11959 7.11164 0)
(6.66068 6.91499 0)
(5.59207 7.88764 0)
(6.26155 7.68641 0)
(4.8997 8.77762 0)
(5.75633 8.59263 0)
(3.92553 9.80068 0)
(5.08573 9.68474 0)
(2.43206 10.8549 0)
(3.97762 11.0481 0)
(2.14486 12.5654 0)
(9.98862 0.199563 0)
(9.99567 0.135836 0)
(9.96652 0.331262 0)
(9.98124 0.269906 0)
(9.9342 0.46442 0)
(9.95571 0.404472 0)
(9.89202 0.600824 0)
(9.92017 0.541477 0)
(9.84031 0.742072 0)
(9.87553 0.682586 0)
(9.77933 0.889678 0)
(9.82217 0.829344 0)
(9.70933 1.04512 0)
(9.76029 0.983253 0)
(9.63052 1.20987 0)
(9.69011 1.14578 0)
(9.54308 1.38537 0)
(9.61187 1.31839 0)
(9.44719 1.57309 0)
(9.52579 1.50254 0)
(9.34296 1.77455 0)
(9.43208 1.69972 0)
(9.23053 1.99133 0)
(9.33094 1.91148 0)
(9.10995 2.22509 0)
(9.22254 2.13943 0)
(8.98126 2.47762 0)
(9.10705 2.38532 0)
(8.84437 2.75091 0)
(8.98457 2.65103 0)
(8.69911 3.04717 0)
(8.85515 2.93867 0)
(8.54513 3.36896 0)
(8.71877 3.25067 0)
(8.38181 3.71931 0)
(8.57526 3.58984 0)
(8.2082 4.10194 0)
(8.42428 3.95962 0)
(8.02284 4.52149 0)
(8.26526 4.36427 0)
(7.82354 4.98401 0)
(8.09728 4.80927 0)
(7.60699 5.49756 0)
(7.91897 5.30184 0)
(7.36817 6.07315 0)
(7.72835 5.85184 0)
(7.09914 6.72645 0)
(7.52254 6.47321 0)
(6.78673 7.48063 0)
(7.29726 7.18651 0)
(6.40735 8.37238 0)
(7.04702 8.02411 0)
(5.91398 9.46605 0)
(6.76156 9.04242 0)
(5.19401 10.9077 0)
(6.45977 10.357 0)
(3.88209 13.176 0)
(6.18619 12.3027 0)
(5.25329 16.3677 0)
(0.191374 -0.114245 0)
(0.112411 -0.187439 0)
(0.374062 -0.0972143 0)
(0.273335 -0.174706 0)
(0.524624 -0.0741087 0)
(0.434142 -0.140583 0)
(0.641673 -0.0529844 0)
(0.569556 -0.10671 0)
(0.728675 -0.0352095 0)
(0.674707 -0.0774432 0)
(0.789557 -0.0205687 0)
(0.753083 -0.0529134 0)
(0.827892 -0.00862717 0)
(0.809162 -0.0325306 0)
(0.846973 0.00090851 0)
(0.846616 -0.0158092 0)
(0.850306 0.00791092 0)
(0.868386 -0.00269594 0)
(0.840321 0.0124956 0)
(0.877143 0.00788674 0)
(0.820694 0.0153035 0)
(0.874638 0.0151363 0)
(0.794169 0.0167782 0)
(0.86337 0.0199731 0)
(0.763166 0.0171599 0)
(0.845983 0.0227941 0)
(0.729941 0.0166366 0)
(0.824821 0.0238503 0)
(0.696539 0.0153968 0)
(0.802012 0.0234113 0)
(0.664714 0.0136558 0)
(0.779466 0.0217787 0)
(0.635817 0.0116497 0)
(0.75876 0.0193088 0)
(0.610726 0.00960903 0)
(0.741021 0.0163693 0)
(0.589813 0.00773142 0)
(0.726863 0.0133213 0)
(0.572955 0.00615482 0)
(0.716384 0.0104843 0)
(0.559642 0.00494092 0)
(0.709231 0.0080843 0)
(0.549144 0.00408444 0)
(0.704749 0.00622433 0)
(0.54067 0.00352855 0)
(0.702147 0.00490619 0)
(0.533501 0.00318149 0)
(0.700652 0.00405194 0)
(0.527088 0.00295818 0)
(0.699645 0.00353908 0)
(0.521042 0.00280757 0)
(0.698702 0.00325811 0)
(0.515088 0.00269938 0)
(0.697562 0.00313263 0)
(0.509039 0.00259239 0)
(0.696064 0.00310715 0)
(0.502865 0.00227168 0)
(0.694088 0.00309666 0)
(0.69136 0.00252716 0)
(0.177266 -0.272829 0)
(0.0940852 -0.36106 0)
(0.347792 -0.23928 0)
(0.243193 -0.337781 0)
(0.491634 -0.189514 0)
(0.384162 -0.274891 0)
(0.608009 -0.143208 0)
(0.504379 -0.212805 0)
(0.700341 -0.103885 0)
(0.600302 -0.159631 0)
(0.772211 -0.0711789 0)
(0.675382 -0.115376 0)
(0.826753 -0.0441627 0)
(0.733286 -0.078814 0)
(0.866629 -0.0220602 0)
(0.77691 -0.0488482 0)
(0.893628 -0.00431139 0)
(0.80857 -0.0245375 0)
(0.909895 0.00934972 0)
(0.830219 -0.00496211 0)
(0.916061 0.0192236 0)
(0.844117 0.0103808 0)
(0.914248 0.0257856 0)
(0.850117 0.0213386 0)
(0.90695 0.0294437 0)
(0.850301 0.0281599 0)
(0.896375 0.0306051 0)
(0.846644 0.0314415 0)
(0.884569 0.0296934 0)
(0.840918 0.0316861 0)
(0.873294 0.0271882 0)
(0.834737 0.0294947 0)
(0.86388 0.0236198 0)
(0.829437 0.0255988 0)
(0.857189 0.0195372 0)
(0.825952 0.0207344 0)
(0.853573 0.0154577 0)
(0.824767 0.0156249 0)
(0.85289 0.0117991 0)
(0.825904 0.0109094 0)
(0.854622 0.00881578 0)
(0.828975 0.00703214 0)
(0.85805 0.00658548 0)
(0.833302 0.00419196 0)
(0.862384 0.00506536 0)
(0.83798 0.00239745 0)
(0.866947 0.00413659 0)
(0.842487 0.00147261 0)
(0.871297 0.00364412 0)
(0.846609 0.0011381 0)
(0.875179 0.00345271 0)
(0.850328 0.00116625 0)
(0.878465 0.00345385 0)
(0.853721 0.001404 0)
(0.881101 0.0035453 0)
(0.856871 0.00175305 0)
(0.883033 0.00344408 0)
(0.859619 0.00212776 0)
(0.862074 0.00227291 0)
(0.150288 -0.432512 0)
(0.0738627 -0.508258 0)
(0.290349 -0.380359 0)
(0.199342 -0.471722 0)
(0.406811 -0.304666 0)
(0.306952 -0.383634 0)
(0.50102 -0.234782 0)
(0.39921 -0.298692 0)
(0.57648 -0.175671 0)
(0.472435 -0.226801 0)
(0.636127 -0.126621 0)
(0.530536 -0.167215 0)
(0.682411 -0.0862586 0)
(0.576167 -0.11809 0)
(0.717457 -0.053397 0)
(0.611307 -0.0778852 0)
(0.743398 -0.0268872 0)
(0.637665 -0.0455236 0)
(0.762624 -0.00563944 0)
(0.656834 -0.0201475 0)
(0.776774 0.010722 0)
(0.671421 -0.000532121 0)
(0.785042 0.0222027 0)
(0.682437 0.0151126 0)
(0.789143 0.029137 0)
(0.689045 0.0251447 0)
(0.790498 0.0320317 0)
(0.692683 0.030469 0)
(0.790551 0.0315358 0)
(0.694533 0.0316488 0)
(0.790512 0.0284363 0)
(0.695672 0.0295214 0)
(0.791289 0.0235922 0)
(0.696932 0.0250796 0)
(0.793442 0.0178886 0)
(0.698853 0.0193298 0)
(0.79714 0.0121714 0)
(0.701664 0.0132693 0)
(0.802141 0.00712712 0)
(0.705255 0.0077991 0)
(0.807866 0.00319445 0)
(0.709247 0.00355552 0)
(0.813451 0.0005889 0)
(0.713063 0.000881098 0)
(0.818273 -0.000768945 0)
(0.716032 -0.000394361 0)
(0.822215 -0.00120644 0)
(0.717973 -0.000755631 0)
(0.825583 -0.00107343 0)
(0.718942 -0.000720657 0)
(0.828747 -0.000640636 0)
(0.719196 -0.000538769 0)
(0.832002 -5.48453e-05 0)
(0.719112 -0.000308212 0)
(0.835423 0.000593224 0)
(0.718953 -4.25595e-06 0)
(0.838509 0.00124498 0)
(0.718751 0.000579942 0)
(0.718287 0.00147317 0)
(0.120542 -0.557103 0)
(0.0535376 -0.626322 0)
(0.224594 -0.485031 0)
(0.149701 -0.571227 0)
(0.307575 -0.387507 0)
(0.217657 -0.461114 0)
(0.37414 -0.299706 0)
(0.278196 -0.359378 0)
(0.427747 -0.226179 0)
(0.324364 -0.274519 0)
(0.47054 -0.165294 0)
(0.361541 -0.204407 0)
(0.504183 -0.115144 0)
(0.391156 -0.146638 0)
(0.52998 -0.0742967 0)
(0.41435 -0.0992594 0)
(0.549279 -0.0418174 0)
(0.432033 -0.0611357 0)
(0.563807 -0.016607 0)
(0.445209 -0.0316229 0)
(0.575371 0.00253541 0)
(0.454629 -0.00945077 0)
(0.584963 0.0163829 0)
(0.464545 0.00789044 0)
(0.591473 0.0252829 0)
(0.47139 0.0203586 0)
(0.595766 0.029443 0)
(0.475668 0.0273872 0)
(0.598909 0.0294759 0)
(0.478063 0.0294455 0)
(0.601567 0.0263716 0)
(0.479304 0.0277024 0)
(0.60417 0.0212405 0)
(0.479773 0.0233405 0)
(0.606945 0.0152164 0)
(0.479657 0.0175191 0)
(0.609861 0.00938932 0)
(0.47905 0.0114122 0)
(0.6126 0.00464911 0)
(0.477877 0.00609567 0)
(0.614764 0.00154025 0)
(0.47595 0.00224138 0)
(0.616066 2.17249e-05 0)
(0.473234 0.000108846 0)
(0.616035 -0.000458431 0)
(0.469511 -0.000376212 0)
(0.614846 -0.000488656 0)
(0.464037 -8.33339e-05 0)
(0.612521 -0.000438392 0)
(0.456644 0.000562103 0)
(0.609401 -0.000432504 0)
(0.447711 0.00114254 0)
(0.605928 -0.000396009 0)
(0.437851 0.00151924 0)
(0.60232 -0.000179343 0)
(0.427624 0.00184879 0)
(0.598682 0.000474704 0)
(0.417629 0.00240481 0)
(0.407297 0.00312165 0)
(0.0860004 -0.648391 0)
(0.0322008 -0.710554 0)
(0.149873 -0.555599 0)
(0.0936727 -0.632309 0)
(0.195684 -0.44115 0)
(0.117083 -0.503888 0)
(0.231308 -0.341727 0)
(0.143576 -0.391855 0)
(0.259748 -0.259441 0)
(0.159255 -0.299834 0)
(0.282489 -0.19153 0)
(0.172134 -0.224172 0)
(0.300622 -0.135585 0)
(0.182215 -0.162025 0)
(0.314744 -0.0899593 0)
(0.190309 -0.11096 0)
(0.325463 -0.0537609 0)
(0.19679 -0.0698068 0)
(0.333864 -0.025739 0)
(0.202026 -0.0382591 0)
(0.341611 -0.00401204 0)
(0.205728 -0.0154255 0)
(0.349518 0.0119248 0)
(0.211061 0.00193659 0)
(0.354011 0.0219618 0)
(0.21242 0.0170551 0)
(0.356537 0.0267844 0)
(0.211684 0.0255741 0)
(0.357413 0.0272445 0)
(0.208273 0.0288317 0)
(0.356803 0.0244177 0)
(0.202555 0.0281199 0)
(0.354837 0.0194226 0)
(0.19442 0.0246541 0)
(0.35163 0.0134782 0)
(0.183646 0.0196111 0)
(0.347287 0.0078132 0)
(0.170502 0.0141787 0)
(0.341742 0.00334483 0)
(0.156141 0.00954423 0)
(0.335167 0.000596394 0)
(0.140669 0.00623421 0)
(0.327392 -0.000429769 0)
(0.125134 0.00471913 0)
(0.318091 -0.000121872 0)
(0.110081 0.00500812 0)
(0.306222 0.00101937 0)
(0.0952841 0.00662509 0)
(0.291927 0.0023707 0)
(0.0806732 0.00845169 0)
(0.27599 0.00345238 0)
(0.0661465 0.0097298 0)
(0.259365 0.00419685 0)
(0.0514773 0.0102663 0)
(0.242883 0.00491489 0)
(0.0365094 0.0103157 0)
(0.227556 0.00548319 0)
(0.0217887 0.0100922 0)
(0.00801252 0.00871266 0)
(0.0466129 -0.701464 0)
(0.00881637 -0.756208 0)
(0.0659183 -0.587737 0)
(0.0302576 -0.650771 0)
(0.0719925 -0.46116 0)
(0.0064716 -0.50956 0)
(0.0741041 -0.355683 0)
(-0.00405863 -0.39378 0)
(0.0738558 -0.269413 0)
(-0.021958 -0.299613 0)
(0.0727076 -0.198811 0)
(-0.0375411 -0.223174 0)
(0.0713797 -0.140961 0)
(-0.051634 -0.160899 0)
(0.0703506 -0.0939327 0)
(-0.0633741 -0.110108 0)
(0.0699985 -0.0572518 0)
(-0.0728911 -0.0695219 0)
(0.0712993 -0.0310357 0)
(-0.0816178 -0.0392865 0)
(0.0732389 -0.0116796 0)
(-0.0928361 -0.0169213 0)
(0.071551 0.00564596 0)
(-0.106719 0.00320758 0)
(0.0680493 0.0193916 0)
(-0.114734 0.0196296 0)
(0.0614413 0.0270191 0)
(-0.123699 0.0303177 0)
(0.0520225 0.0296994 0)
(-0.134909 0.0354333 0)
(0.0392342 0.0289825 0)
(-0.148516 0.0368714 0)
(0.0226795 0.0260259 0)
(-0.164834 0.0357156 0)
(0.00255044 0.0217784 0)
(-0.184046 0.0327433 0)
(-0.020173 0.0173204 0)
(-0.205749 0.0286533 0)
(-0.0440481 0.0136144 0)
(-0.228546 0.0243931 0)
(-0.0680404 0.01131 0)
(-0.252017 0.0208037 0)
(-0.0909659 0.0108362 0)
(-0.274911 0.0183119 0)
(-0.11166 0.011835 0)
(-0.296213 0.0169882 0)
(-0.12948 0.0134069 0)
(-0.314933 0.0166974 0)
(-0.144843 0.0147893 0)
(-0.330644 0.0169302 0)
(-0.158686 0.0154999 0)
(-0.343776 0.0171893 0)
(-0.171811 0.0155091 0)
(-0.355377 0.0171714 0)
(-0.184445 0.0148413 0)
(-0.366538 0.0168061 0)
(-0.195773 0.0130112 0)
(-0.377352 0.0157739 0)
(-0.38581 0.0135028 0)
(-0.00196472 -0.710188 0)
(-0.0190075 -0.754284 0)
(-0.0275075 -0.576683 0)
(-0.0423379 -0.626344 0)
(-0.0623052 -0.443345 0)
(-0.112749 -0.477069 0)
(-0.0972374 -0.337406 0)
(-0.164867 -0.361934 0)
(-0.130514 -0.252404 0)
(-0.219091 -0.269992 0)
(-0.160584 -0.18446 0)
(-0.267446 -0.197041 0)
(-0.186611 -0.130056 0)
(-0.310498 -0.138812 0)
(-0.208589 -0.0862722 0)
(-0.347592 -0.0918984 0)
(-0.22823 -0.0509167 0)
(-0.379109 -0.0536325 0)
(-0.249389 -0.0225722 0)
(-0.407418 -0.0225735 0)
(-0.273588 0.000132144 0)
(-0.434967 0.00174076 0)
(-0.294345 0.0177855 0)
(-0.460069 0.0188375 0)
(-0.308999 0.0301263 0)
(-0.4759 0.0304039 0)
(-0.322136 0.0377372 0)
(-0.490659 0.0397482 0)
(-0.336756 0.0416295 0)
(-0.505592 0.0456799 0)
(-0.353447 0.0425626 0)
(-0.521384 0.0482937 0)
(-0.37207 0.0412029 0)
(-0.538388 0.0481589 0)
(-0.392239 0.0382057 0)
(-0.556616 0.0459017 0)
(-0.413579 0.0343225 0)
(-0.575908 0.0422467 0)
(-0.435592 0.0303659 0)
(-0.595995 0.0380837 0)
(-0.457603 0.0269375 0)
(-0.616512 0.03417 0)
(-0.478825 0.0243211 0)
(-0.636879 0.0308948 0)
(-0.498381 0.0225367 0)
(-0.656312 0.0283094 0)
(-0.515372 0.0213861 0)
(-0.673768 0.0263013 0)
(-0.529439 0.0206315 0)
(-0.688403 0.0246932 0)
(-0.540898 0.0200587 0)
(-0.700076 0.0233642 0)
(-0.550489 0.0194223 0)
(-0.709437 0.0222177 0)
(-0.558789 0.0183365 0)
(-0.717512 0.0210695 0)
(-0.566101 0.0165708 0)
(-0.72475 0.0194418 0)
(-0.72951 0.0174358 0)
(-0.0506253 -0.669627 0)
(-0.0530218 -0.7047 0)
(-0.127569 -0.522368 0)
(-0.123681 -0.552762 0)
(-0.206549 -0.389143 0)
(-0.241455 -0.403323 0)
(-0.282902 -0.287097 0)
(-0.338399 -0.292326 0)
(-0.353047 -0.207358 0)
(-0.429766 -0.207553 0)
(-0.416052 -0.144655 0)
(-0.510113 -0.142282 0)
(-0.471524 -0.0947992 0)
(-0.579764 -0.0917394 0)
(-0.51959 -0.0545203 0)
(-0.639089 -0.0520736 0)
(-0.561146 -0.0219948 0)
(-0.68913 -0.0200146 0)
(-0.59584 0.00276924 0)
(-0.728417 0.00483016 0)
(-0.621799 0.0198157 0)
(-0.759257 0.0217601 0)
(-0.641609 0.0317606 0)
(-0.782004 0.0337548 0)
(-0.659515 0.0412909 0)
(-0.802191 0.0435686 0)
(-0.675606 0.0484093 0)
(-0.819589 0.0512987 0)
(-0.69109 0.0525674 0)
(-0.835498 0.0565328 0)
(-0.706868 0.0539015 0)
(-0.850911 0.0590915 0)
(-0.723256 0.0528389 0)
(-0.866401 0.0591088 0)
(-0.740282 0.0499945 0)
(-0.882198 0.0570095 0)
(-0.757959 0.0461671 0)
(-0.898412 0.053507 0)
(-0.776241 0.0421605 0)
(-0.915147 0.0494541 0)
(-0.794903 0.0384967 0)
(-0.932438 0.0455026 0)
(-0.813423 0.0353151 0)
(-0.950057 0.0418754 0)
(-0.830939 0.0325138 0)
(-0.967342 0.0384495 0)
(-0.846421 0.0299501 0)
(-0.983216 0.035052 0)
(-0.859127 0.0275913 0)
(-0.996608 0.0317057 0)
(-0.868969 0.0255084 0)
(-1.00703 0.0286673 0)
(-0.876501 0.0236848 0)
(-1.01489 0.0261805 0)
(-0.882524 0.0218753 0)
(-1.02122 0.0241634 0)
(-0.888062 0.0200231 0)