/*--------------------------------*- C++ -*----------------------------------*\
| =========                 |                                                 |
| \\      /  F ield         | OpenFOAM: The Open Source CFD Toolbox           |
|  \\    /   O peration     | Version:  5.x                                   |
|   \\  /    A nd           | Web:      www.OpenFOAM.org                      |
|    \\/     M anipulation  |                                                 |
\*---------------------------------------------------------------------------*/
FoamFile
{
    version     2.0;
    format      ascii;
    class       volScalarField;
    location    "3";
    object      p;
}
// * * * * * * * * * * * * * * * * * * * * * * * * * * * * * * * * * * * * * //

dimensions      [0 2 -2 0 0 0 0];

internalField   nonuniform List<scalar> 
2790
(
131.699
131.779
132.21
132.869
133.676
134.611
135.675
136.866
138.181
139.618
141.171
142.838
144.614
146.496
148.476
150.545
152.695
154.911
157.174
159.465
161.756
164.014
166.203
168.278
170.192
171.896
173.335
174.462
175.242
175.672
131.523
131.711
132.161
132.817
133.62
134.553
135.612
136.798
138.108
139.538
141.083
142.741
144.508
146.379
148.348
150.407
152.546
154.751
157.005
159.289
161.577
163.837
166.033
168.124
170.064
171.805
173.296
174.5
175.402
176.104
131.358
131.618
132.085
132.73
133.522
134.445
135.492
136.662
137.955
139.366
140.888
142.521
144.259
146.098
148.031
150.05
152.146
154.304
156.51
158.744
160.983
163.197
165.354
167.417
169.345
171.099
172.639
173.932
174.943
175.71
131.179
131.474
131.953
132.59
133.369
134.279
135.31
136.461
137.731
139.115
140.608
142.205
143.903
145.697
147.58
149.543
151.576
153.665
155.797
157.952
160.108
162.24
164.317
166.308
168.177
169.889
171.405
172.68
173.622
174.085
130.976
131.29
131.779
132.409
133.175
134.067
135.078
136.204
137.446
138.795
140.248
141.801
143.449
145.185
147.004
148.895
150.849
152.851
154.887
156.94
158.987
161.006
162.969
164.847
166.606
168.208
169.605
170.724
171.446
171.35
130.747
131.07
131.564
132.187
132.936
133.807
134.792
135.889
137.095
138.404
139.81
141.309
142.897
144.565
146.308
148.115
149.975
151.875
153.798
155.727
157.642
159.52
161.335
163.057
164.651
166.071
167.255
168.099
168.532
167.798
130.489
130.816
131.311
131.924
132.654
133.499
134.455
135.519
136.684
137.945
139.296
140.735
142.253
143.844
145.5
147.211
148.964
150.745
152.538
154.326
156.086
157.796
159.429
160.952
162.325
163.494
164.383
164.855
164.947
163.528
130.202
130.53
131.022
131.622
132.33
133.147
134.071
135.095
136.214
137.421
138.712
140.081
141.522
143.027
144.585
146.187
147.819
149.468
151.115
152.742
154.325
155.839
157.255
158.536
159.633
160.482
160.999
161.01
160.698
158.529
129.885
130.212
130.699
131.284
131.967
132.753
133.64
134.621
135.688
136.836
138.059
139.353
140.709
142.118
143.57
145.052
146.55
148.051
149.537
150.983
152.364
153.653
154.816
155.808
156.571
157.027
157.094
156.549
155.747
152.74
129.54
129.865
130.343
130.91
131.567
132.319
133.165
134.099
135.11
136.193
137.343
138.554
139.818
141.124
142.46
143.811
145.163
146.503
147.809
149.054
150.211
151.244
152.114
152.766
153.13
153.115
152.64
151.424
150.036
146.127
129.167
129.489
129.956
130.504
131.131
131.846
132.649
133.532
134.483
135.496
136.568
137.691
138.855
140.05
141.261
142.472
143.668
144.832
145.941
146.966
147.874
148.62
149.154
149.41
149.304
148.727
147.589
145.54
143.385
138.25
128.768
129.085
129.54
130.067
130.663
131.338
132.095
132.923
133.81
134.75
135.739
136.768
137.828
138.904
139.982
141.044
142.074
143.051
143.948
144.733
145.366
145.79
145.945
145.747
145.093
143.839
141.874
138.761
135.536
128.623
128.344
128.656
129.098
129.601
130.163
130.797
131.505
132.276
133.097
133.959
134.86
135.793
136.742
137.694
138.632
139.538
140.392
141.171
141.844
142.372
142.704
142.776
142.511
141.802
140.511
138.446
135.45
130.957
126.203
116.761
127.896
128.203
128.63
129.108
129.636
130.225
130.883
131.595
132.345
133.127
133.939
134.77
135.605
136.427
137.219
137.963
138.636
139.209
139.646
139.901
139.913
139.61
138.891
137.617
135.608
132.599
128.339
122.044
114.941
101.091
127.427
127.728
128.139
128.591
129.082
129.627
130.233
130.883
131.559
132.26
132.98
133.707
134.424
135.113
135.756
136.333
136.82
137.182
137.376
137.348
137.032
136.338
135.142
133.273
130.496
126.455
120.732
112.18
101.462
78.5902
1.82326
1.88318
1.91104
1.89686
1.83555
1.7466
1.65549
1.57758
1.51667
1.47099
1.43712
1.4108
1.38802
1.36333
1.33306
1.29717
1.25699
1.21209
1.15989
1.0977
1.02466
0.942196
0.852732
0.759912
0.665541
0.568676
0.46716
0.356497
0.231864
0.0902987
1.82318
1.88144
1.89722
1.8733
1.80814
1.7207
1.63355
1.56035
1.50417
1.46214
1.43084
1.4081
1.38805
1.36465
1.33404
1.29769
1.25822
1.21475
1.16388
1.10226
1.02882
0.945495
0.85576
0.761584
0.666996
0.570479
0.470403
0.360904
0.236109
0.0911708
1.83404
1.88481
1.88
1.84124
1.76988
1.68397
1.60235
1.53629
1.48784
1.45135
1.42293
1.40388
1.38938
1.36864
1.33717
1.29959
1.26125
1.22003
1.17079
1.10941
1.03475
0.949343
0.857513
0.763027
0.666977
0.57214
0.474965
0.366712
0.240951
0.0918201
1.83673
1.88113
1.85706
1.80324
1.72615
1.64304
1.56891
1.51198
1.4735
1.4448
1.42078
1.40528
1.39389
1.37415
1.34038
1.30202
1.26697
1.23043
1.18428
1.12233
1.04346
0.952055
0.855326
0.757186
0.658975
0.560566
0.463
0.356007
0.232483
0.0853563
1.82617
1.86984
1.82933
1.76399
1.68422
1.60621
1.54061
1.49451
1.46408
1.43698
1.41974
1.41499
1.41613
1.39732
1.35618
1.31192
1.27444
1.23554
1.18601
1.12027
1.03786
0.943335
0.843255
0.742127
0.64237
0.545975
0.444585
0.337564
0.216193
0.0752134
1.82209
1.85515
1.802
1.73101
1.65364
1.58502
1.52427
1.49009
1.48897
1.46628
1.43518
1.42898
1.43249
1.41805
1.38188
1.33777
1.29424
1.24667
1.18781
1.11351
1.02434
0.92435
0.819139
0.713288
0.609457
0.509227
0.409836
0.305803
0.190618
0.0636048
1.81438
1.84962
1.78993
1.72099
1.65258
1.60088
1.55976
1.52246
1.50156
1.49128
1.47679
1.47061
1.46733
1.45032
1.41546
1.37008
1.31935
1.26086
1.18983
1.10383
1.00443
0.89575
0.78305
0.671054
0.56284
0.460417
0.362339
0.263044
0.157691
0.0507051
1.81986
1.86943
1.81503
1.7579
1.69754
1.64483
1.60085
1.57009
1.55115
1.5365
1.52516
1.51905
1.51156
1.49191
1.45626
1.40766
1.34857
1.27756
1.192
1.09118
0.97774
0.856518
0.733271
0.613348
0.500555
0.39656
0.301121
0.209427
0.118272
0.036278
1.88493
1.93987
1.88726
1.82543
1.75967
1.70028
1.65209
1.61912
1.59942
1.5864
1.57806
1.57263
1.56325
1.54201
1.50494
1.45191
1.38331
1.29816
1.19548
1.07629
0.944626
0.806695
0.669514
0.539548
0.42141
0.317014
0.226217
0.145038
0.0726664
0.0200297
2.03367
2.05384
1.97718
1.8983
1.81541
1.74669
1.69606
1.66357
1.64579
1.63722
1.63376
1.63115
1.62256
1.60124
1.56264
1.50438
1.4252
1.32415
1.20143
1.05979
0.905127
0.745741
0.590756
0.448317
0.324072
0.220236
0.136197
0.0689839
0.0202295
0.00157406
2.2177
2.17159
2.07077
1.94992
1.84879
1.77409
1.72481
1.69741
1.6867
1.68654
1.69114
1.69458
1.69002
1.67078
1.63133
1.56755
1.47674
1.3577
1.21151
1.04259
0.859228
0.672774
0.495455
0.337771
0.206594
0.104338
0.0292538
-0.0203617
-0.0402796
-0.0196082
2.36386
2.26835
2.10144
1.94889
1.8394
1.76971
1.73058
1.71569
1.7191
1.73323
1.75048
1.76402
1.76708
1.75262
1.71382
1.64475
1.5413
1.40178
1.2279
1.02578
0.806743
0.586343
0.381253
0.205137
0.0660741
-0.033798
-0.0969277
-0.12464
-0.110523
-0.0441868
2.5031
2.27711
2.02829
1.85915
1.76805
1.72442
1.70848
1.71562
1.74203
1.77805
1.8135
1.84147
1.85598
1.84959
1.81364
1.74002
1.62294
1.46004
1.25336
1.01079
0.747321
0.4843
0.244774
0.0466727
-0.100995
-0.19716
-0.245355
-0.246853
-0.192819
-0.0730247
2.47866
2.04906
1.75487
1.6357
1.62288
1.63875
1.65828
1.6957
1.75602
1.82376
1.88338
1.92979
1.95988
1.96578
1.9359
1.85902
1.72737
1.53769
1.29201
0.999841
0.680603
0.363587
0.0812237
-0.142631
-0.298948
-0.38941
-0.419551
-0.390438
-0.290028
-0.107196
2.14622
1.3843
1.15855
1.2258
1.39958
1.52567
1.5815
1.65382
1.7649
1.8786
1.96681
2.03293
2.082
2.10526
2.08562
2.00707
1.85964
1.63914
1.3471
0.994202
0.604983
0.219446
-0.116123
-0.369308
-0.532961
-0.614717
-0.623449
-0.559332
-0.405618
-0.148062
126.929
127.223
127.617
128.041
128.494
128.994
129.545
130.129
130.73
131.346
131.971
132.589
133.183
133.735
134.225
134.631
134.924
135.067
135.01
134.695
134.041
132.947
131.267
128.801
125.261
120.2
112.995
101.995
85.9932
40.0433
126.395
126.683
127.059
127.452
127.865
128.317
128.811
129.326
129.848
130.377
130.903
131.408
131.874
132.285
132.618
132.847
132.941
132.86
132.551
131.947
130.958
129.472
127.335
124.327
120.139
114.298
106.146
94.1418
78.3611
58.9977
125.83
126.112
126.469
126.83
127.201
127.604
128.038
128.481
128.924
129.362
129.785
130.173
130.51
130.777
130.951
131.001
130.896
130.594
130.038
129.152
127.846
126.007
123.481
120.055
115.452
109.3
101.225
90.6572
78.4807
67.6606
125.233
125.511
125.849
126.175
126.502
126.855
127.227
127.599
127.96
128.306
128.623
128.893
129.099
129.223
129.238
129.111
128.811
128.295
127.502
126.355
124.768
122.637
119.817
116.131
111.371
105.308
97.7883
88.6265
77.8609
66.1991
124.606
124.882
125.201
125.49
125.771
126.071
126.382
126.682
126.961
127.212
127.422
127.574
127.651
127.633
127.49
127.192
126.707
125.99
124.978
123.601
121.783
119.43
116.419
112.615
107.878
102.068
95.0904
86.83
77.1453
66.6786
123.951
124.224
124.524
124.775
125.01
125.258
125.507
125.735
125.93
126.085
126.189
126.225
126.175
126.018
125.723
125.264
124.606
123.703
122.499
120.932
118.935
116.427
113.313
109.495
104.879
99.3779
92.937
85.5289
77.1584
68.3994
123.271
123.541
123.819
124.034
124.223
124.419
124.605
124.76
124.871
124.93
124.931
124.854
124.682
124.391
123.953
123.343
122.527
121.46
120.094
118.376
116.249
113.647
110.499
106.738
102.302
97.1472
91.2581
84.662
77.4087
69.8742
122.568
122.833
123.09
123.269
123.415
123.557
123.681
123.763
123.79
123.757
123.657
123.472
123.182
122.764
122.195
121.447
120.489
119.283
117.785
115.953
113.739
111.093
107.964
104.308
100.09
95.2937
89.9288
84.0358
77.6664
71.0899
121.844
122.104
122.338
122.483
122.587
122.677
122.737
122.746
122.692
122.571
122.375
122.086
121.685
121.15
120.46
119.59
118.51
117.188
115.588
113.675
111.412
108.761
105.689
102.169
98.1861
93.7402
88.8521
83.5654
77.9338
72.1672
121.102
121.355
121.568
121.681
121.745
121.782
121.779
121.717
121.586
121.381
121.093
120.706
120.202
119.561
118.763
117.786
116.603
115.188
113.512
111.547
109.266
106.641
103.653
100.288
96.5423
92.4272
87.9683
83.2088
78.2006
73.1078
120.345
120.59
120.782
120.867
120.891
120.877
120.812
120.682
120.478
120.193
119.819
119.341
118.742
118.006
117.113
116.045
114.778
113.291
111.562
109.571
107.296
104.72
101.833
98.6304
95.1169
91.3085
87.2327
82.9298
78.4459
73.9103
119.577
119.812
119.986
120.045
120.03
119.965
119.841
119.647
119.374
119.014
118.56
117.998
117.315
116.494
115.521
114.377
113.043
111.503
109.741
107.743
105.494
102.983
100.207
97.1678
93.8751
90.3471
86.6106
82.7016
78.6601
74.5889
118.8
119.028
119.185
119.217
119.165
119.051
118.873
118.618
118.28
117.851
117.323
116.687
115.928
115.034
113.993
112.788
111.402
109.825
108.048
106.06
103.85
101.414
98.7536
95.8741
92.7878
89.5135
86.0762
82.5074
78.8409
75.1593
118.019
118.241
118.382
118.389
118.301
118.142
117.912
117.602
117.203
116.71
116.116
115.413
114.589
113.633
112.535
111.282
109.858
108.259
106.48
104.514
102.354
99.999
97.4538
94.7268
91.831
88.7847
85.6106
82.3356
78.9884
75.6356
117.24
117.456
117.582
117.564
117.443
117.242
116.965
116.602
116.148
115.597
114.945
114.183
113.303
112.295
111.151
109.861
108.413
106.805
105.035
103.1
100.995
98.723
96.2904
93.7067
90.9851
88.1427
85.1996
82.1789
79.1046
76.0306
116.466
116.677
116.789
116.749
116.596
116.357
116.036
115.627
115.122
114.519
113.815
113.004
112.077
111.026
109.845
108.527
107.066
105.46
103.708
101.808
99.7621
97.573
95.2482
92.7976
90.2342
87.5733
84.8329
82.0325
79.1921
76.3559
115.702
115.91
116.009
115.947
115.766
115.492
115.13
114.68
114.131
113.481
112.733
111.88
110.913
109.828
108.619
107.284
105.818
104.22
102.491
100.632
98.6462
96.5376
94.3143
91.9861
89.5653
87.0656
84.5027
81.8934
79.2543
76.6215
114.956
115.159
115.246
115.166
114.959
114.652
114.254
113.767
113.179
112.489
111.703
110.814
109.816
108.704
107.476
106.13
104.666
103.082
101.381
99.5647
97.638
95.6063
93.4775
91.261
88.9681
86.6111
84.2037
81.7601
79.2944
76.8364
114.231
114.431
114.507
114.409
114.179
113.843
113.413
112.893
112.272
111.55
110.731
109.812
108.788
107.656
106.415
105.066
103.607
102.041
100.371
98.5982
96.7293
94.7702
92.7284
90.6131
88.4343
86.2034
83.9319
81.6322
79.3161
77.0084
113.534
113.73
113.796
113.681
113.43
113.07
112.613
112.063
111.415
110.665
109.82
108.876
107.832
106.686
105.438
104.09
102.641
101.096
99.4562
97.7269
95.9132
94.0215
92.0592
90.0348
87.9576
85.8375
83.6847
81.5098
79.3229
77.1446
112.871
113.063
113.12
112.99
112.719
112.339
111.86
111.285
110.612
109.84
108.973
108.01
106.95
105.795
104.544
103.2
101.765
100.241
98.6332
96.9454
95.1834
93.3537
91.4633
89.5202
87.5328
85.5098
83.4604
81.3936
79.3181
77.2511
112.247
112.436
112.484
112.34
112.053
111.655
111.158
110.562
109.868
109.078
108.193
107.215
106.145
104.985
103.734
102.397
100.977
99.4752
97.8978
96.2492
94.5351
92.7617
90.9358
89.0648
87.1563
85.2181
83.2582
81.2847
79.305
77.3337
111.669
111.854
111.894
111.739
111.437
111.025
110.512
109.899
109.188
108.383
107.484
106.496
105.419
104.256
103.008
101.68
100.274
98.795
97.2467
95.6345
93.9639
92.2411
90.4724
88.6647
86.8249
84.9602
83.0776
81.1841
79.2865
77.3968
111.143
111.324
111.357
111.191
110.878
110.453
109.927
109.3
108.576
107.759
106.85
105.854
104.773
103.61
102.367
101.048
99.6577
98.1994
96.6781
95.099
93.4674
91.7893
90.0707
88.318
86.5376
84.736
82.9194
81.0942
79.2662
77.4459
110.676
110.854
110.879
110.704
110.381
109.945
109.408
108.771
108.036
107.209
106.294
105.292
104.209
103.047
101.81
100.501
99.125
97.6862
96.1893
94.6395
93.0421
91.4028
89.7274
88.0218
86.2919
84.5436
82.7827
81.0148
79.2452
77.4827
110.276
110.449
110.467
110.284
109.952
109.508
108.962
108.316
107.574
106.74
105.819
104.815
103.732
102.572
101.341
100.041
98.6787
97.2572
95.7817
94.2573
92.6892
91.0829
89.4439
87.7777
86.0899
84.386
82.6712
80.9508
79.2296
77.515
109.95
110.117
110.126
109.934
109.595
109.145
108.591
107.939
107.191
106.352
105.428
104.422
103.339
102.183
100.957
99.6663
98.3154
96.9087
95.4513
93.948
92.4041
90.8247
89.2152
87.5809
85.927
84.2585
82.5805
80.8977
79.2146
77.5375
109.709
109.867
109.865
109.667
109.323
108.867
108.309
107.651
106.899
106.057
105.131
104.124
103.042
101.888
100.668
99.3843
98.043
96.6484
95.2054
93.7189
92.1941
90.6359
89.0495
87.44
85.8123
84.1714
82.522
80.8684
79.2152
77.5679
109.564
109.696
109.677
109.473
109.127
108.669
108.107
107.447
106.693
105.849
104.922
103.916
102.835
101.684
100.467
99.1896
97.8553
96.4693
95.0364
93.5615
92.0497
90.5058
88.935
87.3421
85.7319
84.1092
82.4784
80.8439
79.2098
77.5807
109.571
109.635
109.589
109.381
109.034
108.572
108.007
107.345
106.589
105.745
104.818
103.812
102.733
101.584
100.371
99.0969
97.7677
96.3876
94.9615
93.4944
91.991
90.4564
88.8955
87.313
85.7138
84.1023
82.483
80.86
79.2374
77.6192
-73.0324
-38.305
-11.2907
39.9346
33.2247
22.1286
52.4466
39.9922
29.339
51.4508
41.9103
35.0079
55.7398
48.4362
42.6271
59.7483
53.6881
48.597
62.5723
57.4521
53.1201
64.8517
60.5019
56.8168
66.7829
63.0347
59.8576
68.3986
65.1226
62.3479
69.745
66.8491
64.3985
70.8696
68.2843
66.0975
71.8094
69.481
67.5116
72.5947
70.481
68.6928
73.2503
71.3177
69.682
73.797
72.0181
70.5117
74.2516
72.6043
71.208
74.6287
73.0942
71.7923
74.9403
73.503
72.2821
75.1968
73.8434
72.6921
75.407
74.1259
73.0346
75.5789
74.3601
73.3202
75.7184
74.5531
73.5571
75.8327
74.7129
73.7541
75.9239
74.8424
73.915
76.002
74.9521
74.0501
76.0598
75.0353
74.1542
76.1195
75.1144
74.2481
76.1501
75.1589
74.3042
76.2073
75.2293
74.3806
1.15497
-1.58306
-0.673322
0.22331
1.11241
1.53225
1.54074
1.60896
1.77473
1.95105
2.06807
2.15062
2.22392
2.27491
2.27437
2.19757
2.03316
1.77733
1.43005
1.00174
0.522099
0.0454633
-0.360086
-0.647296
-0.814321
-0.882285
-0.865525
-0.761837
-0.546676
-0.198342
5.70866
0.428124
0.933749
1.81326
2.26573
1.78913
1.18892
1.21901
1.62424
2.05635
2.22519
2.30001
2.39937
2.49292
2.52209
2.44584
2.25819
1.95977
1.54461
1.0194
0.418938
-0.182047
-0.67962
-0.999855
-1.15625
-1.20174
-1.15607
-1.00879
-0.722879
-0.261944
16.0845
7.66724
4.87727
3.45644
2.37667
1.69996
1.54273
1.79492
2.39289
2.61787
2.39159
2.3485
2.52169
2.73202
2.83285
2.76278
2.5477
2.20484
1.71353
1.07207
0.319242
-0.446446
-1.06998
-1.42753
-1.55971
-1.58027
-1.50654
-1.30975
-0.940271
-0.342331
25.8998
16.932
11.4739
7.87391
5.38466
3.85355
3.03205
2.6624
2.59714
2.50356
2.56596
2.78857
3.07924
3.28864
3.33269
3.18151
2.89314
2.50168
1.92921
1.14506
0.185426
-0.821824
-1.63961
-2.02565
-2.06126
-2.01505
-1.91112
-1.66521
-1.19991
-0.444509
34.7411
26.1449
19.3858
14.3227
10.6231
7.99119
6.15627
4.91891
4.13614
3.6622
3.46704
3.44287
3.51294
3.60535
3.64081
3.53575
3.27277
2.84308
2.16453
1.20196
0.017064
-1.21591
-2.18085
-2.54056
-2.48689
-2.4624
-2.4292
-2.16191
-1.5468
-0.582081
41.9261
34.3124
27.265
21.3885
16.7822
13.2321
10.5235
8.50228
7.04119
6.0112
5.30516
4.83508
4.53635
4.33702
4.14683
3.88031
3.49173
2.94711
2.17764
1.13841
-0.121355
-1.42225
-2.45787
-2.97633
-3.13492
-3.16711
-3.07603
-2.66581
-1.81812
-0.723762
47.6395
41.1173
34.3646
28.2596
23.1805
19.0384
15.6789
12.9906
10.8771
9.23582
7.97168
7.00619
6.26612
5.67066
5.13296
4.57517
3.94099
3.18455
2.25528
1.12915
-0.141118
-1.40114
-2.42319
-3.04171
-3.30924
-3.3472
-3.18147
-2.70632
-1.87103
-0.878753
52.2395
46.6423
40.4417
34.5108
29.3329
24.9079
21.1373
17.9546
15.3044
13.1207
11.332
9.86801
8.65734
7.62513
6.69538
5.79785
4.87443
3.87853
2.77424
1.55483
0.271369
-0.95623
-1.96851
-2.64758
-2.99405
-3.0762
-2.91993
-2.48312
-1.77123
-0.975065
55.9444
51.0879
45.5036
39.9514
34.9159
30.4462
26.4863
23.005
19.9812
17.38
15.1527
13.2443
11.5961
10.1463
8.83187
7.59255
6.37626
5.14247
3.86589
2.54748
1.2294
-0.0015487
-1.03551
-1.78738
-2.23931
-2.42228
-2.35792
-2.04753
-1.53221
-0.98314
58.9411
54.6769
49.6748
44.5684
39.8014
35.4429
31.462
27.8502
24.6089
21.7255
19.1722
16.9114
14.9001
13.0913
11.4355
9.88495
8.39716
6.9398
5.49485
4.06542
2.68318
1.40845
0.315633
-0.534661
-1.11995
-1.45156
-1.54997
-1.43923
-1.17227
-0.892764
61.3902
57.6033
53.1123
48.4456
43.995
39.8311
35.9365
32.3151
28.981
25.9362
23.1685
20.6557
18.3693
16.2763
14.3406
12.5266
10.8024
9.14367
7.53743
5.98671
4.51387
3.15956
1.97342
0.997687
0.252489
-0.265929
-0.576354
-0.709106
-0.714711
-0.709589
63.4106
60.0134
55.9592
51.6946
47.5621
43.6265
39.8772
36.3234
32.9846
29.8716
26.9828
24.3077
21.8294
19.5266
17.3753
15.3505
13.4297
11.5956
9.83909
8.16251
6.58094
5.12116
3.81572
2.6932
1.76887
1.04117
0.494083
0.0989857
-0.187145
-0.456443
65.089
62.0147
58.3313
54.4217
50.5866
46.885
43.3081
39.8655
36.5782
33.4617
30.5214
27.7546
25.1533
22.7053
20.396
18.2093
16.1302
14.1473
12.2545
10.4534
8.75402
7.17364
5.73324
4.45149
3.33875
2.39363
1.60286
0.94211
0.376582
-0.164594
66.4904
63.6866
60.3182
56.718
53.1533
49.6765
46.2788
42.9678
39.7644
36.6862
33.7423
30.9354
28.2634
25.7213
23.301
20.9935
18.7897
16.6826
14.6685
12.7489
10.93
9.22305
7.64122
6.19623
4.89437
3.73372
2.70326
1.78305
0.945414
0.137421
67.6647
65.0895
61.9899
58.6589
55.3361
52.068
48.8448
45.6722
42.5696
39.5546
36.6384
33.8268
31.1221
28.5237
26.0288
23.6332
21.3324
19.1226
17.0022
14.9724
13.0376
11.2046
9.48171
7.87581
6.39015
5.02211
3.76228
2.59431
1.4959
0.42855
68.6511
66.2702
63.401
60.3042
57.1961
54.1182
51.0597
48.0243
45.0291
42.0909
39.2218
36.4292
33.7181
31.0909
28.5485
26.0902
23.7145
21.4204
19.2077
17.0777
15.0334
13.0792
11.2201
9.45981
7.79932
6.23543
4.75975
3.35856
2.01325
0.696389
69.4808
67.2658
64.5949
61.7018
58.7835
55.8772
52.9711
50.067
47.1796
44.3246
41.5138
38.7554
36.0559
33.4197
30.8499
28.3481
25.9155
23.5525
21.2602
19.0402
16.8948
14.8269
12.8391
10.9333
9.109
7.36237
5.68574
4.06711
2.49031
0.936074
70.179
68.106
65.6062
62.8905
60.1395
57.3868
54.6199
51.8387
49.0558
46.2855
43.5387
40.8238
38.1478
35.5164
32.9339
30.4038
27.9284
25.5098
23.1497
20.85
18.6127
16.4397
14.3325
12.2915
10.3152
8.39959
6.53725
4.71736
2.92537
1.14787
70.7663
68.8152
66.463
63.9018
61.2979
58.682
56.0409
53.373
50.689
48.0016
45.3207
42.6544
40.0095
37.3923
34.8081
32.261
29.7545
27.2914
24.8741
22.5047
20.1851
17.9166
15.6999
13.5347
11.4189
9.3481
7.31524
5.31028
3.31979
1.33455
71.2599
69.4132
67.1887
64.7618
62.2868
59.792
57.2638
54.6989
52.1068
49.4987
46.883
44.2669
41.6575
39.0609
36.4826
33.9273
31.399
28.901
26.4361
24.0066
21.6141
19.2599
16.9442
14.6661
12.4232
10.2109
8.02253
5.8485
3.67625
1.49958
71.6739
69.9168
67.8023
65.4919
63.1296
60.7413
58.3132
55.8412
53.3335
50.7996
48.2463
45.6802
43.108
40.5357
37.9687
35.4118
32.8692
30.3443
27.8403
25.3595
22.9035
20.4733
18.069
15.6893
13.3317
10.9915
8.66222
6.33479
3.99736
1.64581
72.0206
70.3399
68.3201
66.1105
63.8459
61.5506
59.2109
56.822
54.3907
51.9246
49.4296
46.9117
44.3767
41.8305
39.2782
36.7244
34.1732
31.6283
29.0926
26.5685
24.0577
21.5611
19.0784
16.6083
14.1481
11.6934
9.23753
6.77205
4.28568
1.77561
72.3095
70.6938
68.755
66.6319
64.4517
62.2371
59.9749
57.6595
55.2959
52.8907
50.4491
47.9762
45.4773
42.9575
40.4217
37.8742
35.3188
32.7592
30.1982
27.6382
25.0807
22.5266
19.9754
17.4259
14.8751
12.3186
9.75023
7.16168
4.54226
1.88987
72.5501
70.9892
69.1193
67.0699
64.9618
62.8167
60.6214
58.3698
56.0655
53.7141
51.3204
48.8886
46.4234
43.9293
41.4105
38.8711
36.3147
33.7447
31.1639
28.5745
25.9778
23.3746
20.7645
18.1459
15.5161
12.8707
10.2034
7.50649
4.76953
1.99041
72.7477
71.2325
69.4202
67.4329
65.3856
63.2992
61.1608
58.9635
56.71
54.4053
52.0537
49.6586
47.2239
44.7536
42.2513
39.7208
37.1655
34.5884
31.9922
29.3789
26.7498
24.1055
21.4453
18.7679
16.0703
13.3481
10.5955
7.80453
4.96544
2.07576
72.9122
71.4342
69.6694
67.7334
65.7363
63.6985
61.607
59.4549
57.2442
54.9792
52.6635
50.3002
47.8923
45.4432
42.9562
40.4345
37.8814
35.2997
32.6918
30.0596
27.4043
24.7262
22.0247
19.2982
16.5437
13.757
10.9321
8.06139
5.1352
2.14978
73.0408
71.5922
69.8652
67.9701
66.013
64.0136
61.9595
59.8438
57.6677
55.4348
53.1486
50.8117
48.4265
45.9955
43.5213
41.0073
38.4567
35.872
33.2554
30.6086
27.9326
25.2276
22.4929
19.7267
16.9262
14.0869
11.203
8.26689
5.26937
2.2059
73.1508
71.724
70.0259
68.1621
66.2352
64.2645
62.239
60.1513
58.0016
55.7931
53.5294
51.2138
48.8476
46.4312
43.9668
41.4587
38.9102
36.3237
33.7009
31.0434
28.3518
25.6265
22.8664
20.0699
17.2339
14.3539
11.424
8.43662
5.3824
2.25445
73.2204
71.8068
70.1277
68.2856
66.3795
64.4284
62.422
60.353
58.2205
56.0273
53.7783
51.4787
49.1277
46.7213
44.2624
41.7578
39.2107
36.6231
33.9962
31.3314
28.6295
25.8904
23.1132
20.2959
17.4356
14.5275
11.5657
8.54242
5.44861
2.27716
73.2956
71.8814
70.2121
68.3834
66.4903
64.5505
62.5543
60.4947
58.371
56.1852
53.9432
51.6533
49.3117
46.9099
44.4525
41.9487
39.4018
36.8129
34.1832
31.5139
28.8057
26.0585
23.2714
20.4425
17.5684
14.6445
11.6643
8.6193
5.49819
2.28573
)
;

boundaryField
{
    inlet
    {
        type            zeroGradient;
    }
    outlet
    {
        type            fixedValue;
        value           uniform 0;
    }
    flap
    {
        type            zeroGradient;
    }
    upperWall
    {
        type            zeroGradient;
    }
    lowerWall
    {
        type            zeroGradient;
    }
    frontAndBack
    {
        type            empty;
    }
}


// ************************************************************************* //
