/*--------------------------------*- C++ -*----------------------------------*\
| =========                 |                                                 |
| \\      /  F ield         | OpenFOAM: The Open Source CFD Toolbox           |
|  \\    /   O peration     | Version:  4.1                                   |
|   \\  /    A nd           | Web:      www.OpenFOAM.org                      |
|    \\/     M anipulation  |                                                 |
\*---------------------------------------------------------------------------*/
FoamFile
{
    version     2.0;
    format      ascii;
    class       volVectorField;
    location    "0.4";
    object      cellDisplacement;
}
// * * * * * * * * * * * * * * * * * * * * * * * * * * * * * * * * * * * * * //

dimensions      [0 1 0 0 0 0 0];

internalField   nonuniform List<vector> 
2790
(
(0.0037213 0 -1.55238e-06)
(0.0106932 0 -4.44516e-06)
(0.016788 0 -6.9283e-06)
(0.0220784 0 -9.00269e-06)
(0.0266347 0 -1.06624e-05)
(0.030519 0 -1.18888e-05)
(0.033786 0 -1.2648e-05)
(0.0364835 0 -1.28882e-05)
(0.0386529 0 -1.25369e-05)
(0.0403297 0 -1.14973e-05)
(0.0415445 0 -9.64371e-06)
(0.042323 0 -6.81561e-06)
(0.042687 0 -2.81112e-06)
(0.0426547 0 2.62235e-06)
(0.0422407 0 9.80326e-06)
(0.0414572 0 1.91365e-05)
(0.040315 0 3.11365e-05)
(0.0388241 0 4.64432e-05)
(0.0369925 0 6.58143e-05)
(0.0348296 0 9.02889e-05)
(0.0323466 0 0.000121178)
(0.0295586 0 0.000160179)
(0.0264863 0 0.000209518)
(0.0231596 0 0.000272177)
(0.019623 0 0.000352215)
(0.0159475 0 0.000455185)
(0.0122392 0 0.000587507)
(0.00866662 0 0.000755575)
(0.00553237 0 0.00095965)
(0.00354289 0 0.00116626)
(0.00372374 0 -4.66668e-06)
(0.0107009 0 -1.33644e-05)
(0.0168014 0 -2.08349e-05)
(0.0220983 0 -2.70827e-05)
(0.026662 0 -3.20917e-05)
(0.0305549 0 -3.58082e-05)
(0.0338321 0 -3.8133e-05)
(0.0365417 0 -3.89139e-05)
(0.0387252 0 -3.79377e-05)
(0.0404187 0 -3.49193e-05)
(0.0416532 0 -2.94886e-05)
(0.0424549 0 -2.11737e-05)
(0.0428464 0 -9.38171e-06)
(0.0428464 0 6.62635e-06)
(0.042471 0 2.77789e-05)
(0.0417326 0 5.52547e-05)
(0.0406434 0 9.05539e-05)
(0.0392163 0 0.000135557)
(0.0374601 0 0.000192373)
(0.0353866 0 0.00026401)
(0.0330105 0 0.000354162)
(0.0303508 0 0.000467546)
(0.0274338 0 0.000610227)
(0.0242959 0 0.000790063)
(0.0209882 0 0.00101729)
(0.0176011 0 0.00130608)
(0.014267 0 0.00167012)
(0.0111871 0 0.00211869)
(0.00869567 0 0.00263651)
(0.0074306 0 0.00311144)
(0.00372953 0 -7.80566e-06)
(0.0107185 0 -2.2359e-05)
(0.0168315 0 -3.48729e-05)
(0.0221421 0 -4.53609e-05)
(0.026721 0 -5.38025e-05)
(0.0306315 0 -6.01148e-05)
(0.033929 0 -6.41409e-05)
(0.0366623 0 -6.56381e-05)
(0.0388737 0 -6.42649e-05)
(0.0406001 0 -5.95648e-05)
(0.0418733 0 -5.09449e-05)
(0.0427206 0 -3.76505e-05)
(0.0431658 0 -1.8735e-05)
(0.0432296 0 6.96996e-06)
(0.0429299 0 4.09214e-05)
(0.0422802 0 8.49609e-05)
(0.0412943 0 0.000141436)
(0.0399889 0 0.000213028)
(0.0383794 0 0.000303184)
(0.0364796 0 0.000416402)
(0.0343102 0 0.000558053)
(0.0318979 0 0.000734846)
(0.029279 0 0.000955081)
(0.0265041 0 0.00122888)
(0.0236352 0 0.00156921)
(0.0207715 0 0.00198969)
(0.018091 0 0.00250124)
(0.0158136 0 0.00309954)
(0.0142477 0 0.00373802)
(0.0138341 0 0.00425004)
(0.00373833 0 -1.09793e-05)
(0.0107452 0 -3.14603e-05)
(0.0168768 0 -4.9099e-05)
(0.0222075 0 -6.39271e-05)
(0.0268092 0 -7.59282e-05)
(0.0307456 0 -8.50007e-05)
(0.0340732 0 -9.09426e-05)
(0.0368417 0 -9.34366e-05)
(0.0390944 0 -9.20342e-05)
(0.0408693 0 -8.61347e-05)
(0.0421994 0 -7.49587e-05)
(0.0431138 0 -5.75152e-05)
(0.0436379 0 -3.25628e-05)
(0.0437949 0 1.40493e-06)
(0.0436035 0 4.62133e-05)
(0.043083 0 0.000104154)
(0.0422498 0 0.000178163)
(0.0411218 0 0.000271571)
(0.0397221 0 0.000388725)
(0.038071 0 0.00053476)
(0.0361958 0 0.000715826)
(0.0341318 0 0.000939231)
(0.0319261 0 0.00121345)
(0.0296427 0 0.00154788)
(0.0273681 0 0.00195205)
(0.0252033 0 0.00243336)
(0.0233235 0 0.00298983)
(0.0219583 0 0.00359496)
(0.0213337 0 0.00417644)
(0.0216455 0 0.00456919)
(0.00375007 0 -1.41947e-05)
(0.0107805 0 -4.06905e-05)
(0.0169367 0 -6.35548e-05)
(0.022294 0 -8.28488e-05)
(0.0269253 0 -9.85726e-05)
(0.0308957 0 -0.00011062)
(0.0342627 0 -0.00011876)
(0.037077 0 -0.000122624)
(0.0393835 0 -0.000121683)
(0.0412215 0 -0.00011523)
(0.0426257 0 -0.000102349)
(0.0436269 0 -8.18743e-05)
(0.0442528 0 -5.2339e-05)
(0.0445275 0 -1.2047e-05)
(0.0444756 0 4.10012e-05)
(0.0441202 0 0.000109454)
(0.0434817 0 0.000196499)
(0.0425828 0 0.000305858)
(0.04145 0 0.000441997)
(0.0401118 0 0.00061008)
(0.0386029 0 0.000815977)
(0.0369665 0 0.00106615)
(0.035259 0 0.00136719)
(0.0335529 0 0.00172489)
(0.0319414 0 0.00214243)
(0.0305399 0 0.00261693)
(0.0295016 0 0.00313084)
(0.0289908 0 0.00364074)
(0.0291361 0 0.0040659)
(0.0299235 0 0.00428524)
(0.00376462 0 -1.74559e-05)
(0.0108243 0 -5.00628e-05)
(0.0170105 0 -7.8266e-05)
(0.0224002 0 -0.000102171)
(0.0270677 0 -0.000121808)
(0.0310794 0 -0.000137084)
(0.0344942 0 -0.00014776)
(0.0373643 0 -0.000153441)
(0.0397359 0 -0.000153553)
(0.0416501 0 -0.000147326)
(0.0431436 0 -0.000133764)
(0.0442494 0 -0.000111614)
(0.0449971 0 -7.93151e-05)
(0.0454132 0 -3.49672e-05)
(0.0455272 0 2.3434e-05)
(0.0453689 0 9.84366e-05)
(0.0449604 0 0.000193358)
(0.0443297 0 0.000311854)
(0.0435087 0 0.000458038)
(0.0425328 0 0.000636406)
(0.041443 0 0.000851649)
(0.0402884 0 0.00110829)
(0.0391304 0 0.00140973)
(0.0380452 0 0.00175679)
(0.0371225 0 0.00214535)
(0.0364643 0 0.002564)
(0.0361924 0 0.00298414)
(0.0363829 0 0.00335647)
(0.0370586 0 0.00361368)
(0.0380757 0 0.00368976)
(0.00378178 0 -2.07642e-05)
(0.0108757 0 -5.95824e-05)
(0.017097 0 -9.32447e-05)
(0.0225245 0 -0.000121917)
(0.0272341 0 -0.000145678)
(0.0312938 0 -0.000164465)
(0.0347639 0 -0.000178055)
(0.0376983 0 -0.000186054)
(0.0401449 0 -0.000187882)
(0.0421468 0 -0.000182754)
(0.0437428 0 -0.000169658)
(0.0449681 0 -0.000147332)
(0.0458555 0 -0.000114229)
(0.0464351 0 -6.85002e-05)
(0.0467368 0 -7.98508e-06)
(0.0467957 0 6.95486e-05)
(0.0466444 0 0.00016686)
(0.0463105 0 0.000287427)
(0.0458322 0 0.000434588)
(0.0452507 0 0.000611643)
(0.0446124 0 0.000821479)
(0.0439671 0 0.00106617)
(0.043377 0 0.00134563)
(0.042916 0 0.00165578)
(0.0426575 0 0.00198719)
(0.0426954 0 0.00232158)
(0.0430615 0 0.00262956)
(0.0437813 0 0.00286863)
(0.0447887 0 0.00299595)
(0.0458812 0 0.00299004)
(0.00380129 0 -2.41184e-05)
(0.010934 0 -6.92465e-05)
(0.0171948 0 -0.000108489)
(0.0226648 0 -0.00014209)
(0.0274217 0 -0.000170194)
(0.0315351 0 -0.000192791)
(0.035067 0 -0.000209696)
(0.0380731 0 -0.000220548)
(0.040603 0 -0.000224797)
(0.0427019 0 -0.000221692)
(0.0444109 0 -0.000210268)
(0.0457678 0 -0.000189332)
(0.0468082 0 -0.000157448)
(0.0475661 0 -0.00011293)
(0.0480749 0 -5.38501e-05)
(0.0483685 0 2.19724e-05)
(0.0484869 0 0.000116563)
(0.0484664 0 0.000232427)
(0.0483472 0 0.000372117)
(0.0481744 0 0.000537463)
(0.048 0 0.000729145)
(0.047867 0 0.000946936)
(0.0478329 0 0.00118781)
(0.0479716 0 0.00144344)
(0.0483359 0 0.00170156)
(0.048968 0 0.00194245)
(0.0498544 0 0.00214033)
(0.0509638 0 0.00226674)
(0.0521773 0 0.00230341)
(0.0532762 0 0.00225703)
(0.00382281 0 -2.75142e-05)
(0.0109982 0 -7.90429e-05)
(0.0173025 0 -0.000123981)
(0.0228189 0 -0.000162669)
(0.0276273 0 -0.000195337)
(0.031799 0 -0.000222044)
(0.035398 0 -0.000242672)
(0.0384816 0 -0.000256918)
(0.0411013 0 -0.000264302)
(0.0433044 0 -0.000264151)
(0.0451341 0 -0.000255604)
(0.0466311 0 -0.00023761)
(0.0478336 0 -0.000208925)
(0.048779 0 -0.00016813)
(0.0495042 0 -0.00011366)
(0.0500467 0 -4.38478e-05)
(0.050445 0 4.29609e-05)
(0.0507456 0 0.000148123)
(0.0509898 0 0.000273007)
(0.0512235 0 0.000418148)
(0.0514957 0 0.000582266)
(0.0518573 0 0.000762296)
(0.0523596 0 0.000953421)
(0.0530491 0 0.00114607)
(0.0539605 0 0.00132569)
(0.0550805 0 0.00147543)
(0.0563759 0 0.00157507)
(0.0577651 0 0.00160896)
(0.0590995 0 0.00157662)
(0.0601625 0 0.00150204)
(0.00384599 0 -3.09441e-05)
(0.0110673 0 -8.89499e-05)
(0.0174179 0 -0.000139686)
(0.0229839 0 -0.000183608)
(0.0278471 0 -0.000221049)
(0.032081 0 -0.000252158)
(0.0357509 0 -0.000276902)
(0.0389162 0 -0.000295069)
(0.0416302 0 -0.000306277)
(0.0439422 0 -0.000309975)
(0.0458976 0 -0.000305454)
(0.0475394 0 -0.00029186)
(0.0489085 0 -0.000268211)
(0.0500452 0 -0.000233431)
(0.0509894 0 -0.000186404)
(0.0517819 0 -0.000126051)
(0.0524646 0 -5.14642e-05)
(0.0530832 0 3.78997e-05)
(0.0536819 0 0.000142133)
(0.0543064 0 0.00026036)
(0.0550003 0 0.000390262)
(0.0558206 0 0.00052687)
(0.0568083 0 0.000663493)
(0.0579783 0 0.000791103)
(0.05934 0 0.000896534)
(0.0608611 0 0.000965362)
(0.062471 0 0.000983818)
(0.0640514 0 0.000945071)
(0.0654362 0 0.000858276)
(0.0664237 0 0.000758469)
(0.00387039 0 -3.43977e-05)
(0.0111399 0 -9.89372e-05)
(0.0175392 0 -0.000155555)
(0.023157 0 -0.00020484)
(0.0280775 0 -0.000247242)
(0.0323758 0 -0.00028302)
(0.0361193 0 -0.000312246)
(0.0393689 0 -0.000334822)
(0.0421798 0 -0.000350492)
(0.044603 0 -0.000358858)
(0.046686 0 -0.000359402)
(0.0484737 0 -0.000351509)
(0.0500096 0 -0.000334504)
(0.0513361 0 -0.000307702)
(0.0524954 0 -0.000270477)
(0.0535305 0 -0.000222364)
(0.0544854 0 -0.000163196)
(0.0554054 0 -9.32857e-05)
(0.0563356 0 -1.36124e-05)
(0.057321 0 7.38112e-05)
(0.058405 0 0.00016556)
(0.0596302 0 0.000256365)
(0.0610257 0 0.000339369)
(0.0625989 0 0.000406038)
(0.0643345 0 0.000446184)
(0.066178 0 0.000449726)
(0.0680294 0 0.000408952)
(0.0697408 0 0.000322743)
(0.0711303 0 0.000203451)
(0.0720186 0 8.94627e-05)
(0.00389556 0 -3.78622e-05)
(0.0112147 0 -0.000108967)
(0.0176641 0 -0.000171526)
(0.0233351 0 -0.000226277)
(0.0283141 0 -0.000273801)
(0.0326783 0 -0.000314482)
(0.0364966 0 -0.000348513)
(0.0398315 0 -0.000375929)
(0.0427398 0 -0.00039662)
(0.0452742 0 -0.000410367)
(0.0474839 0 -0.000416866)
(0.0494155 0 -0.000415768)
(0.0511141 0 -0.000406726)
(0.0526239 0 -0.00038946)
(0.0539886 0 -0.000363841)
(0.0552525 0 -0.000329993)
(0.05646 0 -0.000288436)
(0.0576559 0 -0.000240246)
(0.0588845 0 -0.000187237)
(0.0601882 0 -0.0001322)
(0.0616064 0 -7.9093e-05)
(0.0631723 0 -3.3113e-05)
(0.064905 0 -3.99713e-07)
(0.0668025 0 1.23928e-05)
(0.0688352 0 -1.0874e-06)
(0.0709337 0 -4.5327e-05)
(0.0729806 0 -0.000121288)
(0.074807 0 -0.000224795)
(0.0762104 0 -0.000343976)
(0.0770185 0 -0.000448597)
(0.00392102 0 -4.13228e-05)
(0.0112904 0 -0.000118996)
(0.0177903 0 -0.000187528)
(0.023515 0 -0.000247816)
(0.028553 0 -0.000300589)
(0.0329832 0 -0.000346363)
(0.0368762 0 -0.000385469)
(0.0402959 0 -0.000418084)
(0.0433005 0 -0.000444262)
(0.045944 0 -0.000463973)
(0.0482768 0 -0.00047714)
(0.050347 0 -0.000483688)
(0.0522007 0 -0.000483599)
(0.0538832 0 -0.000476988)
(0.0554389 0 -0.000464186)
(0.0569121 0 -0.000445849)
(0.0583469 0 -0.00042308)
(0.0597864 0 -0.000397563)
(0.0612726 0 -0.000371698)
(0.0628443 0 -0.000348712)
(0.0645354 0 -0.000332682)
(0.0663714 0 -0.000328361)
(0.0683638 0 -0.000340671)
(0.0705038 0 -0.000373856)
(0.0727558 0 -0.000430127)
(0.0750483 0 -0.000507832)
(0.0772643 0 -0.000599916)
(0.079233 0 -0.000694358)
(0.0807343 0 -0.000778652)
(0.081557 0 -0.000843145)
(0.0039463 0 -4.4763e-05)
(0.0113656 0 -0.000128975)
(0.0179157 0 -0.000203479)
(0.0236935 0 -0.000269343)
(0.0287899 0 -0.00032745)
(0.0332854 0 -0.00037846)
(0.0372518 0 -0.000422847)
(0.0407544 0 -0.000460939)
(0.0438523 0 -0.00049296)
(0.0466008 0 -0.000519074)
(0.049051 0 -0.00053943)
(0.051252 0 -0.000554218)
(0.0532503 0 -0.000563732)
(0.0550915 0 -0.000568444)
(0.05682 0 -0.000569088)
(0.0584791 0 -0.00056676)
(0.0601113 0 -0.000563015)
(0.0617576 0 -0.000559965)
(0.0634561 0 -0.000560352)
(0.0652411 0 -0.000567559)
(0.0671405 0 -0.000585502)
(0.069173 0 -0.000618298)
(0.0713437 0 -0.000669615)
(0.07364 0 -0.000741603)
(0.0760266 0 -0.00083324)
(0.0784409 0 -0.000938037)
(0.0807867 0 -0.00104146)
(0.0829245 0 -0.00112015)
(0.0846503 0 -0.00115077)
(0.0856749 0 -0.0011443)
(0.0039709 0 -4.81646e-05)
(0.0114388 0 -0.000138852)
(0.0180378 0 -0.00021929)
(0.0238677 0 -0.000290731)
(0.0290211 0 -0.000354214)
(0.0335799 0 -0.000410549)
(0.0376174 0 -0.000460354)
(0.0411995 0 -0.000504114)
(0.0443866 0 -0.000542219)
(0.0472342 0 -0.000575023)
(0.0497944 0 -0.00060289)
(0.0521161 0 -0.000626255)
(0.0542462 0 -0.000645687)
(0.0562296 0 -0.000661962)
(0.0581099 0 -0.000676141)
(0.0599288 0 -0.000689647)
(0.0617263 0 -0.000704346)
(0.06354 0 -0.000722596)
(0.0654036 0 -0.000747261)
(0.067346 0 -0.00078166)
(0.0693889 0 -0.000829375)
(0.0715441 0 -0.000893873)
(0.073811 0 -0.000977866)
(0.0761736 0 -0.00108235)
(0.0785982 0 -0.00120519)
(0.0810328 0 -0.00133917)
(0.0834076 0 -0.0014688)
(0.0856352 0 -0.00156461)
(0.0875949 0 -0.00157702)
(0.0890343 0 -0.00148166)
(0.00402492 0 -0.00134061)
(0.00690239 0 -0.00127109)
(0.0112136 0 -0.00113677)
(0.0161118 0 -0.000997453)
(0.0210927 0 -0.000871855)
(0.0258732 0 -0.000763155)
(0.0303007 0 -0.00067161)
(0.0342969 0 -0.000592104)
(0.0378372 0 -0.000523625)
(0.0409142 0 -0.000464614)
(0.0435305 0 -0.00041351)
(0.0456951 0 -0.000368243)
(0.0474184 0 -0.000329374)
(0.0487054 0 -0.000295253)
(0.0495622 0 -0.000265005)
(0.0499923 0 -0.000237945)
(0.0499955 0 -0.000213396)
(0.0495694 0 -0.000191453)
(0.0487064 0 -0.000171649)
(0.0473946 0 -0.000153578)
(0.045618 0 -0.000136915)
(0.0433564 0 -0.000121384)
(0.0405852 0 -0.000106738)
(0.0372753 0 -9.27429e-05)
(0.0333932 0 -7.91652e-05)
(0.0289008 0 -6.57643e-05)
(0.0237556 0 -5.22804e-05)
(0.0179112 0 -3.8424e-05)
(0.0113173 0 -2.38613e-05)
(0.00391595 0 -8.1846e-06)
(0.00757088 0 -0.00379464)
(0.0101162 0 -0.00360536)
(0.0139422 0 -0.00325312)
(0.0183725 0 -0.00287869)
(0.0229542 0 -0.00253478)
(0.0274009 0 -0.00223056)
(0.0315475 0 -0.00196619)
(0.0353139 0 -0.00173802)
(0.0386709 0 -0.00154078)
(0.0415995 0 -0.00137008)
(0.0440939 0 -0.00122196)
(0.0461609 0 -0.00109259)
(0.0478039 0 -0.000978789)
(0.0490233 0 -0.000878309)
(0.0498241 0 -0.000789001)
(0.0502079 0 -0.000708989)
(0.0501724 0 -0.000635992)
(0.0497146 0 -0.000570933)
(0.0488253 0 -0.000512141)
(0.0474918 0 -0.000458419)
(0.0456971 0 -0.000408825)
(0.0434205 0 -0.000362559)
(0.0406369 0 -0.000318895)
(0.0373166 0 -0.000277143)
(0.0334259 0 -0.000236613)
(0.0289262 0 -0.000196591)
(0.0237749 0 -0.000156305)
(0.0179249 0 -0.000114891)
(0.0113259 0 -7.13538e-05)
(0.00391899 0 -2.44771e-05)
(0.0135928 0 -0.00569088)
(0.0157289 0 -0.00544402)
(0.0188361 0 -0.0049832)
(0.022511 0 -0.00447094)
(0.0264032 0 -0.00398068)
(0.0302483 0 -0.00353503)
(0.0338919 0 -0.00313681)
(0.0372502 0 -0.00278819)
(0.0402704 0 -0.00248348)
(0.0429219 0 -0.00221709)
(0.0451892 0 -0.00198394)
(0.0470683 0 -0.00177996)
(0.0485531 0 -0.00159863)
(0.0496426 0 -0.0014374)
(0.050336 0 -0.00129347)
(0.0506313 0 -0.00116433)
(0.0505224 0 -0.00104668)
(0.0500035 0 -0.000940832)
(0.0490634 0 -0.000844804)
(0.0476875 0 -0.000756805)
(0.0458577 0 -0.000675389)
(0.0435517 0 -0.0005993)
(0.0407436 0 -0.000527385)
(0.0374029 0 -0.000458529)
(0.0334948 0 -0.000391614)
(0.0289804 0 -0.000325474)
(0.0238161 0 -0.000258842)
(0.0179544 0 -0.0001903)
(0.0113441 0 -0.000118207)
(0.00392529 0 -4.0555e-05)
(0.0211509 0 -0.00698096)
(0.0228142 0 -0.00672976)
(0.0251437 0 -0.0062577)
(0.0279582 0 -0.00570479)
(0.0310181 0 -0.00514685)
(0.0341248 0 -0.00462227)
(0.0371364 0 -0.00414236)
(0.0399586 0 -0.00371121)
(0.0425271 0 -0.00332711)
(0.0448001 0 -0.00298614)
(0.0467512 0 -0.00268378)
(0.0483646 0 -0.00241548)
(0.0496284 0 -0.00217608)
(0.0505341 0 -0.0019619)
(0.051075 0 -0.00176964)
(0.051244 0 -0.00159658)
(0.0510309 0 -0.00143938)
(0.0504241 0 -0.00129623)
(0.0494106 0 -0.00116558)
(0.0479734 0 -0.00104537)
(0.0460924 0 -0.000933812)
(0.0437437 0 -0.000829289)
(0.0408998 0 -0.000730287)
(0.0375291 0 -0.00063532)
(0.0335957 0 -0.000542883)
(0.0290596 0 -0.000451388)
(0.0238764 0 -0.000359106)
(0.0179975 0 -0.00026409)
(0.0113706 0 -0.00016408)
(0.00393442 0 -5.63013e-05)
(0.0293104 0 -0.00774257)
(0.0305455 0 -0.00753438)
(0.0321749 0 -0.00711593)
(0.0341693 0 -0.00659187)
(0.0363907 0 -0.00603228)
(0.0387269 0 -0.00548501)
(0.0410456 0 -0.00496823)
(0.0432611 0 -0.00449121)
(0.0453059 0 -0.00405671)
(0.0471312 0 -0.00366392)
(0.0487022 0 -0.00331022)
(0.0499937 0 -0.00299213)
(0.0509862 0 -0.00270564)
(0.0516646 0 -0.00244724)
(0.0520148 0 -0.00221357)
(0.0520254 0 -0.00200223)
(0.0516806 0 -0.00180986)
(0.0509627 0 -0.00163333)
(0.0498561 0 -0.00147123)
(0.0483408 0 -0.00132138)
(0.0463944 0 -0.00118179)
(0.043991 0 -0.00105059)
(0.0411012 0 -0.000925983)
(0.0376919 0 -0.000806175)
(0.0337258 0 -0.00068932)
(0.0291617 0 -0.000573453)
(0.023954 0 -0.000456418)
(0.0180528 0 -0.000335772)
(0.0114045 0 -0.000208671)
(0.00394608 0 -7.16137e-05)
(0.0374404 0 -0.0081533)
(0.038356 0 -0.00799566)
(0.0394221 0 -0.00764977)
(0.0407092 0 -0.0071875)
(0.0421738 0 -0.00666722)
(0.0437629 0 -0.00613565)
(0.0453851 0 -0.00561774)
(0.0469733 0 -0.00512597)
(0.0484622 0 -0.00466729)
(0.0498022 0 -0.00424429)
(0.0509541 0 -0.00385696)
(0.0518863 0 -0.00350363)
(0.0525722 0 -0.00318159)
(0.0529914 0 -0.00288841)
(0.0531218 0 -0.00262068)
(0.0529488 0 -0.00237718)
(0.0524512 0 -0.00215488)
(0.0516032 0 -0.00194926)
(0.0503868 0 -0.00175923)
(0.0487793 0 -0.00158266)
(0.0467554 0 -0.00141746)
(0.0442869 0 -0.00126162)
(0.0413423 0 -0.00111314)
(0.0378869 0 -0.000969979)
(0.0338817 0 -0.000830005)
(0.029284 0 -0.000690926)
(0.0240468 0 -0.000550199)
(0.0181189 0 -0.000404927)
(0.011445 0 -0.000251725)
(0.00395995 0 -8.64043e-05)
(0.0452798 0 -0.00837101)
(0.0459454 0 -0.00823751)
(0.0465638 0 -0.00795064)
(0.0472654 0 -0.00755514)
(0.0480782 0 -0.00709323)
(0.0489775 0 -0.00660109)
(0.0499406 0 -0.00610582)
(0.0509206 0 -0.00562295)
(0.051854 0 -0.00516149)
(0.0526986 0 -0.004727)
(0.0534155 0 -0.00432211)
(0.0539695 0 -0.00394722)
(0.0543278 0 -0.00360076)
(0.0544689 0 -0.00328247)
(0.0543645 0 -0.00298957)
(0.0539892 0 -0.00271998)
(0.05332 0 -0.0024722)
(0.0523274 0 -0.00224192)
(0.0509884 0 -0.00202767)
(0.0492773 0 -0.00182749)
(0.0471661 0 -0.00163932)
(0.0446239 0 -0.00146109)
(0.0416173 0 -0.00129065)
(0.0381093 0 -0.00112579)
(0.0340594 0 -0.000964152)
(0.0294233 0 -0.000803166)
(0.0241525 0 -0.000639948)
(0.0181941 0 -0.000471192)
(0.0114909 0 -0.000293014)
(0.00397564 0 -0.000100596)
(0.052741 0 -0.00845082)
(0.0531622 0 -0.00832366)
(0.0534045 0 -0.00808217)
(0.0536211 0 -0.00774999)
(0.0538774 0 -0.00735181)
(0.0541843 0 -0.00691241)
(0.0545512 0 -0.00645451)
(0.0549517 0 -0.00599556)
(0.0553508 0 -0.00554728)
(0.0557115 0 -0.00511625)
(0.0559969 0 -0.0047074)
(0.0561715 0 -0.00432329)
(0.0562017 0 -0.00396383)
(0.0560559 0 -0.00362885)
(0.0557057 0 -0.00331826)
(0.055117 0 -0.00302924)
(0.0542636 0 -0.00276061)
(0.0531156 0 -0.00250984)
(0.0516449 0 -0.00227512)
(0.0498222 0 -0.00205457)
(0.0476162 0 -0.00184621)
(0.0449939 0 -0.00164794)
(0.0419194 0 -0.00145759)
(0.0383538 0 -0.00127282)
(0.0342549 0 -0.0010911)
(0.0295765 0 -0.000909624)
(0.0242685 0 -0.000725232)
(0.0182764 0 -0.000534249)
(0.011541 0 -0.000332343)
(0.00399278 0 -0.000114119)
(0.0597096 0 -0.00838853)
(0.0598921 0 -0.00827922)
(0.0598172 0 -0.00808571)
(0.0596339 0 -0.00781558)
(0.0594235 0 -0.00748079)
(0.0592285 0 -0.00709845)
(0.0590712 0 -0.00668692)
(0.0589465 0 -0.00626205)
(0.0588508 0 -0.00583711)
(0.0587547 0 -0.00542057)
(0.0586259 0 -0.00501845)
(0.0584308 0 -0.00463462)
(0.0581373 0 -0.00427118)
(0.0577045 0 -0.00392799)
(0.0571022 0 -0.00360557)
(0.0562966 0 -0.00330291)
(0.0552559 0 -0.00301897)
(0.0539477 0 -0.00275208)
(0.0523402 0 -0.00250067)
(0.0504007 0 -0.00226301)
(0.0480953 0 -0.00203726)
(0.0453884 0 -0.00182141)
(0.0422418 0 -0.00161327)
(0.0386149 0 -0.00141044)
(0.0344635 0 -0.0012103)
(0.0297399 0 -0.00100985)
(0.0243922 0 -0.000805691)
(0.018364 0 -0.000593831)
(0.0115943 0 -0.000369544)
(0.00401093 0 -0.000126919)
(0.0660522 0 -0.00820897)
(0.0660468 0 -0.00813808)
(0.0657229 0 -0.0079999)
(0.0652129 0 -0.00778954)
(0.0646095 0 -0.00751354)
(0.0639794 0 -0.00718569)
(0.0633658 0 -0.00682185)
(0.0627883 0 -0.00643667)
(0.0622505 0 -0.00604245)
(0.0617377 0 -0.00564837)
(0.0612247 0 -0.00526119)
(0.060681 0 -0.00488564)
(0.060073 0 -0.00452473)
(0.0593634 0 -0.00417991)
(0.0585169 0 -0.00385212)
(0.0574981 0 -0.00354132)
(0.056272 0 -0.00324704)
(0.0548035 0 -0.00296829)
(0.0530579 0 -0.00270386)
(0.0509996 0 -0.0024523)
(0.0485925 0 -0.00221196)
(0.0457985 0 -0.00198096)
(0.0425775 0 -0.00175717)
(0.0388869 0 -0.00153821)
(0.0346809 0 -0.00132136)
(0.02991 0 -0.0011035)
(0.0245208 0 -0.000881041)
(0.018455 0 -0.000649725)
(0.0116495 0 -0.000404483)
(0.0040297 0 -0.000138946)
(0.0717181 0 -0.0079853)
(0.0715982 0 -0.00795664)
(0.0710857 0 -0.00786734)
(0.0703016 0 -0.00770526)
(0.0693597 0 -0.00747744)
(0.0683526 0 -0.00719717)
(0.067345 0 -0.00687841)
(0.0663731 0 -0.00653374)
(0.0654502 0 -0.00617386)
(0.0645705 0 -0.00580738)
(0.0637146 0 -0.00544104)
(0.0628552 0 -0.00507998)
(0.0619597 0 -0.00472789)
(0.060992 0 -0.00438719)
(0.0599156 0 -0.00405945)
(0.0586934 0 -0.00374544)
(0.0572885 0 -0.0034453)
(0.0556637 0 -0.00315862)
(0.0537821 0 -0.00288464)
(0.0516061 0 -0.00262224)
(0.0490972 0 -0.00237002)
(0.0462156 0 -0.00212628)
(0.0429193 0 -0.00188899)
(0.0391639 0 -0.0016558)
(0.0349022 0 -0.00142397)
(0.0300831 0 -0.00119031)
(0.0246513 0 -0.00095106)
(0.0185471 0 -0.000701762)
(0.0117053 0 -0.00043705)
(0.00404864 0 -0.000150163)
(0.0767793 0 -0.00779861)
(0.0765831 0 -0.0077913)
(0.075896 0 -0.00772332)
(0.0748545 0 -0.00758655)
(0.0736078 0 -0.00739137)
(0.0722742 0 -0.00714967)
(0.070933 0 -0.00687178)
(0.0696296 0 -0.00656677)
(0.0683828 0 -0.00624275)
(0.0671915 0 -0.00590689)
(0.0660406 0 -0.00556537)
(0.0649053 0 -0.00522332)
(0.0637548 0 -0.0048848)
(0.0625544 0 -0.00455287)
(0.0612674 0 -0.0042297)
(0.0598565 0 -0.00391671)
(0.0582835 0 -0.00361462)
(0.0565101 0 -0.00332358)
(0.0544979 0 -0.00304326)
(0.0522076 0 -0.00277291)
(0.0495992 0 -0.0025114)
(0.0466312 0 -0.00225724)
(0.0432602 0 -0.00200852)
(0.0394404 0 -0.001763)
(0.035123 0 -0.00151792)
(0.0302555 0 -0.00127007)
(0.0247812 0 -0.00101558)
(0.0186385 0 -0.000749808)
(0.0117605 0 -0.00046716)
(0.00406735 0 -0.000160541)
(0.0813717 0 -0.00769106)
(0.0810478 0 -0.00766446)
(0.0801245 0 -0.00757664)
(0.0788067 0 -0.00743929)
(0.0772797 0 -0.00726323)
(0.075672 0 -0.00705346)
(0.0740633 0 -0.0068134)
(0.0724974 0 -0.00654707)
(0.0709932 0 -0.0062594)
(0.0695508 0 -0.00595576)
(0.0681575 0 -0.00564149)
(0.0667908 0 -0.00532149)
(0.0654223 0 -0.00499997)
(0.064019 0 -0.00468038)
(0.0625452 0 -0.0043654)
(0.060964 0 -0.00405694)
(0.0592371 0 -0.00375627)
(0.0573259 0 -0.003464)
(0.0551909 0 -0.00318024)
(0.0527921 0 -0.0029046)
(0.0500884 0 -0.00263622)
(0.047037 0 -0.00237383)
(0.0435934 0 -0.00211571)
(0.0397106 0 -0.00185969)
(0.0353385 0 -0.0016031)
(0.0304235 0 -0.00134267)
(0.0249074 0 -0.00107448)
(0.0187271 0 -0.000793765)
(0.0118138 0 -0.000494747)
(0.00408538 0 -0.000170055)
(0.085531 0 -0.00763413)
(0.0849123 0 -0.00753544)
(0.0836469 0 -0.00739551)
(0.0820436 0 -0.00724871)
(0.0802847 0 -0.00709151)
(0.0784763 0 -0.00691451)
(0.0766801 0 -0.00671246)
(0.0749298 0 -0.00648462)
(0.0732399 0 -0.00623326)
(0.0716106 0 -0.00596236)
(0.0700305 0 -0.0056765)
(0.0684801 0 -0.0053803)
(0.0669334 0 -0.00507802)
(0.0653599 0 -0.00477334)
(0.0637259 0 -0.00446929)
(0.0619957 0 -0.0041682)
(0.0601318 0 -0.00387173)
(0.0580958 0 -0.00358095)
(0.0558483 0 -0.00329631)
(0.0533488 0 -0.00301777)
(0.0505555 0 -0.00274475)
(0.0474252 0 -0.00247621)
(0.0439124 0 -0.00221061)
(0.0399691 0 -0.00194588)
(0.0355444 0 -0.00167942)
(0.0305835 0 -0.00140801)
(0.0250271 0 -0.00112767)
(0.0188108 0 -0.000833564)
(0.0118639 0 -0.000519762)
(0.00410229 0 -0.000178688)
(0.0888496 0 -0.00748973)
(0.0877799 0 -0.00727546)
(0.0861905 0 -0.00711245)
(0.0844043 0 -0.00699201)
(0.0825309 0 -0.00687493)
(0.080632 0 -0.00673983)
(0.0787462 0 -0.00657848)
(0.0768974 0 -0.0063891)
(0.0750972 0 -0.00617332)
(0.0733464 0 -0.0059346)
(0.0716362 0 -0.00567715)
(0.0699503 0 -0.00540539)
(0.0682664 0 -0.00512355)
(0.0665569 0 -0.00483543)
(0.064791 0 -0.00454428)
(0.0629348 0 -0.0042527)
(0.0609525 0 -0.0039627)
(0.0588066 0 -0.00367565)
(0.0564584 0 -0.00339235)
(0.0538674 0 -0.00311305)
(0.050992 0 -0.00283742)
(0.0477884 0 -0.00256464)
(0.0442109 0 -0.00229335)
(0.0402107 0 -0.00202162)
(0.0357364 0 -0.00174693)
(0.0307321 0 -0.00146609)
(0.0251377 0 -0.00117513)
(0.0188876 0 -0.000869167)
(0.0119096 0 -0.000542177)
(0.00411761 0 -0.000186429)
(0.00399477 0 -5.15688e-05)
(0.0115099 0 -0.000148743)
(0.0181567 0 -0.00023515)
(0.0240374 0 -0.000312225)
(0.0292464 0 -0.000381176)
(0.033867 0 -0.000442961)
(0.0379734 0 -0.000498349)
(0.0416322 0 -0.000547976)
(0.0449043 0 -0.000592399)
(0.0478457 0 -0.00063215)
(0.0505084 0 -0.000667791)
(0.0529412 0 -0.000699974)
(0.0551905 0 -0.000729502)
(0.0573002 0 -0.000757394)
(0.059312 0 -0.000784952)
(0.0612655 0 -0.000813819)
(0.0631975 0 -0.000846028)
(0.0651414 0 -0.000884018)
(0.0671258 0 -0.000930594)
(0.0691735 0 -0.000988836)
(0.0712997 0 -0.00106189)
(0.0735096 0 -0.00115263)
(0.0757964 0 -0.00126316)
(0.0781394 0 -0.00139429)
(0.0805032 0 -0.00154499)
(0.0828382 0 -0.00171274)
(0.0850808 0 -0.00189585)
(0.0871555 0 -0.00210199)
(0.0889861 0 -0.00237258)
(0.0904814 0 -0.00282)
(0.00401745 0 -5.49876e-05)
(0.0115777 0 -0.000158686)
(0.0182705 0 -0.000251115)
(0.0242005 0 -0.000333902)
(0.0294634 0 -0.000408423)
(0.0341438 0 -0.00047579)
(0.0383163 0 -0.00053692)
(0.0420484 0 -0.000592598)
(0.0454009 0 -0.000643538)
(0.04843 0 -0.000690436)
(0.0511872 0 -0.000734029)
(0.0537209 0 -0.000775153)
(0.0560761 0 -0.000814795)
(0.0582952 0 -0.000854151)
(0.0604179 0 -0.000894676)
(0.0624805 0 -0.000938125)
(0.0645164 0 -0.000986572)
(0.0665542 0 -0.0010424)
(0.0686171 0 -0.0011082)
(0.0707219 0 -0.00118671)
(0.0728773 0 -0.0012806)
(0.0750819 0 -0.00139222)
(0.0773233 0 -0.00152332)
(0.0795765 0 -0.00167498)
(0.0818023 0 -0.00184752)
(0.0839506 0 -0.00204208)
(0.0859615 0 -0.00226391)
(0.0877631 0 -0.0025264)
(0.0892683 0 -0.00285764)
(0.0904204 0 -0.00331656)
(0.00403812 0 -5.8373e-05)
(0.0116399 0 -0.000168542)
(0.0183757 0 -0.000266964)
(0.024352 0 -0.00035546)
(0.029666 0 -0.000435573)
(0.0344027 0 -0.000508564)
(0.0386375 0 -0.000575495)
(0.0424378 0 -0.000637292)
(0.0458646 0 -0.00069481)
(0.0489735 0 -0.000748891)
(0.0518156 0 -0.00080042)
(0.054438 0 -0.000850374)
(0.0568844 0 -0.000899874)
(0.059195 0 -0.000950227)
(0.0614069 0 -0.00100296)
(0.0635533 0 -0.00105984)
(0.0656635 0 -0.00112289)
(0.0677618 0 -0.00119434)
(0.0698658 0 -0.0012765)
(0.0719868 0 -0.0013717)
(0.0741278 0 -0.00148213)
(0.0762827 0 -0.00160978)
(0.078435 0 -0.00175607)
(0.0805582 0 -0.00192272)
(0.0826111 0 -0.00211061)
(0.0845491 0 -0.00232252)
(0.0863118 0 -0.00256324)
(0.0878324 0 -0.00284189)
(0.0890566 0 -0.00317742)
(0.0899467 0 -0.00361477)
(0.00405612 0 -6.16962e-05)
(0.0116946 0 -0.000178228)
(0.0184694 0 -0.000282565)
(0.0244883 0 -0.000376718)
(0.0298494 0 -0.000462391)
(0.0346383 0 -0.000540992)
(0.0389304 0 -0.000613716)
(0.0427932 0 -0.000681618)
(0.0462872 0 -0.000745679)
(0.0494674 0 -0.000806863)
(0.0523838 0 -0.00086617)
(0.0550824 0 -0.000924683)
(0.0576049 0 -0.000983604)
(0.0599892 0 -0.00104429)
(0.0622695 0 -0.00110827)
(0.0644759 0 -0.00117726)
(0.0666338 0 -0.00125312)
(0.0687636 0 -0.00133795)
(0.0708778 0 -0.00143369)
(0.0729827 0 -0.00154224)
(0.0750777 0 -0.00166537)
(0.0771533 0 -0.00180493)
(0.0791944 0 -0.00196239)
(0.0811716 0 -0.00213882)
(0.083042 0 -0.00233498)
(0.084765 0 -0.00255312)
(0.086293 0 -0.00279647)
(0.0875806 0 -0.00307242)
(0.0885902 0 -0.00339438)
(0.0892885 0 -0.00378525)
(0.00407081 0 -6.49254e-05)
(0.0117401 0 -0.000187652)
(0.0185488 0 -0.000297772)
(0.0246056 0 -0.000397474)
(0.0300092 0 -0.00048862)
(0.0348452 0 -0.000572753)
(0.039189 0 -0.000651189)
(0.0431076 0 -0.000725099)
(0.0466611 0 -0.00079557)
(0.0499034 0 -0.000863663)
(0.0528834 0 -0.000930464)
(0.0556453 0 -0.000997119)
(0.058229 0 -0.00106487)
(0.06067 0 -0.00113508)
(0.0629994 0 -0.00120921)
(0.0652439 0 -0.00128885)
(0.0674262 0 -0.00137566)
(0.0695639 0 -0.00147168)
(0.071664 0 -0.0015784)
(0.0737288 0 -0.00169734)
(0.0757591 0 -0.00183022)
(0.0777428 0 -0.00197826)
(0.0796577 0 -0.00214231)
(0.0814766 0 -0.00232263)
(0.0831672 0 -0.00252026)
(0.0846951 0 -0.00273678)
(0.0860253 0 -0.00297475)
(0.0871261 0 -0.00323889)
(0.0879712 0 -0.00353635)
(0.0885373 0 -0.00387463)
(0.00408159 0 -6.8026e-05)
(0.0117745 0 -0.000196715)
(0.0186112 0 -0.000312423)
(0.0247005 0 -0.00041751)
(0.030141 0 -0.000513979)
(0.0350184 0 -0.000603497)
(0.0394075 0 -0.000687491)
(0.0433748 0 -0.000767227)
(0.0469794 0 -0.00084388)
(0.0502743 0 -0.000918582)
(0.0533068 0 -0.000992473)
(0.0561195 0 -0.00106673)
(0.0587501 0 -0.00114261)
(0.0612319 0 -0.00122141)
(0.063593 0 -0.00130452)
(0.0658561 0 -0.00139336)
(0.0680451 0 -0.00148963)
(0.0701728 0 -0.00159483)
(0.0722408 0 -0.0017101)
(0.0742514 0 -0.00183677)
(0.0762012 0 -0.00197609)
(0.0780769 0 -0.00212848)
(0.0798603 0 -0.00229461)
(0.0815284 0 -0.00247482)
(0.0830552 0 -0.00266969)
(0.0844143 0 -0.00288012)
(0.0855803 0 -0.00310764)
(0.0865317 0 -0.00335451)
(0.087251 0 -0.0036231)
(0.0877253 0 -0.00391339)
(0.00408791 0 -7.09732e-05)
(0.0117965 0 -0.000205345)
(0.0186543 0 -0.000326409)
(0.0247698 0 -0.000436675)
(0.0302413 0 -0.000538277)
(0.0351538 0 -0.000632992)
(0.0395816 0 -0.00072234)
(0.0435901 0 -0.000807668)
(0.0472375 0 -0.000890214)
(0.0505754 0 -0.000971157)
(0.0536497 0 -0.00105166)
(0.0565011 0 -0.00113291)
(0.0591654 0 -0.00121612)
(0.0616736 0 -0.00130253)
(0.0640517 0 -0.00139342)
(0.0663211 0 -0.00149013)
(0.0685003 0 -0.00159409)
(0.070598 0 -0.0017062)
(0.0726184 0 -0.00182756)
(0.0745613 0 -0.00195914)
(0.0764216 0 -0.00210166)
(0.0781881 0 -0.00225551)
(0.0798452 0 -0.00242095)
(0.0813747 0 -0.00259812)
(0.0827565 0 -0.00278719)
(0.0839714 0 -0.00298849)
(0.0850017 0 -0.00320248)
(0.0858331 0 -0.00342955)
(0.0864555 0 -0.00366931)
(0.0868633 0 -0.00391897)
(0.00408952 0 -7.37315e-05)
(0.011805 0 -0.000213438)