/*--------------------------------*- C++ -*----------------------------------*\
| =========                 |                                                 |
| \\      /  F ield         | OpenFOAM: The Open Source CFD Toolbox           |
|  \\    /   O peration     | Version:  5.x                                   |
|   \\  /    A nd           | Web:      www.OpenFOAM.org                      |
|    \\/     M anipulation  |                                                 |
\*---------------------------------------------------------------------------*/
FoamFile
{
    version     2.0;
    format      ascii;
    class       volScalarField;
    location    "1";
    object      gradTx;
}
// * * * * * * * * * * * * * * * * * * * * * * * * * * * * * * * * * * * * * //

dimensions      [0 -1 0 1 0 0 0];

internalField   nonuniform List<scalar> 
512
(
0.0130154
0.0370397
0.0557753
0.0677053
0.0730009
0.0728901
0.068966
0.0626915
0.0552511
0.0474713
0.039876
0.032762
0.0262622
0.0203967
0.0151098
0.0102969
0.0058237
0.00154056
-0.00270556
-0.00706084
-0.0116511
-0.0165616
-0.0218067
-0.0272884
-0.0327438
-0.0376858
-0.0413552
-0.0427272
-0.0406428
-0.0341373
-0.0229696
-0.00812717
0.039551
0.112446
0.169034
0.20478
0.220363
0.219634
0.207493
0.188378
0.165849
0.142377
0.119515
0.098139
0.0786341
0.0610508
0.0452155
0.0308097
0.0174264
0.00461446
-0.00808819
-0.0211233
-0.0348736
-0.0496022
-0.0653627
-0.0818741
-0.0983629
-0.11338
-0.124645
-0.129051
-0.12304
-0.103583
-0.0698328
-0.0247369
0.0676483
0.191939
0.287526
0.346912
0.371827
0.369265
0.347785
0.314952
0.276716
0.237155
0.198806
0.163069
0.130544
0.101284
0.0749774
0.0510777
0.0288949
0.00766698
-0.0133842
-0.035006
-0.0578527
-0.0823882
-0.108736
-0.136473
-0.16436
-0.190024
-0.209664
-0.217997
-0.208815
-0.17662
-0.119545
-0.0424463
0.0985169
0.278619
0.415101
0.497696
0.530195
0.523683
0.490955
0.44293
0.387964
0.331674
0.277481
0.227229
0.181667
0.140805
0.10416
0.0709349
0.0401385
0.0106851
-0.0185319
-0.0485805
-0.0804115
-0.114727
-0.151772
-0.191048
-0.230931
-0.268197
-0.297537
-0.311353
-0.300377
-0.255905
-0.174279
-0.0621061
0.133652
0.376217
0.556192
0.661055
0.698361
0.684735
0.638003
0.572715
0.499613
0.42573
0.355224
0.290263
0.231658
0.179308
0.132518
0.0902097
0.0510653
0.0136573
-0.023464
-0.0617074
-0.102352
-0.146391
-0.194265
-0.245491
-0.298183
-0.348386
-0.38933
-0.410951
-0.400358
-0.344519
-0.236661
-0.0847705
0.17502
0.489475
0.716114
0.841373
0.879316
0.854166
0.789761
0.704542
0.611545
0.519017
0.431648
0.351768
0.280138
0.216468
0.159795
0.108725
0.0615817
0.0165743
-0.0281062
-0.0742314
-0.123449
-0.177107
-0.235937
-0.299594
-0.366091
-0.430933
-0.486006
-0.518659
-0.511707
-0.446183
-0.310055
-0.111832
0.225352
0.624705
0.90144
1.04361
1.07611
1.03354
0.946808
0.838417
0.723466
0.611109
0.506283
0.411284
0.326694
0.251934
0.185719
0.126296
0.0715927
0.0194289
-0.0323765
-0.0859798
-0.14344
-0.206544
-0.276425
-0.35302
-0.434457
-0.515976
-0.58835
-0.636333
-0.637762
-0.565545
-0.398964
-0.14523
0.288612
0.790616
1.12048
1.27339
1.29177
1.22409
1.10938
0.974053
0.834862
0.70143
0.578561
0.468286
0.370869
0.28533
0.21
0.142731
0.0810021
0.0222167
-0.0361847
-0.0967613
-0.162028
-0.234304
-0.315262
-0.405274
-0.502854
-0.603371
-0.696864
-0.765721
-0.782297
-0.708546
-0.509645
-0.187777
0.370789
0.999604
1.38383
1.53695
1.52904
1.42659
1.27723
1.1108
0.944962
0.789242
0.647807
0.522178
0.412166
0.316251
0.23233
0.157832
0.0897143
0.0249346
-0.0394348
-0.106368
-0.178871
-0.259912
-0.351868
-0.455683
-0.570577
-0.692595
-0.811622
-0.908261
-0.949485
-0.88288
-0.651051
-0.243718
0.481286
1.2698
1.70507
1.84094
1.79008
1.64102
1.4495
1.24755
1.0527
0.873635
0.713239
0.572284
0.450043
0.344262
0.252378
0.171396
0.0976359
0.0275795
-0.0420279
-0.114578
-0.19359
-0.282816
-0.385548
-0.503375
-0.636589
-0.782651
-0.932071
-1.06474
-1.1437
-1.09857
-0.836332
-0.319671
0.635434
1.62841
2.10126
2.1918
2.07584
1.86629
1.62458
1.38272
1.15667
0.953533
0.773964
0.617849
0.483924
0.368899
0.269784
0.183221
0.10468
0.0301451
-0.0438678
-0.12117
-0.205767
-0.302369
-0.415497
-0.547282
-0.699467
-0.871961
-1.05681
-1.23474
-1.36903
-1.36859
-1.08525
-0.426301
0.859175
2.11718
2.59317
2.59449
2.38521
2.09986
1.79991
1.51416
1.25512
1.02773
0.828997
0.658017
0.513209
0.389668
0.284141
0.193111
0.110776
0.0326153
-0.044867
-0.125937
-0.214957
-0.317821
-0.440832
-0.586156
-0.757354
-0.958283
-1.18338
-1.41575
-1.62812
-1.70942
-1.42812
-0.581367
1.19808
2.80161
3.20394
3.05001
2.71381
2.33734
1.97195
1.63915
1.34589
1.09497
0.877278
0.691806
0.537319
0.406052
0.29497
0.200904
0.115884
0.0349525
-0.0449509
-0.128714
-0.220703
-0.328272
-0.460642
-0.618639
-0.807903
-1.03867
-1.30826
-1.60187
-1.92008
-2.14102
-1.91242
-0.815446
1.73514
3.78654
3.95406
3.55131
3.05275
2.57235
2.13612
1.75452
1.42631
1.15413
0.917709
0.718027
0.555777
0.417517
0.301649
0.206516
0.12003
0.0370711
-0.0440508
-0.129436
-0.222572
-0.332561
-0.474107
-0.643387
-0.848178
-1.10947
-1.42726
-1.78196
-2.23647
-2.68515
-2.61389
-1.18299
2.62687
5.24265
4.84715
4.07685
3.38746
2.79663
2.28695
1.85684
1.49302
1.20462
0.949184
0.735089
0.568408
0.423526
0.303259
0.210056
0.123361
0.0387728
-0.0420638
-0.12822
-0.220248
-0.329004
-0.480706
-0.659349
-0.874437
-1.16628
-1.53718
-1.93724
-2.55447
-3.35945
-3.65533
-1.78427
4.1781
7.45175
5.83429
4.58253
3.69789
3.00097
2.41823
1.94293
1.54117
1.24713
0.970569
0.740509
0.57577
0.423527
0.29822
0.212062
0.126233
0.0395786
-0.0387273
-0.125539
-0.213765
-0.314755
-0.480642
-0.666299
-0.881626
-1.20345
-1.63996
-2.03839
-2.8257
-4.16119
-5.2386
-2.80992
)
;

boundaryField
{
    left
    {
        type            calculated;
        value           uniform 0;
    }
    right
    {
        type            calculated;
        value           uniform 0;
    }
    interface
    {
        type            calculated;
        value           nonuniform List<scalar> 
32
(
4.1781
7.45175
5.83429
4.58253
3.69789
3.00097
2.41823
1.94293
1.54117
1.24713
0.970569
0.740509
0.57577
0.423527
0.29822
0.212062
0.126233
0.0395786
-0.0387273
-0.125539
-0.213765
-0.314755
-0.480642
-0.666299
-0.881626
-1.20345
-1.63996
-2.03839
-2.8257
-4.16119
-5.2386
-2.80992
)
;
    }
    bottom
    {
        type            calculated;
        value           nonuniform List<scalar> 
32
(
0.0130154
0.0370397
0.0557753
0.0677053
0.0730009
0.0728901
0.068966
0.0626915
0.0552511
0.0474713
0.039876
0.032762
0.0262622
0.0203967
0.0151098
0.0102969
0.0058237
0.00154056
-0.00270556
-0.00706084
-0.0116511
-0.0165616
-0.0218067
-0.0272884
-0.0327438
-0.0376858
-0.0413552
-0.0427272
-0.0406428
-0.0341373
-0.0229696
-0.00812717
)
;
    }
    defaultFaces
    {
        type            empty;
    }
}


// ************************************************************************* //
