/*--------------------------------*- C++ -*----------------------------------*\
| =========                 |                                                 |
| \\      /  F ield         | OpenFOAM: The Open Source CFD Toolbox           |
|  \\    /   O peration     | Version:  4.1                                   |
|   \\  /    A nd           | Web:      www.OpenFOAM.org                      |
|    \\/     M anipulation  |                                                 |
\*---------------------------------------------------------------------------*/
FoamFile
{
    version     2.0;
    format      ascii;
    class       volVectorField;
    location    "0.1";
    object      Force;
}
// * * * * * * * * * * * * * * * * * * * * * * * * * * * * * * * * * * * * * //

dimensions      [1 1 -2 0 0 0 0];

internalField   uniform (0 0 0);

boundaryField
{
    inlet
    {
        type            calculated;
        value           uniform (0 0 0);
    }
    outlet
    {
        type            calculated;
        value           uniform (0 0 0);
    }
    flap
    {
        type            calculated;
        value           nonuniform List<vector> 
33
(
(2.34864 -0.0420815 1.69145e-18)
(2.33096 -0.0677305 -1.66336e-18)
(2.30812 -0.0792418 1.64042e-18)
(2.27958 -0.0736937 8.50478e-19)
(2.24957 -0.0546922 1.60828e-18)
(2.21232 -0.0317777 1.60078e-18)
(2.17199 0.00160726 1.601e-18)
(2.13308 0.0224288 1.61897e-18)
(2.07596 0.0194749 1.81044e-18)
(1.9867 0.010161 -4.84912e-23)
(1.86354 0.00709019 1.63417e-18)
(1.69569 0.00789318 -9.19379e-23)
(1.44978 0.00953681 1.63059e-18)
(1.04721 0.0104878 -1.63206e-18)
(0.253802 0.00917696 -5.2943e-21)
(-0.00406381 2.4137 5.80708e-23)
(-0.00395534 2.16849 8.01759e-19)
(-0.00379532 1.71253 7.84227e-19)
(2.03447 -0.0345809 -1.22776e-18)
(2.05788 -0.0611327 1.60335e-18)
(2.08978 -0.0715579 -1.62669e-18)
(2.13202 -0.0686882 7.15698e-19)
(2.18495 -0.052726 1.65724e-18)
(2.25592 -0.032052 1.66581e-18)
(2.34506 0.00150311 1.6762e-18)
(2.45019 0.0253683 1.43984e-18)
(2.58413 0.0240415 1.62864e-18)
(2.7513 0.013466 5.83053e-20)
(2.93331 0.00925699 1.62984e-18)
(3.09237 0.0105125 2.59722e-40)
(3.17927 0.0137728 -1.63321e-18)
(3.14874 0.0151848 3.31573e-39)
(2.96737 0.0137018 1.03315e-40)
)
;
    }
    upperWall
    {
        type            calculated;
        value           uniform (0 0 0);
    }
    lowerWall
    {
        type            calculated;
        value           uniform (0 0 0);
    }
    frontAndBack
    {
        type            empty;
    }
}


// ************************************************************************* //
