/*--------------------------------*- C++ -*----------------------------------*\
| =========                 |                                                 |
| \\      /  F ield         | OpenFOAM: The Open Source CFD Toolbox           |
|  \\    /   O peration     | Version:  4.1                                   |
|   \\  /    A nd           | Web:      www.OpenFOAM.org                      |
|    \\/     M anipulation  |                                                 |
\*---------------------------------------------------------------------------*/
FoamFile
{
    version     2.0;
    format      ascii;
    class       volScalarField;
    location    "0.1";
    object      p;
}
// * * * * * * * * * * * * * * * * * * * * * * * * * * * * * * * * * * * * * //

dimensions      [0 2 -2 0 0 0 0];

internalField   nonuniform List<scalar> 
2790
(
70.6788
70.4145
70.4911
70.889
71.4988
72.2751
73.2119
74.3083
75.5599
76.9618
78.5095
80.1995
82.0282
83.9906
86.08
88.2867
90.5974
92.9941
95.4537
97.947
100.439
102.888
105.249
107.47
109.502
111.295
112.805
114.025
114.741
115.563
70.4828
70.3288
70.4305
70.8262
71.4333
72.2079
73.142
74.2343
75.481
76.8769
78.4177
80.1001
81.9205
83.8743
85.9549
88.1531
90.4559
92.8462
95.3014
97.7932
100.287
102.742
105.113
107.349
109.398
111.21
112.735
113.988
114.671
115.512
70.2964
70.2122
70.3331
70.7195
71.3153
72.0796
73.0021
74.0808
75.3116
76.6897
78.2107
79.8712
81.6676
83.5954
85.6484
87.8178
90.0914
92.4529
94.8808
97.3481
99.8217
102.262
104.625
106.86
108.916
110.739
112.274
113.562
114.193
115.05
70.0894
70.0363
70.1705
70.5496
71.1329
71.8837
72.7902
73.8494
75.0573
76.4089
77.8999
79.5268
81.2861
83.1734
85.1828
87.306
89.5316
91.8444
94.2242
96.6458
99.0781
101.484
103.82
106.037
108.084
109.907
111.438
112.751
113.325
114.182
69.8521
69.8134
69.9567
70.3297
70.8983
71.6305
72.5146
73.5469
74.7232
76.0385
77.4886
79.0696
80.7782
82.61
84.5594
86.6185
88.7768
91.02
93.3299
95.6831
98.0508
100.399
102.686
104.866
106.888
108.699
110.219
111.555
112.096
112.987
69.5802
69.5475
69.694
70.0585
70.6092
71.318
72.1739
73.1726
74.3096
75.5798
76.9787
78.5025
80.1474
81.9091
83.7822
85.7591
87.8301
89.982
92.198
94.4571
96.7333
98.9951
101.206
103.322
105.297
107.08
108.58
109.94
110.47
111.403
69.272
69.2406
69.385
69.7379
70.2677
70.9489
71.7713
72.7301
73.8204
75.0369
76.3748
77.83
79.3985
81.0758
82.8564
84.7329
86.6959
88.7333
90.8297
92.9661
95.1191
97.2612
99.3597
101.377
103.271
104.999
106.464
107.843
108.384
109.388
68.9269
68.8938
69.032
69.37
69.876
70.5257
71.3094
72.2222
73.2588
74.4135
75.6811
77.0571
78.5371
80.1161
81.7882
83.546
85.3802
87.279
89.2281
91.2097
93.2033
95.1845
97.1257
98.9959
100.76
102.389
103.785
105.162
105.727
106.868
68.5453
68.5087
68.6373
68.9575
69.4364
70.0508
70.7912
71.6525
72.629
73.7144
74.903
76.1899
77.5698
79.0373
80.5856
82.2069
83.8912
85.6267
87.399
89.1912
90.9839
92.7553
94.4819
96.1395
97.7021
99.1579
100.415
101.728
102.282
103.534
68.1282
68.0867
68.2031
68.5026
68.9516
69.5272
70.2201
71.0249
71.9353
72.9446
74.0464
75.235
76.5044
77.848
79.2581
80.7258
82.2399
83.7874
85.3529
86.9185
88.4644
89.9691
91.4108
92.7696
94.0278
95.1914
96.1858
97.3083
97.7567
99.0426
67.6771
67.6296
67.7318
68.008
68.4245
68.9581
69.5997
70.3435
71.1827
72.1098
73.1179
74.2002
75.3496
76.5583
77.8171
79.1154
80.4401
81.776
83.105
84.4064
85.657
86.8316
87.9053
88.8564
89.669
90.362
90.8842
91.589
91.7559
93.0245
67.1937
67.1394
67.2257
67.4765
67.858
68.3469
68.9339
69.6129
70.3764
71.2163
72.1247
73.0937
74.1151
75.1793
76.2755
77.3906
78.5089
79.6118
80.6768
81.6779
82.5847
83.3631
83.9769
84.3909
84.5755
84.5431
84.256
84.1265
83.6167
84.7014
66.6798
66.6182
66.6873
66.9109
67.2553
67.6972
68.227
68.838
69.5221
70.2706
71.0744
71.9246
72.8114
73.7236
74.6479
75.5686
76.4665
77.3184
78.0961
78.7653
79.2846
79.6043
79.6659
79.4032
78.7436
77.647
76.0316
74.3017
72.1697
72.4194
66.1376
66.0683
66.1191
66.3141
66.6198
67.0128
67.4832
68.0237
68.6257
69.2795
69.9751
70.7024
71.4498
72.2043
72.9502
73.6684
74.3359
74.924
75.3972
75.7111
75.8094
75.6204
75.0518
73.9844
72.2614
69.7074
66.0444
61.3848
55.3826
52.2432
65.5695
65.4921
65.5239
65.6891
65.9549
66.2976
66.7069
67.1751
67.6929
68.2498
68.8349
69.4366
70.0417
70.6352
71.1988
71.7101
72.1418
72.4594
72.6194
72.566
72.2261
71.5019
70.2591
68.3079
65.3663
61.0217
54.5421
45.0313
30.1832
12.5351
-103.113
-102.595
-102.571
-101.681
-100.263
-97.9279
-94.4762
-89.782
-83.85
-76.8454
-69.0827
-60.9559
-52.7342
-44.6091
-36.9444
-30.0931
-24.163
-19.1615
-15.0339
-11.6872
-9.01006
-6.88859
-5.21577
-3.8968
-2.85116
-2.01255
-1.32773
-0.754881
-0.262279
0.172141
-103.551
-103.045
-103.14
-102.319
-101.001
-98.7282
-95.2936
-90.5693
-84.5747
-77.4863
-69.631
-61.4169
-53.1177
-44.9171
-37.1879
-30.2903
-24.3244
-19.2945
-15.1443
-11.779
-9.08661
-6.9523
-5.2686
-3.94034
-2.88677
-2.04138
-1.35075
-0.772729
-0.274631
0.17343
-104.519
-104.113
-104.39
-103.715
-102.569
-100.402
-96.987
-92.197
-86.0593
-78.7717
-70.6941
-62.267
-53.7871
-45.4136
-37.5299
-30.5287
-24.4926
-19.4161
-15.2354
-11.8505
-9.14496
-7.0013
-5.31031
-3.97589
-2.91677
-2.06627
-1.37082
-0.788121
-0.284926
0.172227
-106.1
-105.893
-106.425
-106.008
-105.132
-103.148
-99.7774
-94.887
-88.5074
-80.8739
-72.4091
-63.6094
-54.8062
-46.1432
-38.0152
-30.8519
-24.7101
-19.5667
-15.3453
-11.9359
-9.21532
-7.06151
-5.36265
-4.0213
-2.9556
-2.0987
-1.39707
-0.808348
-0.299143
0.166169
-108.46
-108.511
-109.407
-109.405
-108.942
-107.249
-103.967
-98.9323
-92.1744
-83.9967
-74.9298
-65.5562
-56.2423
-47.1408
-38.6701
-31.2765
-24.9856
-19.7497
-15.4734
-12.0324
-9.29324
-7.12771
-5.42021
-4.07136
-2.9985
-2.13456
-1.42604
-0.830678
-0.315162
0.157626
-111.742
-112.158
-113.582
-114.212
-114.37
-113.116
-109.969
-104.711
-97.3625
-88.3619
-78.4095
-68.2107
-58.1494
-48.427
-39.5136
-31.8175
-25.3309
-19.9746
-15.6277
-12.1465
-9.38429
-7.20453
-5.48677
-4.12915
-3.04798
-2.17589
-1.45945
-0.856553
-0.334135
0.146024
-116.191
-117.099
-119.261
-120.818
-121.862
-121.225
-118.233
-112.588
-104.324
-94.1297
-82.9422
-71.6175
-60.5388
-49.9961
-40.5457
-32.4774
-25.7497
-20.2459
-15.8125
-12.2819
-9.49139
-7.29402
-5.56364
-4.1954
-3.10435
-2.22276
-1.49723
-0.885873
-0.35592
0.131573
-122.077
-123.596
-126.747
-129.582
-131.828
-131.979
-129.083
-122.775
-113.147
-101.313
-88.5033
-75.7093
-63.3429
-51.8173
-41.7424
-33.2426
-26.236
-20.5621
-16.029
-12.441
-9.61688
-7.39823
-5.65239
-4.27125
-3.1684
-2.27571
-1.53979
-0.918955
-0.380749
0.11412
-129.358
-131.72
-136.16
-140.664
-144.454
-145.541
-142.581
-135.152
-123.635
-109.705
-94.9039
-80.2805
-66.4038
-53.8342
-43.0536
-34.0799
-26.7716
-20.9147
-16.2741
-12.6234
-9.76148
-7.51807
-5.75381
-4.35723
-3.24047
-2.33493
-1.58724
-0.955873
-0.408661
0.0936519
-137.776
-141.208
-147.225
-153.787
-159.451
-161.539
-158.221
-149.145
-135.235
-118.844
-101.73
-85.0508
-69.5452
-55.9092
-44.3922
-34.9358
-27.326
-21.2877
-16.5399
-12.8256
-9.92387
-7.65312
-5.86776
-4.45326
-3.32046
-2.40033
-1.63949
-0.996577
-0.439623
0.0702043
-146.689
-151.231
-159.042
-168.009
-175.792
-178.782
-174.832
-163.678
-147.062
-128.042
-108.419
-89.5916
-72.5476
-57.8565
-45.6403
-35.7399
-27.8586
-21.6583
-16.8143
-13.041
-10.1004
-7.80126
-5.99289
-4.5584
-3.40767
-2.47139
-1.6962
-1.04082
-0.473459
0.0439313
-154.517
-160.119
-169.878
-181.478
-191.367
-194.842
-190.33
-177.162
-158.085
-136.317
-114.234
-93.451
-75.0447
-59.4517
-46.6627
-36.4119
-28.3223
-21.9993
-17.0811
-13.2599
-10.285
-7.95842
-6.1264
-4.67069
-3.50071
-2.54713
-1.75665
-1.08813
-0.509853
0.0151002
-158.804
-165.514
-177.308
-191.432
-203.553
-207.686
-202.943
-187.938
-166.616
-142.411
-118.28
-96.0392
-76.6662
-60.4705
-47.325
-36.8716
-28.6688
-22.2808
-17.3214
-13.4697
-10.469
-8.11856
-6.26396
-4.78697
-3.59732
-2.62593
-1.81975
-1.13775
-0.548292
-0.0158801
-157.349
-165.673
-180.159
-196.707
-210.563
-215.693
-210.239
-193.652
-170.584
-144.979
-119.786
-96.8598
-77.1034
-60.7261
-47.5142
-37.0493
-28.8537
-22.4732
-17.5147
-13.6561
-10.6421
-8.27423
-6.40019
-4.90339
-3.6947
-2.70581
-1.88407
-1.18867
-0.588053
-0.048403
-148.268
-159.913
-177.986
-196.329
-211.048
-216.261
-209.844
-192.621
-169.157
-143.425
-118.316
-95.6239
-76.1737
-60.1033
-47.1553
-36.8934
-28.8396
-22.5489
-17.6405
-13.8038
-10.7932
-8.41764
-6.52976
-5.01641
-3.79064
-2.78543
-1.94888
-1.24056
-0.628994
-0.0822883
64.9664
64.8807
64.8925
65.0267
65.2509
65.5414
65.8875
66.2811
66.7122
67.1693
67.6407
68.1133
68.5726
69.0011
69.3782
69.6782
69.8692
69.9113
69.753
69.3272
68.5441
67.2801
65.359
62.5181
58.3403
52.1304
42.5163
26.7004
-4.77931
-95.2431
64.3216
64.2272
64.2182
64.3198
64.5007
64.737
65.0176
65.334
65.6754
66.0298
66.3843
66.7246
67.0345
67.2948
67.4822
67.5682
67.5169
67.2832
66.8088
66.0175
64.8061
63.0324
60.4913
56.8761
51.6992
44.1485
32.7178
14.8376
-12.0274
-51.6177
63.6402
63.5368
63.5063
63.5745
63.7107
63.8913
64.105
64.3426
64.5928
64.843
65.0792
65.2861
65.4462
65.5385
65.5377
65.4126
65.1246
64.6245
63.8498
62.7185
61.1214
58.9098
55.8755
51.7205
46.0093
38.1189
27.1969
12.3082
-6.20291
-27.7722
62.9236
62.8111
62.7587
62.7926
62.8834
63.0076
63.1536
63.3117
63.4702
63.6159
63.7342
63.8087
63.8209
63.7484
63.5644
63.2361
62.723
61.9742
60.9255
59.4942
57.5729
55.0203
51.6484
47.2079
41.3741
33.7499
23.8954
11.3197
-4.37293
-23.7773
62.1735
62.0519
61.9774
61.9768
62.0219
62.0894
62.1674
62.2462
62.3136
62.3559
62.3581
62.3031
62.1715
61.9403
61.5819
61.0627
60.3419
59.3687
58.0805
56.3986
54.224
51.4318
47.8655
43.3314
37.5968
30.3934
21.425
10.3408
-3.23036
-19.0736
61.3921
61.2616
61.165
61.1299
61.1293
61.1404
61.1512
61.1516
61.1295
61.0708
60.9602
60.7804
60.5116
60.1304
59.6094
58.9153
58.0083
56.84
55.3518
53.4724
51.1153
48.1764
44.5316
40.0364
34.528
27.8302
19.7682
10.1926
-0.973364
-13.2856
60.5822
60.4429
60.3244
60.2552
60.2095
60.165
60.1098
60.0338
59.9248
59.7688
59.5502
59.2519
58.8543
58.3343
57.6651
56.815
55.7464
54.4148
52.7678
50.7434
48.2697
45.2638
41.6324
37.2738
32.0828
25.96
18.8279
10.6552
1.46561
-8.40511
59.7466
59.5989
59.4591
59.3565
59.2666
59.168
59.0489
58.8992
58.7069
58.4582
58.1378
57.729
57.2126
56.5666
55.7657
54.7803
53.5763
52.1141
50.3485
48.2282
45.6958
42.6887
39.1408
34.9857
30.1626
24.6246
18.3494
11.3531
3.69009
-4.37728
58.8889
58.7332
58.5728
58.4377
58.3052
58.1545
57.9741
57.7542
57.4831
57.1474
56.7326
56.2223
55.5986
54.8409
53.9258
52.8267
51.5136
49.9525
48.106
45.9333
43.3908
40.4338
37.0186
33.1058
28.6657
23.6836
18.1675
12.156
5.71869
-0.936367
58.0128
57.8496
57.6695
57.5034
57.3302
57.1299
56.8914
56.6054
56.2608
55.8448
55.3436
54.742
54.0233
53.1688
52.1576
50.9664
49.5696
47.9393
46.0456
43.8575
41.3437
38.4743
35.2232
31.5707
27.5075
23.0388
18.1888
13.0052
7.55864
2.008
57.1226
56.9524
56.7538
56.5583
56.3466
56.0996
55.8069
55.4596
55.0474
54.5583
53.9796
53.2973
52.4964
51.5602
50.4707
49.2082
47.7515
46.0785
44.1666
41.9933
39.5376
36.7817
33.7123
30.3235
26.6192
22.6157
18.3443
13.8532
9.2066
4.52461
56.2227
56.0462
55.8304
55.6075
55.3597
55.0694
54.7267
54.3234
53.8499
53.2955
52.6484
51.8963
51.026
50.0231
48.8724
47.5578
46.0627
44.3701
42.4639
40.329
37.9528
35.3263
32.4459
29.3146
25.944
22.3558
18.5829
14.6701
10.6727
6.68167
55.318
55.1359
54.9043
54.6561
54.3752
54.0452
53.657
53.2031
52.6751
52.0632
51.3571
50.5461
49.6189
48.5634
47.3675
46.0183
44.5034
42.8107
40.9293
38.8504
36.5678
34.0792
31.3873
28.5007
25.4352
22.2142
18.8692
15.4399
11.9725
8.53596
54.4135
54.2266
53.9808
53.7096
53.3986
53.0328
52.6037
52.1051
51.5293
50.8679
50.112
49.2526
48.2803
47.1855
45.9586
44.5902
43.0714
41.3943
39.5525
37.5419
35.3613
33.013
30.5038
27.8456
25.0556
22.1569
19.1784
16.154
13.1216
10.1339
53.5147
53.3237
53.0654
52.7734
52.4356
52.0379
51.5729
51.0352
50.4184
49.7153
48.9185
48.0206
47.0142
45.892
44.6469
43.2723
41.7626
40.1133
38.3217
36.3874
34.3125
32.1026
29.7669
27.3187
24.7753
22.1584
19.4933
16.8087
14.1355
11.5137
52.627
52.4328
52.1635
51.8534
51.4919
51.0662
50.5701
49.999
49.3477
48.6104
47.781
46.8539
45.8233
44.6842
43.4316
42.0617
40.5715
38.9592
37.225
35.3711
33.4022
31.3257
29.1521
26.8949
24.5708
22.1992
19.8022
17.4036
15.0284
12.7072
51.7562
51.5595
51.281
50.9551
50.5731
50.1234
49.6009
49.0019
48.3223
47.5577
46.7034
45.7552
44.7093
43.5623
42.3114
40.9548
39.4918
37.9228
36.2503
34.4782
32.6128
30.6627
28.6386
26.5537
24.4234
22.265
20.0973
17.94
15.8132
13.7405
50.9082
50.7098
50.4235
50.0843
49.6848
49.215
48.6704
48.0487
47.3467
46.5611
45.6888
44.7269
43.6731
42.5257
41.2837
39.9471
38.5169
36.9953
35.3862
33.695
31.9287
30.0964
28.2088
26.2782
24.3187
22.3452
20.3736
18.4204
16.5016
14.6356
50.0889
49.8894
49.597
49.2467
48.8327
48.3462
47.7838
47.144
46.4248
45.624
44.7397
43.7702
42.7148
41.5732
40.3457
39.0339
37.6401
36.1679
34.6221
33.009
31.3362
29.6125
27.8484
26.0552
24.2454
22.432
20.6284
18.848
17.104
15.4107
49.3043
49.1045
48.8073
48.448
48.0221
47.5223
46.9459
46.2923
45.5605
44.7494
43.8582
42.8864
41.8344
40.7032
39.4943
38.2104
36.8549
35.4324
33.9483
32.4094
30.8233
29.1989
27.5456
25.874
24.195
22.5199
20.8599
19.2263
17.6295
16.0809
48.5607
48.361
48.0603
47.6938
47.2586
46.7483
46.1612
45.4975
44.7572
43.94
43.0461
42.0761
41.0314
39.914
38.7264
37.4722
36.1555
34.7816
33.3564
31.8868
30.3803
28.8453
27.2908
25.7261
24.161
22.605
21.0679
19.5587
18.0861
16.659
47.8644
47.6652
47.362
46.99
46.5475
46.0292
45.4343
44.7637
44.0181
43.1982
42.305
41.34
40.3054
39.204
38.0391
36.815
35.5365
34.2091
32.8389
31.433
29.9986
28.5436
27.0763
25.6051
24.1385
22.6849
21.2524
19.8486
18.4807
17.1557
47.2216
47.0233
46.7184
46.3421
45.894
45.3699
44.7696
44.0946
43.3465
42.5265
41.6365
40.6787
39.6559
38.5717
37.4299
36.2354
34.9932
33.7093
32.3897
31.0414
29.6715
28.2872
26.8961
25.506
24.1241
22.7579
21.4141
20.0994
18.8194
17.58
46.639
46.4417
46.1356
45.7559
45.3035
44.7753
44.1715
43.4942
42.7455
41.9274
41.0423
40.093
39.0829
38.016
36.8968
35.7303
34.522
33.2777
32.0038
30.7068
29.3935
28.0708
26.7457
25.425
24.1153
22.823
21.554
20.3138
19.1074
17.9393
46.1235
45.927
45.6197
45.2371
44.7814
44.2501
43.6442
42.9661
42.2183
41.4033
40.5241
39.5838
38.5865
37.5363
36.4383
35.2976
34.1198
32.9109
31.6771
30.4248
29.1605
27.8905
26.6214
25.3593
24.1102
22.8797
21.6729
20.4946
19.3489
18.2396
45.6823
45.4862
45.177
44.7914
44.3329
43.7997
43.1928
42.5148
41.7687
40.9575
40.0844
39.1531
38.1677
37.133
36.054
34.936
33.7849
32.6066
31.4071
30.1927
28.9695
27.7437
26.5211
25.3074
24.1081
22.9282
21.7721
20.6441
19.5477
18.4861
45.3236
45.1267
44.8136
44.4237
43.9624
43.4277
42.8202
42.1429
41.399
40.5918
39.7247
38.8016
37.827
36.8058
35.7431
34.6445
33.5157
32.3627
31.1914
30.0079
28.8181
27.6277
26.4424
25.2674
24.1076
22.9677
21.8517
20.7633
19.7057
18.6815
45.0572
44.8569
44.5372
44.1431
43.6798
43.1439
42.5359
41.8591
41.117
40.3131
39.451
38.5347
37.5689
36.5584
35.5087
34.4253
33.314
32.1806
31.0311
29.8713
28.7069
27.5434
26.3863
25.2404
24.1103
23.0004
21.9143
20.8554
19.8266
18.8304
44.8953
44.6742
44.3396
43.9419
43.4788
42.9431
42.3356
41.6601
40.9204
40.1198
39.2619
38.3511
37.3918
36.3893
35.3489
34.2762
33.177
32.0572
30.9226
29.7789
28.6318
27.4866
26.3485
25.2222
24.1121
23.0222
21.9562
20.9171
19.9076
18.9299
44.9028
44.614
44.2518
43.8492
43.3845
42.847
42.2384
41.5632
40.8247
40.0262
39.1711
38.2636
37.3084
36.3105
35.2754
34.2086
33.116
32.0033
30.8764
29.741
28.6027
27.4667
26.338
25.2214
24.1212
23.0413
21.985
20.9556
19.9554
18.9867
-240.888
-216.408
-170.904
-82.7727
-89.9521
-92.5478
-53.0183
-71.1405
-84.7642
-47.1351
-63.1755
-75.0499
-35.9803
-47.7404
-57.0881
-25.8841
-34.8722
-42.2706
-18.2714
-25.2639
-31.0204
-12.178
-17.6422
-22.1388
-7.17735
-11.5165
-15.1002
-3.06699
-6.57369
-9.48485
0.336801
-2.54081
-4.94518
3.1796
0.784442
-1.23183
5.57032
3.55005
1.83568
7.59271
5.86746
4.39133
9.31204
7.8216
6.53581
10.7796
9.47794
8.3459
12.0361
10.8876
9.88089
13.1142
12.0908
11.1872
14.0401
13.1197
12.3013
14.8354
14
13.2526
15.5175
14.7527
14.0645
16.1008
15.3946
14.7559
16.5971
15.9395
15.342
17.016
16.3986
15.8354
17.3651
16.7805
16.2455
17.6509
17.0929
16.5806
17.877
17.3396
16.8452
18.0488
17.5267
17.0455
18.1634
17.6516
17.1794
18.2289
17.723
17.2553
-128.689
-150.504
-173.202
-191.586
-205.523
-210.147
-202.559
-185.142
-162.293
-137.633
-113.757
-92.2507
-73.8202
-58.5587
-46.2117
-36.3715
-28.5983
-22.4841
-17.6792
-13.8976
-10.9109
-8.54036
-6.64665
-5.12186
-3.88231
-2.86296
-2.01304
-1.29275
-0.670788
-0.117397
-106.294
-139.574
-164.88
-182.856
-194.404
-196.318
-187.352
-170.661
-149.783
-127.576
-106.137
-86.7618
-70.043
-56.0717
-44.6494
-35.4443
-28.0908
-22.2435
-17.6014
-13.9136
-10.9765
-8.62813
-6.74016
-5.2118
-3.96389
-2.93418
-2.07356
-1.34317
-0.712104
-0.152909
-103.521
-130.09
-150.876
-165.251
-172.571
-171.838
-163.561
-149.743
-132.588
-114.177
-96.1691
-79.6417
-65.1369
-52.8029
-42.544
-34.1382
-27.318
-21.8167
-17.3927
-13.8376
-10.9777
-8.67093
-6.80247
-5.28036
-4.0311
-2.99604
-2.12834
-1.39044
-0.752122
-0.188302
-89.7017
-108.282
-124.863
-136.787
-142.416
-142.113
-136.422
-126.458
-113.615
-99.4044
-85.1174
-71.657
-59.5418
-48.9892
-40.0121
-32.5025
-26.2936
-21.2004
-17.0428
-13.6575
-10.9027
-8.65852
-6.82517
-5.32083
-4.07872
-3.0446
-2.17445
-1.43248
-0.789424
-0.222673
-68.7809
-82.7005
-96.5352
-107.297
-113.098
-114.068
-110.896
-104.353
-95.3604
-84.9533
-74.0882
-63.501
-53.6738
-44.8687
-37.1827
-30.6016
-25.0457
-20.4027
-16.5497
-13.3669
-10.7439
-8.58344
-6.80164
-5.32768
-4.10233
-3.07644
-2.20935
-1.46747
-0.822827
-0.255333
-51.2933
-61.8807
-73.0469
-82.3095
-88.014
-90.0484
-88.8586
-84.9987
-79.0686
-71.7548
-63.7472
-55.6312
-47.8352
-40.6337
-34.1728
-28.503
-23.61
-19.44
-15.9189
-12.9651
-10.4975
-8.44077
-6.72686
-5.29633
-4.09802
-3.08836
-2.23056
-1.49358
-0.851082
-0.28554
-37.9214
-45.9906
-54.7823
-62.495
-67.8308
-70.5267
-70.7291
-68.7824
-65.0931
-60.1255
-54.3702
-48.277
-42.2069
-36.4187
-31.077
-26.2693
-22.0254
-18.3347
-15.1613
-12.456
-10.1635
-8.22832
-6.59771
-5.22349
-4.0627
-3.0777
-2.23588
-1.50914
-0.873037
-0.31262
-27.5346
-33.8521
-40.8428
-47.2452
-52.0671
-55.0038
-56.0467
-55.3792
-53.2708
-50.0338
-46.0092
-41.5315
-36.8917
-32.3176
-27.9717
-23.9581
-20.3321
-17.1127
-14.2926
-11.848
-9.74529
-7.9466
-6.41308
-5.10723
-3.9942
-3.04238
-2.22353
-1.51271
-0.887659
-0.335966
-19.4342
-24.5357
-30.1959
-35.5255
-39.7801
-42.6875
-44.1863
-44.3479
-43.3347
-41.352
-38.6336
-35.4229
-31.9466
-28.3956
-24.9181
-21.6199
-18.5689
-15.8018
-13.3312
-11.1525
-9.24928
-7.59857
-6.17373
-4.94707
-3.89141
-2.98104
-2.19217
-1.50313
-0.894085
-0.355064
-13.0425
-17.2597
-21.9223
-26.3926
-30.114
-32.8672
-34.5793
-35.2571
-34.9888
-33.9045
-32.162
-29.9347
-27.3939
-24.6936
-21.9617
-19.2972
-16.7711
-14.4294
-12.2971
-10.383
-8.68411
-7.18926
-5.8822
-4.74391
-3.75425
-2.89308
-2.14098
-1.47962
-0.891661
-0.369512
-7.91829
-11.4703
-15.3763
-19.1679
-22.4249
-24.977
-26.7577
-27.7428
-27.9728
-27.5264
-26.5072
-25.036
-23.2394
-21.2377
-19.1372
-17.0256
-14.9709
-13.022
-11.2106
-9.55456
-8.06013
-6.72542
-5.54258
-4.49997
-3.58367
-2.77869
-2.06974
-1.44176
-0.879977
-0.379036
-3.7555
-6.79505
-10.1181
-13.372
-16.2357
-18.5799
-20.3479
-21.504
-22.0611
-22.0632
-21.576
-20.6819
-19.4722
-18.0389
-16.4674
-14.8323
-13.195
-11.6033
-10.0915
-8.68246
-7.38871
-6.21505
-5.16022
-4.21859
-3.38161
-2.63883
-1.97879
-1.38955
-0.858879
-0.3835
-0.336081
-2.97279
-5.83904
-8.66413
-11.1988
-13.3463
-15.0583
-16.2989
-17.0655
-17.3796
-17.2809
-16.8244
-16.0745
-15.0997
-13.967
-12.7379
-11.4658
-10.1945
-8.95833
-7.78192
-6.68171
-5.66703
-4.74146
-3.90412
-3.15086
-2.47518
-1.86904
-1.32341
-0.828488
-0.382908
2.49943
0.184719
-2.31835
-4.79841
-7.05951
-9.02644
-10.6623
-11.9336
-12.8296
-13.3579
-13.541
-13.4143
-13.0222
-12.4147
-11.6432
-10.7569
-9.80084
-8.81378
-7.82768
-6.86738
-5.95101
-5.09068
-4.29333
-3.56163
-2.89495
-2.29008
-1.74194
-1.24414
-0.789189
-0.377404
4.86944
2.81563
0.605063
-1.5947
-3.6275
-5.43405
-6.98602
-8.2548
-9.22585
-9.89864
-10.2844
-10.4047
-10.2895
-9.97441
-9.49796
-8.89881
-8.21376
-7.47605
-6.71436
-5.95225
-5.20811
-4.49544
-3.82325
-3.19677
-2.618
-2.0864
-1.5994
-1.15293
-0.74162
-0.367263
6.86334
5.02344
3.05123
1.08145
-0.759762
-2.42504
-3.89318
-5.13998
-6.1499
-6.91782
-7.44773
-7.75192
-7.8498
-7.76618
-7.5293
-7.16887
-6.71432
-6.19339
-5.63099
-5.0486
-4.46385
-3.89054
-3.33882
-2.81552
-2.32457
-1.86748
-1.44376
-1.05129
-0.686654
-0.352877
8.5496
6.88681
5.11072
3.33113
1.65118
0.108994
-1.27803
-2.49183
-3.51683
-4.34515
-4.97629
-5.41637
-5.67733
-5.77595
-5.73246
-5.56922
-5.30928
-4.97524
-4.58822
-4.16712
-3.7282
-3.28485
-2.84755
-2.42403
-2.01951
-1.63701
-1.27766
-0.941034
-0.625365
-0.334744
9.9814
8.46644
6.85313
5.23209
3.68876
2.25424
0.941599
-0.234055
-1.25829
-2.12236
-2.82315
-3.3627
-3.74772
-3.98908
-4.10089
-4.09958
-4.00286
-3.82875
-3.59473
-3.31704
-3.0102
-2.68667
-2.35673
-2.02845
-1.70781
-1.39888
-1.10402
-0.824166
-0.558996
-0.313447
11.2004
9.80967
8.33232
6.84413
5.4167
4.07569
2.83121
1.69556
0.681966
-0.200805
-0.94827
-1.55982
-2.0386
-2.39117
-2.62704
-2.75799
-2.79731
-2.7591
-2.65753
-2.50624
-2.31786
-2.10365
-1.87331
-1.63482
-1.39451
-1.15712
-0.925906
-0.70288
-0.48892
-0.289635
12.2397
10.9538
9.5906
8.21425
6.88552
5.62589
4.4434
3.34714
2.34994
1.46002
0.682449
0.0194607
-0.529651
-0.968425
-1.30293
-1.54133
-1.6934
-1.76992
-1.78215
-1.74133
-1.65822
-1.54274
-1.40376
-1.24892
-1.08457
-0.915802
-0.746499
-0.579478
-0.416609
-0.264007
13.1256
11.9285
10.6614
9.37947
8.13479
6.94547
5.81733
4.76001
3.78259
2.8932
2.09742
1.3984
0.797
0.291822
-0.120682
-0.445933
-0.690884
-0.863616
-0.972915
-1.02785
-1.03742
-1.0102
-0.954115
-0.876264
-0.782815
-0.678972
-0.569003
-0.456322
-0.343593
-0.237288
13.8794
12.7575
11.5715
10.3693
9.19629
8.06802
6.98921
5.96697
5.01023
4.1263
3.32066
2.59696
1.95707
1.40106
0.92721
0.53216
0.211145
-0.0417307
-0.23318
-0.370406
-0.460796
-0.511638
-0.529897
-0.522029
-0.493869
-0.450571
-0.396603
-0.335796
-0.271432
-0.210221
14.5181
13.4598
12.342
11.207
10.0948
9.01896
7.98318
6.99328
6.05716
5.18161
4.37187
3.63182
2.96397
2.36935
1.84755
1.39676
1.01389
0.694767
0.434388
0.227126
0.0670023
-0.0520903
-0.136181
-0.191056
-0.222139
-0.234417
-0.232423
-0.220263
-0.201688
-0.183546
15.0554
14.0504
12.9898
11.9111
10.8503
9.81903
8.82054
7.8596
6.9431
6.07731
5.26725
4.51684
3.82894
3.20525
2.64627
2.15131
1.71855
1.34519
1.02757
0.761376
0.541837
0.363887
0.222359
0.112121
0.0281932
-0.0341809
-0.0795044
-0.112046
-0.135907
-0.157994
15.5019
14.5414
13.5281
12.4961
11.478
10.4844
9.51767
8.582
7.68341
6.8277
6.01963
5.26307
4.56106
3.91574
3.32822
2.79862
2.3261
1.90886
1.54435
1.2293
0.959946
0.73211
0.541388
0.383255
0.253166
0.146627
0.0592223
-0.0134006
-0.0755958
-0.134269
15.8665
14.9422
13.9673
12.9733
11.9902
11.0275
10.0872
9.17305
8.29018
7.444
6.63906
5.87914
5.16738
4.50615
3.89702
3.34067
2.83694
2.38485
1.98265
1.62792
1.31771
1.04857
0.816748
0.618255
0.448946
0.304587
0.18088
0.0734449
-0.0222511
-0.113071
16.1546
15.2589
14.3144
13.3504
12.395
11.4569
10.538
9.64127
8.77155
7.93383
7.13241
6.37098
5.65269
4.98006
4.35495
3.77845
3.2509
2.77189
2.34029
1.95435
1.6117
1.30953
1.04459
0.813345
0.61199
0.436535
0.282807
0.146435
0.0227633
-0.0950062
16.372
15.4976
14.5756
13.6339
12.6991
11.7795
10.8766
9.99312
9.13354
8.30249
7.50411
6.74203
6.01938
5.33877
4.70224
4.11116
3.56619
3.06735
2.61395
2.2047
1.8377
1.51058
1.2205
0.964259
0.738339
0.538949
0.362035
0.203256
0.0578973
-0.080744
16.5178
15.6577
14.7508
13.8242
12.9034
11.9963
11.1045
10.2304
9.37815
8.55205
7.75613
6.99397
6.2687
5.583
4.93901
4.33827
3.7817
3.26956
2.80147
2.37644
1.9929
1.64876
1.34148
1.06809
0.825267
0.609373
0.416454
0.242232
0.0820164
-0.0706048
16.5982
15.7436
14.8439
13.9246
13.0106
12.1095
11.2226
10.3524
9.50298
8.67879
7.88368
7.12114
6.39425
5.70571
5.05771
4.45188
3.88924
3.37021
2.89454
2.46143
2.06946
1.71671
1.40075
1.11876
0.867517
0.643443
0.442646
0.260898
0.0936117
-0.0650706
)
;

boundaryField
{
    inlet
    {
        type            zeroGradient;
    }
    outlet
    {
        type            fixedValue;
        value           uniform 0;
    }
    flap
    {
        type            zeroGradient;
    }
    upperWall
    {
        type            zeroGradient;
    }
    lowerWall
    {
        type            zeroGradient;
    }
    frontAndBack
    {
        type            empty;
    }
}


// ************************************************************************* //
