/*--------------------------------*- C++ -*----------------------------------*\
| =========                 |                                                 |
| \\      /  F ield         | OpenFOAM: The Open Source CFD Toolbox           |
|  \\    /   O peration     | Version:  4.1                                   |
|   \\  /    A nd           | Web:      www.OpenFOAM.org                      |
|    \\/     M anipulation  |                                                 |
\*---------------------------------------------------------------------------*/
FoamFile
{
    version     2.0;
    format      ascii;
    class       volVectorField;
    location    "2.1";
    object      U;
}
// * * * * * * * * * * * * * * * * * * * * * * * * * * * * * * * * * * * * * //

dimensions      [0 1 -1 0 0 0 0];

internalField   nonuniform List<vector> 
2790
(
(9.93755 0 0.0193392)
(9.86656 0 0.0258537)
(9.77103 0 0.029823)
(9.65933 2.06385e-19 0.033983)
(9.53687 2.77465e-22 0.0382812)
(9.40449 -4.43441e-20 0.0426342)
(9.26167 0 0.0471384)
(9.10794 9.67671e-20 0.0519182)
(8.94288 -9.97548e-20 0.0570947)
(8.76591 0 0.0627832)
(8.57621 0 0.0690919)
(8.37277 -2.29809e-19 0.0761379)
(8.1544 2.63661e-20 0.0840606)
(7.91977 2.48626e-19 0.0930181)
(7.66736 0 0.103188)
(7.39547 0 0.114774)
(7.10221 -5.1624e-19 0.128008)
(6.78551 7.65586e-19 0.143159)
(6.44312 1.6322e-19 0.16054)
(6.07259 0 0.180495)
(5.6714 -3.69002e-19 0.203395)
(5.23698 0 0.229636)
(4.76682 1.70563e-18 0.259647)
(4.25858 -1.79874e-18 0.29387)
(3.71023 9.77736e-19 0.332745)
(3.12032 0 0.376552)
(2.48813 0 0.424833)
(1.81484 -2.48892e-18 0.474367)
(1.07608 0 0.515866)
(0.509913 0 0.479141)
(10.003 5.93105e-19 0.0365888)
(9.99336 0 0.0510756)
(9.96111 -2.35783e-19 0.0607005)
(9.91053 -1.6234e-19 0.0711238)
(9.846 -8.39476e-20 0.082283)
(9.76866 1.75054e-19 0.0939326)
(9.67831 6.29393e-22 0.106248)
(9.57463 1.87168e-19 0.1195)
(9.45733 -1.94228e-19 0.133978)
(9.32597 2.04538e-19 0.149968)
(9.17983 -9.45002e-19 0.167736)
(9.01801 3.25169e-19 0.187567)
(8.83944 -2.84956e-20 0.209811)
(8.64289 -2.97023e-20 0.234866)
(8.42691 3.88092e-21 0.263172)
(8.18983 -1.05075e-18 0.295219)
(7.92981 2.11734e-18 0.33156)
(7.64478 -3.59851e-18 0.372812)
(7.33242 2.24335e-18 0.419654)
(6.99018 0 0.47281)
(6.61529 3.36881e-19 0.532997)
(6.20473 -2.8796e-18 0.6009)
(5.75525 3.75269e-18 0.677115)
(5.26334 -6.49846e-18 0.762088)
(4.72496 -9.78521e-19 0.856065)
(4.13517 9.10214e-18 0.959052)
(3.48661 0 1.07068)
(2.76687 2.10757e-18 1.19054)
(1.92342 0 1.32728)
(1.12258 -5.29224e-18 1.50014)
(10.0004 -5.92229e-19 0.0354104)
(9.98854 7.6056e-20 0.056503)
(9.9591 2.35409e-19 0.07305)
(9.91366 8.10263e-19 0.0904124)
(9.8553 -1.67042e-19 0.108945)
(9.78523 3.46317e-19 0.128466)
(9.70345 5.39305e-19 0.149187)
(9.60973 -9.26722e-19 0.171483)
(9.50381 1.92582e-19 0.195809)
(9.38534 1.99763e-19 0.222626)
(9.25374 7.31148e-19 0.252364)
(9.10824 -1.6157e-18 0.285491)
(8.94793 8.89948e-19 0.322584)
(8.77174 2.91866e-20 0.364307)
(8.57842 1.95751e-18 0.4114)
(8.36654 -2.01417e-18 0.464691)
(8.13446 0 0.52512)
(7.88037 2.24032e-18 0.59376)
(7.60219 -2.30524e-18 0.671817)
(7.29755 -5.53339e-18 0.76061)
(6.96372 4.43976e-18 0.861512)
(6.59754 -5.4403e-18 0.975949)
(6.19531 4.91176e-18 1.10538)
(5.75249 -1.48797e-18 1.25124)
(5.26321 -1.27337e-17 1.41495)
(4.71926 1.32146e-17 1.59838)
(4.10828 -3.49727e-18 1.80509)
(3.41062 2.99423e-17 2.04303)
(2.58959 -3.10485e-17 2.31863)
(1.61875 -4.3417e-18 2.77453)
(9.99861 0 0.0374791)
(9.98427 1.21007e-18 0.0666209)
(9.95462 0 0.0913087)
(9.91021 1.60944e-19 0.115861)
(9.85316 -1.66197e-19 0.141384)
(9.78469 -3.4477e-19 0.16808)
(9.70502 -3.56571e-19 0.196274)
(9.61401 3.68991e-19 0.226456)
(9.51145 7.67753e-19 0.259261)
(9.39713 8.97562e-21 0.295321)
(9.27063 6.24884e-19 0.335214)
(9.13136 6.55773e-19 0.379577)
(8.97861 -1.75639e-18 0.429189)
(8.81156 0 0.484943)
(8.62925 2.98083e-20 0.547838)
(8.43061 0 0.618998)
(8.21433 0 0.699694)
(7.97904 2.69673e-19 0.791405)
(7.72322 -4.55944e-18 0.89587)
(7.44498 1.00352e-17 1.01506)
(7.1421 -4.27269e-18 1.15111)
(6.81184 1.28347e-18 1.30638)
(6.45079 0 1.48354)
(6.05448 -9.96979e-18 1.68568)
(5.61679 1.17226e-17 1.91649)
(5.12877 -1.55353e-18 2.18086)
(4.57773 3.23965e-18 2.48648)
(3.93887 0 2.85229)
(3.25086 -2.5531e-17 3.24077)
(2.14956 3.8752e-17 3.99238)
(9.99767 0 0.0410729)
(9.98178 -1.20701e-18 0.0766985)
(9.95178 0 0.108239)
(9.90809 3.20893e-19 0.139122)
(9.85214 -3.30557e-19 0.170969)
(9.78503 0 0.204338)
(9.70718 -7.06828e-19 0.239652)
(9.6184 0 0.277487)
(9.51843 0 0.318593)
(9.40721 -3.91034e-19 0.363706)
(9.28447 -4.06161e-19 0.413507)
(9.14971 -1.48223e-18 0.468773)
(9.00234 1.73258e-18 0.530437)
(8.84176 -2.25661e-19 0.59956)
(8.66724 -1.92316e-18 0.677331)
(8.47804 -2.02894e-18 0.76512)
(8.27316 -1.91155e-19 0.864467)
(8.05155 7.9223e-18 0.97712)
(7.81216 -4.90729e-18 1.10521)
(7.55378 4.61433e-18 1.2513)
(7.27488 -4.13198e-18 1.41824)
(6.97338 -1.00098e-17 1.60927)
(6.64671 1.15097e-17 1.82828)
(6.29132 1.32817e-18 2.08002)
(5.90231 2.23515e-17 2.37051)
(5.47247 -4.87181e-17 2.70772)
(4.99332 2.34619e-17 3.10088)
(4.42654 2.39014e-17 3.58227)
(3.93868 -2.6964e-17 4.02296)
(2.73486 -5.10878e-17 5.02577)
(9.9972 0 0.0454194)
(9.98045 -1.19936e-18 0.0868443)
(9.95038 0 0.124855)
(9.90757 -2.23502e-18 0.162125)
(9.85297 3.28572e-19 0.200392)
(9.78756 -3.4564e-21 0.240432)
(9.71187 2.10402e-18 0.282789)
(9.62565 4.56372e-21 0.328149)
(9.52861 2.2655e-21 0.377353)
(9.42081 -1.17072e-18 0.431197)
(9.30206 1.59456e-18 0.490459)
(9.17192 0 0.556055)
(9.02996 4.28499e-19 0.629056)
(8.87575 1.14513e-21 0.710667)
(8.70875 0 0.802229)
(8.52844 2.9983e-20 0.905316)
(8.33419 4.18622e-18 1.02175)
(8.12523 -3.82867e-18 1.15351)
(7.90061 8.0197e-19 1.30293)
(7.65982 -8.93105e-18 1.47302)
(7.40221 9.11109e-18 1.66733)
(7.12634 -2.37804e-18 1.88984)
(6.83065 -1.88105e-20 2.14551)
(6.51306 -1.27942e-18 2.44048)
(6.17052 0 2.78246)
(5.79838 2.69355e-18 3.18161)
(5.3967 0 3.64549)
(4.90059 2.11869e-17 4.22443)
(4.62883 -1.98184e-17 4.66271)
(3.34506 -1.46172e-18 5.83612)
(9.997 7.28302e-20 0.0501466)
(9.97986 1.12135e-18 0.0970495)
(9.95 0 0.141156)
(9.90824 1.27096e-18 0.184604)
(9.85523 1.30754e-18 0.229068)
(9.79185 -1.35369e-18 0.275474)
(9.71863 -3.42154e-21 0.324542)
(9.63524 7.19866e-19 0.377095)
(9.54157 -2.97547e-18 0.434034)
(9.43778 1.52507e-18 0.496221)
(9.32358 0 0.564524)
(9.19862 -1.64635e-18 0.639962)
(9.06264 4.24087e-18 0.723708)
(8.91537 2.64778e-19 0.817092)
(8.75649 -3.82069e-18 0.921579)
(8.58556 -1.16538e-19 1.03887)
(8.40231 -6.07657e-20 1.17102)
(8.20645 -8.07439e-18 1.32033)
(7.99702 1.63204e-17 1.48928)
(7.77379 -1.71331e-17 1.68105)
(7.53696 8.22659e-18 1.89973)
(7.28594 -8.58967e-18 2.15005)
(7.02015 9.29316e-18 2.43768)
(6.73902 1.92788e-17 2.76977)
(6.44173 -1.94606e-17 3.15516)
(6.12533 0 3.6052)
(5.80096 3.02408e-19 4.12229)
(5.36792 1.52284e-19 4.78074)
(5.2915 4.55739e-18 5.18695)
(3.94461 0 6.44545)
(9.99697 -7.24689e-20 0.0550433)
(9.97974 7.42139e-20 0.107221)
(9.95029 0 0.157074)
(9.90968 -1.25992e-18 0.206431)
(9.85846 -2.59999e-18 0.256851)
(9.79735 -6.72367e-19 0.309366)
(9.72682 2.76028e-18 0.364887)
(9.64656 -7.09104e-19 0.424341)
(9.55659 7.3537e-19 0.48865)
(9.45724 0 0.558758)
(9.34824 0 0.635646)
(9.22925 0 0.720404)
(9.10001 -2.93039e-18 0.814261)
(8.96049 -4.22258e-20 0.918635)
(8.81058 7.31284e-18 1.03513)
(8.6499 -3.7483e-18 1.16556)
(8.4784 3.80064e-18 1.31208)
(8.29613 -3.89916e-18 1.4773)
(8.10285 -6.23305e-20 1.664)
(7.89821 2.56465e-19 1.87536)
(7.68261 -8.54195e-18 2.11571)
(7.45668 4.54618e-19 2.39042)
(7.22081 7.45341e-18 2.70574)
(6.97558 0 3.06937)
(6.72228 0 3.49068)
(6.45887 1.8164e-17 3.98202)
(6.20781 -1.82019e-17 4.53762)
(5.82862 -4.17336e-18 5.25929)
(5.90811 -4.22396e-18 5.6309)
(4.51044 3.50024e-17 6.90777)
(9.99705 1.44171e-19 0.059978)
(9.97997 2.2123e-18 0.117264)
(9.95117 0 0.172555)
(9.91193 1.25491e-18 0.227525)
(9.86277 1.29235e-18 0.28364)
(9.80421 6.59811e-19 0.342008)
(9.73663 -2.05473e-18 0.403695)
(9.65989 2.82169e-18 0.469709)
(9.57406 -2.16938e-18 0.54098)
(9.47952 -7.45569e-19 0.618515)
(9.37617 0 0.703418)
(9.26376 -3.19075e-18 0.796888)
(9.14201 3.25139e-18 0.90019)
(9.01094 0 1.01475)
(8.8707 3.48902e-18 1.1423)
(8.72108 2.66943e-19 1.28478)
(8.56216 -1.10458e-17 1.44442)
(8.39407 -6.0028e-20 1.62389)
(8.21751 7.77554e-18 1.82635)
(8.03245 -8.37177e-18 2.0552)
(7.83911 -8.10405e-20 2.31473)
(7.639 8.25618e-18 2.61066)
(7.43347 5.25907e-19 2.94972)
(7.22396 0 3.33996)
(7.01335 0 3.79085)
(6.79959 1.66367e-17 4.31606)
(6.61609 -1.62793e-17 4.90034)
(6.28229 3.88572e-18 5.67257)
(6.47475 0 6.02711)
(5.03628 0 7.28852)
(9.99721 -2.14505e-18 0.0648555)
(9.9805 -2.20513e-18 0.127072)
(9.95261 2.41534e-18 0.187505)
(9.915 3.13216e-19 0.247776)
(9.86813 -6.38715e-19 0.309299)
(9.81238 -1.31967e-18 0.373245)
(9.74808 1.35787e-18 0.44077)
(9.6753 -1.3971e-18 0.512959)
(9.59408 7.18692e-19 0.590781)
(9.50478 7.39429e-19 0.675267)
(9.40743 2.29344e-18 0.767603)
(9.30185 -3.10618e-18 0.869107)
(9.18812 0 0.981119)
(9.06619 0 1.10505)
(8.93615 0 1.24265)
(8.79824 0 1.39603)
(8.65271 -4.4382e-19 1.56745)
(8.49981 0 1.75962)
(8.34053 4.64596e-19 1.97584)
(8.1755 -8.02968e-18 2.21985)
(8.00533 7.74365e-18 2.49604)
(7.83181 -4.87542e-19 2.81017)
(7.65709 -2.50886e-19 3.16934)
(7.48325 1.58596e-17 3.58196)
(7.31443 -1.57094e-17 4.05742)
(7.14722 -3.75301e-18 4.61112)
(7.0252 0 5.2193)
(6.73163 0 6.03459)
(7.00211 0 6.40153)
(5.53371 0 7.65459)
(9.99744 2.13954e-18 0.0695999)
(9.98128 -1.46445e-19 0.136541)
(9.95454 -2.40667e-18 0.201825)
(9.91876 3.08246e-19 0.267084)
(9.87436 6.36805e-19 0.333721)
(9.82163 6.51878e-19 0.40294)
(9.76091 0 0.47595)
(9.6923 -1.38412e-18 0.553905)
(9.616 2.82403e-18 0.637838)
(9.53235 1.0678e-20 0.728803)
(9.4413 -7.38536e-19 0.828023)
(9.34282 3.08288e-18 0.936858)
(9.23742 -6.29836e-18 1.05673)
(9.12515 3.21432e-18 1.18911)
(9.00597 0 1.33575)
(8.88041 7.6557e-18 1.49879)
(8.74893 -6.46476e-18 1.68059)
(8.61205 8.79016e-19 1.88389)
(8.4708 -7.69738e-18 2.112)
(8.3263 7.7629e-18 2.36885)
(8.17983 1.57912e-17 2.65905)
(8.03339 -1.35092e-17 2.98839)
(7.88968 0 3.36423)
(7.75162 0 3.79547)
(7.62428 0 4.29154)
(7.50188 -1.0237e-17 4.86976)
(7.43668 1.33048e-17 5.50116)
(7.18386 -2.36466e-17 6.35676)
(7.51291 1.22227e-17 6.77112)
(6.03152 0 8.06583)
(9.99771 0 0.0741575)
(9.98221 0 0.145589)
(9.95679 2.38086e-18 0.215435)
(9.92299 0 0.285374)
(9.88121 6.31389e-19 0.356818)
(9.8317 -1.94798e-18 0.430987)
(9.77474 1.32426e-18 0.509129)
(9.71045 -1.35954e-18 0.592441)
(9.63926 -1.40221e-18 0.682003)
(9.56155 -1.44199e-18 0.778923)
(9.47718 2.92985e-18 0.884446)
(9.38636 0 0.99991)
(9.28967 0 1.12677)
(9.18735 3.17364e-18 1.26661)
(9.07951 -7.7498e-19 1.42121)
(8.96677 -1.15583e-17 1.59267)
(8.84978 7.53239e-18 1.78339)
(8.72938 6.00556e-18 1.99612)
(8.60675 -6.91805e-18 2.23421)
(8.48333 0 2.50166)
(8.36095 1.32537e-17 2.80321)
(8.24195 -1.50088e-17 3.14476)
(8.12938 -1.57187e-17 3.53386)
(8.02727 2.74859e-17 3.97996)
(7.94151 -2.98427e-17 4.49304)
(7.86432 1.27534e-17 5.0923)
(7.85454 0 5.74865)
(7.65099 1.02879e-17 6.64388)
(8.03775 7.2589e-19 7.14144)
(6.57131 0 8.56367)
(9.998 4.35155e-18 0.0784974)
(9.98323 2.44334e-18 0.154176)
(9.95919 -2.37226e-18 0.228292)
(9.92743 0 0.302598)
(9.88838 0 0.378519)
(9.84225 -1.28395e-18 0.45729)
(9.78927 -1.31073e-18 0.540194)
(9.72962 2.69378e-18 0.628442)
(9.66384 -1.38508e-18 0.723129)
(9.59233 1.4087e-18 0.825432)
(9.51505 4.34674e-18 0.93662)
(9.43234 -2.94894e-18 1.058)
(9.34473 -3.03751e-18 1.19104)
(9.25257 7.71553e-18 1.33737)
(9.15631 -2.34633e-18 1.4988)
(9.05666 2.4004e-18 1.6774)
(8.95447 -2.43852e-18 1.87554)
(8.85082 0 2.096)
(8.74711 1.65464e-18 2.34209)
(8.6451 -6.72242e-18 2.61782)
(8.54707 6.71152e-18 2.92802)
(8.45578 1.33241e-17 3.27873)
(8.37478 -1.1497e-17 3.67756)
(8.30888 -1.26747e-17 4.13451)
(8.2652 9.41355e-18 4.66036)
(8.23591 -1.12381e-17 5.27619)
(8.28397 1.06995e-17 5.95866)
(8.14816 -6.09645e-19 6.8897)
(8.60908 -6.92108e-18 7.5032)
(7.20043 1.80674e-17 9.16269)
(9.99835 -8.94223e-18 0.082589)
(9.9844 -4.57541e-18 0.16226)
(9.96186 0 0.240364)
(9.93224 2.4076e-18 0.318714)
(9.89606 0 0.398755)
(9.85349 -1.2719e-18 0.481744)
(9.80468 -3.24984e-22 0.568997)
(9.74996 -1.33427e-18 0.661731)
(9.68986 1.36618e-18 0.761043)
(9.62473 -1.38823e-18 0.868147)
(9.55474 -4.28436e-18 0.98434)
(9.48035 1.42683e-18 1.11091)
(9.40201 2.95366e-18 1.24931)
(9.32025 -1.51703e-18 1.40116)
(9.23573 0 1.56828)
(9.14934 -9.36895e-18 1.75269)
(9.06213 -1.15676e-20 1.95675)
(8.97536 6.35951e-18 2.18317)
(8.89069 -2.7477e-20 2.43523)
(8.81019 0 2.71688)
(8.73654 -1.27529e-17 3.03296)
(8.67304 1.26201e-17 3.38951)
(8.624 0 3.79421)
(8.59482 -1.17209e-17 4.25734)
(8.59436 1.70068e-17 4.7903)
(8.61712 0 5.41554)
(8.7286 8.97881e-18 6.12026)
(8.68837 -1.68553e-17 7.07265)
(9.25279 0 7.82376)
(7.96451 0 9.86062)
(9.99873 8.88278e-18 0.086391)
(9.98574 7.09462e-18 0.169782)
(9.96483 -8.75296e-19 0.251591)
(9.93748 -2.40001e-18 0.333656)
(9.90435 6.12105e-19 0.41745)
(9.86548 -2.50586e-18 0.504279)
(9.82094 2.56416e-18 0.595474)
(9.77123 2.62997e-18 0.692241)
(9.71691 0 0.795687)
(9.65825 -2.75227e-18 0.907031)
(9.59565 5.59889e-18 1.02757)
(9.52969 -7.13811e-18 1.1586)
(9.46079 7.25192e-18 1.30154)
(9.38964 -4.40987e-18 1.45799)
(9.31698 6.00238e-18 1.62969)
(9.2439 -4.52022e-18 1.81864)
(9.1717 -4.58731e-18 2.02711)
(9.10181 7.66979e-18 2.25775)
(9.03611 -4.60913e-18 2.51376)
(8.97697 -6.13287e-18 2.79896)
(8.92746 -6.03145e-18 3.11805)
(8.89152 2.37885e-17 3.47688)
(8.87428 -2.30313e-17 3.88301)
(8.88213 1.10922e-17 4.34651)
(8.92592 5.04772e-18 4.87884)
(9.00469 -9.16573e-18 5.50218)
(9.18564 -7.92486e-18 6.2148)
(9.27235 7.42895e-18 7.15489)
(9.9734 1.06436e-17 8.03143)
(8.91997 -1.846e-18 10.6937)
(0.00289306 0 -0.0179186)
(0.0554858 1.12817e-19 -0.0334328)
(0.189711 0 -0.0344314)
(0.347838 9.56247e-20 -0.0304543)
(0.497757 0 -0.0239306)
(0.620109 0 -0.0184314)
(0.715745 0 -0.0151367)
(0.792585 2.36123e-20 -0.0134738)
(0.856992 -8.36855e-22 -0.0125008)
(0.912102 0 -0.0115558)
(0.959345 0 -0.0105299)
(0.999654 0 -0.00939862)
(1.03272 -4.4781e-21 -0.00749905)
(1.05578 2.15731e-20 -0.00409508)
(1.06579 0 0.000333618)
(1.06351 0 0.00369068)
(1.05228 0 0.00507574)
(1.0335 0 0.00693601)
(1.0065 -2.0249e-21 0.00916733)
(0.971121 -1.63726e-20 0.0112497)
(0.929654 2.01627e-20 0.0120276)
(0.887657 -2.21796e-21 0.0108279)
(0.852954 1.12596e-21 0.00805984)
(0.832802 0 0.00439911)
(0.831754 0 -0.0031401)
(0.856241 1.81764e-20 -0.0165098)
(0.912932 -1.6956e-20 -0.033426)
(1.00366 9.63992e-23 -0.0495975)
(1.12483 3.37969e-22 -0.0625082)
(1.31419 0 -0.0722644)
(-0.0238976 1.22171e-19 -0.0258888)
(0.00911674 -2.09873e-19 -0.0859193)
(0.150367 2.00279e-19 -0.104175)
(0.321862 -9.45685e-20 -0.0993362)
(0.490359 -1.90245e-19 -0.0840504)
(0.629788 -2.38521e-20 -0.0690378)
(0.737998 -9.35613e-20 -0.0585015)
(0.822412 9.81184e-20 -0.0518048)
(0.890226 2.26741e-20 -0.0469637)
(0.945484 8.56323e-20 -0.0423562)
(0.990201 1.84958e-20 -0.037855)
(1.02593 -1.98184e-20 -0.0334981)
(1.05354 0 -0.0272785)
(1.07191 1.67139e-20 -0.0176446)
(1.0789 0 -0.00619503)
(1.07462 0 0.00395559)
(1.06195 3.90839e-20 0.013336)
(1.04355 -7.78949e-21 0.0218368)
(1.01346 0 0.0314192)
(0.96887 2.04122e-20 0.0399108)
(0.913194 -1.6741e-20 0.043122)
(0.853565 2.27719e-22 0.0373804)
(0.798198 3.31291e-20 0.0228879)
(0.751519 -2.36462e-21 0.00721771)
(0.717587 2.51601e-23 -0.00921746)
(0.681309 -5.43528e-20 -0.0293136)
(0.65341 1.85228e-20 -0.0535907)
(0.658589 2.74753e-20 -0.08116)
(0.706998 0 -0.113785)
(0.838852 0 -0.158229)
(-0.0456604 -5.82478e-19 -0.0387998)
(-0.0493787 5.25315e-19 -0.136328)
(0.0667611 0 -0.169295)
(0.21048 -1.82453e-19 -0.161176)
(0.353581 3.78516e-19 -0.137174)
(0.470128 2.083e-19 -0.113485)
(0.556241 -2.20585e-19 -0.0964372)
(0.617645 0 -0.0849717)
(0.660923 -4.58047e-20 -0.0761582)
(0.689613 -4.36666e-20 -0.0671081)
(0.705206 -4.13123e-20 -0.0583392)
(0.7096 3.77898e-20 -0.0513507)
(0.704328 -1.98081e-20 -0.039994)
(0.688944 1.60733e-20 -0.0208264)
(0.662429 0 -0.00214544)
(0.625723 0 0.00256975)
(0.576295 -4.06853e-20 0.00724108)
(0.501804 -2.44909e-20 0.0214674)
(0.40876 0 0.0426578)
(0.300678 0 0.0659798)
(0.176183 -3.10773e-20 0.0846504)
(0.0363258 -4.69534e-21 0.0916523)
(-0.115955 -7.5904e-20 0.0823246)
(-0.248911 -4.08701e-20 0.0605289)
(-0.3246 -5.05132e-21 0.0366387)
(-0.337191 7.38419e-20 0.00539902)
(-0.328425 4.23949e-21 -0.0507458)
(-0.254068 -3.20594e-20 -0.129715)
(-0.145184 1.05846e-21 -0.218624)
(0.0427496 4.22357e-22 -0.303856)
(-0.0622099 -4.85714e-19 -0.0502708)
(-0.0978915 -2.30813e-19 -0.177132)
(-0.0102748 3.84094e-19 -0.21879)
(0.0987698 1.8109e-19 -0.206956)
(0.205733 -3.82329e-19 -0.17615)
(0.287573 0 -0.145627)
(0.339929 -1.62353e-19 -0.122864)
(0.366203 1.95594e-19 -0.106464)
(0.372993 -9.1939e-20 -0.0931729)
(0.363032 0 -0.0783105)
(0.338142 8.40006e-20 -0.0625668)
(0.299359 -1.19602e-19 -0.0547881)
(0.244622 -3.78591e-20 -0.0519649)
(0.182022 -1.06545e-19 -0.0318655)
(0.0909819 -1.65798e-20 0.00818267)
(-0.0615639 -1.74996e-20 0.0494618)
(-0.296005 -6.97833e-20 0.0812704)
(-0.484678 3.29972e-20 0.104037)
(-0.629367 6.45319e-20 0.129922)
(-0.740427 6.43661e-20 0.153724)
(-0.834897 2.50096e-20 0.167427)
(-0.914902 3.40174e-20 0.164528)
(-0.97491 4.58474e-20 0.139317)
(-1.00944 3.28671e-20 0.0891962)
(-1.00741 4.62874e-21 0.0216484)
(-0.968405 -3.13143e-20 -0.0583806)
(-0.887355 -4.12466e-21 -0.147481)
(-0.798076 -1.33511e-21 -0.240369)
(-0.716848 1.3139e-21 -0.323689)
(-0.666067 0 -0.377795)
(-0.0792602 4.91624e-19 -0.0706016)
(-0.142736 4.26309e-19 -0.212316)
(-0.083983 -3.88621e-19 -0.253392)
(-0.0141274 3.74225e-19 -0.235075)
(0.048521 -3.91875e-19 -0.197307)
(0.0851256 0 -0.160243)
(0.0931719 1.91012e-19 -0.130838)
(0.0704553 -2.00394e-19 -0.108416)
(0.0271469 3.11483e-21 -0.090651)
(-0.0367015 5.48673e-21 -0.076072)
(-0.11177 2.4166e-21 -0.0557912)
(-0.226786 8.41242e-20 -0.0181252)
(-0.445819 1.94513e-19 0.0128355)
(-0.661273 -3.69425e-20 0.0519175)
(-0.814997 6.52758e-20 0.107779)
(-0.910018 0 0.154321)
(-1.0241 6.3273e-20 0.171302)
(-1.14859 -6.16282e-20 0.172635)
(-1.26109 -4.44725e-20 0.17747)
(-1.35098 -7.47089e-20 0.184714)
(-1.41517 0 0.18506)
(-1.45287 -4.08386e-20 0.1684)
(-1.46515 8.1601e-21 0.127851)
(-1.45546 6.56957e-20 0.0629359)
(-1.4278 6.06419e-20 -0.019036)
(-1.38977 4.05603e-21 -0.110521)
(-1.34243 -1.55845e-21 -0.204067)
(-1.30115 -3.89537e-20 -0.292597)
(-1.27485 2.94235e-22 -0.367721)
(-1.26703 8.97298e-21 -0.418338)
(-0.0988202 -5.15052e-19 -0.100842)
(-0.188301 4.15671e-19 -0.236716)
(-0.160498 -3.99704e-19 -0.269269)
(-0.136557 -3.86407e-19 -0.238681)
(-0.12896 5.09866e-19 -0.192372)
(-0.151057 0 -0.148165)
(-0.200247 0 -0.109961)
(-0.297006 1.96894e-19 -0.0772059)
(-0.422171 -1.01626e-19 -0.0458875)
(-0.593513 9.16725e-20 -0.00916169)
(-0.800196 8.26686e-20 0.0359816)
(-0.961493 -8.07767e-20 0.0792903)
(-1.07525 -7.29797e-20 0.104729)
(-1.19781 0 0.120992)
(-1.31268 -6.45342e-20 0.149141)
(-1.41017 -3.05817e-20 0.187187)
(-1.50035 -1.54171e-20 0.212558)
(-1.58964 4.36334e-20 0.219384)
(-1.67189 1.43329e-20 0.21835)
(-1.73864 -1.40796e-20 0.212524)
(-1.78464 0 0.196944)
(-1.80919 7.5022e-21 0.164681)
(-1.81574 -7.30516e-20 0.111434)
(-1.81005 -5.58686e-20 0.0382647)
(-1.79724 -6.25477e-20 -0.0490794)
(-1.7804 0 -0.143808)
(-1.76374 0 -0.238)
(-1.75375 3.97348e-20 -0.323544)
(-1.75487 -8.90329e-22 -0.394153)
(-1.76146 -9.32993e-21 -0.440423)
(-0.120169 0 -0.138268)
(-0.23683 -8.53373e-19 -0.242374)
(-0.246414 1.22607e-18 -0.258338)
(-0.279831 -4.22686e-19 -0.209023)
(-0.34417 -1.05926e-19 -0.147592)
(-0.445999 0 -0.0931432)
(-0.582559 0 -0.0413628)
(-0.754662 -1.94259e-19 0.00757947)
(-0.949377 9.92144e-20 0.0531149)
(-1.10299 -8.70779e-20 0.0847844)
(-1.22232 -8.19538e-20 0.105082)
(-1.33794 0 0.125458)
(-1.44686 0 0.148585)
(-1.55303 0 0.172124)
(-1.65231 6.14639e-20 0.198514)
(-1.73993 2.98394e-20 0.227351)
(-1.81795 8.6847e-20 0.24783)
(-1.8907 0 0.25404)
(-1.95716 4.01496e-20 0.249052)
(-2.01308 -1.72338e-23 0.234465)
(-2.05527 1.32018e-20 0.207622)
(-2.08372 0 0.164518)
(-2.10124 6.29714e-20 0.103015)
(-2.11167 -6.67041e-21 0.0246331)
(-2.11768 3.05561e-21 -0.0659414)
(-2.11977 -4.46003e-20 -0.162148)
(-2.1246 3.4133e-20 -0.256162)
(-2.13512 6.85385e-22 -0.339909)
(-2.15294 -6.72907e-22 -0.407302)
(-2.16693 0 -0.4495)
(-0.140587 0 -0.17261)
(-0.290538 -1.32424e-18 -0.220019)
(-0.351448 1.52431e-18 -0.206461)
(-0.462587 4.30604e-19 -0.132313)
(-0.603172 -4.52174e-19 -0.0606529)
(-0.776583 0 0.00783786)
(-0.970091 0 0.0691603)
(-1.13292 0 0.108208)
(-1.26259 -2.67406e-19 0.1279)
(-1.3864 9.02775e-20 0.144676)
(-1.50003 1.59407e-19 0.162475)
(-1.60588 0 0.180758)
(-1.70527 -1.4244e-19 0.200228)
(-1.79955 0 0.221751)
(-1.88703 6.36148e-20 0.245247)
(-1.96534 -2.93992e-20 0.267899)
(-2.03549 -4.1735e-20 0.282908)
(-2.10036 1.375e-20 0.286041)
(-2.16052 -6.49212e-20 0.277442)
(-2.21422 -4.76052e-20 0.257163)
(-2.25993 1.21234e-20 0.223343)
(-2.2977 0 0.173516)
(-2.32909 0 0.106587)
(-2.35602 0 0.0241632)
(-2.37962 2.45093e-21 -0.0692982)
(-2.39945 3.8225e-20 -0.167015)
(-2.42204 -3.33291e-20 -0.261241)
(-2.4489 3.18418e-20 -0.344236)
(-2.47921 1.35565e-20 -0.409407)
(-2.49828 3.2729e-21 -0.448406)
(-0.159919 -2.18529e-18 -0.185789)
(-0.355765 1.34263e-18 -0.158232)
(-0.481686 -6.81296e-19 -0.105944)
(-0.663623 4.76432e-19 -0.0147243)
(-0.864188 -7.16466e-21 0.0701937)
(-1.05441 -5.4183e-20 0.135093)
(-1.2073 0 0.166635)
(-1.34709 1.83715e-19 0.18561)
(-1.47478 7.98509e-20 0.199035)
(-1.59139 -1.67893e-19 0.210166)
(-1.6972 1.55921e-19 0.221918)
(-1.79383 -7.26856e-20 0.235649)
(-1.88296 3.5114e-19 0.251454)
(-1.96598 1.35121e-19 0.269592)
(-2.0428 -6.19056e-20 0.289272)
(-2.11291 0 0.307267)
(-2.17738 0 0.318401)
(-2.2383 0 0.319063)
(-2.29664 -5.93324e-20 0.308057)
(-2.35195 4.75444e-20 0.284482)
(-2.40363 5.58561e-20 0.246685)
(-2.45175 -5.13631e-21 0.192888)
(-2.49701 4.55051e-21 0.12245)
(-2.54014 2.36527e-20 0.0369933)
(-2.58113 2.07062e-21 -0.0590041)
(-2.61879 4.2914e-20 -0.158598)
(-2.65764 3.02499e-20 -0.253896)
(-2.69893 -3.13037e-20 -0.337519)
(-2.7396 -1.16631e-20 -0.401847)
(-2.76269 -3.4152e-21 -0.43889)
(-0.188591 1.4204e-18 -0.159393)
(-0.424816 0 -0.0554833)
(-0.61881 0 0.0356678)
(-0.846307 0 0.146326)
(-1.04054 -5.02302e-20 0.209895)
(-1.20969 1.59078e-19 0.242313)
(-1.36384 0 0.261029)
(-1.50214 -8.91396e-20 0.269815)
(-1.62482 -1.66483e-19 0.273351)
(-1.73319 2.41572e-19 0.276042)
(-1.82901 -2.29239e-19 0.28068)
(-1.9146 0 0.288758)
(-1.99231 -1.38804e-19 0.300426)
(-2.06398 -1.32282e-19 0.315238)
(-2.13062 -3.11894e-20 0.331683)
(-2.19297 5.96548e-20 0.346505)
(-2.25241 -5.52528e-20 0.355363)
(-2.31062 3.8386e-20 0.354837)
(-2.36863 2.39548e-20 0.342963)
(-2.42666 1.07343e-20 0.318235)
(-2.4847 -1.05938e-19 0.278981)
(-2.54306 -6.11929e-20 0.223672)
(-2.60213 -4.47953e-20 0.151736)
(-2.66184 -2.97213e-20 0.0645713)
(-2.72117 -3.11916e-20 -0.0335905)
(-2.77806 -2.08298e-20 -0.135806)
(-2.83126 -3.01511e-20 -0.23402)
(-2.88626 2.09154e-22 -0.319645)
(-2.93631 -1.19942e-20 -0.384796)
(-2.96297 1.98276e-23 -0.421163)
(-0.222758 1.85254e-20 -0.0828041)
(-0.49302 1.021e-18 0.109845)
(-0.723183 -9.35428e-19 0.229878)
(-0.942895 -4.76441e-19 0.298784)
(-1.14043 9.67569e-19 0.338714)
(-1.31679 -3.34268e-19 0.357974)
(-1.47221 -1.93501e-19 0.361985)
(-1.60644 8.73882e-20 0.356548)
(-1.72078 0 0.34752)
(-1.81793 0 0.339885)
(-1.90111 7.50419e-20 0.336611)
(-1.97361 7.45034e-20 0.338848)
(-2.03842 0 0.346427)
(-2.09799 -1.39842e-19 0.358391)
(-2.15416 0 0.372723)
(-2.20847 1.2288e-19 0.386062)
(-2.26249 1.31099e-20 0.394362)
(-2.31768 -1.29077e-20 0.394171)
(-2.37503 -8.19094e-20 0.383072)
(-2.43507 0 0.359204)
(-2.4983 6.61035e-20 0.320838)
(-2.56538 9.75865e-20 0.266458)
(-2.63679 4.91102e-20 0.195259)
(-2.71214 -2.00226e-20 0.108056)
(-2.78967 3.02597e-20 0.0083777)
(-2.86632 -2.0728e-20 -0.0971761)
(-2.93911 8.10946e-23 -0.199894)
(-3.00785 -1.07103e-22 -0.28973)
(-3.06721 -1.23207e-20 -0.357656)
(-3.09737 -6.21e-23 -0.394626)
(-0.209719 -3.19702e-19 0.115034)
(-0.489201 0 0.311426)
(-0.755434 -1.32965e-19 0.405618)
(-0.995685 -4.04068e-19 0.459769)
(-1.20505 4.54318e-19 0.482843)
(-1.38567 1.8405e-19 0.482418)
(-1.53835 -1.10569e-20 0.466356)
(-1.66404 -1.63693e-19 0.442564)
(-1.7656 0 0.418326)
(-1.84754 0 0.399082)
(-1.91481 -7.48853e-20 0.387617)
(-1.97171 7.65694e-20 0.38437)
(-2.02178 0 0.388478)
(-2.0679 2.83665e-19 0.398504)
(-2.11252 1.37429e-19 0.412121)
(-2.1577 -9.26943e-20 0.425772)
(-2.2051 -4.20416e-20 0.43531)
(-2.25588 1.83083e-21 0.437082)
(-2.31083 1.67779e-19 0.428404)
(-2.37065 6.0349e-20 0.407305)
(-2.4363 -3.3763e-21 0.372102)
(-2.50911 -3.90217e-20 0.321239)
(-2.59011 -2.06236e-21 0.253506)
(-2.67921 1.92469e-20 0.168837)
(-2.77464 1.40044e-20 0.0695563)
(-2.87235 -3.76731e-22 -0.0388144)
(-2.96727 2.6265e-22 -0.147594)
(-3.054 3.92805e-20 -0.245576)
(-3.12321 2.27745e-20 -0.318993)
(-3.15713 0 -0.358007)
(-0.179134 0 0.247079)
(-0.462408 0 0.54872)
(-0.764858 0 0.616496)
(-1.02452 -5.86346e-20 0.645214)
(-1.24126 -1.83964e-19 0.640936)
(-1.42097 1.01442e-19 0.612564)
(-1.56529 -1.49712e-19 0.570026)
(-1.67645 7.87748e-20 0.52336)
(-1.75932 0 0.481292)
(-1.82075 0 0.449665)
(-1.86788 7.55311e-20 0.43058)
(-1.90618 -6.97482e-20 0.423035)
(-1.93924 0 0.424929)
(-1.97 -1.44848e-19 0.43437)
(-2.00133 -1.37612e-19 0.448961)
(-2.03567 0 0.464839)
(-2.07448 -1.2662e-19 0.477405)
(-2.11838 1.04964e-19 0.48267)
(-2.16764 -1.48738e-19 0.477851)
(-2.22289 -1.02334e-19 0.461185)
(-2.28551 -2.26822e-20 0.431319)
(-2.35782 -2.38086e-22 0.386795)
(-2.44208 1.02769e-20 0.32596)
(-2.53944 0 0.24759)
(-2.64927 -1.38718e-20 0.152185)
(-2.76728 -1.57096e-22 0.0432475)
(-2.88587 1.56023e-22 -0.071687)
(-2.99546 -3.91727e-20 -0.180089)
(-3.08075 5.05873e-20 -0.264972)
(-3.11998 -2.68189e-20 -0.309143)
(-0.0814277 0 0.920548)
(-0.377901 0 0.803169)
(-0.76894 -5.3482e-19 0.857487)
(-1.03714 4.17417e-19 0.842151)
(-1.2553 0 0.801566)
(-1.42807 7.5699e-20 0.737844)
(-1.55632 0 0.663116)
(-1.64421 2.36666e-21 0.590101)
(-1.69972 6.36442e-20 0.529206)
(-1.73322 0 0.486665)
(-1.75468 0 0.462966)
(-1.77065 -1.54671e-19 0.454053)
(-1.78402 4.01231e-20 0.455656)
(-1.79693 -6.08491e-22 0.465863)
(-1.81263 -3.82692e-20 0.483041)
(-1.83389 1.58921e-20 0.502918)
(-1.86159 1.12405e-19 0.519944)
(-1.89515 -1.46116e-20 0.529667)
(-1.93379 7.00088e-20 0.529427)
(-1.97759 4.51399e-20 0.518076)
(-2.02821 3.80187e-20 0.495109)
(-2.08891 0 0.45958)
(-2.16378 -1.01678e-20 0.409671)
(-2.25647 0 0.342945)
(-2.36916 0 0.257304)
(-2.49964 0 0.152839)
(-2.63932 8.04795e-20 0.034308)
(-2.77291 2.72559e-22 -0.085621)
(-2.87634 -5.12425e-20 -0.185519)
(-2.92447 2.67741e-20 -0.240711)
(0.229685 1.23843e-18 0.161332)
(-0.533984 4.4511e-21 1.06303)
(-0.784394 -2.85063e-19 1.1721)
(-1.05008 -4.87041e-20 1.1184)
(-1.25808 0 1.02864)
(-1.4149 -3.14066e-20 0.902143)
(-1.51556 0 0.770786)
(-1.56707 0 0.653851)
(-1.58208 0 0.564802)
(-1.57653 0 0.509507)
(-1.56495 0 0.48313)
(-1.55449 0 0.474383)
(-1.54501 0 0.475815)
(-1.53639 0 0.487262)
(-1.53287 -1.71876e-19 0.509234)
(-1.53838 0 0.535773)
(-1.55238 1.1207e-19 0.558966)
(-1.57182 -1.72891e-19 0.573696)
(-1.59388 -2.88497e-21 0.577785)
(-1.61735 2.85468e-21 0.571275)
(-1.64368 -1.06755e-20 0.555311)
(-1.67681 -1.40077e-22 0.530078)
(-1.72244 0 0.494311)
(-1.78706 -6.74399e-20 0.445203)
(-1.87662 8.35096e-20 0.37837)
(-1.99412 -1.23831e-21 0.289735)
(-2.13534 -8.308e-20 0.178053)
(-2.28344 -6.80706e-22 0.0520002)
(-2.4039 6.76981e-22 -0.0661372)
(-2.46042 4.42717e-20 -0.143138)
(9.99912 -4.39504e-18 0.0899436)
(9.98716 -4.223e-18 0.176823)
(9.96804 -5.58865e-19 0.262113)
(9.94317 5.71402e-19 0.347632)
(9.91326 1.16395e-18 0.434883)
(9.87823 3.60324e-18 0.525256)
(9.83815 -2.46054e-18 0.620064)
(9.79368 0 0.720472)
(9.74537 2.56531e-18 0.827607)
(9.69355 -2.60265e-18 0.942684)
(9.63872 0 1.06697)
(9.58154 -1.34585e-18 1.20176)
(9.52254 -4.13492e-18 1.34847)
(9.46252 9.76639e-18 1.50863)
(9.40226 -1.12794e-17 1.68389)
(9.34301 5.68405e-18 1.87613)
(9.28632 -4.31467e-18 2.08755)
(9.23375 1.44407e-18 2.3207)
(9.18748 5.73492e-18 2.57862)
(9.15017 0 2.86492)
(9.12528 -2.76728e-18 3.18394)
(9.11734 0 3.54113)
(9.13234 5.17606e-18 3.94355)
(9.17803 0 4.40022)
(9.26721 -4.70363e-18 4.92167)
(9.40499 1.65579e-17 5.52638)
(9.65886 -7.52696e-18 6.21872)
(9.90295 -2.757e-18 7.08604)
(10.9232 5.03167e-19 7.94327)
(12.128 2.78604e-18 10.9935)
(9.99953 0 0.0932656)
(9.98852 0 0.183394)
(9.97125 0 0.27191)
(9.9491 -1.65667e-18 0.360612)
(9.9225 -2.84248e-18 0.451031)
(9.89138 0 0.544629)
(9.85601 2.36376e-18 0.642681)
(9.81704 -1.19907e-18 0.746303)
(9.77498 -1.23092e-18 0.85664)
(9.73025 0 0.974897)
(9.68344 0 1.1023)
(9.63519 5.19622e-18 1.24012)
(9.58625 -2.62647e-18 1.38972)
(9.53747 0 1.55257)
(9.48982 2.71347e-18 1.73025)
(9.44464 -5.40953e-18 1.92447)
(9.40348 -6.80502e-18 2.13726)
(9.3682 2.74492e-18 2.37102)
(9.34124 4.53697e-21 2.62857)
(9.32554 -5.31501e-18 2.91316)
(9.32494 1.57019e-17 3.2286)
(9.34428 -1.0193e-17 3.5796)
(9.39038 -1.92877e-17 3.97213)
(9.47219 1.82223e-17 4.41342)
(9.60339 -1.68331e-17 4.91137)
(9.79356 -7.27189e-18 5.47709)
(10.1025 1.32535e-17 6.11091)
(10.4428 0 6.8358)
(11.1651 -4.42392e-18 7.52395)
(12.0733 0 8.65813)
(10 3.8665e-18 0.096324)
(9.98993 1.27717e-19 0.189421)
(9.97461 4.18361e-18 0.280851)
(9.95535 1.14233e-20 0.372429)
(9.93219 -1.10021e-18 0.465713)
(9.90515 -1.11714e-18 0.562175)
(9.87472 -3.4457e-18 0.663056)
(9.84145 3.50916e-18 0.769451)
(9.80581 0 0.882499)
(9.76832 -2.40785e-18 1.00338)
(9.72963 -2.44425e-18 1.13326)
(9.69047 1.2259e-18 1.27336)
(9.65166 -2.52333e-18 1.42498)
(9.61409 -2.55329e-18 1.58951)
(9.57901 7.70291e-18 1.76842)
(9.54786 0 1.96326)
(9.52214 2.5552e-18 2.17587)
(9.50396 -2.54343e-18 2.40839)
(9.4959 7.63807e-18 2.6633)
(9.50122 -5.02084e-18 2.94338)
(9.52397 -2.35272e-18 3.25173)
(9.56901 0 3.59199)
(9.64371 8.99663e-18 3.96856)
(9.75729 8.27386e-18 4.38623)