/*--------------------------------*- C++ -*----------------------------------*\
| =========                 |                                                 |
| \\      /  F ield         | OpenFOAM: The Open Source CFD Toolbox           |
|  \\    /   O peration     | Version:  5.x                                   |
|   \\  /    A nd           | Web:      www.OpenFOAM.org                      |
|    \\/     M anipulation  |                                                 |
\*---------------------------------------------------------------------------*/
FoamFile
{
    version     2.0;
    format      ascii;
    class       volVectorField;
    location    "0.9";
    object      U;
}
// * * * * * * * * * * * * * * * * * * * * * * * * * * * * * * * * * * * * * //

dimensions      [0 1 -1 0 0 0 0];

internalField   nonuniform List<vector> 
2790
(
(9.92923 0.0201582 1.47078e-19)
(9.86239 0.027524 0)
(9.76569 0.0324446 -1.54714e-19)
(9.64526 0.0376737 0)
(9.50911 0.0431646 8.21175e-20)
(9.35942 0.0488329 -8.47475e-20)
(9.19568 0.0547896 0)
(9.01707 0.0611865 -9.05529e-20)
(8.823 0.0681416 -9.37693e-20)
(8.61288 0.0757498 1.95259e-19)
(8.38591 0.0841238 -2.01188e-19)
(8.14115 0.0933891 -3.16937e-19)
(7.87755 0.103669 4.35604e-19)
(7.59393 0.115097 -2.28192e-19)
(7.28903 0.127821 -7.18335e-19)
(6.96154 0.141995 4.97592e-19)
(6.6101 0.157773 7.93489e-19)
(6.23334 0.175298 -1.09997e-18)
(5.83002 0.19469 0)
(5.39903 0.216037 0)
(4.93959 0.23937 0)
(4.45128 0.264631 0)
(3.93431 0.291637 0)
(3.38965 0.320034 0)
(2.81929 0.349214 -4.33162e-19)
(2.22654 0.378183 0)
(1.61603 0.405102 -1.0177e-18)
(0.994973 0.423369 8.85367e-18)
(0.339343 0.35854 -8.35452e-18)
(-0.162416 -0.407037 0)
(9.99197 0.038728 -1.46821e-19)
(9.98362 0.0560405 0)
(9.94761 0.0688054 -1.28785e-22)
(9.88585 0.0826222 3.14642e-19)
(9.80525 0.0974463 -2.42121e-19)
(9.70829 0.11303 2.49196e-19)
(9.59474 0.129593 5.14029e-19)
(9.46397 0.147481 -2.6338e-19)
(9.31555 0.166967 -9.08133e-20)
(9.14898 0.188275 0)
(8.9635 0.21167 0)
(8.75828 0.237438 -1.00545e-19)
(8.53235 0.265859 -1.25442e-18)
(8.28456 0.297226 1.07849e-18)
(8.01367 0.331851 2.25237e-19)
(7.71834 0.370039 0)
(7.39714 0.412057 2.45026e-19)
(7.04859 0.458104 0)
(6.67125 0.508262 -5.3663e-19)
(6.26374 0.562451 5.10513e-18)
(5.82488 0.620359 4.87776e-20)
(5.35378 0.681332 -5.63161e-18)
(4.84994 0.744249 4.688e-18)
(4.31355 0.807368 6.44219e-18)
(3.7456 0.868012 -1.24142e-17)
(3.14856 0.922061 1.61373e-18)
(2.52682 0.962319 8.67435e-19)
(1.88877 0.972613 0)
(1.19881 0.910362 -1.0026e-18)
(0.764962 0.694022 3.79845e-17)
(9.98903 0.0388014 0)
(9.97792 0.0645409 0)
(9.94418 0.0863525 -3.05726e-19)
(9.88704 0.109394 0)
(9.81217 0.134029 -3.22384e-19)
(9.72231 0.160085 1.64544e-19)
(9.61741 0.187867 1.69643e-19)
(9.49697 0.21787 0)
(9.36073 0.25052 -1.82681e-19)
(9.20827 0.286207 -1.12131e-18)
(9.03892 0.325367 1.14341e-18)
(8.85206 0.368461 0)
(8.64691 0.415968 8.17967e-19)
(8.42244 0.4684 0)
(8.17759 0.526303 4.38471e-19)
(7.91113 0.590231 0)
(7.62173 0.660693 0)
(7.3079 0.738106 4.92167e-19)
(6.96808 0.822721 5.14562e-19)
(6.60064 0.914541 8.0952e-18)
(6.20393 1.01324 -8.94103e-18)
(5.77626 1.11796 -8.87653e-18)
(5.31591 1.22711 5.30279e-19)
(4.82137 1.33809 9.72932e-18)
(4.29111 1.44678 6.89485e-19)
(3.72361 1.54688 -2.91537e-18)
(3.11619 1.62858 0)
(2.46393 1.67484 0)
(1.7061 1.6641 1.77674e-18)
(1.02326 1.56324 2.06935e-18)
(9.98725 0.0427617 -5.85537e-19)
(9.97378 0.078302 0)
(9.93987 0.110267 -1.7049e-22)
(9.88376 0.142705 -7.53083e-22)
(9.81028 0.176636 3.19911e-19)
(9.72221 0.212268 -3.28596e-19)
(9.61964 0.250091 -3.72298e-22)
(9.50219 0.290752 0)
(9.36974 0.334824 -7.13915e-19)
(9.22199 0.382868 1.47617e-18)
(9.05857 0.435475 3.90598e-19)
(8.8791 0.493273 -1.55592e-18)
(8.68299 0.556926 2.83573e-18)
(8.46956 0.627149 -3.31661e-18)
(8.23803 0.704712 3.89033e-18)
(7.98755 0.790424 -3.54843e-18)
(7.71715 0.885071 0)
(7.42568 0.989366 -4.79617e-19)
(7.11188 1.10386 9.92103e-19)
(6.77422 1.22883 7.27844e-18)
(6.41106 1.36424 -9.63565e-18)
(6.0204 1.50947 0)
(5.59963 1.66303 -1.16585e-18)
(5.1458 1.82233 -1.21841e-18)
(4.65487 1.98326 -1.27597e-18)
(4.12094 2.13963 -2.0235e-17)
(3.53517 2.28331 -2.93269e-18)
(2.88637 2.4033 2.3996e-17)
(2.11954 2.49291 -1.6017e-18)
(1.29172 2.58506 -3.63283e-18)
(9.9864 0.0481441 1.16979e-18)
(9.97145 0.0918064 0)
(9.93719 0.132519 -3.03551e-19)
(9.88193 0.173432 -9.33269e-19)
(9.80988 0.21596 0)
(9.72357 0.260671 3.27186e-19)
(9.62308 0.308227 -1.00619e-18)
(9.50816 0.359349 0)
(9.37873 0.41468 3.54177e-19)
(9.23459 0.474875 1.82509e-18)
(9.07552 0.540633 -7.44382e-19)
(8.90129 0.612709 7.7005e-19)
(8.71145 0.6919 -7.93347e-19)
(8.5055 0.779047 -8.17914e-19)
(8.28292 0.875071 -1.69034e-18)
(8.04317 0.980968 -8.71119e-19)
(7.7856 1.09774 8.99905e-19)
(7.50945 1.22635 -7.49661e-18)
(7.21388 1.36766 6.71514e-18)
(6.89768 1.52231 9.03044e-18)
(6.55925 1.69068 -7.2037e-18)
(6.19683 1.87274 0)
(5.80751 2.06748 2.1225e-17)
(5.38759 2.27307 -1.9582e-17)
(4.93172 2.48656 1.20794e-18)
(4.43169 2.70348 1.76109e-17)
(3.87613 2.91896 -1.82699e-17)
(3.25333 3.12831 4.12229e-17)
(2.54085 3.31916 -4.59824e-17)
(1.60869 3.60768 -4.65327e-17)
(9.98606 0.0542264 -1.75089e-18)
(9.97025 0.105421 0)
(9.93591 0.154497 6.06731e-19)
(9.88174 0.20389 6.20471e-19)
(9.81143 0.255074 1.27021e-18)
(9.72715 0.308857 6.4912e-22)
(9.62906 0.366055 6.66919e-19)
(9.51705 0.427449 -1.37096e-18)
(9.39104 0.493736 6.98153e-19)
(9.25088 0.565653 2.89113e-18)
(9.09643 0.644004 -3.69072e-18)
(8.92753 0.72967 -3.81716e-18)
(8.74392 0.823592 7.82673e-18)
(8.54514 0.926725 -1.59792e-18)
(8.33076 1.04009 8.30826e-19)
(8.10049 1.16482 8.56092e-19)
(7.85394 1.30213 -8.82534e-19)
(7.59057 1.45317 7.29736e-18)
(7.30988 1.6191 -7.45851e-18)
(7.01096 1.80096 -1.74525e-17)
(6.69235 1.99959 1.38975e-17)
(6.35274 2.21564 2.04976e-18)
(5.98939 2.44907 -4.24962e-18)
(5.59818 2.69903 2.2051e-18)
(5.17403 2.96424 -2.25588e-18)
(4.70883 3.2424 3.99486e-17)
(4.19138 3.53067 -3.87359e-17)
(3.60693 3.8291 2.52906e-18)
(2.99276 4.09646 -2.57622e-18)
(1.97268 4.55453 -5.13221e-17)
(9.9859 0.0606418 1.47266e-19)
(9.96978 0.1191 -4.44177e-19)
(9.93574 0.176104 3.02058e-19)
(9.88286 0.233657 -6.16889e-19)
(9.81461 0.293218 -2.52805e-18)
(9.73272 0.355766 -6.51859e-19)
(9.63741 0.422247 1.32043e-18)
(9.52879 0.493522 0)
(9.40676 0.570354 6.95464e-19)
(9.27117 0.653559 -2.85942e-18)
(9.12195 0.744029 3.64383e-18)
(8.95901 0.842748 2.26362e-18)
(8.78219 0.950808 2.12571e-20)
(8.59109 1.06927 -3.94598e-18)
(8.38536 1.19921 0)
(8.16484 1.34186 0)
(7.9293 1.4986 0)
(7.67844 1.6708 0)
(7.41177 1.85987 0)
(7.12867 2.06729 1.87442e-18)
(6.82802 2.29428 1.92767e-18)
(6.50883 2.54223 -1.9822e-18)
(6.16889 2.81219 2.03099e-20)
(5.80416 3.1044 3.34118e-17)
(5.41032 3.4191 -3.19866e-17)
(4.98092 3.75589 3.73256e-17)
(4.50711 4.11204 -7.18882e-17)
(3.96378 4.49259 3.90799e-17)
(3.46906 4.80879 4.22201e-17)
(2.37087 5.3968 2.32381e-18)
(9.98575 0.0671835 2.32385e-18)
(9.96984 0.13269 0)
(9.93646 0.197226 6.02374e-19)
(9.88507 0.262587 6.14952e-19)
(9.8191 0.330243 -1.25701e-18)
(9.73994 0.401287 1.92321e-18)
(9.64786 0.476736 0)
(9.54311 0.557529 6.71048e-19)
(9.42558 0.644515 2.07275e-18)
(9.29514 0.738576 -5.63619e-18)
(9.1518 0.840682 5.05114e-18)
(8.99548 0.95191 -2.20715e-18)
(8.82597 1.07346 -7.59367e-19)
(8.64327 1.20652 6.24102e-18)
(8.44709 1.35222 -4.76033e-18)
(8.23711 1.51191 1.62926e-18)
(8.01331 1.6871 -1.67007e-18)
(7.77556 1.87937 -1.37961e-17)
(7.52332 2.09041 -1.0769e-19)
(7.25625 2.32204 1.43777e-17)
(6.97367 2.57599 -1.66654e-17)
(6.67434 2.85411 1.50741e-17)
(6.35705 3.15859 3.48665e-17)
(6.01881 3.4909 -6.31519e-17)
(5.65556 3.85214 -8.61532e-20)
(5.26235 4.24316 3.0712e-17)
(4.83495 4.66003 0)
(4.32972 5.11508 -3.36383e-17)
(3.95461 5.46275 1.00335e-16)
(2.78483 6.1461 -1.48469e-16)
(9.98567 0.0737153 -1.1597e-18)
(9.9703 0.146034 1.76369e-18)
(9.93793 0.217767 -5.99353e-19)
(9.88822 0.290607 -6.12103e-19)
(9.82461 0.366037 6.24973e-19)
(9.74847 0.445241 1.27653e-18)
(9.66005 0.529296 -3.25723e-18)
(9.55958 0.619207 6.62068e-19)
(9.447 0.715903 -2.04921e-18)
(9.32225 0.820324 4.8756e-18)
(9.1854 0.933528 7.28726e-19)
(9.03634 1.05669 2.21651e-18)
(8.87493 1.19102 -5.94248e-18)
(8.7015 1.33785 0)
(8.51573 1.49849 -3.12033e-18)
(8.3172 1.67433 -1.60066e-18)
(8.10612 1.86702 -1.30943e-17)
(7.88231 2.07833 1.32994e-17)
(7.64542 2.31022 0)
(7.39545 2.56486 0)
(7.13193 2.84446 1.4255e-17)
(6.85346 3.15127 -3.07133e-17)
(6.5595 3.4883 1.28275e-17)
(6.24863 3.85839 -1.85343e-18)
(5.9172 4.26323 -1.87554e-18)
(5.56043 4.70421 -3.0539e-17)
(5.18045 5.17517 3.08516e-17)
(4.70903 5.699 -1.95052e-18)
(4.4452 6.07251 0)
(3.20892 6.83761 -1.03033e-18)
(9.98569 0.0801342 0)
(9.97102 0.159018 -5.87151e-19)
(9.93989 0.237633 -5.96777e-19)
(9.89208 0.31762 -1.21546e-18)
(9.83115 0.400472 3.46162e-21)
(9.75835 0.487462 -1.89857e-18)
(9.67388 0.57973 -1.94363e-18)
(9.57804 0.678328 2.63341e-18)
(9.47086 0.784241 0)
(9.35235 0.898475 2.06235e-18)
(9.22256 1.02218 -7.03861e-19)
(9.08148 1.15661 5.04544e-18)
(8.92906 1.30302 -7.30417e-18)
(8.76554 1.46278 -7.49637e-18)
(8.59079 1.63743 1.37487e-17)
(8.4046 1.82847 -6.21176e-18)
(8.20724 2.03763 1.43478e-17)
(7.99842 2.26687 -1.12998e-17)
(7.77813 2.51839 1.64088e-18)
(7.54656 2.7947 1.17797e-17)
(7.30338 3.09851 1.7749e-18)
(7.04773 3.43259 -1.37592e-17)
(6.7791 3.80038 0)
(6.49694 4.20572 3.5234e-18)
(6.19891 4.6513 3.01159e-17)
(5.87959 5.13913 -1.87356e-18)
(5.5477 5.65952 -2.8505e-17)
(5.10708 6.24872 0)
(4.94433 6.65089 -1.75719e-18)
(3.64405 7.49231 6.19246e-17)
(9.98576 0.08637 0)
(9.97191 0.171564 -5.8387e-19)
(9.94222 0.256732 -5.92801e-19)
(9.8966 0.343498 -2.40684e-23)
(9.83862 0.433399 2.46728e-18)
(9.76939 0.527807 0)
(9.68912 0.627881 -1.27994e-18)
(9.5983 0.734683 1.30486e-18)
(9.49698 0.849262 0)
(9.38523 0.972713 -2.71806e-18)
(9.26307 1.10627 0)
(9.13053 1.25127 1.41596e-18)
(8.98774 1.40898 -4.33356e-18)
(8.83478 1.58083 7.3216e-18)
(8.67176 1.76851 1.48893e-18)
(8.49883 1.97366 1.06845e-17)
(8.31606 2.19813 7.13328e-20)
(8.12335 2.44404 -2.67029e-17)
(7.92111 2.71382 1.11132e-17)
(7.70939 3.01026 1.62249e-18)
(7.48816 3.33656 1.62163e-18)
(7.25729 3.69607 1.65684e-18)
(7.01649 4.09269 -2.64828e-17)
(6.76528 4.53085 2.32353e-17)
(6.50286 5.01439 0)
(6.22303 5.5468 1.66578e-18)
(5.94039 6.11447 2.75724e-17)
(5.5298 6.76858 -2.75319e-17)
(5.45513 7.21127 -4.93848e-17)
(4.09162 8.12676 5.61916e-17)
(9.98589 0.0923699 0)
(9.97298 0.183593 -5.81476e-19)
(9.94498 0.27497 1.18365e-18)
(9.90175 0.368145 6.01522e-19)
(9.84677 0.464713 0)
(9.78128 0.566125 1.24635e-18)
(9.70568 0.673542 1.27304e-18)
(9.62031 0.788027 -1.29668e-18)
(9.52525 0.91069 1.31577e-18)
(9.42068 1.04273 2.68464e-18)
(9.30654 1.18547 1.36332e-18)
(9.18297 1.34028 -6.96469e-18)
(9.05041 1.50848 7.05409e-18)
(8.90871 1.69152 1.43355e-18)
(8.75813 1.89116 -1.46591e-18)
(8.59928 2.10924 1.12838e-20)
(8.43195 2.34767 0)
(8.25661 2.6088 1.22064e-17)
(8.07368 2.89523 -1.4836e-18)
(7.88316 3.20997 -1.23998e-17)
(7.68584 3.55674 -1.57233e-18)
(7.48182 3.93933 -2.50777e-17)
(7.27133 4.36223 5.01222e-17)
(7.05418 4.83054 -2.34115e-17)
(6.83054 5.34914 0)
(6.59333 5.92392 0)
(6.36269 6.53942 2.36928e-17)
(5.98577 7.26156 2.4249e-17)
(5.98587 7.76947 -4.75226e-17)
(4.56447 8.78215 7.5596e-19)
(9.98605 0.0980871 0)
(9.9742 0.195025 -5.78992e-19)
(9.94805 0.292262 1.17723e-18)
(9.90737 0.391491 -6.00971e-19)
(9.85556 0.494326 2.43594e-18)
(9.79412 0.602264 -3.72272e-18)
(9.72352 0.716513 1.25878e-18)
(9.64391 0.838153 0)
(9.55543 0.968329 5.72397e-21)
(9.45829 1.10833 -6.63201e-18)
(9.35247 1.25955 6.74053e-18)
(9.23839 1.42335 -2.72506e-18)
(9.11657 1.60113 -1.39367e-18)
(8.98671 1.79437 -2.81918e-18)
(8.84933 2.00484 0)
(8.70522 2.23452 2.89269e-18)
(8.55426 2.48545 -1.4556e-18)
(8.39742 2.76015 -1.18254e-17)
(8.23493 3.06135 1.33666e-17)
(8.06703 3.39222 0)
(7.89545 3.75694 0)
(7.72054 4.15972 2.53261e-17)
(7.54291 4.60547 -2.37423e-17)
(7.36319 5.10025 -2.47888e-17)
(7.18241 5.65017 2.45353e-17)
(6.99303 6.26443 0)
(6.82026 6.92969 -4.3446e-20)
(6.48953 7.72509 -1.29475e-18)
(6.55922 8.33882 6.43017e-19)
(5.09435 9.52577 6.17051e-19)
(9.98622 0.103492 0)
(9.97549 0.205805 -1.15144e-18)
(9.95133 0.308537 0)
(9.91337 0.413443 -1.19174e-18)
(9.86503 0.522115 -1.21115e-18)
(9.80786 0.636087 -3.31792e-21)
(9.74238 0.756652 -1.25128e-18)
(9.66871 0.884904 5.07865e-18)
(9.58707 1.022 -2.56909e-18)
(9.49765 1.16929 -5.24743e-18)
(9.40055 1.32822 5.30321e-18)
(9.29643 1.50014 -1.3509e-18)
(9.18566 1.68651 -1.36074e-18)
(9.06818 1.88888 6.92531e-18)
(8.94475 2.10897 -6.96991e-18)
(8.81602 2.34882 -1.41673e-18)
(8.68235 2.61064 1.28216e-17)
(8.54467 2.897 -1.00061e-17)
(8.40353 3.21081 1.00621e-17)
(8.25996 3.55541 2.90644e-21)
(8.11547 3.93486 -1.14534e-17)
(7.97158 4.35405 -2.84064e-18)
(7.82957 4.81835 1.38901e-18)
(7.69079 5.3344 2.90371e-20)
(7.55789 5.90999 -2.6782e-18)
(7.42411 6.55781 0)
(7.31966 7.27154 -2.08478e-17)
(7.063 8.14081 2.04739e-17)
(7.22214 8.9103 1.73132e-17)
(5.74322 10.4506 -2.20569e-17)
(9.98641 0.108566 -2.2655e-18)
(9.97688 0.215895 1.14929e-18)
(9.9548 0.32373 0)
(9.91978 0.4339 0)
(9.87513 0.547984 1.20298e-18)
(9.8223 0.667528 -1.21903e-18)
(9.76201 0.793888 0)
(9.69451 0.928168 -1.25453e-18)
(9.62001 1.07155 2.5504e-18)
(9.53859 1.22545 1.28969e-18)
(9.45052 1.39129 0)
(9.35667 1.57045 5.31395e-18)
(9.2572 1.76439 -9.38376e-18)
(9.15258 1.97471 5.41009e-18)
(9.04362 2.20313 1.08738e-20)
(8.93075 2.45168 -9.65599e-18)
(8.81498 2.72272 2.21358e-17)
(8.69699 3.01873 -1.24852e-17)
(8.57797 3.34267 1.24916e-17)
(8.45997 3.69811 -1.10618e-17)
(8.34386 4.08871 0)
(8.23249 4.51973 1.36559e-18)
(8.12842 4.99696 -1.34139e-18)
(8.03393 5.52716 1.30838e-18)
(7.95418 6.1194 2.22942e-17)
(7.88506 6.78832 -1.93283e-17)
(7.86351 7.53747 1.77529e-17)
(7.72681 8.459 -1.73201e-17)
(8.03696 9.40898 1.51792e-17)
(6.58691 11.8011 -6.52545e-18)
(0.239712 -0.204289 7.12986e-20)
(0.266044 0.0265039 -4.6757e-18)
(0.133574 0.0941183 3.97326e-18)
(-0.116325 0.126626 -5.50329e-20)
(-0.479906 0.156768 -3.29656e-18)
(-0.951504 0.181485 2.86917e-18)
(-1.50828 0.198884 0)
(-2.12143 0.208799 0)
(-2.76429 0.211796 -1.01555e-18)
(-3.41562 0.208731 9.73836e-19)
(-4.05928 0.200402 0)
(-4.68273 0.187449 0)
(-5.27549 0.170443 -4.53413e-19)
(-5.82858 0.149861 2.8646e-19)
(-6.33273 0.126042 0)
(-6.77905 0.0992787 8.62308e-20)
(-7.15905 0.0698121 -8.4266e-20)
(-7.46419 0.0377765 0)
(-7.68571 0.00304765 -2.4485e-20)
(-7.81368 -0.0349846 0)
(-7.83942 -0.0780575 0)
(-7.75278 -0.129625 0)
(-7.533 -0.189685 0)
(-7.17064 -0.259358 0)
(-6.65117 -0.340818 -1.19029e-20)
(-5.95193 -0.4391 6.71075e-21)
(-5.03112 -0.567784 -4.3264e-21)
(-3.83243 -0.749534 4.6032e-21)
(-2.30738 -0.974204 0)
(-0.0389454 -1.04821 0)
(-0.0414817 -0.185124 9.07276e-18)
(-0.130877 0.0963214 2.63207e-19)
(-0.389286 0.230438 -2.27374e-19)
(-0.777198 0.336716 1.28098e-17)
(-1.28027 0.428279 -1.14853e-17)
(-1.87749 0.504162 6.26554e-19)
(-2.5417 0.563172 4.42594e-18)
(-3.24456 0.60525 -4.19784e-18)
(-3.96226 0.631329 0)
(-4.67658 0.642685 0)
(-5.37349 0.640424 3.65412e-19)
(-6.04262 0.625578 1.21995e-18)
(-6.67529 0.598995 8.90263e-21)
(-7.26341 0.561297 -1.0189e-18)
(-7.79841 0.512961 -1.99806e-19)
(-8.27196 0.454455 0)
(-8.67605 0.386269 -6.77542e-20)
(-9.00261 0.308824 0)
(-9.24349 0.222367 2.24054e-20)
(-9.39061 0.126585 0)
(-9.43715 0.0200303 -2.44661e-20)
(-9.37778 -0.0980546 5.1075e-20)
(-9.20435 -0.22781 0)
(-8.91275 -0.367893 0)
(-8.49756 -0.519047 3.11284e-20)
(-7.95323 -0.685327 -2.66772e-20)
(-7.26871 -0.88044 0)
(-6.43106 -1.12296 -6.40501e-21)
(-5.48966 -1.38272 4.1735e-21)
(-4.76931 -1.51822 -1.19149e-20)
(-0.09418 0.0162623 -1.79764e-17)
(-0.317543 0.331877 7.38606e-20)
(-0.6925 0.529508 1.37691e-17)
(-1.17962 0.688671 -1.80185e-19)
(-1.76646 0.82117 3.18186e-19)
(-2.42943 0.927954 -1.13953e-18)
(-3.14144 1.00799 0)
(-3.8772 1.06117 7.2579e-18)
(-4.61716 1.0889 -6.95795e-18)
(-5.34677 1.09289 -7.52773e-19)
(-6.055 1.07478 -1.00626e-18)
(-6.73363 1.03615 0)
(-7.37558 0.978225 -9.66073e-19)
(-7.97389 0.901956 1.98016e-18)
(-8.52117 0.808275 -1.48601e-18)
(-9.01006 0.69828 6.74721e-19)
(-9.43321 0.573166 6.41131e-20)
(-9.78313 0.43422 0)
(-10.0524 0.282892 1.43771e-19)
(-10.2342 0.12051 -1.43698e-19)
(-10.3214 -0.0526043 -2.60008e-20)
(-10.3123 -0.237311 -3.64304e-20)
(-10.2055 -0.435452 5.0468e-20)
(-9.99664 -0.644973 1.53579e-20)
(-9.68783 -0.864062 -1.52865e-20)
(-9.28333 -1.09257 -1.42477e-20)
(-8.78508 -1.33492 -1.8795e-20)
(-8.19297 -1.5956 2.83423e-20)
(-7.5594 -1.85664 -9.53303e-21)
(-7.14282 -2.05799 3.52196e-21)
(-0.0491747 0.311843 4.99424e-20)
(-0.357611 0.663757 0)
(-0.826119 0.905465 2.41838e-17)
(-1.38642 1.10342 -4.23677e-17)
(-2.02667 1.26536 1.89921e-17)
(-2.72357 1.39267 1.81371e-17)
(-3.45297 1.48548 -1.56333e-17)
(-4.19446 1.54472 0)
(-4.93343 1.57255 7.81733e-19)
(-5.65897 1.57112 -4.01334e-18)
(-6.36309 1.54244 5.89636e-18)
(-7.0393 1.48832 0)
(-7.68144 1.41 4.74171e-19)
(-8.28325 1.30841 1.96265e-19)
(-8.83807 1.18442 8.14278e-19)
(-9.33897 1.03906 -1.15049e-18)
(-9.77883 0.873306 5.16165e-19)
(-10.1504 0.68826 -7.59591e-20)
(-10.4466 0.485191 1.63829e-19)
(-10.6615 0.265628 -9.56508e-20)
(-10.7904 0.0304296 1.33066e-19)
(-10.8275 -0.221328 0)
(-10.7778 -0.484624 5.35483e-21)
(-10.6409 -0.757677 2.1283e-20)
(-10.4212 -1.03702 -2.10163e-20)
(-10.1267 -1.31953 1.53111e-21)
(-9.76455 -1.60249 1.18879e-20)
(-9.33986 -1.88231 6.6938e-21)
(-8.8999 -2.15051 -4.32337e-21)
(-8.63091 -2.37086 6.92384e-21)
(0.064089 0.687587 -9.86618e-20)
(-0.285951 1.07592 -2.65457e-17)
(-0.8277 1.34757 -8.79766e-20)
(-1.43873 1.56873 0)
(-2.10995 1.74645 -1.091e-18)
(-2.81909 1.88275 1.45217e-17)
(-3.54651 1.97902 -1.47519e-17)
(-4.27714 2.03706 -8.15209e-19)
(-5.00107 2.05931 -7.507e-19)
(-5.71086 2.04782 -1.33651e-20)
(-6.40087 2.00436 -5.88412e-19)
(-7.06587 1.93036 5.15976e-19)
(-7.70048 1.82681 1.68434e-18)
(-8.29884 1.69446 -1.00292e-18)
(-8.85478 1.53422 -5.00846e-19)
(-9.36165 1.34728 -1.06841e-18)
(-9.81265 1.13509 8.57389e-19)
(-10.2009 0.899435 -4.65179e-19)
(-10.5197 0.642544 0)
(-10.7636 0.367167 -4.0161e-20)
(-10.9286 0.0766174 -3.63569e-20)
(-11.0107 -0.225208 0)
(-11.0138 -0.538265 -2.81558e-20)
(-10.9411 -0.859435 1.12914e-20)
(-10.7979 -1.18262 -1.10805e-20)
(-10.5936 -1.50146 0)
(-10.3378 -1.80842 -1.00006e-20)
(-10.0394 -2.09671 0)
(-9.73911 -2.3618 -1.6065e-20)
(-9.56382 -2.5717 4.90978e-21)
(0.23792 1.138 2.98767e-17)
(-0.121322 1.55307 -2.41665e-17)
(-0.721002 1.8428 4.14978e-17)
(-1.36297 2.07321 -3.66856e-17)
(-2.04609 2.25419 1.77929e-17)
(-2.74984 2.38946 0)
(-3.4599 2.48177 0)
(-4.16665 2.53358 7.92344e-19)
(-4.86441 2.54724 6.19174e-18)
(-5.54884 2.5244 -5.98618e-18)
(-6.21621 2.46641 5.77137e-19)
(-6.86244 2.37426 -2.38655e-18)
(-7.48291 2.24865 1.40121e-18)
(-8.07222 2.09015 7.29901e-19)
(-8.62474 1.89955 -1.86739e-20)
(-9.13415 1.678 4.40572e-19)
(-9.59379 1.42693 -4.37369e-19)
(-9.99716 1.14823 6.72599e-20)
(-10.3376 0.844319 0)
(-10.6097 0.518442 4.0126e-20)
(-10.8093 0.175173 -4.59394e-20)
(-10.9336 -0.179818 3.10747e-20)
(-10.9836 -0.542353 8.97844e-21)
(-10.9675 -0.90908 -5.50255e-21)
(-10.8902 -1.27214 5.32161e-21)
(-10.7614 -1.62234 0)
(-10.5915 -1.94906 9.82304e-21)
(-10.3927 -2.24406 -3.76497e-21)
(-10.1986 -2.50343 1.27041e-20)
(-10.0897 -2.6973 0)
(0.465371 1.65348 0)
(0.122835 2.0796 0)
(-0.522962 2.3756 1.93437e-17)
(-1.17723 2.60261 -1.75208e-17)
(-1.85471 2.77627 -9.75251e-19)
(-2.53727 2.90254 1.40927e-17)
(-3.21657 2.98541 -2.64949e-17)
(-3.88832 3.02744 1.25119e-17)
(-4.55061 3.03044 -1.82717e-20)
(-5.20169 2.99541 5.32673e-18)
(-5.83945 2.92296 -9.29484e-18)
(-6.46085 2.81345 4.05956e-18)
(-7.06195 2.66705 -1.52498e-18)
(-7.63781 2.48396 1.14441e-18)
(-8.18322 2.26474 -1.31664e-18)
(-8.69236 2.01037 1.19795e-18)
(-9.15848 1.72232 -3.96572e-19)
(-9.57528 1.40278 4.40707e-20)
(-9.93628 1.05475 -1.27603e-19)
(-10.2356 0.682377 1.28666e-19)
(-10.4689 0.291399 1.30803e-20)
(-10.6338 -0.111042 -2.38259e-21)
(-10.7266 -0.517164 -4.40047e-21)
(-10.7618 -0.923095 5.56086e-21)
(-10.7427 -1.32003 4.46563e-21)
(-10.6784 -1.6962 -9.5627e-21)
(-10.58 -2.03878 0)
(-10.4624 -2.33826 4.10777e-21)
(-10.3524 -2.5901 -7.54196e-22)
(-10.2942 -2.76817 4.59159e-22)
(0.736744 2.21982 5.13077e-17)
(0.432617 2.64015 -4.17279e-17)
(-0.247345 2.9302 5.64615e-19)
(-0.895034 3.14195 0)
(-1.54983 3.29967 -1.48131e-17)
(-2.19636 3.41114 6.61416e-19)
(-2.8328 3.48091 1.32803e-17)
(-3.4598 3.51107 0)
(-4.07861 3.50252 -6.81391e-19)
(-4.68956 3.45539 -5.19013e-18)
(-5.29176 3.36946 5.0171e-18)
(-5.88306 3.24434 0)
(-6.46015 3.0796 0)
(-7.01877 2.87507 0)
(-7.55388 2.63096 0)
(-8.06011 2.34801 2.16389e-19)
(-8.53108 2.02762 0)
(-8.96032 1.67204 -1.13157e-19)
(-9.34129 1.28448 0)
(-9.66739 0.869487 0)
(-9.93341 0.433647 1.78682e-21)
(-10.1363 -0.0137766 1.44482e-20)
(-10.2716 -0.461035 9.41271e-20)
(-10.3533 -0.902423 -7.08264e-20)
(-10.3868 -1.32975 -5.65928e-21)
(-10.3792 -1.72889 0)
(-10.342 -2.08536 -5.74764e-21)
(-10.2921 -2.38826 8.91409e-21)
(-10.2511 -2.63214 -3.23146e-21)
(-10.2339 -2.79596 -3.92721e-21)
(1.04472 2.81792 -4.36605e-19)
(0.797595 3.21871 -8.34827e-19)
(0.0941947 3.49063 -3.59072e-17)
(-0.527408 3.67616 -9.80085e-19)
(-1.14262 3.81134 9.33671e-19)
(-1.73897 3.90429 8.50098e-19)
(-2.32159 3.95912 0)
(-2.89534 3.97683 -7.1926e-19)
(-3.46384 3.95711 0)
(-4.02887 3.8991 -5.05776e-18)
(-4.59034 3.8016 4.38005e-18)
(-5.14679 3.66344 3.32444e-18)
(-5.69546 3.48351 -3.62907e-18)
(-6.23282 3.26122 0)
(-6.75412 2.99632 0)
(-7.2542 2.68915 0)
(-7.72726 2.34092 0)
(-8.16673 1.9537 0)
(-8.56576 1.53078 0)
(-8.91711 1.07704 4.8334e-20)
(-9.21444 0.600056 -1.00915e-19)
(-9.45402 0.111352 2.82141e-20)
(-9.63665 -0.375112 4.80563e-20)
(-9.76197 -0.849549 -1.06406e-19)
(-9.8445 -1.30483 1.03554e-19)
(-9.88843 -1.7251 0)
(-9.90527 -2.09454 -2.81573e-20)
(-9.91359 -2.4006 0)
(-9.9315 -2.6368 0)
(-9.94954 -2.7877 4.13228e-21)
(1.38193 3.43949 4.36977e-17)
(1.20742 3.80069 -3.67615e-17)
(0.48974 4.04027 5.20547e-19)
(-0.0843143 4.18977 9.80702e-19)
(-0.64304 4.29806 0)
(-1.17597 4.37089 -2.35875e-20)
(-1.69517 4.41073 -7.85122e-19)
(-2.20852 4.41697 7.40708e-19)
(-2.72103 4.38777 0)
(-3.23521 4.32108 5.95337e-19)
(-3.75138 4.21465 0)
(-4.26848 4.06654 0)
(-4.78421 3.8751 -5.96662e-19)
(-5.29553 3.63916 1.58489e-18)
(-5.7983 3.35796 -7.82188e-19)
(-6.28775 3.03146 2.41083e-19)
(-6.75855 2.66045 5.33934e-19)
(-7.20459 2.24669 -5.21527e-20)
(-7.61926 1.7934 8.9433e-20)
(-7.99529 1.30576 -3.73967e-20)
(-8.3254 0.792119 -4.43576e-20)
(-8.60464 0.265255 0)
(-8.83375 -0.259135 -5.02605e-20)
(-9.00031 -0.765807 1.67194e-19)
(-9.12983 -1.24724 -1.58739e-19)
(-9.22284 -1.68759 0)
(-9.28987 -2.06993 4.36979e-20)
(-9.35064 -2.3798 1.34272e-20)
(-9.42106 -2.60906 -3.87299e-20)
(-9.4712 -2.7478 4.33471e-21)
(1.73435 4.07881 4.17948e-17)
(1.64515 4.37096 -3.43523e-17)
(0.925257 4.56028 -9.93831e-19)
(0.424618 4.66647 -1.61522e-17)
(-0.061225 4.74615 1.51296e-17)
(-0.518856 4.79956 1.26736e-17)
(-0.966623 4.82639 -1.24971e-17)
(-1.41379 4.8237 7.24907e-19)
(-1.86573 4.78786 5.03762e-18)
(-2.32492 4.71545 -4.9123e-18)
(-2.79168 4.60331 -4.93739e-19)
(-3.26504 4.44884 1.5757e-18)
(-3.74311 4.24988 -1.91118e-18)
(-4.22322 4.00468 6.90643e-19)
(-4.70187 3.71204 -4.62218e-19)
(-5.17496 3.37146 -7.01289e-19)
(-5.63786 2.98331 -3.65588e-20)
(-6.08543 2.54906 1.03892e-19)
(-6.51203 2.07172 0)
(-6.91086 1.5565 8.73199e-20)
(-7.27373 1.01159 4.27749e-20)
(-7.59369 0.449072 -4.77085e-20)
(-7.86987 -0.114313 -6.74224e-20)
(-8.07461 -0.652463 -7.92459e-20)
(-8.25006 -1.15748 -1.22443e-20)
(-8.39249 -1.61711 -5.05407e-20)
(-8.50937 -2.01302 4.8656e-20)
(-8.62049 -2.32837 -2.87706e-20)
(-8.74068 -2.55204 8.33782e-20)
(-8.82231 -2.67882 2.69501e-20)
(2.08317 4.71451 -6.11741e-19)
(2.09157 4.90609 1.01351e-18)
(1.38497 5.02707 1.02768e-18)
(0.990341 5.08928 1.00951e-18)
(0.591223 5.14138 -1.58982e-17)
(0.219115 5.17866 1.56785e-17)
(-0.150798 5.19654 0)
(-0.52723 5.18897 -7.6593e-19)
(-0.914957 5.15046 -6.61395e-19)
(-1.31577 5.07616 0)
(-1.72949 4.96207 5.18432e-19)
(-2.155 4.80521 0)
(-2.59072 4.60293 3.33728e-19)
(-3.03437 4.35295 -9.2754e-19)
(-3.48301 4.05375 1.12347e-18)
(-3.93327 3.70446 1.79918e-19)
(-4.38138 3.30516 -2.49926e-19)
(-4.82354 2.85715 0)
(-5.25548 2.36295 7.31628e-20)
(-5.67116 1.8272 -9.17958e-20)
(-6.06162 1.25673 1.30493e-19)
(-6.41658 0.661822 -1.75403e-19)
(-6.72858 0.0622694 0)
(-6.98642 -0.508021 1.84256e-19)
(-7.20654 -1.03433 7.61975e-20)
(-7.40117 -1.51235 0)
(-7.57107 -1.92283 2.4088e-20)
(-7.73461 -2.24649 -2.32622e-20)
(-7.9059 -2.46712 -4.36792e-20)
(-8.02136 -2.58177 -2.43612e-21)
(2.40175 5.30894 0)
(2.5345 5.36466 -2.08064e-18)
(1.84933 5.43069 1.67394e-17)
(1.60553 5.43759 -1.71788e-17)
(1.29922 5.46944 1.02593e-18)
(1.02265 5.4969 7.33403e-18)
(0.735771 5.51224 -7.1684e-18)
(0.43354 5.50552 -7.72229e-19)
(0.112815 5.46926 7.04043e-19)
(-0.227044 5.39723 0)
(-0.584763 5.28529 0)
(-0.958712 5.13036 0)
(-1.34775 4.92914 8.57653e-19)
(-1.74988 4.67882 -1.1922e-18)
(-2.1626 4.37785 5.71244e-19)
(-2.58324 4.02506 -4.29119e-19)
(-3.00877 3.62036 -1.60274e-19)
(-3.43683 3.16532 -4.42644e-20)
(-3.86469 2.6615 -7.76218e-20)
(-4.28709 2.11253 1.6375e-19)
(-4.69464 1.52334 2.34354e-19)
(-5.07414 0.902652 -1.04191e-19)
(-5.4172 0.273151 0)
(-5.7388 -0.329431 -2.20912e-19)
(-5.99923 -0.876483 3.07965e-19)
(-6.24813 -1.3705 -9.04157e-20)
(-6.47627 -1.79585 0)
(-6.69835 -2.13148 0)
(-6.92701 -2.35349 6.52797e-20)
(-7.08306 -2.45598 3.47541e-21)
(2.63407 5.82911 -2.26677e-18)
(2.92227 5.72894 3.17687e-18)
(2.32975 5.73015 0)
(2.23368 5.68947 0)
(2.04936 5.71134 -9.69801e-19)
(1.87428 5.74021 -9.1988e-19)
(1.67584 5.76258 6.48079e-18)
(1.45213 5.76554 -5.61945e-18)
(1.20227 5.73968 2.62514e-18)
(0.927673 5.67781 -3.08102e-19)
(0.625143 5.57264 -4.22712e-18)
(0.303103 5.42204 1.90564e-18)
(-0.0362283 5.22453 -3.34657e-19)
(-0.392503 4.9768 1.09997e-18)
(-0.763721 4.67713 -9.43196e-19)
(-1.14799 4.32481 2.57419e-19)
(-1.5423 3.92067 2.35778e-20)
(-1.94594 3.46546 4.74463e-20)
(-2.35895 2.95869 0)
(-2.7782 2.40293 -2.04021e-19)
(-3.19587 1.80224 3.58498e-19)
(-3.59543 1.1653 2.09695e-20)
(-3.96822 0.514483 -4.33061e-19)
(-4.3416 -0.119945 -1.39212e-19)
(-4.63109 -0.686505 -1.19158e-19)
(-4.93153 -1.18897 -4.68188e-20)
(-5.22196 -1.62663 4.4119e-20)
(-5.51057 -1.97679 1.18926e-20)
(-5.80798 -2.20663 -1.56217e-19)
(-6.01881 -2.29845 -7.53056e-20)
(2.72668 6.31351 -3.24376e-17)
(3.11625 6.02697 -2.00635e-18)
(2.81185 5.90054 -5.01632e-19)
(2.86034 5.82957 -7.01622e-18)
(2.82249 5.852 1.24677e-18)
(2.75087 5.89636 7.26245e-18)
(2.64128 5.93745 -2.93828e-18)
(2.49627 5.95914 2.88968e-18)
(2.31788 5.95037 2.34539e-18)
(2.10945 5.90381 -2.84532e-19)
(1.87191 5.813 -3.01808e-19)
(1.60897 5.67391 -3.35616e-18)
(1.32476 5.48576 2.86809e-18)
(1.02065 5.24682 -1.37129e-18)
(0.698804 4.95589 -1.67041e-19)
(0.358472 4.60998 3.37204e-20)
(-0.000974668 4.2052 7.98811e-21)
(-0.371245 3.75084 0)
(-0.755804 3.24513 0)
(-1.15449 2.68777 -1.31047e-19)
(-1.56455 2.08028 1.20519e-19)
(-1.97136 1.42685 -1.63621e-19)
(-2.37059 0.75089 -1.18264e-20)
(-2.77537 0.103017 0)
(-3.11238 -0.471138 1.46131e-19)
(-3.45498 -0.970964 5.63755e-20)
(-3.80606 -1.41152 -5.25919e-20)
(-4.16481 -1.77201 1.37661e-19)
(-4.54439 -2.01609 -3.25703e-21)
(-4.83727 -2.10299 -1.31793e-21)
(9.98664 0.113365 1.90759e-18)
(9.9784 0.225421 -1.92349e-18)
(9.95854 0.338042 -2.0588e-21)
(9.92663 0.453151 2.26923e-18)
(9.88586 0.572339 -1.2628e-21)
(9.83757 0.69711 0)
(9.78281 0.828823 -2.37387e-18)
(9.72192 0.968625 6.01372e-18)
(9.65497 1.11776 -4.86997e-18)
(9.58196 1.27768 -6.18e-18)
(9.50353 1.44976 4.98692e-18)
(9.42054 1.63538 1.25831e-18)
(9.33314 1.83598 -1.27033e-18)
(9.2422 2.05318 0)
(9.14849 2.28872 1.30031e-18)
(9.05248 2.54458 -2.6027e-18)
(8.95556 2.82313 0)
(8.85871 3.12679 -1.29775e-18)
(8.76343 3.45832 0)
(8.67243 3.82131 0)
(8.58705 4.21929 0)
(8.51052 4.65698 0)
(8.4469 5.14009 -1.21493e-18)
(8.40053 5.67516 1.88529e-17)
(8.37924 6.27076 -1.95785e-17)
(8.38449 6.93994 0)
(8.46318 7.69122 7.89716e-18)
(8.51421 8.59221 -1.48003e-17)
(9.26874 9.54363 6.93761e-18)
(9.84236 11.9395 -7.3131e-18)
(9.9869 0.117898 0)
(9.98003 0.234396 2.67899e-18)
(9.96253 0.351486 -1.63061e-18)
(9.93387 0.471202 0)
(9.89713 0.595157 -2.23853e-18)
(9.8537 0.724754 1.13274e-18)
(9.80478 0.861308 0)
(9.75081 1.00607 0)
(9.69161 1.16038 3.54153e-18)
(9.62738 1.32564 -2.38146e-18)
(9.55907 1.50316 0)
(9.48734 1.69431 3.65092e-18)
(9.41258 1.90053 -3.66955e-18)
(9.33567 2.12334 0)
(9.25757 2.36454 0)
(9.1791 2.62607 1.25102e-18)
(9.10161 2.91007 0)
(9.02668 3.21888 1.50758e-20)
(8.95616 3.555 -1.22725e-18)
(8.89264 3.9216 -9.76279e-18)
(8.83868 4.32208 9.67103e-18)
(8.79781 4.7602 9.3964e-18)
(8.77511 5.24064 1.0387e-18)
(8.77694 5.76869 -8.93939e-18)
(8.81293 6.35014 1.30837e-19)
(8.8901 6.99203 7.84979e-18)
(9.05676 7.69567 -8.52935e-18)
(9.24045 8.47847 -1.68409e-18)
(9.80576 9.25921 -1.52114e-18)
(10.3744 10.2425 2.5291e-18)
(9.98718 0.122091 2.05373e-18)
(9.98175 0.242681 0)
(9.96676 0.363879 -1.05317e-18)
(9.94146 0.487837 -2.4213e-21)
(9.90891 0.616169 1.08451e-18)
(9.87061 0.750127 0)
(9.82787 0.890989 0)
(9.78108 1.04016 -1.12445e-18)
(9.72988 1.19904 0)
(9.67484 1.36891 -4.6122e-18)
(9.61696 1.55101 4.64665e-18)
(9.55679 1.74673 -1.16809e-18)
(9.49511 1.95749 0)
(9.43264 2.1847 0)
(9.37043 2.43004 0)
(9.30979 2.69539 9.52731e-18)
(9.25217 2.98267 -8.3356e-18)
(9.19954 3.29396 2.368e-18)
(9.15405 3.63147 1.18256e-18)
(9.11802 3.99768 0)
(9.09497 4.39545 0)
(9.08913 4.82757 5.51815e-19)
(9.10571 5.29687 -8.83925e-18)
(9.15154 5.80625 8.27309e-18)
(9.23595 6.35743 1.19861e-19)
(9.36542 6.94978 0)
(9.57069 7.57455 -2.53806e-18)
(9.79536 8.21028 4.99664e-18)
(10.1401 8.82047 2.98941e-18)
(10.6341 9.51449 -1.4511e-18)
(9.98748 0.125892 -2.00265e-18)
(9.98362 0.250167 0)
(9.97128 0.375098 -1.01933e-18)
(9.9493 0.502894 -1.041e-18)
(9.92105 0.635101 2.10689e-18)
(9.88827 0.772859 -2.1319e-18)
(9.85198 0.917453 -2.16001e-18)