# vtk DataFile Version 2.0

ASCII

DATASET UNSTRUCTURED_GRID

POINTS 100 float 

0.0000000000000000e+00  0.0000000000000000e+00  0.0000000000000000e+00
1.0000000000000000e+00  0.0000000000000000e+00  0.0000000000000000e+00
2.0000000000000000e+00  0.0000000000000000e+00  0.0000000000000000e+00
3.0000000000000000e+00  0.0000000000000000e+00  0.0000000000000000e+00
4.0000000000000000e+00  0.0000000000000000e+00  0.0000000000000000e+00
5.0000000000000000e+00  0.0000000000000000e+00  0.0000000000000000e+00
6.0000000000000000e+00  0.0000000000000000e+00  0.0000000000000000e+00
7.0000000000000000e+00  0.0000000000000000e+00  0.0000000000000000e+00
8.0000000000000000e+00  0.0000000000000000e+00  0.0000000000000000e+00
9.0000000000000000e+00  0.0000000000000000e+00  0.0000000000000000e+00
1.0000000000000000e+01  0.0000000000000000e+00  0.0000000000000000e+00
1.1000000000000000e+01  0.0000000000000000e+00  0.0000000000000000e+00
1.2000000000000000e+01  0.0000000000000000e+00  0.0000000000000000e+00
1.3000000000000000e+01  0.0000000000000000e+00  0.0000000000000000e+00
1.4000000000000000e+01  0.0000000000000000e+00  0.0000000000000000e+00
1.5000000000000000e+01  0.0000000000000000e+00  0.0000000000000000e+00
1.6000000000000000e+01  0.0000000000000000e+00  0.0000000000000000e+00
1.7000000000000000e+01  0.0000000000000000e+00  0.0000000000000000e+00
1.8000000000000000e+01  0.0000000000000000e+00  0.0000000000000000e+00
1.9000000000000000e+01  0.0000000000000000e+00  0.0000000000000000e+00
2.0000000000000000e+01  0.0000000000000000e+00  0.0000000000000000e+00
2.1000000000000000e+01  0.0000000000000000e+00  0.0000000000000000e+00
2.2000000000000000e+01  0.0000000000000000e+00  0.0000000000000000e+00
2.3000000000000000e+01  0.0000000000000000e+00  0.0000000000000000e+00
2.4000000000000000e+01  0.0000000000000000e+00  0.0000000000000000e+00
2.5000000000000000e+01  0.0000000000000000e+00  0.0000000000000000e+00
2.6000000000000000e+01  0.0000000000000000e+00  0.0000000000000000e+00
2.7000000000000000e+01  0.0000000000000000e+00  0.0000000000000000e+00
2.8000000000000000e+01  0.0000000000000000e+00  0.0000000000000000e+00
2.9000000000000000e+01  0.0000000000000000e+00  0.0000000000000000e+00
3.0000000000000000e+01  0.0000000000000000e+00  0.0000000000000000e+00
3.1000000000000000e+01  0.0000000000000000e+00  0.0000000000000000e+00
3.2000000000000000e+01  0.0000000000000000e+00  0.0000000000000000e+00
3.3000000000000000e+01  0.0000000000000000e+00  0.0000000000000000e+00
3.4000000000000000e+01  0.0000000000000000e+00  0.0000000000000000e+00
3.5000000000000000e+01  0.0000000000000000e+00  0.0000000000000000e+00
3.6000000000000000e+01  0.0000000000000000e+00  0.0000000000000000e+00
3.7000000000000000e+01  0.0000000000000000e+00  0.0000000000000000e+00
3.8000000000000000e+01  0.0000000000000000e+00  0.0000000000000000e+00
3.9000000000000000e+01  0.0000000000000000e+00  0.0000000000000000e+00
4.0000000000000000e+01  0.0000000000000000e+00  0.0000000000000000e+00
4.1000000000000000e+01  0.0000000000000000e+00  0.0000000000000000e+00
4.2000000000000000e+01  0.0000000000000000e+00  0.0000000000000000e+00
4.3000000000000000e+01  0.0000000000000000e+00  0.0000000000000000e+00
4.4000000000000000e+01  0.0000000000000000e+00  0.0000000000000000e+00
4.5000000000000000e+01  0.0000000000000000e+00  0.0000000000000000e+00
4.6000000000000000e+01  0.0000000000000000e+00  0.0000000000000000e+00
4.7000000000000000e+01  0.0000000000000000e+00  0.0000000000000000e+00
4.8000000000000000e+01  0.0000000000000000e+00  0.0000000000000000e+00
4.9000000000000000e+01  0.0000000000000000e+00  0.0000000000000000e+00
5.0000000000000000e+01  0.0000000000000000e+00  0.0000000000000000e+00
5.1000000000000000e+01  0.0000000000000000e+00  0.0000000000000000e+00
5.2000000000000000e+01  0.0000000000000000e+00  0.0000000000000000e+00
5.3000000000000000e+01  0.0000000000000000e+00  0.0000000000000000e+00
5.4000000000000000e+01  0.0000000000000000e+00  0.0000000000000000e+00
5.5000000000000000e+01  0.0000000000000000e+00  0.0000000000000000e+00
5.6000000000000000e+01  0.0000000000000000e+00  0.0000000000000000e+00
5.7000000000000000e+01  0.0000000000000000e+00  0.0000000000000000e+00
5.8000000000000000e+01  0.0000000000000000e+00  0.0000000000000000e+00
5.9000000000000000e+01  0.0000000000000000e+00  0.0000000000000000e+00
6.0000000000000000e+01  0.0000000000000000e+00  0.0000000000000000e+00
6.1000000000000000e+01  0.0000000000000000e+00  0.0000000000000000e+00
6.2000000000000000e+01  0.0000000000000000e+00  0.0000000000000000e+00
6.3000000000000000e+01  0.0000000000000000e+00  0.0000000000000000e+00
6.4000000000000000e+01  0.0000000000000000e+00  0.0000000000000000e+00
6.5000000000000000e+01  0.0000000000000000e+00  0.0000000000000000e+00
6.6000000000000000e+01  0.0000000000000000e+00  0.0000000000000000e+00
6.7000000000000000e+01  0.0000000000000000e+00  0.0000000000000000e+00
6.8000000000000000e+01  0.0000000000000000e+00  0.0000000000000000e+00
6.9000000000000000e+01  0.0000000000000000e+00  0.0000000000000000e+00
7.0000000000000000e+01  0.0000000000000000e+00  0.0000000000000000e+00
7.1000000000000000e+01  0.0000000000000000e+00  0.0000000000000000e+00
7.2000000000000000e+01  0.0000000000000000e+00  0.0000000000000000e+00
7.3000000000000000e+01  0.0000000000000000e+00  0.0000000000000000e+00
7.4000000000000000e+01  0.0000000000000000e+00  0.0000000000000000e+00
7.5000000000000000e+01  0.0000000000000000e+00  0.0000000000000000e+00
7.6000000000000000e+01  0.0000000000000000e+00  0.0000000000000000e+00
7.7000000000000000e+01  0.0000000000000000e+00  0.0000000000000000e+00
7.8000000000000000e+01  0.0000000000000000e+00  0.0000000000000000e+00
7.9000000000000000e+01  0.0000000000000000e+00  0.0000000000000000e+00
8.0000000000000000e+01  0.0000000000000000e+00  0.0000000000000000e+00
8.1000000000000000e+01  0.0000000000000000e+00  0.0000000000000000e+00
8.2000000000000000e+01  0.0000000000000000e+00  0.0000000000000000e+00
8.3000000000000000e+01  0.0000000000000000e+00  0.0000000000000000e+00
8.4000000000000000e+01  0.0000000000000000e+00  0.0000000000000000e+00
8.5000000000000000e+01  0.0000000000000000e+00  0.0000000000000000e+00
8.6000000000000000e+01  0.0000000000000000e+00  0.0000000000000000e+00
8.7000000000000000e+01  0.0000000000000000e+00  0.0000000000000000e+00
8.8000000000000000e+01  0.0000000000000000e+00  0.0000000000000000e+00
8.9000000000000000e+01  0.0000000000000000e+00  0.0000000000000000e+00
9.0000000000000000e+01  0.0000000000000000e+00  0.0000000000000000e+00
9.1000000000000000e+01  0.0000000000000000e+00  0.0000000000000000e+00
9.2000000000000000e+01  0.0000000000000000e+00  0.0000000000000000e+00
9.3000000000000000e+01  0.0000000000000000e+00  0.0000000000000000e+00
9.4000000000000000e+01  0.0000000000000000e+00  0.0000000000000000e+00
9.5000000000000000e+01  0.0000000000000000e+00  0.0000000000000000e+00
9.6000000000000000e+01  0.0000000000000000e+00  0.0000000000000000e+00
9.7000000000000000e+01  0.0000000000000000e+00  0.0000000000000000e+00
9.8000000000000000e+01  0.0000000000000000e+00  0.0000000000000000e+00
9.9000000000000000e+01  0.0000000000000000e+00  0.0000000000000000e+00

POINT_DATA 100

VECTORS velocity float
1.0099901336421415e-02  0.0000000000000000e+00  0.0000000000000000e+00
1.0099902359438813e-02  0.0000000000000000e+00  0.0000000000000000e+00
1.0099903389496456e-02  0.0000000000000000e+00  0.0000000000000000e+00
1.0099904422202460e-02  0.0000000000000000e+00  0.0000000000000000e+00
1.0099905455865329e-02  0.0000000000000000e+00  0.0000000000000000e+00
1.0099906489838349e-02  0.0000000000000000e+00  0.0000000000000000e+00
1.0099907523876449e-02  0.0000000000000000e+00  0.0000000000000000e+00
1.0099908557887761e-02  0.0000000000000000e+00  0.0000000000000000e+00
1.0099909591838277e-02  0.0000000000000000e+00  0.0000000000000000e+00
1.0099910625715646e-02  0.0000000000000000e+00  0.0000000000000000e+00
1.0099911659515449e-02  0.0000000000000000e+00  0.0000000000000000e+00
1.0099912693236209e-02  0.0000000000000000e+00  0.0000000000000000e+00
1.0099913726877447e-02  0.0000000000000000e+00  0.0000000000000000e+00
1.0099914760438948e-02  0.0000000000000000e+00  0.0000000000000000e+00
1.0099915793920734e-02  0.0000000000000000e+00  0.0000000000000000e+00
1.0099916827322796e-02  0.0000000000000000e+00  0.0000000000000000e+00
1.0099917860645147e-02  0.0000000000000000e+00  0.0000000000000000e+00
1.0099918893887814e-02  0.0000000000000000e+00  0.0000000000000000e+00
1.0099919927050735e-02  0.0000000000000000e+00  0.0000000000000000e+00
1.0099920960133976e-02  0.0000000000000000e+00  0.0000000000000000e+00
1.0099921993137521e-02  0.0000000000000000e+00  0.0000000000000000e+00
1.0099923026061360e-02  0.0000000000000000e+00  0.0000000000000000e+00
1.0099924058905535e-02  0.0000000000000000e+00  0.0000000000000000e+00
1.0099925091670037e-02  0.0000000000000000e+00  0.0000000000000000e+00
1.0099926124354867e-02  0.0000000000000000e+00  0.0000000000000000e+00
1.0099927156960019e-02  0.0000000000000000e+00  0.0000000000000000e+00
1.0099928189485503e-02  0.0000000000000000e+00  0.0000000000000000e+00
1.0099929221931328e-02  0.0000000000000000e+00  0.0000000000000000e+00
1.0099930254297507e-02  0.0000000000000000e+00  0.0000000000000000e+00
1.0099931286584029e-02  0.0000000000000000e+00  0.0000000000000000e+00
1.0099932318790890e-02  0.0000000000000000e+00  0.0000000000000000e+00
1.0099933350918118e-02  0.0000000000000000e+00  0.0000000000000000e+00
1.0099934382965700e-02  0.0000000000000000e+00  0.0000000000000000e+00
1.0099935414933670e-02  0.0000000000000000e+00  0.0000000000000000e+00
1.0099936446822026e-02  0.0000000000000000e+00  0.0000000000000000e+00
1.0099937478630762e-02  0.0000000000000000e+00  0.0000000000000000e+00
1.0099938510359887e-02  0.0000000000000000e+00  0.0000000000000000e+00
1.0099939542009393e-02  0.0000000000000000e+00  0.0000000000000000e+00
1.0099940573579323e-02  0.0000000000000000e+00  0.0000000000000000e+00
1.0099941605069633e-02  0.0000000000000000e+00  0.0000000000000000e+00
1.0099942636480338e-02  0.0000000000000000e+00  0.0000000000000000e+00
1.0099943667811475e-02  0.0000000000000000e+00  0.0000000000000000e+00
1.0099944699063005e-02  0.0000000000000000e+00  0.0000000000000000e+00
1.0099945730234953e-02  0.0000000000000000e+00  0.0000000000000000e+00
1.0099946761327333e-02  0.0000000000000000e+00  0.0000000000000000e+00
1.0099947792340134e-02  0.0000000000000000e+00  0.0000000000000000e+00
1.0099948823273358e-02  0.0000000000000000e+00  0.0000000000000000e+00
1.0099949854127056e-02  0.0000000000000000e+00  0.0000000000000000e+00
1.0099950884901180e-02  0.0000000000000000e+00  0.0000000000000000e+00
1.0099951915595741e-02  0.0000000000000000e+00  0.0000000000000000e+00
1.0099952946210767e-02  0.0000000000000000e+00  0.0000000000000000e+00
1.0099953976746226e-02  0.0000000000000000e+00  0.0000000000000000e+00
1.0099955007202165e-02  0.0000000000000000e+00  0.0000000000000000e+00
1.0099956037578595e-02  0.0000000000000000e+00  0.0000000000000000e+00
1.0099957067875479e-02  0.0000000000000000e+00  0.0000000000000000e+00
1.0099958098092849e-02  0.0000000000000000e+00  0.0000000000000000e+00
1.0099959128230704e-02  0.0000000000000000e+00  0.0000000000000000e+00
1.0099960158289047e-02  0.0000000000000000e+00  0.0000000000000000e+00
1.0099961188267894e-02  0.0000000000000000e+00  0.0000000000000000e+00
1.0099962218167221e-02  0.0000000000000000e+00  0.0000000000000000e+00
1.0099963247987082e-02  0.0000000000000000e+00  0.0000000000000000e+00
1.0099964277727450e-02  0.0000000000000000e+00  0.0000000000000000e+00
1.0099965307388319e-02  0.0000000000000000e+00  0.0000000000000000e+00
1.0099966336969727e-02  0.0000000000000000e+00  0.0000000000000000e+00
1.0099967366471656e-02  0.0000000000000000e+00  0.0000000000000000e+00
1.0099968395894094e-02  0.0000000000000000e+00  0.0000000000000000e+00
1.0099969425237051e-02  0.0000000000000000e+00  0.0000000000000000e+00
1.0099970454500552e-02  0.0000000000000000e+00  0.0000000000000000e+00
1.0099971483684599e-02  0.0000000000000000e+00  0.0000000000000000e+00
1.0099972512789204e-02  0.0000000000000000e+00  0.0000000000000000e+00
1.0099973541814336e-02  0.0000000000000000e+00  0.0000000000000000e+00
1.0099974570760013e-02  0.0000000000000000e+00  0.0000000000000000e+00
1.0099975599626283e-02  0.0000000000000000e+00  0.0000000000000000e+00
1.0099976628413106e-02  0.0000000000000000e+00  0.0000000000000000e+00
1.0099977657120483e-02  0.0000000000000000e+00  0.0000000000000000e+00
1.0099978685748455e-02  0.0000000000000000e+00  0.0000000000000000e+00
1.0099979714296988e-02  0.0000000000000000e+00  0.0000000000000000e+00
1.0099980742766102e-02  0.0000000000000000e+00  0.0000000000000000e+00
1.0099981771155829e-02  0.0000000000000000e+00  0.0000000000000000e+00
1.0099982799466176e-02  0.0000000000000000e+00  0.0000000000000000e+00
1.0099983827697100e-02  0.0000000000000000e+00  0.0000000000000000e+00
1.0099984855848607e-02  0.0000000000000000e+00  0.0000000000000000e+00
1.0099985883920757e-02  0.0000000000000000e+00  0.0000000000000000e+00
1.0099986911913508e-02  0.0000000000000000e+00  0.0000000000000000e+00
1.0099987939826872e-02  0.0000000000000000e+00  0.0000000000000000e+00
1.0099988967660853e-02  0.0000000000000000e+00  0.0000000000000000e+00
1.0099989995415457e-02  0.0000000000000000e+00  0.0000000000000000e+00
1.0099991023090709e-02  0.0000000000000000e+00  0.0000000000000000e+00
1.0099992050686612e-02  0.0000000000000000e+00  0.0000000000000000e+00
1.0099993078203147e-02  0.0000000000000000e+00  0.0000000000000000e+00
1.0099994105640345e-02  0.0000000000000000e+00  0.0000000000000000e+00
1.0099995132998120e-02  0.0000000000000000e+00  0.0000000000000000e+00
1.0099996160276703e-02  0.0000000000000000e+00  0.0000000000000000e+00
1.0099997187475614e-02  0.0000000000000000e+00  0.0000000000000000e+00
1.0099998214595975e-02  0.0000000000000000e+00  0.0000000000000000e+00
1.0099999241635248e-02  0.0000000000000000e+00  0.0000000000000000e+00
1.0100000268599068e-02  0.0000000000000000e+00  0.0000000000000000e+00
1.0100001295475149e-02  0.0000000000000000e+00  0.0000000000000000e+00
1.0100002322290033e-02  0.0000000000000000e+00  0.0000000000000000e+00
1.0100003348987285e-02  0.0000000000000000e+00  0.0000000000000000e+00

SCALARS pressure float
LOOKUP_TABLE default
1.0030001887005813e-04
1.0029704294449376e-04
1.0029406701892941e-04
1.0029109119145323e-04
1.0028811549932691e-04
1.0028513995643282e-04
1.0028216456773662e-04
1.0027918933483487e-04
1.0027621425806520e-04
1.0027323933730201e-04
1.0027026457225137e-04
1.0026728996256059e-04
1.0026431550785725e-04
1.0026134120776183e-04
1.0025836706189291e-04
1.0025539306986880e-04
1.0025241923130770e-04
1.0024944554582829e-04
1.0024647201304900e-04
1.0024349863258799e-04
1.0024052540406375e-04
1.0023755232709435e-04
1.0023457940129828e-04
1.0023160662629407e-04
1.0022863400170005e-04
1.0022566152713447e-04
1.0022268920221543e-04
1.0021971702656159e-04
1.0021674499979077e-04
1.0021377312152127e-04
1.0021080139137116e-04
1.0020782980895852e-04
1.0020485837390168e-04
1.0020188708581859e-04
1.0019891594432778e-04
1.0019594494904738e-04
1.0019297409959576e-04
1.0019000339559109e-04
1.0018703283665144e-04
1.0018406242239507e-04
1.0018109215243971e-04
1.0017812202640379e-04
1.0017515204390532e-04
1.0017218220456212e-04
1.0016921250799240e-04
1.0016624295381392e-04
1.0016327354164450e-04
1.0016030427110223e-04
1.0015733514180546e-04
1.0015436615337208e-04
1.0015139730541997e-04
1.0014842859756703e-04
1.0014546002943100e-04
1.0014249160063016e-04
1.0013952331078256e-04
1.0013655515950587e-04
1.0013358714641817e-04
1.0013061927113728e-04
1.0012765153328147e-04
1.0012468393246868e-04
1.0012171646831679e-04
1.0011874914044375e-04
1.0011578194846736e-04
1.0011281489200558e-04
1.0010984797067649e-04
1.0010688118409762e-04
1.0010391453188653e-04
1.0010094801366091e-04
1.0009798162903891e-04
1.0009501537763833e-04
1.0009204925907696e-04
1.0008908327297230e-04
1.0008611741894206e-04
1.0008315169660430e-04
1.0008018610557685e-04
1.0007722064547728e-04
1.0007425531592329e-04
1.0007129011653226e-04
1.0006832504692203e-04
1.0006536010671086e-04
1.0006239529551651e-04
1.0005943061295646e-04
1.0005646605864837e-04
1.0005350163221032e-04
1.0005053733325980e-04
1.0004757316141439e-04
1.0004460911629186e-04
1.0004164519750973e-04
1.0003868140468588e-04
1.0003571773743807e-04
1.0003275419538378e-04
1.0002979077814017e-04
1.0002682748532571e-04
1.0002386431655625e-04
1.0002090127145401e-04
1.0001793834962695e-04
1.0001497555071372e-04
1.0001201287428655e-04
1.0000905032005995e-04
1.0000608788744961e-04

SCALARS diameter float
LOOKUP_TABLE default
1.0001003067383794e+00
1.0001003057297631e+00
1.0001003047211461e+00
1.0001003037126501e+00
1.0001003027043236e+00
1.0001003016961842e+00
1.0001003006882385e+00
1.0001002996804886e+00
1.0001002986729364e+00
1.0001002976655800e+00
1.0001002966584189e+00
1.0001002956514546e+00
1.0001002946446862e+00
1.0001002936381143e+00
1.0001002926317353e+00
1.0001002916255519e+00
1.0001002906195626e+00
1.0001002896137661e+00
1.0001002886081642e+00
1.0001002876027552e+00
1.0001002865975384e+00
1.0001002855925134e+00
1.0001002845876810e+00
1.0001002835830399e+00
1.0001002825785896e+00
1.0001002815743298e+00
1.0001002805702606e+00
1.0001002795663814e+00
1.0001002785626909e+00
1.0001002775591901e+00
1.0001002765558789e+00
1.0001002755527546e+00
1.0001002745498186e+00
1.0001002735470705e+00
1.0001002725445096e+00
1.0001002715421361e+00
1.0001002705399480e+00
1.0001002695379464e+00
1.0001002685361302e+00
1.0001002675344992e+00
1.0001002665330534e+00
1.0001002655317923e+00
1.0001002645307153e+00
1.0001002635298217e+00
1.0001002625291109e+00
1.0001002615285837e+00
1.0001002605282392e+00
1.0001002595280768e+00
1.0001002585280956e+00
1.0001002575282962e+00
1.0001002565286778e+00
1.0001002555292393e+00
1.0001002545299820e+00
1.0001002535309047e+00
1.0001002525320057e+00
1.0001002515332871e+00
1.0001002505347460e+00
1.0001002495363844e+00
1.0001002485382000e+00
1.0001002475401928e+00
1.0001002465423630e+00
1.0001002455447101e+00
1.0001002445472333e+00
1.0001002435499327e+00
1.0001002425528074e+00
1.0001002415558573e+00
1.0001002405590824e+00
1.0001002395624821e+00
1.0001002385660553e+00
1.0001002375698018e+00
1.0001002365737226e+00
1.0001002355778148e+00
1.0001002345820815e+00
1.0001002335865188e+00
1.0001002325911279e+00
1.0001002315959084e+00
1.0001002306008597e+00
1.0001002296059820e+00
1.0001002286112746e+00
1.0001002276167368e+00
1.0001002266223682e+00
1.0001002256281684e+00
1.0001002246341377e+00
1.0001002236402745e+00
1.0001002226465792e+00
1.0001002216530526e+00
1.0001002206596916e+00
1.0001002196664974e+00
1.0001002186734702e+00
1.0001002176806080e+00
1.0001002166879114e+00
1.0001002156953804e+00
1.0001002147030142e+00
1.0001002137108124e+00
1.0001002127187737e+00
1.0001002117268993e+00
1.0001002107351882e+00
1.0001002097436384e+00
1.0001002087522528e+00
1.0001002077610281e+00

