/*--------------------------------*- C++ -*----------------------------------*\
| =========                 |                                                 |
| \\      /  F ield         | OpenFOAM: The Open Source CFD Toolbox           |
|  \\    /   O peration     | Version:  5.x                                   |
|   \\  /    A nd           | Web:      www.OpenFOAM.org                      |
|    \\/     M anipulation  |                                                 |
\*---------------------------------------------------------------------------*/
FoamFile
{
    version     2.0;
    format      ascii;
    class       volVectorField;
    location    "1.6";
    object      U;
}
// * * * * * * * * * * * * * * * * * * * * * * * * * * * * * * * * * * * * * //

dimensions      [0 1 -1 0 0 0 0];

internalField   nonuniform List<vector> 
2790
(
(9.93359 0.019965 -1.86904e-19)
(9.86331 0.0264851 1.91747e-19)
(9.76688 0.0306159 0)
(9.65235 0.0351013 -1.02295e-19)
(9.52596 0.0398215 0)
(9.38881 0.0446838 0)
(9.24034 0.0498074 0)
(9.0799 0.0553234 1.17844e-19)
(8.90698 0.0613335 1.22356e-19)
(8.721 0.0679362 -2.55752e-19)
(8.52119 0.0752396 2.63439e-19)
(8.30664 0.0833629 0)
(8.07626 0.0924388 -2.89648e-19)
(7.82885 0.102616 2.98959e-19)
(7.56303 0.114061 -4.76683e-19)
(7.27732 0.126964 6.55915e-19)
(6.97005 0.141524 6.9894e-19)
(6.63943 0.157964 -7.25427e-19)
(6.28359 0.176527 0)
(5.90053 0.197476 0)
(5.48823 0.22108 -1.74606e-18)
(5.04464 0.247612 1.83147e-18)
(4.56783 0.277332 0)
(4.05602 0.310479 0)
(3.50784 0.347185 0)
(2.92232 0.387263 6.14848e-19)
(2.2993 0.42954 -5.36176e-18)
(1.64073 0.468931 1.1582e-17)
(0.93606 0.484763 -4.66377e-18)
(0.350232 0.331319 0)
(9.99968 0.0375389 5.59365e-19)
(9.99087 0.0525907 -1.90682e-19)
(9.95755 0.0631752 0)
(9.90353 0.0748963 1.01036e-19)
(9.83408 0.0875541 0)
(9.75069 0.100892 2.15744e-19)
(9.65313 0.115155 -2.2132e-19)
(9.54102 0.130638 3.46215e-19)
(9.41401 0.14758 -1.14488e-19)
(9.27165 0.166221 4.79758e-21)
(9.11335 0.186827 5.17797e-19)
(8.93828 0.209691 -1.05192e-18)
(8.74547 0.235132 1.10558e-18)
(8.5338 0.263504 1.44046e-20)
(8.30196 0.295204 -1.33166e-19)
(8.04851 0.330667 -2.79483e-18)
(7.7718 0.370341 3.90381e-18)
(7.46998 0.414689 -2.69805e-18)
(7.14104 0.464189 -2.87159e-18)
(6.7828 0.519298 2.97312e-18)
(6.39292 0.580411 3.17893e-18)
(5.96891 0.647803 -3.30669e-18)
(5.50809 0.7216 8.7926e-19)
(5.00758 0.801693 0)
(4.46434 0.887561 -8.02051e-18)
(3.87476 0.977994 -6.31694e-19)
(3.23352 1.0706 9.06639e-18)
(2.53165 1.16131 -1.71983e-17)
(1.72612 1.24938 1.95682e-17)
(0.965307 1.29869 0)
(9.99674 0.036142 -4.66055e-19)
(9.98519 0.0584599 9.52135e-20)
(9.95404 0.0767715 -3.91268e-19)
(9.90447 0.0963248 -4.02741e-19)
(9.84052 0.117349 0)
(9.76373 0.139669 -4.27688e-19)
(9.67415 0.163611 -4.41136e-19)
(9.57152 0.189597 -4.55306e-19)
(9.45555 0.217999 0)
(9.32592 0.249213 0)
(9.18214 0.283677 1.01211e-18)
(9.02356 0.321879 -2.0851e-18)
(8.84935 0.364358 1.07411e-18)
(8.65859 0.411705 2.2555e-18)
(8.45013 0.464588 3.00881e-20)
(8.22276 0.523762 -2.10085e-18)
(7.97503 0.590036 0)
(7.70518 0.66426 -5.28567e-18)
(7.41131 0.74733 6.11866e-18)
(7.09125 0.840152 5.76218e-18)
(6.74251 0.943593 -5.9412e-18)
(6.36224 1.05841 7.09727e-18)
(5.94706 1.18518 -7.36029e-18)
(5.49286 1.32431 1.39285e-17)
(4.99447 1.47591 -1.44773e-17)
(4.44487 1.64002 0)
(3.83347 1.81697 0)
(3.14478 2.00902 -2.36132e-20)
(2.33365 2.22812 3.84527e-17)
(1.42491 2.53339 -4.16561e-17)
(9.99489 0.0388177 7.43793e-19)
(9.98093 0.0698747 0)
(9.94955 0.0970831 -4.6384e-22)
(9.901 0.124674 4.01518e-19)
(9.83839 0.153646 0)
(9.76313 0.184202 8.5186e-19)
(9.67552 0.2168 1.32056e-18)
(9.57552 0.251988 -1.35829e-18)
(9.4629 0.290297 9.30416e-19)
(9.33747 0.332276 0)
(9.1989 0.378528 -2.00362e-18)
(9.04671 0.429713 2.56417e-18)
(8.88033 0.48656 0)
(8.69908 0.54988 0)
(8.50213 0.620579 0)
(8.28864 0.699706 4.77337e-18)
(8.05756 0.78844 -5.50137e-18)
(7.80754 0.88803 5.14441e-18)
(7.53711 0.999827 -6.599e-18)
(7.24454 1.1253 -5.55877e-18)
(6.92771 1.26599 5.70419e-18)
(6.584 1.42348 7.37936e-19)
(6.21011 1.59938 0)
(5.8016 1.79537 0)
(5.35252 2.01334 1.19335e-17)
(4.85445 2.2561 -1.40367e-17)
(4.29542 2.52891 2.76558e-17)
(3.65811 2.84333 -3.23323e-17)
(2.94548 3.19217 2.93542e-17)
(1.91991 3.78582 3.29483e-17)
(9.9939 0.0428883 -1.5788e-18)
(9.97845 0.0809302 9.48208e-20)
(9.94675 0.115612 -7.78299e-19)
(9.89905 0.150306 1.20052e-18)
(9.83772 0.186547 4.11439e-19)
(9.76394 0.224872 -6.83729e-22)
(9.6782 0.265799 0)
(9.58053 0.309955 -4.49046e-19)
(9.47077 0.357988 0)
(9.34874 0.410565 -2.39769e-18)
(9.21421 0.468397 1.96277e-18)
(9.06684 0.532263 -5.09614e-19)
(8.90621 0.603028 0)
(8.73185 0.681659 -5.42038e-19)
(8.54317 0.769245 0)
(8.33953 0.867043 0)
(8.12029 0.976512 -5.95989e-19)
(7.88462 1.09922 -5.0114e-18)
(7.63148 1.23691 7.0517e-18)
(7.35966 1.39157 0)
(7.06766 1.56543 0)
(6.75349 1.76097 -2.86008e-18)
(6.41453 1.98103 -1.04425e-17)
(6.04704 2.22893 3.68021e-17)
(5.64587 2.50893 -2.35701e-17)
(5.20391 2.82679 3.22451e-18)
(4.71232 3.19119 2.84044e-17)
(4.14716 3.62546 -2.70628e-17)
(3.61961 4.05378 5.75034e-17)
(2.48973 4.9133 1.36583e-18)
(9.99337 0.0476953 5.5656e-19)
(9.97711 0.0920928 5.66465e-19)
(9.94541 0.133922 7.75958e-19)
(9.89866 0.175811 3.9678e-19)
(9.83881 0.219445 -4.10144e-19)
(9.76694 0.265572 -4.25326e-19)
(9.68352 0.314766 8.64369e-19)
(9.58861 0.367728 -4.44498e-19)
(9.48208 0.425224 -9.17286e-19)
(9.36383 0.488026 -1.42739e-18)
(9.23369 0.556949 -9.91635e-19)
(9.09142 0.632882 3.00262e-18)
(8.93672 0.716808 -1.03372e-18)
(8.76927 0.809832 1.60138e-18)
(8.58869 0.913209 4.43619e-18)
(8.39447 1.02837 -5.65866e-18)
(8.18627 1.15698 2.34766e-18)
(7.9637 1.30089 0)
(7.72609 1.46219 -1.03939e-20)
(7.47273 1.64332 -1.28308e-18)
(7.20276 1.84711 0)
(6.91497 2.07692 2.73617e-18)
(6.60777 2.33673 -2.40409e-17)
(6.27883 2.63144 2.29875e-17)
(5.92494 2.96739 0)
(5.54176 3.35291 -3.03201e-18)
(5.12787 3.79647 0)
(4.63886 4.33822 5.08432e-17)
(4.34253 4.78487 -5.0831e-17)
(3.11855 5.8538 0)
(9.99309 0.0528772 -1.84889e-19)
(9.97652 0.103316 -9.43894e-19)
(9.94513 0.151904 7.73748e-19)
(9.8995 0.20074 -2.77969e-18)
(9.84137 0.251487 -7.56534e-22)
(9.77176 0.305061 -1.67877e-18)
(9.69107 0.362152 2.58603e-18)
(9.59935 0.423554 -8.77991e-19)
(9.49656 0.490124 9.11319e-19)
(9.38265 0.56273 0)
(9.25751 0.642282 3.62264e-21)
(9.12101 0.729761 2.99127e-18)
(8.97294 0.826251 -7.13992e-18)
(8.81311 0.932975 3.12628e-18)
(8.64131 1.05133 0)
(8.45723 1.18288 1.11617e-18)
(8.26074 1.32945 -8.57449e-21)
(8.05168 1.49313 0)
(7.82979 1.67631 -1.21672e-18)
(7.59485 1.88178 1.25055e-18)
(7.34658 2.1129 1.02619e-17)
(7.08464 2.37373 9.28391e-18)
(6.8086 2.66923 1.72639e-19)
(6.51783 3.00557 -4.07561e-17)
(6.21162 3.39047 1.92184e-17)
(5.88846 3.83409 2.72453e-18)
(5.55807 4.3405 0)
(5.13932 4.97529 -4.4963e-17)
(5.08264 5.39479 4.1874e-17)
(3.77251 6.61448 0)
(9.99296 0.0582171 -1.47279e-18)
(9.97644 0.114486 0)
(9.94565 0.169473 0)
(9.90136 0.224967 -8.05868e-22)
(9.84522 0.282559 1.62086e-18)
(9.77815 0.343295 8.31084e-19)
(9.70052 0.407992 -8.5313e-19)
(9.61241 0.477519 0)
(9.51384 0.552806 0)
(9.4048 0.634805 3.71811e-18)
(9.28528 0.724504 9.85708e-19)
(9.15524 0.822962 -3.89011e-18)
(9.01457 0.931357 0)
(8.86319 1.05102 0)
(8.70104 1.18347 0)
(8.52807 1.33038 8.74159e-18)
(8.34426 1.49371 -9.99825e-18)
(8.14968 1.67577 0)
(7.94446 1.87917 0)
(7.72883 2.10704 -7.24864e-18)
(7.5031 2.36313 9.74263e-18)
(7.26777 2.65203 1.99926e-17)
(7.02358 2.97939 -2.26454e-17)
(6.77162 3.35228 -2.57396e-18)
(6.51375 3.77912 2.29941e-17)
(6.25031 4.27131 -2.2824e-17)
(6.00532 4.82439 -4.16644e-17)
(5.64775 5.53858 7.50996e-17)
(5.81834 5.90528 -3.68079e-17)
(4.4278 7.23502 3.81387e-17)
(9.99294 0.0635768 1.28728e-18)
(9.97673 0.125487 1.87156e-19)
(9.9468 0.186547 2.29991e-18)
(9.90407 0.248394 -7.84945e-19)
(9.85015 0.312548 -8.07859e-19)
(9.7859 0.380145 -1.66055e-18)
(9.71165 0.452113 2.53952e-18)
(9.62753 0.529394 0)
(9.53359 0.612983 0)
(9.42993 0.703902 -3.67333e-18)
(9.31661 0.8032 3.73777e-18)
(9.19368 0.91201 0)
(9.06113 1.03159 4.94744e-18)
(8.91901 1.16338 3.71105e-20)
(8.76739 1.30896 4.20225e-18)
(8.60641 1.47014 -8.44734e-18)
(8.43628 1.64902 0)
(8.25728 1.84805 1.10291e-18)
(8.06988 2.07006 -9.08883e-18)
(7.87475 2.3184 9.1491e-18)
(7.67278 2.59716 1.87755e-17)
(7.46528 2.91128 -3.78666e-17)
(7.25409 3.26693 4.05278e-17)
(7.04184 3.67165 -1.9056e-17)
(6.83287 4.13402 0)
(6.62799 4.66644 0)
(6.46785 5.2526 2.26364e-18)
(6.1633 6.03405 3.27111e-17)
(6.53977 6.33909 -1.86695e-18)
(5.07186 7.75785 -3.56721e-17)
(9.99299 0.0688628 0)
(9.97729 0.136219 -1.48935e-18)
(9.94845 0.203047 -1.5283e-18)
(9.90749 0.270928 0)
(9.85602 0.341336 0)
(9.79484 0.415468 1.6452e-18)
(9.72429 0.494345 -1.67678e-18)
(9.64451 0.578975 0)
(9.55563 0.670408 3.54078e-18)
(9.45783 0.769714 -3.6012e-18)
(9.35127 0.877999 9.22619e-19)
(9.23604 0.996471 3.8038e-18)
(9.11225 1.12647 -9.69135e-18)
(8.98008 1.2695 3.94809e-18)
(8.83975 1.42722 8.13785e-18)
(8.6916 1.60156 -7.20984e-18)
(8.53603 1.79472 -8.47149e-18)
(8.37362 2.00926 5.34233e-18)
(8.20515 2.24817 0)
(8.03168 2.51502 -2.22708e-18)
(7.8547 2.81412 -2.21498e-18)
(7.67629 3.15069 0)
(7.49928 3.53117 -1.79404e-17)
(7.3277 3.96338 1.78006e-17)
(7.16814 4.45555 0)
(7.02053 5.02141 3.3338e-17)
(6.94346 5.63037 -3.22026e-17)
(6.68748 6.46707 3.54887e-18)
(7.24662 6.71318 -2.65899e-17)
(5.70679 8.2099 -2.57588e-17)
(9.99309 0.0740079 1.45615e-18)
(9.97806 0.146594 1.48646e-18)
(9.95052 0.218888 0)
(9.91153 0.292475 -2.33054e-18)
(9.86272 0.368805 2.38253e-18)
(9.80488 0.449118 2.44521e-18)
(9.73831 0.53451 8.4031e-19)
(9.66322 0.626048 -1.7006e-18)
(9.57981 0.724821 3.5003e-18)
(9.48831 0.831941 -3.55643e-18)
(9.38896 0.948576 1.83731e-18)
(9.28192 1.076 -2.78496e-18)
(9.16744 1.21562 8.59535e-18)
(9.04582 1.36898 -1.55337e-17)
(8.91746 1.53781 7.8872e-18)
(8.78286 1.72411 -1.01218e-18)
(8.64267 1.93018 0)
(8.49771 2.15867 2.08997e-18)
(8.3491 2.41272 0)
(8.19833 2.69602 -2.10326e-18)
(8.04743 3.01306 2.14698e-18)
(7.89921 3.36927 0)
(7.75749 3.77125 -2.08285e-18)
(7.62743 4.22689 0)
(7.51777 4.74376 1.97221e-18)
(7.42652 5.33735 0)
(7.42981 5.96224 0)
(7.22167 6.84124 -2.84519e-17)
(7.93439 7.0447 2.52171e-17)
(6.33171 8.60454 -8.22143e-19)
(9.99322 0.0789613 3.5897e-19)
(9.979 0.156537 -3.6932e-19)
(9.95293 0.233992 1.50826e-18)
(9.91611 0.312944 1.54727e-18)
(9.87016 0.394839 6.14857e-22)
(9.81587 0.480955 -2.42167e-18)
(9.75357 0.572442 -3.28451e-21)
(9.68348 0.670418 3.38538e-18)
(9.60587 0.776008 -3.43906e-18)
(9.52104 0.890362 8.77901e-19)
(9.42927 1.0147 9.01025e-19)
(9.33086 1.15035 -9.1921e-19)
(9.22617 1.29874 -5.63473e-18)
(9.11564 1.46145 7.57821e-18)
(8.99981 1.64026 -7.75522e-18)
(8.87938 1.83725 1.56922e-17)
(8.75522 2.05478 -7.92569e-18)
(8.62843 2.2956 0)
(8.50046 2.56291 -1.62087e-17)
(8.37325 2.86049 1.62474e-17)
(8.24936 3.19296 0)
(8.13223 3.56592 0)
(8.0267 3.98602 3.94999e-18)
(7.93889 4.46114 -1.89228e-18)
(7.87948 4.99805 -1.86834e-18)
(7.84412 5.61408 2.71415e-17)
(7.92387 6.25149 -2.90216e-17)
(7.76654 7.15923 0)
(8.59777 7.35462 -1.99222e-17)
(6.94904 8.98207 -2.01359e-17)
(9.99339 0.083683 -1.8086e-18)
(9.98007 0.165984 3.67475e-19)
(9.95563 0.248286 -4.7172e-21)
(9.92114 0.332253 0)
(9.87823 0.419346 -1.56582e-18)
(9.82769 0.51087 -1.6059e-18)
(9.76987 0.60802 -8.19703e-19)
(9.70504 0.711955 0)
(9.63351 0.823827 3.41726e-18)
(9.55565 0.944813 -4.33604e-18)
(9.47181 1.07617 0)
(9.3824 1.21925 -1.79508e-18)
(9.28791 1.37551 -1.83889e-18)
(9.18889 1.54654 9.31471e-18)
(9.08604 1.7342 -7.52379e-18)
(8.98027 1.94058 -5.75529e-18)
(8.87265 2.16809 5.77566e-18)
(8.7646 2.41952 -1.55405e-17)
(8.6579 2.6981 3.1117e-17)
(8.5549 3.00767 1.96024e-18)
(8.45867 3.35291 -1.5423e-17)
(8.37333 3.73948 1.87573e-18)
(8.30462 4.17409 -1.87275e-18)
(8.25954 4.66451 -2.63868e-17)
(8.25048 5.21689 2.38948e-17)
(8.2713 5.84956 2.44106e-17)
(8.42253 6.49895 -2.02918e-17)
(8.32514 7.42172 0)
(9.24466 7.65887 -1.6999e-17)
(7.58357 9.40493 5.47956e-17)
(9.99358 0.0881416 -3.59579e-19)
(9.98126 0.174884 -1.09438e-18)
(9.95857 0.261708 -1.49581e-18)
(9.92654 0.350335 0)
(9.88682 0.442243 2.10911e-22)
(9.8402 0.538758 -5.70859e-21)
(9.78707 0.641113 3.24248e-18)
(9.7277 0.750496 0)
(9.66249 0.868074 -1.69649e-18)
(9.59185 0.995043 6.85542e-18)
(9.51623 1.13268 -5.21414e-18)
(9.4361 1.28237 1.7771e-18)
(9.35211 1.44558 0)
(9.26495 1.62391 -9.12608e-18)
(9.17544 1.81921 7.34527e-18)
(9.08469 2.03362 -1.86739e-18)
(8.99397 2.26953 2.36431e-20)
(8.90502 2.52976 1.4995e-17)
(8.82001 2.81751 -1.49571e-17)
(8.74161 3.13665 0)
(8.67345 3.49184 0)
(8.62028 3.88869 -1.81159e-18)
(8.58864 4.33383 0)
(8.58638 4.83486 2.60524e-17)
(8.62748 5.39748 -2.18427e-17)
(8.70531 6.03942 0)
(8.92255 6.70078 -1.8133e-17)
(8.90368 7.62144 1.54885e-18)
(9.88985 7.95322 3.07791e-17)
(8.27162 9.90803 1.36268e-17)
(9.99378 0.0923154 2.85721e-18)
(9.98253 0.183202 4.84122e-21)
(9.9617 0.274226 0)
(9.93225 0.36716 1.51211e-18)
(9.89584 0.463496 0)
(9.85328 0.564582 -1.57222e-18)
(9.80498 0.67168 -3.21725e-18)
(9.75127 0.785997 3.2632e-18)
(9.69256 0.908711 -1.66762e-18)
(9.62934 1.04103 -1.6849e-18)
(9.56211 1.18426 1.72194e-18)
(9.49146 1.33976 0)
(9.41823 1.509 -1.75427e-18)
(9.3432 1.69356 0)
(9.26726 1.89531 0)
(9.19172 2.11639 0)
(9.1181 2.35913 1.8233e-18)
(9.04845 2.62628 1.79618e-18)
(8.98524 2.92103 -1.25863e-17)
(8.93154 3.24721 1.42402e-17)
(8.89148 3.60933 0)
(8.8704 4.01276 1.34428e-17)
(8.87569 4.46384 -2.32048e-19)
(8.91602 4.96971 -1.23853e-17)
(9.00637 5.5354 0)
(9.14143 6.17644 0)
(9.41894 6.84628 -1.16245e-18)
(9.5018 7.74351 0)
(10.5131 8.24911 1.16335e-17)
(9.03162 10.7604 -1.17963e-17)
(0.0681499 -0.0730817 -9.94279e-22)
(0.215746 -0.081034 -3.72583e-21)
(0.436981 -0.0747648 -5.14191e-19)
(0.684361 -0.0704261 0)
(0.951083 -0.0681164 0)
(1.2208 -0.0672282 -3.62137e-19)
(1.47357 -0.0659336 3.79561e-19)
(1.69638 -0.0629561 -2.69458e-19)
(1.88612 -0.0584077 3.60766e-19)
(2.0451 -0.0530158 -1.8034e-19)
(2.17755 -0.0474218 -4.21212e-20)
(2.28826 -0.041954 0)
(2.37993 -0.0359852 -3.86917e-20)
(2.45291 -0.0301023 0)
(2.50956 -0.0255472 -3.48199e-20)
(2.55532 -0.0214746 1.77646e-20)
(2.59468 -0.0173154 0)
(2.62857 -0.0140127 0)
(2.65584 -0.0134251 -1.49518e-20)
(2.67737 -0.016174 -1.40293e-20)
(2.69625 -0.0206447 6.12539e-22)
(2.71541 -0.0257245 1.35215e-20)
(2.73794 -0.0309173 1.25138e-20)
(2.76737 -0.0364269 0)
(2.80714 -0.0415666 5.33614e-21)
(2.8599 -0.0460902 -4.78489e-21)
(2.92919 -0.0505037 0)
(3.0206 -0.0559703 -1.37869e-21)
(3.14062 -0.0630318 9.56847e-22)
(3.335 -0.0711152 3.94662e-22)
(0.00896948 -0.123484 0)
(0.123006 -0.17533 0)
(0.33239 -0.177202 0)
(0.563896 -0.174568 0)
(0.816384 -0.173155 0)
(1.06718 -0.172294 -5.33553e-19)
(1.29595 -0.168326 9.37047e-19)
(1.49217 -0.159153 6.20272e-19)
(1.65423 -0.145797 -7.44033e-19)
(1.78463 -0.130487 -8.7858e-20)
(1.88816 -0.115247 4.28786e-20)
(1.97028 -0.10138 0)
(2.03494 -0.0843599 1.18729e-19)
(2.08199 -0.0661327 0)
(2.10926 -0.0554339 3.52241e-20)
(2.12264 -0.052911 -1.23517e-19)
(2.12697 -0.051182 3.52062e-20)
(2.12549 -0.0444266 -6.40608e-20)
(2.10848 -0.0320387 8.00673e-20)
(2.07003 -0.0178123 3.03891e-20)
(2.02206 -0.00775196 0)
(1.97358 -0.00347992 -3.43895e-20)
(1.93175 -0.00424789 3.41954e-20)
(1.896 -0.00949255 0)
(1.87418 -0.0192971 -5.82514e-21)
(1.87514 -0.0356749 -1.51308e-20)
(1.90669 -0.0603796 1.55206e-21)
(1.97709 -0.0961672 8.10015e-21)
(2.09432 -0.143268 -4.95929e-21)
(2.31361 -0.197827 0)
(-0.0335927 -0.176044 0)
(0.0293061 -0.26922 0)
(0.205808 -0.282983 0)
(0.390909 -0.281272 1.60192e-18)
(0.596406 -0.279237 -1.5593e-19)
(0.791959 -0.275532 -1.69775e-18)
(0.958491 -0.265737 -1.86584e-19)
(1.08922 -0.247356 3.73026e-19)
(1.18434 -0.222261 -7.21846e-19)
(1.24536 -0.194452 6.62177e-19)
(1.27767 -0.167046 -3.49273e-19)
(1.28697 -0.147368 3.57566e-19)
(1.27577 -0.128828 -8.47437e-20)
(1.26244 -0.093304 -7.86122e-20)
(1.18794 -0.0483092 2.03717e-19)
(1.05547 -0.0159652 -1.54654e-19)
(0.91098 0.00286914 1.95532e-19)
(0.777665 0.0187425 -7.36129e-20)
(0.683721 0.0349063 7.45124e-20)
(0.619572 0.0446667 -6.86757e-20)
(0.571308 0.0439118 6.91477e-20)
(0.541694 0.0341759 -3.1691e-20)
(0.531515 0.0179989 1.6298e-20)
(0.543266 -0.0054318 -2.79352e-20)
(0.588216 -0.0407709 2.76404e-20)
(0.662538 -0.0875491 1.18323e-20)
(0.765637 -0.145044 0)
(0.901921 -0.217758 0)
(1.07412 -0.305842 -5.11936e-21)
(1.32393 -0.407808 0)
(-0.0652377 -0.210704 0)
(-0.0433318 -0.337045 -4.00277e-18)
(0.0989622 -0.363671 3.6274e-18)
(0.231398 -0.362462 0)
(0.380096 -0.357853 9.48468e-20)
(0.50565 -0.345202 1.46122e-18)
(0.592016 -0.322903 -1.56899e-18)
(0.637888 -0.289679 -1.95175e-19)
(0.647814 -0.247422 0)
(0.620888 -0.203171 -5.64228e-19)
(0.565498 -0.152817 6.00378e-19)
(0.472704 -0.0906171 3.77788e-19)
(0.257889 -0.033394 -3.86348e-19)
(0.0856304 0.0183689 -9.01177e-20)
(-0.00717824 0.0638199 0)
(-0.09086 0.0890757 0)
(-0.169835 0.0942368 0)
(-0.239158 0.0880208 0)
(-0.293207 0.0781562 0)
(-0.328647 0.0657254 -1.02486e-19)
(-0.34361 0.0480459 1.01329e-19)
(-0.337688 0.0223078 -9.42348e-20)
(-0.316065 -0.0127361 9.31438e-20)
(-0.265065 -0.0567319 8.27991e-22)
(-0.1954 -0.111463 2.76725e-20)
(-0.103659 -0.177192 0)
(0.00757291 -0.253886 9.37161e-21)
(0.152765 -0.35287 -9.25066e-21)
(0.308586 -0.462263 1.97989e-20)
(0.477457 -0.585646 1.84512e-21)
(-0.0953865 -0.239849 0)
(-0.10664 -0.390896 -2.45141e-21)
(0.000447908 -0.42549 3.39536e-18)
(0.0753974 -0.417944 -3.13825e-18)
(0.155414 -0.40365 1.90637e-19)
(0.194871 -0.37142 0)
(0.182323 -0.324277 1.1689e-18)
(0.119311 -0.264555 -1.68877e-18)
(0.0156036 -0.193971 0)
(-0.130909 -0.116076 0)
(-0.324236 -0.0387129 1.92869e-19)
(-0.467124 0.0225427 1.85944e-19)
(-0.563575 0.0582642 1.76985e-19)
(-0.666304 0.078146 -1.6848e-19)
(-0.752085 0.0991334 -3.13495e-19)
(-0.822561 0.116533 3.11653e-19)
(-0.878047 0.119488 0)
(-0.919147 0.108911 0)
(-0.944979 0.0894502 1.322e-19)
(-0.954188 0.0639766 -2.59587e-19)
(-0.946457 0.032366 9.53124e-20)
(-0.923496 -0.00641049 -3.13095e-20)
(-0.884054 -0.054511 -5.97191e-22)
(-0.829495 -0.11306 2.3916e-20)
(-0.763343 -0.180972 -2.6857e-20)
(-0.684647 -0.260123 2.11213e-20)
(-0.594122 -0.351567 -1.38815e-21)
(-0.496074 -0.453134 -2.49709e-21)
(-0.402615 -0.562573 -1.01703e-20)
(-0.342884 -0.666694 0)
(-0.125963 -0.272169 4.89206e-18)
(-0.16808 -0.428591 -4.28005e-18)
(-0.0990019 -0.460474 0)
(-0.0886958 -0.433533 -4.98068e-20)
(-0.0968973 -0.394951 -1.98725e-19)
(-0.166103 -0.332643 -3.53642e-18)
(-0.286201 -0.254406 2.16029e-18)
(-0.446521 -0.167147 1.67492e-18)
(-0.632595 -0.0793961 -1.56769e-18)
(-0.793058 -0.00747634 2.34831e-18)
(-0.909682 0.0430325 -3.36865e-20)
(-1.01986 0.0832026 -8.98671e-19)
(-1.11874 0.114506 -3.36104e-19)
(-1.20748 0.135054 -3.14528e-19)
(-1.28097 0.146834 1.26604e-20)
(-1.33734 0.149579 5.83716e-19)
(-1.3771 0.140245 -4.22566e-19)
(-1.40187 0.11947 1.37175e-19)
(-1.41272 0.0900423 -1.25554e-19)
(-1.41027 0.0542024 -5.49003e-20)
(-1.39549 0.0123383 1.80574e-19)
(-1.37114 -0.036397 0)
(-1.33435 -0.0930109 -7.70121e-20)
(-1.29089 -0.158566 9.66362e-20)
(-1.24102 -0.233466 -6.86565e-20)
(-1.18567 -0.318522 -1.13976e-21)
(-1.12777 -0.412644 1.69475e-20)
(-1.07511 -0.51177 -1.32267e-20)
(-1.04167 -0.608071 -1.37006e-21)
(-1.0353 -0.683697 -4.12693e-21)
(-0.151655 -0.313965 0)
(-0.227356 -0.444568 3.79462e-18)
(-0.206642 -0.45573 -7.02467e-20)
(-0.275438 -0.395671 -2.99689e-19)
(-0.381595 -0.324526 -1.27681e-19)
(-0.543639 -0.23096 -2.94592e-18)
(-0.734017 -0.130675 2.03819e-18)
(-0.921913 -0.0405959 -1.67201e-18)
(-1.07052 0.0250245 -1.5487e-18)
(-1.20084 0.0771334 8.09396e-19)
(-1.31904 0.119731 1.44468e-18)
(-1.4246 0.152038 -3.01383e-20)
(-1.51682 0.173305 -1.14318e-18)
(-1.59509 0.183918 7.89378e-19)
(-1.65768 0.184301 0)
(-1.7039 0.174273 -2.7635e-19)
(-1.7348 0.153363 2.76582e-19)
(-1.75233 0.122797 -6.43018e-20)
(-1.75832 0.0848226 0)
(-1.75437 0.0412753 5.93379e-20)
(-1.74199 -0.00737177 0)
(-1.72307 -0.0618556 -5.1546e-20)
(-1.69853 -0.122875 4.6633e-20)
(-1.67106 -0.19137 -4.6457e-20)
(-1.64133 -0.268266 0)
(-1.61079 -0.353356 -3.40062e-20)
(-1.58285 -0.444165 1.58884e-20)
(-1.56482 -0.535897 4.42195e-21)
(-1.56481 -0.621015 -3.27569e-21)
(-1.57552 -0.682402 -3.18874e-22)
(-0.164802 -0.354315 0)
(-0.281677 -0.428027 -2.18153e-19)
(-0.32452 -0.399392 3.22349e-18)
(-0.474851 -0.3004 1.02945e-19)
(-0.662646 -0.195101 -3.61096e-18)
(-0.87612 -0.0808473 -3.73331e-18)
(-1.06417 0.00801163 1.37018e-18)
(-1.22111 0.0726829 1.87006e-18)
(-1.36526 0.125264 0)
(-1.49438 0.167022 -7.31349e-19)
(-1.60882 0.198428 7.26503e-19)
(-1.70847 0.219332 0)
(-1.79336 0.229179 0)
(-1.86344 0.22821 2.97679e-19)
(-1.91849 0.216842 -2.96746e-19)
(-1.95888 0.19539 -2.69408e-19)
(-1.98603 0.164492 2.6985e-19)
(-2.00196 0.125728 1.25123e-19)
(-2.00875 0.0810867 -1.15488e-19)
(-2.0084 0.0321168 1.16311e-19)
(-2.00275 -0.0206612 0)
(-1.99322 -0.077991 2.92687e-21)
(-1.98221 -0.140668 4.00839e-21)
(-1.97094 -0.209858 3.37939e-21)
(-1.96011 -0.286429 0)
(-1.95096 -0.369528 0)
(-1.94666 -0.455889 0)
(-1.95335 -0.540265 0)
(-1.97425 -0.615128 -1.01287e-20)
(-1.99387 -0.665467 4.70786e-21)
(-0.161589 -0.377487 0)
(-0.325336 -0.365609 2.1508e-19)
(-0.438586 -0.286553 0)
(-0.659768 -0.147676 3.34319e-18)
(-0.886139 -0.017469 -6.26189e-18)
(-1.08473 0.0712562 4.38164e-18)
(-1.26367 0.138127 1.86398e-18)
(-1.42356 0.190003 -2.07304e-18)
(-1.56529 0.229391 -1.95405e-19)
(-1.68976 0.257811 0)
(-1.79816 0.276114 0)
(-1.89121 0.284274 0)
(-1.96956 0.282015 0)
(-2.03374 0.269459 0)
(-2.08429 0.247053 0)
(-2.12214 0.215533 0)
(-2.14885 0.176146 0)
(-2.16639 0.130694 -9.82717e-22)
(-2.17683 0.0810461 0)
(-2.18232 0.0285509 0)
(-2.185 -0.0263328 9.69974e-20)
(-2.18615 -0.0843189 -5.23725e-20)
(-2.18824 -0.14659 -4.39643e-20)
(-2.19212 -0.21467 3.54387e-21)
(-2.19822 -0.289382 3.63973e-21)
(-2.20733 -0.369549 2.63142e-20)
(-2.22218 -0.451464 0)
(-2.24765 -0.529545 1.47068e-20)
(-2.28327 -0.596268 1.06353e-20)
(-2.30877 -0.638789 -9.14206e-22)
(-0.133517 -0.367278 -5.32983e-21)
(-0.345892 -0.251265 3.47977e-18)
(-0.524559 -0.10655 2.14899e-19)
(-0.777545 0.057139 3.24117e-18)
(-1.00449 0.155419 -5.76492e-19)
(-1.20983 0.226733 -2.29179e-18)
(-1.38969 0.27654 -1.95105e-18)
(-1.54586 0.310825 2.04591e-19)
(-1.68122 0.333697 1.94971e-19)
(-1.79855 0.34704 1.85583e-19)
(-1.89977 0.351453 -5.1212e-19)
(-1.98628 0.346764 8.49012e-19)
(-2.0592 0.332698 0)
(-2.11947 0.3093 0)
(-2.16794 0.277031 0)
(-2.20573 0.236867 2.5998e-19)
(-2.23433 0.190403 -2.60459e-19)
(-2.25552 0.139607 -5.99851e-20)
(-2.27131 0.0863147 -5.49611e-20)
(-2.28386 0.0317522 0)
(-2.29536 -0.0237605 0)
(-2.30718 -0.0808117 4.23619e-20)
(-2.32167 -0.141225 3.67388e-20)
(-2.33951 -0.206908 -3.64636e-20)
(-2.36078 -0.278801 5.80825e-20)
(-2.38583 -0.355669 -2.97082e-20)
(-2.41685 -0.433555 0)
(-2.45752 -0.506586 -1.45059e-20)
(-2.50453 -0.567301 0)
(-2.53449 -0.60456 0)
(-0.0759059 -0.290949 0)
(-0.313702 -0.0426404 -1.37918e-20)
(-0.548215 0.133077 -2.21723e-19)
(-0.824851 0.264631 2.2643e-19)
(-1.06728 0.343948 1.7772e-18)
(-1.27409 0.390397 -3.7808e-18)
(-1.44784 0.416277 1.75284e-18)
(-1.59477 0.429768 0)
(-1.72036 0.434855 1.95593e-19)
(-1.8285 0.432821 -3.71737e-19)
(-1.92179 0.423694 -1.76187e-19)
(-2.00209 0.406982 -1.66916e-19)
(-2.07083 0.382202 0)
(-2.12908 0.349232 1.49154e-19)
(-2.17763 0.308491 -1.40509e-19)
(-2.21753 0.261084 3.23015e-19)
(-2.25012 0.208806 -3.15875e-19)
(-2.2768 0.153779 1.20653e-19)
(-2.29936 0.0979112 5.48656e-20)
(-2.31992 0.0424156 0)
(-2.34058 -0.0124896 4.34318e-20)
(-2.36295 -0.067609 -8.56119e-20)
(-2.38907 -0.125105 0)
(-2.41978 -0.18743 0)
(-2.45473 -0.255867 -2.50738e-20)
(-2.49395 -0.329354 -2.30769e-20)
(-2.53929 -0.403875 -8.406e-21)
(-2.59296 -0.473232 -6.89157e-21)
(-2.64944 -0.529857 0)
(-2.68312 -0.563684 0)
(0.0342337 -0.118136 8.95855e-18)
(-0.233535 0.224978 -3.53209e-18)
(-0.532805 0.397873 7.28796e-18)
(-0.838177 0.500564 -1.4588e-19)
(-1.08568 0.542131 -3.76817e-18)
(-1.28361 0.553004 2.26229e-19)
(-1.44289 0.550356 0)
(-1.57472 0.542013 -1.01858e-18)
(-1.68669 0.52985 6.05476e-19)
(-1.78349 0.513587 1.87326e-19)
(-1.86808 0.492437 0)
(-1.94257 0.465456 -3.28524e-19)
(-2.0085 0.43177 3.26166e-19)
(-2.06683 0.39094 -2.99959e-19)
(-2.11801 0.343276 1.41381e-19)
(-2.16261 0.289978 -1.32134e-19)
(-2.20165 0.232997 -6.20943e-20)
(-2.23611 0.174606 0)
(-2.2673 0.116894 -5.19912e-20)
(-2.29713 0.061178 1.38852e-19)
(-2.32762 0.00759816 -9.19362e-20)
(-2.36066 -0.0449784 3.75299e-20)
(-2.39775 -0.0988007 6.34959e-20)
(-2.44034 -0.157016 -1.7834e-20)
(-2.48776 -0.221517 1.21265e-20)
(-2.53976 -0.29164 0)
(-2.59786 -0.363529 1.82524e-20)
(-2.6631 -0.430645 5.01183e-21)
(-2.72798 -0.484926 3.33186e-21)
(-2.76499 -0.516706 0)
(0.226216 0.206438 -8.89247e-18)
(-0.122215 0.56879 -4.51533e-19)
(-0.505047 0.711559 0)
(-0.832094 0.753241 -2.09273e-18)
(-1.07003 0.736209 1.66407e-18)
(-1.24447 0.70249 0)
(-1.3778 0.670187 8.56596e-19)
(-1.48683 0.642143 -6.37668e-19)
(-1.58051 0.615465 5.83702e-19)
(-1.66324 0.587666 -2.89887e-20)
(-1.73786 0.55726 -7.36203e-19)
(-1.80665 0.522858 -1.71082e-19)
(-1.87113 0.482975 -3.13719e-19)
(-1.93194 0.436623 1.69443e-19)
(-1.98895 0.383893 2.92991e-19)
(-2.0419 0.326081 6.64685e-20)
(-2.09098 0.26534 0)
(-2.13658 0.204164 1.64051e-19)
(-2.17944 0.144899 -5.58724e-20)
(-2.22094 0.0890951 -4.75321e-20)
(-2.26278 0.0369326 0)
(-2.30688 -0.0128592 -2.48434e-21)
(-2.35513 -0.0628517 -3.25467e-20)
(-2.40874 -0.11642 2.44104e-20)
(-2.46768 -0.176642 -1.93691e-20)
(-2.53118 -0.243565 -3.48631e-21)
(-2.60034 -0.313549 1.13763e-20)
(-2.67596 -0.379684 -5.63005e-21)
(-2.74873 -0.433123 -3.3494e-21)
(-2.78885 -0.463978 -3.1867e-22)
(0.421643 0.62637 -4.97261e-18)
(-0.0204837 1.03778 4.37702e-18)
(-0.505487 1.07206 -4.47314e-19)
(-0.834907 1.00455 4.63919e-19)
(-1.03625 0.905297 2.33742e-19)
(-1.16215 0.821304 -2.2385e-19)
(-1.25182 0.764501 0)
(-1.32825 0.724052 0)
(-1.39841 0.688276 -4.94347e-19)
(-1.46355 0.653122 7.90147e-19)
(-1.52572 0.617555 0)
(-1.58777 0.580007 6.04367e-19)
(-1.65154 0.537919 -1.77699e-20)
(-1.71718 0.489313 -2.4098e-19)
(-1.7836 0.433925 0)
(-1.84944 0.373171 0)
(-1.91367 0.309511 -1.79193e-19)
(-1.97567 0.245769 6.10006e-20)
(-2.03529 0.184655 0)
(-2.09294 0.128124 4.24818e-20)
(-2.14955 0.0766151 -7.94572e-20)
(-2.20671 0.0289448 -3.13996e-20)
(-2.26693 -0.0174827 0)
(-2.33176 -0.0665018 -1.43598e-20)
(-2.40136 -0.122288 9.3525e-21)
(-2.47513 -0.186323 2.80893e-21)
(-2.55391 -0.255099 -1.48475e-20)
(-2.63873 -0.321131 -1.84846e-21)
(-2.71881 -0.374725 0)
(-2.76192 -0.40551 3.21753e-22)
(0.452592 1.68662 1.37983e-18)
(0.0710991 1.85101 0)
(-0.629457 1.54693 4.47572e-19)
(-0.895008 1.25112 -1.10466e-18)
(-1.00394 1.01887 1.0041e-18)
(-1.03754 0.876549 2.29332e-19)
(-1.058 0.815444 0)
(-1.09305 0.780147 -3.2062e-19)
(-1.13603 0.743435 3.20527e-19)
(-1.17871 0.705674 -3.95594e-19)
(-1.22281 0.670059 3.91381e-19)
(-1.27382 0.635443 -9.06645e-20)
(-1.33503 0.59698 8.62354e-20)
(-1.40609 0.550844 -7.97262e-20)
(-1.48468 0.496314 -7.45613e-20)
(-1.56815 0.435018 0)
(-1.65399 0.369819 1.25045e-19)
(-1.73997 0.30409 5.34447e-20)
(-1.82426 0.241031 -5.33027e-20)
(-1.90577 0.182846 0)
(-1.98404 0.130275 0)
(-2.05945 0.0827107 3.32185e-20)
(-2.13447 0.0384182 0)
(-2.21252 -0.00681371 0)
(-2.29391 -0.0588767 3.18871e-21)
(-2.37711 -0.120391 5.40678e-21)
(-2.46419 -0.188596 -5.40869e-22)
(-2.5569 -0.255163 2.98387e-21)
(-2.6437 -0.309572 0)
(-2.6899 -0.341257 -1.07103e-21)
(9.99401 0.0962472 -2.7469e-18)
(9.98391 0.191031 2.09275e-18)
(9.96506 0.285984 8.57851e-22)
(9.93836 0.382924 -3.63039e-18)
(9.90546 0.483358 2.95315e-18)
(9.86719 0.588653 1.51036e-18)
(9.824 0.700092 -3.07366e-18)
(9.77623 0.8189 4.67222e-18)
(9.72437 0.94626 1.58096e-18)
(9.66895 1.08339 3.23663e-18)
(9.61056 1.23156 -3.2583e-18)
(9.5499 1.39211 0)
(9.48798 1.56647 3.34005e-18)
(9.4256 1.75628 0)
(9.36382 1.96338 1.68543e-18)
(9.3042 2.18982 -6.80506e-18)
(9.24845 2.43785 2.03976e-17)
(9.19882 2.7101 -2.87801e-17)
(9.15802 3.00969 1.17387e-17)
(9.12967 3.3403 1.31415e-17)
(9.11837 3.70616 -1.29283e-17)
(9.12994 4.11218 -1.53445e-18)
(9.17261 4.56414 0)
(9.25565 5.06804 0)
(9.3943 5.6278 1.24859e-18)
(9.58733 6.25524 -1.75567e-17)
(9.92246 6.92127 1.56134e-18)
(10.1458 7.75632 1.40915e-17)
(11.3024 8.38272 0)
(11.9619 10.9925 1.65417e-18)
(9.99427 0.099945 -2.32467e-18)
(9.9854 0.198385 -1.01471e-18)
(9.96868 0.297003 6.89733e-19)
(9.94489 0.397649 1.40848e-18)
(9.91567 0.501846 -2.86932e-18)
(9.8819 0.610976 0)
(9.84403 0.726341 1.48068e-18)
(9.80246 0.849171 3.01296e-18)
(9.75769 0.980636 -3.06785e-18)
(9.71034 1.12193 1.10643e-20)
(9.66108 1.27431 0)
(9.6108 1.43907 0)
(9.5604 1.61761 -8.02509e-18)
(9.51078 1.81155 -1.07399e-20)
(9.4634 2.02268 4.8427e-18)
(9.41998 2.25293 0)
(9.38237 2.50445 1.60314e-18)
(9.35288 2.77968 -1.27909e-17)
(9.33454 3.08153 1.26769e-17)
(9.33147 3.41336 -1.23266e-17)
(9.3486 3.77891 1.35891e-17)
(9.39227 4.18248 1.46424e-18)
(9.471 4.62864 1.34991e-18)
(9.59428 5.12153 0)
(9.77753 5.66347 -1.02354e-17)
(10.0244 6.26027 8.56483e-18)
(10.4068 6.89203 0)
(10.7545 7.60729 -1.26479e-18)
(11.58 8.22162 3.86246e-18)
(12.3681 9.28233 -1.71069e-18)
(9.99454 0.103337 -3.1276e-19)
(9.987 0.205135 2.94826e-18)
(9.97252 0.307109 1.33955e-18)
(9.95178 0.411125 -1.3638e-18)
(9.9264 0.518714 1.38612e-18)
(9.8973 0.631267 2.83025e-18)
(9.86496 0.750105 -1.43411e-18)
(9.82979 0.876452 -7.29529e-18)
(9.79235 1.01144 1.46975e-18)
(9.75331 1.15624 1.50211e-18)
(9.71342 1.31207 -6.0568e-18)
(9.67372 1.48021 7.61855e-18)
(9.63498 1.662 0)
(9.5983 1.85895 0)
(9.56548 2.07276 1.53644e-18)
(9.53825 2.30523 0)
(9.51865 2.5584 -1.54577e-18)
(9.50918 2.83448 0)
(9.51311 3.13597 0)
(9.53475 3.46569 0)
(9.57919 3.82678 -1.25982e-17)
(9.65324 4.22262 2.34156e-19)
(9.76495 4.65597 7.77036e-18)
(9.92373 5.12868 9.24571e-18)
(10.144 5.64049 -8.84022e-18)
(10.43 6.18907 -7.37215e-18)
(10.825 6.75533 7.05373e-18)
(11.221 7.32162 -1.4695e-18)
(11.745 7.80552 -1.23232e-18)
(12.4823 8.51009 0)