/*--------------------------------*- C++ -*----------------------------------*\
| =========                 |                                                 |
| \\      /  F ield         | OpenFOAM: The Open Source CFD Toolbox           |
|  \\    /   O peration     | Version:  5.x                                   |
|   \\  /    A nd           | Web:      www.OpenFOAM.org                      |
|    \\/     M anipulation  |                                                 |
\*---------------------------------------------------------------------------*/
FoamFile
{
    version     2.0;
    format      ascii;
    class       surfaceScalarField;
    location    "0.3";
    object      meshPhi;
}
// * * * * * * * * * * * * * * * * * * * * * * * * * * * * * * * * * * * * * //

dimensions      [0 3 -1 0 0 0 0];

internalField   nonuniform List<scalar> 
5457
(
0.000518312
4.16726e-07
0.000985916
1.21363e-06
0.00139071
1.9773e-06
0.00173755
2.75211e-06
0.00203106
3.58213e-06
0.00227537
4.50307e-06
0.00247419
5.54542e-06
0.00263077
6.736e-06
0.00274799
8.09872e-06
0.00282839
9.65481e-06
0.00287419
1.14229e-05
0.00288737
1.34189e-05
0.0028697
1.56564e-05
0.00282279
1.81466e-05
0.00274814
2.08977e-05
0.00264715
2.39137e-05
0.00252109
2.71917e-05
0.00237106
3.07249e-05
0.00219822
3.45201e-05
0.00200449
3.86419e-05
0.00179297
4.32216e-05
0.00156701
4.83761e-05
0.00132971
5.41623e-05
0.00108545
6.06173e-05
0.000841369
6.7634e-05
0.000606748
7.45305e-05
0.000393306
7.96044e-05
0.000217916
8.01742e-05
0.000106138
7.45893e-05
4.69894e-05
0.000518889
8.27797e-07
0.000987097
2.411e-06
0.00139252
3.92844e-06
0.00174006
5.46799e-06
0.00203433
7.11705e-06
0.00227952
8.94655e-06
0.00247933
1.1017e-05
0.00263706
1.33818e-05
0.00275561
1.60883e-05
0.00283754
1.91785e-05
0.0028851
2.26891e-05
0.00290031
2.66516e-05
0.00288497
3.10924e-05
0.00284075
3.60337e-05
0.0027692
4.14925e-05
0.00267186
4.74783e-05
0.00255014
5.39851e-05
0.0024052
6.09881e-05
0.00223787
6.84672e-05
0.00204989
7.65277e-05
0.00184501
8.54679e-05
0.00162723
9.55497e-05
0.001399
0.00010686
0.00116355
0.000119595
0.000928397
0.000134079
0.00070273
0.000149973
0.000495587
0.000165485
0.000319774
0.000177212
0.000199523
0.000181573
0.000140648
0.000520069
1.2294e-06
0.000989478
3.58096e-06
0.00139616
5.83506e-06
0.00174506
8.12169e-06
0.00204086
1.05703e-05
0.00228777
1.32859e-05
0.00248956
1.63584e-05
0.00264956
1.98664e-05
0.00277073
2.388e-05
0.00285569
2.84608e-05
0.00290676
3.36624e-05
0.002926
3.95301e-05
0.00291528
4.61016e-05
0.00287635
5.34089e-05
0.00281092
6.14788e-05
0.00272072
7.03302e-05
0.00260758
7.99582e-05
0.00247295
9.03096e-05
0.00231676
0.00010125
0.00213983
0.000112839
0.00194762
0.000125646
0.00174649
0.000140171
0.00153729
0.000156312
0.00131946
0.000174332
0.00110283
0.000195667
0.000899165
0.000221603
0.000714239
0.000252126
0.000555753
0.00028617
0.000443659
0.000320366
0.000349356
0.000521832
1.61785e-06
0.000993028
4.7126e-06
0.00140158
7.67902e-06
0.00175251
1.06874e-05
0.00205057
1.39074e-05
0.00230003
1.74767e-05
0.00250474
2.15128e-05
0.00266811
2.61185e-05
0.00279317
3.13847e-05
0.00288262
3.7391e-05
0.00293886
4.42056e-05
0.00296405
5.1885e-05
0.00296016
6.04757e-05
0.00292904
7.00162e-05
0.00287254
8.05428e-05
0.00279269
9.20915e-05
0.00269201
0.000104677
0.0025719
0.000118066
0.00243126
0.000131801
0.00227069
0.00014615
0.00209668
0.000162278
0.00191822
0.000180513
0.00173765
0.000199902
0.0015485
0.000220877
0.00136205
0.000246509
0.00119725
0.000279522
0.00106018
0.000321351
0.00095828
0.000373974
0.000907828
0.000435872
0.000534
0.000524163
1.98904e-06
0.000997718
5.79386e-06
0.00140874
9.44039e-06
0.00176233
1.31369e-05
0.00206335
1.70909e-05
0.00231616
2.14709e-05
0.0025247
2.64199e-05
0.00269247
3.20628e-05
0.00282262
3.85095e-05
0.00291795
4.58551e-05
0.00298097
5.41797e-05
0.00301395
6.35478e-05
0.00301899
7.40097e-05
0.00299803
8.56052e-05
0.00295305
9.83741e-05
0.00288621
0.000112378
0.00280074
0.000127543
0.00269718
0.000143237
0.00257511
0.000158946
0.00243682
0.000175563
0.00228689
0.000194321
0.00213345
0.0002149
0.00198589
0.000235766
0.00183798
0.000257272
0.0016967
0.000282974
0.00158607
0.000315443
0.00151885
0.0003552
0.00150923
0.000403601
0.00157273
0.000458691
0.000569345
0.000527047
2.33899e-06
0.00100351
6.81303e-06
0.00141755
1.10998e-05
0.00177441
1.54428e-05
0.00207905
2.00847e-05
0.00233596
2.52219e-05
0.00254917
3.1021e-05
0.00272233
3.76264e-05
0.00285869
4.51643e-05
0.00296119
5.37427e-05
0.00303247
6.34502e-05
0.00307496
7.43555e-05
0.00309087
8.65068e-05
0.00308228
9.99358e-05
0.00305119
0.000114667
0.0029996
0.00013075
0.00293024
0.000147947
0.00284447
0.000165468
0.00274541
0.000183029
0.00263551
0.000201585
0.00251588
0.000221881
0.00239213
0.00024338
0.00227733
0.00026453
0.00217622
0.000284714
0.00209118
0.000305973
0.0020397
0.000329384
0.00204222
0.000352726
0.00211858
0.000372776
0.00227853
0.000384656
0.000361834
0.000530462
2.66385e-06
0.00101035
7.75877e-06
0.00142793
1.26385e-05
0.00178861
1.75785e-05
0.00209747
2.28532e-05
0.00235915
2.86842e-05
0.00257782
3.52584e-05
0.00275723
4.27374e-05
0.0029008
5.12605e-05
0.00301161
6.09453e-05
0.00309248
7.18856e-05
0.00314598
8.41498e-05
0.00317451
9.77786e-05
0.00318028
0.000112785
0.00316531
0.000129157
0.00313137
0.000146856
0.00307965
0.000165601
0.00301448
0.000184833
0.00294283
0.000204337
0.00286589
0.000224463
0.00278221
0.000245475
0.00269546
0.000266864
0.00261556
0.000287188
0.00255855
0.000304913
0.00252652
0.000319734
0.00252319
0.000330731
0.00256871
0.000333905
0.00267711
0.000323715
0.00284219
0.000296841
0.000191494
0.000534367
2.96002e-06
0.00101814
8.62053e-06
0.00143973
1.4039e-05
0.00180471
1.95193e-05
0.00211833
2.53636e-05
0.00238537
3.18155e-05
0.00261014
3.90793e-05
0.00279656
4.733e-05
0.00294817
5.67171e-05
0.00306825
6.73644e-05
0.00315977
7.93674e-05
0.00322552
9.27902e-05
0.00326808
0.000107662
0.00328985
0.000123974
0.00329302
0.000141672
0.00327943
0.000160634
0.00325004
0.000180602
0.00321061
0.000201219
0.00316859
0.000222265
0.0031258
0.000243648
0.00308058
0.000265124
0.00303471
0.000285993
0.00299484
0.000304972
0.00297708
0.000320262
0.00298283
0.000329987
0.00300738
0.000331852
0.00306102
0.000322318
0.00314463
0.000298617
0.00324043
0.00026407
0.000217245
0.0005387
3.22446e-06
0.00102677
9.38934e-06
0.00145276
1.52866e-05
0.00182245
2.12442e-05
0.00214127
2.75884e-05
0.00241415
3.45809e-05
0.00264555
4.24398e-05
0.00283955
5.13502e-05
0.00299986
6.14685e-05
0.00312992
7.2921e-05
0.00323291
8.58019e-05
0.0033118
0.000100168
0.0033694
0.000116035
0.00340835
0.000133373
0.00343113
0.000152095
0.00344005
0.000172048
0.00343725
0.000192987
0.00342775
0.000214617
0.00341711
0.000236667
0.00340796
0.000258856
0.00340028
0.000280717
0.00339533
0.000301416
0.00339743
0.000319664
0.00341449
0.000333709
0.00344506
0.000341414
0.00348218
0.000340216
0.00352416
0.000327562
0.0035639
0.000303212
0.00359098
0.000272878
0.000269213
0.000543386
3.45477e-06
0.00103608
1.00582e-05
0.0014668
1.63697e-05
0.00184153
2.27373e-05
0.0021659
2.95067e-05
0.00244498
3.69539e-05
0.00268341
4.53073e-05
0.00288542
5.47586e-05
0.00305488
6.54674e-05
0.0031954
7.75596e-05
0.00331036
9.11245e-05
0.00340294
0.00010621
0.00347616
0.000122816
0.00353294
0.000140894
0.00357607
0.000160336
0.00360837
0.00018097
0.00363288
0.000202561
0.00365373
0.00022483
0.00367507
0.000247479
0.00369945
0.000270151
0.00372814
0.000292331
0.00376246
0.000313239
0.00380419
0.000331772
0.00385409
0.000346467
0.0039074
0.000355495
0.00395494
0.000356668
0.00398691
0.00034781
0.00399454
0.000327945
0.0039816
0.000299105
0.00025109
0.000548345
3.64925e-06
0.00104592
1.06222e-05
0.00148161
1.72803e-05
0.00186163
2.39875e-05
0.00219179
3.11043e-05
0.00247734
3.89172e-05
0.00272306
4.76609e-05
0.00293334
5.75306e-05
0.00311221
6.86853e-05
0.00326345
8.12476e-05
0.00339062
9.52991e-05
0.00349708
0.000110876
0.00358608
0.000127964
0.00366078
0.000146496
0.00372425
0.000166345
0.00377965
0.00018733
0.00383031
0.000209218
0.00387995
0.000231737
0.00393208
0.000254586
0.00398924
0.000277415
0.00405302
0.00029977
0.00412435
0.000321059
0.00420313
0.000340525
0.00428677
0.000357241
0.0043681
0.000370069
0.0044354
0.000377569
0.0044746
0.000377908
0.00447481
0.00036892
0.00444327
0.000348901
0.000327062
0.000553493
3.80691e-06
0.00105613
1.10784e-05
0.00149695
1.80141e-05
0.00188242
2.49888e-05
0.00221852
3.2374e-05
0.00251068
4.04622e-05
0.00276382
4.94912e-05
0.00298248
5.96558e-05
0.00317083
7.11118e-05
0.00333281
8.3975e-05
0.00347212
9.83172e-05
0.00359233
0.000114161
0.00369685
0.000131477
0.00378904
0.000150178
0.00387218
0.000170123
0.00394961
0.00019112
0.00402474
0.000212933
0.00410107
0.000235298
0.00418181
0.000257927
0.00426948
0.00028051
0.00436575
0.000302708
0.00447129
0.000324158
0.00458522
0.000344509
0.00470397
0.000363455
0.00481997
0.000380727
0.00492129
0.000395939
0.00499266
0.000408117
0.00501991
0.000414792
0.00500274
0.000411109
0.000432036
0.000558741
3.92749e-06
0.00106653
1.14263e-05
0.00151257
1.857e-05
0.00190354
2.57404e-05
0.00224565
3.33151e-05
0.00254445
4.15892e-05
0.00280503
5.07998e-05
0.00303202
6.11382e-05
0.00322974
7.27538e-05
0.00340226
8.57531e-05
0.00355341
0.000100196
0.00368689
0.00011609
0.00380629
0.000133388
0.00391508
0.000151984
0.00401667
0.000171721
0.00411445
0.000192392
0.00421182
0.000213756
0.00431211
0.00023555
0.00441837
0.000257499
0.00453307
0.000279337
0.00465793
0.000300817
0.00479367
0.000321762
0.00493953
0.000342132
0.00509252
0.000362108
0.0052467
0.000382154
0.0053926
0.000402942
0.00551709
0.000424813
0.00560422
0.000446048
0.00563981
0.000459154
0.000473822
0.000564005
4.01141e-06
0.00107695
1.1667e-05
0.00152821
1.89504e-05
0.00192469
2.62462e-05
0.00227276
3.39338e-05
0.00257815
4.2307e-05
0.00284603
5.15992e-05
0.00308118
6.19952e-05
0.003288
7.36352e-05
0.00347066
8.66141e-05
0.0036331
0.000100978
0.00377913
0.000116717
0.00391244
0.000133768
0.00403657
0.000152003
0.00415496
0.000171244
0.00427097
0.000191269
0.00438789
0.000211824
0.00450888
0.000232639
0.00463679
0.000253439
0.00477404
0.000273973
0.00492238
0.000294031
0.00508271
0.000313504
0.00525476
0.000332454
0.00543682
0.000351211
0.00562541
0.000370477
0.00581498
0.000391438
0.005997
0.000415777
0.00615725
0.000444978
0.00626846
0.000475556
0.000525483
0.000569224
4.06014e-06
0.00108729
1.1805e-05
0.00154371
1.91629e-05
0.00194563
2.6517e-05
0.00229958
3.42445e-05
0.00261141
4.26349e-05
0.00288641
5.19144e-05
0.00312944
6.22586e-05
0.00334498
7.37962e-05
0.00353726
8.66084e-05
0.0037103
0.000100725
0.00386795
0.000116122
0.00401399
0.000132713
0.00415197
0.000150352
0.00428528
0.000168835
0.00441714
0.00018792
0.00455064
0.000207335
0.00468871
0.00022679
0.00483397
0.000245998
0.00498865
0.000264685
0.00515448
0.000282613
0.00533241
0.000299601
0.00552253
0.00031559
0.00572407
0.000330645
0.00593541
0.000344938
0.00615412
0.000358644
0.00637646
0.000371619
0.00659468
0.000382417
0.0067844
0.000383978
0.000555173
0.000189089
-8.50638e-05
0.000395159
-0.00011376
0.000702302
-0.000127265
0.00105967
-0.000128115
0.00142677
-0.0001207
0.00177864
-0.000110261
0.00210049
-9.96979e-05
0.00238745
-8.98474e-05
0.00264076
-8.09926e-05
0.00286135
-7.33529e-05
0.00304918
-6.6837e-05
0.00320403
-6.1051e-05
0.0033269
-5.56502e-05
0.00341903
-5.0603e-05
0.00348081
-4.59779e-05
0.00351203
-4.1774e-05
0.00351211
-3.79505e-05
0.00348023
-3.44574e-05
0.00341537
-3.12481e-05
0.00331625
-2.82801e-05
0.00318137
-2.55131e-05
0.00300895
-2.29066e-05
0.00279699
-2.04181e-05
0.00254319
-1.80018e-05
0.00224501
-1.56079e-05
0.00189969
-1.31806e-05
0.00150426
-1.06569e-05
0.00105562
-7.96315e-06
0.000550414
-5.0107e-06
-1.73972e-06
0.000303502
-0.000193413
0.000538162
-0.000252126
0.000852925
-0.000262506
0.00120061
-0.000253562
0.0015507
-0.000234327
0.00188475
-0.000213001
0.00218805
-0.000193108
0.00245772
-0.00017466
0.00269806
-0.000157898
0.00290898
-0.0001435
0.00308907
-0.000131295
0.00323688
-0.000120334
0.00335377
-0.000109849
0.00344128
-9.99593e-05
0.00349941
-9.09099e-05
0.00352763
-8.26842e-05
0.0035252
-7.51896e-05
0.00349119
-6.83267e-05
0.00342452
-6.20073e-05
0.00332387
-5.6152e-05
0.00318769
-5.06845e-05
0.00301418
-4.55271e-05
0.00280128
-4.05971e-05
0.00254668
-3.58052e-05
0.00224781
-3.10528e-05
0.00190188
-2.62302e-05
0.0015059
-2.12123e-05
0.00105673
-1.58531e-05
0.000550983
-9.97658e-06
-3.46414e-06
0.000596602
-0.000423804
0.000856077
-0.00041427
0.00116104
-0.000396921
0.00147682
-0.000365625
0.00178933
-0.000331181
0.0020866
-0.0003
0.00235275
-0.00027347
0.00259041
-0.000249395
0.00280722
-0.000226948
0.0029996
-0.000207106
0.00316468
-0.000190253
0.00329989
-0.000175413
0.00340597
-0.00016106
0.0034847
-0.000146986
0.00353586
-0.000133895
0.00355828
-0.000121995
0.00355094
-0.000111115
0.00351278
-0.000101111
0.00344257
-9.18651e-05
0.00333892
-8.32711e-05
0.0032002
-7.52256e-05
0.00302453
-6.76195e-05
0.00280979
-6.03345e-05
0.00255361
-5.32412e-05
0.00225337
-4.61956e-05
0.00190624
-3.90362e-05
0.00150916
-3.15784e-05
0.00105894
-2.36062e-05
0.000552121
-1.48585e-05
-5.15981e-06
0.0011319
-0.000651496
0.00136627
-0.000538963
0.001615
-0.000491923
0.00186537
-0.000442492
0.00211566
-0.000399044
0.00235577
-0.000363713
0.0025721
-0.000335399
0.00277134
-0.000310068
0.00295799
-0.000285434
0.00312443
-0.000262294
0.00326834
-0.000241788
0.00338769
-0.000224017
0.00348028
-0.000207353
0.00354725
-0.000190493
0.00358874
-0.000174153
0.00360291
-0.000159082
0.00358851
-0.000145216
0.00354432
-0.000132385
0.00346898
-0.000120463
0.00336097
-0.000109336
0.00321853
-9.88815e-05
0.0030397
-8.89687e-05
0.00282227
-7.94495e-05
0.00256378
-7.01588e-05
0.00226155
-6.09113e-05
0.00191264
-5.14975e-05
0.00151395
-4.16763e-05
0.00106219
-3.1165e-05
0.000553789
-1.96208e-05
-6.81447e-06
0.00185373
-0.000670089
0.00200416
-0.000552677
0.00215542
-0.000509633
0.00231702
-0.000468275
0.00248736
-0.000432796
0.0026581
-0.000403298
0.00282433
-0.000379009
0.00298668
-0.000356463
0.00314007
-0.000333022
0.00327678
-0.000309369
0.00339518
-0.000286917
0.00349479
-0.000266686
0.00357234
-0.000248113
0.00362639
-0.000229554
0.00365617
-0.000211016
0.00366003
-0.000193439
0.0036367
-0.000177067
0.00358485
-0.000161783
0.00350297
-0.000147488
0.00338937
-0.000134076
0.00324218
-0.000121422
0.0030593
-0.000109379
0.0028384
-9.77762e-05
0.00257693
-8.64186e-05
0.0022721
-7.50842e-05
0.00192091
-6.35198e-05
0.00152013
-5.14322e-05
0.00106637
-3.84756e-05
0.000555938
-2.42304e-05
-8.41667e-06
0.00256666
-0.000468146
0.00262573
-0.000468178
0.00268704
-0.000463901
0.00277045
-0.000454641
0.00286993
-0.000441602
0.00297873
-0.000426159
0.00310015
-0.000409795
0.00322735
-0.000391901
0.00334686
-0.000371406
0.00345339
-0.000349172
0.00354397
-0.000326602
0.00361957
-0.000304868
0.00367991
-0.000284353
0.00371984
-0.000264242
0.00373605
-0.000244185
0.00372786
-0.000224769
0.00369406
-0.000206381
0.00363319
-0.000189039
0.00354357
-0.0001727
0.00342335
-0.000157281
0.00327051
-0.000142663
0.00308279
-0.00012869
0.00285775
-0.000115177
0.00259271
-0.000101903
0.00228478
-8.86163e-05
0.00193083
-7.50229e-05
0.00152753
-6.07826e-05
0.00107138
-4.54917e-05
0.000558508
-2.86582e-05
-9.95642e-06
0.00309937
-0.000290461
0.0031186
-0.000384058
0.00314219
-0.000415221
0.00318583
-0.000435389
0.00324485
-0.000443509
0.00331315
-0.000442089
0.0033959
-0.000433889
0.00348736
-0.000420575
0.00357334
-0.000403124
0.00364974
-0.000382785
0.00371272
-0.000360899
0.00376341
-0.00033864
0.00380311
-0.000316735
0.00382561
-0.00029517
0.00382632
-0.000273827
0.0038046
-0.000253004
0.00375907
-0.000233025
0.00368808
-0.000214004
0.00358976
-0.000195952
0.00346208
-0.000178813
0.00330283
-0.000162478
0.00310962
-0.000146791
0.00287986
-0.000131553
0.00261075
-0.000116528
0.00229926
-0.000101434
0.00194216
-8.59456e-05
0.00153598
-6.96788e-05
0.00107708
-5.21769e-05
0.000561426
-3.28814e-05
-1.14258e-05
0.00346715
-0.000306277
0.00349642
-0.000372418
0.00352683
-0.000408407
0.00356345
-0.000436882
0.0036057
-0.000453532
0.00365111
-0.000459063
0.00370312
-0.000455676
0.00375989
-0.000445477
0.00381328
-0.000430153
0.00385977
-0.000411211
0.00389631
-0.000390014
0.00392281
-0.000367708
0.0039393
-0.000345084
0.00394131
-0.00032249
0.00392492
-0.000300101
0.0038885
-0.000278176
0.00383028
-0.000256968
0.00374832
-0.000236619
0.00364055
-0.000217173
0.00350473
-0.000198598
0.00333848
-0.000180795
0.00313924
-0.000163611
0.00290428
-0.000146842
0.00263067
-0.000130234
0.00231525
-0.000113488
0.00195465
-9.62451e-05
0.00154528
-7.80856e-05
0.00108334
-5.85045e-05
0.000564619
-3.68831e-05
-1.28188e-05
0.00380166
-0.000401905
0.00384669
-0.000417224
0.00389024
-0.000440527
0.00392769
-0.000462069
0.00395935
-0.000475952
0.00398661
-0.000480894
0.00401248
-0.000477793
0.00403777
-0.000468168
0.00406013
-0.000453518
0.00407741
-0.000435199
0.00408767
-0.000414413
0.00408991
-0.000392171
0.00408297
-0.000369233
0.00406392
-0.000346076
0.00402964
-0.000323011
0.00397781
-0.000300313
0.00390624
-0.000278213
0.00381273
-0.000256864
0.00369495
-0.000236329
0.00355048
-0.000216592
0.00337677
-0.000197567
0.00317109
-0.000179105
0.00293056
-0.000160997
0.0026521
-0.000142982
0.00233244
-0.000124739
0.00196806
-0.000105888
0.00155525
-8.59755e-05
0.00109004
-6.44537e-05
0.000568027
-4.06498e-05
-1.41308e-05
0.00417641
-0.000445552
0.00422438
-0.000482427
0.00426865
-0.000493096
0.004299
-0.00050272
0.0043153
-0.000507644
0.00432097
-0.000506769
0.00432025
-0.00050029
0.00431591
-0.000488938
0.00430846
-0.000473601
0.00429732
-0.000455173
0.00428134
-0.000434503
0.00425935
-0.000412358
0.00422981
-0.000389367
0.00419031
-0.000366
0.00413809
-0.000342602
0.0040706
-0.000319454
0.0039854
-0.000296783
0.00388001
-0.000274742
0.00375191
-0.000253406
0.00359848
-0.000232772
0.003417
-0.000212765
0.00320458
-0.000193239
0.00295821
-0.000173986
0.00267466
-0.000154736
0.00235052
-0.000135157
0.00198216
-0.000114848
0.00156571
-9.33254e-05
0.00109705
-7.00065e-05
0.00057159
-4.417e-05
-1.53577e-05
0.00460267
-0.00054085
0.00464474
-0.000562858
0.00467553
-0.000556527
0.00468539
-0.000550137
0.00467652
-0.000542574
0.00465438
-0.000533092
0.00462432
-0.000521237
0.00459013
-0.000506859
0.00455357
-0.000490057
0.00451489
-0.000471114
0.00447341
-0.00045043
0.00442792
-0.000428459
0.00437672
-0.000405642
0.00431757
-0.000382366
0.00424784
-0.00035895
0.00416491
-0.000335663
0.00406613
-0.000312721
0.00394884
-0.000290278
0.00381034
-0.000268414
0.00364783
-0.000247136
0.00345843
-0.000226377
0.00323912
-0.000205996
0.00298674
-0.000185788
0.00269794
-0.000165477
0.00236918
-0.000144721
0.0019967
-0.000123103
0.00157648
-0.000100118
0.00110426
-7.5149e-05
0.000575246
-4.74345e-05
-1.64962e-05
0.00510628
-0.000674585
0.00512003
-0.000641337
0.00511436
-0.00061572
0.00508566
-0.000592645
0.00503959
-0.000572645
0.00498265
-0.000554729
0.00492015
-0.000537625
0.00485558
-0.000520299
0.00479068
-0.0005021
0.00472573
-0.000482731
0.00466006
-0.00046217
0.00459234
-0.000440573
0.00452077
-0.000418188
0.00444306
-0.000395293
0.00435666
-0.000372158
0.00425885
-0.000349024
0.00414688
-0.000326096
0.00401793
-0.000303521
0.00386916
-0.000281386
0.00369763
-0.000259702
0.00350032
-0.000238409
0.00327409
-0.000217375
0.00301565
-0.000196394
0.00272153
-0.000175191
0.00238808
-0.000153417
0.00201141
-0.000130641
0.00158737
-0.00010634
0.00111153
-7.98708e-05
0.00057893
-5.04366e-05
-1.75439e-05
0.00568796
-0.000708564
0.00563999
-0.00068591
0.00557058
-0.000650321
0.00548598
-0.000617268
0.00539304
-0.00058968
0.00529677
-0.000566702
0.00520054
-0.000546562
0.00510627
-0.000527682
0.00501467
-0.000508955
0.00492544
-0.000489724
0.00483757
-0.000469688
0.00474947
-0.000448793
0.00465918
-0.000427144
0.00456437
-0.000404926
0.00446244
-0.000382356
0.00435065
-0.00035965
0.00422614
-0.000336997
0.00408602
-0.000314542
0.00392733
-0.000292371
0.00374701
-0.000270502
0.00354195
-0.000248882
0.00330889
-0.000227384
0.00304444
-0.000205807
0.00274504
-0.000183875
0.0024069
-0.000161237
0.00202605
-0.000137452
0.00159818
-0.000111982
0.00111874
-8.41644e-05
0.000582578
-5.31709e-05
-1.8499e-05
0.00627212
-0.000708235
0.00614548
-0.000688852
0.00600192
-0.00064959
0.00585738
-0.000615731
0.00571731
-0.000588405
0.00558342
-0.00056588
0.00545614
-0.000546269
0.00533527
-0.000528062
0.00522016
-0.000510187
0.00510969
-0.000491964
0.00500234
-0.00047303
0.00489628
-0.000453256
0.00478938
-0.000432678
0.00467924
-0.00041143
0.00456324
-0.000389695
0.00443863
-0.000367669
0.0043025
-0.000345532
0.00415191
-0.000323425
0.00398382
-0.000301435
0.00379512
-0.000279585
0.0035826
-0.000257828
0.00334292
-0.000236044
0.00307262
-0.000214037
0.00276804
-0.000191534
0.00242532
-0.000168181
0.00204034
-0.000143533
0.00160872
-0.000117041
0.00112576
-8.8025e-05
0.000586119
-5.56342e-05
-1.93602e-05
0.00673457
-0.000710004
0.00654944
-0.000609086
0.00635368
-0.000599579
0.00616645
-0.000583948
0.0059919
-0.000567582
0.00582977
-0.000551762
0.00567866
-0.000536471
0.00553699
-0.00052129
0.00540316
-0.000505756
0.00527545
-0.000489504
0.00515201
-0.000472319
0.00503081
-0.00045413
0.00490968
-0.000434981
0.00478622
-0.000415
0.00465781
-0.000394364
0.00452171
-0.00037326
0.00437502
-0.000351865
0.00421479
-0.000330317
0.00403795
-0.000308708
0.00384136
-0.000287065
0.00362176
-0.000265348
0.00337576
-0.000243443
0.00309983
-0.000221161
0.00279024
-0.000198232
0.00244306
-0.000174305
0.00205409
-0.000148931
0.00161884
-0.000121553
0.00113247
-9.14797e-05
0.000589495
-5.7843e-05
-2.01331e-05
0.000596373
4.07342e-06
0.00113952
1.18396e-05
0.00161872
1.92065e-05
0.00204161
2.65521e-05
0.00241512
3.42473e-05
0.00274544
4.25736e-05
0.00303816
5.17477e-05
0.00329839
6.19329e-05
0.00353083
7.32444e-05
0.0037399
8.5748e-05
0.00392979
9.94575e-05
0.00410454
0.000114331
0.00426809
0.000130264
0.00442418
0.000147087
0.00457612
0.000164568
0.004727
0.000182442
0.00487979
0.000200412
0.0050372
0.000218162
0.00520156
0.000235372
0.00537486
0.000251734
0.0055588
0.000266921
0.00575416
0.000280586
0.00596089
0.000292404
0.00617832
0.000301972
0.00640508
0.000308577
0.00663929
0.000310809
0.00687804
0.000305602
0.00711622
0.000286564
0.0073393
0.000241135
0.000148003
0.00780473
0.000616157
4.04874e-06
0.00117771
1.17638e-05
0.00167383
1.90703e-05
0.00211254
2.63371e-05
0.00250109
3.39249e-05
0.00284593
4.21039e-05
0.00315285
5.10782e-05
0.00342712
6.09972e-05
0.00367357
7.19602e-05
0.00389672
8.40163e-05
0.0041008
9.71624e-05
0.00428993
0.00011134
0.00446824
0.000126433
0.00463955
0.000142245
0.00480699
0.00015851
0.00497331
0.000174934
0.00514125
0.0001912
0.00531323
0.000206958
0.00549101
0.000221839
0.00567614
0.000235516
0.00587037
0.000247569
0.00607415
0.000257412
0.00628668
0.000264465
0.00650682
0.000267969
0.0067322
0.000266673
0.00695954
0.000258601
0.00718367
0.000240527
0.00739648
0.000207343
0.00758675
0.000150738
6.28287e-05
0.00773478
0.000636315
3.98458e-06
0.00121663
1.15732e-05
0.00173001
1.8748e-05
0.00218486
2.58644e-05
0.00258874
3.32689e-05
0.00294834
4.12177e-05
0.00326963
4.98999e-05
0.00355801
5.94488e-05
0.00381844
6.99465e-05
0.00405546
8.14243e-05
0.00427331
9.38616e-05
0.00447604
0.000107186
0.00466802
0.000121279
0.00485347
0.000135922
0.00503505
0.000150795
0.00521494
0.00016558
0.00539568
0.000179949
0.00557954
0.000193509
0.00576711
0.000205884
0.00595934
0.000216729
0.00615902
0.000225462
0.0063658
0.000231325
0.00657752
0.000233645
0.00679244
0.000231548
0.00700707
0.000223712
0.00721669
0.000208322
0.00741494
0.000182889
0.00759319
0.000143918
0.00774178
8.60806e-05
1.01816e-05
0.0078378
0.000656744
3.88445e-06
0.00125608
1.12785e-05
0.00178694
1.82575e-05
0.00225815
2.51606e-05
0.00267753
3.23167e-05
0.00305199
3.99655e-05
0.00338767
4.82795e-05
0.00369011
5.73745e-05
0.00396433
6.73145e-05
0.00421488
7.81118e-05
0.0044459
8.97264e-05
0.00466105
0.000102068
0.00486542
0.000114995
0.00506414
0.00012827
0.00525866
0.000141568
0.00545015
0.000154568
0.00564123
0.000166921
0.00583405
0.000178213
0.00602812
0.000188062
0.00622407
0.000196021
0.00642537
0.000201403
0.00663069
0.000203511
0.00683669
0.000201694
0.00704108
0.000195088
0.00723994
0.000182567
0.00742826
0.000162725
0.00759995
0.000133826
0.00774788
9.37296e-05
0.00786387
3.98934e-05
-2.29522e-05
0.00793036
0.000677212
3.7482e-06
0.00129565
1.08793e-05
0.00184413
1.75991e-05
0.00233179
2.4227e-05
0.00276674
3.10718e-05
0.00315605
3.83547e-05
0.00350604
4.62302e-05
0.00382234
5.47963e-05
0.00411002
6.40983e-05
0.00437368
7.41294e-05
0.00461735
8.48286e-05
0.0048444
9.6078e-05
0.00506051
0.000107686
0.00527126
0.00011941
0.00547689
0.000130993
0.00567786
0.00014212
0.00587678
0.000152404
0.00607537
0.000161432
0.00627336
0.000168778
0.00647127
0.000173922
0.00667101
0.000176243
0.0068709
0.000175163
0.00706779
0.000170062
0.00725894
0.000160183
0.00744057
0.000144667
0.00760813
0.000122554
0.00775648
9.28125e-05
0.00787994
5.44346e-05
0.00797216
6.75802e-06
-4.46251e-05
0.00802171
0.000697442
3.56798e-06
0.00133491
1.03525e-05
0.00190103
1.67344e-05
0.00240519
2.301e-05
0.00285571
2.94646e-05
0.00325984
3.62987e-05
0.00362402
4.36475e-05
0.00395397
5.15906e-05
0.00425483
6.01556e-05
0.00453121
6.93178e-05
0.00478723
7.89981e-05
0.00502649
8.90586e-05
0.00525418
9.92894e-05
0.00547476
0.000109455
0.0056888
0.000119319
0.00589708
0.000128561
0.00610159
0.000136793
0.00630355
0.000143605
0.00650321
0.000148559
0.00670084
0.000151172
0.0068965
0.000150916
0.00708864
0.000147273
0.00727477
0.000139707
0.00745206
0.000127649
0.00761712
0.000110517
0.00776608
8.77538e-05
0.00789483
5.88955e-05
0.00799906
2.37185e-05
0.00807438
-1.74597e-05
-5.94757e-05
0.00811364
0.000717411
3.34559e-06
0.00137375
9.7034e-06
0.00195744
1.56726e-05
0.00247806
2.15234e-05
0.0029441
2.75144e-05
0.00336297
3.38237e-05
0.00374121
4.05668e-05
0.00408459
4.7805e-05
0.00439831
5.55489e-05
0.00468701
6.37589e-05
0.00495486
7.23436e-05
0.00520577
8.11582e-05
0.00544389
9.0004e-05
0.00567248
9.86485e-05
0.00589301
0.00010683
0.00610672
0.000114234
0.00631498
0.000120498
0.00651865
0.000125234
0.00671801
0.000128033
0.00691298
0.000128462
0.00710299
0.000126082
0.00728658
0.000120464
0.00746162
0.000111195
0.00762555
9.78889e-05
0.00777549
8.02099e-05
0.00790836
5.79211e-05
0.00802098
3.09575e-05
0.00811028
-4.51747e-07
0.00817349
-3.56007e-05
-7.01208e-05
0.00820606
0.000737105
3.08824e-06
0.00141209
8.95348e-06
0.00201316
1.44494e-05
0.00255007
1.98181e-05
0.00303148
2.52899e-05
0.00346489
3.10194e-05
0.00385691
3.71022e-05
0.00421337
4.35822e-05
0.00453949
5.0455e-05
0.00483989
5.76691e-05
0.00511876
6.51248e-05
0.00537989
7.26751e-05
0.00562685
8.01278e-05
0.00586241
8.72544e-05
0.00608837
9.37933e-05
0.00630605
9.94439e-05
0.00651653
0.000103873
0.00672048
0.000106727
0.00691806
0.000107643
0.007109
0.000106254
0.00729255
0.000102204
0.00746737
9.51665e-05
0.00763163
8.48549e-05
0.0077832
7.10431e-05
0.00791977
5.35925e-05
0.00803895
3.24934e-05
0.00813843
7.92321e-06
0.00821613
-1.9679e-05
0.00827046
-4.95296e-05
-7.80526e-05
0.0082984
0.000756374
2.7996e-06
0.00144963
8.11337e-06
0.00206779
1.30825e-05
0.00262074
1.79194e-05
0.00311723
2.28248e-05
0.00356486
2.79296e-05
0.00397028
3.33099e-05
0.00433935
3.89933e-05
0.00467728
4.49628e-05
0.00498866
5.11576e-05
0.00527761
5.74735e-05
0.00554779
6.37644e-05
0.00580237
6.98452e-05
0.00604392
7.54968e-05
0.00627424
8.04699e-05
0.00649469
8.44869e-05
0.00670619
8.72486e-05
0.00690929
8.84456e-05
0.00710408
8.77684e-05
0.00729023
8.49194e-05
0.00746699
7.96268e-05
0.00763321
7.166e-05
0.00778739
6.0846e-05
0.00792783
4.70877e-05
0.00805275
3.03887e-05
0.0081604
1.08828e-05
0.00824918
-1.11302e-05
0.00831781
-3.51499e-05
0.00836544
-6.04524e-05
-8.41388e-05
0.00839
0.000775062
2.48413e-06
0.00148611
7.19608e-06
0.00212096
1.15931e-05
0.00268958
1.58572e-05
0.00320079
2.01588e-05
0.00366223
2.46052e-05
0.00408059
2.92538e-05
0.00446174
3.41178e-05
0.00481084
3.91694e-05
0.00513245
4.43416e-05
0.00543059
4.95286e-05
0.00570876
5.45887e-05
0.00596993
5.93464e-05
0.00621648
6.35971e-05
0.00645023
6.71116e-05
0.00667246
6.96413e-05
0.00688405
7.09257e-05
0.00708549
7.07029e-05
0.00727686
6.87207e-05
0.00745787
6.47492e-05
0.00762787
5.85933e-05
0.00778593
5.01079e-05
0.00793088
3.92117e-05
0.00806146
2.59035e-05
0.00817634
1.02792e-05
0.00827432
-7.45013e-06
0.00835438
-2.69419e-05
0.00841579
-4.77131e-05
0.00845823
-6.9147e-05
-8.88917e-05
0.0084802
0.000793023
2.14711e-06
0.00152125
6.21697e-06
0.00217228
1.00062e-05
0.00275611
1.36664e-05
0.00328159
1.73374e-05
0.00375638
2.11037e-05
0.00418718
2.50052e-05
0.00457981
2.90423e-05
0.00493943
3.31789e-05
0.00527051
3.73442e-05
0.00557699
4.14342e-05
0.00586223
4.53141e-05
0.00612906
4.88212e-05
0.00637976
5.17695e-05
0.00661609
5.39548e-05
0.00683933
5.51611e-05
0.00705033
5.51687e-05
0.00724958
5.37639e-05
0.00743719
5.07504e-05
0.00761299
4.596e-05
0.00777648
3.92649e-05
0.00792697
3.05896e-05
0.00806363
1.99223e-05
0.00818554
7.32634e-06
0.00829182
-7.04975e-06
0.00838169
-2.29642e-05
0.00845459
-4.00789e-05
0.00851019
-5.7964e-05
0.00854852
-7.6115e-05
-9.26136e-05
0.00856842
0.000810122
1.79456e-06
0.0015548
5.19349e-06
0.00222139
8.35014e-06
0.00281989
1.13859e-05
0.00335913
1.44111e-05
0.00384675
1.74881e-05
0.00428941
2.06408e-05
0.00469293
2.38588e-05
0.00506239
2.70998e-05
0.00540222
3.0292e-05
0.00571624
3.33355e-05
0.00600773
3.6105e-05
0.00627942
3.84535e-05
0.00653352
4.02161e-05
0.00677176
4.12163e-05
0.0069954
4.12721e-05
0.00720533
4.02045e-05
0.00740207
3.78462e-05
0.00758582
3.40516e-05
0.00775654
2.87067e-05
0.00791392
2.1739e-05
0.00805751
1.31266e-05
0.00818678
2.90622e-06
0.00830113
-8.81992e-06
0.00840006
-2.18799e-05
0.00848312
-3.60312e-05
0.00855009
-5.09644e-05
0.00860095
-6.63141e-05
0.00863593
-8.16773e-05
-9.54786e-05
0.00865414
0.000826239
1.43313e-06
0.00158652
4.14484e-06
0.00226799
6.65577e-06
0.00288054
9.05837e-06
0.00343295
1.14342e-05
0.00393282
1.38254e-05
0.00438677
1.62413e-05
0.00480055
1.86626e-05