/*--------------------------------*- C++ -*----------------------------------*\
| =========                 |                                                 |
| \\      /  F ield         | OpenFOAM: The Open Source CFD Toolbox           |
|  \\    /   O peration     | Version:  5.x                                   |
|   \\  /    A nd           | Web:      www.OpenFOAM.org                      |
|    \\/     M anipulation  |                                                 |
\*---------------------------------------------------------------------------*/
FoamFile
{
    version     2.0;
    format      ascii;
    class       surfaceScalarField;
    location    "0.3";
    object      phi;
}
// * * * * * * * * * * * * * * * * * * * * * * * * * * * * * * * * * * * * * //

dimensions      [0 3 -1 0 0 0 0];

internalField   nonuniform List<scalar> 
5457
(
0.197896
0.00158485
0.195537
0.0018909
0.19293
0.00219965
0.190024
0.00255619
0.186813
0.00291468
0.183293
0.00327077
0.179456
0.00363233
0.175287
0.0040059
0.170766
0.00439559
0.165872
0.00480414
0.160581
0.0052334
0.154871
0.00568417
0.148717
0.00615596
0.142099
0.00664667
0.135
0.00715225
0.127411
0.00766638
0.11933
0.00818013
0.110767
0.00868164
0.10175
0.00915579
0.0923211
0.00958401
0.0825445
0.00994493
0.072507
0.0102151
0.0623203
0.0103698
0.0521195
0.0103844
0.0420589
0.0102371
0.0323074
0.00991153
0.0230403
0.00940098
0.0144509
0.00868463
0.00658014
0.00790794
0.0066294
0.199455
0.00161008
0.198307
0.00257023
0.196797
0.00330182
0.194958
0.00404563
0.192779
0.00479572
0.190254
0.00554551
0.187375
0.0063064
0.184126
0.0070906
0.180488
0.00790679
0.17644
0.00876122
0.171956
0.00965835
0.167011
0.0106008
0.161578
0.0115889
0.155631
0.0126198
0.149147
0.0136874
0.142106
0.014781
0.134495
0.0158854
0.126312
0.0169797
0.117564
0.0180372
0.108274
0.0190244
0.0984784
0.0199029
0.0882336
0.0206305
0.0776157
0.0211632
0.0667179
0.0214587
0.0556421
0.0214816
0.0444903
0.0212136
0.033346
0.0206665
0.0222253
0.019884
0.0110297
0.0191168
0.0177286
0.199307
0.00178294
0.198216
0.00319023
0.196772
0.00433681
0.195024
0.00544306
0.19297
0.00654958
0.190606
0.00765873
0.187921
0.00878374
0.184905
0.00994085
0.181539
0.0111432
0.177805
0.0124009
0.17368
0.0137217
0.169138
0.015111
0.164151
0.0165711
0.158692
0.0181008
0.152731
0.019694
0.14624
0.0213391
0.139194
0.0230183
0.131573
0.0247064
0.123364
0.0263698
0.114562
0.0279664
0.105171
0.0294462
0.0952045
0.0307534
0.0846975
0.03183
0.0736998
0.0326195
0.0622613
0.0330752
0.0504344
0.0331725
0.0382691
0.0329301
0.0257876
0.0324151
0.0129557
0.0319221
0.0307442
0.199225
0.00203603
0.19813
0.0038124
0.196702
0.0053542
0.194973
0.00681906
0.19295
0.0082711
0.190629
0.00972654
0.188001
0.0112016
0.185057
0.0127152
0.181783
0.0142844
0.178163
0.0159226
0.174177
0.0176406
0.169804
0.0194467
0.165019
0.0213458
0.159795
0.0233388
0.154105
0.0254214
0.147919
0.0275836
0.141205
0.0298079
0.133935
0.0320692
0.126082
0.0343327
0.117622
0.0365537
0.108529
0.038677
0.0987806
0.0406395
0.088373
0.0423745
0.077322
0.0438131
0.0656393
0.0448935
0.0533479
0.0455708
0.0405097
0.0458361
0.0272191
0.0457198
0.0136147
0.0454614
0.0444042
0.199184
0.00232788
0.198077
0.00444469
0.196662
0.00635578
0.194954
0.00817091
0.192961
0.00995986
0.19068
0.0117513
0.188102
0.0135661
0.185218
0.0154257
0.182015
0.0173501
0.178478
0.0193558
0.174589
0.0214566
0.170327
0.0236633
0.165671
0.0259833
0.160596
0.0284199
0.155072
0.0309717
0.149072
0.033631
0.142559
0.0363832
0.135501
0.0392057
0.127861
0.0420672
0.119599
0.0449249
0.11067
0.0477241
0.101028
0.0504008
0.090631
0.0528829
0.0794659
0.0550896
0.0675277
0.0569365
0.054834
0.0583392
0.0414778
0.0592258
0.0276492
0.0595283
0.013716
0.0593083
0.0580567
0.199163
0.00263744
0.198049
0.00508113
0.196651
0.00733831
0.194971
0.00949129
0.193016
0.0116076
0.190782
0.0137246
0.188262
0.0158684
0.185446
0.0180633
0.182321
0.0203318
0.178873
0.0226936
0.175084
0.0251651
0.170934
0.02776
0.1664
0.0304882
0.161459
0.0333561
0.15608
0.0363653
0.150232
0.0395115
0.14388
0.0427843
0.136983
0.0461666
0.129493
0.0496322
0.121358
0.0531439
0.112521
0.0566526
0.10292
0.0600973
0.0924859
0.0634033
0.0811706
0.0664786
0.0689627
0.0692064
0.0558944
0.071445
0.0420905
0.0730297
0.0278307
0.0737426
0.0136913
0.0733618
0.0716279
0.199154
0.00295283
0.19804
0.00571369
0.196662
0.00829775
0.195016
0.0107741
0.193106
0.0132063
0.190928
0.0156372
0.188476
0.0180979
0.185739
0.0206156
0.182705
0.0232158
0.17936
0.0259208
0.175686
0.0287502
0.171662
0.0317204
0.167266
0.0348445
0.162471
0.0381321
0.157248
0.0415886
0.151563
0.0452143
0.145378
0.0490041
0.138642
0.052948
0.131298
0.057027
0.123284
0.0612116
0.114535
0.0654622
0.104971
0.0697238
0.0945099
0.0739218
0.0830729
0.0779524
0.0706348
0.0816628
0.0572379
0.0848439
0.0430275
0.0872134
0.0283402
0.0883705
0.0138244
0.0878003
0.085313
0.199151
0.00326676
0.198045
0.00633509
0.196691
0.00922929
0.195084
0.0120136
0.193226
0.0147484
0.191113
0.01748
0.188739
0.0202439
0.186093
0.0230705
0.183164
0.0259879
0.179936
0.0290215
0.176394
0.0321937
0.172516
0.0355241
0.168279
0.0390293
0.163655
0.0427226
0.158614
0.0466139
0.153119
0.0507092
0.147127
0.05501
0.140584
0.0595139
0.133425
0.0642108
0.125578
0.0690817
0.116967
0.0740985
0.107502
0.0792157
0.0970848
0.0843615
0.0856177
0.0894219
0.0730489
0.0942156
0.0594008
0.0984663
0.0448112
0.101761
0.0296198
0.103503
0.0144219
0.102935
0.0996742
0.199153
0.00357436
0.19806
0.00693924
0.196735
0.0101278
0.195173
0.013204
0.193374
0.0162266
0.191334
0.0192443
0.189047
0.0222962
0.186503
0.0254159
0.183692
0.0286343
0.180598
0.0319795
0.177205
0.035477
0.173494
0.0391496
0.169439
0.0430176
0.165015
0.0470985
0.160188
0.0514074
0.154921
0.055956
0.149168
0.0607539
0.142871
0.0658066
0.135964
0.0711146
0.128367
0.076672
0.119994
0.0824637
0.110742
0.0884573
0.100497
0.0945899
0.0891415
0.100747
0.0765836
0.106732
0.0627895
0.112215
0.0478341
0.116669
0.031985
0.119308
0.0157355
0.119149
0.115419
0.199159
0.00387215
0.198083
0.0075211
0.196791
0.0109883
0.195279
0.0143398
0.193545
0.0176342
0.191586
0.0209219
0.189396
0.0242451
0.186966
0.0276405
0.184285
0.0311416
0.18134
0.0347792
0.178115
0.0385817
0.174591
0.0425752
0.170745
0.0467837
0.16655
0.0512292
0.161974
0.0559316
0.15698
0.0609094
0.15152
0.0661796
0.145539
0.071757
0.138967
0.0776538
0.131725
0.0838781
0.123718
0.090431
0.114831
0.0972979
0.104933
0.104434
0.0938765
0.111741
0.0815122
0.119028
0.0677118
0.125951
0.0524095
0.131919
0.0356938
0.135991
0.017869
0.13696
0.13336
0.199166
0.00415747
0.198113
0.00807645
0.196858
0.0118061
0.195401
0.0154157
0.193739
0.0189647
0.191868
0.022505
0.189784
0.0260816
0.187477
0.0297337
0.184939
0.0334973
0.182158
0.0374058
0.179118
0.0414903
0.175802
0.04578
0.172189
0.0503024
0.168255
0.0550837
0.163968
0.0601489
0.159293
0.0655225
0.154186
0.0712289
0.148594
0.0772924
0.142452
0.0837371
0.135679
0.0905862
0.12818
0.0978593
0.119834
0.105565
0.110491
0.113689
0.0999671
0.12217
0.0880379
0.130862
0.0744364
0.139465
0.0588676
0.147419
0.0410906
0.153727
0.0210365
0.156996
0.154453
0.199176
0.00442824
0.198147
0.00860176
0.196935
0.012577
0.195537
0.016427
0.193952
0.0202124
0.192176
0.0239868
0.190206
0.0277974
0.188033
0.0316857
0.18565
0.0356898
0.183045
0.0398455
0.180207
0.0441863
0.177119
0.0487442
0.173764
0.0535497
0.170119
0.0586328
0.166158
0.0640228
0.161849
0.0697498
0.157155
0.0758447
0.152027
0.0823406
0.146407
0.0892728
0.140222
0.0966797
0.133382
0.104601
0.125764
0.113074
0.117211
0.122125
0.107501
0.131755
0.096329
0.141907
0.0832573
0.152417
0.0676728
0.162902
0.0488011
0.172526
0.0258752
0.179877
0.180345
0.199187
0.00468274
0.198186
0.00909407
0.197019
0.0132972
0.195685
0.0173691
0.194183
0.021372
0.192509
0.0253611
0.190659
0.0293851
0.188629
0.0334877
0.18641
0.0377088
0.183995
0.0420862
0.181373
0.0466553
0.178532
0.0514502
0.175456
0.0565042
0.172128
0.0618499
0.168527
0.0675205
0.164628
0.07355
0.1604
0.0799748
0.155805
0.0868351
0.150796
0.0941758
0.145314
0.102049
0.139279
0.110513
0.132583
0.119636
0.125071
0.129494
0.116507
0.140167
0.106524
0.151735
0.094527
0.164261
0.0795387
0.177749
0.0599995
0.191947
0.0336721
0.206121
0.213961
0.199199
0.00491962
0.198229
0.00955087
0.197111
0.0139636
0.195845
0.0182384
0.194429
0.0224392
0.192862
0.0266224
0.19114
0.0308383
0.189259
0.0351322
0.187215
0.0395455
0.185
0.0441173
0.182608
0.0488845
0.180028
0.0538829
0.177252
0.0591474
0.174265
0.0647126
0.171053
0.0706139
0.1676
0.0768882
0.163885
0.0835752
0.159882
0.0907197
0.155561
0.0983733
0.15088
0.106598
0.145784
0.115467
0.14019
0.125077
0.133974
0.135548
0.126925
0.147044
0.118686
0.159797
0.108609
0.17416
0.0954659
0.190719
0.0768184
0.210435
0.0475344
0.235277
0.261328
0.199213
0.0051378
0.198275
0.00997014
0.197209
0.0145734
0.196013
0.0190315
0.194688
0.02341
0.193232
0.0277663
0.191643
0.032152
0.189919
0.0366133
0.188056
0.0411929
0.18605
0.0459306
0.183897
0.0508644
0.181592
0.0560308
0.179129
0.0614655
0.176502
0.0672041
0.173702
0.0732827
0.170722
0.079739
0.167555
0.086614
0.164188
0.0939538
0.160611
0.101813
0.156807
0.110256
0.152752
0.119368
0.148409
0.129256
0.143712
0.140072
0.138541
0.152034
0.132671
0.165481
0.125653
0.180992
0.116532
0.199661
0.102949
0.223863
0.0771049
0.261022
0.33804
-0.00910868
0.00904383
-0.0220955
0.0128945
-0.0381592
0.0158838
-0.0563602
0.0179718
-0.0759445
0.0193379
-0.0962594
0.0200733
-0.116729
0.0202478
-0.136818
0.0198912
-0.155997
0.0190065
-0.173726
0.0175821
-0.189449
0.0156018
-0.202597
0.0130546
-0.212613
0.00994829
-0.218978
0.00632352
-0.221208
0.00221502
-0.219005
-0.00219257
-0.212139
-0.00682861
-0.2007
-0.0113722
-0.185031
-0.0155736
-0.165668
-0.0192356
-0.14329
-0.0222172
-0.118656
-0.024439
-0.0925467
-0.0258766
-0.0657258
-0.0265491
-0.0388739
-0.0265381
-0.0123814
-0.026134
0.0132835
-0.0252588
0.0379091
-0.0241691
0.0618789
-0.0234595
-0.0252376
-0.0126096
0.0215254
-0.0274789
0.0276675
-0.0443084
0.0325337
-0.0627059
0.0361471
-0.0821719
0.0385674
-0.102206
0.039876
-0.122305
0.0401372
-0.141969
0.0393703
-0.160686
0.0375604
-0.177917
0.0346721
-0.193096
0.0306651
-0.205644
0.0255143
-0.214993
0.0192341
-0.220603
0.0118954
-0.222053
0.00365175
-0.219011
-0.00522147
-0.211401
-0.0143994
-0.199346
-0.0233587
-0.183193
-0.0316298
-0.163471
-0.0388284
-0.140849
-0.0446784
-0.116066
-0.0490259
-0.0898747
-0.0518346
-0.0629747
-0.0531767
-0.0359497
-0.0532489
-0.00927532
-0.0524493
0.0164406
-0.0505681
0.0410671
-0.0483385
0.0651238
-0.0470055
-0.0487357
-0.014565
0.0359386
-0.0305375
0.0435427
-0.0476472
0.0494729
-0.0657268
0.0540229
-0.0845131
0.057138
-0.103676
0.0588285
-0.122822
0.0590978
-0.141532
0.0579168
-0.159343
0.0552245
-0.17574
0.05094
-0.190165
0.0449838
-0.202035
0.0373045
-0.210771
0.0279147
-0.215829
0.0169221
-0.216757
0.00457152
-0.213256
-0.00870599
-0.205239
-0.0223727
-0.19288
-0.0356467
-0.176558
-0.0478518
-0.156822
-0.0584333
-0.134345
-0.0669928
-0.109858
-0.0733143
-0.0840989
-0.0773597
-0.0577332
-0.0792688
-0.0312895
-0.0793772
-0.00543026
-0.0779486
0.0194467
-0.0750376
0.0433618
-0.0717956
0.0666025
-0.0697346
-0.0708323
-0.0157102
0.0515145
-0.0322306
0.0599534
-0.049187
0.0662756
-0.0666082
0.0712706
-0.0844332
0.0747805
-0.102493
0.0767121
-0.120518
0.0769683
-0.138171
0.0754313
-0.155034
0.071959
-0.170603
0.0663974
-0.184315
0.0586043
-0.195566
0.0484843
-0.203735
0.0360378
-0.208247
0.0214106
-0.208622
0.00494491
-0.204579
-0.0127261
-0.196111
-0.0307922
-0.183442
-0.0482398
-0.166987
-0.0642031
-0.147309
-0.0779773
-0.125081
-0.0890553
-0.101022
-0.0971722
-0.075847
-0.102299
-0.0501888
-0.104652
-0.0245939
-0.104655
0.00021394
-0.102395
0.024026
-0.0984408
0.0469463
-0.0942566
0.0690809
-0.091356
-0.0914334
-0.0161851
0.0676199
-0.0326758
0.0763074
-0.0489954
0.0824616
-0.0654218
0.0875612
-0.0820498
0.0912719
-0.0988388
0.09337
-0.115624
0.093631
-0.132125
0.0918161
-0.147948
0.087676
-0.162599
0.0809592
-0.175509
0.0714403
-0.186045
0.0589635
-0.193553
0.0435094
-0.197427
0.0252694
-0.197177
0.00470273
-0.192561
-0.0173115
-0.183654
-0.0396446
-0.170742
-0.0610705
-0.15427
-0.0805663
-0.134804
-0.097305
-0.113006
-0.110684
-0.0895724
-0.120402
-0.065191
-0.126441
-0.040478
-0.129087
-0.0159966
-0.128817
0.00758564
-0.125614
0.0301373
-0.120582
0.0518447
-0.115503
0.0726611
-0.111657
-0.110455
-0.015873
0.0834908
-0.0316335
0.0919243
-0.0468331
0.0975541
-0.0619501
0.102581
-0.0771741
0.106405
-0.0925383
0.108648
-0.107946
0.108948
-0.123161
0.106939
-0.137812
0.102246
-0.151421
0.0945009
-0.163409
0.0833776
-0.173122
0.0686398
-0.179874
0.0502368
-0.183018
0.0284083
-0.182099
0.003801
-0.176903
-0.0224681
-0.167614
-0.0488706
-0.15459
-0.0740067
-0.13829
-0.0967517
-0.119259
-0.116192
-0.0981367
-0.131632
-0.0755779
-0.142754
-0.0522338
-0.149543
-0.02869
-0.15235
-0.00565205
-0.151534
0.0164696
-0.14737
0.0376699
-0.14137
0.0580036
-0.135374
0.0773399
-0.130476
-0.127816
-0.014651
0.0981561
-0.0288576
0.106028
-0.0424825
0.111107
-0.0559976
0.116033
-0.0696099
0.11996
-0.0833823
0.122368
-0.0972519
0.122759
-0.111018
0.120643
-0.12434
0.115514
-0.13676
0.106878
-0.147698
0.094287
-0.156478
0.0774025
-0.162374
0.0561258
-0.164714
0.030756
-0.163068
0.00218431
-0.157314
-0.028172
-0.147764
-0.0583486
-0.134834
-0.0868408
-0.11897
-0.112494
-0.100664
-0.134348
-0.0805162
-0.151601
-0.0591246
-0.163934
-0.0371034
-0.171318
-0.0150318
-0.174138
0.00629885
-0.17254
0.0267567
-0.16746
0.0465184
-0.160716
0.0653419
-0.153731
0.0830698
-0.147684
-0.143458
-0.0124524
0.110598
-0.0243718
0.117906
-0.0359775
0.122675
-0.047571
0.127592
-0.0593141
0.131671
-0.0712717
0.134297
-0.0833934
0.134851
-0.0955053
0.132723
-0.107303
0.127286
-0.118351
0.117908
-0.128077
0.104005
-0.135791
0.0851194
-0.140729
0.0610752
-0.142224
0.0322766
-0.139838
-0.000158901
-0.133602
-0.0343463
-0.123983
-0.0678855
-0.111428
-0.0992912
-0.0963294
-0.127464
-0.079086
-0.151436
-0.0602486
-0.170254
-0.0403391
-0.183628
-0.019925
-0.191481
0.000202112
-0.193978
0.0196309
-0.191642
0.0384623
-0.185921
0.0565974
-0.178434
0.0737646
-0.17043
0.0897764
-0.163173
-0.157341
-0.00934002
0.119951
-0.018458
0.127024
-0.0276035
0.131809
-0.0369086
0.136885
-0.0464648
0.141218
-0.0563154
0.144142
-0.0664126
0.144944
-0.0766075
0.142915
-0.0866332
0.137312
-0.0960823
0.127363
-0.104404
0.112341
-0.110914
0.0916509
-0.114831
0.0650234
-0.115391
0.0328792
-0.112298
-0.00319449
-0.105726
-0.0408444
-0.0963096
-0.0772089
-0.0844755
-0.111012
-0.070519
-0.141284
-0.0547027
-0.167089
-0.0375173
-0.187249
-0.0194036
-0.20152
-0.00108421
-0.209546
0.0168549
-0.211626
0.0343745
-0.20883
0.0514431
-0.202615
0.0677857
-0.194355
0.0831585
-0.185332
0.0973621
-0.176851
-0.169437
-0.00565569
0.125604
-0.011513
0.132898
-0.0177873
0.138092
-0.0244206
0.143528
-0.0314313
0.148244
-0.0388351
0.151566
-0.0465796
0.152712
-0.0545345
0.150895
-0.0624797
0.145285
-0.0700432
0.134958
-0.076713
0.119047
-0.0818384
0.0968184
-0.0846636
0.0678982
-0.0842184
0.0324935
-0.0805186
-0.00682244
-0.0738487
-0.0474276
-0.0649989
-0.085955
-0.0542822
-0.121605
-0.0418406
-0.15358
-0.0278137
-0.180947
-0.0125752
-0.202291
0.00325456
-0.217123
0.0191043
-0.225136
0.0348843
-0.227111
0.0504572
-0.224069
0.0655559
-0.217337
0.079938
-0.208314
0.0933888
-0.198309
0.105707
-0.188641
-0.179732
-0.00167542
0.127278
-0.00397863
0.13524
-0.00705977
0.141206
-0.0106537
0.14716
-0.0147515
0.152386
-0.0193495
0.156213
-0.0243871
0.157801
-0.0297322
0.156292
-0.0352358
0.150842
-0.040546
0.140323
-0.0452095
0.123768
-0.0486614
0.100332
-0.0501426
0.0694468
-0.0489322
0.0313586
-0.0447557
-0.0109128
-0.0383576
-0.0537266
-0.0305626
-0.0936353
-0.0213633
-0.130671
-0.0107079
-0.164082
0.0011662
-0.192644
0.0139
-0.214822
0.0271174
-0.230109
0.0406816
-0.238436
0.0542875
-0.240417
0.0676757
-0.237119
0.0806093
-0.229889
0.0928785
-0.220156
0.104297
-0.20925
0.114671
-0.198482
-0.188221
0.00227554
0.12501
0.0036099
0.13397
0.00397605
0.140904
0.00373258
0.147474
0.00288373
0.153311
0.00142715
0.157748
-0.000591755
0.159898
-0.00307843
0.158857
-0.00576077
0.153601
-0.0084705
0.143109
-0.0108556
0.126231
-0.0122447
0.101801
-0.0116495
0.0689357
-0.00886585
0.0286655
-0.00459086
-0.0150882
7.36705e-05
-0.0582799
0.0061838
-0.0996201
0.0134737
-0.137819
0.0218848
-0.172331
0.0312575
-0.201833
0.0415217
-0.224877
0.0523827
-0.240732
0.0635544
-0.249339
0.0747594
-0.251318
0.0857636
-0.247781
0.0963679
-0.24011
0.106399
-0.229757
0.115701
-0.218071
0.124093
-0.206338
-0.194915
0.00622733
0.118833
0.0110216
0.129269
0.0148897
0.13714
0.0181863
0.144287
0.02078
0.150827
0.0226568
0.155979
0.0239019
0.158758
0.0246511
0.15821
0.025039
0.153311
0.0253002
0.142944
0.0257695
0.125857
0.0269702
0.100697
0.0292804
0.0667248
0.0323646
0.0256858
0.0358738
-0.0184853
0.0396942
-0.0619779
0.0439524
-0.103743
0.0491369
-0.142852
0.0553249
-0.17835
0.062426
-0.208743
0.070294
-0.232529
0.0786686
-0.248864
0.0872905
-0.257687
0.0959305
-0.25965
0.104403
-0.255907
0.112558
-0.247877
0.120265
-0.23703
0.127398
-0.224721
0.133799
-0.2122
-0.199842
0.010267
0.108719
0.0180403
0.121625
0.0254494
0.129874
0.0324353
0.137444
0.0385448
0.144856
0.0437839
0.150873
0.0482932
0.154376
0.0522318
0.154392
0.0557781
0.149881
0.0591454
0.139689
0.0626336
0.122479
0.0665194
0.0969212
0.0705408
0.0628158
0.0739554
0.0223879
0.0766616
-0.0210681
0.0790722
-0.0642559
0.0816755
-0.106202
0.0849801
-0.145998
0.0891408
-0.182333
0.094065
-0.213469
0.0995657
-0.237808
0.105414
-0.254464
0.111407
-0.263401
0.117387
-0.265318
0.12324
-0.261411
0.128878
-0.253124
0.13422
-0.241934
0.139175
-0.229189
0.143606
-0.216088
-0.20305
0.0155053
0.0936338
0.0242468
0.112989
0.0356461
0.118621
0.0464359
0.12681
0.0559312
0.135515
0.0643645
0.142588
0.0719749
0.146907
0.0789628
0.147539
0.0855195
0.143454
0.0918389
0.133495
0.0980699
0.116371
0.104087
0.0910267
0.109287
0.0577386
0.113093
0.0187086
0.115319
-0.0231602
0.116734
-0.0655297
0.118108
-0.107423
0.119981
-0.147703
0.122474
-0.184642
0.125447
-0.216238
0.128698
-0.240833
0.132055
-0.257567
0.135405
-0.266469
0.138695
-0.268291
0.141902
-0.264265
0.145014
-0.255841
0.148002
-0.244483
0.150814
-0.231511
0.153332
-0.218061
-0.204612
0.206858
0.00534333
0.205921
0.010364
0.204871
0.0151443
0.203708
0.0197714
0.202432
0.0243122
0.201043
0.0288251
0.19954
0.0333623
0.197923
0.0379709
0.196189
0.0426942
0.194339
0.0475724
0.192371
0.0526437
0.190284
0.0579447
0.188078
0.0635109
0.185752
0.0693775
0.183307
0.0755799
0.180746
0.0821546
0.178073
0.089141
0.175295
0.0965831
0.172421
0.104533
0.169464
0.113053
0.166439
0.122224
0.163368
0.132151
0.160274
0.142983
0.157189
0.15493
0.154162
0.168318
0.151308
0.183659
0.149022
0.201775
0.149117
0.223626
0.163449
0.24661
0.258354
0.243076
0.211879
0.00553099
0.210959
0.0107222
0.209946
0.0156616
0.20884
0.0204392
0.207641
0.0251229
0.20635
0.0297717
0.204967
0.0344383
0.203495
0.03917
0.201934
0.0440102
0.200286
0.0489988
0.198554
0.0541736
0.196743
0.0595705
0.194855
0.0652236
0.1929
0.0711666
0.190886
0.0774325
0.188827
0.0840545
0.186742
0.0910676
0.184654
0.0985101
0.182596
0.106426
0.180612
0.114869
0.178759
0.123902
0.17712
0.133609
0.175818
0.1441
0.175045
0.155517
0.175147
0.168033
0.176807
0.181824
0.181507
0.196916
0.191951
0.213048
0.209102
0.229359
0.244131
0.223262
0.217024
0.00569855
0.216125
0.0110407
0.215154
0.0161194
0.214112
0.0210271
0.212999
0.0258326
0.211817
0.030595
0.210568
0.035367
0.209256
0.0401957
0.207884
0.0451239
0.206457
0.0501909
0.204983
0.0554332
0.20347
0.0608849
0.201929
0.066578
0.200373
0.0725436
0.198821
0.0788104
0.197298
0.0854064
0.195837
0.0923599
0.194476
0.0997003
0.193271
0.10746
0.192291
0.115675
0.191628
0.124388
0.191414
0.133643
0.191837
0.143496
0.193174
0.154001
0.195846
0.165189
0.200465
0.177045
0.207785
0.189455
0.218405
0.202313
0.231932
0.215748
0.226823
0.249197
0.222295
0.00584389
0.221421
0.0113152
0.220498
0.0165118
0.219527
0.0215277
0.218509
0.0264323
0.217447
0.0312843
0.216343
0.0361362
0.215204
0.0410342
0.214037
0.0460201
0.212848
0.0511319
0.211651
0.0564042
0.210457
0.0618684
0.209283
0.067554
0.208148
0.0734879
0.20708
0.0796929
0.206116
0.0861904
0.205297
0.0930008
0.204677
0.100142
0.204328
0.107633
0.204339
0.115489
0.204823
0.123727
0.205933
0.132355
0.207878
0.141378
0.210925
0.150786
0.215418
0.160539
0.221759
0.170561
0.230374
0.180718
0.241811
0.190778
0.257001
0.200488
0.207422
0.276369
0.227695
0.005965
0.22685
0.0115421
0.225981
0.0168335
0.225088
0.0219342
0.224172
0.0269137
0.223239
0.0318301
0.222292
0.036735
0.221339
0.0416734
0.220389
0.0466858
0.219454
0.0518078
0.218547
0.0570719
0.217688
0.0625064
0.216896
0.0681372
0.216196
0.0739856
0.215626
0.0800681
0.215229
0.0863992
0.215055
0.0929898
0.215169
0.0998463
0.215652
0.106971
0.216602
0.114363
0.218143
0.122012
0.220428
0.129898
0.22365
0.13799
0.228043
0.146237
0.233882
0.154557
0.241488
0.162828
0.251235
0.170864
0.26358
0.178348
0.279032
0.184977
0.189631
0.296796
0.233228
0.00605997
0.232415
0.0117179
0.231604
0.0170795
0.230795
0.0222404
0.22999
0.0272695
0.229194
0.032224
0.228414
0.0371541
0.227657
0.0421035
0.226935
0.0471103
0.226264
0.0522081
0.225659
0.0574261
0.225144
0.0627895
0.224743
0.0683193
0.224487
0.0740308
0.224417
0.079935
0.224583
0.0860386
0.225042
0.0923426
0.225861
0.0988423
0.227127
0.105526
0.22894
0.112376
0.231419
0.119362
0.234709
0.126443
0.238979
0.133565
0.244423
0.140648
0.251262
0.147587
0.259738
0.154238
0.270098
0.160409
0.282535
0.165837
0.297174
0.170287
0.17326
0.313521
0.238897
0.00612711
0.23812
0.0118395
0.237371
0.0172456
0.236651
0.0224408
0.235964
0.0274933
0.235312
0.0324589
0.234705
0.0373861
0.234153
0.0423165
0.233668
0.0472859
0.233267
0.0523253
0.232972
0.0574605
0.232806
0.0627127
0.232798
0.068098
0.232984
0.0736266
0.233408
0.0793031
0.234121
0.0851265
0.235182
0.0910893
0.236663
0.0971763
0.238646
0.103365
0.241227
0.109623
0.244516
0.115907
0.248639
0.122163
0.253737
0.12832
0.259962
0.134288
0.267475
0.139955
0.276428
0.145181
0.286951
0.149802
0.299106
0.153617
0.312916
0.156433
0.157999
0.328155
0.244704
0.00616496
0.243966
0.0119042
0.243283
0.0173279
0.242658
0.0225309
0.242092
0.0275801
0.241591
0.0325293
0.241163
0.0374251
0.240821
0.0423069
0.240578
0.0472079
0.240453
0.0521559
0.240468
0.0571733
0.240651
0.0622773
0.241033
0.0674792
0.241651
0.0727841
0.242551
0.0781909
0.243783
0.0836916
0.245407
0.0892712
0.247491
0.0949064
0.250113
0.100566
0.253359
0.106208
0.257325
0.111782
0.262114
0.117224
0.267837
0.12246
0.274603
0.127397
0.282518
0.13193
0.291669
0.135937
0.302114
0.13928
0.313861
0.141811
0.326874
0.143379
0.143863
0.34099
0.250654
0.0061723
0.249956
0.0119097
0.249343
0.0173236
0.248816
0.0225073
0.248376
0.027526
0.248029
0.0324314
0.247785
0.0372678
0.247655
0.0420721
0.247656
0.0468747
0.247807
0.0517003
0.248131
0.0565677
0.248657
0.0614902
0.249417
0.0664747
0.250449
0.0715218
0.251798
0.0766251
0.253513
0.0817711
0.255651
0.0869387
0.258274
0.0920988
0.261451
0.0972139
0.265256
0.102238
0.269768
0.107116
0.275067
0.111782
0.281235
0.116162
0.288344
0.120172
0.296456
0.123716
0.305612
0.126694
0.315826
0.128997
0.327068
0.130516
0.339262
0.131148
0.130839
0.352268
0.256748
0.00614821
0.256093
0.0118545
0.255553
0.0172306
0.255126
0.0223676
0.254815
0.0273287
0.254625
0.0321633
0.254565
0.0369131
0.254649
0.0416122
0.254892
0.0462883
0.255315
0.0509629
0.255941
0.0556515
0.256798
0.0603636
0.25792
0.0651024
0.259343
0.0698644
0.261108
0.0746391
0.263263
0.0794086
0.265859
0.0841479
0.26895
0.0888239
0.272595
0.0933964
0.276855
0.0978172
0.281791
0.102031
0.287461
0.105975
0.29392
0.10958
0.301211
0.112772
0.309362
0.11547
0.318384
0.117593
0.328256
0.119061
0.338925
0.119798
0.350303
0.119736
0.118858
0.362268
0.262991
0.00609206
0.262381
0.0117376
0.261914
0.0170476
0.26159
0.0221106
0.261408
0.0269875
0.261375
0.0317249
0.2615
0.036362
0.261794
0.04093
0.262275
0.0454538
0.262962
0.0499519
0.263879
0.0544366
0.265052
0.0589143
0.266513
0.0633849
0.268297
0.0678418
0.270442
0.0722712
0.272989
0.0766525
0.275984
0.0809582
0.279471
0.0851538
0.2835
0.0891981
0.288116
0.0930441
0.293364
0.0966388
0.299283
0.099925
0.305905
0.102841
0.313249
0.105324
0.32132
0.10731
0.330103
0.108735
0.339561
0.109543
0.349629
0.109684
0.360217
0.109117
0.107843
0.371216
0.269386
0.00600353
0.268821
0.0115584
0.26843
0.0167742
0.268208
0.0217365
0.268156
0.0265032
0.268278
0.0311182
0.268584
0.0356179
0.269085
0.0400309
0.269796
0.0443793
0.270737
0.0486786
0.271929
0.0529386
0.273398
0.0571629
0.275172
0.0613489
0.277284
0.0654875
0.279767
0.069563
0.282656
0.0735534
0.285989
0.0774302
0.289803
0.081159
0.294134
0.0847
0.299016
0.088009
0.304477
0.0910377
0.310541
0.0937355
0.31722
0.0960502
0.324516
0.0979301
0.332416
0.0993252
0.340892
0.10019
0.349894
0.100485
0.359354
0.10018
0.369186
0.0992553
0.0977224
0.379291
0.275936
0.00588264
0.275418
0.0113173
0.275101
0.0164113
0.274981
0.0212464
0.275057
0.0258779
0.275332
0.0303467
0.275814
0.0346864
0.276513
0.0389228
0.277445
0.0430754
0.278625
0.0471574
0.280074
0.0511762
0.281816
0.0551331
0.283875
0.0590238
0.28628
0.0628376
0.289057
0.0665579
0.292238
0.0701623
0.295851
0.0736228
0.299924
0.0769067
0.304482
0.0799768
0.309548
0.082793
0.315137
0.0853127
0.321257
0.0874929
0.327909
0.0892906
0.33508
0.090665
0.342746
0.0915792
0.350869
0.0920011
0.359394
0.0919062
0.368256
0.0912787
0.377372
0.0901115
0.0884245
0.386655
0.282645
0.00572971
0.282173
0.011015
0.28193
0.0159601
0.28191
0.0206429
0.282111
0.0251155
0.282534
0.0294158
0.283185
0.0335748
0.284074
0.0376156
0.285213
0.0415553
0.286617
0.045405
0.288303
0.0491702
0.290293
0.0528507
0.292606
0.0564408
0.295265
0.0599292
0.298295
0.0632992
0.301717
0.0665292
0.305553
0.0695926
0.309822
0.0724593
0.314541
0.0750957
0.31972
0.0774666
0.325364
0.0795358
0.331471
0.0812675
0.338029
0.0826277
0.345018
0.0835856
0.352406
0.0841146
0.36015
0.0841943
0.368194
0.0838108
0.376476
0.0829588
0.38492
0.0816406
0.07988
0.393451
0.289516
0.00554536
0.28909
0.0106528
0.28892
0.0154229
0.288998
0.0199294
0.289318
0.0242209
0.289883
0.0283324
0.290695
0.0322921
0.291762
0.0361209
0.293094
0.0398337
0.294704
0.0434399
0.296606
0.0469432
0.298815
0.0503426
0.301351
0.0536317
0.304229
0.0567993
0.307468
0.0598294
0.311084
0.0627015
0.315091
0.0653917
0.319501
0.0678728
0.32432
0.0701156
0.329552
0.07209
0.335191
0.0737661
0.341228
0.0751151
0.347644
0.0761109
0.354411
0.0767312
0.361493
0.0769583
0.368846
0.0767802
0.376417
0.0761915
0.384145
0.0751939
0.391964
0.0737956
0.0720225
0.399808
0.296553
0.00533051
0.296173
0.0102327
0.296073
0.0148029
0.296244
0.0191102
0.29668
0.0232
0.297378
0.0271043
0.298342
0.0308486
0.299575
0.0344518
0.301084
0.0379268
0.302881
0.0412813
0.304974
0.0445184
0.307378
0.0476361
0.310105
0.0506282
0.313166
0.0534838
0.316575
0.0561883
0.320341
0.0587232
0.324472
0.0610672
0.328972
0.0631968
0.333841
0.0650871
0.339075
0.0667131
0.344662
0.0680509
0.350586
0.069078
0.356823
0.0697754
0.363342
0.0701275
0.370104
0.0701236
0.377067
0.0697584
0.384179
0.0690322
0.391386
0.0679516
0.398628
0.0665284
0.0647887
0.405849
0.30376
0.00508627
0.303424
0.00975701
0.303392
0.0141036
0.303652
0.0181906
0.304197
0.0220598
0.305021
0.0257405
0.306125
0.0292557
0.30751
0.0326221
0.309181
0.0358511
0.311144
0.0389494
0.313407
0.0419191
0.315978
0.0447581
0.318865
0.0474605
0.322076
0.0500165
0.325618
0.0524129
0.329495
0.0546337
0.333708
0.0566604
0.338256
0.0584733
0.343133
0.0600518
0.348329
0.0613758
0.353827
0.0624264
0.359607
0.0631871
0.365641
0.0636444
0.371897
0.0637883
0.378337
0.0636136
0.384918
0.0631197
0.391594
0.0623108
0.398314
0.0611965
0.405028
0.0597906
0.0581183
0.411685
0.311141
0.00481396
0.310848
0.00922829
0.31088
0.0133291
0.311225
0.0171761
0.311871
0.0208078
0.312812
0.0242505
0.314044
0.027525
0.315568
0.0306461
0.317384
0.0336238
0.319495
0.0364638
0.321905
0.0391679
0.324617
0.0417341
0.327637
0.044157
0.330967
0.0464281
0.334608
0.0485361
0.338561
0.0504674
0.342821
0.0522065
0.347382
0.0537373
0.352234
0.0550432
0.35736
0.0561085
0.362743
0.0569189
0.368358
0.0574627
0.374176
0.0577309
0.380164
0.0577182
0.386286
0.0574229
0.392501
0.056848
0.398767
0.0560002
0.405039
0.0548907
0.411272
0.053534
0.0519541
0.417423
0.3187
0.00451501
0.318447
0.00864943
0.31854
0.0124838
0.318964
0.0160728
0.319704
0.0194518
0.320753
0.0226441
0.322103
0.0256685
0.323751
0.0285379
0.325695
0.0312612
0.327935
0.0338435
0.330471
0.0362862
0.333302
0.0385876
0.336429
0.0407433
0.33985
0.042746
0.343563
0.0445865
0.347562
0.0462534
0.35184
0.0477344
0.356386
0.0490164
0.361186
0.0500866
0.366221
0.0509331
0.371471
0.0515457
0.376909
0.0519162
0.382506
0.0520395
0.38823
0.0519135
0.394046
0.0515394
0.399916
0.0509222
0.405802
0.0500702
0.411664
0.0489952
0.417463
0.0477115
0.0462415
0.423162
0.326441
0.00419091
0.326226
0.00802338
0.326377
0.0115721
0.326874
0.0148869
0.327701
0.0179996
0.328848
0.0209311
0.330304
0.0236979
0.332063
0.0263113
0.334121
0.0287792
0.336472
0.0311061
0.339114
0.0332934
0.342042
0.0353399
0.345254
0.0372419
0.348743
0.0389938
0.352502
0.0405879
0.356524
0.0420154
0.360798
0.0432665
0.365308
0.0443312
0.370038
0.0451999
0.374968
0.0458638
0.380074
0.0463159
0.385331
0.0465513
0.39071
0.0465673
0.396179
0.0463644
0.401706
0.0459456
0.407256
0.0453172
0.412794
0.0444882
0.418286
0.0434701
0.423697
0.0422769
0.0409286
0.428997
0.334368
0.00384314
0.33419
0.00735304
0.334394
0.0105984
0.334958
0.0136243
0.335866
0.0164591
0.337101
0.0191209
0.338653
0.0216242
0.340511
0.023979
0.342667
0.0261922
0.345114
0.0282677
0.347845
0.0302069
0.350852
0.0320092
0.354129
0.0336719
0.357666
0.0351905
0.361454
0.0365593
0.365481
0.0377714
0.369732
0.0388194
0.374192
0.0396959
0.378841
0.0403939
0.383658
0.0409074
0.388619
0.0412319
0.393698
0.0413647
0.398867
0.0413053
0.404097
0.0410556
0.409356
0.0406199
0.414613
0.040005
0.419838
0.0392199
0.425
0.0382756
0.430068
0.037185
0.0359662
0.435017
0.342486
0.00347302
0.342342
0.00664107
0.342595
0.00956688