/*--------------------------------*- C++ -*----------------------------------*\
| =========                 |                                                 |
| \\      /  F ield         | OpenFOAM: The Open Source CFD Toolbox           |
|  \\    /   O peration     | Version:  2006                                  |
|   \\  /    A nd           | Website:  www.openfoam.com                      |
|    \\/     M anipulation  |                                                 |
\*---------------------------------------------------------------------------*/
FoamFile
{
    version     2.0;
    format      ascii;
    class       volVectorField;
    location    "0.8";
    object      cellDisplacement;
}
// * * * * * * * * * * * * * * * * * * * * * * * * * * * * * * * * * * * * * //

dimensions      [0 1 0 0 0 0 0];


internalField   nonuniform List<vector> 
2790
(
(0.00147603 2.27214e-06 0)
(0.00418369 6.59344e-06 0)
(0.00674629 1.11145e-05 0)
(0.00927053 1.62507e-05 0)
(0.0118266 2.23724e-05 0)
(0.0144574 2.98383e-05 0)
(0.0171816 3.90107e-05 0)
(0.0199976 5.02439e-05 0)
(0.022885 6.39549e-05 0)
(0.0258047 8.05847e-05 0)
(0.0287007 0.000100606 0)
(0.0315016 0.000124525 0)
(0.034123 0.000152893 0)
(0.0364702 0.000186287 0)
(0.0384443 0.000224882 0)
(0.0399487 0.000269236 0)
(0.0408913 0.000319751 0)
(0.0411911 0.000376744 0)
(0.0407842 0.000440484 0)
(0.0396278 0.000511103 0)
(0.0377042 0.000588715 0)
(0.0350239 0.000673489 0)
(0.0316286 0.000765776 0)
(0.0275942 0.000866343 0)
(0.0230363 0.00097683 0)
(0.0181204 0.0011007 0)
(0.0130835 0.00124443 0)
(0.00825058 0.00141253 0)
(0.00409869 0.00159153 0)
(0.00148737 0.00168845 0)
(0.00146123 6.76273e-06 0)
(0.00414628 1.96342e-05 0)
(0.00669255 3.31118e-05 0)
(0.00920334 4.84251e-05 0)
(0.0117492 6.66794e-05 0)
(0.0143734 8.89467e-05 0)
(0.0170951 0.000116316 0)
(0.0199135 0.000149826 0)
(0.0228096 0.000190732 0)
(0.0257458 0.000240352 0)
(0.0286675 0.000300093 0)
(0.0315051 0.000371465 0)
(0.0341761 0.00045611 0)
(0.0365867 0.000555948 0)
(0.0386388 0.000671158 0)
(0.0402388 0.000803613 0)
(0.0412952 0.000954468 0)
(0.0417283 0.00112463 0)
(0.0414755 0.0013149 0)
(0.040495 0.00152553 0)
(0.0387702 0.00175667 0)
(0.0363135 0.0020084 0)
(0.0331688 0.002281 0)
(0.029415 0.00257515 0)
(0.0251696 0.00289222 0)
(0.0205988 0.00323504 0)
(0.0159646 0.00361391 0)
(0.0116255 0.00402818 0)
(0.00811955 0.00446617 0)
(0.00631172 0.00488085 0)
(0.0014595 1.11611e-05 0)
(0.0041444 3.24265e-05 0)
(0.00669226 5.47137e-05 0)
(0.00920659 8.00311e-05 0)
(0.0117592 0.00011021 0)
(0.0143946 0.000147027 0)
(0.0171321 0.000192319 0)
(0.0199727 0.000247713 0)
(0.0229005 0.000315345 0)
(0.02588 0.000397396 0)
(0.0288594 0.000496192 0)
(0.0317724 0.000614206 0)
(0.0345408 0.00075409 0)
(0.0370702 0.000918082 0)
(0.0392674 0.00110817 0)
(0.041045 0.00132702 0)
(0.0423131 0.00157635 0)
(0.0429942 0.00185756 0)
(0.0430294 0.00217228 0)
(0.0423784 0.00252073 0)
(0.0410274 0.00290296 0)
(0.0389917 0.00331879 0)
(0.0363203 0.0037681 0)
(0.0331007 0.00425088 0)
(0.0294607 0.00476694 0)
(0.0255637 0.00531745 0)
(0.0216603 0.00590129 0)
(0.0181464 0.00651506 0)
(0.0156047 0.0071425 0)
(0.0148009 0.0076955 0)
(0.00145973 1.54664e-05 0)
(0.0041475 4.4961e-05 0)
(0.00669999 7.58943e-05 0)
(0.00922147 0.000111007 0)
(0.0117861 0.000152851 0)
(0.0144403 0.000203882 0)
(0.0172027 0.000266385 0)
(0.0200771 0.000342959 0)
(0.0230529 0.000436486 0)
(0.0260973 0.000549945 0)
(0.0291623 0.000686535 0)
(0.0321859 0.000849636 0)
(0.0350939 0.00104274 0)
(0.0377987 0.00126894 0)
(0.0402133 0.00153168 0)
(0.0422531 0.00183427 0)
(0.0438336 0.00217906 0)
(0.0448797 0.00256762 0)
(0.0453405 0.00300329 0)
(0.0451764 0.00348565 0)
(0.0443764 0.00401452 0)
(0.0429592 0.00458912 0)
(0.0409782 0.00520832 0)
(0.0385322 0.00587103 0)
(0.0357589 0.00657388 0)
(0.0328457 0.00731168 0)
(0.0300132 0.00806812 0)
(0.0276081 0.00882825 0)
(0.0262672 0.00956654 0)
(0.026657 0.0101734 0)
(0.00146154 1.965e-05 0)
(0.00415536 5.71463e-05 0)
(0.00671529 9.6399e-05 0)
(0.00924693 0.000140953 0)
(0.0118282 0.000194025 0)
(0.0145047 0.000258681 0)
(0.0172994 0.000337647 0)
(0.0202213 0.000434536 0)
(0.0232605 0.000552818 0)
(0.0263896 0.00069626 0)
(0.0295658 0.000868888 0)
(0.032733 0.00107496 0)
(0.0358246 0.00131896 0)
(0.0387571 0.00160465 0)
(0.0414517 0.00193669 0)
(0.0438328 0.00231948 0)
(0.0458215 0.00275601 0)
(0.0473539 0.00324985 0)
(0.048376 0.00380285 0)
(0.048853 0.00441474 0)
(0.048779 0.00508531 0)
(0.0481735 0.00581248 0)
(0.0470883 0.006593 0)
(0.0456398 0.00742486 0)
(0.0439669 0.0082982 0)
(0.0422697 0.00919949 0)
(0.0407898 0.010105 0)
(0.039796 0.0109833 0)
(0.0397778 0.0117817 0)
(0.0414859 0.0124202 0)
(0.00146462 2.36618e-05 0)
(0.00416454 6.87966e-05 0)
(0.00673435 0.000116006 0)
(0.00928131 0.000169605 0)
(0.011884 0.00023336 0)
(0.0145888 0.000310789 0)
(0.0174233 0.00040549 0)
(0.0204019 0.000521572 0)
(0.0235179 0.000663197 0)
(0.0267491 0.000834857 0)
(0.0300591 0.00104135 0)
(0.0333986 0.00128775 0)
(0.0367075 0.00157924 0)
(0.0399135 0.00192047 0)
(0.0429494 0.00231789 0)
(0.0457437 0.00277628 0)
(0.0482289 0.00329999 0)
(0.0503509 0.00389357 0)
(0.0520545 0.00455732 0)
(0.0533155 0.00529257 0)
(0.0541353 0.00609898 0)
(0.0545365 0.00697309 0)
(0.0545742 0.00791145 0)
(0.0543401 0.00890485 0)
(0.0539817 0.00993866 0)
(0.0537172 0.0109948 0)
(0.0537816 0.0120402 0)
(0.0544153 0.0130296 0)
(0.0558728 0.0138901 0)
(0.0590318 0.0145713 0)
(0.00146879 2.74566e-05 0)
(0.00417732 7.98224e-05 0)
(0.00675979 0.000134621 0)
(0.0093241 0.000196766 0)
(0.0119489 0.000270488 0)
(0.0146865 0.000359864 0)
(0.0175692 0.000469271 0)
(0.0206129 0.000603214 0)
(0.0238166 0.000766489 0)
(0.0271645 0.000964249 0)
(0.0306272 0.00120201 0)
(0.034164 0.00148561 0)
(0.0377237 0.00182109 0)
(0.0412472 0.00221447 0)
(0.0446745 0.00267238 0)
(0.047945 0.0032007 0)
(0.0510017 0.00380475 0)
(0.053797 0.0044891 0)
(0.0562916 0.005256 0)
(0.0584638 0.00610667 0)
(0.06033 0.00704189 0)
(0.0619129 0.0080572 0)
(0.0632803 0.0091473 0)
(0.0644975 0.0102972 0)
(0.0656972 0.011491 0)
(0.0670713 0.012704 0)
(0.0688901 0.0139009 0)
(0.0713332 0.0150283 0)
(0.0745406 0.0160203 0)
(0.0793413 0.0168074 0)
(0.00147399 3.10316e-05 0)
(0.00419295 9.01978e-05 0)
(0.00679037 0.000152104 0)
(0.00937384 0.000222124 0)
(0.0120237 0.000305066 0)
(0.0147987 0.000405619 0)
(0.0177339 0.000528543 0)
(0.0208492 0.000678849 0)
(0.0241493 0.000861877 0)
(0.0276251 0.00108337 0)
(0.0312556 0.00134947 0)
(0.0350089 0.00166672 0)
(0.0388447 0.00204194 0)
(0.0427159 0.00248212 0)
(0.0465739 0.0029945 0)
(0.0503704 0.0035859 0)
(0.0540613 0.00426261 0)
(0.057611 0.00502998 0)
(0.0609964 0.00589151 0)
(0.0642111 0.00685024 0)
(0.0672626 0.00790519 0)
(0.0701768 0.00905115 0)
(0.0730409 0.0102834 0)
(0.0759342 0.0115866 0)
(0.0789619 0.0129405 0)
(0.0822445 0.0143169 0)
(0.0860942 0.015684 0)
(0.0906818 0.0169855 0)
(0.0960677 0.0181683 0)
(0.102736 0.0190977 0)
(0.00148054 3.43804e-05 0)
(0.00421098 9.98705e-05 0)
(0.00682257 0.000168306 0)
(0.00942661 0.000245569 0)
(0.0121061 0.000337017 0)
(0.0149213 0.000447722 0)
(0.0179123 0.000582859 0)
(0.0211036 0.000747867 0)
(0.024506 0.000948545 0)
(0.0281176 0.00119113 0)
(0.0319259 0.0014823 0)
(0.0359094 0.00182922 0)
(0.0400388 0.00223938 0)
(0.0442798 0.00272052 0)
(0.0485971 0.00328058 0)
(0.0529567 0.0039273 0)
(0.0573292 0.00466792 0)
(0.0616939 0.00550899 0)
(0.0660508 0.0064561 0)
(0.0704036 0.00751172 0)
(0.0747622 0.00867387 0)
(0.0791775 0.00994137 0)
(0.0837086 0.0113065 0)
(0.0884776 0.0127545 0)
(0.0935891 0.0142626 0)
(0.0991522 0.0158055 0)
(0.105321 0.0173398 0)
(0.112416 0.0188092 0)
(0.120398 0.0201464 0)
(0.129144 0.0211338 0)
(0.00148879 3.74863e-05 0)
(0.00423075 0.000108749 0)
(0.00685816 0.000183163 0)
(0.00948444 0.000267085 0)
(0.0121946 0.000366216 0)
(0.0150519 0.000486009 0)
(0.0181006 0.000631993 0)
(0.0213705 0.000809958 0)
(0.0248784 0.00102607 0)
(0.0286298 0.00128696 0)
(0.0326215 0.00159976 0)
(0.0368423 0.00197212 0)
(0.0412752 0.00241209 0)
(0.0458986 0.00292798 0)
(0.050692 0.00352842 0)
(0.0556373 0.00422198 0)
(0.060722 0.00501667 0)
(0.0659533 0.00592143 0)
(0.071333 0.0069415 0)
(0.0768764 0.00807954 0)
(0.0826432 0.00933763 0)
(0.0886883 0.0107123 0)
(0.0950787 0.0121975 0)
(0.101909 0.0137786 0)
(0.109345 0.0154312 0)
(0.117495 0.017123 0)
(0.126363 0.0188029 0)
(0.136296 0.0203999 0)
(0.147089 0.0218018 0)
(0.158024 0.0227445 0)
(0.00149358 4.02296e-05 0)
(0.00425168 0.00011685 0)
(0.00689626 0.000196695 0)
(0.00954539 0.000286583 0)
(0.0122868 0.000392534 0)
(0.0151866 0.000520306 0)
(0.0182936 0.000675707 0)
(0.0216425 0.000864801 0)
(0.0252562 0.00109403 0)
(0.0291479 0.00137031 0)
(0.0333232 0.00170108 0)
(0.0377822 0.0020944 0)
(0.0425204 0.00255878 0)
(0.0475288 0.00310289 0)
(0.0528023 0.00373594 0)
(0.0583407 0.0044673 0)
(0.0641523 0.00530638 0)
(0.0702658 0.00626243 0)
(0.0766871 0.00733996 0)
(0.0834839 0.0085467 0)
(0.0907145 0.00988436 0)
(0.0984527 0.0113492 0)
(0.106833 0.0129363 0)
(0.115937 0.0146317 0)
(0.1259 0.01641 0)
(0.136885 0.0182272 0)
(0.148922 0.0200295 0)
(0.161964 0.0217069 0)
(0.175722 0.0231083 0)
(0.188798 0.0239605 0)
(0.00150022 4.27467e-05 0)
(0.00427417 0.000124192 0)
(0.00693644 0.000208905 0)
(0.00960878 0.000304077 0)
(0.0123814 0.000415988 0)
(0.0153236 0.00055063 0)
(0.018488 0.00071402 0)
(0.0219144 0.000912414 0)
(0.0256317 0.00115243 0)
(0.0296605 0.00144116 0)
(0.0340146 0.00178619 0)
(0.0387061 0.00219592 0)
(0.0437438 0.00267925 0)
(0.0491291 0.00324486 0)
(0.0548733 0.0039024 0)
(0.0609927 0.0046616 0)
(0.0675252 0.00553359 0)
(0.0745033 0.0065271 0)
(0.0819677 0.00764872 0)
(0.0900197 0.00890651 0)
(0.0987163 0.0103013 0)
(0.1082 0.0118353 0)
(0.118607 0.0135028 0)
(0.130108 0.0152873 0)
(0.142814 0.0171643 0)
(0.156894 0.0190866 0)
(0.17241 0.0209796 0)
(0.188906 0.0227079 0)
(0.205838 0.0240856 0)
(0.220959 0.0248325 0)
(0.00150811 4.50255e-05 0)
(0.00429783 0.000130749 0)
(0.00697735 0.000219726 0)
(0.00967264 0.000319474 0)
(0.0124757 0.000436455 0)
(0.0154586 0.000576826 0)
(0.018678 0.00074674 0)
(0.0221782 0.000952564 0)
(0.025994 0.00120101 0)
(0.0301527 0.00149921 0)
(0.0346749 0.00185469 0)
(0.0395895 0.00227649 0)
(0.0449142 0.00277339 0)
(0.0506584 0.00335374 0)
(0.0568511 0.00402763 0)
(0.0635295 0.00480564 0)
(0.070749 0.00569842 0)
(0.0785466 0.00671383 0)
(0.0870204 0.00786257 0)
(0.0962694 0.0091515 0)
(0.106396 0.0105827 0)
(0.117587 0.0121582 0)
(0.130012 0.0138744 0)
(0.14388 0.0157167 0)
(0.159421 0.0176566 0)
(0.176749 0.0196475 0)
(0.19597 0.0216023 0)
(0.216408 0.0233754 0)
(0.236904 0.0247446 0)
(0.254058 0.0254018 0)
(0.00151425 4.69916e-05 0)
(0.0043197 0.000136489 0)
(0.00701859 0.000229253 0)
(0.00973663 0.000332926 0)
(0.012569 0.000454143 0)
(0.0155907 0.00059917 0)
(0.0188617 0.000774226 0)
(0.0224309 0.000985713 0)
(0.0263384 0.00124035 0)
(0.0306183 0.00154526 0)
(0.0353005 0.00190806 0)
(0.040421 0.00233755 0)
(0.0460061 0.00284219 0)
(0.0520804 0.00343054 0)
(0.0586838 0.0041123 0)
(0.0658802 0.00489894 0)
(0.0737274 0.00580029 0)
(0.0822897 0.00682486 0)
(0.0916924 0.0079828 0)
(0.102037 0.00927957 0)
(0.113492 0.0107211 0)
(0.126255 0.012309 0)
(0.140562 0.0140355 0)
(0.156656 0.0158899 0)
(0.174864 0.0178415 0)
(0.195407 0.0198465 0)
(0.218408 0.021818 0)
(0.243248 0.0236295 0)
(0.268083 0.025055 0)
(0.287714 0.0257124 0)
(0.00152123 4.87337e-05 0)
(0.00434276 0.000141555 0)
(0.00706042 0.000237582 0)
(0.00980056 0.000344562 0)
(0.0126607 0.000469232 0)
(0.0157186 0.000617907 0)
(0.0190371 0.000796801 0)
(0.022669 0.00101228 0)
(0.0266594 0.00127099 0)
(0.0310482 0.00157992 0)
(0.0358702 0.00194636 0)
(0.0411735 0.00237918 0)
(0.0469943 0.00288667 0)
(0.0533629 0.00347672 0)
(0.0603383 0.00415947 0)
(0.0679933 0.00494505 0)
(0.0763844 0.0058418 0)
(0.0856223 0.0068604 0)
(0.0958314 0.00801022 0)
(0.107145 0.00929504 0)
(0.119745 0.0107181 0)
(0.133859 0.0122825 0)
(0.149763 0.0139776 0)
(0.167764 0.0157875 0)
(0.188182 0.0176801 0)
(0.211423 0.0196043 0)
(0.237612 0.0214853 0)
(0.266657 0.0232448 0)
(0.296728 0.024813 0)
(0.321603 0.0258423 0)
(0.00144821 -0.0016114 0)
(0.0060623 -0.00166496 0)
(0.014712 -0.00160945 0)
(0.0261695 -0.00154799 0)
(0.0388894 -0.00149044 0)
(0.0513785 -0.00141997 0)
(0.0625226 -0.0013354 0)
(0.0716255 -0.0012399 0)
(0.0783721 -0.00113543 0)
(0.0827498 -0.00102623 0)
(0.084927 -0.000919264 0)
(0.0851484 -0.000814607 0)
(0.083723 -0.000714625 0)
(0.0809349 -0.000617624 0)
(0.0770757 -0.000529166 0)
(0.072416 -0.000444533 0)
(0.0671784 -0.000371495 0)
(0.0615764 -0.000306787 0)
(0.0558024 -0.000248205 0)
(0.0499883 -0.000198622 0)
(0.0442466 -0.000157934 0)
(0.0386831 -0.000124091 0)
(0.0333602 -9.61239e-05 0)
(0.0283131 -7.34752e-05 0)
(0.0235484 -5.50611e-05 0)
(0.0190604 -4.05716e-05 0)
(0.0147994 -2.8774e-05 0)
(0.0106727 -1.90136e-05 0)
(0.00655845 -1.10573e-05 0)
(0.00228762 -3.73052e-06 0)
(0.00623656 -0.00466208 0)
(0.0108822 -0.0047268 0)
(0.0194723 -0.00465596 0)
(0.0308223 -0.00454575 0)
(0.0432707 -0.0043918 0)
(0.0553829 -0.0041919 0)
(0.0660947 -0.00394565 0)
(0.0747377 -0.00366655 0)
(0.0810137 -0.00335889 0)
(0.08494 -0.00303541 0)
(0.0867003 -0.0027127 0)
(0.0865499 -0.00239481 0)
(0.0848027 -0.00209266 0)
(0.0817474 -0.0018075 0)
(0.0776554 -0.00153903 0)
(0.0728075 -0.00129786 0)
(0.0674264 -0.00108274 0)
(0.0617177 -0.000891684 0)
(0.0558555 -0.000725218 0)
(0.0499686 -0.000583097 0)
(0.0441745 -0.000463433 0)
(0.0385833 -0.00036353 0)
(0.0332458 -0.000281827 0)
(0.0281961 -0.000215003 0)
(0.023439 -0.00016112 0)
(0.0189631 -0.000118143 0)
(0.0147219 -8.38125e-05 0)
(0.0106171 -5.58083e-05 0)
(0.00652439 -3.23398e-05 0)
(0.00227934 -1.08991e-05 0)
(0.0147239 -0.00734801 0)
(0.0198289 -0.00748278 0)
(0.0286834 -0.00746541 0)
(0.0399559 -0.00734791 0)
(0.0520229 -0.00712561 0)
(0.0635936 -0.006816 0)
(0.0735899 -0.00642104 0)
(0.0813898 -0.00596075 0)
(0.0868036 -0.00546096 0)
(0.0898898 -0.00493484 0)
(0.0908581 -0.00440339 0)
(0.089997 -0.0038841 0)
(0.0876222 -0.00338763 0)
(0.0840447 -0.00292541 0)
(0.0795029 -0.00249311 0)
(0.0742719 -0.00210239 0)
(0.0685772 -0.00175177 0)
(0.0626158 -0.00144452 0)
(0.0565425 -0.00117658 0)
(0.0504945 -0.00094827 0)
(0.0445748 -0.000753484 0)
(0.0388775 -0.000590854 0)
(0.0334614 -0.000457864 0)
(0.0283566 -0.000349228 0)
(0.0235549 -0.000261752 0)
(0.0190467 -0.000191868 0)
(0.0147826 -0.000136181 0)
(0.0106602 -9.09391e-05 0)
(0.00655152 -5.27509e-05 0)
(0.00228974 -1.77852e-05 0)
(0.0265794 -0.00969651 0)
(0.0324023 -0.00993675 0)
(0.041775 -0.0100253 0)
(0.053004 -0.009928 0)
(0.0646631 -0.00966257 0)
(0.0754638 -0.00925337 0)
(0.0843786 -0.00871608 0)
(0.0909543 -0.00808382 0)
(0.0951045 -0.00739572 0)
(0.0969847 -0.00668183 0)
(0.0968211 -0.00595909 0)
(0.0949529 -0.00525449 0)
(0.0916872 -0.00458061 0)
(0.0873466 -0.00395366 0)
(0.0821713 -0.00337417 0)
(0.076406 -0.00284707 0)
(0.0702636 -0.00237438 0)
(0.0639365 -0.00195962 0)
(0.0575631 -0.0015974 0)
(0.0512758 -0.00128761 0)
(0.0451746 -0.00102441 0)
(0.0393265 -0.000804366 0)
(0.0337934 -0.000623254 0)
(0.0286036 -0.000475963 0)
(0.0237366 -0.000357076 0)
(0.0191784 -0.000261828 0)
(0.0148761 -0.000185964 0)
(0.0107249 -0.000124359 0)
(0.00659384 -7.22498e-05 0)
(0.00230717 -2.44195e-05 0)
(0.0413994 -0.0117913 0)
(0.0482604 -0.0121891 0)
(0.0583636 -0.012393 0)
(0.0696345 -0.0123193 0)
(0.0807928 -0.0120045 0)
(0.090473 -0.0114774 0)
(0.0979605 -0.0107942 0)
(0.10294 -0.00999766 0)
(0.105481 -0.00913555 0)
(0.105816 -0.00824495 0)
(0.104259 -0.00735373 0)
(0.101143 -0.00648588 0)
(0.0967922 -0.00565817 0)
(0.0914967 -0.00488303 0)
(0.0855185 -0.00416924 0)
(0.0790866 -0.00352119 0)
(0.0723941 -0.00294099 0)
(0.0656085 -0.0024291 0)
(0.0588682 -0.00198306 0)
(0.0522773 -0.001599 0)
(0.0459431 -0.00127434 0)
(0.0399094 -0.00100206 0)
(0.0342291 -0.000776958 0)
(0.0289266 -0.000593971 0)
(0.0239775 -0.000446199 0)
(0.0193547 -0.000327625 0)
(0.0149994 -0.000232908 0)
(0.0108089 -0.00015594 0)
(0.00664593 -9.07194e-05 0)
(0.00232702 -3.07314e-05 0)
(0.0589385 -0.0138058 0)
(0.0673052 -0.014374 0)
(0.0782305 -0.0146399 0)
(0.08947 -0.0145365 0)
(0.0998378 -0.014131 0)
(0.108034 -0.0134663 0)
(0.113736 -0.0126312 0)
(0.116761 -0.0116725 0)
(0.117413 -0.0106532 0)
(0.115946 -0.00960546 0)
(0.112786 -0.00856803 0)
(0.108231 -0.00755857 0)
(0.102647 -0.00660035 0)
(0.0962858 -0.00570221 0)
(0.0893934 -0.00487335 0)
(0.0821958 -0.00412061 0)
(0.0748704 -0.00344662 0)
(0.0675607 -0.00285026 0)
(0.0603999 -0.00233059 0)
(0.0534608 -0.00188163 0)
(0.0468452 -0.00150102 0)
(0.0406013 -0.0011823 0)
(0.0347514 -0.0009181 0)
(0.0293129 -0.000702712 0)
(0.0242634 -0.000528643 0)
(0.0195642 -0.000388896 0)
(0.0151478 -0.000276843 0)
(0.0109096 -0.000185599 0)
(0.00670699 -0.000108113 0)
(0.00234938 -3.66811e-05 0)
(0.0792614 -0.0159442 0)
(0.0893961 -0.0165658 0)
(0.101059 -0.0167759 0)
(0.112049 -0.0165653 0)
(0.121159 -0.016012 0)
(0.127511 -0.0151941 0)
(0.131047 -0.014201 0)
(0.13186 -0.0130945 0)
(0.130366 -0.0119324 0)
(0.126943 -0.0107541 0)
(0.122011 -0.00959181 0)
(0.115917 -0.0084681 0)
(0.108982 -0.00740036 0)
(0.101484 -0.00640278 0)
(0.0936159 -0.00548002 0)
(0.0855933 -0.00464033 0)
(0.0775847 -0.00388755 0)
(0.0697053 -0.00321947 0)
(0.062083 -0.00263669 0)
(0.0547767 -0.00213308 0)
(0.0478569 -0.00170407 0)
(0.0413716 -0.00134428 0)
(0.035335 -0.00104595 0)
(0.0297484 -0.000801872 0)
(0.0245859 -0.000604221 0)
(0.0197999 -0.000445264 0)
(0.0153155 -0.000317454 0)
(0.0110235 -0.000213122 0)
(0.00677536 -0.000124305 0)
(0.00237396 -4.22301e-05 0)
(0.102681 -0.0181487 0)
(0.114355 -0.0186756 0)
(0.126475 -0.0187295 0)
(0.136767 -0.0183495 0)
(0.144138 -0.0176188 0)
(0.148226 -0.0166359 0)
(0.149273 -0.0154906 0)
(0.14764 -0.0142512 0)
(0.143844 -0.0129693 0)
(0.13835 -0.0116848 0)
(0.131575 -0.0104245 0)
(0.123882 -0.00921131 0)
(0.11555 -0.00805822 0)
(0.106876 -0.00698245 0)
(0.0980094 -0.00598652 0)
(0.0891368 -0.00507764 0)
(0.0804282 -0.00426184 0)
(0.0719661 -0.00353611 0)
(0.0638587 -0.00290088 0)
(0.0561638 -0.00235138 0)
(0.0489321 -0.00188241 0)
(0.0421947 -0.00148777 0)
(0.0359597 -0.00115987 0)
(0.030217 -0.000890848 0)
(0.0249339 -0.000672462 0)
(0.0200548 -0.000496426 0)
(0.0154976 -0.000354507 0)
(0.0111472 -0.000238348 0)
(0.0068493 -0.000139198 0)
(0.00240028 -4.7346e-05 0)
(0.129099 -0.0201464 0)
(0.141907 -0.0205296 0)
(0.153973 -0.0203975 0)
(0.162906 -0.0198219 0)
(0.168018 -0.0189087 0)
(0.169434 -0.0177656 0)
(0.167719 -0.0164839 0)
(0.163483 -0.0151338 0)
(0.157304 -0.0137585 0)
(0.149708 -0.0123951 0)
(0.141089 -0.0110649 0)
(0.131814 -0.00978883 0)
(0.122107 -0.00857534 0)
(0.112246 -0.00744099 0)
(0.102405 -0.00639288 0)
(0.0927045 -0.00543358 0)
(0.0832935 -0.00456927 0)
(0.0742556 -0.00379956 0)
(0.065668 -0.00312344 0)
(0.0575821 -0.00253716 0)
(0.050034 -0.00203553 0)
(0.0430422 -0.00161216 0)
(0.0366055 -0.00125945 0)
(0.030704 -0.000969264 0)
(0.0252971 -0.000733065 0)
(0.0203218 -0.00054217 0)
(0.0156889 -0.000387842 0)
(0.0112774 -0.000261163 0)
(0.00692706 -0.000152723 0)
(0.00242779 -5.20044e-05 0)
(0.157989 -0.0217775 0)
(0.171518 -0.0220231 0)
(0.182882 -0.0217105 0)
(0.189701 -0.0209389 0)
(0.191971 -0.0198498 0)
(0.190342 -0.0185632 0)
(0.185671 -0.0171703 0)
(0.17877 -0.0157382 0)
(0.170223 -0.0143001 0)
(0.160577 -0.0128874 0)
(0.150181 -0.0115151 0)
(0.139389 -0.0102014 0)
(0.128408 -0.00895437 0)
(0.117435 -0.00778447 0)
(0.106651 -0.00670114 0)
(0.0961679 -0.00570877 0)
(0.0860912 -0.00481149 0)
(0.0764982 -0.00401028 0)
(0.067449 -0.00330424 0)
(0.0589843 -0.00269021 0)
(0.0511282 -0.0021633 0)
(0.043888 -0.00171722 0)
(0.0372532 -0.0013445 0)
(0.0311951 -0.00103695 0)
(0.0256654 -0.000785883 0)
(0.0205939 -0.000582383 0)
(0.0158847 -0.000417372 0)
(0.0114111 -0.000281505 0)
(0.00700696 -0.000164841 0)
(0.00245595 -5.61902e-05 0)
(0.188782 -0.0230268 0)
(0.202561 -0.0231398 0)
(0.212365 -0.0226403 0)
(0.216201 -0.0216714 0)
(0.215049 -0.020419 0)
(0.210096 -0.0190154 0)
(0.202406 -0.0175452 0)
(0.192899 -0.0160658 0)
(0.182104 -0.014599 0)
(0.170555 -0.0131685 0)
(0.15855 -0.0117837 0)
(0.146374 -0.0104571 0)
(0.134223 -0.00919758 0)
(0.12226 -0.00801426 0)
(0.110625 -0.00691508 0)
(0.0994198 -0.00590557 0)
(0.0887315 -0.00498976 0)
(0.0786246 -0.00416935 0)
(0.0691467 -0.00344392 0)
(0.0603281 -0.00281092 0)
(0.0521826 -0.00226597 0)
(0.0447081 -0.00180309 0)
(0.0378853 -0.0014151 0)
(0.0316777 -0.00109393 0)
(0.0260297 -0.000830913 0)
(0.0208647 -0.000617056 0)
(0.0160809 -0.000443084 0)
(0.0115456 -0.00029936 0)
(0.00708745 -0.00017554 0)
(0.00248424 -5.98985e-05 0)
(0.220939 -0.0239169 0)
(0.234293 -0.0238808 0)
(0.241318 -0.0231621 0)
(0.24122 -0.0219906 0)
(0.236168 -0.0205961 0)
(0.227806 -0.0191143 0)
(0.217209 -0.0176098 0)
(0.205311 -0.0161238 0)
(0.19255 -0.0146657 0)
(0.179336 -0.0132472 0)
(0.165939 -0.0118764 0)
(0.152577 -0.0105622 0)
(0.139413 -0.00931249 0)
(0.126586 -0.00813536 0)
(0.114207 -0.00703824 0)
(0.102367 -0.00602714 0)
(0.0911381 -0.00510646 0)
(0.0805744 -0.00427858 0)
(0.0707134 -0.00354379 0)
(0.0615765 -0.00290025 0)
(0.0531691 -0.00234421 0)
(0.0454811 -0.00187024 0)
(0.0384859 -0.00147157 0)
(0.0321402 -0.00114041 0)
(0.026382 -0.0008683 0)
(0.0211289 -0.000646284 0)
(0.0162736 -0.000465039 0)
(0.0116785 -0.000314764 0)
(0.0071672 -0.000184839 0)
(0.00251221 -6.31342e-05 0)
(0.254035 -0.0245141 0)
(0.265664 -0.024252 0)
(0.268144 -0.0232351 0)
(0.263286 -0.0218581 0)
(0.254116 -0.0203623 0)
(0.242589 -0.0188581 0)
(0.22953 -0.0173719 0)
(0.215622 -0.015919 0)
(0.201249 -0.0145034 0)
(0.186693 -0.0131292 0)
(0.172167 -0.0118006 0)
(0.157837 -0.0105238 0)
(0.143843 -0.00930568 0)
(0.1303 -0.00815382 0)
(0.117304 -0.00707563 0)
(0.104933 -0.00607763 0)
(0.093249 -0.00516486 0)
(0.0822979 -0.00434054 0)
(0.0721096 -0.0036058 0)
(0.0626987 -0.00295965 0)
(0.0540642 -0.00239912 0)
(0.0461895 -0.00191946 0)
(0.0390422 -0.00151447 0)
(0.0325732 -0.00117681 0)
(0.0267156 -0.000898328 0)
(0.0213817 -0.000670265 0)
(0.0164598 -0.000483371 0)
(0.0118079 -0.000327803 0)
(0.00724517 -0.000192786 0)
(0.00253953 -6.59125e-05 0)
(0.287694 -0.0248454 0)
(0.29471 -0.0241676 0)
(0.290378 -0.0227502 0)
(0.280645 -0.0212118 0)
(0.268002 -0.0196921 0)
(0.253902 -0.0182274 0)
(0.238967 -0.0168147 0)
(0.223588 -0.0154465 0)
(0.208023 -0.0141164 0)
(0.192473 -0.0128222 0)
(0.177101 -0.0115655 0)
(0.162043 -0.0103511 0)
(0.147417 -0.00918568 0)
(0.133324 -0.00807718 0)
(0.119848 -0.0070336 0)
(0.107061 -0.00606226 0)
(0.0950174 -0.00516917 0)
(0.083757 -0.00435854 0)
(0.0733049 -0.0036325 0)
(0.063671 -0.00299107 0)
(0.0548495 -0.00243216 0)
(0.0468194 -0.00195184 0)
(0.0395439 -0.00154461 0)
(0.0329696 -0.00120371 0)
(0.0270254 -0.000921418 0)
(0.0216198 -0.000689297 0)
(0.0166374 -0.000498284 0)
(0.0119324 -0.00033861 0)
(0.00732062 -0.000199455 0)
(0.00256594 -6.82584e-05 0)
(0.321585 -0.0249643 0)
(0.317654 -0.0231861 0)
(0.305878 -0.0213817 0)
(0.292074 -0.0198423 0)
(0.277118 -0.0184594 0)
(0.261462 -0.0171657 0)
(0.245382 -0.0159223 0)
(0.229095 -0.0147085 0)
(0.212781 -0.0135149 0)
(0.196594 -0.0123393 0)
(0.180669 -0.0111843 0)
(0.165128 -0.0100562 0)
(0.150075 -0.0089632 0)
(0.135605 -0.00791461 0)
(0.121796 -0.00691977 0)
(0.108714 -0.00598729 0)
(0.0964119 -0.00512441 0)
(0.0849259 -0.00433655 0)
(0.0742786 -0.00362702 0)
(0.0644768 -0.0029969 0)
(0.0555124 -0.00244515 0)
(0.0473614 -0.00196875 0)
(0.0399841 -0.00156302 0)
(0.0333244 -0.00122186 0)
(0.0273081 -0.000938115 0)
(0.0218411 -0.000703769 0)
(0.0168049 -0.00051005 0)
(0.0120514 -0.000347362 0)
(0.00739316 -0.000204948 0)
(0.00259134 -7.02066e-05 0)
(0.00152891 5.0298e-05 0)
(0.00436699 0.000146066 0)
(0.0071032 0.00024492 0)
(0.00986472 0.00035467 0)
(0.0127512 0.000482101 0)
(0.0158426 0.000633525 0)
(0.0192042 0.000815079 0)
(0.0228923 0.00103303 0)
(0.0269565 0.00129386 0)
(0.031442 0.00160438 0)
(0.0363914 0.00197172 0)
(0.0418556 0.00240407 0)
(0.047877 0.00290915 0)
(0.0544978 0.00349456 0)
(0.0617959 0.0041705 0)
(0.0698425 0.00494585 0)
(0.0787086 0.00582819 0)
(0.088513 0.0068259 0)
(0.0993932 0.00794794 0)
(0.111505 0.00919907 0)
(0.125023 0.0105764 0)
(0.14021 0.0120802 0)
(0.157323 0.0136986 0)
(0.17666 0.0154 0)
(0.198528 0.0171465 0)
(0.22325 0.0188565 0)
(0.250707 0.020412 0)
(0.280468 0.0215903 0)
(0.309266 0.02197 0)
(0.329414 0.0207697 0)
(0.00153623 5.165e-05 0)
(0.00438981 0.00014994 0)
(0.00714302 0.000251141 0)
(0.00992348 0.000363062 0)
(0.0128331 0.000492497 0)
(0.0159537 0.000645709 0)
(0.0193518 0.000828657 0)
(0.0230871 0.00104745 0)
(0.0272127 0.00130832 0)
(0.0317784 0.00161779 0)
(0.0368295 0.00198241 0)
(0.0424248 0.00241005 0)
(0.0486147 0.00290799 0)
(0.0554491 0.00348337 0)
(0.0630086 0.00414474 0)
(0.0713576 0.00489905 0)
(0.0805986 0.00575456 0)
(0.0908493 0.00671864 0)
(0.102233 0.00779436 0)
(0.114917 0.00898621 0)
(0.129087 0.0102917 0)
(0.144943 0.0116974 0)
(0.162727 0.0131896 0)
(0.18267 0.0147258 0)
(0.204945 0.0162474 0)
(0.229532 0.0176478 0)
(0.255883 0.0187696 0)
(0.282565 0.0193696 0)
(0.306517 0.0191464 0)
(0.323389 0.0175789 0)
(0.00154196 5.27232e-05 0)
(0.00440784 0.000152991 0)
(0.0071746 0.000255956 0)
(0.00996912 0.000369327 0)
(0.0128966 0.000499927 0)
(0.01604 0.000653882 0)
(0.0194651 0.000836849 0)
(0.023235 0.00105475 0)
(0.0274052 0.00131347 0)
(0.0320304 0.00161927 0)
(0.0371618 0.00197834 0)
(0.0428539 0.00239728 0)
(0.0491579 0.0028824 0)
(0.0561436 0.00344105 0)
(0.0638886 0.0040807 0)
(0.0724597 0.00480636 0)
(0.0819475 0.00562327 0)
(0.0924761 0.00653804 0)
(0.104176 0.00755348 0)
(0.117168 0.00866512 0)
(0.131631 0.00987054 0)
(0.147723 0.0111509 0)
(0.165602 0.0124796 0)
(0.185357 0.0138109 0)
(0.206969 0.0150676 0)
(0.230073 0.016142 0)
(0.253726 0.0168701 0)
(0.276412 0.0170502 0)
(0.296061 0.0163808 0)
(0.309812 0.0144273 0)
(0.0015454 5.34981e-05 0)
(0.004419 0.000155163 0)
(0.00719502 0.000259288 0)
(0.0100015 0.00037354 0)
(0.0129403 0.000504452 0)
(0.0160947 0.000657915 0)
(0.0195348 0.0008395 0)
(0.0233243 0.00105478 0)
(0.0275182 0.00130912 0)
(0.0321781 0.00160856 0)
(0.0373562 0.0019587 0)
(0.0431035 0.00236512 0)
(0.0494812 0.00283366 0)
(0.0565474 0.00336947 0)
(0.0643843 0.0039793 0)
(0.0730715 0.00466824 0)
(0.0826808 0.00543819 0)
(0.0933109 0.00629139 0)
(0.105095 0.00723058 0)
(0.118131 0.00824783 0)
(0.132542 0.00933332 0)
(0.148434 0.0104686 0)
(0.16583 0.0116149 0)
(0.184709 0.0127258 0)
(0.204842 0.0137214 0)
(0.225681 0.0145017 0)
(0.246305 0.0149237 0)
(0.26542 0.014812 0)
(0.28137 0.0139321 0)
(0.292462 0.0120626 0)
(0.00154594 5.3958e-05 0)
(0.00442089 0.000156382 0)
(0.00720012 0.00026102 0)
(0.0100116 0.000375389 0)
(0.0129528 0.000505663 0)
(0.0161084 0.000657548 0)
(0.0195493 0.000836345 0)
(0.0233418 0.00104737 0)
(0.0275434 0.00129564 0)
(0.03221 0.00158624 0)
(0.0373901 0.00192381 0)
(0.0431463 0.00231383 0)
(0.0495419 0.00276159 0)
(0.0566263 0.0032705 0)
(0.0644632 0.00384435 0)
(0.0731383 0.00448787 0)
(0.0827301 0.00520294 0)
(0.0932924 0.00598659 0)
(0.104948 0.00683903 0)
(0.117767 0.00775128 0)
(0.13178 0.00870622 0)
(0.14705 0.00968491 0)
(0.163523 0.010649 0)
(0.181026 0.0115464 0)
(0.199246 0.0123083 0)
(0.217616 0.0128429 0)
(0.2353 0.0130347 0)
(0.251269 0.012746 0)
(0.264294 0.0118399 0)
(0.273241 0.0102067 0)
(0.00154306 5.4088e-05 0)
(0.00441512 0.000156726 0)
(0.00719009 0.000261196 0)
(0.00999519 0.000374797 0)
(0.0129292 0.000503541 0)
(0.0160743 0.000652774 0)
(0.0194996 0.000827367 0)
(0.023275 0.00103243 0)
(0.0274583 0.00127256 0)
(0.0321016 0.00155209 0)
(0.0372559 0.00187506 0)
(0.0429697 0.00224523 0)
(0.0493117 0.00266747 0)
(0.0563411 0.00314527 0)
(0.0640986 0.0036796 0)
(0.072645 0.0042721 0)
(0.0820647 0.00492483 0)
(0.0924001 0.00563328 0)
(0.103718 0.00639257 0)
(0.116064 0.00719407 0)
(0.129415 0.00801822 0)
(0.143753 0.00884185 0)
(0.158969 0.00963073 0)
(0.17484 0.010336 0)
(0.191009 0.0108963 0)
(0.206943 0.0112355 0)
(0.221943 0.0112649 0)
(0.235164 0.0108886 0)
(0.24581 0.0100421 0)
(0.253072 0.00867027 0)
(0.0015358 5.38671e-05 0)
(0.0043958 0.000156015 0)
(0.0071572 0.00025958 0)
(0.00994701 0.000371657 0)
(0.0128634 0.000498002 0)
(0.0159857 0.000643578 0)
(0.0193834 0.00081296 0)
(0.0231206 0.00101054 0)
(0.0272512 0.00124026 0)
(0.0318385 0.00150656 0)
(0.0369294 0.00181265 0)
(0.0425598 0.00216092 0)
(0.048785 0.00255445 0)
(0.0556728 0.00299677 0)
(0.0632623 0.00348807 0)
(0.0715801 0.00402699 0)
(0.080699 0.0046136 0)
(0.0906538 0.0052439 0)
(0.101452 0.00590889 0)
(0.11311 0.00659901 0)
(0.125583 0.00729571 0)
(0.138793 0.00797494 0)
(0.15259 0.00860437 0)
(0.166729 0.00914163 0)
(0.180856 0.00953535 0)
(0.194505 0.00972623 0)
(0.207095 0.00964767 0)
(0.218011 0.00924599 0)
(0.226676 0.00848704 0)
(0.232569 0.00735116 0)
(0.00152355 5.32881e-05 0)
(0.00436174 0.000154253 0)
(0.00709896 0.000256179 0)
(0.00986258 0.000365947 0)
(0.0127504 0.000489071 0)
(0.0158359 0.00063 0)
(0.019187 0.000792922 0)
(0.0228646 0.000981699 0)
(0.0269203 0.0011997 0)
(0.0314177 0.00145087 0)
(0.0364005 0.00173781 0)
(0.0418972 0.00206193 0)
(0.0479534 0.00242511 0)
(0.0546282 0.00282945 0)
(0.0619579 0.00327501 0)
(0.0699558 0.00375909 0)
(0.078659 0.00427908 0)
(0.0880863 0.00483041 0)
(0.0982294 0.00540399 0)
(0.109063 0.00598809 0)
(0.12052 0.00656532 0)
(0.132491 0.00711304 0)
(0.144802 0.00760244 0)
(0.157211 0.00799816 0)
(0.169396 0.00825951 0)
(0.180955 0.00833948 0)
(0.191439 0.00819706 0)
(0.200401 0.00780339 0)
(0.20743 0.00713838 0)
(0.212188 0.00620105 0)
(0.00150583 5.23509e-05 0)
(0.00431209 0.000151464 0)
(0.0070175 0.000251182 0)
(0.00974272 0.000357878 0)
(0.0125855 0.000476809 0)
(0.0156193 0.000612177 0)
(0.0189053 0.000767567 0)
(0.0225022 0.0009464 0)
(0.0264587 0.0011515 0)
(0.0308321 0.00138599 0)
(0.0356644 0.00165207 0)
(0.0409804 0.00195048 0)
(0.046819 0.0022823 0)
(0.0532174 0.00264781 0)
(0.060204 0.00304644 0)
(0.0677906 0.0034753 0)
(0.0759886 0.00393038 0)
(0.0847948 0.00440578 0)
(0.094183 0.00489243 0)
(0.104103 0.00537826 0)
(0.11447 0.00584723 0)
(0.125157 0.00627914 0)