/*--------------------------------*- C++ -*----------------------------------*\
| =========                 |                                                 |
| \\      /  F ield         | OpenFOAM: The Open Source CFD Toolbox           |
|  \\    /   O peration     | Version:  2006                                  |
|   \\  /    A nd           | Website:  www.openfoam.com                      |
|    \\/     M anipulation  |                                                 |
\*---------------------------------------------------------------------------*/
FoamFile
{
    version     2.0;
    format      ascii;
    class       volScalarField;
    location    "0.8";
    object      p;
}
// * * * * * * * * * * * * * * * * * * * * * * * * * * * * * * * * * * * * * //

dimensions      [0 2 -2 0 0 0 0];


internalField   nonuniform List<scalar> 
2790
(
146.403
146.138
146.179
146.5
147.002
147.644
148.428
149.356
150.429
151.646
153.007
154.511
156.155
157.935
159.844
161.871
164
166.211
168.478
170.771
173.049
175.27
177.382
179.329
181.055
182.503
183.626
184.39
184.783
184.904
146.217
146.063
146.128
146.447
146.945
147.586
148.367
149.29
150.357
151.567
152.92
154.414
156.048
157.817
159.714
161.729
163.846
166.046
168.303
170.589
172.865
175.088
177.209
179.172
180.921
182.398
183.553
184.348
184.782
185.147
146.049
145.965
146.05
146.361
146.849
147.481
148.251
149.161
150.211
151.402
152.733
154.201
155.806
157.542
159.402
161.375
163.446
165.597
167.803
170.036
172.26
174.436
176.518
178.455
180.196
181.693
182.908
183.839
184.523
185.234
145.869
145.817
145.916
146.222
146.699
147.319
148.075
148.968
149.997
151.162
152.463
153.897
155.462
157.152
158.959
160.873
162.878
164.955
167.082
169.23
171.368
173.457
175.457
177.324
179.015
180.491
181.729
182.73
183.485
184.119
145.668
145.631
145.741
146.042
146.508
147.114
147.852
148.722
149.723
150.856
152.119
153.509
155.022
156.653
158.395
160.234
162.155
164.139
166.164
168.203
170.225
172.196
174.078
175.831
177.418
178.805
179.96
180.857
181.407
181.515
145.44
145.41
145.525
145.821
146.274
146.861
147.576
148.418
149.387
150.481
151.699
153.036
154.489
156.052
157.716
159.467
161.289
163.164
165.068
166.976
168.858
170.68
172.405
173.996
175.414
176.617
177.556
178.166
178.324
177.601
145.183
145.156
145.271
145.56
145.997
146.563
147.252
148.063
148.993
150.043
151.208
152.486
153.87
155.355
156.929
158.58
160.29
162.04
163.807
165.565
167.282
168.924
170.454
171.832
173.01
173.934
174.529
174.689
174.329
172.478
144.898
144.869
144.981
145.26
145.68
146.222
146.881
147.656
148.544
149.543
150.651
151.861
153.169
154.565
156.04
157.579
159.166
160.778
162.393
163.981
165.509
166.942
168.239
169.351
170.221
170.774
170.914
170.475
169.494
166.2
144.583
144.552
144.657
144.924
145.324
145.84
146.466
147.2
148.041
148.986
150.029
151.166
152.39
153.691
155.058
156.475
157.926
159.389
160.835
162.233
163.549
164.745
165.772
166.569
167.065
167.168
166.757
165.59
163.953
159.142
144.239
144.204
144.301
144.553
144.931
145.418
146.008
146.699
147.49
148.374
149.349
150.407
151.54
152.738
153.988
155.276
156.583
157.882
159.143
160.335
161.419
162.35
163.07
163.506
163.571
163.15
162.108
160.117
157.833
151.632
143.866
143.826
143.914
144.149
144.503
144.959
145.51
146.156
146.891
147.713
148.614
149.588
150.625
151.714
152.841
153.992
155.145
156.269
157.333
158.303
159.136
159.777
160.156
160.189
159.769
158.755
157.013
154.109
151.159
143.655
143.467
143.421
143.497
143.713
144.042
144.465
144.976
145.572
146.25
147.005
147.83
148.716
149.652
150.626
151.626
152.634
153.624
154.564
155.421
156.156
156.721
157.05
157.061
156.652
155.696
154.023
151.5
147.575
143.864
135.039
143.042
142.99
143.053
143.249
143.551
143.939
144.407
144.952
145.57
146.255
147
147.795
148.627
149.483
150.351
151.21
152.031
152.781
153.424
153.916
154.2
154.201
153.82
152.939
151.403
149.001
145.591
140.478
135.714
125.166
142.592
142.534
142.582
142.758
143.031
143.382
143.806
144.299
144.855
145.468
146.132
146.832
147.557
148.293
149.026
149.732
150.382
150.939
151.363
151.606
151.604
151.267
150.484
149.114
146.967
143.774
139.338
132.77
126.273
112.913
142.119
142.054
142.088
142.241
142.485
142.799
143.177
143.616
144.109
144.649
145.228
145.833
146.45
147.065
147.66
148.212
148.69
149.054
149.259
149.254
148.965
148.294
147.114
145.259
142.501
138.497
132.925
124.594
115.061
95.8451
74.1679
73.8651
72.9388
71.2238
68.6057
65.0596
60.6258
55.3853
49.4394
42.8989
35.8806
28.5078
20.9117
13.2355
5.6414
-1.68738
-8.54851
-14.7202
-19.9705
-24.0561
-26.7208
-27.7697
-27.0147
-24.377
-19.9567
-13.9463
-6.43079
2.26885
9.58571
8.21479
74.4209
74.0454
73.0746
71.2897
68.5935
64.9716
60.4689
55.1683
49.1704
42.5833
35.5211
28.1065
20.4712
12.7566
5.12135
-2.25104
-9.15606
-15.3713
-20.6663
-24.8137
-27.5901
-28.7424
-28.1025
-25.6091
-21.373
-15.6072
-8.41972
0.00776598
7.4956
6.28284
74.6502
74.131
72.9705
70.9862
68.1041
64.3212
59.6886
54.2895
48.2218
41.5875
34.4928
27.0549
19.4026
11.6729
4.01772
-3.38312
-10.3229
-16.5774
-21.9147
-26.1084
-28.9357
-30.1819
-29.6484
-27.2712
-23.1748
-17.5934
-10.6732
-2.54364
4.88228
4.409
74.8195
74.0344
72.5772
70.2897
67.1327
63.1191
58.3056
52.7718
46.6075
39.906
32.7639
25.2893
17.6044
9.84218
2.15142
-5.29293
-12.2857
-18.6019
-24.007
-28.2704
-31.175
-32.5092
-32.0807
-29.8112
-25.8233
-20.3512
-13.571
-5.64825
1.71792
2.6131
74.7784
73.6138
71.7959
69.1418
65.6583
61.378
56.3638
50.6888
44.431
37.6722
30.4976
23.0048
15.3063
7.52824
-0.183296
-7.6561
-14.6893
-21.0598
-26.5304
-30.8635
-33.8406
-35.2639
-34.9423
-32.7715
-28.8672
-23.4529
-16.7295
-8.9327
-1.52807
0.96856
74.3553
72.738
70.5251
67.4751
63.6523
59.1054
53.8981
48.0941
41.7572
34.9546
27.7583
20.2547
12.5475
4.75458
-2.98212
-10.491
-17.5731
-24.0054
-29.5464
-33.9478
-36.9823
-38.4608
-38.2056
-36.0882
-32.2085
-26.7767
-20.0153
-12.2272
-4.63603
-0.510544
73.4986
71.3448
68.7122
65.2644
61.1248
56.3431
50.9763
45.0744
38.6857
31.8627
24.6638
17.1642
9.46045
1.6643
-6.08747
-13.6251
-20.7503
-27.2401
-32.8484
-37.3165
-40.4023
-41.9085
-41.683
-39.5817
-35.6754
-30.1638
-23.2866
-15.3937
-7.49044
-1.8241
72.2098
69.3919
66.3421
62.5297
58.1292
53.1724
47.7007
41.7472
35.3438
28.5294
21.351
13.8724
6.18386
-1.60597
-9.36518
-16.9265
-24.0922
-30.6378
-36.3122
-40.8452
-43.9731
-45.4792
-45.2314
-43.1075
-39.1252
-33.4821
-26.4283
-18.3365
-10.0351
-2.97501
70.3155
66.815
63.4302
59.3356
54.7635
49.7139
44.2069
38.2563
31.8791
25.1029
17.9672
10.5262
2.86352
-4.91258
-12.6726
-20.2522
-27.4538
-34.0509
-39.7874
-44.3795
-47.5351
-49.0156
-48.7208
-46.5304
-42.4277
-36.6143
-29.3444
-20.9904
-12.2437
-3.96599
67.7733
63.6222
60.0543
55.8062
51.1791
46.1316
40.6628
34.7693
28.4562
21.7425
14.6652
7.27442
-0.353307
-8.11052
-15.8667
-23.4598
-30.6928
-37.3369
-43.1309
-47.7782
-50.9559
-52.3998
-52.0262
-49.7298
-45.4695
-39.4594
-31.9557
-23.3104
-14.1047
-4.79863
64.5624
59.9029
56.3798
52.137
47.5842
42.6309
37.2645
31.4697
25.2464
18.6102
11.5974
4.26037
-3.32789
-11.0628
-18.8123
-26.4156
-33.6763
-40.3636
-46.2113
-50.9132
-54.1138
-55.5157
-55.0367
-52.6038
-48.158
-41.9364
-34.2
-25.2665
-15.6162
-5.47375
60.7435
55.8722
52.6864
48.5988
44.2368
39.447
34.2205
28.5414
22.4128
15.8543
8.90402
1.61703
-5.9337
-13.646
-21.3863
-28.9964
-36.2813
-43.0082
-48.9045
-53.6632
-56.8953
-58.2606
-57.6579
-55.0739
-50.4286
-43.9926
-36.0373
-26.8433
-16.7856
-5.9925
56.5865
51.9426
49.3692
45.5196
41.4163
36.8091
31.7186
26.142
20.0939
13.6029
6.70684
-0.540902
-8.05991
-15.7523
-23.4797
-31.0922
-38.3964
-45.1578
-51.0923
-55.9151
-59.1957
-60.5449
-59.8139
-57.079
-52.2418
-45.604
-37.4525
-28.0419
-17.6352
-6.3626
52.385
48.6547
46.7246
43.2408
39.3695
34.9024
29.8943
24.3731
18.3684
11.915
5.0533
-2.16112
-9.64626
-17.3021
-25.0032
-32.5976
-39.8955
-46.6633
-52.6349
-57.5312
-60.8648
-62.2426
-61.4603
-58.5327
-53.548
-46.7503
-38.4444
-28.8801
-18.2077
-6.61004
48.5399
46.4844
45.4465
42.2481
38.3602
33.8773
28.843
23.2993
17.285
10.8364
3.99367
-3.18971
-10.6365
-18.2497
-25.9091
-33.4655
-40.7352
-47.4954
-53.4948
-58.3895
-61.7581
-63.1641
-62.3076
-59.2965
-54.2638
-47.3926
-39.0242
-29.3875
-18.556
-6.79153
141.615
141.543
141.562
141.692
141.904
142.179
142.51
142.893
143.32
143.785
144.277
144.784
145.291
145.782
146.238
146.633
146.937
147.107
147.094
146.841
146.27
145.274
143.713
141.405
138.087
133.359
126.753
116.779
103.118
67.3233
141.074
140.995
140.997
141.102
141.282
141.516
141.798
142.122
142.482
142.868
143.271
143.677
144.07
144.435
144.749
144.987
145.116
145.091
144.863
144.369
143.528
142.228
140.33
137.643
133.903
128.728
121.69
111.683
99.7867
88.2052
140.5
140.412
140.398
140.478
140.623
140.815
141.045
141.31
141.6
141.907
142.219
142.521
142.801
143.039
143.211
143.292
143.248
143.034
142.599
141.879
140.791
139.23
137.061
134.11
130.154
124.925
118.253
109.853
100.966
94.8171
139.892
139.797
139.765
139.818
139.929
140.077
140.255
140.458
140.679
140.905
141.124
141.323
141.489
141.6
141.632
141.561
141.35
140.956
140.328
139.4
138.099
136.327
133.966
130.873
126.888
121.864
115.773
108.555
100.421
92.3367
139.253
139.15
139.1
139.126
139.201
139.305
139.43
139.571
139.72
139.865
139.991
140.088
140.141
140.128
140.024
139.805
139.437
138.875
138.07
136.962
135.487
133.558
131.077
127.938
124.035
119.285
113.671
107.151
99.6942
91.965
138.582
138.471
138.403
138.402
138.44
138.499
138.571
138.65
138.728
138.792
138.827
138.822
138.765
138.631
138.396
138.038
137.524
136.808
135.846
134.588
132.976
130.938
128.397
125.277
121.51
117.046
111.875
106.009
99.49
92.8041
137.882
137.763
137.677
137.648
137.65
137.664
137.682
137.698
137.706
137.69
137.635
137.532
137.368
137.119
136.76
136.272
135.623
134.77
133.674
132.294
130.579
128.473
125.917
122.858
119.255
115.081
110.341
105.072
99.3172
93.3726
137.154
137.027
136.923
136.867
136.833
136.802
136.767
136.721
136.659
136.565
136.423
136.224
135.958
135.6
135.126
134.518
133.746
132.774
131.568
130.092
128.305
126.162
123.623
120.652
117.223
113.329
108.979
104.207
99.0419
93.6939
136.4
136.266
136.145
136.062
135.991
135.916
135.828
135.722
135.591
135.421
135.196
134.907
134.544
134.083
133.504
132.787
131.907
130.834
129.537
127.988
126.153
124
121.5
118.63
115.377
111.742
107.735
103.387
98.7218
93.9055
135.623
135.482
135.344
135.234
135.128
135.01
134.871
134.706
134.509
134.265
133.961
133.588
133.133
132.577
131.902
131.088
130.115
128.956
127.588
125.986
124.125
121.98
119.533
116.77
113.687
110.288
106.585
102.604
98.3692
94.0101
134.826
134.679
134.524
134.387
134.248
134.087
133.9
133.678
133.416
133.102
132.724
132.272
131.732
131.09
130.329
129.431
128.378
127.149
125.725
124.087
122.215
120.093
117.708
115.054
112.131
108.945
105.51
101.848
97.9795
94.0088
134.013
133.86
133.689
133.527
133.354
133.154
132.918
132.643
132.32
131.94
131.492
130.966
130.35
129.63
128.792
127.821
126.701
125.416
123.95
122.291
120.422
118.331
116.013
113.466
110.692
107.698
104.499
101.113
97.5577
93.9185
133.187
133.029
132.843
132.656
132.451
132.213
131.933
131.606
131.226
130.785
130.272
129.678
128.993
128.204
127.299
126.266
125.092
123.762
122.266
120.596
118.739
116.688
114.438
111.993
109.356
106.535
103.544
100.397
97.112
93.757
132.352
132.19
131.99
131.78
131.545
131.27
130.947
130.573
130.14
129.642
129.069
128.414
127.667
126.818
125.856
124.77
123.552
122.189
120.674
119.001
117.163
115.155
112.975
110.626
108.115
105.449
102.64
99.7029
96.6502
93.5396
131.513
131.348
131.135
130.904
130.64
130.331
129.968
129.549
129.067
128.517
127.891
127.181
126.379
125.477
124.466
123.338
122.085
120.698
119.173
117.505
115.69
113.727
111.614
109.356
106.959
104.432
101.785
99.0306
96.1797
93.28
130.675
130.507
130.283
130.032
129.742
129.4
129.001
128.541
128.015
127.418
126.743
125.984
125.135
124.188
123.136
121.973
120.693
119.291
117.763
116.105
114.317
112.398
110.35
108.176
105.884
103.482
100.977
98.3825
95.707
92.9902
129.843
129.674
129.44
129.17
128.856
128.485
128.052
127.554
126.988
126.349
125.631
124.83
123.939
122.954
121.869
120.679
119.38
117.969
116.442
114.799
113.04
111.165
109.178
107.082
104.885
102.593
100.216
97.7609
95.2384
92.6805
129.024
128.854
128.611
128.325
127.988
127.591
127.128
126.596
125.993
125.317
124.562
123.723
122.798
121.781
120.669
119.458
118.146
116.73
115.21
113.584
111.854
110.023
108.093
106.07
103.958
101.766
99.4995
97.168
94.779
92.3596
128.224
128.053
127.803
127.502
127.145
126.724
126.233
125.671
125.037
124.328
123.54
122.67
121.716
120.673
119.54
118.313
116.993
115.577
114.065
112.459
110.759
108.97
107.094
105.136
103.101
100.997
98.8296
96.6062
94.3339
92.0351
127.449
127.279
127.023
126.709
126.333
125.89
125.375
124.787
124.125
123.387
122.571
121.675
120.696
119.633
118.483
117.246
115.921
114.508
113.008
111.422
109.752
108.002
106.176
104.277
102.312
100.287
98.2062
96.0776
93.9072
91.7136
126.706
126.538
126.276
125.951
125.56
125.097
124.56
123.949
123.263
122.501
121.662
120.744
119.745
118.665
117.504
116.259
114.933
113.526
112.038
110.472
108.831
107.119
105.338
103.493
101.59
99.6339
97.6301
95.5846
93.5029
91.4007
126.003
125.836
125.571
125.236
124.83
124.351
123.796
123.165
122.458
121.676
120.817
119.88
118.866
117.774
116.603
115.355
114.03
112.63
111.156
109.61
107.997
106.318
104.579
102.782
100.934
99.0394
97.1027
95.1295
93.1249
91.102
125.348
125.183
124.914
124.57
124.153
123.659
123.088
122.44
121.716
120.916
120.041
119.09
118.064
116.962
115.786
114.536
113.214
111.822
110.362
108.836
107.247
105.6
103.898
102.144
100.345
98.5035
96.6252
94.7146
92.7765
90.8219
124.749
124.586
124.314
123.963
123.534
123.028
122.443
121.781
121.043
120.229
119.341
118.379
117.343
116.235
115.055
113.806
112.488
111.104
109.657
108.15
106.584
104.965
103.296
101.58
99.823
98.0281
96.2
94.3433
92.4622
90.5659
124.214
124.052
123.778
123.42
122.982
122.465
121.869
121.194
120.444
119.62
118.721
117.75
116.707
115.595
114.413
113.165
111.853
110.478
109.043
107.552
106.008
104.413
102.773
101.09
99.3686
97.6133
95.828
94.0167
92.1836
90.3362
123.752
123.592
123.315
122.949
122.504
121.978
121.372
120.689
119.929
119.096
118.189
117.212
116.164
115.049
113.867
112.621
111.314
109.947
108.524
107.048
105.521
103.948
102.332
100.677
98.9864
97.2643
95.5147
93.7414
91.9483
90.1418
123.374
123.213
122.931
122.558
122.105
121.572
120.958
120.267
119.5
118.66
117.747
116.765
115.715
114.598
113.417
112.173
110.871
109.512
108.099
106.635
105.124
103.568
101.972
100.34
98.6738
96.9784
95.2573
93.5142
91.7527
89.978
123.091
122.927
122.638
122.258
121.8
121.261
120.641
119.944
119.171
118.326
117.41
116.424
115.371
114.254
113.074
111.833
110.535
109.183
107.778
106.324
104.825
103.284
101.705
100.09
98.4433
96.769
95.0704
93.3512
91.6148
89.8659
122.917
122.732
122.427
122.042
121.581
121.038
120.415
119.714
118.938
118.09
117.171
116.184
115.131
114.014
112.835
111.597
110.302
108.954
107.555
106.109
104.619
103.087
101.518
99.9154
98.2819
96.6214
94.9375
93.2335
91.513
89.7793
122.916
122.665
122.332
121.941
121.477
120.93
120.303
119.6
118.822
117.972
117.052
116.065
115.012
113.895
112.718
111.483
110.191
108.847
107.453
106.013
104.529
103.004
101.443
99.8488
98.2243
96.5732
94.8991
93.2053
91.4951
89.7713
-9.91288
13.5309
29.2238
77.5731
72.0866
64.9346
86.9159
79.969
73.7786
83.2128
77.4201
72.9365
84.467
79.4714
75.2883
86.4095
81.9118
77.9739
87.6428
83.5912
80.0191
88.5626
84.9331
81.7215
89.3071
86.046
83.1546
89.8637
86.9184
84.3069
90.2471
87.5738
85.2044
90.4863
88.0468
85.8856
90.6069
88.3683
86.3861
90.6315
88.5658
86.738
90.5804
88.664
86.9699
90.471
88.6839
87.1059
90.3178
88.6433
87.1664
90.1333
88.557
87.1684
89.9278
88.4374
87.1258
89.7102
88.295
87.0507
89.4881
88.1386
86.953
89.2684
87.9763
86.8416
89.0566
87.8142
86.7237
88.8595
87.6599
86.6071
88.6795
87.5162
86.4954
88.5271
87.3941
86.3994
88.3957
87.2872
86.3142
88.3112
87.2214
86.2638
88.2407
87.1646
86.2194
88.2511
87.1879
86.2491
42.6068
46.6651
45.9374
42.5395
38.3903
33.7187
28.5359
22.8882
16.8149
10.344
3.50838
-3.64467
-11.046
-18.6043
-26.2035
-33.6983
-40.9095
-47.6186
-53.5665
-58.4158
-61.7665
-63.1864
-62.3351
-59.3492
-54.3735
-47.55
-39.2175
-29.5867
-18.7169
-6.97751
62.406
55.4292
49.7232
44.5479
39.5228
34.3456
28.8714
23.0619
16.9069
10.408
3.58349
-3.52886
-10.8687
-18.3513
-25.8655
-33.2698
-40.3882
-47.0041
-52.8554
-57.6176
-60.909
-62.327
-61.5414
-58.65
-53.8231
-47.1735
-38.9835
-29.471
-18.7074
-7.01694
66.4365
57.7956
51.8584
46.4612
40.9502
35.3258
29.5744
23.6262
17.4199
10.926
4.14609
-2.89274
-10.1381
-17.5113
-24.9056
-32.1833
-39.1714
-45.6567
-51.3806
-56.0312
-59.2498
-60.6712
-60.0014
-57.2516
-52.6325
-46.2802
-38.3645
-29.088
-18.5417
-7.00876
66.444
58.505
52.5778
47.2096
41.7431
36.124
30.3548
24.3974
18.2127
11.7791
5.09432
-1.82187
-8.92464
-16.1415
-23.3706
-30.4781
-37.2952
-43.6136
-49.1825
-53.7058
-56.8521
-58.2953
-57.7851
-55.2358
-50.888
-44.9214
-37.3925
-28.4597
-18.2277
-6.95134
69.1477
61.5536
54.8825
48.8024
42.9714
37.204
31.3877
25.4395
19.3048
12.9574
6.3936
-0.370224
-7.29498
-14.3154
-21.3368
-28.2321
-34.8392
-40.9582
-46.3499
-50.7372
-53.8185
-55.3028
-54.9674
-52.7027
-48.7112
-43.1713
-36.1044
-27.6015
-17.7658
-6.83392
72.4515
65.3873
58.2906
51.5763
45.2594
39.1583
33.123
27.0584
20.8964
14.5926
8.12702
1.50532
-5.24169
-12.0567
-18.8536
-25.5151
-31.8898
-37.7903
-42.9934
-47.2447
-50.2725
-51.8185
-51.6838
-49.7677
-46.1676
-41.0691
-34.5194
-26.5137
-17.1464
-6.64568
75.2221
68.8743
61.8714
54.9487
48.3591
41.9936
35.7288
29.4911
23.2262
16.8925
10.4646
3.93827
-2.66587
-9.30055
-15.8901
-22.3284
-28.4771
-34.1646
-39.1875
-43.3162
-46.3085
-47.9363
-48.0211
-46.4681
-43.2871
-38.6548
-32.6365
-25.1743
-16.3479
-6.37999
77.5193
71.8714
65.2621
58.4726
51.8711
45.4259
39.0538
32.7067
26.3542
19.9727
13.5455
7.07031
0.564693
-5.93094
-12.3503
-18.5989
-24.5522
-30.0559
-34.9272
-38.9615
-41.9451
-43.6763
-43.993
-42.7979
-40.0596
-35.9105
-30.4222
-23.546
-15.3448
-6.03606
79.4231
74.3883
68.2921
61.8438
55.4446
49.1138
42.796
36.4654
30.1162
23.7433
17.3434
10.9226
4.50226
-1.87795
-8.1568
-14.2487
-20.0417
-25.3974
-30.1532
-34.1281
-37.1335
-38.9908
-39.5522
-38.7192
-36.4463
-32.7832
-27.8252
-21.5929
-14.1198
-5.61711
80.9585
76.444
70.8796
64.8763
58.8215
52.7543
46.6355
40.4565
34.2287
27.9616
21.6633
15.3489
9.04565
2.79553
-3.34198
-9.28701
-14.9375
-20.1689
-24.8362
-28.7792
-31.8312
-33.8336
-34.6509
-34.186
-32.3848
-29.2409
-24.8625
-19.3335
-12.6881
-5.13038
82.1727
78.0953
73.0303
67.4994
61.8546
56.1385
50.3215
44.4026
38.4025
32.3404
26.2311
20.0968
13.9698
7.89426
1.92862
-3.85163
-9.35245
-14.4611
-19.0476
-22.9698
-26.0802
-28.237
-29.3167
-29.2258
-27.906
-25.3311
-21.6011
-16.8315
-11.0943
-4.58487
83.1202
79.411
74.7927
69.7142
64.4903
59.1607
53.6986
48.106
42.4087
36.6279
30.7811
24.8952
19.0059
13.1576
7.40704
1.82505
-3.50185
-8.47156
-12.9679
-16.8644
-20.0303
-22.3396
-23.6805
-23.966
-23.14
-21.1779
-18.1507
-14.1874
-9.40683
-3.99364
83.8481
80.4519
76.2246
71.558
66.7349
61.7891
56.6946
51.4576
46.1023
40.6451
35.1064
29.5163
23.9108
18.3326
12.8353
7.48436
2.35861
-2.45027
-6.83895
-10.6956
-13.905
-16.3557
-17.9483
-18.6045
-18.2743
-16.9423
-14.6465
-11.5152
-7.69902
-3.37379
84.3961
81.2684
77.381
73.0805
68.6231
64.0376
59.3013
54.4211
49.4122
44.2889
39.0763
33.8043
28.5061
23.2216
18.0001
12.9012
7.99559
3.36458
-0.900829
-4.70269
-7.94039
-10.5166
-12.3442
-13.3545
-13.5041
-12.7826
-11.2209
-8.92611
-6.04204
-2.74812
84.7979
81.9023
78.3104
74.332
70.2013
65.9457
61.5446
56.9988
52.318
47.52
42.631
37.6771
32.688
27.7004
22.7591
17.9173
13.2374
8.79077
4.65655
0.91962
-2.33315
-5.01773
-7.05902
-8.39758
-8.99669
-8.84929
-7.98569
-6.48765
-4.48053
-2.13653
85.0821
82.3882
79.0538
75.3583
71.5175
67.5583
63.4583
59.2135
54.8357
50.3454
45.7635
41.1113
36.4166
31.7133
27.0412
22.4472
17.9859
13.719
9.71495
6.04638
2.7876
0.0103248
-2.22135
-3.85676
-4.86486
-5.24057
-5.01125
-4.2438
-3.04447
-1.55736
85.272
82.754
79.6447
76.1973
72.6122
68.9146
65.0808
61.1055
57.004
52.7959
48.4954
44.1198
39.6955
35.254
30.8305
26.4656
22.2067
18.107
14.2248
10.6223
7.36227
4.50558
2.10645
0.207745
-1.16436
-2.00578
-2.33991
-2.22256
-1.7437
-1.02168
85.387
83.0224
80.1096
76.8796
73.5187
70.051
66.4533
62.72
58.8662
54.9095
50.8605
46.7331
42.5522
38.3467
34.1467
29.9876
25.9104
21.9606
18.1882
14.6456
11.386
8.46079
5.9155
3.78628
2.09519
0.845721
0.0184183
-0.432865
-0.582654
-0.53375
85.4431
83.2122
80.4711
77.4311
74.2667
71.0011
67.6125
64.0951
60.4613
56.7252
52.8964
48.9893
45.0257
41.0294
37.027
33.0494
29.132
25.3139
21.6375
18.1473
14.8882
11.9033
9.23104
6.9017
4.93388
3.33065
2.07595
1.1316
0.435722
-0.0995914
85.454
83.3393
80.7479
77.8743
74.882
71.7937
68.5889
65.2617
61.8213
58.2779
54.6422
50.9297
47.157
43.3438
39.5141
35.6949
31.9165
28.2124
24.6188
21.1734
17.914
14.8771
12.0949
9.59283
7.38659
5.47884
3.85629
2.48724
1.3201
0.280229
85.431
83.4171
80.9561
78.2276
75.3856
72.4524
69.4083
66.2464
62.9735
59.5992
56.1343
52.5915
48.9841
45.3298
41.6501
37.968
34.3095
30.7033
27.1804
23.7727
20.5125
17.4302
14.5532
11.9028
9.49223
7.32379
5.3864
3.6536
2.08214
0.609119
85.3843
83.4572
81.1093
78.5069
75.7955
72.997
70.0923
67.0733
63.9457
60.7192
57.4026
54.0055
50.5409
47.0245
43.4741
39.9097
36.3538
32.8312
29.3682
25.9922
22.7304
19.6089
16.6505
13.8734
11.2888
8.89842
6.69312
4.65059
2.73435
0.891467
85.3219
83.4692
81.2187
78.725
76.1262
73.4435
70.6589
67.7636
64.7619
61.662
58.4716
55.1996
51.8583
48.4602
45.02
41.5557
38.087
34.6351
31.2225
27.8728
24.6092
21.4538
18.4261
15.5416
12.8095
10.2316
7.7998
5.49534
3.28721
1.13078
85.2524
83.4629
81.2954
78.8946
76.3917
73.8076
71.1253
68.336
65.4421
62.4495
59.3659
56.201
52.9644
49.6657
46.3183
42.9386
39.5433
36.1506
32.7801
29.452
26.1863
23.0021
19.9161
16.9412
14.0855
11.3504
8.72901
6.20516
3.75226
1.33232
85.1807
83.4441
81.3466
79.0241
76.602
74.1007
71.504
68.8032
65.9994
63.0972
60.1041
57.0288
53.8788
50.6628
47.393
44.0836
40.7491
37.4052
34.0691
30.7585
27.4907
24.2822
21.1473
18.0975
15.1394
12.2742
9.49599
6.79071
4.13532
1.49745
85.117
83.4237
81.3841
79.1265
76.771
74.3381
71.8115
69.1825
66.4522
63.625
60.7069
57.7044
54.6246
51.4764
48.2705
45.0184
41.7329
38.4284
35.12
31.8231
28.5531
25.3244
22.1497
19.0387
15.9974
13.0266
10.1211
7.26858
4.44872
1.63319
85.0589
83.4001
81.4066
79.2006
76.8984
74.5198
72.0491
69.477
66.8048
64.0369
61.178
58.2331
55.2089
52.1143
48.9585
45.7511
42.504
39.2301
35.9429
32.6564
29.3843
26.1394
22.933
19.7737
16.6668
13.6128
10.6072
7.6388
4.68977
1.73564
85.0264
83.3933
81.4351
79.2685
77.0065
74.6691
72.2409
69.7122
67.0838
64.36
61.5451
58.6437
55.6617
52.607
49.4878
46.3134
43.0945
39.8429
36.571
33.2916
30.0171
26.7593
23.5284
20.3323
17.1757
14.0589
10.9777
7.92174
4.87488
1.81515
84.9977
83.3809
81.4459
79.3061
77.0713
74.7614
72.3615
69.862
67.2629
64.5684
61.7828
58.9103
55.9564
52.928
49.8331
46.6805
43.4802
40.2434
36.9816
33.7068
30.4308
27.1646
23.9176
20.6971
17.5074
14.3487
11.2167
8.10147
4.98783
1.85722
85.0273
83.4124
81.4907
79.3674
77.1482
74.8534
72.4688
69.9847
67.4011
64.7219
61.9511
59.093
56.1527
53.1367
50.0527
46.9095
43.7168
40.4853
37.2263
33.9515
30.6721
27.3989
24.141
20.9056
17.6965
14.514
11.3533
8.20379
5.04752
1.8567
)
;

boundaryField
{
    inlet
    {
        type            zeroGradient;
    }
    outlet
    {
        type            fixedValue;
        value           uniform 0;
    }
    flap
    {
        type            zeroGradient;
    }
    upperWall
    {
        type            zeroGradient;
    }
    lowerWall
    {
        type            zeroGradient;
    }
    frontAndBack
    {
        type            empty;
    }
}


// ************************************************************************* //
