/*--------------------------------*- C++ -*----------------------------------*\
| =========                 |                                                 |
| \\      /  F ield         | OpenFOAM: The Open Source CFD Toolbox           |
|  \\    /   O peration     | Version:  5.x                                   |
|   \\  /    A nd           | Web:      www.OpenFOAM.org                      |
|    \\/     M anipulation  |                                                 |
\*---------------------------------------------------------------------------*/
FoamFile
{
    version     2.0;
    format      ascii;
    class       pointVectorField;
    location    "0.8";
    object      pointDisplacement;
}
// * * * * * * * * * * * * * * * * * * * * * * * * * * * * * * * * * * * * * //

dimensions      [0 1 0 0 0 0 0];

internalField   nonuniform List<vector> 
5828
(
(0 0 0)
(0.0174208 0 0)
(0.0329523 0 0)
(0.0461568 0 0)
(0.0572388 0 0)
(0.0663977 0 0)
(0.0738106 0 0)
(0.0796355 0 0)
(0.0840145 0 0)
(0.0870731 0 0)
(0.0889219 0 0)
(0.0896588 0 0)
(0.0893724 0 0)
(0.0881419 0 0)
(0.0860396 0 0)
(0.0831339 0 0)
(0.0794908 0 0)
(0.0751762 0 0)
(0.0702572 0 0)
(0.0648033 0 0)
(0.0588892 0 0)
(0.0525964 0 0)
(0.0460171 0 0)
(0.0392567 0 0)
(0.0324396 0 0)
(0.0257181 0 0)
(0.0192888 0 0)
(0.01341 0 0)
(0.00843738 0 0)
(0.00497493 0 0)
(3.57849e-16 0 0)
(0 0 0)
(0.0174329 6.36453e-05 0)
(0.032978 0.000122836 0)
(0.0461961 0.000177587 0)
(0.0572921 0.000229706 0)
(0.0664664 0.000280711 0)
(0.0738959 0.000331825 0)
(0.079739 0.000383885 0)
(0.0841382 0.000437648 0)
(0.0872197 0.000493961 0)
(0.0890942 0.000553551 0)
(0.08986 0.000617147 0)
(0.0896062 0.000685686 0)
(0.0884127 0.000759272 0)
(0.0863518 0.000837863 0)
(0.0834922 0.000922131 0)
(0.0799005 0.00101257 0)
(0.075643 0.00110967 0)
(0.0707875 0.0012138 0)
(0.0654043 0.00132514 0)
(0.0595684 0.00144385 0)
(0.0533625 0.00157008 0)
(0.0468798 0.00170409 0)
(0.040227 0.00184627 0)
(0.0335297 0.00199744 0)
(0.0269404 0.0021596 0)
(0.0206613 0.00233852 0)
(0.0149639 0.00254173 0)
(0.0102231 0.00277486 0)
(0.00705183 0.00302992 0)
(0.00296486 0.00336833 0)
(0 0 0)
(0.0174751 0.000127123 0)
(0.0330613 0.000245367 0)
(0.0463195 0.000354739 0)
(0.0574574 0.000458834 0)
(0.0666772 0.000560697 0)
(0.0741563 0.000662827 0)
(0.0800531 0.000766818 0)
(0.0845123 0.000874143 0)
(0.0876619 0.000986558 0)
(0.0896129 0.00110548 0)
(0.0904645 0.00123226 0)
(0.0903066 0.00136833 0)
(0.0892214 0.00151442 0)
(0.087283 0.00167092 0)
(0.0845603 0.00183878 0)
(0.0811207 0.00201889 0)
(0.0770325 0.00221232 0)
(0.0723657 0.00241988 0)
(0.067192 0.00264186 0)
(0.0615887 0.00287856 0)
(0.0556408 0.0031303 0)
(0.0494454 0.00339756 0)
(0.0431145 0.00368094 0)
(0.0367789 0.00398146 0)
(0.0305918 0.00430151 0)
(0.0247566 0.00464728 0)
(0.0195684 0.00502763 0)
(0.0154493 0.00544921 0)
(0.0130185 0.00588967 0)
(0.00962185 0.0063731 0)
(0 0 0)
(0.0175462 0.000190242 0)
(0.0332016 0.000367238 0)
(0.0465267 0.000530945 0)
(0.0577338 0.000686697 0)
(0.0670297 0.000839071 0)
(0.0745907 0.000991532 0)
(0.0805755 0.00114661 0)
(0.0851336 0.00130681 0)
(0.0883956 0.00147462 0)
(0.090473 0.00165202 0)
(0.0914664 0.00184087 0)
(0.0914666 0.0020426 0)
(0.09056 0.00225931 0)
(0.0888238 0.00249227 0)
(0.0863272 0.00274199 0)
(0.0831388 0.0030097 0)
(0.0793297 0.00329726 0)
(0.074974 0.00360609 0)
(0.0701461 0.00393637 0)
(0.0649258 0.00428847 0)
(0.0594015 0.00466275 0)
(0.0536767 0.00505997 0)
(0.0478717 0.00548078 0)
(0.0421269 0.00592559 0)
(0.0366049 0.00639532 0)
(0.0315033 0.00688978 0)
(0.0271084 0.00741028 0)
(0.0238815 0.0079603 0)
(0.0224425 0.00850669 0)
(0.0199088 0.00899576 0)
(0 0 0)
(0.0176459 0.000252776 0)
(0.0333981 0.000487846 0)
(0.0468152 0.000705144 0)
(0.0581177 0.000911848 0)
(0.0675172 0.00111398 0)
(0.0751895 0.0013156 0)
(0.0812971 0.00152042 0)
(0.0859939 0.00173233 0)
(0.0894115 0.0019542 0)
(0.0916638 0.00218858 0)
(0.0928537 0.0024378 0)
(0.0930742 0.00270378 0)
(0.0924143 0.00298917 0)
(0.0909559 0.00329585 0)
(0.0887733 0.00362494 0)
(0.0859365 0.00397821 0)
(0.0825175 0.00435774 0)
(0.0785941 0.00476486 0)
(0.074246 0.00519992 0)
(0.0695565 0.00566331 0)
(0.064615 0.00615498 0)
(0.059533 0.00667605 0)
(0.0544414 0.00722679 0)
(0.0494897 0.00780565 0)
(0.0448572 0.00841014 0)
(0.0407484 0.00903312 0)
(0.0374157 0.00966511 0)
(0.0352876 0.0102977 0)
(0.0349915 0.010898 0)
(0.0333037 0.0113344 0)
(0 0 0)
(0.0177694 0.000314258 0)
(0.0336418 0.000606257 0)
(0.0471782 0.000876045 0)
(0.0586045 0.00113263 0)
(0.0681338 0.00138311 0)
(0.0759453 0.00163259 0)
(0.08221 0.00188605 0)
(0.0870837 0.00214817 0)
(0.0906984 0.00242236 0)
(0.0931719 0.00271175 0)
(0.0946104 0.00301921 0)
(0.0951105 0.0033473 0)
(0.0947621 0.00369838 0)
(0.093653 0.00407523 0)
(0.0918653 0.00448055 0)
(0.0894749 0.0049167 0)
(0.0865538 0.00538503 0)
(0.0831803 0.00588618 0)
(0.0794426 0.00642147 0)
(0.0754313 0.00699143 0)
(0.0712383 0.00759587 0)
(0.0669737 0.00823495 0)
(0.062771 0.00890658 0)
(0.0587945 0.00960758 0)
(0.0552403 0.0103323 0)
(0.0523228 0.011068 0)
(0.0502752 0.0117966 0)
(0.0494259 0.012494 0)
(0.0504015 0.0131356 0)
(0.049549 0.0134996 0)
(0 0 0)
(0.0179149 0.000374132 0)
(0.0339298 0.000721682 0)
(0.0476118 0.00104279 0)
(0.0591867 0.00134789 0)
(0.0688704 0.00164498 0)
(0.0768516 0.0019408 0)
(0.0833063 0.00224143 0)
(0.0883914 0.00255187 0)
(0.0922421 0.0028762 0)
(0.0949801 0.00321812 0)
(0.0967158 0.00358102 0)
(0.0975503 0.00396797 0)
(0.0975771 0.00438161 0)
(0.096888 0.00482541 0)
(0.0955708 0.00530269 0)
(0.0937079 0.00581603 0)
(0.091378 0.00636676 0)
(0.0886611 0.00695568 0)
(0.0856529 0.00758503 0)
(0.0824548 0.00825582 0)
(0.0791693 0.00896809 0)
(0.0759026 0.00971946 0)
(0.0727775 0.010505 0)
(0.069956 0.0113202 0)
(0.0676502 0.0121569 0)
(0.0660922 0.0129994 0)
(0.0655017 0.0138241 0)
(0.0661182 0.014601 0)
(0.0685504 0.0153107 0)
(0.0683949 0.0156484 0)
(0 0 0)
(0.0180845 0.000432183 0)
(0.0342662 0.00083368 0)
(0.0481154 0.00120442 0)
(0.0598576 0.00155616 0)
(0.069719 0.00189828 0)
(0.0778989 0.00223885 0)
(0.0845742 0.00258464 0)
(0.089903 0.00294111 0)
(0.0940252 0.00331297 0)
(0.0970674 0.00370447 0)
(0.0991448 0.00411949 0)
(0.100364 0.00456159 0)
(0.100823 0.00503409 0)
(0.100619 0.0055405 0)
(0.0998426 0.00608418 0)
(0.0985835 0.00666789 0)
(0.0969312 0.00729382 0)
(0.0949743 0.00796383 0)
(0.0928091 0.00868011 0)
(0.0905403 0.00944336 0)
(0.0882882 0.010254 0)
(0.0861722 0.011109 0)
(0.0843172 0.012003 0)
(0.0828611 0.0129285 0)
(0.0819899 0.0138745 0)
(0.0819648 0.014826 0)
(0.0830269 0.0157595 0)
(0.0853645 0.0166481 0)
(0.0895013 0.017463 0)
(0.090185 0.0179824 0)
(0 0 0)
(0.0182764 0.000488278 0)
(0.0346439 0.000941746 0)
(0.0486775 0.00136 0)
(0.06061 0.00175639 0)
(0.0706751 0.00214188 0)
(0.0790787 0.00252527 0)
(0.0860004 0.00291385 0)
(0.0916018 0.00331371 0)
(0.0960277 0.0037301 0)
(0.0994096 0.00416776 0)
(0.101868 0.00463103 0)
(0.103515 0.0051239 0)
(0.104455 0.00565006 0)
(0.10479 0.00621319 0)
(0.104616 0.00681675 0)
(0.10403 0.00746385 0)
(0.103133 0.00815776 0)
(0.102031 0.00890137 0)
(0.100817 0.0096957 0)
(0.099597 0.0105414 0)
(0.0985007 0.0114394 0)
(0.0976589 0.0123872 0)
(0.097221 0.0133801 0)
(0.0973351 0.0144105 0)
(0.0981377 0.0154646 0)
(0.0998629 0.0165272 0)
(0.102812 0.0175773 0)
(0.107184 0.0185894 0)
(0.113288 0.0195064 0)
(0.115215 0.0202357 0)
(0 0 0)
(0.0184881 0.000542041 0)
(0.0350579 0.00104518 0)
(0.0492926 0.00150892 0)
(0.0614373 0.00194811 0)
(0.0717293 0.00237485 0)
(0.0803786 0.00279865 0)
(0.08757 0.00322739 0)
(0.0934697 0.00366768 0)
(0.0982272 0.00412523 0)
(0.101979 0.00460522 0)
(0.104853 0.00511239 0)
(0.106966 0.00565105 0)
(0.108429 0.00622511 0)
(0.109348 0.00683841 0)
(0.109829 0.00749455 0)
(0.109978 0.00819739 0)
(0.109905 0.00895084 0)
(0.109724 0.00975745 0)
(0.109539 0.0106181 0)
(0.109473 0.0115349 0)
(0.109659 0.0125085 0)
(0.110226 0.0135361 0)
(0.111337 0.0146147 0)
(0.113172 0.0157377 0)
(0.115882 0.0168918 0)
(0.119626 0.0180587 0)
(0.124712 0.0192142 0)
(0.131376 0.0203226 0)
(0.139644 0.0212896 0)
(0.143039 0.0220554 0)
(0 0 0)
(0.0187176 0.000593234 0)
(0.0355072 0.00114364 0)
(0.0499607 0.00165069 0)
(0.0623346 0.00213054 0)
(0.0728712 0.00259613 0)
(0.0817851 0.00305773 0)
(0.0892666 0.00352375 0)
(0.0954864 0.00400124 0)
(0.100599 0.00449629 0)
(0.104747 0.00501439 0)
(0.108064 0.00556069 0)
(0.110673 0.00613971 0)
(0.112692 0.00675544 0)
(0.114233 0.0074118 0)
(0.11541 0.00811265 0)
(0.116343 0.00886272 0)
(0.117149 0.00966541 0)
(0.117942 0.0105223 0)
(0.118847 0.011436 0)
(0.120002 0.0124092 0)
(0.121553 0.0134423 0)
(0.123657 0.0145337 0)
(0.126466 0.015681 0)
(0.130161 0.0168781 0)
(0.13495 0.018113 0)
(0.140973 0.019365 0)
(0.14845 0.0206003 0)
(0.157566 0.0217607 0)
(0.168083 0.0227199 0)
(0.173012 0.0234508 0)
(0 0 0)
(0.0189634 0.000641794 0)
(0.0359881 0.00123696 0)
(0.0506751 0.00178489 0)
(0.0632927 0.0023029 0)
(0.0740891 0.00280477 0)
(0.0832839 0.00330139 0)
(0.0910725 0.00380162 0)
(0.0976307 0.00431286 0)
(0.103118 0.00484147 0)
(0.107681 0.00539314 0)
(0.111462 0.00597345 0)
(0.114592 0.00658706 0)
(0.117191 0.00723777 0)
(0.11938 0.00792951 0)
(0.121284 0.00866664 0)
(0.123032 0.00945382 0)
(0.124742 0.0102935 0)
(0.126548 0.0111877 0)
(0.128596 0.0121397 0)
(0.131024 0.0131516 0)
(0.133991 0.0142247 0)
(0.137693 0.0153585 0)
(0.142306 0.0165504 0)
(0.147997 0.0177953 0)
(0.155 0.019082 0)
(0.163499 0.0203891 0)
(0.173573 0.0216722 0)
(0.185257 0.0228504 0)
(0.198035 0.0237698 0)
(0.204613 0.024474 0)
(0 0 0)
(0.0192241 0.000687492 0)
(0.0364949 0.00132458 0)
(0.0514264 0.00191064 0)
(0.0642995 0.00246413 0)
(0.0753676 0.00299946 0)
(0.0848557 0.00352807 0)
(0.0929643 0.0040592 0)
(0.0998741 0.00460055 0)
(0.105749 0.00515857 0)
(0.110744 0.0057393 0)
(0.115008 0.00634861 0)
(0.118674 0.00699084 0)
(0.121869 0.00766955 0)
(0.124722 0.00838874 0)
(0.127371 0.00915311 0)
(0.129948 0.00996614 0)
(0.132579 0.01083 0)
(0.135414 0.0117475 0)
(0.138612 0.0127208 0)
(0.142334 0.0137515 0)
(0.14675 0.0148412 0)
(0.152059 0.0159896 0)
(0.158488 0.0171936 0)
(0.166239 0.0184493 0)
(0.175534 0.0197472 0)
(0.186576 0.0210653 0)
(0.199359 0.0223574 0)
(0.213718 0.0235324 0)
(0.228752 0.0244055 0)
(0.23734 0.0251759 0)
(0 0 0)
(0.0194891 0.000729869 0)
(0.0370179 0.00140596 0)
(0.0522062 0.00202744 0)
(0.0653447 0.00261357 0)
(0.0766941 0.00317944 0)
(0.086485 0.0037369 0)
(0.0949231 0.00429553 0)
(0.102194 0.00486321 0)
(0.108468 0.00544656 0)
(0.113906 0.00605189 0)
(0.118662 0.00668489 0)
(0.122872 0.00734941 0)
(0.126668 0.00804884 0)
(0.13019 0.00878739 0)
(0.133585 0.00956932 0)
(0.136985 0.0103968 0)
(0.140536 0.0112719 0)
(0.144394 0.0121969 0)
(0.148718 0.0131726 0)
(0.153698 0.0142 0)
(0.15953 0.0152792 0)
(0.166414 0.0164086 0)
(0.174589 0.0175844 0)
(0.184322 0.0188008 0)
(0.19582 0.0200487 0)
(0.209292 0.0213078 0)
(0.224727 0.0225432 0)
(0.241757 0.0236763 0)
(0.259046 0.024499 0)
(0.270789 0.0255911 0)
(0 0 0)
(0.0197563 0.000768849 0)
(0.0375529 0.00148106 0)
(0.0530085 0.00213521 0)
(0.0664206 0.00275118 0)
(0.0780589 0.00334464 0)
(0.0881599 0.00392785 0)
(0.0969341 0.00451056 0)
(0.104573 0.00510081 0)
(0.11125 0.0057053 0)
(0.117135 0.00633034 0)
(0.122383 0.00698138 0)
(0.127135 0.00766182 0)
(0.131528 0.0083748 0)
(0.135716 0.0091245 0)
(0.139842 0.00991382 0)
(0.144043 0.0107441 0)
(0.148482 0.0116173 0)
(0.153315 0.0125334 0)
(0.158718 0.013492 0)
(0.164886 0.0144925 0)
(0.17202 0.0155321 0)
(0.180349 0.0166052 0)
(0.1901 0.0177045 0)
(0.20155 0.018818 0)
(0.214927 0.0199297 0)
(0.230422 0.0210149 0)
(0.248026 0.0220462 0)
(0.267238 0.0229853 0)
(0.286655 0.023658 0)
(0.304605 0.0257771 0)
(0 0 0)
(0.020033 0.000804908 0)
(0.0381041 0.00155042 0)
(0.0538338 0.00223453 0)
(0.067527 0.00287764 0)
(0.0794619 0.00349593 0)
(0.0898801 0.00410189 0)
(0.0989966 0.00470541 0)
(0.107008 0.0053146 0)
(0.114093 0.00593613 0)
(0.120426 0.00657617 0)
(0.126166 0.00723977 0)
(0.131455 0.0079298 0)
(0.136439 0.00864935 0)
(0.141277 0.00940195 0)
(0.146109 0.0101888 0)
(0.151084 0.0110107 0)
(0.156365 0.0118679 0)
(0.162107 0.0127588 0)
(0.168503 0.0136813 0)
(0.175748 0.0146307 0)
(0.184027 0.0156003 0)
(0.193573 0.0165786 0)
(0.204608 0.0175494 0)
(0.217354 0.0184888 0)
(0.232013 0.0193598 0)
(0.248665 0.0201031 0)
(0.267164 0.0206212 0)
(0.286732 0.020737 0)
(0.306065 0.0199256 0)
(0.338493 0.0258362 0)
(0 0 0)
(0.0174208 0 0)
(0.0329523 0 0)
(0.0461568 0 0)
(0.0572388 0 0)
(0.0663977 0 0)
(0.0738106 0 0)
(0.0796355 0 0)
(0.0840145 0 0)
(0.0870731 0 0)
(0.0889219 0 0)
(0.0896588 0 0)
(0.0893724 0 0)
(0.0881419 0 0)
(0.0860396 0 0)
(0.0831339 0 0)
(0.0794908 0 0)
(0.0751762 0 0)
(0.0702572 0 0)
(0.0648033 0 0)
(0.0588892 0 0)
(0.0525964 0 0)
(0.0460171 0 0)
(0.0392567 0 0)
(0.0324396 0 0)
(0.0257181 0 0)
(0.0192888 0 0)
(0.01341 0 0)
(0.00843738 0 0)
(0.00497493 0 0)
(3.57849e-16 0 0)
(0 0 0)
(0.0174329 6.36453e-05 0)
(0.032978 0.000122836 0)
(0.0461961 0.000177587 0)
(0.0572921 0.000229706 0)
(0.0664664 0.000280711 0)
(0.0738959 0.000331825 0)
(0.079739 0.000383885 0)
(0.0841382 0.000437648 0)
(0.0872197 0.000493961 0)
(0.0890942 0.000553551 0)
(0.08986 0.000617147 0)
(0.0896062 0.000685686 0)
(0.0884127 0.000759272 0)
(0.0863518 0.000837863 0)
(0.0834922 0.000922131 0)
(0.0799005 0.00101257 0)
(0.075643 0.00110967 0)
(0.0707875 0.0012138 0)
(0.0654043 0.00132514 0)
(0.0595684 0.00144385 0)
(0.0533625 0.00157008 0)
(0.0468798 0.00170409 0)
(0.040227 0.00184627 0)
(0.0335297 0.00199744 0)
(0.0269404 0.0021596 0)
(0.0206613 0.00233852 0)
(0.0149639 0.00254173 0)
(0.0102231 0.00277486 0)
(0.00705183 0.00302992 0)
(0.00296486 0.00336833 0)
(0 0 0)
(0.0174751 0.000127123 0)
(0.0330613 0.000245367 0)
(0.0463195 0.000354739 0)
(0.0574574 0.000458834 0)
(0.0666772 0.000560697 0)
(0.0741563 0.000662827 0)
(0.0800531 0.000766818 0)
(0.0845123 0.000874143 0)
(0.0876619 0.000986558 0)
(0.0896129 0.00110548 0)
(0.0904645 0.00123226 0)
(0.0903066 0.00136833 0)
(0.0892214 0.00151442 0)
(0.087283 0.00167092 0)
(0.0845603 0.00183878 0)
(0.0811207 0.00201889 0)
(0.0770325 0.00221232 0)
(0.0723657 0.00241988 0)
(0.067192 0.00264186 0)
(0.0615887 0.00287856 0)
(0.0556408 0.0031303 0)
(0.0494454 0.00339756 0)
(0.0431145 0.00368094 0)
(0.0367789 0.00398146 0)
(0.0305918 0.00430151 0)
(0.0247566 0.00464728 0)
(0.0195684 0.00502763 0)
(0.0154493 0.00544921 0)
(0.0130185 0.00588967 0)
(0.00962185 0.0063731 0)
(0 0 0)
(0.0175462 0.000190242 0)
(0.0332016 0.000367238 0)
(0.0465267 0.000530945 0)
(0.0577338 0.000686697 0)
(0.0670297 0.000839071 0)
(0.0745907 0.000991532 0)
(0.0805755 0.00114661 0)
(0.0851336 0.00130681 0)
(0.0883956 0.00147462 0)
(0.090473 0.00165202 0)
(0.0914664 0.00184087 0)
(0.0914666 0.0020426 0)
(0.09056 0.00225931 0)
(0.0888238 0.00249227 0)
(0.0863272 0.00274199 0)
(0.0831388 0.0030097 0)
(0.0793297 0.00329726 0)
(0.074974 0.00360609 0)
(0.0701461 0.00393637 0)
(0.0649258 0.00428847 0)
(0.0594015 0.00466275 0)
(0.0536767 0.00505997 0)
(0.0478717 0.00548078 0)
(0.0421269 0.00592559 0)
(0.0366049 0.00639532 0)
(0.0315033 0.00688978 0)
(0.0271084 0.00741028 0)
(0.0238815 0.0079603 0)
(0.0224425 0.00850669 0)
(0.0199088 0.00899576 0)
(0 0 0)
(0.0176459 0.000252776 0)
(0.0333981 0.000487846 0)
(0.0468152 0.000705144 0)
(0.0581177 0.000911848 0)
(0.0675172 0.00111398 0)
(0.0751895 0.0013156 0)
(0.0812971 0.00152042 0)
(0.0859939 0.00173233 0)
(0.0894115 0.0019542 0)
(0.0916638 0.00218858 0)
(0.0928537 0.0024378 0)
(0.0930742 0.00270378 0)
(0.0924143 0.00298917 0)
(0.0909559 0.00329585 0)
(0.0887733 0.00362494 0)
(0.0859365 0.00397821 0)
(0.0825175 0.00435774 0)
(0.0785941 0.00476486 0)
(0.074246 0.00519992 0)
(0.0695565 0.00566331 0)
(0.064615 0.00615498 0)
(0.059533 0.00667605 0)
(0.0544414 0.00722679 0)
(0.0494897 0.00780565 0)
(0.0448572 0.00841014 0)
(0.0407484 0.00903312 0)
(0.0374157 0.00966511 0)
(0.0352876 0.0102977 0)
(0.0349915 0.010898 0)
(0.0333037 0.0113344 0)
(0 0 0)
(0.0177694 0.000314258 0)
(0.0336418 0.000606257 0)
(0.0471782 0.000876045 0)
(0.0586045 0.00113263 0)
(0.0681338 0.00138311 0)
(0.0759453 0.00163259 0)
(0.08221 0.00188605 0)
(0.0870837 0.00214817 0)
(0.0906984 0.00242236 0)
(0.0931719 0.00271175 0)
(0.0946104 0.00301921 0)
(0.0951105 0.0033473 0)
(0.0947621 0.00369838 0)
(0.093653 0.00407523 0)
(0.0918653 0.00448055 0)
(0.0894749 0.0049167 0)
(0.0865538 0.00538503 0)
(0.0831803 0.00588618 0)
(0.0794426 0.00642147 0)
(0.0754313 0.00699143 0)
(0.0712383 0.00759587 0)
(0.0669737 0.00823495 0)
(0.062771 0.00890658 0)
(0.0587945 0.00960758 0)
(0.0552403 0.0103323 0)
(0.0523228 0.011068 0)
(0.0502752 0.0117966 0)
(0.0494259 0.012494 0)
(0.0504015 0.0131356 0)
(0.049549 0.0134996 0)
(0 0 0)
(0.0179149 0.000374132 0)
(0.0339298 0.000721682 0)
(0.0476118 0.00104279 0)
(0.0591867 0.00134789 0)
(0.0688704 0.00164498 0)
(0.0768516 0.0019408 0)
(0.0833063 0.00224143 0)
(0.0883914 0.00255187 0)
(0.0922421 0.0028762 0)
(0.0949801 0.00321812 0)
(0.0967158 0.00358102 0)
(0.0975503 0.00396797 0)
(0.0975771 0.00438161 0)
(0.096888 0.00482541 0)
(0.0955708 0.00530269 0)
(0.0937079 0.00581603 0)
(0.091378 0.00636676 0)
(0.0886611 0.00695568 0)
(0.0856529 0.00758503 0)
(0.0824548 0.00825582 0)
(0.0791693 0.00896809 0)
(0.0759026 0.00971946 0)
(0.0727775 0.010505 0)
(0.069956 0.0113202 0)
(0.0676502 0.0121569 0)
(0.0660922 0.0129994 0)
(0.0655017 0.0138241 0)
(0.0661182 0.014601 0)
(0.0685504 0.0153107 0)
(0.0683949 0.0156484 0)
(0 0 0)
(0.0180845 0.000432183 0)
(0.0342662 0.00083368 0)
(0.0481154 0.00120442 0)
(0.0598576 0.00155616 0)
(0.069719 0.00189828 0)
(0.0778989 0.00223885 0)
(0.0845742 0.00258464 0)
(0.089903 0.00294111 0)
(0.0940252 0.00331297 0)
(0.0970674 0.00370447 0)
(0.0991448 0.00411949 0)
(0.100364 0.00456159 0)
(0.100823 0.00503409 0)
(0.100619 0.0055405 0)
(0.0998426 0.00608418 0)
(0.0985835 0.00666789 0)
(0.0969312 0.00729382 0)
(0.0949743 0.00796383 0)
(0.0928091 0.00868011 0)
(0.0905403 0.00944336 0)
(0.0882882 0.010254 0)
(0.0861722 0.011109 0)
(0.0843172 0.012003 0)
(0.0828611 0.0129285 0)
(0.0819899 0.0138745 0)
(0.0819648 0.014826 0)
(0.0830269 0.0157595 0)
(0.0853645 0.0166481 0)
(0.0895013 0.017463 0)
(0.090185 0.0179824 0)
(0 0 0)
(0.0182764 0.000488278 0)
(0.0346439 0.000941746 0)
(0.0486775 0.00136 0)
(0.06061 0.00175639 0)
(0.0706751 0.00214188 0)
(0.0790787 0.00252527 0)
(0.0860004 0.00291385 0)
(0.0916018 0.00331371 0)
(0.0960277 0.0037301 0)
(0.0994096 0.00416776 0)
(0.101868 0.00463103 0)
(0.103515 0.0051239 0)
(0.104455 0.00565006 0)
(0.10479 0.00621319 0)
(0.104616 0.00681675 0)
(0.10403 0.00746385 0)
(0.103133 0.00815776 0)
(0.102031 0.00890137 0)
(0.100817 0.0096957 0)
(0.099597 0.0105414 0)
(0.0985007 0.0114394 0)
(0.0976589 0.0123872 0)
(0.097221 0.0133801 0)
(0.0973351 0.0144105 0)
(0.0981377 0.0154646 0)
(0.0998629 0.0165272 0)
(0.102812 0.0175773 0)
(0.107184 0.0185894 0)
(0.113288 0.0195064 0)
(0.115215 0.0202357 0)
(0 0 0)
(0.0184881 0.000542041 0)
(0.0350579 0.00104518 0)
(0.0492926 0.00150892 0)
(0.0614373 0.00194811 0)
(0.0717293 0.00237485 0)
(0.0803786 0.00279865 0)
(0.08757 0.00322739 0)
(0.0934697 0.00366768 0)
(0.0982272 0.00412523 0)
(0.101979 0.00460522 0)
(0.104853 0.00511239 0)
(0.106966 0.00565105 0)
(0.108429 0.00622511 0)
(0.109348 0.00683841 0)
(0.109829 0.00749455 0)
(0.109978 0.00819739 0)
(0.109905 0.00895084 0)
(0.109724 0.00975745 0)
(0.109539 0.0106181 0)
(0.109473 0.0115349 0)
(0.109659 0.0125085 0)
(0.110226 0.0135361 0)
(0.111337 0.0146147 0)
(0.113172 0.0157377 0)
(0.115882 0.0168918 0)
(0.119626 0.0180587 0)
(0.124712 0.0192142 0)
(0.131376 0.0203226 0)
(0.139644 0.0212896 0)
(0.143039 0.0220554 0)
(0 0 0)
(0.0187176 0.000593234 0)
(0.0355072 0.00114364 0)
(0.0499607 0.00165069 0)
(0.0623346 0.00213054 0)
(0.0728712 0.00259613 0)
(0.0817851 0.00305773 0)
(0.0892666 0.00352375 0)
(0.0954864 0.00400124 0)
(0.100599 0.00449629 0)
(0.104747 0.00501439 0)
(0.108064 0.00556069 0)
(0.110673 0.00613971 0)
(0.112692 0.00675544 0)
(0.114233 0.0074118 0)
(0.11541 0.00811265 0)
(0.116343 0.00886272 0)
(0.117149 0.00966541 0)
(0.117942 0.0105223 0)
(0.118847 0.011436 0)
(0.120002 0.0124092 0)
(0.121553 0.0134423 0)
(0.123657 0.0145337 0)
(0.126466 0.015681 0)
(0.130161 0.0168781 0)
(0.13495 0.018113 0)
(0.140973 0.019365 0)
(0.14845 0.0206003 0)
(0.157566 0.0217607 0)
(0.168083 0.0227199 0)
(0.173012 0.0234508 0)
(0 0 0)
(0.0189634 0.000641794 0)
(0.0359881 0.00123696 0)
(0.0506751 0.00178489 0)
(0.0632927 0.0023029 0)
(0.0740891 0.00280477 0)
(0.0832839 0.00330139 0)
(0.0910725 0.00380162 0)
(0.0976307 0.00431286 0)
(0.103118 0.00484147 0)
(0.107681 0.00539314 0)
(0.111462 0.00597345 0)
(0.114592 0.00658706 0)
(0.117191 0.00723777 0)
(0.11938 0.00792951 0)
(0.121284 0.00866664 0)
(0.123032 0.00945382 0)
(0.124742 0.0102935 0)
(0.126548 0.0111877 0)
(0.128596 0.0121397 0)
(0.131024 0.0131516 0)
(0.133991 0.0142247 0)
(0.137693 0.0153585 0)
(0.142306 0.0165504 0)
(0.147997 0.0177953 0)
(0.155 0.019082 0)
(0.163499 0.0203891 0)
(0.173573 0.0216722 0)
(0.185257 0.0228504 0)
(0.198035 0.0237698 0)
(0.204613 0.024474 0)
(0 0 0)
(0.0192241 0.000687492 0)
(0.0364949 0.00132458 0)
(0.0514264 0.00191064 0)
(0.0642995 0.00246413 0)
(0.0753676 0.00299946 0)
(0.0848557 0.00352807 0)
(0.0929643 0.0040592 0)
(0.0998741 0.00460055 0)
(0.105749 0.00515857 0)
(0.110744 0.0057393 0)
(0.115008 0.00634861 0)
(0.118674 0.00699084 0)
(0.121869 0.00766955 0)
(0.124722 0.00838874 0)
(0.127371 0.00915311 0)
(0.129948 0.00996614 0)
(0.132579 0.01083 0)
(0.135414 0.0117475 0)
(0.138612 0.0127208 0)
(0.142334 0.0137515 0)
(0.14675 0.0148412 0)
(0.152059 0.0159896 0)
(0.158488 0.0171936 0)
(0.166239 0.0184493 0)
(0.175534 0.0197472 0)
(0.186576 0.0210653 0)
(0.199359 0.0223574 0)
(0.213718 0.0235324 0)
(0.228752 0.0244055 0)
(0.23734 0.0251759 0)
(0 0 0)
(0.0194891 0.000729869 0)
(0.0370179 0.00140596 0)
(0.0522062 0.00202744 0)
(0.0653447 0.00261357 0)
(0.0766941 0.00317944 0)
(0.086485 0.0037369 0)
(0.0949231 0.00429553 0)
(0.102194 0.00486321 0)
(0.108468 0.00544656 0)
(0.113906 0.00605189 0)
(0.118662 0.00668489 0)
(0.122872 0.00734941 0)
(0.126668 0.00804884 0)
(0.13019 0.00878739 0)
(0.133585 0.00956932 0)
(0.136985 0.0103968 0)
(0.140536 0.0112719 0)
(0.144394 0.0121969 0)
(0.148718 0.0131726 0)
(0.153698 0.0142 0)
(0.15953 0.0152792 0)
(0.166414 0.0164086 0)
(0.174589 0.0175844 0)
(0.184322 0.0188008 0)
(0.19582 0.0200487 0)
(0.209292 0.0213078 0)
(0.224727 0.0225432 0)
(0.241757 0.0236763 0)
(0.259046 0.024499 0)
(0.270789 0.0255911 0)
(0 0 0)
(0.0197563 0.000768849 0)
(0.0375529 0.00148106 0)
(0.0530085 0.00213521 0)
(0.0664206 0.00275118 0)
(0.0780589 0.00334464 0)
(0.0881599 0.00392785 0)
(0.0969341 0.00451056 0)
(0.104573 0.00510081 0)
(0.11125 0.0057053 0)
(0.117135 0.00633034 0)
(0.122383 0.00698138 0)
(0.127135 0.00766182 0)
(0.131528 0.0083748 0)
(0.135716 0.0091245 0)
(0.139842 0.00991382 0)
(0.144043 0.0107441 0)
(0.148482 0.0116173 0)
(0.153315 0.0125334 0)
(0.158718 0.013492 0)
(0.164886 0.0144925 0)
(0.17202 0.0155321 0)
(0.180349 0.0166052 0)
(0.1901 0.0177045 0)
(0.20155 0.018818 0)
(0.214927 0.0199297 0)
(0.230422 0.0210149 0)
(0.248026 0.0220462 0)
(0.267238 0.0229853 0)
(0.286655 0.023658 0)
(0.304605 0.0257771 0)
(0 0 0)
(0.020033 0.000804908 0)
(0.0381041 0.00155042 0)
(0.0538338 0.00223453 0)
(0.067527 0.00287764 0)
(0.0794619 0.00349593 0)
(0.0898801 0.00410189 0)
(0.0989966 0.00470541 0)
(0.107008 0.0053146 0)
(0.114093 0.00593613 0)
(0.120426 0.00657617 0)
(0.126166 0.00723977 0)
(0.131455 0.0079298 0)
(0.136439 0.00864935 0)
(0.141277 0.00940195 0)
(0.146109 0.0101888 0)
(0.151084 0.0110107 0)
(0.156365 0.0118679 0)
(0.162107 0.0127588 0)
(0.168503 0.0136813 0)
(0.175748 0.0146307 0)
(0.184027 0.0156003 0)
(0.193573 0.0165786 0)
(0.204608 0.0175494 0)
(0.217354 0.0184888 0)
(0.232013 0.0193598 0)
(0.248665 0.0201031 0)
(0.267164 0.0206212 0)
(0.286732 0.020737 0)
(0.306065 0.0199256 0)
(0.338493 0.0258362 0)
(7.2362e-17 0 0)
(0.00724618 0 0)
(0.0145133 0 0)
(0.0264299 0 0)
(0.0423608 0 0)
(0.0610695 0 0)
(0.0810715 0 0)
(0.100941 0 0)
(0.119536 0 0)
(0.136109 0 0)
(0.150242 0 0)
(0.161806 0 0)
(0.170875 0 0)
(0.177586 0 0)
(0.182083 0 0)
(0.184515 0 0)
(0.185004 0 0)
(0.183646 0 0)
(0.180515 0 0)
(0.175646 0 0)
(0.169047 0 0)
(0.16071 0 0)
(0.150609 0 0)
(0.138692 0 0)
(0.124913 0 0)
(0.109232 0 0)
(0.0915608 0 0)
(0.0718136 0 0)
(0.0499446 0 0)
(0.0258543 0 0)
(0 0 0)
(0.00288416 -0.00321383 0)
(0.00944837 -0.0030225 0)
(0.0168023 -0.00305836 0)
(0.02879 -0.00305332 0)
(0.0447374 -0.00302399 0)
(0.0633764 -0.00295677 0)
(0.083242 -0.00284823 0)
(0.102923 -0.00270261 0)
(0.121295 -0.00252882 0)
(0.137629 -0.00234064 0)
(0.151528 -0.00214565 0)
(0.16288 -0.00195379 0)
(0.171761 -0.00177171 0)
(0.178309 -0.00159631 0)
(0.182673 -0.00143308 0)
(0.184998 -0.00128519 0)
(0.185401 -0.00114791 0)
(0.183971 -0.00102106 0)
(0.180781 -0.000906858 0)
(0.175863 -0.000804175 0)
(0.169224 -0.000710684 0)
(0.160855 -0.00062516 0)
(0.15073 -0.000546223 0)
(0.138797 -0.000472102 0)
(0.125003 -0.000401726 0)
(0.109306 -0.00033453 0)
(0.0916252 -0.000269378 0)
(0.0718694 -0.000204464 0)
(0.0499779 -0.000138782 0)
(0.0258652 -7.08772e-05 0)
(0 0 0)
(0.00954748 -0.00608873 0)
(0.015831 -0.00586362 0)
(0.0235297 -0.00596066 0)
(0.0357684 -0.0059836 0)
(0.0517586 -0.00593787 0)
(0.070213 -0.0058066 0)
(0.0896896 -0.00559154 0)
(0.108798 -0.00530222 0)
(0.126493 -0.00495982 0)
(0.142108 -0.00458739 0)
(0.155305 -0.00420312 0)
(0.166024 -0.00382496 0)
(0.174352 -0.00346529 0)
(0.180429 -0.0031238 0)
(0.184407 -0.00280584 0)
(0.186417 -0.00251655 0)
(0.186562 -0.00225059 0)
(0.184924 -0.00200575 0)
(0.181561 -0.00178282 0)
(0.176505 -0.00158123 0)
(0.169752 -0.001397 0)
(0.16129 -0.00122839 0)
(0.151094 -0.00107287 0)
(0.139106 -0.000927049 0)
(0.125264 -0.000789471 0)
(0.109525 -0.000657782 0)
(0.0918114 -0.000529637 0)
(0.0720173 -0.000402394 0)
(0.0500751 -0.000273414 0)
(0.0259143 -0.000139631 0)
(0 0 0)
(0.0198245 -0.00858284 0)
(0.0259637 -0.00844136 0)
(0.0343102 -0.00863399 0)
(0.0469857 -0.00871769 0)
(0.0630529 -0.00867127 0)
(0.0812285 -0.00848409 0)
(0.100048 -0.00816188 0)
(0.118203 -0.00772881 0)
(0.134783 -0.0072223 0)
(0.14922 -0.00667296 0)
(0.161291 -0.00610978 0)
(0.171003 -0.00555751 0)
(0.178458 -0.00503252 0)
(0.1838 -0.00454021 0)
(0.187169 -0.00408256 0)
(0.188676 -0.00366245 0)
(0.188411 -0.00327822 0)
(0.186443 -0.00292622 0)
(0.182812 -0.00260451 0)
(0.177539 -0.00231191 0)
(0.170608 -0.00204358 0)
(0.162 -0.00179747 0)
(0.151689 -0.00157025 0)
(0.139604 -0.00135768 0)
(0.125682 -0.0011568 0)
(0.109879 -0.000964367 0)
(0.0921017 -0.000777042 0)
(0.0722449 -0.000590938 0)
(0.0502414 -0.000401889 0)
(0.0260093 -0.000205301 0)
(0 0 0)
(0.0332283 -0.0107906 0)
(0.0394948 -0.0107856 0)
(0.0487696 -0.0110947 0)
(0.0620553 -0.0112484 0)
(0.0782374 -0.0112024 0)
(0.0959792 -0.010952 0)
(0.113824 -0.0105148 0)
(0.130637 -0.00993616 0)
(0.145667 -0.00926738 0)
(0.158517 -0.00855129 0)
(0.169111 -0.00782625 0)
(0.177517 -0.00712022 0)
(0.18384 -0.00644901 0)
(0.188224 -0.00582184 0)
(0.190798 -0.00524088 0)
(0.191651 -0.0047062 0)
(0.190853 -0.00421689 0)
(0.188452 -0.00376932 0)
(0.18447 -0.00336006 0)
(0.178912 -0.00298634 0)
(0.17175 -0.00264325 0)
(0.162951 -0.00232709 0)
(0.152483 -0.00203446 0)
(0.140272 -0.00176099 0)
(0.126245 -0.0015017 0)
(0.110344 -0.00125292 0)
(0.0924769 -0.00101052 0)
(0.0725419 -0.00076923 0)
(0.0504598 -0.000523639 0)
(0.0261287 -0.000267677 0)
(0 0 0)
(0.049447 -0.0127822 0)
(0.0561942 -0.012991 0)
(0.0666699 -0.0134077 0)
(0.0806547 -0.0136003 0)
(0.0968638 -0.013522 0)
(0.11389 -0.0131782 0)
(0.130389 -0.0126096 0)
(0.145452 -0.0118816 0)
(0.158538 -0.0110561 0)
(0.169489 -0.0101898 0)
(0.178344 -0.0093241 0)
(0.185209 -0.00848753 0)
(0.190209 -0.00769503 0)
(0.193475 -0.00695391 0)
(0.195121 -0.00626819 0)
(0.195208 -0.00563752 0)
(0.193783 -0.0050592 0)
(0.190869 -0.0045295 0)
(0.186468 -0.00404421 0)
(0.18057 -0.00359973 0)
(0.173132 -0.00319144 0)
(0.164107 -0.00281373 0)
(0.153448 -0.00246293 0)
(0.141081 -0.0021346 0)
(0.126924 -0.00182279 0)
(0.110902 -0.00152275 0)
(0.0929233 -0.00122944 0)
(0.0728886 -0.000936756 0)
(0.0507066 -0.00063826 0)
(0.0262605 -0.000326508 0)
(0 0 0)
(0.0683062 -0.0148315 0)
(0.0759358 -0.0151521 0)
(0.0877729 -0.015615 0)
(0.102396 -0.0157771 0)
(0.118373 -0.015607 0)
(0.134284 -0.015129 0)
(0.149005 -0.0144087 0)
(0.16192 -0.0135286 0)
(0.172774 -0.0125613 0)
(0.181601 -0.0115667 0)
(0.18853 -0.0105854 0)
(0.193701 -0.00964303 0)
(0.197262 -0.0087553 0)
(0.199319 -0.00792606 0)
(0.199951 -0.00715752 0)
(0.199199 -0.00644975 0)
(0.197082 -0.00579912 0)
(0.193601 -0.0052018 0)
(0.188736 -0.00465335 0)
(0.182456 -0.00414935 0)
(0.174707 -0.00368543 0)
(0.165427 -0.00325532 0)
(0.154551 -0.00285438 0)
(0.142001 -0.00247763 0)
(0.127689 -0.00211898 0)
(0.111529 -0.00177273 0)
(0.0934253 -0.00143292 0)
(0.0732743 -0.00109285 0)
(0.050976 -0.000745221 0)
(0.0264025 -0.000381447 0)
(0 0 0)
(0.09011 -0.0170701 0)
(0.0986133 -0.0172702 0)
(0.111734 -0.0176832 0)
(0.126758 -0.0177355 0)
(0.142077 -0.0174133 0)
(0.15638 -0.0167651 0)
(0.16889 -0.0158807 0)
(0.179328 -0.0148541 0)
(0.187743 -0.0137653 0)
(0.194305 -0.0126687 0)
(0.199215 -0.0116007 0)
(0.202634 -0.0105816 0)
(0.204706 -0.00962476 0)
(0.205516 -0.00873266 0)
(0.205096 -0.00790385 0)
(0.20347 -0.00713862 0)
(0.200631 -0.00643328 0)
(0.196555 -0.00578366 0)
(0.191201 -0.00518574 0)
(0.184514 -0.00463437 0)
(0.176428 -0.0041248 0)
(0.166868 -0.00365105 0)
(0.155755 -0.00320768 0)
(0.143004 -0.0027891 0)
(0.128521 -0.00238916 0)
(0.112209 -0.00200162 0)
(0.0939673 -0.00161987 0)
(0.0736876 -0.00123665 0)
(0.0512616 -0.000843928 0)
(0.0265515 -0.000432193 0)
(0 0 0)
(0.115176 -0.0192483 0)
(0.124073 -0.0192392 0)
(0.13817 -0.0195254 0)
(0.153115 -0.0194038 0)
(0.16718 -0.0188837 0)
(0.179335 -0.0180442 0)
(0.189246 -0.016998 0)
(0.196988 -0.0158446 0)
(0.202848 -0.0146606 0)
(0.207102 -0.0134928 0)
(0.209991 -0.0123694 0)
(0.211678 -0.0113043 0)
(0.212273 -0.0103051 0)
(0.211839 -0.00937389 0)
(0.210377 -0.00850734 0)