/*--------------------------------*- C++ -*----------------------------------*\
| =========                 |                                                 |
| \\      /  F ield         | OpenFOAM: The Open Source CFD Toolbox           |
|  \\    /   O peration     | Version:  2006                                  |
|   \\  /    A nd           | Website:  www.openfoam.com                      |
|    \\/     M anipulation  |                                                 |
\*---------------------------------------------------------------------------*/
FoamFile
{
    version     2.0;
    format      ascii;
    class       volVectorField;
    location    "0.8";
    object      Stress;
}
// * * * * * * * * * * * * * * * * * * * * * * * * * * * * * * * * * * * * * //

dimensions      [1 -1 -2 0 0 0 0];


internalField   uniform (0 0 0);

boundaryField
{
    inlet
    {
        type            calculated;
        value           uniform (0 0 0);
    }
    outlet
    {
        type            calculated;
        value           uniform (0 0 0);
    }
    flap
    {
        type            calculated;
        value           nonuniform List<vector> 
33
(
(184.732 -7.85844 3.07312e-12)
(184.336 -17.6497 3.89851e-12)
(183.261 -27.2135 6.2614e-13)
(180.787 -35.0558 -1.49029e-12)
(176.711 -41.6157 -1.27421e-12)
(171.355 -46.7812 -1.14708e-12)
(164.546 -51.7624 -2.01362e-12)
(156.305 -56.5186 -7.5047e-13)
(147.539 -59.6582 1.2004e-12)
(138.881 -60.8534 1.07991e-12)
(130.285 -60.502 -6.76938e-13)
(121.585 -58.7403 -7.65205e-13)
(112.141 -55.5833 5.8218e-13)
(100.895 -50.6913 7.27538e-13)
(85.5965 -43.1467 5.91972e-14)
(4.86475 9.37476 -9.72139e-17)
(-5.99593 -11.6027 8.80492e-17)
(-13.3103 -25.8308 -1.20371e-35)
(-74.0881 3.37978 -1.91027e-12)
(-74.0266 7.7583 -3.21321e-12)
(-73.7209 11.8454 -8.80296e-13)
(-73.2618 15.2829 1.67367e-12)
(-72.5409 18.2469 1.25913e-12)
(-71.3837 20.8973 6.0136e-13)
(-69.6224 23.6352 1.36001e-12)
(-67.3012 26.2497 6.35123e-13)
(-64.6124 27.822 -1.51351e-12)
(-61.5479 28.4577 -1.39707e-12)
(-58.1316 28.1747 1.19816e-13)
(-54.3659 27.1795 -1.8704e-13)
(-50.4393 25.7353 -4.29933e-13)
(-46.6164 23.9899 -8.29271e-13)
(-43.1678 22.3011 -8.23481e-13)
)
;
    }
    upperWall
    {
        type            calculated;
        value           uniform (0 0 0);
    }
    lowerWall
    {
        type            calculated;
        value           uniform (0 0 0);
    }
    frontAndBack
    {
        type            empty;
    }
}


// ************************************************************************* //
