/*--------------------------------*- C++ -*----------------------------------*\
| =========                 |                                                 |
| \\      /  F ield         | OpenFOAM: The Open Source CFD Toolbox           |
|  \\    /   O peration     | Version:  2006                                  |
|   \\  /    A nd           | Website:  www.openfoam.com                      |
|    \\/     M anipulation  |                                                 |
\*---------------------------------------------------------------------------*/
FoamFile
{
    version     2.0;
    format      ascii;
    class       volVectorField;
    location    "0.8";
    object      U;
}
// * * * * * * * * * * * * * * * * * * * * * * * * * * * * * * * * * * * * * //

dimensions      [0 1 -1 0 0 0 0];


internalField   nonuniform List<vector> 
2790
(
(9.94084 0.0192339 0)
(9.88175 0.026786 -1.64031e-20)
(9.79518 0.031684 1.67486e-20)
(9.68681 0.0367255 9.59973e-23)
(9.56312 0.0419663 -3.47925e-20)
(9.42544 0.0473375 0)
(9.27296 0.0529521 0)
(9.10464 0.0589644 0)
(8.9196 0.065513 0)
(8.7169 0.0727235 -7.96358e-20)
(8.49537 0.0807276 9.26143e-20)
(8.25367 0.0896728 -9.58097e-20)
(7.99033 0.0997171 4.45065e-20)
(7.70378 0.111021 4.62989e-20)
(7.39241 0.123755 0)
(7.05461 0.138106 -2.01599e-19)
(6.68882 0.154248 0)
(6.29364 0.172332 2.2363e-19)
(5.8679 0.192473 -2.36858e-19)
(5.41087 0.214719 0)
(4.92236 0.239032 -2.68949e-19)
(4.40292 0.265236 8.72938e-19)
(3.85405 0.292969 -2.48627e-18)
(3.2784 0.321612 -6.93185e-19)
(2.68013 0.350175 2.90944e-18)
(2.06507 0.377024 -3.19832e-18)
(1.44087 0.398892 3.47668e-18)
(0.819181 0.402275 9.53805e-19)
(0.176155 0.270451 0)
(-0.152056 -0.424423 -5.60048e-19)
(9.99647 0.0366303 2.4122e-20)
(9.9896 0.0539501 8.15885e-21)
(9.95877 0.066391 3.3112e-20)
(9.90548 0.0795293 -3.36701e-20)
(9.8348 0.0935542 3.43849e-20)
(9.74821 0.108266 -3.49247e-20)
(9.64507 0.123881 0)
(9.52443 0.140745 0)
(9.38544 0.159181 -7.4983e-20)
(9.22717 0.179487 7.70664e-20)
(9.04848 0.201973 -7.93102e-20)
(8.84803 0.226987 2.45227e-19)
(8.62436 0.254892 1.68931e-19)
(8.37589 0.286045 -2.65128e-19)
(8.10089 0.32081 1.09485e-18)
(7.79766 0.359553 5.78465e-19)
(7.46451 0.402577 -1.58637e-18)
(7.09981 0.450068 1.03306e-18)
(6.70215 0.502052 2.18686e-19)
(6.27044 0.558308 1.85763e-18)
(5.80405 0.618285 -1.69674e-18)
(5.30297 0.680984 2.59654e-19)
(4.76802 0.744795 5.525e-19)
(4.20107 0.807298 -5.92882e-19)
(3.60547 0.864931 1.27105e-18)
(2.9865 0.912188 -1.1022e-17)
(2.35215 0.939408 -6.28819e-20)
(1.71414 0.925107 1.20372e-17)
(1.05043 0.811448 1.57869e-17)
(0.649778 0.49798 5.19641e-19)
(9.9935 0.0362224 -3.21689e-20)
(9.98348 0.0612054 -3.45902e-20)
(9.95424 0.0821895 2.06449e-21)
(9.90497 0.104016 3.35865e-20)
(9.83941 0.127278 0)
(9.75919 0.151881 0)
(9.66394 0.178116 0)
(9.55283 0.20647 0)
(9.42517 0.237437 7.43508e-20)
(9.28023 0.271493 0)
(9.11704 0.309153 0)
(8.93448 0.35099 -1.61107e-19)
(8.73132 0.397612 -1.66107e-19)
(8.50621 0.449639 -5.14159e-19)
(8.2576 0.507713 0)
(7.98394 0.572482 -3.68916e-19)
(7.68369 0.644514 3.82685e-19)
(7.3552 0.724224 -2.0102e-18)
(6.99686 0.811783 1.66098e-18)
(6.60724 0.90698 -2.654e-18)
(6.18507 1.00909 4.579e-18)
(5.72936 1.11669 8.78073e-18)
(5.23949 1.22736 -8.67564e-18)
(4.71528 1.33731 8.74801e-18)
(4.15716 1.4409 -9.22381e-18)
(3.56601 1.52958 -8.69218e-18)
(2.94178 1.5898 9.25084e-18)
(2.28155 1.59835 0)
(1.53331 1.52142 -1.56142e-18)
(0.883334 1.29653 2.95338e-17)
(9.99185 0.0397495 -6.41664e-20)
(9.97948 0.0737641 3.25278e-20)
(9.94981 0.104414 0)
(9.90139 0.135182 1.67621e-20)
(9.83705 0.167246 5.10321e-20)
(9.75838 0.200913 0)
(9.66521 0.236647 1.41187e-19)
(9.55682 0.275086 -2.8885e-19)
(9.43269 0.316881 1.46944e-19)
(9.29226 0.362694 -3.01601e-19)
(9.13477 0.413235 3.11053e-19)
(8.95935 0.469281 -6.34084e-19)
(8.76508 0.531665 -6.57938e-19)
(8.55097 0.601261 2.36539e-18)
(8.31581 0.67898 -2.78679e-18)
(8.05846 0.765745 1.43285e-18)
(7.77782 0.862435 3.71219e-19)
(7.47255 0.969783 2.34999e-18)
(7.14138 1.08824 -2.40447e-18)
(6.783 1.21783 -1.68355e-18)
(6.39596 1.358 -1.75912e-18)
(5.97879 1.50739 -9.23973e-19)
(5.52969 1.66344 0)
(5.04646 1.822 0)
(4.52629 1.97678 -1.07716e-18)
(3.96497 2.11871 -1.141e-18)
(3.35485 2.23518 1.21454e-18)
(2.68458 2.30848 -1.2904e-18)
(1.8977 2.32414 0)
(1.10755 2.26454 -2.61394e-17)
(9.99104 0.0447497 1.28193e-19)
(9.97729 0.0862091 -6.48313e-20)
(9.94719 0.125054 0)
(9.89942 0.163799 -6.66516e-20)
(9.8363 0.203947 -6.78165e-20)
(9.75918 0.246162 0)
(9.66791 0.291054 -2.80843e-19)
(9.56192 0.339341 1.42693e-19)
(9.44076 0.391772 4.39319e-19)
(9.30391 0.449135 1.41369e-21)
(9.15074 0.512279 0)
(8.98053 0.582118 9.45482e-19)
(8.79259 0.659641 1.10877e-20)
(8.58612 0.74591 -2.65432e-18)
(8.36017 0.842031 1.35955e-18)
(8.11394 0.949127 0)
(7.84662 1.06831 -7.30509e-19)
(7.55734 1.20059 7.56335e-19)
(7.24529 1.34674 -1.56386e-18)
(6.90939 1.5071 -4.10331e-18)
(6.54827 1.6815 2.45001e-18)
(6.16039 1.869 1.40697e-17)
(5.74328 2.06748 7.45319e-18)
(5.29359 2.27336 -1.71743e-17)
(4.80621 2.48111 -1.99783e-18)
(4.27354 2.68312 -2.0987e-18)
(3.6843 2.87008 -2.21465e-18)
(3.02571 3.03068 1.18999e-18)
(2.25496 3.15603 1.25307e-18)
(1.36395 3.27494 -1.38745e-18)
(9.99066 0.0504506 -1.35931e-19)
(9.9762 0.0988162 5.66717e-20)
(9.94599 0.145446 1.6376e-20)
(9.89907 0.192157 1.99269e-19)
(9.83743 0.240448 -1.3479e-19)
(9.76219 0.291204 0)
(9.67318 0.345148 1.39657e-19)
(9.56997 0.40306 -1.42277e-19)
(9.45216 0.465789 0)
(9.31925 0.534245 0)
(9.17071 0.609401 6.08077e-19)
(9.00593 0.692301 -6.21177e-19)
(8.82432 0.784082 1.26882e-18)
(8.62519 0.885976 -6.50715e-19)
(8.40779 0.999256 2.6964e-18)
(8.17154 1.12521 -2.74462e-18)
(7.91583 1.26514 0)
(7.6401 1.42029 2.95132e-18)
(7.34391 1.59176 -3.76283e-18)
(7.02627 1.78032 6.29132e-18)
(6.68599 1.98629 -8.08123e-18)
(6.32152 2.20934 0)
(5.93026 2.44815 -1.22836e-17)
(5.5086 2.70036 -1.0437e-19)
(5.05052 2.96205 1.5049e-17)
(4.5471 3.22774 1.9786e-18)
(3.98629 3.49122 2.07132e-18)
(3.35497 3.74619 0)
(2.64134 3.97386 -1.1496e-18)
(1.66379 4.27127 1.87104e-18)
(9.9905 0.056471 1.83433e-19)
(9.97581 0.111502 1.37016e-19)
(9.94584 0.165497 0)
(9.89998 0.219861 -2.64672e-19)
(9.84003 0.275998 6.71223e-20)
(9.76694 0.334947 6.80355e-20)
(9.6806 0.397549 -2.76815e-19)
(9.58064 0.464668 2.81645e-19)
(9.46666 0.537254 1.45621e-21)
(9.33826 0.616326 -2.91957e-19)
(9.19497 0.702965 0)
(9.03626 0.798335 -1.84078e-18)
(8.8616 0.903704 -1.16668e-20)
(8.6704 1.02044 1.91757e-18)
(8.46211 1.14994 1.98686e-18)
(8.23626 1.29367 -5.39602e-18)
(7.99237 1.45307 2.75707e-18)
(7.73003 1.6296 0)
(7.44892 1.82474 1.47251e-18)
(7.14821 2.03971 4.55768e-18)
(6.82686 2.27537 6.24942e-20)
(6.48343 2.5321 -1.92968e-17)
(6.1155 2.80965 2.48423e-17)
(5.71947 3.10703 -1.19158e-17)
(5.28973 3.42226 1.78173e-18)
(4.81777 3.75212 -2.75298e-17)
(4.29237 4.09228 2.84308e-17)
(3.69666 4.44139 0)
(3.07274 4.75483 3.27067e-17)
(2.0115 5.23032 -3.7208e-17)
(9.99044 0.0625955 -1.27461e-19)
(9.97588 0.124106 -2.68282e-22)
(9.94648 0.18509 -1.2999e-19)
(9.90189 0.246769 1.31902e-19)
(9.84384 0.310465 6.69055e-20)
(9.7732 0.377292 -2.03442e-19)
(9.68992 0.448205 4.12858e-19)
(9.59363 0.524153 -2.80121e-19)
(9.48398 0.606173 2.83583e-19)
(9.36063 0.695372 2.88866e-19)
(9.2232 0.792928 5.8962e-19)
(9.07123 0.900117 0)
(8.90428 1.01833 -1.23681e-18)
(8.72187 1.14904 1.25268e-18)
(8.52355 1.29379 6.45399e-19)
(8.30893 1.45416 0)
(8.07771 1.63181 1.36882e-18)
(7.82952 1.82845 2.8086e-18)
(7.5639 2.04587 -1.13483e-17)
(7.28027 2.28576 -1.50255e-18)
(6.97795 2.54956 5.94429e-18)
(6.65558 2.83844 -1.38254e-17)
(6.31105 3.1533 1.09683e-17)
(5.94094 3.49447 1.60042e-18)
(5.54063 3.86182 0)
(5.10307 4.25424 -1.71701e-18)
(4.6197 4.66782 3.49073e-18)
(4.06385 5.10768 1.76922e-18)
(3.55793 5.48535 -1.82346e-18)
(2.41131 6.12952 1.0036e-18)
(9.99045 0.0686883 0)
(9.9763 0.136485 -1.28406e-19)
(9.94772 0.204126 2.59245e-19)
(9.90459 0.272781 0)
(9.84868 0.343713 -1.3266e-19)
(9.78081 0.418073 -2.68917e-19)
(9.70092 0.496907 -1.3583e-19)
(9.60867 0.581256 -1.38352e-19)
(9.5038 0.672229 -5.65109e-19)
(9.38602 0.771005 2.85732e-19)
(9.25502 0.878849 -5.84613e-19)
(9.11046 0.997143 5.92671e-19)
(8.95195 1.12739 0)
(8.77912 1.27116 0)
(8.59161 1.43011 0)
(8.38918 1.60598 -1.30344e-18)
(8.17165 1.80063 3.93431e-18)
(7.9386 2.0161 -6.72707e-18)
(7.68951 2.25445 6.82086e-18)
(7.42415 2.51778 7.02927e-18)
(7.14204 2.80822 5.78245e-18)
(6.84199 3.12773 -1.0162e-17)
(6.52232 3.47833 1.49974e-18)
(6.18018 3.86169 -4.53817e-18)
(5.81186 4.27917 -2.7817e-17)
(5.41195 4.73137 -3.08963e-18)
(4.97659 5.21339 1.65991e-18)
(4.46092 5.73927 2.28833e-17)
(4.08754 6.16093 1.69891e-18)
(2.85425 6.94903 2.81544e-17)
(9.99054 0.0746558 0)
(9.97694 0.148523 0)
(9.94941 0.222512 -9.69562e-20)
(9.90795 0.297791 3.27477e-20)
(9.85441 0.375599 6.63133e-20)
(9.78958 0.457115 1.33895e-19)
(9.71338 0.543457 -1.35616e-19)
(9.62555 0.635742 2.74367e-19)
(9.52586 0.735143 0)
(9.41412 0.842905 -5.65559e-19)
(9.29009 0.960364 -5.77997e-19)
(9.1535 1.08899 -3.5157e-21)
(9.00409 1.23039 5.93718e-19)
(8.84157 1.38624 -2.43374e-18)
(8.6657 1.55828 2.45689e-18)
(8.47645 1.74841 -1.26037e-18)
(8.27351 1.95875 -1.27212e-18)
(8.05655 2.1916 1.30681e-18)
(7.82546 2.44937 -1.33021e-18)
(7.57999 2.73455 5.39976e-18)
(7.3198 3.04988 -5.44916e-18)
(7.04402 3.39823 0)
(6.7515 3.78268 0)
(6.4402 4.20621 2.87445e-18)
(6.10724 4.67137 2.30595e-17)
(5.74816 5.18015 2.83699e-18)
(5.36555 5.72559 -3.18994e-18)
(4.88754 6.33373 -2.21744e-17)
(4.64514 6.78897 0)
(3.32524 7.69678 0)
(9.99068 0.0804337 -7.88815e-21)
(9.97775 0.16013 7.96078e-21)
(9.95146 0.24015 9.62001e-20)
(9.91188 0.321694 -1.62268e-19)
(9.86091 0.405997 6.55897e-20)
(9.79935 0.494267 0)
(9.72713 0.587676 9.54275e-22)
(9.64404 0.687402 0)
(9.54991 0.794676 -2.75702e-19)
(9.44463 0.910796 5.6163e-19)
(9.32804 1.03715 -5.6698e-19)
(9.19994 1.1753 -5.82608e-19)
(9.06019 1.32693 5.79797e-19)
(8.90865 1.49379 2.38673e-18)
(8.7452 1.67771 -2.40509e-18)
(8.56994 1.8808 0)
(8.38242 2.10538 1.24866e-18)
(8.1827 2.35399 1.25341e-18)
(7.97099 2.62937 0)
(7.74702 2.93446 1.03649e-17)
(7.51073 3.27263 -7.82778e-18)
(7.26158 3.64757 -1.31632e-17)
(6.99894 4.06343 1.0597e-17)
(6.72171 4.52451 -2.63479e-18)
(6.428 5.03455 -1.85798e-17)
(6.113 5.59695 2.40243e-17)
(5.78707 6.20229 -2.61379e-18)
(5.34492 6.89197 1.83447e-17)
(5.22441 7.38443 -6.36293e-17)
(3.81925 8.40675 4.59938e-17)
(9.99085 0.0859769 -1.25627e-19)
(9.9787 0.171229 -1.26678e-19)
(9.95381 0.256953 -2.55952e-19)
(9.91629 0.344393 1.29418e-19)
(9.86808 0.434795 -1.3076e-19)
(9.81001 0.529396 1.31806e-19)
(9.74202 0.629405 2.67511e-19)
(9.66395 0.736048 1.2108e-21)
(9.57572 0.850607 5.47001e-19)
(9.47728 0.974424 1.10807e-18)
(9.36855 1.10893 5.6582e-19)
(9.24936 1.25574 -1.70332e-18)
(9.11976 1.41662 5.73783e-19)
(8.97976 1.59337 -1.17026e-18)
(8.8294 1.78791 1.17719e-18)
(8.66869 2.00255 0)
(8.49744 2.23976 -6.05242e-18)
(8.31616 2.50227 3.642e-18)
(8.12501 2.79314 1.22408e-18)
(7.92412 3.11584 0)
(7.71369 3.47428 -2.51312e-18)
(7.49355 3.87292 -5.00017e-18)
(7.26385 4.31703 1.24602e-17)
(7.02426 4.8122 2.51439e-18)
(6.77417 5.36376 1.96175e-17)
(6.50763 5.97721 -4.13688e-17)
(6.24297 6.64132 2.85366e-18)
(5.83897 7.41579 1.91987e-17)
(5.83085 7.96595 1.1611e-18)
(4.34089 9.12402 3.97372e-17)
(9.99105 0.0912489 2.50745e-19)
(9.97975 0.181754 2.52719e-19)
(9.95641 0.272842 1.59468e-19)
(9.9211 0.3658 -1.60441e-19)
(9.87583 0.461893 -2.59099e-19)
(9.82142 0.562379 2.61681e-19)
(9.75789 0.6685 0)
(9.68511 0.781515 1.17597e-21)
(9.60305 0.902744 -2.73997e-19)
(9.51177 1.03357 2.70291e-19)
(9.41122 1.17547 0)
(9.30129 1.33006 2.24303e-18)
(9.18226 1.49915 -2.26137e-18)
(9.0543 1.6846 1.14771e-18)
(8.9175 1.88846 -1.78495e-21)
(8.77184 2.11313 3.50008e-18)
(8.6177 2.36119 -2.33284e-18)
(8.45572 2.63554 0)
(8.28615 2.93951 -5.96038e-18)
(8.10976 3.2771 2.39364e-18)
(7.92693 3.65264 7.16466e-18)
(7.73812 4.0713 -2.36968e-17)
(7.54452 4.53948 1.64097e-17)
(7.34649 5.06411 -9.29487e-18)
(7.14483 5.6524 -1.57891e-17)
(6.93308 6.31338 1.78426e-17)
(6.73693 7.03703 0)
(6.38315 7.90276 -2.8495e-17)
(6.48765 8.55169 3.19738e-17)
(4.91303 9.91073 -2.5664e-19)
(9.99129 0.0962185 -4.04193e-22)
(9.98089 0.191657 -1.57513e-19)
(9.95919 0.287752 -9.48874e-20)
(9.92623 0.38584 2.55711e-19)
(9.88404 0.487201 9.61227e-22)
(9.83348 0.593116 -3.91265e-19)
(9.77459 0.704847 -4.19104e-22)
(9.7073 0.823677 3.9735e-19)
(9.63162 0.950951 -1.25965e-21)
(9.54773 1.08809 -8.12917e-19)
(9.45564 1.23659 -3.01282e-21)
(9.3553 1.39806 -3.11405e-21)
(9.24719 1.5743 5.58825e-19)
(9.13161 1.76725 1.12585e-18)
(9.00864 1.97905 3.13105e-21)
(8.87858 2.21215 -3.41671e-18)
(8.7422 2.46915 1.15067e-18)
(8.60007 2.75306 5.73809e-18)
(8.45292 3.06752 1.15044e-18)
(8.30203 3.41682 -4.54279e-18)
(8.14824 3.80567 1.13904e-17)
(7.99285 4.23982 -1.57207e-17)
(7.83796 4.7265 8.87466e-18)
(7.68533 5.27409 -8.57862e-18)
(7.53746 5.89177 2.28504e-17)
(7.38905 6.59303 -3.20104e-17)
(7.27326 7.37472 3.0432e-17)
(7.00031 8.33415 -1.66149e-17)
(7.23876 9.15076 1.77408e-18)
(5.58603 10.8649 -1.78937e-19)
(9.99156 0.100863 -2.48905e-19)
(9.9821 0.200901 0)
(9.96212 0.301631 1.26418e-19)
(9.93163 0.404443 -1.27403e-19)
(9.89263 0.510635 2.56909e-19)
(9.84605 0.6215 -2.58026e-19)
(9.79196 0.738315 0)
(9.73032 0.862379 -2.63687e-19)
(9.66121 0.995045 5.2926e-19)
(9.58491 1.13776 5.36305e-19)
(9.50148 1.29203 -1.61783e-18)
(9.41097 1.45944 -5.45023e-19)
(9.31402 1.64176 5.46649e-19)
(9.21101 1.84099 0)
(9.1021 2.05931 -1.11042e-18)
(8.98803 2.29914 3.75481e-21)
(8.86971 2.56309 -2.2321e-18)
(8.7478 2.85426 1.1044e-18)
(8.6236 3.17639 -1.1182e-18)
(8.49878 3.53389 3.48605e-20)
(8.37491 3.93173 -2.189e-18)
(8.25418 4.37594 4.29287e-18)
(8.1398 4.8742 0)
(8.03552 5.43585 0)
(7.94649 6.07164 0)
(7.87135 6.79821 0)
(7.85226 7.6228 1.1464e-17)
(7.71769 8.64478 -1.12514e-17)
(8.1283 9.68633 -7.56462e-19)
(6.5829 12.1907 1.97044e-17)
(0.116396 -0.0132015 -1.1186e-19)
(-0.274623 0.26355 0)
(-0.817188 0.313541 8.54286e-20)
(-1.46032 0.327466 0)
(-2.17154 0.330555 0)
(-2.92782 0.328237 0)
(-3.70767 0.321891 0)
(-4.49338 0.311959 0)
(-5.27125 0.298688 1.4404e-19)
(-6.03117 0.282294 -3.18474e-19)
(-6.76585 0.262975 5.86226e-19)
(-7.46918 0.240851 -2.87077e-19)
(-8.1356 0.216017 3.68133e-20)
(-8.75931 0.188674 1.01155e-19)
(-9.3338 0.159009 -1.36096e-20)
(-9.85242 0.127016 4.34888e-21)
(-10.3066 0.0926183 9.21555e-21)
(-10.6865 0.0557351 0)
(-10.9813 0.0162774 0)
(-11.178 -0.0261896 0)
(-11.261 -0.0731911 0)
(-11.2156 -0.128534 0)
(-11.0147 -0.192809 -1.29452e-20)
(-10.6338 -0.26726 0)
(-10.0509 -0.35391 -4.89201e-21)
(-9.23771 -0.456254 0)
(-8.13315 -0.58145 0)
(-6.60907 -0.743764 0)
(-4.52397 -0.947189 -1.76784e-21)
(-2.0331 -1.10339 1.68939e-21)
(-0.168964 0.277805 5.264e-20)
(-0.575621 0.576032 5.63036e-18)
(-1.17392 0.698561 -9.88005e-18)
(-1.87372 0.771325 4.33559e-18)
(-2.64805 0.818432 0)
(-3.46657 0.848223 0)
(-4.30434 0.864307 2.92074e-18)
(-5.1422 0.868574 -2.58976e-18)
(-5.96657 0.862137 -3.89925e-19)
(-6.76796 0.845822 -1.08274e-19)
(-7.53968 0.820245 -6.16519e-19)
(-8.27625 0.78571 5.90902e-19)
(-8.9729 0.74237 1.48469e-19)
(-9.62467 0.69048 -9.05449e-20)
(-10.2251 0.630253 -2.35066e-20)
(-10.7674 0.561547 -1.08295e-20)
(-11.2438 0.484019 -3.43626e-20)
(-11.6445 0.397439 4.67592e-20)
(-11.9593 0.301603 -8.25959e-20)
(-12.1761 0.196141 -5.09014e-21)
(-12.2815 0.0797156 0)
(-12.2597 -0.0510827 1.28425e-20)
(-12.0998 -0.195557 2.52947e-20)
(-11.7865 -0.353242 -2.32618e-20)
(-11.3058 -0.524828 4.64679e-21)
(-10.6439 -0.71266 -1.26782e-22)
(-9.77 -0.923603 -4.20937e-21)
(-8.61751 -1.17422 5.62925e-22)
(-7.18042 -1.46912 1.94255e-21)
(-5.96026 -1.71983 -2.19729e-21)
(-0.188383 0.71692 7.36819e-20)
(-0.643425 1.05731 1.04314e-17)
(-1.28305 1.23586 -1.78437e-17)
(-2.00696 1.34948 7.79802e-18)
(-2.79642 1.4213 -6.66982e-18)
(-3.62232 1.46273 6.58446e-18)
(-4.46092 1.47987 5.19779e-18)
(-5.29435 1.47624 -4.78653e-18)
(-6.11082 1.45397 -1.55674e-18)
(-6.90261 1.41464 3.18793e-18)
(-7.66442 1.35944 -1.4049e-18)
(-8.39184 1.28905 0)
(-9.0811 1.20394 -1.8775e-19)
(-9.7286 1.1045 1.21497e-19)
(-10.3288 0.991028 1.21127e-19)
(-10.8748 0.863633 5.75115e-21)
(-11.3595 0.722281 0)
(-11.7742 0.567084 0)
(-12.109 0.398259 -6.85576e-21)
(-12.3528 0.21627 1.34135e-19)
(-12.4936 0.0218986 0)
(-12.518 -0.184256 -5.60236e-20)
(-12.4176 -0.407189 -2.51841e-20)
(-12.1817 -0.647811 4.41781e-20)
(-11.8017 -0.904137 -2.12398e-20)
(-11.2724 -1.17442 -1.5771e-20)
(-10.5789 -1.45854 3.93418e-21)
(-9.68169 -1.76358 -2.19715e-21)
(-8.60407 -2.10011 -1.35361e-21)
(-7.77764 -2.4282 1.99194e-21)
(-0.0930101 1.21584 2.32165e-17)
(-0.549191 1.59472 -1.888e-17)
(-1.21926 1.80758 8.27943e-18)
(-1.95001 1.94649 3.35438e-19)
(-2.73244 2.0333 5.74932e-18)
(-3.54071 2.08093 -6.46137e-18)
(-4.3547 2.09714 -8.73123e-21)
(-5.15996 2.08672 5.20173e-19)
(-5.94723 2.05267 0)
(-6.71112 1.99716 -3.61103e-19)
(-7.44788 1.92172 0)
(-8.15421 1.8273 -2.09866e-19)
(-8.82704 1.71452 -7.78926e-20)
(-9.463 1.58367 -4.39799e-20)
(-10.0574 1.43462 -2.41274e-20)
(-10.6039 1.26714 2.35509e-20)
(-11.0948 1.08084 -1.1695e-19)
(-11.5221 0.875239 1.15e-19)
(-11.8757 0.649784 -2.349e-19)
(-12.1452 0.40413 2.99436e-19)
(-12.3196 0.138657 -1.16368e-19)
(-12.3865 -0.14604 1.71058e-19)
(-12.3376 -0.449111 0)
(-12.1698 -0.770469 0)
(-11.8768 -1.1069 2.26019e-20)
(-11.4584 -1.45391 1.53397e-20)
(-10.9086 -1.80591 1.2032e-20)
(-10.2044 -2.16218 1.59944e-21)
(-9.38047 -2.53478 1.27381e-21)
(-8.78166 -2.89592 -1.90771e-21)
(0.0764333 1.76134 2.13553e-17)
(-0.341836 2.1626 -6.33775e-19)
(-1.03018 2.39292 -4.72421e-19)
(-1.75281 2.54394 -7.99868e-19)
(-2.51409 2.63725 -1.1691e-17)
(-3.29051 2.68558 3.29973e-19)
(-4.06607 2.6973 -2.91144e-19)
(-4.83038 2.67774 -5.06306e-19)
(-5.57696 2.63021 2.69969e-18)
(-6.30261 2.55705 -2.65366e-18)
(-7.00492 2.45971 0)
(-7.68159 2.339 2.16782e-20)
(-8.33004 2.19544 0)
(-8.94685 2.02907 5.01576e-20)
(-9.52748 1.83948 -7.39424e-20)
(-10.0663 1.62627 2.3316e-19)
(-10.5561 1.38919 -1.69896e-19)
(-10.989 1.12818 8.48295e-20)
(-11.3554 0.843305 0)
(-11.6453 0.535287 1.05529e-20)
(-11.8487 0.205939 -1.28412e-19)
(-11.9549 -0.142149 -2.07103e-21)
(-11.9533 -0.508199 5.95311e-20)
(-11.8474 -0.892881 5.87665e-20)
(-11.6329 -1.29094 -9.46162e-22)
(-11.3122 -1.69488 -8.65693e-22)
(-10.8845 -2.09484 -6.78997e-21)
(-10.3389 -2.48474 -4.90665e-21)
(-9.71368 -2.87321 -5.53602e-23)
(-9.27376 -3.22898 7.79246e-23)
(0.300878 2.33215 1.98432e-17)
(-0.0510126 2.74353 0)
(-0.746474 2.98175 0)
(-1.44754 3.13545 0)
(-2.17618 3.22827 -3.3539e-19)
(-2.90988 3.27252 0)
(-3.63682 3.27693 0)
(-4.35057 3.2471 0)
(-5.0476 3.18639 7.82857e-19)
(-5.72658 3.09712 3.05358e-19)
(-6.38638 2.98065 -1.70972e-18)
(-7.02554 2.83758 1.85164e-18)
(-7.642 2.66819 0)
(-8.23287 2.47239 -5.06267e-20)
(-8.79358 2.24954 1.20081e-19)
(-9.31899 1.99899 -1.03344e-20)
(-9.80269 1.72018 1.48685e-19)
(-10.2369 1.4127 -8.63827e-20)
(-10.6127 1.0764 0)
(-10.9198 0.711916 -1.23123e-19)
(-11.1487 0.321455 -1.47649e-19)
(-11.29 -0.0909807 2.99371e-19)
(-11.33 -0.520314 -1.04075e-20)
(-11.2798 -0.965402 -1.23431e-19)
(-11.1361 -1.41999 1.06055e-19)
(-10.903 -1.87406 -6.77234e-20)
(-10.5826 -2.3147 -1.68382e-20)
(-10.1722 -2.73171 1.04208e-20)
(-9.70937 -3.12701 -4.93085e-21)
(-9.39047 -3.46445 -5.37386e-22)
(0.573865 2.90505 -1.82557e-17)
(0.309426 3.32232 0)
(-0.38736 3.56367 0)
(-1.05569 3.71299 0)
(-1.74152 3.79958 1.01715e-17)
(-2.42272 3.83563 -8.98959e-18)
(-3.09242 3.83041 0)
(-3.74788 3.78949 3.66386e-18)
(-4.38835 3.71603 -6.21913e-18)
(-5.01409 3.61195 2.29828e-18)
(-5.6251 3.47836 0)
(-6.22061 3.31545 -4.69853e-19)
(-6.79894 3.12302 4.58764e-19)
(-7.35785 2.90068 -3.58918e-22)
(-7.8931 2.64744 0)
(-8.39968 2.36239 -2.50651e-19)
(-8.87189 2.04477 1.2026e-19)
(-9.30236 1.694 4.72834e-19)
(-9.68263 1.30997 -6.06004e-19)
(-10.0028 0.893556 0)
(-10.2532 0.44753 1.52827e-19)
(-10.4251 -0.0225373 -1.603e-19)
(-10.5032 -0.507638 6.48986e-20)
(-10.5034 -1.00445 -2.13936e-19)
(-10.4246 -1.50679 -5.80736e-20)
(-10.2716 -2.00225 0)
(-10.0484 -2.47597 1.70008e-20)
(-9.75725 -2.91419 -2.32275e-20)
(-9.43199 -3.31059 -2.83911e-21)
(-9.21167 -3.626 2.3934e-21)
(0.893391 3.47976 0)
(0.731571 3.8915 0)
(0.0325822 4.13065 0)
(-0.592766 4.26832 0)
(-1.22607 4.34333 -5.85122e-19)
(-1.84573 4.36787 -5.56991e-19)
(-2.45059 4.35141 7.15868e-18)
(-3.04135 4.29911 -7.46351e-18)
(-3.61964 4.21366 0)
(-4.18699 4.09636 2.53392e-19)
(-4.74434 3.94789 1.30498e-18)
(-5.29145 3.76796 -1.27583e-18)
(-5.82683 3.55582 0)
(-6.34879 3.3108 -2.76861e-20)
(-6.85375 3.0315 0)
(-7.33683 2.71668 -1.27354e-19)
(-7.79288 2.36543 0)
(-8.21496 1.97687 8.10192e-19)
(-8.59494 1.55072 -2.48688e-19)
(-8.92316 1.08772 0)
(-9.18925 0.591015 0)
(-9.38403 0.0682972 1.98138e-19)
(-9.5014 -0.467957 3.48589e-19)
(-9.54554 -1.01049 -2.4267e-19)
(-9.52556 -1.55348 7.29059e-20)
(-9.44631 -2.08291 0)
(-9.31309 -2.58343 -1.79972e-20)
(-9.13021 -3.03883 3.56899e-20)
(-8.92602 -3.4343 1.21974e-21)
(-8.7914 -3.72804 3.52357e-21)
(1.24945 4.06417 0)
(1.20004 4.44921 0)
(0.498067 4.67617 -1.06073e-17)
(-0.0719064 4.79315 2.05806e-17)
(-0.642626 4.85149 -7.66077e-19)
(-1.19208 4.86208 -9.15039e-18)
(-1.72526 4.8336 -4.35624e-19)
(-2.24589 4.77038 3.70234e-19)
(-2.75749 4.67433 -3.01039e-19)
(-3.26252 4.54591 -2.62551e-19)
(-3.76241 4.38524 1.56509e-19)
(-4.25754 4.19157 0)
(-4.74658 3.96334 -1.16608e-20)
(-5.22796 3.69961 8.76127e-20)
(-5.69886 3.39866 1.25882e-19)
(-6.15483 3.05876 0)
(-6.59098 2.6787 0)
(-7.00081 2.25727 -2.76001e-19)
(-7.37648 1.79392 -1.62137e-19)
(-7.70844 1.28933 0)
(-7.98582 0.747073 2.13615e-19)
(-8.1995 0.177017 -2.09165e-19)
(-8.34886 -0.404902 1.15652e-20)
(-8.42909 -0.987444 1.88351e-19)
(-8.46043 -1.5638 -8.15355e-20)
(-8.44811 -2.11945 0)
(-8.39886 -2.64035 -2.0898e-20)
(-8.31692 -3.10976 2.64888e-20)
(-8.22381 -3.50502 -6.31021e-21)
(-8.16917 -3.77941 9.23177e-22)
(1.62935 4.65549 0)
(1.69768 4.98904 0)
(0.993397 5.19042 0)
(0.494693 5.27724 -6.12822e-19)
(-0.00272137 5.3151 5.67304e-19)
(-0.473441 5.31047 9.91995e-19)
(-0.928794 5.27027 4.54728e-19)
(-1.37473 5.19756 -3.07495e-18)
(-1.81604 5.09318 5.78954e-19)
(-2.25579 4.9565 2.06638e-18)
(-2.6955 4.78667 -3.20294e-20)
(-3.13577 4.58276 5.69551e-20)
(-3.57584 4.34255 -1.48154e-19)
(-4.01409 4.06431 9.58128e-20)
(-4.44818 3.74623 2.84783e-20)
(-4.87433 3.38606 -4.93783e-19)
(-5.28799 2.98211 4.88508e-19)
(-5.68314 2.53275 0)
(-6.0522 2.03712 0)
(-6.38552 1.4959 2.23532e-19)
(-6.67086 0.913061 -7.0192e-19)
(-6.8979 0.300228 4.86924e-19)
(-7.06989 -0.323374 -4.73435e-19)
(-7.17649 -0.940237 0)
(-7.24958 -1.54233 -8.91098e-20)
(-7.29546 -2.11549 1.241e-20)
(-7.32332 -2.64916 4.63891e-21)
(-7.33657 -3.12904 0)
(-7.34918 -3.5265 0)
(-7.37523 -3.78529 -4.44592e-21)
(2.01654 5.2415 -4.78677e-20)
(2.20522 5.4971 0)
(1.50223 5.65836 -5.8474e-19)
(1.0957 5.70764 -8.78074e-18)
(0.6826 5.72346 1.65757e-17)
(0.298945 5.70413 -1.44222e-18)
(-0.0732181 5.65409 -7.28355e-18)
(-0.440742 5.57461 2.56685e-18)
(-0.809 5.46505 -2.72681e-19)
(-1.1812 5.32377 -2.10969e-18)
(-1.55882 5.14863 -4.82648e-19)
(-1.9421 4.93823 2.4312e-19)
(-2.33065 4.69036 4.72196e-20)
(-2.72321 4.40234 0)
(-3.11784 4.07195 2.71609e-20)
(-3.51145 3.69667 -5.81511e-19)
(-3.90015 3.27413 5.75547e-19)
(-4.27862 2.80201 0)
(-4.63968 2.27885 0)
(-4.97331 1.70544 -4.90824e-19)
(-5.26475 1.08584 2.73054e-19)
(-5.50042 0.433055 2.79704e-19)
(-5.68727 -0.229399 -8.688e-21)
(-5.81017 -0.875181 1.30356e-19)
(-5.91489 -1.49514 3.08032e-19)
(-6.00822 -2.07605 0)
(-6.10361 -2.61297 -3.7349e-21)
(-6.20491 -3.09772 8.81246e-21)
(-6.31945 -3.49978 1.80587e-20)
(-6.43341 -3.74837 0)
(2.39119 5.80484 2.19243e-17)
(2.7024 5.95062 -3.87141e-17)
(2.00685 6.06111 1.99496e-17)
(1.7209 6.06944 -5.53079e-19)
(1.40145 6.06472 1.07828e-18)
(1.113 6.03392 -7.27515e-18)
(0.828541 5.97766 1.03839e-17)
(0.54238 5.8954 -2.73817e-18)
(0.249205 5.78474 -2.55758e-19)
(-0.0538194 5.6428 2.03081e-19)
(-0.36779 5.46669 8.99946e-20)
(-0.692266 5.25433 3.31807e-20)
(-1.02674 5.00328 -5.53908e-19)
(-1.37052 4.71046 -1.74299e-19)
(-1.72209 4.3729 5.24046e-19)
(-2.07898 3.98799 3.64868e-19)
(-2.43838 3.5527 -2.86113e-19)
(-2.79624 3.0637 0)
(-3.14622 2.51829 -5.13688e-19)
(-3.47839 1.91772 -1.30036e-20)
(-3.77525 1.26509 -6.00399e-19)
(-4.01787 0.573055 3.23773e-19)
(-4.21699 -0.129114 3.18445e-19)
(-4.34875 -0.799734 -2.67878e-19)
(-4.47862 -1.42986 -2.19841e-19)
(-4.60937 -2.00851 5.72287e-20)
(-4.75997 -2.53747 7.69835e-20)
(-4.93802 -3.01784 8.88488e-20)
(-5.14734 -3.42418 -6.68545e-20)
(-5.36264 -3.66941 0)
(2.72393 6.33079 2.09459e-17)
(3.17142 6.32189 2.98079e-19)
(2.48607 6.38779 9.75828e-18)
(2.35876 6.34649 -9.76673e-18)
(2.13617 6.32535 -1.09681e-18)
(1.95197 6.28825 -3.60381e-18)
(1.76045 6.23245 3.57331e-18)
(1.55905 6.1541 2.03595e-18)
(1.3437 6.04918 -2.09233e-18)
(1.11257 5.91342 -5.16683e-19)
(0.864108 5.74221 3.3913e-19)
(0.598253 5.53119 1.633e-20)
(0.319607 5.28045 8.32711e-20)
(0.0276055 4.9862 -1.71244e-19)
(-0.276588 4.64541 -2.77128e-19)
(-0.59077 4.25499 6.97019e-19)
(-0.913439 3.81136 4.88434e-20)
(-1.24244 3.30997 -9.97757e-19)
(-1.57291 2.74736 1.69105e-18)
(-1.89674 2.12387 -2.94973e-19)
(-2.19643 1.43908 3.48094e-19)
(-2.44704 0.708964 -7.20078e-19)
(-2.66212 -0.0269 7.47206e-19)
(-2.80149 -0.721177 3.19012e-19)
(-2.95824 -1.35382 -1.32159e-19)
(-3.12273 -1.92153 1.5326e-19)
(-3.31713 -2.4316 1.58912e-21)
(-3.5564 -2.89485 -2.16632e-20)
(-3.84377 -3.29916 3.15876e-20)
(-4.17754 -3.54829 0)
(2.9613 6.80467 0)
(3.56314 6.586 -9.01306e-18)
(2.95351 6.59641 9.47541e-18)
(2.97396 6.51544 4.17435e-18)
(2.87871 6.48617 -3.61219e-18)
(2.79876 6.45243 4.21735e-19)
(2.70202 6.40611 0)
(2.58564 6.33964 1.01497e-18)
(2.448 6.24699 -7.90883e-19)
(2.28892 6.1229 0)
(2.10879 5.96276 1.18607e-19)
(1.90773 5.76159 -1.50239e-20)
(1.68866 5.51761 3.00529e-19)
(1.45296 5.22798 -3.00719e-19)
(1.20222 4.89048 -8.7718e-20)
(0.93835 4.50213 2.92726e-19)
(0.662594 4.05989 5.03673e-19)
(0.37699 3.55996 7.64898e-20)
(0.0795106 2.98836 -6.09092e-19)
(-0.222642 2.35202 -7.56159e-21)
(-0.509102 1.65268 3.89136e-19)
(-0.752031 0.883088 -4.1605e-19)
(-1.00282 0.0821152 8.63722e-21)
(-1.17232 -0.633145 -3.60999e-19)
(-1.36186 -1.26328 1.47378e-19)
(-1.56704 -1.81661 -1.16639e-19)
(-1.80101 -2.30228 -1.26891e-19)
(-2.08741 -2.73791 -2.62227e-20)
(-2.42381 -3.12774 0)
(-2.8875 -3.38561 0)
(3.05749 7.32612 9.89382e-18)
(3.69309 6.79041 8.34211e-18)
(3.40514 6.66854 -4.20905e-18)
(3.55369 6.56541 4.16881e-18)
(3.60954 6.53477 0)
(3.63691 6.51611 -3.9239e-19)
(3.6348 6.4904 1.16613e-18)
(3.60299 6.44572 -1.39444e-18)
(3.54237 6.37347 1.11655e-19)
(3.45477 6.26742 -4.55563e-19)
(3.34219 6.1228 9.82453e-20)
(3.20588 5.93492 -2.4765e-20)
(3.04798 5.70107 0)
(2.8706 5.41886 0)
(2.67585 5.08624 -5.59128e-19)
(2.46589 4.70071 -4.05342e-20)
(2.24253 4.2596 0)
(2.00854 3.75986 0)
(1.76359 3.19478 0)
(1.50757 2.56032 2.52883e-21)
(1.25376 1.86209 -3.70566e-19)
(1.03961 1.10561 4.10896e-19)
(0.800985 0.299472 -6.60155e-19)
(0.547616 -0.471909 -1.91893e-19)
(0.306516 -1.12254 0)
(0.0470557 -1.67378 0)
(-0.234362 -2.14629 0)
(-0.562493 -2.55685 6.86901e-20)
(-0.917101 -2.91918 -3.46646e-21)
(-1.49407 -3.18489 3.46336e-21)
(9.99183 0.105241 1.04735e-19)
(9.98339 0.209609 1.50352e-20)
(9.96524 0.314681 9.0552e-20)
(9.93736 0.4219 3.04783e-20)
(9.90175 0.532581 -6.15165e-20)
(9.85935 0.648023 1.86173e-19)
(9.8103 0.76951 1.24732e-19)
(9.7546 0.898347 2.51072e-19)
(9.69241 1.03588 -7.62994e-19)
(9.62407 1.18357 1.64232e-21)
(9.54972 1.34292 -2.5355e-19)
(9.46955 1.51547 0)
(9.3843 1.70293 0)
(9.29438 1.90732 1.04941e-18)
(9.20025 2.13084 -1.04972e-18)
(9.10297 2.37581 -1.04961e-18)
(9.00337 2.6448 1.04295e-18)
(8.9026 2.9409 3.14017e-18)
(8.80239 3.2678 -4.16735e-18)
(8.70484 3.62987 6.21119e-18)
(8.61223 4.032 -2.05e-18)
(8.52779 4.48016 3.94998e-18)
(8.45611 4.98185 -7.69137e-18)
(8.40298 5.54619 1.10281e-17)
(8.37715 6.18402 -2.03564e-19)
(8.38413 6.91095 -2.76592e-19)
(8.47684 7.73955 -4.56789e-18)
(8.55684 8.73488 -3.81166e-18)
(9.42101 9.79826 3.616e-18)
(10.1287 11.9324 -8.15768e-19)
(9.99211 0.109364 -1.01419e-19)
(9.98478 0.217791 -4.38523e-20)
(9.96858 0.326907 -8.85059e-20)
(9.94345 0.438199 1.77212e-19)
(9.91137 0.552995 -8.75104e-23)
(9.87334 0.672591 -6.02926e-20)
(9.82954 0.798275 -2.41871e-19)
(9.78003 0.931345 -3.66099e-19)
(9.72501 1.07313 0)
(9.66485 1.22509 7.41495e-19)
(9.59983 1.38872 1.24354e-18)
(9.53031 1.56548 4.98208e-19)
(9.45706 1.75703 0)
(9.38047 1.96533 0)
(9.30144 2.19252 0)
(9.2212 2.44085 0)
(9.14061 2.71276 -1.27885e-20)
(9.06124 3.01117 -2.01385e-18)
(8.98522 3.33958 1.9843e-18)
(8.91512 3.70211 -9.69333e-19)
(8.8538 4.10322 5.71648e-18)
(8.8055 4.54832 -3.75032e-18)
(8.77592 5.04391 -1.78046e-18)
(8.77231 5.59743 0)
(8.80619 6.21728 1.59476e-18)
(8.88808 6.91265 -7.36806e-19)
(9.06865 7.68815 0)
(9.27426 8.54717 0)
(9.86823 9.37687 -2.65459e-19)
(10.5177 10.122 8.24063e-19)
(9.99242 0.113165 2.32968e-19)
(9.98624 0.225316 7.10172e-21)
(9.97209 0.338125 -1.28426e-19)
(9.94984 0.453119 -2.30796e-19)
(9.92146 0.571629 2.31272e-19)
(9.88798 0.694935 -2.32802e-19)
(9.84961 0.824318 2.35591e-19)
(9.8065 0.961071 2.37155e-19)
(9.75889 1.10651 0)
(9.7071 1.26204 -4.80095e-19)
(9.6516 1.42911 -3.62905e-21)
(9.59298 1.60913 -3.98532e-21)
(9.53193 1.80371 0)
(9.46894 2.01467 4.79831e-19)
(9.40512 2.244 1.44909e-18)
(9.34182 2.49384 0)
(9.28036 2.76652 -9.63838e-19)
(9.22243 3.06462 -1.9185e-18)
(9.17025 3.39123 9.36733e-19)
(9.12698 3.75006 1.18159e-20)
(9.09591 4.14483 -2.2937e-20)
(9.08187 4.5799 0)
(9.09124 5.06021 2.55534e-18)
(9.13134 5.59035 -8.1602e-19)
(9.2136 6.17451 -1.53326e-18)
(9.34715 6.81342 7.36728e-19)
(9.56331 7.49947 0)
(9.80664 8.19715 4.72614e-18)
(10.1646 8.84379 -1.25192e-17)
(10.6883 9.45556 -2.86846e-19)
(9.99276 0.116597 -1.06625e-19)
(9.98778 0.232102 -3.45404e-21)
(9.97572 0.34821 9.75095e-20)
(9.95645 0.466478 -2.09171e-19)
(9.93193 0.588241 -1.97525e-19)
(9.90318 0.71476 1.98823e-19)
(9.87041 0.847288 0)