/*--------------------------------*- C++ -*----------------------------------*\
| =========                 |                                                 |
| \\      /  F ield         | OpenFOAM: The Open Source CFD Toolbox           |
|  \\    /   O peration     | Version:  2006                                  |
|   \\  /    A nd           | Website:  www.openfoam.com                      |
|    \\/     M anipulation  |                                                 |
\*---------------------------------------------------------------------------*/
FoamFile
{
    version     2.0;
    format      ascii;
    class       volVectorField;
    location    "0.8";
    object      U;
}
// * * * * * * * * * * * * * * * * * * * * * * * * * * * * * * * * * * * * * //

dimensions      [0 1 -1 0 0 0 0];


internalField   nonuniform List<vector> 
2790
(
(9.94084 0.0192339 8.06196e-21)
(9.88175 0.026786 2.46017e-20)
(9.79518 0.031684 -1.67063e-20)
(9.68681 0.0367255 3.41586e-20)
(9.56312 0.0419663 -5.22986e-20)
(9.42544 0.0473375 -6.97271e-23)
(9.27296 0.0529521 0)
(9.10464 0.0589644 0)
(8.9196 0.065513 0)
(8.7169 0.0727235 0)
(8.49537 0.0807276 0)
(8.25367 0.0896728 7.44952e-20)
(7.99033 0.0997171 1.10053e-20)
(7.70378 0.111021 1.84839e-19)
(7.39241 0.123755 -4.81824e-19)
(7.05461 0.138106 4.02042e-19)
(6.68882 0.154248 2.11945e-19)
(6.29363 0.172332 0)
(5.8679 0.192473 2.36858e-19)
(5.41087 0.21472 0)
(4.92236 0.239032 2.68949e-19)
(4.40292 0.265236 -2.88424e-19)
(3.85404 0.292969 -9.39567e-19)
(3.2784 0.321612 2.01021e-18)
(2.68013 0.350176 -3.66553e-18)
(2.06506 0.377024 3.17592e-18)
(1.44087 0.398893 0)
(0.819175 0.402276 0)
(0.176146 0.270447 -1.0376e-18)
(-0.152053 -0.424426 -5.60045e-19)
(9.99647 0.0366303 3.21632e-20)
(9.9896 0.0539501 1.6293e-20)
(9.95877 0.0663911 -3.31493e-20)
(9.90548 0.0795293 6.73139e-20)
(9.8348 0.0935542 -5.14559e-20)
(9.74821 0.108266 8.74348e-20)
(9.64507 0.123881 1.78324e-20)
(9.52443 0.140745 0)
(9.38544 0.159181 0)
(9.22717 0.179487 0)
(9.04848 0.201973 0)
(8.84803 0.226987 -8.17971e-20)
(8.62436 0.254892 -1.68931e-19)
(8.37589 0.286045 2.6491e-19)
(8.10089 0.32081 5.53025e-19)
(7.79766 0.359553 -1.70776e-18)
(7.46451 0.402577 5.89615e-19)
(7.09981 0.450068 4.15099e-19)
(6.70215 0.502052 -1.54283e-18)
(6.27044 0.558308 1.37243e-18)
(5.80405 0.618285 -2.44349e-19)
(5.30297 0.680984 -3.40012e-18)
(4.76802 0.744796 4.12563e-18)
(4.20107 0.807299 -5.92882e-19)
(3.60547 0.864932 6.37037e-19)
(2.9865 0.912189 0)
(2.35215 0.939409 1.48247e-18)
(1.71414 0.925108 0)
(1.05042 0.811449 8.76349e-19)
(0.649774 0.497978 -1.46218e-17)
(9.9935 0.0362224 -3.21689e-20)
(9.98348 0.0612054 -2.06362e-21)
(9.95424 0.0821895 2.06449e-21)
(9.90497 0.104016 -2.51782e-20)
(9.83941 0.127278 2.56522e-20)
(9.75919 0.151881 -6.29991e-23)
(9.66394 0.178116 -7.10151e-20)
(9.55283 0.20647 -1.45129e-19)
(9.42517 0.237437 1.49225e-19)
(9.28023 0.271493 -3.04822e-19)
(9.11704 0.309153 3.13939e-19)
(8.93448 0.35099 -3.20477e-19)
(8.73132 0.397612 -1.65483e-19)
(8.50621 0.449639 -6.90015e-19)
(8.2576 0.507713 7.06108e-19)
(7.98394 0.572482 1.48365e-18)
(7.68369 0.644514 -1.52383e-18)
(7.3552 0.724225 3.9768e-19)
(6.99686 0.811784 4.15531e-19)
(6.60724 0.906981 3.96696e-18)
(6.18507 1.00909 -3.66042e-18)
(5.72936 1.11669 6.35849e-18)
(5.23949 1.22736 -8.16156e-18)
(4.71527 1.33731 1.08468e-18)
(4.15716 1.44091 0)
(3.56601 1.52958 -1.2323e-18)
(2.94178 1.5898 1.99408e-17)
(2.28155 1.59835 1.00154e-19)
(1.53331 1.52142 -2.6475e-17)
(0.883334 1.29653 8.89867e-19)
(9.99185 0.0397495 -2.00622e-21)
(9.97948 0.0737641 -3.04955e-20)
(9.94981 0.104414 0)
(9.90139 0.135182 -1.67621e-20)
(9.83705 0.167246 1.69889e-20)
(9.75838 0.200913 -3.14362e-22)
(9.66521 0.236647 1.41157e-19)
(9.55682 0.275086 1.44949e-19)
(9.43269 0.316881 -1.47658e-19)
(9.29226 0.362694 1.50378e-19)
(9.13477 0.413235 1.54927e-19)
(8.95935 0.469281 3.17573e-19)
(8.76508 0.531665 6.54238e-19)
(8.55097 0.601261 0)
(8.31581 0.67898 0)
(8.05846 0.765746 0)
(7.77782 0.862435 7.45398e-19)
(7.47255 0.969783 -3.90143e-18)
(7.14138 1.08824 2.40051e-18)
(6.783 1.21783 0)
(6.39596 1.358 0)
(5.97879 1.50739 9.23974e-19)
(5.52969 1.66344 -7.77767e-18)
(5.04646 1.822 1.52548e-17)
(4.52629 1.97678 -2.57983e-17)
(3.96497 2.11871 1.92628e-17)
(3.35485 2.23518 0)
(2.68458 2.30849 1.2904e-18)
(1.8977 2.32414 -1.96711e-17)
(1.10755 2.26454 2.44995e-17)
(9.99104 0.0447497 0)
(9.97729 0.0862091 0)
(9.94719 0.125054 -1.64509e-20)
(9.89942 0.163799 4.99053e-20)
(9.8363 0.203947 1.69269e-19)
(9.75918 0.246162 -2.07099e-19)
(9.66791 0.291054 7.05921e-20)
(9.56192 0.339341 -1.42529e-19)
(9.44076 0.391772 1.45766e-19)
(9.30391 0.449135 0)
(9.15074 0.512279 0)
(8.98053 0.582118 -3.14382e-19)
(8.79259 0.659641 -3.22929e-19)
(8.58612 0.74591 0)
(8.36017 0.842031 -6.92991e-19)
(8.11394 0.949128 1.40255e-18)
(7.84661 1.06831 -2.93719e-18)
(7.55733 1.20059 2.99986e-18)
(7.24529 1.34674 0)
(6.90939 1.5071 -6.53603e-18)
(6.54827 1.6815 6.71555e-18)
(6.16039 1.869 7.0742e-18)
(5.74328 2.06748 -7.30011e-18)
(5.29359 2.27336 0)
(4.8062 2.48111 1.99783e-18)
(4.27354 2.68312 -2.0987e-18)
(3.6843 2.87008 2.21465e-18)
(3.02571 3.03068 -3.54011e-18)
(2.25496 3.15603 3.91819e-17)
(1.36395 3.27494 -4.62689e-17)
(9.99066 0.0504506 6.39144e-20)
(9.9762 0.0988162 0)
(9.94599 0.145446 0)
(9.89907 0.192157 -6.64963e-20)
(9.83743 0.240448 -2.35696e-22)
(9.76219 0.291204 0)
(9.67318 0.345148 1.40213e-19)
(9.56997 0.40306 -2.8338e-19)
(9.45216 0.465789 -5.81236e-19)
(9.31925 0.534245 8.89501e-19)
(9.17071 0.609401 -3.00777e-19)
(9.00593 0.692301 -6.18649e-19)
(8.82432 0.784082 1.27718e-18)
(8.62519 0.885976 6.64205e-19)
(8.40779 0.999256 -4.70186e-18)
(8.17154 1.12521 5.52018e-18)
(7.91583 1.26514 -2.83195e-18)
(7.6401 1.42029 0)
(7.3439 1.59176 -4.58734e-18)
(7.02627 1.78032 6.23257e-18)
(6.68599 1.98629 0)
(6.32152 2.20934 1.35165e-17)
(5.93026 2.44815 -1.6002e-18)
(5.5086 2.70036 -1.44313e-17)
(5.05052 2.96205 -1.8965e-18)
(4.5471 3.22774 1.9786e-18)
(3.98629 3.49122 3.09031e-17)
(3.35497 3.74619 -6.69772e-17)
(2.64134 3.97386 3.42009e-17)
(1.66379 4.27127 1.24209e-18)
(9.9905 0.056471 -6.38828e-20)
(9.97581 0.111502 1.28948e-19)
(9.94584 0.165497 -3.2686e-20)
(9.89998 0.219861 3.30537e-20)
(9.84003 0.275998 -2.72871e-22)
(9.76694 0.334947 0)
(9.6806 0.39755 1.38735e-19)
(9.58064 0.464668 -5.57031e-22)
(9.46666 0.537254 5.73267e-19)
(9.33826 0.616326 0)
(9.19497 0.702965 -8.96652e-19)
(9.03626 0.798335 2.35538e-21)
(8.8616 0.903704 1.25715e-18)
(8.6704 1.02044 -1.91757e-18)
(8.46211 1.14994 0)
(8.23626 1.29367 -3.38458e-18)
(7.99237 1.45307 -7.24997e-19)
(7.73003 1.6296 2.83518e-18)
(7.44892 1.82474 -1.47251e-18)
(7.14821 2.03971 -1.50358e-18)
(6.82686 2.27537 0)
(6.48343 2.5321 0)
(6.1155 2.80965 -1.16443e-17)
(5.71947 3.10703 1.36382e-17)
(5.28973 3.42226 0)
(4.81777 3.75212 0)
(4.29237 4.09228 3.03739e-17)
(3.69666 4.44139 -3.34925e-17)
(3.07274 4.75483 3.27587e-17)
(2.0115 5.23032 -3.61227e-17)
(9.99044 0.0625955 0)
(9.97588 0.124106 -1.44903e-19)
(9.94648 0.18509 1.62607e-20)
(9.90189 0.246769 6.59796e-20)
(9.84384 0.310465 -6.69931e-20)
(9.7732 0.377292 0)
(9.68992 0.448205 0)
(9.59363 0.524153 2.80586e-19)
(9.48398 0.606174 -5.68793e-19)
(9.36063 0.695372 -5.81818e-19)
(9.2232 0.792928 1.18062e-18)
(9.07123 0.900117 6.0404e-19)
(8.90428 1.01833 1.23681e-18)
(8.72187 1.14904 -1.88968e-18)
(8.52355 1.29379 1.28112e-18)
(8.30893 1.45416 3.30956e-18)
(8.07771 1.63181 -4.03065e-18)
(7.82952 1.82845 5.56167e-18)
(7.5639 2.04587 5.59342e-20)
(7.28027 2.28576 -4.33021e-18)
(6.97795 2.54956 0)
(6.65558 2.83844 1.52187e-18)
(6.31105 3.1533 0)
(5.94094 3.49447 1.60042e-18)
(5.54063 3.86182 2.65532e-17)
(5.10307 4.25423 -2.7176e-17)
(4.6197 4.66782 0)
(4.06385 5.10767 3.04517e-17)
(3.55793 5.48535 -2.60405e-17)
(2.41131 6.12951 3.15191e-17)
(9.99045 0.0686883 1.34776e-19)
(9.9763 0.136485 1.20093e-19)
(9.94772 0.204126 3.24376e-20)
(9.90459 0.272781 -3.27605e-20)
(9.84868 0.343713 -1.33002e-19)
(9.78081 0.418073 2.68917e-19)
(9.70092 0.496907 -1.3695e-19)
(9.60867 0.581257 1.37079e-19)
(9.5038 0.672229 2.81069e-19)
(9.38602 0.771005 5.72085e-19)
(9.25502 0.878849 0)
(9.11046 0.997143 -5.92672e-19)
(8.95195 1.12739 0)
(8.77912 1.27116 -6.1928e-19)
(8.59161 1.43011 0)
(8.38918 1.60598 0)
(8.17165 1.80063 2.62697e-18)
(7.9386 2.0161 6.72707e-18)
(7.68951 2.25445 -5.45758e-18)
(7.42415 2.51778 -5.62197e-18)
(7.14204 2.80822 5.6947e-18)
(6.84199 3.12773 1.02407e-17)
(6.52232 3.47833 -8.91955e-18)
(6.18019 3.86169 -1.53047e-18)
(5.81186 4.27917 -3.06127e-18)
(5.41195 4.73136 0)
(4.97659 5.21339 -2.87145e-17)
(4.46092 5.73927 2.61363e-17)
(4.08754 6.16093 -1.69892e-18)
(2.85425 6.94902 0)
(9.99054 0.0746558 -1.26772e-19)
(9.97694 0.148523 -1.59942e-19)
(9.94941 0.222512 -3.92184e-23)
(9.90795 0.297791 3.26052e-20)
(9.85441 0.375599 0)
(9.78958 0.457115 -8.10382e-22)
(9.71338 0.543457 -2.71815e-19)
(9.62555 0.635742 1.47095e-22)
(9.52586 0.735143 -2.7835e-19)
(9.41412 0.842905 -5.67991e-19)
(9.29009 0.960364 5.77997e-19)
(9.1535 1.08899 3.5157e-21)
(9.00409 1.23039 1.19578e-18)
(8.84157 1.38624 6.22683e-19)
(8.6657 1.55828 -1.22808e-18)
(8.47645 1.74841 -2.52171e-18)
(8.27351 1.95875 6.39531e-18)
(8.05655 2.1916 -6.48804e-18)
(7.82546 2.44937 1.31565e-18)
(7.57999 2.73455 -1.33684e-18)
(7.3198 3.04988 0)
(7.04402 3.39823 0)
(6.7515 3.78268 -2.83643e-18)
(6.4402 4.20621 0)
(6.10724 4.67137 2.30595e-17)
(5.74816 5.18015 -2.3274e-17)
(5.36555 5.72558 2.97045e-18)
(4.88754 6.33373 0)
(4.64514 6.78897 0)
(3.32524 7.69678 0)
(9.99068 0.0804337 0)
(9.97775 0.16013 0)
(9.95146 0.24015 0)
(9.91188 0.321694 1.2969e-19)
(9.86091 0.405997 -1.31548e-19)
(9.79935 0.494267 -3.98859e-19)
(9.72713 0.587676 0)
(9.64404 0.687402 2.73114e-19)
(9.54991 0.794676 2.77085e-19)
(9.44463 0.910796 -8.41519e-19)
(9.32804 1.03715 -2.06708e-22)
(9.19994 1.1753 5.75207e-19)
(9.06019 1.32693 0)
(8.90865 1.49379 4.16784e-18)
(8.7452 1.67771 -4.8375e-18)
(8.56994 1.8808 2.44104e-18)
(8.38242 2.10538 -4.98976e-18)
(8.1827 2.35399 5.02316e-18)
(7.97099 2.62937 5.10823e-18)
(7.74702 2.93445 -1.16506e-17)
(7.51073 3.27263 2.08877e-17)
(7.26158 3.64757 -1.31297e-17)
(6.99894 4.06343 -1.06106e-17)
(6.72171 4.5245 3.194e-17)
(6.428 5.03455 -1.60412e-17)
(6.113 5.59694 0)
(5.78707 6.20228 0)
(5.34492 6.89196 0)
(5.22441 7.38442 0)
(3.81926 8.40675 6.80383e-19)
(9.99085 0.0859769 -1.25627e-19)
(9.9787 0.171229 -3.17256e-20)
(9.95381 0.256953 -1.27817e-19)
(9.91629 0.344393 -9.71364e-20)
(9.86808 0.434795 -3.91448e-19)
(9.81001 0.529396 2.64019e-19)
(9.74202 0.629405 1.33277e-19)
(9.66395 0.736048 1.2108e-21)
(9.57572 0.850607 5.47115e-19)
(9.47728 0.974424 -1.38435e-18)
(9.36855 1.10893 1.68161e-18)
(9.24936 1.25574 -5.7003e-19)
(9.11976 1.41662 0)
(8.97976 1.59337 -3.06321e-22)
(8.8294 1.78791 -4.733e-18)
(8.66869 2.00255 3.59144e-18)
(8.49744 2.23976 -2.40979e-18)
(8.31616 2.50227 3.68414e-18)
(8.12501 2.79314 -6.15402e-18)
(7.92412 3.11584 -9.93448e-18)
(7.71369 3.47428 7.45269e-18)
(7.49355 3.87292 2.52123e-18)
(7.26385 4.31703 0)
(7.02426 4.8122 0)
(6.77417 5.36376 -6.62129e-20)
(6.50763 5.97721 2.17107e-17)
(6.24297 6.64131 -4.09336e-19)
(5.83897 7.41579 -1.909e-17)
(5.83085 7.96594 -1.1611e-18)
(4.34089 9.12401 -1.23889e-18)
(9.99105 0.0912489 1.25565e-19)
(9.97975 0.181754 1.57762e-19)
(9.95641 0.272842 2.22943e-19)
(9.9211 0.3658 0)
(9.87583 0.461893 5.19113e-19)
(9.82142 0.562379 1.31309e-19)
(9.75789 0.6685 -1.32255e-19)
(9.68511 0.781515 2.6837e-19)
(9.60305 0.902744 -8.14185e-19)
(9.51177 1.03357 2.73162e-19)
(9.41122 1.17547 -2.95224e-21)
(9.30129 1.33006 0)
(9.18226 1.49915 -5.64111e-19)
(9.0543 1.6846 1.14771e-18)
(8.9175 1.88846 -2.30334e-18)
(8.77184 2.11313 1.11887e-20)
(8.6177 2.36119 -1.16946e-18)
(8.45572 2.63554 1.19045e-18)
(8.28615 2.93951 0)
(8.10976 3.2771 7.17186e-18)
(7.92693 3.65264 -1.43244e-17)
(7.73812 4.0713 7.13522e-18)
(7.54452 4.53948 -9.37295e-18)
(7.34649 5.06411 9.29487e-18)
(7.14483 5.6524 -1.80928e-17)
(6.93308 6.31338 1.55927e-17)
(6.73693 7.03703 0)
(6.38315 7.90275 3.26428e-17)
(6.48765 8.55168 -3.2984e-17)
(4.91303 9.91072 5.60928e-19)
(9.99129 0.0962186 0)
(9.98089 0.191657 -1.26047e-19)
(9.95919 0.287752 -3.21492e-20)
(9.92623 0.38584 3.19459e-20)
(9.88404 0.487201 -2.58462e-19)
(9.83348 0.593116 1.30383e-19)
(9.77459 0.704847 -3.93517e-19)
(9.7073 0.823677 2.65929e-19)
(9.63162 0.950951 1.0818e-21)
(9.54773 1.08809 -2.70108e-19)
(9.45564 1.23659 5.44934e-19)
(9.3553 1.39806 0)
(9.24719 1.5743 5.58825e-19)
(9.13161 1.76725 0)
(9.00864 1.97905 2.27875e-18)
(8.87858 2.21215 -1.12786e-18)
(8.7422 2.46915 -1.14238e-18)
(8.60007 2.75306 2.2913e-18)
(8.45292 3.06752 -4.59696e-18)
(8.30203 3.41682 4.57801e-18)
(8.14824 3.80567 -1.13904e-17)
(7.99285 4.23982 2.02661e-17)
(7.83796 4.72649 -6.68649e-18)
(7.68533 5.27409 -8.57863e-18)
(7.53746 5.89177 4.24343e-18)
(7.38905 6.59303 0)
(7.27326 7.37472 1.49139e-17)
(7.0003 8.33414 -1.47616e-17)
(7.23876 9.15075 0)
(5.58603 10.8648 0)
(9.99156 0.100863 -1.24241e-19)
(9.9821 0.200901 0)
(9.96212 0.301631 -1.57985e-19)
(9.93163 0.404443 -9.51551e-20)
(9.89263 0.510635 0)
(9.84605 0.6215 -2.58026e-19)
(9.79196 0.738315 2.6137e-19)
(9.73032 0.862379 0)
(9.66121 0.995045 0)
(9.58491 1.13776 5.36306e-19)
(9.50148 1.29203 -1.07991e-18)
(9.41097 1.45944 -3.07792e-21)
(9.31402 1.64176 5.4665e-19)
(9.21101 1.84099 1.09787e-18)
(9.1021 2.05931 1.11346e-18)
(8.98803 2.29914 0)
(8.86971 2.56309 2.2321e-18)
(8.7478 2.85426 -2.22561e-18)
(8.6236 3.17639 0)
(8.49878 3.53389 0)
(8.37491 3.93173 0)
(8.25418 4.37594 0)
(8.1398 4.8742 -8.35211e-18)
(8.03552 5.43585 2.12181e-18)
(7.94649 6.07164 7.85883e-18)
(7.87135 6.79821 0)
(7.85226 7.6228 0)
(7.71768 8.64478 -1.49413e-18)
(8.12828 9.68633 -1.05338e-17)
(6.58288 12.1906 1.11905e-17)
(0.116391 -0.0131923 3.67824e-18)
(-0.274629 0.26355 -3.15791e-18)
(-0.817195 0.31354 8.54288e-20)
(-1.46033 0.327466 2.33928e-18)
(-2.17155 0.330555 -4.16304e-18)
(-2.92783 0.328237 1.87917e-18)
(-3.70767 0.321891 0)
(-4.49339 0.31196 0)
(-5.27125 0.298688 -5.39474e-19)
(-6.03117 0.282294 7.51625e-20)
(-6.76585 0.262975 5.86225e-19)
(-7.46918 0.240851 -9.10146e-20)
(-8.1356 0.216017 0)
(-8.75931 0.188674 0)
(-9.33381 0.159009 0)
(-9.85243 0.127016 0)
(-10.3066 0.0926183 -9.2156e-21)
(-10.6865 0.0557351 0)
(-10.9813 0.0162774 0)
(-11.178 -0.0261896 0)
(-11.261 -0.0731911 0)
(-11.2156 -0.128534 0)
(-11.0147 -0.192809 0)
(-10.6338 -0.26726 5.2108e-21)
(-10.0509 -0.35391 -5.25503e-21)
(-9.23771 -0.456254 0)
(-8.13315 -0.58145 -5.28702e-22)
(-6.60907 -0.743764 2.55511e-22)
(-4.52398 -0.947189 0)
(-2.0331 -1.10339 0)
(-0.168965 0.277808 6.66576e-18)
(-0.575625 0.576032 5.67501e-18)
(-1.17392 0.69856 -1.69107e-19)
(-1.87373 0.771325 -4.33559e-18)
(-2.64805 0.818432 0)
(-3.46657 0.848223 0)
(-4.30434 0.864307 0)
(-5.14221 0.868574 -3.06439e-19)
(-5.96657 0.862138 -1.95092e-18)
(-6.76796 0.845822 1.85936e-18)
(-7.53968 0.820245 0)
(-8.27626 0.785711 -6.57026e-20)
(-8.9729 0.74237 0)
(-9.62468 0.69048 7.71733e-20)
(-10.2251 0.630253 -7.45939e-20)
(-10.7674 0.561547 0)
(-11.2438 0.484019 8.65948e-21)
(-11.6445 0.397439 0)
(-11.9593 0.301603 -4.26313e-20)
(-12.1761 0.196141 4.205e-20)
(-12.2815 0.0797155 2.58515e-20)
(-12.2597 -0.0510827 1.17941e-21)
(-12.0998 -0.195557 0)
(-11.7865 -0.353243 -1.29304e-21)
(-11.3058 -0.524828 1.28647e-21)
(-10.6439 -0.71266 -7.26922e-21)
(-9.77 -0.923603 4.20938e-21)
(-8.61752 -1.17422 1.53511e-22)
(-7.18042 -1.46912 1.0551e-22)
(-5.96026 -1.71983 0)
(-0.188382 0.716921 2.46043e-20)
(-0.643427 1.05731 1.63488e-19)
(-1.28305 1.23586 -8.87778e-18)
(-2.00697 1.34948 7.91942e-18)
(-2.79643 1.4213 6.66981e-18)
(-3.62233 1.46273 -1.20264e-17)
(-4.46092 1.47987 5.48172e-18)
(-5.29435 1.47624 2.87313e-19)
(-6.11082 1.45397 -2.37704e-19)
(-6.90261 1.41464 1.46216e-18)
(-7.66442 1.35944 -2.68051e-19)
(-8.39184 1.28905 -2.67979e-19)
(-9.0811 1.20394 -6.10116e-19)
(-9.7286 1.1045 -2.13785e-19)
(-10.3288 0.991028 5.90601e-21)
(-10.8748 0.863633 4.75362e-20)
(-11.3595 0.722281 9.3675e-20)
(-11.7742 0.567084 -1.00518e-19)
(-12.109 0.398259 0)
(-12.3528 0.21627 0)
(-12.4936 0.0218985 -9.23552e-22)
(-12.518 -0.184256 -1.35161e-19)
(-12.4176 -0.407189 0)
(-12.1817 -0.647812 0)
(-11.8017 -0.904137 2.06082e-20)
(-11.2724 -1.17442 2.26679e-20)
(-10.5789 -1.45854 -3.93418e-21)
(-9.68169 -1.76358 -2.32194e-22)
(-8.60407 -2.10011 2.31655e-22)
(-7.77764 -2.4282 0)
(-0.0930102 1.21584 1.16263e-17)
(-0.549192 1.59472 -9.66749e-18)
(-1.21926 1.80758 8.37582e-18)
(-1.95001 1.94649 0)
(-2.73245 2.0333 3.9124e-19)
(-3.54071 2.08093 0)
(-4.35471 2.09714 0)
(-5.15996 2.08672 -3.9968e-18)
(-5.94723 2.05267 4.50927e-18)
(-6.71112 1.99716 0)
(-7.44788 1.92172 -1.04402e-18)
(-8.15421 1.8273 1.96583e-18)
(-8.82704 1.71452 -6.45118e-19)
(-9.463 1.58367 -8.46273e-21)
(-10.0574 1.43462 0)
(-10.6039 1.26714 0)
(-11.0948 1.08084 -4.29001e-20)
(-11.5221 0.875239 -1.58808e-19)
(-11.8757 0.649784 1.56864e-19)
(-12.1452 0.404129 -1.08255e-19)
(-12.3196 0.138656 1.71302e-19)
(-12.3865 -0.14604 6.0969e-20)
(-12.3376 -0.449112 -1.10326e-19)
(-12.1698 -0.770469 5.24803e-20)
(-11.8768 -1.1069 -2.02444e-20)
(-11.4584 -1.45391 -1.58927e-21)
(-10.9086 -1.80591 -2.55372e-20)
(-10.2044 -2.16218 7.85474e-22)
(-9.38047 -2.53478 -1.19162e-21)
(-8.78166 -2.89592 5.86795e-22)
(0.0764335 1.76134 -2.13553e-17)
(-0.341836 2.1626 3.5756e-19)
(-1.03018 2.39292 1.5309e-17)
(-1.75281 2.54394 0)
(-2.51409 2.63725 -1.17371e-17)
(-3.29051 2.68559 1.07747e-17)
(-4.06607 2.6973 0)
(-4.83038 2.67775 3.72367e-18)
(-5.57696 2.63021 -4.03024e-18)
(-6.30261 2.55705 0)
(-7.00492 2.45971 2.58727e-19)
(-7.68159 2.339 -2.08147e-19)
(-8.33004 2.19544 0)
(-8.94686 2.02907 -3.54441e-20)
(-9.52748 1.83948 -1.24855e-20)
(-10.0663 1.62627 -2.08275e-19)
(-10.5561 1.38919 4.42242e-19)
(-10.989 1.12818 -8.96215e-20)
(-11.3554 0.843305 -4.95499e-19)
(-11.6453 0.535287 3.22591e-19)
(-11.8487 0.205939 0)
(-11.9549 -0.142149 -6.23805e-20)
(-11.9533 -0.508199 -6.47379e-20)
(-11.8474 -0.892881 5.87666e-20)
(-11.6329 -1.29094 2.16233e-20)
(-11.3122 -1.69488 -2.09847e-20)
(-10.8845 -2.09484 -7.54011e-21)
(-10.3389 -2.48474 4.90665e-21)
(-9.71368 -2.87321 0)
(-9.27376 -3.22898 -2.40427e-22)
(0.300878 2.33215 1.96365e-17)
(-0.0510127 2.74354 -1.58245e-17)
(-0.746474 2.98176 0)
(-1.44754 3.13545 1.8905e-19)
(-2.17618 3.22827 -3.35389e-19)
(-2.90988 3.27252 -9.31408e-18)
(-3.63682 3.27693 8.77192e-19)
(-4.35057 3.24711 8.33611e-18)
(-5.0476 3.18639 0)
(-5.72658 3.09712 0)
(-6.38638 2.98065 -1.96874e-18)
(-7.02554 2.83758 1.66437e-18)
(-7.642 2.66819 0)
(-8.23287 2.47239 0)
(-8.79358 2.24954 -2.37526e-20)
(-9.319 1.99899 2.56243e-19)
(-9.80269 1.72018 -5.38933e-19)
(-10.2369 1.4127 3.18109e-19)
(-10.6127 1.0764 -1.20348e-20)
(-10.9198 0.711916 1.35396e-19)
(-11.1487 0.321454 -1.47649e-19)
(-11.29 -0.090981 0)
(-11.33 -0.520315 2.74358e-19)
(-11.2798 -0.965403 -2.5515e-19)
(-11.1361 -1.41999 0)
(-10.903 -1.87406 4.58166e-20)
(-10.5826 -2.3147 -2.55355e-21)
(-10.1722 -2.73171 -3.19878e-21)
(-9.70937 -3.12701 2.63481e-21)
(-9.39047 -3.46445 9.08103e-22)
(0.573865 2.90506 2.8275e-19)
(0.309427 3.32233 -2.37983e-19)
(-0.387359 3.56367 -1.25219e-17)
(-1.05569 3.71299 1.11986e-17)
(-1.74152 3.79958 -1.01425e-17)
(-2.42272 3.83563 8.98957e-18)
(-3.09242 3.83041 0)
(-3.74788 3.78949 2.79264e-18)
(-4.38835 3.71603 -2.8188e-18)
(-5.01409 3.61195 0)
(-5.6251 3.47836 1.71757e-18)
(-6.22061 3.31545 -1.4738e-18)
(-6.79894 3.12303 -1.25637e-19)
(-7.35785 2.90068 2.61158e-19)
(-7.8931 2.64744 -3.35657e-20)
(-8.39968 2.36239 -2.76645e-19)
(-8.8719 2.04477 2.72742e-19)
(-9.30236 1.694 0)
(-9.68263 1.30997 2.57855e-19)
(-10.0028 0.893556 -1.39764e-19)
(-10.2532 0.447529 4.77858e-19)
(-10.4251 -0.0225376 -3.20694e-19)
(-10.5032 -0.507639 -7.11838e-20)
(-10.5034 -1.00445 2.88189e-19)
(-10.4246 -1.50679 6.39994e-20)
(-10.2716 -2.00225 -4.65763e-20)
(-10.0484 -2.47597 1.70008e-20)
(-9.75725 -2.91419 -1.27713e-20)
(-9.43199 -3.31059 0)
(-9.21167 -3.626 0)
(0.893391 3.47976 4.79311e-20)
(0.731572 3.8915 1.33085e-17)
(0.0325834 4.13066 1.81026e-19)
(-0.592765 4.26832 1.06223e-17)
(-1.22606 4.34333 -9.97054e-18)
(-1.84573 4.36787 5.5699e-19)
(-2.45059 4.35141 -7.15866e-18)
(-3.04135 4.29911 9.67628e-18)
(-3.61964 4.21366 -3.33268e-18)
(-4.18699 4.09637 -1.88735e-18)
(-4.74434 3.94789 1.63329e-18)
(-5.29145 3.76796 -3.64249e-19)
(-5.82683 3.55582 2.87014e-19)
(-6.34879 3.3108 -2.84171e-20)
(-6.85375 3.0315 0)
(-7.33683 2.71668 1.55003e-19)
(-7.79288 2.36543 4.49848e-19)
(-8.21496 1.97687 3.64067e-19)
(-8.59494 1.55072 -9.98902e-19)
(-8.92316 1.08772 3.14717e-19)
(-9.18926 0.591014 0)
(-9.38403 0.0682968 -3.81362e-19)
(-9.5014 -0.467958 1.86854e-19)
(-9.54554 -1.01049 -7.74637e-20)
(-9.52556 -1.55348 -6.62672e-20)
(-9.44631 -2.08291 0)
(-9.31309 -2.58343 1.79972e-20)
(-9.13021 -3.03883 -9.75699e-21)
(-8.92602 -3.4343 -4.19379e-21)
(-8.7914 -3.72804 1.66113e-21)
(1.24945 4.06417 1.52468e-17)
(1.20004 4.44921 -1.1788e-17)
(0.498069 4.67618 1.1415e-17)
(-0.0719047 4.79315 6.0706e-19)
(-0.642624 4.85149 3.62524e-20)
(-1.19208 4.86209 -7.78084e-18)
(-1.72526 4.8336 7.27587e-18)
(-2.24589 4.77038 -2.44004e-18)
(-2.75749 4.67433 3.10129e-18)
(-3.26252 4.54591 -1.6896e-18)
(-3.76241 4.38524 1.65463e-18)
(-4.25754 4.19157 8.36126e-20)
(-4.74658 3.96334 1.16602e-20)
(-5.22796 3.69961 3.42942e-19)
(-5.69887 3.39867 -8.87072e-19)
(-6.15483 3.05876 -1.9494e-19)
(-6.59098 2.6787 4.08892e-19)
(-7.00081 2.25727 3.53327e-19)
(-7.37648 1.79392 -6.28506e-19)
(-7.70844 1.28933 0)
(-7.98582 0.747073 4.18702e-19)
(-8.1995 0.177017 -2.18171e-19)
(-8.34886 -0.404903 -4.11979e-19)
(-8.42909 -0.987445 -8.79837e-20)
(-8.46043 -1.5638 9.17733e-21)
(-8.44811 -2.11945 6.92013e-20)
(-8.39886 -2.64035 -2.0898e-20)
(-8.31692 -3.10976 1.99091e-20)
(-8.22381 -3.50502 8.43378e-21)
(-8.16917 -3.77941 0)
(1.62935 4.6555 4.87888e-20)
(1.69768 4.98904 4.47502e-20)
(0.993398 5.19042 9.83978e-18)
(0.494695 5.27724 -1.90043e-17)
(-0.00271941 5.3151 9.19963e-18)
(-0.473439 5.31047 0)
(-0.928793 5.27028 -6.43093e-18)
(-1.37473 5.19756 6.40899e-18)
(-1.81604 5.09318 -3.15773e-19)
(-2.25579 4.9565 0)
(-2.6955 4.78667 8.88065e-19)
(-3.13577 4.58276 -9.56887e-19)
(-3.57584 4.34255 -1.22354e-20)
(-4.01409 4.06431 3.59798e-19)
(-4.44818 3.74623 -4.42236e-19)
(-4.87433 3.38606 1.99704e-19)
(-5.288 2.98211 6.14089e-19)
(-5.68314 2.53275 -1.33313e-18)
(-6.0522 2.03712 7.22762e-19)
(-6.38552 1.4959 4.47016e-19)
(-6.67086 0.913061 -9.29354e-19)
(-6.8979 0.300227 2.40871e-19)
(-7.06989 -0.323374 4.67433e-19)
(-7.17649 -0.940237 0)
(-7.24958 -1.54233 -9.19382e-20)
(-7.29546 -2.11549 6.57522e-20)
(-7.32332 -2.64916 -4.63891e-21)
(-7.33657 -3.12905 -7.68582e-21)
(-7.34918 -3.5265 9.18901e-21)
(-7.37523 -3.78529 -7.62116e-21)
(2.01654 5.2415 -2.52477e-17)
(2.20522 5.4971 -1.54748e-19)
(1.50224 5.65836 -3.12135e-19)
(1.0957 5.70764 -5.94409e-19)
(0.682602 5.72346 -7.56398e-18)
(0.298947 5.70413 7.74806e-18)
(-0.0732167 5.6541 4.44003e-19)
(-0.440741 5.57461 0)
(-0.808999 5.46505 -1.95799e-18)
(-1.1812 5.32377 1.73275e-18)
(-1.55882 5.14863 -3.42054e-19)
(-1.9421 4.93823 3.57021e-19)
(-2.33065 4.69036 -2.20331e-20)
(-2.72321 4.40234 9.59607e-20)
(-3.11784 4.07195 -1.9773e-19)
(-3.51145 3.69667 8.5016e-19)
(-3.90015 3.27413 -5.75548e-19)
(-4.27862 2.80201 8.25959e-19)
(-4.63968 2.27885 -1.28234e-18)
(-4.97331 1.70544 0)
(-5.26475 1.08584 2.73054e-19)
(-5.50042 0.433055 -2.79704e-19)
(-5.68727 -0.229399 2.74613e-19)
(-5.81017 -0.875182 2.45116e-19)
(-5.91489 -1.49514 1.93212e-19)
(-6.00822 -2.07605 -1.62668e-19)
(-6.10361 -2.61297 3.64546e-20)
(-6.20491 -3.09772 -2.5613e-20)
(-6.31945 -3.49978 0)
(-6.43341 -3.74837 5.24089e-21)
(2.39119 5.80483 0)
(2.70241 5.95062 1.54323e-19)
(2.00685 6.06111 0)
(1.7209 6.06944 0)
(1.40145 6.06472 8.13366e-18)
(1.11301 6.03392 -7.75392e-18)
(0.828542 5.97766 -3.10316e-18)
(0.542381 5.8954 3.40708e-18)
(0.249205 5.78474 2.55758e-19)
(-0.053819 5.6428 1.37527e-18)
(-0.36779 5.46669 -1.23537e-18)
(-0.692266 5.25433 0)
(-1.02674 5.00329 0)
(-1.37052 4.71046 9.07617e-19)
(-1.72209 4.3729 -5.24048e-19)
(-2.07899 3.98799 -6.00147e-19)
(-2.43838 3.5527 0)
(-2.79624 3.0637 -4.51605e-19)
(-3.14622 2.51829 4.88604e-19)
(-3.47839 1.91772 2.89533e-19)
(-3.77525 1.26509 -8.8149e-19)
(-4.01787 0.573054 3.18058e-19)
(-4.21699 -0.129114 -3.18446e-19)
(-4.34875 -0.799734 1.11403e-20)
(-4.47862 -1.42986 0)
(-4.60937 -2.00851 0)
(-4.75997 -2.53747 -7.17921e-20)
(-4.93802 -3.01784 -4.01206e-20)
(-5.14734 -3.42418 -9.40384e-21)
(-5.36264 -3.66941 -1.27312e-20)
(2.72394 6.33078 -4.0881e-17)
(3.17142 6.32189 1.92195e-17)
(2.48607 6.38779 0)
(2.35876 6.34649 0)
(2.13617 6.32535 5.32398e-19)
(1.95197 6.28825 0)
(1.76045 6.23245 0)
(1.55905 6.1541 -2.74089e-18)
(1.3437 6.04918 2.09233e-18)
(1.11257 5.91342 -3.5526e-19)
(0.864108 5.74221 5.23893e-19)
(0.598253 5.53119 1.54249e-19)
(0.319607 5.28045 5.64053e-19)
(0.0276049 4.9862 -7.22838e-19)
(-0.276589 4.64541 0)
(-0.590771 4.25499 3.38369e-19)
(-0.91344 3.81135 -4.65235e-19)
(-1.24244 3.30997 9.53408e-19)
(-1.57291 2.74736 -5.96622e-19)
(-1.89674 2.12387 1.56592e-18)
(-2.19643 1.43908 -6.67157e-19)
(-2.44704 0.708963 3.69676e-19)
(-2.66212 -0.026901 0)
(-2.80149 -0.721178 -1.41377e-19)
(-2.95824 -1.35382 1.36659e-19)
(-3.12273 -1.92153 0)
(-3.31713 -2.4316 1.12318e-19)
(-3.5564 -2.89485 2.16632e-20)
(-3.84377 -3.29916 0)
(-4.17754 -3.54829 2.64637e-20)
(2.96131 6.80468 7.00969e-19)
(3.56315 6.586 9.53299e-18)
(2.95351 6.59641 1.11174e-18)
(2.97397 6.51544 4.88856e-18)
(2.87871 6.48617 -8.95103e-20)
(2.79876 6.45243 3.64413e-18)
(2.70202 6.40611 -2.61986e-18)
(2.58564 6.33964 2.57495e-18)
(2.448 6.24699 0)
(2.28892 6.1229 2.46539e-19)
(2.10879 5.96276 -4.55859e-19)
(1.90773 5.76159 0)
(1.68866 5.51761 0)
(1.45296 5.22798 0)
(1.20222 4.89048 -2.87353e-19)
(0.938349 4.50213 0)
(0.662593 4.05989 -4.69827e-19)
(0.376989 3.55996 0)
(0.0795094 2.98836 1.32767e-18)
(-0.222643 2.35202 -6.88403e-19)
(-0.509104 1.65268 0)
(-0.752032 0.883087 4.24862e-19)
(-1.00282 0.0821141 1.86631e-22)
(-1.17232 -0.633146 -9.04031e-19)
(-1.36186 -1.26328 1.56248e-19)
(-1.56704 -1.81661 -1.18899e-19)
(-1.80101 -2.30228 -8.96739e-20)
(-2.08741 -2.73791 -1.26127e-20)
(-2.42381 -3.12774 4.82024e-20)
(-2.8875 -3.38561 -2.80635e-20)
(3.05749 7.32614 9.89379e-18)
(3.69309 6.79042 8.89788e-18)
(3.40514 6.66854 3.65183e-18)
(3.55369 6.56541 -4.16462e-18)
(3.60954 6.53477 0)
(3.63691 6.51611 -3.85672e-19)
(3.6348 6.49041 1.16613e-18)
(3.60299 6.44572 -1.14184e-18)
(3.54237 6.37347 -3.02894e-19)
(3.45476 6.26743 2.9769e-19)
(3.34219 6.1228 0)
(3.20588 5.93492 0)
(3.04798 5.70107 -2.92182e-19)
(2.8706 5.41886 -1.18527e-19)
(2.67585 5.08624 4.81829e-19)
(2.46589 4.70071 0)
(2.24253 4.2596 8.74959e-19)
(2.00854 3.75985 -9.70954e-19)
(1.76359 3.19478 -5.8032e-19)
(1.50757 2.56032 -3.3344e-19)
(1.25376 1.86209 0)
(1.03961 1.10561 -2.03783e-19)
(0.800984 0.299471 -8.80368e-19)
(0.547616 -0.47191 1.99163e-19)
(0.306515 -1.12254 0)
(0.047055 -1.67378 1.31091e-19)
(-0.234363 -2.14629 9.9518e-20)
(-0.562494 -2.55685 -6.95197e-20)
(-0.917101 -2.91918 -4.00099e-20)
(-1.49407 -3.18489 1.4572e-20)
(9.99183 0.105241 1.19662e-19)
(9.98339 0.209609 -1.20022e-19)
(9.96524 0.314681 3.02823e-20)
(9.93736 0.4219 9.17311e-20)
(9.90175 0.532581 0)
(9.85935 0.648023 2.48321e-19)
(9.8103 0.76951 -2.49134e-19)
(9.7546 0.898347 2.52123e-19)
(9.69241 1.03588 -5.07479e-19)
(9.62407 1.18357 -5.10541e-19)
(9.54972 1.34292 2.57052e-19)
(9.46955 1.51547 -9.98842e-22)
(9.3843 1.70293 -5.20485e-19)
(9.29438 1.90732 -1.05246e-18)
(9.20025 2.13084 1.04606e-18)
(9.10297 2.37581 0)
(9.00337 2.6448 -1.04633e-18)
(8.9026 2.9409 1.04239e-18)
(8.80239 3.2678 4.16735e-18)
(8.70484 3.62987 -1.15699e-20)
(8.61223 4.032 -4.06976e-18)
(8.52778 4.48016 -1.9651e-18)
(8.45611 4.98185 -1.94855e-18)
(8.40298 5.54619 -1.87305e-18)
(8.37715 6.18402 1.7773e-18)
(8.38413 6.91095 -1.59953e-18)
(8.47684 7.73955 -5.69835e-18)
(8.55684 8.73488 6.80777e-18)
(9.421 9.79827 0)
(10.1286 11.9324 -7.86104e-19)
(9.99211 0.109364 0)
(9.98478 0.217791 1.17158e-19)
(9.96858 0.326907 -2.94336e-20)
(9.94345 0.438199 2.96172e-20)
(9.91137 0.552996 -5.97354e-20)
(9.87334 0.672591 6.00735e-20)
(9.82954 0.798275 1.25049e-21)
(9.78003 0.931345 1.2215e-19)
(9.72501 1.07313 -1.22687e-19)
(9.66485 1.22509 2.48548e-19)
(9.59983 1.38872 2.50953e-19)
(9.53031 1.56548 -1.28804e-21)
(9.45706 1.75703 5.00187e-19)
(9.38047 1.96533 0)
(9.30144 2.19252 -1.01472e-18)
(9.2212 2.44085 0)
(9.14061 2.71276 1.01282e-18)
(9.06124 3.01117 -1.40389e-20)
(8.98522 3.33958 0)
(8.91512 3.70211 -9.69333e-19)
(8.8538 4.10322 1.91799e-18)
(8.8055 4.54832 -1.86345e-18)
(8.77592 5.04391 -1.78046e-18)
(8.77231 5.59743 3.39085e-18)
(8.80619 6.21728 -4.87434e-18)
(8.88808 6.91265 6.81791e-20)
(9.06864 7.68815 1.39369e-18)
(9.27426 8.54717 -1.84826e-20)
(9.86822 9.37688 0)
(10.5177 10.122 4.26251e-18)
(9.99242 0.113165 0)
(9.98624 0.225316 0)
(9.97209 0.338125 -1.14128e-19)
(9.94984 0.453119 2.29744e-19)
(9.92146 0.571629 2.31272e-19)
(9.88798 0.694935 0)
(9.84961 0.824318 2.35591e-19)
(9.8065 0.961071 -1.18357e-19)
(9.75889 1.10651 7.12189e-19)
(9.7071 1.26204 -1.19486e-19)
(9.6516 1.42911 3.62906e-21)
(9.59298 1.60913 -7.26355e-19)
(9.53193 1.80371 2.37485e-19)
(9.46894 2.01467 9.65068e-19)
(9.40512 2.244 0)
(9.34182 2.49384 0)
(9.28036 2.76652 1.91911e-18)
(9.22243 3.06462 -2.86706e-18)
(9.17025 3.39123 0)
(9.12698 3.75006 9.32405e-19)
(9.09591 4.14483 1.84581e-18)
(9.08187 4.5799 8.74486e-19)
(9.09124 5.06021 2.32155e-20)
(9.13134 5.59035 7.97507e-19)
(9.2136 6.17451 1.53913e-18)
(9.34714 6.81342 0)
(9.56331 7.49947 2.47503e-18)
(9.80663 8.19715 -7.11073e-18)
(10.1646 8.84379 3.85794e-18)
(10.6883 9.45557 7.49003e-18)
(9.99276 0.116597 0)
(9.98778 0.232102 1.1024e-19)
(9.97572 0.34821 1.11406e-19)
(9.95645 0.466478 -4.47379e-19)
(9.93193 0.588241 -1.97525e-19)
(9.90318 0.71476 -5.66332e-20)
(9.87041 0.847288 2.84675e-20)
(9.83385 0.987109 0)
(9.79378 1.13552 -5.19942e-19)
(9.75056 1.29386 5.19035e-19)
(9.70483 1.4635 4.66519e-19)
(9.65719 1.64577 -5.80613e-19)
(9.60835 1.84219 -3.52383e-19)
(9.55912 2.05451 -1.1721e-18)