/*--------------------------------*- C++ -*----------------------------------*\
| =========                 |                                                 |
| \\      /  F ield         | OpenFOAM: The Open Source CFD Toolbox           |
|  \\    /   O peration     | Version:  5.x                                   |
|   \\  /    A nd           | Web:      www.OpenFOAM.org                      |
|    \\/     M anipulation  |                                                 |
\*---------------------------------------------------------------------------*/
FoamFile
{
    version     2.0;
    format      ascii;
    class       volVectorField;
    location    "4.6";
    object      cellDisplacement;
}
// * * * * * * * * * * * * * * * * * * * * * * * * * * * * * * * * * * * * * //

dimensions      [0 1 0 0 0 0 0];

internalField   nonuniform List<vector> 
2790
(
(0.00568076 4.57329e-06 0)
(0.0162903 1.33065e-05 0)
(0.0254976 2.14167e-05 0)
(0.0334158 2.92266e-05 0)
(0.0401583 3.70058e-05 0)
(0.0458282 4.49719e-05 0)
(0.0505176 5.33551e-05 0)
(0.0543084 6.2325e-05 0)
(0.0572728 7.21011e-05 0)
(0.059473 8.29084e-05 0)
(0.0609627 9.5022e-05 0)
(0.0617878 0.000108782 0)
(0.0619878 0.000124336 0)
(0.0615973 0.000142114 0)
(0.0606459 0.000162531 0)
(0.0591595 0.0001861 0)
(0.0571619 0.000213437 0)
(0.0546758 0.000245297 0)
(0.0517249 0.000282609 0)
(0.048334 0.000326459 0)
(0.0445316 0.000378187 0)
(0.0403519 0.000439451 0)
(0.0358376 0.000512325 0)
(0.031043 0.000599455 0)
(0.0260417 0.000704392 0)
(0.0209373 0.000832153 0)
(0.0158835 0.000990038 0)
(0.0111198 0.0011877 0)
(0.00703627 0.00143091 0)
(0.00452698 0.00169454 0)
(0.00568575 1.37018e-05 0)
(0.0163057 3.98673e-05 0)
(0.0255244 6.41657e-05 0)
(0.0334554 8.75625e-05 0)
(0.0402115 0.000110868 0)
(0.0458963 0.000134718 0)
(0.0506028 0.000159825 0)
(0.054413 0.000186666 0)
(0.0574002 0.000215909 0)
(0.059627 0.000248211 0)
(0.0611478 0.000284384 0)
(0.0620094 0.00032555 0)
(0.0622516 0.00037196 0)
(0.0619107 0.000425004 0)
(0.0610171 0.000485865 0)
(0.0595982 0.000556062 0)
(0.0576791 0.0006374 0)
(0.0552843 0.000732071 0)
(0.0524401 0.00084282 0)
(0.049174 0.000972777 0)
(0.0455182 0.00112578 0)
(0.0415117 0.00130656 0)
(0.0372037 0.00152087 0)
(0.0326569 0.00177579 0)
(0.0279552 0.0020802 0)
(0.0232162 0.00244558 0)
(0.0186178 0.00288684 0)
(0.014463 0.00342168 0)
(0.0112123 0.0040415 0)
(0.00970474 0.00464331 0)
(0.00569625 2.27694e-05 0)
(0.0163378 6.6251e-05 0)
(0.0255798 0.000106625 0)
(0.0335366 0.000145493 0)
(0.0403199 0.000184212 0)
(0.0460348 0.000223773 0)
(0.0507753 0.000265463 0)
(0.0546239 0.000309936 0)
(0.0576564 0.000358364 0)
(0.0599358 0.000411765 0)
(0.0615184 0.000471399 0)
(0.0624502 0.000538513 0)
(0.0627749 0.000614663 0)
(0.0625317 0.000701741 0)
(0.0617517 0.000801418 0)
(0.0604652 0.000916154 0)
(0.0587003 0.00104876 0)
(0.0564841 0.00120263 0)
(0.0538484 0.00138219 0)
(0.0508259 0.00159213 0)
(0.047455 0.00183825 0)
(0.0437838 0.00212753 0)
(0.0398745 0.00246831 0)
(0.0358054 0.00287001 0)
(0.0316799 0.00334341 0)
(0.0276379 0.00390012 0)
(0.0238701 0.0045514 0)
(0.0207018 0.00529586 0)
(0.0186539 0.00609066 0)
(0.018358 0.00676238 0)
(0.00571207 3.17234e-05 0)
(0.016386 9.23019e-05 0)
(0.0256626 0.000148535 0)
(0.0336586 0.000202647 0)
(0.0404823 0.000256576 0)
(0.0462416 0.000311494 0)
(0.0510315 0.000368993 0)
(0.0549364 0.00043051 0)
(0.0580358 0.00049747 0)
(0.0603925 0.000571102 0)
(0.0620647 0.000653033 0)
(0.0631008 0.000744708 0)
(0.0635486 0.000848952 0)
(0.0634496 0.000968069 0)
(0.0628367 0.00110379 0)
(0.0617448 0.00125955 0)
(0.0602064 0.00143887 0)
(0.0582504 0.00164574 0)
(0.0559187 0.00188638 0)
(0.0532497 0.00216604 0)
(0.0502896 0.00249154 0)
(0.0470964 0.00287096 0)
(0.0437502 0.00331361 0)
(0.040346 0.00382852 0)
(0.0370071 0.00442447 0)
(0.033896 0.00510742 0)
(0.0312216 0.00587494 0)
(0.0292534 0.00670102 0)
(0.0284854 0.00750924 0)
(0.0292957 0.00810102 0)
(0.00573314 4.05062e-05 0)
(0.0164499 0.000117849 0)
(0.0257719 0.000189607 0)
(0.0338209 0.000258598 0)
(0.0406963 0.000327109 0)
(0.0465066 0.000396727 0)
(0.0513618 0.000469364 0)
(0.0553457 0.000547215 0)
(0.0585331 0.000631832 0)
(0.0609904 0.000724503 0)
(0.0627803 0.00082739 0)
(0.0639547 0.000942536 0)
(0.0645623 0.00107271 0)
(0.0646464 0.0012203 0)
(0.0642489 0.00138831 0)
(0.0634088 0.00158054 0)
(0.062165 0.00180087 0)
(0.0605531 0.00205449 0)
(0.0586141 0.00234685 0)
(0.0563992 0.00268351 0)
(0.053962 0.00307138 0)
(0.0513665 0.00351809 0)
(0.048719 0.0040327 0)
(0.0461241 0.00462042 0)
(0.0437173 0.00528432 0)
(0.0416694 0.0060209 0)
(0.0401868 0.00681301 0)
(0.03949 0.00762061 0)
(0.0399139 0.00834478 0)
(0.0415861 0.00880537 0)
(0.0057593 4.90576e-05 0)
(0.0165287 0.000142714 0)
(0.0259054 0.000229541 0)
(0.0340141 0.000312863 0)
(0.0409525 0.000395181 0)
(0.0468315 0.000478873 0)
(0.0517686 0.000566201 0)
(0.0558487 0.000659549 0)
(0.0591409 0.00076027 0)
(0.0617193 0.00087046 0)
(0.0636522 0.000992542 0)
(0.0649929 0.00112876 0)
(0.0657931 0.00128184 0)
(0.0660985 0.00145434 0)
(0.0659599 0.00165038 0)
(0.0654204 0.00187357 0)
(0.064525 0.0021282 0)
(0.0633218 0.00241958 0)
(0.0618519 0.00275181 0)
(0.0601754 0.0031306 0)
(0.0583575 0.00356167 0)
(0.0564664 0.00405187 0)
(0.0546196 0.00460684 0)
(0.0529318 0.00522571 0)
(0.0515391 0.00590444 0)
(0.0506041 0.00662938 0)
(0.0503053 0.00737159 0)
(0.0508014 0.00808313 0)
(0.0522204 0.00866582 0)
(0.0544704 0.00898219 0)
(0.00579029 5.73176e-05 0)
(0.0166217 0.000166719 0)
(0.0260613 0.000268047 0)
(0.034236 0.000365068 0)
(0.0412489 0.000460555 0)
(0.0472125 0.000557652 0)
(0.0522459 0.000658676 0)
(0.0564318 0.000765948 0)
(0.059845 0.000881338 0)
(0.0625669 0.0010074 0)
(0.0646655 0.0011466 0)
(0.0661976 0.00130122 0)
(0.0672195 0.00147414 0)
(0.0677833 0.00166832 0)
(0.0679417 0.00188748 0)
(0.0677447 0.00213536 0)
(0.0672438 0.00241609 0)
(0.0664928 0.00273415 0)
(0.0655464 0.00309363 0)
(0.0644701 0.0034989 0)
(0.0633377 0.00395395 0)
(0.0622319 0.0044636 0)
(0.0612531 0.00502745 0)
(0.0605202 0.00563885 0)
(0.0601601 0.00628631 0)
(0.0603089 0.00694738 0)
(0.0610948 0.00758533 0)
(0.0625982 0.00814948 0)
(0.0647473 0.00855908 0)
(0.0672962 0.0087284 0)
(0.00582578 6.52282e-05 0)
(0.0167277 0.000189696 0)
(0.026238 0.000304855 0)
(0.0344836 0.000414854 0)
(0.041583 0.000522962 0)
(0.0476444 0.000632434 0)
(0.0527813 0.000745939 0)
(0.0570892 0.000865978 0)
(0.0606416 0.000994631 0)
(0.063523 0.00113469 0)
(0.0658079 0.00128887 0)
(0.0675527 0.00145906 0)
(0.0688209 0.0016484 0)
(0.0696692 0.00185983 0)
(0.0701542 0.00209673 0)
(0.0703322 0.0023626 0)
(0.0702613 0.00266107 0)
(0.0700019 0.00299575 0)
(0.0696184 0.00336983 0)
(0.069182 0.00378599 0)
(0.0687688 0.00424603 0)
(0.0684842 0.00475161 0)
(0.0683944 0.00529635 0)
(0.0686135 0.00586851 0)
(0.0692466 0.00645015 0)
(0.070387 0.00701262 0)
(0.0720955 0.00751599 0)
(0.0743671 0.00791195 0)
(0.0769612 0.00814592 0)
(0.0795531 0.00818351 0)
(0.00586535 7.27355e-05 0)
(0.0168456 0.000211486 0)
(0.0264343 0.00033972 0)
(0.0347608 0.000461965 0)
(0.0419504 0.000581924 0)
(0.0481172 0.000702827 0)
(0.0533753 0.000827855 0)
(0.057814 0.000959282 0)
(0.0615168 0.00109946 0)
(0.0645764 0.00125167 0)
(0.0670605 0.00141808 0)
(0.0690333 0.00160074 0)
(0.0705664 0.00180284 0)
(0.0717185 0.00202693 0)
(0.0725508 0.00227599 0)
(0.0731252 0.00255302 0)
(0.073506 0.0028609 0)
(0.0737602 0.00320221 0)
(0.0739593 0.00357878 0)
(0.0741807 0.00399129 0)
(0.0745076 0.00443991 0)
(0.0750284 0.00492125 0)
(0.0758041 0.00542466 0)
(0.0769278 0.00593532 0)
(0.0784711 0.00643073 0)
(0.0804715 0.00687951 0)
(0.0829107 0.00724318 0)
(0.0857142 0.00747913 0)
(0.0885026 0.00756125 0)
(0.0909382 0.00750094 0)
(0.00590848 7.97897e-05 0)
(0.0169739 0.000231945 0)
(0.0266477 0.000372407 0)
(0.0350631 0.000506046 0)
(0.0423512 0.000636895 0)
(0.0486309 0.000768396 0)
(0.0540138 0.000903647 0)
(0.0585944 0.00104506 0)
(0.0624642 0.00119549 0)
(0.0657112 0.00135767 0)
(0.0684029 0.00153343 0)
(0.0706178 0.00172558 0)
(0.0724303 0.00193683 0)
(0.0738997 0.00216905 0)
(0.0750923 0.00242475 0)
(0.0760746 0.00270627 0)
(0.0769164 0.0030156 0)
(0.0776899 0.00335414 0)
(0.0784709 0.00372227 0)
(0.0793398 0.00411896 0)
(0.0803823 0.00454135 0)
(0.0816586 0.00498244 0)
(0.0832396 0.00543028 0)
(0.0851872 0.00586767 0)
(0.0875319 0.00627081 0)
(0.0902536 0.00660939 0)
(0.0932659 0.00685035 0)
(0.096372 0.00696123 0)
(0.0991706 0.00693545 0)
(0.101344 0.00681816 0)
(0.00595453 8.63477e-05 0)
(0.0171108 0.000250946 0)
(0.0268752 0.000402708 0)
(0.0353857 0.000546796 0)
(0.0427782 0.000687495 0)
(0.0491756 0.000828394 0)
(0.0546904 0.000972612 0)
(0.0594221 0.00112279 0)
(0.0634642 0.00128159 0)
(0.0669036 0.00145148 0)
(0.0698149 0.0016344 0)
(0.072282 0.00183321 0)
(0.0743749 0.00204967 0)
(0.0761661 0.00228558 0)
(0.0777214 0.00254264 0)
(0.0791101 0.00282239 0)
(0.0804066 0.00312589 0)
(0.0816861 0.00345326 0)
(0.0830258 0.00380341 0)
(0.0845038 0.00417355 0)
(0.086196 0.00455859 0)
(0.0881649 0.00494992 0)
(0.0904659 0.00533486 0)
(0.0931331 0.00569644 0)
(0.0961585 0.00601329 0)
(0.0994718 0.00626076 0)
(0.102923 0.00641402 0)
(0.106198 0.00645456 0)
(0.108938 0.0063849 0)
(0.110862 0.00625946 0)
(0.00600281 9.2375e-05 0)
(0.0172542 0.000268389 0)
(0.0271133 0.00043046 0)
(0.0357232 0.000583987 0)
(0.0432243 0.000733441 0)
(0.0497429 0.000882515 0)
(0.0553936 0.00103435 0)
(0.0602795 0.00119164 0)
(0.0644961 0.00135692 0)
(0.0681319 0.00153245 0)
(0.0712675 0.00172021 0)
(0.0739844 0.00192236 0)
(0.0763557 0.00214051 0)
(0.0784588 0.00237596 0)
(0.0803677 0.00262951 0)
(0.0821462 0.0029019 0)
(0.0838738 0.00319328 0)
(0.0856268 0.00350254 0)
(0.0874809 0.00382724 0)
(0.0895104 0.00416317 0)
(0.0917838 0.0045039 0)
(0.0943575 0.00484024 0)
(0.0972721 0.00516018 0)
(0.100538 0.00544932 0)
(0.104119 0.00569191 0)
(0.107909 0.00587297 0)
(0.111709 0.00598104 0)
(0.115174 0.00601117 0)
(0.117937 0.00597032 0)
(0.119742 0.00589382 0)
(0.00605257 9.78456e-05 0)
(0.0174018 0.000284199 0)
(0.0273585 0.000455544 0)
(0.0360704 0.00061746 0)
(0.0436824 0.000774549 0)
(0.0503241 0.000930561 0)
(0.0561124 0.00108863 0)
(0.0611531 0.00125143 0)
(0.0655439 0.00142134 0)
(0.0693749 0.00160042 0)
(0.0727304 0.00179048 0)
(0.0756919 0.00199316 0)
(0.0783363 0.00220973 0)
(0.0807392 0.00244104 0)
(0.0829797 0.002687 0)
(0.0851198 0.00294722 0)
(0.0872433 0.00322138 0)
(0.0894237 0.0035072 0)
(0.0917335 0.0038011 0)
(0.094241 0.00409788 0)
(0.0970072 0.00439044 0)
(0.100079 0.00466981 0)
(0.103485 0.0049256 0)
(0.107219 0.00514721 0)
(0.111229 0.00532605 0)
(0.115398 0.00545859 0)
(0.119523 0.0055496 0)
(0.123277 0.00561047 0)
(0.126276 0.00565046 0)
(0.128204 0.00566088 0)
(0.00610305 0.000102742 0)
(0.0175516 0.000298325 0)
(0.0276069 0.000477882 0)
(0.036422 0.000647116 0)
(0.0441456 0.000810709 0)
(0.0509104 0.000972431 0)
(0.0568357 0.00113538 0)
(0.0620297 0.00130214 0)
(0.0665915 0.00147492 0)
(0.0706132 0.00165557 0)
(0.0741809 0.00184561 0)
(0.0773768 0.00204627 0)
(0.0802798 0.00225836 0)
(0.0829672 0.0024823 0)
(0.0855077 0.00271702 0)
(0.0879755 0.00296154 0)
(0.0904509 0.00321473 0)
(0.0930032 0.00347342 0)
(0.0956992 0.0037332 0)
(0.0986002 0.00398823 0)
(0.101758 0.00423124 0)
(0.10521 0.00445386 0)
(0.108972 0.00464747 0)
(0.113029 0.00480491 0)
(0.117328 0.00492336 0)
(0.121762 0.00500846 0)
(0.126167 0.00507924 0)
(0.130278 0.00516739 0)
(0.13374 0.00529812 0)
(0.136091 0.00541902 0)
(0.00615351 0.000107052 0)
(0.0177012 0.000310736 0)
(0.027855 0.00049743 0)
(0.0367728 0.000672907 0)
(0.0446071 0.000841886 0)
(0.0514935 0.00100812 0)
(0.0575534 0.00117463 0)
(0.0628966 0.00134388 0)
(0.067624 0.0015179 0)
(0.0718286 0.00169829 0)
(0.0755977 0.00188627 0)
(0.0790139 0.00208264 0)
(0.082156 0.00228778 0)
(0.0851005 0.00250155 0)
(0.0879097 0.00272238 0)
(0.0906665 0.00294864 0)
(0.0934444 0.00317839 0)
(0.0963067 0.00340782 0)
(0.0993133 0.00363198 0)
(0.102517 0.00384474 0)
(0.105959 0.00403891 0)
(0.109665 0.00420674 0)
(0.113642 0.00434084 0)
(0.117866 0.00443575 0)
(0.122285 0.0044904 0)
(0.12681 0.00451166 0)
(0.13132 0.00452016 0)
(0.135635 0.00456022 0)
(0.139526 0.00470507 0)
(0.142591 0.00496747 0)
(0.00580958 -0.00173921 0)
(0.0102597 -0.0016526 0)
(0.0171572 -0.00146595 0)
(0.0252635 -0.00127415 0)
(0.0336163 -0.00109615 0)
(0.0416726 -0.000938325 0)
(0.0491566 -0.000802568 0)
(0.0559351 -0.000687375 0)
(0.0619267 -0.000589268 0)
(0.067105 -0.000508121 0)
(0.0714885 -0.000441131 0)
(0.0750904 -0.000383775 0)
(0.0779372 -0.000334886 0)
(0.0800484 -0.000293077 0)
(0.0814389 -0.000257143 0)
(0.0821179 -0.000226087 0)
(0.0820881 -0.000199059 0)
(0.0813445 -0.000175005 0)
(0.0798788 -0.000154528 0)
(0.0776736 -0.00013604 0)
(0.0747025 -0.000119402 0)
(0.0709312 -0.000104219 0)
(0.0663209 -9.03619e-05 0)
(0.0608318 -7.76258e-05 0)
(0.054414 -6.55482e-05 0)
(0.0470197 -5.37898e-05 0)
(0.0385867 -4.23661e-05 0)
(0.0290373 -3.09036e-05 0)
(0.0183101 -1.90829e-05 0)
(0.00632618 -6.52433e-06 0)
(0.0106789 -0.0048754 0)
(0.0148323 -0.00464751 0)
(0.0212007 -0.00416291 0)
(0.0287343 -0.00364254 0)
(0.0365128 -0.00314952 0)
(0.0440637 -0.00270909 0)
(0.0511258 -0.00232753 0)
(0.0575536 -0.002002 0)
(0.0632631 -0.00172647 0)
(0.0682146 -0.00149405 0)
(0.0724037 -0.00129757 0)
(0.0758438 -0.0011309 0)
(0.0785591 -0.000988541 0)
(0.0805621 -0.000866443 0)
(0.0818632 -0.00076121 0)
(0.0824682 -0.000670052 0)
(0.0823777 -0.000590691 0)
(0.0815836 -0.000521002 0)
(0.0800747 -0.000459322 0)
(0.0778357 -0.000404534 0)
(0.0748369 -0.000355278 0)
(0.071042 -0.000310195 0)
(0.06641 -0.000269044 0)
(0.0609043 -0.000231281 0)
(0.0544771 -0.000195401 0)
(0.0470721 -0.000160635 0)
(0.0386251 -0.000126562 0)
(0.0290641 -9.23386e-05 0)
(0.0183263 -5.70283e-05 0)
(0.00633175 -1.95002e-05 0)
(0.0190048 -0.00720441 0)
(0.0229025 -0.00692429 0)
(0.0285057 -0.00629445 0)
(0.0350586 -0.00557044 0)
(0.0418552 -0.00486645 0)
(0.0485331 -0.00422483 0)
(0.0548472 -0.00365975 0)
(0.0606471 -0.00317035 0)
(0.0658297 -0.00275226 0)
(0.0703372 -0.00239531 0)
(0.0741596 -0.00208855 0)
(0.0773006 -0.00182666 0)
(0.0797661 -0.00160173 0)
(0.0815615 -0.00140769 0)
(0.0826902 -0.0012396 0)
(0.0831523 -0.00109336 0)
(0.0829431 -0.000965542 0)
(0.0820522 -0.00085352 0)
(0.0804622 -0.000753152 0)
(0.0781551 -0.000664013 0)
(0.0751027 -0.000583888 0)
(0.0712632 -0.000510989 0)
(0.0665871 -0.000443411 0)
(0.061047 -0.000380979 0)
(0.0545967 -0.000322082 0)
(0.0471706 -0.0002652 0)
(0.0387012 -0.000209039 0)
(0.0291173 -0.000152566 0)
(0.0183581 -9.42542e-05 0)
(0.00634258 -3.22362e-05 0)
(0.0297138 -0.00875563 0)
(0.033308 -0.00844511 0)
(0.0380201 -0.0077729 0)
(0.0434095 -0.00697126 0)
(0.0490393 -0.00617104 0)
(0.0546368 -0.00542307 0)
(0.0599931 -0.0047488 0)
(0.0649611 -0.00415222 0)
(0.0694244 -0.00363041 0)
(0.0733363 -0.00318082 0)
(0.0766603 -0.0027909 0)
(0.0793823 -0.00245315 0)
(0.0814966 -0.00216012 0)
(0.0829986 -0.00190528 0)
(0.0838826 -0.001683 0)
(0.0841408 -0.00148844 0)
(0.0837617 -0.00131742 0)
(0.0827293 -0.00116637 0)
(0.0810228 -0.00103163 0)
(0.078618 -0.000911063 0)
(0.0754825 -0.000802237 0)
(0.0715797 -0.000703539 0)
(0.0668531 -0.000611718 0)
(0.061262 -0.000525872 0)
(0.0547692 -0.000444907 0)
(0.0473129 -0.000366745 0)
(0.0388133 -0.000289527 0)
(0.0291942 -0.000211384 0)
(0.0184034 -0.000130636 0)
(0.00635784 -4.46883e-05 0)
(0.0418716 -0.00964614 0)
(0.0450482 -0.00930972 0)
(0.0488081 -0.00865294 0)
(0.0530264 -0.00786624 0)
(0.0574449 -0.00706263 0)
(0.0618862 -0.006291 0)
(0.066186 -0.00557669 0)
(0.0702101 -0.00492941 0)
(0.0738514 -0.00434958 0)
(0.0770538 -0.00383891 0)
(0.0797777 -0.00339178 0)
(0.0819894 -0.00299881 0)
(0.083673 -0.00265384 0)
(0.0848126 -0.0023509 0)
(0.0853925 -0.00208446 0)
(0.0853961 -0.00184952 0)
(0.0848039 -0.00164164 0)
(0.0835934 -0.00145688 0)
(0.0817386 -0.0012916 0)
(0.07921 -0.00114297 0)
(0.0759694 -0.00100798 0)
(0.0719794 -0.000885085 0)
(0.0671844 -0.000771488 0)
(0.0615336 -0.000664436 0)
(0.0549881 -0.000562768 0)
(0.047484 -0.000464308 0)
(0.0389474 -0.000366985 0)
(0.0292934 -0.000268324 0)
(0.0184614 -0.0001659 0)
(0.00637761 -5.67657e-05 0)
(0.0546932 -0.0099729 0)
(0.0573396 -0.00963573 0)
(0.0601852 -0.00904249 0)
(0.0632744 -0.00833096 0)
(0.0665266 -0.00758871 0)
(0.0698305 -0.00685482 0)
(0.0730623 -0.00615507 0)
(0.0761109 -0.00550368 0)
(0.0788848 -0.00490709 0)
(0.0813168 -0.00436737 0)
(0.0833711 -0.00388589 0)
(0.0850101 -0.00345781 0)
(0.0862071 -0.00307721 0)
(0.0869341 -0.00273933 0)
(0.0871655 -0.00243933 0)
(0.086875 -0.00217257 0)
(0.0860354 -0.00193476 0)
(0.084617 -0.00172195 0)
(0.0825878 -0.00153058 0)
(0.0799145 -0.00135769 0)
(0.0765517 -0.00120019 0)
(0.0724532 -0.00105551 0)
(0.067573 -0.000921566 0)
(0.0618539 -0.000794986 0)
(0.0552472 -0.000674204 0)
(0.0476902 -0.000556784 0)
(0.039099 -0.000440469 0)
(0.0293979 -0.000322379 0)
(0.0185284 -0.000199482 0)
(0.0064008 -6.82794e-05 0)
(0.0674786 -0.00984229 0)
(0.0695578 -0.0095434 0)
(0.0715792 -0.0090549 0)
(0.0736493 -0.00846074 0)
(0.0758448 -0.00781929 0)
(0.0780909 -0.00716221 0)
(0.0803007 -0.00651403 0)
(0.0823916 -0.00589234 0)
(0.0842928 -0.00530844 0)
(0.0859461 -0.00476876 0)
(0.0873044 -0.00427606 0)
(0.0883419 -0.00383087 0)
(0.0890194 -0.00342995 0)
(0.089301 -0.00306981 0)
(0.0891523 -0.00274666 0)
(0.088539 -0.00245661 0)
(0.0874258 -0.00219582 0)
(0.0857757 -0.00196064 0)
(0.0835504 -0.00174772 0)
(0.0807102 -0.00155417 0)
(0.0772094 -0.0013773 0)
(0.0729946 -0.00121363 0)
(0.0680167 -0.00106113 0)
(0.062216 -0.000916684 0)
(0.0555401 -0.000778511 0)
(0.047916 -0.000643801 0)
(0.0392638 -0.000509819 0)
(0.0295177 -0.000373385 0)
(0.0186034 -0.000231184 0)
(0.0064268 -7.91562e-05 0)
(0.0796954 -0.00940502 0)
(0.0812454 -0.00917236 0)
(0.0825665 -0.00881128 0)
(0.0837919 -0.00835395 0)
(0.0850764 -0.00783062 0)
(0.0863729 -0.00726869 0)
(0.0876362 -0.00669205 0)
(0.0888186 -0.0061209 0)
(0.0898742 -0.0055702 0)
(0.0907601 -0.00504984 0)
(0.091436 -0.00456556 0)
(0.0918673 -0.00411994 0)
(0.0920139 -0.00371265 0)
(0.0918353 -0.00334201 0)
(0.0912904 -0.00300557 0)
(0.0903377 -0.00270044 0)
(0.0889348 -0.00242352 0)
(0.0870375 -0.00217163 0)
(0.0846011 -0.00194175 0)
(0.0815815 -0.00173136 0)
(0.0779295 -0.00153778 0)
(0.0735873 -0.00135775 0)
(0.0685041 -0.0011893 0)
(0.0626131 -0.00102935 0)
(0.0558514 -0.00087534 0)
(0.0481567 -0.000724859 0)
(0.0394474 -0.000574496 0)
(0.0296497 -0.000421047 0)
(0.0186852 -0.000260838 0)
(0.006455 -8.93373e-05 0)
(0.0910586 -0.00880961 0)
(0.0921584 -0.0086628 0)
(0.0929414 -0.00843119 0)
(0.0935139 -0.00810417 0)
(0.0940088 -0.00769468 0)
(0.0944598 -0.00722794 0)
(0.0948591 -0.00672813 0)
(0.0951967 -0.00621718 0)
(0.0954544 -0.00571194 0)
(0.0956065 -0.00522425 0)
(0.0956206 -0.00476172 0)
(0.0954606 -0.00432867 0)
(0.0950852 -0.00392675 0)
(0.0944497 -0.00355598 0)
(0.0935081 -0.00321524 0)
(0.0922128 -0.00290277 0)
(0.0905151 -0.00261632 0)
(0.088364 -0.00235327 0)
(0.0857084 -0.00211098 0)
(0.0825024 -0.00188771 0)
(0.0786946 -0.00168103 0)
(0.0742195 -0.00148787 0)
(0.0690167 -0.00130571 0)
(0.0630288 -0.00113228 0)
(0.0561848 -0.000964386 0)
(0.0484163 -0.000799443 0)
(0.0396446 -0.000634188 0)
(0.0297907 -0.000465136 0)
(0.0187719 -0.000288309 0)
(0.00648478 -9.87756e-05 0)
(0.101445 -0.00819261 0)
(0.102245 -0.00813891 0)
(0.102638 -0.00801509 0)
(0.102689 -0.00778898 0)
(0.102488 -0.00747074 0)
(0.102182 -0.0070844 0)
(0.101796 -0.00665614 0)
(0.101359 -0.00620698 0)
(0.10088 -0.00575319 0)
(0.10035 -0.00530659 0)
(0.0997423 -0.00487533 0)
(0.0990234 -0.00446465 0)
(0.0981501 -0.0040775 0)
(0.0970751 -0.00371521 0)
(0.095748 -0.00337793 0)
(0.0941171 -0.00306496 0)
(0.0921287 -0.00277501 0)
(0.0897245 -0.00250597 0)
(0.0868519 -0.0022561 0)
(0.0834553 -0.00202364 0)
(0.0794832 -0.00180691 0)
(0.0748708 -0.00160338 0)
(0.0695514 -0.00141015 0)
(0.0634619 -0.00122495 0)
(0.0565316 -0.00104493 0)
(0.0486875 -0.000867263 0)
(0.0398502 -0.00068867 0)
(0.0299371 -0.000505486 0)
(0.0188615 -0.000313494 0)
(0.00651548 -0.000107436 0)
(0.110955 -0.00770177 0)
(0.111603 -0.00770378 0)
(0.111678 -0.00763269 0)
(0.111231 -0.00745809 0)
(0.1104 -0.00719494 0)
(0.10939 -0.00686814 0)
(0.108288 -0.00650175 0)
(0.107152 -0.0061119 0)
(0.106012 -0.00571172 0)
(0.104866 -0.00531113 0)
(0.103695 -0.00491753 0)
(0.102464 -0.00453629 0)
(0.101131 -0.00417107 0)
(0.0996459 -0.00382414 0)
(0.0979554 -0.0034967 0)
(0.0960049 -0.00318909 0)
(0.0937387 -0.00290102 0)
(0.0910882 -0.00263059 0)
(0.0880008 -0.00237708 0)
(0.0844192 -0.0021393 0)
(0.0802848 -0.00191565 0)
(0.0755324 -0.00170402 0)
(0.0700943 -0.00150196 0)
(0.0639024 -0.00130713 0)
(0.0568843 -0.00111682 0)
(0.0489637 -0.000928147 0)
(0.0400593 -0.000737793 0)
(0.0300856 -0.000541981 0)
(0.0189521 -0.000336319 0)
(0.00654641 -0.000115293 0)
(0.119879 -0.0074092 0)
(0.120385 -0.00739415 0)
(0.120066 -0.00730032 0)
(0.119058 -0.00712194 0)
(0.117602 -0.00688024 0)
(0.115928 -0.00659566 0)
(0.114184 -0.00628257 0)
(0.112437 -0.00594922 0)
(0.110724 -0.00560324 0)
(0.109045 -0.00525134 0)
(0.107382 -0.0048994 0)
(0.105701 -0.00455237 0)
(0.103958 -0.0042142 0)
(0.102102 -0.00388782 0)
(0.10008 -0.00357525 0)
(0.097833 -0.0032777 0)
(0.0953054 -0.00299577 0)
(0.0924252 -0.00272826 0)
(0.0891306 -0.00247456 0)
(0.0853697 -0.00223459 0)
(0.0810783 -0.00200694 0)
(0.0761895 -0.00178984 0)
(0.070634 -0.0015812 0)
(0.0643407 -0.00137877 0)
(0.057235 -0.00118 0)
(0.0492383 -0.000982 0)
(0.0402669 -0.000781461 0)
(0.0302326 -0.000574542 0)
(0.0190414 -0.000356732 0)
(0.00657687 -0.000122328 0)
(0.128454 -0.00723314 0)
(0.128605 -0.00714321 0)
(0.127666 -0.00696887 0)
(0.125984 -0.00675356 0)
(0.123888 -0.00651942 0)
(0.121623 -0.00627199 0)
(0.119337 -0.00601046 0)
(0.117091 -0.00573319 0)
(0.114911 -0.00544187 0)
(0.112796 -0.00513997 0)
(0.110725 -0.0048318 0)
(0.108665 -0.00452178 0)
(0.106571 -0.00421394 0)
(0.104393 -0.00391171 0)
(0.102076 -0.00361772 0)
(0.0995627 -0.00333389 0)
(0.0967962 -0.00306153 0)
(0.0937033 -0.00280017 0)
(0.0902176 -0.00254959 0)
(0.0862877 -0.00231032 0)
(0.0818472 -0.0020813 0)
(0.0768279 -0.00186113 0)
(0.0711589 -0.00164803 0)
(0.0647671 -0.00143995 0)
(0.057576 -0.00123448 0)
(0.0495048 -0.0010288 0)
(0.040468 -0.000819634 0)
(0.0303745 -0.000603128 0)
(0.0191274 -0.000374704 0)
(0.00660611 -0.00012853 0)
(0.136493 -0.00703667 0)
(0.135894 -0.00681652 0)
(0.134087 -0.0065435 0)
(0.131694 -0.00630487 0)
(0.129042 -0.00609708 0)
(0.126314 -0.0059001 0)
(0.123628 -0.00569637 0)
(0.121017 -0.0054773 0)
(0.118493 -0.00524102 0)
(0.116049 -0.00498918 0)
(0.113664 -0.00472522 0)
(0.111302 -0.00445326 0)
(0.108922 -0.00417743 0)
(0.106475 -0.00390148 0)
(0.103907 -0.00362853 0)
(0.101161 -0.00336105 0)
(0.0981822 -0.00310088 0)
(0.0948991 -0.00284834 0)
(0.0912407 -0.00260361 0)
(0.0871556 -0.00236754 0)
(0.0825765 -0.00213947 0)
(0.0774346 -0.00191837 0)
(0.0716581 -0.00170278 0)
(0.0651725 -0.00149087 0)
(0.0578997 -0.00128037 0)
(0.0497572 -0.00106859 0)
(0.0406576 -0.00085233 0)
(0.0305077 -0.00062774 0)
(0.0192078 -0.000390228 0)
(0.00663335 -0.000133895 0)
(0.142956 -0.00663658 0)
(0.141294 -0.00620668 0)
(0.138682 -0.00591548 0)
(0.135814 -0.00574089 0)
(0.132861 -0.00561228 0)
(0.129901 -0.00548985 0)
(0.127001 -0.00535281 0)
(0.124181 -0.00519402 0)
(0.121446 -0.00501224 0)
(0.118785 -0.00480929 0)
(0.116177 -0.00458867 0)
(0.113592 -0.00435452 0)
(0.110991 -0.00411112 0)
(0.108328 -0.00386249 0)
(0.105553 -0.0036121 0)
(0.102611 -0.00336275 0)
(0.099445 -0.0031166 0)
(0.0959921 -0.00287487 0)
(0.0921824 -0.00263827 0)
(0.0879576 -0.00240747 0)
(0.0832523 -0.00218235 0)
(0.0779976 -0.00196221 0)
(0.0721213 -0.0017459 0)
(0.065548 -0.00153181 0)
(0.0581985 -0.00131787 0)
(0.0499891 -0.00110152 0)
(0.0408309 -0.000879625 0)
(0.0306286 -0.000648415 0)
(0.0192802 -0.000403321 0)
(0.00665773 -0.000138428 0)
(0.006204 0.000110834 0)
(0.0178508 0.000321597 0)
(0.0281029 0.000514448 0)
(0.0371231 0.000695186 0)
(0.0450674 0.00086852 0)
(0.052074 0.00103815 0)
(0.058266 0.001207 0)
(0.0637549 0.0013774 0)
(0.0686422 0.00155116 0)
(0.073022 0.00172963 0)
(0.0769816 0.0019137 0)
(0.0806033 0.0021038 0)
(0.083965 0.00229982 0)
(0.0871398 0.00250103 0)
(0.0901923 0.00270577 0)
(0.0932025 0.00291182 0)
(0.0962346 0.00311634 0)
(0.0993466 0.0033152 0)
(0.10259 0.00350319 0)
(0.106008 0.00367415 0)
(0.109629 0.00382116 0)
(0.113469 0.00393701 0)
(0.117519 0.00401491 0)
(0.121748 0.00404937 0)
(0.126098 0.00403697 0)
(0.130479 0.00397584 0)
(0.134774 0.00386144 0)
(0.138822 0.00367139 0)
(0.142465 0.00331299 0)
(0.145576 0.00254566 0)
(0.00625382 0.000114069 0)
(0.0179986 0.000330856 0)
(0.0283479 0.000528861 0)
(0.0374694 0.000713855 0)
(0.0455224 0.000890499 0)
(0.0526469 0.00106241 0)
(0.0589678 0.00123239 0)
(0.0645974 0.0014026 0)
(0.0696379 0.00157464 0)
(0.0741832 0.00174959 0)
(0.0783205 0.00192804 0)
(0.082131 0.00211006 0)
(0.0856908 0.00229514 0)
(0.0890711 0.0024821 0)
(0.092338 0.00266901 0)
(0.0955596 0.00285326 0)
(0.0987945 0.00303151 0)
(0.102094 0.00319943 0)
(0.1055 0.00335179 0)
(0.109044 0.00348261 0)
(0.112744 0.00358539 0)
(0.1166 0.00365342 0)
(0.120594 0.00368021 0)
(0.12468 0.0036597 0)
(0.12879 0.00358584 0)
(0.132826 0.00345034 0)
(0.136665 0.0032375 0)
(0.140179 0.00291123 0)
(0.143183 0.00241024 0)
(0.145529 0.00162424 0)
(0.0063015 0.000116697 0)
(0.0181403 0.000338349 0)
(0.0285837 0.00054042 0)
(0.0378033 0.000728604 0)
(0.0459611 0.000907475 0)
(0.0531991 0.00108054 0)
(0.0596431 0.00125046 0)
(0.0654059 0.00141921 0)
(0.0705897 0.00158818 0)
(0.0752881 0.00175821 0)
(0.079587 0.00192959 0)
(0.0835661 0.00210209 0)
(0.0872994 0.00227485 0)
(0.0908553 0.0024464 0)
(0.094297 0.00261454 0)
(0.0976842 0.00277641 0)
(0.101069 0.00292846 0)
(0.104494 0.00306633 0)
(0.107992 0.00318495 0)
(0.111584 0.00327868 0)
(0.115276 0.00334152 0)
(0.119059 0.00336727 0)
(0.122902 0.00334976 0)
(0.126754 0.00328251 0)
(0.130541 0.00315828 0)
(0.134173 0.00296598 0)
(0.137536 0.00268979 0)
(0.140496 0.00230494 0)
(0.142916 0.00177813 0)
(0.144712 0.00102814 0)
(0.00634592 0.000118691 0)
(0.0182729 0.000343999 0)
(0.0288054 0.000549017 0)
(0.0381182 0.000739311 0)
(0.0463757 0.000919332 0)
(0.0537211 0.00109245 0)
(0.0602808 0.00126117 0)
(0.0661677 0.00142729 0)
(0.0714835 0.00159199 0)
(0.0763207 0.00175587 0)
(0.0807638 0.00191898 0)
(0.0848903 0.00208082 0)
(0.0887712 0.0022403 0)
(0.0924717 0.00239571 0)
(0.0960504 0.00254469 0)
(0.09956 0.00268426 0)
(0.103045 0.00281085 0)
(0.10654 0.00292023 0)
(0.110071 0.00300761 0)
(0.113648 0.00306784 0)
(0.117269 0.00309551 0)
(0.120916 0.00308493 0)
(0.124553 0.00303056 0)
(0.128129 0.00292568 0)
(0.131576 0.00276335 0)
(0.134805 0.00253502 0)
(0.137708 0.00222996 0)
(0.140193 0.00183282 0)
(0.142174 0.00131862 0)
(0.143581 0.000645357 0)
(0.00638596 0.00012003 0)
(0.0183933 0.000347754 0)
(0.0290081 0.000554582 0)
(0.0384078 0.000745904 0)
(0.0467583 0.000926016 0)
(0.0542036 0.00109813 0)
(0.0608704 0.00126459 0)
(0.0668709 0.00142701 0)
(0.072306 0.00158638 0)
(0.0772668 0.00174309 0)
(0.0818356 0.00189699 0)
(0.0860873 0.00204737 0)
(0.0900899 0.00219296 0)
(0.0939045 0.00233194 0)
(0.097585 0.00246186 0)
(0.101177 0.00257975 0)
(0.104719 0.00268216 0)
(0.108239 0.00276515 0)
(0.111754 0.00282424 0)
(0.115268 0.00285489 0)
(0.118773 0.00285243 0)
(0.122247 0.00281148 0)
(0.125658 0.0027272 0)
(0.128951 0.00259448 0)
(0.132056 0.00240807 0)
(0.134902 0.00216276 0)
(0.137412 0.00185065 0)
(0.139521 0.00146174 0)
(0.14117 0.000982624 0)
(0.142313 0.000399168 0)
(0.00642056 0.000120703 0)
(0.0184984 0.000349582 0)
(0.0291871 0.000557076 0)
(0.0386658 0.000748357 0)
(0.0471014 0.000927536 0)
(0.054638 0.00109765 0)
(0.0614017 0.00126088 0)
(0.0675043 0.00141866 0)
(0.0730451 0.0015718 0)
(0.0781133 0.00172052 0)
(0.0827889 0.00186451 0)
(0.0871438 0.00200292 0)
(0.0912424 0.00213438 0)
(0.0951423 0.00225704 0)
(0.0988928 0.00236843 0)
(0.102533 0.00246568 0)
(0.106094 0.00254559 0)
(0.109601 0.0026047 0)
(0.113065 0.00263871 0)
(0.116482 0.00264373 0)
(0.119847 0.0026157 0)
(0.123136 0.00255051 0)
(0.126306 0.00244423 0)
(0.129312 0.00229384 0)
(0.1321 0.00209537 0)
(0.134614 0.00184502 0)
(0.136799 0.00153829 0)
(0.13861 0.00117018 0)
(0.140008 0.000736162 0)
(0.140968 0.000236285 0)
(0.00644871 0.000120703 0)
(0.0185853 0.000349474 0)
(0.029338 0.000556499 0)
(0.0388865 0.000746695 0)
(0.0473978 0.000923961 0)
(0.0550157 0.00109115 0)
(0.0618656 0.00125027 0)
(0.0680577 0.0014026 0)
(0.0736899 0.00154878 0)
(0.0788491 0.00168891 0)
(0.0836127 0.00182255 0)
(0.0880492 0.00194875 0)
(0.0922192 0.00206612 0)
(0.0961775 0.00217295 0)
(0.0999703 0.00226669 0)
(0.103629 0.00234468 0)
(0.107179 0.00240395 0)
(0.110645 0.00244143 0)
(0.114035 0.0024537 0)
(0.117338 0.0024373 0)
(0.120544 0.00238887 0)
(0.12363 0.00230587 0)
(0.126562 0.00218531 0)
(0.129303 0.00202482 0)
(0.13181 0.00182207 0)
(0.134041 0.00157497 0)
(0.135959 0.00128163 0)
(0.137533 0.00094086 0)
(0.13874 0.000553441 0)
(0.139567 0.000124912 0)
(0.00646945 0.000120036 0)
(0.0186514 0.000347446 0)
(0.0294566 0.00055289 0)
(0.0390644 0.000740991 0)
(0.047641 0.00091542 0)
(0.0553294 0.00107884 0)
(0.0622536 0.00123308 0)
(0.0685222 0.00137928 0)
(0.0742312 0.00151796 0)
(0.079465 0.00164909 0)
(0.0842983 0.00177216 0)
(0.0887962 0.00188618 0)
(0.0930139 0.00198969 0)
(0.0970095 0.00208113 0)
(0.100823 0.00215834 0)
(0.104476 0.00221869 0)
(0.107995 0.00225958 0)
(0.111399 0.0022782 0)
(0.114688 0.0022722 0)
(0.117858 0.00223872 0)
(0.120897 0.00217526 0)
(0.123785 0.00207977 0)
(0.126495 0.00195038 0)
(0.128996 0.00178563 0)
(0.131259 0.00158443 0)
(0.133251 0.00134616 0)
(0.134949 0.00107084 0)
(0.136332 0.000759704 0)
(0.137389 0.000416049 0)
(0.138116 4.67151e-05 0)
(0.00648196 0.000118707 0)
(0.0186944 0.000343519 0)
(0.0295394 0.00054629 0)
(0.0391951 0.000731322 0)
(0.047826 0.000902037 0)
(0.0555734 0.0010609 0)
(0.0625598 0.00120958 0)
(0.0688918 0.00134908 0)
(0.0746631 0.00147982 0)
(0.0799558 0.00160171 0)
(0.0848419 0.00171418 0)