# vtk DataFile Version 2.0

ASCII

DATASET UNSTRUCTURED_GRID

POINTS 33 float 

-5.0000000000000003e-02  3.3333333335000000e-02  1.4999999999999997e-01
-5.0000000000000003e-02  9.9999999985000018e-02  1.4999999999999999e-01
-5.0000000000000003e-02  1.6666666665000002e-01  1.4999999999999999e-01
-5.0000000000000003e-02  2.3333333334999998e-01  1.4999999999999999e-01
-5.0000000000000003e-02  2.9999999999999993e-01  1.4999999999999997e-01
-5.0000000000000003e-02  3.6666666665000003e-01  1.4999999999999999e-01
-5.0000000000000003e-02  4.3333333335000002e-01  1.4999999999999999e-01
-5.0000000000000003e-02  5.0000000000000000e-01  1.4999999999999997e-01
-5.0000000000000003e-02  5.6666666664999987e-01  1.4999999999999999e-01
-5.0000000000000003e-02  6.3333333334999986e-01  1.4999999999999999e-01
-5.0000000000000003e-02  6.9999999999999984e-01  1.4999999999999997e-01
-5.0000000000000003e-02  7.6666666664999994e-01  1.4999999999999999e-01
-4.9999999999999996e-02  8.3333333334999982e-01  1.4999999999999999e-01
-5.0000000000000003e-02  8.9999999999999991e-01  1.4999999999999997e-01
-5.0000000000000003e-02  9.6666666664999990e-01  1.4999999999999999e-01
-3.3333333335000000e-02  9.9999999999999978e-01  1.4999999999999997e-01
0.0000000000000000e+00  1.0000000000000000e+00  1.4999999999999997e-01
3.3333333335000007e-02  1.0000000000000000e+00  1.4999999999999999e-01
5.0000000000000003e-02  3.3333333335000000e-02  1.4999999999999999e-01
5.0000000000000003e-02  9.9999999985000004e-02  1.4999999999999999e-01
5.0000000000000003e-02  1.6666666664999999e-01  1.4999999999999999e-01
5.0000000000000003e-02  2.3333333334999998e-01  1.4999999999999999e-01
5.0000000000000003e-02  2.9999999999999993e-01  1.4999999999999997e-01
5.0000000000000003e-02  3.6666666665000003e-01  1.4999999999999999e-01
5.0000000000000003e-02  4.3333333334999991e-01  1.4999999999999999e-01
5.0000000000000003e-02  5.0000000000000000e-01  1.4999999999999997e-01
5.0000000000000003e-02  5.6666666664999987e-01  1.4999999999999999e-01
5.0000000000000003e-02  6.3333333334999997e-01  1.4999999999999999e-01
5.0000000000000003e-02  6.9999999999999984e-01  1.4999999999999997e-01
5.0000000000000003e-02  7.6666666664999994e-01  1.4999999999999999e-01
5.0000000000000003e-02  8.3333333334999993e-01  1.4999999999999999e-01
5.0000000000000010e-02  8.9999999999999991e-01  1.4999999999999999e-01
5.0000000000000003e-02  9.6666666664999990e-01  1.4999999999999999e-01

CELLS 0 0


CELL_TYPES 0


POINT_DATA 33

VECTORS VertexNormals float

0.0000000000000000e+00 0.0000000000000000e+00 0.0000000000000000e+00 
0.0000000000000000e+00 0.0000000000000000e+00 0.0000000000000000e+00 
0.0000000000000000e+00 0.0000000000000000e+00 0.0000000000000000e+00 
0.0000000000000000e+00 0.0000000000000000e+00 0.0000000000000000e+00 
0.0000000000000000e+00 0.0000000000000000e+00 0.0000000000000000e+00 
0.0000000000000000e+00 0.0000000000000000e+00 0.0000000000000000e+00 
0.0000000000000000e+00 0.0000000000000000e+00 0.0000000000000000e+00 
0.0000000000000000e+00 0.0000000000000000e+00 0.0000000000000000e+00 
0.0000000000000000e+00 0.0000000000000000e+00 0.0000000000000000e+00 
0.0000000000000000e+00 0.0000000000000000e+00 0.0000000000000000e+00 
0.0000000000000000e+00 0.0000000000000000e+00 0.0000000000000000e+00 
0.0000000000000000e+00 0.0000000000000000e+00 0.0000000000000000e+00 
0.0000000000000000e+00 0.0000000000000000e+00 0.0000000000000000e+00 
0.0000000000000000e+00 0.0000000000000000e+00 0.0000000000000000e+00 
0.0000000000000000e+00 0.0000000000000000e+00 0.0000000000000000e+00 
0.0000000000000000e+00 0.0000000000000000e+00 0.0000000000000000e+00 
0.0000000000000000e+00 0.0000000000000000e+00 0.0000000000000000e+00 
0.0000000000000000e+00 0.0000000000000000e+00 0.0000000000000000e+00 
0.0000000000000000e+00 0.0000000000000000e+00 0.0000000000000000e+00 
0.0000000000000000e+00 0.0000000000000000e+00 0.0000000000000000e+00 
0.0000000000000000e+00 0.0000000000000000e+00 0.0000000000000000e+00 
0.0000000000000000e+00 0.0000000000000000e+00 0.0000000000000000e+00 
0.0000000000000000e+00 0.0000000000000000e+00 0.0000000000000000e+00 
0.0000000000000000e+00 0.0000000000000000e+00 0.0000000000000000e+00 
0.0000000000000000e+00 0.0000000000000000e+00 0.0000000000000000e+00 
0.0000000000000000e+00 0.0000000000000000e+00 0.0000000000000000e+00 
0.0000000000000000e+00 0.0000000000000000e+00 0.0000000000000000e+00 
0.0000000000000000e+00 0.0000000000000000e+00 0.0000000000000000e+00 
0.0000000000000000e+00 0.0000000000000000e+00 0.0000000000000000e+00 
0.0000000000000000e+00 0.0000000000000000e+00 0.0000000000000000e+00 
0.0000000000000000e+00 0.0000000000000000e+00 0.0000000000000000e+00 
0.0000000000000000e+00 0.0000000000000000e+00 0.0000000000000000e+00 
0.0000000000000000e+00 0.0000000000000000e+00 0.0000000000000000e+00 

VECTORS Stress float
1.1306103438433240e+02 -6.2672372937756267e+00 4.8997640815745077e-13 
1.1304034248758454e+02 -1.0482065921098883e+01 6.5038750783290814e-13 
1.1274555515781003e+02 -1.3440262973794900e+01 9.5287391548949459e-14 
1.1209350291129093e+02 -1.5266313974203408e+01 -6.1670705481731623e-13 
1.1108220747222376e+02 -1.5704759022607096e+01 -5.4213096786976592e-13 
1.0960073826626653e+02 -1.5084297213557582e+01 3.6265020827538681e-13 
1.0750469845982927e+02 -1.3970780853794125e+01 6.9827212083696570e-13 
1.0493091556757204e+02 -1.1807777587611756e+01 4.0658472413420370e-13 
1.0163045404468400e+02 -9.3060700137752121e+00 -2.1168871169242960e-13 
9.7097557142635651e+01 -7.5969397888202526e+00 -2.8308575651095229e-13 
9.1280248931913448e+01 -5.6407022248653611e+00 1.0461240873276650e-12 
8.3346395031680217e+01 -4.3995872618833012e+00 1.0606042783663870e-12 
7.2298540692770331e+01 -3.2812989220993440e+00 -4.8568225594132339e-13 
5.5684871368692981e+01 -2.2190219050367395e+00 -9.5447702003495408e-13 
2.6615601608416696e+01 -7.9852104883652031e-01 -4.5050922140479404e-13 
6.3480732920954690e+00 1.2706849818225329e+02 1.0236196388773380e-16 
5.1907371623217369e+00 1.0782604735396045e+02 8.0423815217233976e-17 
3.8640410506742695e+00 8.6934174458458727e+01 -6.5051502681748886e-17 
5.7018221622376309e+01 -3.5600800006650068e+00 -7.2495241477983039e-14 
5.6644754293770461e+01 -5.5348007804507269e+00 -2.8657790497376617e-13 
5.6638340425832467e+01 -7.0099209260951270e+00 -2.9716592653256959e-13 
5.7334082735410654e+01 -7.8891182989097688e+00 1.1411330872332322e-12 
5.8940729403176967e+01 -8.3001056015988777e+00 1.2320915649200935e-12 
6.1393645649515953e+01 -8.3473107941019666e+00 -1.3286754781537904e-12 
6.4462380011607550e+01 -8.0914690708704669e+00 -1.8237172238097128e-12 
6.7953814551625356e+01 -7.3472051313618447e+00 -8.8177578768629032e-13 
7.1346766377308512e+01 -6.3411686088900954e+00 -7.2403532642259792e-13 
7.4055143026774402e+01 -5.5838953345316718e+00 -3.3338862104971171e-13 
7.5985609810027071e+01 -4.6374563315683623e+00 -4.3084850512595159e-13 
7.6847584141244141e+01 -3.9926498538237074e+00 -4.8664196914771359e-13 
7.6684007361462491e+01 -3.6559775096241443e+00 1.9074947754152212e-13 
7.5751930571816089e+01 -3.1630275165469239e+00 7.4127761726422397e-13 
7.3986127549317303e+01 -3.0937591365033645e+00 4.9981226877518374e-13 

