# vtk DataFile Version 2.0

ASCII

DATASET UNSTRUCTURED_GRID

POINTS 33 float 

-5.0000000000000003e-02  3.3333333335000000e-02  1.4999999999999997e-01
-5.0000000000000003e-02  9.9999999985000018e-02  1.4999999999999999e-01
-5.0000000000000003e-02  1.6666666665000002e-01  1.4999999999999999e-01
-5.0000000000000003e-02  2.3333333334999998e-01  1.4999999999999999e-01
-5.0000000000000003e-02  2.9999999999999993e-01  1.4999999999999997e-01
-5.0000000000000003e-02  3.6666666665000003e-01  1.4999999999999999e-01
-5.0000000000000003e-02  4.3333333335000002e-01  1.4999999999999999e-01
-5.0000000000000003e-02  5.0000000000000000e-01  1.4999999999999997e-01
-5.0000000000000003e-02  5.6666666664999987e-01  1.4999999999999999e-01
-5.0000000000000003e-02  6.3333333334999986e-01  1.4999999999999999e-01
-5.0000000000000003e-02  6.9999999999999984e-01  1.4999999999999997e-01
-5.0000000000000003e-02  7.6666666664999994e-01  1.4999999999999999e-01
-4.9999999999999996e-02  8.3333333334999982e-01  1.4999999999999999e-01
-5.0000000000000003e-02  8.9999999999999991e-01  1.4999999999999997e-01
-5.0000000000000003e-02  9.6666666664999990e-01  1.4999999999999999e-01
-3.3333333335000000e-02  9.9999999999999978e-01  1.4999999999999997e-01
0.0000000000000000e+00  1.0000000000000000e+00  1.4999999999999997e-01
3.3333333335000007e-02  1.0000000000000000e+00  1.4999999999999999e-01
5.0000000000000003e-02  3.3333333335000000e-02  1.4999999999999999e-01
5.0000000000000003e-02  9.9999999985000004e-02  1.4999999999999999e-01
5.0000000000000003e-02  1.6666666664999999e-01  1.4999999999999999e-01
5.0000000000000003e-02  2.3333333334999998e-01  1.4999999999999999e-01
5.0000000000000003e-02  2.9999999999999993e-01  1.4999999999999997e-01
5.0000000000000003e-02  3.6666666665000003e-01  1.4999999999999999e-01
5.0000000000000003e-02  4.3333333334999991e-01  1.4999999999999999e-01
5.0000000000000003e-02  5.0000000000000000e-01  1.4999999999999997e-01
5.0000000000000003e-02  5.6666666664999987e-01  1.4999999999999999e-01
5.0000000000000003e-02  6.3333333334999997e-01  1.4999999999999999e-01
5.0000000000000003e-02  6.9999999999999984e-01  1.4999999999999997e-01
5.0000000000000003e-02  7.6666666664999994e-01  1.4999999999999999e-01
5.0000000000000003e-02  8.3333333334999993e-01  1.4999999999999999e-01
5.0000000000000010e-02  8.9999999999999991e-01  1.4999999999999999e-01
5.0000000000000003e-02  9.6666666664999990e-01  1.4999999999999999e-01

CELLS 0 0


CELL_TYPES 0


POINT_DATA 33

VECTORS VertexNormals float

0.0000000000000000e+00 0.0000000000000000e+00 0.0000000000000000e+00 
0.0000000000000000e+00 0.0000000000000000e+00 0.0000000000000000e+00 
0.0000000000000000e+00 0.0000000000000000e+00 0.0000000000000000e+00 
0.0000000000000000e+00 0.0000000000000000e+00 0.0000000000000000e+00 
0.0000000000000000e+00 0.0000000000000000e+00 0.0000000000000000e+00 
0.0000000000000000e+00 0.0000000000000000e+00 0.0000000000000000e+00 
0.0000000000000000e+00 0.0000000000000000e+00 0.0000000000000000e+00 
0.0000000000000000e+00 0.0000000000000000e+00 0.0000000000000000e+00 
0.0000000000000000e+00 0.0000000000000000e+00 0.0000000000000000e+00 
0.0000000000000000e+00 0.0000000000000000e+00 0.0000000000000000e+00 
0.0000000000000000e+00 0.0000000000000000e+00 0.0000000000000000e+00 
0.0000000000000000e+00 0.0000000000000000e+00 0.0000000000000000e+00 
0.0000000000000000e+00 0.0000000000000000e+00 0.0000000000000000e+00 
0.0000000000000000e+00 0.0000000000000000e+00 0.0000000000000000e+00 
0.0000000000000000e+00 0.0000000000000000e+00 0.0000000000000000e+00 
0.0000000000000000e+00 0.0000000000000000e+00 0.0000000000000000e+00 
0.0000000000000000e+00 0.0000000000000000e+00 0.0000000000000000e+00 
0.0000000000000000e+00 0.0000000000000000e+00 0.0000000000000000e+00 
0.0000000000000000e+00 0.0000000000000000e+00 0.0000000000000000e+00 
0.0000000000000000e+00 0.0000000000000000e+00 0.0000000000000000e+00 
0.0000000000000000e+00 0.0000000000000000e+00 0.0000000000000000e+00 
0.0000000000000000e+00 0.0000000000000000e+00 0.0000000000000000e+00 
0.0000000000000000e+00 0.0000000000000000e+00 0.0000000000000000e+00 
0.0000000000000000e+00 0.0000000000000000e+00 0.0000000000000000e+00 
0.0000000000000000e+00 0.0000000000000000e+00 0.0000000000000000e+00 
0.0000000000000000e+00 0.0000000000000000e+00 0.0000000000000000e+00 
0.0000000000000000e+00 0.0000000000000000e+00 0.0000000000000000e+00 
0.0000000000000000e+00 0.0000000000000000e+00 0.0000000000000000e+00 
0.0000000000000000e+00 0.0000000000000000e+00 0.0000000000000000e+00 
0.0000000000000000e+00 0.0000000000000000e+00 0.0000000000000000e+00 
0.0000000000000000e+00 0.0000000000000000e+00 0.0000000000000000e+00 
0.0000000000000000e+00 0.0000000000000000e+00 0.0000000000000000e+00 
0.0000000000000000e+00 0.0000000000000000e+00 0.0000000000000000e+00 

VECTORS Stress float
1.7104832108780550e+02 -7.6266923125361625e+00 -5.3167011281267847e-13 
1.7079957003120848e+02 -1.4981847065181743e+01 -3.3712463113101406e-13 
1.7018865695288224e+02 -2.1990250649297575e+01 2.2598489831433517e-13 
1.6824919916089371e+02 -2.9419908356849092e+01 -1.8213595963499783e-12 
1.6462835748369224e+02 -3.6561937288265028e+01 -1.8563988782371348e-12 
1.5977713259602098e+02 -4.1787920808961253e+01 -8.9926259525267388e-13 
1.5392648930950344e+02 -4.5341782661413738e+01 -4.4953928174325310e-13 
1.4691726229094334e+02 -4.8198441262335457e+01 5.5552894463387323e-13 
1.3882152939890400e+02 -5.0553633899906195e+01 -9.3124429290867395e-13 
1.3043040957722093e+02 -5.1348451704000503e+01 -1.0362957079783903e-12 
1.2166490759813459e+02 -5.0771419428877266e+01 -4.5816040354291702e-13 
1.1160149405013669e+02 -4.9842550233371121e+01 -4.2631926246342934e-13 
1.0149497538806162e+02 -4.6592225013032888e+01 -1.5000910219243696e-13 
8.9797312583383942e+01 -4.1600775346932956e+01 -2.5726129323612272e-12 
7.3362957669502052e+01 -3.4345648645631286e+01 -2.2120314588717462e-12 
1.1313900118215310e+01 2.3736098840677005e+01 8.2074237548271134e-19 
1.4077262034864955e+00 3.1706932745214136e+00 9.4877613995493993e-17 
-5.3242313867865425e+00 -1.0837954715582015e+01 8.1978132214881073e-17 
-5.9842208576616358e+01 2.8570632555226281e+00 -1.6431879230015844e-13 
-5.9909042922077170e+01 5.6994280104489663e+00 -2.5723127078243682e-13 
-5.9696082409289815e+01 8.2155682170715778e+00 6.0227180977197839e-13 
-5.9000989155631771e+01 1.1231701622411579e+01 1.2293288140149382e-12 
-5.7891184577448257e+01 1.3728019357868854e+01 5.3706769573118414e-13 
-5.6366561614777339e+01 1.5696761971296441e+01 8.5304914258545813e-13 
-5.4485032769753516e+01 1.7077518061429597e+01 4.5298375984198718e-13 
-5.2174668667193501e+01 1.8266657975042722e+01 -3.9730453352111734e-13 
-4.9436361343678769e+01 1.9120885572171332e+01 2.4571836029371640e-13 
-4.6334965306114626e+01 1.9234816758421832e+01 2.4158841951079723e-13 
-4.2883744346491284e+01 1.8935385804588410e+01 1.0152319154756318e-12 
-3.9168155314466226e+01 1.8286056127313600e+01 1.0805452072309184e-12 
-3.5216388751220123e+01 1.6693651944033505e+01 5.5961976165313402e-13 
-3.1317467375627363e+01 1.5058868632011874e+01 7.8824433333775606e-13 
-2.7922237111038374e+01 1.3588712717036481e+01 2.9929373423171410e-13 

