# vtk DataFile Version 2.0

ASCII

DATASET UNSTRUCTURED_GRID

POINTS 33 float 

-5.0000000000000003e-02  3.3333333335000000e-02  1.4999999999999997e-01
-5.0000000000000003e-02  9.9999999985000018e-02  1.4999999999999999e-01
-5.0000000000000003e-02  1.6666666665000002e-01  1.4999999999999999e-01
-5.0000000000000003e-02  2.3333333334999998e-01  1.4999999999999999e-01
-5.0000000000000003e-02  2.9999999999999993e-01  1.4999999999999997e-01
-5.0000000000000003e-02  3.6666666665000003e-01  1.4999999999999999e-01
-5.0000000000000003e-02  4.3333333335000002e-01  1.4999999999999999e-01
-5.0000000000000003e-02  5.0000000000000000e-01  1.4999999999999997e-01
-5.0000000000000003e-02  5.6666666664999987e-01  1.4999999999999999e-01
-5.0000000000000003e-02  6.3333333334999986e-01  1.4999999999999999e-01
-5.0000000000000003e-02  6.9999999999999984e-01  1.4999999999999997e-01
-5.0000000000000003e-02  7.6666666664999994e-01  1.4999999999999999e-01
-4.9999999999999996e-02  8.3333333334999982e-01  1.4999999999999999e-01
-5.0000000000000003e-02  8.9999999999999991e-01  1.4999999999999997e-01
-5.0000000000000003e-02  9.6666666664999990e-01  1.4999999999999999e-01
-3.3333333335000000e-02  9.9999999999999978e-01  1.4999999999999997e-01
0.0000000000000000e+00  1.0000000000000000e+00  1.4999999999999997e-01
3.3333333335000007e-02  1.0000000000000000e+00  1.4999999999999999e-01
5.0000000000000003e-02  3.3333333335000000e-02  1.4999999999999999e-01
5.0000000000000003e-02  9.9999999985000004e-02  1.4999999999999999e-01
5.0000000000000003e-02  1.6666666664999999e-01  1.4999999999999999e-01
5.0000000000000003e-02  2.3333333334999998e-01  1.4999999999999999e-01
5.0000000000000003e-02  2.9999999999999993e-01  1.4999999999999997e-01
5.0000000000000003e-02  3.6666666665000003e-01  1.4999999999999999e-01
5.0000000000000003e-02  4.3333333334999991e-01  1.4999999999999999e-01
5.0000000000000003e-02  5.0000000000000000e-01  1.4999999999999997e-01
5.0000000000000003e-02  5.6666666664999987e-01  1.4999999999999999e-01
5.0000000000000003e-02  6.3333333334999997e-01  1.4999999999999999e-01
5.0000000000000003e-02  6.9999999999999984e-01  1.4999999999999997e-01
5.0000000000000003e-02  7.6666666664999994e-01  1.4999999999999999e-01
5.0000000000000003e-02  8.3333333334999993e-01  1.4999999999999999e-01
5.0000000000000010e-02  8.9999999999999991e-01  1.4999999999999999e-01
5.0000000000000003e-02  9.6666666664999990e-01  1.4999999999999999e-01

CELLS 0 0


CELL_TYPES 0


POINT_DATA 33

VECTORS VertexNormals float

0.0000000000000000e+00 0.0000000000000000e+00 0.0000000000000000e+00 
0.0000000000000000e+00 0.0000000000000000e+00 0.0000000000000000e+00 
0.0000000000000000e+00 0.0000000000000000e+00 0.0000000000000000e+00 
0.0000000000000000e+00 0.0000000000000000e+00 0.0000000000000000e+00 
0.0000000000000000e+00 0.0000000000000000e+00 0.0000000000000000e+00 
0.0000000000000000e+00 0.0000000000000000e+00 0.0000000000000000e+00 
0.0000000000000000e+00 0.0000000000000000e+00 0.0000000000000000e+00 
0.0000000000000000e+00 0.0000000000000000e+00 0.0000000000000000e+00 
0.0000000000000000e+00 0.0000000000000000e+00 0.0000000000000000e+00 
0.0000000000000000e+00 0.0000000000000000e+00 0.0000000000000000e+00 
0.0000000000000000e+00 0.0000000000000000e+00 0.0000000000000000e+00 
0.0000000000000000e+00 0.0000000000000000e+00 0.0000000000000000e+00 
0.0000000000000000e+00 0.0000000000000000e+00 0.0000000000000000e+00 
0.0000000000000000e+00 0.0000000000000000e+00 0.0000000000000000e+00 
0.0000000000000000e+00 0.0000000000000000e+00 0.0000000000000000e+00 
0.0000000000000000e+00 0.0000000000000000e+00 0.0000000000000000e+00 
0.0000000000000000e+00 0.0000000000000000e+00 0.0000000000000000e+00 
0.0000000000000000e+00 0.0000000000000000e+00 0.0000000000000000e+00 
0.0000000000000000e+00 0.0000000000000000e+00 0.0000000000000000e+00 
0.0000000000000000e+00 0.0000000000000000e+00 0.0000000000000000e+00 
0.0000000000000000e+00 0.0000000000000000e+00 0.0000000000000000e+00 
0.0000000000000000e+00 0.0000000000000000e+00 0.0000000000000000e+00 
0.0000000000000000e+00 0.0000000000000000e+00 0.0000000000000000e+00 
0.0000000000000000e+00 0.0000000000000000e+00 0.0000000000000000e+00 
0.0000000000000000e+00 0.0000000000000000e+00 0.0000000000000000e+00 
0.0000000000000000e+00 0.0000000000000000e+00 0.0000000000000000e+00 
0.0000000000000000e+00 0.0000000000000000e+00 0.0000000000000000e+00 
0.0000000000000000e+00 0.0000000000000000e+00 0.0000000000000000e+00 
0.0000000000000000e+00 0.0000000000000000e+00 0.0000000000000000e+00 
0.0000000000000000e+00 0.0000000000000000e+00 0.0000000000000000e+00 
0.0000000000000000e+00 0.0000000000000000e+00 0.0000000000000000e+00 
0.0000000000000000e+00 0.0000000000000000e+00 0.0000000000000000e+00 
0.0000000000000000e+00 0.0000000000000000e+00 0.0000000000000000e+00 

VECTORS Stress float
1.1320358851478441e+02 -5.9451705151638459e+00 -2.0485815033982228e-13 
1.1311408890229133e+02 -1.1055715921644847e+01 -2.1936141902933855e-13 
1.1273397635863618e+02 -1.4252990943166129e+01 8.0653587364808114e-14 
1.1211918705561251e+02 -1.5526220135427604e+01 2.6211663988569973e-13 
1.1117904220333799e+02 -1.5355356943694135e+01 1.6437984345426265e-13 
1.0953297049280782e+02 -1.5328160586825678e+01 2.5107613012772131e-13 
1.0736341556854268e+02 -1.4293318136894685e+01 1.9819163757922067e-13 
1.0472680650164727e+02 -1.2108802304135242e+01 5.0974605390938910e-14 
1.0119962945212393e+02 -1.0157990478370069e+01 9.3290819912095508e-13 
9.6649265004134861e+01 -8.2270058107050161e+00 8.2995906183677704e-13 
9.0758711195831907e+01 -6.3510599942392396e+00 -1.2856125979299964e-12 
8.2734541378486568e+01 -5.1668147393396682e+00 -1.8617338639490312e-12 
7.1731592681612369e+01 -3.8619276117177406e+00 -3.0134212340370204e-13 
5.5161356618646657e+01 -2.6909826331502558e+00 1.5721401779543332e-12 
2.6241313678007383e+01 -1.0757539957122675e+00 1.2779105874243674e-12 
7.0506446825787865e+00 1.2542758641151607e+02 0.0000000000000000e+00 
5.8279130040016405e+00 1.0614510951552435e+02 -8.0349818549117184e-17 
4.3749022158719439e+00 8.5532838086784480e+01 1.4254747193128263e-17 
5.5943751963304734e+01 -3.1781147360713775e+00 1.6158213462905068e-12 
5.5515084379694933e+01 -5.8113679179674653e+00 2.3834142241004910e-12 
5.5457104320413038e+01 -7.2459339582407782e+00 7.0424074241039752e-13 
5.6190038843306510e+01 -7.7631063367493853e+00 -5.1653725322308014e-13 
5.7829296423500629e+01 -7.9894351302258260e+00 -4.7613066005540007e-13 
6.0182650186447468e+01 -8.2322079298363828e+00 -6.0245076662157488e-13 
6.3122642087245815e+01 -8.2579337358279385e+00 -8.2493976899172767e-13 
6.6573966819259581e+01 -7.4178225155804274e+00 3.1365021229069403e-13 
6.9787409816718167e+01 -6.7957589143044048e+00 5.8180582936340947e-13 
7.2529980330412783e+01 -5.9586860634703305e+00 4.8448686181659692e-14 
7.4471088961306705e+01 -5.1480463685156952e+00 8.7417340024828014e-13 
7.5377345613470027e+01 -4.6625994124529377e+00 1.7290275723070557e-12 
7.5386632025325824e+01 -4.1105647791633713e+00 9.6725952298681989e-13 
7.4428846427821000e+01 -3.9285761840937612e+00 -7.4471677695617096e-14 
7.2716212182115314e+01 -3.7679687317645998e+00 -1.8910424234990159e-13 

