# vtk DataFile Version 2.0

ASCII

DATASET UNSTRUCTURED_GRID

POINTS 33 double 

-5.0000000000000003e-02  3.3333333335000000e-02  1.4999999999999997e-01
-5.0000000000000003e-02  9.9999999985000018e-02  1.4999999999999999e-01
-5.0000000000000003e-02  1.6666666665000002e-01  1.4999999999999999e-01
-5.0000000000000003e-02  2.3333333334999998e-01  1.4999999999999999e-01
-5.0000000000000003e-02  2.9999999999999993e-01  1.4999999999999997e-01
-5.0000000000000003e-02  3.6666666665000003e-01  1.4999999999999999e-01
-5.0000000000000003e-02  4.3333333335000002e-01  1.4999999999999999e-01
-5.0000000000000003e-02  5.0000000000000000e-01  1.4999999999999997e-01
-5.0000000000000003e-02  5.6666666664999987e-01  1.4999999999999999e-01
-5.0000000000000003e-02  6.3333333334999986e-01  1.4999999999999999e-01
-5.0000000000000003e-02  6.9999999999999984e-01  1.4999999999999997e-01
-5.0000000000000003e-02  7.6666666664999994e-01  1.4999999999999999e-01
-4.9999999999999996e-02  8.3333333334999982e-01  1.4999999999999999e-01
-5.0000000000000003e-02  8.9999999999999991e-01  1.4999999999999997e-01
-5.0000000000000003e-02  9.6666666664999990e-01  1.4999999999999999e-01
-3.3333333335000000e-02  9.9999999999999978e-01  1.4999999999999997e-01
0.0000000000000000e+00  1.0000000000000000e+00  1.4999999999999997e-01
3.3333333335000007e-02  1.0000000000000000e+00  1.4999999999999999e-01
5.0000000000000003e-02  3.3333333335000000e-02  1.4999999999999999e-01
5.0000000000000003e-02  9.9999999985000004e-02  1.4999999999999999e-01
5.0000000000000003e-02  1.6666666664999999e-01  1.4999999999999999e-01
5.0000000000000003e-02  2.3333333334999998e-01  1.4999999999999999e-01
5.0000000000000003e-02  2.9999999999999993e-01  1.4999999999999997e-01
5.0000000000000003e-02  3.6666666665000003e-01  1.4999999999999999e-01
5.0000000000000003e-02  4.3333333334999991e-01  1.4999999999999999e-01
5.0000000000000003e-02  5.0000000000000000e-01  1.4999999999999997e-01
5.0000000000000003e-02  5.6666666664999987e-01  1.4999999999999999e-01
5.0000000000000003e-02  6.3333333334999997e-01  1.4999999999999999e-01
5.0000000000000003e-02  6.9999999999999984e-01  1.4999999999999997e-01
5.0000000000000003e-02  7.6666666664999994e-01  1.4999999999999999e-01
5.0000000000000003e-02  8.3333333334999993e-01  1.4999999999999999e-01
5.0000000000000010e-02  8.9999999999999991e-01  1.4999999999999999e-01
5.0000000000000003e-02  9.6666666664999990e-01  1.4999999999999999e-01

CELLS 0 0


CELL_TYPES 0


POINT_DATA 33

VECTORS VertexNormals double

0.0000000000000000e+00 0.0000000000000000e+00 0.0000000000000000e+00 
0.0000000000000000e+00 0.0000000000000000e+00 0.0000000000000000e+00 
0.0000000000000000e+00 0.0000000000000000e+00 0.0000000000000000e+00 
0.0000000000000000e+00 0.0000000000000000e+00 0.0000000000000000e+00 
0.0000000000000000e+00 0.0000000000000000e+00 0.0000000000000000e+00 
0.0000000000000000e+00 0.0000000000000000e+00 0.0000000000000000e+00 
0.0000000000000000e+00 0.0000000000000000e+00 0.0000000000000000e+00 
0.0000000000000000e+00 0.0000000000000000e+00 0.0000000000000000e+00 
0.0000000000000000e+00 0.0000000000000000e+00 0.0000000000000000e+00 
0.0000000000000000e+00 0.0000000000000000e+00 0.0000000000000000e+00 
0.0000000000000000e+00 0.0000000000000000e+00 0.0000000000000000e+00 
0.0000000000000000e+00 0.0000000000000000e+00 0.0000000000000000e+00 
0.0000000000000000e+00 0.0000000000000000e+00 0.0000000000000000e+00 
0.0000000000000000e+00 0.0000000000000000e+00 0.0000000000000000e+00 
0.0000000000000000e+00 0.0000000000000000e+00 0.0000000000000000e+00 
0.0000000000000000e+00 0.0000000000000000e+00 0.0000000000000000e+00 
0.0000000000000000e+00 0.0000000000000000e+00 0.0000000000000000e+00 
0.0000000000000000e+00 0.0000000000000000e+00 0.0000000000000000e+00 
0.0000000000000000e+00 0.0000000000000000e+00 0.0000000000000000e+00 
0.0000000000000000e+00 0.0000000000000000e+00 0.0000000000000000e+00 
0.0000000000000000e+00 0.0000000000000000e+00 0.0000000000000000e+00 
0.0000000000000000e+00 0.0000000000000000e+00 0.0000000000000000e+00 
0.0000000000000000e+00 0.0000000000000000e+00 0.0000000000000000e+00 
0.0000000000000000e+00 0.0000000000000000e+00 0.0000000000000000e+00 
0.0000000000000000e+00 0.0000000000000000e+00 0.0000000000000000e+00 
0.0000000000000000e+00 0.0000000000000000e+00 0.0000000000000000e+00 
0.0000000000000000e+00 0.0000000000000000e+00 0.0000000000000000e+00 
0.0000000000000000e+00 0.0000000000000000e+00 0.0000000000000000e+00 
0.0000000000000000e+00 0.0000000000000000e+00 0.0000000000000000e+00 
0.0000000000000000e+00 0.0000000000000000e+00 0.0000000000000000e+00 
0.0000000000000000e+00 0.0000000000000000e+00 0.0000000000000000e+00 
0.0000000000000000e+00 0.0000000000000000e+00 0.0000000000000000e+00 
0.0000000000000000e+00 0.0000000000000000e+00 0.0000000000000000e+00 

VECTORS Stress double
1.1144608720703508e+02 -3.1681355534641149e+00 -1.4814292520573640e-13 
1.1143451435599512e+02 -6.0698586950377571e+00 -5.2317943010186879e-14 
1.1099809013968000e+02 -8.0632459349226711e+00 3.9796605040228666e-14 
1.1017010598662633e+02 -8.8402473115643918e+00 -7.8330794917577510e-14 
1.0897718469306243e+02 -8.7719508258544554e+00 -2.4259215595463464e-14 
1.0744812655015808e+02 -7.8616597425014030e+00 4.5140581605395969e-13 
1.0552562490059695e+02 -6.5378298385241020e+00 6.8427691074722662e-13 
1.0320562040723784e+02 -4.3959167648221822e+00 -1.9479062655376112e-13 
1.0014734119775417e+02 -2.8943688372570993e+00 -8.8726685449782277e-13 
9.6331315178239166e+01 -9.6493755228141598e-01 -4.5820536519991083e-13 
9.1316254888908972e+01 1.8984522074440582e-01 2.5426568120336665e-13 
8.4751372673476638e+01 1.7800659314435747e+00 5.5573565551752559e-14 
7.5242104801952976e+01 3.5546480980965258e+00 -7.3385392194337335e-13 
5.8361665288607476e+01 3.3525476144777171e+00 -1.7032024088186527e-12 
2.4645788671130035e+01 1.7150215591763638e+00 -1.1787378606903555e-12 
-8.4299401527703601e+00 1.6496173342634629e+02 -7.9449074025077519e-17 
-7.4776393186493095e+00 1.4556593935190676e+02 -8.0163184878396942e-17 
-6.0007899466759484e+00 1.1698502585442291e+02 8.0890737173635421e-17 
8.7880066063647362e+01 -2.6965276498339037e+00 -2.8726273309399469e-13 
8.7695368487150247e+01 -4.9573239966838161e+00 -6.6036279676280477e-13 
8.7894785737831825e+01 -6.4716087361639358e+00 -3.2118817466730797e-13 
8.8691705488101462e+01 -7.2101098169196289e+00 4.6936253319862270e-14 
9.0247277602158292e+01 -7.2040793583005183e+00 -5.0556617586955604e-15 
9.2631389309280010e+01 -6.6299791363464626e+00 -2.3351360782536527e-13 
9.5742899540269022e+01 -5.7698395735449495e+00 -2.5554969517507526e-13 
9.9423074435633836e+01 -4.1068254238371580e+00 1.9163534502609227e-13 
1.0299717188600323e+02 -2.9059540653277756e+00 3.1660201054897072e-13 
1.0615900237165486e+02 -1.0726496965302583e+00 1.0363705496148758e-13 
1.0825772217364941e+02 1.5682149543523793e-01 -1.6652248122194412e-13 
1.0910560022760865e+02 2.1909426088935149e+00 1.4785259488461655e-13 
1.0818087081247876e+02 4.7562528206794070e+00 8.4637169319397087e-13 
1.0489142145634919e+02 5.6917167458655271e+00 7.2438493397281232e-13 
9.9788330760471752e+01 5.3528775833995796e+00 1.9293848160971554e-13 

