# vtk DataFile Version 2.0

ASCII

DATASET UNSTRUCTURED_GRID

POINTS 33 double 

-5.0000000000000003e-02  3.3333333335000000e-02  1.4999999999999997e-01
-5.0000000000000003e-02  9.9999999985000018e-02  1.4999999999999999e-01
-5.0000000000000003e-02  1.6666666665000002e-01  1.4999999999999999e-01
-5.0000000000000003e-02  2.3333333334999998e-01  1.4999999999999999e-01
-5.0000000000000003e-02  2.9999999999999993e-01  1.4999999999999997e-01
-5.0000000000000003e-02  3.6666666665000003e-01  1.4999999999999999e-01
-5.0000000000000003e-02  4.3333333335000002e-01  1.4999999999999999e-01
-5.0000000000000003e-02  5.0000000000000000e-01  1.4999999999999997e-01
-5.0000000000000003e-02  5.6666666664999987e-01  1.4999999999999999e-01
-5.0000000000000003e-02  6.3333333334999986e-01  1.4999999999999999e-01
-5.0000000000000003e-02  6.9999999999999984e-01  1.4999999999999997e-01
-5.0000000000000003e-02  7.6666666664999994e-01  1.4999999999999999e-01
-4.9999999999999996e-02  8.3333333334999982e-01  1.4999999999999999e-01
-5.0000000000000003e-02  8.9999999999999991e-01  1.4999999999999997e-01
-5.0000000000000003e-02  9.6666666664999990e-01  1.4999999999999999e-01
-3.3333333335000000e-02  9.9999999999999978e-01  1.4999999999999997e-01
0.0000000000000000e+00  1.0000000000000000e+00  1.4999999999999997e-01
3.3333333335000007e-02  1.0000000000000000e+00  1.4999999999999999e-01
5.0000000000000003e-02  3.3333333335000000e-02  1.4999999999999999e-01
5.0000000000000003e-02  9.9999999985000004e-02  1.4999999999999999e-01
5.0000000000000003e-02  1.6666666664999999e-01  1.4999999999999999e-01
5.0000000000000003e-02  2.3333333334999998e-01  1.4999999999999999e-01
5.0000000000000003e-02  2.9999999999999993e-01  1.4999999999999997e-01
5.0000000000000003e-02  3.6666666665000003e-01  1.4999999999999999e-01
5.0000000000000003e-02  4.3333333334999991e-01  1.4999999999999999e-01
5.0000000000000003e-02  5.0000000000000000e-01  1.4999999999999997e-01
5.0000000000000003e-02  5.6666666664999987e-01  1.4999999999999999e-01
5.0000000000000003e-02  6.3333333334999997e-01  1.4999999999999999e-01
5.0000000000000003e-02  6.9999999999999984e-01  1.4999999999999997e-01
5.0000000000000003e-02  7.6666666664999994e-01  1.4999999999999999e-01
5.0000000000000003e-02  8.3333333334999993e-01  1.4999999999999999e-01
5.0000000000000010e-02  8.9999999999999991e-01  1.4999999999999999e-01
5.0000000000000003e-02  9.6666666664999990e-01  1.4999999999999999e-01

CELLS 0 0


CELL_TYPES 0


POINT_DATA 33

VECTORS VertexNormals double

0.0000000000000000e+00 0.0000000000000000e+00 0.0000000000000000e+00 
0.0000000000000000e+00 0.0000000000000000e+00 0.0000000000000000e+00 
0.0000000000000000e+00 0.0000000000000000e+00 0.0000000000000000e+00 
0.0000000000000000e+00 0.0000000000000000e+00 0.0000000000000000e+00 
0.0000000000000000e+00 0.0000000000000000e+00 0.0000000000000000e+00 
0.0000000000000000e+00 0.0000000000000000e+00 0.0000000000000000e+00 
0.0000000000000000e+00 0.0000000000000000e+00 0.0000000000000000e+00 
0.0000000000000000e+00 0.0000000000000000e+00 0.0000000000000000e+00 
0.0000000000000000e+00 0.0000000000000000e+00 0.0000000000000000e+00 
0.0000000000000000e+00 0.0000000000000000e+00 0.0000000000000000e+00 
0.0000000000000000e+00 0.0000000000000000e+00 0.0000000000000000e+00 
0.0000000000000000e+00 0.0000000000000000e+00 0.0000000000000000e+00 
0.0000000000000000e+00 0.0000000000000000e+00 0.0000000000000000e+00 
0.0000000000000000e+00 0.0000000000000000e+00 0.0000000000000000e+00 
0.0000000000000000e+00 0.0000000000000000e+00 0.0000000000000000e+00 
0.0000000000000000e+00 0.0000000000000000e+00 0.0000000000000000e+00 
0.0000000000000000e+00 0.0000000000000000e+00 0.0000000000000000e+00 
0.0000000000000000e+00 0.0000000000000000e+00 0.0000000000000000e+00 
0.0000000000000000e+00 0.0000000000000000e+00 0.0000000000000000e+00 
0.0000000000000000e+00 0.0000000000000000e+00 0.0000000000000000e+00 
0.0000000000000000e+00 0.0000000000000000e+00 0.0000000000000000e+00 
0.0000000000000000e+00 0.0000000000000000e+00 0.0000000000000000e+00 
0.0000000000000000e+00 0.0000000000000000e+00 0.0000000000000000e+00 
0.0000000000000000e+00 0.0000000000000000e+00 0.0000000000000000e+00 
0.0000000000000000e+00 0.0000000000000000e+00 0.0000000000000000e+00 
0.0000000000000000e+00 0.0000000000000000e+00 0.0000000000000000e+00 
0.0000000000000000e+00 0.0000000000000000e+00 0.0000000000000000e+00 
0.0000000000000000e+00 0.0000000000000000e+00 0.0000000000000000e+00 
0.0000000000000000e+00 0.0000000000000000e+00 0.0000000000000000e+00 
0.0000000000000000e+00 0.0000000000000000e+00 0.0000000000000000e+00 
0.0000000000000000e+00 0.0000000000000000e+00 0.0000000000000000e+00 
0.0000000000000000e+00 0.0000000000000000e+00 0.0000000000000000e+00 
0.0000000000000000e+00 0.0000000000000000e+00 0.0000000000000000e+00 

VECTORS Stress double
1.1181715586277029e+02 -2.6494563736012697e+00 -7.0761838937463486e-13 
1.1177444765208364e+02 -4.6803003121629496e+00 -6.5173389453685992e-13 
1.1128346309918270e+02 -6.1669496247866649e+00 -1.7655676168939931e-13 
1.1039477081291611e+02 -6.5594121146522610e+00 -3.7414016717270860e-13 
1.0916888154375502e+02 -6.1478385575021148e+00 -1.4741633205725605e-13 
1.0762719617286443e+02 -4.9304675406457523e+00 5.9256195833321648e-13 
1.0565966268314388e+02 -3.6824607859202243e+00 7.0167062277775135e-13 
1.0322933948441298e+02 -1.9458962752620925e+00 -3.0612393105858747e-14 
1.0017938831519496e+02 -1.6160855293214668e-01 -2.2661350964808112e-13 
9.6059196840496398e+01 6.8697432042770279e-01 -8.5713945844232363e-14 
9.0677254399797349e+01 1.8503889499103212e+00 3.9896870411310150e-13 
8.3207666700799891e+01 2.5068939823821932e+00 5.1902214210864271e-13 
7.1499654808517221e+01 1.5896936824291867e+00 2.5139709432244509e-14 
5.2427819403464511e+01 6.8772359364090718e-01 -3.0758316331765687e-13 
1.7389818109867601e+01 4.5409332765029242e-01 -2.1368735857101936e-13 
-5.8679729621367882e-01 1.8344415342098279e+02 4.9072626326304953e-20 
-3.3242624008729094e-01 1.6271271605274180e+02 3.4736203073811347e-18 
-1.7580218445643980e-01 1.3046802944283863e+02 7.9525821120656845e-17 
9.7306295930059520e+01 -2.2687362268524476e+00 3.7063444224806568e-13 
9.7312288712272732e+01 -4.2717645169947804e+00 2.2634356188823053e-13 
9.7735235977696362e+01 -5.3661723815946658e+00 -2.8589140109703110e-14 
9.8713894011817573e+01 -5.9140617456545534e+00 1.1380622568774342e-13 
1.0043253299195295e+02 -5.5897734972030761e+00 -6.0516432646970388e-15 
1.0301773939381160e+02 -4.5608984698187358e+00 -2.0417331078670930e-13 
1.0641377978451705e+02 -3.5966118143732220e+00 -1.2471999135004084e-13 
1.1058010873201650e+02 -2.0430245067382540e+00 8.3502973143602332e-14 
1.1514443163517943e+02 -1.9744382050403284e-01 -6.4374193391872590e-14 
1.1923606749550025e+02 8.3467658655686583e-01 -6.7681351518891308e-14 
1.2236696159805443e+02 2.3694322675884427e+00 -4.4192565683490266e-13 
1.2371227355989670e+02 3.5847461616131246e+00 -3.8442478407417927e-13 
1.2231723601485125e+02 2.4180257541201544e+00 1.4938686016017692e-13 
1.1832172396414792e+02 9.9903286924187928e-01 3.3740880591479449e-13 
1.1206324866490293e+02 3.5943702483296508e-01 2.4435673295914615e-13 

