# vtk DataFile Version 2.0

ASCII

DATASET UNSTRUCTURED_GRID

POINTS 33 float 

-5.0000000000000003e-02  3.3333333335000000e-02  1.4999999999999997e-01
-5.0000000000000003e-02  9.9999999985000018e-02  1.4999999999999999e-01
-5.0000000000000003e-02  1.6666666665000002e-01  1.4999999999999999e-01
-5.0000000000000003e-02  2.3333333334999998e-01  1.4999999999999999e-01
-5.0000000000000003e-02  2.9999999999999993e-01  1.4999999999999997e-01
-5.0000000000000003e-02  3.6666666665000003e-01  1.4999999999999999e-01
-5.0000000000000003e-02  4.3333333335000002e-01  1.4999999999999999e-01
-5.0000000000000003e-02  5.0000000000000000e-01  1.4999999999999997e-01
-5.0000000000000003e-02  5.6666666664999987e-01  1.4999999999999999e-01
-5.0000000000000003e-02  6.3333333334999986e-01  1.4999999999999999e-01
-5.0000000000000003e-02  6.9999999999999984e-01  1.4999999999999997e-01
-5.0000000000000003e-02  7.6666666664999994e-01  1.4999999999999999e-01
-4.9999999999999996e-02  8.3333333334999982e-01  1.4999999999999999e-01
-5.0000000000000003e-02  8.9999999999999991e-01  1.4999999999999997e-01
-5.0000000000000003e-02  9.6666666664999990e-01  1.4999999999999999e-01
-3.3333333335000000e-02  9.9999999999999978e-01  1.4999999999999997e-01
0.0000000000000000e+00  1.0000000000000000e+00  1.4999999999999997e-01
3.3333333335000007e-02  1.0000000000000000e+00  1.4999999999999999e-01
5.0000000000000003e-02  3.3333333335000000e-02  1.4999999999999999e-01
5.0000000000000003e-02  9.9999999985000004e-02  1.4999999999999999e-01
5.0000000000000003e-02  1.6666666664999999e-01  1.4999999999999999e-01
5.0000000000000003e-02  2.3333333334999998e-01  1.4999999999999999e-01
5.0000000000000003e-02  2.9999999999999993e-01  1.4999999999999997e-01
5.0000000000000003e-02  3.6666666665000003e-01  1.4999999999999999e-01
5.0000000000000003e-02  4.3333333334999991e-01  1.4999999999999999e-01
5.0000000000000003e-02  5.0000000000000000e-01  1.4999999999999997e-01
5.0000000000000003e-02  5.6666666664999987e-01  1.4999999999999999e-01
5.0000000000000003e-02  6.3333333334999997e-01  1.4999999999999999e-01
5.0000000000000003e-02  6.9999999999999984e-01  1.4999999999999997e-01
5.0000000000000003e-02  7.6666666664999994e-01  1.4999999999999999e-01
5.0000000000000003e-02  8.3333333334999993e-01  1.4999999999999999e-01
5.0000000000000010e-02  8.9999999999999991e-01  1.4999999999999999e-01
5.0000000000000003e-02  9.6666666664999990e-01  1.4999999999999999e-01

CELLS 0 0


CELL_TYPES 0


POINT_DATA 33

VECTORS VertexNormals float

0.0000000000000000e+00 0.0000000000000000e+00 0.0000000000000000e+00 
0.0000000000000000e+00 0.0000000000000000e+00 0.0000000000000000e+00 
0.0000000000000000e+00 0.0000000000000000e+00 0.0000000000000000e+00 
0.0000000000000000e+00 0.0000000000000000e+00 0.0000000000000000e+00 
0.0000000000000000e+00 0.0000000000000000e+00 0.0000000000000000e+00 
0.0000000000000000e+00 0.0000000000000000e+00 0.0000000000000000e+00 
0.0000000000000000e+00 0.0000000000000000e+00 0.0000000000000000e+00 
0.0000000000000000e+00 0.0000000000000000e+00 0.0000000000000000e+00 
0.0000000000000000e+00 0.0000000000000000e+00 0.0000000000000000e+00 
0.0000000000000000e+00 0.0000000000000000e+00 0.0000000000000000e+00 
0.0000000000000000e+00 0.0000000000000000e+00 0.0000000000000000e+00 
0.0000000000000000e+00 0.0000000000000000e+00 0.0000000000000000e+00 
0.0000000000000000e+00 0.0000000000000000e+00 0.0000000000000000e+00 
0.0000000000000000e+00 0.0000000000000000e+00 0.0000000000000000e+00 
0.0000000000000000e+00 0.0000000000000000e+00 0.0000000000000000e+00 
0.0000000000000000e+00 0.0000000000000000e+00 0.0000000000000000e+00 
0.0000000000000000e+00 0.0000000000000000e+00 0.0000000000000000e+00 
0.0000000000000000e+00 0.0000000000000000e+00 0.0000000000000000e+00 
0.0000000000000000e+00 0.0000000000000000e+00 0.0000000000000000e+00 
0.0000000000000000e+00 0.0000000000000000e+00 0.0000000000000000e+00 
0.0000000000000000e+00 0.0000000000000000e+00 0.0000000000000000e+00 
0.0000000000000000e+00 0.0000000000000000e+00 0.0000000000000000e+00 
0.0000000000000000e+00 0.0000000000000000e+00 0.0000000000000000e+00 
0.0000000000000000e+00 0.0000000000000000e+00 0.0000000000000000e+00 
0.0000000000000000e+00 0.0000000000000000e+00 0.0000000000000000e+00 
0.0000000000000000e+00 0.0000000000000000e+00 0.0000000000000000e+00 
0.0000000000000000e+00 0.0000000000000000e+00 0.0000000000000000e+00 
0.0000000000000000e+00 0.0000000000000000e+00 0.0000000000000000e+00 
0.0000000000000000e+00 0.0000000000000000e+00 0.0000000000000000e+00 
0.0000000000000000e+00 0.0000000000000000e+00 0.0000000000000000e+00 
0.0000000000000000e+00 0.0000000000000000e+00 0.0000000000000000e+00 
0.0000000000000000e+00 0.0000000000000000e+00 0.0000000000000000e+00 
0.0000000000000000e+00 0.0000000000000000e+00 0.0000000000000000e+00 

VECTORS Stress float
1.1147802937204385e+02 -3.9703294959494868e+00 -1.2025034263256772e-12 
1.1142614760077063e+02 -9.2288023026301609e+00 -1.5440948619500302e-12 
1.1101879402550793e+02 -1.3250918401743998e+01 -3.5702752152387685e-13 
1.1041068520988752e+02 -1.4879205720475873e+01 5.7831704543684524e-13 
1.0937788441884254e+02 -1.5357000740659446e+01 5.8488387906782065e-13 
1.0793217646175466e+02 -1.4693574153775879e+01 1.1679479753096454e-13 
1.0619590305732740e+02 -1.2669230102540773e+01 -1.0749962026853604e-13 
1.0393908177499496e+02 -9.9956999476145008e+00 1.7999264806235919e-13 
1.0075162864506842e+02 -7.8001027568865968e+00 1.4460727161832766e-12 
9.6554413903029584e+01 -5.6111351713087583e+00 1.0424332330434119e-12 
9.0997955856195219e+01 -3.4422042971280966e+00 -6.0004347176738081e-13 
8.3146088264079154e+01 -2.4292089189593811e+00 -1.5773487256465196e-12 
7.2244644321161573e+01 -1.2492381914076365e+00 -1.6982384015187875e-12 
5.5272393097154534e+01 -8.0798892578576353e-01 -5.2953537185626256e-13 
2.5200808819205985e+01 -1.3702617759692981e-01 1.9024057026491877e-13 
3.2365960930034006e+00 1.3334843846162502e+02 8.0352840456827053e-17 
2.5327782895339248e+00 1.1416428626426739e+02 8.0474016956188204e-17 
1.7703347956468878e+00 9.2446183713603205e+01 7.2128015721310266e-17 
6.2934491796402149e+01 -2.5652428785114472e+00 3.1001396204217075e-13 
6.2525891835208157e+01 -5.4829576612911337e+00 5.9704727961343761e-13 
6.2485546726264033e+01 -7.7095445211286693e+00 -3.0720305850365155e-13 
6.3241292891951652e+01 -8.6448892191657762e+00 -1.4245995370036805e-12 
6.4863093882913347e+01 -9.0166333313247513e+00 -8.3068543873575670e-13 
6.7344646121503317e+01 -9.0675633699996130e+00 -1.8906615610447382e-13 
7.0755598425364994e+01 -8.1159893082074461e+00 -2.0811195192363201e-13 
7.4489840244916849e+01 -6.8974152315136061e+00 -5.0461552066953154e-13 
7.7871702417154168e+01 -5.8284964772283772e+00 -1.1346166319260078e-12 
8.0658654189027800e+01 -4.4841872917317449e+00 -6.4857503764194620e-13 
8.2484001889914495e+01 -3.0499209691079039e+00 2.7530359006071338e-13 
8.2993602946566327e+01 -2.4033974083021987e+00 1.0344099323905352e-12 
8.2531093677841810e+01 -1.6270787920638425e+00 1.0130066047978489e-12 
8.1117959168237292e+01 -1.4001854334320454e+00 3.5613190286073685e-13 
7.8975094034687558e+01 -1.3899442872260439e+00 1.0312379052459732e-13 

