# vtk DataFile Version 2.0

ASCII

DATASET UNSTRUCTURED_GRID

POINTS 33 double 

-5.0000000000000003e-02  3.3333333335000000e-02  1.4999999999999997e-01
-5.0000000000000003e-02  9.9999999985000018e-02  1.4999999999999999e-01
-5.0000000000000003e-02  1.6666666665000002e-01  1.4999999999999999e-01
-5.0000000000000003e-02  2.3333333334999998e-01  1.4999999999999999e-01
-5.0000000000000003e-02  2.9999999999999993e-01  1.4999999999999997e-01
-5.0000000000000003e-02  3.6666666665000003e-01  1.4999999999999999e-01
-5.0000000000000003e-02  4.3333333335000002e-01  1.4999999999999999e-01
-5.0000000000000003e-02  5.0000000000000000e-01  1.4999999999999997e-01
-5.0000000000000003e-02  5.6666666664999987e-01  1.4999999999999999e-01
-5.0000000000000003e-02  6.3333333334999986e-01  1.4999999999999999e-01
-5.0000000000000003e-02  6.9999999999999984e-01  1.4999999999999997e-01
-5.0000000000000003e-02  7.6666666664999994e-01  1.4999999999999999e-01
-4.9999999999999996e-02  8.3333333334999982e-01  1.4999999999999999e-01
-5.0000000000000003e-02  8.9999999999999991e-01  1.4999999999999997e-01
-5.0000000000000003e-02  9.6666666664999990e-01  1.4999999999999999e-01
-3.3333333335000000e-02  9.9999999999999978e-01  1.4999999999999997e-01
0.0000000000000000e+00  1.0000000000000000e+00  1.4999999999999997e-01
3.3333333335000007e-02  1.0000000000000000e+00  1.4999999999999999e-01
5.0000000000000003e-02  3.3333333335000000e-02  1.4999999999999999e-01
5.0000000000000003e-02  9.9999999985000004e-02  1.4999999999999999e-01
5.0000000000000003e-02  1.6666666664999999e-01  1.4999999999999999e-01
5.0000000000000003e-02  2.3333333334999998e-01  1.4999999999999999e-01
5.0000000000000003e-02  2.9999999999999993e-01  1.4999999999999997e-01
5.0000000000000003e-02  3.6666666665000003e-01  1.4999999999999999e-01
5.0000000000000003e-02  4.3333333334999991e-01  1.4999999999999999e-01
5.0000000000000003e-02  5.0000000000000000e-01  1.4999999999999997e-01
5.0000000000000003e-02  5.6666666664999987e-01  1.4999999999999999e-01
5.0000000000000003e-02  6.3333333334999997e-01  1.4999999999999999e-01
5.0000000000000003e-02  6.9999999999999984e-01  1.4999999999999997e-01
5.0000000000000003e-02  7.6666666664999994e-01  1.4999999999999999e-01
5.0000000000000003e-02  8.3333333334999993e-01  1.4999999999999999e-01
5.0000000000000010e-02  8.9999999999999991e-01  1.4999999999999999e-01
5.0000000000000003e-02  9.6666666664999990e-01  1.4999999999999999e-01

CELLS 0 0


CELL_TYPES 0


POINT_DATA 33

VECTORS VertexNormals double

0.0000000000000000e+00 0.0000000000000000e+00 0.0000000000000000e+00 
0.0000000000000000e+00 0.0000000000000000e+00 0.0000000000000000e+00 
0.0000000000000000e+00 0.0000000000000000e+00 0.0000000000000000e+00 
0.0000000000000000e+00 0.0000000000000000e+00 0.0000000000000000e+00 
0.0000000000000000e+00 0.0000000000000000e+00 0.0000000000000000e+00 
0.0000000000000000e+00 0.0000000000000000e+00 0.0000000000000000e+00 
0.0000000000000000e+00 0.0000000000000000e+00 0.0000000000000000e+00 
0.0000000000000000e+00 0.0000000000000000e+00 0.0000000000000000e+00 
0.0000000000000000e+00 0.0000000000000000e+00 0.0000000000000000e+00 
0.0000000000000000e+00 0.0000000000000000e+00 0.0000000000000000e+00 
0.0000000000000000e+00 0.0000000000000000e+00 0.0000000000000000e+00 
0.0000000000000000e+00 0.0000000000000000e+00 0.0000000000000000e+00 
0.0000000000000000e+00 0.0000000000000000e+00 0.0000000000000000e+00 
0.0000000000000000e+00 0.0000000000000000e+00 0.0000000000000000e+00 
0.0000000000000000e+00 0.0000000000000000e+00 0.0000000000000000e+00 
0.0000000000000000e+00 0.0000000000000000e+00 0.0000000000000000e+00 
0.0000000000000000e+00 0.0000000000000000e+00 0.0000000000000000e+00 
0.0000000000000000e+00 0.0000000000000000e+00 0.0000000000000000e+00 
0.0000000000000000e+00 0.0000000000000000e+00 0.0000000000000000e+00 
0.0000000000000000e+00 0.0000000000000000e+00 0.0000000000000000e+00 
0.0000000000000000e+00 0.0000000000000000e+00 0.0000000000000000e+00 
0.0000000000000000e+00 0.0000000000000000e+00 0.0000000000000000e+00 
0.0000000000000000e+00 0.0000000000000000e+00 0.0000000000000000e+00 
0.0000000000000000e+00 0.0000000000000000e+00 0.0000000000000000e+00 
0.0000000000000000e+00 0.0000000000000000e+00 0.0000000000000000e+00 
0.0000000000000000e+00 0.0000000000000000e+00 0.0000000000000000e+00 
0.0000000000000000e+00 0.0000000000000000e+00 0.0000000000000000e+00 
0.0000000000000000e+00 0.0000000000000000e+00 0.0000000000000000e+00 
0.0000000000000000e+00 0.0000000000000000e+00 0.0000000000000000e+00 
0.0000000000000000e+00 0.0000000000000000e+00 0.0000000000000000e+00 
0.0000000000000000e+00 0.0000000000000000e+00 0.0000000000000000e+00 
0.0000000000000000e+00 0.0000000000000000e+00 0.0000000000000000e+00 
0.0000000000000000e+00 0.0000000000000000e+00 0.0000000000000000e+00 

VECTORS Stress double
1.7494020656696844e+02 -7.9658588663814580e+00 -1.6517285596912027e-12 
1.7464397358618857e+02 -1.5999283056967593e+01 -1.4947708567105255e-12 
1.7399218933678020e+02 -2.2801060602091408e+01 -8.7554695864220785e-13 
1.7191969483482359e+02 -3.0476262169866889e+01 -2.1963140473960026e-13 
1.6833792094541241e+02 -3.7300958912419588e+01 7.9655386829607463e-13 
1.6345874929526232e+02 -4.2461763797462794e+01 2.6143718069508376e-12 
1.5700489911732143e+02 -4.7234293402305589e+01 3.9598232120896217e-12 
1.4964457417570335e+02 -5.0474308983395126e+01 1.6137715631534100e-13 
1.4162106393600169e+02 -5.2575228427976811e+01 -4.0419596166228011e-12 
1.3321653434353269e+02 -5.3204073412492193e+01 -2.8561555258290103e-12 
1.2385637785288731e+02 -5.3365807338317950e+01 1.6010355040248109e-12 
1.1433742724883221e+02 -5.1836917529772158e+01 3.2714259169492656e-12 
1.0416171388071700e+02 -4.8784609799338071e+01 1.3386689864482219e-12 
9.2412342734930832e+01 -4.3799220573195939e+01 1.6088483972857916e-12 
7.6285566163938981e+01 -3.6354042501084763e+01 1.7782737585751467e-12 
1.0059711285842937e+01 2.0665690709486949e+01 9.5454612193713671e-17 
-9.4726163330961177e-02 -5.6104007539097833e-03 -8.7521117071815556e-17 
-6.9708521827273753e+00 -1.4121618032930392e+01 8.2099553630091207e-17 
-6.3137275885142586e+01 3.1953776344206704e+00 1.6823291056766441e-12 
-6.3191380933615115e+01 6.1987589634311409e+00 1.6901914553112822e-12 
-6.3025122498197746e+01 8.9190197128001678e+00 -1.4740686945132389e-13 
-6.2421897311004280e+01 1.1934248498073604e+01 1.7159222691886835e-12 
-6.1378928675131959e+01 1.4562425668673171e+01 1.8591484936247855e-12 
-5.9910214990008036e+01 1.6790144857183467e+01 -3.9395680690996335e-12 
-5.8065968038898909e+01 1.8591717871606665e+01 -5.5503881893875570e-12 
-5.5775972277549876e+01 2.0112080255553860e+01 -6.3217545728862749e-13 
-5.3081870052498893e+01 2.0810655959447086e+01 4.0291399306134228e-12 
-4.9943376677091720e+01 2.1194254522257093e+01 3.0675594200729176e-12 
-4.6476290503269574e+01 2.1027464811944295e+01 -2.5871273590750068e-12 
-4.2702750387706871e+01 2.0219806221863799e+01 -4.8573649546209224e-12 
-3.8732716131677243e+01 1.8757771098534199e+01 -1.4306143657176373e-12 
-3.4826759058264763e+01 1.6987771754892016e+01 5.0382843241247325e-12 
-3.1366211978313149e+01 1.5517458167871917e+01 4.7959147572548088e-12 

