# vtk DataFile Version 2.0

ASCII

DATASET UNSTRUCTURED_GRID

POINTS 33 float 

-5.0000000000000003e-02  3.3333333335000000e-02  1.4999999999999997e-01
-5.0000000000000003e-02  9.9999999985000018e-02  1.4999999999999999e-01
-5.0000000000000003e-02  1.6666666665000002e-01  1.4999999999999999e-01
-5.0000000000000003e-02  2.3333333334999998e-01  1.4999999999999999e-01
-5.0000000000000003e-02  2.9999999999999993e-01  1.4999999999999997e-01
-5.0000000000000003e-02  3.6666666665000003e-01  1.4999999999999999e-01
-5.0000000000000003e-02  4.3333333335000002e-01  1.4999999999999999e-01
-5.0000000000000003e-02  5.0000000000000000e-01  1.4999999999999997e-01
-5.0000000000000003e-02  5.6666666664999987e-01  1.4999999999999999e-01
-5.0000000000000003e-02  6.3333333334999986e-01  1.4999999999999999e-01
-5.0000000000000003e-02  6.9999999999999984e-01  1.4999999999999997e-01
-5.0000000000000003e-02  7.6666666664999994e-01  1.4999999999999999e-01
-4.9999999999999996e-02  8.3333333334999982e-01  1.4999999999999999e-01
-5.0000000000000003e-02  8.9999999999999991e-01  1.4999999999999997e-01
-5.0000000000000003e-02  9.6666666664999990e-01  1.4999999999999999e-01
-3.3333333335000000e-02  9.9999999999999978e-01  1.4999999999999997e-01
0.0000000000000000e+00  1.0000000000000000e+00  1.4999999999999997e-01
3.3333333335000007e-02  1.0000000000000000e+00  1.4999999999999999e-01
5.0000000000000003e-02  3.3333333335000000e-02  1.4999999999999999e-01
5.0000000000000003e-02  9.9999999985000004e-02  1.4999999999999999e-01
5.0000000000000003e-02  1.6666666664999999e-01  1.4999999999999999e-01
5.0000000000000003e-02  2.3333333334999998e-01  1.4999999999999999e-01
5.0000000000000003e-02  2.9999999999999993e-01  1.4999999999999997e-01
5.0000000000000003e-02  3.6666666665000003e-01  1.4999999999999999e-01
5.0000000000000003e-02  4.3333333334999991e-01  1.4999999999999999e-01
5.0000000000000003e-02  5.0000000000000000e-01  1.4999999999999997e-01
5.0000000000000003e-02  5.6666666664999987e-01  1.4999999999999999e-01
5.0000000000000003e-02  6.3333333334999997e-01  1.4999999999999999e-01
5.0000000000000003e-02  6.9999999999999984e-01  1.4999999999999997e-01
5.0000000000000003e-02  7.6666666664999994e-01  1.4999999999999999e-01
5.0000000000000003e-02  8.3333333334999993e-01  1.4999999999999999e-01
5.0000000000000010e-02  8.9999999999999991e-01  1.4999999999999999e-01
5.0000000000000003e-02  9.6666666664999990e-01  1.4999999999999999e-01

CELLS 0 0


CELL_TYPES 0


POINT_DATA 33

VECTORS VertexNormals float

0.0000000000000000e+00 0.0000000000000000e+00 0.0000000000000000e+00 
0.0000000000000000e+00 0.0000000000000000e+00 0.0000000000000000e+00 
0.0000000000000000e+00 0.0000000000000000e+00 0.0000000000000000e+00 
0.0000000000000000e+00 0.0000000000000000e+00 0.0000000000000000e+00 
0.0000000000000000e+00 0.0000000000000000e+00 0.0000000000000000e+00 
0.0000000000000000e+00 0.0000000000000000e+00 0.0000000000000000e+00 
0.0000000000000000e+00 0.0000000000000000e+00 0.0000000000000000e+00 
0.0000000000000000e+00 0.0000000000000000e+00 0.0000000000000000e+00 
0.0000000000000000e+00 0.0000000000000000e+00 0.0000000000000000e+00 
0.0000000000000000e+00 0.0000000000000000e+00 0.0000000000000000e+00 
0.0000000000000000e+00 0.0000000000000000e+00 0.0000000000000000e+00 
0.0000000000000000e+00 0.0000000000000000e+00 0.0000000000000000e+00 
0.0000000000000000e+00 0.0000000000000000e+00 0.0000000000000000e+00 
0.0000000000000000e+00 0.0000000000000000e+00 0.0000000000000000e+00 
0.0000000000000000e+00 0.0000000000000000e+00 0.0000000000000000e+00 
0.0000000000000000e+00 0.0000000000000000e+00 0.0000000000000000e+00 
0.0000000000000000e+00 0.0000000000000000e+00 0.0000000000000000e+00 
0.0000000000000000e+00 0.0000000000000000e+00 0.0000000000000000e+00 
0.0000000000000000e+00 0.0000000000000000e+00 0.0000000000000000e+00 
0.0000000000000000e+00 0.0000000000000000e+00 0.0000000000000000e+00 
0.0000000000000000e+00 0.0000000000000000e+00 0.0000000000000000e+00 
0.0000000000000000e+00 0.0000000000000000e+00 0.0000000000000000e+00 
0.0000000000000000e+00 0.0000000000000000e+00 0.0000000000000000e+00 
0.0000000000000000e+00 0.0000000000000000e+00 0.0000000000000000e+00 
0.0000000000000000e+00 0.0000000000000000e+00 0.0000000000000000e+00 
0.0000000000000000e+00 0.0000000000000000e+00 0.0000000000000000e+00 
0.0000000000000000e+00 0.0000000000000000e+00 0.0000000000000000e+00 
0.0000000000000000e+00 0.0000000000000000e+00 0.0000000000000000e+00 
0.0000000000000000e+00 0.0000000000000000e+00 0.0000000000000000e+00 
0.0000000000000000e+00 0.0000000000000000e+00 0.0000000000000000e+00 
0.0000000000000000e+00 0.0000000000000000e+00 0.0000000000000000e+00 
0.0000000000000000e+00 0.0000000000000000e+00 0.0000000000000000e+00 
0.0000000000000000e+00 0.0000000000000000e+00 0.0000000000000000e+00 

VECTORS Stress float
1.1177699071836209e+02 -5.9309088088334843e+00 5.0784837049885941e-13 
1.1177175852490666e+02 -1.0004274615293250e+01 8.9037742426615621e-13 
1.1154426180598342e+02 -1.2816007173137390e+01 -2.5800886180937833e-13 
1.1090258851582749e+02 -1.4842498450765982e+01 -2.0553552070729757e-12 
1.0974987301589299e+02 -1.5985860613171129e+01 -1.4025920184541504e-12 
1.0837545035324469e+02 -1.4897052339198410e+01 2.4281988695515879e-13 
1.0647806421754343e+02 -1.3181380899233845e+01 6.5491022052640289e-13 
1.0390908804583664e+02 -1.1285024102530402e+01 1.1109279269161119e-13 
1.0068955969133809e+02 -8.7398773508334937e+00 -1.9240478001546646e-12 
9.6370642762388215e+01 -6.5583209616666593e+00 -1.6258328692029014e-12 
9.0483123774594077e+01 -5.1345897776144946e+00 5.8880822368790826e-13 
8.2729618925602310e+01 -3.4623920967988036e+00 1.5300825080417824e-12 
7.1602502899245735e+01 -2.7351364810063505e+00 1.1973070104294817e-12 
5.5083000821289296e+01 -1.6347525991218927e+00 -6.0824679048205388e-13 
2.5747661530760677e+01 -5.4207807916641415e-01 -8.5335526579827193e-13 
4.6808748351006972e+00 1.2934181638243376e+02 1.0240455241265615e-19 
4.1055931287529965e+00 1.1016842319372873e+02 9.9026640098883645e-17 
3.3216471755881183e+00 8.9070819973526994e+01 -7.9969440288474007e-17 
5.9574666226871905e+01 -3.4296241682619351e+00 -1.6949547188465094e-12 
5.9211527233573833e+01 -5.5925109713083243e+00 -2.1758791194334244e-12 
5.9297731142446246e+01 -6.9642110249224176e+00 5.6658188391417202e-13 
5.9961451253173017e+01 -8.2676373868690050e+00 2.2897857905257952e-12 
6.1497960723056551e+01 -8.8560866382814645e+00 1.2738948345553950e-12 
6.4026145689583913e+01 -8.6304494836814616e+00 -1.1420828461114484e-13 
6.7231956015956797e+01 -8.0531326692203073e+00 -3.1860419920730796e-13 
7.0679424231021557e+01 -7.4213232417713861e+00 -2.0384525661035842e-13 
7.4143528672768838e+01 -6.1516551762750042e+00 7.0103563974507271e-13 
7.6873439363284547e+01 -5.1572005280059301e+00 6.9945077504965856e-13 
7.8644702628662714e+01 -4.2927892003845374e+00 -5.2584620652184228e-13 
7.9434046758238921e+01 -3.4061311512602526e+00 -1.4189208111192680e-12 
7.9116390243067343e+01 -3.0253580592338949e+00 -9.4305203453281516e-13 
7.7950914982214897e+01 -2.7234486735902079e+00 6.1257461201464311e-13 
7.6042254956064212e+01 -2.6289281746127577e+00 6.7076815944364733e-13 

