# vtk DataFile Version 2.0

ASCII

DATASET UNSTRUCTURED_GRID

POINTS 33 float 

-5.0000000000000003e-02  3.3333333335000000e-02  1.4999999999999997e-01
-5.0000000000000003e-02  9.9999999985000018e-02  1.4999999999999999e-01
-5.0000000000000003e-02  1.6666666665000002e-01  1.4999999999999999e-01
-5.0000000000000003e-02  2.3333333334999998e-01  1.4999999999999999e-01
-5.0000000000000003e-02  2.9999999999999993e-01  1.4999999999999997e-01
-5.0000000000000003e-02  3.6666666665000003e-01  1.4999999999999999e-01
-5.0000000000000003e-02  4.3333333335000002e-01  1.4999999999999999e-01
-5.0000000000000003e-02  5.0000000000000000e-01  1.4999999999999997e-01
-5.0000000000000003e-02  5.6666666664999987e-01  1.4999999999999999e-01
-5.0000000000000003e-02  6.3333333334999986e-01  1.4999999999999999e-01
-5.0000000000000003e-02  6.9999999999999984e-01  1.4999999999999997e-01
-5.0000000000000003e-02  7.6666666664999994e-01  1.4999999999999999e-01
-4.9999999999999996e-02  8.3333333334999982e-01  1.4999999999999999e-01
-5.0000000000000003e-02  8.9999999999999991e-01  1.4999999999999997e-01
-5.0000000000000003e-02  9.6666666664999990e-01  1.4999999999999999e-01
-3.3333333335000000e-02  9.9999999999999978e-01  1.4999999999999997e-01
0.0000000000000000e+00  1.0000000000000000e+00  1.4999999999999997e-01
3.3333333335000007e-02  1.0000000000000000e+00  1.4999999999999999e-01
5.0000000000000003e-02  3.3333333335000000e-02  1.4999999999999999e-01
5.0000000000000003e-02  9.9999999985000004e-02  1.4999999999999999e-01
5.0000000000000003e-02  1.6666666664999999e-01  1.4999999999999999e-01
5.0000000000000003e-02  2.3333333334999998e-01  1.4999999999999999e-01
5.0000000000000003e-02  2.9999999999999993e-01  1.4999999999999997e-01
5.0000000000000003e-02  3.6666666665000003e-01  1.4999999999999999e-01
5.0000000000000003e-02  4.3333333334999991e-01  1.4999999999999999e-01
5.0000000000000003e-02  5.0000000000000000e-01  1.4999999999999997e-01
5.0000000000000003e-02  5.6666666664999987e-01  1.4999999999999999e-01
5.0000000000000003e-02  6.3333333334999997e-01  1.4999999999999999e-01
5.0000000000000003e-02  6.9999999999999984e-01  1.4999999999999997e-01
5.0000000000000003e-02  7.6666666664999994e-01  1.4999999999999999e-01
5.0000000000000003e-02  8.3333333334999993e-01  1.4999999999999999e-01
5.0000000000000010e-02  8.9999999999999991e-01  1.4999999999999999e-01
5.0000000000000003e-02  9.6666666664999990e-01  1.4999999999999999e-01

CELLS 0 0


CELL_TYPES 0


POINT_DATA 33

VECTORS VertexNormals float

0.0000000000000000e+00 0.0000000000000000e+00 0.0000000000000000e+00 
0.0000000000000000e+00 0.0000000000000000e+00 0.0000000000000000e+00 
0.0000000000000000e+00 0.0000000000000000e+00 0.0000000000000000e+00 
0.0000000000000000e+00 0.0000000000000000e+00 0.0000000000000000e+00 
0.0000000000000000e+00 0.0000000000000000e+00 0.0000000000000000e+00 
0.0000000000000000e+00 0.0000000000000000e+00 0.0000000000000000e+00 
0.0000000000000000e+00 0.0000000000000000e+00 0.0000000000000000e+00 
0.0000000000000000e+00 0.0000000000000000e+00 0.0000000000000000e+00 
0.0000000000000000e+00 0.0000000000000000e+00 0.0000000000000000e+00 
0.0000000000000000e+00 0.0000000000000000e+00 0.0000000000000000e+00 
0.0000000000000000e+00 0.0000000000000000e+00 0.0000000000000000e+00 
0.0000000000000000e+00 0.0000000000000000e+00 0.0000000000000000e+00 
0.0000000000000000e+00 0.0000000000000000e+00 0.0000000000000000e+00 
0.0000000000000000e+00 0.0000000000000000e+00 0.0000000000000000e+00 
0.0000000000000000e+00 0.0000000000000000e+00 0.0000000000000000e+00 
0.0000000000000000e+00 0.0000000000000000e+00 0.0000000000000000e+00 
0.0000000000000000e+00 0.0000000000000000e+00 0.0000000000000000e+00 
0.0000000000000000e+00 0.0000000000000000e+00 0.0000000000000000e+00 
0.0000000000000000e+00 0.0000000000000000e+00 0.0000000000000000e+00 
0.0000000000000000e+00 0.0000000000000000e+00 0.0000000000000000e+00 
0.0000000000000000e+00 0.0000000000000000e+00 0.0000000000000000e+00 
0.0000000000000000e+00 0.0000000000000000e+00 0.0000000000000000e+00 
0.0000000000000000e+00 0.0000000000000000e+00 0.0000000000000000e+00 
0.0000000000000000e+00 0.0000000000000000e+00 0.0000000000000000e+00 
0.0000000000000000e+00 0.0000000000000000e+00 0.0000000000000000e+00 
0.0000000000000000e+00 0.0000000000000000e+00 0.0000000000000000e+00 
0.0000000000000000e+00 0.0000000000000000e+00 0.0000000000000000e+00 
0.0000000000000000e+00 0.0000000000000000e+00 0.0000000000000000e+00 
0.0000000000000000e+00 0.0000000000000000e+00 0.0000000000000000e+00 
0.0000000000000000e+00 0.0000000000000000e+00 0.0000000000000000e+00 
0.0000000000000000e+00 0.0000000000000000e+00 0.0000000000000000e+00 
0.0000000000000000e+00 0.0000000000000000e+00 0.0000000000000000e+00 
0.0000000000000000e+00 0.0000000000000000e+00 0.0000000000000000e+00 

VECTORS Stress float
1.5001675367552579e+02 -5.2202740471146090e+00 9.6732629664718329e-13 
1.4995291673969533e+02 -1.1217023047619552e+01 1.6003788722170446e-12 
1.4949226706376268e+02 -1.7650801789013070e+01 1.8765204407494635e-12 
1.4816886105675360e+02 -2.2584899949372527e+01 1.5757239366833739e-12 
1.4537602584422160e+02 -2.7735554407418647e+01 3.3844737017698363e-13 
1.4088262631151213e+02 -3.3168685680235242e+01 6.2904594079341093e-13 
1.3581352049557523e+02 -3.6055801604174448e+01 1.0364000821917812e-12 
1.3004724639619616e+02 -3.8189287487740224e+01 5.2781633978466616e-13 
1.2426259617069567e+02 -3.7968609015348214e+01 -1.0681302511551322e-12 
1.1732111190913164e+02 -3.7593380930536178e+01 -1.1843358857250326e-12 
1.0928321134600608e+02 -3.6382507459709167e+01 3.1761669430685957e-12 
1.0005564752213211e+02 -3.4274884215874486e+01 4.7850370865361370e-12 
8.9537956651059062e+01 -3.0661170562788744e+01 1.7770939126743847e-12 
7.5846299061674742e+01 -2.6011238676289622e+01 -2.0880038096118853e-12 
5.5665618122212720e+01 -1.9386638619394461e+01 -2.1060815351155617e-12 
1.8687380296539132e+01 5.2229932806677205e+01 1.3941846515471577e-19 
1.1394832640051741e+01 3.2241765342323433e+01 8.4557815500630062e-17 
5.9580323354130664e+00 1.7158385394036518e+01 -2.4450282497103580e-36 
-2.6342925976450974e+01 9.8102189614049762e-01 -8.2371087519687013e-13 
-2.6466505189699575e+01 2.1673024774495859e+00 -9.8035410883997753e-13 
-2.6289221673556739e+01 3.3358350258292622e+00 -1.0288801430153384e-12 
-2.5699749482117792e+01 4.1886793713684662e+00 -1.7891070273059684e-12 
-2.4635513881685629e+01 5.1220171807297410e+00 -9.1292119240979635e-13 
-2.3095319924085853e+01 5.8212894352702564e+00 9.0223619911728684e-14 
-2.0964778260612540e+01 5.9942470721630778e+00 -3.6259413465075532e-13 
-1.8220278882888337e+01 5.6284044587669406e+00 -7.2513984140500384e-13 
-1.5108753193244558e+01 4.9231637083468449e+00 1.8381227352903387e-12 
-1.1927069736417600e+01 4.0776542370896767e+00 2.1146511513991457e-12 
-8.8744307272399929e+00 3.2317334912613318e+00 -1.8472086703233803e-12 
-5.7924106847724088e+00 2.2259455599428262e+00 -3.0383711405140765e-12 
-2.7107933738766143e+00 1.1616910087643091e+00 -1.7698558294687107e-12 
-2.2512502811094168e-01 3.1469001692960430e-01 -4.3904834999275802e-13 
1.6594712352468659e+00 -3.3051698672836538e-01 1.7623111188679427e-13 

