/*--------------------------------*- C++ -*----------------------------------*\
| =========                 |                                                 |
| \\      /  F ield         | OpenFOAM: The Open Source CFD Toolbox           |
|  \\    /   O peration     | Version:  2006                                  |
|   \\  /    A nd           | Website:  www.openfoam.com                      |
|    \\/     M anipulation  |                                                 |
\*---------------------------------------------------------------------------*/
FoamFile
{
    version     2.0;
    format      ascii;
    class       volScalarField;
    location    "0.8";
    object      p;
}
// * * * * * * * * * * * * * * * * * * * * * * * * * * * * * * * * * * * * * //

dimensions      [0 2 -2 0 0 0 0];


internalField   nonuniform List<scalar> 
2790
(
146.423
146.158
146.198
146.52
147.022
147.665
148.449
149.378
150.451
151.669
153.03
154.534
156.178
157.959
159.869
161.896
164.025
166.237
168.505
170.797
173.076
175.297
177.408
179.355
181.08
182.528
183.649
184.413
184.805
184.926
146.236
146.082
146.147
146.467
146.966
147.607
148.388
149.312
150.379
151.589
152.942
154.437
156.071
157.841
159.739
161.754
163.871
166.072
168.33
170.615
172.892
175.115
177.235
179.198
180.946
182.423
183.577
184.371
184.804
185.168
146.069
145.985
146.07
146.381
146.87
147.502
148.272
149.182
150.233
151.424
152.755
154.224
155.829
157.566
159.427
161.4
163.472
165.623
167.829
170.062
172.287
174.463
176.544
178.481
180.222
181.717
182.932
183.862
184.546
185.256
145.889
145.837
145.936
146.242
146.719
147.34
148.096
148.989
150.019
151.185
152.486
153.92
155.485
157.175
158.984
160.898
162.903
164.981
167.108
169.256
171.394
173.484
175.484
177.351
179.041
180.517
181.754
182.755
183.509
184.144
145.687
145.65
145.76
146.062
146.529
147.134
147.873
148.743
149.745
150.878
152.141
153.531
155.045
156.677
158.419
160.259
162.18
164.165
166.19
168.229
170.252
172.223
174.104
175.857
177.445
178.831
179.986
180.883
181.435
181.545
145.459
145.429
145.544
145.841
146.294
146.882
147.597
148.44
149.409
150.503
151.721
153.059
154.512
156.076
157.74
159.491
161.314
163.189
165.093
167.002
168.884
170.706
172.431
174.022
175.441
176.644
177.584
178.194
178.354
177.635
145.203
145.175
145.291
145.58
146.017
146.584
147.273
148.083
149.015
150.065
151.231
152.508
153.893
155.378
156.953
158.604
160.314
162.065
163.832
165.591
167.308
168.95
170.481
171.859
173.037
173.961
174.558
174.719
174.36
172.514
144.917
144.888
145.001
145.28
145.7
146.243
146.902
147.676
148.565
149.565
150.673
151.883
153.191
154.588
156.064
157.603
159.19
160.803
162.418
164.006
165.534
166.968
168.265
169.378
170.248
170.802
170.943
170.506
169.527
166.238
144.602
144.57
144.677
144.943
145.344
145.86
146.486
147.221
148.062
149.007
150.051
151.188
152.412
153.714
155.081
156.499
157.95
159.413
160.859
162.258
163.575
164.771
165.798
166.596
167.093
167.196
166.786
165.622
163.987
159.18
144.257
144.222
144.32
144.572
144.951
145.438
146.028
146.72
147.51
148.395
149.371
150.429
151.562
152.76
154.011
155.299
156.607
157.906
159.168
160.359
161.444
162.375
163.095
163.533
163.598
163.178
162.138
160.149
157.867
151.67
143.885
143.845
143.933
144.168
144.523
144.979
145.53
146.176
146.912
147.733
148.635
149.61
150.647
151.736
152.863
154.015
155.168
156.293
157.357
158.327
159.16
159.802
160.182
160.215
159.795
158.783
157.043
154.142
151.195
143.699
143.485
143.44
143.516
143.732
144.062
144.484
144.996
145.592
146.271
147.025
147.851
148.737
149.673
150.647
151.647
152.656
153.647
154.587
155.444
156.18
156.745
157.074
157.085
156.677
155.722
154.051
151.53
147.609
143.902
135.087
143.06
143.008
143.071
143.268
143.57
143.958
144.426
144.972
145.59
146.275
147.021
147.816
148.648
149.504
150.372
151.232
152.054
152.804
153.447
153.939
154.224
154.224
153.844
152.964
151.429
149.029
145.621
140.512
135.751
125.215
142.61
142.552
142.601
142.776
143.05
143.402
143.826
144.319
144.875
145.488
146.152
146.853
147.577
148.313
149.047
149.755
150.404
150.961
151.385
151.628
151.626
151.29
150.508
149.138
146.991
143.8
139.366
132.802
126.307
112.956
142.137
142.072
142.106
142.26
142.503
142.818
143.196
143.635
144.128
144.668
145.248
145.853
146.47
147.085
147.681
148.234
148.711
149.075
149.281
149.275
148.987
148.316
147.136
145.282
142.524
138.522
132.952
124.623
115.091
95.8805
74.154
73.8503
72.9229
71.2065
68.5869
65.0396
60.6054
55.3644
49.4176
42.8758
35.8564
28.4829
20.8861
13.2097
5.61693
-1.71039
-8.57282
-14.7479
-19.9972
-24.0769
-26.7373
-27.7852
-27.0292
-24.3893
-19.9661
-13.9529
-6.43471
2.26739
9.58619
8.21641
74.4074
74.031
73.0589
71.2726
68.5748
64.9517
60.4486
55.1473
49.148
42.5595
35.4967
28.0818
20.4457
12.7303
5.09598
-2.27449
-9.17948
-15.3972
-20.6922
-24.835
-27.6075
-28.7582
-28.117
-25.6213
-21.3824
-15.6139
-8.42381
0.0060739
7.49598
6.28416
74.6369
74.1163
72.9546
70.9691
68.0856
64.3014
59.6681
54.2682
48.1988
41.5628
34.4679
27.0303
19.3772
11.6461
3.99106
-3.40765
-10.3458
-16.6013
-21.9393
-26.1301
-28.9538
-30.198
-29.6627
-27.2831
-23.1841
-17.6001
-10.6774
-2.54554
4.88247
4.40999
74.8054
74.0188
72.5606
70.2721
67.1143
63.0995
58.2848
52.7498
46.584
39.8811
32.7388
25.2646
17.5793
9.81575
2.12436
-5.31856
-12.3093
-18.6249
-24.0302
-28.2919
-31.1936
-32.5255
-32.0949
-29.8229
-25.8324
-20.3579
-13.5753
-5.65034
1.71787
2.61379
74.7623
73.5967
71.778
69.1231
65.6391
61.3587
56.3433
50.6666
44.4075
37.6477
30.4726
22.98
15.2815
7.50264
-0.209638
-7.6819
-14.7136
-21.0828
-26.5527
-30.8843
-33.8591
-35.28
-34.9562
-32.7829
-28.8761
-23.4595
-16.7339
-8.93496
-1.5284
0.969002
74.3375
72.7195
70.506
67.4552
63.6321
59.0858
53.8779
48.0722
41.7341
34.9306
27.7338
20.2302
12.5229
4.72963
-3.00753
-10.5163
-17.5974
-24.0284
-29.5682
-33.968
-37.0003
-38.4765
-38.2191
-36.0993
-32.2172
-26.7832
-20.0198
-12.2296
-4.63663
-0.510317
73.4799
71.3253
68.6921
65.2438
61.104
56.3229
50.9559
45.0528
38.6631
31.8392
24.6399
17.1402
9.43622
1.63988
-6.11211
-13.6496
-20.7742
-27.2627
-32.8695
-37.336
-40.4198
-41.9237
-41.696
-39.5924
-35.6839
-30.1701
-23.291
-15.3962
-7.49129
-1.82406
72.1906
69.3716
66.3214
62.5087
58.1083
53.1519
47.6802
41.7259
35.3218
28.5067
21.3278
13.8489
6.16016
-1.62983
-9.38913
-16.9503
-24.1154
-30.6599
-36.3328
-40.8641
-43.99
-45.4941
-45.2439
-43.1177
-39.1332
-33.4882
-26.4326
-18.3392
-10.0362
-2.97513
70.2959
66.7938
63.409
59.3146
54.7429
49.6936
44.1866
38.2356
31.8578
25.0809
17.9447
10.5034
2.84047
-4.93581
-12.6959
-20.2753
-27.4763
-34.0724
-39.8074
-44.3977
-47.5514
-49.0298
-48.7328
-46.5401
-42.4354
-36.6202
-29.3487
-20.9932
-12.2449
-3.96625
67.7517
63.5998
60.0329
55.7856
51.1592
46.112
40.6433
34.7495
28.4358
21.7215
14.6436
7.25244
-0.375619
-8.13304
-15.8893
-23.4822
-30.7146
-37.3576
-43.1502
-47.7958
-50.9715
-52.4133
-52.0375
-49.7389
-45.4767
-39.465
-31.9599
-23.3133
-14.1062
-4.79902
64.5374
59.8797
56.3589
52.1174
47.5655
42.6125
37.246
31.4508
25.227
18.5902
11.5768
4.23926
-3.34942
-11.0846
-18.8342
-26.4372
-33.6973
-40.3836
-46.23
-50.9302
-54.1288
-55.5285
-55.0474
-52.6124
-48.1648
-41.9418
-34.2041
-25.2695
-15.6179
-5.47427
60.7174
55.8504
52.6674
48.581
44.2197
39.43
34.2032
28.5237
22.3945
15.8353
8.8844
1.5968
-5.95446
-13.667
-21.4074
-29.0173
-36.3017
-43.0276
-48.9225
-53.6796
-56.9096
-58.2728
-57.6681
-55.082
-50.435
-43.9978
-36.0414
-26.8464
-16.7875
-5.99314
56.5637
51.9244
49.3531
45.5042
41.4011
36.7937
31.7028
26.1255
20.0767
13.5849
6.68812
-0.560337
-8.08003
-15.7725
-23.5002
-31.1126
-38.4163
-45.1767
-51.1098
-55.9313
-59.2097
-60.5566
-59.8239
-57.0867
-52.2479
-45.6091
-37.4566
-28.0452
-17.6373
-6.36337
52.3672
48.6413
46.712
43.228
39.3563
34.8886
29.8798
24.3578
18.3522
11.8979
5.0354
-2.1798
-9.6656
-17.3219
-25.0232
-32.6174
-39.915
-46.6818
-52.6518
-57.5474
-60.8787
-62.2539
-61.4692
-58.5403
-53.554
-46.7553
-38.4486
-28.8835
-18.21
-6.61094
48.5279
46.4764
45.4374
42.2377
38.3489
33.865
28.8298
23.285
17.2697
10.8201
3.97646
-3.20778
-10.6553
-18.269
-25.9287
-33.4851
-40.7544
-47.5138
-53.5121
-58.4054
-61.7719
-63.1756
-62.3167
-59.304
-54.2699
-47.3977
-39.0285
-29.3911
-18.5585
-6.79263
141.633
141.561
141.58
141.71
141.923
142.198
142.529
142.912
143.339
143.804
144.297
144.804
145.31
145.802
146.258
146.655
146.958
147.127
147.114
146.862
146.291
145.295
143.735
141.427
138.109
133.382
126.777
116.804
103.139
67.3288
141.092
141.013
141.015
141.12
141.3
141.535
141.816
142.141
142.501
142.887
143.291
143.697
144.09
144.455
144.769
145.008
145.136
145.111
144.883
144.389
143.548
142.249
140.35
137.663
133.924
128.749
121.711
111.704
99.8042
88.2123
140.517
140.43
140.416
140.496
140.641
140.833
141.064
141.328
141.619
141.926
142.238
142.541
142.82
143.058
143.23
143.312
143.268
143.054
142.619
141.898
140.81
139.249
137.08
134.129
130.173
124.945
118.272
109.872
100.982
94.8281
139.91
139.815
139.783
139.836
139.947
140.095
140.274
140.477
140.697
140.923
141.142
141.342
141.508
141.619
141.651
141.58
141.369
140.975
140.346
139.419
138.118
136.346
133.984
130.891
126.907
121.882
115.79
108.571
100.436
92.3481
139.27
139.167
139.117
139.143
139.218
139.322
139.448
139.589
139.738
139.882
140.009
140.107
140.16
140.146
140.042
139.823
139.455
138.894
138.088
136.98
135.504
133.575
131.094
127.955
124.052
119.302
113.687
107.166
99.7074
91.9752
138.599
138.488
138.421
138.419
138.457
138.517
138.589
138.668
138.745
138.809
138.844
138.841
138.784
138.649
138.413
138.056
137.542
136.826
135.863
134.605
132.992
130.954
128.413
125.293
121.526
117.061
111.889
106.022
99.5016
92.8134
137.898
137.78
137.694
137.665
137.667
137.681
137.699
137.716
137.723
137.707
137.653
137.55
137.386
137.137
136.777
136.289
135.64
134.787
133.691
132.31
130.595
128.488
125.932
122.873
119.269
115.095
110.354
105.084
99.3277
93.381
137.17
137.044
136.94
136.884
136.849
136.819
136.783
136.738
136.676
136.582
136.44
136.241
135.975
135.617
135.143
134.535
133.763
132.791
131.584
130.107
128.319
126.177
123.637
120.665
117.237
113.342
108.991
104.218
99.0514
93.7017
136.416
136.282
136.161
136.078
136.007
135.932
135.845
135.739
135.608
135.438
135.213
134.924
134.56
134.1
133.52
132.803
131.923
130.85
129.553
128.003
126.167
124.014
121.513
118.643
115.39
111.754
107.747
103.397
98.7306
93.9127
135.639
135.498
135.36
135.25
135.144
135.026
134.887
134.723
134.525
134.281
133.977
133.604
133.149
132.593
131.918
131.104
130.131
128.972
127.603
126
124.137
121.993
119.545
116.783
113.699
110.299
106.595
102.613
98.3773
94.0169
134.842
134.695
134.54
134.403
134.263
134.103
133.915
133.694
133.432
133.118
132.74
132.287
131.748
131.106
130.344
129.446
128.393
127.164
125.739
124.1
122.227
120.105
117.72
115.066
112.142
108.956
105.52
101.857
97.9871
94.0152
134.028
133.876
133.705
133.542
133.369
133.169
132.934
132.659
132.336
131.956
131.508
130.981
130.365
129.645
128.807
127.836
126.716
125.431
123.965
122.303
120.432
118.342
116.025
113.477
110.702
107.708
104.508
101.121
97.5648
93.9246
133.202
133.044
132.858
132.671
132.467
132.228
131.948
131.621
131.241
130.8
130.287
129.693
129.007
128.218
127.314
126.28
125.106
123.777
122.282
120.608
118.749
116.697
114.449
112.004
109.366
106.545
103.552
100.405
97.1188
93.7627
132.366
132.205
132.005
131.795
131.56
131.285
130.962
130.587
130.155
129.656
129.084
128.429
127.681
126.832
125.869
124.784
123.565
122.203
120.689
119.014
117.174
115.164
112.984
110.636
108.124
105.458
102.648
99.7102
96.6566
93.545
131.527
131.362
131.149
130.918
130.655
130.345
129.983
129.563
129.082
128.532
127.905
127.195
126.393
125.491
124.48
123.351
122.098
120.712
119.187
117.518
115.701
113.736
111.623
109.365
106.968
104.441
101.793
99.0374
96.1858
93.2852
130.689
130.521
130.297
130.046
129.756
129.415
129.016
128.555
128.029
127.432
126.757
125.998
125.148
124.201
123.149
121.986
120.706
119.304
117.776
116.118
114.328
112.408
110.359
108.185
105.893
103.489
100.985
98.389
95.7129
92.9953
129.857
129.688
129.454
129.184
128.87
128.499
128.066
127.568
127.002
126.363
125.645
124.843
123.953
122.967
121.882
120.692
119.392
117.981
116.454
114.81
113.05
111.175
109.187
107.091
104.893
102.601
100.222
97.7672
95.244
92.6854
129.038
128.868
128.625
128.339
128.002
127.605
127.141
126.609
126.007
125.33
124.575
123.736
122.811
121.794
120.682
119.471
118.158
116.742
115.221
113.595
111.865
110.033
108.102
106.078
103.966
101.773
99.5063
97.1741
94.7845
92.3645
128.237
128.067
127.817
127.516
127.159
126.737
126.246
125.685
125.05
124.341
123.553
122.683
121.728
120.685
119.552
118.325
117.004
115.588
114.076
112.469
110.769
108.979
107.102
105.144
103.109
101.004
98.8361
96.6121
94.3392
92.0399
127.462
127.292
127.036
126.722
126.347
125.903
125.388
124.8
124.138
123.4
122.584
121.688
120.709
119.645
118.495
117.258
115.932
114.519
113.018
111.432
109.762
108.011
106.184
104.285
102.32
100.294
98.2126
96.0835
93.9124
91.7183
126.719
126.551
126.289
125.964
125.573
125.11
124.573
123.962
123.276
122.514
121.674
120.756
119.757
118.677
117.515
116.271
114.944
113.536
112.048
110.482
108.841
107.127
105.346
103.501
101.597
99.6407
97.6364
95.5903
93.5081
91.4054
126.016
125.849
125.584
125.249
124.843
124.364
123.808
123.177
122.471
121.688
120.829
119.892
118.878
117.785
116.615
115.366
114.041
112.64
111.166
109.62
108.006
106.327
104.587
102.79
100.942
99.0461
97.1089
95.1352
93.1301
91.1067
125.361
125.196
124.927
124.583
124.166
123.671
123.1
122.452
121.728
120.928
120.053
119.102
118.075
116.973
115.797
114.547
113.225
111.832
110.371
108.845
107.256
105.608
103.906
102.152
100.352
98.5101
96.6313
94.7202
92.7817
90.8265
124.761
124.598
124.327
123.975
123.547
123.04
122.455
121.793
121.055
120.241
119.353
118.39
117.354
116.246
115.066
113.816
112.498
111.114
109.667
108.159
106.593
104.973
103.304
101.588
99.8299
98.0346
96.2061
94.3488
92.4673
90.5705
124.226
124.064
123.791
123.432
122.994
122.477
121.881
121.207
120.456
119.631
118.733
117.761
116.718
115.606
114.424
113.176
111.863
110.487
109.053
107.561
106.016
104.421
102.78
101.097
99.3754
97.6197
95.8339
94.0222
92.1887
90.3408
123.764
123.604
123.327
122.962
122.516
121.99
121.384
120.701
119.941
119.107
118.201
117.223
116.175
115.059
113.878
112.632
111.324
109.957
108.533
107.057
105.53
103.956
102.34
100.684
98.9932
97.2707
95.5206
93.7469
91.9533
90.1464
123.386
123.225
122.943
122.57
122.117
121.584
120.97
120.279
119.512
118.671
117.759
116.776
115.725
114.608
113.427
112.184
110.881
109.521
108.108
106.644
105.132
103.576
101.98
100.347
98.6805
96.9847
95.2632
93.5197
91.7577
89.9826
123.103
122.939
122.649
122.27
121.812
121.273
120.653
119.956
119.183
118.337
117.421
116.435
115.382
114.264
113.084
111.843
110.545
109.192
107.787
106.333
104.834
103.292
101.712
100.097
98.4499
96.7752
95.0763
93.3566
91.6198
89.8705
122.929
122.744
122.439
122.054
121.593
121.05
120.427
119.726
118.95
118.101
117.183
116.195
115.142
114.024
112.845
111.607
110.312
108.963
107.564
106.118
104.627
103.095
101.526
99.9224
98.2886
96.6277
94.9433
93.2389
91.5179
89.7839
122.928
122.677
122.344
121.953
121.489
120.942
120.315
119.611
118.833
117.983
117.064
116.076
115.022
113.906
112.728
111.492
110.201
108.857
107.462
106.021
104.537
103.012
101.451
99.8558
98.2309
96.5795
94.9049
93.2107
91.5001
89.7759
-9.91002
13.53
29.2255
77.5765
72.0917
64.9389
86.9225
79.9738
73.7815
83.22
77.4247
72.9392
84.4741
79.4764
75.2916
86.4163
81.9169
77.9775
87.6492
83.5961
80.0226
88.5686
84.9377
81.725
89.3128
86.0506
83.1582
89.8691
86.923
84.3108
90.2524
87.5783
85.2083
90.4913
88.0511
85.8893
90.6116
88.3724
86.3897
90.6361
88.5698
86.7415
90.5849
88.6679
86.9733
90.4753
88.6878
87.1093
90.3221
88.6472
87.1699
90.1375
88.5609
87.1719
89.932
88.4412
87.1294
89.7144
88.2988
87.0542
89.4922
88.1424
86.9566
89.2726
87.9801
86.8452
89.0608
87.8181
86.7273
88.8637
87.6638
86.6107
88.6836
87.5201
86.4991
88.5313
87.398
86.4031
88.4
87.2911
86.318
88.3154
87.2254
86.2676
88.2449
87.1686
86.2232
88.2554
87.1919
86.2529
42.6092
46.6621
45.9305
42.5307
38.3804
33.7075
28.5234
22.8746
16.8002
10.3282
3.49167
-3.6623
-11.0644
-18.6233
-26.2229
-33.7177
-40.9286
-47.637
-53.584
-58.4318
-61.7806
-63.1982
-62.3447
-59.357
-54.3799
-47.5554
-39.2222
-29.5905
-18.7196
-6.97906
62.4044
55.4235
49.7155
44.539
39.5129
34.3346
28.8593
23.0486
16.8925
10.3925
3.56704
-3.54625
-10.8869
-18.3702
-25.8848
-33.2892
-40.4074
-47.0226
-52.873
-57.6339
-60.9235
-62.3394
-61.5515
-58.6584
-53.83
-47.1794
-38.9885
-29.4751
-18.7103
-7.01826
66.4354
57.7908
51.8513
46.4526
40.9404
35.3148
29.5623
23.613
17.4056
10.9107
4.12972
-2.91007
-10.1562
-17.5301
-24.9249
-32.2028
-39.1908
-45.6756
-51.3986
-56.0479
-59.2649
-60.6842
-60.0121
-57.2608
-52.6404
-46.2867
-38.3699
-29.0923
-18.5446
-7.00997
66.4438
58.5016
52.572
47.2019
41.7339
36.1133
30.3428
24.3842
18.1984
11.7637
5.07788
-1.83925
-8.94287
-16.1604
-23.39
-30.4978
-37.3147
-43.6328
-49.2009
-53.723
-56.8678
-58.309
-57.7968
-55.2457
-50.8965
-44.9285
-37.3983
-28.4643
-18.2307
-6.9525
69.1484
61.5511
54.8776
48.7956
42.9629
37.1939
31.3759
25.4262
19.2904
12.9419
6.37701
-0.387752
-7.31335
-14.3345
-21.3564
-28.2519
-34.859
-40.9777
-46.3687
-50.7549
-53.8347
-55.3173
-54.9799
-52.7133
-48.7203
-43.1791
-36.1108
-27.6064
-17.769
-6.83506
72.4526
65.3855
58.2865
51.5703
45.252
39.1489
33.1114
27.045
20.8818
14.5768
8.11025
1.4876
-5.26026
-12.0759
-18.8734
-25.5352
-31.9099
-37.8101
-43.0126
-47.2629
-50.2893
-51.8336
-51.6971
-49.779
-46.1774
-41.0777
-34.5263
-26.5189
-17.1497
-6.64683
75.2235
68.8731
61.8679
54.9441
48.3535
41.9851
35.7172
29.4776
23.2114
16.8767
10.4477
3.92037
-2.68464
-9.32005
-15.9101
-22.3487
-28.4975
-34.1848
-39.2071
-43.3348
-46.3259
-47.9521
-48.0351
-46.4803
-43.2977
-38.6639
-32.6439
-25.1798
-16.3514
-6.38118
77.521
71.8709
65.26
58.4704
51.8673
45.4174
39.0417
32.6932
26.3397
19.957
13.5286
7.05242
0.545855
-5.95056
-12.3705
-18.6194
-24.5729
-30.0763
-34.9471
-38.9805
-41.963
-43.6926
-44.0076
-42.8107
-40.0706
-35.92
-30.43
-23.5518
-15.3484
-6.0373
79.4254
74.3892
68.2924
61.8435
55.4403
49.1042
42.7843
36.4531
30.1028
23.7285
17.3272
10.9051
4.4837
-1.8974
-8.17692
-14.2692
-20.0623
-25.4179
-30.1733
-34.1474
-37.1517
-39.0076
-39.5673
-38.7325
-36.4577
-32.793
-27.8334
-21.599
-14.1236
-5.61845
80.9614
76.4461
70.8813
64.8759
58.8158
52.7449
46.6257
40.4461
34.2169
27.9481
21.6482
15.3323
9.0278
2.77665
-3.36163
-9.30718
-14.9579
-20.1893
-24.8562
-28.7984
-31.8495
-33.8505
-34.6663
-34.1997
-32.3966
-29.2507
-24.8707
-19.3396
-12.6919
-5.1318
82.1759
78.0977
73.0318
67.4982
61.8494
56.1311
50.3136
44.3937
38.3921
32.3283
26.2173
20.0814
13.953
7.87636
1.90985
-3.87102
-9.37218
-14.4808
-19.0672
-22.9888
-26.0982
-28.2538
-29.3321
-29.2395
-27.9179
-25.3411
-21.6089
-16.8373
-11.098
-4.58633
83.1233
79.4132
74.7937
69.713
64.4866
59.1553
53.6921
48.0983
42.3995
36.617
30.7685
24.8811
18.9904
13.141
7.38948
1.8068
-3.52052
-8.49037
-12.9866
-16.8826
-20.0477
-22.3559
-23.6955
-23.9795
-23.1516
-21.1875
-18.1582
-14.193
-9.41048
-3.99517
83.851
80.4539
76.2255
71.5573
66.7324
61.7851
56.6894
51.4512
46.0944
40.6356
35.0952
29.5036
23.8967
18.3174
12.8191
7.46753
2.34132
-2.46778
-6.8564
-10.7127
-13.9214
-16.3712
-17.9626
-18.6174
-18.2855
-16.9516
-14.6538
-11.5206
-7.70255
-3.37534
84.3989
81.2703
77.3819
73.0801
68.6213
64.0346
59.2972
54.4159
49.4057
44.2808
39.0665
33.7929
28.4934
23.2079
17.9855
12.886
7.97986
3.34859
-0.916835
-4.71844
-7.95562
-10.531
-12.3576
-13.3665
-13.5146
-12.7914
-11.2278
-8.93122
-6.04535
-2.74962
84.8008
81.9043
78.3114
74.3319
70.2
65.9435
61.5415
56.9949
52.3127
47.5132
42.6225
37.667
32.6767
27.6882
22.7462
17.9037
13.2233
8.7764
4.64212
0.905358
-2.34699
-5.0309
-7.07126
-8.40867
-9.00641
-8.85748
-7.99219
-6.49245
-4.48363
-2.13797
85.085
82.3903
79.0551
75.3585
71.5168
67.5568
63.4562
59.2105
54.8314
50.3396
45.756
41.1023
36.4066
31.7026
27.0298
22.4352
17.9734
13.7063
9.70212
6.03365
2.7752
-0.00151725
-2.2324
-3.86681
-4.87371
-5.24806
-5.01726
-4.24827
-3.04737
-1.55871
85.275
82.7564
79.6463
76.1981
72.6122
68.914
65.0794
61.1029
56.9999
52.7903
48.4886
44.112
39.687
35.2449
30.8207
26.4553
22.1959
18.0958
14.2136
10.611
7.35128
4.49505
2.09658
0.198736
-1.17233
-2.01256
-2.34538
-2.22666
-1.74638
-1.02293
85.3901
83.025
80.1116
76.8809
73.5194
70.0512
66.4525
62.7174
58.8617
54.904
50.8545
46.7267
42.5453
38.3391
34.1384
29.9788
25.901
21.951
18.1784
14.6357
11.3764
8.45149
5.90676
3.77826
2.08807
0.839644
0.0134903
-0.436571
-0.5851
-0.534907
85.4463
83.2149
80.4732
77.4328
74.2678
71.0016
67.6119
64.0925
60.457
56.7204
52.8917
48.9842
45.0199
41.023
37.02
33.0418
29.124
25.3056
21.629
18.1387
14.8797
11.8952
9.22333
6.89461
4.92756
3.32524
2.07154
1.12827
0.433519
-0.100642
85.4572
83.3421
80.7502
77.876
74.883
71.794
68.5882
65.2597
61.8184
58.2746
54.6384
50.9252
47.152
43.3382
39.508
35.6883
31.9096
28.2052
24.6114
21.1659
17.9066
14.87
12.0881
9.58658
7.381
5.47403
3.85236
2.48427
1.31812
0.279284
85.4342
83.4199
80.9584
78.2293
75.3866
72.4526
69.4076
66.2452
62.9723
59.5973
56.1312
52.5875
48.9795
45.3248
41.6447
37.9623
34.3035
30.6971
27.174
23.7662
20.506
17.4239
14.5472
11.8973
9.48729
7.31952
5.38291
3.65095
2.08038
0.608262
85.3875
83.4601
81.1116
78.5087
75.7967
72.9974
70.0921
67.0729
63.9451
60.7179
57.4001
54.0021
50.5368
47.02
43.4695
39.9049
36.3487
32.8258
29.3626
25.9865
22.7248
19.6034
16.6453
13.8686
11.2844
8.89464
6.69001
4.64822
2.73277
0.890691
85.3252
83.4722
81.2211
78.727
76.1276
73.4443
70.6592
67.7636
64.7616
61.6611
58.4697
55.1966
51.8544
48.4561
45.0161
41.5517
38.0827
34.6305
31.2177
27.8679
24.6042
21.4489
18.4215
15.5373
12.8057
10.2282
7.79703
5.49322
3.28579
1.13008
85.2558
83.466
81.298
78.8967
76.3933
73.8088
71.1259
68.3363
65.4419
62.4488
59.3645
56.1984
52.9608
49.6622
46.3152
42.9353
39.5396
36.1467
32.7759
29.4477
26.182
22.9979
19.912
16.9374
14.0821
11.3474
8.72653
6.20326
3.75099
1.33169
85.1842
83.4472
81.3493
79.0264
76.6037
74.102
71.5048
68.8036
65.9993
63.0966
60.1028
57.0267
53.8763
50.6603
47.3905
44.0807
40.7458
37.4017
34.0654
30.7547
27.4868
24.2784
21.1437
18.094
15.1363
12.2715
9.49375
6.78899
4.13417
1.49688
85.1205
83.4269
81.3869
79.1288
76.7729
74.3395
71.8124
69.1829
66.4521
63.6244
60.7058
57.7031
54.6234
51.475
48.2684
45.0157
41.7299
38.4252
35.1166
31.8196
28.5496
25.321
22.1464
19.0356
15.9946
13.0241
10.1191
7.26701
4.44766
1.63267
85.0624
83.4033
81.4094
79.203
76.9003
74.5213
72.0502
69.4775
66.8049
64.0366
61.1772
58.2323
55.2081
52.1132
48.9566
45.7487
42.5013
39.2272
35.9399
32.6533
29.3811
26.1363
22.93
19.7709
16.6642
13.6106
10.6053
7.63735
4.68879
1.73515
85.03
83.3966
81.4379
79.2709
77.0085
74.6707
72.2421
69.7129
67.0841
64.3599
61.5447
58.6431
55.6609
52.6058
49.4862
46.3114
43.0921
39.8403
36.5682
33.2886
30.0141
26.7564
23.5256
20.3297
17.1733
14.0568
10.9759
7.92038
4.87396
1.8147
85.0012
83.3841
81.4488
79.3086
77.0734
74.7631
72.3628
69.8628
67.2633
64.5685
61.7825
58.9097
55.9556
52.9268
49.8315
46.6786
43.478
40.2409
36.979
33.7041
30.4281
27.1618
23.9149
20.6946
17.5051
14.3467
11.215
8.10017
4.98695
1.85679
85.0308
83.4157
81.4936
79.3699
77.1504
74.8551
72.4701
69.9856
67.4017
64.7221
61.951
59.0925
56.1518
53.1355
50.0512
46.9077
43.7147
40.483
37.2238
33.9488
30.6694
27.3962
24.1384
20.9031
17.6943
14.5121
11.3517
8.20252
5.04666
1.85628
)
;

boundaryField
{
    inlet
    {
        type            zeroGradient;
    }
    outlet
    {
        type            fixedValue;
        value           uniform 0;
    }
    flap
    {
        type            zeroGradient;
    }
    upperWall
    {
        type            zeroGradient;
    }
    lowerWall
    {
        type            zeroGradient;
    }
    frontAndBack
    {
        type            empty;
    }
}


// ************************************************************************* //
