/*--------------------------------*- C++ -*----------------------------------*\
| =========                 |                                                 |
| \\      /  F ield         | OpenFOAM: The Open Source CFD Toolbox           |
|  \\    /   O peration     | Version:  2006                                  |
|   \\  /    A nd           | Website:  www.openfoam.com                      |
|    \\/     M anipulation  |                                                 |
\*---------------------------------------------------------------------------*/
FoamFile
{
    version     2.0;
    format      ascii;
    class       volVectorField;
    location    "0.6";
    object      cellDisplacement;
}
// * * * * * * * * * * * * * * * * * * * * * * * * * * * * * * * * * * * * * //

dimensions      [0 1 0 0 0 0 0];


internalField   nonuniform List<vector> 
2790
(
(0.000540144 5.09943e-07 0)
(0.00154839 1.49557e-06 0)
(0.00254977 2.57364e-06 0)
(0.00360768 3.88184e-06 0)
(0.00476767 5.56747e-06 0)
(0.00606341 7.80671e-06 0)
(0.00751798 1.08166e-05 0)
(0.0091442 1.4864e-05 0)
(0.0109445 2.02727e-05 0)
(0.0129095 2.74414e-05 0)
(0.0150164 3.68397e-05 0)
(0.0172274 4.90029e-05 0)
(0.0194889 6.45001e-05 0)
(0.0217316 8.39844e-05 0)
(0.0238697 0.000108126 0)
(0.0258036 0.000137597 0)
(0.0274243 0.000173058 0)
(0.0286189 0.000215126 0)
(0.0292787 0.000264348 0)
(0.0293081 0.000321111 0)
(0.0286327 0.000385187 0)
(0.0272118 0.000456624 0)
(0.0250445 0.000535272 0)
(0.02218 0.000621549 0)
(0.0187189 0.00071552 0)
(0.0148213 0.000818307 0)
(0.0107171 0.000932517 0)
(0.00672135 0.00106062 0)
(0.00327594 0.00119218 0)
(0.00111672 0.00125762 0)
(0.000530644 1.5135e-06 0)
(0.00152377 4.44014e-06 0)
(0.00251312 7.64134e-06 0)
(0.00355972 1.15236e-05 0)
(0.004709 1.65233e-05 0)
(0.00599479 2.31634e-05 0)
(0.00744065 3.20893e-05 0)
(0.00905998 4.40946e-05 0)
(0.0108561 6.01389e-05 0)
(0.0128213 8.14094e-05 0)
(0.0149345 0.000109308 0)
(0.0171592 0.000145438 0)
(0.0194443 0.000191473 0)
(0.0217232 0.000249374 0)
(0.0239125 0.000321138 0)
(0.0259151 0.000408752 0)
(0.0276242 0.000514173 0)
(0.0289289 0.000639215 0)
(0.0297219 0.000785489 0)
(0.0299091 0.000954379 0)
(0.0294144 0.00114452 0)
(0.0281974 0.00135609 0)
(0.0262536 0.00158754 0)
(0.0236346 0.00183991 0)
(0.0204393 0.00211047 0)
(0.0168302 0.00239789 0)
(0.0130471 0.00270163 0)
(0.00943093 0.00301953 0)
(0.00645677 0.00333944 0)
(0.00485125 0.00362569 0)
(0.000528538 2.48676e-06 0)
(0.00151922 7.29873e-06 0)
(0.00250698 1.25614e-05 0)
(0.00355268 1.89383e-05 0)
(0.00470196 2.71429e-05 0)
(0.0059893 3.80339e-05 0)
(0.00743906 5.2673e-05 0)
(0.00906534 7.23669e-05 0)
(0.0108729 9.86758e-05 0)
(0.0128563 0.000133559 0)
(0.014997 0.000179325 0)
(0.0172607 0.000238668 0)
(0.0195992 0.000314227 0)
(0.0219513 0.000409317 0)
(0.0242375 0.000527211 0)
(0.0263651 0.000671144 0)
(0.0282323 0.000844327 0)
(0.0297327 0.00104969 0)
(0.0307627 0.00128976 0)
(0.0312282 0.00156539 0)
(0.0310604 0.00187691 0)
(0.0302209 0.00222399 0)
(0.0287044 0.00260517 0)
(0.0265524 0.00301672 0)
(0.0238661 0.00345273 0)
(0.0208041 0.00390743 0)
(0.0176067 0.00437473 0)
(0.0146396 0.00484844 0)
(0.0123774 0.00530552 0)
(0.0114707 0.00568812 0)
(0.000527102 3.42678e-06 0)
(0.00151601 1.00609e-05 0)
(0.00250297 1.73125e-05 0)
(0.00354884 2.60905e-05 0)
(0.00469968 3.73687e-05 0)
(0.00599097 5.23273e-05 0)
(0.00744837 7.24273e-05 0)
(0.00908669 9.94758e-05 0)
(0.0109126 0.000135565 0)
(0.0129243 0.000183405 0)
(0.0151073 0.000246156 0)
(0.0174284 0.000327255 0)
(0.0198452 0.000430676 0)
(0.0223044 0.000560907 0)
(0.0247314 0.000722376 0)
(0.0270401 0.000919379 0)
(0.0291361 0.0011563 0)
(0.0309196 0.00143699 0)
(0.0322931 0.00176463 0)
(0.0331653 0.00214007 0)
(0.0334744 0.00256544 0)
(0.0331809 0.00303939 0)
(0.0322856 0.00355945 0)
(0.0308208 0.00411666 0)
(0.0288847 0.00470243 0)
(0.0266287 0.00530506 0)
(0.0242689 0.00591096 0)
(0.0221483 0.00650162 0)
(0.0207743 0.00704818 0)
(0.0207089 0.00747986 0)
(0.0005262 4.32392e-06 0)
(0.00151403 1.26962e-05 0)
(0.00250095 2.18394e-05 0)
(0.00354798 3.28949e-05 0)
(0.00470167 4.70707e-05 0)
(0.00599893 6.58499e-05 0)
(0.00746756 9.1068e-05 0)
(0.00912226 0.000124905 0)
(0.0109722 0.000170055 0)
(0.0130204 0.000229891 0)
(0.0152549 0.000308253 0)
(0.0176497 0.000409392 0)
(0.0201699 0.000538566 0)
(0.0227666 0.000701156 0)
(0.025374 0.000902746 0)
(0.0279137 0.00114835 0)
(0.0303023 0.00144351 0)
(0.0324483 0.00179279 0)
(0.0342656 0.00220062 0)
(0.0356682 0.00266834 0)
(0.0365936 0.00319678 0)
(0.0370038 0.00378411 0)
(0.0368995 0.00442571 0)
(0.0363155 0.00511156 0)
(0.0353413 0.00582838 0)
(0.0341161 0.00655797 0)
(0.0328328 0.00727697 0)
(0.031753 0.00795394 0)
(0.0314017 0.00855546 0)
(0.0322658 0.00900561 0)
(0.000525798 5.16943e-06 0)
(0.00151319 1.51775e-05 0)
(0.00250087 2.60917e-05 0)
(0.00354992 3.92442e-05 0)
(0.00470736 5.60846e-05 0)
(0.00601206 7.83587e-05 0)
(0.00749277 0.000108213 0)
(0.00916706 0.000148217 0)
(0.0110475 0.000201601 0)
(0.0131397 0.000272283 0)
(0.0154367 0.000364785 0)
(0.0179204 0.000484258 0)
(0.0205624 0.00063666 0)
(0.023323 0.00082839 0)
(0.0261419 0.00106549 0)
(0.0289544 0.00135435 0)
(0.0316909 0.00170138 0)
(0.0342757 0.00211258 0)
(0.0366274 0.00259202 0)
(0.0386669 0.00314093 0)
(0.0403358 0.00375951 0)
(0.0415936 0.0044449 0)
(0.0424477 0.00519178 0)
(0.0429224 0.00598716 0)
(0.0430985 0.00681365 0)
(0.0430921 0.00764616 0)
(0.0430664 0.00845206 0)
(0.0432252 0.00919241 0)
(0.0439563 0.0098128 0)
(0.0457442 0.0102398 0)
(0.000525949 5.95588e-06 0)
(0.00151339 1.74697e-05 0)
(0.00250122 2.99927e-05 0)
(0.00355284 4.50459e-05 0)
(0.00471574 6.42996e-05 0)
(0.00602909 8.9699e-05 0)
(0.00752472 0.000123703 0)
(0.00922178 0.000169194 0)
(0.0111357 0.000229829 0)
(0.0132776 0.000310067 0)
(0.0156453 0.000414997 0)
(0.0182276 0.000550435 0)
(0.0210046 0.000723003 0)
(0.0239441 0.000939688 0)
(0.0269996 0.00120736 0)
(0.0301225 0.0015338 0)
(0.0332549 0.001926 0)
(0.0363343 0.00239032 0)
(0.0392868 0.00293018 0)
(0.042051 0.00354766 0)
(0.0445745 0.00424183 0)
(0.046826 0.00501036 0)
(0.0487892 0.0058446 0)
(0.0504779 0.00672896 0)
(0.0519756 0.00764402 0)
(0.053358 0.00855826 0)
(0.0547402 0.00943221 0)
(0.0562673 0.0102183 0)
(0.0581339 0.0108456 0)
(0.0607771 0.0112365 0)
(0.00052558 6.66228e-06 0)
(0.00151347 1.95404e-05 0)
(0.00250283 3.35234e-05 0)
(0.00355797 5.02929e-05 0)
(0.00472674 7.16563e-05 0)
(0.00604931 9.97766e-05 0)
(0.00755953 0.000137338 0)
(0.00928036 0.000187509 0)
(0.0112316 0.000254372 0)
(0.0134272 0.000342747 0)
(0.0158706 0.000458211 0)
(0.0185579 0.000607041 0)
(0.0214789 0.000796477 0)
(0.0246118 0.00103407 0)
(0.0279241 0.00132753 0)
(0.0313796 0.00168495 0)
(0.0349372 0.00211407 0)
(0.0385444 0.00262085 0)
(0.0421487 0.00320961 0)
(0.0457045 0.00388243 0)
(0.0491708 0.00463803 0)
(0.0525222 0.00547199 0)
(0.0557215 0.00637248 0)
(0.05878 0.00732589 0)
(0.0617552 0.00830913 0)
(0.0646808 0.00928503 0)
(0.067606 0.0102102 0)
(0.0705864 0.0110316 0)
(0.0736752 0.0116722 0)
(0.07711 0.0120353 0)
(0.000525653 7.29638e-06 0)
(0.00151468 2.14019e-05 0)
(0.00250564 3.66641e-05 0)
(0.00356321 5.48998e-05 0)
(0.00473788 7.80635e-05 0)
(0.00607127 0.000108507 0)
(0.00759735 0.000149072 0)
(0.00934309 0.000203186 0)
(0.0113323 0.00027519 0)
(0.013584 0.000370269 0)
(0.0161049 0.000494202 0)
(0.0188992 0.000653752 0)
(0.0219686 0.000856668 0)
(0.0253011 0.00111088 0)
(0.0288766 0.00142444 0)
(0.0326795 0.00180626 0)
(0.0366806 0.00226403 0)
(0.0408402 0.00280331 0)
(0.0451265 0.00342895 0)
(0.049516 0.00414318 0)
(0.0539785 0.00494362 0)
(0.0584905 0.0058239 0)
(0.0630288 0.00677186 0)
(0.0676002 0.00777373 0)
(0.0721772 0.00880288 0)
(0.076787 0.00982034 0)
(0.0813858 0.0107803 0)
(0.0859206 0.0116289 0)
(0.090286 0.0122895 0)
(0.0944693 0.0126471 0)
(0.000526154 7.85851e-06 0)
(0.00151574 2.30222e-05 0)
(0.00250816 3.93794e-05 0)
(0.00356951 5.88744e-05 0)
(0.0047505 8.35643e-05 0)
(0.00609475 0.000115918 0)
(0.00763676 0.000158882 0)
(0.00940648 0.000216091 0)
(0.0114326 0.000292092 0)
(0.0137368 0.000392213 0)
(0.0163339 0.000522541 0)
(0.0192368 0.000690256 0)
(0.0224536 0.0009032 0)
(0.025985 0.00116968 0)
(0.029827 0.0014982 0)
(0.0339761 0.00189753 0)
(0.0384157 0.00237494 0)
(0.0431292 0.00293624 0)
(0.0481115 0.00358684 0)
(0.0533492 0.00432854 0)
(0.0588322 0.0051578 0)
(0.0645488 0.00606695 0)
(0.0704841 0.00704343 0)
(0.07663 0.00807025 0)
(0.0829238 0.0091228 0)
(0.0893494 0.0101624 0)
(0.0957497 0.0111392 0)
(0.101946 0.012001 0)
(0.107654 0.0126738 0)
(0.112584 0.013023 0)
(0.000526067 8.33108e-06 0)
(0.00151659 2.44003e-05 0)
(0.00251161 4.17022e-05 0)
(0.00357702 6.22433e-05 0)
(0.0047637 8.81326e-05 0)
(0.00611637 0.000121922 0)
(0.00767317 0.000166683 0)
(0.00946705 0.000226209 0)
(0.0115284 0.000305101 0)
(0.0138833 0.000408816 0)
(0.0165542 0.000543677 0)
(0.0195604 0.00071692 0)
(0.0229182 0.00093651 0)
(0.0266404 0.00121091 0)
(0.0307366 0.00154874 0)
(0.0352145 0.00195845 0)
(0.0400788 0.00244746 0)
(0.0453345 0.00302168 0)
(0.0509914 0.003685 0)
(0.0570595 0.00443933 0)
(0.0635489 0.00528184 0)
(0.0704669 0.00620233 0)
(0.0778023 0.00718713 0)
(0.0855395 0.00821796 0)
(0.09364 0.00927321 0)
(0.101984 0.0103131 0)
(0.110312 0.011285 0)
(0.118296 0.0121331 0)
(0.125433 0.0127755 0)
(0.131059 0.0130625 0)
(0.000526379 8.73112e-06 0)
(0.0015183 2.55639e-05 0)
(0.00251594 4.36407e-05 0)
(0.00358403 6.4978e-05 0)
(0.00477541 9.17563e-05 0)
(0.00613698 0.000126609 0)
(0.00770788 0.000172655 0)
(0.00952371 0.000233735 0)
(0.0116174 0.000314485 0)
(0.0140191 0.000420397 0)
(0.0167572 0.000557866 0)
(0.0198578 0.00073412 0)
(0.0233452 0.000957094 0)
(0.0272432 0.00123528 0)
(0.031574 0.00157718 0)
(0.0363576 0.00199091 0)
(0.0416161 0.0024837 0)
(0.0473736 0.00306113 0)
(0.053658 0.00372647 0)
(0.0605007 0.00447989 0)
(0.0679381 0.0053194 0)
(0.0760058 0.00623456 0)
(0.0846914 0.00720871 0)
(0.0939975 0.0082238 0)
(0.103912 0.00925968 0)
(0.114225 0.0102783 0)
(0.124598 0.0112238 0)
(0.134508 0.0120292 0)
(0.143128 0.0125856 0)
(0.149269 0.0127405 0)
(0.000527086 9.06351e-06 0)
(0.00152078 2.65207e-05 0)
(0.0025201 4.51875e-05 0)
(0.00359059 6.71158e-05 0)
(0.00478707 9.45436e-05 0)
(0.00615633 0.000130089 0)
(0.00773945 0.000176902 0)
(0.00957457 0.000238836 0)
(0.0116966 0.000320488 0)
(0.014139 0.000427283 0)
(0.0169358 0.000565594 0)
(0.0201191 0.000742528 0)
(0.0237195 0.000965824 0)
(0.0277721 0.00124395 0)
(0.0323108 0.00158513 0)
(0.0373648 0.00199692 0)
(0.0429718 0.00248617 0)
(0.0491723 0.00305794 0)
(0.0560117 0.0037147 0)
(0.0635384 0.00445543 0)
(0.0718304 0.00527797 0)
(0.0809287 0.00617089 0)
(0.0908407 0.00711623 0)
(0.101601 0.00809664 0)
(0.11321 0.00909192 0)
(0.125475 0.0100685 0)
(0.137972 0.0109773 0)
(0.149984 0.0117466 0)
(0.160223 0.0122463 0)
(0.166782 0.0123136 0)
(0.00052827 9.33515e-06 0)
(0.00152309 2.72677e-05 0)
(0.0025244 4.6382e-05 0)
(0.00359814 6.87419e-05 0)
(0.00479843 9.65611e-05 0)
(0.00617397 0.000132465 0)
(0.00776711 0.000179583 0)
(0.0096186 0.000241758 0)
(0.0117641 0.000323453 0)
(0.0142392 0.000429945 0)
(0.017084 0.000567523 0)
(0.0203353 0.000743069 0)
(0.0240272 0.000963871 0)
(0.0282091 0.00123848 0)
(0.0329233 0.00157473 0)
(0.038203 0.00197924 0)
(0.0441001 0.0024584 0)
(0.0506689 0.00301658 0)
(0.0579695 0.00365544 0)
(0.0660675 0.00437299 0)
(0.0750653 0.00516554 0)
(0.0850138 0.00602085 0)
(0.095943 0.00691988 0)
(0.107913 0.00784458 0)
(0.120982 0.00877824 0)
(0.135005 0.0096925 0)
(0.149538 0.0105554 0)
(0.163855 0.0113282 0)
(0.17626 0.0119136 0)
(0.183789 0.0120986 0)
(0.000529323 9.54116e-06 0)
(0.00152549 2.78309e-05 0)
(0.00252904 4.7266e-05 0)
(0.00360554 6.98904e-05 0)
(0.00480959 9.78997e-05 0)
(0.00618987 0.000133871 0)
(0.00779038 0.000180891 0)
(0.00965176 0.00024266 0)
(0.011815 0.00032365 0)
(0.0143166 0.000428919 0)
(0.0171972 0.000564408 0)
(0.0205009 0.000736847 0)
(0.0242658 0.000953113 0)
(0.0285483 0.00122126 0)
(0.033395 0.00154862 0)
(0.038848 0.0019412 0)
(0.0449674 0.00240465 0)
(0.0518167 0.00294247 0)
(0.0594655 0.00355537 0)
(0.0679946 0.00424082 0)
(0.0775155 0.00499227 0)
(0.0880799 0.0057967 0)
(0.0997403 0.00663405 0)
(0.112573 0.00748431 0)
(0.12667 0.0083297 0)
(0.141917 0.00914772 0)
(0.158002 0.00992301 0)
(0.174429 0.0106711 0)
(0.189856 0.0114362 0)
(0.200735 0.0120779 0)
(0.00112229 -0.00132602 0)
(0.0044386 -0.00134957 0)
(0.0102526 -0.00126806 0)
(0.0173753 -0.00116065 0)
(0.0246778 -0.00104509 0)
(0.0312935 -0.000925084 0)
(0.0367108 -0.000807485 0)
(0.0407046 -0.000693561 0)
(0.043261 -0.000587882 0)
(0.0444752 -0.000492322 0)
(0.0445062 -0.00040769 0)
(0.0435429 -0.000334625 0)
(0.0417751 -0.000271423 0)
(0.0393884 -0.00021768 0)
(0.0365543 -0.000172634 0)
(0.0334259 -0.000135266 0)
(0.0301373 -0.000104615 0)
(0.0268069 -7.99697e-05 0)
(0.0235309 -6.01142e-05 0)
(0.0203909 -4.4469e-05 0)
(0.0174427 -3.21588e-05 0)
(0.0147158 -2.26787e-05 0)
(0.0122341 -1.55376e-05 0)
(0.0100063 -1.0279e-05 0)
(0.00802551 -6.50475e-06 0)
(0.00627534 -3.86338e-06 0)
(0.00472298 -2.14568e-06 0)
(0.00331784 -1.08272e-06 0)
(0.00199945 -4.65365e-07 0)
(0.000689819 -1.20709e-07 0)
(0.00486858 -0.00383501 0)
(0.00812126 -0.00382102 0)
(0.0137618 -0.00364757 0)
(0.0206333 -0.00337939 0)
(0.0276061 -0.00306381 0)
(0.0338294 -0.0027199 0)
(0.0388357 -0.00237237 0)
(0.0424431 -0.00203903 0)
(0.0446555 -0.00173006 0)
(0.0455667 -0.00145016 0)
(0.0453363 -0.00120159 0)
(0.0441542 -0.00098589 0)
(0.042207 -0.000799882 0)
(0.0396754 -0.000641724 0)
(0.0367275 -0.000509161 0)
(0.0335115 -0.000399086 0)
(0.0301556 -0.000308644 0)
(0.0267779 -0.000235311 0)
(0.0234745 -0.000176814 0)
(0.0203156 -0.000130394 0)
(0.0173557 -9.42155e-05 0)
(0.0146256 -6.64003e-05 0)
(0.0121463 -4.54625e-05 0)
(0.00992546 -3.00493e-05 0)
(0.00795527 -1.8998e-05 0)
(0.00621619 -1.13199e-05 0)
(0.00467483 -6.26992e-06 0)
(0.00328337 -3.14173e-06 0)
(0.00198029 -1.3424e-06 0)
(0.000685236 -3.48478e-07 0)
(0.0114882 -0.00603794 0)
(0.0149374 -0.00604154 0)
(0.0204519 -0.0058054 0)
(0.0269633 -0.00540931 0)
(0.0333357 -0.0049139 0)
(0.0388499 -0.00437107 0)
(0.0431405 -0.00381705 0)
(0.0460801 -0.00328561 0)
(0.047682 -0.00279336 0)
(0.0480436 -0.00234552 0)
(0.0473327 -0.00194608 0)
(0.0457372 -0.00159656 0)
(0.0434496 -0.00129649 0)
(0.0406368 -0.0010411 0)
(0.0374622 -0.000827023 0)
(0.0340648 -0.000648812 0)
(0.0305675 -0.000502183 0)
(0.0270762 -0.000382743 0)
(0.0236848 -0.00028727 0)
(0.0204636 -0.000211854 0)
(0.0174578 -0.000153097 0)
(0.0146935 -0.000107858 0)
(0.0121898 -7.38147e-05 0)
(0.00995285 -4.87513e-05 0)
(0.00797283 -3.07854e-05 0)
(0.00622736 -1.83349e-05 0)
(0.00468171 -1.01246e-05 0)
(0.00328788 -5.04071e-06 0)
(0.00198333 -2.1388e-06 0)
(0.000686582 -5.54943e-07 0)
(0.0207281 -0.00796461 0)
(0.024481 -0.00797806 0)
(0.0298898 -0.00768931 0)
(0.0358603 -0.00717955 0)
(0.0413806 -0.00653081 0)
(0.0459417 -0.00581897 0)
(0.0492681 -0.00509471 0)
(0.0512828 -0.00439635 0)
(0.0520115 -0.00374429 0)
(0.0515957 -0.00315077 0)
(0.0502092 -0.00261982 0)
(0.048035 -0.00215301 0)
(0.0452637 -0.00175139 0)
(0.0420468 -0.0014084 0)
(0.038542 -0.00111963 0)
(0.0348843 -0.000879447 0)
(0.0311813 -0.000681505 0)
(0.0275312 -0.000520307 0)
(0.0240152 -0.00039076 0)
(0.0206972 -0.000288235 0)
(0.0176211 -0.000208408 0)
(0.0148057 -0.000146969 0)
(0.0122638 -0.000100568 0)
(0.0100015 -6.63832e-05 0)
(0.00800497 -4.18722e-05 0)
(0.00624821 -2.48893e-05 0)
(0.00469501 -1.3696e-05 0)
(0.00329655 -6.78119e-06 0)
(0.00198866 -2.855e-06 0)
(0.000688762 -7.37215e-07 0)
(0.0322868 -0.00962926 0)
(0.0363366 -0.00962458 0)
(0.0415566 -0.00927663 0)
(0.0468 -0.00865998 0)
(0.0513196 -0.00788816 0)
(0.0547334 -0.00704093 0)
(0.0568891 -0.00617917 0)
(0.0577472 -0.00534441 0)
(0.0573998 -0.00456178 0)
(0.0560281 -0.00384692 0)
(0.0538073 -0.00320592 0)
(0.050925 -0.00264176 0)
(0.0475476 -0.00215293 0)
(0.0438342 -0.00173494 0)
(0.0399181 -0.00138108 0)
(0.0359291 -0.00108613 0)
(0.0319651 -0.000842782 0)
(0.0281116 -0.000644357 0)
(0.0244394 -0.000484689 0)
(0.0210005 -0.000357947 0)
(0.0178332 -0.000259009 0)
(0.0149529 -0.000182778 0)
(0.0123649 -0.000125099 0)
(0.0100697 -8.25273e-05 0)
(0.00805103 -5.19855e-05 0)
(0.00627877 -3.08366e-05 0)
(0.00471467 -1.6889e-05 0)
(0.00330925 -8.2975e-06 0)
(0.00199639 -3.45491e-06 0)
(0.000692125 -8.83434e-07 0)
(0.0457526 -0.0110081 0)
(0.0500534 -0.0109786 0)
(0.0549501 -0.010566 0)
(0.0593464 -0.00985781 0)
(0.0627145 -0.00898403 0)
(0.064816 -0.00802894 0)
(0.0656203 -0.00706021 0)
(0.0651577 -0.00612014 0)
(0.0636046 -0.0052375 0)
(0.061146 -0.00442776 0)
(0.0579675 -0.00369852 0)
(0.0542679 -0.00305528 0)
(0.0501979 -0.0024955 0)
(0.0459086 -0.00201499 0)
(0.0415238 -0.00160745 0)
(0.0371533 -0.00126631 0)
(0.0328858 -0.000984112 0)
(0.0287939 -0.000753465 0)
(0.0249382 -0.000567574 0)
(0.0213574 -0.000419553 0)
(0.0180853 -0.000303716 0)
(0.0151298 -0.000214434 0)
(0.0124861 -0.000146732 0)
(0.0101519 -9.6714e-05 0)
(0.00810508 -6.07828e-05 0)
(0.00631426 -3.59351e-05 0)
(0.00473902 -1.95718e-05 0)
(0.00332523 -9.5218e-06 0)
(0.00200623 -3.90332e-06 0)
(0.000697156 -9.83557e-07 0)
(0.0607904 -0.0121431 0)
(0.0652458 -0.0120697 0)
(0.0696679 -0.0115834 0)
(0.073078 -0.0107906 0)
(0.075152 -0.0098316 0)
(0.0757991 -0.00879283 0)
(0.0751068 -0.00774246 0)
(0.0732267 -0.00672658 0)
(0.0703648 -0.00577069 0)
(0.066729 -0.00489085 0)
(0.0625125 -0.00409535 0)
(0.0579164 -0.0033907 0)
(0.0531006 -0.00277658 0)
(0.0481864 -0.00224699 0)
(0.0432886 -0.00179636 0)
(0.0385021 -0.00141781 0)
(0.0339024 -0.0011037 0)
(0.0295469 -0.000846153 0)
(0.0254877 -0.000638038 0)
(0.0217557 -0.000472194 0)
(0.0183659 -0.000341919 0)
(0.0153253 -0.000241435 0)
(0.0126226 -0.000165196 0)
(0.0102461 -0.000108766 0)
(0.00816818 -6.81944e-05 0)
(0.00635509 -4.01098e-05 0)
(0.00476539 -2.16681e-05 0)
(0.00334206 -1.04012e-05 0)
(0.00201638 -4.17492e-06 0)
(0.000700332 -1.02555e-06 0)
(0.0771158 -0.0130587 0)
(0.0815863 -0.0129248 0)
(0.0853644 -0.012355 0)
(0.0876223 -0.0114807 0)
(0.0882532 -0.0104499 0)
(0.0873202 -0.00934793 0)
(0.0850338 -0.00824014 0)
(0.0816524 -0.00717189 0)
(0.0774169 -0.00616625 0)
(0.0725531 -0.00523872 0)
(0.0672578 -0.00439751 0)
(0.0617305 -0.00364951 0)
(0.0561349 -0.00299574 0)
(0.0505706 -0.00242996 0)
(0.0451384 -0.00194685 0)
(0.0399185 -0.00153965 0)
(0.0349727 -0.0012007 0)
(0.0303465 -0.000922083 0)
(0.0260736 -0.00069606 0)
(0.0221757 -0.000515438 0)
(0.0186633 -0.000373365 0)
(0.0155337 -0.000263601 0)
(0.0127684 -0.000180281 0)
(0.0103455 -0.000118512 0)
(0.00823442 -7.40626e-05 0)
(0.00639983 -4.33192e-05 0)
(0.00479481 -2.31658e-05 0)
(0.00336066 -1.09213e-05 0)
(0.00202673 -4.25664e-06 0)
(0.00070426 -1.00818e-06 0)
(0.094464 -0.0137555 0)
(0.0987972 -0.0135491 0)
(0.101714 -0.01289 0)
(0.102621 -0.0119419 0)
(0.101649 -0.0108548 0)
(0.0990199 -0.00970939 0)
(0.0950603 -0.00856571 0)
(0.0901313 -0.00746634 0)
(0.0844963 -0.00643197 0)
(0.0783936 -0.00547693 0)
(0.0720186 -0.00460887 0)
(0.0655556 -0.00383394 0)
(0.0591786 -0.00315446 0)
(0.0529649 -0.00256464 0)
(0.0469986 -0.0020593 0)
(0.0413452 -0.0016319 0)
(0.0360525 -0.001275 0)
(0.0311537 -0.000980777 0)
(0.0266696 -0.00074147 0)
(0.0226094 -0.000549643 0)
(0.0189722 -0.000398267 0)
(0.0157491 -0.000281042 0)
(0.0129166 -0.000191981 0)
(0.0104469 -0.000125942 0)
(0.00830366 -7.83971e-05 0)
(0.00644683 -4.55362e-05 0)
(0.0048261 -2.40469e-05 0)
(0.00338085 -1.10814e-05 0)
(0.00203852 -4.15125e-06 0)
(0.00070742 -9.29109e-07 0)
(0.112572 -0.014206 0)
(0.116564 -0.0139097 0)
(0.118348 -0.0131741 0)
(0.117679 -0.0121755 0)
(0.114944 -0.0110558 0)
(0.110526 -0.00988969 0)
(0.104842 -0.00873123 0)
(0.0983599 -0.00762053 0)
(0.0913428 -0.00657691 0)
(0.0840319 -0.00561273 0)
(0.0766196 -0.00473538 0)
(0.0692589 -0.00394862 0)
(0.062113 -0.00325551 0)
(0.0552766 -0.00265311 0)
(0.0487977 -0.00213516 0)
(0.0427273 -0.00169556 0)
(0.0371003 -0.00132723 0)
(0.0319377 -0.00102264 0)
(0.0272484 -0.000774175 0)
(0.0230311 -0.000574451 0)
(0.0192754 -0.000416467 0)
(0.0159626 -0.000293767 0)
(0.013065 -0.000200402 0)
(0.0105486 -0.000131095 0)
(0.00837356 -8.12153e-05 0)
(0.00649461 -4.67731e-05 0)
(0.00485835 -2.43211e-05 0)
(0.00340208 -1.08871e-05 0)
(0.00205022 -3.85817e-06 0)
(0.000710599 -7.90417e-07 0)
(0.13104 -0.0142982 0)
(0.134426 -0.0139509 0)
(0.134813 -0.0131952 0)
(0.132346 -0.0121864 0)
(0.127706 -0.0110633 0)
(0.12145 -0.00990125 0)
(0.114058 -0.00874879 0)
(0.106042 -0.00764487 0)
(0.0977063 -0.00661064 0)
(0.0892583 -0.00565413 0)
(0.0808783 -0.00478235 0)
(0.0727053 -0.00399881 0)
(0.0648495 -0.00330431 0)
(0.057419 -0.00269842 0)
(0.0504687 -0.00217673 0)
(0.0440138 -0.00173232 0)
(0.0380774 -0.0013586 0)
(0.03267 -0.00104853 0)
(0.02779 -0.000794829 0)
(0.0234264 -0.000590312 0)
(0.0195601 -0.000428117 0)
(0.0161647 -0.000301842 0)
(0.0132067 -0.000205588 0)
(0.0106471 -0.000134061 0)
(0.00844177 -8.25787e-05 0)
(0.00654183 -4.70757e-05 0)
(0.0048909 -2.40221e-05 0)
(0.00342278 -1.03519e-05 0)
(0.00206146 -3.38678e-06 0)
(0.000714498 -5.96957e-07 0)
(0.149261 -0.0140071 0)
(0.151844 -0.0137081 0)
(0.150601 -0.0129931 0)
(0.146113 -0.0120028 0)
(0.139452 -0.0108963 0)
(0.131348 -0.00975616 0)
(0.122342 -0.00863018 0)
(0.112897 -0.00755272 0)
(0.10335 -0.00654385 0)
(0.0938785 -0.00561011 0)
(0.0846364 -0.0047574 0)
(0.075742 -0.00398886 0)
(0.0672851 -0.0033053 0)
(0.059332 -0.00270538 0)
(0.0519508 -0.00218693 0)
(0.0451584 -0.00174441 0)
(0.0389487 -0.00137077 0)
(0.0333246 -0.00105967 0)
(0.0282755 -0.000804315 0)
(0.0237821 -0.000597865 0)
(0.0198175 -0.000433704 0)
(0.0163488 -0.000305595 0)
(0.0133371 -0.000207766 0)
(0.0107389 -0.000134984 0)
(0.00850618 -8.25931e-05 0)
(0.00658741 -4.65223e-05 0)
(0.00492188 -2.31879e-05 0)
(0.00344248 -9.50513e-06 0)
(0.00207308 -2.76061e-06 0)
(0.000718903 -3.55792e-07 0)
(0.166767 -0.0136167 0)
(0.168384 -0.0133712 0)
(0.16513 -0.0126604 0)
(0.158364 -0.0116681 0)
(0.149628 -0.0105778 0)
(0.13976 -0.00947067 0)
(0.129291 -0.00838746 0)
(0.118618 -0.00735469 0)
(0.108043 -0.00638721 0)
(0.0977126 -0.00549031 0)
(0.0877535 -0.00466887 0)
(0.0782613 -0.00392591 0)
(0.0693075 -0.00326253 0)
(0.0609445 -0.00267799 0)
(0.0532106 -0.00217005 0)
(0.0461275 -0.00173452 0)
(0.0396878 -0.00136565 0)
(0.0338817 -0.00105748 0)
(0.0286906 -0.0008037 0)
(0.0240878 -0.000597898 0)
(0.0200405 -0.0004338 0)
(0.01651 -0.000305432 0)
(0.0134529 -0.000207219 0)
(0.0108217 -0.000134063 0)
(0.00856531 -8.13955e-05 0)
(0.00662877 -4.51835e-05 0)
(0.00495067 -2.18822e-05 0)
(0.00346204 -8.40219e-06 0)
(0.00208482 -2.00838e-06 0)
(0.00072397 -7.60311e-08 0)
(0.183775 -0.0134423 0)
(0.183587 -0.0130695 0)
(0.177515 -0.0122244 0)
(0.168247 -0.0111875 0)
(0.157557 -0.0101136 0)
(0.146189 -0.00905456 0)
(0.134567 -0.00803324 0)
(0.122968 -0.00706279 0)
(0.111613 -0.00615124 0)
(0.100635 -0.00530367 0)
(0.0901363 -0.00452435 0)
(0.0801933 -0.00381637 0)
(0.0708638 -0.00318131 0)
(0.0621885 -0.00261908 0)
(0.0541942 -0.00212808 0)
(0.0468918 -0.001705 0)
(0.0402749 -0.00134525 0)
(0.0343276 -0.00104355 0)
(0.0290257 -0.00079421 0)
(0.0243373 -0.00059134 0)
(0.0202249 -0.0004291 0)
(0.0166456 -0.00030186 0)
(0.0135524 -0.00020431 0)
(0.0108949 -0.000131557 0)
(0.00861914 -7.91709e-05 0)
(0.00666798 -4.32122e-05 0)
(0.00497865 -2.02031e-05 0)
(0.00348142 -7.09557e-06 0)
(0.00209641 -1.15743e-06 0)
(0.00072704 2.33309e-07 0)
(0.200721 -0.0134379 0)
(0.195666 -0.0125632 0)
(0.186134 -0.0115197 0)
(0.17475 -0.0104782 0)
(0.162634 -0.00946749 0)
(0.150268 -0.00849532 0)
(0.137914 -0.00756424 0)
(0.125753 -0.00667756 0)
(0.113932 -0.00583972 0)
(0.102561 -0.0050555 0)
(0.0917268 -0.00432957 0)
(0.0814986 -0.00366579 0)
(0.0719269 -0.00306667 0)
(0.0630469 -0.00253313 0)
(0.0548796 -0.0020645 0)
(0.0474315 -0.00165853 0)
(0.0406948 -0.00131168 0)
(0.034651 -0.00101953 0)
(0.0292726 -0.000777108 0)
(0.0245248 -0.000579147 0)
(0.0203668 -0.000420318 0)
(0.0167531 -0.000295402 0)
(0.0136342 -0.000199423 0)
(0.0109575 -0.00012774 0)
(0.00866736 -7.61153e-05 0)
(0.00670486 -4.07435e-05 0)
(0.00500627 -1.82482e-05 0)
(0.00350104 -5.64543e-06 0)
(0.00210832 -2.41552e-07 0)
(0.000730827 5.60614e-07 0)
(0.000529459 9.67554e-06 0)
(0.00152807 2.82377e-05 0)
(0.00253428 4.78893e-05 0)
(0.0036132 7.06406e-05 0)
(0.00481958 9.86449e-05 0)
(0.00620457 0.000134478 0)
(0.00781019 0.000181072 0)
(0.00967746 0.000241975 0)
(0.0118502 0.000321529 0)
(0.0143686 0.000424648 0)
(0.0172758 0.000556996 0)
(0.0206162 0.000724829 0)
(0.024435 0.000934763 0)
(0.0287862 0.00119387 0)
(0.0337204 0.00150885 0)
(0.0392916 0.0018854 0)
(0.0455622 0.00232814 0)
(0.0525993 0.00283956 0)
(0.0604725 0.00341895 0)
(0.0692849 0.004064 0)
(0.0791279 0.00476527 0)
(0.0900409 0.00550714 0)
(0.102095 0.00626936 0)
(0.115347 0.00702801 0)
(0.129858 0.00775919 0)
(0.145494 0.00843687 0)
(0.161941 0.00902909 0)
(0.178632 0.00949646 0)
(0.194094 0.009714 0)
(0.204087 0.00937517 0)
(0.000530008 9.76478e-06 0)
(0.0015304 2.84858e-05 0)
(0.00253774 4.82173e-05 0)
(0.0036177 7.09393e-05 0)
(0.00482544 9.8762e-05 0)
(0.00621036 0.000134131 0)
(0.00781727 0.000179935 0)
(0.00968643 0.000239528 0)
(0.0118606 0.00031697 0)
(0.0143851 0.000417035 0)
(0.0173028 0.000544977 0)
(0.0206592 0.00070659 0)
(0.0245022 0.000907996 0)
(0.0288847 0.00115549 0)
(0.033861 0.00145502 0)
(0.0394883 0.0018116 0)
(0.0458297 0.00222892 0)
(0.0529517 0.00270841 0)
(0.0609205 0.00324817 0)
(0.0698335 0.00384415 0)
(0.07976 0.00448643 0)
(0.0907342 0.00515726 0)
(0.102803 0.00583473 0)
(0.115977 0.00649144 0)
(0.130201 0.00709531 0)
(0.145248 0.0076115 0)
(0.160682 0.00799222 0)
(0.175787 0.00817183 0)
(0.189328 0.00801645 0)
(0.198865 0.00722038 0)
(0.000530191 9.79739e-06 0)
(0.0015311 2.85581e-05 0)
(0.00253824 4.8243e-05 0)
(0.00361734 7.07832e-05 0)
(0.00482303 9.82069e-05 0)
(0.00620403 0.000132845 0)
(0.00780505 0.000177439 0)
(0.00966779 0.000235199 0)
(0.0118355 0.000309944 0)
(0.014352 0.000406068 0)
(0.0172613 0.000528445 0)
(0.0206091 0.000682369 0)
(0.0244439 0.000873377 0)
(0.0288174 0.00110701 0)
(0.0337833 0.0013884 0)
(0.0393984 0.00172176 0)
(0.0457225 0.00210981 0)
(0.0528169 0.00255304 0)
(0.0607428 0.00304876 0)
(0.0695668 0.00359067 0)
(0.0793375 0.00416799 0)
(0.0900782 0.00476274 0)
(0.101788 0.00535133 0)
(0.114412 0.00590397 0)
(0.127798 0.00638465 0)
(0.141639 0.00675065 0)
(0.155421 0.00694565 0)
(0.16841 0.00688926 0)
(0.179574 0.00646065 0)
(0.187388 0.00539186 0)
(0.00052958 9.77136e-06 0)
(0.00152924 2.84548e-05 0)
(0.0025342 4.79674e-05 0)
(0.00360963 7.01687e-05 0)
(0.00480954 9.69944e-05 0)
(0.0061819 0.000130648 0)
(0.007771 0.000173709 0)
(0.00961899 0.000229198 0)
(0.0117681 0.000300639 0)
(0.0142612 0.000392056 0)
(0.0171419 0.000507887 0)
(0.020455 0.00065289 0)
(0.0242476 0.000831967 0)
(0.0285687 0.0010499 0)
(0.0334692 0.00131099 0)
(0.0390013 0.00161857 0)
(0.0452179 0.00197444 0)
(0.0521706 0.00237815 0)
(0.0599072 0.0028262 0)
(0.0684695 0.00331128 0)
(0.0778814 0.00382147 0)
(0.0881366 0.0043387 0)
(0.0991898 0.004839 0)
(0.11093 0.00529214 0)
(0.123142 0.00566119 0)
(0.135484 0.00590282 0)
(0.147445 0.00596155 0)
(0.158313 0.00577077 0)
(0.167266 0.00524526 0)
(0.173204 0.00421658 0)
(0.000527774 9.68589e-06 0)
(0.00152382 2.81768e-05 0)
(0.00252397 4.73934e-05 0)
(0.00359245 6.91088e-05 0)
(0.00478233 9.51528e-05 0)
(0.00614062 0.00012759 0)
(0.00771074 0.000168818 0)
(0.00953413 0.000221631 0)
(0.0116519 0.000289249 0)
(0.0141053 0.000375309 0)
(0.0169362 0.000483785 0)
(0.0201876 0.000618876 0)
(0.0239033 0.000784827 0)
(0.0281286 0.000985671 0)
(0.0329089 0.00122488 0)
(0.0382895 0.00150491 0)
(0.0443137 0.00182669 0)
(0.0510205 0.00218893 0)
(0.0584412 0.00258742 0)
(0.0665945 0.00301425 0)
(0.0754773 0.00345708 0)
(0.0850524 0.00389819 0)
(0.0952386 0.00431451 0)
(0.105892 0.00467755 0)
(0.116756 0.00495148 0)
(0.127496 0.00509802 0)
(0.137631 0.00507317 0)
(0.146571 0.00483027 0)
(0.153649 0.00431143 0)
(0.158098 0.00344082 0)
(0.000524435 9.54202e-06 0)
(0.00151392 2.77287e-05 0)
(0.00250608 4.65311e-05 0)
(0.00356381 6.76236e-05 0)
(0.00473888 9.27179e-05 0)
(0.00607705 0.000123728 0)
(0.00762041 0.000162859 0)
(0.00940904 0.000212656 0)
(0.0114822 0.000276024 0)
(0.0138792 0.000356201 0)
(0.0166392 0.000456684 0)
(0.0198018 0.000581106 0)
(0.0234071 0.00073306 0)
(0.0274947 0.000915842 0)
(0.0321033 0.00113213 0)
(0.0372696 0.00138357 0)
(0.0430255 0.00167029 0)
(0.0493964 0.00199031 0)
(0.0563965 0.0023389 0)
(0.0640229 0.00270793 0)
(0.0722489 0.00308529 0)
(0.0810091 0.00345409 0)
(0.0901971 0.00379325 0)
(0.0996561 0.00407659 0)
(0.109134 0.00427459 0)
(0.118283 0.00435519 0)
(0.126719 0.00428758 0)
(0.13396 0.00403864 0)
(0.139493 0.00357723 0)
(0.142815 0.00287867 0)
(0.000519276 9.34232e-06 0)
(0.00149875 2.71188e-05 0)
(0.00247928 4.53972e-05 0)
(0.003522 6.57422e-05 0)
(0.00467709 8.97385e-05 0)
(0.00598865 0.000119141 0)
(0.00749706 0.000155952 0)
(0.00924047 0.000202458 0)
(0.0112559 0.00026124 0)
(0.0135797 0.000335138 0)
(0.016248 0.000427171 0)
(0.0192963 0.000540419 0)
(0.0227594 0.00067784 0)
(0.0266708 0.000842034 0)
(0.0310616 0.00103495 0)
(0.0359589 0.00125751 0)
(0.0413829 0.00150914 0)
(0.047345 0.00178735 0)
(0.0538444 0.0020872 0)
(0.0608586 0.00240059 0)
(0.068346 0.00271638 0)
(0.0762132 0.00301847 0)
(0.0843531 0.00328871 0)
(0.0925914 0.00350491 0)
(0.100695 0.00364435 0)
(0.10837 0.00368231 0)
(0.115286 0.00359599 0)
(0.121068 0.00336522 0)
(0.125347 0.00297618 0)
(0.127801 0.00242661 0)
(0.000512068 9.09067e-06 0)
(0.00147767 2.63595e-05 0)
(0.00244255 4.40146e-05 0)
(0.0034657 6.35032e-05 0)
(0.00459533 8.6276e-05 0)
(0.00587358 0.000113923 0)
(0.00733872 0.000148239 0)
(0.00902654 0.00019125 0)
(0.0109713 0.000245213 0)
(0.0132061 0.000312576 0)
(0.0157631 0.000395896 0)
(0.0186733 0.000497722 0)
(0.021966 0.000620422 0)
(0.0256677 0.00076595 0)
(0.0298013 0.00093561 0)
(0.0343854 0.00112974 0)
(0.0394275 0.00134716 0)
(0.0449264 0.00158505 0)
(0.0508713 0.00183868 0)
(0.0572165 0.00209979 0)
(0.0639161 0.00235859 0)