/*--------------------------------*- C++ -*----------------------------------*\
| =========                 |                                                 |
| \\      /  F ield         | OpenFOAM: The Open Source CFD Toolbox           |
|  \\    /   O peration     | Version:  5.x                                   |
|   \\  /    A nd           | Web:      www.OpenFOAM.org                      |
|    \\/     M anipulation  |                                                 |
\*---------------------------------------------------------------------------*/
FoamFile
{
    version     2.0;
    format      ascii;
    class       volVectorField;
    location    "0.6";
    object      U;
}
// * * * * * * * * * * * * * * * * * * * * * * * * * * * * * * * * * * * * * //

dimensions      [0 1 -1 0 0 0 0];

internalField   nonuniform List<vector> 
2790
(
(9.92997 0.0199521 0)
(9.86697 0.0276783 -4.427e-20)
(9.77324 0.0329484 4.53381e-20)
(9.65374 0.0385147 2.32998e-20)
(9.51668 0.0443699 -2.41027e-20)
(9.36442 0.0504535 4.9629e-20)
(9.19629 0.0568906 -2.55596e-20)
(9.01123 0.0638289 0)
(8.80838 0.0713954 -2.76502e-20)
(8.58692 0.0797098 -1.16054e-19)
(8.34583 0.0888942 -1.74425e-21)
(8.08396 0.0990753 6.20261e-20)
(7.79999 0.110385 0)
(7.49255 0.122962 0)
(7.16023 0.136945 -2.95146e-19)
(6.8016 0.152466 3.06362e-19)
(6.41534 0.169637 0)
(6.00026 0.188537 -8.69816e-20)
(5.55554 0.209182 0)
(5.0807 0.231488 0)
(4.57611 0.255248 0)
(4.04299 0.280067 0)
(3.48366 0.305267 0)
(2.90208 0.329744 1.35036e-18)
(2.30412 0.351546 -3.80738e-18)
(1.69818 0.366603 2.54252e-18)
(1.0962 0.364312 0)
(0.52317 0.311482 3.04082e-18)
(0.0213545 0.114839 -2.84959e-18)
(-0.0878924 -0.276914 -7.0398e-18)
(9.98972 0.038499 0)
(9.98259 0.0566687 1.53953e-19)
(9.94742 0.0703447 -1.57156e-19)
(9.885 0.0850735 -2.30058e-20)
(9.80233 0.100894 4.72134e-20)
(9.70195 0.117623 0)
(9.58348 0.135507 1.00743e-19)
(9.44597 0.154872 -5.13053e-20)
(9.28868 0.176009 -1.88967e-19)
(9.11084 0.199197 4.44945e-19)
(8.91152 0.224713 -2.2956e-19)
(8.68958 0.252839 -6.00256e-20)
(8.44378 0.283857 -3.81324e-19)
(8.17272 0.318045 6.52535e-19)
(7.87498 0.355662 0)
(7.54906 0.396913 0)
(7.19352 0.441899 -1.23086e-18)
(6.807 0.490578 2.65581e-18)
(6.38847 0.542703 -1.35052e-18)
(5.9371 0.597678 -1.45868e-18)
(5.4528 0.654503 1.52575e-18)
(4.93642 0.711636 0)
(4.38971 0.766743 0)
(3.81616 0.816502 -2.35843e-19)
(3.22131 0.855993 7.60174e-19)
(2.61338 0.877372 3.84983e-18)
(2.00353 0.866745 -5.31903e-18)
(1.40618 0.796743 1.03125e-17)
(0.822742 0.618418 -1.16348e-17)
(0.407124 0.251661 1.38548e-17)
(9.98677 0.03889 0)
(9.97682 0.0657707 -4.39567e-20)
(9.94374 0.0889787 2.24017e-19)
(9.88588 0.11349 -1.83401e-19)
(9.80901 0.139757 4.67402e-20)
(9.71582 0.167711 1.94026e-19)
(9.60621 0.197685 -1.98097e-19)
(9.4794 0.230148 -1.53799e-19)
(9.33479 0.265557 0)
(9.17175 0.304371 4.41907e-19)
(8.98954 0.347052 -4.51994e-19)
(8.78722 0.394073 1.18291e-19)
(8.5637 0.445917 -2.45851e-19)
(8.31779 0.503074 9.05973e-19)
(8.04818 0.566009 2.857e-19)
(7.75348 0.635123 -2.24061e-18)
(7.43225 0.71066 1.45614e-18)
(7.08299 0.792625 0)
(6.70444 0.880733 2.61576e-18)
(6.29532 0.974166 -5.46479e-18)
(5.85466 1.0714 3.22109e-18)
(5.3822 1.17005 3.80365e-19)
(4.87811 1.26641 6.5237e-18)
(4.34356 1.35514 -6.84807e-18)
(3.78093 1.42855 -4.60641e-19)
(3.19329 1.4753 4.93075e-19)
(2.58309 1.47851 5.30186e-19)
(1.94977 1.41322 8.05136e-18)
(1.26253 1.2531 -1.00587e-17)
(0.65205 0.96574 -2.2005e-18)
(9.98499 0.0430992 -1.72468e-19)
(9.97275 0.0800394 0)
(9.93945 0.113853 8.90542e-20)
(9.88269 0.148286 0)
(9.80729 0.184453 2.81108e-19)
(9.71594 0.222691 -1.91393e-19)
(9.6088 0.263496 0)
(9.48525 0.307486 1.01816e-19)
(9.34481 0.355292 -4.22433e-19)
(9.18704 0.407551 -5.57769e-21)
(9.01144 0.464898 2.22001e-19)
(8.81734 0.527984 0)
(8.60396 0.597487 -1.20116e-19)
(8.37042 0.674102 -1.01377e-18)
(8.11579 0.758508 2.09258e-18)
(7.83904 0.851326 -3.28397e-18)
(7.53914 0.953032 -6.09309e-19)
(7.2148 1.06381 2.65855e-18)
(6.86478 1.18348 3.1053e-19)
(6.48789 1.31133 -2.31097e-18)
(6.08265 1.44571 -3.15482e-18)
(5.64786 1.58392 5.36634e-18)
(5.18217 1.72165 7.56405e-19)
(4.68413 1.85253 0)
(4.1523 1.96771 0)
(3.58417 2.05494 0)
(2.9745 2.09814 1.55256e-17)
(2.31505 2.07766 1.00876e-19)
(1.5664 1.98161 7.98565e-20)
(0.834941 1.79636 -1.96284e-17)
(9.98402 0.0487533 1.72372e-19)
(9.97046 0.0941113 0)
(9.93695 0.137095 8.34665e-23)
(9.88112 0.180515 -1.81447e-19)
(9.80716 0.225889 -9.30935e-20)
(9.71761 0.273903 -1.905e-19)
(9.61274 0.325183 -3.93789e-19)
(9.49199 0.380442 1.00807e-18)
(9.35493 0.440419 4.72303e-21)
(9.20123 0.505858 -4.2625e-19)
(9.0305 0.577506 2.21934e-19)
(8.84224 0.656127 0)
(8.63587 0.74253 1.19576e-18)
(8.41072 0.837543 -9.78104e-19)
(8.16615 0.941979 -2.56594e-19)
(7.90143 1.05662 2.14687e-18)
(7.61587 1.18215 -1.91926e-18)
(7.30854 1.31897 -2.89515e-19)
(6.9783 1.46706 2.96833e-19)
(6.62414 1.6259 5.37367e-18)
(6.24454 1.79408 -1.04969e-17)
(5.83767 1.96904 1.02972e-17)
(5.40106 2.1466 -6.43467e-18)
(4.9313 2.32049 1.21435e-17)
(4.42397 2.48208 1.33816e-19)
(3.87272 2.6201 -1.33675e-17)
(3.26806 2.72097 0)
(2.59931 2.76942 9.60217e-19)
(1.83059 2.7574 0)
(1.01285 2.6877 1.87301e-17)
(9.98345 0.055112 -1.28583e-19)
(9.96932 0.108267 -4.35498e-20)
(9.93594 0.159995 -3.5424e-19)
(9.88121 0.212383 1.80525e-19)
(9.80899 0.267002 1.84597e-19)
(9.72163 0.324739 1.89644e-19)
(9.61942 0.386336 0)
(9.50189 0.452603 -6.01473e-19)
(9.36862 0.52438 2.03795e-19)
(9.21933 0.602512 0)
(9.05373 0.687841 0)
(8.8714 0.781238 0)
(8.67187 0.883637 -1.88039e-18)
(8.45465 0.995984 2.11005e-19)
(8.21918 1.11921 1.98573e-18)
(7.96486 1.25422 -5.16529e-19)
(7.69112 1.40188 5.35753e-19)
(7.39735 1.56281 0)
(7.08265 1.7372 -5.83403e-19)
(6.74593 1.9248 4.25987e-18)
(6.38575 2.12463 -1.00488e-17)
(5.99996 2.33465 1.11205e-17)
(5.58536 2.55134 -5.41782e-18)
(5.13736 2.76927 1.14485e-17)
(4.64972 2.98085 -1.25906e-17)
(4.11414 3.17636 1.17877e-17)
(3.51943 3.34438 8.98595e-20)
(2.85444 3.47172 6.56732e-20)
(2.09632 3.54468 -1.49761e-17)
(1.20699 3.59199 0)
(9.98314 0.0617908 2.14061e-19)
(9.96895 0.122435 -1.30051e-19)
(9.93603 0.182475 8.81503e-20)
(9.88255 0.243515 3.59679e-19)
(9.81238 0.30706 -7.35601e-19)
(9.72761 0.374149 3.74757e-19)
(9.62852 0.445655 -5.79149e-19)
(9.51472 0.522497 5.90807e-19)
(9.38581 0.605625 9.08179e-22)
(9.24155 0.695969 6.32467e-19)
(9.08171 0.794444 -8.55465e-19)
(8.90598 0.902016 -1.78687e-18)
(8.71392 1.01973 1.81849e-18)
(8.50518 1.14865 1.66791e-18)
(8.27917 1.28981 -1.93963e-18)
(8.03535 1.44427 -2.03156e-18)
(7.77322 1.61296 1.02967e-18)
(7.49227 1.79672 -4.35967e-18)
(7.19174 1.99607 -6.65674e-20)
(6.87042 2.21109 4.60609e-18)
(6.52678 2.44134 0)
(6.15856 2.68554 0)
(5.76223 2.94116 0)
(5.33256 3.20398 1.07906e-17)
(4.8624 3.46774 -9.7218e-18)
(4.34274 3.72418 1.46093e-20)
(3.76211 3.96313 0)
(3.10823 4.17205 0)
(2.38121 4.3239 8.3891e-19)
(1.42469 4.48431 -2.99251e-17)
(9.98299 0.06856 8.51506e-20)
(9.96905 0.13647 -8.63738e-20)
(9.93696 0.204432 0)
(9.88498 0.273762 -3.58099e-19)
(9.8171 0.345883 3.63955e-19)
(9.7353 0.421975 0)
(9.63979 0.50302 1.91179e-19)
(9.53021 0.590038 3.94942e-19)
(9.40619 0.684075 -5.97558e-19)
(9.2676 0.786128 -6.22412e-19)
(9.11427 0.897174 -8.62756e-19)
(8.9459 1.01828 1.73263e-18)
(8.76209 1.1506 -4.46937e-19)
(8.56254 1.29532 -4.60261e-19)
(8.34673 1.45361 1.44565e-18)
(8.11417 1.6266 -1.94648e-18)
(7.86449 1.8154 5.09645e-18)
(7.59703 2.02104 -8.36414e-18)
(7.31088 2.24437 4.28447e-18)
(7.00484 2.48593 0)
(6.67724 2.74586 0)
(6.32569 3.02377 0)
(5.9466 3.31831 9.83163e-18)
(5.53463 3.62666 9.03288e-20)
(5.08211 3.94383 -5.8331e-19)
(4.57974 4.26271 -1.07783e-17)
(4.01668 4.57354 -1.12683e-17)
(3.37713 4.86405 -1.1745e-17)
(2.69367 5.0883 2.31788e-17)
(1.66838 5.35571 2.67224e-17)
(9.98287 0.0752833 0)
(9.96951 0.150226 1.71744e-19)
(9.93857 0.225758 1.73735e-19)
(9.88835 0.303007 1.77163e-19)
(9.82298 0.383325 3.63024e-19)
(9.74447 0.468024 -7.39548e-19)
(9.653 0.558201 3.76606e-19)
(9.5481 0.654948 1.93819e-19)
(9.42951 0.759384 -7.96303e-19)
(9.29726 0.872565 8.08227e-19)
(9.15115 0.995553 4.15229e-19)
(8.99085 1.12952 -1.29614e-18)
(8.81605 1.27571 3.95857e-18)
(8.62647 1.43542 -3.16084e-18)
(8.42176 1.60994 9.03931e-19)
(8.20152 1.80051 2.37722e-18)
(7.96537 2.00845 -4.93765e-19)
(7.71255 2.23511 -4.06325e-18)
(7.44195 2.48163 3.60848e-18)
(7.15232 2.74901 0)
(6.84187 3.03806 0)
(6.50809 3.34932 9.03309e-18)
(6.1473 3.68266 -1.84585e-17)
(5.75445 4.0369 1.00301e-17)
(5.32156 4.4083 0)
(4.83893 4.79053 6.34804e-19)
(4.29666 5.17367 -6.34574e-19)
(3.67202 5.54583 2.06789e-17)
(3.03739 5.83827 -4.34195e-17)
(1.93774 6.20325 2.43596e-17)
(9.98288 0.0818632 -8.44164e-20)
(9.97024 0.163589 2.56377e-19)
(9.94059 0.24634 -5.20801e-19)
(9.89245 0.331117 -1.76656e-19)
(9.82994 0.419231 0)
(9.75505 0.512108 0)
(9.66797 0.610959 -3.73001e-19)
(9.56817 0.716939 0)
(9.45553 0.831203 0)
(9.33017 0.954883 3.98671e-19)
(9.19184 1.08914 -4.11239e-19)
(9.04027 1.23524 -3.4907e-21)
(8.87529 1.39449 0)
(8.69662 1.5683 0)
(8.50405 1.75806 -4.54626e-19)
(8.29727 1.96517 4.60557e-19)
(8.07567 2.19118 -3.82289e-18)
(7.83868 2.43779 3.86991e-18)
(7.58538 2.70658 5.02058e-19)
(7.31415 2.99896 8.19292e-18)
(7.02304 3.31641 -8.29298e-18)
(6.70956 3.66049 8.54056e-18)
(6.36995 4.03236 5.33943e-20)
(5.99923 4.43238 -1.88193e-17)
(5.58948 4.8584 -5.71803e-19)
(5.13035 5.3052 9.21917e-18)
(4.61226 5.76226 1.99668e-17)
(4.00144 6.21853 -1.81991e-17)
(3.41236 6.58064 2.89001e-19)
(2.23123 7.03139 -2.20481e-17)
(9.98303 0.0882251 0)
(9.97107 0.176492 0)
(9.94293 0.266069 0)
(9.89725 0.35794 -3.50737e-19)
(9.83791 0.453435 2.68939e-22)
(9.7669 0.554053 0)
(9.68445 0.661094 -3.71696e-19)
(9.59011 0.775766 7.52645e-19)
(9.48388 0.899254 0)
(9.36585 1.03277 1.18828e-18)
(9.23585 1.17757 -2.0043e-18)
(9.09373 1.33498 -4.13549e-19)
(8.93938 1.50641 1.69349e-18)
(8.77258 1.69331 -1.28467e-18)
(8.59319 1.89723 3.10298e-18)
(8.40091 2.11977 -7.64801e-18)
(8.19506 2.36263 -3.88467e-20)
(7.9753 2.62785 3.73006e-18)
(7.74105 2.91757 -3.83953e-18)
(7.49059 3.23374 1.21714e-17)
(7.22174 3.57847 -8.374e-18)
(6.93203 3.95432 4.95801e-19)
(6.61786 4.36388 0)
(6.274 4.80903 5.23143e-19)
(5.89268 5.28968 1.8498e-20)
(5.46262 5.80276 0)
(4.97345 6.33777 -1.0649e-18)
(4.37547 6.88589 -1.77311e-17)
(3.81897 7.33291 1.71002e-17)
(2.54765 7.86562 1.93734e-17)
(9.98312 0.0943318 8.35784e-20)
(9.97199 0.188852 2.52608e-19)
(9.94574 0.284823 -3.41532e-19)
(9.90274 0.383352 0)
(9.84666 0.48581 3.54171e-19)
(9.77974 0.593717 3.5844e-19)
(9.70222 0.708441 0)
(9.61368 0.831228 7.48761e-19)
(9.51424 0.963294 -7.57775e-19)
(9.40399 1.10593 1.55837e-18)
(9.28289 1.26047 -2.76869e-18)
(9.15089 1.4283 3.23001e-18)
(9.00787 1.6109 -1.22982e-18)
(8.85373 1.80983 1.26585e-18)
(8.68842 2.02673 -8.4798e-19)
(8.51169 2.2634 0)
(8.32306 2.52176 0)
(8.12224 2.80403 3.17581e-18)
(7.90869 3.11282 -3.6483e-18)
(7.68133 3.45089 6.97392e-18)
(7.43803 3.82109 -7.01122e-18)
(7.1762 4.22682 -4.79457e-19)
(6.89267 4.67217 -4.68587e-19)
(6.58217 5.16082 4.69161e-19)
(6.23698 5.69538 -7.12834e-18)
(5.84454 6.27639 8.15195e-18)
(5.39281 6.89628 9.53436e-19)
(4.81202 7.55226 0)
(4.27221 8.1231 2.51566e-19)
(2.90019 8.78216 -1.99941e-19)
(9.98309 0.100155 -2.49013e-19)
(9.97316 0.200566 -9.23743e-19)
(9.94895 0.302502 5.10925e-19)
(9.90865 0.407278 -3.45376e-19)
(9.85603 0.516266 3.49743e-19)
(9.79344 0.630975 -1.42551e-18)
(9.72109 0.752838 7.222e-19)
(9.6387 0.883121 0)
(9.54645 1.02307 0)
(9.44442 1.17406 1.15299e-18)
(9.3327 1.33747 1.27714e-20)
(9.21133 1.51476 -1.57608e-18)
(9.08018 1.70748 -4.58606e-21)
(8.93938 1.91726 -1.23836e-18)
(8.78899 2.14583 1.23885e-18)
(8.62887 2.39515 3.39428e-18)
(8.45881 2.66734 -3.41539e-18)
(8.2786 2.96484 4.34895e-18)
(8.08777 3.29053 -3.49698e-18)
(7.88577 3.6479 0)
(7.67116 4.04072 0)
(7.44173 4.47328 -7.11143e-18)
(7.19481 4.95097 7.57007e-18)
(6.92563 5.4796 -7.9059e-18)
(6.62698 6.06522 1.39541e-17)
(6.28553 6.71411 -7.38421e-18)
(5.88791 7.42654 -4.35511e-19)
(5.34458 8.21387 0)
(4.82633 8.97367 0)
(3.33528 9.89061 -1.48311e-19)
(9.98305 0.105653 -8.1083e-20)
(9.97453 0.211558 5.84992e-19)
(9.95234 0.319062 -1.68928e-19)
(9.91482 0.429645 0)
(9.86596 0.544695 -3.46094e-19)
(9.8079 0.6657 7.04716e-19)
(9.74096 0.794121 0)
(9.66508 0.93124 0)
(9.58035 1.07836 1.10961e-18)
(9.48688 1.2369 7.62441e-19)
(9.38493 1.4083 -1.90107e-18)
(9.27449 1.59405 0)
(9.15567 1.79577 1.18446e-18)
(9.02887 2.0151 -1.99327e-18)
(8.89415 2.25387 3.24839e-18)
(8.75156 2.51414 -2.8594e-18)
(8.60119 2.79822 0)
(8.44309 3.10873 -3.76586e-18)
(8.27709 3.44884 6.71234e-18)
(8.10272 3.82233 -3.77896e-18)
(7.91972 4.23381 0)
(7.72716 4.68856 0)
(7.52307 5.19303 0)
(7.30409 5.75517 4.15484e-19)
(7.06487 6.38486 0)
(6.79377 7.0957 0)
(6.47997 7.90138 5.5504e-18)
(6.02407 8.83874 -1.11294e-17)
(5.59139 9.86549 6.36267e-19)
(3.96294 11.3211 1.49892e-17)
(9.98309 0.110785 2.47744e-19)
(9.97596 0.221791 -8.26804e-20)
(9.95588 0.334467 1.67735e-19)
(9.92129 0.450386 3.39766e-19)
(9.87628 0.570985 3.44305e-19)
(9.82291 0.697752 -3.4994e-19)
(9.76167 0.832115 0)
(9.69256 0.975386 -7.19878e-19)
(9.61553 1.12893 1.45408e-18)
(9.5309 1.29421 -3.65706e-19)
(9.439 1.47268 -1.12732e-18)
(9.3398 1.66585 1.89251e-18)
(9.23381 1.87533 1.54391e-18)
(9.12152 2.10281 -3.11456e-18)
(9.00305 2.35017 1.5693e-18)
(8.87876 2.61955 -7.93785e-19)
(8.74904 2.91336 -3.20204e-18)
(8.61427 3.23437 6.41976e-18)
(8.47453 3.58588 -3.61016e-18)
(8.32989 3.97178 1.05609e-20)
(8.18143 4.3971 3.17255e-18)
(8.02949 4.86774 3.09442e-18)
(7.8737 5.39102 -6.20815e-18)
(7.71332 5.97642 0)
(7.54689 6.63682 -5.65401e-18)
(7.3692 7.39223 2.69095e-19)
(7.18152 8.27069 5.36513e-18)
(6.90132 9.33881 -4.2952e-18)
(6.73049 10.6616 6.478e-19)
(4.96334 13.3408 3.32627e-18)
(-0.00367833 0.129916 -3.50744e-19)
(-0.593767 0.395665 1.41556e-19)
(-1.40322 0.468728 -3.03772e-20)
(-2.3325 0.492599 -7.77485e-20)
(-3.34668 0.496083 2.53165e-20)
(-4.41234 0.487766 5.78948e-20)
(-5.50112 0.471282 -9.3532e-20)
(-6.58962 0.448562 -2.22029e-20)
(-7.65891 0.42081 -1.39518e-19)
(-8.69371 0.388894 1.3072e-19)
(-9.68119 0.353439 0)
(-10.61 0.314861 -5.25037e-20)
(-11.4698 0.273434 5.906e-20)
(-12.2507 0.229305 -1.36558e-19)
(-12.942 0.182543 2.77361e-19)
(-13.5326 0.133202 -1.41278e-19)
(-14.011 0.0813547 0)
(-14.3655 0.0269747 -3.9546e-20)
(-14.5835 -0.0301086 3.98205e-20)
(-14.651 -0.0912397 1.16287e-19)
(-14.5539 -0.160777 -1.14358e-19)
(-14.2777 -0.237759 6.88699e-20)
(-13.8032 -0.324982 -4.20958e-21)
(-13.1093 -0.426842 -4.22839e-20)
(-12.1659 -0.550323 1.26367e-20)
(-10.9205 -0.707046 0)
(-9.27481 -0.922223 0)
(-7.08103 -1.25546 9.20526e-22)
(-4.15826 -1.79522 6.45159e-21)
(0.848645 -2.51598 -9.14539e-21)
(-0.276668 0.566341 0)
(-0.884403 0.88952 -5.01341e-19)
(-1.69566 1.03831 4.23851e-19)
(-2.60829 1.12094 0)
(-3.59834 1.16435 5.48554e-22)
(-4.63457 1.18059 -3.27607e-19)
(-5.69061 1.176 3.33998e-20)
(-6.74465 1.1545 2.87538e-19)
(-7.77902 1.11874 0)
(-8.77929 1.07074 -7.39713e-20)
(-9.7332 1.01185 8.87511e-20)
(-10.6298 0.942946 5.02911e-20)
(-11.4593 0.864532 5.50804e-19)
(-12.2115 0.776728 -4.75189e-19)
(-12.8759 0.679439 0)
(-13.4413 0.572597 0)
(-13.896 0.456181 0)
(-14.2286 0.330371 3.93808e-20)
(-14.4272 0.195154 -2.00174e-19)
(-14.4804 0.049724 1.20646e-19)
(-14.3731 -0.107744 -1.10267e-19)
(-14.1008 -0.274992 -2.35681e-20)
(-13.6502 -0.4535 1.35643e-19)
(-13.0049 -0.648999 0)
(-12.1425 -0.871062 4.60892e-20)
(-11.0277 -1.13496 1.25443e-20)
(-9.5998 -1.4744 1.26181e-20)
(-7.76727 -1.96769 -1.09393e-20)
(-5.43579 -2.70377 -6.27497e-21)
(-2.86716 -3.48085 1.81738e-20)
(-0.300699 1.17448 3.66213e-20)
(-0.916366 1.54898 7.42144e-21)
(-1.72745 1.74918 -1.69875e-20)
(-2.6073 1.86864 0)
(-3.54683 1.93134 -1.02262e-21)
(-4.52135 1.95123 0)
(-5.5097 1.93696 0)
(-6.49386 1.89436 -8.41836e-19)
(-7.45883 1.82757 7.96087e-19)
(-8.39234 1.73964 -5.90672e-19)
(-9.28384 1.6326 5.47548e-19)
(-10.1239 1.50778 6.82044e-19)
(-10.9037 1.36592 -1.09717e-18)
(-11.6136 1.20724 1.31514e-19)
(-12.2432 1.03173 0)
(-12.7818 0.839644 0)
(-13.2179 0.631614 6.47112e-19)
(-13.5399 0.408744 -6.43364e-19)
(-13.7362 0.17258 -3.34131e-19)
(-13.7944 -0.0748963 3.35999e-19)
(-13.7036 -0.331495 8.09595e-20)
(-13.4629 -0.603073 0)
(-13.0602 -0.891405 0)
(-12.4859 -1.20321 0)
(-11.7264 -1.54993 -4.52411e-20)
(-10.762 -1.94829 0)
(-9.56483 -2.4269 -1.91254e-20)
(-8.09416 -3.03607 1.54429e-20)
(-6.33302 -3.8159 0)
(-4.7029 -4.63743 -9.39945e-21)
(-0.211185 1.84245 -3.37147e-20)
(-0.792492 2.24022 -6.20777e-19)
(-1.59646 2.45841 8.41772e-19)
(-2.43521 2.5912 -3.33106e-19)
(-3.31551 2.65841 7.28333e-20)
(-4.21902 2.67376 0)
(-5.13073 2.64712 0)
(-6.03716 2.58549 0)
(-6.92653 2.49385 -1.14357e-18)
(-7.78925 2.3759 1.25693e-18)
(-8.61669 2.23413 0)
(-9.40071 2.07018 2.09439e-19)
(-10.1327 1.88471 -1.29246e-19)
(-10.8027 1.67761 -1.323e-19)
(-11.4003 1.44861 1.22474e-18)
(-11.9143 1.19748 -1.36984e-18)
(-12.3327 0.924284 8.49132e-19)
(-12.6434 0.629455 -1.55466e-19)
(-12.8346 0.314009 -1.06016e-18)
(-12.8953 -0.0205685 5.30127e-19)
(-12.8148 -0.373808 -6.00025e-19)
(-12.5968 -0.740679 0)
(-12.2355 -1.12476 1.43436e-19)
(-11.7267 -1.53446 0)
(-11.0645 -1.98366 1.02873e-19)
(-10.242 -2.49125 -3.12916e-20)
(-9.25228 -3.08111 3.10515e-20)
(-8.08533 -3.77904 -9.72285e-21)
(-6.75953 -4.58979 7.44479e-21)
(-5.64577 -5.39226 2.62966e-22)
(-0.056395 2.53608 1.52744e-18)
(-0.570966 2.93198 -6.16335e-19)
(-1.35674 3.14538 0)
(-2.14444 3.27508 -1.39871e-20)
(-2.95998 3.33666 -6.3606e-19)
(-3.78905 3.34239 6.89258e-19)
(-4.62207 3.30194 0)
(-5.44963 3.22201 -1.98898e-18)
(-6.26302 3.10733 2.05101e-18)
(-7.05519 2.96153 -3.33561e-19)
(-7.81912 2.78686 1.92264e-18)
(-8.54719 2.5843 -1.67212e-18)
(-9.2304 2.35364 1.34154e-18)
(-9.85871 2.09418 -1.97724e-18)
(-10.4213 1.80538 8.64376e-19)
(-10.9064 1.48703 1.54038e-18)
(-11.3017 1.13967 -1.18798e-18)
(-11.5948 0.765021 1.82406e-19)
(-11.7741 0.366329 7.6403e-19)
(-11.829 -0.0514934 -5.8565e-19)
(-11.7524 -0.483083 1.79276e-19)
(-11.5519 -0.928272 -3.21592e-19)
(-11.2254 -1.38869 -1.15867e-19)
(-10.7749 -1.87268 2.77118e-19)
(-10.2015 -2.39482 -2.14716e-19)
(-9.50777 -2.9738 0)
(-8.70042 -3.62772 0)
(-7.78692 -4.36503 1.13542e-20)
(-6.79813 -5.16718 -2.80389e-21)
(-6.01643 -5.90301 -2.43261e-21)
(0.14088 3.22604 0)
(-0.283598 3.60618 2.90051e-21)
(-1.04093 3.80245 -1.95831e-19)
(-1.76751 3.91853 -3.15217e-19)
(-2.51308 3.96731 1.37057e-18)
(-3.2647 3.9597 -9.91998e-19)
(-4.01716 3.90449 0)
(-4.76443 3.80736 1.29488e-19)
(-5.50068 3.67246 -3.0223e-19)
(-6.22091 3.50306 1.74201e-19)
(-6.91937 3.30075 -2.05435e-19)
(-7.58864 3.06551 2.08949e-18)
(-8.21972 2.79639 -2.33131e-18)
(-8.80302 2.49241 1.35448e-20)
(-9.32747 2.1527 3.25058e-19)
(-9.78092 1.77683 -3.64635e-19)
(-10.1506 1.36534 1.17947e-18)
(-10.4238 0.9202 -2.37985e-18)
(-10.5885 0.445639 4.0073e-19)
(-10.6342 -0.051408 6.2075e-19)
(-10.5575 -0.562588 -8.03278e-19)
(-10.3698 -1.08228 0)
(-10.0732 -1.61145 0)
(-9.67497 -2.15862 0)
(-9.18189 -2.73865 1.27983e-19)
(-8.60312 -3.36899 8.72716e-20)
(-7.95317 -4.06207 -7.7806e-20)
(-7.24913 -4.8139 0)
(-6.52294 -5.58951 -1.53671e-20)
(-5.97542 -6.25021 -4.06133e-21)
(0.368427 3.89025 -2.50313e-19)
(0.0512321 4.2462 -1.13324e-19)
(-0.670656 4.41878 2.94625e-19)
(-1.32651 4.51466 -8.305e-19)
(-1.99644 4.54608 7.55285e-19)
(-2.66642 4.52285 -1.50693e-18)
(-3.33505 4.45258 1.51794e-18)
(-3.99933 4.33972 2.65601e-18)
(-4.65603 4.18752 -2.60869e-18)
(-5.30173 3.99828 0)
(-5.9315 3.77234 0)
(-6.53849 3.5084 0)
(-7.11433 3.20475 -1.4596e-20)
(-7.64964 2.85982 1.45123e-20)
(-8.13328 2.47209 -1.48595e-18)
(-8.55287 2.04082 1.8681e-18)
(-8.89525 1.56669 0)
(-9.14697 1.05267 4.44764e-19)
(-9.29519 0.505148 -4.63677e-19)
(-9.32914 -0.0653049 2.42518e-19)
(-9.25038 -0.646248 8.79193e-19)
(-9.07321 -1.22938 -2.01388e-19)
(-8.80363 -1.81403 1.54745e-19)
(-8.45364 -2.40885 -4.79433e-19)
(-8.03419 -3.02916 7.42103e-21)
(-7.55809 -3.69112 2.02544e-19)
(-7.04339 -4.40245 0)
(-6.51201 -5.15066 5.22734e-20)
(-5.99178 -5.89075 0)
(-5.62219 -6.48251 -1.26978e-20)
(0.616258 4.51328 0)
(0.419155 4.8392 -9.51396e-19)
(-0.262406 4.9833 9.24103e-19)
(-0.837525 5.05443 0)
(-1.42514 5.06596 1.46404e-18)
(-2.00784 5.0264 3.6012e-19)
(-2.58813 4.94183 -2.08829e-18)
(-3.16565 4.81542 -2.98e-19)
(-3.73939 4.64914 -3.28891e-20)
(-4.30711 4.44382 0)
(-4.8645 4.19824 2.17968e-18)
(-5.40562 3.91006 -4.88605e-18)
(-5.92306 3.57678 2.40347e-18)
(-6.40757 3.1959 -2.196e-18)
(-6.84822 2.76525 1.09023e-18)
(-7.23269 2.2837 1.73077e-18)
(-7.5475 1.75197 -2.2164e-18)
(-7.77826 1.17374 -4.72009e-19)
(-7.91025 0.557573 0)
(-7.93156 -0.0818909 0)
(-7.84973 -0.727359 9.33716e-19)
(-7.68175 -1.36588 -1.11573e-18)
(-7.4374 -1.99508 -1.77492e-19)
(-7.13271 -2.62447 5.14143e-19)
(-6.78137 -3.27058 -1.35881e-19)
(-6.39719 -3.94881 -1.08039e-19)
(-5.99857 -4.66312 -7.13967e-20)
(-5.6095 -5.39524 1.51887e-20)
(-5.25084 -6.09601 0)
(-5.02603 -6.62895 1.88975e-20)
(0.876183 5.08986 -1.0089e-18)
(0.807758 5.37579 9.33091e-19)
(0.169199 5.48522 -4.49849e-20)
(-0.313277 5.52811 0)
(-0.810621 5.51888 1.77557e-18)
(-1.29919 5.46381 -1.60732e-18)
(-1.78585 5.36697 2.80719e-19)
(-2.27228 5.23 3.15526e-18)
(-2.75913 5.0533 -3.11665e-18)
(-3.24509 4.83596 -2.10949e-18)
(-3.72658 4.57522 2.07446e-18)
(-4.19841 4.26775 -2.36431e-18)
(-4.65405 3.91015 3.34957e-18)
(-5.08499 3.49886 -2.85943e-18)
(-5.48082 3.03082 4.99658e-18)
(-5.82951 2.50429 1.14859e-19)
(-6.11743 1.91977 1.08316e-18)
(-6.32866 1.28144 -3.69572e-18)
(-6.44541 0.600203 2.8132e-18)
(-6.45375 -0.104089 -1.14683e-18)
(-6.36915 -0.808117 5.35958e-19)
(-6.21055 -1.49346 -4.74481e-19)
(-5.99128 -2.1561 8.38547e-19)
(-5.73055 -2.80767 -1.29427e-20)
(-5.44308 -3.4671 1.5543e-19)
(-5.14175 -4.14971 0)
(-4.84292 -4.85634 0)
(-4.57144 -5.56431 -1.31298e-19)
(-4.33798 -6.22411 0)
(-4.23799 -6.7076 0)
(1.13544 5.61756 -3.01741e-18)
(1.19939 5.84556 1.53494e-18)
(0.60908 5.91165 0)
(0.235613 5.92491 3.42466e-18)
(-0.162536 5.89586 -5.43883e-18)
(-0.549421 5.8278 1.9051e-18)
(-0.937038 5.722 0)
(-1.32807 5.5784 3.33294e-18)
(-1.72427 5.39562 -3.01932e-18)
(-2.12483 5.17076 0)
(-2.52691 4.8999 3.14235e-19)
(-2.92603 4.57854 0)
(-3.31626 4.20228 -3.77408e-19)
(-3.69025 3.7668 -4.31446e-19)
(-4.03871 3.26789 -1.40259e-20)
(-4.35045 2.70271 0)
(-4.61209 2.07118 1.50491e-20)
(-4.80574 1.37739 1.58051e-20)
(-4.90867 0.634262 -6.26979e-19)
(-4.90395 -0.131514 -1.29195e-18)
(-4.81854 -0.888562 1.77774e-18)
(-4.67236 -1.61194 3.41403e-20)
(-4.48047 -2.29705 5.17231e-19)
(-4.26409 -2.95944 2.63727e-20)
(-4.03744 -3.62177 -4.7175e-19)
(-3.81135 -4.30007 1.71672e-19)
(-3.5985 -4.99241 1.14569e-19)
(-3.42475 -5.67208 1.36217e-19)
(-3.28569 -6.28978 6.77325e-21)
(-3.29689 -6.73072 2.30062e-20)
(1.37785 6.08321 -2.38551e-18)
(1.574 6.22619 4.9284e-18)
(1.04323 6.24531 -6.08115e-18)
(0.801053 6.23308 5.20826e-18)
(0.510153 6.18699 -4.4579e-18)
(0.232606 6.11064 2.56923e-18)
(-0.0510843 6.00075 0)
(-0.343237 5.85551 -1.38784e-20)
(-0.645788 5.67166 2.27333e-18)
(-0.957966 5.4443 6.42891e-19)
(-1.27729 5.16851 -2.88106e-18)
(-1.59989 4.83889 0)
(-1.92059 4.45002 3.98955e-18)
(-2.233 3.99682 -5.54191e-18)
(-2.52948 3.47401 2.48641e-18)
(-2.80068 2.87701 0)
(-3.03466 2.20443 -6.06657e-19)
(-3.21171 1.46007 -3.34963e-18)
(-3.30092 0.658524 2.86841e-18)
(-3.28198 -0.164043 -7.49962e-19)
(-3.20192 -0.967012 6.67102e-19)
(-3.07659 -1.71854 -1.70658e-18)
(-2.91876 -2.4156 1.54284e-18)
(-2.74972 -3.0791 -8.98507e-19)
(-2.58218 -3.73638 -3.68008e-19)
(-2.42483 -4.40487 2.96176e-19)
(-2.28594 -5.07988 2.256e-19)
(-2.19352 -5.73079 0)
(-2.12376 -6.30599 0)
(-2.23241 -6.70812 -3.04055e-20)
(1.57485 6.44439 -2.62922e-18)
(1.91002 6.48794 9.6785e-20)
(1.46498 6.47786 1.98096e-18)
(1.37841 6.43837 -1.7011e-18)
(1.19791 6.38335 1.65675e-19)
(1.03752 6.30623 0)
(0.861398 6.19949 -3.62849e-18)
(0.67006 6.0586 -6.51125e-19)
(0.46271 5.87915 4.37186e-18)
(0.240757 5.65444 -3.27895e-19)
(0.00666643 5.37859 -3.80805e-19)
(-0.235853 5.04566 0)
(-0.48231 4.64963 -4.63298e-19)
(-0.727326 4.18458 2.67635e-18)
(-0.964872 3.64441 -5.14528e-18)
(-1.18834 3.02307 2.43641e-18)
(-1.38907 2.31766 2.11766e-18)
(-1.54578 1.53155 -2.97991e-18)
(-1.61315 0.678424 1.65987e-18)
(-1.57662 -0.197261 -1.69714e-18)
(-1.51819 -1.03767 2.27599e-20)
(-1.42964 -1.80751 0)
(-1.31832 -2.50783 0)
(-1.20309 -3.16547 4.75455e-19)
(-1.0948 -3.81284 -6.68122e-21)
(-1.0006 -4.46892 6.31242e-21)
(-0.925325 -5.12607 -2.38839e-19)
(-0.898977 -5.75025 -1.70624e-19)
(-0.881391 -6.28461 9.14374e-20)
(-1.06631 -6.6485 8.21942e-21)
(1.71103 6.64648 3.49525e-18)
(2.21292 6.61853 -3.42684e-18)
(1.8779 6.58975 2.23467e-18)
(1.95011 6.52814 -2.34512e-18)
(1.89388 6.4757 2.84909e-18)
(1.85329 6.40757 -2.95521e-18)
(1.78598 6.31332 -4.23587e-18)
(1.69571 6.18429 4.48055e-18)
(1.58367 6.01546 0)
(1.45252 5.79962 0)
(1.30512 5.52997 3.72653e-18)
(1.14535 5.2004 -3.81342e-18)
(0.977378 4.80482 2.09976e-18)
(0.805739 4.3372 -2.15409e-18)
(0.635365 3.79159 6.27729e-19)
(0.470788 3.16004 -2.89857e-18)
(0.313012 2.43684 4.63277e-18)
(0.181885 1.62258 0)
(0.168108 0.716468 9.68774e-19)
(0.211133 -0.215492 -3.01309e-18)
(0.224627 -1.08379 -5.28877e-21)
(0.258176 -1.86979 7.28401e-19)
(0.307646 -2.56953 -5.86741e-19)
(0.360574 -3.21919 5.26436e-20)
(0.408264 -3.85572 8.60682e-19)
(0.444212 -4.49898 -3.29076e-19)
(0.464095 -5.1385 -2.51525e-19)
(0.44048 -5.73715 3.47253e-19)
(0.412736 -6.23364 -2.03586e-19)
(0.185862 -6.55776 0)
(1.82374 6.69718 -1.13009e-19)
(2.45488 6.60649 -2.03393e-18)
(2.29597 6.55312 1.99967e-18)
(2.50912 6.49038 2.61016e-18)
(2.59243 6.45638 -2.7003e-18)
(2.66808 6.40968 0)
(2.70739 6.33744 2.1611e-18)
(2.71535 6.22801 -2.40501e-18)
(2.69575 6.07508 0)
(2.65299 5.87194 0)
(2.59085 5.6116 3.68627e-19)
(2.5136 5.28793 8.23135e-19)
(2.42552 4.89495 1.92801e-18)
(2.33089 4.42679 -1.96419e-18)
(2.23427 3.87783 -5.6959e-19)
(2.14003 3.2417 0)
(2.0483 2.51216 1.45312e-18)
(1.97667 1.68572 -3.05484e-18)
(1.98028 0.780373 8.57875e-19)
(2.00094 -0.16051 0)
(1.98367 -1.06039 7.52173e-19)
(1.95699 -1.86485 -1.29378e-18)
(1.93757 -2.57489 0)
(1.92363 -3.2257 0)
(1.91113 -3.85806 0)
(1.89508 -4.49331 -3.11315e-19)
(1.86914 -5.11992 2.35985e-19)
(1.80966 -5.69796 -1.31742e-19)
(1.74402 -6.16432 -3.32104e-20)
(1.50039 -6.45171 0)
(1.88584 6.70607 1.99007e-18)
(2.59071 6.43903 1.80611e-18)
(2.6953 6.35941 3.08554e-20)
(3.05533 6.32046 0)
(3.28601 6.32299 1.52091e-18)
(3.47281 6.31261 -3.02376e-18)
(3.61282 6.27278 1.37298e-18)
(3.71374 6.19114 2.42112e-19)
(3.78187 6.06037 0)
(3.82324 5.87435 0)
(3.84281 5.62685 -6.87475e-19)
(3.84526 5.31207 -3.8318e-19)
(3.83499 4.92432 0)
(3.81619 4.45801 1.48755e-18)
(3.79308 3.90767 -3.62304e-18)
(3.76964 3.26745 2.21322e-18)
(3.74697 2.53089 6.28377e-19)
(3.73305 1.69609 1.38455e-18)
(3.74556 0.783478 -1.49114e-18)
(3.7512 -0.154933 -1.50411e-18)
(3.70619 -1.04328 6.90673e-19)
(3.62879 -1.84015 -5.60063e-19)
(3.54533 -2.54791 1.00876e-18)
(3.4676 -3.19903 -4.52889e-19)
(3.40002 -3.83152 1.682e-19)
(3.34018 -4.46405 4.24901e-19)
(3.27937 -5.08215 0)
(3.19421 -5.64296 0)
(3.10247 -6.08373 1.02124e-19)
(2.84781 -6.3405 -4.02684e-20)
(9.9832 0.115612 3.92952e-19)
(9.97746 0.231412 7.85057e-20)
(9.95966 0.348937 1.60546e-19)
(9.92821 0.469828 3.24923e-19)
(9.88714 0.595574 -6.58452e-19)
(9.83871 0.727643 3.31939e-19)
(9.78357 0.867442 0)
(9.72157 1.01633 0)
(9.65267 1.1757 -3.48376e-19)
(9.57742 1.34701 1.05959e-18)
(9.49613 1.53176 -1.7733e-18)
(9.40898 1.7314 1.0816e-18)
(9.31673 1.94752 -1.45216e-18)
(9.21986 2.18184 0)
(9.11872 2.43625 -3.3362e-18)
(9.014 2.71293 6.33876e-18)
(8.90638 3.01431 -2.99011e-18)
(8.79657 3.3432 -3.70263e-19)
(8.68507 3.70279 3.78245e-19)
(8.5732 4.09697 3.76179e-19)
(8.46293 4.53065 0)
(8.35577 5.00976 -1.76504e-19)
(8.25391 5.54187 0)
(8.16005 6.1365 0)
(8.07879 6.80705 -2.48798e-18)
(8.01647 7.57471 2.44181e-18)
(7.99946 8.47066 3.51187e-20)
(8.01795 9.55852 0)
(8.67575 10.87 0)
(9.00765 13.4436 -2.1105e-19)
(9.98331 0.120144 3.03112e-19)
(9.97908 0.240435 -3.08905e-19)
(9.96371 0.362474 0)
(9.93548 0.487959 -3.13469e-19)
(9.89858 0.618407 0)
(9.85539 0.755246 8.97384e-22)
(9.80655 0.899898 -3.26764e-19)
(9.75191 1.05378 0)
(9.69152 1.21826 0)
(9.62598 1.39479 3.39919e-19)
(9.55571 1.58483 4.07926e-21)
(9.4812 1.7898 0)
(9.40322 2.01125 0)
(9.32233 2.25088 3.48023e-19)
(9.23923 2.51058 3.55891e-19)
(9.15478 2.79243 3.50517e-19)
(9.07 3.0988 2.83153e-18)
(8.98597 3.43233 -2.47092e-18)
(8.90408 3.79601 2.7974e-18)
(8.82663 4.19339 -2.95597e-18)
(8.7561 4.62883 -1.67602e-19)
(8.69542 5.1077 1.69441e-19)
(8.64913 5.63661 0)
(8.62318 6.22326 0)
(8.62753 6.87785 -2.2242e-18)
(8.67761 7.61464 4.05293e-18)
(8.81344 8.44923 -1.95083e-18)
(9.01804 9.40053 -3.70837e-19)
(9.63013 10.4186 2.8285e-19)
(10.1251 11.5007 3.35135e-19)
(9.98341 0.124306 -5.20959e-19)
(9.98078 0.24872 7.43587e-20)
(9.96795 0.374891 1.50459e-19)
(9.94309 0.504541 9.88727e-22)
(9.9106 0.639191 -9.23538e-19)
(9.87292 0.780257 9.35634e-19)
(9.83057 0.929171 -1.26129e-18)
(9.78351 1.08737 6.36488e-19)
(9.73193 1.25622 3.20333e-19)
(9.67643 1.43709 3.23402e-19)
(9.61761 1.63139 6.56565e-19)
(9.55613 1.8405 0)
(9.4928 2.06592 1.33409e-18)
(9.42833 2.30928 -3.35935e-19)
(9.36371 2.57239 -1.34319e-18)
(9.29999 2.85717 -6.72294e-19)
(9.23853 3.16578 0)
(9.1809 3.50055 0)
(9.12925 3.86403 -1.6265e-19)
(9.08637 4.25924 3.24794e-19)
(9.05531 4.68973 1.61602e-19)
(9.04021 5.15968 0)
(9.04696 5.67374 -2.3215e-18)
(9.08318 6.23657 2.25261e-18)
(9.16005 6.853 1.00686e-18)
(9.2916 7.52728 -8.62994e-19)
(9.5067 8.25743 -5.91575e-19)
(9.7751 9.02671 1.08017e-18)
(10.2207 9.80879 -2.77815e-19)
(10.7759 10.5732 3.35897e-19)
(9.98352 0.128059 5.73235e-19)
(9.98253 0.256174 2.88488e-19)
(9.97234 0.386034 -2.9191e-19)
(9.95105 0.519348 2.95123e-19)
(9.92316 0.657633 2.99294e-19)
(9.89115 0.802324 2.99936e-19)
(9.85549 0.954846 3.05752e-19)
(9.81623 1.11662 0)
(9.77369 1.28897 -1.24568e-18)
(9.72856 1.4732 9.35613e-19)
(9.68151 1.67063 -3.17374e-19)
(9.63332 1.8826 -1.58476e-18)