/*--------------------------------*- C++ -*----------------------------------*\
| =========                 |                                                 |
| \\      /  F ield         | OpenFOAM: The Open Source CFD Toolbox           |
|  \\    /   O peration     | Version:  2006                                  |
|   \\  /    A nd           | Website:  www.openfoam.com                      |
|    \\/     M anipulation  |                                                 |
\*---------------------------------------------------------------------------*/
FoamFile
{
    version     2.0;
    format      ascii;
    class       volVectorField;
    location    "9.7";
    object      U;
}
// * * * * * * * * * * * * * * * * * * * * * * * * * * * * * * * * * * * * * //

dimensions      [0 1 -1 0 0 0 0];


internalField   nonuniform List<vector> 
2790
(
(9.94399 0.0205236 0)
(9.87572 0.0295885 0)
(9.7752 0.0359908 0)
(9.64942 0.0425579 0)
(9.50407 0.0493877 0)
(9.34004 0.0564312 0)
(9.15651 0.0638194 0)
(8.95257 0.0717159 0)
(8.7274 0.0802604 0)
(8.48 0.0895796 0)
(8.20917 0.0998006 0)
(7.91353 0.111054 0)
(7.59154 0.12347 0)
(7.24161 0.137176 0)
(6.86213 0.152285 0)
(6.45158 0.168883 0)
(6.00863 0.187011 0)
(5.53241 0.206634 0)
(5.02268 0.227605 0)
(4.48014 0.249624 0)
(3.90683 0.272188 0)
(3.3065 0.294534 0)
(2.68495 0.315624 0)
(2.0503 0.334288 0)
(1.4115 0.350602 0)
(0.79778 0.372883 0)
(0.110356 0.324922 0)
(-0.469579 -0.114923 0)
(-0.453816 -0.2971 0)
(-0.231165 -0.423837 0)
(9.9985 0.0407043 0)
(9.98145 0.0623853 0)
(9.93574 0.079144 0)
(9.86415 0.0966299 0)
(9.77095 0.115131 0)
(9.65712 0.134496 0)
(9.52202 0.154985 0)
(9.3648 0.176955 0)
(9.18465 0.200722 0)
(8.98059 0.226566 0)
(8.75143 0.254763 0)
(8.49577 0.285582 0)
(8.21206 0.319274 0)
(7.89866 0.35605 0)
(7.55385 0.39605 0)
(7.17598 0.439294 0)
(6.76354 0.485625 0)
(6.31539 0.534619 0)
(5.83096 0.585492 0)
(5.31057 0.63698 0)
(4.75583 0.687223 0)
(4.17008 0.733657 0)
(3.55897 0.772952 0)
(2.93123 0.80108 0)
(2.29965 0.813723 0)
(1.69269 0.807217 0)
(1.10691 0.747172 0)
(0.658742 0.547834 0)
(0.186199 0.224467 0)
(-0.00819676 -0.453792 0)
(9.99559 0.0432091 0)
(9.97556 0.0752759 0)
(9.9318 0.103352 0)
(9.86488 0.13238 0)
(9.77776 0.16307 0)
(9.67152 0.195412 0)
(9.54584 0.229759 0)
(9.40009 0.266623 0)
(9.23359 0.306493 0)
(9.04556 0.349834 0)
(8.83499 0.397103 0)
(8.6007 0.448757 0)
(8.34131 0.505232 0)
(8.05534 0.566907 0)
(7.7412 0.634058 0)
(7.39724 0.70678 0)
(7.02188 0.784886 0)
(6.6137 0.867772 0)
(6.17166 0.954239 0)
(5.69534 1.04229 0)
(5.18532 1.12891 0)
(4.64364 1.2098 0)
(4.07447 1.27915 0)
(3.48506 1.32931 0)
(2.88655 1.35004 0)
(2.29921 1.32635 0)
(1.73162 1.22066 0)
(1.21609 0.972874 0)
(0.701026 0.57 0)
(0.357968 -0.156762 0)
(9.99403 0.0495021 0)
(9.97181 0.0932121 0)
(9.92787 0.133581 0)
(9.86223 0.174221 0)
(9.77691 0.216449 0)
(9.67296 0.26068 0)
(9.55028 0.307453 0)
(9.40844 0.357442 0)
(9.24696 0.411322 0)
(9.06526 0.469742 0)
(8.86259 0.533344 0)
(8.63808 0.602771 0)
(8.39072 0.678645 0)
(8.11937 0.761532 0)
(7.82282 0.851882 0)
(7.49981 0.949939 0)
(7.14902 1.05561 0)
(6.7692 1.1683 0)
(6.35922 1.28666 0)
(5.91831 1.40831 0)
(5.44622 1.5295 0)
(4.94368 1.6447 0)
(4.41285 1.74613 0)
(3.85796 1.82318 0)
(3.28552 1.86129 0)
(2.70614 1.84022 0)
(2.12543 1.72586 0)
(1.55409 1.47768 0)
(0.957843 1.08349 0)
(0.509389 0.502109 0)
(9.99331 0.0572173 0)
(9.96994 0.110966 0)
(9.92592 0.162115 0)
(9.86145 0.213363 0)
(9.77797 0.266376 0)
(9.67632 0.321938 0)
(9.5565 0.380731 0)
(9.41817 0.443522 0)
(9.26091 0.511096 0)
(9.08426 0.584216 0)
(8.88761 0.66364 0)
(8.67028 0.750122 0)
(8.43146 0.8444 0)
(8.17031 0.947155 0)
(7.8859 1.05895 0)
(7.57728 1.18015 0)
(7.24344 1.31077 0)
(6.88336 1.45026 0)
(6.49601 1.59729 0)
(6.08044 1.74938 0)
(5.63585 1.90246 0)
(5.1618 2.05034 0)
(4.65845 2.18416 0)
(4.12689 2.29169 0)
(3.56909 2.35647 0)
(2.98861 2.35718 0)
(2.3866 2.26476 0)
(1.76621 2.04741 0)
(1.08988 1.69112 0)
(0.536603 1.15385 0)
(9.99302 0.0655431 0)
(9.96923 0.12871 0)
(9.92556 0.190127 0)
(9.86252 0.251862 0)
(9.78127 0.315602 0)
(9.68242 0.382347 0)
(9.56597 0.452909 0)
(9.43167 0.528142 0)
(9.27915 0.608928 0)
(9.10799 0.69614 0)
(8.91769 0.790642 0)
(8.70763 0.893295 0)
(8.47716 1.00493 0)
(8.22553 1.12634 0)
(7.95198 1.25818 0)
(7.65569 1.40091 0)
(7.33581 1.55464 0)
(6.99139 1.71896 0)
(6.62141 1.89264 0)
(6.22471 2.0733 0)
(5.79996 2.2569 0)
(5.3457 2.43723 0)
(4.86036 2.60519 0)
(4.34235 2.74816 0)
(3.79006 2.84943 0)
(3.20227 2.88802 0)
(2.57631 2.83799 0)
(1.91326 2.67131 0)
(1.17262 2.37365 0)
(0.549909 1.89403 0)
(9.99297 0.07408 0)
(9.96926 0.146324 0)
(9.92637 0.217499 0)
(9.86507 0.289313 0)
(9.78641 0.363382 0)
(9.69082 0.440861 0)
(9.57831 0.522701 0)
(9.44867 0.609859 0)
(9.30159 0.703311 0)
(9.13671 0.804029 0)
(8.95356 0.912973 0)
(8.7516 1.03109 0)
(8.53021 1.15931 0)
(8.28873 1.2985 0)
(8.02642 1.44941 0)
(7.74249 1.61259 0)
(7.43607 1.7883 0)
(7.10615 1.97628 0)
(6.75152 2.17551 0)
(6.3707 2.38391 0)
(5.96177 2.59781 0)
(5.52228 2.81142 0)
(5.04915 3.01615 0)
(4.53862 3.1999 0)
(3.98628 3.34655 0)
(3.38756 3.43576 0)
(2.73694 3.44302 0)
(2.03599 3.34113 0)
(1.24159 3.11314 0)
(0.563443 2.69268 0)
(9.99306 0.0825938 0)
(9.96981 0.163618 0)
(9.92806 0.244067 0)
(9.86884 0.325503 0)
(9.79311 0.409476 0)
(9.70124 0.497244 0)
(9.5932 0.589884 0)
(9.46884 0.68845 0)
(9.32791 0.794003 0)
(9.17008 0.907603 0)
(8.99494 1.0303 0)
(8.80201 1.16313 0)
(8.5907 1.30711 0)
(8.36036 1.46321 0)
(8.11028 1.63227 0)
(7.83961 1.815 0)
(7.54738 2.0118 0)
(7.23241 2.22265 0)
(6.89321 2.44686 0)
(6.52784 2.68281 0)
(6.13373 2.92745 0)
(5.70746 3.17583 0)
(5.24456 3.42037 0)
(4.73935 3.65014 0)
(4.18505 3.8501 0)
(3.57434 4.00065 0)
(2.89914 4.07756 0)
(2.1618 4.05193 0)
(1.31592 3.90116 0)
(0.583128 3.53956 0)
(9.99326 0.0909347 0)
(9.97072 0.180421 0)
(9.93045 0.269687 0)
(9.87361 0.360268 0)
(9.80116 0.45368 0)
(9.71342 0.551251 0)
(9.61035 0.654162 0)
(9.49185 0.763556 0)
(9.35771 0.880575 0)
(9.20767 1.00636 0)
(9.04138 1.14205 0)
(8.85838 1.28877 0)
(8.65816 1.44764 0)
(8.44008 1.61972 0)
(8.20341 1.80601 0)
(7.94727 2.00736 0)
(7.67056 2.22441 0)
(7.3719 2.45744 0)
(7.0495 2.70621 0)
(6.70093 2.96971 0)
(6.32297 3.24578 0)
(5.91123 3.53062 0)
(5.4599 3.8181 0)
(4.96152 4.09894 0)
(4.4069 4.35972 0)
(3.78589 4.58184 0)
(3.08709 4.74068 0)
(2.31231 4.80392 0)
(1.41037 4.74042 0)
(0.614186 4.44118 0)
(9.99352 0.0989991 0)
(9.9719 0.196593 0)
(9.9334 0.294216 0)
(9.87923 0.393445 0)
(9.81039 0.495792 0)
(9.72715 0.602634 0)
(9.62951 0.715237 0)
(9.51738 0.834827 0)
(9.39064 0.962621 0)
(9.24907 1.09984 0)
(9.09238 1.24769 0)
(8.92019 1.40741 0)
(8.73202 1.5802 0)
(8.52729 1.76725 0)
(8.30528 1.96972 0)
(8.06507 2.18865 0)
(7.8055 2.42498 0)
(7.52504 2.67936 0)
(7.22161 2.95211 0)
(6.89241 3.243 0)
(6.53362 3.55095 0)
(6.14001 3.87362 0)
(5.70453 4.20677 0)
(5.21791 4.54337 0)
(4.66838 4.87231 0)
(4.04223 5.17669 0)
(3.32308 5.43185 0)
(2.50923 5.60132 0)
(1.54149 5.64266 0)
(0.663883 5.41708 0)
(9.99384 0.106711 0)
(9.9733 0.212015 0)
(9.93679 0.317525 0)
(9.88557 0.424886 0)
(9.82062 0.535628 0)
(9.74224 0.651169 0)
(9.65042 0.772846 0)
(9.54515 0.901955 0)
(9.42634 1.03978 0)
(9.29385 1.18761 0)
(9.14746 1.34674 0)
(8.98686 1.51848 0)
(8.81165 1.70413 0)
(8.62131 1.90503 0)
(8.41517 2.12249 0)
(8.19235 2.35779 0)
(7.95166 2.61217 0)
(7.69153 2.88676 0)
(7.40974 3.18251 0)
(7.10327 3.50009 0)
(6.76791 3.83968 0)
(6.39783 4.20072 0)
(5.98497 4.5813 0)
(5.51841 4.97736 0)
(4.98363 5.38122 0)
(4.36246 5.77929 0)
(3.63109 6.14864 0)
(2.77938 6.4499 0)
(1.73291 6.62746 0)
(0.744573 6.50184 0)
(9.9942 0.114014 0)
(9.97487 0.22659 0)
(9.94055 0.339497 0)
(9.89251 0.454455 0)
(9.83172 0.573024 0)
(9.75849 0.69666 0)
(9.67287 0.826756 0)
(9.57485 0.964667 0)
(9.46445 1.11174 0)
(9.34158 1.26932 0)
(9.2061 1.43877 0)
(9.05779 1.62147 0)
(8.89635 1.81884 0)
(8.72136 2.03233 0)
(8.53224 2.26343 0)
(8.32819 2.51366 0)
(8.10814 2.78459 0)
(7.87056 3.07782 0)
(7.6133 3.395 0)
(7.33335 3.73776 0)
(7.02646 4.10772 0)
(6.68659 4.50628 0)
(6.30522 4.93431 0)
(5.8703 5.39157 0)
(5.36487 5.87534 0)
(4.76587 6.37802 0)
(4.03963 6.88271 0)
(3.16041 7.3526 0)
(2.02392 7.72186 0)
(0.880316 7.75537 0)
(9.99459 0.120861 0)
(9.97657 0.240241 0)
(9.94461 0.360032 0)
(9.89995 0.482034 0)
(9.84355 0.607839 0)
(9.77574 0.738936 0)
(9.69661 0.876762 0)
(9.60621 1.02272 0)
(9.50461 1.17821 0)
(9.39181 1.34462 0)
(9.26777 1.52338 0)
(9.13236 1.71593 0)
(8.9854 1.92378 0)
(8.82659 2.14848 0)
(8.6555 2.3917 0)
(8.47152 2.65517 0)
(8.27373 2.9408 0)
(8.06083 3.25064 0)
(7.83095 3.587 0)
(7.58141 3.95251 0)
(7.3083 4.35018 0)
(7.00605 4.7835 0)
(6.66647 5.25641 0)
(6.27756 5.77319 0)
(5.82136 6.3378 0)
(5.27118 6.9523 0)
(4.58305 7.61317 0)
(3.70842 8.29993 0)
(2.48686 8.9565 0)
(1.12375 9.29073 0)
(9.99501 0.127219 0)
(9.97838 0.252901 0)
(9.94891 0.379046 0)
(9.90779 0.507521 0)
(9.85598 0.639952 0)
(9.79381 0.777857 0)
(9.72141 0.922705 0)
(9.63892 1.07594 0)
(9.54645 1.23899 0)
(9.4441 1.41328 0)
(9.33191 1.60029 0)
(9.2099 1.80151 0)
(9.07799 2.01851 0)
(8.93606 2.25296 0)
(8.78387 2.50662 0)
(8.62102 2.78144 0)
(8.44691 3.07959 0)
(8.26058 3.40353 0)
(8.06065 3.75614 0)
(7.84507 4.14091 0)
(7.61081 4.56212 0)
(7.35345 5.02516 0)
(7.06633 5.53699 0)
(6.73938 6.10657 0)
(6.35662 6.74557 0)
(5.89245 7.46904 0)
(5.2988 8.29605 0)
(4.50658 9.24702 0)
(3.26658 10.3397 0)
(1.6036 11.3552 0)
(9.99545 0.133059 0)
(9.98026 0.264521 0)
(9.95339 0.396468 0)
(9.91596 0.530824 0)
(9.86888 0.669244 0)
(9.81252 0.813269 0)
(9.74707 0.964391 0)
(9.6727 1.12408 0)
(9.58962 1.29378 0)
(9.498 1.47496 0)
(9.39799 1.66909 0)
(9.28974 1.87773 0)
(9.17332 2.10248 0)
(9.04879 2.34506 0)
(8.91615 2.60734 0)
(8.77527 2.89141 0)
(8.62591 3.1996 0)
(8.46762 3.53469 0)
(8.29967 3.89997 0)
(8.12092 4.29955 0)
(7.92966 4.73863 0)
(7.72332 5.22405 0)
(7.49805 5.76504 0)
(7.24794 6.3744 0)
(6.96347 7.07054 0)
(6.6291 7.88125 0)
(6.21197 8.85187 0)
(5.66264 10.0652 0)
(4.68628 11.7287 0)
(2.68447 14.5851 0)
(0.121962 -0.120714 0)
(0.285773 -0.10959 0)
(0.452621 -0.0857767 0)
(0.591068 -0.0627401 0)
(0.695477 -0.0431548 0)
(0.76956 -0.0269474 0)
(0.818115 -0.0135305 0)
(0.844864 -0.00237509 0)
(0.852801 0.00670754 0)
(0.844652 0.0128105 0)
(0.822696 0.0170809 0)
(0.789984 0.0199594 0)
(0.749348 0.0215456 0)
(0.703505 0.0219031 0)
(0.655178 0.021138 0)
(0.607008 0.0194176 0)
(0.561346 0.016982 0)
(0.520058 0.0141533 0)
(0.484347 0.0112898 0)
(0.454657 0.00871563 0)
(0.430662 0.00664633 0)
(0.411455 0.00514029 0)
(0.395891 0.00410886 0)
(0.38297 0.0033846 0)
(0.372044 0.00282474 0)
(0.362764 0.00236082 0)
(0.354914 0.0019814 0)
(0.348263 0.00169861 0)
(0.342516 0.0014972 0)
(0.336661 0.00117577 0)
(0.105946 -0.284629 0)
(0.267311 -0.266082 0)
(0.424764 -0.215171 0)
(0.558583 -0.164671 0)
(0.664847 -0.121356 0)
(0.747144 -0.0852033 0)
(0.809652 -0.0549518 0)
(0.855493 -0.0293934 0)
(0.886644 -0.00764564 0)
(0.904234 0.0103171 0)
(0.907564 0.024453 0)
(0.899046 0.0350064 0)
(0.881329 0.0420887 0)
(0.857187 0.0458462 0)
(0.829416 0.0465537 0)
(0.800697 0.0446389 0)
(0.7734 0.0406762 0)
(0.749384 0.035354 0)
(0.729807 0.0294368 0)
(0.715037 0.0236795 0)
(0.704678 0.0186826 0)
(0.697806 0.0147465 0)
(0.693359 0.01183 0)
(0.690506 0.00965331 0)
(0.68878 0.00792952 0)
(0.687964 0.00649897 0)
(0.687907 0.00531686 0)
(0.688394 0.00439898 0)
(0.689076 0.00374706 0)
(0.689604 0.00322292 0)
(0.0855521 -0.452413 0)
(0.227091 -0.422332 0)
(0.35525 -0.344209 0)
(0.464062 -0.267553 0)
(0.550642 -0.202254 0)
(0.618717 -0.147926 0)
(0.671582 -0.102671 0)
(0.711616 -0.0647122 0)
(0.740556 -0.0325196 0)
(0.760562 -0.00438488 0)
(0.7722 0.0191304 0)
(0.774757 0.0372725 0)
(0.770394 0.0498584 0)
(0.761211 0.0570086 0)
(0.749326 0.0591602 0)
(0.73676 0.0570211 0)
(0.725258 0.0515237 0)
(0.716141 0.0437773 0)
(0.710184 0.0350288 0)
(0.707512 0.0265357 0)
(0.707617 0.019308 0)
(0.709563 0.0138362 0)
(0.712364 0.0100149 0)
(0.71534 0.00733093 0)
(0.718224 0.00530504 0)
(0.720966 0.00370125 0)
(0.72353 0.00247223 0)
(0.725794 0.00166416 0)
(0.727515 0.0013428 0)
(0.728237 0.00166491 0)
(0.0657526 -0.588245 0)
(0.181766 -0.541604 0)
(0.273915 -0.438768 0)
(0.353028 -0.341412 0)
(0.414982 -0.259825 0)
(0.464312 -0.192244 0)
(0.503192 -0.135985 0)
(0.533054 -0.0887362 0)
(0.555038 -0.0487424 0)
(0.569872 -0.0146692 0)
(0.580677 0.0140516 0)
(0.584457 0.0366838 0)
(0.583562 0.0524512 0)
(0.580004 0.0613603 0)
(0.575497 0.0640151 0)
(0.571408 0.0613528 0)
(0.56874 0.054571 0)
(0.568104 0.0451303 0)
(0.569672 0.0346795 0)
(0.573106 0.0248758 0)
(0.577554 0.0169773 0)
(0.58186 0.0114633 0)
(0.584951 0.0080261 0)
(0.586275 0.00582525 0)
(0.585889 0.00424351 0)
(0.584075 0.00302403 0)
(0.581073 0.00217281 0)
(0.577055 0.00177628 0)
(0.572165 0.0018843 0)
(0.565584 0.00273002 0)
(0.0452626 -0.693935 0)
(0.13058 -0.626059 0)
(0.181298 -0.501803 0)
(0.228539 -0.390216 0)
(0.262696 -0.298407 0)
(0.290415 -0.222676 0)
(0.31237 -0.159686 0)
(0.329285 -0.106731 0)
(0.341807 -0.0618257 0)
(0.34998 -0.023718 0)
(0.35663 0.00895604 0)
(0.357623 0.0350525 0)
(0.355645 0.0528857 0)
(0.353218 0.0625476 0)
(0.35173 0.0649635 0)
(0.351687 0.0614267 0)
(0.353081 0.0534679 0)
(0.355521 0.0428342 0)
(0.358315 0.0313924 0)
(0.360503 0.021084 0)
(0.360894 0.0134256 0)
(0.35835 0.00897552 0)
(0.352084 0.00720228 0)
(0.342251 0.0067057 0)
(0.329872 0.00664696 0)
(0.315995 0.00661389 0)
(0.301319 0.0065807 0)
(0.286212 0.00671378 0)
(0.27106 0.00723553 0)
(0.254131 0.00755614 0)
(0.0235761 -0.764526 0)
(0.0730436 -0.671659 0)
(0.0782869 -0.529483 0)
(0.0920963 -0.409863 0)
(0.0954215 -0.31277 0)
(0.0983774 -0.233174 0)
(0.099785 -0.167226 0)
(0.100319 -0.111973 0)
(0.100381 -0.0653069 0)
(0.0998004 -0.0262088 0)
(0.097537 0.00851322 0)
(0.0935899 0.0381585 0)
(0.0894811 0.0564322 0)
(0.0871769 0.0648088 0)
(0.0864057 0.065472 0)
(0.0859087 0.0604948 0)
(0.084007 0.0518483 0)
(0.0787703 0.041491 0)
(0.0685849 0.0314814 0)
(0.0533524 0.0236754 0)
(0.0343764 0.0191817 0)
(0.0135999 0.01789 0)
(-0.0072848 0.0183122 0)
(-0.0266401 0.018657 0)
(-0.04494 0.0183833 0)
(-0.0621076 0.017668 0)
(-0.0781304 0.0170194 0)
(-0.0933167 0.0168298 0)
(-0.108383 0.0164374 0)
(-0.122768 0.0139384 0)
(-0.000658872 -0.793853 0)
(0.00776824 -0.673659 0)
(-0.0338664 -0.518011 0)
(-0.0567535 -0.39645 0)
(-0.0868756 -0.298873 0)
(-0.112771 -0.220174 0)
(-0.13627 -0.155786 0)
(-0.156658 -0.102473 0)
(-0.173939 -0.0570428 0)
(-0.190005 -0.0167088 0)
(-0.210835 0.0182984 0)
(-0.215638 0.0433911 0)
(-0.221822 0.0584295 0)
(-0.227297 0.0653427 0)
(-0.233966 0.0662367 0)
(-0.243271 0.0630453 0)
(-0.25606 0.0574438 0)
(-0.272381 0.0509128 0)
(-0.291658 0.0446636 0)
(-0.312859 0.0393934 0)
(-0.334672 0.0354137 0)
(-0.355941 0.0327098 0)
(-0.375925 0.0307844 0)
(-0.394079 0.0291056 0)
(-0.410166 0.027219 0)
(-0.424052 0.0252713 0)
(-0.435944 0.0236387 0)
(-0.446378 0.0224281 0)
(-0.455933 0.0209995 0)
(-0.463169 0.0188444 0)
(-0.030294 -0.774318 0)
(-0.0679314 -0.627065 0)
(-0.153948 -0.469635 0)
(-0.219341 -0.350357 0)
(-0.284999 -0.257304 0)
(-0.343157 -0.183907 0)
(-0.394379 -0.124473 0)
(-0.438713 -0.075216 0)
(-0.476615 -0.0331198 0)
(-0.510051 0.00261981 0)
(-0.530782 0.0299218 0)
(-0.543536 0.0499271 0)
(-0.554108 0.0637562 0)
(-0.563751 0.0713031 0)
(-0.574276 0.0738327 0)
(-0.586649 0.0726106 0)
(-0.601115 0.0687295 0)
(-0.617388 0.063269 0)
(-0.63499 0.0573187 0)
(-0.653449 0.0518333 0)
(-0.672214 0.0473992 0)
(-0.690629 0.0439839 0)
(-0.708009 0.0410023 0)
(-0.723622 0.0379139 0)
(-0.736924 0.034504 0)
(-0.747737 0.0311281 0)
(-0.756385 0.0283298 0)
(-0.76361 0.0262459 0)
(-0.769937 0.0243866 0)
(-0.773975 0.0226502 0)
(-0.0665923 -0.702707 0)
(-0.151499 -0.533955 0)
(-0.286097 -0.379308 0)
(-0.396307 -0.267574 0)
(-0.498855 -0.185081 0)
(-0.587467 -0.1227 0)
(-0.662357 -0.0731796 0)
(-0.72466 -0.0327488 0)
(-0.776402 7.18719e-05 0)
(-0.812055 0.0253847 0)
(-0.835598 0.0451992 0)
(-0.853661 0.060988 0)
(-0.867321 0.0724469 0)
(-0.878701 0.0793226 0)
(-0.889581 0.0821516 0)
(-0.9011 0.08161 0)
(-0.913708 0.0783964 0)
(-0.927349 0.0733909 0)
(-0.9418 0.0676661 0)
(-0.956896 0.0622231 0)
(-0.97247 0.0576157 0)
(-0.988168 0.0537047 0)
(-1.00333 0.0498342 0)
(-1.01706 0.0454365 0)
(-1.02852 0.0405049 0)
(-1.03738 0.035683 0)
(-1.04403 0.0317454 0)
(-1.04935 0.02893 0)
(-1.05386 0.0268875 0)
(-1.05643 0.0255776 0)
(-0.11262 -0.5727 0)
(-0.250539 -0.390022 0)
(-0.439714 -0.247277 0)
(-0.593077 -0.152639 0)
(-0.728289 -0.0866372 0)
(-0.841354 -0.0403971 0)
(-0.932602 -0.00738189 0)
(-0.999928 0.0163005 0)
(-1.04756 0.0344213 0)
(-1.08328 0.0495443 0)
(-1.11072 0.0627938 0)
(-1.13133 0.073864 0)
(-1.14667 0.0820583 0)
(-1.15863 0.0872231 0)
(-1.1691 0.0895567 0)
(-1.17949 0.0892172 0)
(-1.19043 0.0864009 0)
(-1.20194 0.0816898 0)
(-1.21388 0.0761281 0)
(-1.22626 0.0708098 0)
(-1.2393 0.0662766 0)
(-1.25295 0.0622179 0)
(-1.26664 0.0577641 0)
(-1.27924 0.0522312 0)
(-1.28958 0.0457748 0)
(-1.29712 0.0394236 0)
(-1.30228 0.0343261 0)
(-1.30617 0.0308872 0)
(-1.3094 0.0287886 0)
(-1.31111 0.027807 0)
(-0.178666 -0.379793 0)
(-0.386609 -0.198978 0)
(-0.650141 -0.0638289 0)
(-0.842394 0.00341972 0)
(-0.988303 0.0341011 0)
(-1.09703 0.048553 0)
(-1.17762 0.056237 0)
(-1.24048 0.0624154 0)
(-1.28921 0.0685918 0)
(-1.32692 0.07526 0)
(-1.35584 0.0819823 0)
(-1.37756 0.0878558 0)
(-1.39352 0.0922059 0)
(-1.40545 0.0950195 0)
(-1.41539 0.0964016 0)
(-1.42498 0.096019 0)
(-1.43494 0.0934136 0)
(-1.44509 0.0887671 0)
(-1.45516 0.0831564 0)
(-1.46536 0.0779189 0)
(-1.47634 0.0736677 0)
(-1.48848 0.0698389 0)
(-1.50132 0.0651474 0)
(-1.51343 0.0586295 0)
(-1.52314 0.050562 0)
(-1.52958 0.0425 0)
(-1.53335 0.0361782 0)
(-1.53587 0.0322316 0)
(-1.53798 0.0301854 0)
(-1.53909 0.0294489 0)
(-0.297355 -0.0726096 0)
(-0.587093 0.125877 0)
(-0.862648 0.162157 0)
(-1.05701 0.159414 0)
(-1.20368 0.145377 0)
(-1.31378 0.129885 0)
(-1.39713 0.117654 0)
(-1.46078 0.10909 0)
(-1.50935 0.103659 0)
(-1.5464 0.101424 0)
(-1.57482 0.101526 0)
(-1.59634 0.102222 0)
(-1.61197 0.102458 0)
(-1.62314 0.102526 0)
(-1.63215 0.102774 0)
(-1.64106 0.102371 0)
(-1.65052 0.0999375 0)
(-1.6599 0.0950931 0)
(-1.66852 0.089081 0)
(-1.67673 0.0837715 0)
(-1.68582 0.0800046 0)
(-1.6968 0.0768446 0)
(-1.70933 0.0723132 0)
(-1.72155 0.0649266 0)
(-1.73102 0.0550315 0)
(-1.73643 0.0449196 0)
(-1.73861 0.0372353 0)
(-1.73958 0.0329328 0)
(-1.74061 0.031103 0)
(-1.74124 0.0305713 0)
(-0.395083 0.41889 0)
(-0.731658 0.45885 0)
(-1.0566 0.393455 0)
(-1.27109 0.322693 0)
(-1.4222 0.262531 0)
(-1.52949 0.213195 0)
(-1.60768 0.177858 0)
(-1.66661 0.153781 0)
(-1.71105 0.136733 0)
(-1.74443 0.125905 0)
(-1.77029 0.120094 0)
(-1.79044 0.11613 0)
(-1.80489 0.112058 0)
(-1.81436 0.108955 0)
(-1.82164 0.108108 0)
(-1.82966 0.108138 0)
(-1.83903 0.106161 0)
(-1.84816 0.100888 0)
(-1.85551 0.0939606 0)
(-1.86157 0.0883156 0)
(-1.86858 0.0853061 0)
(-1.87855 0.0834312 0)
(-1.89133 0.0795926 0)
(-1.90433 0.0714467 0)
(-1.91399 0.0593375 0)
(-1.91831 0.0465999 0)
(-1.91843 0.0372967 0)
(-1.91748 0.0328724 0)
(-1.91738 0.0315636 0)
(-1.91764 0.0312436 0)
(-0.522527 0.945795 0)
(-0.955663 0.870403 0)
(-1.32269 0.659171 0)
(-1.52558 0.487957 0)
(-1.65863 0.373152 0)
(-1.74866 0.285205 0)
(-1.8106 0.22912 0)
(-1.85818 0.194733 0)
(-1.89478 0.167726 0)
(-1.92146 0.147888 0)
(-1.94269 0.136721 0)
(-1.96075 0.12896 0)
(-1.97353 0.120491 0)
(-1.98007 0.113788 0)
(-1.98419 0.112263 0)
(-1.99078 0.113897 0)
(-2.00055 0.113082 0)
(-2.01013 0.106994 0)
(-2.01629 0.0981291 0)
(-2.01959 0.0915063 0)
(-2.02391 0.0895323 0)
(-2.03281 0.0897927 0)
(-2.04645 0.0873759 0)
(-2.06112 0.0785883 0)
(-2.07154 0.0636519 0)
(-2.07452 0.0473611 0)
(-2.0718 0.0359922 0)
(-2.06828 0.0318367 0)
(-2.067 0.0316295 0)
(-2.06704 0.031601 0)
(-0.765899 2.01195 0)
(-1.30709 1.56616 0)
(-1.70282 0.960637 0)
(-1.8402 0.572355 0)
(-1.91717 0.439951 0)
(-1.97062 0.336064 0)
(-1.99977 0.271423 0)
(-2.03047 0.231972 0)
(-2.05962 0.189911 0)
(-2.07746 0.156732 0)
(-2.09092 0.144483 0)
(-2.10601 0.138969 0)
(-2.11701 0.128231 0)
(-2.11903 0.116874 0)
(-2.11771 0.113969 0)
(-2.12205 0.118504 0)
(-2.13325 0.119766 0)
(-2.14453 0.112241 0)
(-2.14952 0.0999418 0)
(-2.14879 0.0915657 0)
(-2.14903 0.0914409 0)
(-2.1565 0.0955465 0)
(-2.17169 0.0959085 0)
(-2.18921 0.0868063 0)
(-2.20111 0.0682019 0)
(-2.20236 0.0469165 0)
(-2.19544 0.0327038 0)
(-2.18827 0.0294663 0)
(-2.18576 0.031447 0)
(-2.18587 0.0319673 0)
(9.9959 0.138454 0)
(9.98225 0.275255 0)
(9.9581 0.412551 0)
(9.92453 0.552308 0)
(9.88242 0.696206 0)
(9.83216 0.845797 0)
(9.77398 1.00259 0)
(9.70814 1.16805 0)
(9.63491 1.34366 0)
(9.55456 1.53086 0)
(9.46737 1.73117 0)
(9.3736 1.94612 0)
(9.27352 2.17734 0)
(9.16737 2.42658 0)
(9.05541 2.69575 0)
(8.93787 2.98699 0)
(8.81491 3.30274 0)
(8.68669 3.64591 0)
(8.55326 4.02 0)
(8.41463 4.42939 0)
(8.27071 4.87973 0)
(8.12139 5.37848 0)
(7.96657 5.9358 0)
(7.80653 6.56604 0)
(7.64241 7.29027 0)
(7.47914 8.14106 0)
(7.32982 9.1723 0)
(7.28418 10.4774 0)
(7.73872 12.2011 0)
(7.9136 14.9174 0)
(9.99638 0.143414 0)
(9.98434 0.28511 0)
(9.96305 0.427279 0)
(9.93351 0.571919 0)
(9.89656 0.720721 0)
(9.85262 0.875245 0)
(9.80196 1.037 0)
(9.74492 1.20746 0)
(9.68183 1.38808 0)
(9.61308 1.58032 0)
(9.53906 1.78566 0)
(9.46017 2.00563 0)
(9.37685 2.24184 0)
(9.2896 2.49601 0)
(9.19892 2.77004 0)
(9.10538 3.06604 0)
(9.00965 3.38644 0)
(8.91247 3.73409 0)
(8.81475 4.11243 0)
(8.71767 4.52574 0)
(8.62282 4.97944 0)
(8.53256 5.48055 0)
(8.45058 6.03841 0)
(8.38314 6.66561 0)
(8.34134 7.37938 0)
(8.34721 8.20315 0)
(8.43943 9.16711 0)
(8.67376 10.3046 0)
(9.31861 11.5609 0)
(9.80538 12.6533 0)
(9.99688 0.147851 0)
(9.98651 0.293922 0)
(9.96819 0.440429 0)
(9.94283 0.589388 0)
(9.91121 0.742494 0)
(9.87377 0.901299 0)
(9.83085 1.0673 0)
(9.78283 1.24195 0)
(9.73013 1.4267 0)
(9.67323 1.62296 0)
(9.61262 1.83217 0)
(9.54887 2.05584 0)
(9.4826 2.2955 0)
(9.4145 2.55281 0)
(9.34537 2.82959 0)
(9.27613 3.12783 0)
(9.20787 3.44981 0)
(9.14194 3.79816 0)
(9.08001 4.176 0)
(9.0243 4.5871 0)
(8.97782 5.03606 0)
(8.94484 5.52858 0)
(8.93163 6.07163 0)
(8.94771 6.67363 0)
(9.00754 7.34406 0)
(9.13323 8.09161 0)
(9.35577 8.91826 0)
(9.68468 9.81311 0)
(10.2501 10.7251 0)
(10.9373 11.4451 0)
(9.9974 0.151713 0)
(9.98874 0.301583 0)
(9.97347 0.451835 0)
(9.95239 0.604487 0)
(9.92623 0.761224 0)
(9.89545 0.923583 0)
(9.86042 1.09304 0)
(9.82158 1.27101 0)
(9.77942 1.4589 0)
(9.73452 1.65808 0)
(9.68748 1.86994 0)
(9.63899 2.09588 0)
(9.58983 2.33738 0)
(9.54091 2.59596 0)
(9.49328 2.87328 0)
(9.44816 3.17115 0)
(9.40704 3.49157 0)
(9.37175 3.83681 0)
(9.34458 4.20945 0)
(9.3285 4.61247 0)
(9.32744 5.04927 0)
(9.3467 5.52372 0)
(9.39352 6.03995 0)
(9.4778 6.60194 0)
(9.61274 7.21251 0)
(9.81518 7.87136 0)
(10.1079 8.5715 0)
(10.4997 9.29834 0)
(11.0576 10.0418 0)
(11.8513 10.6889 0)
(9.99792 0.154952 0)
(9.99101 0.308002 0)
(9.97884 0.461362 0)
(9.96212 0.617037 0)
(9.9415 0.776693 0)
(9.91746 0.941837 0)
(9.8904 1.1139 0)
(9.86082 1.29428 0)
(9.82928 1.48429 0)
(9.79641 1.68526 0)
(9.76293 1.89847 0)
(9.72964 2.12524 0)
(9.69747 2.3669 0)
(9.6675 2.62484 0)
(9.64097 2.90049 0)
(9.61936 3.19539 0)
(9.60447 3.51121 0)
(9.59847 3.84972 0)
(9.60404 4.21285 0)
(9.62458 4.60264 0)
(9.66441 5.02121 0)
(9.72904 5.47057 0)
(9.82557 5.95236 0)
(9.96295 6.46729 0)
(10.1523 7.0143 0)
(10.4066 7.58955 0)
(10.7433 8.18495 0)
(11.174 8.78584 0)
(11.7219 9.38065 0)
(12.476 9.89445 0)
(9.99845 0.157525 0)
(9.9933 0.313092 0)
(9.98427 0.468883 0)
(9.97194 0.626873 0)
(9.9569 0.788696 0)
(9.93962 0.955819 0)
(9.92055 1.12963 0)
(9.90022 1.31144 0)
(9.87925 1.50253 0)
(9.85834 1.70412 0)
(9.83826 1.91739 0)
(9.81994 2.14353 0)
(9.8044 2.38371 0)
(9.79286 2.63912 0)
(9.7867 2.91096 0)
(9.7876 3.20046 0)
(9.79752 3.50886 0)
(9.81882 3.83741 0)
(9.85437 4.18734 0)
(9.90766 4.55978 0)
(9.98297 4.95562 0)
(10.0855 5.37536 0)
(10.2217 5.81874 0)
(10.399 6.28431 0)
(10.6263 6.76883 0)
(10.9133 7.26654 0)
(11.2713 7.76824 0)
(11.7082 8.25836 0)
(12.225 8.72021 0)
(12.9021 9.11222 0)
(9.99898 0.159394 0)
(9.9956 0.316777 0)
(9.98971 0.474284 0)
(9.98176 0.633847 0)
(9.97229 0.797055 0)
(9.96174 0.965321 0)
(9.9506 1.13997 0)
(9.93943 1.32225 0)
(9.92888 1.51335 0)
(9.9197 1.71438 0)
(9.91273 1.92641 0)
(9.90895 2.15048 0)
(9.90948 2.38759 0)
(9.91559 2.63869 0)
(9.92879 2.90473 0)
(9.95081 3.18659 0)
(9.9837 3.4851 0)
(10.0299 3.80097 0)
(10.0921 4.13478 0)
(10.1738 4.48681 0)
(10.2789 4.85699 0)
(10.4121 5.2446 0)
(10.5785 5.64809 0)
(10.7843 6.06465 0)
(11.0357 6.48979 0)
(11.3393 6.91683 0)
(11.7012 7.33642 0)
(12.1255 7.73513 0)
(12.6062 8.09836 0)
(13.2128 8.40553 0)
(9.99951 0.160525 0)
(9.99789 0.31899 0)
(9.9951 0.477468 0)
(9.99151 0.637833 0)
(9.98753 0.801617 0)
(9.98362 0.970171 0)
(9.98028 1.14475 0)
(9.97808 1.32651 0)
(9.97769 1.51655 0)
(9.97991 1.71586 0)
(9.98559 1.92539 0)
(9.99577 2.146 0)
(10.0116 2.37851 0)
(10.0344 2.62366 0)
(10.0656 2.88209 0)
(10.1071 3.15437 0)
(10.1608 3.44091 0)
(10.2291 3.74195 0)
(10.3145 4.05747 0)
(10.4202 4.38711 0)
(10.5495 4.72999 0)
(10.7063 5.08461 0)
(10.8948 5.44857 0)
(11.1192 5.81836 0)
(11.3839 6.18907 0)
(11.6927 6.55414 0)
(12.0484 6.90529 0)
(12.4525 7.23217 0)
(12.8976 7.52361 0)
(13.4417 7.76824 0)
(10 0.160889 0)
(10.0001 0.319677 0)
(10.0004 0.478357 0)
(10.0011 0.638731 0)
(10.0025 0.802265 0)
(10.0051 0.970237 0)
(10.0093 1.14382 0)
(10.0158 1.32408 0)
(10.0252 1.51201 0)
(10.0384 1.70847 0)
(10.0561 1.91428 0)
(10.0795 2.13014 0)
(10.1097 2.35666 0)
(10.1479 2.59436 0)
(10.1958 2.84362 0)
(10.2548 3.10468 0)
(10.327 3.37762 0)
(10.4144 3.66223 0)
(10.5195 3.95805 0)
(10.6448 4.26419 0)
(10.7931 4.57926 0)
(10.9674 4.90126 0)
(11.1708 5.22737 0)
(11.4062 5.5539 0)
(11.6762 5.87609 0)
(11.9827 6.18807 0)
(12.3266 6.48297 0)
(12.7075 6.75293 0)
(13.1179 6.98958 0)
(13.6066 7.18603 0)
(10.0005 0.160466 0)
(10.0023 0.318794 0)
(10.0056 0.476889 0)
(10.0104 0.636467 0)
(10.0171 0.798917 0)
(10.0259 0.965436 0)
(10.0375 1.13711 0)
(10.0523 1.31491 0)
(10.0711 1.4997 0)
(10.0946 1.69224 0)
(10.1237 1.89319 0)
(10.1594 2.10309 0)
(10.2028 2.32237 0)
(10.2552 2.55132 0)
(10.318 2.79009 0)
(10.3926 3.03866 0)
(10.4808 3.29677 0)
(10.5845 3.56391 0)
(10.7057 3.83926 0)
(10.8465 4.12158 0)
(11.009 4.40918 0)
(11.1956 4.69981 0)
(11.4082 4.99058 0)
(11.6487 5.27791 0)
(11.9184 5.5575 0)
(12.2178 5.82437 0)
(12.5466 6.07296 0)
(12.9035 6.29737 0)
(13.2812 6.49154 0)
(13.7219 6.65127 0)
(10.001 0.159239 0)
(10.0044 0.316315 0)
(10.0106 0.473025 0)
(10.0194 0.630995 0)
(10.0311 0.791525 0)
(10.0459 0.95573 0)
(10.0645 1.1246 0)
(10.0872 1.299 0)
(10.1148 1.47968 0)
(10.1481 1.66729 0)
(10.1877 1.86233 0)
(10.2348 2.06519 0)
(10.2903 2.27613 0)
(10.3553 2.49525 0)
(10.4313 2.72249 0)
(10.5194 2.95759 0)
(10.6213 3.20007 0)
(10.7384 3.44916 0)
(10.8724 3.70382 0)
(11.025 3.9626 0)
(11.1977 4.22368 0)
(11.3921 4.48477 0)
(11.6094 4.74309 0)
(11.8506 4.99539 0)
(12.116 5.23793 0)
(12.4054 5.46662 0)
(12.7176 5.67711 0)
(13.0509 5.86503 0)
(13.3989 6.02613 0)
(13.7983 6.15788 0)
(10.0015 0.157202 0)
(10.0065 0.312223 0)
(10.0154 0.466748 0)
(10.028 0.622297 0)
(10.0445 0.780083 0)
(10.065 0.941127 0)
(10.0901 1.10632 0)
(10.1203 1.27643 0)
(10.1561 1.45209 0)
(10.1983 1.63383 0)
(10.2477 1.82201 0)
(10.305 2.01689 0)
(10.3713 2.21857 0)
(10.4476 2.42698 0)
(10.5349 2.6419 0)
(10.6345 2.86289 0)
(10.7477 3.08928 0)
(10.8756 3.32016 0)
(11.0195 3.55434 0)
(11.1806 3.79032 0)
(11.36 4.02624 0)
(11.5587 4.25992 0)
(11.7772 4.48882 0)
(12.0158 4.71009 0)
(12.2744 4.9206 0)
(12.552 5.11708 0)
(12.8473 5.29618 0)
(13.1583 5.45474 0)
(13.4795 5.58984 0)
(13.8435 5.69995 0)
(10.0019 0.154354 0)
(10.0084 0.306519 0)
(10.0199 0.45806 0)
(10.0362 0.610388 0)
(10.0571 0.76462 0)
(10.083 0.921682 0)
(10.1142 1.08237 0)
(10.1513 1.24734 0)
(10.1947 1.41714 0)
(10.2451 1.59216 0)
(10.3031 1.77265 0)
(10.3696 1.95875 0)
(10.4454 2.15042 0)
(10.5314 2.34746 0)
(10.6285 2.5495 0)
(10.7376 2.756 0)
(10.8598 2.96616 0)
(10.9961 3.17899 0)
(11.1472 3.39326 0)
(11.314 3.60746 0)
(11.4973 3.81982 0)
(11.6974 4.02836 0)
(11.9144 4.23082 0)
(12.1483 4.42477 0)
(12.3984 4.60768 0)
(12.6635 4.77695 0)
(12.9423 4.9301 0)
(13.2325 5.06485 0)
(13.5298 5.1792 0)
(13.8632 5.27229 0)
(10.0024 0.1507 0)
(10.0102 0.299216 0)
(10.0241 0.446985 0)
(10.0438 0.595307 0)
(10.0689 0.745199 0)
(10.0998 0.897494 0)
(10.1366 1.05289 0)
(10.18 1.21195 0)
(10.2303 1.37511 0)
(10.288 1.54266 0)
(10.3538 1.71475 0)
(10.4284 1.8914 0)
(10.5124 2.07247 0)
(10.6066 2.25766 0)
(10.7118 2.44651 0)
(10.8286 2.63837 0)
(10.9578 2.83242 0)
(11.1002 3.02763 0)
(11.2563 3.22276 0)
(11.4265 3.41641 0)
(11.6112 3.60694 0)
(11.8105 3.79258 0)
(12.0242 3.9714 0)
(12.2518 4.14139 0)
(12.4925 4.30051 0)
(12.745 4.44677 0)
(13.0079 4.57832 0)
(13.2792 4.69355 0)
(13.5551 4.79113 0)
(13.862 4.87063 0)
(10.0027 0.146252 0)
(10.0119 0.290339 0)
(10.0281 0.433567 0)
(10.0508 0.57712 0)
(10.0798 0.721918 0)
(10.1152 0.8687 0)
(10.1572 1.01807 0)
(10.2063 1.1705 0)
(10.2627 1.32633 0)
(10.327 1.48576 0)
(10.3996 1.64885 0)
(10.4811 1.81552 0)
(10.5721 1.98557 0)
(10.6731 2.15861 0)
(10.7848 2.33412 0)
(10.9076 2.51142 0)
(11.0421 2.68966 0)
(11.1887 2.86784 0)
(11.3478 3.0448 0)
(11.5194 3.21921 0)
(11.7038 3.38965 0)
(11.9007 3.55455 0)
(12.1096 3.71231 0)
(12.33 3.8613 0)
(12.5609 3.99989 0)
(12.801 4.12659 0)
(13.0489 4.24004 0)
(13.3029 4.33912 0)
(13.5597 4.42296 0)
(13.8436 4.4914 0)
(10.0031 0.141031 0)
(10.0134 0.279927 0)
(10.0317 0.417867 0)
(10.0573 0.555919 0)
(10.0898 0.694905 0)
(10.1293 0.835473 0)
(10.176 0.978139 0)
(10.2301 1.12329 0)
(10.2919 1.27118 0)
(10.3619 1.42193 0)
(10.4404 1.57553 0)
(10.5278 1.73183 0)
(10.6246 1.89056 0)
(10.7311 2.0513 0)
(10.8478 2.2135 0)
(10.9751 2.37646 0)
(11.1132 2.53936 0)
(11.2625 2.70125 0)
(11.4229 2.86105 0)
(11.5945 3.01759 0)
(11.7771 3.16961 0)
(11.9703 3.3158 0)
(12.1736 3.45483 0)
(12.3863 3.58538 0)
(12.6073 3.70621 0)
(12.8354 3.81619 0)
(13.0693 3.91435 0)
(13.3076 3.99992 0)
(13.5474 4.07234 0)
(13.8112 4.13163 0)