/*--------------------------------*- C++ -*----------------------------------*\
| =========                 |                                                 |
| \\      /  F ield         | OpenFOAM: The Open Source CFD Toolbox           |
|  \\    /   O peration     | Version:  2006                                  |
|   \\  /    A nd           | Website:  www.openfoam.com                      |
|    \\/     M anipulation  |                                                 |
\*---------------------------------------------------------------------------*/
FoamFile
{
    version     2.0;
    format      ascii;
    class       volVectorField;
    location    "0.4";
    object      cellDisplacement;
}
// * * * * * * * * * * * * * * * * * * * * * * * * * * * * * * * * * * * * * //

dimensions      [0 1 0 0 0 0 0];


internalField   nonuniform List<vector> 
2790
(
(7.93408e-05 0 1.26554e-07)
(0.000233417 0 3.69406e-07)
(0.000403522 0 6.28073e-07)
(0.000609647 0 9.26249e-07)
(0.00086899 0 1.28206e-06)
(0.00119788 0 1.71031e-06)
(0.00161212 0 2.22431e-06)
(0.0021268 0 2.8386e-06)
(0.00275569 0 3.5732e-06)
(0.0035102 0 4.46043e-06)
(0.00439814 0 5.55515e-06)
(0.00542203 0 6.94919e-06)
(0.00657733 0 8.79076e-06)
(0.00785043 0 1.13086e-05)
(0.00921673 0 1.48399e-05)
(0.0106398 0 1.98628e-05)
(0.0120703 0 2.70574e-05)
(0.0134448 0 3.73431e-05)
(0.014686 0 5.19245e-05)
(0.015706 0 7.2292e-05)
(0.0164103 0 0.00010044)
(0.0167021 0 0.000138894)
(0.0164903 0 0.000190923)
(0.0157004 0 0.000260886)
(0.0142869 0 0.000354813)
(0.0122529 0 0.000481238)
(0.00966774 0 0.000650972)
(0.00670487 0 0.000874801)
(0.00372673 0 0.00114452)
(0.00156099 0 0.0013551)
(7.64363e-05 0 3.76128e-07)
(0.00022566 0 1.09867e-06)
(0.00039136 0 1.86936e-06)
(0.000592633 0 2.75846e-06)
(0.000846486 0 3.81981e-06)
(0.00116917 0 5.09701e-06)
(0.00157654 0 6.62875e-06)
(0.00208384 0 8.45634e-06)
(0.00270514 0 1.06361e-05)
(0.00345237 0 1.32592e-05)
(0.00433405 0 1.64812e-05)
(0.00535372 0 2.05642e-05)
(0.00650819 0 2.59344e-05)
(0.00778551 0 3.32527e-05)
(0.00916281 0 4.34958e-05)
(0.010606 0 5.80378e-05)
(0.012069 0 7.88511e-05)
(0.013492 0 0.000108597)
(0.0148014 0 0.000150784)
(0.0159129 0 0.00020959)
(0.0167379 0 0.000290697)
(0.017185 0 0.000401085)
(0.0171697 0 0.000549494)
(0.0166247 0 0.000746971)
(0.0155134 0 0.00100759)
(0.0138584 0 0.00134989)
(0.0117579 0 0.00179148)
(0.00942872 0 0.00234175)
(0.00728666 0 0.00297457)
(0.00610255 0 0.00354875)
(7.5644e-05 0 6.19042e-07)
(0.000223738 0 1.80961e-06)
(0.000388394 0 3.08053e-06)
(0.000588576 0 4.54621e-06)
(0.000841289 0 6.29395e-06)
(0.00116287 0 8.3932e-06)
(0.00156936 0 1.09035e-05)
(0.00207632 0 1.38859e-05)
(0.00269833 0 1.74226e-05)
(0.00344805 0 2.16472e-05)
(0.00433507 0 2.67922e-05)
(0.00536442 0 3.32559e-05)
(0.00653497 0 4.16935e-05)
(0.00783751 0 5.31332e-05)
(0.00925149 0 6.91068e-05)
(0.0107463 0 9.17113e-05)
(0.0122822 0 0.000124042)
(0.0138054 0 0.000170237)
(0.015246 0 0.000235499)
(0.0165289 0 0.000326503)
(0.0175757 0 0.00045175)
(0.0183038 0 0.000621374)
(0.0186406 0 0.000847544)
(0.0185337 0 0.00114456)
(0.0179635 0 0.00152982)
(0.0169642 0 0.00202095)
(0.0156747 0 0.00263025)
(0.0143255 0 0.00334842)
(0.0132825 0 0.00410996)
(0.0130607 0 0.00470521)
(7.49729e-05 0 8.5437e-07)
(0.000221994 0 2.49851e-06)
(0.000385672 0 4.2526e-06)
(0.000584894 0 6.27158e-06)
(0.000836702 0 8.67214e-06)
(0.00115759 0 1.15441e-05)
(0.00156386 0 1.49601e-05)
(0.00207157 0 1.89896e-05)
(0.002696 0 2.37238e-05)
(0.00345086 0 2.93143e-05)
(0.00434722 0 3.60346e-05)
(0.00539224 0 4.43671e-05)
(0.00658772 0 5.51228e-05)
(0.0079289 0 6.95967e-05)
(0.0093969 0 8.96735e-05)
(0.0109665 0 0.000118026)
(0.0126072 0 0.000158573)
(0.0142716 0 0.00021644)
(0.0159002 0 0.000298133)
(0.0174301 0 0.000412089)
(0.018791 0 0.000568326)
(0.0199139 0 0.000778559)
(0.0207395 0 0.00105596)
(0.0212307 0 0.00141445)
(0.0213872 0 0.00186725)
(0.0212507 0 0.00242383)
(0.0209536 0 0.0030794)
(0.0207119 0 0.00379565)
(0.0207786 0 0.00447461)
(0.0213827 0 0.00491078)
(7.43819e-05 0 1.07965e-06)
(0.000220402 0 3.15752e-06)
(0.000383175 0 5.37092e-06)
(0.000581552 0 7.91064e-06)
(0.00083265 0 1.09173e-05)
(0.00115316 0 1.44939e-05)
(0.00155976 0 1.87158e-05)
(0.00206909 0 2.36465e-05)
(0.00269731 0 2.93643e-05)
(0.00345944 0 3.60076e-05)
(0.0043684 0 4.38452e-05)
(0.00543386 0 5.33774e-05)
(0.00666108 0 6.5474e-05)
(0.00804981 0 8.15512e-05)
(0.00958535 0 0.000103659)
(0.0112502 0 0.000134849)
(0.0130227 0 0.000179477)
(0.0148652 0 0.000243241)
(0.0167308 0 0.000333421)
(0.0185669 0 0.000459035)
(0.0203165 0 0.000630611)
(0.0219231 0 0.000859824)
(0.0233399 0 0.00115859)
(0.0245385 0 0.00153733)
(0.0255222 0 0.00200198)
(0.0263366 0 0.00254898)
(0.0270818 0 0.00315318)
(0.0278834 0 0.0037538)
(0.028855 0 0.00424092)
(0.0299819 0 0.0044636)
(7.38509e-05 0 1.29262e-06)
(0.000218945 0 3.77954e-06)
(0.000380882 0 6.42239e-06)
(0.000578508 0 9.44222e-06)
(0.000829043 0 1.29971e-05)
(0.00114942 0 1.71946e-05)
(0.00155673 0 2.21012e-05)
(0.00206829 0 2.77572e-05)
(0.00270129 0 3.4204e-05)
(0.00347223 0 4.15313e-05)
(0.00439609 0 4.99517e-05)
(0.00548538 0 5.99096e-05)
(0.00674913 0 7.22281e-05)
(0.00819188 0 8.82959e-05)
(0.00980583 0 0.000110184)
(0.0115818 0 0.000141004)
(0.0135061 0 0.000185184)
(0.0155534 0 0.000248512)
(0.0176892 0 0.000338355)
(0.0198743 0 0.000463565)
(0.0220646 0 0.000634138)
(0.0242157 0 0.000860508)
(0.026289 0 0.00115201)
(0.0282586 0 0.00151437)
(0.0301177 0 0.00194567)
(0.0318872 0 0.00243258)
(0.0336121 0 0.00293583)
(0.0352912 0 0.00338605)
(0.0368948 0 0.00368776)
(0.0382515 0 0.00375407)
(7.33695e-05 0 1.49138e-06)
(0.000217612 0 4.35868e-06)
(0.000378773 0 7.39624e-06)
(0.000575717 0 1.08491e-05)
(0.00082578 0 1.48857e-05)
(0.00114615 0 1.9609e-05)
(0.00155439 0 2.50641e-05)
(0.00206853 0 3.12505e-05)
(0.00270685 0 3.81473e-05)
(0.00348742 0 4.57595e-05)
(0.00442745 0 5.41918e-05)
(0.00554246 0 6.37583e-05)
(0.00684532 0 7.51303e-05)
(0.00834508 0 8.95183e-05)
(0.0100446 0 0.000108872)
(0.0119408 0 0.000136085)
(0.014028 0 0.000175267)
(0.0162957 0 0.00023186)
(0.0187204 0 0.000312773)
(0.0212781 0 0.000426051)
(0.0239374 0 0.000580397)
(0.0266631 0 0.000784383)
(0.0294223 0 0.00104442)
(0.0321838 0 0.00136212)
(0.0349229 0 0.00173006)
(0.0376194 0 0.00212911)
(0.0402144 0 0.002519)
(0.0426139 0 0.00283806)
(0.0446574 0 0.00301796)
(0.0460954 0 0.00301816)
(7.29333e-05 0 1.67446e-06)
(0.000216393 0 4.89047e-06)
(0.000376832 0 8.28443e-06)
(0.000573133 0 1.21189e-05)
(0.000822759 0 1.6565e-05)
(0.00114316 0 2.17122e-05)
(0.00155235 0 2.75717e-05)
(0.0020691 0 3.40855e-05)
(0.00271279 0 4.11467e-05)
(0.00350311 0 4.86416e-05)
(0.0044595 0 5.65197e-05)
(0.00560054 0 6.48979e-05)
(0.00694315 0 7.42028e-05)
(0.0085016 0 8.53462e-05)
(0.0102863 0 9.99255e-05)
(0.0123035 0 0.000120454)
(0.0145601 0 0.000150502)
(0.0170501 0 0.000194808)
(0.019766 0 0.000259256)
(0.0227006 0 0.00035076)
(0.0258336 0 0.000476207)
(0.029135 0 0.000642282)
(0.0325757 0 0.000852769)
(0.0361135 0 0.00110673)
(0.0397021 0 0.0013937)
(0.0432631 0 0.00169381)
(0.0466436 0 0.00197453)
(0.0496611 0 0.00219011)
(0.0520612 0 0.00229782)
(0.0535562 0 0.00227889)
(7.25411e-05 0 1.84089e-06)
(0.000215287 0 5.37192e-06)
(0.000375047 0 9.08173e-06)
(0.000570721 0 1.32436e-05)
(0.000819884 0 1.80245e-05)
(0.00114023 0 2.34914e-05)
(0.00155022 0 2.96108e-05)
(0.00206932 0 3.6252e-05)
(0.00271798 0 4.3202e-05)
(0.00351742 0 5.02002e-05)
(0.00448928 0 5.70015e-05)
(0.00565511 0 6.34717e-05)
(0.00703579 0 6.97195e-05)
(0.00865089 0 7.62597e-05)
(0.010518 0 8.41999e-05)
(0.0126524 0 9.54354e-05)
(0.0150681 0 0.000112804)
(0.0177719 0 0.000140204)
(0.0207723 0 0.000182271)
(0.0240721 0 0.000244579)
(0.0276564 0 0.000332419)
(0.0315069 0 0.000450112)
(0.0355967 0 0.000599623)
(0.0398787 0 0.000778613)
(0.0442647 0 0.000977685)
(0.0486104 0 0.00117891)
(0.0526975 0 0.00135883)
(0.0562641 0 0.00148758)
(0.058978 0 0.00153877)
(0.0605177 0 0.00150076)
(7.21951e-05 0 1.99019e-06)
(0.000214299 0 5.80159e-06)
(0.000373418 0 9.78575e-06)
(0.000568459 0 1.42203e-05)
(0.000817086 0 1.92614e-05)
(0.00113721 0 2.4946e-05)
(0.00154767 0 3.11866e-05)
(0.00206858 0 3.77683e-05)
(0.00272134 0 4.43563e-05)
(0.00352861 0 5.05232e-05)
(0.00451401 0 5.58015e-05)
(0.00570186 0 5.97691e-05)
(0.00711675 0 6.21674e-05)
(0.00878311 0 6.30506e-05)
(0.0107249 0 6.29527e-05)
(0.0129653 0 6.30577e-05)
(0.0155266 0 6.53323e-05)
(0.0184281 0 7.25828e-05)
(0.0216871 0 8.83163e-05)
(0.0253157 0 0.000116634)
(0.0293124 0 0.00016164)
(0.0336717 0 0.000225894)
(0.0383621 0 0.00031041)
(0.0433223 0 0.000412377)
(0.0484231 0 0.000525258)
(0.0534762 0 0.000635992)
(0.0582079 0 0.000728112)
(0.0622705 0 0.000782936)
(0.0652551 0 0.000782081)
(0.0668043 0 0.000716888)
(7.19004e-05 0 2.12236e-06)
(0.000213442 0 6.17952e-06)
(0.000371961 0 1.03969e-05)
(0.000566347 0 1.50505e-05)
(0.000814323 0 2.02799e-05)
(0.00113397 0 2.6086e-05)
(0.00154444 0 3.23207e-05)
(0.00206636 0 3.8677e-05)
(0.00272199 0 4.46896e-05)
(0.00353518 0 4.97524e-05)
(0.00453132 0 5.31619e-05)
(0.00573709 0 5.41903e-05)
(0.00718032 0 5.21907e-05)
(0.00888971 0 4.67302e-05)
(0.0108946 0 3.77407e-05)
(0.0132249 0 2.56692e-05)
(0.0159103 0 1.15958e-05)
(0.0189797 0 -2.71737e-06)
(0.0224598 0 -1.48963e-05)
(0.0263725 0 -2.21049e-05)
(0.0307289 0 -2.14835e-05)
(0.0355267 0 -1.09454e-05)
(0.0407353 0 1.04241e-05)
(0.046281 0 4.13376e-05)
(0.0520204 0 7.79555e-05)
(0.0577249 0 0.00011304)
(0.0630618 0 0.000137047)
(0.0675973 0 0.000138126)
(0.0708293 0 0.000100267)
(0.0723576 0 1.46042e-05)
(7.16659e-05 0 2.23786e-06)
(0.00021274 0 6.50719e-06)
(0.000370706 0 1.09181e-05)
(0.000564413 0 1.57398e-05)
(0.000811603 0 2.10905e-05)
(0.00113046 0 2.69308e-05)
(0.00154036 0 3.3048e-05)
(0.00206234 0 3.904e-05)
(0.00271929 0 4.43082e-05)
(0.00353604 0 4.80666e-05)
(0.00453936 0 4.93756e-05)
(0.00575789 0 4.7204e-05)
(0.00722207 0 4.05221e-05)
(0.008964 0 2.84216e-05)
(0.0110174 0 1.02534e-05)
(0.0134173 0 -1.42341e-05)
(0.0161999 0 -4.47793e-05)
(0.0194011 0 -8.05457e-05)
(0.0230556 0 -0.000120134)
(0.0271933 0 -0.000161669)
(0.0318348 0 -0.00020304)
(0.0369837 0 -0.000242253)
(0.042614 0 -0.000277659)
(0.0486515 0 -0.000308277)
(0.0549478 0 -0.000333915)
(0.061254 0 -0.000355452)
(0.0671919 0 -0.00037522)
(0.07224 0 -0.000399704)
(0.0757669 0 -0.000445684)
(0.0772893 0 -0.000528811)
(7.15045e-05 0 2.33758e-06)
(0.000212228 0 6.78729e-06)
(0.000369707 0 1.13545e-05)
(0.000562722 0 1.62972e-05)
(0.000808986 0 2.17084e-05)
(0.00112671 0 2.75065e-05)
(0.00153541 0 3.3413e-05)
(0.00205636 0 3.89318e-05)
(0.00271288 0 4.33348e-05)
(0.00353049 0 4.56645e-05)
(0.00453696 0 4.47583e-05)
(0.00576235 0 3.93022e-05)
(0.00723899 0 2.7914e-05)
(0.0090015 0 9.2539e-06)
(0.0110867 0 -1.7846e-05)
(0.0135335 0 -5.42467e-05)
(0.0163824 0 -0.00010038)
(0.0196747 0 -0.00015616)
(0.0234506 0 -0.000220934)
(0.0277465 0 -0.000293483)
(0.0325898 0 -0.000372057)
(0.0379914 0 -0.000454429)
(0.043933 0 -0.000537806)
(0.05035 0 -0.000618655)
(0.0571056 0 -0.000692381)
(0.0639583 0 -0.000753234)
(0.0705189 0 -0.000795403)
(0.0761983 0 -0.000818405)
(0.0801957 0 -0.000839693)
(0.0818288 0 -0.000891324)
(7.1434e-05 0 2.42271e-06)
(0.000211956 0 7.02349e-06)
(0.000369043 0 1.1713e-05)
(0.000561376 0 1.6734e-05)
(0.000806593 0 2.21526e-05)
(0.00112286 0 2.78436e-05)
(0.0015297 0 3.34651e-05)
(0.00204848 0 3.8432e-05)
(0.00270274 0 4.1897e-05)
(0.00351835 0 4.27469e-05)
(0.00452368 0 3.96213e-05)
(0.00574963 0 3.09593e-05)
(0.00722971 0 1.50765e-05)
(0.00900005 0 -9.72976e-06)
(0.0110994 0 -4.50534e-05)
(0.0135689 0 -9.22422e-05)
(0.0164517 0 -0.000152262)
(0.0197921 0 -0.000225576)
(0.0236337 0 -0.000312043)
(0.0280167 0 -0.000410823)
(0.0329732 0 -0.000520276)
(0.0385201 0 -0.000637794)
(0.0446488 0 -0.000759498)
(0.0513097 0 -0.000879735)
(0.0583913 0 -0.00099039)
(0.0656903 0 -0.00108024)
(0.0728619 0 -0.00113537)
(0.0793258 0 -0.00114468)
(0.0841319 0 -0.00111918)
(0.0861841 0 -0.00111454)
(7.14777e-05 0 2.49475e-06)
(0.000211987 0 7.2202e-06)
(0.000368817 0 1.20015e-05)
(0.00056052 0 1.70633e-05)
(0.000804608 0 2.24434e-05)
(0.00111913 0 2.79746e-05)
(0.0015235 0 3.32551e-05)
(0.00203901 0 3.76199e-05)
(0.00268918 0 4.01173e-05)
(0.00349995 0 3.95016e-05)
(0.00449983 0 3.42484e-05)
(0.00572002 0 2.25975e-05)
(0.00719446 0 2.6268e-06)
(0.00895984 0 -2.76434e-05)
(0.0110556 0 -7.01226e-05)
(0.0135237 0 -0.000126505)
(0.0164081 0 -0.000198118)
(0.0197538 0 -0.000285774)
(0.0236054 0 -0.000389622)
(0.0280041 0 -0.000508992)
(0.0329837 0 -0.000642209)
(0.0385644 0 -0.000786337)
(0.0447443 0 -0.000936806)
(0.0514875 0 -0.00108689)
(0.0587092 0 -0.00122704)
(0.0662556 0 -0.00134407)
(0.0738702 0 -0.00142038)
(0.0811094 0 -0.00143457)
(0.0871242 0 -0.00137158)
(0.0904886 0 -0.00127031)
(0.00147206 0 -0.00150511)
(0.00451045 0 -0.0014326)
(0.00868867 0 -0.00123492)
(0.0127665 0 -0.00103793)
(0.0161672 0 -0.000865588)
(0.0186688 0 -0.000717204)
(0.0202438 0 -0.000590597)
(0.0209612 0 -0.000480434)
(0.0209435 0 -0.000385717)
(0.0203271 0 -0.000305221)
(0.0192489 0 -0.000237709)
(0.0178372 0 -0.00018191)
(0.0162061 0 -0.000136246)
(0.0144562 0 -0.000100061)
(0.0126735 0 -7.17975e-05)
(0.010926 0 -5.01596e-05)
(0.00926532 0 -3.39406e-05)
(0.00772915 0 -2.21248e-05)
(0.00634322 0 -1.37723e-05)
(0.00512135 0 -8.06139e-06)
(0.00406702 0 -4.30424e-06)
(0.00317565 0 -1.94743e-06)
(0.00243671 0 -5.60229e-07)
(0.00183554 0 1.81733e-07)
(0.00135481 0 5.1401e-07)
(0.000975839 0 6.006e-07)
(0.000679307 0 5.49858e-07)
(0.00044562 0 4.28315e-07)
(0.000254645 0 2.72092e-07)
(8.48933e-05 0 9.60537e-08)
(0.0057739 0 -0.00414494)
(0.00824712 0 -0.0038941)
(0.0117015 0 -0.00343635)
(0.0151293 0 -0.00294443)
(0.0179992 0 -0.00248721)
(0.0200706 0 -0.00207693)
(0.0212956 0 -0.0017149)
(0.0217355 0 -0.00139901)
(0.0214999 0 -0.00112572)
(0.0207133 0 -0.000892345)
(0.0195033 0 -0.000695903)
(0.0179924 0 -0.000533236)
(0.0162869 0 -0.000400605)
(0.014482 0 -0.000294401)
(0.0126619 0 -0.000211265)
(0.0108906 0 -0.000147568)
(0.00921585 0 -9.97675e-05)
(0.00767266 0 -6.49582e-05)
(0.0062853 0 -4.03634e-05)
(0.00506592 0 -2.35573e-05)
(0.00401651 0 -1.25121e-05)
(0.00313136 0 -5.59478e-06)
(0.00239914 0 -1.53423e-06)
(0.00180462 0 6.27075e-07)
(0.00133016 0 1.58426e-06)
(0.000956871 0 1.821e-06)
(0.000665423 0 1.65646e-06)
(0.000436304 0 1.28621e-06)
(0.000249538 0 8.15848e-07)
(8.3624e-05 0 2.87993e-07)
(0.0124658 0 -0.00606783)
(0.0144515 0 -0.00575662)
(0.016993 0 -0.00517503)
(0.0194643 0 -0.00451145)
(0.0214807 0 -0.00386096)
(0.022829 0 -0.00325616)
(0.0234575 0 -0.00270637)
(0.0234163 0 -0.00221875)
(0.0227926 0 -0.00179239)
(0.0216955 0 -0.00142527)
(0.0202392 0 -0.00111425)
(0.0185343 0 -0.000855334)
(0.0166803 0 -0.000643912)
(0.0147629 0 -0.000473893)
(0.0128579 0 -0.00034033)
(0.0110253 0 -0.000237843)
(0.00930588 0 -0.000160954)
(0.00772938 0 -0.000104668)
(0.00631937 0 -6.49013e-05)
(0.00508525 0 -3.77362e-05)
(0.00402657 0 -1.98966e-05)
(0.00313586 0 -8.74282e-06)
(0.00240051 0 -2.21606e-06)
(0.0018044 0 1.23601e-06)
(0.00132929 0 2.74112e-06)
(0.000955892 0 3.08396e-06)
(0.000664621 0 2.78198e-06)
(0.000435805 0 2.15149e-06)
(0.000249351 0 1.36221e-06)
(8.35961e-05 0 4.80795e-07)
(0.0206302 0 -0.00730435)
(0.0220576 0 -0.00699476)
(0.0236501 0 -0.00640107)
(0.0250683 0 -0.00567835)
(0.0260756 0 -0.00492655)
(0.026538 0 -0.00420008)
(0.026416 0 -0.00352252)
(0.0257459 0 -0.00290762)
(0.0246037 0 -0.00236151)
(0.0230847 0 -0.00188585)
(0.0212897 0 -0.00147935)
(0.0193159 0 -0.00113856)
(0.0172518 0 -0.00085847)
(0.0151741 0 -0.000632783)
(0.0131481 0 -0.00045494)
(0.0112251 0 -0.000318078)
(0.00944212 0 -0.000215401)
(0.00781989 0 -0.000140075)
(0.00637608 0 -8.66525e-05)
(0.0051197 0 -5.0152e-05)
(0.00404659 0 -2.61925e-05)
(0.00314682 0 -1.12363e-05)
(0.00240601 0 -2.5158e-06)
(0.0018068 0 2.06084e-06)
(0.00133006 0 4.01571e-06)
(0.000955927 0 4.40875e-06)
(0.000664421 0 3.93878e-06)
(0.000435629 0 3.03206e-06)
(0.000249288 0 1.91562e-06)
(8.35958e-05 0 6.75787e-07)
(0.0292014 0 -0.0079603)
(0.0301467 0 -0.00771425)
(0.0309083 0 -0.00718074)
(0.0313352 0 -0.00647254)
(0.031328 0 -0.00569001)
(0.0308598 0 -0.00490361)
(0.0299124 0 -0.00414939)
(0.0285311 0 -0.00344994)
(0.0267898 0 -0.00281847)
(0.0247753 0 -0.00226155)
(0.0225773 0 -0.00178093)
(0.020281 0 -0.00137485)
(0.017963 0 -0.001039)
(0.0156891 0 -0.000767172)
(0.0135141 0 -0.000552187)
(0.0114796 0 -0.000386214)
(0.00961465 0 -0.000261299)
(0.00793501 0 -0.000169793)
(0.00645038 0 -0.000104721)
(0.00516618 0 -6.0223e-05)
(0.00407464 0 -3.10284e-05)
(0.00316304 0 -1.28438e-05)
(0.00241492 0 -2.29328e-06)
(0.00181138 0 3.18381e-06)
(0.00133222 0 5.4546e-06)
(0.000956839 0 5.82071e-06)
(0.000664759 0 5.14e-06)
(0.000435757 0 3.93428e-06)
(0.000249363 0 2.47881e-06)
(8.36332e-05 0 8.73677e-07)
(0.0375169 0 -0.00827435)
(0.0381386 0 -0.00809446)
(0.038244 0 -0.00763143)
(0.0378071 0 -0.0069642)
(0.0368645 0 -0.0061898)
(0.0354799 0 -0.00538396)
(0.0336973 0 -0.00459343)
(0.0315777 0 -0.00384569)
(0.0292016 0 -0.00316007)
(0.026654 0 -0.00254789)
(0.0240171 0 -0.00201436)
(0.0213662 0 -0.00156)
(0.0187669 0 -0.00118179)
(0.0162738 0 -0.000874092)
(0.0139316 0 -0.000629786)
(0.011772 0 -0.00044057)
(0.00981332 0 -0.00029774)
(0.00806641 0 -0.000192945)
(0.00653669 0 -0.00011849)
(0.005221 0 -6.75344e-05)
(0.00410833 0 -3.41339e-05)
(0.00318301 0 -1.33948e-05)
(0.0024263 0 -1.44429e-06)
(0.00181759 0 4.66643e-06)
(0.00133546 0 7.09281e-06)
(0.00095845 0 7.33896e-06)
(0.000665546 0 6.3956e-06)
(0.000436153 0 4.86302e-06)
(0.000249573 0 3.05385e-06)
(8.37114e-05 0 1.07503e-06)
(0.0454248 0 -0.0084517)
(0.0457992 0 -0.0082869)
(0.0453622 0 -0.00785985)
(0.0441715 0 -0.00722647)
(0.0423893 0 -0.00647518)
(0.0401391 0 -0.00567446)
(0.0375528 0 -0.00487461)
(0.0347078 0 -0.00410621)
(0.0316974 0 -0.00339206)
(0.0286096 0 -0.00274723)
(0.0255234 0 -0.00218007)
(0.0225065 0 -0.0016934)
(0.0196153 0 -0.00128581)
(0.0168925 0 -0.000952422)
(0.0143751 0 -0.000686744)
(0.012082 0 -0.000480221)
(0.0100243 0 -0.000323929)
(0.00820768 0 -0.000209173)
(0.00662948 0 -0.000127638)
(0.00528027 0 -7.1849e-05)
(0.00414507 0 -3.53487e-05)
(0.00320508 0 -1.27862e-05)
(0.00243913 0 9.45332e-08)
(0.00182481 0 6.54612e-06)
(0.0013394 0 8.95145e-06)
(0.000960564 0 8.97486e-06)
(0.000666681 0 7.71134e-06)
(0.000436777 0 5.82099e-06)
(0.000249909 0 3.64187e-06)
(8.38299e-05 0 1.28013e-06)
(0.0529564 0 -0.00852835)
(0.0530497 0 -0.00834628)
(0.0521023 0 -0.00792869)
(0.0502264 0 -0.00731873)
(0.0476819 0 -0.00659404)
(0.0446481 0 -0.00581184)
(0.041302 0 -0.00501921)
(0.0377696 0 -0.00424961)
(0.0341512 0 -0.00352633)
(0.0305406 0 -0.00286701)
(0.0270158 0 -0.00228242)
(0.0236396 0 -0.00177745)
(0.0204619 0 -0.00135237)
(0.0175127 0 -0.00100291)
(0.0148164 0 -0.000722964)
(0.0123909 0 -0.000505032)
(0.0102361 0 -0.000339815)
(0.00834989 0 -0.000218377)
(0.00672283 0 -0.000132083)
(0.00533998 0 -7.31006e-05)
(0.00418222 0 -3.46236e-05)
(0.00322756 0 -1.0985e-05)
(0.00245237 0 2.34372e-06)
(0.00183241 0 8.83458e-06)
(0.0013437 0 1.10367e-05)
(0.000962987 0 1.07313e-05)
(0.000668069 0 9.08836e-06)
(0.000437586 0 6.80851e-06)
(0.000250358 0 4.24289e-06)
(8.3987e-05 0 1.48896e-06)
(0.0600046 0 -0.00845234)
(0.0597901 0 -0.00827245)
(0.058351 0 -0.0078713)
(0.0558407 0 -0.00728598)
(0.052599 0 -0.00658928)
(0.0488637 0 -0.00583273)
(0.044826 0 -0.00505772)
(0.0406537 0 -0.00429788)
(0.0364676 0 -0.0035784)
(0.0323669 0 -0.00291796)
(0.0284293 0 -0.00232868)
(0.0247131 0 -0.00181686)
(0.0212603 0 -0.00138386)
(0.0180972 0 -0.00102683)
(0.0152357 0 -0.000739966)
(0.0126837 0 -0.00051592)
(0.0104368 0 -0.000345881)
(0.00848442 0 -0.000220817)
(0.00681093 0 -0.000131986)
(0.00539627 0 -7.1384e-05)
(0.00421727 0 -3.20152e-05)
(0.00324884 0 -8.02538e-06)
(0.00246501 0 5.28186e-06)
(0.00183981 0 1.15182e-05)
(0.00134801 0 1.33397e-05)
(0.000965543 0 1.26027e-05)
(0.000669626 0 1.05232e-05)
(0.000438549 0 7.82351e-06)
(0.00025091 0 4.8558e-06)
(8.41815e-05 0 1.70116e-06)
(0.0663863 0 -0.00823404)
(0.0659126 0 -0.00809086)
(0.0640301 0 -0.00772536)
(0.0609339 0 -0.00716988)
(0.0570472 0 -0.00650048)
(0.0526626 0 -0.00576888)
(0.0480051 0 -0.00501506)
(0.0432569 0 -0.00427166)
(0.038558 0 -0.00356433)
(0.0340143 0 -0.00291207)
(0.0297035 0 -0.00232763)
(0.02568 0 -0.00181803)
(0.0219792 0 -0.00138536)
(0.0186203 0 -0.00102757)
(0.0156095 0 -0.000739569)
(0.0129448 0 -0.000514196)
(0.0106151 0 -0.000342989)
(0.00860346 0 -0.000217059)
(0.00688853 0 -0.000127715)
(0.00544563 0 -6.6937e-05)
(0.00424793 0 -2.7675e-05)
(0.00326749 0 -4.00325e-06)
(0.00247618 0 8.84903e-06)
(0.00184649 0 1.45599e-05)
(0.00135207 0 1.58379e-05)
(0.000968091 0 1.45755e-05)
(0.000671291 0 1.2008e-05)
(0.000439645 0 8.86166e-06)
(0.000251566 0 5.47844e-06)
(8.44145e-05 0 1.91605e-06)
(0.0720247 0 -0.00796546)
(0.0713807 0 -0.00786995)
(0.0691107 0 -0.0075425)
(0.0654629 0 -0.00701179)
(0.0609654 0 -0.0063622)
(0.0559745 0 -0.00564973)
(0.0507492 0 -0.00491495)
(0.0454879 0 -0.0041897)
(0.0403393 0 -0.00349881)
(0.0354113 0 -0.0028607)
(0.0307796 0 -0.00228783)
(0.0264935 0 -0.00178729)
(0.022582 0 -0.00136144)
(0.0190577 0 -0.00100867)
(0.0159204 0 -0.000724317)
(0.0131607 0 -0.000501577)
(0.0107615 0 -0.000332322)
(0.0087004 0 -0.000207906)
(0.00695115 0 -0.000119809)
(0.00548513 0 -6.01162e-05)
(0.00427232 0 -2.18352e-05)
(0.00328232 0 9.32721e-07)
(0.00248519 0 1.29515e-05)
(0.00185206 0 1.79017e-05)
(0.00135566 0 1.84963e-05)
(0.000970546 0 1.6629e-05)
(0.000673039 0 1.3531e-05)
(0.000440876 0 9.91651e-06)
(0.000252333 0 6.10766e-06)
(8.46908e-05 0 2.13269e-06)
(0.0770172 0 -0.00775413)
(0.0762584 0 -0.00768626)
(0.0736051 0 -0.00737216)
(0.0693974 0 -0.00684507)
(0.0642978 0 -0.00619966)
(0.058734 0 -0.00549634)
(0.0529946 0 -0.00477565)
(0.0472865 0 -0.00406762)
(0.0417578 0 -0.00339504)
(0.0365125 0 -0.00277469)
(0.03162 0 -0.00221798)
(0.0271232 0 -0.00173143)
(0.0230446 0 -0.00131723)
(0.0193903 0 -0.000973887)
(0.0161542 0 -0.000696994)
(0.013321 0 -0.000480059)
(0.0108687 0 -0.000315288)
(0.00877012 0 -0.000194338)
(0.00699535 0 -0.000108938)
(0.0055125 0 -5.13705e-05)
(0.004289 0 -1.47919e-05)
(0.00329248 0 6.59081e-06)
(0.00249154 0 1.74676e-05)
(0.00185627 0 2.1468e-05)
(0.00135869 0 2.12689e-05)
(0.00097288 0 1.87363e-05)
(0.000674882 0 1.50767e-05)
(0.00044227 0 1.09798e-05)
(0.000253235 0 6.73944e-06)
(8.50196e-05 0 2.34984e-06)
(0.0815882 0 -0.00766204)
(0.0806613 0 -0.0075818)
(0.0775111 0 -0.00723662)
(0.0726732 0 -0.00668242)
(0.0669608 0 -0.0060229)
(0.0608608 0 -0.00531897)
(0.0546729 0 -0.00460801)
(0.0485966 0 -0.00391624)
(0.0427686 0 -0.00326316)
(0.0372818 0 -0.00266309)
(0.0321964 0 -0.00212579)
(0.0275472 0 -0.00165677)
(0.0233499 0 -0.00125773)
(0.019605 0 -0.000927071)
(0.0163011 0 -0.000660499)
(0.0134187 0 -0.000451776)
(0.0109314 0 -0.000293428)
(0.00880915 0 -0.000177443)
(0.00701884 0 -9.58557e-05)
(0.0055263 0 -4.12134e-05)
(0.00429711 0 -6.88732e-06)
(0.00329749 0 1.27476e-05)
(0.00249501 0 2.22546e-05)
(0.00185905 0 2.51698e-05)
(0.00136116 0 2.41018e-05)
(0.000975143 0 2.08655e-05)
(0.000676882 0 1.66272e-05)
(0.000443881 0 1.20417e-05)
(0.00025431 0 7.36905e-06)
(8.54154e-05 0 2.56609e-06)
(0.0859577 0 -0.00768201)
(0.0845982 0 -0.00753656)
(0.0806815 0 -0.00711097)
(0.0751169 0 -0.00650604)
(0.0688088 0 -0.00582351)
(0.0622475 0 -0.00511664)
(0.0557091 0 -0.00441585)
(0.0493667 0 -0.00374193)
(0.043336 0 -0.00311047)
(0.0376944 0 -0.00253313)
(0.0324909 0 -0.00201782)
(0.0277524 0 -0.00156895)
(0.0234884 0 -0.0011876)
(0.0196945 0 -0.00087193)
(0.0163561 0 -0.000617698)
(0.0134499 0 -0.000418883)
(0.0109474 0 -0.000268324)
(0.00881583 0 -0.000158356)
(0.00702058 0 -8.13608e-05)
(0.00552594 0 -3.01938e-05)
(0.00429637 0 1.50947e-06)
(0.00329727 0 1.91605e-05)
(0.00249564 0 2.71567e-05)
(0.0018605 0 2.89095e-05)
(0.0013632 0 2.69355e-05)
(0.000977461 0 2.29815e-05)
(0.00067915 0 1.81626e-05)
(0.000445796 0 1.30916e-05)
(0.000255613 0 7.99131e-06)
(8.58983e-05 0 2.77985e-06)
(0.0902716 0 -0.00777095)
(0.0876347 0 -0.00744911)
(0.0826235 0 -0.00691316)
(0.0763693 0 -0.00626747)
(0.0696188 0 -0.00557802)
(0.0627644 0 -0.00488072)
(0.0560303 0 -0.00419856)
(0.0495568 0 -0.00354814)
(0.0434382 0 -0.00294224)
(0.0377384 0 -0.00239057)
(0.0324973 0 -0.00189966)
(0.0277355 0 -0.00147298)
(0.0234581 0 -0.00111107)
(0.0196581 0 -0.000811909)
(0.0163185 0 -0.000571309)
(0.0134146 0 -0.000383462)
(0.0109164 0 -0.000241528)
(0.00879033 0 -0.000138209)
(0.00700086 0 -6.62557e-05)
(0.00551177 0 -1.88682e-05)
(0.00428715 0 1.00211e-05)
(0.00329218 0 2.55797e-05)
(0.00249375 0 3.20127e-05)
(0.00186091 0 3.2586e-05)
(0.00136507 0 2.97084e-05)
(0.000980045 0 2.50482e-05)
(0.00068185 0 1.96622e-05)
(0.000448134 0 1.41185e-05)
(0.000257217 0 8.60091e-06)
(8.64944e-05 0 2.98952e-06)
(7.16689e-05 0 2.55644e-06)
(0.000212405 0 7.38512e-06)
(0.000369153 0 1.22325e-05)
(0.000560317 0 1.73027e-05)
(0.000803229 0 2.26046e-05)
(0.00111574 0 2.79301e-05)
(0.00151705 0 3.28236e-05)
(0.0020282 0 3.65499e-05)
(0.00267247 0 3.80699e-05)
(0.00347554 0 3.6032e-05)
(0.00446568 0 2.87856e-05)
(0.00567383 0 1.44235e-05)
(0.00713363 0 -9.1438e-06)
(0.00888147 0 -4.40825e-05)
(0.0109563 0 -9.25031e-05)
(0.0133995 0 -0.000156307)
(0.0162542 0 -0.00023702)
(0.0195641 0 -0.000335623)
(0.023372 0 -0.000452372)
(0.0277174 0 -0.000586619)
(0.0326322 0 -0.000736603)
(0.0381352 0 -0.000899202)
(0.044225 0 -0.00106967)
(0.05087 0 -0.00124142)
(0.057996 0 -0.0014059)
(0.0654721 0 -0.00155313)
(0.0730851 0 -0.00167372)
(0.080485 0 -0.00176569)
(0.0870279 0 -0.00185688)
(0.090916 0 -0.00201347)
(7.18625e-05 0 2.60642e-06)
(0.000212814 0 7.51545e-06)
(0.000369393 0 1.24036e-05)
(0.000559794 0 1.7453e-05)
(0.000801096 0 2.26441e-05)
(0.00111085 0 2.77321e-05)
(0.00150789 0 3.2215e-05)
(0.00201284 0 3.53012e-05)
(0.00264847 0 3.58855e-05)
(0.00343988 0 3.25408e-05)
(0.00441465 0 2.35327e-05)
(0.00560289 0 6.8642e-06)
(0.00703727 0 -1.96482e-05)
(0.00875291 0 -5.82653e-05)
(0.0107872 0 -0.000111187)
(0.0131796 0 -0.000180391)
(0.0159704 0 -0.000267459)
(0.0192003 0 -0.00037339)
(0.0229079 0 -0.000498413)
(0.0271275 0 -0.000641816)
(0.0318856 0 -0.000801766)
(0.0371937 0 -0.000975139)
(0.0430433 0 -0.00115747)
(0.0493956 0 -0.00134313)
(0.0561656 0 -0.00152586)
(0.0632137 0 -0.00170048)
(0.0703124 0 -0.00186639)
(0.0771671 0 -0.00203364)
(0.0832303 0 -0.00223506)
(0.0874715 0 -0.00256436)
(7.19563e-05 0 2.64329e-06)
(0.000212914 0 7.60794e-06)
(0.000369033 0 1.25119e-05)
(0.000558218 0 1.75151e-05)
(0.000797206 0 2.25721e-05)
(0.00110313 0 2.74074e-05)
(0.00149432 0 3.14833e-05)
(0.00199078 0 3.39688e-05)
(0.00261451 0 3.37172e-05)
(0.00338971 0 2.92602e-05)
(0.00434284 0 1.88256e-05)
(0.00550265 0 3.85227e-07)
(0.00690013 0 -2.82649e-05)
(0.00856832 0 -6.93916e-05)
(0.0105421 0 -0.000125182)
(0.0128574 0 -0.000197578)
(0.0155509 0 -0.000288098)
(0.0186581 0 -0.000397652)
(0.0222111 0 -0.000526353)
(0.026237 0 -0.000673382)
(0.0307535 0 -0.000836896)
(0.0357608 0 -0.00101389)
(0.0412375 0 -0.00120039)
(0.0471343 0 -0.00139202)
(0.0533426 0 -0.00158466)
(0.0597177 0 -0.001777)
(0.0660086 0 -0.00197248)
(0.0718688 0 -0.00218384)
(0.0769033 0 -0.00244173)
(0.080358 0 -0.00282847)
(7.18845e-05 0 2.66672e-06)
(0.000212515 0 7.66229e-06)
(0.000367752 0 1.25587e-05)
(0.000555119 0 1.74945e-05)
(0.000790915 0 2.2402e-05)
(0.00109174 0 2.69826e-05)
(0.00147526 0 3.06754e-05)
(0.00196068 0 3.26285e-05)
(0.00256898 0 3.16799e-05)
(0.00332315 0 2.63555e-05)
(0.00424812 0 1.4891e-05)
(0.00537081 0 -4.71596e-06)
(0.00671993 0 -3.46217e-05)
(0.00832572 0 -7.70196e-05)
(0.0102196 0 -0.000133996)
(0.0124333 0 -0.000207364)
(0.0149982 0 -0.000298493)
(0.017944 0 -0.000408138)
(0.0212943 0 -0.000536231)
(0.0250667 0 -0.000681814)
(0.0292718 0 -0.000843128)
(0.0338931 0 -0.0010173)
(0.0388929 0 -0.00120073)
(0.0442177 0 -0.00139033)
(0.0497519 0 -0.00158326)
(0.0553131 0 -0.00177866)
(0.0606724 0 -0.00198033)
(0.065504 0 -0.00219856)
(0.0694208 0 -0.0024534)
(0.0718266 0 -0.00278378)
(7.15802e-05 0 2.6765e-06)
(0.000211424 0 7.67845e-06)
(0.000365226 0 1.25455e-05)
(0.000550036 0 1.73969e-05)
(0.000781609 0 2.21473e-05)
(0.0010759 0 2.64836e-05)
(0.00144976 0 2.98349e-05)
(0.00192139 0 3.1348e-05)
(0.00251058 0 2.9872e-05)
(0.00323877 0 2.39612e-05)
(0.00412907 0 1.19022e-05)
(0.00520615 0 -8.23007e-06)
(0.00649593 0 -3.84846e-05)
(0.0080253 0 -8.09155e-05)
(0.00982148 0 -0.000137438)
(0.0119113 0 -0.000209665)
(0.01432 0 -0.00029875)
(0.0170721 0 -0.000405291)
(0.0201806 0 -0.000528986)
(0.0236501 0 -0.000668617)
(0.0274866 0 -0.000822696)
(0.031667 0 -0.000988574)
(0.0361341 0 -0.00116273)
(0.0408156 0 -0.00134233)
(0.0455998 0 -0.00152511)
(0.050315 0 -0.00171021)
(0.0547392 0 -0.00189953)
(0.0585839 0 -0.00209836)
(0.0615066 0 -0.00231493)
(0.063083 0 -0.00255911)
(7.0984e-05 0 2.67256e-06)
(0.000209472 0 7.65683e-06)
(0.00036118 0 1.24748e-05)
(0.000542581 0 1.72285e-05)
(0.000768786 0 2.1821e-05)
(0.00105498 0 2.59333e-05)
(0.00141708 0 2.89986e-05)
(0.00187214 0 3.01812e-05)
(0.00243851 0 2.83663e-05)
(0.00313591 0 2.21683e-05)
(0.00398533 0 9.96227e-06)
(0.00500886 0 -1.00558e-05)
(0.00622934 0 -3.97796e-05)
(0.0076699 0 -8.1074e-05)
(0.00935321 0 -0.000135633)
(0.0113005 0 -0.000204822)
(0.0135292 0 -0.000289488)
(0.0160598 0 -0.000390142)
(0.0188998 0 -0.000506349)
(0.0220417 0 -0.000636663)
(0.0254747 0 -0.000779317)
(0.0291713 0 -0.000931853)
(0.0330734 0 -0.00109122)
(0.0370996 0 -0.00125455)
(0.0411359 0 -0.00141941)
(0.0450257 0 -0.00158422)
(0.0485717 0 -0.00174866)
(0.0515341 0 -0.00191346)
(0.0536441 0 -0.00207907)
(0.0546224 0 -0.00224294)
(7.00419e-05 0 2.65492e-06)
(0.000206505 0 7.59787e-06)
(0.00035536 0 1.23482e-05)
(0.0005324 0 1.69941e-05)
(0.000751989 0 2.14324e-05)
(0.00102844 0 2.53476e-05)
(0.00137661 0 2.81901e-05)
(0.00181224 0 2.91596e-05)
(0.00235212 0 2.72002e-05)
(0.00301404 0 2.10137e-05)
(0.00381669 0 9.09564e-06)
(0.00477939 0 -1.02027e-05)
(0.00592169 0 -3.85843e-05)
(0.00726283 0 -7.76919e-05)