/*--------------------------------*- C++ -*----------------------------------*\
| =========                 |                                                 |
| \\      /  F ield         | OpenFOAM: The Open Source CFD Toolbox           |
|  \\    /   O peration     | Version:  2006                                  |
|   \\  /    A nd           | Website:  www.openfoam.com                      |
|    \\/     M anipulation  |                                                 |
\*---------------------------------------------------------------------------*/
FoamFile
{
    version     2.0;
    format      ascii;
    class       volScalarField;
    location    "0.4";
    object      p;
}
// * * * * * * * * * * * * * * * * * * * * * * * * * * * * * * * * * * * * * //

dimensions      [0 2 -2 0 0 0 0];


internalField   nonuniform List<scalar> 
2790
(
71.4779
71.3376
71.5237
71.9861
72.6303
73.4242
74.3662
75.4569
76.6941
78.0747
79.5962
81.256
83.0507
84.9752
87.0218
89.1787
91.4287
93.7492
96.1098
98.4724
100.791
103.013
105.082
106.943
108.548
109.862
110.874
111.592
112.046
112.298
71.2824
71.2531
71.4646
71.9245
72.5655
73.357
74.2954
75.3811
76.612
77.9853
79.4984
81.1489
82.9335
84.8472
86.8827
89.0286
91.2684
93.5804
95.9354
98.2967
100.619
102.852
104.94
106.828
108.469
109.828
110.893
111.683
112.234
112.63
71.0988
71.1399
71.3713
71.8223
72.4519
73.2328
74.1587
75.229
76.4418
77.7941
79.2833
80.9066
82.6605
84.5402
86.5385
88.6444
90.8424
93.1123
95.4273
97.7535
100.05
102.27
104.363
106.28
107.975
109.418
110.594
111.511
112.185
112.696
70.8963
70.9687
71.214
71.6581
72.2755
73.0429
73.9527
75.0031
76.1919
77.5161
78.9727
80.5586
82.2698
84.1014
86.0463
88.0938
90.2292
92.4339
94.6839
96.9489
99.1929
101.375
103.453
105.381
107.12
108.64
109.919
110.948
111.706
112.244
70.6651
70.7523
71.0076
71.4466
72.0505
72.8006
73.6892
74.7137
75.8715
77.1594
78.574
80.1119
81.7686
83.539
85.4157
87.3883
89.443
91.5631
93.7269
95.9079
98.0752
100.195
102.23
104.142
105.897
107.462
108.806
109.899
110.687
111.181
70.4008
70.4946
70.754
71.1859
71.7736
72.5023
73.3648
74.3578
75.4783
76.7227
78.0873
79.5679
81.16
82.8575
84.6532
86.5366
88.4949
90.5126
92.5703
94.6447
96.7098
98.7375
100.697
102.556
104.283
105.845
107.201
108.307
109.091
109.534
70.1015
70.1973
70.4558
70.8779
71.447
72.1509
72.983
73.9395
75.0168
76.211
77.5177
78.9324
80.4499
82.0637
83.766
85.5465
87.3929
89.2909
91.2226
93.167
95.1023
97.0053
98.8503
100.61
102.255
103.753
105.06
106.125
106.867
107.246
69.7667
69.8616
70.1153
70.5246
71.0727
71.7484
72.546
73.4611
74.4896
75.6271
76.8688
78.2094
79.643
81.1626
82.7599
84.4243
86.1437
87.9044
89.689
91.4783
93.2536
94.9948
96.6797
98.2843
99.7839
101.147
102.332
103.289
103.936
104.207
69.3965
69.4887
69.7345
70.1283
70.6527
71.2973
72.0563
72.9256
73.9002
74.9751
76.1449
77.4038
78.7449
80.1606
81.6417
83.1772
84.7546
86.3599
87.9755
89.5831
91.1652
92.7028
94.1746
95.5593
96.835
97.976
98.949
99.7129
100.198
100.313
68.9918
69.0799
69.3154
69.6912
70.1895
70.7998
71.517
72.3362
73.2522
74.2591
75.351
76.5211
77.7619
79.0646
80.4191
81.8135
83.2343
84.666
86.0905
87.4889
88.8422
90.1294
91.3278
92.4158
93.3734
94.1814
94.8208
95.2737
95.5072
95.4253
68.5539
68.637
68.8601
69.2157
69.6853
70.2589
70.931
71.6965
72.5496
73.4838
74.4923
75.5675
76.7008
77.8824
79.1008
80.3427
81.5931
82.8344
84.0464
85.2077
86.2948
87.2818
88.1406
88.8443
89.3693
89.6992
89.8307
89.7856
89.607
89.2594
68.0841
68.1615
68.3707
68.704
69.143
69.6774
70.3017
71.0102
71.7967
72.654
73.5744
74.5493
75.569
76.6224
77.6964
78.776
79.8437
80.8792
81.8591
82.7566
83.5417
84.1793
84.6304
84.8539
84.8106
84.4723
83.8394
82.9765
82.0439
81.1788
67.5843
67.6553
67.8494
68.1588
68.5653
69.0584
69.6324
70.2813
70.9981
71.7749
72.6032
73.4734
74.3745
75.2939
76.2167
77.1257
78.0007
78.8178
79.5488
80.1602
80.6122
80.8569
80.8365
80.4835
79.7229
78.4823
76.7196
74.4944
72.0895
69.9988
67.0564
67.1206
67.2985
67.5826
67.955
68.4051
68.9269
69.5138
70.1584
70.852
71.5851
72.3472
73.1258
73.9068
74.6734
75.4059
76.081
76.6705
77.1406
77.4498
77.5467
77.3662
76.8249
75.8156
74.2003
71.8082
68.4486
63.9915
58.6233
53.3291
66.5025
66.5594
66.7204
66.978
67.315
67.7208
68.1887
68.7119
69.2823
69.8906
70.5264
71.1778
71.8314
72.4711
73.0784
73.631
74.1021
74.4593
74.6627
74.6623
74.3942
73.7745
72.6903
70.9854
68.4368
64.7158
59.3212
51.489
40.152
24.5378
-57.4525
-57.9774
-59.2041
-61.3576
-64.5373
-68.764
-73.9972
-80.1433
-87.0554
-94.5288
-102.295
-110.018
-117.294
-123.663
-128.625
-131.674
-132.342
-130.242
-125.149
-117.05
-106.208
-93.108
-78.4053
-62.8691
-47.3169
-32.5623
-19.4458
-8.99172
-2.21075
3.90265
-57.3049
-57.9279
-59.2376
-61.4696
-64.725
-69.0281
-74.3416
-80.5744
-87.5813
-95.1581
-103.035
-110.873
-118.264
-124.741
-129.797
-132.923
-133.648
-131.589
-126.503
-118.397
-107.548
-94.4412
-79.7301
-64.1831
-48.6203
-33.8676
-20.7702
-10.2917
-3.28399
2.64336
-57.5201
-58.3994
-59.9611
-62.4178
-65.8537
-70.2997
-75.7299
-82.0644
-89.1672
-96.8418
-104.824
-112.775
-120.284
-126.877
-132.035
-135.237
-136
-133.937
-128.808
-120.631
-109.701
-96.5121
-81.7245
-66.1096
-50.4941
-35.7181
-22.625
-12.0773
-4.69687
1.43191
-58.2559
-59.4817
-61.3341
-64.0534
-67.703
-72.3203
-77.8924
-84.3532
-91.5791
-99.3835
-107.508
-115.616
-123.293
-130.05
-135.356
-138.668
-139.484
-137.407
-132.199
-123.901
-112.83
-99.494
-84.5586
-68.8017
-53.0583
-38.1813
-25.0005
-14.2522
-6.33799
0.330941
-59.722
-61.2518
-63.3295
-66.2772
-70.1259
-74.9139
-80.6354
-87.2355
-94.6027
-102.56
-110.856
-119.154
-127.035
-133.997
-139.484
-142.928
-143.802
-141.7
-136.384
-127.927
-116.675
-103.15
-88.0195
-72.0687
-56.1391
-41.09
-27.722
-16.6242
-8.06695
-0.634683
-61.9813
-63.6795
-65.8812
-68.9942
-73.0012
-77.938
-83.8015
-90.5458
-98.0691
-106.204
-114.703
-123.232
-131.361
-138.573
-144.28
-147.877
-148.805
-146.655
-141.189
-132.534
-121.065
-107.315
-91.95
-75.7592
-59.5883
-44.2961
-30.6362
-19.0229
-9.77526
-1.47988
-64.7958
-66.5586
-68.8099
-72.0304
-76.1514
-81.2091
-87.2004
-94.0865
-101.775
-110.104
-118.832
-127.622
-136.035
-143.533
-149.492
-153.255
-154.226
-152.002
-146.353
-137.471
-125.768
-111.778
-96.1573
-79.6973
-63.2439
-47.6492
-33.6081
-21.3889
-11.3097
-2.22426
-67.8116
-69.5928
-71.8582
-75.1474
-79.3471
-84.5023
-90.6085
-97.6318
-105.487
-114.022
-122.995
-132.066
-140.788
-148.6
-154.836
-158.774
-159.767
-157.451
-151.588
-142.469
-130.532
-116.309
-100.434
-83.6971
-66.94
-50.9951
-36.4709
-23.6009
-12.7203
-2.8716
-70.7039
-72.4841
-74.7482
-78.0837
-82.3385
-87.5738
-93.7843
-100.939
-108.96
-117.699
-126.92
-136.281
-145.323
-153.463
-159.991
-164.103
-165.093
-162.678
-156.585
-147.235
-135.09
-120.67
-104.571
-87.5718
-70.5153
-54.182
-39.1119
-25.6034
-14.0093
-3.43947
-73.1923
-74.9608
-77.2147
-80.5856
-84.8819
-90.1851
-96.4889
-103.767
-111.943
-120.875
-130.33
-139.967
-149.32
-157.784
-164.607
-168.893
-169.852
-167.357
-161.031
-151.479
-139.179
-124.625
-108.375
-91.1538
-73.8208
-57.0636
-41.4625
-27.4025
-15.1411
-3.94177
-75.0422
-76.7802
-79.0232
-82.4304
-86.761
-92.1243
-98.5101
-105.895
-114.206
-123.305
-132.957
-142.833
-152.461
-161.218
-168.323
-172.796
-173.771
-171.158
-164.622
-154.949
-142.58
-127.976
-111.673
-94.3111
-76.6894
-59.5524
-43.4922
-28.9453
-16.0953
-4.38986
-76.0456
-77.7407
-80.0274
-83.4557
-87.8199
-93.2407
-99.6969
-107.164
-115.569
-124.779
-134.568
-144.611
-154.439
-163.408
-170.732
-175.387
-176.469
-173.713
-167.093
-157.473
-145.16
-130.599
-114.292
-96.8463
-79.0014
-61.5523
-45.134
-30.1934
-16.862
-4.79215
-76.0925
-77.8135
-80.1202
-83.5672
-87.983
-93.473
-100
-107.532
-115.997
-125.266
-135.128
-145.247
-155.159
-164.244
-171.687
-176.432
-177.538
-174.826
-168.375
-158.865
-146.711
-132.289
-116.045
-98.5735
-80.6237
-62.9926
-46.339
-31.1219
-17.4382
-5.15439
-75.2707
-77.0022
-79.2749
-82.7312
-87.2372
-92.8253
-99.433
-107.017
-115.505
-124.77
-134.607
-144.687
-154.56
-163.618
-171.042
-175.78
-176.921
-174.311
-168.095
-158.87
-147.022
-132.863
-116.802
-99.4302
-81.5059
-63.8316
-47.0801
-31.7201
-17.827
-5.47987
-73.7091
-75.407
-77.5071
-80.993
-85.6793
-91.4188
-98.1189
-105.738
-114.205
-123.396
-133.11
-143.033
-152.725
-161.588
-168.814
-173.419
-174.575
-172.158
-166.319
-157.532
-146.113
-132.323
-116.552
-99.3978
-81.6301
-64.0555
-47.3515
-31.9908
-18.0368
-5.76858
65.9135
65.9629
66.106
66.3358
66.6358
66.9953
67.4072
67.8644
68.3581
68.8782
69.4134
69.951
70.476
70.9709
71.415
71.7835
72.0466
72.1675
72.1004
71.7872
71.1524
70.0946
68.4736
66.0873
62.6292
57.6031
50.1229
38.36
17.2823
-39.9114
65.2827
65.324
65.4482
65.6488
65.91
66.221
66.5746
66.963
67.3769
67.8056
68.237
68.6571
69.0499
69.3963
69.6737
69.8551
69.9077
69.7909
69.454
68.8326
67.8424
66.37
64.2586
61.2818
57.098
51.1614
42.5353
29.6056
11.5646
-13.6913
64.6146
64.6476
64.752
64.9223
65.1432
65.4042
65.6976
66.0153
66.3474
66.6827
67.0082
67.3091
67.568
67.7647
67.875
67.8701
67.7148
67.3658
66.7692
65.8571
64.5411
62.7048
60.1914
56.7846
52.1821
45.969
37.6233
26.5594
13.5296
-0.762579
63.9103
63.9347
64.0189
64.1579
64.3374
64.5472
64.7792
65.0249
65.274
65.5147
65.7335
65.9146
66.0399
66.0881
66.0336
65.8467
65.4908
64.9211
64.0824
62.9068
61.3076
59.1742
56.3645
52.6962
47.941
41.8326
34.1117
24.4722
12.9002
-0.77385
63.1713
63.1869
63.2504
63.3575
63.495
63.6527
63.8226
63.9956
64.1613
64.3073
64.4196
64.4821
64.4757
64.3786
64.1646
63.8033
63.2583
62.4844
61.4275
60.0228
58.1899
55.8297
52.8223
49.0232
44.2654
38.3659
31.1454
22.3771
11.9028
-0.00409495
62.3993
62.4062
62.4487
62.5235
62.6185
62.724
62.8314
62.9318
63.0144
63.0665
63.074
63.0201
62.8858
62.6488
62.2829
61.758
61.0386
60.0809
58.8337
57.2377
55.2216
52.7007
49.5777
45.7418
41.072
35.4426
28.7402
20.8668
11.7972
1.91281
61.5967
61.5948
61.6162
61.6587
61.7113
61.7645
61.8099
61.8384
61.839
61.7991
61.7044
61.5381
61.2812
60.9116
60.4038
59.7285
58.8519
57.7332
56.3257
54.5767
52.4255
49.8025
46.6315
42.8309
38.3179
33.0154
26.867
19.8485
11.9713
3.51679
60.7661
60.7554
60.756
60.7663
60.7768
60.7783
60.7627
60.7207
60.6414
60.5123
60.3192
60.0456
59.673
59.1799
58.5418
57.7312
56.7164
55.4607
53.9232
52.0583
49.8157
47.1407
43.9761
40.2644
35.9526
30.9978
25.3756
19.0878
12.1506
4.78651
59.9105
59.8914
59.8714
59.8501
59.8191
59.7701
59.6949
59.5844
59.4281
59.2135
58.927
58.5525
58.0722
57.4658
56.7105
55.7807
54.6478
53.2796
51.641
49.6942
47.3989
44.7134
41.5965
38.01
33.9219
29.3107
24.1705
18.5151
12.3687
5.91612
59.0336
59.0062
58.9661
58.9139
58.8427
58.7447
58.612
58.4358
58.2059
57.9105
57.5363
57.0682
56.4894
55.781
54.9223
53.8901
52.6591
51.202
49.4896
47.4912
45.1758
42.513
39.4743
36.0358
32.1805
27.9008
23.2019
18.1045
12.6369
6.94814
58.1391
58.1038
58.0445
57.9624
57.8524
57.7074
57.5198
57.2812
56.982
56.611
56.1557
55.602
54.9346
54.1362
53.1881
52.0702
50.7608
49.2369
47.4751
45.4515
43.1431
40.5284
37.5894
34.3125
30.6908
26.7259
22.4293
17.8241
12.9383
7.8915
57.2315
57.1887
57.1109
57.0004
56.8533
56.6636
56.4242
56.1271
55.7633
55.3226
54.7934
54.1628
53.417
52.5406
51.5174
50.3301
48.9605
47.3901
45.6006
43.574
41.2941
38.7467
35.9215
32.8125
29.4196
25.7499
21.8178
17.6464
13.2621
8.76134
56.3154
56.2657
56.1704
56.0329
55.8509
55.6193
55.3314
54.98
54.557
54.0528
53.4572
52.7587
51.945
51.0027
49.918
48.6766
47.2636
45.6647
43.866
41.8547
39.62
37.1536
34.4508
31.5107
28.338
24.9424
21.3397
17.5518
13.6027
9.57057
55.396
55.3398
55.2282
55.0655
54.8509
54.5803
54.2477
53.8467
53.3699
52.809
52.1547
51.3972
50.5258
49.5293
48.3961
47.1147
45.6735
44.0617
42.2693
40.2878
38.1108
35.7344
33.1579
30.3842
27.4204
24.2779
20.9724
17.5241
13.9546
10.3272
54.4786
54.4165
54.2898
54.1038
53.8592
53.5528
53.1796
52.7338
52.2089
51.5979
50.8927
50.0851
49.1659
48.1261
46.9564
45.6478
44.1916
42.5801
40.8066
38.8661
36.7556
34.4745
32.0249
29.4122
26.6448
23.7346
20.6969
17.5498
14.3124
11.0363
53.569
53.5015
53.3611
53.1538
52.8819
52.5431
52.1333
51.6476
51.0804
50.4259
49.6775
48.8282
47.8707
46.7978
45.6024
44.2778
42.8178
41.2174
39.4727
37.5814
35.5431
33.3596
31.0349
28.5758
25.9915
23.2938
20.4968
17.6169
14.6709
11.7009
52.6732
52.601
52.4482
52.2216
51.9251
51.5574
51.1152
50.5944
49.9907
49.2992
48.5148
47.6318
46.6446
45.5479
44.3363
43.0053
41.5509
39.9703
38.2618
36.4253
34.4623
32.3762
30.1724
27.8583
25.4434
22.939
20.3582
17.7154
15.0255
12.3229
51.7974
51.721
51.5572
51.3135
50.9951
50.6019
50.1314
49.5805
48.9457
48.2234
47.4097
46.5004
45.4914
44.3789
43.1594
41.83
40.3888
38.8345
37.1675
35.3891
33.5022
31.5115
29.423
27.2446
24.9854
22.6563
20.269
17.8365
15.3719
12.9032
50.948
50.8681
50.6946
50.4358
50.0983
49.683
49.1882
48.6116
47.9509
47.2036
46.3669
45.4379
44.414
43.2927
42.0721
40.7509
39.3286
37.8055
36.1831
34.4643
32.6528
30.7539
28.7742
26.7214
24.6045
22.4335
20.2191
17.9728
15.706
13.4419
50.1317
50.0487
49.8669
49.5951
49.241
48.8067
48.2914
47.6935
47.0117
46.2446
45.3905
44.4477
43.4148
42.2906
41.0745
39.7664
38.3672
36.8783
35.3023
33.6428
31.9044
30.0926
28.2143
26.277
24.2893
22.2602
20.1997
18.1177
16.0245
13.9391
49.3553
49.2698
49.0809
48.7977
48.4296
47.9794
47.4469
46.8317
46.1332
45.351
44.4844
43.5327
42.4957
41.3733
40.166
38.8748
37.5014
36.0483
34.5188
32.9172
31.2483
29.5181
27.7333
25.9012
24.0297
22.1275
20.2031
18.2658
16.3243
14.3946
48.6258
48.5382
48.3432
48.0505
47.6705
47.207
46.6606
46.0316
45.3202
44.5269
43.6519
42.6956
41.6585
40.5415
39.3461
38.0741
36.728
35.311
33.827
32.2806
30.6769
29.022
27.3224
25.5851
23.8176
22.0277
20.2233
18.4124
16.6031
14.8084
47.9504
47.8611
47.6608
47.36
46.97
46.4956
45.9381
45.2984
44.5774
43.7764
42.8965
41.9387
40.9045
39.7955
38.614
37.3623
36.0438
34.6621
33.2214
31.7266
30.183
28.5966
26.9737
25.321
23.6454
21.9541
20.2543
18.5534
16.8582
15.1798
47.3365
47.2456
47.0407
46.7329
46.3346
45.8514
45.2852
44.6374
43.9096
43.1037
42.2215
41.2647
40.2356
39.1363
37.9696
36.7386
35.4469
34.0986
32.6982
31.2507
29.7614
28.2363
26.6814
25.103
23.5077
21.9021
20.2927
18.6862
17.0888
15.5098
46.7917
46.6992
46.4901
46.176
45.7707
45.2803
44.7073
44.0534
43.3208
42.5121
41.6295
40.6754
39.6525
38.5635
37.4116
36.2005
34.934
33.6164
32.2524
30.8471
29.4059
27.9345
26.4387
24.9245
23.3981
21.8656
20.3331
18.8065
17.2915
15.7958
46.3242
46.2299
46.0161
45.6961
45.2849
44.789
44.2109
43.5528
42.8174
42.0075
41.1259
40.1755
39.1594
38.0807
36.9429
35.7501
34.5062
33.2159
31.8838
30.5152
29.1153
27.6897
26.244
24.784
23.3155
21.8441
20.3755
18.9153
17.4685
16.042
45.9431
45.8459
45.6257
45.2989
44.8819
44.3813
43.799
43.1377
42.4003
41.5902
40.7103
39.7639
38.7544
37.6851
36.56
35.3831
34.1587
32.8915
31.5863
30.2482
28.8824
27.4944
26.0895
24.6735
23.2516
21.8294
20.412
19.0047
17.6121
16.2399
45.659
45.5567
45.3282
44.9953
44.5744
44.0702
43.4849
42.8213
42.0827
41.2728
40.3947
39.4519
38.4479
37.3865
36.2718
35.1078
33.899
32.6502
31.3662
30.052
28.7129
27.3541
25.9809
24.5988
23.2128
21.8283
20.4502
19.0833
17.7324
16.4023
45.4851
45.3602
45.1151
44.777
44.3543
43.8483
43.2612
42.5965
41.858
41.0489
40.1728
39.2332
38.2339
37.1786
36.0715
34.9169
33.7194
32.4835
31.2142
29.9166
28.5958
27.2569
25.9052
24.5459
23.1841
21.8248
20.4729
19.1328
17.8092
16.5063
45.4841
45.2929
45.0194
44.6753
44.2502
43.7413
43.1517
42.4854
41.7463
40.9375
40.0625
39.1249
38.1284
37.0769
35.9747
34.8259
33.6351
32.4071
31.1467
29.8588
28.5486
27.2212
25.8818
24.5354
23.1871
21.8417
20.5041
19.1785
17.8694
16.5805
-126.074
-106.542
-86.181
-32.7606
-39.2538
-47.7939
-16.4168
-27.4135
-37.0718
-15.9098
-25.7254
-33.3401
-11.8783
-19.9031
-26.6444
-7.7574
-14.5859
-20.6036
-4.76464
-10.6546
-15.8791
-2.36443
-7.44152
-11.9376
-0.288241
-4.69028
-8.57478
1.52062
-2.32703
-5.70474
3.10937
-0.276173
-3.23202
4.52377
1.52823
-1.0741
5.7966
3.13277
0.829075
6.95097
4.57155
2.52217
8.00374
5.87006
4.03879
8.96704
7.04684
5.40353
9.84944
8.1153
6.63446
10.6571
9.08534
7.74518
11.3944
9.96441
8.7461
12.0649
10.7584
9.64552
12.6709
11.4718
10.45
13.2152
12.1089
11.1653
13.6986
12.672
11.7953
14.1243
13.1655
12.3453
14.4902
13.5883
12.8156
14.8028
13.9476
13.2135
15.0525
14.2346
13.5316
15.2558
14.4659
13.7855
15.3861
14.6158
13.9518
15.4819
14.7274
14.0722
-71.7492
-73.4809
-75.0405
-78.5978
-83.5596
-89.4778
-96.2557
-103.87
-112.253
-121.284
-130.768
-140.405
-149.769
-158.276
-165.164
-169.549
-170.721
-168.559
-163.193
-154.944
-144.033
-130.685
-115.291
-98.4648
-80.9856
-63.6578
-47.1533
-31.9402
-18.0784
-6.0215
-58.4804
-65.8556
-70.5126
-75.6118
-81.2328
-87.3568
-94.1388
-101.645
-109.831
-118.582
-127.708
-136.922
-145.813
-153.83
-160.283
-164.407
-165.606
-163.74
-158.875
-151.181
-140.795
-127.921
-112.97
-96.5757
-79.5227
-62.5998
-46.4592
-31.5545
-17.9453
-6.23171
-50.231
-60.8702
-67.0402
-72.7065
-78.7588
-85.1781
-92.0126
-99.3551
-107.23
-115.566
-124.197
-132.853
-141.15
-148.583
-154.544
-158.394
-159.625
-158.036
-153.603
-146.384
-136.463
-124.054
-109.593
-93.7355
-77.2511
-60.8956
-45.2857
-30.8491
-17.6472
-6.39263
-43.9681
-55.2265
-63.244
-70.0026
-76.4817
-83.0108
-89.7977
-96.9627
-104.52
-112.404
-120.471
-128.487
-136.109
-142.894
-148.325
-151.886
-153.109
-151.691
-147.524
-140.62
-131.06
-119.09
-105.176
-89.9702
-74.2055
-58.5822
-43.6658
-29.8491
-17.1964
-6.49662
-36.2444
-47.3348
-56.8876
-65.21
-72.7446
-79.8666
-86.8852
-94.0134
-101.34
-108.843
-116.402
-123.814
-130.78
-136.923
-141.812
-145.036
-146.123
-144.664
-140.544
-133.792
-124.523
-113.018
-99.7509
-85.3405
-70.4571
-55.7273
-41.6547
-28.5927
-16.61
-6.53604
-28.9599
-39.1417
-49.1955
-58.4838
-66.921
-74.7648
-82.2779
-89.6433
-96.9614
-104.249
-111.433
-118.351
-124.755
-130.32
-134.679
-137.459
-138.195
-136.494
-132.309
-125.691
-116.777
-105.864
-93.406
-79.9616
-66.1215
-52.4307
-39.3285
-27.1292
-15.9089
-6.50421
-22.8899
-31.8061
-41.4997
-50.9417
-59.7122
-67.9333
-75.7881
-83.3853
-90.7769
-97.9662
-104.894
-111.428
-117.358
-122.404
-126.23
-128.461
-128.71
-126.769
-122.616
-116.285
-107.917
-97.7968
-86.3359
-74.0224
-61.362
-48.8208
-36.7788
-25.5154
-15.1166
-6.39727
-17.8271
-25.5022
-34.3789
-43.3895
-51.9676
-60.1291
-67.9837
-75.5746
-82.8998
-89.9291
-96.5917
-102.761
-108.249
-112.803
-116.112
-117.796
-117.686
-115.686
-111.762
-105.926
-98.3051
-89.159
-78.8441
-67.7741
-56.3752
-45.0424
-34.104
-23.8104
-14.258
-6.21613
-13.583
-20.1738
-28.0731
-36.3306
-44.359
-52.1096
-59.6384
-66.9429
-73.9807
-80.6905
-86.9854
-92.7375
-97.7706
-101.858
-104.722
-106.06
-105.796
-103.919
-100.386
-95.1918
-88.4484
-80.376
-71.2727
-61.4817
-51.3579
-41.2348
-31.3966
-22.0688
-13.3571
-5.96743
-10.014
-15.6943
-22.6281
-30.0166
-37.3128
-44.4384
-51.4168
-58.2201
-64.7822
-71.0226
-76.8436
-82.1188
-86.6867
-90.3503
-92.8807
-94.0493
-93.8138
-92.1878
-89.134
-84.6484
-78.8208
-71.8306
-63.9203
-55.3705
-46.4745
-37.5129
-28.7323
-20.3361
-12.4356
-5.66313
-6.97701
-11.9027
-17.964
-24.4972
-31.0152
-37.4311
-43.7519
-49.939
-55.9172
-61.5991
-66.8849
-71.6559
-75.7693
-79.0605
-81.3496
-82.4642
-82.3618
-81.0466
-78.4961
-74.7112
-69.7632
-63.7934
-56.9958
-49.5974
-41.8394
-33.9575
-26.1655
-18.6459
-11.512
-5.31846
-4.35497
-8.65497
-13.9597
-19.7134
-25.4886
-31.2005
-36.8486
-42.3925
-47.7579
-52.8587
-57.601
-61.8775
-65.5662
-68.5324
-70.6368
-71.7498
-71.8177
-70.821
-68.7494
-65.611
-61.4616
-56.411
-50.6125
-44.2488
-37.5175
-30.6163
-23.7299
-17.0212
-10.6013
-4.94938
-2.06351
-5.84045
-10.4992
-15.5683
-20.673
-25.7342
-30.7492
-35.6803
-40.4584
-45.0043
-49.2331
-53.0513
-56.3563
-59.0387
-60.9898
-62.1112
-62.34
-61.6361
-59.9941
-57.4264
-53.9771
-49.7309
-44.8082
-39.3555
-33.5347
-27.5111
-21.4435
-15.4763
-9.71562
-4.57025
-0.0419333
-3.37789
-7.48672
-11.964
-16.4796
-20.9617
-25.4074
-29.7833
-34.0278
-38.0701
-41.8355
-45.2442
-48.2101
-50.6442
-52.4598
-53.5802
-53.9403
-53.4887
-52.2179
-50.1409
-47.2929
-43.739
-39.5735
-34.9138
-29.8922
-24.6469
-19.3137
-14.0196
-8.86394
-4.19258
1.75438
-1.20765
-4.84769
-8.81594
-12.8207
-16.7969
-20.7424
-24.6287
-28.4019
-31.9999
-35.358
-38.408
-41.078
-43.2947
-44.9873
-46.0938
-46.5523
-46.3091
-45.3517
-43.6907
-41.3536
-38.3905
-34.8753
-30.9019
-26.5782
-22.0195
-17.3417
-12.6558
-8.05314
-3.82478
3.35821
0.714424
-2.52509
-6.05615
-9.6201
-13.1583
-16.6696
-20.1299
-23.4928
-26.7043
-29.7085
-32.4475
-34.8607
-36.887
-38.4674
-39.55
-40.0792
-40.0044
-39.3081
-37.9969
-36.0918
-33.6311
-30.6725
-27.2912
-23.5752
-19.6204
-15.5255
-11.3869
-7.28808
-3.47259
4.79406
2.4217
-0.475047
-3.63062
-6.81514
-9.97576
-13.1121
-16.2043
-19.2126
-22.09
-24.7887
-27.2591
-29.4499
-31.3095
-32.7881
-33.841
-34.42
-34.4797
-33.9994
-32.9811
-31.4402
-29.4058
-26.923
-24.0518
-20.8639
-17.4391
-13.8611
-10.2136
-6.57202
-3.1397
6.08064
3.94004
1.33686
-1.49627
-4.35463
-7.19051
-10.0042
-12.7797
-15.4825
-18.0724
-20.508
-22.7468
-24.7452
-26.459
-27.8459
-28.8668
-29.4804
-29.6471
-29.3446
-28.571
-27.3367
-25.6638
-23.5872
-21.1548
-18.425
-15.4642
-12.3434
-9.13507
-5.90692
-2.82844
7.23254
5.28989
2.93811
0.381699
-2.19668
-4.75388
-7.29081
-9.79431
-12.235
-14.5779
-16.7873
-18.8269
-20.6589
-22.2457
-23.5505
-24.5393
-25.1766
-25.4287
-25.2722
-24.7024
-23.7258
-22.3589
-20.6286
-18.573
-16.2398
-13.6843
-10.9666
-8.14959
-5.29375
-2.54017
8.2615
6.48784
4.35117
2.03187
-0.3066
-2.62518
-4.92517
-7.19587
-9.41202
-11.5434
-13.559
-15.4273
-17.116
-18.5923
-19.8242
-20.7819
-21.4349
-21.7554
-21.7185
-21.318
-20.5578
-19.4495
-18.0139
-16.2813
-14.2907
-12.0881
-9.7247
-7.25489
-4.7327
-2.27559
9.17695
7.54737
5.59437
3.47779
1.34435
-0.770492
-2.86829
-4.94034
-6.96486
-8.91554
-10.7655
-12.4873
-14.0527
-15.4334
-16.6011
-17.5297
-18.1949
-18.568
-18.6283
-18.3684
-17.7892
-16.899
-15.7136
-14.2571
-12.5614
-10.665
-8.6116
-6.44837
-4.22352
-2.03501
9.98702
8.47995
6.68329
4.73937
2.78048
0.838935
-1.087
-2.99023
-4.85187
-6.64891
-8.3578
-9.95458
-11.4146
-12.7128
-13.8246
-14.7264
-15.397
-15.8127
-15.953
-15.8095
-15.3816
-14.6748
-13.701
-12.4796
-11.0368
-9.40493
-7.62131
-5.72716
-3.76551
-1.81836
10.6978
9.29438
7.6301
5.83244
4.02133
2.22634
0.445655
-1.31491
-3.03891
-4.70604
-6.29556
-7.78637
-9.15674
-10.3845
-11.4478
-12.3257
-12.9991
-13.4477
-13.6529
-13.6054
-13.3032
-12.7497
-11.9541
-10.9317
-9.70435
-8.29929
-6.74876
-5.08885
-3.35814
-1.62557
11.3156
9.99931
8.44624
6.77147
5.08442
3.41237
1.75343
0.112417
-1.4962
-3.05441
-4.54374
-5.94546
-7.24023
-8.40831
-9.43009
-10.2867
-10.9609
-11.435
-11.6925
-11.7236
-11.5251
-11.099
-10.4522
-9.59708
-8.55178
-7.33961
-5.98857
-4.53053
-3.00023
-1.45611
11.8428
10.5988
9.13801
7.56518
5.98098
4.41075
2.8526
1.31051
-0.202626
-1.67064
-3.07696
-4.40475
-5.63663
-6.75481
-7.74157
-8.57978
-9.25356
-9.74734
-10.0465
-10.1411
-10.0272
-9.7056
-9.18147
-8.46499
-7.57141
-6.52089
-5.33802
-4.05122
-2.69196
-1.31019
12.2863
11.1012
9.71552
8.22565
6.72506
5.23753
3.7612
2.29942
0.863787
-0.531
-1.86986
-3.13748
-4.31807
-5.39538
-6.35319
-7.17579
-7.84846
-8.35723
-8.68902
-8.83415
-8.78818
-8.55095
-8.1264
-7.52296
-6.75371
-5.83631
-4.79263
-3.64832
-2.43216
-1.18725
12.6418
11.5031
10.1765
8.75193
7.31719
5.89477
4.48283
3.08422
1.70957
0.372415
-0.913308
-2.13349
-3.27352
-4.31839
-5.25305
-6.06284
-6.73402
-7.25377
-7.61016
-7.79401
-7.80054
-7.62894
-7.28227
-6.76765
-6.09658
-5.28481
-4.35218
-3.32218
-2.22141
-1.08753
12.9217
11.8172
10.5348
9.15901
7.77331
6.39932
5.03524
3.68359
2.35424
1.0599
-0.186349
-1.37127
-2.48115
-3.50187
-4.41923
-5.21936
-5.8892
-6.41688
-6.79155
-7.00445
-7.05056
-6.92855
-6.64074
-6.19337
-5.59677
-4.86535
-4.01747
-3.07507
-2.06317
-1.01482
13.1075
12.0249
10.7718
9.42912
8.07664
6.73519
5.40322
4.0831
2.78422
1.51872
0.299086
-0.861992
-1.95139
-2.95559
-3.86092
-4.65396
-5.32171
-5.85266
-6.23719
-6.46742
-6.53831
-6.4482
-6.19896
-5.79623
-5.24954
-4.57245
-3.78233
-2.90023
-1.95064
-0.965225
13.2305
12.1512
10.9122
9.58728
8.25193
6.92669
5.61053
4.30588
3.02187
1.77034
0.563536
-0.586137
-1.66584
-2.66236
-3.56245
-4.35328
-5.02294
-5.55995
-5.95347
-6.19549
-6.28138
-6.2096
-5.98188
-5.60356
-5.0838
-4.43565
-3.67596
-2.82518
-1.9071
-0.949903
)
;

boundaryField
{
    inlet
    {
        type            zeroGradient;
    }
    outlet
    {
        type            fixedValue;
        value           uniform 0;
    }
    flap
    {
        type            zeroGradient;
    }
    upperWall
    {
        type            zeroGradient;
    }
    lowerWall
    {
        type            zeroGradient;
    }
    frontAndBack
    {
        type            empty;
    }
}


// ************************************************************************* //
