/*--------------------------------*- C++ -*----------------------------------*\
| =========                 |                                                 |
| \\      /  F ield         | OpenFOAM: The Open Source CFD Toolbox           |
|  \\    /   O peration     | Version:  2006                                  |
|   \\  /    A nd           | Website:  www.openfoam.com                      |
|    \\/     M anipulation  |                                                 |
\*---------------------------------------------------------------------------*/
FoamFile
{
    version     2.0;
    format      ascii;
    class       volVectorField;
    location    "0.2";
    object      flux;
}
// * * * * * * * * * * * * * * * * * * * * * * * * * * * * * * * * * * * * * //

dimensions      [0 1 -1 1 0 0 0];


internalField   nonuniform List<vector> 
512
(
(0.0057891 -31.6093 0)
(0.0161927 -31.5624 0)
(0.0235518 -31.4783 0)
(0.0272143 -31.3721 0)
(0.0275639 -31.2589 0)
(0.0255637 -31.1504 0)
(0.022258 -31.0536 0)
(0.0184709 -30.972 0)
(0.0147885 -30.9059 0)
(0.0114903 -30.8539 0)
(0.0087006 -30.8142 0)
(0.00642975 -30.7845 0)
(0.00461866 -30.763 0)
(0.00317914 -30.7478 0)
(0.00201716 -30.7377 0)
(0.00104232 -30.7317 0)
(0.000169826 -30.7294 0)
(-0.000680648 -30.7304 0)
(-0.00158724 -30.7348 0)
(-0.00262784 -30.743 0)
(-0.00387987 -30.7557 0)
(-0.00541583 -30.7739 0)
(-0.00729128 -30.7989 0)
(-0.00952196 -30.8321 0)
(-0.0120468 -30.8749 0)
(-0.0146773 -30.9284 0)
(-0.0170429 -30.9925 0)
(-0.0185619 -31.0652 0)
(-0.018491 -31.1418 0)
(-0.0161214 -31.2143 0)
(-0.0111372 -31.2721 0)
(-0.00399503 -31.3045 0)
(0.0176645 -31.6174 0)
(0.049347 -31.5681 0)
(0.0716019 -31.48 0)
(0.0824953 -31.37 0)
(0.0833073 -31.2537 0)
(0.0770423 -31.1434 0)
(0.0669148 -31.0457 0)
(0.0554097 -30.9639 0)
(0.0442792 -30.898 0)
(0.0343539 -30.8465 0)
(0.0259835 -30.8073 0)
(0.0191838 -30.7781 0)
(0.0137696 -30.7569 0)
(0.00947226 -30.742 0)
(0.00600738 -30.7321 0)
(0.00310289 -30.7263 0)
(0.000504425 -30.724 0)
(-0.00202854 -30.725 0)
(-0.00473005 -30.7293 0)
(-0.00783383 -30.7374 0)
(-0.0115734 -30.7499 0)
(-0.0161693 -30.7678 0)
(-0.0217939 -30.7924 0)
(-0.0285036 -30.8253 0)
(-0.0361276 -30.8679 0)
(-0.0441137 -30.9215 0)
(-0.0513572 -30.9861 0)
(-0.0560999 -31.0601 0)
(-0.0560623 -31.1388 0)
(-0.0490281 -31.214 0)
(-0.0339555 -31.2745 0)
(-0.0121976 -31.3086 0)
(0.0304668 -31.6342 0)
(0.0848838 -31.5797 0)
(0.122562 -31.4836 0)
(0.14037 -31.3657 0)
(0.140904 -31.2432 0)
(0.129567 -31.1291 0)
(0.111975 -31.0297 0)
(0.0923245 -30.9476 0)
(0.0735051 -30.8822 0)
(0.0568613 -30.8316 0)
(0.0429073 -30.7934 0)
(0.0316193 -30.7652 0)
(0.022661 -30.7448 0)
(0.0155702 -30.7305 0)
(0.00986577 -30.721 0)
(0.0050916 -30.7155 0)
(0.000824056 -30.7133 0)
(-0.0033362 -30.7142 0)
(-0.00777778 -30.7184 0)
(-0.0128904 -30.7261 0)
(-0.0190672 -30.7381 0)
(-0.0266856 -30.7554 0)
(-0.0360518 -30.7794 0)
(-0.0472904 -30.8116 0)
(-0.0601589 -30.8538 0)
(-0.0737827 -30.9075 0)
(-0.0863472 -30.9732 0)
(-0.0948827 -31.0496 0)
(-0.0954263 -31.1325 0)
(-0.0839751 -31.2132 0)
(-0.0584583 -31.2794 0)
(-0.0210614 -31.3172 0)
(0.0449374 -31.6611 0)
(0.124653 -31.598 0)
(0.17861 -31.489 0)
(0.202691 -31.3585 0)
(0.201603 -31.2267 0)
(0.183798 -31.1069 0)
(0.157646 -31.0052 0)
(0.129146 -30.9228 0)
(0.102257 -30.8584 0)
(0.078755 -30.8093 0)
(0.0592199 -30.7726 0)
(0.0435174 -30.7458 0)
(0.031118 -30.7265 0)
(0.0213434 -30.7132 0)
(0.0135056 -30.7044 0)
(0.00696159 -30.6992 0)
(0.00111929 -30.6972 0)
(-0.00457665 -30.6981 0)
(-0.0106669 -30.702 0)
(-0.0176971 -30.7092 0)
(-0.0262249 -30.7205 0)
(-0.0367988 -30.7369 0)
(-0.0498867 -30.7598 0)
(-0.0657266 -30.791 0)
(-0.0840698 -30.8325 0)
(-0.103794 -30.8861 0)
(-0.122427 -30.9533 0)
(-0.135744 -31.0333 0)
(-0.137859 -31.1225 0)
(-0.122489 -31.212 0)
(-0.0859549 -31.2873 0)
(-0.0311116 -31.3312 0)
(0.062022 -31.7001 0)
(0.170939 -31.624 0)
(0.2423 -31.496 0)
(0.271498 -31.3477 0)
(0.26667 -31.2032 0)
(0.240326 -31.0762 0)
(0.204046 -30.9716 0)
(0.165725 -30.8892 0)
(0.130271 -30.8263 0)
(0.0997432 -30.7793 0)
(0.0746515 -30.7448 0)
(0.0546519 -30.7199 0)
(0.0389638 -30.7023 0)
(0.0266631 -30.6901 0)
(0.0168419 -30.6822 0)
(0.00866734 -30.6775 0)
(0.0013814 -30.6757 0)
(-0.00572282 -30.6766 0)
(-0.0133338 -30.6801 0)
(-0.0221519 -30.6867 0)
(-0.032905 -30.697 0)
(-0.0463311 -30.7121 0)
(-0.0630966 -30.7336 0)
(-0.0836166 -30.7633 0)
(-0.107731 -30.8035 0)
(-0.134188 -30.857 0)
(-0.159952 -30.9257 0)
(-0.179519 -31.0105 0)
(-0.184764 -31.1083 0)
(-0.166371 -31.2102 0)
(-0.118077 -31.299 0)
(-0.0430237 -31.3522 0)
(0.0830058 -31.7547 0)
(0.226728 -31.6593 0)
(0.316753 -31.5044 0)
(0.349079 -31.3321 0)
(0.337365 -31.1714 0)
(0.299615 -31.0357 0)
(0.25115 -30.9282 0)
(0.201797 -30.8463 0)
(0.157203 -30.7858 0)
(0.119487 -30.7417 0)
(0.0889085 -30.7101 0)
(0.0647871 -30.6876 0)
(0.0460202 -30.672 0)
(0.0314022 -30.6614 0)
(0.019792 -30.6545 0)
(0.0101653 -30.6505 0)
(0.00160252 -30.649 0)
(-0.00674769 -30.6497 0)
(-0.015715 -30.6528 0)
(-0.0261512 -30.6585 0)
(-0.0389599 -30.6676 0)
(-0.055089 -30.6812 0)
(-0.0754485 -30.7007 0)
(-0.10071 -30.7283 0)
(-0.13093 -30.7669 0)
(-0.164896 -30.8196 0)
(-0.199177 -30.8899 0)
(-0.227024 -30.9801 0)
(-0.237716 -31.0889 0)
(-0.217842 -31.2075 0)
(-0.156976 -31.3156 0)
(-0.0577228 -31.3826 0)
(0.109725 -31.8298 0)
(0.296105 -31.7059 0)
(0.405904 -31.5135 0)
(0.438017 -31.3098 0)
(0.414884 -31.1293 0)
(0.361924 -30.9841 0)
(0.298724 -30.8741 0)
(0.236939 -30.7939 0)
(0.182604 -30.7367 0)
(0.137591 -30.6965 0)
(0.10167 -30.6685 0)
(0.0736775 -30.6491 0)
(0.0521081 -30.6359 0)
(0.0354368 -30.6271 0)
(0.0222771 -30.6214 0)
(0.0114145 -30.6182 0)
(0.00177584 -30.617 0)
(-0.00762469 -30.6176 0)
(-0.0177481 -30.6201 0)
(-0.0295914 -30.6249 0)
(-0.0442364 -30.6326 0)
(-0.0628622 -30.6442 0)
(-0.086672 -30.6613 0)
(-0.116688 -30.6862 0)
(-0.153341 -30.7221 0)
(-0.195699 -30.7733 0)
(-0.2402 -30.8447 0)
(-0.279012 -30.9407 0)
(-0.298495 -31.0628 0)
(-0.279728 -31.2035 0)
(-0.205613 -31.3385 0)
(-0.0765331 -31.4259 0)
(0.144915 -31.9324 0)
(0.38485 -31.7662 0)
(0.514805 -31.5218 0)
(0.541192 -31.278 0)
(0.500248 -31.0744 0)
(0.427197 -30.9196 0)
(0.34625 -30.8085 0)
(0.270522 -30.7314 0)
(0.205903 -30.679 0)
(0.153592 -30.6438 0)
(0.112586 -30.6202 0)
(0.0810692 -30.6046 0)
(0.05705 -30.5942 0)
(0.0386479 -30.5874 0)
(0.024223 -30.5832 0)
(0.0123774 -30.5809 0)
(0.00189568 -30.58 0)
(-0.00832835 -30.5805 0)
(-0.0193732 -30.5824 0)
(-0.0323702 -30.5861 0)
(-0.0485771 -30.592 0)
(-0.0694233 -30.6012 0)
(-0.0964567 -30.6154 0)
(-0.13115 -30.6368 0)
(-0.174503 -30.6692 0)
(-0.226172 -30.7177 0)
(-0.282877 -30.7891 0)
(-0.336074 -30.8907 0)
(-0.369079 -31.028 0)
(-0.355685 -31.1969 0)
(-0.268185 -31.3695 0)
(-0.101423 -31.4873 0)
(0.192809 -32.0733 0)
(0.501388 -31.8427 0)
(0.64999 -31.5263 0)
(0.661708 -31.2325 0)
(0.594114 -31.0034 0)
(0.494906 -30.8401 0)
(0.392829 -30.7301 0)
(0.30167 -30.6584 0)
(0.226388 -30.6127 0)
(0.166965 -30.5838 0)
(0.121282 -30.5656 0)
(0.0867044 -30.5542 0)
(0.0606739 -30.5471 0)
(0.0409245 -30.5427 0)
(0.0255628 -30.5401 0)
(0.013021 -30.5387 0)
(0.00195759 -30.5382 0)
(-0.00883505 -30.5385 0)
(-0.0205347 -30.5398 0)
(-0.0343897 -30.5422 0)
(-0.051824 -30.5462 0)
(-0.0745314 -30.5527 0)
(-0.104453 -30.5632 0)
(-0.143609 -30.5803 0)
(-0.193787 -30.6079 0)
(-0.255624 -30.6521 0)
(-0.326707 -30.7216 0)
(-0.398485 -30.8277 0)
(-0.451577 -30.9813 0)
(-0.450482 -31.1856 0)
(-0.350817 -31.4106 0)
(-0.135423 -31.5745 0)
(0.260202 -32.2687 0)
(0.658313 -31.9375 0)
(0.819879 -31.5216 0)
(0.802647 -31.1673 0)
(0.696465 -30.912 0)
(0.563857 -30.7432 0)
(0.437094 -30.6379 0)
(0.329228 -30.5747 0)
(0.243204 -30.5378 0)
(0.177121 -30.5167 0)
(0.12737 -30.5049 0)
(0.0903293 -30.4984 0)
(0.0628194 -30.4949 0)
(0.0421679 -30.493 0)
(0.026239 -30.4921 0)
(0.0133178 -30.4917 0)
(0.00195858 -30.4917 0)
(-0.00912402 -30.4919 0)
(-0.0211836 -30.4924 0)
(-0.0355611 -30.4934 0)
(-0.0538243 -30.4952 0)
(-0.0779379 -30.4986 0)
(-0.110278 -30.5049 0)
(-0.153493 -30.5167 0)
(-0.210381 -30.538 0)
(-0.283038 -30.5757 0)
(-0.370686 -30.6408 0)
(-0.465936 -30.7486 0)
(-0.548019 -30.9181 0)
(-0.570326 -31.1652 0)
(-0.462663 -31.4634 0)
(-0.183368 -31.6991 0)
(0.358402 -32.5439 0)
(0.874892 -32.0504 0)
(1.03509 -31.498 0)
(0.966517 -31.0736 0)
(0.806128 -30.795 0)
(0.631947 -30.6263 0)
(0.477113 -30.5309 0)
(0.351738 -30.4799 0)
(0.255357 -30.4545 0)
(0.183433 -30.4428 0)
(0.13046 -30.4382 0)
(0.0917047 -30.4372 0)
(0.0633464 -30.4376 0)
(0.0422969 -30.4385 0)
(0.0262059 -30.4394 0)
(0.0132477 -30.4401 0)
(0.00189726 -30.4405 0)
(-0.00917834 -30.4405 0)
(-0.0212806 -30.4402 0)
(-0.03581 -30.4397 0)
(-0.0544373 -30.4392 0)
(-0.0793956 -30.4392 0)
(-0.113532 -30.4407 0)
(-0.160152 -30.4462 0)
(-0.223278 -30.4595 0)
(-0.30701 -30.4881 0)
(-0.413142 -30.5449 0)
(-0.537119 -30.6498 0)
(-0.659898 -30.8313 0)
(-0.723166 -31.1283 0)
(-0.617738 -31.5282 0)
(-0.25325 -31.8789 0)
(0.506906 -32.9396 0)
(1.18122 -32.1754 0)
(1.30832 -31.4389 0)
(1.15416 -30.9396 0)
(0.920091 -30.6464 0)
(0.695898 -30.4868 0)
(0.510317 -30.4083 0)
(0.36745 -30.374 0)
(0.261743 -30.3631 0)
(0.185265 -30.3624 0)
(0.130184 -30.3659 0)
(0.0906193 -30.3708 0)
(0.0621447 -30.3755 0)
(0.0412538 -30.3792 0)
(0.0254331 -30.3821 0)
(0.0127996 -30.3838 0)
(0.00177408 -30.3846 0)
(-0.0089858 -30.3845 0)
(-0.0207992 -30.3833 0)
(-0.0350849 -30.3814 0)
(-0.0535451 -30.3785 0)
(-0.07867 -30.3746 0)
(-0.113818 -30.3708 0)
(-0.16289 -30.3691 0)
(-0.23129 -30.3725 0)
(-0.325722 -30.3887 0)
(-0.45157 -30.4324 0)
(-0.609128 -30.5275 0)
(-0.787248 -30.7113 0)
(-0.918788 -31.0616 0)
(-0.837974 -31.6015 0)
(-0.358734 -32.1429 0)
(0.740519 -33.5238 0)
(1.62523 -32.2906 0)
(1.65295 -31.3171 0)
(1.36276 -30.7504 0)
(1.03257 -30.4604 0)
(0.751004 -30.3226 0)
(0.533468 -30.2702 0)
(0.37436 -30.2578 0)
(0.261191 -30.2644 0)
(0.182019 -30.2763 0)
(0.126226 -30.2886 0)
(0.0869021 -30.3 0)
(0.0591462 -30.309 0)
(0.0390106 -30.3156 0)
(0.0239065 -30.3203 0)
(0.0119731 -30.3232 0)
(0.00159121 -30.3243 0)
(-0.00853968 -30.324 0)
(-0.0197278 -30.3221 0)
(-0.0333663 -30.3186 0)
(-0.0510644 -30.3132 0)
(-0.0755507 -30.3054 0)
(-0.110779 -30.2956 0)
(-0.161006 -30.2861 0)
(-0.233077 -30.2776 0)
(-0.336952 -30.2779 0)
(-0.482562 -30.3024 0)
(-0.67661 -30.3787 0)
(-0.926949 -30.5456 0)
(-1.16824 -30.9437 0)
(-1.15836 -31.6708 0)
(-0.523957 -32.5391 0)
(1.12352 -34.4142 0)
(2.28456 -32.3382 0)
(2.07841 -31.0906 0)
(1.58255 -30.4883 0)
(1.13399 -30.2322 0)
(0.791003 -30.1329 0)
(0.5427 -30.1176 0)
(0.370302 -30.1325 0)
(0.252519 -30.1601 0)
(0.173203 -30.1856 0)
(0.118345 -30.207 0)
(0.0804308 -30.2252 0)
(0.0543385 -30.2386 0)
(0.0355741 -30.2479 0)
(0.0216283 -30.2546 0)
(0.0107812 -30.2585 0)
(0.00135179 -30.2601 0)
(-0.00783889 -30.2596 0)
(-0.018071 -30.2567 0)
(-0.0306819 -30.2518 0)
(-0.046962 -30.2443 0)
(-0.0698552 -30.2323 0)
(-0.104146 -30.216 0)
(-0.153876 -30.1983 0)
(-0.227207 -30.1761 0)
(-0.338148 -30.1566 0)
(-0.501991 -30.1553 0)
(-0.730718 -30.2031 0)
(-1.06974 -30.3181 0)
(-1.48139 -30.7399 0)
(-1.63568 -31.7017 0)
(-0.792882 -33.1499 0)
(1.77852 -35.8222 0)
(3.28705 -32.1763 0)
(2.57794 -30.6995 0)
(1.79194 -30.1356 0)
(1.21025 -29.9606 0)
(0.808313 -29.9177 0)
(0.533689 -29.9529 0)
(0.353123 -29.9991 0)
(0.234611 -30.0515 0)
(0.15854 -30.0912 0)
(0.106417 -30.1216 0)
(0.0711338 -30.147 0)
(0.0477882 -30.1645 0)
(0.0309926 -30.1763 0)
(0.0186128 -30.185 0)
(0.00925523 -30.1898 0)
(0.00105813 -30.1916 0)
(-0.00688693 -30.1911 0)
(-0.0158453 -30.1873 0)
(-0.0271261 -30.1811 0)
(-0.0412773 -30.1717 0)
(-0.0614132 -30.1555 0)
(-0.0938005 -30.132 0)
(-0.141059 -30.107 0)
(-0.212236 -30.0692 0)
(-0.326541 -30.0261 0)
(-0.505795 -29.9912 0)
(-0.758034 -30.0061 0)
(-1.19533 -30.0096 0)
(-1.86005 -30.397 0)
(-2.3634 -31.608 0)
(-1.24804 -34.1203 0)
(2.9465 -38.1412 0)
(4.84591 -31.4697 0)
(3.09874 -30.077 0)
(1.95201 -29.6817 0)
(1.24297 -29.6515 0)
(0.794878 -29.6781 0)
(0.501952 -29.7805 0)
(0.320982 -29.8594 0)
(0.20647 -29.9412 0)
(0.138154 -29.9944 0)
(0.090457 -30.0326 0)
(0.0589725 -30.066 0)
(0.0396822 -30.0871 0)
(0.0253608 -30.1007 0)
(0.0148749 -30.1115 0)
(0.00745734 -30.1172 0)
(0.000706259 -30.119 0)
(-0.00568988 -30.1188 0)
(-0.013062 -30.1137 0)
(-0.0228947 -30.1064 0)
(-0.0341603 -30.0961 0)
(-0.0500005 -30.0758 0)
(-0.0798761 -30.0436 0)
(-0.122465 -30.014 0)
(-0.186783 -29.9588 0)
(-0.299135 -29.8887 0)
(-0.491989 -29.8098 0)
(-0.739933 -29.8073 0)
(-1.26518 -29.6005 0)
(-2.28057 -29.8442 0)
(-3.49732 -31.1859 0)
(-2.04904 -35.7165 0)
)
;

boundaryField
{
    left
    {
        type            calculated;
        value           nonuniform List<vector> 
16
(
(0 -31.6093 0)
(0 -31.6174 0)
(0 -31.6342 0)
(0 -31.6611 0)
(0 -31.7001 0)
(0 -31.7547 0)
(0 -31.8298 0)
(0 -31.9324 0)
(0 -32.0733 0)
(0 -32.2687 0)
(0 -32.5439 0)
(0 -32.9396 0)
(0 -33.5238 0)
(0 -34.4142 0)
(0 -35.8222 0)
(0 -38.1412 0)
)
;
    }
    right
    {
        type            calculated;
        value           nonuniform List<vector> 
16
(
(0 -31.3045 0)
(0 -31.3086 0)
(0 -31.3172 0)
(0 -31.3312 0)
(0 -31.3522 0)
(0 -31.3826 0)
(0 -31.4259 0)
(0 -31.4873 0)
(0 -31.5745 0)
(0 -31.6991 0)
(0 -31.8789 0)
(0 -32.1429 0)
(0 -32.5391 0)
(0 -33.1499 0)
(0 -34.1203 0)
(0 -35.7165 0)
)
;
    }
    interface
    {
        type            calculated;
        value           nonuniform List<vector> 
32
(
(2.9465 -39.5926 0)
(4.84591 -30.9215 0)
(3.09874 -29.6996 0)
(1.95201 -29.4288 0)
(1.24297 -29.489 0)
(0.794878 -29.5525 0)
(0.501952 -29.6932 0)
(0.320982 -29.7882 0)
(0.20647 -29.8861 0)
(0.138154 -29.9455 0)
(0.090457 -29.9873 0)
(0.0589725 -30.0249 0)
(0.0396822 -30.0477 0)
(0.0253608 -30.062 0)
(0.0148749 -30.0739 0)
(0.00745734 -30.0799 0)
(0.000706259 -30.0817 0)
(-0.00568988 -30.0817 0)
(-0.013062 -30.0759 0)
(-0.0228947 -30.0682 0)
(-0.0341603 -30.0577 0)
(-0.0500005 -30.0354 0)
(-0.0798761 -29.9983 0)
(-0.122465 -29.9674 0)
(-0.186783 -29.903 0)
(-0.299135 -29.8187 0)
(-0.491989 -29.7146 0)
(-0.739933 -29.7111 0)
(-1.26518 -29.3684 0)
(-2.28057 -29.5055 0)
(-3.49732 -30.8571 0)
(-2.04904 -36.7145 0)
)
;
    }
    bottom
    {
        type            calculated;
        value           nonuniform List<vector> 
32
(
(0.0057891 -31.6074 0)
(0.0161927 -31.5611 0)
(0.0235518 -31.4778 0)
(0.0272143 -31.3726 0)
(0.0275639 -31.2601 0)
(0.0255637 -31.1521 0)
(0.022258 -31.0556 0)
(0.0184709 -30.9741 0)
(0.0147885 -30.9078 0)
(0.0114903 -30.8558 0)
(0.0087006 -30.8159 0)
(0.00642975 -30.7862 0)
(0.00461866 -30.7645 0)
(0.00317914 -30.7492 0)
(0.00201716 -30.739 0)
(0.00104232 -30.7331 0)
(0.000169826 -30.7307 0)
(-0.000680648 -30.7317 0)
(-0.00158724 -30.7362 0)
(-0.00262784 -30.7444 0)
(-0.00387987 -30.7572 0)
(-0.00541583 -30.7754 0)
(-0.00729128 -30.8005 0)
(-0.00952196 -30.8338 0)
(-0.0120468 -30.8767 0)
(-0.0146773 -30.9302 0)
(-0.0170429 -30.9941 0)
(-0.0185619 -31.0665 0)
(-0.018491 -31.1426 0)
(-0.0161214 -31.2144 0)
(-0.0111372 -31.2716 0)
(-0.00399503 -31.3035 0)
)
;
    }
    defaultFaces
    {
        type            empty;
    }
}


// ************************************************************************* //
