/*--------------------------------*- C++ -*----------------------------------*\
| =========                 |                                                 |
| \\      /  F ield         | OpenFOAM: The Open Source CFD Toolbox           |
|  \\    /   O peration     | Version:  4.1                                   |
|   \\  /    A nd           | Web:      www.OpenFOAM.org                      |
|    \\/     M anipulation  |                                                 |
\*---------------------------------------------------------------------------*/
FoamFile
{
    version     2.0;
    format      ascii;
    class       volVectorField;
    location    "0.4";
    object      Force;
}
// * * * * * * * * * * * * * * * * * * * * * * * * * * * * * * * * * * * * * //

dimensions      [1 1 -2 0 0 0 0];

internalField   uniform (0 0 0);

boundaryField
{
    inlet
    {
        type            calculated;
        value           uniform (0 0 0);
    }
    outlet
    {
        type            calculated;
        value           uniform (0 0 0);
    }
    flap
    {
        type            calculated;
        value           nonuniform List<vector> 
33
(
(2.31046 0 -0.102489)
(2.28147 1.75924e-18 -0.201076)
(2.24543 -8.65378e-21 -0.261431)
(2.21097 1.66839e-18 -0.276278)
(2.17917 -1.34629e-18 -0.270191)
(2.14316 -2.9259e-18 -0.256884)
(2.09575 -1.61054e-18 -0.239542)
(2.03372 -3.67342e-40 -0.214453)
(1.95815 -9.51035e-23 -0.181212)
(1.86697 1.27395e-18 -0.147001)
(1.75022 -1.59871e-18 -0.118229)
(1.59403 2.26676e-21 -0.0944702)
(1.37484 1.61358e-18 -0.0738226)
(1.04208 -2.31218e-18 -0.0516501)
(0.46159 1.58275e-18 -0.0184023)
(0.0759994 -8.15923e-19 1.28634)
(0.0583649 -8.80458e-22 1.08623)
(0.0502353 1.14992e-21 0.889216)
(1.17844 4.16921e-19 -0.0538539)
(1.18972 2.34205e-18 -0.105437)
(1.20818 3.23278e-18 -0.140716)
(1.23394 1.60887e-18 -0.153602)
(1.269 -9.79082e-20 -0.156548)
(1.31698 -1.45834e-19 -0.156823)
(1.37607 -1.65214e-18 -0.156028)
(1.44072 1.66234e-18 -0.150715)
(1.50341 1.67105e-18 -0.13805)
(1.55482 3.3372e-18 -0.121876)
(1.58962 -1.65885e-18 -0.107465)
(1.6064 1.65485e-18 -0.0963538)
(1.60427 2.73721e-18 -0.0890741)
(1.58586 -1.07102e-18 -0.0850367)
(1.55458 6.3361e-19 -0.0839801)
)
;
    }
    upperWall
    {
        type            calculated;
        value           uniform (0 0 0);
    }
    lowerWall
    {
        type            calculated;
        value           uniform (0 0 0);
    }
    frontAndBack
    {
        type            empty;
    }
}


// ************************************************************************* //
