/*--------------------------------*- C++ -*----------------------------------*\
| =========                 |                                                 |
| \\      /  F ield         | OpenFOAM: The Open Source CFD Toolbox           |
|  \\    /   O peration     | Version:  5.x                                   |
|   \\  /    A nd           | Web:      www.OpenFOAM.org                      |
|    \\/     M anipulation  |                                                 |
\*---------------------------------------------------------------------------*/
FoamFile
{
    version     2.0;
    format      ascii;
    class       volVectorField;
    location    "2.6";
    object      U;
}
// * * * * * * * * * * * * * * * * * * * * * * * * * * * * * * * * * * * * * //

dimensions      [0 1 -1 0 0 0 0];

internalField   nonuniform List<vector> 
2790
(
(9.93587 0.0203283 0)
(9.86183 0.027259 2.39958e-20)
(9.76053 0.0317103 7.42421e-20)
(9.64093 0.0364621 -1.02347e-19)
(9.50895 0.0414333 5.27911e-20)
(9.36549 0.0465249 5.47351e-20)
(9.21003 0.0518389 1.13879e-19)
(9.04214 0.0575133 1.1823e-19)
(8.86145 0.0636693 0)
(8.66741 0.0704163 -2.57228e-19)
(8.45928 0.0778618 1.31849e-19)
(8.23613 0.086119 0)
(7.99693 0.0953152 1.47229e-19)
(7.74052 0.105595 -1.47815e-19)
(7.46558 0.117117 -3.16451e-19)
(7.17068 0.130059 -5.07e-19)
(6.85425 0.144616 6.99134e-19)
(6.51462 0.160993 0)
(6.15004 0.179409 0)
(5.75875 0.200081 0)
(5.33898 0.223227 0)
(4.8891 0.249047 0)
(4.40767 0.277704 0)
(3.8936 0.309293 0)
(3.34642 0.343741 5.28797e-18)
(2.76638 0.380538 -5.02807e-18)
(2.15498 0.417977 0)
(1.5166 0.449769 0)
(0.84325 0.450876 0)
(0.297825 0.267153 0)
(10.0016 0.038729 -3.72446e-19)
(9.9887 0.0549218 0)
(9.95028 0.0664025 -1.96298e-19)
(9.89101 0.0788695 -1.23323e-22)
(9.81586 0.0922251 -3.13445e-19)
(9.72609 0.106197 2.1459e-19)
(9.62153 0.120985 -1.11269e-19)
(9.50194 0.136905 -3.4514e-19)
(9.36713 0.154244 0)
(9.21669 0.173269 -7.43659e-19)
(9.05002 0.194241 8.97657e-19)
(8.86631 0.217436 -5.29529e-19)
(8.66461 0.243165 -1.25358e-18)
(8.44384 0.271769 2.74143e-18)
(8.20274 0.303615 -8.95216e-19)
(7.9399 0.339101 -1.57298e-19)
(7.65377 0.378647 -2.65277e-18)
(7.34261 0.42267 5.17675e-18)
(7.00456 0.471566 4.45587e-20)
(6.63764 0.525672 -3.02856e-18)
(6.23976 0.585233 2.44132e-18)
(5.80881 0.650336 -9.39052e-18)
(5.34261 0.720848 7.1659e-18)
(4.83895 0.796305 0)
(4.29569 0.875685 7.71873e-18)
(3.71049 0.957039 -8.69267e-18)
(3.07975 1.0368 0)
(2.39725 1.10877 0)
(1.6237 1.16726 2.43097e-17)
(0.908424 1.16767 -2.53456e-17)
(9.99864 0.0382006 5.07682e-22)
(9.98315 0.0623309 9.52583e-20)
(9.94703 0.0821196 9.83449e-20)
(9.89235 0.102928 4.71191e-22)
(9.82288 0.125117 0)
(9.74 0.148494 0)
(9.64377 0.173324 4.43953e-19)
(9.53404 0.200061 6.91284e-19)
(9.41067 0.229156 9.1196e-21)
(9.27337 0.261042 -7.27826e-19)
(9.12164 0.296149 5.0585e-19)
(8.95483 0.334943 2.6193e-19)
(8.77215 0.377948 2.72331e-19)
(8.57266 0.425736 -2.55938e-18)
(8.35531 0.478928 3.8224e-18)
(8.11886 0.538216 6.4539e-19)
(7.86189 0.604356 -2.53302e-18)
(7.5828 0.678124 6.36197e-18)
(7.27978 0.760278 7.77165e-19)
(6.95076 0.851532 -6.504e-18)
(6.59346 0.952502 7.671e-18)
(6.20531 1.06362 -7.15834e-18)
(5.7833 1.18503 0)
(5.32383 1.3165 -8.82278e-19)
(4.82245 1.45729 0)
(4.27311 1.6061 0)
(3.66648 1.7611 0)
(2.9891 1.92079 0)
(2.19628 2.09148 -2.3491e-18)
(1.33481 2.30656 4.32923e-17)
(9.99683 0.0416598 1.11483e-18)
(9.97898 0.0751771 0)
(9.94267 0.104442 0)
(9.88901 0.133789 1.36655e-21)
(9.8209 0.164343 -8.25518e-19)
(9.73974 0.196308 0)
(9.64573 0.230107 -4.39039e-19)
(9.53881 0.266336 4.58107e-19)
(9.41896 0.305605 -4.64626e-19)
(9.28602 0.348515 9.73172e-19)
(9.13968 0.395662 -3.25995e-18)
(8.97946 0.447677 2.31859e-18)
(8.80483 0.50528 0)
(8.61511 0.569253 0)
(8.40955 0.640442 3.47775e-18)
(8.18725 0.719821 -2.98065e-18)
(7.94717 0.808483 -6.20917e-19)
(7.68807 0.907583 -6.48784e-19)
(7.40854 1.01831 -6.7538e-19)
(7.10685 1.14189 4.45894e-21)
(6.78099 1.2795 -1.25201e-17)
(6.42844 1.43231 1.36397e-17)
(6.04605 1.60133 -1.28261e-17)
(5.62963 1.78733 1.57101e-17)
(5.17349 1.99097 1.72755e-18)
(4.66956 2.21319 2.92037e-17)
(4.10599 2.45613 -3.02115e-17)
(3.46657 2.72527 0)
(2.73972 3.01448 -3.28257e-17)
(1.76918 3.46524 -2.25002e-18)
(9.9959 0.0465213 -1.57654e-18)
(9.97653 0.0876831 9.46611e-20)
(9.93994 0.125005 3.89798e-19)
(9.88718 0.161961 1.05664e-21)
(9.82045 0.20017 8.22923e-19)
(9.741 0.240219 0)
(9.64904 0.282672 8.32087e-22)
(9.54458 0.328191 9.00012e-19)
(9.42767 0.377478 -4.64738e-19)
(9.29822 0.431252 1.92691e-18)
(9.156 0.490225 -1.96963e-18)
(9.00069 0.555139 -1.02273e-18)
(8.83189 0.626853 -2.12856e-18)
(8.64918 0.706314 2.17573e-18)
(8.45197 0.79454 -5.67608e-19)
(8.23961 0.892709 5.85129e-19)
(8.01141 1.00217 5.50758e-18)
(7.76657 1.12437 -8.83111e-18)
(7.5041 1.2609 5.19461e-18)
(7.22273 1.41347 -8.89376e-18)
(6.92091 1.58391 1.11808e-17)
(6.59659 1.77416 -1.46616e-18)
(6.24705 1.98632 1.21853e-17)
(5.86837 2.22271 -2.82408e-17)
(5.45509 2.48605 1.12952e-17)
(4.9996 2.77983 0)
(4.49138 3.10929 -2.43251e-17)
(3.90903 3.48858 2.8286e-17)
(3.31782 3.86504 0)
(2.25529 4.53472 2.0239e-18)
(9.99544 0.052115 7.40719e-19)
(9.97523 0.100289 7.54719e-19)
(9.93866 0.145308 0)
(9.887 0.189921 0)
(9.82195 0.235883 4.08127e-19)
(9.74449 0.284041 -8.4526e-19)
(9.6549 0.335085 4.27459e-19)
(9.55331 0.389734 4.42436e-19)
(9.43977 0.448769 0)
(9.31423 0.513028 1.90615e-18)
(9.17653 0.583335 -1.94627e-18)
(9.02643 0.660531 5.05405e-19)
(8.8636 0.745582 0)
(8.68791 0.839598 -1.07287e-18)
(8.49888 0.943781 5.58085e-18)
(8.2959 1.05947 -6.28481e-18)
(8.07862 1.1882 0)
(7.84656 1.33168 -1.2308e-18)
(7.59913 1.49186 1.02079e-17)
(7.33543 1.67091 -1.30313e-17)
(7.05444 1.87124 -1.34528e-18)
(6.75477 2.09561 0)
(6.43442 2.34718 2.31517e-17)
(6.09045 2.62977 -2.20799e-17)
(5.71865 2.94811 0)
(5.31334 3.30808 0)
(4.86891 3.71546 -2.84533e-17)
(4.3498 4.19629 2.53425e-17)
(3.93371 4.61886 -3.12824e-18)
(2.78917 5.4639 -5.53175e-17)
(9.99521 0.058076 7.37101e-19)
(9.97473 0.112935 -1.88255e-18)
(9.93852 0.165229 7.69891e-19)
(9.88813 0.217225 3.95487e-19)
(9.82498 0.270679 -1.62801e-18)
(9.74981 0.326629 0)
(9.66299 0.385891 0)
(9.56478 0.449261 1.77754e-18)
(9.45518 0.517631 -3.64383e-18)
(9.33412 0.591954 1.86677e-18)
(9.20159 0.673134 9.63423e-19)
(9.05741 0.762103 -3.99994e-18)
(8.90131 0.859896 4.07756e-18)
(8.73334 0.967767 5.30824e-18)
(8.55315 1.08713 -5.42156e-18)
(8.36021 1.21943 5.64131e-18)
(8.1544 1.36634 -5.75049e-18)
(7.93545 1.52977 -8.40493e-18)
(7.70305 1.712 9.76073e-18)
(7.45678 1.9156 1.26939e-18)
(7.19607 2.14352 2.59622e-18)
(6.92021 2.39919 2.14374e-17)
(6.62811 2.68683 -2.17448e-17)
(6.31815 3.01151 2.76472e-18)
(5.98799 3.37934 -2.27495e-17)
(5.63404 3.79811 2.28826e-17)
(5.25861 4.27132 0)
(4.80045 4.84261 2.78315e-18)
(4.57034 5.27825 5.61059e-18)
(3.34948 6.24788 0)
(9.99511 0.0641845 -7.36266e-19)
(9.97479 0.125484 7.50777e-19)
(9.9393 0.184671 -7.69404e-19)
(9.89037 0.243754 0)
(9.82938 0.304443 1.62158e-18)
(9.75688 0.3679 1.11047e-21)
(9.67333 0.435051 0)
(9.579 0.506803 2.63613e-18)
(9.47374 0.584159 -1.79519e-18)
(9.35766 0.668131 2.78582e-18)
(9.23091 0.759685 -1.90064e-18)
(9.09334 0.859851 3.93832e-18)
(8.94487 0.969761 -4.0092e-18)
(8.78534 1.09076 0)
(8.61467 1.22443 1.06146e-18)
(8.43274 1.37237 0)
(8.2394 1.53635 1.0185e-17)
(8.03453 1.71849 -1.96577e-17)
(7.81809 1.9213 1.06186e-17)
(7.59012 2.14772 9.77567e-18)
(7.3505 2.40115 7.60653e-18)
(7.09916 2.68564 -4.06335e-17)
(6.83595 3.00614 2.06001e-17)
(6.56067 3.36876 -2.62456e-17)
(6.27307 3.78056 2.10753e-17)
(5.97084 4.25073 0)
(5.66682 4.7777 0)
(5.26348 5.42916 -2.5678e-18)
(5.21115 5.85852 -2.53205e-18)
(3.91906 6.90732 0)
(9.99517 0.0702907 0)
(9.97526 0.137797 0)
(9.94075 0.203538 -7.66296e-19)
(9.89354 0.269401 1.56531e-18)
(9.83496 0.337029 0)
(9.76549 0.407662 5.43611e-21)
(9.68562 0.482354 -1.68691e-18)
(9.59547 0.562148 -8.69792e-19)
(9.49491 0.648102 0)
(9.38435 0.741233 -4.11152e-21)
(9.264 0.842579 -1.8779e-18)
(9.13372 0.95329 3.87476e-18)
(8.99359 1.07463 -3.93898e-18)
(8.84328 1.208 0)
(8.68301 1.35505 -2.08263e-18)
(8.51306 1.51756 0)
(8.33322 1.69747 1.08866e-18)
(8.14358 1.89705 -1.01165e-17)
(7.9444 2.11902 -1.23793e-18)
(7.73603 2.36657 9.30273e-18)
(7.51882 2.64354 1.1977e-18)
(7.29339 2.95448 -2.39332e-18)
(7.06043 3.30485 0)
(6.82102 3.70148 2.47903e-18)
(6.57695 4.15222 1.95653e-17)
(6.32615 4.66754 -5.55518e-17)
(6.09366 5.2388 3.78994e-17)
(5.7378 5.96285 0)
(5.84192 6.38405 0)
(4.4834 7.48278 0)
(9.99544 0.0762866 1.27496e-18)
(9.97599 0.149778 1.67037e-18)
(9.94262 0.221751 -7.59733e-19)
(9.89736 0.29406 6.87006e-22)
(9.84145 0.368298 -1.59711e-18)
(9.77528 0.445762 2.46002e-18)
(9.69931 0.527642 -1.67203e-18)
(9.6136 0.615087 0)
(9.5183 0.709155 -8.78871e-19)
(9.41394 0.810877 2.72178e-18)
(9.30057 0.921396 -3.68131e-18)
(9.17821 1.04198 0)
(9.04698 1.174 3.90271e-18)
(8.9068 1.31892 3.6707e-20)
(8.75793 1.47841 -2.01641e-18)
(8.60077 1.65439 0)
(8.43539 1.84898 -1.09553e-20)
(8.2621 2.06462 -6.53807e-18)
(8.08142 2.30419 8.78775e-18)
(7.89402 2.57114 0)
(7.70074 2.86961 0)
(7.50283 3.20457 2.30956e-18)
(7.30172 3.58193 1.83939e-17)
(7.09948 4.00906 -1.83144e-17)
(6.89985 4.49435 2.23144e-18)
(6.69996 5.05018 -3.73955e-17)
(6.53789 5.6601 3.42761e-17)
(6.22422 6.453 1.9539e-18)
(6.46284 6.87991 3.01938e-17)
(5.04263 8.03988 -3.36007e-17)
(9.9958 0.0821031 -1.63713e-18)
(9.97691 0.161362 -9.26447e-19)
(9.94487 0.239242 -3.73014e-19)
(9.90179 0.317638 -7.7304e-19)
(9.84877 0.398132 7.91243e-19)
(9.78616 0.482073 8.1287e-19)
(9.71433 0.570752 8.37793e-19)
(9.63351 0.665373 -8.47057e-19)
(9.54405 0.767 -2.62233e-18)
(9.44634 0.876731 3.55045e-18)
(9.34045 0.995809 4.57428e-18)
(9.22654 1.12558 -3.71336e-18)
(9.10482 1.26748 0)
(8.97547 1.42303 0)
(8.8388 1.59393 -1.98577e-18)
(8.69525 1.78222 0)
(8.54523 1.99017 -1.03608e-18)
(8.38931 2.22036 -1.15409e-17)
(8.22829 2.47584 8.46318e-18)
(8.06317 2.76026 0)
(7.89526 3.07803 2.14214e-18)
(7.72646 3.43449 2.14461e-18)
(7.55877 3.83599 0)
(7.3953 4.29041 0)
(7.24135 4.80657 -4.1694e-18)
(7.09256 5.39982 1.97615e-18)
(7.00015 6.04653 0)
(6.72937 6.90725 -2.98396e-17)
(7.09346 7.35925 1.51882e-18)
(5.6179 8.62741 2.96244e-17)
(9.99616 0.0876933 -1.44417e-18)
(9.97802 0.172468 -3.68416e-19)
(9.94751 0.255922 2.63613e-18)
(9.90681 0.34003 -7.68044e-19)
(9.85692 0.426405 -2.87815e-21)
(9.79813 0.516445 0)
(9.73078 0.611494 1.64538e-18)
(9.65527 0.712782 -1.68227e-18)
(9.57198 0.821418 0)
(9.48123 0.938578 0)
(9.38325 1.06557 0)
(9.27828 1.20377 -9.12489e-19)
(9.16664 1.35467 0)
(9.04868 1.51983 9.47599e-19)
(8.92485 1.70104 -6.80523e-18)
(8.7957 1.90041 7.84838e-18)
(8.6619 2.12031 -8.01663e-18)
(8.52428 2.36344 1.00989e-17)
(8.38394 2.63296 -2.02589e-18)
(8.24229 2.93276 -1.64493e-17)
(8.10108 3.26748 1.43488e-17)
(7.96272 3.64276 1.63174e-17)
(7.83023 4.06543 -3.23388e-17)
(7.70748 4.54398 1.20059e-19)
(7.60105 5.08775 4.77663e-17)
(7.5054 5.71618 -2.4461e-18)
(7.48371 6.40029 -8.86088e-19)
(7.26451 7.32724 -5.02816e-17)
(7.7552 7.82423 2.46531e-17)
(6.23574 9.25573 -7.47183e-19)
(9.99654 0.0930187 1.44172e-18)
(9.97929 0.183019 0)
(9.9505 0.271709 -1.49275e-18)
(9.91235 0.361153 1.52526e-18)
(9.86578 0.45302 7.82774e-19)
(9.81101 0.548756 -1.59167e-18)
(9.74842 0.64972 -2.45034e-18)
(9.67849 0.757159 2.49311e-18)
(9.60164 0.872243 0)
(9.51822 0.996208 0)
(9.42853 1.13039 0)
(9.33295 1.27622 -1.81158e-18)
(9.2319 1.4352 3.6498e-18)
(9.12586 1.60895 -1.86108e-18)
(9.01543 1.79931 0)
(8.90133 2.00844 0)
(8.78447 2.23878 9.68382e-18)
(8.66596 2.4931 -7.7872e-18)
(8.54722 2.77467 1.9764e-18)
(8.43007 3.08756 0)
(8.31678 3.43661 -1.75492e-17)
(8.21029 3.82769 1.16031e-17)
(8.11475 4.26816 1.86898e-18)
(8.03467 4.76721 0)
(7.97835 5.33516 -1.72588e-18)
(7.93969 5.9955 0)
(7.99211 6.71821 0)
(7.84161 7.70561 1.33125e-18)
(8.45977 8.27471 1.94513e-17)
(6.91608 9.93581 -4.21292e-17)
(9.99695 0.098045 1.42929e-18)
(9.98069 0.192952 1.45284e-18)
(9.95377 0.286525 2.23284e-18)
(9.91833 0.380925 -2.27785e-18)
(9.87519 0.477882 -1.54582e-18)
(9.82462 0.578874 0)
(9.76703 0.68526 0)
(9.70295 0.798304 0)
(9.63281 0.919237 -8.35811e-19)
(9.55703 1.04934 0)
(9.47599 1.18998 0)
(9.39019 1.3426 -1.76667e-18)
(9.30011 1.50871 -8.93154e-19)
(9.20642 1.68996 9.13961e-19)
(9.10984 1.88823 -1.83176e-18)
(9.01131 2.1057 -7.45771e-18)
(8.91199 2.34485 3.73321e-18)
(8.81325 2.60847 0)
(8.71682 2.89993 0)
(8.62503 3.22338 1.858e-18)
(8.54072 3.58379 3.71113e-18)
(8.46753 3.98723 3.64398e-18)
(8.41038 4.44146 -3.54335e-18)
(8.37505 4.95645 0)
(8.37183 5.54379 5.95564e-20)
(8.39515 6.22941 -2.33877e-17)
(8.52662 6.98893 2.22794e-17)
(8.47082 8.02096 -8.87148e-20)
(9.21889 8.69568 1.30626e-19)
(7.68964 10.702 -1.76995e-18)
(9.99739 0.102746 -1.42668e-18)
(9.98221 0.202223 -2.89375e-18)
(9.95727 0.300326 -7.39261e-19)
(9.92465 0.399308 7.52212e-19)
(9.8851 0.500952 1.53985e-18)
(9.83891 0.606743 3.13307e-18)
(9.78654 0.718049 -1.59326e-18)
(9.72851 0.836163 -8.10777e-19)
(9.66532 0.96236 5.01152e-21)
(9.59743 1.09795 0)
(9.52531 1.2443 0)
(9.44953 1.40286 8.70903e-19)
(9.37072 1.57513 -6.16606e-18)
(9.28971 1.7628 7.09642e-18)
(9.20734 1.96772 1.80508e-18)
(9.12473 2.19207 0)
(9.0434 2.43834 1.8279e-18)
(8.9649 2.70932 -7.26776e-18)
(8.89127 3.00837 7.23682e-18)
(8.82538 3.33962 1.25037e-17)
(8.77072 3.70807 -1.76687e-17)
(8.73168 4.11985 -4.22556e-20)
(8.71419 4.58295 3.32032e-18)
(8.7257 5.10787 -1.55412e-18)
(8.77794 5.70676 1.50592e-18)
(8.8688 6.40573 0)
(9.08321 7.19149 5.89195e-19)
(9.15175 8.23827 -1.69679e-17)
(10.0188 9.07638 1.54274e-17)
(8.55832 11.8939 1.60876e-17)
(-0.0112748 -0.00720183 0)
(0.0607834 -0.036423 0)
(0.222271 -0.0544064 0)
(0.409497 -0.0520652 0)
(0.590412 -0.0418196 1.44487e-20)
(0.738026 -0.0312216 6.18313e-20)
(0.847321 -0.0227714 -6.33616e-20)
(0.925947 -0.0166293 7.19722e-20)
(0.982335 -0.011923 -7.47021e-20)
(1.0222 -0.00777021 0)
(1.04948 -0.00439919 0)
(1.06796 -0.00251755 0)
(1.08204 -0.00162599 0)
(1.09363 -8.83381e-05 2.07852e-20)
(1.10079 0.00245128 0)
(1.10214 0.00422964 9.92609e-21)
(1.10113 0.0034426 -9.52693e-21)
(1.10443 4.73747e-05 -9.02615e-21)
(1.11712 -0.00440893 1.66189e-20)
(1.13935 -0.00790812 -8.14093e-21)
(1.16705 -0.00938299 0)
(1.19501 -0.00917274 3.28347e-21)
(1.22006 -0.00857421 0)
(1.24258 -0.00884816 0)
(1.26591 -0.0107177 -1.91035e-21)
(1.29458 -0.014275 1.90618e-21)
(1.33276 -0.0192137 -1.25975e-21)
(1.3833 -0.0250019 1.61425e-22)
(1.44665 -0.0305616 2.85645e-22)
(1.5392 -0.0338658 0)
(-0.016495 -0.0114479 -1.93036e-21)
(0.0573739 -0.11366 6.35779e-21)
(0.204708 -0.152544 -2.52092e-19)
(0.384349 -0.145522 -3.67227e-21)
(0.564345 -0.121052 -4.32972e-20)
(0.716053 -0.0950092 -2.48746e-19)
(0.831805 -0.0734624 2.55831e-19)
(0.917304 -0.0574696 0)
(0.981067 -0.0452709 0)
(1.02928 -0.0343648 1.2072e-19)
(1.06458 -0.0252006 -1.6465e-19)
(1.08946 -0.0199556 0)
(1.10933 -0.0177622 0)
(1.12851 -0.0145709 -4.15398e-20)
(1.14511 -0.00924334 -4.01772e-20)
(1.15485 -0.00475399 1.14548e-20)
(1.15807 -0.00480245 3.04134e-20)
(1.16035 -0.0103613 2.79111e-20)
(1.16793 -0.0188227 -8.41882e-21)
(1.18401 -0.0260642 0)
(1.20769 -0.0290467 7.2388e-21)
(1.23529 -0.0276277 1.57258e-20)
(1.26287 -0.024623 -1.23847e-20)
(1.28802 -0.0233623 4.66536e-21)
(1.31038 -0.0261573 3.43797e-21)
(1.33134 -0.0339292 -7.21416e-21)
(1.35311 -0.0457476 1.25589e-21)
(1.37857 -0.0594326 -1.65782e-21)
(1.41106 -0.0725077 -4.46409e-22)
(1.46805 -0.0810147 2.0156e-22)
(-0.00825014 -0.0167861 -1.28647e-18)
(0.0510466 -0.189486 5.98932e-19)
(0.16053 -0.239873 5.09031e-19)
(0.305862 -0.228196 -9.20184e-19)
(0.453542 -0.192005 -2.78419e-20)
(0.577565 -0.152885 -2.72334e-20)
(0.669873 -0.119725 5.28762e-19)
(0.734181 -0.0948854 3.72827e-19)
(0.778622 -0.0759065 -3.89865e-19)
(0.809565 -0.0577539 4.11383e-20)
(0.827979 -0.0417946 0)
(0.833001 -0.0330602 -2.15543e-19)
(0.831194 -0.0291041 1.30538e-19)
(0.831368 -0.0213863 -2.18169e-20)
(0.833066 -0.00820186 -8.3292e-20)
(0.827605 0.000542351 6.31494e-20)
(0.810499 -0.00180755 -5.83988e-20)
(0.785921 -0.014242 2.09618e-20)
(0.760909 -0.0308649 2.0135e-20)
(0.741837 -0.0457042 3.41518e-20)
(0.731907 -0.0542607 -7.56979e-21)
(0.73 -0.0557504 -3.40608e-20)
(0.733039 -0.0526771 2.48214e-20)
(0.737494 -0.0477931 9.248e-21)
(0.740454 -0.0438176 -1.44898e-20)
(0.740606 -0.04325 -3.21075e-21)
(0.740672 -0.0484687 3.14231e-21)
(0.746497 -0.061077 2.42825e-21)
(0.765571 -0.0816984 1.23285e-21)
(0.819287 -0.107982 -2.13471e-22)
(0.000245357 -0.0413269 1.28877e-18)
(0.0367357 -0.25763 -5.75304e-19)
(0.111016 -0.308648 5.00227e-19)
(0.219289 -0.289632 -4.63708e-19)
(0.327993 -0.243263 -4.6657e-19)
(0.414332 -0.193421 5.05987e-19)
(0.472461 -0.1501 0)
(0.504632 -0.117778 2.3638e-19)
(0.517314 -0.0934964 -3.27497e-19)
(0.518814 -0.065796 0)
(0.512624 -0.0387695 0)
(0.486938 -0.0298083 -4.60458e-20)
(0.446165 -0.0358945 -1.36047e-19)
(0.408557 -0.0387192 2.28577e-19)
(0.382519 -0.0252622 8.87938e-20)
(0.34015 -8.19695e-05 -8.93422e-20)
(0.272052 0.0196783 -8.23185e-20)
(0.18898 0.0252036 8.29791e-20)
(0.106352 0.0183748 3.25131e-22)
(0.0303583 0.00567159 0)
(-0.0351541 -0.00739152 -3.19743e-20)
(-0.0818076 -0.0164485 1.8251e-20)
(-0.105064 -0.0208834 4.31459e-20)
(-0.107214 -0.0253321 -1.08044e-20)
(-0.086159 -0.0337024 1.96415e-21)
(-0.0445926 -0.0479766 4.82992e-21)
(0.0117542 -0.06965 0)
(0.0779572 -0.0995792 1.50528e-21)
(0.148728 -0.137265 -3.83384e-21)
(0.233436 -0.180916 3.22094e-22)
(-0.0130119 -0.091195 -1.26512e-18)
(0.00219867 -0.318464 -1.1377e-18)
(0.0463716 -0.3592 9.32068e-19)
(0.116006 -0.328684 9.87133e-19)
(0.180386 -0.272 -9.82432e-19)
(0.219327 -0.213108 0)
(0.232052 -0.160148 0)
(0.219966 -0.119307 0)
(0.1828 -0.095104 -3.56249e-19)
(0.133747 -0.0726855 8.90157e-20)
(0.098546 -0.0357003 8.30073e-22)
(0.0139401 0.00677683 4.87915e-19)
(-0.122644 0.0273752 -1.93893e-19)
(-0.26896 0.0378815 1.97182e-19)
(-0.383614 0.0584281 0)
(-0.457905 0.079535 0)
(-0.506623 0.086046 8.66832e-20)
(-0.540976 0.0769612 -1.28789e-19)
(-0.56333 0.0560182 -1.94964e-20)
(-0.575789 0.0295935 3.55717e-20)
(-0.578713 0.00189229 -6.81344e-20)
(-0.5727 -0.0237459 6.18326e-20)
(-0.556968 -0.045717 -3.10882e-20)
(-0.529585 -0.0659931 -4.99343e-20)
(-0.492771 -0.0858474 1.23536e-21)
(-0.448576 -0.105997 1.70961e-20)
(-0.399645 -0.128938 -5.11316e-21)
(-0.348902 -0.156599 5.10426e-21)
(-0.300947 -0.189948 0)
(-0.260821 -0.226036 0)
(-0.0596052 -0.153455 1.23034e-18)
(-0.0580314 -0.369514 3.10527e-20)
(-0.040527 -0.388951 1.4965e-20)
(-0.0126429 -0.340459 1.02589e-18)
(0.000277598 -0.269549 -1.04832e-18)
(-0.0219068 -0.199381 -7.51993e-20)
(-0.0718046 -0.139197 -8.28865e-20)
(-0.13993 -0.0808605 9.03547e-20)
(-0.274159 -0.0246583 1.91515e-19)
(-0.459345 0.0217983 2.9715e-19)
(-0.594097 0.0642936 -3.96226e-19)
(-0.678384 0.0975987 -9.90894e-20)
(-0.746588 0.106914 1.92882e-19)
(-0.803804 0.102615 -2.93298e-21)
(-0.849684 0.0940177 -4.18947e-19)
(-0.887883 0.086264 1.37392e-19)
(-0.914316 0.0786885 -4.40252e-20)
(-0.928229 0.0658704 4.09021e-20)
(-0.93314 0.0456388 3.9939e-20)
(-0.932404 0.0202862 0)
(-0.926585 -0.00685554 3.49001e-20)
(-0.914376 -0.0346791 0)
(-0.895374 -0.0617416 3.95888e-20)
(-0.870601 -0.0869757 -4.16661e-21)
(-0.841317 -0.110974 -4.27208e-20)
(-0.809423 -0.13458 0)
(-0.777768 -0.158611 0)
(-0.750234 -0.183967 -4.50742e-21)
(-0.731349 -0.210895 0)
(-0.724244 -0.234954 0)
(-0.128524 -0.212214 1.1951e-21)
(-0.141226 -0.403896 3.10858e-20)
(-0.151192 -0.389366 0)
(-0.172681 -0.312582 3.31694e-20)
(-0.224463 -0.220843 0)
(-0.333693 -0.121466 1.63186e-19)
(-0.496788 -0.0338421 -7.17981e-19)
(-0.675196 0.0385546 -1.46677e-20)
(-0.807336 0.0822558 6.6152e-19)
(-0.897056 0.101435 2.90153e-19)
(-0.973742 0.110825 -7.74106e-19)
(-1.03976 0.120784 4.81927e-19)
(-1.09545 0.127035 1.89657e-19)
(-1.14086 0.125971 -9.38454e-20)
(-1.17687 0.118768 2.27664e-19)
(-1.20436 0.106926 -1.36931e-19)
(-1.22277 0.0912341 1.27767e-19)
(-1.23255 0.0699505 -4.24472e-20)
(-1.2348 0.0430892 3.80517e-20)
(-1.23197 0.0124226 -1.49105e-19)
(-1.22489 -0.0195926 7.11557e-20)
(-1.21379 -0.0506177 -3.05002e-20)
(-1.19861 -0.0800072 5.89663e-20)
(-1.17982 -0.107169 1.2025e-20)
(-1.15873 -0.131989 -1.14689e-20)
(-1.13752 -0.154676 -1.76293e-20)
(-1.11912 -0.175921 0)
(-1.10673 -0.197157 4.35018e-21)
(-1.10219 -0.219593 -4.49446e-22)
(-1.10296 -0.239165 -1.62387e-21)
(-0.202774 -0.254726 1.24415e-18)
(-0.239931 -0.410725 -2.04015e-18)
(-0.284084 -0.343604 1.00873e-18)
(-0.3745 -0.221924 -3.493e-20)
(-0.533465 -0.0934261 1.27909e-18)
(-0.72741 0.0181414 -2.09977e-18)
(-0.891519 0.0882559 7.05318e-19)
(-1.00169 0.122034 -8.40491e-19)
(-1.09925 0.141293 7.52124e-19)
(-1.18313 0.153114 9.54345e-20)
(-1.25418 0.159101 0)
(-1.31374 0.160441 -9.63785e-20)
(-1.3632 0.15688 -1.88883e-19)
(-1.40374 0.148054 -9.11075e-20)
(-1.43597 0.134752 3.67716e-19)
(-1.46015 0.117185 -3.79685e-21)
(-1.47657 0.0954829 -2.63641e-19)
(-1.48603 0.0694708 8.78285e-20)
(-1.48971 0.0395711 -7.88475e-20)
(-1.48907 0.00677097 -3.48957e-20)
(-1.48454 -0.0274545 7.3795e-20)
(-1.47644 -0.0611902 -3.16928e-20)
(-1.46491 -0.0930377 -2.83769e-20)
(-1.45066 -0.121867 2.64989e-20)
(-1.43525 -0.146906 2.10479e-20)
(-1.42104 -0.16797 1.71468e-20)
(-1.41091 -0.185919 1.43048e-20)
(-1.4074 -0.202909 8.25922e-21)
(-1.41038 -0.220848 2.44144e-21)
(-1.4143 -0.236284 1.56614e-21)
(-0.273688 -0.27646 0)
(-0.346062 -0.365869 4.74681e-20)
(-0.448655 -0.226105 1.12738e-18)
(-0.629612 -0.0667844 -1.15675e-18)
(-0.843837 0.0736928 1.32056e-18)
(-0.997471 0.14281 -1.35694e-18)
(-1.12527 0.176448 -7.35386e-19)
(-1.23525 0.194539 1.49548e-18)
(-1.32923 0.202928 -7.55498e-19)
(-1.40882 0.20451 -3.85481e-19)
(-1.47556 0.201699 3.82765e-19)
(-1.53118 0.195192 9.4974e-20)
(-1.57744 0.184668 9.62344e-20)
(-1.61566 0.169858 0)
(-1.64647 0.150906 -1.37778e-19)
(-1.67008 0.12791 4.95601e-20)
(-1.6869 0.101099 1.80882e-19)
(-1.69786 0.0708178 -1.27908e-19)
(-1.70408 0.0376501 8.53277e-20)
(-1.70641 0.00241283 1.57327e-19)
(-1.70512 -0.0338965 -7.67207e-20)
(-1.70024 -0.0698118 -3.24155e-20)
(-1.69183 -0.103609 6.09685e-20)
(-1.68076 -0.133512 -5.45334e-20)
(-1.66886 -0.158115 0)
(-1.65872 -0.177007 0)
(-1.65334 -0.191395 7.41174e-21)
(-1.65499 -0.204146 -1.83429e-20)
(-1.66216 -0.217762 8.79227e-21)
(-1.6676 -0.229633 0)
(-0.328192 -0.276019 2.46627e-18)
(-0.463665 -0.244653 3.40482e-20)
(-0.634102 -0.0521391 -1.11699e-18)
(-0.867068 0.138315 0)
(-1.03565 0.213386 0)
(-1.188 0.250578 0)
(-1.31681 0.266272 8.43279e-19)
(-1.42502 0.269168 -6.56577e-19)
(-1.5152 0.264515 9.73433e-20)
(-1.59003 0.254977 3.89087e-19)
(-1.65208 0.24263 -4.83353e-19)
(-1.70386 0.228303 3.87363e-19)
(-1.74757 0.211597 -4.79088e-19)
(-1.78461 0.191611 0)
(-1.81537 0.167702 -2.84706e-19)
(-1.83983 0.139849 1.42494e-19)
(-1.8583 0.108642 4.40611e-20)
(-1.87165 0.0748307 -4.48023e-20)
(-1.88096 0.0389491 0)
(-1.88678 0.00131502 -4.05814e-20)
(-1.88892 -0.0374527 -3.76864e-20)
(-1.88704 -0.0759741 4.04718e-20)
(-1.88097 -0.112059 3.39883e-20)
(-1.87166 -0.143172 0)
(-1.86117 -0.167259 0)
(-1.85251 -0.183754 -8.83375e-21)
(-1.84916 -0.194308 -6.08363e-21)
(-1.8534 -0.202569 0)
(-1.86276 -0.21183 -6.58729e-21)
(-1.86887 -0.220559 -2.89132e-21)
(-0.373407 -0.230277 -2.48446e-20)
(-0.574634 -0.0596148 -6.44747e-20)
(-0.79601 0.198705 1.18683e-18)
(-1.00453 0.304589 1.23524e-18)
(-1.19229 0.350974 -1.36428e-18)
(-1.34973 0.362598 9.43425e-20)
(-1.47713 0.356573 0)
(-1.58044 0.342225 -9.62892e-20)
(-1.66459 0.323554 -5.9108e-19)
(-1.73332 0.302628 7.85737e-19)
(-1.78982 0.281169 -2.93706e-19)
(-1.8373 0.259947 -9.93936e-20)
(-1.8786 0.238152 0)
(-1.91521 0.213934 0)
(-1.94701 0.185771 4.79789e-20)
(-1.97334 0.153524 0)
(-1.99413 0.118314 4.6947e-20)
(-2.01027 0.0813823 -4.59943e-20)
(-2.02297 0.0431211 0)
(-2.03257 0.00321019 0)
(-2.03837 -0.0382992 0)
(-2.03935 -0.080041 3.02753e-21)
(-2.03487 -0.119161 -3.5893e-20)
(-2.02581 -0.152105 0)
(-2.01459 -0.175982 2.66733e-20)
(-2.00494 -0.190007 -9.37461e-21)
(-2.00117 -0.196317 2.633e-20)
(-2.00594 -0.1995 0)
(-2.01611 -0.203997 6.98573e-21)
(-2.02236 -0.209621 5.41345e-22)
(-0.407019 -0.115684 0)
(-0.634815 0.245169 0)
(-0.884218 0.419321 -7.47065e-20)
(-1.1315 0.490899 -5.06579e-21)
(-1.33575 0.497734 0)
(-1.49292 0.474837 -1.95153e-19)
(-1.6126 0.443042 0)
(-1.70637 0.410432 0)
(-1.78173 0.378023 2.00903e-19)
(-1.84257 0.346143 1.01651e-19)
(-1.89207 0.316402 1.01435e-19)
(-1.93433 0.289835 9.89012e-20)
(-1.97318 0.264892 0)
(-2.01018 0.238086 1.51507e-19)
(-2.04423 0.206551 1.89807e-21)
(-2.07331 0.170077 7.24617e-22)
(-2.0967 0.130799 -2.01987e-19)
(-2.11563 0.0908927 -5.16466e-20)
(-2.13186 0.0505934 -5.07719e-20)
(-2.14576 0.00853047 0)
(-2.1558 -0.0361792 0)
(-2.15979 -0.0822027 -3.94987e-20)
(-2.15621 -0.125707 3.55142e-20)
(-2.1458 -0.161686 -4.86365e-20)
(-2.13153 -0.186035 -1.15029e-20)
(-2.11822 -0.197582 -9.93532e-21)
(-2.11156 -0.199001 -2.48002e-20)
(-2.11497 -0.196099 0)
(-2.12484 -0.194961 4.37117e-22)
(-2.13081 -0.19714 6.40228e-21)
(-0.350734 0.208962 -1.27714e-18)
(-0.636997 0.555643 1.07821e-18)
(-0.976121 0.690153 0)
(-1.26903 0.698782 -6.85901e-19)
(-1.48091 0.645326 7.88487e-19)
(-1.6255 0.577638 -6.20575e-19)
(-1.72688 0.518577 7.15078e-19)
(-1.80495 0.470364 0)
(-1.86864 0.426644 3.12588e-19)
(-1.91971 0.384762 -9.23739e-19)
(-1.96023 0.347448 1.00815e-19)
(-1.99567 0.317364 2.03899e-19)
(-2.03185 0.291871 0)
(-2.07053 0.264586 5.11835e-20)
(-2.10859 0.230453 0)
(-2.14148 0.189372 1.06737e-19)
(-2.16742 0.145509 -1.61331e-19)
(-2.18863 0.102857 1.56852e-19)
(-2.20844 0.0614397 -5.47595e-20)
(-2.22754 0.0178648 0)
(-2.24305 -0.0305041 4.66303e-20)
(-2.2507 -0.0824401 -3.69196e-21)
(-2.24746 -0.132481 -4.20068e-20)
(-2.23396 -0.173422 3.34006e-20)
(-2.21401 -0.199375 3.03257e-20)
(-2.19399 -0.20848 0)
(-2.1817 -0.204023 2.1726e-20)
(-2.18189 -0.193483 -3.93754e-21)
(-2.19046 -0.185274 -7.95722e-21)
(-2.19581 -0.183288 1.13485e-22)
(-0.260926 0.593336 8.73962e-20)
(-0.659617 0.985613 0)
(-1.12193 1.01893 8.24576e-19)
(-1.44978 0.92057 1.43305e-19)
(-1.64555 0.783658 -9.84885e-19)
(-1.75295 0.662296 -4.95708e-20)
(-1.81859 0.578394 1.60204e-19)
(-1.87385 0.520854 0)
(-1.92504 0.467793 5.40988e-20)
(-1.96575 0.414384 0)
(-1.99456 0.368781 5.3007e-20)
(-2.02023 0.338177 2.12577e-19)
(-2.05322 0.317554 -2.10008e-19)
(-2.09563 0.294596 0)
(-2.14045 0.260003 -1.11651e-19)
(-2.17843 0.213671 1.10949e-19)
(-2.20617 0.163596 -1.17166e-19)
(-2.2282 0.117918 -7.59938e-25)
(-2.25146 0.0767901 5.69975e-20)
(-2.27758 0.0328813 1.09693e-19)
(-2.30113 -0.0198151 -5.3663e-20)
(-2.31405 -0.0803722 9.73309e-20)
(-2.3109 -0.140385 -4.57411e-20)
(-2.29218 -0.189234 -1.72157e-20)
(-2.2633 -0.218424 1.06343e-21)
(-2.23306 -0.22508 -1.40516e-20)
(-2.21208 -0.213268 -1.53424e-20)
(-2.20705 -0.192824 -4.10392e-21)
(-2.21349 -0.175386 -3.51045e-22)
(-2.21787 -0.168013 4.74698e-22)
(-0.284629 1.50087 1.96672e-18)
(-0.728075 1.86114 -1.37094e-18)
(-1.39684 1.54077 0)
(-1.71277 1.21079 -1.13681e-19)
(-1.84593 0.907027 5.80457e-19)
(-1.87747 0.682786 -4.6835e-19)
(-1.88208 0.577484 -5.49029e-20)
(-1.90997 0.537909 5.58429e-20)
(-1.95359 0.491278 -1.09824e-19)
(-1.98392 0.435486 0)
(-1.99405 0.388226 -5.32067e-20)
(-2.00222 0.364227 5.37889e-20)
(-2.02994 0.356659 0)
(-2.07986 0.341627 5.74816e-20)
(-2.13705 0.303094 4.41414e-21)
(-2.18336 0.243244 -1.17169e-19)
(-2.21184 0.179749 1.80103e-19)
(-2.23165 0.130198 -1.21181e-19)
(-2.25768 0.0939415 0)
(-2.29395 0.0536525 0)
(-2.33015 -0.00299941 0)
(-2.35131 -0.0753715 -1.98974e-20)
(-2.34815 -0.150499 4.72294e-20)
(-2.32141 -0.211533 1.12334e-20)
(-2.27946 -0.24607 1.66759e-20)
(-2.23504 -0.250103 -7.45233e-21)
(-2.202 -0.228865 3.72385e-20)
(-2.18941 -0.195332 2.11146e-21)
(-2.1928 -0.165455 0)
(-2.19606 -0.150757 -5.56735e-23)
(9.99785 0.107169 0)
(9.98383 0.210933 1.38857e-18)
(9.96101 0.313268 0)
(9.93138 0.416522 -1.43868e-18)
(9.89563 0.522509 1.47253e-18)
(9.85409 0.632712 -2.99654e-18)
(9.80722 0.74851 -3.05631e-18)
(9.75559 0.871222 3.87511e-18)
(9.69972 1.00216 2.36345e-18)
(9.64014 1.14264 -3.21132e-18)
(9.57738 1.29401 6.50062e-18)
(9.51214 1.45771 -3.28559e-18)
(9.44526 1.63524 -1.65708e-18)
(9.3777 1.82828 0)
(9.31031 2.03862 -6.7812e-18)
(9.24453 2.26841 -1.36622e-20)
(9.18216 2.52011 6.80659e-18)
(9.12496 2.79647 0)
(9.07529 3.10072 -1.34563e-17)
(9.03655 3.43685 2.65788e-17)
(9.01289 3.80967 -1.14179e-17)
(9.0094 4.22518 -1.41325e-17)
(9.03356 4.69125 9.17462e-18)
(9.09393 5.21791 1.2709e-17)
(9.20435 5.81688 -1.07745e-17)
(9.36925 6.51083 -9.29357e-18)
(9.67118 7.29613 2.05211e-19)
(9.91428 8.29365 8.41745e-18)
(11.0896 9.19721 2.115e-18)
(11.9837 12.1401 -4.89939e-18)
(9.99835 0.111331 3.3116e-19)
(9.98558 0.219111 -1.6779e-18)
(9.96502 0.325392 0)
(9.93855 0.432601 1.40125e-18)
(9.90683 0.542575 0)
(9.87018 0.65678 1.44606e-18)
(9.82906 0.776604 -2.95545e-18)
(9.78408 0.903404 2.99307e-18)
(9.73579 1.0385 -1.52742e-18)
(9.68477 1.18321 0)
(9.6317 1.33885 0)
(9.57741 1.50678 -1.57389e-18)
(9.52287 1.68851 6.41028e-18)
(9.46909 1.88566 -6.42329e-18)
(9.41715 2.10003 -1.60556e-18)
(9.36871 2.33362 0)
(9.32565 2.58875 1.60342e-18)
(9.29015 2.86811 1.28261e-17)
(9.26493 3.17468 -1.11515e-17)
(9.25383 3.51208 0)
(9.26146 3.88475 1.20798e-17)
(9.29369 4.29814 -1.18154e-17)
(9.35913 4.75934 -9.61926e-18)
(9.46696 5.27653 1.00006e-17)
(9.63367 5.85927 0)
(9.86933 6.52224 0)
(10.2463 7.26137 0)
(10.6366 8.12236 -3.70781e-18)
(11.5224 8.94045 2.7498e-18)
(12.4782 10.1653 1.57333e-18)
(9.99888 0.115156 -2.56305e-18)
(9.98744 0.22662 1.30756e-18)
(9.96926 0.336506 1.3269e-18)
(9.94609 0.447302 0)
(9.91859 0.560849 0)
(9.88706 0.6786 -1.40747e-18)
(9.85193 0.801964 -4.27927e-18)
(9.81382 0.932327 1.44871e-18)
(9.77337 1.071 1.46318e-18)
(9.73122 1.21924 1.49779e-18)
(9.68821 1.37831 -3.00396e-18)
(9.64523 1.54953 7.6069e-18)
(9.6033 1.73435 -4.57515e-18)
(9.56351 1.93437 7.68339e-18)
(9.5273 2.15131 1.55377e-18)
(9.49638 2.38698 -6.16281e-18)
(9.47266 2.64351 -1.54576e-18)
(9.45883 2.92336 -1.50611e-18)
(9.45809 3.22916 -1.5121e-18)