/*--------------------------------*- C++ -*----------------------------------*\
| =========                 |                                                 |
| \\      /  F ield         | OpenFOAM: The Open Source CFD Toolbox           |
|  \\    /   O peration     | Version:  4.1                                   |
|   \\  /    A nd           | Web:      www.OpenFOAM.org                      |
|    \\/     M anipulation  |                                                 |
\*---------------------------------------------------------------------------*/
FoamFile
{
    version     2.0;
    format      ascii;
    class       surfaceVectorField;
    location    "2.6";
    object      Uf;
}
// * * * * * * * * * * * * * * * * * * * * * * * * * * * * * * * * * * * * * //

dimensions      [0 1 -1 0 0 0 0];

internalField   nonuniform List<vector> 
5457
(
(9.90929 0.0238575 6.10867e-20)
(9.96871 0.0374502 -2.32929e-20)
(9.80867 0.0295348 7.12015e-20)
(9.92526 0.0432963 3.60762e-20)
(9.69756 0.0341393 1.19077e-20)
(9.8554 0.0500807 -3.67108e-20)
(9.57328 0.0390003 8.09489e-20)
(9.76596 0.058594 -1.01128e-19)
(9.43611 0.0440308 7.77758e-20)
(9.6624 0.0675635 1.31857e-19)
(9.28657 0.0492344 -5.83457e-20)
(9.54578 0.0768709 -1.07289e-19)
(9.12474 0.054731 3.96227e-21)
(9.41577 0.0867251 -5.72041e-20)
(8.95036 0.0606495 -4.86311e-21)
(9.27203 0.0973407 2.90125e-19)
(8.76294 0.0671053 -6.02815e-20)
(9.11427 0.108904 -2.39057e-19)
(8.56177 0.0742067 0)
(8.94203 0.121592 0)
(8.34603 0.0820641 0)
(8.75462 0.135578 0)
(8.11474 0.090798 7.38864e-20)
(8.55119 0.151045 0)
(7.8668 0.100544 -7.14996e-21)
(8.33073 0.1682 3.33859e-21)
(7.60096 0.111454 1.66268e-19)
(8.09213 0.187269 4.31777e-19)
(7.31584 0.123698 5.76648e-19)
(7.83411 0.208496 -4.352e-19)
(7.00994 0.137459 3.36717e-19)
(7.55523 0.232143 3.37162e-19)
(6.68163 0.152941 -3.69603e-19)
(7.25393 0.258485 1.69524e-19)
(6.32918 0.170353 -3.62591e-19)
(6.92853 0.287793 -5.4089e-19)
(5.95082 0.189915 0)
(6.5772 0.320318 1.4606e-18)
(5.54476 0.211845 0)
(6.19807 0.35627 -1.32351e-18)
(5.10929 0.236352 2.3931e-19)
(5.78922 0.395782 -4.01417e-19)
(4.64283 0.263617 4.88286e-19)
(5.34879 0.438873 2.34562e-20)
(4.14407 0.293773 2.48889e-19)
(4.87494 0.485371 2.73456e-20)
(3.61215 0.326832 -2.95637e-19)
(4.36603 0.534832 3.86003e-18)
(3.04687 0.362507 2.59965e-18)
(3.82074 0.586354 -3.5877e-18)
(2.44906 0.399691 8.75794e-20)
(3.23808 0.638136 6.43642e-18)
(1.82158 0.434403 -1.97304e-18)
(2.61704 0.686376 -7.38926e-18)
(1.1725 0.450715 6.33071e-18)
(1.9568 0.721803 1.21418e-19)
(0.519214 0.358243 5.46631e-18)
(1.23382 0.721407 4.94275e-18)
(0.604419 0.58171 1.20952e-20)
(10.0012 0.0469758 -4.70715e-20)
(10.0001 0.0369629 1.62707e-19)
(9.96913 0.0607891 -7.34165e-20)
(9.98593 0.0571457 2.37906e-20)
(9.91873 0.0727743 -1.51155e-19)
(9.94866 0.0728336 -1.95893e-19)
(9.85238 0.0856887 -4.53209e-20)
(9.89168 0.0899238 3.01526e-19)
(9.77034 0.099353 -5.81215e-20)
(9.81937 0.108027 5.24632e-20)
(9.67308 0.113737 -1.05149e-19)
(9.73304 0.126933 -2.14294e-19)
(9.56083 0.129099 2.35773e-19)
(9.63265 0.146958 -1.1043e-19)
(9.43351 0.145738 4.57729e-20)
(9.51799 0.168506 2.31278e-19)
(9.29079 0.163932 -1.74288e-19)
(9.3889 0.191949 -6.52141e-19)
(9.13212 0.183945 0)
(9.24503 0.217641 3.64048e-19)
(8.9568 0.206045 0)
(9.08582 0.245932 0)
(8.76395 0.230527 -7.05148e-20)
(8.91056 0.277205 0)
(8.55256 0.257715 4.49841e-19)
(8.71836 0.311881 -6.92904e-20)
(8.32144 0.287964 -1.84881e-19)
(8.50823 0.350428 5.09049e-19)
(8.06927 0.321657 -6.61673e-19)
(8.27899 0.393347 -6.73401e-19)
(7.79455 0.359204 1.67069e-19)
(8.02934 0.441188 3.05289e-19)
(7.49563 0.401022 -1.34871e-20)
(7.75778 0.494544 4.67591e-21)
(7.17071 0.447519 1.31521e-18)
(7.46264 0.554018 2.67549e-18)
(6.81784 0.499059 9.32098e-20)
(7.14208 0.620192 -1.29805e-18)
(6.435 0.555935 -1.71137e-18)
(6.79408 0.693591 -1.50708e-18)
(6.02007 0.618311 -6.11709e-19)
(6.41645 0.774636 -1.96246e-20)
(5.57091 0.686163 -4.38826e-19)
(6.00685 0.863572 -2.13102e-19)
(5.08533 0.759193 3.68952e-18)
(5.56268 0.960371 -2.25957e-19)
(4.56113 0.836661 4.84464e-19)
(5.08103 1.06458 -3.25885e-18)
(3.99616 0.917078 3.47141e-19)
(4.5586 1.1751 1.11574e-17)
(3.38782 0.997664 -1.13847e-18)
(3.99119 1.28982 -1.26703e-17)
(2.73157 1.07353 -5.28332e-18)
(3.37237 1.40509 3.63055e-18)
(2.01587 1.13747 -1.29901e-18)
(2.69243 1.51515 4.69033e-19)
(1.19759 1.17637 -6.49893e-19)
(1.90942 1.6192 -1.8224e-17)
(1.1221 1.70311 4.05537e-17)
(9.99388 0.0504944 2.30964e-19)
(9.99773 0.0394933 -4.17761e-19)
(9.96535 0.0724421 -1.03564e-19)
(9.98106 0.0694155 1.90148e-19)
(9.91841 0.0927516 2.67543e-19)
(9.94485 0.0939799 -2.44318e-19)
(9.85665 0.114257 3.94137e-19)
(9.89068 0.119034 4.02371e-19)
(9.7808 0.137043 -1.09189e-19)
(9.82189 0.14538 2.07373e-19)
(9.6912 0.161154 -2.17509e-19)
(9.73987 0.172986 -2.11815e-19)
(9.58808 0.18695 -1.08288e-19)
(9.64475 0.202227 2.29416e-21)
(9.47142 0.214883 -4.83606e-19)
(9.53642 0.233644 -9.0708e-19)
(9.341 0.245393 -9.47071e-20)
(9.41481 0.267771 -8.48881e-21)
(9.19638 0.278913 3.57403e-19)
(9.27969 0.305121 2.436e-19)
(9.037 0.315891 0)
(9.13066 0.346208 -1.25645e-18)
(8.86212 0.356821 0)
(8.96714 0.391587 2.46521e-19)
(8.6709 0.402253 0)
(8.78848 0.44188 1.0665e-18)
(8.46231 0.452784 0)
(8.59388 0.497769 2.77488e-19)
(8.23522 0.509069 3.10564e-19)
(8.38242 0.559994 -1.4493e-18)
(7.9883 0.571833 1.38016e-19)
(8.15304 0.629393 1.19525e-18)
(7.72004 0.641842 2.73826e-18)
(7.9045 0.706895 -2.66639e-18)
(7.42871 0.719862 -1.20743e-21)
(7.6354 0.793472 5.42052e-18)
(7.11236 0.80663 -2.90385e-18)
(7.3441 0.890108 -2.76343e-18)
(6.76885 0.902807 2.0818e-19)
(7.02873 0.99777 -3.00719e-18)
(6.39571 1.00892 3.76675e-19)
(6.68712 1.11737 2.55646e-18)
(5.99018 1.12524 0)
(6.31672 1.24969 0)
(5.54899 1.25173 -7.21954e-18)
(5.91446 1.3953 6.40357e-18)
(5.06814 1.38789 7.56433e-18)
(5.47643 1.55446 -1.37461e-17)
(4.54245 1.53269 -2.04171e-18)
(4.99756 1.72708 1.53728e-17)
(3.9644 1.68456 -7.854e-18)
(4.47079 1.91285 -1.5413e-17)
(3.32158 1.84204 9.42616e-18)
(3.8855 2.11185 8.34705e-18)
(2.59102 2.00646 -1.62947e-17)
(3.2269 2.32651 1.12621e-19)
(1.73604 2.20636 2.48346e-17)
(2.46675 2.56426 -1.76579e-17)
(1.55128 2.90876 2.21966e-17)
(9.98945 0.0587401 -4.46836e-19)
(9.99636 0.0438549 -2.32836e-19)
(9.96107 0.0901301 3.97556e-20)
(9.97776 0.0816339 1.42553e-19)
(9.91496 0.119433 -9.55841e-20)
(9.94131 0.114774 -2.92322e-19)
(9.85409 0.149388 2.1151e-19)
(9.88809 0.147747 -2.01224e-19)
(9.77965 0.18065 9.61813e-20)
(9.82068 0.182071 4.1262e-19)
(9.69204 0.213541 1.22326e-20)
(9.74037 0.218063 -3.18068e-19)
(9.59145 0.248569 -8.14291e-19)
(9.64738 0.256189 9.864e-19)
(9.47797 0.286339 -4.14881e-19)
(9.54169 0.297081 -1.58031e-18)
(9.35149 0.327454 3.347e-19)
(9.42331 0.34139 6.98106e-19)
(9.21175 0.372513 -1.39808e-18)
(9.29212 0.38977 -1.20023e-19)
(9.05836 0.422129 -9.83143e-19)
(9.14784 0.442874 -1.00944e-18)
(8.89082 0.476978 1.32792e-18)
(8.99008 0.501391 2.45858e-19)
(8.70851 0.537812 1.33078e-18)
(8.81836 0.566107 8.03473e-19)
(8.51072 0.605446 -1.20167e-18)
(8.63214 0.637886 3.76006e-21)
(8.29662 0.680789 -5.20755e-19)
(8.43075 0.717658 -1.44945e-18)
(8.06525 0.764874 -1.6732e-18)
(8.21341 0.806506 1.18314e-18)
(7.81546 0.858826 1.43783e-19)
(7.97926 0.905659 -2.81284e-18)
(7.54591 0.963819 2.53178e-18)
(7.72728 1.01642 3.66966e-20)
(7.25503 1.08105 -2.86922e-18)
(7.45627 1.14019 1.94413e-18)
(6.94097 1.21173 -5.80733e-19)
(7.16471 1.27841 -2.83065e-18)
(6.60144 1.35702 2.14742e-18)
(6.85084 1.4326 7.84386e-18)
(6.23363 1.518 6.49083e-18)
(6.51237 1.60432 -5.79109e-18)
(5.83389 1.69555 -3.32771e-19)
(6.14634 1.79511 6.42511e-18)
(5.39729 1.89037 -5.68311e-18)
(5.7487 2.0065 -7.40271e-18)
(4.91696 2.10326 1.77682e-18)
(5.31388 2.24022 5.02386e-20)
(4.3828 2.33577 9.11593e-19)
(4.83401 2.49871 9.15618e-19)
(3.77988 2.59203 -9.92682e-19)
(4.29786 2.78621 -1.70659e-18)
(3.08317 2.87505 -1.00968e-18)
(3.68661 3.11291 1.31196e-17)
(2.29978 3.22691 -1.9135e-17)
(3.027 3.45725 -1.43741e-17)
(2.01113 4.0339 -1.64506e-17)
(9.9871 0.0674988 3.64038e-19)
(9.99567 0.0491889 8.33464e-19)
(9.95824 0.106755 -1.99209e-19)
(9.97588 0.0940727 2.82931e-19)
(9.91287 0.143882 -3.96061e-19)
(9.9393 0.135254 -7.86623e-22)
(9.85305 0.181466 1.26925e-20)
(9.88709 0.175999 -2.01791e-21)
(9.78005 0.220601 -1.65485e-20)
(9.8212 0.218102 1.02465e-18)
(9.69431 0.261862 6.82104e-19)
(9.74275 0.26224 -1.05561e-18)
(9.596 0.305867 1.7087e-19)
(9.65197 0.309017 1.95788e-18)
(9.48522 0.353295 -4.24153e-19)
(9.54894 0.35912 -8.94381e-19)
(9.36195 0.404855 2.28181e-19)
(9.43372 0.41329 6.96131e-19)
(9.22602 0.461265 2.52856e-19)
(9.30622 0.472312 -1.65836e-18)
(9.07715 0.523251 2.42552e-19)
(9.16626 0.536957 1.46455e-18)
(8.91498 0.591612 -2.69294e-19)
(9.01356 0.608016 -5.05043e-19)
(8.73911 0.667253 -5.38167e-19)
(8.84774 0.686412 2.56401e-19)
(8.54899 0.751158 -2.68234e-19)
(8.66853 0.77317 -8.10365e-19)
(8.34405 0.844424 2.98572e-19)
(8.47541 0.869386 -1.95534e-18)
(8.12361 0.948311 -1.99561e-20)
(8.26773 0.976329 2.2857e-18)
(7.88692 1.06422 -2.87653e-18)
(8.04498 1.09545 -6.02296e-21)
(7.63306 1.19367 -5.26989e-19)
(7.80652 1.22834 -1.93154e-18)
(7.36092 1.33831 1.91873e-18)
(7.55155 1.37675 7.68175e-18)
(7.06908 1.49991 5.74742e-18)
(7.27899 1.54262 -5.84953e-18)
(6.75576 1.68033 -2.66456e-19)
(6.98755 1.72809 6.36039e-18)
(6.41855 1.8816 -5.73789e-18)
(6.67551 1.93552 -5.81175e-18)
(6.05414 2.10589 -7.86296e-19)
(6.3405 2.16756 0)
(5.6578 2.35573 -1.59725e-18)
(5.97908 2.42731 -7.70355e-19)
(5.2229 2.63423 -8.15159e-19)
(5.5864 2.71858 -2.32148e-18)
(4.74004 2.94576 -1.70917e-18)
(5.1558 3.04626 0)
(4.19701 3.29906 1.23401e-17)
(4.6792 3.4166 -1.30985e-19)
(3.566 3.69245 3.20256e-19)
(4.12805 3.84946 1.42581e-17)
(2.89914 4.15811 -1.16898e-17)
(3.62369 4.25975 -1.4514e-17)
(2.52123 5.02207 2.8713e-18)
(9.98588 0.0766666 7.41713e-19)
(9.99532 0.0550294 -3.67608e-19)
(9.9567 0.123295 4.7521e-19)
(9.97498 0.106664 3.76301e-19)
(9.91223 0.168094 3.9337e-19)
(9.93859 0.155359 1.94227e-19)
(9.85381 0.213381 1.03157e-18)
(9.88756 0.203636 -1.97439e-19)
(9.78255 0.260448 -5.66474e-20)
(9.82346 0.253331 8.18812e-19)
(9.69897 0.310062 2.79591e-19)
(9.74715 0.305387 -8.42702e-19)
(9.60329 0.36293 8.37857e-19)
(9.65894 0.360546 -2.08431e-19)
(9.49564 0.419799 2.55983e-19)
(9.55904 0.419557 6.6014e-19)
(9.37602 0.48148 -1.23404e-18)
(9.44747 0.483257 1.14691e-18)
(9.2443 0.548804 -3.90969e-19)
(9.32417 0.55255 -1.19252e-18)
(9.10029 0.622602 6.82663e-19)
(9.18905 0.628304 1.94607e-18)
(8.94372 0.703777 3.376e-20)
(9.04191 0.711399 -3.24369e-18)
(8.77436 0.79337 -3.33542e-20)
(8.88244 0.802842 2.30196e-18)
(8.59184 0.892537 -2.51749e-18)
(8.71061 0.90381 2.11553e-18)
(8.39568 1.00255 9.89016e-20)
(8.52599 1.0156 -4.12273e-18)
(8.18542 1.12483 2.26609e-18)
(8.32802 1.13962 2.5548e-18)
(7.96059 1.26103 9.1305e-19)
(8.11647 1.27746 4.94717e-18)
(7.72066 1.41294 6.42301e-18)
(7.89095 1.43094 -4.71845e-18)
(7.46491 1.58264 -2.6933e-19)
(7.65101 1.60217 8.16974e-19)
(7.19236 1.77242 -5.0987e-18)
(7.396 1.79354 -2.1937e-19)
(6.9018 1.98484 6.72248e-19)
(7.12511 2.00772 -4.53138e-18)
(6.59153 2.22285 0)
(6.83729 2.24783 5.95254e-18)
(6.25908 2.4899 1.09765e-20)
(6.53099 2.51757 -6.75632e-19)
(5.9008 2.79028 -1.5011e-18)
(6.20391 2.82145 -1.0452e-17)
(5.51162 3.12932 -1.50572e-18)
(5.85279 3.16507 2.25162e-17)
(5.08463 3.51309 1.58606e-18)
(5.47292 3.55537 -1.13923e-17)
(4.61382 3.95241 1.61471e-18)
(5.06268 3.99761 2.44286e-17)
(4.06545 4.43759 0)
(4.5737 4.52541 -2.39499e-17)
(3.52138 4.97129 8.8948e-19)
(4.24987 4.96405 -1.36984e-18)
(3.06848 5.86456 -2.40614e-17)
(9.98532 0.0860358 -7.18945e-19)
(9.99516 0.0611034 -4.62384e-19)
(9.95619 0.13966 9.1214e-20)
(9.97476 0.119255 -2.81996e-19)
(9.91276 0.191785 -4.05143e-19)
(9.93891 0.175026 0)
(9.85596 0.244507 -3.89333e-19)
(9.88925 0.230553 -7.90311e-19)
(9.78676 0.299216 -9.0019e-22)
(9.82718 0.287619 -8.09771e-19)
(9.70569 0.356837 -1.3185e-18)
(9.75335 0.347331 0)
(9.61308 0.418175 -3.70098e-19)
(9.66816 0.410551 -4.40564e-19)
(9.50908 0.484075 1.5606e-18)
(9.57189 0.478114 1.86587e-21)
(9.39368 0.555458 1.14659e-18)
(9.46446 0.550978 1.12893e-18)
(9.2668 0.633253 1.20115e-18)
(9.34588 0.63014 -9.26094e-19)
(9.12832 0.718379 -2.07129e-18)
(9.21624 0.716528 -2.36705e-19)
(8.97808 0.811815 -8.82734e-19)
(9.07536 0.811114 -7.93491e-19)
(8.81595 0.91471 4.45032e-18)
(8.92307 0.914971 1.7832e-18)
(8.64172 1.0284 4.13188e-19)
(8.75932 1.0294 2.6562e-18)
(8.45503 1.1543 -1.56438e-18)
(8.58388 1.15594 -2.16688e-18)
(8.25553 1.29399 5.27325e-18)
(8.39644 1.29609 4.41169e-18)
(8.04299 1.44924 -8.21682e-19)
(8.19685 1.45155 1.87823e-19)
(7.81716 1.62216 -1.027e-17)
(7.98491 1.62435 -7.01119e-19)
(7.57766 1.81515 8.46587e-19)
(7.76047 1.81689 -9.65846e-18)
(7.32399 2.03097 3.16328e-19)
(7.52332 2.03194 6.2713e-18)
(7.05549 2.27282 8.47504e-19)
(7.27311 2.27266 -1.58266e-17)
(6.77126 2.54447 5.23918e-18)
(7.00945 2.54282 5.25574e-18)
(6.46993 2.85056 -1.1221e-17)
(6.7317 2.84703 1.15169e-17)
(6.14946 3.19664 1.36608e-17)
(6.43896 3.19093 -1.05325e-17)
(5.80709 3.58953 1.27878e-17)
(6.12992 3.58119 3.47373e-17)
(5.43842 4.0362 1.12115e-17)
(5.80159 4.0264 -3.24755e-17)
(5.04466 4.54762 -4.54673e-19)
(5.46152 4.52814 3.34474e-17)
(4.5842 5.1061 -2.58796e-17)
(5.03051 5.13975 -4.29012e-17)
(4.14507 5.67072 -2.78061e-17)
(4.88871 5.58164 1.97596e-17)
(3.6337 6.57847 -4.63029e-17)
(9.98517 0.0954279 -2.17082e-20)
(9.99514 0.0672404 -3.63299e-19)
(9.95646 0.155733 -3.67099e-19)
(9.97502 0.131683 -5.62397e-19)
(9.91427 0.214845 -4.02096e-19)
(9.94003 0.194172 1.90909e-19)
(9.85934 0.274725 -1.21132e-18)
(9.89195 0.256645 -1.42711e-21)
(9.79252 0.336804 -7.92844e-19)
(9.83217 0.320804 3.97231e-19)
(9.71441 0.402124 8.69854e-19)
(9.76119 0.387858 -1.23802e-18)
(9.62536 0.471601 -5.98241e-20)
(9.67948 0.458782 2.54412e-18)
(9.52548 0.546186 -4.09867e-19)
(9.58723 0.534549 -1.74571e-18)
(9.41476 0.626889 -9.81315e-19)
(9.48432 0.616213 -4.48068e-19)
(9.29325 0.714698 -2.35359e-18)
(9.371 0.704784 -2.87943e-20)
(9.16098 0.810611 1.0325e-18)
(9.24744 0.801249 -9.66812e-19)
(9.01786 0.915706 1.91779e-18)
(9.11352 0.906699 1.47064e-18)
(8.86375 1.03123 0)
(8.96921 1.02233 -1.49456e-18)
(8.69854 1.15863 0)
(8.81429 1.14952 -2.02873e-20)
(8.52212 1.29951 3.91266e-18)
(8.6488 1.28991 2.07059e-18)
(8.33436 1.45555 -7.36865e-19)
(8.47285 1.44516 3.86055e-18)
(8.13511 1.62869 2.92079e-19)
(8.28624 1.61712 -9.06507e-20)
(7.92432 1.82123 -1.83291e-19)
(8.08897 1.808 -3.49582e-19)
(7.70197 2.0359 -4.05683e-18)
(7.88113 2.02042 -4.16006e-18)
(7.468 2.27586 -1.01188e-17)
(7.66292 2.25744 4.7017e-18)
(7.22232 2.54484 -1.12697e-17)
(7.43445 2.52269 -1.47695e-17)
(6.96482 2.84726 1.15719e-17)
(7.19599 2.82047 -1.03882e-17)
(6.6953 3.18865 1.22008e-17)
(6.94781 3.15602 2.19516e-17)
(6.41342 3.57559 1.05587e-17)
(6.69032 3.53587 -1.09927e-17)
(6.11884 4.01571 -1.03161e-17)
(6.4243 3.96748 2.03587e-17)
(5.80922 4.51589 -1.10167e-17)
(6.14755 4.46063 -1.99983e-17)
(5.49192 5.08662 -7.80876e-18)
(5.87895 5.01087 1.05033e-17)
(5.11764 5.7043 1.09025e-18)
(5.4992 5.69704 -3.77377e-17)
(4.75716 6.27624 -3.09698e-18)
(5.52476 6.13047 3.79628e-17)
(4.20094 7.18309 -4.02549e-17)
(9.98533 0.104699 -9.08135e-19)
(9.99531 0.073312 8.18257e-19)
(9.95733 0.171396 1.23227e-20)
(9.97563 0.143824 -2.79847e-19)
(9.91658 0.237173 5.87721e-19)
(9.94168 0.21271 5.72029e-19)
(9.86375 0.303909 1.6161e-18)
(9.89545 0.281804 2.28083e-21)
(9.79965 0.373045 -8.02296e-20)
(9.83821 0.352736 1.20578e-18)
(9.72487 0.445725 5.09187e-19)
(9.77038 0.426783 -1.64704e-18)
(9.63974 0.522994 7.78167e-19)
(9.69246 0.505065 2.113e-18)
(9.54431 0.605901 -1.76073e-18)
(9.60453 0.588694 -1.7219e-18)
(9.43872 0.695482 5.12184e-19)
(9.5066 0.678729 -4.56119e-19)
(9.32317 0.792768 1.34412e-18)
(9.39914 0.776169 2.72827e-18)
(9.19775 0.898849 -4.88514e-19)
(9.28227 0.882106 -3.69973e-18)
(9.06243 1.01493 -1.99242e-18)
(9.15595 0.997759 1.88108e-18)
(8.91711 1.14235 -1.49353e-18)
(9.02026 1.12446 -3.38679e-20)
(8.76175 1.28263 2.08301e-18)
(8.87501 1.26363 -1.99802e-18)
(8.59652 1.43748 2.04362e-18)
(8.72043 1.41692 2.07488e-18)
(8.42148 1.60876 4.45635e-18)
(8.55686 1.58618 -4.17485e-18)
(8.23663 1.79857 -7.29667e-19)
(8.38423 1.77345 8.62886e-18)
(8.0421 2.00939 -4.38299e-18)
(8.20274 1.98109 -4.47833e-18)
(7.83818 2.24419 4.70831e-18)
(8.01277 2.21189 5.53072e-18)
(7.62525 2.50645 -9.80216e-20)
(7.81484 2.46918 -3.40849e-19)
(7.40375 2.80035 -1.3858e-17)
(7.60954 2.75695 -4.14868e-18)
(7.17433 3.13088 8.91926e-20)
(7.39778 3.07998 -1.99921e-17)
(6.93797 3.50406 -1.33022e-18)
(7.18064 3.44394 1.77302e-17)
(6.69583 3.92729 -1.33132e-18)
(6.95967 3.85596 -9.92389e-18)
(6.44957 4.40892 1.10501e-17)
(6.73762 4.32419 9.83176e-18)
(6.19834 4.95514 1.20806e-18)
(6.51204 4.85986 1.16229e-18)
(5.95355 5.57593 -1.8572e-17)
(6.31443 5.45098 1.67444e-17)
(5.65965 6.24568 -3.54661e-18)
(5.97964 6.20568 -3.31646e-17)
(5.34749 6.82138 -5.05979e-18)
(6.15086 6.63547 1.78589e-18)
(4.76263 7.7367 1.50559e-17)
(9.98571 0.113746 1.42599e-18)
(9.99562 0.0792295 8.23985e-19)
(9.95857 0.186562 2.98713e-19)
(9.97645 0.15561 -8.31247e-19)
(9.91942 0.258676 -2.5698e-20)
(9.94374 0.230564 1.13645e-18)
(9.86894 0.331937 -3.83912e-19)
(9.89958 0.305926 -7.78204e-19)
(9.80782 0.407793 -4.17846e-19)
(9.84511 0.383289 -1.4756e-21)
(9.73662 0.487482 2.88763e-20)
(9.78072 0.463989 -2.19335e-21)
(9.65566 0.572171 -4.58806e-19)
(9.70682 0.549275 2.81987e-21)
(9.56511 0.66296 -3.94056e-19)
(9.62355 0.64033 4.14433e-19)
(9.46524 0.760893 1.81623e-18)
(9.53117 0.738194 3.61541e-21)
(9.35628 0.86706 -2.42552e-18)
(9.43013 0.843924 1.36166e-18)
(9.23831 0.982663 -1.24079e-18)
(9.3205 0.95873 -3.70441e-18)
(9.11141 1.10902 3.81397e-18)
(9.20235 1.08392 2.36543e-18)
(8.97561 1.24755 -5.66024e-19)
(9.07588 1.2209 1.46549e-18)
(8.83103 1.39982 -1.95165e-18)
(8.94109 1.37116 -1.98147e-18)
(8.6779 1.56762 -4.23561e-18)
(8.79831 1.53637 -4.93659e-19)
(8.5165 1.75296 1.53049e-19)
(8.64794 1.71852 -7.74311e-18)
(8.34707 1.95812 4.73339e-18)
(8.49022 1.91982 8.33594e-18)
(8.16997 2.18576 5.55924e-18)
(8.32559 2.14278 5.78039e-18)
(7.98581 2.43902 4.27371e-19)
(8.1547 2.39034 -8.81194e-18)
(7.79534 2.72167 -4.43534e-18)
(7.97839 2.66608 4.06439e-18)
(7.59958 3.03826 -1.03523e-17)
(7.79773 2.97427 0)
(7.39988 3.39419 -2.27211e-18)
(7.61429 3.32005 -1.67292e-18)
(7.19811 3.79597 9.18541e-18)
(7.42977 3.70959 -9.14766e-18)
(6.99681 4.25152 1.16565e-18)
(7.24676 4.1505 9.66609e-18)
(6.79929 4.76999 -3.45934e-20)
(7.06978 4.65132 1.75377e-17)
(6.60527 5.35748 1.65309e-17)
(6.89521 5.22562 -1.71568e-17)
(6.42789 6.02425 3.04342e-18)
(6.76768 5.85398 3.28681e-17)
(6.20798 6.74748 -2.92264e-17)
(6.47552 6.67551 -2.95133e-17)
(5.92738 7.34751 2.4597e-17)
(6.77681 7.1201 -2.82465e-17)
(5.32967 8.31151 4.98835e-17)
(9.98621 0.122502 -1.4665e-18)
(9.99598 0.0849416 -7.27965e-19)
(9.96013 0.201164 4.97406e-20)
(9.97746 0.166965 1.82038e-19)
(9.92277 0.279273 3.4342e-19)
(9.94619 0.247651 -9.35984e-19)
(9.87483 0.358703 -3.79869e-19)
(9.9043 0.328914 7.65064e-19)
(9.81693 0.440923 4.14403e-19)
(9.85284 0.412349 -1.57332e-18)
(9.74958 0.52725 -2.80576e-20)
(9.79214 0.499342 2.01546e-18)
(9.67316 0.618926 8.83922e-19)
(9.72255 0.591217 -2.47624e-18)
(9.58798 0.717082 8.05706e-19)
(9.64439 0.689187 1.68959e-18)
(9.49434 0.822797 -4.28849e-19)
(9.55801 0.794323 1.28817e-18)
(9.39244 0.937247 0)
(9.46377 0.907774 -1.7501e-18)
(9.28246 1.06172 0)
(9.36183 1.03082 0)
(9.16454 1.19761 0)
(9.25239 1.16483 4.55884e-19)
(9.03892 1.34639 0)
(9.1357 1.31125 4.64738e-19)
(8.90585 1.50967 -5.0085e-19)
(9.01203 1.47162 -3.3445e-18)
(8.76564 1.68932 -4.095e-18)
(8.88177 1.6477 -3.72015e-20)
(8.61875 1.88748 6.30656e-19)
(8.7454 1.84156 3.46633e-19)
(8.46569 2.10657 9.36104e-18)
(8.60347 2.05552 5.10328e-18)
(8.30711 2.34941 -8.74246e-18)
(8.45667 2.29223 4.23694e-18)
(8.14393 2.61932 -5.1051e-18)
(8.30595 2.55478 -2.20139e-17)
(7.9773 2.92031 8.51575e-18)
(8.15251 2.84696 1.67545e-17)
(7.80879 3.25722 8.71434e-18)
(7.99788 3.17328 0)
(7.64043 3.63581 -8.53654e-18)
(7.84421 3.53925 9.75012e-18)
(7.47483 4.06315 -8.82771e-18)
(7.69401 3.95149 -9.2684e-18)
(7.31562 4.54765 2.60797e-17)
(7.55074 4.41812 6.59573e-19)
(7.16757 5.09945 8.69057e-19)
(7.42036 4.94818 1.57894e-17)
(7.03052 5.726 -1.78961e-18)
(7.29794 5.5586 -1.64042e-17)
(6.91732 6.43918 1.02656e-18)
(7.2407 6.224 1.52286e-17)
(6.77048 7.22257 -2.85425e-17)
(6.99586 7.11251 -1.53964e-17)
(6.53131 7.8774 6.56905e-18)
(7.4233 7.59277 -1.24511e-17)
(5.92625 8.92483 2.79417e-17)
(9.98682 0.130904 9.39145e-19)
(9.99635 0.0904073 0)
(9.96199 0.215118 -8.28479e-19)
(9.97865 0.177802 7.38494e-19)
(9.92662 0.298868 -4.7871e-19)
(9.949 0.263887 -1.13189e-18)
(9.88143 0.384091 -4.75809e-19)
(9.90958 0.350672 7.69959e-19)
(9.827 0.472299 9.7495e-20)
(9.86134 0.439794 3.77451e-19)
(9.76381 0.564859 -5.17136e-19)
(9.80457 0.532686 8.14678e-19)
(9.6923 0.663053 -1.59627e-18)
(9.7396 0.630702 -1.24243e-18)
(9.61285 0.768044 2.16543e-18)
(9.66688 0.735074 -4.11788e-19)
(9.52577 0.880977 -8.33271e-20)
(9.5868 0.846941 1.30346e-18)
(9.43133 1.00309 -1.72324e-18)
(9.49971 0.967516 -1.75228e-18)
(9.32977 1.13574 4.6319e-19)
(9.40587 1.09812 0)
(9.22138 1.28034 9.21528e-19)
(9.30559 1.24015 5.54779e-21)
(9.1065 1.43842 -2.93501e-18)
(9.19924 1.39512 6.39254e-21)
(8.98554 1.61164 -2.8418e-18)
(9.08723 1.56459 3.75277e-19)
(8.85897 1.80197 4.41699e-18)
(8.97008 1.75041 -2.83398e-18)
(8.7274 2.01163 4.88074e-18)
(8.84844 1.95469 3.44368e-18)
(8.59159 2.24315 -4.33678e-20)
(8.72308 2.17985 2.21121e-20)
(8.45252 2.49944 -9.25593e-18)
(8.59499 2.42863 -1.01944e-18)
(8.31142 2.78401 1.01856e-19)
(8.46541 2.70425 -8.19961e-18)
(8.16987 3.1011 8.16657e-18)
(8.33595 3.01068 8.21348e-18)
(8.02995 3.4558 1.03484e-18)
(8.20864 3.35269 9.64443e-19)
(7.89445 3.85427 9.08664e-18)
(8.08612 3.73605 7.77017e-18)
(7.76685 4.30407 2.35649e-19)
(7.972 4.16783 -4.02968e-19)
(7.65151 4.81436 -9.92315e-18)
(7.87045 4.65683 -7.07082e-18)
(7.5545 5.39689 -1.06378e-18)
(7.78891 5.21291 -1.03276e-18)
(7.47648 6.06167 5.16695e-20)
(7.72162 5.8571 5.91829e-20)
(7.42839 6.82368 -8.9206e-19)
(7.73694 6.56113 -1.27708e-17)
(7.3627 7.67281 7.76245e-19)
(7.55238 7.51376 2.13659e-17)
(7.18861 8.41384 1.40926e-17)
(8.10718 8.05068 -9.93925e-18)
(6.57528 9.56582 2.31621e-17)
(9.98751 0.138894 -1.86752e-19)
(9.99675 0.0955902 0)
(9.96411 0.228344 3.94349e-19)
(9.97999 0.188051 -1.83271e-19)
(9.9309 0.317376 1.57307e-19)
(9.95213 0.279192 5.61453e-19)
(9.88864 0.40801 1.61581e-18)
(9.91534 0.371119 -7.6402e-19)
(9.83789 0.50181 1.10391e-18)
(9.87048 0.465536 7.8831e-19)
(9.7791 0.600174 5.09543e-20)
(9.81781 0.563908 -7.63319e-21)
(9.71276 0.704398 -4.19305e-20)
(9.75772 0.667595 8.17322e-19)
(9.63932 0.815686 -1.24603e-18)
(9.69071 0.777848 -8.30041e-19)
(9.55913 0.935244 -4.16435e-19)
(9.61722 0.895869 -3.4703e-21)
(9.4725 1.06436 0)
(9.53761 1.02292 0)
(9.37979 1.2044 -4.5808e-19)
(9.45224 1.16035 -4.32576e-19)
(9.2814 1.35685 -9.11095e-19)
(9.36155 1.30959 -4.51775e-19)
(9.17778 1.52326 3.32596e-18)
(9.26597 1.47216 -1.38382e-20)
(9.06948 1.70534 3.4965e-19)
(9.16609 1.64969 3.27794e-18)
(8.95715 1.90511 -3.7468e-18)
(9.06258 1.84405 -3.76277e-18)
(8.84158 2.12485 -1.45966e-18)
(8.95624 2.05739 -4.81853e-19)
(8.7238 2.36716 -9.65636e-19)
(8.84813 2.29219 -1.90471e-18)
(8.60508 2.63504 0)
(8.73947 2.55123 4.69578e-18)
(8.48704 2.93212 0)
(8.63185 2.83783 -3.75596e-18)
(8.37171 3.26284 9.68816e-19)
(8.52733 3.15612 0)
(8.2617 3.63252 7.71431e-18)
(8.42847 3.51103 3.38504e-20)
(8.16057 4.04769 -1.70277e-18)
(8.33855 3.90853 7.69039e-18)
(8.07272 4.51649 -7.70165e-18)
(8.26211 4.35617 -8.52806e-18)
(8.00345 5.04905 1.79803e-18)
(8.2043 4.86359 4.50822e-20)
(7.96009 5.65934 8.05634e-20)
(8.17444 5.44176 1.68342e-18)
(7.94596 6.36078 -1.25692e-17)
(8.16677 6.11529 -8.44743e-19)
(7.96847 7.17339 9.25088e-18)
(8.25894 6.85827 -1.12884e-17)
(7.99953 8.09086 1.15977e-17)
(8.15646 7.86528 3.13055e-17)
(7.91497 8.96424 2.23792e-18)
(8.84068 8.49 -1.99062e-17)
(7.3019 10.2695 2.62576e-18)
(9.98829 0.146423 0)
(9.99717 0.100459 0)
(9.96644 0.240772 0)
(9.98145 0.197655 -3.61969e-19)
(9.93556 0.334719 -3.88021e-19)
(9.95552 0.293499 -9.04482e-22)
(9.89636 0.430373 -1.56144e-18)
(9.92149 0.390195 -4.25332e-21)
(9.84942 0.529344 -3.3942e-19)
(9.88014 0.489503 -1.16619e-18)
(9.79524 0.633043 7.74443e-19)
(9.83176 0.592905 7.89247e-19)
(9.73433 0.742778 0)
(9.77678 0.701761 7.95841e-19)
(9.66716 0.859791 4.27376e-19)
(9.71572 0.817349 -4.05165e-19)
(9.59415 0.985339 4.13618e-19)
(9.64905 0.940925 2.49109e-18)
(9.51568 1.12075 -4.39466e-19)
(9.57722 1.07379 -1.67763e-18)
(9.43219 1.26741 -4.26672e-19)
(9.50063 1.2173 -4.3007e-19)
(9.34418 1.42681 4.52607e-19)
(9.41983 1.3729 0)
(9.25223 1.60052 -2.17309e-20)
(9.33538 1.54212 3.52707e-18)
(9.15703 1.7903 -9.19875e-19)
(9.24802 1.7266 -6.67882e-18)
(9.05942 1.99817 -4.58081e-19)
(9.15853 1.92823 3.11509e-18)
(8.96042 2.22647 -9.39268e-19)
(9.06794 2.14918 4.51384e-18)
(8.86128 2.4778 3.81398e-18)
(8.97759 2.39195 -3.64019e-18)
(8.76361 2.75524 8.96055e-19)
(8.88894 2.65932 3.79792e-18)
(8.6694 3.06251 -3.75106e-18)
(8.80388 2.95467 3.44905e-18)
(8.58123 3.40413 -9.38006e-19)
(8.72499 3.28216 -7.16234e-18)
(8.50234 3.78559 -2.01468e-20)
(8.65546 3.64677 -7.08406e-18)
(8.43697 4.21373 9.51095e-19)
(8.59928 4.05465 1.41447e-19)
(8.39053 4.69732 -8.31454e-19)
(8.56191 4.51374 8.34585e-18)
(8.36973 5.24755 -9.80317e-20)
(8.54996 5.03433 -8.66018e-19)
(8.38345 5.88048 8.03523e-19)
(8.57451 5.62851 1.23433e-17)
(8.4398 6.61316 6.50318e-19)
(8.63186 6.32251 -1.10316e-17)
(8.54235 7.4729 1.04402e-17)
(8.80555 7.09862 3.1508e-20)
(8.69268 8.4551 1.56384e-18)
(8.81405 8.13825 9.81314e-18)
(8.73992 9.5365 -1.75618e-17)
(9.62675 8.88972 -2.54191e-18)
(8.129 11.0631 -9.4493e-18)
(9.98913 0.153454 -3.69156e-19)
(9.99762 0.104987 0)
(9.96895 0.252356 -3.55205e-19)
(9.983 0.206572 -3.69085e-19)
(9.94051 0.350854 3.83062e-19)
(9.95911 0.306759 1.03802e-18)
(9.90451 0.451141 3.68621e-19)
(9.92795 0.407842 -6.77991e-19)
(9.86154 0.554852 0)
(9.89026 0.511624 1.43892e-18)
(9.81216 0.663407 8.10647e-19)
(9.84635 0.619589 7.32562e-19)
(9.75689 0.778134 3.70071e-19)
(9.79668 0.733107 6.17597e-20)
(9.69624 0.900311 1.70719e-18)
(9.74179 0.853487 -3.16664e-20)
(9.63065 1.03123 3.34456e-19)
(9.68219 0.982022 2.49478e-18)
(9.56058 1.17223 -1.65074e-18)
(9.61837 1.12003 -1.7114e-18)
(9.48657 1.32472 3.09794e-21)
(9.55084 1.26886 6.37732e-21)
(9.40921 1.49016 3.12322e-18)
(9.48022 1.42997 0)
(9.32924 1.67015 -3.25585e-18)
(9.40725 1.60487 3.1437e-18)
(9.24748 1.86645 -2.5398e-18)
(9.33283 1.7952 -6.36011e-18)
(9.16495 2.08107 8.11167e-18)
(9.2578 2.00283 1.1557e-18)
(9.08291 2.31635 1.75022e-18)
(9.18342 2.22993 7.10082e-18)
(9.00288 2.57489 -3.6156e-18)
(9.11138 2.47895 -1.9384e-18)
(8.92672 2.85976 6.35376e-18)
(9.0433 2.75267 -1.75879e-18)
(8.85686 3.1747 2.74296e-20)
(8.98139 3.05443 8.19818e-18)
(8.79643 3.5242 -1.3335e-17)
(8.92878 3.38831 -8.32486e-19)
(8.7494 3.91379 -6.96608e-18)
(8.88929 3.75921 -1.34889e-17)
(8.72084 4.35051 7.487e-18)
(8.86766 4.17326 -1.66001e-20)
(8.71734 4.84355 8.42947e-18)
(8.87058 4.63847 7.02652e-18)
(8.74729 5.40468 1.14035e-17)
(8.90611 5.16521 4.82711e-18)
(8.82156 6.051 9.14593e-19)
(8.98708 5.76594 1.09203e-17)
(8.95456 6.80255 -1.18134e-17)
(9.11476 6.46531 -1.60542e-17)
(9.14761 7.69457 -6.30553e-19)
(9.37313 7.25709 -6.97308e-19)
(9.44048 8.73933 6.36606e-18)
(9.5297 8.2919 4.25889e-19)
(9.67661 10.2876 2.90724e-18)
(10.5533 9.202 8.09731e-18)
(10.3703 11.9069 -1.12011e-18)
(0.0241332 -0.0213824 5.21364e-21)
(-0.0138754 -0.0107006 1.65336e-19)
(0.132577 -0.0444786 3.7483e-21)
(0.0590981 -0.0731773 -1.27395e-19)
(0.309815 -0.0532943 4.34546e-21)
(0.213546 -0.0993445 2.63693e-22)
(0.502471 -0.0475516 0)
(0.396979 -0.0942981 0)
(0.67019 -0.0369574 0)
(0.577415 -0.0773594 -1.44661e-20)
(0.798011 -0.0271689 0)
(0.727056 -0.059727 0)
(0.88989 -0.0197231 3.70314e-20)
(0.839567 -0.0454427 0)
(0.955793 -0.0142501 -3.01603e-21)
(0.921623 -0.0349751 3.60462e-20)
(1.00332 -0.00982163 -1.6057e-20)
(0.981694 -0.0269325 -1.82461e-20)
(1.03627 -0.00606116 9.37408e-21)
(1.02573 -0.0197071 -4.02264e-20)
(1.05828 -0.00343432 5.57047e-22)
(1.05702 -0.0137394 6.18071e-20)
(1.07448 -0.00205764 -2.05414e-22)
(1.0787 -0.0104671 -2.05642e-20)
(1.08814 -0.000855789 -2.08746e-20)
(1.09567 -0.00905576 4.40159e-22)
(1.09781 0.0011806 -1.54747e-20)
(1.11105 -0.00651405 5.21066e-20)
(1.10131 0.00334452 -5.09055e-21)
(1.12293 -0.00233693 -9.90922e-21)
(1.1006 0.00384327 0)
(1.12848 0.000577522 3.00673e-20)
(1.1016 0.00175062 -4.51841e-21)
(1.12959 -0.000641198 -9.54145e-21)
(1.11013 -0.00217895 -4.5095e-21)
(1.13238 -0.00602193 -1.74308e-20)
(1.12825 -0.00615953 0)
(1.14252 -0.0129351 1.74017e-20)
(1.15362 -0.00864745 8.44181e-23)
(1.16167 -0.0182171 0)
(1.18145 -0.00927918 1.79514e-21)
(1.18737 -0.0200654 1.89195e-21)
(1.20759 -0.00887353 1.71874e-21)
(1.21515 -0.0189204 -1.57436e-21)
(1.23095 -0.00871028 -2.43683e-21)
(1.24146 -0.0169529 0)
(1.25354 -0.00978162 -1.25708e-21)
(1.2653 -0.0164565 3.72177e-21)
(1.27936 -0.0124951 6.84568e-22)
(1.28814 -0.0188649 -3.07532e-21)
(1.31269 -0.0167432 -8.57555e-22)
(1.31296 -0.0244405 2.27796e-21)
(1.35711 -0.0221067 -4.49323e-22)
(1.34294 -0.0326775 -8.91129e-22)
(1.4146 -0.0277819 -3.28038e-23)
(1.38094 -0.0424051 -7.07851e-22)
(1.4843 -0.0322033 1.24697e-22)
(1.42885 -0.0515709 3.64016e-22)
(1.50362 -0.0563887 3.40216e-23)
(0.0210797 -0.0608179 4.83275e-20)
(-0.0123942 -0.013809 1.59052e-19)
(0.12286 -0.130991 -1.41958e-19)
(0.0542498 -0.150443 1.39001e-19)
(0.289521 -0.149319 -4.20423e-21)
(0.182808 -0.195018 -2.55462e-19)
(0.476406 -0.134749 -1.41318e-20)
(0.345346 -0.185184 0)
(0.645463 -0.109097 -1.44454e-20)
(0.509153 -0.154366 -3.72596e-22)
(0.778814 -0.0846655 0)
(0.646958 -0.121587 3.13928e-20)
(0.877539 -0.0655098 0)
(0.75095 -0.0944218 3.41807e-20)
(0.950745 -0.0512989 1.96905e-20)
(0.825844 -0.0743979 0)
(1.00643 -0.0397732 -4.28774e-20)