/*--------------------------------*- C++ -*----------------------------------*\
| =========                 |                                                 |
| \\      /  F ield         | OpenFOAM: The Open Source CFD Toolbox           |
|  \\    /   O peration     | Version:  4.1                                   |
|   \\  /    A nd           | Web:      www.OpenFOAM.org                      |
|    \\/     M anipulation  |                                                 |
\*---------------------------------------------------------------------------*/
FoamFile
{
    version     2.0;
    format      ascii;
    class       pointVectorField;
    location    "4.8";
    object      pointDisplacement;
}
// * * * * * * * * * * * * * * * * * * * * * * * * * * * * * * * * * * * * * //

dimensions      [0 1 0 0 0 0 0];

internalField   nonuniform List<vector> 
5828
(
(0 0 0)
(0.0188211 0 0)
(0.0355933 0 0)
(0.0498444 0 0)
(0.0618074 0 0)
(0.071709 0 0)
(0.0797497 0 0)
(0.0861025 0 0)
(0.0909189 0 0)
(0.0943349 0 0)
(0.0964705 0 0)
(0.0974292 0 0)
(0.0973024 0 0)
(0.0961715 0 0)
(0.09411 0 0)
(0.0911861 0 0)
(0.0874642 0 0)
(0.0830072 0 0)
(0.0778782 0 0)
(0.0721424 0 0)
(0.0658695 0 0)
(0.0591367 0 0)
(0.0520325 0 0)
(0.0446611 0 0)
(0.0371483 0 0)
(0.0296525 0 0)
(0.0223829 0 0)
(0.0156339 0 0)
(0.00984117 0 0)
(0.00577504 0 0)
(0 0 0)
(0 0 0)
(0.0188337 0 -0.000116481)
(0.0356187 0 -0.000221814)
(0.0498829 0 -0.000314396)
(0.0618592 0 -0.000396222)
(0.0717753 0 -0.000468811)
(0.0798324 0 -0.000533318)
(0.0862035 0 -0.000590692)
(0.0910398 0 -0.000640657)
(0.0944783 0 -0.000682633)
(0.0966396 0 -0.000716525)
(0.0976277 0 -0.000741613)
(0.0975341 0 -0.000756821)
(0.0964409 0 -0.000760747)
(0.0944221 0 -0.000751662)
(0.0915466 0 -0.00072751)
(0.0878794 0 -0.000685906)
(0.0834843 0 -0.000624147)
(0.0784255 0 -0.000539131)
(0.0727693 0 -0.000427306)
(0.0665866 0 -0.000284721)
(0.0599564 0 -0.000107086)
(0.0529694 0 0.000110145)
(0.045732 0 0.000371627)
(0.0383739 0 0.000681835)
(0.0310561 0 0.00104463)
(0.0239899 0 0.00146239)
(0.0174782 0 0.00193375)
(0.0119816 0 0.00244427)
(0.00829775 0 0.00293317)
(0.0032379 0 0.00356862)
(0 0 0)
(0.0188738 0 -0.000233248)
(0.0356985 0 -0.000444235)
(0.050002 0 -0.000629789)
(0.0620182 0 -0.000793881)
(0.0719774 0 -0.000939538)
(0.0800835 0 -0.00106905)
(0.0865088 0 -0.00118388)
(0.0914039 0 -0.00128395)
(0.0949089 0 -0.00136866)
(0.0971466 0 -0.00143751)
(0.0982215 0 -0.00148905)
(0.0982264 0 -0.00152118)
(0.0972449 0 -0.00153117)
(0.0953526 0 -0.00151568)
(0.0926202 0 -0.00147068)
(0.0891148 0 -0.00139155)
(0.0849027 0 -0.00127309)
(0.0800515 0 -0.00110938)
(0.0746304 0 -0.000893565)
(0.0687145 0 -0.000618123)
(0.0623874 0 -0.000274951)
(0.0557461 0 0.000144394)
(0.0489057 0 0.000648332)
(0.0420077 0 0.00124443)
(0.0352267 0 0.00193822)
(0.0287806 0 0.00273149)
(0.0229756 0 0.0036167)
(0.0183149 0 0.00455768)
(0.0156834 0 0.00542443)
(0.0114154 0 0.00657644)
(0 0 0)
(0.0189411 0 -0.000350249)
(0.0358322 0 -0.000667184)
(0.0502012 0 -0.000946156)
(0.0622834 0 -0.00119306)
(0.0723136 0 -0.0014124)
(0.0804991 0 -0.00160765)
(0.0870125 0 -0.00178034)
(0.092006 0 -0.00193116)
(0.0956226 0 -0.00206008)
(0.0979867 0 -0.00216585)
(0.099205 0 -0.00224637)
(0.0993726 0 -0.00229866)
(0.0985754 0 -0.00231881)
(0.096892 0 -0.00230205)
(0.0943958 0 -0.00224264)
(0.0911568 0 -0.00213393)
(0.0872462 0 -0.00196875)
(0.0827367 0 -0.0017389)
(0.0777026 0 -0.00143481)
(0.0722247 0 -0.00104611)
(0.066394 0 -0.000561914)
(0.0603167 0 2.87987e-05)
(0.0541191 0 0.000736581)
(0.0479644 0 0.00156968)
(0.0420552 0 0.00253158)
(0.0366345 0 0.00361745)
(0.0320082 0 0.0048056)
(0.028663 0 0.00603104)
(0.0275905 0 0.00708768)
(0.0246369 0 0.00853486)
(0 0 0)
(0.0190348 0 -0.000467282)
(0.0360185 0 -0.000890277)
(0.0504784 0 -0.00126258)
(0.0626507 0 -0.00159221)
(0.0727782 0 -0.00188561)
(0.0810725 0 -0.00214731)
(0.0877078 0 -0.00237967)
(0.0928394 0 -0.00258358)
(0.0966111 0 -0.00275896)
(0.0991503 0 -0.00290451)
(0.100567 0 -0.00301768)
(0.100959 0 -0.0030948)
(0.100416 0 -0.00313106)
(0.0990215 0 -0.00312053)
(0.0968518 0 -0.00305611)
(0.0939803 0 -0.00292937)
(0.090485 0 -0.00273193)
(0.0864471 0 -0.0024543)
(0.0819472 0 -0.00208481)
(0.077074 0 -0.0016114)
(0.0719282 0 -0.00102181)
(0.0666291 0 -0.00030447)
(0.0613151 0 0.00055118)
(0.0561625 0 0.00155168)
(0.0514049 0 0.00269364)
(0.0473383 0 0.00395722)
(0.0443061 0 0.00529623)
(0.0427268 0 0.00661609)
(0.0435999 0 0.00763966)
(0.0422073 0 0.00912099)
(0 0 0)
(0.0191536 0 -0.000584278)
(0.0362521 0 -0.00111334)
(0.0508241 0 -0.00157878)
(0.0631127 0 -0.0019912)
(0.0733664 0 -0.00235925)
(0.0818001 0 -0.00268841)
(0.0885905 0 -0.00298183)
(0.0938946 0 -0.00324072)
(0.0978607 0 -0.00346514)
(0.10062 0 -0.00365393)
(0.102286 0 -0.0038043)
(0.102961 0 -0.00391213)
(0.102739 0 -0.00397202)
(0.101707 0 -0.00397731)
(0.0999498 0 -0.00392014)
(0.0975447 0 -0.00379113)
(0.0945756 0 -0.00358082)
(0.0911324 0 -0.00327885)
(0.0873053 0 -0.00287293)
(0.0831933 0 -0.00235066)
(0.0789078 0 -0.00169991)
(0.0745866 0 -0.000910841)
(0.0703921 0 2.31302e-05)
(0.0665045 0 0.00110352)
(0.0631637 0 0.00231818)
(0.0607103 0 0.00362779)
(0.0595621 0 0.00495087)
(0.0601138 0 0.00616074)
(0.063182 0 0.00693686)
(0.0633698 0 0.00823686)
(0 0 0)
(0.0192964 0 -0.000700824)
(0.0365305 0 -0.00133572)
(0.0512351 0 -0.00189466)
(0.0636654 0 -0.00239069)
(0.074073 0 -0.0028344)
(0.0826735 0 -0.00323226)
(0.089648 0 -0.00358778)
(0.0951586 0 -0.00390333)
(0.0993581 0 -0.00417992)
(0.102381 0 -0.00441609)
(0.104344 0 -0.00460903)
(0.105356 0 -0.00475454)
(0.105516 0 -0.00484696)
(0.104917 0 -0.00487938)
(0.10365 0 -0.00484373)
(0.101802 0 -0.00473078)
(0.0994629 0 -0.00453037)
(0.0967299 0 -0.00423169)
(0.0937049 0 -0.00382327)
(0.090501 0 -0.00329428)
(0.0872422 0 -0.00263432)
(0.0840745 0 -0.00183568)
(0.0811906 0 -0.000899481)
(0.0788033 0 0.000164114)
(0.0771483 0 0.001332)
(0.0765501 0 0.0025489)
(0.0774826 0 0.00369686)
(0.0803743 0 0.00460921)
(0.0857366 0 0.00495951)
(0.0874272 0 0.0059408)
(0 0 0)
(0.019462 0 -0.000816783)
(0.0368547 0 -0.00155698)
(0.0517127 0 -0.00220934)
(0.0643051 0 -0.00278946)
(0.0748892 0 -0.00330958)
(0.0836813 0 -0.00377744)
(0.0908686 0 -0.00419748)
(0.0966196 0 -0.00457302)
(0.101089 0 -0.00490556)
(0.104415 0 -0.00519385)
(0.106721 0 -0.00543549)
(0.10812 0 -0.00562656)
(0.108718 0 -0.0057615)
(0.108614 0 -0.00583359)
(0.107908 0 -0.00583512)
(0.106697 0 -0.00575772)
(0.10508 0 -0.00559164)
(0.10316 0 -0.00532654)
(0.101051 0 -0.00495263)
(0.0988872 0 -0.00446272)
(0.0968136 0 -0.00385126)
(0.0949768 0 -0.00311355)
(0.0935719 0 -0.00225616)
(0.0928574 0 -0.00130497)
(0.0931011 0 -0.000302521)
(0.0945756 0 0.000684246)
(0.0977373 0 0.00151253)
(0.103019 0 0.00197828)
(0.110668 0 0.00177408)
(0.113815 0 0.00234743)
(0 0 0)
(0.0196451 0 -0.000932116)
(0.0372146 0 -0.00177705)
(0.0522482 0 -0.00252261)
(0.0650248 0 -0.00318711)
(0.0758072 0 -0.00378444)
(0.0848157 0 -0.00432376)
(0.0922435 0 -0.00481095)
(0.0982642 0 -0.00524987)
(0.103036 0 -0.00564231)
(0.1067 0 -0.00598772)
(0.109388 0 -0.00628455)
(0.111219 0 -0.00652958)
(0.112305 0 -0.00671768)
(0.112752 0 -0.00684273)
(0.112668 0 -0.00689782)
(0.112164 0 -0.00687686)
(0.111349 0 -0.00677129)
(0.110333 0 -0.00657185)
(0.109245 0 -0.00627233)
(0.108234 0 -0.00586933)
(0.107463 0 -0.00536288)
(0.107108 0 -0.00475785)
(0.107362 0 -0.00406702)
(0.108474 0 -0.00332452)
(0.110758 0 -0.00259602)
(0.114486 0 -0.00196765)
(0.119992 0 -0.00158581)
(0.127636 0 -0.00167375)
(0.137502 0 -0.00251169)
(0.14207 0 -0.00238974)
(0 0 0)
(0.0198437 0 -0.00104639)
(0.037607 0 -0.00199567)
(0.052837 0 -0.0028347)
(0.0658187 0 -0.00358406)
(0.07682 0 -0.00425955)
(0.0860671 0 -0.00487191)
(0.0937594 0 -0.00542834)
(0.100075 0 -0.00593355)
(0.105176 0 -0.0063899)
(0.10921 0 -0.00679745)
(0.112314 0 -0.00715604)
(0.114616 0 -0.00746371)
(0.116232 0 -0.00771585)
(0.117277 0 -0.00790751)
(0.117869 0 -0.00803375)
(0.118132 0 -0.00809036)
(0.11818 0 -0.00807071)
(0.118137 0 -0.00796858)
(0.118156 0 -0.00778348)
(0.118395 0 -0.00751634)
(0.119023 0 -0.00717181)
(0.120246 0 -0.00676514)
(0.122291 0 -0.00632354)
(0.125388 0 -0.00588771)
(0.12983 0 -0.00553331)
(0.135931 0 -0.0053719)
(0.143869 0 -0.00554221)
(0.153864 0 -0.00626146)
(0.165838 0 -0.00777029)
(0.171775 0 -0.00812753)
(0 0 0)
(0.0200602 0 -0.00115959)
(0.0380352 0 -0.00221248)
(0.0534756 0 -0.00314445)
(0.0666769 0 -0.00397862)
(0.0779144 0 -0.00473289)
(0.0874191 0 -0.00541952)
(0.0953959 0 -0.00604708)
(0.102028 0 -0.00662131)
(0.107483 0 -0.00714545)
(0.111913 0 -0.00762082)
(0.115464 0 -0.00804851)
(0.11827 0 -0.00842749)
(0.12045 0 -0.00875438)
(0.122129 0 -0.00902579)
(0.123442 0 -0.00924046)
(0.124515 0 -0.0093955)
(0.125472 0 -0.00948635)
(0.126456 0 -0.00951259)
(0.127633 0 -0.00947808)
(0.129178 0 -0.00939077)
(0.131286 0 -0.00926455)
(0.13416 0 -0.00912002)
(0.138058 0 -0.00899814)
(0.143241 0 -0.00895592)
(0.149946 0 -0.00906908)
(0.158469 0 -0.00946086)
(0.168911 0 -0.0102672)
(0.181295 0 -0.0116746)
(0.195244 0 -0.0138529)
(0.202531 0 -0.0147061)
(0 0 0)
(0.0202887 0 -0.00127147)
(0.0384871 0 -0.00242671)
(0.0541532 0 -0.00345092)
(0.0675905 0 -0.00436991)
(0.0790797 0 -0.00520343)
(0.0888581 0 -0.0059654)
(0.0971364 0 -0.00666584)
(0.104104 0 -0.00731169)
(0.109931 0 -0.00790746)
(0.114781 0 -0.00845616)
(0.118804 0 -0.00895979)
(0.122135 0 -0.00941817)
(0.124905 0 -0.00982998)
(0.127248 0 -0.0101942)
(0.129306 0 -0.0105124)
(0.131216 0 -0.010784)
(0.133112 0 -0.0110086)
(0.135159 0 -0.0111924)
(0.137528 0 -0.0113435)
(0.140405 0 -0.0114753)
(0.144016 0 -0.0116137)
(0.148587 0 -0.0117907)
(0.154366 0 -0.0120524)
(0.161641 0 -0.0124711)
(0.170651 0 -0.0131313)
(0.181635 0 -0.0141518)
(0.194635 0 -0.0156579)
(0.209436 0 -0.0177825)
(0.225234 0 -0.0205933)
(0.234008 0 -0.0219126)
(0 0 0)
(0.0205259 0 -0.00138151)
(0.038958 0 -0.00263793)
(0.0548644 0 -0.00375403)
(0.0685525 0 -0.0047579)
(0.080307 0 -0.00567113)
(0.0903728 0 -0.00650946)
(0.0989667 0 -0.00728442)
(0.106283 0 -0.00800437)
(0.1125 0 -0.00867516)
(0.117784 0 -0.00930143)
(0.122293 0 -0.0098865)
(0.126167 0 -0.0104315)
(0.129543 0 -0.0109373)
(0.132566 0 -0.0114063)
(0.135382 0 -0.0118411)
(0.138137 0 -0.0122452)
(0.140984 0 -0.0126241)
(0.144097 0 -0.0129888)
(0.147665 0 -0.0133547)
(0.151881 0 -0.0137418)
(0.156974 0 -0.0141823)
(0.163215 0 -0.014725)
(0.170847 0 -0.0154229)
(0.180157 0 -0.0163562)
(0.191426 0 -0.0176236)
(0.204846 0 -0.0193348)
(0.220385 0 -0.0215866)
(0.237584 0 -0.0244354)
(0.255159 0 -0.0278257)
(0.265983 0 -0.0295761)
(0 0 0)
(0.0207736 0 -0.00148966)
(0.0394504 0 -0.00284598)
(0.0556062 0 -0.00405317)
(0.0695542 0 -0.00514151)
(0.0815843 0 -0.00613459)
(0.091948 0 -0.00704998)
(0.100868 0 -0.00790079)
(0.108545 0 -0.00869684)
(0.11516 0 -0.00944549)
(0.120889 0 -0.0101531)
(0.125893 0 -0.0108243)
(0.130315 0 -0.0114618)
(0.134302 0 -0.0120692)
(0.138007 0 -0.0126516)
(0.141579 0 -0.0132139)
(0.145174 0 -0.0137639)
(0.148966 0 -0.0143142)
(0.153128 0 -0.0148787)
(0.157853 0 -0.0154787)
(0.163362 0 -0.0161452)
(0.169881 0 -0.0169164)
(0.177689 0 -0.0178509)
(0.18706 0 -0.0190183)
(0.198271 0 -0.0205033)
(0.211618 0 -0.0224141)
(0.227265 0 -0.0248509)
(0.245135 0 -0.0278776)
(0.264589 0 -0.0314587)
(0.283923 0 -0.0354033)
(0.2983 0 -0.0375912)
(0 0 0)
(0.0210298 0 -0.00159581)
(0.0399594 0 -0.00305039)
(0.0563717 0 -0.00434744)
(0.0705866 0 -0.00551954)
(0.0828998 0 -0.00659231)
(0.0935687 0 -0.00758509)
(0.102822 0 -0.00851261)
(0.110865 0 -0.00938625)
(0.117885 0 -0.0102149)
(0.124062 0 -0.0110068)
(0.129562 0 -0.011768)
(0.13453 0 -0.0125024)
(0.139123 0 -0.0132169)
(0.143502 0 -0.01392)
(0.147818 0 -0.014619)
(0.152234 0 -0.0153248)
(0.156931 0 -0.0160554)
(0.162095 0 -0.0168318)
(0.167912 0 -0.0176781)
(0.174614 0 -0.0186339)
(0.182444 0 -0.019749)
(0.191657 0 -0.0210851)
(0.202544 0 -0.0227261)
(0.215366 0 -0.0247638)
(0.230395 0 -0.0273126)
(0.247754 0 -0.0304684)
(0.267345 0 -0.0342812)
(0.288427 0 -0.0386279)
(0.309359 0 -0.0432196)
(0.330765 0 -0.0458499)
(0 0 0)
(0.0212943 0 -0.00170054)
(0.0404848 0 -0.00325225)
(0.0571607 0 -0.00463842)
(0.0716498 0 -0.00589399)
(0.0842533 0 -0.00704664)
(0.0952344 0 -0.00811743)
(0.104827 0 -0.00912273)
(0.113242 0 -0.0100756)
(0.120671 0 -0.0109864)
(0.1273 0 -0.0118656)
(0.133295 0 -0.0127204)
(0.138808 0 -0.0135564)
(0.144002 0 -0.0143838)
(0.149038 0 -0.0152126)
(0.154078 0 -0.0160546)
(0.159286 0 -0.0169243)
(0.164836 0 -0.0178408)
(0.170926 0 -0.0188325)
(0.177752 0 -0.0199314)
(0.185526 0 -0.0211785)
(0.19449 0 -0.0226325)
(0.204878 0 -0.0243589)
(0.216946 0 -0.0264456)
(0.230926 0 -0.0289934)
(0.247005 0 -0.0321161)
(0.265188 0 -0.0359146)
(0.285233 0 -0.0404718)
(0.306131 0 -0.0457385)
(0.326373 0 -0.0518344)
(0.363291 0 -0.0542573)
(0 0 0)
(0.0188211 0 0)
(0.0355933 0 0)
(0.0498444 0 0)
(0.0618074 0 0)
(0.071709 0 0)
(0.0797497 0 0)
(0.0861025 0 0)
(0.0909189 0 0)
(0.0943349 0 0)
(0.0964705 0 0)
(0.0974292 0 0)
(0.0973024 0 0)
(0.0961715 0 0)
(0.09411 0 0)
(0.0911861 0 0)
(0.0874642 0 0)
(0.0830072 0 0)
(0.0778782 0 0)
(0.0721424 0 0)
(0.0658695 0 0)
(0.0591367 0 0)
(0.0520325 0 0)
(0.0446611 0 0)
(0.0371483 0 0)
(0.0296525 0 0)
(0.0223829 0 0)
(0.0156339 0 0)
(0.00984117 0 0)
(0.00577504 0 0)
(0 0 0)
(0 0 0)
(0.0188337 0 -0.000116481)
(0.0356187 0 -0.000221814)
(0.0498829 0 -0.000314396)
(0.0618592 0 -0.000396222)
(0.0717753 0 -0.000468811)
(0.0798324 0 -0.000533318)
(0.0862035 0 -0.000590692)
(0.0910398 0 -0.000640657)
(0.0944783 0 -0.000682633)
(0.0966396 0 -0.000716525)
(0.0976277 0 -0.000741613)
(0.0975341 0 -0.000756821)
(0.0964409 0 -0.000760747)
(0.0944221 0 -0.000751662)
(0.0915466 0 -0.00072751)
(0.0878794 0 -0.000685906)
(0.0834843 0 -0.000624147)
(0.0784255 0 -0.000539131)
(0.0727693 0 -0.000427306)
(0.0665866 0 -0.000284721)
(0.0599564 0 -0.000107086)
(0.0529694 0 0.000110145)
(0.045732 0 0.000371627)
(0.0383739 0 0.000681835)
(0.0310561 0 0.00104463)
(0.0239899 0 0.00146239)
(0.0174782 0 0.00193375)
(0.0119816 0 0.00244427)
(0.00829775 0 0.00293317)
(0.0032379 0 0.00356862)
(0 0 0)
(0.0188738 0 -0.000233248)
(0.0356985 0 -0.000444235)
(0.050002 0 -0.000629789)
(0.0620182 0 -0.000793881)
(0.0719774 0 -0.000939538)
(0.0800835 0 -0.00106905)
(0.0865088 0 -0.00118388)
(0.0914039 0 -0.00128395)
(0.0949089 0 -0.00136866)
(0.0971466 0 -0.00143751)
(0.0982215 0 -0.00148905)
(0.0982264 0 -0.00152118)
(0.0972449 0 -0.00153117)
(0.0953526 0 -0.00151568)
(0.0926202 0 -0.00147068)
(0.0891148 0 -0.00139155)
(0.0849027 0 -0.00127309)
(0.0800515 0 -0.00110938)
(0.0746304 0 -0.000893565)
(0.0687145 0 -0.000618123)
(0.0623874 0 -0.000274951)
(0.0557461 0 0.000144394)
(0.0489057 0 0.000648332)
(0.0420077 0 0.00124443)
(0.0352267 0 0.00193822)
(0.0287806 0 0.00273149)
(0.0229756 0 0.0036167)
(0.0183149 0 0.00455768)
(0.0156834 0 0.00542443)
(0.0114154 0 0.00657644)
(0 0 0)
(0.0189411 0 -0.000350249)
(0.0358322 0 -0.000667184)
(0.0502012 0 -0.000946156)
(0.0622834 0 -0.00119306)
(0.0723136 0 -0.0014124)
(0.0804991 0 -0.00160765)
(0.0870125 0 -0.00178034)
(0.092006 0 -0.00193116)
(0.0956226 0 -0.00206008)
(0.0979867 0 -0.00216585)
(0.099205 0 -0.00224637)
(0.0993726 0 -0.00229866)
(0.0985754 0 -0.00231881)
(0.096892 0 -0.00230205)
(0.0943958 0 -0.00224264)
(0.0911568 0 -0.00213393)
(0.0872462 0 -0.00196875)
(0.0827367 0 -0.0017389)
(0.0777026 0 -0.00143481)
(0.0722247 0 -0.00104611)
(0.066394 0 -0.000561914)
(0.0603167 0 2.87987e-05)
(0.0541191 0 0.000736581)
(0.0479644 0 0.00156968)
(0.0420552 0 0.00253158)
(0.0366345 0 0.00361745)
(0.0320082 0 0.0048056)
(0.028663 0 0.00603104)
(0.0275905 0 0.00708768)
(0.0246369 0 0.00853486)
(0 0 0)
(0.0190348 0 -0.000467282)
(0.0360185 0 -0.000890277)
(0.0504784 0 -0.00126258)
(0.0626507 0 -0.00159221)
(0.0727782 0 -0.00188561)
(0.0810725 0 -0.00214731)
(0.0877078 0 -0.00237967)
(0.0928394 0 -0.00258358)
(0.0966111 0 -0.00275896)
(0.0991503 0 -0.00290451)
(0.100567 0 -0.00301768)
(0.100959 0 -0.0030948)
(0.100416 0 -0.00313106)
(0.0990215 0 -0.00312053)
(0.0968518 0 -0.00305611)
(0.0939803 0 -0.00292937)
(0.090485 0 -0.00273193)
(0.0864471 0 -0.0024543)
(0.0819472 0 -0.00208481)
(0.077074 0 -0.0016114)
(0.0719282 0 -0.00102181)
(0.0666291 0 -0.00030447)
(0.0613151 0 0.00055118)
(0.0561625 0 0.00155168)
(0.0514049 0 0.00269364)
(0.0473383 0 0.00395722)
(0.0443061 0 0.00529623)
(0.0427268 0 0.00661609)
(0.0435999 0 0.00763966)
(0.0422073 0 0.00912099)
(0 0 0)
(0.0191536 0 -0.000584278)
(0.0362521 0 -0.00111334)
(0.0508241 0 -0.00157878)
(0.0631127 0 -0.0019912)
(0.0733664 0 -0.00235925)
(0.0818001 0 -0.00268841)
(0.0885905 0 -0.00298183)
(0.0938946 0 -0.00324072)
(0.0978607 0 -0.00346514)
(0.10062 0 -0.00365393)
(0.102286 0 -0.0038043)
(0.102961 0 -0.00391213)
(0.102739 0 -0.00397202)
(0.101707 0 -0.00397731)
(0.0999498 0 -0.00392014)
(0.0975447 0 -0.00379113)
(0.0945756 0 -0.00358082)
(0.0911324 0 -0.00327885)
(0.0873053 0 -0.00287293)
(0.0831933 0 -0.00235066)
(0.0789078 0 -0.00169991)
(0.0745866 0 -0.000910841)
(0.0703921 0 2.31302e-05)
(0.0665045 0 0.00110352)
(0.0631637 0 0.00231818)
(0.0607103 0 0.00362779)
(0.0595621 0 0.00495087)
(0.0601138 0 0.00616074)
(0.063182 0 0.00693686)
(0.0633698 0 0.00823686)
(0 0 0)
(0.0192964 0 -0.000700824)
(0.0365305 0 -0.00133572)
(0.0512351 0 -0.00189466)
(0.0636654 0 -0.00239069)
(0.074073 0 -0.0028344)
(0.0826735 0 -0.00323226)
(0.089648 0 -0.00358778)
(0.0951586 0 -0.00390333)
(0.0993581 0 -0.00417992)
(0.102381 0 -0.00441609)
(0.104344 0 -0.00460903)
(0.105356 0 -0.00475454)
(0.105516 0 -0.00484696)
(0.104917 0 -0.00487938)
(0.10365 0 -0.00484373)
(0.101802 0 -0.00473078)
(0.0994629 0 -0.00453037)
(0.0967299 0 -0.00423169)
(0.0937049 0 -0.00382327)
(0.090501 0 -0.00329428)
(0.0872422 0 -0.00263432)
(0.0840745 0 -0.00183568)
(0.0811906 0 -0.000899481)
(0.0788033 0 0.000164114)
(0.0771483 0 0.001332)
(0.0765501 0 0.0025489)
(0.0774826 0 0.00369686)
(0.0803743 0 0.00460921)
(0.0857366 0 0.00495951)
(0.0874272 0 0.0059408)
(0 0 0)
(0.019462 0 -0.000816783)
(0.0368547 0 -0.00155698)
(0.0517127 0 -0.00220934)
(0.0643051 0 -0.00278946)
(0.0748892 0 -0.00330958)
(0.0836813 0 -0.00377744)
(0.0908686 0 -0.00419748)
(0.0966196 0 -0.00457302)
(0.101089 0 -0.00490556)
(0.104415 0 -0.00519385)
(0.106721 0 -0.00543549)
(0.10812 0 -0.00562656)
(0.108718 0 -0.0057615)
(0.108614 0 -0.00583359)
(0.107908 0 -0.00583512)
(0.106697 0 -0.00575772)
(0.10508 0 -0.00559164)
(0.10316 0 -0.00532654)
(0.101051 0 -0.00495263)
(0.0988872 0 -0.00446272)
(0.0968136 0 -0.00385126)
(0.0949768 0 -0.00311355)
(0.0935719 0 -0.00225616)
(0.0928574 0 -0.00130497)
(0.0931011 0 -0.000302521)
(0.0945756 0 0.000684246)
(0.0977373 0 0.00151253)
(0.103019 0 0.00197828)
(0.110668 0 0.00177408)
(0.113815 0 0.00234743)
(0 0 0)
(0.0196451 0 -0.000932116)
(0.0372146 0 -0.00177705)
(0.0522482 0 -0.00252261)
(0.0650248 0 -0.00318711)
(0.0758072 0 -0.00378444)
(0.0848157 0 -0.00432376)
(0.0922435 0 -0.00481095)
(0.0982642 0 -0.00524987)
(0.103036 0 -0.00564231)
(0.1067 0 -0.00598772)
(0.109388 0 -0.00628455)
(0.111219 0 -0.00652958)
(0.112305 0 -0.00671768)
(0.112752 0 -0.00684273)
(0.112668 0 -0.00689782)
(0.112164 0 -0.00687686)
(0.111349 0 -0.00677129)
(0.110333 0 -0.00657185)
(0.109245 0 -0.00627233)
(0.108234 0 -0.00586933)
(0.107463 0 -0.00536288)
(0.107108 0 -0.00475785)
(0.107362 0 -0.00406702)
(0.108474 0 -0.00332452)
(0.110758 0 -0.00259602)
(0.114486 0 -0.00196765)
(0.119992 0 -0.00158581)
(0.127636 0 -0.00167375)
(0.137502 0 -0.00251169)
(0.14207 0 -0.00238974)
(0 0 0)
(0.0198437 0 -0.00104639)
(0.037607 0 -0.00199567)
(0.052837 0 -0.0028347)
(0.0658187 0 -0.00358406)
(0.07682 0 -0.00425955)
(0.0860671 0 -0.00487191)
(0.0937594 0 -0.00542834)
(0.100075 0 -0.00593355)
(0.105176 0 -0.0063899)
(0.10921 0 -0.00679745)
(0.112314 0 -0.00715604)
(0.114616 0 -0.00746371)
(0.116232 0 -0.00771585)
(0.117277 0 -0.00790751)
(0.117869 0 -0.00803375)
(0.118132 0 -0.00809036)
(0.11818 0 -0.00807071)
(0.118137 0 -0.00796858)
(0.118156 0 -0.00778348)
(0.118395 0 -0.00751634)
(0.119023 0 -0.00717181)
(0.120246 0 -0.00676514)
(0.122291 0 -0.00632354)
(0.125388 0 -0.00588771)
(0.12983 0 -0.00553331)
(0.135931 0 -0.0053719)
(0.143869 0 -0.00554221)
(0.153864 0 -0.00626146)
(0.165838 0 -0.00777029)
(0.171775 0 -0.00812753)
(0 0 0)
(0.0200602 0 -0.00115959)
(0.0380352 0 -0.00221248)
(0.0534756 0 -0.00314445)
(0.0666769 0 -0.00397862)
(0.0779144 0 -0.00473289)
(0.0874191 0 -0.00541952)
(0.0953959 0 -0.00604708)
(0.102028 0 -0.00662131)
(0.107483 0 -0.00714545)
(0.111913 0 -0.00762082)
(0.115464 0 -0.00804851)
(0.11827 0 -0.00842749)
(0.12045 0 -0.00875438)
(0.122129 0 -0.00902579)
(0.123442 0 -0.00924046)
(0.124515 0 -0.0093955)
(0.125472 0 -0.00948635)
(0.126456 0 -0.00951259)
(0.127633 0 -0.00947808)
(0.129178 0 -0.00939077)
(0.131286 0 -0.00926455)
(0.13416 0 -0.00912002)
(0.138058 0 -0.00899814)
(0.143241 0 -0.00895592)
(0.149946 0 -0.00906908)
(0.158469 0 -0.00946086)
(0.168911 0 -0.0102672)
(0.181295 0 -0.0116746)
(0.195244 0 -0.0138529)
(0.202531 0 -0.0147061)
(0 0 0)
(0.0202887 0 -0.00127147)
(0.0384871 0 -0.00242671)
(0.0541532 0 -0.00345092)
(0.0675905 0 -0.00436991)
(0.0790797 0 -0.00520343)
(0.0888581 0 -0.0059654)
(0.0971364 0 -0.00666584)
(0.104104 0 -0.00731169)
(0.109931 0 -0.00790746)
(0.114781 0 -0.00845616)
(0.118804 0 -0.00895979)
(0.122135 0 -0.00941817)
(0.124905 0 -0.00982998)
(0.127248 0 -0.0101942)
(0.129306 0 -0.0105124)
(0.131216 0 -0.010784)
(0.133112 0 -0.0110086)
(0.135159 0 -0.0111924)
(0.137528 0 -0.0113435)
(0.140405 0 -0.0114753)
(0.144016 0 -0.0116137)
(0.148587 0 -0.0117907)
(0.154366 0 -0.0120524)
(0.161641 0 -0.0124711)
(0.170651 0 -0.0131313)
(0.181635 0 -0.0141518)
(0.194635 0 -0.0156579)
(0.209436 0 -0.0177825)
(0.225234 0 -0.0205933)
(0.234008 0 -0.0219126)
(0 0 0)
(0.0205259 0 -0.00138151)
(0.038958 0 -0.00263793)
(0.0548644 0 -0.00375403)
(0.0685525 0 -0.0047579)
(0.080307 0 -0.00567113)
(0.0903728 0 -0.00650946)
(0.0989667 0 -0.00728442)
(0.106283 0 -0.00800437)
(0.1125 0 -0.00867516)
(0.117784 0 -0.00930143)
(0.122293 0 -0.0098865)
(0.126167 0 -0.0104315)
(0.129543 0 -0.0109373)
(0.132566 0 -0.0114063)
(0.135382 0 -0.0118411)
(0.138137 0 -0.0122452)
(0.140984 0 -0.0126241)
(0.144097 0 -0.0129888)
(0.147665 0 -0.0133547)
(0.151881 0 -0.0137418)
(0.156974 0 -0.0141823)
(0.163215 0 -0.014725)
(0.170847 0 -0.0154229)
(0.180157 0 -0.0163562)
(0.191426 0 -0.0176236)
(0.204846 0 -0.0193348)
(0.220385 0 -0.0215866)
(0.237584 0 -0.0244354)
(0.255159 0 -0.0278257)
(0.265983 0 -0.0295761)
(0 0 0)
(0.0207736 0 -0.00148966)
(0.0394504 0 -0.00284598)
(0.0556062 0 -0.00405317)
(0.0695542 0 -0.00514151)
(0.0815843 0 -0.00613459)
(0.091948 0 -0.00704998)
(0.100868 0 -0.00790079)
(0.108545 0 -0.00869684)
(0.11516 0 -0.00944549)
(0.120889 0 -0.0101531)
(0.125893 0 -0.0108243)
(0.130315 0 -0.0114618)
(0.134302 0 -0.0120692)
(0.138007 0 -0.0126516)
(0.141579 0 -0.0132139)
(0.145174 0 -0.0137639)
(0.148966 0 -0.0143142)
(0.153128 0 -0.0148787)
(0.157853 0 -0.0154787)
(0.163362 0 -0.0161452)
(0.169881 0 -0.0169164)
(0.177689 0 -0.0178509)
(0.18706 0 -0.0190183)
(0.198271 0 -0.0205033)
(0.211618 0 -0.0224141)
(0.227265 0 -0.0248509)
(0.245135 0 -0.0278776)
(0.264589 0 -0.0314587)
(0.283923 0 -0.0354033)
(0.2983 0 -0.0375912)
(0 0 0)
(0.0210298 0 -0.00159581)
(0.0399594 0 -0.00305039)
(0.0563717 0 -0.00434744)
(0.0705866 0 -0.00551954)
(0.0828998 0 -0.00659231)
(0.0935687 0 -0.00758509)
(0.102822 0 -0.00851261)
(0.110865 0 -0.00938625)
(0.117885 0 -0.0102149)
(0.124062 0 -0.0110068)
(0.129562 0 -0.011768)
(0.13453 0 -0.0125024)
(0.139123 0 -0.0132169)
(0.143502 0 -0.01392)
(0.147818 0 -0.014619)
(0.152234 0 -0.0153248)
(0.156931 0 -0.0160554)
(0.162095 0 -0.0168318)
(0.167912 0 -0.0176781)
(0.174614 0 -0.0186339)
(0.182444 0 -0.019749)
(0.191657 0 -0.0210851)
(0.202544 0 -0.0227261)
(0.215366 0 -0.0247638)
(0.230395 0 -0.0273126)
(0.247754 0 -0.0304684)
(0.267345 0 -0.0342812)
(0.288427 0 -0.0386279)
(0.309359 0 -0.0432196)
(0.330765 0 -0.0458499)
(0 0 0)
(0.0212943 0 -0.00170054)
(0.0404848 0 -0.00325225)
(0.0571607 0 -0.00463842)
(0.0716498 0 -0.00589399)
(0.0842533 0 -0.00704664)
(0.0952344 0 -0.00811743)
(0.104827 0 -0.00912273)
(0.113242 0 -0.0100756)
(0.120671 0 -0.0109864)
(0.1273 0 -0.0118656)
(0.133295 0 -0.0127204)
(0.138808 0 -0.0135564)
(0.144002 0 -0.0143838)
(0.149038 0 -0.0152126)
(0.154078 0 -0.0160546)
(0.159286 0 -0.0169243)
(0.164836 0 -0.0178408)
(0.170926 0 -0.0188325)
(0.177752 0 -0.0199314)
(0.185526 0 -0.0211785)
(0.19449 0 -0.0226325)
(0.204878 0 -0.0243589)
(0.216946 0 -0.0264456)
(0.230926 0 -0.0289934)
(0.247005 0 -0.0321161)
(0.265188 0 -0.0359146)
(0.285233 0 -0.0404718)
(0.306131 0 -0.0457385)
(0.326373 0 -0.0518344)
(0.363291 0 -0.0542573)
(0 0 0)
(0.00867799 0 0)
(0.0182611 0 0)
(0.0341791 0 0)
(0.0552112 0 0)
(0.0791699 0 0)
(0.103663 0 0)
(0.126723 0 0)
(0.14711 0 0)
(0.164255 0 0)
(0.178122 0 0)
(0.188932 0 0)
(0.196944 0 0)
(0.202433 0 0)
(0.205647 0 0)
(0.206784 0 0)
(0.205987 0 0)
(0.203358 0 0)
(0.198961 0 0)
(0.192824 0 0)
(0.184946 0 0)
(0.175312 0 0)
(0.163888 0 0)
(0.150608 0 0)
(0.135414 0 0)
(0.118241 0 0)
(0.0989625 0 0)
(0.0775104 0 0)
(0.0538608 0 0)
(0.0278715 0 0)
(0 0 0)
(0.00294971 0 -0.004176)
(0.0112182 0 -0.00463322)
(0.0210263 0 -0.00527205)
(0.037061 0 -0.00601706)
(0.0580346 0 -0.00674403)
(0.0817981 0 -0.00735031)
(0.106005 0 -0.00777436)
(0.128731 0 -0.00799712)
(0.148784 0 -0.0080258)
(0.165627 0 -0.00788889)
(0.17924 0 -0.0076464)
(0.189839 0 -0.00732864)
(0.197677 0 -0.00696043)
(0.203024 0 -0.00656189)
(0.206125 0 -0.00614408)
(0.207172 0 -0.00573376)
(0.206305 0 -0.00532728)
(0.203619 0 -0.00491517)
(0.199176 0 -0.00451559)
(0.193004 0 -0.00412794)
(0.185098 0 -0.00374863)
(0.175439 0 -0.00337984)
(0.163994 0 -0.00301716)
(0.150697 0 -0.00266469)
(0.135495 0 -0.00231303)
(0.118311 0 -0.00195834)
(0.0990216 0 -0.00160009)
(0.077561 0 -0.00123026)
(0.0538984 0 -0.000844148)
(0.0278928 0 -0.000434621)
(0 0 0)
(0.0102618 0 -0.00857289)
(0.0186997 0 -0.0094468)
(0.0291858 0 -0.0107137)
(0.0455309 0 -0.0121569)
(0.0663288 0 -0.013534)
(0.0895248 0 -0.0146667)
(0.112879 0 -0.0154329)
(0.134625 0 -0.0158094)
(0.153697 0 -0.015821)
(0.169656 0 -0.0155306)
(0.182528 0 -0.0150438)
(0.192501 0 -0.0144103)
(0.199824 0 -0.013677)
(0.204757 0 -0.0128886)
(0.20753 0 -0.012075)
(0.208315 0 -0.0112639)
(0.207237 0 -0.0104555)
(0.204383 0 -0.00965448)
(0.199806 0 -0.00887398)
(0.193527 0 -0.00811539)
(0.185536 0 -0.00737707)
(0.175812 0 -0.0066551)
(0.164306 0 -0.00594452)
(0.150961 0 -0.00524829)
(0.135724 0 -0.00455636)
(0.118505 0 -0.00386229)
(0.0991876 0 -0.00315791)
(0.0777035 0 -0.00242987)
(0.0540006 0 -0.0016683)
(0.027945 0 -0.000859147)
(0 0 0)
(0.0222282 0 -0.0133375)
(0.0307941 0 -0.0145913)
(0.0422716 0 -0.0164542)
(0.0589754 0 -0.0185042)
(0.079437 0 -0.0204166)
(0.1017 0 -0.0219446)
(0.123686 0 -0.0229263)
(0.143886 0 -0.0233516)
(0.16143 0 -0.023274)
(0.176025 0 -0.0228006)
(0.187729 0 -0.022055)
(0.196715 0 -0.0211034)
(0.203232 0 -0.0200196)
(0.20752 0 -0.0188671)
(0.209775 0 -0.0176844)
(0.210144 0 -0.0164973)
(0.208733 0 -0.0153151)
(0.205613 0 -0.0141522)
(0.200821 0 -0.0130156)
(0.194369 0 -0.0119088)
(0.186241 0 -0.0108306)
(0.176408 0 -0.00977613)
(0.164813 0 -0.0087419)
(0.151391 0 -0.00772172)
(0.136085 0 -0.00670774)
(0.118805 0 -0.00569165)
(0.0994419 0 -0.00465739)
(0.0779162 0 -0.00358756)
(0.0541526 0 -0.00246574)
(0.0280235 0 -0.00127031)
(0 0 0)
(0.0383016 0 -0.0185732)
(0.0470454 0 -0.02017)
(0.0596216 0 -0.0225735)
(0.0766285 0 -0.0251202)
(0.0965517 0 -0.0274223)
(0.117506 0 -0.0291804)
(0.137679 0 -0.030232)
(0.155871 0 -0.0305897)
(0.171475 0 -0.0303563)
(0.184326 0 -0.0296581)
(0.194513 0 -0.0286288)
(0.202232 0 -0.0273667)
(0.207717 0 -0.0259566)
(0.211169 0 -0.0244678)
(0.212748 0 -0.0229423)
(0.212572 0 -0.0214101)
(0.210722 0 -0.0198879)
(0.20725 0 -0.01839)
(0.202174 0 -0.0169232)
(0.195494 0 -0.0154931)
(0.187183 0 -0.0140988)
(0.177198 0 -0.012736)
(0.165481 0 -0.0114017)
(0.151957 0 -0.0100826)
(0.136558 0 -0.00876829)
(0.119193 0 -0.00744666)
(0.0997622 0 -0.00609825)
(0.0781727 0 -0.0047018)
(0.0543355 0 -0.00323442)
(0.0281202 0 -0.001667)
(0 0 0)
(0.0579197 0 -0.0243349)
(0.066843 0 -0.0262225)
(0.080483 0 -0.0290973)
(0.0976733 0 -0.0320249)
(0.1168 0 -0.0345493)
(0.136082 0 -0.036354)
(0.154078 0 -0.0373239)
(0.169923 0 -0.0375036)
(0.183279 0 -0.0370431)
(0.194098 0 -0.0360785)
(0.202527 0 -0.0347515)
(0.208784 0 -0.033188)
(0.213065 0 -0.0314715)
(0.215534 0 -0.0296703)
(0.216314 0 -0.02783)
(0.215492 0 -0.0259836)
(0.213121 0 -0.0241504)
(0.209228 0 -0.0223471)
(0.203814 0 -0.0205815)
(0.196859 0 -0.0188585)
(0.188325 0 -0.0171797)
(0.178154 0 -0.0155374)
(0.166282 0 -0.0139254)
(0.15263 0 -0.0123292)
(0.137118 0 -0.0107345)
(0.119654 0 -0.00912469)
(0.100136 0 -0.00747806)
(0.0784656 0 -0.0057697)
(0.0545422 0 -0.0039714)
(0.0282297 0 -0.00204748)
(0 0 0)
(0.0804966 0 -0.030647)
(0.0895901 0 -0.0327603)
(0.104166 0 -0.0360209)
(0.121319 0 -0.0391862)
(0.139325 0 -0.0417497)
(0.156601 0 -0.0434208)
(0.172127 0 -0.0441614)
(0.185377 0 -0.0440597)
(0.196254 0 -0.0432941)
(0.204863 0 -0.0420283)
(0.211399 0 -0.040404)
(0.216068 0 -0.038547)
(0.219035 0 -0.0365413)
(0.220424 0 -0.0344532)
(0.220323 0 -0.0323271)
(0.218786 0 -0.0301985)
(0.215836 0 -0.028089)
(0.211475 0 -0.0260149)
(0.205682 0 -0.023987)
(0.198416 0 -0.0220063)
(0.189624 0 -0.0200729)
(0.179241 0 -0.0181778)
(0.16719 0 -0.0163109)
(0.153388 0 -0.0144575)
(0.137747 0 -0.0126005)
(0.12017 0 -0.01072)
(0.100551 0 -0.00879177)
(0.0787858 0 -0.00678735)
(0.0547657 0 -0.004674)
(0.0283474 0 -0.00241029)
(0 0 0)
(0.105528 0 -0.0374991)
(0.114773 0 -0.0397733)
(0.130075 0 -0.0433134)
(0.146856 0 -0.046541)
(0.163349 0 -0.0489415)
(0.178282 0 -0.0502993)
(0.191075 0 -0.0506679)
(0.201552 0 -0.0501913)
(0.209837 0 -0.0490665)
(0.216163 0 -0.0474761)
(0.220749 0 -0.0455561)
(0.223776 0 -0.0434197)
(0.225377 0 -0.0411463)
(0.225642 0 -0.0387995)
(0.224622 0 -0.0364226)
(0.222336 0 -0.0340491)
(0.21878 0 -0.0317037)
(0.213922 0 -0.0293985)