/*--------------------------------*- C++ -*----------------------------------*\
| =========                 |                                                 |
| \\      /  F ield         | OpenFOAM: The Open Source CFD Toolbox           |
|  \\    /   O peration     | Version:  4.1                                   |
|   \\  /    A nd           | Web:      www.OpenFOAM.org                      |
|    \\/     M anipulation  |                                                 |
\*---------------------------------------------------------------------------*/
FoamFile
{
    version     2.0;
    format      ascii;
    class       surfaceVectorField;
    location    "4.8";
    object      Uf;
}
// * * * * * * * * * * * * * * * * * * * * * * * * * * * * * * * * * * * * * //

dimensions      [0 1 -1 0 0 0 0];

internalField   nonuniform List<vector> 
5457
(
(9.91556 0 0.0228439)
(9.96587 -1.98728e-19 0.0362922)
(9.82174 0 0.0284804)
(9.92963 1.19567e-20 0.0416306)
(9.71723 0 0.0330523)
(9.86783 -1.47247e-19 0.0481192)
(9.59915 5.38586e-20 0.0378879)
(9.78489 5.03933e-20 0.056387)
(9.46741 1.07601e-19 0.0429342)
(9.6867 8.67307e-22 0.0652162)
(9.32214 5.3711e-20 0.0482185)
(9.57472 1.0824e-19 0.0745154)
(9.16305 0 0.0538692)
(9.44837 0 0.0845141)
(8.98955 0 0.060013)
(9.30683 5.71578e-20 0.0954166)
(8.80088 0 0.0667668)
(9.14938 0 0.107395)
(8.59607 0 0.0742489)
(8.97525 0 0.120634)
(8.374 1.4153e-19 0.0825839)
(8.78348 0 0.135323)
(8.13341 -9.30875e-21 0.0919065)
(8.57294 1.39165e-19 0.151666)
(7.87291 -1.36441e-19 0.102364)
(8.34231 -1.52277e-19 0.169884)
(7.59097 1.67625e-19 0.114119)
(8.09017 -5.78573e-19 0.190209)
(7.28598 -1.13218e-20 0.127343)
(7.81496 7.9395e-19 0.212889)
(6.95622 -2.08333e-19 0.142212)
(7.51502 -1.66214e-19 0.238167)
(6.59999 -4.34162e-20 0.158906)
(7.1886 -8.52177e-20 0.266264)
(6.21559 4.05957e-19 0.177596)
(6.83395 8.64583e-20 0.29737)
(5.80147 -3.15115e-20 0.198438)
(6.44934 3.99561e-19 0.331619)
(5.35629 -9.86204e-19 0.22154)
(6.03319 -2.25982e-19 0.369038)
(4.87909 -7.24739e-20 0.246937)
(5.58412 -4.63837e-19 0.409483)
(4.36948 1.26525e-18 0.274554)
(5.10116 4.7782e-19 0.452568)
(3.82784 -6.31063e-19 0.304152)
(4.58388 1.01275e-18 0.497575)
(3.25561 -1.06403e-18 0.335239)
(4.03264 -1.14061e-18 0.543333)
(2.65561 2.98094e-19 0.366878)
(3.44883 3.92771e-20 0.588001)
(2.03262 -2.16045e-18 0.397322)
(2.83517 -5.09364e-18 0.628676)
(1.39426 9.61349e-19 0.422562)
(2.19609 6.34803e-18 0.660664)
(0.753317 3.09076e-18 0.41347)
(1.54035 -2.1238e-18 0.674879)
(0.141983 0 0.0178173)
(0.83894 -7.01327e-19 0.632308)
(0.314363 0 0.161539)
(10.0033 -1.83027e-19 0.0446046)
(9.99588 -1.19048e-20 0.0348513)
(9.9756 -1.38401e-19 0.0579004)
(9.98768 2.02574e-19 0.0539082)
(9.93039 -9.31026e-20 0.0694985)
(9.95758 -9.84221e-20 0.0689041)
(9.86939 -3.51866e-21 0.0821306)
(9.90668 1.00591e-19 0.0854858)
(9.79242 3.49066e-21 0.0956754)
(9.83964 -1.55746e-19 0.10329)
(9.69945 5.25783e-20 0.11015)
(9.7581 5.32144e-20 0.122172)
(9.59029 5.81777e-20 0.12582)
(9.66174 0 0.142479)
(9.46447 5.61566e-20 0.14297)
(9.54987 -2.27307e-19 0.16459)
(9.32134 0 0.161872)
(9.42189 2.33208e-19 0.188853)
(9.16003 0 0.182811)
(9.27711 -2.43652e-19 0.21564)
(8.97951 0 0.20608)
(9.11474 2.4959e-19 0.245337)
(8.77859 -8.74714e-21 0.231996)
(8.93374 3.24872e-20 0.278356)
(8.55593 -6.01568e-19 0.2609)
(8.73293 -1.50303e-22 0.315147)
(8.31004 7.06024e-20 0.293154)
(8.51099 -5.8342e-19 0.356192)
(8.03933 6.23231e-19 0.32913)
(8.26647 5.97152e-19 0.402006)
(7.74205 -4.17255e-20 0.369181)
(7.99779 7.60947e-20 0.453112)
(7.41642 4.74681e-20 0.413627)
(7.70324 1.24307e-18 0.509998)
(7.06062 8.50851e-20 0.462724)
(7.38101 2.36317e-20 0.573106)
(6.67286 1.95277e-19 0.516614)
(7.02927 -1.38502e-18 0.64279)
(6.25148 2.92918e-19 0.575242)
(6.64619 8.65636e-21 0.719215)
(5.79508 1.00521e-19 0.638252)
(6.22997 1.02022e-19 0.802238)
(5.30265 2.33597e-19 0.704875)
(5.77898 -3.26633e-18 0.891263)
(4.77375 4.76311e-19 0.773771)
(5.29183 3.62747e-18 0.985061)
(4.20873 -2.3165e-20 0.842771)
(4.76749 -3.84428e-18 1.08152)
(3.60901 -5.40353e-18 0.908371)
(4.2053 3.54682e-18 1.17721)
(2.97765 3.49072e-18 0.96466)
(3.60507 -4.576e-18 1.26645)
(2.32052 3.23075e-18 1.00024)
(2.96645 1.77249e-17 1.33926)
(1.64975 -5.91362e-18 0.987632)
(2.29055 -2.37637e-17 1.3746)
(0.969683 -6.84008e-19 0.868758)
(1.52537 2.11561e-17 1.33021)
(0.923927 -1.17149e-17 1.12894)
(9.99621 3.77592e-19 0.047282)
(9.99366 1.86916e-19 0.0364932)
(9.97211 2.36729e-19 0.0680869)
(9.98295 3.48421e-22 0.0646267)
(9.93058 9.90717e-20 0.0876163)
(9.95392 1.46508e-19 0.0880621)
(9.87452 -5.64398e-20 0.108605)
(9.90601 -1.50119e-19 0.11231)
(9.80415 -1.02196e-19 0.131184)
(9.84273 -2.06776e-19 0.138187)
(9.71935 -3.37626e-22 0.155451)
(9.76574 -2.12014e-19 0.165746)
(9.61992 -2.89549e-19 0.181768)
(9.67499 -1.10061e-19 0.195385)
(9.50554 -4.21845e-20 0.210554)
(9.56995 5.19193e-20 0.227601)
(9.37567 -1.86834e-20 0.242246)
(9.45007 3.49216e-19 0.262896)
(9.2296 1.4391e-20 0.277307)
(9.31485 -2.43716e-19 0.301814)
(9.06645 2.78436e-19 0.316225)
(9.16365 2.49662e-19 0.344915)
(8.88522 4.05394e-20 0.359529)
(8.99566 5.17012e-19 0.392799)
(8.68474 8.31079e-21 0.407796)
(8.80991 -5.20395e-19 0.446125)
(8.46371 -3.72082e-20 0.461645)
(8.60533 1.12024e-18 0.505606)
(8.22071 4.1343e-20 0.521728)
(8.38073 -1.13976e-18 0.572016)
(7.95413 1.37989e-18 0.588685)
(8.13482 1.4676e-21 0.646164)
(7.66227 1.20004e-18 0.663117)
(7.86613 1.36222e-18 0.728835)
(7.3433 -1.46855e-18 0.74555)
(7.57303 -2.50748e-18 0.820781)
(6.99531 -1.5501e-18 0.836357)
(7.25383 1.29243e-18 0.922672)
(6.61632 -1.80695e-19 0.935625)
(6.90669 -1.83453e-19 1.03497)
(6.20431 -3.31298e-18 1.04299)
(6.52962 0 1.15779)
(5.75731 2.19997e-19 1.15746)
(6.12042 -3.26558e-18 1.29065)
(5.27342 -7.86328e-19 1.27714)
(5.67675 3.39538e-18 1.4323)
(4.75076 -1.9425e-19 1.39894)
(5.19588 -3.66036e-18 1.5804)
(4.1873 4.28607e-18 1.51782)
(4.67455 2.91852e-18 1.73103)
(3.58041 9.81454e-18 1.62568)
(4.10825 8.04924e-18 1.87786)
(2.9247 -9.37907e-18 1.70952)
(3.48941 3.42832e-19 2.01114)
(2.20324 3.1184e-18 1.74989)
(2.80871 -2.69318e-17 2.11626)
(1.35847 9.3574e-18 1.73814)
(2.00494 1.15978e-17 2.18417)
(1.2064 1.02367e-17 2.22867)
(9.99185 -1.93629e-19 0.0541845)
(9.99227 0 0.0400074)
(9.9678 -8.70288e-20 0.083797)
(9.97967 1.88455e-19 0.0753349)
(9.92708 -1.08375e-19 0.111915)
(9.95039 9.76564e-20 0.106861)
(9.87198 -3.01563e-19 0.141104)
(9.90343 -2.00365e-19 0.138696)
(9.8031 -3.16704e-19 0.172056)
(9.84152 3.06444e-19 0.17238)
(9.72038 -3.19943e-19 0.205134)
(9.76623 -2.12286e-19 0.208291)
(9.62369 2.34351e-19 0.240832)
(9.67767 -2.57492e-21 0.246885)
(9.51282 4.48624e-19 0.279717)
(9.57546 -2.23264e-19 0.288744)
(9.38737 1.13976e-19 0.322391)
(9.45909 -3.30748e-21 0.334505)
(9.24681 0 0.369487)
(9.32817 4.72281e-19 0.384846)
(9.09049 4.92746e-19 0.421672)
(9.18229 -4.92782e-19 0.440462)
(8.91766 -6.12311e-20 0.479672)
(9.02077 1.05155e-18 0.502109)
(8.72745 6.1868e-19 0.544274)
(8.84289 -5.61778e-19 0.57062)
(8.51889 -1.92061e-20 0.616331)
(8.64784 2.20441e-18 0.646887)
(8.29092 -1.16144e-18 0.696765)
(8.43473 -2.29093e-18 0.731887)
(8.04234 5.49565e-21 0.786518)
(8.20266 -7.46833e-20 0.826682)
(7.7718 -2.40692e-18 0.886511)
(7.95055 2.28559e-19 0.932347)
(7.47778 3.11513e-19 0.997616)
(7.67708 -2.6034e-18 1.04993)
(7.15866 2.63797e-18 1.12058)
(7.38092 2.67874e-18 1.18044)
(6.81257 0 1.25586)
(7.0605 3.38329e-19 1.32474)
(6.43736 0 1.40347)
(6.71403 3.51958e-19 1.48337)
(6.0305 0 1.56268)
(6.33917 7.32656e-19 1.65633)
(5.58898 4.30483e-19 1.73182)
(5.93299 6.17877e-18 1.84285)
(5.10887 -4.73232e-19 1.90796)
(5.49166 -5.94229e-18 2.04116)
(4.58466 6.71647e-18 2.08647)
(5.00997 -4.32941e-20 2.2482)
(4.00781 -1.43142e-18 2.26047)
(4.48016 8.38611e-18 2.45931)
(3.36403 -1.72895e-17 2.42087)
(3.88984 -2.2585e-17 2.6683)
(2.62703 -1.8503e-17 2.55697)
(3.22469 6.90488e-18 2.86839)
(1.76512 1.24814e-17 2.69284)
(2.44535 -2.6609e-17 3.05273)
(1.51236 3.73749e-17 3.31396)
(9.98956 3.85457e-19 0.0617632)
(9.99147 -4.16169e-19 0.0445055)
(9.96503 3.71425e-19 0.0987007)
(9.97784 4.81075e-20 0.086263)
(9.92503 0 0.134272)
(9.94848 -3.86429e-19 0.125339)
(9.87093 4.17179e-19 0.170862)
(9.90243 -1.97521e-19 0.164624)
(9.8034 4.01518e-19 0.2096)
(9.84196 -2.00662e-19 0.205926)
(9.72249 1.08942e-19 0.251067)
(9.76845 -5.50538e-22 0.249939)
(9.62812 -4.6416e-19 0.295843)
(9.68212 1.07556e-19 0.297203)
(9.52008 -6.71602e-19 0.344588)
(9.58265 -5.60065e-19 0.34839)
(9.39805 3.63187e-19 0.398012)
(9.46953 -1.19358e-19 0.404252)
(9.2616 -3.67682e-20 0.456859)
(9.3425 9.59917e-22 0.465561)
(9.11024 9.17187e-20 0.521922)
(9.20124 -1.32416e-19 0.533129)
(8.94337 5.24422e-19 0.594067)
(9.0452 6.29168e-19 0.607853)
(8.76031 1.06939e-18 0.674225)
(8.87379 -4.15423e-22 0.690701)
(8.56035 -1.40111e-19 0.763406)
(8.6864 2.15641e-18 0.782702)
(8.34273 -1.16873e-18 0.862724)
(8.48233 -3.35699e-18 0.884975)
(8.10663 1.53204e-19 0.973369)
(8.26099 1.13243e-18 0.998776)
(7.85105 -1.15273e-20 1.09654)
(8.02162 -2.37299e-18 1.12545)
(7.57485 -1.55304e-19 1.23342)
(7.76323 2.27005e-18 1.26632)
(7.27677 3.4329e-19 1.3851)
(7.48483 3.15046e-19 1.42269)
(6.95529 6.90544e-19 1.55252)
(7.18516 2.32404e-18 1.59583)
(6.60843 1.0896e-18 1.73626)
(6.86277 -3.0302e-18 1.78683)
(6.2335 6.97653e-18 1.93627)
(6.5155 -5.64841e-18 1.99642)
(5.82691 -3.23811e-19 2.15167)
(6.14022 6.11026e-18 2.22468)
(5.38365 -5.45573e-18 2.38058)
(5.73269 -3.34394e-19 2.47092)
(4.89629 1.70458e-18 2.62004)
(5.28688 6.07569e-20 2.73371)
(4.35337 -1.29053e-17 2.86594)
(4.79395 -7.63325e-19 3.01086)
(3.73836 1.5712e-18 3.11392)
(4.24034 -1.36794e-17 3.29926)
(3.02525 -1.052e-18 3.35451)
(3.60755 1.60799e-17 3.59724)
(2.21882 4.48172e-19 3.626)
(2.90643 -1.55259e-17 3.87267)
(1.86683 1.66424e-17 4.32653)
(9.98838 -7.45438e-19 0.0697387)
(9.99099 6.43856e-19 0.0495126)
(9.96355 -7.18371e-19 0.11346)
(9.97694 -1.89753e-19 0.0973259)
(9.92441 -5.80434e-19 0.156296)
(9.94784 -2.90161e-19 0.143438)
(9.87162 -8.15573e-19 0.200337)
(9.90286 -1.97454e-19 0.189947)
(9.80578 -5.9929e-19 0.246884)
(9.84406 -2.06079e-19 0.238664)
(9.72703 0 0.296671)
(9.7727 -4.16565e-19 0.290516)
(9.63532 0 0.350362)
(9.68901 4.2513e-19 0.34616)
(9.53045 0 0.408702)
(9.59267 4.40012e-19 0.406366)
(9.41215 -4.79674e-19 0.472493)
(9.48323 -6.73683e-19 0.471966)
(9.2801 -9.70473e-20 0.542581)
(9.36055 -2.40502e-19 0.543807)
(9.1339 4.17878e-19 0.619886)
(9.22434 4.8042e-19 0.622819)
(8.97304 9.38466e-20 0.705403)
(9.07415 -1.0499e-18 0.710026)
(8.79697 1.12139e-18 0.800189)
(8.90951 1.0403e-18 0.806509)
(8.60513 -1.14838e-18 0.90538)
(8.72993 1.07294e-18 0.913409)
(8.39697 -9.85783e-19 1.02223)
(8.53486 -2.16975e-18 1.03195)
(8.17191 -1.4476e-18 1.15215)
(8.32386 3.37334e-18 1.16355)
(7.92926 -2.29646e-20 1.2966)
(8.09641 -4.80979e-18 1.30975)
(7.66816 2.71328e-18 1.45702)
(7.85182 4.8176e-18 1.47218)
(7.38765 2.32448e-18 1.63487)
(7.58933 -2.42748e-18 1.6524)
(7.08653 -1.46722e-18 1.83154)
(7.30795 2.3047e-18 1.85203)
(6.76315 -9.80062e-18 2.0483)
(7.00647 -3.05517e-18 2.07277)
(6.41495 -6.37627e-18 2.28596)
(6.68316 -6.04685e-18 2.31617)
(6.0382 6.01679e-18 2.54481)
(6.33505 -6.53884e-20 2.58336)
(5.62763 5.18833e-18 2.82447)
(5.95797 6.02108e-18 2.875)
(5.17566 -2.40666e-18 3.12398)
(5.54592 -3.36852e-20 3.19134)
(4.67094 -1.61945e-18 3.4416)
(5.09061 -1.29917e-17 3.53229)
(4.09837 8.58677e-19 3.77598)
(4.5803 1.24059e-17 3.89618)
(3.43031 1.75828e-18 4.11261)
(3.98762 -3.37726e-19 4.28686)
(2.70013 1.90809e-18 4.49003)
(3.39731 2.83374e-19 4.62781)
(2.26468 1.46304e-17 5.2431)
(9.98784 1.18542e-18 0.0779102)
(9.99074 3.24882e-19 0.0547534)
(9.96304 2.36612e-19 0.12804)
(9.97665 1.41154e-19 0.108385)
(9.92488 9.46771e-20 0.177816)
(9.94811 9.64223e-20 0.1611)
(9.87363 4.12104e-19 0.22905)
(9.90441 3.92842e-19 0.214553)
(9.80982 -2.70058e-20 0.2831)
(9.84754 4.04607e-19 0.270437)
(9.73363 2.35324e-20 0.340845)
(9.77867 -4.16771e-19 0.329825)
(9.64503 8.65627e-19 0.403066)
(9.69801 4.25359e-19 0.393524)
(9.54383 -2.52766e-19 0.470598)
(9.60524 2.23679e-19 0.462401)
(9.42982 -4.27299e-19 0.544314)
(9.50003 -2.28541e-19 0.537337)
(9.30277 3.49162e-19 0.625153)
(9.38229 2.14853e-21 0.619252)
(9.16233 -1.01276e-18 0.714149)
(9.25174 1.19632e-19 0.709179)
(9.00809 -7.01453e-20 0.812413)
(9.10805 -1.11288e-18 0.80826)
(8.83962 9.92595e-19 0.921106)
(8.95085 8.84817e-19 0.917678)
(8.65648 1.06609e-21 1.04147)
(8.77976 -2.12454e-18 1.03867)
(8.45823 2.27583e-18 1.17486)
(8.59438 -2.4014e-20 1.17256)
(8.24445 -1.10323e-19 1.32287)
(8.39431 2.21713e-18 1.32088)
(8.01465 1.71067e-19 1.48718)
(8.17921 -6.39577e-20 1.48539)
(7.76822 -4.25486e-19 1.66951)
(7.94863 2.39034e-18 1.66794)
(7.50441 -2.38551e-18 1.87162)
(7.70201 -2.7454e-18 1.87037)
(7.22223 6.46472e-19 2.09539)
(7.43854 3.18124e-19 2.09468)
(6.92032 6.6289e-19 2.34278)
(7.15719 3.28524e-19 2.34311)
(6.59658 3.30961e-19 2.61556)
(6.85662 1.09186e-20 2.61803)
(6.24759 0 2.9152)
(6.53441 3.2655e-19 2.92161)
(5.8683 7.47939e-19 3.24292)
(6.18682 0 3.2559)
(5.4518 -1.06739e-17 3.59951)
(5.80839 7.42298e-19 3.62264)
(4.98836 1.0502e-18 3.98452)
(5.39174 -1.16921e-17 4.02322)
(4.46603 1.12142e-17 4.39803)
(4.92916 1.23637e-17 4.45555)
(3.85297 -1.80394e-18 4.818)
(4.37763 -8.2291e-19 4.93147)
(3.20026 1.35374e-17 5.27245)
(3.91185 -1.18929e-17 5.3174)
(2.69469 2.65225e-17 6.06578)
(9.98768 -7.22884e-19 0.0861092)
(9.99066 -7.81682e-19 0.0600602)
(9.96322 0 0.142331)
(9.97681 7.91046e-19 0.119302)
(9.92621 4.00244e-19 0.198703)
(9.94908 0 0.178245)
(9.87676 3.85549e-19 0.25684)
(9.90689 3.50598e-21 0.238327)
(9.81528 0 0.318096)
(9.85219 -3.98625e-19 0.301088)
(9.74199 0 0.383476)
(9.78614 0 0.367696)
(9.65689 -2.20398e-19 0.453879)
(9.70882 0 0.439095)
(9.55985 2.40252e-19 0.530213)
(9.62005 -1.58176e-21 0.516236)
(9.45071 2.05099e-19 0.613413)
(9.51959 1.10988e-18 0.600056)
(9.32926 -2.25711e-19 0.704497)
(9.40735 -1.12978e-18 0.691545)
(9.19524 0 0.804601)
(9.2831 2.31262e-19 0.791823)
(9.04834 -1.26078e-19 0.914939)
(9.14655 2.37298e-19 0.902131)
(8.88822 -2.28046e-18 1.03676)
(8.99752 -1.66559e-21 1.02374)
(8.71457 -2.11933e-18 1.17141)
(8.83569 -4.08166e-18 1.15797)
(8.52705 -5.04395e-20 1.32035)
(8.66083 2.02503e-18 1.30625)
(8.32533 2.23004e-18 1.48532)
(8.47256 -5.80897e-20 1.47025)
(8.10908 2.19297e-18 1.66822)
(8.27066 2.22507e-18 1.65188)
(7.87789 0 1.871)
(8.05494 -6.92293e-20 1.85321)
(7.63121 0 2.09576)
(7.82492 0 2.07634)
(7.36821 0 2.34483)
(7.57999 -4.70113e-18 2.32371)
(7.08775 -3.27128e-19 2.62083)
(7.31938 -4.03956e-20 2.59803)
(6.78818 8.99411e-21 2.92647)
(7.04201 9.45483e-18 2.90239)
(6.46678 3.24054e-19 3.26436)
(6.74605 -4.95826e-18 3.24002)
(6.11922 0 3.63701)
(6.42849 -1.0156e-17 3.61413)
(5.73939 -3.47552e-19 4.04667)
(6.08483 1.02702e-17 4.02776)
(5.31902 -3.45905e-19 4.49335)
(5.70808 -1.72077e-20 4.48338)
(4.84985 3.63664e-19 4.9774)
(5.29608 8.0101e-20 4.97696)
(4.29511 -1.08392e-17 5.46944)
(4.78343 4.58983e-20 5.53119)
(3.71037 3.44374e-18 5.98084)
(4.44203 2.71872e-19 5.94993)
(3.14631 1.83359e-18 6.80974)
(9.98783 7.60245e-19 0.0942021)
(9.99069 -9.12818e-20 0.0653023)
(9.96396 7.7583e-19 0.156235)
(9.97731 1.87885e-19 0.129963)
(9.92828 -3.96844e-19 0.218863)
(9.9506 -9.46839e-20 0.194798)
(9.88085 -7.88377e-19 0.283586)
(9.91012 1.92483e-19 0.261162)
(9.82199 -3.91591e-19 0.351735)
(9.85784 -1.99745e-19 0.33048)
(9.75191 0 0.424404)
(9.79483 -4.06684e-19 0.403972)
(9.67068 2.18906e-19 0.50259)
(9.72119 4.14035e-19 0.482685)
(9.57823 8.8698e-19 0.587274)
(9.63681 2.15314e-19 0.567637)
(9.47447 -2.61994e-19 0.679456)
(9.54152 1.09882e-18 0.659838)
(9.35921 -6.51135e-19 0.780231)
(9.43531 -1.79656e-18 0.760356)
(9.23224 4.68884e-19 0.890814)
(9.3179 9.12352e-19 0.870386)
(9.09334 3.5826e-19 1.0125)
(9.18915 2.87806e-21 0.991232)
(8.94231 -1.86444e-18 1.14663)
(9.04898 2.04962e-18 1.12424)
(8.77896 1.53695e-19 1.29462)
(8.8972 -3.91271e-18 1.27079)
(8.60306 1.9891e-18 1.45809)
(8.73367 2.05291e-18 1.43245)
(8.41435 -3.24795e-20 1.63889)
(8.5581 2.06926e-18 1.61102)
(8.21263 -7.01863e-20 1.83909)
(8.37041 1.99991e-20 1.80854)
(7.99767 -6.84206e-20 2.06091)
(8.17061 -2.14668e-18 2.02726)
(7.76905 -4.75878e-18 2.30677)
(7.9583 4.42005e-18 2.26961)
(7.52619 -4.69684e-18 2.57944)
(7.73303 -9.17955e-18 2.53836)
(7.26827 9.83498e-18 2.88212)
(7.49437 4.54389e-18 2.83671)
(6.99396 4.37631e-18 3.21837)
(7.24161 5.16294e-18 3.16842)
(6.70119 -1.54775e-17 3.59191)
(6.97334 -5.36427e-18 3.53766)
(6.38671 1.96032e-19 4.00635)
(6.68732 -1.0165e-17 3.9487)
(6.04538 1.0573e-17 4.46496)
(6.38032 1.01999e-17 4.40572)
(5.66946 4.08536e-19 4.96809)
(6.04506 -9.16173e-18 4.91228)
(5.25362 -2.36625e-19 5.51578)
(5.68578 1.01266e-17 5.46142)
(4.75648 1.1117e-17 6.07284)
(5.20947 -1.88921e-20 6.08929)
(4.2252 -1.38152e-18 6.63246)
(4.9836 1.13873e-17 6.53919)
(3.614 -1.11605e-17 7.49938)
(9.98815 -6.58894e-19 0.102085)
(9.9908 -4.55503e-20 0.0704075)
(9.9651 -6.88515e-19 0.16966)
(9.97801 -6.0381e-19 0.140269)
(9.93092 5.00276e-19 0.238215)
(9.95254 -9.47338e-20 0.210679)
(9.88568 7.74396e-19 0.309183)
(9.91397 -1.86194e-19 0.282978)
(9.82966 -2.18445e-19 0.383876)
(9.8643 5.9347e-19 0.358505)
(9.76308 2.16323e-20 0.463452)
(9.8046 -8.08284e-19 0.438511)
(9.68605 4.07173e-19 0.548983)
(9.73494 8.24687e-19 0.524113)
(9.59858 4.4166e-19 0.641518)
(9.65529 0 0.616399)
(9.50062 -4.82937e-19 0.74213)
(9.56557 3.68202e-21 0.716443)
(9.39206 -1.89892e-19 0.851993)
(9.46578 -8.9641e-19 0.825391)
(9.27272 4.32348e-19 0.972384)
(9.35571 6.81627e-19 0.944514)
(9.1425 1.72577e-18 1.10465)
(9.23535 -5.80432e-21 1.07515)
(9.00129 -8.51211e-20 1.2502)
(9.10469 3.58411e-18 1.2187)
(8.84901 -1.92919e-18 1.41055)
(8.96369 -3.87209e-18 1.37662)
(8.68557 2.1324e-18 1.58743)
(8.81224 0 1.55058)
(8.51082 2.097e-18 1.78284)
(8.65019 9.30531e-20 1.74251)
(8.32471 -2.08469e-18 1.999)
(8.47777 2.05555e-18 1.95458)
(8.12716 2.42019e-18 2.23835)
(8.29498 1.96992e-18 2.1892)
(7.9179 -1.4444e-19 2.50366)
(8.10156 2.08068e-19 2.44912)
(7.69653 2.00718e-19 2.7981)
(7.89745 -4.47982e-18 2.73748)
(7.46265 -1.20145e-19 3.1254)
(7.68233 2.30366e-19 3.05781)
(7.21541 -4.67482e-18 3.48988)
(7.45594 -2.49108e-19 3.41454)
(6.95326 -7.23515e-20 3.89625)
(7.21753 -8.84536e-18 3.81269)
(6.67383 -7.37891e-20 4.34931)
(6.96538 8.86383e-18 4.25757)
(6.3732 -9.57826e-18 4.85318)
(6.69749 8.50306e-18 4.75445)
(6.04349 5.25903e-19 5.40864)
(6.40599 -1.77337e-17 5.30846)
(5.68034 1.0355e-17 6.01609)
(6.10172 9.50159e-18 5.90975)
(5.23893 2.37909e-19 6.6371)
(5.66154 -7.92566e-18 6.60952)
(4.74692 -2.21449e-19 7.2501)
(5.53934 7.27159e-18 7.10083)
(4.1006 8.79619e-18 8.16804)
(9.98857 0 0.109685)
(9.99099 6.3034e-19 0.075332)
(9.96653 0 0.182521)
(9.97892 9.175e-20 0.150133)
(9.93404 -7.83266e-19 0.256668)
(9.95482 -9.35137e-19 0.225798)
(9.8912 -3.53282e-19 0.33353)
(9.91837 9.51074e-19 0.303681)
(9.83825 -2.11646e-20 0.414394)
(9.87155 3.94512e-19 0.385048)
(9.77545 2.30106e-20 0.500465)
(9.81541 -3.72109e-21 0.471165)
(9.70295 4.03617e-19 0.592876)
(9.75005 2.65577e-21 0.563209)
(9.62081 -4.38248e-19 0.692742)
(9.67545 4.14836e-19 0.662327)
(9.52902 -4.24341e-19 0.801205)
(9.59165 -1.2836e-18 0.769664)
(9.42755 0 0.919499)
(9.49863 1.73478e-18 0.88642)
(9.31633 2.32749e-19 1.04896)
(9.39628 6.37888e-21 1.01391)
(9.19536 1.90596e-18 1.19098)
(9.28478 -1.12251e-18 1.15353)
(9.06462 -3.09931e-19 1.34702)
(9.16417 1.88835e-18 1.30671)
(8.92412 -1.88922e-18 1.51866)
(9.03456 -3.80379e-18 1.47499)
(8.77388 -2.04069e-18 1.70777)
(8.89587 -1.46974e-20 1.6601)
(8.614 7.30902e-20 1.91645)
(8.74809 -3.17167e-19 1.86406)
(8.44454 6.11617e-18 2.14709)
(8.59185 2.03958e-18 2.08921)
(8.26554 -2.57825e-19 2.40234)
(8.42709 1.53381e-19 2.33812)
(8.07701 -4.18363e-18 2.6853)
(8.25375 3.91298e-18 2.61378)
(7.87883 -4.40575e-18 2.99945)
(8.07228 -3.85033e-18 2.91966)
(7.67082 8.76382e-20 3.34903)
(7.88253 -4.11783e-18 3.25966)
(7.4528 -4.46257e-18 3.73907)
(7.6846 4.40128e-18 3.63869)
(7.22387 1.53484e-19 4.17521)
(7.47854 -1.65666e-17 4.06266)
(6.98221 1.74587e-17 4.66344)
(7.26334 8.94678e-18 4.53795)
(6.72497 3.4527e-19 5.20913)
(7.03776 1.75169e-17 5.07089)
(6.4442 -8.79159e-18 5.81407)
(6.79349 -8.75878e-18 5.66915)
(6.13424 -8.76638e-18 6.48074)
(6.54782 6.07232e-18 6.32154)
(5.74892 -1.19195e-18 7.17115)
(6.14895 -1.02946e-17 7.09391)
(5.28838 1.63554e-17 7.85863)
(6.12149 -6.24703e-20 7.64863)
(4.62045 9.32349e-18 8.8524)
(9.98917 7.13016e-19 0.11694)
(9.99129 -8.84156e-20 0.0800004)
(9.96825 -8.635e-19 0.194743)
(9.98002 9.1801e-20 0.159506)
(9.93759 8.34951e-19 0.274131)
(9.95739 -1.90212e-19 0.240088)
(9.89736 1.68952e-18 0.356512)
(9.92323 5.80402e-19 0.323164)
(9.84775 4.05038e-19 0.443154)
(9.87949 7.71932e-19 0.409977)
(9.78902 -2.38906e-20 0.535289)
(9.82713 7.91048e-19 0.50179)
(9.72135 2.05098e-20 0.634099)
(9.76632 -4.08362e-19 0.599813)
(9.64486 -4.58043e-19 0.740763)
(9.69706 4.13195e-19 0.70525)
(9.55958 9.23657e-19 0.856479)
(9.61947 -1.27123e-18 0.81931)
(9.46555 1.71592e-18 0.982521)
(9.53358 1.73683e-18 0.943238)
(9.36282 -1.36651e-18 1.12026)
(9.43933 -8.67767e-19 1.07836)
(9.2515 -1.09877e-18 1.27113)
(9.33704 -2.02762e-18 1.22611)
(9.13173 -1.68616e-18 1.43666)
(9.22689 3.84502e-18 1.38794)
(9.00363 -1.87889e-18 1.6185)
(9.10915 -3.72141e-18 1.56547)
(8.86728 1.70726e-18 1.81855)
(8.98382 -1.88768e-18 1.76054)
(8.72298 1.68074e-18 2.03904)
(8.85104 1.69367e-18 1.97513)
(8.57107 -3.95383e-18 2.28253)
(8.7116 1.91334e-18 2.21171)
(8.41171 4.36144e-18 2.55185)
(8.56568 -3.91596e-18 2.47312)
(8.24517 4.19241e-18 2.85036)
(8.41362 8.16463e-18 2.76248)
(8.07179 -3.56726e-18 3.18187)
(8.25607 -3.62208e-18 3.08346)
(7.89176 2.55293e-19 3.55099)
(8.09344 8.51797e-21 3.44036)
(7.70535 -7.8181e-18 3.96347)
(7.92618 -3.91675e-18 3.8385)
(7.51259 -7.70973e-18 4.42587)
(7.75506 2.87109e-18 4.28452)
(7.31224 8.98969e-18 4.9453)
(7.5803 -8.56482e-18 4.78605)
(7.10221 8.43074e-18 5.5291)
(7.40127 8.47691e-18 5.35062)
(6.87505 6.1156e-18 6.18149)
(7.20975 -5.07545e-19 5.98925)
(6.62236 4.46685e-18 6.90932)
(7.02914 5.85479e-18 6.69254)
(6.30001 -9.14196e-18 7.68012)
(6.68576 -4.07023e-19 7.53877)
(5.87514 -6.55963e-18 8.47991)
(6.75254 -7.38748e-18 8.18943)
(5.20303 -1.0561e-18 9.58238)
(9.98988 -7.06688e-19 0.123793)
(9.99157 -7.19462e-19 0.0843656)
(9.9702 7.60089e-19 0.206275)
(9.98125 0 0.168338)
(9.9415 -4.30707e-19 0.290534)
(9.96023 7.45949e-19 0.253497)
(9.90402 -3.34581e-19 0.378032)
(9.92849 -1.14163e-18 0.341361)
(9.85793 1.15861e-18 0.470035)
(9.88795 -7.64528e-19 0.433204)
(9.80348 3.8636e-19 0.567783)
(9.83955 1.17469e-18 0.530279)
(9.74087 -2.06454e-21 0.672493)
(9.78348 -3.98296e-19 0.633805)
(9.67028 -4.27031e-19 0.785396)
(9.71979 -4.09595e-19 0.745022)
(9.59184 -4.11915e-19 0.907744)
(9.64867 -3.47434e-21 0.865196)
(9.50562 -8.87797e-19 1.04084)
(9.57022 0 0.995621)
(9.41174 -1.54615e-18 1.18606)
(9.48441 -4.48296e-19 1.13764)
(9.31044 3.00165e-18 1.34485)
(9.39167 1.07332e-18 1.29264)
(9.20204 1.71103e-18 1.51878)
(9.29239 1.85444e-18 1.4621)
(9.0868 -3.7082e-18 1.70962)
(9.18686 -2.28144e-18 1.64772)
(8.96495 -1.86185e-18 1.91929)
(9.0753 -1.87676e-18 1.85142)
(8.83684 1.92762e-18 2.15003)
(8.95819 2.52539e-18 2.07523)
(8.70307 1.89587e-18 2.40455)
(8.83606 -3.97991e-19 2.32156)
(8.56426 0 2.68589)
(8.70958 -4.64464e-19 2.5934)
(8.4209 2.41526e-19 2.99756)
(8.57973 0 2.8941)
(8.27372 -1.28086e-20 3.34364)
(8.44725 -3.99231e-18 3.22744)
(8.12353 -4.19151e-18 3.72905)
(8.31309 3.49674e-18 3.59796)
(7.97112 6.81341e-18 4.16008)
(8.17846 6.74154e-19 4.01133)
(7.8175 2.02389e-18 4.64428)
(8.04476 3.90372e-18 4.47472)
(7.66264 -9.11839e-18 5.19)
(7.91382 -5.06554e-18 4.99695)
(7.50534 -4.75794e-19 5.80703)
(7.78635 -4.76389e-19 5.58704)
(7.33966 -7.89455e-19 6.50358)
(7.65542 -6.34382e-18 6.25951)
(7.15466 8.77638e-19 7.2941)
(7.55031 6.97427e-18 7.01076)
(6.91355 1.65044e-18 8.15881)
(7.28942 3.36133e-19 7.92798)
(6.54726 -1.52254e-18 9.12884)
(7.46506 -4.69409e-18 8.71466)
(5.89962 8.20242e-18 10.3817)
(9.9906 0 0.130201)
(9.99179 0 0.0884266)
(9.97233 0 0.217053)
(9.98253 -7.20077e-19 0.176554)
(9.94573 0 0.305818)
(9.96331 0 0.265955)
(9.91111 -1.56519e-18 0.398021)
(9.93411 0 0.358217)
(9.86867 -7.1559e-19 0.49495)
(9.89689 -1.535e-18 0.454666)
(9.81864 3.63574e-19 0.597844)
(9.85259 4.12339e-21 0.556549)
(9.76128 -8.06403e-19 0.707933)
(9.80143 -4.02294e-19 0.665081)
(9.69683 2.05424e-20 0.826485)
(9.74349 1.20001e-18 0.781519)
(9.62548 4.09061e-19 0.954806)
(9.67908 -1.21951e-18 0.907172)
(9.54735 4.33643e-19 1.09423)
(9.60825 -4.07893e-21 1.0434)
(9.46263 2.19555e-18 1.24611)
(9.5311 2.53734e-18 1.19154)
(9.37172 -6.46186e-20 1.41185)
(9.44825 -1.67303e-18 1.35289)
(9.27504 -2.19671e-18 1.59308)
(9.36017 2.1338e-18 1.52894)
(9.17297 -4.41745e-19 1.79163)
(9.26715 -1.75834e-18 1.72149)
(9.06605 2.56657e-18 2.00949)
(9.16965 2.21965e-18 1.93243)
(8.95471 1.6728e-19 2.2489)
(9.06851 -1.49014e-18 2.16388)
(8.83963 -2.76614e-18 2.51251)
(8.96427 -6.96201e-20 2.41824)
(8.72194 -4.61106e-19 2.80354)
(8.85779 3.60567e-18 2.69834)
(8.60265 -4.27052e-18 3.12567)
(8.7506 -3.61335e-18 3.00773)
(8.48277 -4.41027e-19 3.48307)
(8.64401 -4.24647e-18 3.35037)
(8.36381 8.37259e-18 3.8809)
(8.53931 7.31002e-18 3.73074)
(8.24745 -2.23692e-18 4.32573)
(8.43867 -6.42612e-19 4.15473)
(8.13567 -3.21554e-18 4.82593)
(8.34451 -9.38542e-18 4.62973)
(8.03041 3.60984e-18 5.39099)
(8.26014 7.77632e-18 5.16514)
(7.93239 -6.34926e-18 6.0332)
(8.18896 6.14614e-18 5.77141)
(7.83934 1.35545e-18 6.7657)
(8.12744 -1.37845e-17 6.46558)
(7.74087 6.43262e-18 7.61346)
(8.1112 1.29393e-17 7.25268)
(7.61632 -6.07022e-18 8.57962)
(7.97385 -5.87545e-19 8.22318)
(7.36635 6.43438e-18 9.80968)
(8.29979 -7.15664e-18 9.17854)
(6.79229 9.90679e-18 11.2804)
(9.99133 -7.32853e-19 0.136131)
(9.99199 -1.33375e-18 0.0921772)
(9.97458 -7.0647e-19 0.227012)
(9.98385 -1.57803e-18 0.184108)
(9.95023 0 0.319915)
(9.96652 3.45429e-19 0.277398)
(9.9186 3.25745e-21 0.416418)
(9.93996 -1.75706e-19 0.373676)
(9.87994 -7.88612e-19 0.51783)
(9.90617 7.20719e-19 0.474303)
(9.83449 -7.69111e-19 0.625385)
(9.8661 -7.93396e-19 0.580531)
(9.78255 1.63106e-18 0.740313)
(9.81999 -7.46342e-19 0.693558)
(9.72443 -7.75243e-20 0.863914)
(9.76799 1.64008e-18 0.81464)
(9.66035 -1.61581e-18 0.99755)
(9.71047 -1.66795e-18 0.94515)
(9.59046 2.13745e-18 1.14256)
(9.64741 -7.8189e-19 1.08651)
(9.51512 -1.39191e-18 1.30023)
(9.57916 1.75256e-18 1.23995)
(9.43488 5.75543e-19 1.47196)
(9.5065 -2.29989e-18 1.4067)
(9.35023 2.52788e-18 1.6594)
(9.42983 3.17607e-18 1.58832)
(9.26161 9.5192e-19 1.8644)
(9.3497 2.9425e-19 1.78665)
(9.16975 -1.88172e-18 2.08895)
(9.26663 1.85834e-18 2.00348)
(9.07548 -1.71644e-18 2.33532)
(9.1816 -7.4218e-18 2.24093)
(8.97965 6.34845e-18 2.60608)
(9.09572 7.27678e-18 2.50143)
(8.88351 3.97584e-19 2.90438)
(9.00991 8.43153e-19 2.78765)
(8.78868 -3.59425e-18 3.23401)
(8.92579 -6.99348e-18 3.10304)
(8.69678 3.57521e-18 3.59916)
(8.8457 3.28272e-18 3.45167)
(8.60996 -1.7527e-18 4.00497)
(8.7713 2.83368e-18 3.83776)
(8.53101 -7.82132e-18 4.45805)
(8.70562 -3.81244e-18 4.26708)
(8.46313 1.62052e-18 4.96685)
(8.65261 -6.40461e-18 4.74686)
(8.41065 1.03326e-17 5.54144)
(8.6168 8.65955e-18 5.28598)
(8.37775 -1.22815e-18 6.19558)
(8.60532 4.9522e-18 5.8952)
(8.369 -2.28844e-18 6.9461)
(8.62018 -8.74651e-18 6.59114)
(8.38175 5.83121e-18 7.8269)
(8.70449 1.08996e-17 7.38505)
(8.42701 -1.41585e-18 8.8716)
(8.73679 -1.30783e-18 8.35568)
(8.4285 -2.54796e-18 10.5037)
(9.36471 -2.77732e-18 9.4186)
(9.01166 0 12.2341)
(0.158628 -1.11946e-19 -0.083746)
(0.0755552 -4.14392e-19 -0.13345)
(0.359549 2.0905e-19 -0.0866632)
(0.24397 -2.49506e-19 -0.156147)
(0.555967 2.85674e-19 -0.0723726)
(0.446358 9.24593e-19 -0.136633)
(0.732056 6.98307e-21 -0.0571934)
(0.63738 1.97058e-19 -0.112262)
(0.885215 -1.01741e-19 -0.0451501)
(0.808012 -7.39234e-19 -0.0921161)
(1.01824 0 -0.036599)
(0.958322 2.3499e-19 -0.0776148)
(1.13568 0 -0.0308151)
(1.0914 0 -0.0679513)
(1.2417 4.17602e-20 -0.0268381)
(1.21131 -1.69436e-19 -0.0617011)
(1.33903 -4.48039e-22 -0.0237847)
(1.32178 2.11473e-19 -0.0574044)
(1.42881 -4.14232e-20 -0.0209781)
(1.42441 -1.20981e-19 -0.0537586)
(1.5111 0 -0.0179761)
(1.52002 -3.60277e-20 -0.0499424)
(1.58517 1.7689e-20 -0.0144829)
(1.609 7.57088e-20 -0.0454559)
(1.64964 -8.13991e-21 -0.0103641)
(1.69059 5.30496e-20 -0.0398701)
(1.70295 -1.76493e-20 -0.00576751)
(1.76369 -2.58874e-20 -0.0330915)
(1.74395 8.29232e-21 -0.00112778)
(1.82715 8.27823e-21 -0.0254265)
(1.77224 0 0.00300757)
(1.87972 2.96052e-20 -0.0173814)
(1.78818 -9.95441e-21 0.00627918)
(1.92029 0 -0.00950637)
(1.79271 -2.53036e-20 0.00867736)
(1.94829 2.79866e-21 -0.00222165)
(1.78759 -1.54093e-20 0.0103149)
(1.96436 -3.54479e-21 0.00392322)
(1.77549 -2.41365e-21 0.0111497)
(1.97094 -1.64474e-20 0.00837026)
(1.75918 9.02639e-21 0.0111664)
(1.97111 -2.85585e-21 0.0110245)
(1.74148 2.0577e-20 0.0105126)
(1.96791 -6.07742e-21 0.0119014)
(1.72467 8.15196e-21 0.00937227)
(1.96408 2.46251e-20 0.0113291)
(1.71034 -9.4179e-22 0.00787491)
(1.96112 -4.54401e-21 0.00978708)
(1.69974 0 0.00596242)
(1.96032 1.29792e-21 0.00747264)
(1.69367 0 0.00366012)
(1.9625 -1.27918e-21 0.00468215)
(1.69285 2.67758e-21 0.00133674)
(1.9671 7.22906e-21 0.00146958)
(1.69676 2.67041e-21 -0.0005574)
(1.97334 1.2333e-22 -0.00140591)
(1.70392 5.25946e-22 -0.00179772)
(1.98136 -3.37334e-23 -0.00334759)
(1.99231 7.74515e-23 -0.00429882)
(0.140752 -5.62424e-19 -0.216992)
(0.0462737 -2.73801e-19 -0.271587)
(0.33668 4.28374e-19 -0.223269)
(0.204122 -2.83649e-19 -0.307053)
(0.534983 8.52565e-19 -0.191925)
(0.401758 8.60233e-19 -0.270844)
(0.71911 -5.37447e-19 -0.15922)
(0.587036 -1.26576e-20 -0.226576)
(0.884821 -4.09604e-19 -0.133431)
(0.755493 -5.88706e-19 -0.189831)
(1.0332 2.35125e-19 -0.115365)
(0.906667 2.34136e-19 -0.163255)
(1.16748 -1.70261e-19 -0.103494)
(1.04215 0 -0.145482)
(1.29106 2.17352e-21 -0.0956815)
(1.16522 -3.40033e-19 -0.133984)
(1.40642 8.93236e-20 -0.0899179)
(1.27904 3.20152e-19 -0.126125)
(1.51506 -1.15523e-19 -0.0846795)
(1.38538 -1.20024e-19 -0.119651)