# vtk DataFile Version 2.0

ASCII

DATASET UNSTRUCTURED_GRID

POINTS 161 float 

1.2479480269999997e-03  0.0000000000000000e+00  2.0000000000000004e-01
3.7564605215000004e-03  0.0000000000000000e+00  2.0000000000000001e-01
6.2903334465000014e-03  0.0000000000000000e+00  2.0000000000000004e-01
8.8498231920000007e-03  0.0000000000000000e+00  2.0000000000000004e-01
1.1435188734999997e-02  0.0000000000000000e+00  2.0000000000000001e-01
1.4046691670000002e-02  0.0000000000000000e+00  2.0000000000000001e-01
1.6684596245000002e-02  0.0000000000000000e+00  2.0000000000000001e-01
1.9349169374999996e-02  0.0000000000000000e+00  1.9999999999999998e-01
2.2040680664999996e-02  0.0000000000000000e+00  2.0000000000000001e-01
2.4759402454999999e-02  0.0000000000000000e+00  1.9999999999999998e-01
2.7505609844999997e-02  0.0000000000000000e+00  2.0000000000000001e-01
3.0279580699999999e-02  0.0000000000000000e+00  2.0000000000000001e-01
3.3081595699999994e-02  0.0000000000000000e+00  2.0000000000000001e-01
3.5911938370000000e-02  0.0000000000000000e+00  2.0000000000000004e-01
3.8770895094999994e-02  0.0000000000000000e+00  2.0000000000000004e-01
4.1658755154999998e-02  0.0000000000000000e+00  2.0000000000000001e-01
4.4575810750000000e-02  0.0000000000000000e+00  2.0000000000000004e-01
4.7522357044999998e-02  0.0000000000000000e+00  2.0000000000000001e-01
5.0498692184999992e-02  0.0000000000000000e+00  2.0000000000000001e-01
5.3505117319999997e-02  0.0000000000000000e+00  2.0000000000000001e-01
5.6541936659999993e-02  0.0000000000000000e+00  2.0000000000000004e-01
5.9609457479999996e-02  0.0000000000000000e+00  2.0000000000000001e-01
6.2707990165000005e-02  0.0000000000000000e+00  2.0000000000000001e-01
6.5837848234999982e-02  0.0000000000000000e+00  1.9999999999999998e-01
6.8999348380000006e-02  0.0000000000000000e+00  2.0000000000000001e-01
7.2192810504999996e-02  0.0000000000000000e+00  2.0000000000000004e-01
7.5418557725000002e-02  0.0000000000000000e+00  2.0000000000000004e-01
7.8676916434999994e-02  0.0000000000000000e+00  2.0000000000000004e-01
8.1968216339999997e-02  0.0000000000000000e+00  2.0000000000000001e-01
8.5292790460000004e-02  0.0000000000000000e+00  2.0000000000000001e-01
8.8650975185000008e-02  0.0000000000000000e+00  2.0000000000000001e-01
9.2043110309999981e-02  0.0000000000000000e+00  2.0000000000000001e-01
9.5469539070000012e-02  0.0000000000000000e+00  2.0000000000000004e-01
9.8930608189999977e-02  0.0000000000000000e+00  2.0000000000000004e-01
1.0242666780000000e-01  0.0000000000000000e+00  2.0000000000000004e-01
1.0595807170000000e-01  0.0000000000000000e+00  1.9999999999999998e-01
1.0952517724999998e-01  0.0000000000000000e+00  2.0000000000000001e-01
1.1312834529999997e-01  0.0000000000000000e+00  2.0000000000000001e-01
1.1676794049999999e-01  0.0000000000000000e+00  2.0000000000000001e-01
1.2044433110000000e-01  0.0000000000000000e+00  2.0000000000000001e-01
1.2415788905000000e-01  0.0000000000000000e+00  2.0000000000000001e-01
1.2790899015000001e-01  0.0000000000000000e+00  2.0000000000000004e-01
1.3169801395000000e-01  0.0000000000000000e+00  1.9999999999999998e-01
1.3552534380000000e-01  0.0000000000000000e+00  2.0000000000000004e-01
1.3939136699999999e-01  0.0000000000000000e+00  2.0000000000000001e-01
1.4329647475000001e-01  0.0000000000000000e+00  2.0000000000000004e-01
1.4724106214999999e-01  0.0000000000000000e+00  1.9999999999999998e-01
1.5122552830000000e-01  0.0000000000000000e+00  2.0000000000000001e-01
1.5525027640000000e-01  0.0000000000000000e+00  2.0000000000000001e-01
1.5931571375000000e-01  0.0000000000000000e+00  1.9999999999999998e-01
1.6342225165000002e-01  0.0000000000000000e+00  2.0000000000000004e-01
1.6757030559999997e-01  0.0000000000000000e+00  2.0000000000000001e-01
1.7176029529999998e-01  0.0000000000000000e+00  2.0000000000000004e-01
1.7599264474999998e-01  0.0000000000000000e+00  2.0000000000000004e-01
1.8026778220000000e-01  0.0000000000000000e+00  2.0000000000000001e-01
1.8458614020000003e-01  0.0000000000000000e+00  2.0000000000000004e-01
1.8894815575000001e-01  0.0000000000000000e+00  2.0000000000000001e-01
1.9335427015000003e-01  0.0000000000000000e+00  2.0000000000000001e-01
1.9780492924999996e-01  0.0000000000000000e+00  2.0000000000000001e-01
2.0230058344999999e-01  0.0000000000000000e+00  2.0000000000000001e-01
2.0684168754999999e-01  0.0000000000000000e+00  2.0000000000000001e-01
2.1142870105000000e-01  0.0000000000000000e+00  2.0000000000000001e-01
2.1606208815000000e-01  0.0000000000000000e+00  2.0000000000000001e-01
2.2074231759999996e-01  0.0000000000000000e+00  1.9999999999999998e-01
2.2546986299999996e-01  0.0000000000000000e+00  2.0000000000000001e-01
2.3024520269999998e-01  0.0000000000000000e+00  2.0000000000000004e-01
2.3506881985000003e-01  0.0000000000000000e+00  1.9999999999999998e-01
2.3994120254999998e-01  0.0000000000000000e+00  2.0000000000000001e-01
2.4486284384999998e-01  0.0000000000000000e+00  2.0000000000000001e-01
2.4983424174999996e-01  0.0000000000000000e+00  1.9999999999999998e-01
2.5485589919999996e-01  0.0000000000000000e+00  2.0000000000000004e-01
2.5992832429999996e-01  0.0000000000000000e+00  2.0000000000000004e-01
2.6505203035000002e-01  0.0000000000000000e+00  2.0000000000000001e-01
2.7022753580000008e-01  0.0000000000000000e+00  2.0000000000000004e-01
2.7545536429999989e-01  0.0000000000000000e+00  2.0000000000000001e-01
2.8073604484999998e-01  0.0000000000000000e+00  2.0000000000000001e-01
2.8607011174999997e-01  0.0000000000000000e+00  2.0000000000000001e-01
2.9145810470000000e-01  0.0000000000000000e+00  2.0000000000000001e-01
2.9690056894999994e-01  0.0000000000000000e+00  2.0000000000000004e-01
3.0239805515000001e-01  0.0000000000000000e+00  2.0000000000000001e-01
3.0795111949999998e-01  0.0000000000000000e+00  2.0000000000000001e-01
3.1356032395000000e-01  0.0000000000000000e+00  2.0000000000000001e-01
3.1922623605000000e-01  0.0000000000000000e+00  2.0000000000000004e-01
3.2494942910000002e-01  0.0000000000000000e+00  2.0000000000000001e-01
3.3073048220000001e-01  0.0000000000000000e+00  2.0000000000000001e-01
3.3656998030000002e-01  0.0000000000000000e+00  2.0000000000000001e-01
3.4246851424999997e-01  0.0000000000000000e+00  2.0000000000000001e-01
3.4842668090000001e-01  0.0000000000000000e+00  1.9999999999999998e-01
3.5444508315000001e-01  0.0000000000000000e+00  1.9999999999999998e-01
3.6052432990000000e-01  0.0000000000000000e+00  2.0000000000000001e-01
3.6666503630000002e-01  0.0000000000000000e+00  2.0000000000000004e-01
3.7286782369999993e-01  0.0000000000000000e+00  2.0000000000000001e-01
3.7913331969999992e-01  0.0000000000000000e+00  2.0000000000000001e-01
3.8546215830000002e-01  0.0000000000000000e+00  2.0000000000000001e-01
3.9185497989999996e-01  0.0000000000000000e+00  2.0000000000000001e-01
3.9831243130000005e-01  0.0000000000000000e+00  2.0000000000000001e-01
4.0483516589999996e-01  0.0000000000000000e+00  2.0000000000000001e-01
4.1142384369999990e-01  0.0000000000000000e+00  2.0000000000000004e-01
4.1807913139999997e-01  0.0000000000000000e+00  2.0000000000000001e-01
4.2480170239999998e-01  0.0000000000000000e+00  1.9999999999999998e-01
4.3159223684999998e-01  0.0000000000000000e+00  2.0000000000000001e-01
4.3845142189999992e-01  0.0000000000000000e+00  2.0000000000000001e-01
4.4537995159999993e-01  0.0000000000000000e+00  1.9999999999999998e-01
4.5237852700000009e-01  0.0000000000000000e+00  2.0000000000000004e-01
4.5944785625000001e-01  0.0000000000000000e+00  2.0000000000000004e-01
4.6658865464999993e-01  0.0000000000000000e+00  2.0000000000000001e-01
4.7380164474999992e-01  0.0000000000000000e+00  2.0000000000000001e-01
4.8108755635000006e-01  0.0000000000000000e+00  2.0000000000000004e-01
4.8844712664999984e-01  0.0000000000000000e+00  1.9999999999999998e-01
4.9588110034999994e-01  0.0000000000000000e+00  2.0000000000000001e-01
5.0339022965000002e-01  0.0000000000000000e+00  2.0000000000000001e-01
5.1097527440000001e-01  0.0000000000000000e+00  1.9999999999999998e-01
5.1863700204999996e-01  0.0000000000000000e+00  1.9999999999999998e-01
5.2637618780000006e-01  0.0000000000000000e+00  2.0000000000000004e-01
5.3419361479999994e-01  0.0000000000000000e+00  2.0000000000000001e-01
5.4209007400000009e-01  0.0000000000000000e+00  2.0000000000000001e-01
5.5006636439999990e-01  0.0000000000000000e+00  2.0000000000000004e-01
5.5812329314999998e-01  0.0000000000000000e+00  2.0000000000000004e-01
5.6626167539999994e-01  0.0000000000000000e+00  1.9999999999999998e-01
5.7448233464999998e-01  0.0000000000000000e+00  2.0000000000000004e-01
5.8278610269999997e-01  0.0000000000000000e+00  2.0000000000000001e-01
5.9117381974999994e-01  0.0000000000000000e+00  2.0000000000000001e-01
5.9964633454999994e-01  0.0000000000000000e+00  2.0000000000000001e-01
6.0820450430000006e-01  0.0000000000000000e+00  2.0000000000000004e-01
6.1684919499999991e-01  0.0000000000000000e+00  2.0000000000000004e-01
6.2558128135000002e-01  0.0000000000000000e+00  2.0000000000000001e-01
6.3440164689999989e-01  0.0000000000000000e+00  1.9999999999999998e-01
6.4331118415000010e-01  0.0000000000000000e+00  2.0000000000000004e-01
6.5231079455000007e-01  0.0000000000000000e+00  2.0000000000000004e-01
6.6140138875000010e-01  0.0000000000000000e+00  2.0000000000000001e-01
6.7058388660000001e-01  0.0000000000000000e+00  2.0000000000000004e-01
6.7985921719999987e-01  0.0000000000000000e+00  2.0000000000000001e-01
6.8922831899999992e-01  0.0000000000000000e+00  2.0000000000000001e-01
6.9869214009999991e-01  0.0000000000000000e+00  2.0000000000000001e-01
7.0825163804999991e-01  0.0000000000000000e+00  1.9999999999999998e-01
7.1790778009999989e-01  0.0000000000000000e+00  2.0000000000000004e-01
7.2766154335000000e-01  0.0000000000000000e+00  2.0000000000000004e-01
7.3751391470000005e-01  0.0000000000000000e+00  2.0000000000000001e-01
7.4746589105000005e-01  0.0000000000000000e+00  2.0000000000000004e-01
7.5751847934999994e-01  0.0000000000000000e+00  1.9999999999999998e-01
7.6767269680000005e-01  0.0000000000000000e+00  2.0000000000000004e-01
7.7792957085000014e-01  0.0000000000000000e+00  2.0000000000000004e-01
7.8829013930000025e-01  0.0000000000000000e+00  2.0000000000000007e-01
7.9875545049999996e-01  0.0000000000000000e+00  2.0000000000000001e-01
8.0932656339999998e-01  0.0000000000000000e+00  2.0000000000000004e-01
8.2000454754999996e-01  0.0000000000000000e+00  2.0000000000000001e-01
8.3079048344999984e-01  0.0000000000000000e+00  2.0000000000000001e-01
8.4168546244999998e-01  0.0000000000000000e+00  1.9999999999999998e-01
8.5269058695000000e-01  0.0000000000000000e+00  2.0000000000000001e-01
8.6380697049999988e-01  0.0000000000000000e+00  2.0000000000000001e-01
8.7503573784999988e-01  0.0000000000000000e+00  2.0000000000000001e-01
8.8637802524999998e-01  0.0000000000000000e+00  1.9999999999999998e-01
8.9783498034999998e-01  0.0000000000000000e+00  2.0000000000000001e-01
9.0940776234999998e-01  0.0000000000000000e+00  2.0000000000000001e-01
9.2109754224999985e-01  0.0000000000000000e+00  2.0000000000000004e-01
9.3290550294999997e-01  0.0000000000000000e+00  2.0000000000000001e-01
9.4483283914999994e-01  0.0000000000000000e+00  2.0000000000000001e-01
9.5688075770000003e-01  0.0000000000000000e+00  1.9999999999999998e-01
9.6905047765000007e-01  0.0000000000000000e+00  2.0000000000000001e-01
9.8134323039999993e-01  0.0000000000000000e+00  2.0000000000000001e-01
9.9376025984999994e-01  0.0000000000000000e+00  1.9999999999999998e-01

CELLS 0 0


CELL_TYPES 0


POINT_DATA 161

VECTORS VertexNormals float

0.0000000000000000e+00 0.0000000000000000e+00 0.0000000000000000e+00 
0.0000000000000000e+00 0.0000000000000000e+00 0.0000000000000000e+00 
0.0000000000000000e+00 0.0000000000000000e+00 0.0000000000000000e+00 
0.0000000000000000e+00 0.0000000000000000e+00 0.0000000000000000e+00 
0.0000000000000000e+00 0.0000000000000000e+00 0.0000000000000000e+00 
0.0000000000000000e+00 0.0000000000000000e+00 0.0000000000000000e+00 
0.0000000000000000e+00 0.0000000000000000e+00 0.0000000000000000e+00 
0.0000000000000000e+00 0.0000000000000000e+00 0.0000000000000000e+00 
0.0000000000000000e+00 0.0000000000000000e+00 0.0000000000000000e+00 
0.0000000000000000e+00 0.0000000000000000e+00 0.0000000000000000e+00 
0.0000000000000000e+00 0.0000000000000000e+00 0.0000000000000000e+00 
0.0000000000000000e+00 0.0000000000000000e+00 0.0000000000000000e+00 
0.0000000000000000e+00 0.0000000000000000e+00 0.0000000000000000e+00 
0.0000000000000000e+00 0.0000000000000000e+00 0.0000000000000000e+00 
0.0000000000000000e+00 0.0000000000000000e+00 0.0000000000000000e+00 
0.0000000000000000e+00 0.0000000000000000e+00 0.0000000000000000e+00 
0.0000000000000000e+00 0.0000000000000000e+00 0.0000000000000000e+00 
0.0000000000000000e+00 0.0000000000000000e+00 0.0000000000000000e+00 
0.0000000000000000e+00 0.0000000000000000e+00 0.0000000000000000e+00 
0.0000000000000000e+00 0.0000000000000000e+00 0.0000000000000000e+00 
0.0000000000000000e+00 0.0000000000000000e+00 0.0000000000000000e+00 
0.0000000000000000e+00 0.0000000000000000e+00 0.0000000000000000e+00 
0.0000000000000000e+00 0.0000000000000000e+00 0.0000000000000000e+00 
0.0000000000000000e+00 0.0000000000000000e+00 0.0000000000000000e+00 
0.0000000000000000e+00 0.0000000000000000e+00 0.0000000000000000e+00 
0.0000000000000000e+00 0.0000000000000000e+00 0.0000000000000000e+00 
0.0000000000000000e+00 0.0000000000000000e+00 0.0000000000000000e+00 
0.0000000000000000e+00 0.0000000000000000e+00 0.0000000000000000e+00 
0.0000000000000000e+00 0.0000000000000000e+00 0.0000000000000000e+00 
0.0000000000000000e+00 0.0000000000000000e+00 0.0000000000000000e+00 
0.0000000000000000e+00 0.0000000000000000e+00 0.0000000000000000e+00 
0.0000000000000000e+00 0.0000000000000000e+00 0.0000000000000000e+00 
0.0000000000000000e+00 0.0000000000000000e+00 0.0000000000000000e+00 
0.0000000000000000e+00 0.0000000000000000e+00 0.0000000000000000e+00 
0.0000000000000000e+00 0.0000000000000000e+00 0.0000000000000000e+00 
0.0000000000000000e+00 0.0000000000000000e+00 0.0000000000000000e+00 
0.0000000000000000e+00 0.0000000000000000e+00 0.0000000000000000e+00 
0.0000000000000000e+00 0.0000000000000000e+00 0.0000000000000000e+00 
0.0000000000000000e+00 0.0000000000000000e+00 0.0000000000000000e+00 
0.0000000000000000e+00 0.0000000000000000e+00 0.0000000000000000e+00 
0.0000000000000000e+00 0.0000000000000000e+00 0.0000000000000000e+00 
0.0000000000000000e+00 0.0000000000000000e+00 0.0000000000000000e+00 
0.0000000000000000e+00 0.0000000000000000e+00 0.0000000000000000e+00 
0.0000000000000000e+00 0.0000000000000000e+00 0.0000000000000000e+00 
0.0000000000000000e+00 0.0000000000000000e+00 0.0000000000000000e+00 
0.0000000000000000e+00 0.0000000000000000e+00 0.0000000000000000e+00 
0.0000000000000000e+00 0.0000000000000000e+00 0.0000000000000000e+00 
0.0000000000000000e+00 0.0000000000000000e+00 0.0000000000000000e+00 
0.0000000000000000e+00 0.0000000000000000e+00 0.0000000000000000e+00 
0.0000000000000000e+00 0.0000000000000000e+00 0.0000000000000000e+00 
0.0000000000000000e+00 0.0000000000000000e+00 0.0000000000000000e+00 
0.0000000000000000e+00 0.0000000000000000e+00 0.0000000000000000e+00 
0.0000000000000000e+00 0.0000000000000000e+00 0.0000000000000000e+00 
0.0000000000000000e+00 0.0000000000000000e+00 0.0000000000000000e+00 
0.0000000000000000e+00 0.0000000000000000e+00 0.0000000000000000e+00 
0.0000000000000000e+00 0.0000000000000000e+00 0.0000000000000000e+00 
0.0000000000000000e+00 0.0000000000000000e+00 0.0000000000000000e+00 
0.0000000000000000e+00 0.0000000000000000e+00 0.0000000000000000e+00 
0.0000000000000000e+00 0.0000000000000000e+00 0.0000000000000000e+00 
0.0000000000000000e+00 0.0000000000000000e+00 0.0000000000000000e+00 
0.0000000000000000e+00 0.0000000000000000e+00 0.0000000000000000e+00 
0.0000000000000000e+00 0.0000000000000000e+00 0.0000000000000000e+00 
0.0000000000000000e+00 0.0000000000000000e+00 0.0000000000000000e+00 
0.0000000000000000e+00 0.0000000000000000e+00 0.0000000000000000e+00 
0.0000000000000000e+00 0.0000000000000000e+00 0.0000000000000000e+00 
0.0000000000000000e+00 0.0000000000000000e+00 0.0000000000000000e+00 
0.0000000000000000e+00 0.0000000000000000e+00 0.0000000000000000e+00 
0.0000000000000000e+00 0.0000000000000000e+00 0.0000000000000000e+00 
0.0000000000000000e+00 0.0000000000000000e+00 0.0000000000000000e+00 
0.0000000000000000e+00 0.0000000000000000e+00 0.0000000000000000e+00 
0.0000000000000000e+00 0.0000000000000000e+00 0.0000000000000000e+00 
0.0000000000000000e+00 0.0000000000000000e+00 0.0000000000000000e+00 
0.0000000000000000e+00 0.0000000000000000e+00 0.0000000000000000e+00 
0.0000000000000000e+00 0.0000000000000000e+00 0.0000000000000000e+00 
0.0000000000000000e+00 0.0000000000000000e+00 0.0000000000000000e+00 
0.0000000000000000e+00 0.0000000000000000e+00 0.0000000000000000e+00 
0.0000000000000000e+00 0.0000000000000000e+00 0.0000000000000000e+00 
0.0000000000000000e+00 0.0000000000000000e+00 0.0000000000000000e+00 
0.0000000000000000e+00 0.0000000000000000e+00 0.0000000000000000e+00 
0.0000000000000000e+00 0.0000000000000000e+00 0.0000000000000000e+00 
0.0000000000000000e+00 0.0000000000000000e+00 0.0000000000000000e+00 
0.0000000000000000e+00 0.0000000000000000e+00 0.0000000000000000e+00 
0.0000000000000000e+00 0.0000000000000000e+00 0.0000000000000000e+00 
0.0000000000000000e+00 0.0000000000000000e+00 0.0000000000000000e+00 
0.0000000000000000e+00 0.0000000000000000e+00 0.0000000000000000e+00 
0.0000000000000000e+00 0.0000000000000000e+00 0.0000000000000000e+00 
0.0000000000000000e+00 0.0000000000000000e+00 0.0000000000000000e+00 
0.0000000000000000e+00 0.0000000000000000e+00 0.0000000000000000e+00 
0.0000000000000000e+00 0.0000000000000000e+00 0.0000000000000000e+00 
0.0000000000000000e+00 0.0000000000000000e+00 0.0000000000000000e+00 
0.0000000000000000e+00 0.0000000000000000e+00 0.0000000000000000e+00 
0.0000000000000000e+00 0.0000000000000000e+00 0.0000000000000000e+00 
0.0000000000000000e+00 0.0000000000000000e+00 0.0000000000000000e+00 
0.0000000000000000e+00 0.0000000000000000e+00 0.0000000000000000e+00 
0.0000000000000000e+00 0.0000000000000000e+00 0.0000000000000000e+00 
0.0000000000000000e+00 0.0000000000000000e+00 0.0000000000000000e+00 
0.0000000000000000e+00 0.0000000000000000e+00 0.0000000000000000e+00 
0.0000000000000000e+00 0.0000000000000000e+00 0.0000000000000000e+00 
0.0000000000000000e+00 0.0000000000000000e+00 0.0000000000000000e+00 
0.0000000000000000e+00 0.0000000000000000e+00 0.0000000000000000e+00 
0.0000000000000000e+00 0.0000000000000000e+00 0.0000000000000000e+00 
0.0000000000000000e+00 0.0000000000000000e+00 0.0000000000000000e+00 
0.0000000000000000e+00 0.0000000000000000e+00 0.0000000000000000e+00 
0.0000000000000000e+00 0.0000000000000000e+00 0.0000000000000000e+00 
0.0000000000000000e+00 0.0000000000000000e+00 0.0000000000000000e+00 
0.0000000000000000e+00 0.0000000000000000e+00 0.0000000000000000e+00 
0.0000000000000000e+00 0.0000000000000000e+00 0.0000000000000000e+00 
0.0000000000000000e+00 0.0000000000000000e+00 0.0000000000000000e+00 
0.0000000000000000e+00 0.0000000000000000e+00 0.0000000000000000e+00 
0.0000000000000000e+00 0.0000000000000000e+00 0.0000000000000000e+00 
0.0000000000000000e+00 0.0000000000000000e+00 0.0000000000000000e+00 
0.0000000000000000e+00 0.0000000000000000e+00 0.0000000000000000e+00 
0.0000000000000000e+00 0.0000000000000000e+00 0.0000000000000000e+00 
0.0000000000000000e+00 0.0000000000000000e+00 0.0000000000000000e+00 
0.0000000000000000e+00 0.0000000000000000e+00 0.0000000000000000e+00 
0.0000000000000000e+00 0.0000000000000000e+00 0.0000000000000000e+00 
0.0000000000000000e+00 0.0000000000000000e+00 0.0000000000000000e+00 
0.0000000000000000e+00 0.0000000000000000e+00 0.0000000000000000e+00 
0.0000000000000000e+00 0.0000000000000000e+00 0.0000000000000000e+00 
0.0000000000000000e+00 0.0000000000000000e+00 0.0000000000000000e+00 
0.0000000000000000e+00 0.0000000000000000e+00 0.0000000000000000e+00 
0.0000000000000000e+00 0.0000000000000000e+00 0.0000000000000000e+00 
0.0000000000000000e+00 0.0000000000000000e+00 0.0000000000000000e+00 
0.0000000000000000e+00 0.0000000000000000e+00 0.0000000000000000e+00 
0.0000000000000000e+00 0.0000000000000000e+00 0.0000000000000000e+00 
0.0000000000000000e+00 0.0000000000000000e+00 0.0000000000000000e+00 
0.0000000000000000e+00 0.0000000000000000e+00 0.0000000000000000e+00 
0.0000000000000000e+00 0.0000000000000000e+00 0.0000000000000000e+00 
0.0000000000000000e+00 0.0000000000000000e+00 0.0000000000000000e+00 
0.0000000000000000e+00 0.0000000000000000e+00 0.0000000000000000e+00 
0.0000000000000000e+00 0.0000000000000000e+00 0.0000000000000000e+00 
0.0000000000000000e+00 0.0000000000000000e+00 0.0000000000000000e+00 
0.0000000000000000e+00 0.0000000000000000e+00 0.0000000000000000e+00 
0.0000000000000000e+00 0.0000000000000000e+00 0.0000000000000000e+00 
0.0000000000000000e+00 0.0000000000000000e+00 0.0000000000000000e+00 
0.0000000000000000e+00 0.0000000000000000e+00 0.0000000000000000e+00 
0.0000000000000000e+00 0.0000000000000000e+00 0.0000000000000000e+00 
0.0000000000000000e+00 0.0000000000000000e+00 0.0000000000000000e+00 
0.0000000000000000e+00 0.0000000000000000e+00 0.0000000000000000e+00 
0.0000000000000000e+00 0.0000000000000000e+00 0.0000000000000000e+00 
0.0000000000000000e+00 0.0000000000000000e+00 0.0000000000000000e+00 
0.0000000000000000e+00 0.0000000000000000e+00 0.0000000000000000e+00 
0.0000000000000000e+00 0.0000000000000000e+00 0.0000000000000000e+00 
0.0000000000000000e+00 0.0000000000000000e+00 0.0000000000000000e+00 
0.0000000000000000e+00 0.0000000000000000e+00 0.0000000000000000e+00 
0.0000000000000000e+00 0.0000000000000000e+00 0.0000000000000000e+00 
0.0000000000000000e+00 0.0000000000000000e+00 0.0000000000000000e+00 
0.0000000000000000e+00 0.0000000000000000e+00 0.0000000000000000e+00 
0.0000000000000000e+00 0.0000000000000000e+00 0.0000000000000000e+00 
0.0000000000000000e+00 0.0000000000000000e+00 0.0000000000000000e+00 
0.0000000000000000e+00 0.0000000000000000e+00 0.0000000000000000e+00 
0.0000000000000000e+00 0.0000000000000000e+00 0.0000000000000000e+00 
0.0000000000000000e+00 0.0000000000000000e+00 0.0000000000000000e+00 
0.0000000000000000e+00 0.0000000000000000e+00 0.0000000000000000e+00 
0.0000000000000000e+00 0.0000000000000000e+00 0.0000000000000000e+00 
0.0000000000000000e+00 0.0000000000000000e+00 0.0000000000000000e+00 
0.0000000000000000e+00 0.0000000000000000e+00 0.0000000000000000e+00 
0.0000000000000000e+00 0.0000000000000000e+00 0.0000000000000000e+00 
0.0000000000000000e+00 0.0000000000000000e+00 0.0000000000000000e+00 
0.0000000000000000e+00 0.0000000000000000e+00 0.0000000000000000e+00 
0.0000000000000000e+00 0.0000000000000000e+00 0.0000000000000000e+00 

SCALARS Temperature float
LOOKUP_TABLE default
3.0169174792736857e+02
3.0180253586874568e+02
3.0189518703499130e+02
3.0197561792783495e+02
3.0204678619228224e+02
3.0211033615857076e+02
3.0216722747347666e+02
3.0221799522453705e+02
3.0226284759753128e+02
3.0230165579529984e+02
3.0233379817037758e+02
3.0235764028492133e+02
3.0235735048290780e+02
3.0237535470708235e+02
3.0239599557466045e+02
3.0241759006056679e+02
3.0243932976095215e+02
3.0246075363315225e+02
3.0248154918996357e+02
3.0250145476482635e+02
3.0252017982572130e+02
3.0253726757180874e+02
3.0254963545932890e+02
3.0256536211874470e+02
3.0258143503000605e+02
3.0259746275368627e+02
3.0261324449272922e+02
3.0262865393696853e+02
3.0264359504562287e+02
3.0265797752605960e+02
3.0267169098530343e+02
3.0268454934614010e+02
3.0269535041431777e+02
3.0270729291387249e+02
3.0271920194398297e+02
3.0273091437567166e+02
3.0274234861613775e+02
3.0275345394840480e+02
3.0276419141148682e+02
3.0277452166973990e+02
3.0278438652303959e+02
3.0279345823468287e+02
3.0280260580721932e+02
3.0281151095867324e+02
3.0282012564359781e+02
3.0282842460760844e+02
3.0283638887226903e+02
3.0284399634869868e+02
3.0285120607951887e+02
3.0285774641576148e+02
3.0286438108646882e+02
3.0287084761021987e+02
3.0287711591419128e+02
3.0288318046249356e+02
3.0288904933056278e+02
3.0289474773592258e+02
3.0290043130403552e+02
3.0290568246737018e+02
3.0291065738065743e+02
3.0291538782556972e+02
3.0291989536912644e+02
3.0292420015824246e+02
3.0292832713767120e+02
3.0293235967688662e+02
3.0293611389317249e+02
3.0293967341934547e+02
3.0294306633295787e+02
3.0294631902798329e+02
3.0294946439776783e+02
3.0295255736685766e+02
3.0295586194359345e+02
3.0295868385381084e+02
3.0296128360033896e+02
3.0296371811081184e+02
3.0296602795816375e+02
3.0296826050544126e+02
3.0297058861051102e+02
3.0297259002206704e+02
3.0297443418992060e+02
3.0297616754214170e+02
3.0297783414951783e+02
3.0297957530576122e+02
3.0298105624436187e+02
3.0298241390774325e+02
3.0298368671935378e+02
3.0298490748157633e+02
3.0298612155327766e+02
3.0298751506673648e+02
3.0298860849928150e+02
3.0298958463275642e+02
3.0299048927835184e+02
3.0299136247822588e+02
3.0299232679602488e+02
3.0299308855246136e+02
3.0299376516035932e+02
3.0299438888870225e+02
3.0299498863234942e+02
3.0299564855182325e+02
3.0299617516468766e+02
3.0299665170822647e+02
3.0299711077308564e+02
3.0299764187185019e+02
3.0299802867960665e+02
3.0299835536749862e+02
3.0299864346773376e+02
3.0299891051580278e+02
3.0299920514565667e+02
3.0299941208381949e+02
3.0299957661923810e+02
3.0299971054697255e+02
3.0299982896014166e+02
3.0299990668426079e+02
3.0299995557775389e+02
3.0299997935553478e+02
3.0299998640690274e+02
3.0299995149088647e+02
3.0299987878563354e+02
3.0299976107155453e+02
3.0299956020632635e+02
3.0299937362879115e+02
3.0299915898363952e+02
3.0299889564935830e+02
3.0299852663894569e+02
3.0299817246921288e+02
3.0299776766441482e+02
3.0299723862458893e+02
3.0299671370859062e+02
3.0299611353038205e+02
3.0299538031658602e+02
3.0299433526386542e+02
3.0299336319409099e+02
3.0299224842079190e+02
3.0299068407946640e+02
3.0298934956622855e+02
3.0298794717075111e+02
3.0298635951249355e+02
3.0298439646920542e+02
3.0298226697239915e+02
3.0297972022077192e+02
3.0297627926252488e+02
3.0297285935093674e+02
3.0296891867140505e+02
3.0296386611514430e+02
3.0295862259484659e+02
3.0295255874966671e+02
3.0294504581527616e+02
3.0293682666532499e+02
3.0292730638778511e+02
3.0291656445866045e+02
3.0290201770620735e+02
3.0288201738779065e+02
3.0286157476057247e+02
3.0283873690512087e+02
3.0281482256456707e+02
3.0278250128225676e+02
3.0274439337531692e+02
3.0270950952473675e+02
3.0264991917546047e+02
3.0260151390726816e+02
3.0244720059680083e+02
3.0219034945929786e+02

SCALARS Heat-Flux float
LOOKUP_TABLE default
3.9714121695651547e+03
3.9714121695651547e+03
3.9714121695651547e+03
3.9714121695651547e+03
3.9714121695651547e+03
3.9714121695651547e+03
3.9714121695651547e+03
3.9714121695651547e+03
3.9714121695651547e+03
3.9714121695651547e+03
3.9714121695651547e+03
3.9714121695651547e+03
2.9898100984588382e+03
2.9898100984588382e+03
2.9898100984588382e+03
2.9898100984588382e+03
2.9898100984588382e+03
2.9898100984588382e+03
2.9898100984588382e+03
2.9898100984588382e+03
2.9898100984588382e+03
2.9898100984588382e+03
2.8143088736374921e+03
2.8143088736374921e+03
2.8143088736374921e+03
2.8143088736374921e+03
2.8143088736374921e+03
2.8143088736374921e+03
2.8143088736374921e+03
2.8143088736374921e+03
2.8143088736374921e+03
2.8143088736374921e+03
2.7498671990986622e+03
2.7498671990986622e+03
2.7498671990986622e+03
2.7498671990986622e+03
2.7498671990986622e+03
2.7498671990986622e+03
2.7498671990986622e+03
2.7498671990986622e+03
2.7498671990986622e+03
2.7334916751184210e+03
2.7334916751184210e+03
2.7334916751184210e+03
2.7334916751184210e+03
2.7334916751184210e+03
2.7334916751184210e+03
2.7334916751184210e+03
2.7334916751184210e+03
2.7201861564513820e+03
2.7201861564513820e+03
2.7201861564513820e+03
2.7201861564513820e+03
2.7201861564513820e+03
2.7201861564513820e+03
2.7201861564513820e+03
2.7271569396529230e+03
2.7271569396529230e+03
2.7271569396529230e+03
2.7271569396529230e+03
2.7271569396529230e+03
2.7271569396529230e+03
2.7271569396529230e+03
2.7302188884634234e+03
2.7302188884634234e+03
2.7302188884634234e+03
2.7302188884634234e+03
2.7302188884634234e+03
2.7302188884634234e+03
2.7302188884634234e+03
2.7405702602445672e+03
2.7405702602445672e+03
2.7405702602445672e+03
2.7405702602445672e+03
2.7405702602445672e+03
2.7405702602445672e+03
2.7466647658562579e+03
2.7466647658562579e+03
2.7466647658562579e+03
2.7466647658562579e+03
2.7466647658562579e+03
2.7513252843666123e+03
2.7513252843666123e+03
2.7513252843666123e+03
2.7513252843666123e+03
2.7513252843666123e+03
2.7513252843666123e+03
2.7575166616843489e+03
2.7575166616843489e+03
2.7575166616843489e+03
2.7575166616843489e+03
2.7575166616843489e+03
2.7612018425883434e+03
2.7612018425883434e+03
2.7612018425883434e+03
2.7612018425883434e+03
2.7612018425883434e+03
2.7635574496722256e+03
2.7635574496722256e+03
2.7635574496722256e+03
2.7635574496722256e+03
2.7660421308974037e+03
2.7660421308974037e+03
2.7660421308974037e+03
2.7660421308974037e+03
2.7660421308974037e+03
2.7673126593341294e+03
2.7673126593341294e+03
2.7673126593341294e+03
2.7673126593341294e+03
2.7676011300965911e+03
2.7676011300965911e+03
2.7676011300965911e+03
2.7676011300965911e+03
2.7678321302031691e+03
2.7678321302031691e+03
2.7678321302031691e+03
2.7678321302031691e+03
2.7668693961888494e+03
2.7668693961888494e+03
2.7668693961888494e+03
2.7668693961888494e+03
2.7656569936269079e+03
2.7656569936269079e+03
2.7656569936269079e+03
2.7643349283287534e+03
2.7643349283287534e+03
2.7643349283287534e+03
2.7643349283287534e+03
2.7607165427063592e+03
2.7607165427063592e+03
2.7607165427063592e+03
2.7547271580348024e+03
2.7547271580348024e+03
2.7547271580348024e+03
2.7547271580348024e+03
2.7522969863319304e+03
2.7522969863319304e+03
2.7522969863319304e+03
2.7442318348868866e+03
2.7442318348868866e+03
2.7442318348868866e+03
2.7358492115323315e+03
2.7358492115323315e+03
2.7358492115323315e+03