# vtk DataFile Version 2.0

ASCII

DATASET UNSTRUCTURED_GRID

POINTS 161 double 

1.2479480269999997e-03  0.0000000000000000e+00  2.0000000000000004e-01
3.7564605215000004e-03  0.0000000000000000e+00  2.0000000000000001e-01
6.2903334465000014e-03  0.0000000000000000e+00  2.0000000000000004e-01
8.8498231920000007e-03  0.0000000000000000e+00  2.0000000000000004e-01
1.1435188734999997e-02  0.0000000000000000e+00  2.0000000000000001e-01
1.4046691670000002e-02  0.0000000000000000e+00  2.0000000000000001e-01
1.6684596245000002e-02  0.0000000000000000e+00  2.0000000000000001e-01
1.9349169374999996e-02  0.0000000000000000e+00  1.9999999999999998e-01
2.2040680664999996e-02  0.0000000000000000e+00  2.0000000000000001e-01
2.4759402454999999e-02  0.0000000000000000e+00  1.9999999999999998e-01
2.7505609844999997e-02  0.0000000000000000e+00  2.0000000000000001e-01
3.0279580699999999e-02  0.0000000000000000e+00  2.0000000000000001e-01
3.3081595699999994e-02  0.0000000000000000e+00  2.0000000000000001e-01
3.5911938370000000e-02  0.0000000000000000e+00  2.0000000000000004e-01
3.8770895094999994e-02  0.0000000000000000e+00  2.0000000000000004e-01
4.1658755154999998e-02  0.0000000000000000e+00  2.0000000000000001e-01
4.4575810750000000e-02  0.0000000000000000e+00  2.0000000000000004e-01
4.7522357044999998e-02  0.0000000000000000e+00  2.0000000000000001e-01
5.0498692184999992e-02  0.0000000000000000e+00  2.0000000000000001e-01
5.3505117319999997e-02  0.0000000000000000e+00  2.0000000000000001e-01
5.6541936659999993e-02  0.0000000000000000e+00  2.0000000000000004e-01
5.9609457479999996e-02  0.0000000000000000e+00  2.0000000000000001e-01
6.2707990165000005e-02  0.0000000000000000e+00  2.0000000000000001e-01
6.5837848234999982e-02  0.0000000000000000e+00  1.9999999999999998e-01
6.8999348380000006e-02  0.0000000000000000e+00  2.0000000000000001e-01
7.2192810504999996e-02  0.0000000000000000e+00  2.0000000000000004e-01
7.5418557725000002e-02  0.0000000000000000e+00  2.0000000000000004e-01
7.8676916434999994e-02  0.0000000000000000e+00  2.0000000000000004e-01
8.1968216339999997e-02  0.0000000000000000e+00  2.0000000000000001e-01
8.5292790460000004e-02  0.0000000000000000e+00  2.0000000000000001e-01
8.8650975185000008e-02  0.0000000000000000e+00  2.0000000000000001e-01
9.2043110309999981e-02  0.0000000000000000e+00  2.0000000000000001e-01
9.5469539070000012e-02  0.0000000000000000e+00  2.0000000000000004e-01
9.8930608189999977e-02  0.0000000000000000e+00  2.0000000000000004e-01
1.0242666780000000e-01  0.0000000000000000e+00  2.0000000000000004e-01
1.0595807170000000e-01  0.0000000000000000e+00  1.9999999999999998e-01
1.0952517724999998e-01  0.0000000000000000e+00  2.0000000000000001e-01
1.1312834529999997e-01  0.0000000000000000e+00  2.0000000000000001e-01
1.1676794049999999e-01  0.0000000000000000e+00  2.0000000000000001e-01
1.2044433110000000e-01  0.0000000000000000e+00  2.0000000000000001e-01
1.2415788905000000e-01  0.0000000000000000e+00  2.0000000000000001e-01
1.2790899015000001e-01  0.0000000000000000e+00  2.0000000000000004e-01
1.3169801395000000e-01  0.0000000000000000e+00  1.9999999999999998e-01
1.3552534380000000e-01  0.0000000000000000e+00  2.0000000000000004e-01
1.3939136699999999e-01  0.0000000000000000e+00  2.0000000000000001e-01
1.4329647475000001e-01  0.0000000000000000e+00  2.0000000000000004e-01
1.4724106214999999e-01  0.0000000000000000e+00  1.9999999999999998e-01
1.5122552830000000e-01  0.0000000000000000e+00  2.0000000000000001e-01
1.5525027640000000e-01  0.0000000000000000e+00  2.0000000000000001e-01
1.5931571375000000e-01  0.0000000000000000e+00  1.9999999999999998e-01
1.6342225165000002e-01  0.0000000000000000e+00  2.0000000000000004e-01
1.6757030559999997e-01  0.0000000000000000e+00  2.0000000000000001e-01
1.7176029529999998e-01  0.0000000000000000e+00  2.0000000000000004e-01
1.7599264474999998e-01  0.0000000000000000e+00  2.0000000000000004e-01
1.8026778220000000e-01  0.0000000000000000e+00  2.0000000000000001e-01
1.8458614020000003e-01  0.0000000000000000e+00  2.0000000000000004e-01
1.8894815575000001e-01  0.0000000000000000e+00  2.0000000000000001e-01
1.9335427015000003e-01  0.0000000000000000e+00  2.0000000000000001e-01
1.9780492924999996e-01  0.0000000000000000e+00  2.0000000000000001e-01
2.0230058344999999e-01  0.0000000000000000e+00  2.0000000000000001e-01
2.0684168754999999e-01  0.0000000000000000e+00  2.0000000000000001e-01
2.1142870105000000e-01  0.0000000000000000e+00  2.0000000000000001e-01
2.1606208815000000e-01  0.0000000000000000e+00  2.0000000000000001e-01
2.2074231759999996e-01  0.0000000000000000e+00  1.9999999999999998e-01
2.2546986299999996e-01  0.0000000000000000e+00  2.0000000000000001e-01
2.3024520269999998e-01  0.0000000000000000e+00  2.0000000000000004e-01
2.3506881985000003e-01  0.0000000000000000e+00  1.9999999999999998e-01
2.3994120254999998e-01  0.0000000000000000e+00  2.0000000000000001e-01
2.4486284384999998e-01  0.0000000000000000e+00  2.0000000000000001e-01
2.4983424174999996e-01  0.0000000000000000e+00  1.9999999999999998e-01
2.5485589919999996e-01  0.0000000000000000e+00  2.0000000000000004e-01
2.5992832429999996e-01  0.0000000000000000e+00  2.0000000000000004e-01
2.6505203035000002e-01  0.0000000000000000e+00  2.0000000000000001e-01
2.7022753580000008e-01  0.0000000000000000e+00  2.0000000000000004e-01
2.7545536429999989e-01  0.0000000000000000e+00  2.0000000000000001e-01
2.8073604484999998e-01  0.0000000000000000e+00  2.0000000000000001e-01
2.8607011174999997e-01  0.0000000000000000e+00  2.0000000000000001e-01
2.9145810470000000e-01  0.0000000000000000e+00  2.0000000000000001e-01
2.9690056894999994e-01  0.0000000000000000e+00  2.0000000000000004e-01
3.0239805515000001e-01  0.0000000000000000e+00  2.0000000000000001e-01
3.0795111949999998e-01  0.0000000000000000e+00  2.0000000000000001e-01
3.1356032395000000e-01  0.0000000000000000e+00  2.0000000000000001e-01
3.1922623605000000e-01  0.0000000000000000e+00  2.0000000000000004e-01
3.2494942910000002e-01  0.0000000000000000e+00  2.0000000000000001e-01
3.3073048220000001e-01  0.0000000000000000e+00  2.0000000000000001e-01
3.3656998030000002e-01  0.0000000000000000e+00  2.0000000000000001e-01
3.4246851424999997e-01  0.0000000000000000e+00  2.0000000000000001e-01
3.4842668090000001e-01  0.0000000000000000e+00  1.9999999999999998e-01
3.5444508315000001e-01  0.0000000000000000e+00  1.9999999999999998e-01
3.6052432990000000e-01  0.0000000000000000e+00  2.0000000000000001e-01
3.6666503630000002e-01  0.0000000000000000e+00  2.0000000000000004e-01
3.7286782369999993e-01  0.0000000000000000e+00  2.0000000000000001e-01
3.7913331969999992e-01  0.0000000000000000e+00  2.0000000000000001e-01
3.8546215830000002e-01  0.0000000000000000e+00  2.0000000000000001e-01
3.9185497989999996e-01  0.0000000000000000e+00  2.0000000000000001e-01
3.9831243130000005e-01  0.0000000000000000e+00  2.0000000000000001e-01
4.0483516589999996e-01  0.0000000000000000e+00  2.0000000000000001e-01
4.1142384369999990e-01  0.0000000000000000e+00  2.0000000000000004e-01
4.1807913139999997e-01  0.0000000000000000e+00  2.0000000000000001e-01
4.2480170239999998e-01  0.0000000000000000e+00  1.9999999999999998e-01
4.3159223684999998e-01  0.0000000000000000e+00  2.0000000000000001e-01
4.3845142189999992e-01  0.0000000000000000e+00  2.0000000000000001e-01
4.4537995159999993e-01  0.0000000000000000e+00  1.9999999999999998e-01
4.5237852700000009e-01  0.0000000000000000e+00  2.0000000000000004e-01
4.5944785625000001e-01  0.0000000000000000e+00  2.0000000000000004e-01
4.6658865464999993e-01  0.0000000000000000e+00  2.0000000000000001e-01
4.7380164474999992e-01  0.0000000000000000e+00  2.0000000000000001e-01
4.8108755635000006e-01  0.0000000000000000e+00  2.0000000000000004e-01
4.8844712664999984e-01  0.0000000000000000e+00  1.9999999999999998e-01
4.9588110034999994e-01  0.0000000000000000e+00  2.0000000000000001e-01
5.0339022965000002e-01  0.0000000000000000e+00  2.0000000000000001e-01
5.1097527440000001e-01  0.0000000000000000e+00  1.9999999999999998e-01
5.1863700204999996e-01  0.0000000000000000e+00  1.9999999999999998e-01
5.2637618780000006e-01  0.0000000000000000e+00  2.0000000000000004e-01
5.3419361479999994e-01  0.0000000000000000e+00  2.0000000000000001e-01
5.4209007400000009e-01  0.0000000000000000e+00  2.0000000000000001e-01
5.5006636439999990e-01  0.0000000000000000e+00  2.0000000000000004e-01
5.5812329314999998e-01  0.0000000000000000e+00  2.0000000000000004e-01
5.6626167539999994e-01  0.0000000000000000e+00  1.9999999999999998e-01
5.7448233464999998e-01  0.0000000000000000e+00  2.0000000000000004e-01
5.8278610269999997e-01  0.0000000000000000e+00  2.0000000000000001e-01
5.9117381974999994e-01  0.0000000000000000e+00  2.0000000000000001e-01
5.9964633454999994e-01  0.0000000000000000e+00  2.0000000000000001e-01
6.0820450430000006e-01  0.0000000000000000e+00  2.0000000000000004e-01
6.1684919499999991e-01  0.0000000000000000e+00  2.0000000000000004e-01
6.2558128135000002e-01  0.0000000000000000e+00  2.0000000000000001e-01
6.3440164689999989e-01  0.0000000000000000e+00  1.9999999999999998e-01
6.4331118415000010e-01  0.0000000000000000e+00  2.0000000000000004e-01
6.5231079455000007e-01  0.0000000000000000e+00  2.0000000000000004e-01
6.6140138875000010e-01  0.0000000000000000e+00  2.0000000000000001e-01
6.7058388660000001e-01  0.0000000000000000e+00  2.0000000000000004e-01
6.7985921719999987e-01  0.0000000000000000e+00  2.0000000000000001e-01
6.8922831899999992e-01  0.0000000000000000e+00  2.0000000000000001e-01
6.9869214009999991e-01  0.0000000000000000e+00  2.0000000000000001e-01
7.0825163804999991e-01  0.0000000000000000e+00  1.9999999999999998e-01
7.1790778009999989e-01  0.0000000000000000e+00  2.0000000000000004e-01
7.2766154335000000e-01  0.0000000000000000e+00  2.0000000000000004e-01
7.3751391470000005e-01  0.0000000000000000e+00  2.0000000000000001e-01
7.4746589105000005e-01  0.0000000000000000e+00  2.0000000000000004e-01
7.5751847934999994e-01  0.0000000000000000e+00  1.9999999999999998e-01
7.6767269680000005e-01  0.0000000000000000e+00  2.0000000000000004e-01
7.7792957085000014e-01  0.0000000000000000e+00  2.0000000000000004e-01
7.8829013930000025e-01  0.0000000000000000e+00  2.0000000000000007e-01
7.9875545049999996e-01  0.0000000000000000e+00  2.0000000000000001e-01
8.0932656339999998e-01  0.0000000000000000e+00  2.0000000000000004e-01
8.2000454754999996e-01  0.0000000000000000e+00  2.0000000000000001e-01
8.3079048344999984e-01  0.0000000000000000e+00  2.0000000000000001e-01
8.4168546244999998e-01  0.0000000000000000e+00  1.9999999999999998e-01
8.5269058695000000e-01  0.0000000000000000e+00  2.0000000000000001e-01
8.6380697049999988e-01  0.0000000000000000e+00  2.0000000000000001e-01
8.7503573784999988e-01  0.0000000000000000e+00  2.0000000000000001e-01
8.8637802524999998e-01  0.0000000000000000e+00  1.9999999999999998e-01
8.9783498034999998e-01  0.0000000000000000e+00  2.0000000000000001e-01
9.0940776234999998e-01  0.0000000000000000e+00  2.0000000000000001e-01
9.2109754224999985e-01  0.0000000000000000e+00  2.0000000000000004e-01
9.3290550294999997e-01  0.0000000000000000e+00  2.0000000000000001e-01
9.4483283914999994e-01  0.0000000000000000e+00  2.0000000000000001e-01
9.5688075770000003e-01  0.0000000000000000e+00  1.9999999999999998e-01
9.6905047765000007e-01  0.0000000000000000e+00  2.0000000000000001e-01
9.8134323039999993e-01  0.0000000000000000e+00  2.0000000000000001e-01
9.9376025984999994e-01  0.0000000000000000e+00  1.9999999999999998e-01

CELLS 0 0


CELL_TYPES 0


POINT_DATA 161

VECTORS VertexNormals double

0.0000000000000000e+00 0.0000000000000000e+00 0.0000000000000000e+00 
0.0000000000000000e+00 0.0000000000000000e+00 0.0000000000000000e+00 
0.0000000000000000e+00 0.0000000000000000e+00 0.0000000000000000e+00 
0.0000000000000000e+00 0.0000000000000000e+00 0.0000000000000000e+00 
0.0000000000000000e+00 0.0000000000000000e+00 0.0000000000000000e+00 
0.0000000000000000e+00 0.0000000000000000e+00 0.0000000000000000e+00 
0.0000000000000000e+00 0.0000000000000000e+00 0.0000000000000000e+00 
0.0000000000000000e+00 0.0000000000000000e+00 0.0000000000000000e+00 
0.0000000000000000e+00 0.0000000000000000e+00 0.0000000000000000e+00 
0.0000000000000000e+00 0.0000000000000000e+00 0.0000000000000000e+00 
0.0000000000000000e+00 0.0000000000000000e+00 0.0000000000000000e+00 
0.0000000000000000e+00 0.0000000000000000e+00 0.0000000000000000e+00 
0.0000000000000000e+00 0.0000000000000000e+00 0.0000000000000000e+00 
0.0000000000000000e+00 0.0000000000000000e+00 0.0000000000000000e+00 
0.0000000000000000e+00 0.0000000000000000e+00 0.0000000000000000e+00 
0.0000000000000000e+00 0.0000000000000000e+00 0.0000000000000000e+00 
0.0000000000000000e+00 0.0000000000000000e+00 0.0000000000000000e+00 
0.0000000000000000e+00 0.0000000000000000e+00 0.0000000000000000e+00 
0.0000000000000000e+00 0.0000000000000000e+00 0.0000000000000000e+00 
0.0000000000000000e+00 0.0000000000000000e+00 0.0000000000000000e+00 
0.0000000000000000e+00 0.0000000000000000e+00 0.0000000000000000e+00 
0.0000000000000000e+00 0.0000000000000000e+00 0.0000000000000000e+00 
0.0000000000000000e+00 0.0000000000000000e+00 0.0000000000000000e+00 
0.0000000000000000e+00 0.0000000000000000e+00 0.0000000000000000e+00 
0.0000000000000000e+00 0.0000000000000000e+00 0.0000000000000000e+00 
0.0000000000000000e+00 0.0000000000000000e+00 0.0000000000000000e+00 
0.0000000000000000e+00 0.0000000000000000e+00 0.0000000000000000e+00 
0.0000000000000000e+00 0.0000000000000000e+00 0.0000000000000000e+00 
0.0000000000000000e+00 0.0000000000000000e+00 0.0000000000000000e+00 
0.0000000000000000e+00 0.0000000000000000e+00 0.0000000000000000e+00 
0.0000000000000000e+00 0.0000000000000000e+00 0.0000000000000000e+00 
0.0000000000000000e+00 0.0000000000000000e+00 0.0000000000000000e+00 
0.0000000000000000e+00 0.0000000000000000e+00 0.0000000000000000e+00 
0.0000000000000000e+00 0.0000000000000000e+00 0.0000000000000000e+00 
0.0000000000000000e+00 0.0000000000000000e+00 0.0000000000000000e+00 
0.0000000000000000e+00 0.0000000000000000e+00 0.0000000000000000e+00 
0.0000000000000000e+00 0.0000000000000000e+00 0.0000000000000000e+00 
0.0000000000000000e+00 0.0000000000000000e+00 0.0000000000000000e+00 
0.0000000000000000e+00 0.0000000000000000e+00 0.0000000000000000e+00 
0.0000000000000000e+00 0.0000000000000000e+00 0.0000000000000000e+00 
0.0000000000000000e+00 0.0000000000000000e+00 0.0000000000000000e+00 
0.0000000000000000e+00 0.0000000000000000e+00 0.0000000000000000e+00 
0.0000000000000000e+00 0.0000000000000000e+00 0.0000000000000000e+00 
0.0000000000000000e+00 0.0000000000000000e+00 0.0000000000000000e+00 
0.0000000000000000e+00 0.0000000000000000e+00 0.0000000000000000e+00 
0.0000000000000000e+00 0.0000000000000000e+00 0.0000000000000000e+00 
0.0000000000000000e+00 0.0000000000000000e+00 0.0000000000000000e+00 
0.0000000000000000e+00 0.0000000000000000e+00 0.0000000000000000e+00 
0.0000000000000000e+00 0.0000000000000000e+00 0.0000000000000000e+00 
0.0000000000000000e+00 0.0000000000000000e+00 0.0000000000000000e+00 
0.0000000000000000e+00 0.0000000000000000e+00 0.0000000000000000e+00 
0.0000000000000000e+00 0.0000000000000000e+00 0.0000000000000000e+00 
0.0000000000000000e+00 0.0000000000000000e+00 0.0000000000000000e+00 
0.0000000000000000e+00 0.0000000000000000e+00 0.0000000000000000e+00 
0.0000000000000000e+00 0.0000000000000000e+00 0.0000000000000000e+00 
0.0000000000000000e+00 0.0000000000000000e+00 0.0000000000000000e+00 
0.0000000000000000e+00 0.0000000000000000e+00 0.0000000000000000e+00 
0.0000000000000000e+00 0.0000000000000000e+00 0.0000000000000000e+00 
0.0000000000000000e+00 0.0000000000000000e+00 0.0000000000000000e+00 
0.0000000000000000e+00 0.0000000000000000e+00 0.0000000000000000e+00 
0.0000000000000000e+00 0.0000000000000000e+00 0.0000000000000000e+00 
0.0000000000000000e+00 0.0000000000000000e+00 0.0000000000000000e+00 
0.0000000000000000e+00 0.0000000000000000e+00 0.0000000000000000e+00 
0.0000000000000000e+00 0.0000000000000000e+00 0.0000000000000000e+00 
0.0000000000000000e+00 0.0000000000000000e+00 0.0000000000000000e+00 
0.0000000000000000e+00 0.0000000000000000e+00 0.0000000000000000e+00 
0.0000000000000000e+00 0.0000000000000000e+00 0.0000000000000000e+00 
0.0000000000000000e+00 0.0000000000000000e+00 0.0000000000000000e+00 
0.0000000000000000e+00 0.0000000000000000e+00 0.0000000000000000e+00 
0.0000000000000000e+00 0.0000000000000000e+00 0.0000000000000000e+00 
0.0000000000000000e+00 0.0000000000000000e+00 0.0000000000000000e+00 
0.0000000000000000e+00 0.0000000000000000e+00 0.0000000000000000e+00 
0.0000000000000000e+00 0.0000000000000000e+00 0.0000000000000000e+00 
0.0000000000000000e+00 0.0000000000000000e+00 0.0000000000000000e+00 
0.0000000000000000e+00 0.0000000000000000e+00 0.0000000000000000e+00 
0.0000000000000000e+00 0.0000000000000000e+00 0.0000000000000000e+00 
0.0000000000000000e+00 0.0000000000000000e+00 0.0000000000000000e+00 
0.0000000000000000e+00 0.0000000000000000e+00 0.0000000000000000e+00 
0.0000000000000000e+00 0.0000000000000000e+00 0.0000000000000000e+00 
0.0000000000000000e+00 0.0000000000000000e+00 0.0000000000000000e+00 
0.0000000000000000e+00 0.0000000000000000e+00 0.0000000000000000e+00 
0.0000000000000000e+00 0.0000000000000000e+00 0.0000000000000000e+00 
0.0000000000000000e+00 0.0000000000000000e+00 0.0000000000000000e+00 
0.0000000000000000e+00 0.0000000000000000e+00 0.0000000000000000e+00 
0.0000000000000000e+00 0.0000000000000000e+00 0.0000000000000000e+00 
0.0000000000000000e+00 0.0000000000000000e+00 0.0000000000000000e+00 
0.0000000000000000e+00 0.0000000000000000e+00 0.0000000000000000e+00 
0.0000000000000000e+00 0.0000000000000000e+00 0.0000000000000000e+00 
0.0000000000000000e+00 0.0000000000000000e+00 0.0000000000000000e+00 
0.0000000000000000e+00 0.0000000000000000e+00 0.0000000000000000e+00 
0.0000000000000000e+00 0.0000000000000000e+00 0.0000000000000000e+00 
0.0000000000000000e+00 0.0000000000000000e+00 0.0000000000000000e+00 
0.0000000000000000e+00 0.0000000000000000e+00 0.0000000000000000e+00 
0.0000000000000000e+00 0.0000000000000000e+00 0.0000000000000000e+00 
0.0000000000000000e+00 0.0000000000000000e+00 0.0000000000000000e+00 
0.0000000000000000e+00 0.0000000000000000e+00 0.0000000000000000e+00 
0.0000000000000000e+00 0.0000000000000000e+00 0.0000000000000000e+00 
0.0000000000000000e+00 0.0000000000000000e+00 0.0000000000000000e+00 
0.0000000000000000e+00 0.0000000000000000e+00 0.0000000000000000e+00 
0.0000000000000000e+00 0.0000000000000000e+00 0.0000000000000000e+00 
0.0000000000000000e+00 0.0000000000000000e+00 0.0000000000000000e+00 
0.0000000000000000e+00 0.0000000000000000e+00 0.0000000000000000e+00 
0.0000000000000000e+00 0.0000000000000000e+00 0.0000000000000000e+00 
0.0000000000000000e+00 0.0000000000000000e+00 0.0000000000000000e+00 
0.0000000000000000e+00 0.0000000000000000e+00 0.0000000000000000e+00 
0.0000000000000000e+00 0.0000000000000000e+00 0.0000000000000000e+00 
0.0000000000000000e+00 0.0000000000000000e+00 0.0000000000000000e+00 
0.0000000000000000e+00 0.0000000000000000e+00 0.0000000000000000e+00 
0.0000000000000000e+00 0.0000000000000000e+00 0.0000000000000000e+00 
0.0000000000000000e+00 0.0000000000000000e+00 0.0000000000000000e+00 
0.0000000000000000e+00 0.0000000000000000e+00 0.0000000000000000e+00 
0.0000000000000000e+00 0.0000000000000000e+00 0.0000000000000000e+00 
0.0000000000000000e+00 0.0000000000000000e+00 0.0000000000000000e+00 
0.0000000000000000e+00 0.0000000000000000e+00 0.0000000000000000e+00 
0.0000000000000000e+00 0.0000000000000000e+00 0.0000000000000000e+00 
0.0000000000000000e+00 0.0000000000000000e+00 0.0000000000000000e+00 
0.0000000000000000e+00 0.0000000000000000e+00 0.0000000000000000e+00 
0.0000000000000000e+00 0.0000000000000000e+00 0.0000000000000000e+00 
0.0000000000000000e+00 0.0000000000000000e+00 0.0000000000000000e+00 
0.0000000000000000e+00 0.0000000000000000e+00 0.0000000000000000e+00 
0.0000000000000000e+00 0.0000000000000000e+00 0.0000000000000000e+00 
0.0000000000000000e+00 0.0000000000000000e+00 0.0000000000000000e+00 
0.0000000000000000e+00 0.0000000000000000e+00 0.0000000000000000e+00 
0.0000000000000000e+00 0.0000000000000000e+00 0.0000000000000000e+00 
0.0000000000000000e+00 0.0000000000000000e+00 0.0000000000000000e+00 
0.0000000000000000e+00 0.0000000000000000e+00 0.0000000000000000e+00 
0.0000000000000000e+00 0.0000000000000000e+00 0.0000000000000000e+00 
0.0000000000000000e+00 0.0000000000000000e+00 0.0000000000000000e+00 
0.0000000000000000e+00 0.0000000000000000e+00 0.0000000000000000e+00 
0.0000000000000000e+00 0.0000000000000000e+00 0.0000000000000000e+00 
0.0000000000000000e+00 0.0000000000000000e+00 0.0000000000000000e+00 
0.0000000000000000e+00 0.0000000000000000e+00 0.0000000000000000e+00 
0.0000000000000000e+00 0.0000000000000000e+00 0.0000000000000000e+00 
0.0000000000000000e+00 0.0000000000000000e+00 0.0000000000000000e+00 
0.0000000000000000e+00 0.0000000000000000e+00 0.0000000000000000e+00 
0.0000000000000000e+00 0.0000000000000000e+00 0.0000000000000000e+00 
0.0000000000000000e+00 0.0000000000000000e+00 0.0000000000000000e+00 
0.0000000000000000e+00 0.0000000000000000e+00 0.0000000000000000e+00 
0.0000000000000000e+00 0.0000000000000000e+00 0.0000000000000000e+00 
0.0000000000000000e+00 0.0000000000000000e+00 0.0000000000000000e+00 
0.0000000000000000e+00 0.0000000000000000e+00 0.0000000000000000e+00 
0.0000000000000000e+00 0.0000000000000000e+00 0.0000000000000000e+00 
0.0000000000000000e+00 0.0000000000000000e+00 0.0000000000000000e+00 
0.0000000000000000e+00 0.0000000000000000e+00 0.0000000000000000e+00 
0.0000000000000000e+00 0.0000000000000000e+00 0.0000000000000000e+00 
0.0000000000000000e+00 0.0000000000000000e+00 0.0000000000000000e+00 
0.0000000000000000e+00 0.0000000000000000e+00 0.0000000000000000e+00 
0.0000000000000000e+00 0.0000000000000000e+00 0.0000000000000000e+00 
0.0000000000000000e+00 0.0000000000000000e+00 0.0000000000000000e+00 
0.0000000000000000e+00 0.0000000000000000e+00 0.0000000000000000e+00 
0.0000000000000000e+00 0.0000000000000000e+00 0.0000000000000000e+00 
0.0000000000000000e+00 0.0000000000000000e+00 0.0000000000000000e+00 
0.0000000000000000e+00 0.0000000000000000e+00 0.0000000000000000e+00 
0.0000000000000000e+00 0.0000000000000000e+00 0.0000000000000000e+00 
0.0000000000000000e+00 0.0000000000000000e+00 0.0000000000000000e+00 
0.0000000000000000e+00 0.0000000000000000e+00 0.0000000000000000e+00 
0.0000000000000000e+00 0.0000000000000000e+00 0.0000000000000000e+00 
0.0000000000000000e+00 0.0000000000000000e+00 0.0000000000000000e+00 
0.0000000000000000e+00 0.0000000000000000e+00 0.0000000000000000e+00 
0.0000000000000000e+00 0.0000000000000000e+00 0.0000000000000000e+00 
0.0000000000000000e+00 0.0000000000000000e+00 0.0000000000000000e+00 

SCALARS Temperature double
LOOKUP_TABLE default
3.0205856096253029e+02
3.0217413064089942e+02
3.0227157307747808e+02
3.0235676796491470e+02
3.0243264384648791e+02
3.0250081686675691e+02
3.0256221589784457e+02
3.0261733952066754e+02
3.0266634914319798e+02
3.0270905026355689e+02
3.0274471672298523e+02
3.0277151649993954e+02
3.0277201677836138e+02
3.0279283152769307e+02
3.0281672465765934e+02
3.0284182325694559e+02
3.0286721650047883e+02
3.0289237503019820e+02
3.0291693083514366e+02
3.0294056687155700e+02
3.0296292282353085e+02
3.0298342562067637e+02
3.0299820409973222e+02
3.0301739525297785e+02
3.0303721123006761e+02
3.0305715247287100e+02
3.0307695699753174e+02
3.0309645421629250e+02
3.0311550857648746e+02
3.0313398690866228e+02
3.0315172141569536e+02
3.0316842647434714e+02
3.0318227054741055e+02
3.0319810810557919e+02
3.0321414443829246e+02
3.0323011985196354e+02
3.0324589597573180e+02
3.0326137803814339e+02
3.0327648406014180e+02
3.0329112197615950e+02
3.0330514796602716e+02
3.0331775865829633e+02
3.0333106006997241e+02
3.0334426514831739e+02
3.0335724093678550e+02
3.0336990666148176e+02
3.0338219289478712e+02
3.0339401659899164e+02
3.0340523580467453e+02
3.0341502511275928e+02
3.0342561383836937e+02
3.0343619525417597e+02
3.0344664152490026e+02
3.0345688651955800e+02
3.0346688376348465e+02
3.0347658557046418e+02
3.0348582285352609e+02
3.0349500199641000e+02
3.0350396155681676e+02
3.0351266564692042e+02
3.0352108777982426e+02
3.0352919765379932e+02
3.0353694193772009e+02
3.0354401606822552e+02
3.0355126735856493e+02
3.0355840074621852e+02
3.0356537318575897e+02
3.0357216957946969e+02
3.0357878842249664e+02
3.0358524286642205e+02
3.0359163943494946e+02
3.0359767020883316e+02
3.0360344256584489e+02
3.0360897552318352e+02
3.0361427933081825e+02
3.0361936114882627e+02
3.0362422411441054e+02
3.0362888339679301e+02
3.0363334146696576e+02
3.0363760321182866e+02
3.0364167202884113e+02
3.0364553116774732e+02
3.0364926173289422e+02
3.0365285065171844e+02
3.0365630895768390e+02
3.0365965663803507e+02
3.0366293238474680e+02
3.0366632432955447e+02
3.0366932697215634e+02
3.0367212730744444e+02
3.0367476935077860e+02
3.0367728907968342e+02
3.0367978690648300e+02
3.0368203178046775e+02
3.0368411968434987e+02
3.0368607885442071e+02
3.0368793397435189e+02
3.0368974331873858e+02
3.0369139654904268e+02
3.0369295519964777e+02
3.0369445817070726e+02
3.0369604522051179e+02
3.0369735639556717e+02
3.0369852705186406e+02
3.0369959037312753e+02
3.0370057284044253e+02
3.0370154723786243e+02
3.0370233976037667e+02
3.0370301706488812e+02
3.0370359317224592e+02
3.0370406598289134e+02
3.0370447372288271e+02
3.0370481115170952e+02
3.0370508372125602e+02
3.0370532174356993e+02
3.0370543314487929e+02
3.0370544359465441e+02
3.0370534856785633e+02
3.0370510873953731e+02
3.0370482548400832e+02
3.0370445291691476e+02
3.0370396678490209e+02
3.0370330052508575e+02
3.0370259334466857e+02
3.0370177253480830e+02
3.0370078577598235e+02
3.0369966715572616e+02
3.0369835466595356e+02
3.0369677953079793e+02
3.0369472069073356e+02
3.0369264699247714e+02
3.0369028929346098e+02
3.0368725807967536e+02
3.0368442853421163e+02
3.0368143439268090e+02
3.0367816481315703e+02
3.0367459669259875e+02
3.0367037278425170e+02
3.0366541326525004e+02
3.0365928868875949e+02
3.0365284732360828e+02
3.0364559903144732e+02
3.0363712156346867e+02
3.0362788201881801e+02
3.0361747470860479e+02
3.0360566069966069e+02
3.0359225157627259e+02
3.0357714764791859e+02
3.0356133511738216e+02
3.0353986612459914e+02
3.0351194873689093e+02
3.0348314077335863e+02
3.0345190328994306e+02
3.0342133020052643e+02
3.0337980486552510e+02
3.0333213917016587e+02
3.0329036911142003e+02
3.0322047093709671e+02
3.0316377408823098e+02
3.0299629413050025e+02
3.0272573386093148e+02

SCALARS Heat-Flux double
LOOKUP_TABLE default
3.9608085883679441e+03
3.9608085883679441e+03
3.9608085883679441e+03
3.9608085883679441e+03
3.9608085883679441e+03
3.9608085883679441e+03
3.9608085883679441e+03
3.9608085883679441e+03
3.9608085883679441e+03
3.9608085883679441e+03
3.9608085883679441e+03
3.9608085883679441e+03
2.8817670426440600e+03
2.8817670426440600e+03
2.8817670426440600e+03
2.8817670426440600e+03
2.8817670426440600e+03
2.8817670426440600e+03
2.8817670426440600e+03
2.8817670426440600e+03
2.8817670426440600e+03
2.8817670426440600e+03
2.6615964941920538e+03
2.6615964941920538e+03
2.6615964941920538e+03
2.6615964941920538e+03
2.6615964941920538e+03
2.6615964941920538e+03
2.6615964941920538e+03
2.6615964941920538e+03
2.6615964941920538e+03
2.6615964941920538e+03
2.5637720652259304e+03
2.5637720652259304e+03
2.5637720652259304e+03
2.5637720652259304e+03
2.5637720652259304e+03
2.5637720652259304e+03
2.5637720652259304e+03
2.5637720652259304e+03
2.5637720652259304e+03
2.5240077019858290e+03
2.5240077019858290e+03
2.5240077019858290e+03
2.5240077019858290e+03
2.5240077019858290e+03
2.5240077019858290e+03
2.5240077019858290e+03
2.5240077019858290e+03
2.4848035241171601e+03
2.4848035241171601e+03
2.4848035241171601e+03
2.4848035241171601e+03
2.4848035241171601e+03
2.4848035241171601e+03
2.4848035241171601e+03
2.4778606266008865e+03
2.4778606266008865e+03
2.4778606266008865e+03
2.4778606266008865e+03
2.4778606266008865e+03
2.4778606266008865e+03
2.4778606266008865e+03
2.4646894712517678e+03
2.4646894712517678e+03
2.4646894712517678e+03
2.4646894712517678e+03
2.4646894712517678e+03
2.4646894712517678e+03
2.4646894712517678e+03
2.4691756998639903e+03
2.4691756998639903e+03
2.4691756998639903e+03
2.4691756998639903e+03
2.4691756998639903e+03
2.4691756998639903e+03
2.4690411668962042e+03
2.4690411668962042e+03
2.4690411668962042e+03
2.4690411668962042e+03
2.4690411668962042e+03
2.4680845397902885e+03
2.4680845397902885e+03
2.4680845397902885e+03
2.4680845397902885e+03
2.4680845397902885e+03
2.4680845397902885e+03
2.4745339272456476e+03
2.4745339272456476e+03
2.4745339272456476e+03
2.4745339272456476e+03
2.4745339272456476e+03
2.4774526677618269e+03
2.4774526677618269e+03
2.4774526677618269e+03
2.4774526677618269e+03
2.4774526677618269e+03
2.4788811841775896e+03
2.4788811841775896e+03
2.4788811841775896e+03
2.4788811841775896e+03
2.4829568861765438e+03
2.4829568861765438e+03
2.4829568861765438e+03
2.4829568861765438e+03
2.4829568861765438e+03
2.4848606169078266e+03
2.4848606169078266e+03
2.4848606169078266e+03
2.4848606169078266e+03
2.4845332518540090e+03
2.4845332518540090e+03
2.4845332518540090e+03
2.4845332518540090e+03
2.4854103193552874e+03
2.4854103193552874e+03
2.4854103193552874e+03
2.4854103193552874e+03
2.4844051504675008e+03
2.4844051504675008e+03
2.4844051504675008e+03
2.4844051504675008e+03
2.4830068878392922e+03
2.4830068878392922e+03
2.4830068878392922e+03
2.4824374708558025e+03
2.4824374708558025e+03
2.4824374708558025e+03
2.4824374708558025e+03
2.4780054179020226e+03
2.4780054179020226e+03
2.4780054179020226e+03
2.4703542940187617e+03
2.4703542940187617e+03
2.4703542940187617e+03
2.4703542940187617e+03
2.4722601567169477e+03
2.4722601567169477e+03
2.4722601567169477e+03
2.4647970023848757e+03
2.4647970023848757e+03
2.4647970023848757e+03
2.4599570661674079e+03
2.4599570661674079e+03
2.4599570661674079e+03