# vtk DataFile Version 2.0

ASCII

DATASET UNSTRUCTURED_GRID

POINTS 161 float 

1.2479480269999997e-03  0.0000000000000000e+00  2.0000000000000004e-01
3.7564605215000004e-03  0.0000000000000000e+00  2.0000000000000001e-01
6.2903334465000014e-03  0.0000000000000000e+00  2.0000000000000004e-01
8.8498231920000007e-03  0.0000000000000000e+00  2.0000000000000004e-01
1.1435188734999997e-02  0.0000000000000000e+00  2.0000000000000001e-01
1.4046691670000002e-02  0.0000000000000000e+00  2.0000000000000001e-01
1.6684596245000002e-02  0.0000000000000000e+00  2.0000000000000001e-01
1.9349169374999996e-02  0.0000000000000000e+00  1.9999999999999998e-01
2.2040680664999996e-02  0.0000000000000000e+00  2.0000000000000001e-01
2.4759402454999999e-02  0.0000000000000000e+00  1.9999999999999998e-01
2.7505609844999997e-02  0.0000000000000000e+00  2.0000000000000001e-01
3.0279580699999999e-02  0.0000000000000000e+00  2.0000000000000001e-01
3.3081595699999994e-02  0.0000000000000000e+00  2.0000000000000001e-01
3.5911938370000000e-02  0.0000000000000000e+00  2.0000000000000004e-01
3.8770895094999994e-02  0.0000000000000000e+00  2.0000000000000004e-01
4.1658755154999998e-02  0.0000000000000000e+00  2.0000000000000001e-01
4.4575810750000000e-02  0.0000000000000000e+00  2.0000000000000004e-01
4.7522357044999998e-02  0.0000000000000000e+00  2.0000000000000001e-01
5.0498692184999992e-02  0.0000000000000000e+00  2.0000000000000001e-01
5.3505117319999997e-02  0.0000000000000000e+00  2.0000000000000001e-01
5.6541936659999993e-02  0.0000000000000000e+00  2.0000000000000004e-01
5.9609457479999996e-02  0.0000000000000000e+00  2.0000000000000001e-01
6.2707990165000005e-02  0.0000000000000000e+00  2.0000000000000001e-01
6.5837848234999982e-02  0.0000000000000000e+00  1.9999999999999998e-01
6.8999348380000006e-02  0.0000000000000000e+00  2.0000000000000001e-01
7.2192810504999996e-02  0.0000000000000000e+00  2.0000000000000004e-01
7.5418557725000002e-02  0.0000000000000000e+00  2.0000000000000004e-01
7.8676916434999994e-02  0.0000000000000000e+00  2.0000000000000004e-01
8.1968216339999997e-02  0.0000000000000000e+00  2.0000000000000001e-01
8.5292790460000004e-02  0.0000000000000000e+00  2.0000000000000001e-01
8.8650975185000008e-02  0.0000000000000000e+00  2.0000000000000001e-01
9.2043110309999981e-02  0.0000000000000000e+00  2.0000000000000001e-01
9.5469539070000012e-02  0.0000000000000000e+00  2.0000000000000004e-01
9.8930608189999977e-02  0.0000000000000000e+00  2.0000000000000004e-01
1.0242666780000000e-01  0.0000000000000000e+00  2.0000000000000004e-01
1.0595807170000000e-01  0.0000000000000000e+00  1.9999999999999998e-01
1.0952517724999998e-01  0.0000000000000000e+00  2.0000000000000001e-01
1.1312834529999997e-01  0.0000000000000000e+00  2.0000000000000001e-01
1.1676794049999999e-01  0.0000000000000000e+00  2.0000000000000001e-01
1.2044433110000000e-01  0.0000000000000000e+00  2.0000000000000001e-01
1.2415788905000000e-01  0.0000000000000000e+00  2.0000000000000001e-01
1.2790899015000001e-01  0.0000000000000000e+00  2.0000000000000004e-01
1.3169801395000000e-01  0.0000000000000000e+00  1.9999999999999998e-01
1.3552534380000000e-01  0.0000000000000000e+00  2.0000000000000004e-01
1.3939136699999999e-01  0.0000000000000000e+00  2.0000000000000001e-01
1.4329647475000001e-01  0.0000000000000000e+00  2.0000000000000004e-01
1.4724106214999999e-01  0.0000000000000000e+00  1.9999999999999998e-01
1.5122552830000000e-01  0.0000000000000000e+00  2.0000000000000001e-01
1.5525027640000000e-01  0.0000000000000000e+00  2.0000000000000001e-01
1.5931571375000000e-01  0.0000000000000000e+00  1.9999999999999998e-01
1.6342225165000002e-01  0.0000000000000000e+00  2.0000000000000004e-01
1.6757030559999997e-01  0.0000000000000000e+00  2.0000000000000001e-01
1.7176029529999998e-01  0.0000000000000000e+00  2.0000000000000004e-01
1.7599264474999998e-01  0.0000000000000000e+00  2.0000000000000004e-01
1.8026778220000000e-01  0.0000000000000000e+00  2.0000000000000001e-01
1.8458614020000003e-01  0.0000000000000000e+00  2.0000000000000004e-01
1.8894815575000001e-01  0.0000000000000000e+00  2.0000000000000001e-01
1.9335427015000003e-01  0.0000000000000000e+00  2.0000000000000001e-01
1.9780492924999996e-01  0.0000000000000000e+00  2.0000000000000001e-01
2.0230058344999999e-01  0.0000000000000000e+00  2.0000000000000001e-01
2.0684168754999999e-01  0.0000000000000000e+00  2.0000000000000001e-01
2.1142870105000000e-01  0.0000000000000000e+00  2.0000000000000001e-01
2.1606208815000000e-01  0.0000000000000000e+00  2.0000000000000001e-01
2.2074231759999996e-01  0.0000000000000000e+00  1.9999999999999998e-01
2.2546986299999996e-01  0.0000000000000000e+00  2.0000000000000001e-01
2.3024520269999998e-01  0.0000000000000000e+00  2.0000000000000004e-01
2.3506881985000003e-01  0.0000000000000000e+00  1.9999999999999998e-01
2.3994120254999998e-01  0.0000000000000000e+00  2.0000000000000001e-01
2.4486284384999998e-01  0.0000000000000000e+00  2.0000000000000001e-01
2.4983424174999996e-01  0.0000000000000000e+00  1.9999999999999998e-01
2.5485589919999996e-01  0.0000000000000000e+00  2.0000000000000004e-01
2.5992832429999996e-01  0.0000000000000000e+00  2.0000000000000004e-01
2.6505203035000002e-01  0.0000000000000000e+00  2.0000000000000001e-01
2.7022753580000008e-01  0.0000000000000000e+00  2.0000000000000004e-01
2.7545536429999989e-01  0.0000000000000000e+00  2.0000000000000001e-01
2.8073604484999998e-01  0.0000000000000000e+00  2.0000000000000001e-01
2.8607011174999997e-01  0.0000000000000000e+00  2.0000000000000001e-01
2.9145810470000000e-01  0.0000000000000000e+00  2.0000000000000001e-01
2.9690056894999994e-01  0.0000000000000000e+00  2.0000000000000004e-01
3.0239805515000001e-01  0.0000000000000000e+00  2.0000000000000001e-01
3.0795111949999998e-01  0.0000000000000000e+00  2.0000000000000001e-01
3.1356032395000000e-01  0.0000000000000000e+00  2.0000000000000001e-01
3.1922623605000000e-01  0.0000000000000000e+00  2.0000000000000004e-01
3.2494942910000002e-01  0.0000000000000000e+00  2.0000000000000001e-01
3.3073048220000001e-01  0.0000000000000000e+00  2.0000000000000001e-01
3.3656998030000002e-01  0.0000000000000000e+00  2.0000000000000001e-01
3.4246851424999997e-01  0.0000000000000000e+00  2.0000000000000001e-01
3.4842668090000001e-01  0.0000000000000000e+00  1.9999999999999998e-01
3.5444508315000001e-01  0.0000000000000000e+00  1.9999999999999998e-01
3.6052432990000000e-01  0.0000000000000000e+00  2.0000000000000001e-01
3.6666503630000002e-01  0.0000000000000000e+00  2.0000000000000004e-01
3.7286782369999993e-01  0.0000000000000000e+00  2.0000000000000001e-01
3.7913331969999992e-01  0.0000000000000000e+00  2.0000000000000001e-01
3.8546215830000002e-01  0.0000000000000000e+00  2.0000000000000001e-01
3.9185497989999996e-01  0.0000000000000000e+00  2.0000000000000001e-01
3.9831243130000005e-01  0.0000000000000000e+00  2.0000000000000001e-01
4.0483516589999996e-01  0.0000000000000000e+00  2.0000000000000001e-01
4.1142384369999990e-01  0.0000000000000000e+00  2.0000000000000004e-01
4.1807913139999997e-01  0.0000000000000000e+00  2.0000000000000001e-01
4.2480170239999998e-01  0.0000000000000000e+00  1.9999999999999998e-01
4.3159223684999998e-01  0.0000000000000000e+00  2.0000000000000001e-01
4.3845142189999992e-01  0.0000000000000000e+00  2.0000000000000001e-01
4.4537995159999993e-01  0.0000000000000000e+00  1.9999999999999998e-01
4.5237852700000009e-01  0.0000000000000000e+00  2.0000000000000004e-01
4.5944785625000001e-01  0.0000000000000000e+00  2.0000000000000004e-01
4.6658865464999993e-01  0.0000000000000000e+00  2.0000000000000001e-01
4.7380164474999992e-01  0.0000000000000000e+00  2.0000000000000001e-01
4.8108755635000006e-01  0.0000000000000000e+00  2.0000000000000004e-01
4.8844712664999984e-01  0.0000000000000000e+00  1.9999999999999998e-01
4.9588110034999994e-01  0.0000000000000000e+00  2.0000000000000001e-01
5.0339022965000002e-01  0.0000000000000000e+00  2.0000000000000001e-01
5.1097527440000001e-01  0.0000000000000000e+00  1.9999999999999998e-01
5.1863700204999996e-01  0.0000000000000000e+00  1.9999999999999998e-01
5.2637618780000006e-01  0.0000000000000000e+00  2.0000000000000004e-01
5.3419361479999994e-01  0.0000000000000000e+00  2.0000000000000001e-01
5.4209007400000009e-01  0.0000000000000000e+00  2.0000000000000001e-01
5.5006636439999990e-01  0.0000000000000000e+00  2.0000000000000004e-01
5.5812329314999998e-01  0.0000000000000000e+00  2.0000000000000004e-01
5.6626167539999994e-01  0.0000000000000000e+00  1.9999999999999998e-01
5.7448233464999998e-01  0.0000000000000000e+00  2.0000000000000004e-01
5.8278610269999997e-01  0.0000000000000000e+00  2.0000000000000001e-01
5.9117381974999994e-01  0.0000000000000000e+00  2.0000000000000001e-01
5.9964633454999994e-01  0.0000000000000000e+00  2.0000000000000001e-01
6.0820450430000006e-01  0.0000000000000000e+00  2.0000000000000004e-01
6.1684919499999991e-01  0.0000000000000000e+00  2.0000000000000004e-01
6.2558128135000002e-01  0.0000000000000000e+00  2.0000000000000001e-01
6.3440164689999989e-01  0.0000000000000000e+00  1.9999999999999998e-01
6.4331118415000010e-01  0.0000000000000000e+00  2.0000000000000004e-01
6.5231079455000007e-01  0.0000000000000000e+00  2.0000000000000004e-01
6.6140138875000010e-01  0.0000000000000000e+00  2.0000000000000001e-01
6.7058388660000001e-01  0.0000000000000000e+00  2.0000000000000004e-01
6.7985921719999987e-01  0.0000000000000000e+00  2.0000000000000001e-01
6.8922831899999992e-01  0.0000000000000000e+00  2.0000000000000001e-01
6.9869214009999991e-01  0.0000000000000000e+00  2.0000000000000001e-01
7.0825163804999991e-01  0.0000000000000000e+00  1.9999999999999998e-01
7.1790778009999989e-01  0.0000000000000000e+00  2.0000000000000004e-01
7.2766154335000000e-01  0.0000000000000000e+00  2.0000000000000004e-01
7.3751391470000005e-01  0.0000000000000000e+00  2.0000000000000001e-01
7.4746589105000005e-01  0.0000000000000000e+00  2.0000000000000004e-01
7.5751847934999994e-01  0.0000000000000000e+00  1.9999999999999998e-01
7.6767269680000005e-01  0.0000000000000000e+00  2.0000000000000004e-01
7.7792957085000014e-01  0.0000000000000000e+00  2.0000000000000004e-01
7.8829013930000025e-01  0.0000000000000000e+00  2.0000000000000007e-01
7.9875545049999996e-01  0.0000000000000000e+00  2.0000000000000001e-01
8.0932656339999998e-01  0.0000000000000000e+00  2.0000000000000004e-01
8.2000454754999996e-01  0.0000000000000000e+00  2.0000000000000001e-01
8.3079048344999984e-01  0.0000000000000000e+00  2.0000000000000001e-01
8.4168546244999998e-01  0.0000000000000000e+00  1.9999999999999998e-01
8.5269058695000000e-01  0.0000000000000000e+00  2.0000000000000001e-01
8.6380697049999988e-01  0.0000000000000000e+00  2.0000000000000001e-01
8.7503573784999988e-01  0.0000000000000000e+00  2.0000000000000001e-01
8.8637802524999998e-01  0.0000000000000000e+00  1.9999999999999998e-01
8.9783498034999998e-01  0.0000000000000000e+00  2.0000000000000001e-01
9.0940776234999998e-01  0.0000000000000000e+00  2.0000000000000001e-01
9.2109754224999985e-01  0.0000000000000000e+00  2.0000000000000004e-01
9.3290550294999997e-01  0.0000000000000000e+00  2.0000000000000001e-01
9.4483283914999994e-01  0.0000000000000000e+00  2.0000000000000001e-01
9.5688075770000003e-01  0.0000000000000000e+00  1.9999999999999998e-01
9.6905047765000007e-01  0.0000000000000000e+00  2.0000000000000001e-01
9.8134323039999993e-01  0.0000000000000000e+00  2.0000000000000001e-01
9.9376025984999994e-01  0.0000000000000000e+00  1.9999999999999998e-01

CELLS 0 0


CELL_TYPES 0


POINT_DATA 161

VECTORS VertexNormals float

0.0000000000000000e+00 0.0000000000000000e+00 0.0000000000000000e+00 
0.0000000000000000e+00 0.0000000000000000e+00 0.0000000000000000e+00 
0.0000000000000000e+00 0.0000000000000000e+00 0.0000000000000000e+00 
0.0000000000000000e+00 0.0000000000000000e+00 0.0000000000000000e+00 
0.0000000000000000e+00 0.0000000000000000e+00 0.0000000000000000e+00 
0.0000000000000000e+00 0.0000000000000000e+00 0.0000000000000000e+00 
0.0000000000000000e+00 0.0000000000000000e+00 0.0000000000000000e+00 
0.0000000000000000e+00 0.0000000000000000e+00 0.0000000000000000e+00 
0.0000000000000000e+00 0.0000000000000000e+00 0.0000000000000000e+00 
0.0000000000000000e+00 0.0000000000000000e+00 0.0000000000000000e+00 
0.0000000000000000e+00 0.0000000000000000e+00 0.0000000000000000e+00 
0.0000000000000000e+00 0.0000000000000000e+00 0.0000000000000000e+00 
0.0000000000000000e+00 0.0000000000000000e+00 0.0000000000000000e+00 
0.0000000000000000e+00 0.0000000000000000e+00 0.0000000000000000e+00 
0.0000000000000000e+00 0.0000000000000000e+00 0.0000000000000000e+00 
0.0000000000000000e+00 0.0000000000000000e+00 0.0000000000000000e+00 
0.0000000000000000e+00 0.0000000000000000e+00 0.0000000000000000e+00 
0.0000000000000000e+00 0.0000000000000000e+00 0.0000000000000000e+00 
0.0000000000000000e+00 0.0000000000000000e+00 0.0000000000000000e+00 
0.0000000000000000e+00 0.0000000000000000e+00 0.0000000000000000e+00 
0.0000000000000000e+00 0.0000000000000000e+00 0.0000000000000000e+00 
0.0000000000000000e+00 0.0000000000000000e+00 0.0000000000000000e+00 
0.0000000000000000e+00 0.0000000000000000e+00 0.0000000000000000e+00 
0.0000000000000000e+00 0.0000000000000000e+00 0.0000000000000000e+00 
0.0000000000000000e+00 0.0000000000000000e+00 0.0000000000000000e+00 
0.0000000000000000e+00 0.0000000000000000e+00 0.0000000000000000e+00 
0.0000000000000000e+00 0.0000000000000000e+00 0.0000000000000000e+00 
0.0000000000000000e+00 0.0000000000000000e+00 0.0000000000000000e+00 
0.0000000000000000e+00 0.0000000000000000e+00 0.0000000000000000e+00 
0.0000000000000000e+00 0.0000000000000000e+00 0.0000000000000000e+00 
0.0000000000000000e+00 0.0000000000000000e+00 0.0000000000000000e+00 
0.0000000000000000e+00 0.0000000000000000e+00 0.0000000000000000e+00 
0.0000000000000000e+00 0.0000000000000000e+00 0.0000000000000000e+00 
0.0000000000000000e+00 0.0000000000000000e+00 0.0000000000000000e+00 
0.0000000000000000e+00 0.0000000000000000e+00 0.0000000000000000e+00 
0.0000000000000000e+00 0.0000000000000000e+00 0.0000000000000000e+00 
0.0000000000000000e+00 0.0000000000000000e+00 0.0000000000000000e+00 
0.0000000000000000e+00 0.0000000000000000e+00 0.0000000000000000e+00 
0.0000000000000000e+00 0.0000000000000000e+00 0.0000000000000000e+00 
0.0000000000000000e+00 0.0000000000000000e+00 0.0000000000000000e+00 
0.0000000000000000e+00 0.0000000000000000e+00 0.0000000000000000e+00 
0.0000000000000000e+00 0.0000000000000000e+00 0.0000000000000000e+00 
0.0000000000000000e+00 0.0000000000000000e+00 0.0000000000000000e+00 
0.0000000000000000e+00 0.0000000000000000e+00 0.0000000000000000e+00 
0.0000000000000000e+00 0.0000000000000000e+00 0.0000000000000000e+00 
0.0000000000000000e+00 0.0000000000000000e+00 0.0000000000000000e+00 
0.0000000000000000e+00 0.0000000000000000e+00 0.0000000000000000e+00 
0.0000000000000000e+00 0.0000000000000000e+00 0.0000000000000000e+00 
0.0000000000000000e+00 0.0000000000000000e+00 0.0000000000000000e+00 
0.0000000000000000e+00 0.0000000000000000e+00 0.0000000000000000e+00 
0.0000000000000000e+00 0.0000000000000000e+00 0.0000000000000000e+00 
0.0000000000000000e+00 0.0000000000000000e+00 0.0000000000000000e+00 
0.0000000000000000e+00 0.0000000000000000e+00 0.0000000000000000e+00 
0.0000000000000000e+00 0.0000000000000000e+00 0.0000000000000000e+00 
0.0000000000000000e+00 0.0000000000000000e+00 0.0000000000000000e+00 
0.0000000000000000e+00 0.0000000000000000e+00 0.0000000000000000e+00 
0.0000000000000000e+00 0.0000000000000000e+00 0.0000000000000000e+00 
0.0000000000000000e+00 0.0000000000000000e+00 0.0000000000000000e+00 
0.0000000000000000e+00 0.0000000000000000e+00 0.0000000000000000e+00 
0.0000000000000000e+00 0.0000000000000000e+00 0.0000000000000000e+00 
0.0000000000000000e+00 0.0000000000000000e+00 0.0000000000000000e+00 
0.0000000000000000e+00 0.0000000000000000e+00 0.0000000000000000e+00 
0.0000000000000000e+00 0.0000000000000000e+00 0.0000000000000000e+00 
0.0000000000000000e+00 0.0000000000000000e+00 0.0000000000000000e+00 
0.0000000000000000e+00 0.0000000000000000e+00 0.0000000000000000e+00 
0.0000000000000000e+00 0.0000000000000000e+00 0.0000000000000000e+00 
0.0000000000000000e+00 0.0000000000000000e+00 0.0000000000000000e+00 
0.0000000000000000e+00 0.0000000000000000e+00 0.0000000000000000e+00 
0.0000000000000000e+00 0.0000000000000000e+00 0.0000000000000000e+00 
0.0000000000000000e+00 0.0000000000000000e+00 0.0000000000000000e+00 
0.0000000000000000e+00 0.0000000000000000e+00 0.0000000000000000e+00 
0.0000000000000000e+00 0.0000000000000000e+00 0.0000000000000000e+00 
0.0000000000000000e+00 0.0000000000000000e+00 0.0000000000000000e+00 
0.0000000000000000e+00 0.0000000000000000e+00 0.0000000000000000e+00 
0.0000000000000000e+00 0.0000000000000000e+00 0.0000000000000000e+00 
0.0000000000000000e+00 0.0000000000000000e+00 0.0000000000000000e+00 
0.0000000000000000e+00 0.0000000000000000e+00 0.0000000000000000e+00 
0.0000000000000000e+00 0.0000000000000000e+00 0.0000000000000000e+00 
0.0000000000000000e+00 0.0000000000000000e+00 0.0000000000000000e+00 
0.0000000000000000e+00 0.0000000000000000e+00 0.0000000000000000e+00 
0.0000000000000000e+00 0.0000000000000000e+00 0.0000000000000000e+00 
0.0000000000000000e+00 0.0000000000000000e+00 0.0000000000000000e+00 
0.0000000000000000e+00 0.0000000000000000e+00 0.0000000000000000e+00 
0.0000000000000000e+00 0.0000000000000000e+00 0.0000000000000000e+00 
0.0000000000000000e+00 0.0000000000000000e+00 0.0000000000000000e+00 
0.0000000000000000e+00 0.0000000000000000e+00 0.0000000000000000e+00 
0.0000000000000000e+00 0.0000000000000000e+00 0.0000000000000000e+00 
0.0000000000000000e+00 0.0000000000000000e+00 0.0000000000000000e+00 
0.0000000000000000e+00 0.0000000000000000e+00 0.0000000000000000e+00 
0.0000000000000000e+00 0.0000000000000000e+00 0.0000000000000000e+00 
0.0000000000000000e+00 0.0000000000000000e+00 0.0000000000000000e+00 
0.0000000000000000e+00 0.0000000000000000e+00 0.0000000000000000e+00 
0.0000000000000000e+00 0.0000000000000000e+00 0.0000000000000000e+00 
0.0000000000000000e+00 0.0000000000000000e+00 0.0000000000000000e+00 
0.0000000000000000e+00 0.0000000000000000e+00 0.0000000000000000e+00 
0.0000000000000000e+00 0.0000000000000000e+00 0.0000000000000000e+00 
0.0000000000000000e+00 0.0000000000000000e+00 0.0000000000000000e+00 
0.0000000000000000e+00 0.0000000000000000e+00 0.0000000000000000e+00 
0.0000000000000000e+00 0.0000000000000000e+00 0.0000000000000000e+00 
0.0000000000000000e+00 0.0000000000000000e+00 0.0000000000000000e+00 
0.0000000000000000e+00 0.0000000000000000e+00 0.0000000000000000e+00 
0.0000000000000000e+00 0.0000000000000000e+00 0.0000000000000000e+00 
0.0000000000000000e+00 0.0000000000000000e+00 0.0000000000000000e+00 
0.0000000000000000e+00 0.0000000000000000e+00 0.0000000000000000e+00 
0.0000000000000000e+00 0.0000000000000000e+00 0.0000000000000000e+00 
0.0000000000000000e+00 0.0000000000000000e+00 0.0000000000000000e+00 
0.0000000000000000e+00 0.0000000000000000e+00 0.0000000000000000e+00 
0.0000000000000000e+00 0.0000000000000000e+00 0.0000000000000000e+00 
0.0000000000000000e+00 0.0000000000000000e+00 0.0000000000000000e+00 
0.0000000000000000e+00 0.0000000000000000e+00 0.0000000000000000e+00 
0.0000000000000000e+00 0.0000000000000000e+00 0.0000000000000000e+00 
0.0000000000000000e+00 0.0000000000000000e+00 0.0000000000000000e+00 
0.0000000000000000e+00 0.0000000000000000e+00 0.0000000000000000e+00 
0.0000000000000000e+00 0.0000000000000000e+00 0.0000000000000000e+00 
0.0000000000000000e+00 0.0000000000000000e+00 0.0000000000000000e+00 
0.0000000000000000e+00 0.0000000000000000e+00 0.0000000000000000e+00 
0.0000000000000000e+00 0.0000000000000000e+00 0.0000000000000000e+00 
0.0000000000000000e+00 0.0000000000000000e+00 0.0000000000000000e+00 
0.0000000000000000e+00 0.0000000000000000e+00 0.0000000000000000e+00 
0.0000000000000000e+00 0.0000000000000000e+00 0.0000000000000000e+00 
0.0000000000000000e+00 0.0000000000000000e+00 0.0000000000000000e+00 
0.0000000000000000e+00 0.0000000000000000e+00 0.0000000000000000e+00 
0.0000000000000000e+00 0.0000000000000000e+00 0.0000000000000000e+00 
0.0000000000000000e+00 0.0000000000000000e+00 0.0000000000000000e+00 
0.0000000000000000e+00 0.0000000000000000e+00 0.0000000000000000e+00 
0.0000000000000000e+00 0.0000000000000000e+00 0.0000000000000000e+00 
0.0000000000000000e+00 0.0000000000000000e+00 0.0000000000000000e+00 
0.0000000000000000e+00 0.0000000000000000e+00 0.0000000000000000e+00 
0.0000000000000000e+00 0.0000000000000000e+00 0.0000000000000000e+00 
0.0000000000000000e+00 0.0000000000000000e+00 0.0000000000000000e+00 
0.0000000000000000e+00 0.0000000000000000e+00 0.0000000000000000e+00 
0.0000000000000000e+00 0.0000000000000000e+00 0.0000000000000000e+00 
0.0000000000000000e+00 0.0000000000000000e+00 0.0000000000000000e+00 
0.0000000000000000e+00 0.0000000000000000e+00 0.0000000000000000e+00 
0.0000000000000000e+00 0.0000000000000000e+00 0.0000000000000000e+00 
0.0000000000000000e+00 0.0000000000000000e+00 0.0000000000000000e+00 
0.0000000000000000e+00 0.0000000000000000e+00 0.0000000000000000e+00 
0.0000000000000000e+00 0.0000000000000000e+00 0.0000000000000000e+00 
0.0000000000000000e+00 0.0000000000000000e+00 0.0000000000000000e+00 
0.0000000000000000e+00 0.0000000000000000e+00 0.0000000000000000e+00 
0.0000000000000000e+00 0.0000000000000000e+00 0.0000000000000000e+00 
0.0000000000000000e+00 0.0000000000000000e+00 0.0000000000000000e+00 
0.0000000000000000e+00 0.0000000000000000e+00 0.0000000000000000e+00 
0.0000000000000000e+00 0.0000000000000000e+00 0.0000000000000000e+00 
0.0000000000000000e+00 0.0000000000000000e+00 0.0000000000000000e+00 
0.0000000000000000e+00 0.0000000000000000e+00 0.0000000000000000e+00 
0.0000000000000000e+00 0.0000000000000000e+00 0.0000000000000000e+00 
0.0000000000000000e+00 0.0000000000000000e+00 0.0000000000000000e+00 
0.0000000000000000e+00 0.0000000000000000e+00 0.0000000000000000e+00 
0.0000000000000000e+00 0.0000000000000000e+00 0.0000000000000000e+00 
0.0000000000000000e+00 0.0000000000000000e+00 0.0000000000000000e+00 
0.0000000000000000e+00 0.0000000000000000e+00 0.0000000000000000e+00 
0.0000000000000000e+00 0.0000000000000000e+00 0.0000000000000000e+00 
0.0000000000000000e+00 0.0000000000000000e+00 0.0000000000000000e+00 
0.0000000000000000e+00 0.0000000000000000e+00 0.0000000000000000e+00 
0.0000000000000000e+00 0.0000000000000000e+00 0.0000000000000000e+00 
0.0000000000000000e+00 0.0000000000000000e+00 0.0000000000000000e+00 
0.0000000000000000e+00 0.0000000000000000e+00 0.0000000000000000e+00 
0.0000000000000000e+00 0.0000000000000000e+00 0.0000000000000000e+00 
0.0000000000000000e+00 0.0000000000000000e+00 0.0000000000000000e+00 
0.0000000000000000e+00 0.0000000000000000e+00 0.0000000000000000e+00 

SCALARS Temperature float
LOOKUP_TABLE default
3.0223962582485746e+02
3.0235704134117799e+02
3.0245637714066720e+02
3.0254348451099759e+02
3.0262127352277901e+02
3.0269134497388666e+02
3.0275461255761491e+02
3.0281155786141932e+02
3.0286232121686334e+02
3.0290667906949517e+02
3.0294385961362622e+02
3.0297194533817083e+02
3.0297281945282072e+02
3.0299487863139501e+02
3.0302021346072337e+02
3.0304686925856458e+02
3.0307389048634337e+02
3.0310071740873138e+02
3.0312695689498344e+02
3.0315226662927881e+02
3.0317625456263954e+02
3.0319829536177178e+02
3.0321416901793549e+02
3.0323491966350963e+02
3.0325641708778346e+02
3.0327811397019047e+02
3.0329972158006200e+02
3.0332105040203112e+02
3.0334194847885504e+02
3.0336226527987236e+02
3.0338181002181227e+02
3.0340025706685049e+02
3.0341551767034628e+02
3.0343312672771970e+02
3.0345103642823358e+02
3.0346894875315473e+02
3.0348670334569545e+02
3.0350418862305537e+02
3.0352130611152518e+02
3.0353794307621274e+02
3.0355392118689281e+02
3.0356824026084729e+02
3.0358352098751465e+02
3.0359878175274991e+02
3.0361385424036297e+02
3.0362863407065379e+02
3.0364302961058678e+02
3.0365692995821723e+02
3.0367014553763914e+02
3.0368158465422476e+02
3.0369418382083802e+02
3.0370687384316813e+02
3.0371947937103528e+02
3.0373190415919515e+02
3.0374407363283655e+02
3.0375590108003814e+02
3.0376703815118691e+02
3.0377834899265503e+02
3.0378949587693899e+02
3.0380040484189033e+02
3.0381102155270884e+02
3.0382128539277636e+02
3.0383109458438679e+02
3.0383990053929000e+02
3.0384920058382062e+02
3.0385846040629252e+02
3.0386759099001335e+02
3.0387654919698389e+02
3.0388530867287972e+02
3.0389385007493172e+02
3.0390214934532275e+02
3.0391022443055692e+02
3.0391805426180042e+02
3.0392562554607093e+02
3.0393292186315449e+02
3.0393991412483905e+02
3.0394645263608589e+02
3.0395294364900019e+02
3.0395923770760209e+02
3.0396529897800440e+02
3.0397108831712444e+02
3.0397642155724805e+02
3.0398181658901063e+02
3.0398709915604326e+02
3.0399224683385324e+02
3.0399725925189239e+02
3.0400215563549148e+02
3.0400706954165770e+02
3.0401161634819982e+02
3.0401593020903817e+02
3.0402003731693009e+02
3.0402395375786654e+02
3.0402770637406508e+02
3.0403125017482347e+02
3.0403460895978338e+02
3.0403779106875140e+02
3.0404080072654210e+02
3.0404361792682812e+02
3.0404634035232692e+02
3.0404895535764899e+02
3.0405148854289155e+02
3.0405408104030175e+02
3.0405634163025638e+02
3.0405841063440420e+02
3.0406031927651685e+02
3.0406209064111772e+02
3.0406378728891377e+02
3.0406525468790556e+02
3.0406654702116327e+02
3.0406766701426659e+02
3.0406855985972766e+02
3.0406941288847332e+02
3.0407017031586423e+02
3.0407082966333519e+02
3.0407142469545369e+02
3.0407183908048398e+02
3.0407210497313753e+02
3.0407221989160377e+02
3.0407215545574383e+02
3.0407197855558945e+02
3.0407165358865899e+02
3.0407115688312871e+02
3.0407041757993989e+02
3.0406959070648310e+02
3.0406860288031510e+02
3.0406743018802030e+02
3.0406601377919964e+02
3.0406431985346109e+02
3.0406228352429002e+02
3.0405968837759355e+02
3.0405698880520384e+02
3.0405391812679744e+02
3.0405007804940107e+02
3.0404637976792617e+02
3.0404245567171347e+02
3.0403821832188783e+02
3.0403378652410220e+02
3.0402838576071690e+02
3.0402208497368252e+02
3.0401453257422548e+02
3.0400645638146278e+02
3.0399744603926609e+02
3.0398722151591085e+02
3.0397592535844177e+02
3.0396332115174067e+02
3.0394941488092678e+02
3.0393347984126564e+02
3.0391570697104908e+02
3.0389754414337278e+02
3.0387291360486603e+02
3.0384147358155275e+02
3.0380898801018816e+02
3.0377413191420209e+02
3.0374078540697985e+02
3.0369547545741921e+02
3.0364397146224081e+02
3.0359952156643203e+02
3.0352573476445048e+02
3.0346593294611080e+02
3.0329435402066139e+02
3.0302056026765842e+02

SCALARS Heat-Flux float
LOOKUP_TABLE default
3.9494069971427953e+03
3.9494069971427953e+03
3.9494069971427953e+03
3.9494069971427953e+03
3.9494069971427953e+03
3.9494069971427953e+03
3.9494069971427953e+03
3.9494069971427953e+03
3.9494069971427953e+03
3.9494069971427953e+03
3.9494069971427953e+03
3.9494069971427953e+03
2.8288798930734629e+03
2.8288798930734629e+03
2.8288798930734629e+03
2.8288798930734629e+03
2.8288798930734629e+03
2.8288798930734629e+03
2.8288798930734629e+03
2.8288798930734629e+03
2.8288798930734629e+03
2.8288798930734629e+03
2.5889274993875006e+03
2.5889274993875006e+03
2.5889274993875006e+03
2.5889274993875006e+03
2.5889274993875006e+03
2.5889274993875006e+03
2.5889274993875006e+03
2.5889274993875006e+03
2.5889274993875006e+03
2.5889274993875006e+03
2.4773521864306531e+03
2.4773521864306531e+03
2.4773521864306531e+03
2.4773521864306531e+03
2.4773521864306531e+03
2.4773521864306531e+03
2.4773521864306531e+03
2.4773521864306531e+03
2.4773521864306531e+03
2.4278418830588635e+03
2.4278418830588635e+03
2.4278418830588635e+03
2.4278418830588635e+03
2.4278418830588635e+03
2.4278418830588635e+03
2.4278418830588635e+03
2.4278418830588635e+03
2.3761205021684873e+03
2.3761205021684873e+03
2.3761205021684873e+03
2.3761205021684873e+03
2.3761205021684873e+03
2.3761205021684873e+03
2.3761205021684873e+03
2.3614451381115941e+03
2.3614451381115941e+03
2.3614451381115941e+03
2.3614451381115941e+03
2.3614451381115941e+03
2.3614451381115941e+03
2.3614451381115941e+03
2.3380385121505242e+03
2.3380385121505242e+03
2.3380385121505242e+03
2.3380385121505242e+03
2.3380385121505242e+03
2.3380385121505242e+03
2.3380385121505242e+03
2.3376046306984790e+03
2.3376046306984790e+03
2.3376046306984790e+03
2.3376046306984790e+03
2.3376046306984790e+03
2.3376046306984790e+03
2.3318994331617432e+03
2.3318994331617432e+03
2.3318994331617432e+03
2.3318994331617432e+03
2.3318994331617432e+03
2.3250458614755189e+03
2.3250458614755189e+03
2.3250458614755189e+03
2.3250458614755189e+03
2.3250458614755189e+03
2.3250458614755189e+03
2.3298765628569527e+03
2.3298765628569527e+03
2.3298765628569527e+03
2.3298765628569527e+03
2.3298765628569527e+03
2.3304965733965219e+03
2.3304965733965219e+03
2.3304965733965219e+03
2.3304965733965219e+03
2.3304965733965219e+03
2.3295112089806935e+03
2.3295112089806935e+03
2.3295112089806935e+03
2.3295112089806935e+03
2.3338763672843925e+03
2.3338763672843925e+03
2.3338763672843925e+03
2.3338763672843925e+03
2.3338763672843925e+03
2.3355450546441716e+03
2.3355450546441716e+03
2.3355450546441716e+03
2.3355450546441716e+03
2.3337046851112973e+03
2.3337046851112973e+03
2.3337046851112973e+03
2.3337046851112973e+03
2.3347969550173730e+03
2.3347969550173730e+03
2.3347969550173730e+03
2.3347969550173730e+03
2.3341075293807080e+03
2.3341075293807080e+03
2.3341075293807080e+03
2.3341075293807080e+03
2.3325774688943056e+03
2.3325774688943056e+03
2.3325774688943056e+03
2.3328023486435995e+03
2.3328023486435995e+03
2.3328023486435995e+03
2.3328023486435995e+03
2.3284844191693992e+03
2.3284844191693992e+03
2.3284844191693992e+03
2.3205742286823806e+03
2.3205742286823806e+03
2.3205742286823806e+03
2.3205742286823806e+03
2.3257887882275099e+03
2.3257887882275099e+03
2.3257887882275099e+03
2.3194158743433945e+03
2.3194158743433945e+03
2.3194158743433945e+03
2.3171977615449578e+03
2.3171977615449578e+03
2.3171977615449578e+03