# vtk DataFile Version 2.0

ASCII

DATASET UNSTRUCTURED_GRID

POINTS 32 double 

1.5625000000000000e-02  0.0000000000000000e+00  2.0000000000000004e-01
4.6874999999999993e-02  0.0000000000000000e+00  2.0000000000000004e-01
7.8125000000000000e-02  0.0000000000000000e+00  2.0000000000000004e-01
1.0937499999999999e-01  0.0000000000000000e+00  2.0000000000000004e-01
1.4062500000000000e-01  0.0000000000000000e+00  2.0000000000000004e-01
1.7187500000000000e-01  0.0000000000000000e+00  2.0000000000000004e-01
2.0312500000000000e-01  0.0000000000000000e+00  2.0000000000000004e-01
2.3437500000000000e-01  0.0000000000000000e+00  2.0000000000000004e-01
2.6562500000000000e-01  0.0000000000000000e+00  2.0000000000000004e-01
2.9687499999999994e-01  0.0000000000000000e+00  2.0000000000000004e-01
3.2812500000000000e-01  0.0000000000000000e+00  2.0000000000000004e-01
3.5937499999999994e-01  0.0000000000000000e+00  2.0000000000000004e-01
3.9062500000000000e-01  0.0000000000000000e+00  2.0000000000000004e-01
4.2187499999999994e-01  0.0000000000000000e+00  2.0000000000000004e-01
4.5312500000000006e-01  0.0000000000000000e+00  2.0000000000000004e-01
4.8437500000000000e-01  0.0000000000000000e+00  2.0000000000000004e-01
5.1562499999999989e-01  0.0000000000000000e+00  2.0000000000000004e-01
5.4687500000000000e-01  0.0000000000000000e+00  2.0000000000000004e-01
5.7812499999999989e-01  0.0000000000000000e+00  2.0000000000000004e-01
6.0937500000000000e-01  0.0000000000000000e+00  2.0000000000000004e-01
6.4062499999999989e-01  0.0000000000000000e+00  2.0000000000000004e-01
6.7187499999999989e-01  0.0000000000000000e+00  2.0000000000000004e-01
7.0312500000000000e-01  0.0000000000000000e+00  2.0000000000000004e-01
7.3437499999999989e-01  0.0000000000000000e+00  2.0000000000000004e-01
7.6562500000000000e-01  0.0000000000000000e+00  2.0000000000000004e-01
7.9687499999999989e-01  0.0000000000000000e+00  2.0000000000000004e-01
8.2812499999999989e-01  0.0000000000000000e+00  2.0000000000000004e-01
8.5937500000000000e-01  0.0000000000000000e+00  2.0000000000000004e-01
8.9062500000000000e-01  0.0000000000000000e+00  2.0000000000000004e-01
9.2187500000000000e-01  0.0000000000000000e+00  2.0000000000000004e-01
9.5312499999999989e-01  0.0000000000000000e+00  2.0000000000000004e-01
9.8437500000000011e-01  0.0000000000000000e+00  2.0000000000000004e-01

CELLS 0 0


CELL_TYPES 0


POINT_DATA 32

VECTORS VertexNormals double

0.0000000000000000e+00 0.0000000000000000e+00 0.0000000000000000e+00 
0.0000000000000000e+00 0.0000000000000000e+00 0.0000000000000000e+00 
0.0000000000000000e+00 0.0000000000000000e+00 0.0000000000000000e+00 
0.0000000000000000e+00 0.0000000000000000e+00 0.0000000000000000e+00 
0.0000000000000000e+00 0.0000000000000000e+00 0.0000000000000000e+00 
0.0000000000000000e+00 0.0000000000000000e+00 0.0000000000000000e+00 
0.0000000000000000e+00 0.0000000000000000e+00 0.0000000000000000e+00 
0.0000000000000000e+00 0.0000000000000000e+00 0.0000000000000000e+00 
0.0000000000000000e+00 0.0000000000000000e+00 0.0000000000000000e+00 
0.0000000000000000e+00 0.0000000000000000e+00 0.0000000000000000e+00 
0.0000000000000000e+00 0.0000000000000000e+00 0.0000000000000000e+00 
0.0000000000000000e+00 0.0000000000000000e+00 0.0000000000000000e+00 
0.0000000000000000e+00 0.0000000000000000e+00 0.0000000000000000e+00 
0.0000000000000000e+00 0.0000000000000000e+00 0.0000000000000000e+00 
0.0000000000000000e+00 0.0000000000000000e+00 0.0000000000000000e+00 
0.0000000000000000e+00 0.0000000000000000e+00 0.0000000000000000e+00 
0.0000000000000000e+00 0.0000000000000000e+00 0.0000000000000000e+00 
0.0000000000000000e+00 0.0000000000000000e+00 0.0000000000000000e+00 
0.0000000000000000e+00 0.0000000000000000e+00 0.0000000000000000e+00 
0.0000000000000000e+00 0.0000000000000000e+00 0.0000000000000000e+00 
0.0000000000000000e+00 0.0000000000000000e+00 0.0000000000000000e+00 
0.0000000000000000e+00 0.0000000000000000e+00 0.0000000000000000e+00 
0.0000000000000000e+00 0.0000000000000000e+00 0.0000000000000000e+00 
0.0000000000000000e+00 0.0000000000000000e+00 0.0000000000000000e+00 
0.0000000000000000e+00 0.0000000000000000e+00 0.0000000000000000e+00 
0.0000000000000000e+00 0.0000000000000000e+00 0.0000000000000000e+00 
0.0000000000000000e+00 0.0000000000000000e+00 0.0000000000000000e+00 
0.0000000000000000e+00 0.0000000000000000e+00 0.0000000000000000e+00 
0.0000000000000000e+00 0.0000000000000000e+00 0.0000000000000000e+00 
0.0000000000000000e+00 0.0000000000000000e+00 0.0000000000000000e+00 
0.0000000000000000e+00 0.0000000000000000e+00 0.0000000000000000e+00 
0.0000000000000000e+00 0.0000000000000000e+00 0.0000000000000000e+00 

SCALARS Temperature double
LOOKUP_TABLE default
0.0000000000000000e+00
0.0000000000000000e+00
0.0000000000000000e+00
0.0000000000000000e+00
0.0000000000000000e+00
0.0000000000000000e+00
0.0000000000000000e+00
0.0000000000000000e+00
0.0000000000000000e+00
0.0000000000000000e+00
0.0000000000000000e+00
0.0000000000000000e+00
0.0000000000000000e+00
0.0000000000000000e+00
0.0000000000000000e+00
0.0000000000000000e+00
0.0000000000000000e+00
0.0000000000000000e+00
0.0000000000000000e+00
0.0000000000000000e+00
0.0000000000000000e+00
0.0000000000000000e+00
0.0000000000000000e+00
0.0000000000000000e+00
0.0000000000000000e+00
0.0000000000000000e+00
0.0000000000000000e+00
0.0000000000000000e+00
0.0000000000000000e+00
0.0000000000000000e+00
0.0000000000000000e+00
0.0000000000000000e+00

SCALARS Heat-Flux double
LOOKUP_TABLE default
3.9663137726143750e+03
2.9183572429130436e+03
2.7125754512897402e+03
2.6253751856755116e+03
2.5933167352290184e+03
2.5631959497492062e+03
2.5614909086274565e+03
2.5547624451952288e+03
2.5619752405225881e+03
2.5647861760233354e+03
2.5666710551937285e+03
2.5734876824841194e+03
2.5771392322232714e+03
2.5793228396862105e+03
2.5829145159113978e+03
2.5846829687943682e+03
2.5847757080031442e+03
2.5853981112340989e+03
2.5843216121713340e+03
2.5829476121834887e+03
2.5819599048380041e+03
2.5776661294854421e+03
2.5704222704356653e+03
2.5704179161715729e+03
2.5624796683718159e+03
2.5560973317944445e+03
2.5532578540427494e+03
2.5773229941703903e+03
2.5395652962499298e+03
2.6054750135321228e+03
2.8254343626933405e+03
3.5236259226796392e+03

