# vtk DataFile Version 2.0

ASCII

DATASET UNSTRUCTURED_GRID

POINTS 32 float 

1.5625000000000000e-02  0.0000000000000000e+00  2.0000000000000004e-01
4.6874999999999993e-02  0.0000000000000000e+00  2.0000000000000004e-01
7.8125000000000000e-02  0.0000000000000000e+00  2.0000000000000004e-01
1.0937499999999999e-01  0.0000000000000000e+00  2.0000000000000004e-01
1.4062500000000000e-01  0.0000000000000000e+00  2.0000000000000004e-01
1.7187500000000000e-01  0.0000000000000000e+00  2.0000000000000004e-01
2.0312500000000000e-01  0.0000000000000000e+00  2.0000000000000004e-01
2.3437500000000000e-01  0.0000000000000000e+00  2.0000000000000004e-01
2.6562500000000000e-01  0.0000000000000000e+00  2.0000000000000004e-01
2.9687499999999994e-01  0.0000000000000000e+00  2.0000000000000004e-01
3.2812500000000000e-01  0.0000000000000000e+00  2.0000000000000004e-01
3.5937499999999994e-01  0.0000000000000000e+00  2.0000000000000004e-01
3.9062500000000000e-01  0.0000000000000000e+00  2.0000000000000004e-01
4.2187499999999994e-01  0.0000000000000000e+00  2.0000000000000004e-01
4.5312500000000006e-01  0.0000000000000000e+00  2.0000000000000004e-01
4.8437500000000000e-01  0.0000000000000000e+00  2.0000000000000004e-01
5.1562499999999989e-01  0.0000000000000000e+00  2.0000000000000004e-01
5.4687500000000000e-01  0.0000000000000000e+00  2.0000000000000004e-01
5.7812499999999989e-01  0.0000000000000000e+00  2.0000000000000004e-01
6.0937500000000000e-01  0.0000000000000000e+00  2.0000000000000004e-01
6.4062499999999989e-01  0.0000000000000000e+00  2.0000000000000004e-01
6.7187499999999989e-01  0.0000000000000000e+00  2.0000000000000004e-01
7.0312500000000000e-01  0.0000000000000000e+00  2.0000000000000004e-01
7.3437499999999989e-01  0.0000000000000000e+00  2.0000000000000004e-01
7.6562500000000000e-01  0.0000000000000000e+00  2.0000000000000004e-01
7.9687499999999989e-01  0.0000000000000000e+00  2.0000000000000004e-01
8.2812499999999989e-01  0.0000000000000000e+00  2.0000000000000004e-01
8.5937500000000000e-01  0.0000000000000000e+00  2.0000000000000004e-01
8.9062500000000000e-01  0.0000000000000000e+00  2.0000000000000004e-01
9.2187500000000000e-01  0.0000000000000000e+00  2.0000000000000004e-01
9.5312499999999989e-01  0.0000000000000000e+00  2.0000000000000004e-01
9.8437500000000011e-01  0.0000000000000000e+00  2.0000000000000004e-01

CELLS 0 0


CELL_TYPES 0


POINT_DATA 32

VECTORS VertexNormals float

0.0000000000000000e+00 0.0000000000000000e+00 0.0000000000000000e+00 
0.0000000000000000e+00 0.0000000000000000e+00 0.0000000000000000e+00 
0.0000000000000000e+00 0.0000000000000000e+00 0.0000000000000000e+00 
0.0000000000000000e+00 0.0000000000000000e+00 0.0000000000000000e+00 
0.0000000000000000e+00 0.0000000000000000e+00 0.0000000000000000e+00 
0.0000000000000000e+00 0.0000000000000000e+00 0.0000000000000000e+00 
0.0000000000000000e+00 0.0000000000000000e+00 0.0000000000000000e+00 
0.0000000000000000e+00 0.0000000000000000e+00 0.0000000000000000e+00 
0.0000000000000000e+00 0.0000000000000000e+00 0.0000000000000000e+00 
0.0000000000000000e+00 0.0000000000000000e+00 0.0000000000000000e+00 
0.0000000000000000e+00 0.0000000000000000e+00 0.0000000000000000e+00 
0.0000000000000000e+00 0.0000000000000000e+00 0.0000000000000000e+00 
0.0000000000000000e+00 0.0000000000000000e+00 0.0000000000000000e+00 
0.0000000000000000e+00 0.0000000000000000e+00 0.0000000000000000e+00 
0.0000000000000000e+00 0.0000000000000000e+00 0.0000000000000000e+00 
0.0000000000000000e+00 0.0000000000000000e+00 0.0000000000000000e+00 
0.0000000000000000e+00 0.0000000000000000e+00 0.0000000000000000e+00 
0.0000000000000000e+00 0.0000000000000000e+00 0.0000000000000000e+00 
0.0000000000000000e+00 0.0000000000000000e+00 0.0000000000000000e+00 
0.0000000000000000e+00 0.0000000000000000e+00 0.0000000000000000e+00 
0.0000000000000000e+00 0.0000000000000000e+00 0.0000000000000000e+00 
0.0000000000000000e+00 0.0000000000000000e+00 0.0000000000000000e+00 
0.0000000000000000e+00 0.0000000000000000e+00 0.0000000000000000e+00 
0.0000000000000000e+00 0.0000000000000000e+00 0.0000000000000000e+00 
0.0000000000000000e+00 0.0000000000000000e+00 0.0000000000000000e+00 
0.0000000000000000e+00 0.0000000000000000e+00 0.0000000000000000e+00 
0.0000000000000000e+00 0.0000000000000000e+00 0.0000000000000000e+00 
0.0000000000000000e+00 0.0000000000000000e+00 0.0000000000000000e+00 
0.0000000000000000e+00 0.0000000000000000e+00 0.0000000000000000e+00 
0.0000000000000000e+00 0.0000000000000000e+00 0.0000000000000000e+00 
0.0000000000000000e+00 0.0000000000000000e+00 0.0000000000000000e+00 
0.0000000000000000e+00 0.0000000000000000e+00 0.0000000000000000e+00 

SCALARS Temperature float
LOOKUP_TABLE default
0.0000000000000000e+00
0.0000000000000000e+00
0.0000000000000000e+00
0.0000000000000000e+00
0.0000000000000000e+00
0.0000000000000000e+00
0.0000000000000000e+00
0.0000000000000000e+00
0.0000000000000000e+00
0.0000000000000000e+00
0.0000000000000000e+00
0.0000000000000000e+00
0.0000000000000000e+00
0.0000000000000000e+00
0.0000000000000000e+00
0.0000000000000000e+00
0.0000000000000000e+00
0.0000000000000000e+00
0.0000000000000000e+00
0.0000000000000000e+00
0.0000000000000000e+00
0.0000000000000000e+00
0.0000000000000000e+00
0.0000000000000000e+00
0.0000000000000000e+00
0.0000000000000000e+00
0.0000000000000000e+00
0.0000000000000000e+00
0.0000000000000000e+00
0.0000000000000000e+00
0.0000000000000000e+00
0.0000000000000000e+00

SCALARS Heat-Flux float
LOOKUP_TABLE default
3.9687210164243870e+03
3.0291429475822952e+03
2.8730919699650258e+03
2.8227953362998960e+03
2.8154141313687433e+03
2.8107262471523427e+03
2.8213638067842112e+03
2.8280637279814982e+03
2.8388226693175966e+03
2.8453949481809104e+03
2.8502776598630589e+03
2.8555841730536486e+03
2.8587808221403975e+03
2.8608158574053959e+03
2.8627175448782509e+03
2.8636937152317842e+03
2.8639450966125878e+03
2.8640479008259717e+03
2.8632285001549462e+03
2.8621740099966701e+03
2.8608908635200351e+03
2.8577961028087884e+03
2.8526864040839428e+03
2.8496529832329543e+03
2.8419997816206887e+03
2.8331996278851875e+03
2.8241522305834224e+03
2.8313371967546118e+03
2.7955046514056448e+03
2.8284600691840751e+03
2.9974191302891995e+03
3.6325351888408477e+03

