# vtk DataFile Version 2.0

ASCII

DATASET UNSTRUCTURED_GRID

POINTS 32 float 

1.5625000000000000e-02  0.0000000000000000e+00  2.0000000000000004e-01
4.6874999999999993e-02  0.0000000000000000e+00  2.0000000000000004e-01
7.8125000000000000e-02  0.0000000000000000e+00  2.0000000000000004e-01
1.0937499999999999e-01  0.0000000000000000e+00  2.0000000000000004e-01
1.4062500000000000e-01  0.0000000000000000e+00  2.0000000000000004e-01
1.7187500000000000e-01  0.0000000000000000e+00  2.0000000000000004e-01
2.0312500000000000e-01  0.0000000000000000e+00  2.0000000000000004e-01
2.3437500000000000e-01  0.0000000000000000e+00  2.0000000000000004e-01
2.6562500000000000e-01  0.0000000000000000e+00  2.0000000000000004e-01
2.9687499999999994e-01  0.0000000000000000e+00  2.0000000000000004e-01
3.2812500000000000e-01  0.0000000000000000e+00  2.0000000000000004e-01
3.5937499999999994e-01  0.0000000000000000e+00  2.0000000000000004e-01
3.9062500000000000e-01  0.0000000000000000e+00  2.0000000000000004e-01
4.2187499999999994e-01  0.0000000000000000e+00  2.0000000000000004e-01
4.5312500000000006e-01  0.0000000000000000e+00  2.0000000000000004e-01
4.8437500000000000e-01  0.0000000000000000e+00  2.0000000000000004e-01
5.1562499999999989e-01  0.0000000000000000e+00  2.0000000000000004e-01
5.4687500000000000e-01  0.0000000000000000e+00  2.0000000000000004e-01
5.7812499999999989e-01  0.0000000000000000e+00  2.0000000000000004e-01
6.0937500000000000e-01  0.0000000000000000e+00  2.0000000000000004e-01
6.4062499999999989e-01  0.0000000000000000e+00  2.0000000000000004e-01
6.7187499999999989e-01  0.0000000000000000e+00  2.0000000000000004e-01
7.0312500000000000e-01  0.0000000000000000e+00  2.0000000000000004e-01
7.3437499999999989e-01  0.0000000000000000e+00  2.0000000000000004e-01
7.6562500000000000e-01  0.0000000000000000e+00  2.0000000000000004e-01
7.9687499999999989e-01  0.0000000000000000e+00  2.0000000000000004e-01
8.2812499999999989e-01  0.0000000000000000e+00  2.0000000000000004e-01
8.5937500000000000e-01  0.0000000000000000e+00  2.0000000000000004e-01
8.9062500000000000e-01  0.0000000000000000e+00  2.0000000000000004e-01
9.2187500000000000e-01  0.0000000000000000e+00  2.0000000000000004e-01
9.5312499999999989e-01  0.0000000000000000e+00  2.0000000000000004e-01
9.8437500000000011e-01  0.0000000000000000e+00  2.0000000000000004e-01

CELLS 0 0


CELL_TYPES 0


POINT_DATA 32

VECTORS VertexNormals float

0.0000000000000000e+00 0.0000000000000000e+00 0.0000000000000000e+00 
0.0000000000000000e+00 0.0000000000000000e+00 0.0000000000000000e+00 
0.0000000000000000e+00 0.0000000000000000e+00 0.0000000000000000e+00 
0.0000000000000000e+00 0.0000000000000000e+00 0.0000000000000000e+00 
0.0000000000000000e+00 0.0000000000000000e+00 0.0000000000000000e+00 
0.0000000000000000e+00 0.0000000000000000e+00 0.0000000000000000e+00 
0.0000000000000000e+00 0.0000000000000000e+00 0.0000000000000000e+00 
0.0000000000000000e+00 0.0000000000000000e+00 0.0000000000000000e+00 
0.0000000000000000e+00 0.0000000000000000e+00 0.0000000000000000e+00 
0.0000000000000000e+00 0.0000000000000000e+00 0.0000000000000000e+00 
0.0000000000000000e+00 0.0000000000000000e+00 0.0000000000000000e+00 
0.0000000000000000e+00 0.0000000000000000e+00 0.0000000000000000e+00 
0.0000000000000000e+00 0.0000000000000000e+00 0.0000000000000000e+00 
0.0000000000000000e+00 0.0000000000000000e+00 0.0000000000000000e+00 
0.0000000000000000e+00 0.0000000000000000e+00 0.0000000000000000e+00 
0.0000000000000000e+00 0.0000000000000000e+00 0.0000000000000000e+00 
0.0000000000000000e+00 0.0000000000000000e+00 0.0000000000000000e+00 
0.0000000000000000e+00 0.0000000000000000e+00 0.0000000000000000e+00 
0.0000000000000000e+00 0.0000000000000000e+00 0.0000000000000000e+00 
0.0000000000000000e+00 0.0000000000000000e+00 0.0000000000000000e+00 
0.0000000000000000e+00 0.0000000000000000e+00 0.0000000000000000e+00 
0.0000000000000000e+00 0.0000000000000000e+00 0.0000000000000000e+00 
0.0000000000000000e+00 0.0000000000000000e+00 0.0000000000000000e+00 
0.0000000000000000e+00 0.0000000000000000e+00 0.0000000000000000e+00 
0.0000000000000000e+00 0.0000000000000000e+00 0.0000000000000000e+00 
0.0000000000000000e+00 0.0000000000000000e+00 0.0000000000000000e+00 
0.0000000000000000e+00 0.0000000000000000e+00 0.0000000000000000e+00 
0.0000000000000000e+00 0.0000000000000000e+00 0.0000000000000000e+00 
0.0000000000000000e+00 0.0000000000000000e+00 0.0000000000000000e+00 
0.0000000000000000e+00 0.0000000000000000e+00 0.0000000000000000e+00 
0.0000000000000000e+00 0.0000000000000000e+00 0.0000000000000000e+00 
0.0000000000000000e+00 0.0000000000000000e+00 0.0000000000000000e+00 

SCALARS Temperature float
LOOKUP_TABLE default
0.0000000000000000e+00
0.0000000000000000e+00
0.0000000000000000e+00
0.0000000000000000e+00
0.0000000000000000e+00
0.0000000000000000e+00
0.0000000000000000e+00
0.0000000000000000e+00
0.0000000000000000e+00
0.0000000000000000e+00
0.0000000000000000e+00
0.0000000000000000e+00
0.0000000000000000e+00
0.0000000000000000e+00
0.0000000000000000e+00
0.0000000000000000e+00
0.0000000000000000e+00
0.0000000000000000e+00
0.0000000000000000e+00
0.0000000000000000e+00
0.0000000000000000e+00
0.0000000000000000e+00
0.0000000000000000e+00
0.0000000000000000e+00
0.0000000000000000e+00
0.0000000000000000e+00
0.0000000000000000e+00
0.0000000000000000e+00
0.0000000000000000e+00
0.0000000000000000e+00
0.0000000000000000e+00
0.0000000000000000e+00

SCALARS Heat-Flux float
LOOKUP_TABLE default
3.9578964760636145e+03
2.8669460994540714e+03
2.6411921747276210e+03
2.5393858743569581e+03
2.4967345485223632e+03
2.4539472352378652e+03
2.4448526145271899e+03
2.4289205270688399e+03
2.4321404917252949e+03
2.4306000554017373e+03
2.4282099462550832e+03
2.4343396457814379e+03
2.4367722726703505e+03
2.4376997879116971e+03
2.4419130624446552e+03
2.4438110208000580e+03
2.4431914838343801e+03
2.4441571669114637e+03
2.4432128828288114e+03
2.4417998160082789e+03
2.4414377731227432e+03
2.4369995865803503e+03
2.4292375738179544e+03
2.4320140273201105e+03
2.4248105349106481e+03
2.4206623380341625e+03
2.4217553006557864e+03
2.4540499349233869e+03
2.4159076192801876e+03
2.4957440959617088e+03
2.7347647965245415e+03
3.4519302494147269e+03

