/*--------------------------------*- C++ -*----------------------------------*\
| =========                 |                                                 |
| \\      /  F ield         | OpenFOAM: The Open Source CFD Toolbox           |
|  \\    /   O peration     | Version:  4.1                                   |
|   \\  /    A nd           | Web:      www.OpenFOAM.org                      |
|    \\/     M anipulation  |                                                 |
\*---------------------------------------------------------------------------*/
FoamFile
{
    version     2.0;
    format      ascii;
    class       volVectorField;
    location    "2.3";
    object      Force;
}
// * * * * * * * * * * * * * * * * * * * * * * * * * * * * * * * * * * * * * //

dimensions      [1 1 -2 0 0 0 0];

internalField   uniform (0 0 0);

boundaryField
{
    inlet
    {
        type            calculated;
        value           uniform (0 0 0);
    }
    outlet
    {
        type            calculated;
        value           uniform (0 0 0);
    }
    flap
    {
        type            calculated;
        value           nonuniform List<vector> 
33
(
(3.53222 -0.31238 2.14456e-18)
(3.50041 -0.724638 2.34513e-21)
(3.42872 -1.11138 6.43612e-18)
(3.30768 -1.42378 4.22818e-18)
(3.15131 -1.64725 2.09252e-18)
(2.98487 -1.78837 4.07041e-20)
(2.82125 -1.87039 1.11696e-21)
(2.65177 -1.90678 1.38229e-17)
(2.47455 -1.89719 4.43441e-18)
(2.29453 -1.84965 2.22781e-18)
(2.10497 -1.76994 2.22488e-18)
(1.90282 -1.64934 -4.70198e-38)
(1.69129 -1.48937 0)
(1.45064 -1.29081 -1.75831e-17)
(1.16916 -1.04423 1.80031e-18)
(0.601827 0.664806 2.01507e-18)
(0.228814 0.256629 -8.79449e-21)
(0.0545674 0.0648823 -3.35969e-19)
(-0.0390004 0.00436726 1.13983e-18)
(-0.0394604 0.0100224 1.1964e-18)
(-0.0402787 0.0156106 -1.1921e-18)
(-0.0413776 0.0207992 2.89133e-18)
(-0.0419281 0.0249029 1.57776e-18)
(-0.0416672 0.0277114 1.45967e-18)
(-0.0412017 0.0297675 -8.58239e-22)
(-0.0409117 0.0315812 2.11558e-18)
(-0.0412758 0.0334603 1.96584e-18)
(-0.0421554 0.0355043 -2.32965e-19)
(-0.0435169 0.0377908 -2.10297e-18)
(-0.0460901 0.0407969 -1.93017e-23)
(-0.0491718 0.044164 2.25775e-18)
(-0.0499319 0.0453075 5.37894e-19)
(-0.0494003 0.0462104 3.66724e-18)
)
;
    }
    upperWall
    {
        type            calculated;
        value           uniform (0 0 0);
    }
    lowerWall
    {
        type            calculated;
        value           uniform (0 0 0);
    }
    frontAndBack
    {
        type            empty;
    }
}


// ************************************************************************* //
