/*--------------------------------*- C++ -*----------------------------------*\
| =========                 |                                                 |
| \\      /  F ield         | OpenFOAM: The Open Source CFD Toolbox           |
|  \\    /   O peration     | Version:  4.1                                   |
|   \\  /    A nd           | Web:      www.OpenFOAM.org                      |
|    \\/     M anipulation  |                                                 |
\*---------------------------------------------------------------------------*/
FoamFile
{
    version     2.0;
    format      ascii;
    class       surfaceVectorField;
    location    "2.3";
    object      Uf;
}
// * * * * * * * * * * * * * * * * * * * * * * * * * * * * * * * * * * * * * //

dimensions      [0 1 -1 0 0 0 0];

internalField   nonuniform List<vector> 
5457
(
(9.90888 0.0236054 -6.80225e-21)
(9.96979 0.0371095 5.87505e-21)
(9.80901 0.0290594 -9.98138e-20)
(9.92622 0.0424695 1.84585e-19)
(9.69938 0.0334977 -5.26064e-20)
(9.85746 0.0489328 0)
(9.57718 0.0382097 -5.03207e-20)
(9.77016 0.0571765 -6.38552e-22)
(9.44267 0.0430932 -5.64213e-20)
(9.66929 0.0658684 0)
(9.29632 0.0481585 -5.41022e-20)
(9.55565 0.0749119 1.07663e-19)
(9.13817 0.0535247 6.07094e-20)
(9.42899 0.0845271 -2.23519e-19)
(8.96795 0.059313 1.22061e-19)
(9.28933 0.0949099 1.56878e-21)
(8.78516 0.0656304 -6.92652e-20)
(9.1361 0.106234 1.22489e-19)
(8.5891 0.0725782 -1.25631e-19)
(8.96869 0.118667 -1.28073e-19)
(8.37898 0.080263 0)
(8.78662 0.132372 0)
(8.15388 0.0888036 0)
(8.58908 0.147528 -5.38746e-19)
(7.91272 0.0983347 -7.76045e-20)
(8.3751 0.164341 6.92391e-19)
(7.65429 0.109011 -4.83545e-19)
(8.14358 0.183041 -3.81323e-21)
(7.37722 0.121008 -3.99298e-19)
(7.89327 0.203889 -9.34148e-19)
(7.08 0.134517 3.51177e-19)
(7.62277 0.227166 -6.48297e-19)
(6.76097 0.149748 7.24094e-19)
(7.33048 0.253162 3.30829e-19)
(6.41834 0.166932 7.19332e-20)
(7.01469 0.28218 5.25735e-19)
(6.05023 0.186318 -2.86302e-19)
(6.67351 0.314528 1.05507e-18)
(5.65467 0.208172 2.23343e-19)
(6.30495 0.350498 3.79538e-19)
(5.22966 0.232768 -2.10454e-20)
(5.90687 0.390343 1.98834e-20)
(4.77321 0.260385 -2.30767e-19)
(5.47708 0.434239 -2.30455e-20)
(4.28349 0.291292 1.0952e-18)
(5.01334 0.482229 4.46384e-19)
(3.75889 0.325711 -9.30556e-20)
(4.51336 0.534151 1.55503e-18)
(3.19819 0.363676 1.40078e-18)
(3.9749 0.589497 -5.21546e-18)
(2.60093 0.404566 -2.17223e-19)
(3.39568 0.647039 6.79567e-18)
(1.96792 0.445515 -2.68028e-18)
(2.77296 0.703889 -2.69293e-18)
(1.30341 0.476613 0)
(2.10328 0.752583 1.23024e-18)
(0.612754 0.447375 -7.61018e-18)
(1.3535 0.779065 -1.31135e-18)
(0.713763 0.717918 -5.79436e-18)
(10.0023 0.0461207 2.0093e-19)
(10.0017 0.0361951 -1.40135e-19)
(9.97172 0.0593369 2.80109e-19)
(9.98779 0.0555098 1.43544e-19)
(9.92338 0.070867 5.1949e-20)
(9.95195 0.0705553 1.96445e-19)
(9.85954 0.0833733 4.96931e-20)
(9.89738 0.0870946 -1.51648e-19)
(9.78045 0.096644 1.66377e-19)
(9.82791 0.104658 2.09573e-19)
(9.68653 0.110651 -6.863e-20)
(9.74463 0.123063 -5.19624e-20)
(9.57807 0.125642 -2.78129e-19)
(9.6476 0.142582 -1.11178e-19)
(9.45503 0.141919 4.37722e-21)
(9.53699 0.163617 -5.19158e-19)
(9.31701 0.159745 5.88349e-20)
(9.41232 0.18657 5.55703e-20)
(9.16348 0.179359 0)
(9.27316 0.21175 4.89455e-19)
(8.99379 0.201017 -5.48828e-19)
(9.11914 0.239468 0)
(8.80713 0.225009 1.76237e-19)
(8.94957 0.270102 -5.38925e-19)
(8.60253 0.251665 7.53787e-19)
(8.76363 0.304075 2.82557e-19)
(8.37884 0.281355 -4.70848e-19)
(8.56033 0.341859 -1.07067e-18)
(8.13476 0.314487 -1.1782e-18)
(8.33853 0.383995 1.82756e-18)
(7.86879 0.351495 -6.52021e-19)
(8.09695 0.431067 -3.20877e-19)
(7.57928 0.392833 1.35623e-19)
(7.8341 0.483693 -1.60668e-18)
(7.26438 0.438972 1.51774e-18)
(7.54832 0.542531 -1.49802e-20)
(6.92208 0.490385 1.71077e-18)
(7.23774 0.608268 -1.4534e-18)
(6.55021 0.547517 1.70278e-19)
(6.90027 0.681599 2.89944e-18)
(6.1464 0.610743 1.725e-20)
(6.53359 0.763187 1.78064e-19)
(5.70812 0.680317 6.61596e-19)
(6.13508 0.853602 2.1189e-19)
(5.23268 0.756317 9.20885e-19)
(5.7018 0.953261 2.78158e-20)
(4.71714 0.838573 -3.64875e-18)
(5.23035 1.06235 3.37083e-20)
(4.15805 0.926521 2.93053e-19)
(4.71657 1.18076 2.43891e-18)
(3.55096 1.0189 4.26155e-18)
(4.15495 1.30796 -1.12673e-17)
(2.88822 1.11367 1.23386e-18)
(3.53725 1.44307 8.16248e-18)
(2.15222 1.21088 -5.50454e-20)
(2.85096 1.58587 1.49601e-19)
(1.29129 1.32248 3.32268e-19)
(2.04998 1.74787 -1.81491e-19)
(1.23161 1.94576 -2.2028e-17)
(9.99493 0.0489674 -1.91856e-19)
(9.99934 0.0382641 -4.19038e-19)
(9.96792 0.0699956 6.1032e-20)
(9.98284 0.0669886 -5.242e-19)
(9.92299 0.0895606 -1.49988e-20)
(9.94805 0.0905989 3.19287e-22)
(9.86371 0.110389 1.61147e-20)
(9.89631 0.11482 -2.02911e-19)
(9.79076 0.132529 -1.4339e-20)
(9.8303 0.140375 6.25068e-19)
(9.70443 0.156014 -9.57614e-20)
(9.75127 0.167249 -2.14943e-19)
(9.60495 0.18118 -3.60452e-19)
(9.65949 0.195753 3.33859e-19)
(9.49233 0.208493 -4.56679e-19)
(9.55503 0.226429 -4.6173e-19)
(9.36632 0.238378 4.94643e-19)
(9.43761 0.259843 -4.43314e-21)
(9.22651 0.271219 4.80313e-19)
(9.30699 0.296441 4.89646e-19)
(9.07239 0.30744 0)
(9.16288 0.336684 0)
(8.90328 0.347535 -4.17612e-19)
(9.00476 0.381127 -2.6027e-19)
(8.71836 0.392055 -1.56671e-18)
(8.83201 0.430389 -1.40144e-19)
(8.51665 0.441627 1.27906e-18)
(8.64381 0.485159 -1.99013e-18)
(8.29703 0.496953 2.64927e-18)
(8.43926 0.546238 1.18055e-18)
(8.05819 0.558786 -1.29734e-18)
(8.21737 0.614501 -3.09613e-19)
(7.79864 0.627933 -1.73178e-18)
(7.97692 0.690892 1.51394e-18)
(7.51668 0.705255 -3.01128e-18)
(7.71653 0.776452 -1.66922e-19)
(7.21037 0.791653 -1.98562e-19)
(7.43459 0.872308 2.45619e-19)
(6.87748 0.888046 2.86892e-18)
(7.12924 0.979661 -2.38463e-18)
(6.51538 0.99532 3.73716e-19)
(6.79824 1.09977 2.91039e-18)
(6.12108 1.11425 -4.24687e-19)
(6.43894 1.2339 7.55902e-19)
(5.69094 1.24548 -8.60252e-19)
(6.04807 1.38329 3.67012e-19)
(5.22045 1.38951 6.15511e-18)
(5.6215 1.54918 5.37303e-18)
(4.70351 1.54691 -9.22097e-18)
(5.15375 1.733 5.80449e-19)
(4.1311 1.71895 -7.34367e-18)
(4.63704 1.93687 -1.47554e-17)
(3.48873 1.90922 7.1168e-18)
(4.05998 2.16507 8.21369e-18)
(2.75009 2.12597 1.8812e-20)
(3.40596 2.42787 -1.09434e-18)
(1.88803 2.41781 -2.33708e-17)
(2.65882 2.73463 1.14551e-18)
(1.70833 3.22251 -2.24959e-17)
(9.99043 0.0566021 -7.53521e-19)
(9.99795 0.0421706 -3.28607e-22)
(9.96354 0.0867613 -5.72826e-19)
(9.97939 0.0784304 -5.10872e-22)
(9.91942 0.115027 -1.92199e-19)
(9.94437 0.110299 -3.92061e-19)
(9.86104 0.144039 4.24107e-19)
(9.89364 0.142154 2.00324e-19)
(9.78947 0.17442 4.06716e-19)
(9.82895 0.175446 1.34785e-21)
(9.70509 0.206467 2.26011e-19)
(9.75157 0.210485 0)
(9.60807 0.24066 2.16646e-19)
(9.66188 0.247671 -2.2006e-19)
(9.49847 0.277604 -3.56395e-22)
(9.55992 0.287629 -2.30998e-19)
(9.37625 0.317877 0)
(9.44559 0.331013 4.65815e-19)
(9.24117 0.362014 0)
(9.31879 0.378405 -2.41044e-19)
(9.09286 0.410607 -2.65117e-19)
(9.1793 0.43041 0)
(8.93086 0.464331 1.94201e-20)
(9.02677 0.487724 -1.03831e-18)
(8.75456 0.523936 -5.95979e-19)
(8.86078 0.55113 1.32879e-18)
(8.56326 0.590272 -2.03443e-18)
(8.68068 0.621498 -1.39709e-18)
(8.35614 0.664305 -1.8061e-18)
(8.48585 0.699825 8.2461e-19)
(8.13229 0.747093 2.53332e-18)
(8.27563 0.787222 -2.09264e-18)
(7.89061 0.839802 3.0554e-18)
(8.04917 0.884921 2.80184e-18)
(7.6298 0.943722 3.10007e-18)
(7.80545 0.994325 0)
(7.34834 1.06025 -1.97876e-18)
(7.54332 1.11698 2.72804e-18)
(7.0444 1.19092 -2.27558e-18)
(7.26136 1.25461 -1.10569e-17)
(6.71564 1.33736 3.26782e-18)
(6.95783 1.40913 2.464e-18)
(6.35918 1.50129 1.54557e-18)
(6.63049 1.58269 5.80357e-18)
(5.9713 1.68456 6.66505e-18)
(6.2764 1.77764 -6.01675e-18)
(5.54695 1.88934 -2.38903e-19)
(5.89164 1.99681 1.2031e-17)
(5.07908 2.11851 -5.05976e-18)
(5.47083 2.24378 -4.40546e-18)
(4.55733 2.37705 8.90687e-19)
(5.00629 2.52377 6.1815e-20)
(3.96712 2.6755 0)
(4.48777 2.84532 0)
(3.28108 3.02131 0)
(3.89341 3.22889 2.55643e-17)
(2.53287 3.4652 1.17152e-18)
(3.28817 3.63263 -2.28965e-19)
(2.23353 4.35893 -2.93475e-17)
(9.98798 0.0647554 7.5295e-19)
(9.9972 0.0470771 3.72322e-19)
(9.96058 0.102451 1.71303e-19)
(9.97737 0.0901058 1.82434e-21)
(9.91723 0.138233 1.3812e-20)
(9.94225 0.129684 -1.95938e-19)
(9.85988 0.174616 -2.26862e-19)
(9.89254 0.169035 2.00837e-19)
(9.78969 0.212649 -4.05567e-19)
(9.82931 0.209896 -2.08112e-19)
(9.70707 0.252859 -4.50686e-19)
(9.7537 0.252884 4.23786e-19)
(9.61222 0.295824 -6.68093e-19)
(9.66613 0.29852 -4.41755e-19)
(9.50524 0.34222 2.48797e-19)
(9.56671 0.34749 -1.13439e-18)
(9.38613 0.392711 2.11417e-19)
(9.45541 0.400527 1.38942e-18)
(9.25475 0.447953 -2.36646e-19)
(9.33219 0.458329 -1.43931e-18)
(9.11086 0.508661 -7.92245e-19)
(9.19692 0.521626 4.88861e-19)
(8.9541 0.575642 3.13352e-19)
(9.04932 0.591238 1.26513e-18)
(8.78405 0.649794 4.80639e-19)
(8.8891 0.668087 -1.02634e-18)
(8.6002 0.732126 1.50144e-18)
(8.71582 0.753189 -2.79658e-19)
(8.402 0.82378 4.91592e-19)
(8.52902 0.847679 3.98067e-18)
(8.18885 0.926049 -1.74741e-18)
(8.32832 0.952855 -4.33206e-18)
(7.96001 1.04039 -3.01185e-19)
(8.11311 1.0702 -3.06204e-19)
(7.7146 1.16847 -3.3328e-19)
(7.88276 1.20142 0)
(7.45156 1.31213 -6.55499e-18)
(7.6365 1.34844 -3.28864e-19)
(7.16964 1.47346 -6.14055e-18)
(7.37343 1.51343 -5.5031e-18)
(6.86711 1.65488 5.03956e-18)
(7.09239 1.69894 -7.40451e-20)
(6.54168 1.85914 -1.8872e-18)
(6.79185 1.90799 4.37482e-18)
(6.19025 2.08952 -5.13529e-19)
(6.46964 2.14415 3.94183e-18)
(5.80852 2.35017 7.77764e-18)
(6.12283 2.41183 -1.64745e-17)
(5.3904 2.64666 7.59669e-19)
(5.7473 2.71684 1.05288e-17)
(4.92737 2.98674 -8.38005e-19)
(5.33736 3.06711 -8.37179e-19)
(4.41041 3.385 2.53494e-17)
(4.88798 3.47191 -2.44664e-17)
(3.80794 3.84063 2.63846e-17)
(4.36229 3.96409 5.15806e-17)
(3.2059 4.37692 -3.31703e-17)
(3.94809 4.4093 -2.38021e-17)
(2.80527 5.30291 -4.9508e-18)
(9.98668 0.0733372 -3.86509e-19)
(9.9968 0.0525125 -7.39175e-19)
(9.95894 0.118067 -3.70112e-19)
(9.97642 0.101942 1.88482e-19)
(9.91647 0.161218 0)
(9.94147 0.148704 -1.93764e-19)
(9.86048 0.205069 2.10778e-19)
(9.89287 0.19533 7.9812e-19)
(9.79197 0.250841 6.34757e-19)
(9.83134 0.243587 -2.02593e-19)
(9.71144 0.299216 4.15254e-19)
(9.75781 0.294304 3.94182e-21)
(9.61911 0.350853 -9.21768e-19)
(9.67274 0.348138 -4.32193e-19)
(9.51511 0.406489 5.50007e-20)
(9.57627 0.405838 -9.04193e-19)
(9.3995 0.466879 -3.1473e-19)
(9.46846 0.468205 9.23992e-19)
(9.27221 0.532794 -6.78574e-19)
(9.3493 0.536044 -7.25751e-19)
(9.13305 0.605069 2.56144e-18)
(9.21873 0.610201 1.46225e-18)
(8.98177 0.684636 -1.14317e-19)
(9.07656 0.691612 2.04579e-18)
(8.81807 0.772525 -1.77576e-18)
(8.9226 0.781303 -2.08834e-18)
(8.64163 0.869881 2.27127e-18)
(8.75652 0.8804 2.71454e-19)
(8.45209 0.977998 -9.78583e-19)
(8.57805 0.990184 1.97694e-18)
(8.24903 1.09836 -2.82904e-18)
(8.38697 1.11211 1.66028e-18)
(8.03202 1.23266 0)
(8.18289 1.24785 -4.61729e-18)
(7.80051 1.38289 0)
(7.96547 1.39936 -4.80719e-18)
(7.55386 1.55129 6.60883e-19)
(7.73432 1.56889 -5.62185e-20)
(7.29137 1.74044 6.44626e-19)
(7.48895 1.75901 -3.72251e-20)
(7.012 1.95348 -6.99191e-19)
(7.22882 1.97281 5.15454e-18)
(6.7143 2.19418 1.02116e-17)
(6.95312 2.2141 -9.37402e-18)
(6.39627 2.46713 -1.21478e-17)
(6.66077 2.48753 2.23114e-17)
(6.05511 2.77812 -1.37485e-17)
(6.35016 2.79888 -2.28494e-17)
(5.68703 3.13494 8.9855e-18)
(6.01913 3.15554 6.11465e-19)
(5.28654 3.54687 -2.43633e-17)
(5.6644 3.56762 1.11586e-17)
(4.85269 4.02915 3.61549e-19)
(5.28968 4.04169 -2.33669e-17)
(4.34512 4.57019 3.35954e-18)
(4.8299 4.62853 4.68364e-18)
(3.87296 5.14917 6.10373e-18)
(4.61943 5.07591 -4.04111e-18)
(3.39849 6.09416 2.64997e-17)
(9.98613 0.0821257 -1.45462e-19)
(9.99661 0.0581752 -1.26781e-21)
(9.95842 0.133524 3.56174e-19)
(9.97621 0.113778 5.67754e-19)
(9.91691 0.183719 6.26711e-19)
(9.94173 0.167332 -1.93864e-19)
(9.86243 0.234781 3.63196e-19)
(9.89436 0.22097 7.97632e-19)
(9.79588 0.288005 -8.29462e-19)
(9.83474 0.276392 -1.22488e-18)
(9.71777 0.34421 -8.5277e-19)
(9.76361 0.33458 4.16433e-19)
(9.62838 0.404153 -4.23842e-19)
(9.68142 0.396321 -2.92512e-21)
(9.52786 0.468642 0)
(9.58838 0.462427 8.87715e-19)
(9.41631 0.538522 4.82299e-19)
(9.48458 0.53376 7.30305e-21)
(9.29371 0.614669 1.45595e-18)
(9.37008 0.611226 9.489e-21)
(9.15995 0.698028 9.56364e-19)
(9.24484 0.69577 9.71873e-19)
(9.01489 0.789638 0)
(9.10877 0.788429 0)
(8.8583 0.890629 0)
(8.96184 0.890339 0)
(8.68999 1.00225 3.30476e-21)
(8.80372 1.00272 -5.19911e-19)
(8.50975 1.12594 4.61387e-18)
(8.63432 1.12696 5.40912e-19)
(8.31739 1.26335 -2.16316e-19)
(8.45363 1.26467 1.17888e-19)
(8.11265 1.4164 -9.43877e-18)
(8.26143 1.41769 -6.93821e-19)
(7.89533 1.58729 -4.80898e-18)
(8.05761 1.58819 -9.48349e-18)
(7.66515 1.77861 -7.56844e-19)
(7.84211 1.77865 -1.05249e-19)
(7.42188 1.99338 4.53363e-18)
(7.61486 1.99201 5.35261e-18)
(7.16517 2.23533 -3.65621e-18)
(7.37586 2.23183 -4.79441e-18)
(6.89451 2.50906 2.92489e-18)
(7.12506 2.50256 -1.13356e-17)
(6.60916 2.8203 1.14685e-17)
(6.86242 2.80969 1.0205e-17)
(6.30812 3.17615 -8.41603e-18)
(6.58785 3.16015 -4.90574e-20)
(5.99035 3.58561 2.6532e-18)
(6.30146 3.56236 -7.15807e-19)
(5.65334 4.05835 1.27174e-17)
(6.0016 4.02776 1.12751e-17)
(5.3038 4.60894 -1.96082e-17)
(5.70377 4.55755 -1.11982e-18)
(4.89109 5.21705 -3.22287e-18)
(5.30308 5.22795 -3.91921e-18)
(4.52294 5.81164 1.93078e-17)
(5.2911 5.65554 2.58094e-18)
(3.9978 6.78382 -1.92127e-17)
(9.986 0.0909366 7.23681e-19)
(9.99656 0.0638898 1.47288e-18)
(9.95866 0.148719 0)
(9.97645 0.125481 0)
(9.91825 0.205654 -9.16785e-22)
(9.9427 0.185505 0)
(9.8655 0.263658 -8.34348e-19)
(9.89679 0.24586 -3.96001e-19)
(9.80122 0.324062 5.53476e-20)
(9.83935 0.308165 -6.25071e-21)
(9.72593 0.387807 1.2585e-18)
(9.77094 0.373526 8.3726e-19)
(9.63992 0.455743 1.32665e-18)
(9.69202 0.442847 2.53677e-21)
(9.54337 0.528737 8.78724e-19)
(9.60286 0.516993 8.8841e-19)
(9.43643 0.607714 -4.65823e-19)
(9.50356 0.596891 -4.46816e-19)
(9.31913 0.693641 -4.58354e-19)
(9.39425 0.683534 -7.80028e-21)
(9.19143 0.787552 -2.03238e-21)
(9.27493 0.777959 -2.37981e-18)
(9.05329 0.890596 0)
(9.14562 0.88127 3.88878e-18)
(8.90459 1.004 -5.28692e-19)
(9.00636 0.994737 -3.49248e-18)
(8.7452 1.1291 3.41244e-20)
(8.85703 1.11969 4.08373e-18)
(8.57513 1.26744 -3.96793e-18)
(8.69765 1.25751 -6.28491e-18)
(8.39437 1.42087 -3.76851e-19)
(8.52825 1.40997 -1.63087e-19)
(8.20286 1.59146 -8.42087e-19)
(8.34885 1.57918 7.95411e-20)
(8.00063 1.78162 -4.66455e-18)
(8.15962 1.76739 4.31206e-18)
(7.78782 1.99417 6.07285e-18)
(7.96079 1.97727 -4.61585e-18)
(7.56462 2.23255 -4.08147e-18)
(7.75269 2.21209 -4.48595e-18)
(7.33133 2.501 -1.25666e-17)
(7.53582 2.47582 -5.68859e-19)
(7.0883 2.80475 -3.95935e-18)
(7.31088 2.77347 9.4071e-18)
(6.83614 3.15029 -1.39918e-18)
(7.07879 3.1111 -8.67257e-20)
(6.57567 3.54575 7.69309e-18)
(6.84089 3.4964 -9.70528e-18)
(6.30838 4.00092 7.85995e-18)
(6.59965 3.93859 9.03502e-18)
(6.03414 4.52481 -2.47292e-18)
(6.35405 4.45042 -1.86485e-17)
(5.76613 5.13062 1.48207e-17)
(6.13361 5.02476 1.67254e-17)
(5.44505 5.79313 1.80412e-18)
(5.78576 5.76952 1.80116e-17)
(5.16369 6.39083 -3.77948e-17)
(5.96139 6.16462 -1.76953e-17)
(4.59793 7.39226 -2.00399e-17)
(9.98613 0.099646 7.19545e-19)
(9.99662 0.0695542 -7.29581e-19)
(9.9594 0.163557 0)
(9.97697 0.136945 -1.86923e-19)
(9.92032 0.226926 -4.04017e-19)
(9.94422 0.203125 5.74442e-19)
(9.86956 0.291573 4.40755e-19)
(9.90004 0.269878 -7.87024e-19)
(9.80786 0.358851 7.93491e-19)
(9.84501 0.338762 -3.99192e-19)
(9.73573 0.429807 -4.35963e-19)
(9.77958 0.410976 4.1114e-19)
(9.65347 0.50537 -4.19238e-19)
(9.70427 0.487518 -4.27637e-19)
(9.56134 0.586466 -4.62786e-19)
(9.61938 0.569306 0)
(9.4595 0.674092 1.92529e-20)
(9.52503 0.657329 -2.24146e-18)
(9.34802 0.769304 -1.97128e-18)
(9.42138 0.752674 1.81874e-18)
(9.22694 0.873207 1.61749e-18)
(9.30853 0.856447 -2.38078e-18)
(9.09632 0.987023 2.76798e-19)
(9.18659 0.969799 3.41774e-18)
(8.95624 1.1121 1.23926e-18)
(9.05563 1.09407 -3.98955e-18)
(8.80672 1.24987 -2.39153e-18)
(8.91593 1.23071 8.63986e-18)
(8.64781 1.40193 -2.39535e-18)
(8.76752 1.38122 -9.89497e-18)
(8.47959 1.57028 3.02558e-19)
(8.61024 1.54747 8.10055e-20)
(8.30228 1.75718 5.28728e-18)
(8.44457 1.73167 1.43745e-18)
(8.11623 1.96516 4.28389e-18)
(8.27099 1.93623 4.65234e-18)
(7.9219 2.1973 -1.52124e-17)
(8.08998 2.16401 -1.8014e-19)
(7.71996 2.45736 -9.60615e-19)
(7.90218 2.4185 -2.07135e-17)
(7.51131 2.75 2.15603e-17)
(7.70864 2.70406 1.96575e-17)
(7.2971 3.08097 1.33212e-17)
(7.51084 3.02616 2.00781e-17)
(7.07911 3.45731 -8.40027e-18)
(7.31053 3.39135 2.41014e-18)
(6.85991 3.88767 -8.55764e-18)
(7.11038 3.80777 -9.75452e-18)
(6.64329 4.38254 -1.7277e-17)
(6.91499 4.285 -7.62632e-18)
(6.43057 4.94995 -2.38506e-19)
(6.72312 4.83756 -3.58023e-17)
(6.24036 5.6008 1.993e-17)
(6.57977 5.4475 3.58359e-17)
(6.00805 6.30825 4.72457e-20)
(6.28061 6.25805 -1.37307e-17)
(5.79852 6.90515 0)
(6.63012 6.61723 1.47204e-17)
(5.19651 7.9353 4.61864e-19)
(9.98645 0.108162 -1.62598e-18)
(9.99675 0.0750935 -7.35305e-19)
(9.96055 0.177942 4.05162e-19)
(9.97771 0.148073 -1.0224e-21)
(9.92302 0.24743 1.61365e-19)
(9.94619 0.220099 -3.75363e-19)
(9.87447 0.318405 -1.61928e-18)
(9.90396 0.292927 -7.82766e-19)
(9.81558 0.392234 -7.65598e-19)
(9.85154 0.36808 -1.07499e-20)
(9.74686 0.470046 4.0319e-19)
(9.78932 0.446803 4.8566e-21)
(9.66871 0.552842 0)
(9.71795 0.530168 0)
(9.5814 0.641608 -1.82059e-18)
(9.63771 0.619165 -1.72264e-18)
(9.48509 0.737412 -3.70054e-19)
(9.5487 0.714854 -1.80279e-18)
(9.37993 0.841384 1.33892e-18)
(9.45116 0.818383 4.0547e-18)
(9.26605 0.954681 -4.84937e-19)
(9.34532 0.930907 -1.84715e-18)
(9.14363 1.07855 -9.68931e-19)
(9.23138 1.05362 1.39958e-18)
(9.0129 1.21445 3.60649e-18)
(9.10942 1.18787 3.84665e-18)
(8.87405 1.36396 8.70656e-19)
(8.97995 1.33528 4.06612e-18)
(8.72709 1.52876 -7.28577e-18)
(8.84306 1.49756 -3.53401e-18)
(8.57227 1.71091 1.22738e-18)
(8.69875 1.67657 -8.27745e-18)
(8.41015 1.9128 8.40761e-19)
(8.54781 1.8745 8.45037e-18)
(8.24139 2.13713 1.20423e-19)
(8.39091 2.09395 -8.57579e-18)
(8.06673 2.38717 -5.8277e-18)
(8.22888 2.33803 -4.11592e-18)
(7.88724 2.66693 1.57022e-19)
(8.06254 2.61037 -5.08905e-19)
(7.70448 2.98146 1.81706e-17)
(7.89344 2.91562 9.12233e-18)
(7.52043 3.33693 9.15135e-18)
(7.72404 3.25969 8.02389e-18)
(7.33788 3.74082 1.14336e-18)
(7.55691 3.64951 -9.51385e-18)
(7.16083 4.20213 -8.80999e-18)
(7.39581 4.09368 8.38208e-18)
(6.99515 4.73167 -2.58005e-17)
(7.24727 4.60178 -9.94361e-18)
(6.84308 5.33674 -1.46183e-18)
(7.10919 5.19048 -1.80851e-17)
(6.72676 6.02503 3.3315e-18)
(7.04225 5.82935 3.07798e-17)
(6.58134 6.77047 -3.81629e-19)
(6.79068 6.69697 -1.44464e-17)
(6.42949 7.37207 1.38152e-17)
(7.29811 7.0282 1.80394e-18)
(5.79665 8.43701 2.97748e-20)
(9.98689 0.116411 9.05448e-19)
(9.99694 0.0804542 7.30617e-19)
(9.96202 0.191789 -7.90555e-19)
(9.97864 0.158788 -5.52142e-19)
(9.9262 0.267081 -1.32912e-18)
(9.94852 0.236352 -5.71926e-19)
(9.88005 0.344061 8.42946e-19)
(9.90842 0.31493 7.69501e-19)
(9.82418 0.424103 7.60848e-19)
(9.85882 0.396016 1.20072e-18)
(9.7592 0.508389 -3.98848e-19)
(9.80013 0.480865 -1.22091e-18)
(9.68551 0.597992 -1.75589e-18)
(9.73302 0.570625 8.28444e-19)
(9.60337 0.693966 -1.70664e-18)
(9.65774 0.666382 -1.72439e-18)
(9.51301 0.797435 2.72634e-18)
(9.57443 0.769244 -2.19172e-18)
(9.41466 0.909574 7.69355e-19)
(9.48341 0.880386 4.46167e-18)
(9.30856 1.03158 8.93943e-20)
(9.38506 1.001 -4.82754e-19)
(9.19497 1.16474 6.25857e-18)
(9.27962 1.13232 5.01118e-19)
(9.07416 1.3106 4.31264e-18)
(9.16723 1.27579 4.34335e-18)
(8.94639 1.47088 -4.45798e-19)
(9.04846 1.43312 3.15243e-20)
(8.81201 1.64739 -4.58152e-18)
(8.92356 1.60611 -4.71691e-19)
(8.67152 1.84215 -8.61981e-19)
(8.79302 1.79664 -8.05211e-18)
(8.52564 2.05763 -1.14675e-18)
(8.65773 2.00694 1.11684e-17)
(8.37527 2.29675 -1.27934e-17)
(8.5184 2.23975 -1.11357e-19)
(8.22138 2.56295 1.22104e-18)
(8.37637 2.49848 -2.39377e-17)
(8.0654 2.86037 8.54129e-18)
(8.23263 2.78686 9.67117e-18)
(7.90966 3.19442 -1.08985e-18)
(8.08906 3.10958 1.53084e-17)
(7.75706 3.57168 -1.0671e-17)
(7.9492 3.473 -7.13141e-18)
(7.6113 3.99998 -2.42369e-18)
(7.81664 3.8845 -9.73413e-18)
(7.47757 4.48866 7.55121e-18)
(7.69589 4.35304 9.4312e-18)
(7.36356 5.04876 -1.96196e-18)
(7.59562 4.88815 8.53575e-19)
(7.27241 5.687 1.30172e-17)
(7.51224 5.50878 -6.6948e-20)
(7.22664 6.40732 1.38532e-17)
(7.52108 6.17256 2.7087e-17)
(7.16859 7.18545 -1.25622e-17)
(7.32034 7.08711 -1.25056e-17)
(7.06741 7.80468 -1.21809e-17)
(7.96743 7.40858 -1.24536e-17)
(6.40815 8.91528 -4.37063e-19)
(9.98745 0.124333 -7.53495e-19)
(9.99718 0.0855926 0)
(9.96376 0.205033 -3.33825e-19)
(9.97974 0.169023 -3.68399e-19)
(9.92982 0.285807 1.55743e-18)
(9.95119 0.251818 3.43775e-21)
(9.88625 0.368447 1.13665e-18)
(9.9134 0.335801 3.90336e-19)
(9.83371 0.454325 -8.30672e-19)
(9.86687 0.422434 0)
(9.77277 0.544669 4.62796e-20)
(9.81198 0.512998 -1.61802e-18)
(9.70384 0.640629 8.13462e-19)
(9.74936 0.608731 8.29232e-19)
(9.62721 0.743318 -2.21768e-18)
(9.67932 0.710783 4.19124e-19)
(9.54315 0.853894 -3.44357e-19)
(9.602 0.820291 -1.75256e-18)
(9.45201 0.973558 3.12922e-18)
(9.51787 0.938438 8.93775e-19)
(9.35411 1.10356 -5.45014e-20)
(9.4274 1.06645 1.81661e-18)
(9.24978 1.24525 -1.36364e-18)
(9.33088 1.20566 -2.28675e-18)
(9.13933 1.40026 -3.46582e-21)
(9.22847 1.35755 -4.67482e-19)
(9.02322 1.57033 0)
(9.12087 1.52387 -3.7682e-18)
(8.90205 1.75733 -4.03183e-18)
(9.0086 1.70642 3.7992e-18)
(8.7766 1.96335 4.19009e-18)
(8.89245 1.90714 -8.81895e-18)
(8.64773 2.19092 1.2124e-17)
(8.77338 2.12836 1.19531e-17)
(8.51659 2.44319 -1.14222e-17)
(8.65225 2.37295 -2.77422e-18)
(8.38454 2.72376 -1.5353e-17)
(8.53088 2.64452 -6.8126e-19)
(8.25323 3.03678 1.64519e-17)
(8.41092 2.94699 -6.90402e-18)
(8.12555 3.38787 9.33393e-18)
(8.29424 3.28491 1.64989e-17)
(8.00552 3.78405 -6.18435e-18)
(8.18496 3.66486 -8.15055e-18)
(7.89783 4.23355 1.97961e-18)
(8.08816 4.09486 8.46942e-18)
(7.80878 4.74593 2.82178e-18)
(8.00908 4.58414 -2.14962e-17)
(7.74757 5.33267 2.79146e-18)
(7.95863 5.14221 1.31134e-18)
(7.71897 5.99992 1.33646e-17)
(7.93165 5.78968 1.37666e-17)
(7.74175 6.74899 8.97874e-19)
(8.01544 6.47612 2.47471e-17)
(7.77387 7.55715 -1.14543e-17)
(7.87439 7.42557 -1.27505e-17)
(7.72401 8.22227 6.02322e-19)
(8.64173 7.76894 -9.99058e-18)
(7.04519 9.40584 0)
(9.98811 0.131873 3.78147e-19)
(9.99747 0.0904656 0)
(9.96577 0.217601 -2.23679e-20)
(9.981 0.17871 1.83387e-18)
(9.93388 0.303523 -1.15619e-18)
(9.95415 0.266417 -3.76153e-19)
(9.8931 0.391448 -7.55379e-19)
(9.91887 0.355437 -8.55849e-21)
(9.84411 0.482756 -8.19743e-19)
(9.8756 0.447218 0)
(9.78744 0.578732 -7.88365e-19)
(9.82466 0.543094 -8.04251e-19)
(9.72347 0.680595 4.27016e-19)
(9.76672 0.64437 1.62951e-18)
(9.65257 0.789496 8.47515e-19)
(9.7021 0.752233 -1.66359e-18)
(9.57512 0.906602 -4.69343e-19)
(9.63105 0.86783 1.69361e-18)
(9.49154 1.03314 -4.06898e-19)
(9.55418 0.992343 -2.17429e-18)
(9.40224 1.17043 -4.78589e-19)
(9.47194 1.12706 1.32451e-18)
(9.30755 1.31989 -1.36431e-18)
(9.38468 1.27339 -9.00223e-19)
(9.20791 1.48313 -4.28026e-18)
(9.29261 1.43285 -4.09942e-18)
(9.10401 1.66192 1.21887e-19)
(9.1966 1.60713 2.65585e-18)
(8.99665 1.85817 -1.12334e-18)
(9.09755 1.79807 1.02021e-19)
(8.88671 2.07404 -8.61564e-19)
(8.99631 2.00767 7.92451e-19)
(8.77529 2.31214 -3.08845e-18)
(8.89383 2.23837 1.31566e-19)
(8.66385 2.57572 7.99939e-18)
(8.79139 2.49307 -7.86673e-18)
(8.55441 2.86863 7.82052e-18)
(8.69109 2.77537 2.23776e-17)
(8.44907 3.19511 -6.89579e-18)
(8.59559 3.08954 -8.80084e-18)
(8.35075 3.56063 -9.70467e-19)
(8.50715 3.44024 -7.42153e-18)
(8.26432 3.97257 6.43989e-18)
(8.42973 3.83375 -9.76728e-19)
(8.19584 4.4396 -1.47016e-17)
(8.36962 4.27852 7.50221e-18)
(8.15281 4.97158 -2.35374e-17)
(8.33344 4.78424 -3.50282e-17)
(8.14573 5.58038 1.20553e-17)
(8.33418 5.36042 1.20944e-17)
(8.18201 6.27144 2.49421e-17)
(8.3659 6.02785 1.29565e-17)
(8.2729 7.04739 1.12383e-17)
(8.5232 6.73548 2.06791e-17)
(8.40092 7.88729 -1.04173e-17)
(8.45814 7.70578 -1.06195e-17)
(8.41477 8.65003 -9.55803e-18)
(9.32936 8.11773 -1.06359e-17)
(7.7327 9.95696 1.53673e-17)
(9.98887 0.138978 1.49313e-18)
(9.99781 0.0950354 -1.78847e-19)
(9.968 0.22942 1.43016e-18)
(9.98237 0.187796 5.53368e-19)
(9.9383 0.320135 7.80301e-19)
(9.95732 0.280082 3.71264e-19)
(9.90048 0.412959 7.47729e-19)
(9.92468 0.373767 -1.51529e-18)
(9.85515 0.509292 -1.79542e-22)
(9.88481 0.470315 3.85336e-22)
(9.80285 0.610472 1.66094e-18)
(9.83793 0.571097 -1.76154e-22)
(9.74403 0.717765 -5.20883e-19)
(9.78484 0.677453 1.63127e-18)
(9.67913 0.832337 -7.60922e-19)
(9.72589 0.790608 -2.90954e-18)
(9.6086 0.95536 -7.45887e-20)
(9.66142 0.911692 -1.24428e-18)
(9.53293 1.08809 -3.88466e-19)
(9.5921 1.04191 -4.5041e-19)
(9.45254 1.23191 8.7109e-19)
(9.51832 1.18261 1.74509e-18)
(9.36782 1.38828 -3.68081e-18)
(9.44051 1.33531 4.40262e-18)
(9.27934 1.55876 2.92686e-18)
(9.35914 1.50145 -3.62572e-18)
(9.18806 1.74513 2.61425e-18)
(9.27517 1.6826 2.87242e-18)
(9.09499 1.94937 2.0235e-18)
(9.18968 1.88067 -7.34781e-18)
(9.00104 2.17369 1.79092e-18)
(9.10368 2.09785 8.37499e-18)
(8.90748 2.42073 -4.71149e-18)
(9.01819 2.33656 -8.35072e-18)
(8.81614 2.69368 6.66239e-18)
(8.93495 2.5996 1.00069e-17)
(8.72963 2.99652 5.67602e-18)
(8.85622 2.89043 -7.83739e-18)
(8.65091 3.33385 -9.32157e-18)
(8.78522 3.21354 -1.855e-18)
(8.58316 3.71104 -7.47964e-18)
(8.72552 3.57405 -3.94575e-19)
(8.53144 4.13528 0)
(8.68102 3.97786 8.45827e-19)
(8.50313 4.61551 -1.22631e-17)
(8.65835 4.4331 0)
(8.50728 5.16205 -2.21766e-19)
(8.6661 4.94988 -1.01176e-18)
(8.5556 5.78648 1.29882e-17)
(8.71879 5.53734 -1.02467e-17)
(8.65911 6.49414 8.48783e-18)
(8.81167 6.21497 1.06923e-17)
(8.8203 7.29327 -1.2316e-18)
(9.04025 6.93982 9.2542e-18)
(9.05646 8.16368 -9.94562e-18)
(9.07433 7.91052 -9.32984e-18)
(9.16919 9.09787 1.67873e-17)
(10.0269 8.44368 0)
(8.4966 10.5594 1.69324e-17)
(9.9897 0.145616 -1.10512e-18)
(9.99818 0.099274 -3.50493e-19)
(9.97035 0.240458 -5.10727e-19)
(9.98379 0.196264 -1.10029e-18)
(9.94291 0.335617 -1.96661e-18)
(9.96061 0.292792 1.07714e-18)
(9.90815 0.432966 -2.23281e-18)
(9.93073 0.390755 -1.96563e-18)
(9.86662 0.533936 3.77976e-22)
(9.89439 0.491679 1.45603e-18)
(9.81889 0.639891 0)
(9.85182 0.596939 0)
(9.76546 0.752122 -8.38994e-19)
(9.8038 0.707893 1.5151e-18)
(9.70682 0.871804 -3.36578e-18)
(9.75073 0.825795 -4.68626e-18)
(9.64347 1.00012 -1.60935e-18)
(9.69313 0.951767 -2.14742e-19)
(9.5759 1.13836 1.7184e-18)
(9.63153 1.08706 8.72175e-19)
(9.50455 1.28797 5.3176e-18)
(9.56642 1.23309 8.1791e-20)
(9.43005 1.45041 4.36013e-18)
(9.49826 1.39132 4.48668e-18)
(9.35316 1.62718 -3.60542e-18)
(9.42806 1.56318 1.67358e-20)
(9.27485 1.82 -7.2162e-18)
(9.35663 1.75016 -2.81354e-18)
(9.19626 2.03095 -8.50441e-19)
(9.28493 1.95422 -4.54249e-18)
(9.11858 2.2623 -1.90368e-18)
(9.2144 2.17763 6.15265e-18)
(9.04336 2.51665 6.49127e-18)
(9.1464 2.42275 -1.47601e-17)
(8.97266 2.79705 -4.56346e-18)
(9.08297 2.69231 1.70863e-17)
(8.90931 3.10737 -1.54208e-17)
(9.02647 2.98961 -8.31646e-18)
(8.85709 3.4525 7.10174e-18)
(8.98028 3.31901 -5.68561e-18)
(8.82015 3.83798 7.97046e-18)
(8.94922 3.68592 7.23131e-18)
(8.80384 4.27041 8.56912e-19)
(8.93793 4.09613 8.43561e-20)
(8.81635 4.75859 1.13149e-17)
(8.95335 4.55697 0)
(8.86839 5.31268 -1.08729e-17)
(9.00549 5.07799 1.17149e-17)
(8.9728 5.9432 -1.30163e-17)
(9.11004 5.66741 -2.34534e-17)
(9.14502 6.65664 1.14857e-17)
(9.26571 6.34191 1.99766e-17)
(9.38017 7.46945 1.11094e-18)
(9.56271 7.07258 -1.78241e-19)
(9.73622 8.37568 5.09498e-19)
(9.72633 8.01489 -9.75611e-18)
(9.99287 9.72137 1.36623e-18)
(10.806 8.71123 3.01588e-18)
(10.5487 11.1513 -2.2267e-19)
(-0.00981049 -0.0159902 -1.14215e-19)
(-0.0376424 0.00130462 -7.56202e-22)
(0.0862755 -0.0385411 3.03629e-20)
(0.00301748 -0.0591109 2.52064e-19)
(0.268249 -0.0499136 -1.75218e-20)
(0.161588 -0.09009 -3.40526e-19)
(0.487681 -0.0502864 1.03427e-19)
(0.361125 -0.0946094 -1.57683e-19)
(0.697086 -0.045003 -3.34021e-20)
(0.572997 -0.087112 2.67657e-19)
(0.873785 -0.0385397 -2.73687e-20)
(0.766735 -0.0768071 -5.25743e-20)
(1.01579 -0.0324916 1.89767e-20)
(0.928826 -0.0670252 2.23747e-20)
(1.12813 -0.0268759 -1.21631e-20)
(1.0592 -0.0579093 -2.39958e-20)
(1.21558 -0.0217286 -5.11208e-21)
(1.16209 -0.0487449 1.0345e-20)
(1.28357 -0.0177479 -4.88308e-21)
(1.24203 -0.0404346 3.80235e-20)
(1.33969 -0.0149079 0)
(1.30524 -0.0351533 -3.89084e-20)
(1.38696 -0.011737 -4.20614e-21)
(1.35831 -0.030832 -1.69567e-20)
(1.42227 -0.00777551 -4.12614e-21)
(1.40305 -0.0237437 -6.92724e-21)
(1.44569 -0.00476496 0)
(1.43653 -0.0161282 2.38171e-20)
(1.46374 -0.0043482 1.74081e-21)
(1.45887 -0.0126847 -3.69952e-21)
(1.48416 -0.00612386 -4.42136e-23)
(1.47653 -0.0145937 1.059e-20)
(1.50938 -0.00805086 -5.20843e-21)
(1.4967 -0.0182569 -1.5658e-20)
(1.53541 -0.00840822 -1.77486e-21)
(1.52153 -0.0190426 8.28787e-21)
(1.55632 -0.00737823 3.0053e-21)
(1.54689 -0.0154207 4.88202e-23)
(1.57035 -0.00643745 5.42627e-23)
(1.5668 -0.0104311 2.89609e-21)
(1.5813 -0.00670121 -1.39811e-21)
(1.57957 -0.00819196 -7.02351e-21)
(1.59474 -0.00829463 0)
(1.58907 -0.0101378 1.4028e-21)
(1.61482 -0.011026 -1.45187e-23)
(1.60029 -0.0152565 0)
(1.64437 -0.0149013 -6.34033e-22)
(1.61624 -0.0225876 1.93125e-21)
(1.68522 -0.0199963 -1.21805e-21)
(1.63862 -0.0314008 -1.91916e-21)
(1.73901 -0.0262279 -1.10297e-21)
(1.6687 -0.0415789 1.12147e-21)
(1.80666 -0.0332123 -9.0728e-23)
(1.70836 -0.0525596 -1.13355e-21)
(1.88815 -0.0401102 4.27731e-22)
(1.75969 -0.0636187 -3.49661e-22)
(1.98161 -0.0451057 0)
(1.82417 -0.0733455 3.74908e-22)
(1.924 -0.0777841 -2.79783e-22)
(-0.0338521 -0.0405746 3.61815e-19)
(-0.0510166 0.00162958 -1.75086e-19)
(0.0578075 -0.112496 -5.80399e-20)
(-0.0272534 -0.125156 4.77013e-19)
(0.234762 -0.141126 -4.98647e-19)
(0.114765 -0.181973 -7.84252e-19)
(0.449803 -0.141758 9.19765e-21)
(0.29736 -0.189385 -6.67481e-21)
(0.65839 -0.129345 2.38443e-19)
(0.493328 -0.175225 2.56107e-19)
(0.836832 -0.113934 -1.64398e-22)
(0.672316 -0.15561 1.24376e-20)
(0.982042 -0.0992477 -2.28576e-20)