/*--------------------------------*- C++ -*----------------------------------*\
| =========                 |                                                 |
| \\      /  F ield         | OpenFOAM: The Open Source CFD Toolbox           |
|  \\    /   O peration     | Version:  4.1                                   |
|   \\  /    A nd           | Web:      www.OpenFOAM.org                      |
|    \\/     M anipulation  |                                                 |
\*---------------------------------------------------------------------------*/
FoamFile
{
    version     2.0;
    format      ascii;
    class       surfaceVectorField;
    location    "0.7";
    object      Uf;
}
// * * * * * * * * * * * * * * * * * * * * * * * * * * * * * * * * * * * * * //

dimensions      [0 1 -1 0 0 0 0];

internalField   nonuniform List<vector> 
5457
(
(9.91638 3.88993e-21 0.0234338)
(9.96065 5.06164e-23 0.0369133)
(9.82098 -5.26276e-20 0.0295868)
(9.92594 1.3828e-19 0.0434262)
(9.71295 -6.70351e-21 0.0346496)
(9.8632 -6.07977e-20 0.0508918)
(9.58962 2.94623e-20 0.0399766)
(9.77551 -8.32214e-20 0.0601178)
(9.45091 2.84716e-20 0.0455333)
(9.67026 1.87729e-22 0.0699312)
(9.29696 0 0.0513536)
(9.54978 5.84696e-20 0.0802399)
(9.12751 -3.27651e-20 0.0575782)
(9.41347 0 0.0912876)
(8.94191 -1.49239e-20 0.0643468)
(9.26036 -1.5761e-19 0.103309)
(8.73933 7.4399e-21 0.0717797)
(9.08963 1.61097e-19 0.116491)
(8.51876 6.98443e-20 0.0799934)
(8.90044 1.17422e-19 0.131008)
(8.27907 -7.72494e-20 0.0891121)
(8.69179 2.13922e-19 0.147041)
(8.01897 -5.87365e-20 0.0992709)
(8.46252 -7.27335e-19 0.16479)
(7.73706 8.67312e-20 0.110614)
(8.21131 3.76951e-19 0.184463)
(7.43185 0 0.123289)
(7.9367 0 0.206271)
(7.10178 0 0.137442)
(7.63719 0 0.230404)
(6.74532 2.46733e-19 0.153229)
(7.31113 -4.27899e-20 0.257033)
(6.36094 8.49156e-20 0.170797)
(6.957 1.97982e-19 0.286326)
(5.94727 2.95188e-19 0.190245)
(6.57332 -1.99227e-19 0.318362)
(5.50323 -3.91368e-19 0.211614)
(6.15867 5.37731e-19 0.353063)
(5.02821 -8.06141e-19 0.234865)
(5.712 -6.51156e-20 0.390193)
(4.52222 6.62464e-19 0.259831)
(5.23277 -6.72782e-19 0.429281)
(3.98621 7.96135e-19 0.286183)
(4.72113 5.41525e-19 0.469515)
(3.42226 1.41078e-19 0.313366)
(4.17813 -2.02699e-18 0.509684)
(2.83389 0 0.340444)
(3.60622 -2.44165e-20 0.548077)
(2.22662 -1.84746e-18 0.365733)
(3.00939 2.31873e-18 0.582144)
(1.60879 -1.82226e-18 0.385426)
(2.39372 -1.51555e-18 0.608021)
(0.993791 3.47641e-18 0.384619)
(1.76814 -6.83288e-19 0.618961)
(0.411437 5.33106e-18 0.277318)
(1.14603 3.46301e-18 0.594261)
(-0.0113905 -3.37412e-18 -0.0970204)
(0.524299 -5.32732e-18 0.426922)
(0.221129 4.24091e-18 -0.0107944)
(10.0011 1.36734e-19 0.0464976)
(9.9896 -6.47924e-20 0.0364131)
(9.9701 1.26535e-19 0.0613251)
(9.98197 9.25881e-20 0.0575399)
(9.91995 -1.37691e-19 0.0743992)
(9.95005 5.38108e-20 0.0745039)
(9.85243 -1.11079e-19 0.0884956)
(9.89366 -1.38361e-19 0.0930169)
(9.76738 3.11808e-20 0.103535)
(9.81895 -2.87743e-20 0.112797)
(9.6648 5.74922e-20 0.11955)
(9.72839 5.84741e-20 0.133702)
(9.54446 -1.27457e-19 0.136841)
(9.62165 1.20433e-19 0.156111)
(9.40584 2.36524e-20 0.155724)
(9.49793 -2.48547e-19 0.180464)
(9.24822 2.70379e-19 0.176477)
(9.35649 -1.43829e-19 0.207137)
(9.07066 2.63058e-19 0.199368)
(9.19663 6.70461e-19 0.236483)
(8.8721 -4.5131e-19 0.224683)
(9.01747 -1.17758e-19 0.268874)
(8.65132 -2.74017e-19 0.252728)
(8.81796 -5.76723e-19 0.304718)
(8.40693 2.84243e-19 0.283818)
(8.59689 2.70512e-19 0.344445)
(8.13744 0 0.31826)
(8.35293 0 0.388499)
(7.84127 -4.34639e-20 0.356327)
(8.08463 0 0.437298)
(7.51681 -8.78312e-20 0.398269)
(7.79037 -6.70312e-19 0.491211)
(7.16244 -9.23965e-20 0.44428)
(7.46856 6.4372e-19 0.550588)
(6.77663 5.45645e-20 0.494388)
(7.11773 -4.73628e-20 0.615678)
(6.35802 8.54845e-19 0.548377)
(6.73623 4.25761e-21 0.686435)
(5.90562 5.93974e-20 0.605735)
(6.32262 7.4555e-19 0.762473)
(5.41899 -7.76914e-19 0.665528)
(5.87582 8.19201e-19 0.842966)
(4.89846 -2.31741e-18 0.726248)
(5.39522 -1.88319e-18 0.926415)
(4.34551 -2.16825e-18 0.785669)
(4.88074 -2.17029e-18 1.01043)
(3.76315 2.32032e-18 0.840484)
(4.33351 -5.20296e-19 1.09148)
(3.15653 2.61113e-18 0.885482)
(3.75595 2.31798e-18 1.16423)
(2.53443 -3.69416e-19 0.911731)
(3.1518 -3.65503e-18 1.21983)
(1.91214 -6.7097e-19 0.900564)
(2.52652 -9.76635e-20 1.24256)
(1.31231 -7.19919e-18 0.805958)
(1.8857 5.20222e-18 1.19945)
(0.706429 2.40042e-18 0.553328)
(1.20816 -6.46925e-18 1.02918)
(0.676038 8.47128e-18 0.676027)
(9.99389 -1.06374e-19 0.0505894)
(9.98731 -1.29244e-20 0.039121)
(9.9663 1.91337e-20 0.0738477)
(9.97717 -9.22266e-20 0.070115)
(9.91974 4.98502e-20 0.0958197)
(9.94628 1.07815e-19 0.0964628)
(9.85705 -5.41871e-20 0.119251)
(9.8928 -5.51399e-20 0.123609)
(9.77855 0 0.144315)
(9.82183 -1.12683e-19 0.152416)
(9.68416 1.22452e-19 0.171144)
(9.73586 -2.32434e-19 0.182955)
(9.57368 -6.75985e-21 0.200159)
(9.63482 5.97036e-19 0.215685)
(9.44675 -4.14327e-19 0.231832)
(9.51804 -3.67497e-19 0.251191)
(9.30277 2.69473e-19 0.266604)
(9.38496 -2.5686e-19 0.290012)
(9.14101 2.76938e-19 0.304919)
(9.23502 5.44485e-19 0.332665)
(8.96056 -2.50543e-19 0.347255)
(9.06753 -2.88356e-19 0.379693)
(8.76038 -1.864e-20 0.394127)
(8.88168 4.3541e-21 0.431694)
(8.53929 -1.80594e-20 0.446078)
(8.67651 1.77858e-20 0.489306)
(8.29596 0 0.503652)
(8.45091 3.7422e-20 0.553193)
(8.02894 -6.37398e-19 0.56735)
(8.20374 0 0.62402)
(7.73668 8.14841e-20 0.637622)
(7.93362 6.77744e-19 0.702392)
(7.41761 6.78292e-19 0.714855)
(7.63911 -4.82506e-19 0.788853)
(7.07009 -9.67965e-20 0.799228)
(7.31888 0 0.883884)
(6.6925 -9.39391e-20 0.890541)
(6.97141 -1.57459e-18 0.987657)
(6.28331 1.50678e-18 0.988108)
(6.595 4.61542e-18 1.09985)
(5.84123 -3.23878e-19 1.09058)
(6.18814 -4.93977e-18 1.21954)
(5.36536 -1.74054e-18 1.19564)
(5.74937 -2.22783e-18 1.34494)
(4.85542 -5.02101e-19 1.2997)
(5.27724 3.07381e-18 1.47296)
(4.31208 -4.90099e-19 1.39745)
(4.77067 -2.88259e-20 1.59884)
(3.73696 -4.00696e-18 1.48063)
(4.22899 0 1.71552)
(3.13236 -3.35553e-18 1.53621)
(3.651 -4.48647e-18 1.81193)
(2.49887 5.79681e-18 1.54309)
(3.03372 5.75171e-19 1.87124)
(1.82473 5.90591e-18 1.46861)
(2.37097 1.47082e-17 1.86861)
(1.05943 -1.50304e-19 1.279)
(1.62065 -9.56467e-18 1.77731)
(0.907661 -9.3486e-20 1.56405)
(9.98962 0 0.0589809)
(9.98598 0 0.0437142)
(9.96206 0 0.0919092)
(9.97398 0 0.0826845)
(9.91635 0 0.123408)
(9.94284 0 0.118034)
(9.85465 -1.14629e-19 0.155989)
(9.89033 1.09654e-19 0.153735)
(9.77769 -3.4717e-19 0.190366)
(9.82081 -1.12399e-19 0.191283)
(9.68546 2.56013e-19 0.226958)
(9.73663 -2.32481e-19 0.231113)
(9.57782 2.204e-19 0.266345)
(9.63788 3.58607e-19 0.273771)
(9.45453 -2.08216e-19 0.309157)
(9.52404 6.05679e-20 0.31994)
(9.31518 3.11248e-20 0.356005)
(9.39463 2.85534e-19 0.370289)
(9.15924 -3.42533e-20 0.4075)
(9.24923 -5.13684e-19 0.425471)
(8.98605 -2.87557e-20 0.4643)
(9.08735 -1.70547e-20 0.486167)
(8.79484 4.09986e-20 0.527114)
(8.90834 5.09627e-23 0.553122)
(8.58475 7.35928e-20 0.596696)
(8.71152 1.16362e-18 0.627138)
(8.35482 3.68481e-20 0.673818)
(8.49608 -1.13326e-18 0.709059)
(8.10397 1.32589e-18 0.759234)
(8.26117 7.60893e-20 0.799747)
(7.83102 9.63756e-20 0.85363)
(8.00583 1.30616e-18 0.900032)
(7.5347 -1.15407e-18 0.95763)
(7.72893 -1.17305e-18 1.01067)
(7.21367 -1.50151e-18 1.07168)
(7.42943 0 1.13235)
(6.86647 3.22538e-18 1.19582)
(7.10613 -1.30308e-18 1.26553)
(6.49146 -1.96591e-18 1.3295)
(6.75752 4.61741e-18 1.41016)
(6.08691 -6.809e-18 1.47137)
(6.38196 -6.81068e-18 1.5655)
(5.65094 2.65521e-18 1.61893)
(5.97747 -3.29304e-18 1.72989)
(5.18151 3.50864e-18 1.76807)
(5.54166 9.78724e-18 1.90026)
(4.67639 4.61471e-19 1.91262)
(5.07144 -2.5871e-18 2.07168)
(4.13261 -5.26427e-19 2.04349)
(4.56297 0 2.23696)
(3.54505 -5.17239e-19 2.14737)
(4.01046 7.24556e-18 2.38574)
(2.90322 9.5515e-18 2.20619)
(3.40448 -8.1525e-18 2.50406)
(2.1855 -7.68361e-19 2.19914)
(2.73247 9.49348e-18 2.5746)
(1.35405 -9.30401e-18 2.11455)
(1.95084 -1.02422e-17 2.58368)
(1.12096 7.24052e-19 2.52556)
(9.98744 0 0.0680281)
(9.98532 -2.56433e-20 0.0492702)
(9.95938 0 0.109127)
(9.97225 2.61062e-20 0.095487)
(9.91439 1.11577e-19 0.149002)
(9.94099 -1.06612e-19 0.139277)
(9.85375 1.08126e-19 0.189924)
(9.88943 2.18437e-19 0.183364)
(9.77825 3.02371e-22 0.233016)
(9.82145 -1.11897e-19 0.229436)
(9.68796 -1.20062e-19 0.278952)
(9.7392 2.28001e-19 0.278288)
(9.58276 1.93822e-19 0.328414)
(9.6428 -7.07687e-22 0.330587)
(9.46243 5.58086e-19 0.382124)
(9.53182 2.44738e-19 0.387088)
(9.32668 -2.72183e-19 0.4408)
(9.40584 6.90036e-19 0.448572)
(9.17506 -4.88688e-19 0.505166)
(9.26453 -1.02161e-18 0.515803)
(9.00707 1.20342e-20 0.575996)
(9.10748 5.45137e-19 0.589574)
(8.82212 1.14108e-18 0.654127)
(8.93417 -1.65054e-18 0.670749)
(8.61957 -7.87966e-20 0.740452)
(8.74409 1.10594e-18 0.760255)
(8.39871 -1.07578e-18 0.835899)
(8.53662 -1.22207e-18 0.859071)
(8.15879 7.49558e-20 0.941401)
(8.31114 1.18862e-18 0.968211)
(7.89899 -9.63176e-22 1.05784)
(8.06697 0 1.08867)
(7.61836 -9.34927e-22 1.18606)
(7.80329 -1.61443e-19 1.22141)
(7.31592 1.79472e-19 1.32675)
(7.5193 2.66965e-18 1.36733)
(6.99047 1.74378e-19 1.48026)
(7.2141 -3.06784e-18 1.52716)
(6.64058 -3.88693e-19 1.64634)
(6.88645 0 1.7012)
(6.26436 -3.24581e-18 1.82397)
(6.53478 2.96407e-18 1.88912)
(5.8594 4.00313e-18 2.01097)
(6.15692 -6.26518e-18 2.08971)
(5.42246 3.54628e-18 2.20357)
(5.74994 6.71872e-18 2.3005)
(4.94898 -3.02088e-18 2.39604)
(5.30959 4.02591e-18 2.51736)
(4.43244 7.83461e-18 2.58019)
(4.82978 -6.88881e-18 2.73425)
(3.86312 -5.02139e-19 2.74499)
(4.30183 7.75861e-18 2.94272)
(3.22616 -8.10571e-18 2.87692)
(3.71319 -8.13865e-18 3.13216)
(2.49852 0 2.96154)
(3.04896 4.94681e-19 3.29026)
(1.65543 -1.14788e-20 3.00004)
(2.27844 0 3.4031)
(1.35684 -6.08725e-19 3.51061)
(9.98636 1.38826e-21 0.0774658)
(9.98506 -4.34346e-19 0.0553011)
(9.95801 -8.28638e-20 0.12621)
(9.97144 1.30072e-19 0.108429)
(9.91386 5.87219e-21 0.174254)
(9.94038 -2.12625e-19 0.160136)
(9.85459 -7.23354e-21 0.22353)
(9.89001 1.08788e-19 0.212343)
(9.7809 1.21527e-19 0.275332)
(9.82383 -2.23152e-19 0.266703)
(9.69291 3.43637e-19 0.330525)
(9.74383 -2.26149e-19 0.324301)
(9.59052 5.42128e-20 0.389877)
(9.65019 2.33228e-19 0.385939)
(9.47353 3.8381e-19 0.45419)
(9.5425 -6.0334e-20 0.452443)
(9.3417 -8.67378e-20 0.524282)
(9.42039 4.97607e-19 0.524679)
(9.19468 3.70695e-20 0.600983)
(9.28362 -4.4512e-19 0.603513)
(9.03204 -1.15193e-18 0.685178)
(9.13181 5.28752e-19 0.689844)
(8.85328 -1.64382e-18 0.777814)
(8.96455 -5.57534e-19 0.784632)
(8.65793 -7.32911e-20 0.879901)
(8.78142 -1.10659e-18 0.888901)
(8.44544 1.07969e-18 0.992501)
(8.58193 -5.07143e-20 1.00374)
(8.21525 1.09631e-18 1.11669)
(8.36564 1.04054e-18 1.1303)
(7.96673 -1.62897e-19 1.25353)
(8.13199 0 1.26971)
(7.69921 2.55099e-18 1.40403)
(7.88034 -3.15626e-19 1.42309)
(7.41193 -6.58614e-19 1.56915)
(7.61008 2.51192e-18 1.59155)
(7.10393 -3.20123e-18 1.74955)
(7.32053 9.06439e-20 1.77609)
(6.77395 3.3934e-18 1.94543)
(7.01061 -2.72949e-18 1.9774)
(6.42012 -1.73263e-19 2.15628)
(6.67885 3.35e-18 2.19569)
(6.03981 -3.38881e-18 2.38058)
(6.32309 -3.43195e-18 2.43041)
(5.6292 7.16287e-18 2.61553)
(5.94012 3.86691e-19 2.68001)
(5.18252 5.24097e-20 2.85671)
(5.52532 6.28732e-18 2.94175)
(4.69131 -6.82675e-18 3.09775)
(5.07176 -6.88522e-18 3.21139)
(4.14393 0 3.33028)
(4.56939 0 3.48257)
(3.52486 4.96528e-19 3.54457)
(4.00488 1.40682e-17 3.74727)
(2.81148 4.93664e-19 3.72693)
(3.36156 4.10677e-20 3.99708)
(1.99544 -6.09969e-19 3.88925)
(2.63837 -1.5366e-17 4.20505)
(1.6333 -1.74246e-17 4.47919)
(9.98593 -2.96465e-19 0.0870812)
(9.98505 5.02089e-20 0.0615195)
(9.9576 -5.8284e-21 0.143108)
(9.97123 1.55718e-19 0.121371)
(9.91445 -1.04157e-19 0.198963)
(9.94069 -2.11479e-19 0.180539)
(9.85683 -1.12825e-19 0.256301)
(9.89178 2.15734e-19 0.240534)
(9.78529 -5.70979e-19 0.316491)
(9.82764 -3.30663e-19 0.302917)
(9.69998 -3.29118e-19 0.380572)
(9.75023 -2.28908e-19 0.368961)
(9.60082 1.13923e-19 0.449419)
(9.65976 2.31274e-19 0.4396)
(9.48768 6.23587e-20 0.523913)
(9.55582 4.74367e-19 0.515731)
(9.36034 1.24261e-19 0.604964)
(9.43813 6.53791e-20 0.598298)
(9.21851 6.18819e-20 0.693503)
(9.30648 -9.94254e-19 0.688258)
(9.06182 1.10679e-18 0.790509)
(9.16055 5.71998e-19 0.786611)
(8.88988 -2.77629e-20 0.89702)
(9.00001 1.09046e-18 0.894399)
(8.70229 -1.06857e-18 1.01414)
(8.82451 -1.08527e-18 1.01273)
(8.49863 -7.39033e-20 1.14304)
(8.63366 8.64162e-21 1.14278)
(8.27846 -7.17655e-20 1.28493)
(8.4271 -1.23267e-21 1.28583)
(8.04125 -1.57298e-19 1.44102)
(8.20442 0 1.44317)
(7.78646 -3.15256e-19 1.61248)
(7.96507 -2.43863e-18 1.61605)
(7.51348 3.22756e-18 1.80048)
(7.7085 4.98193e-18 1.80574)
(7.22152 5.28914e-19 2.00604)
(7.43418 2.88888e-18 2.01353)
(6.90939 -2.69572e-18 2.22987)
(7.14114 -1.06742e-17 2.24053)
(6.57529 4.70643e-21 2.47213)
(6.82804 5.41258e-18 2.48759)
(6.21649 3.91012e-19 2.73217)
(6.49274 3.57108e-19 2.75496)
(5.82906 -4.21774e-19 3.00846)
(6.13187 -5.40471e-18 3.04208)
(5.40711 -7.83503e-19 3.29829)
(5.7409 5.12085e-18 3.34774)
(4.94174 0 3.59736)
(5.31335 3.78097e-19 3.66976)
(4.4208 1.41523e-17 3.89944)
(4.83895 -1.26083e-17 4.00382)
(3.82992 1.35394e-17 4.19731)
(4.30489 2.70225e-17 4.34319)
(3.14665 -1.5732e-17 4.47405)
(3.69003 -4.50891e-19 4.68332)
(2.37907 -3.21486e-17 4.74745)
(3.04072 -1.53067e-17 4.97271)
(1.9531 -1.67162e-17 5.39952)
(9.98589 5.04064e-19 0.0966994)
(9.98512 4.59165e-19 0.0677597)
(9.95788 -5.66052e-20 0.159704)
(9.97144 1.54774e-19 0.134168)
(9.91594 1.15872e-19 0.22299)
(9.94173 -2.10407e-19 0.200388)
(9.86024 -1.13423e-20 0.288069)
(9.89453 2.1581e-19 0.267814)
(9.79116 1.31923e-20 0.356341)
(9.83268 -2.19798e-19 0.337928)
(9.70888 3.39204e-19 0.428974)
(9.75816 2.2558e-19 0.412081)
(9.6134 5.95733e-19 0.506945)
(9.67125 3.43518e-19 0.491337)
(9.50461 4.70998e-19 0.591212)
(9.57152 9.43961e-19 0.576674)
(9.38233 -1.07006e-18 0.682763)
(9.45878 -4.73118e-19 0.669106)
(9.24632 -4.60205e-19 0.782618)
(9.33285 -9.35458e-19 0.769677)
(9.09628 5.63527e-19 0.891841)
(9.19344 6.34783e-19 0.87947)
(8.93189 0 1.01155)
(9.04032 1.03716e-18 0.9996)
(8.75282 8.77262e-21 1.14293)
(8.87321 -2.11786e-18 1.13125)
(8.55875 8.12176e-20 1.28727)
(8.69181 1.08112e-18 1.2757)
(8.34931 7.06433e-20 1.44591)
(8.49578 8.90559e-20 1.43434)
(8.12409 -2.31647e-18 1.62019)
(8.28488 2.30279e-18 1.60858)
(7.88261 2.96064e-18 1.81146)
(8.05866 -4.62437e-18 1.79987)
(7.6243 4.61867e-18 2.02111)
(7.81652 5.14852e-18 2.00964)
(7.3485 -8.49412e-18 2.25048)
(7.55801 -2.97696e-19 2.23943)
(7.05414 -2.36904e-18 2.50085)
(7.28222 -7.63671e-18 2.49079)
(6.73945 5.70932e-18 2.77313)
(6.98812 5.4191e-18 2.76526)
(6.40167 -5.50333e-18 3.06764)
(6.67367 -5.00166e-18 3.064)
(6.03687 2.40879e-19 3.38409)
(6.33536 -6.88503e-19 3.3875)
(5.6397 6.24085e-18 3.72164)
(5.96884 3.15906e-19 3.73585)
(5.20203 -1.23269e-17 4.07797)
(5.56847 1.14486e-17 4.10881)
(4.71198 5.16067e-19 4.44831)
(5.12494 -3.0138e-17 4.50424)
(4.15665 1.28971e-17 4.82691)
(4.62705 1.30011e-17 4.91557)
(3.51263 0 5.1917)
(4.04365 1.22604e-17 5.34279)
(2.80001 0 5.56006)
(3.48462 1.24002e-17 5.70161)
(2.31251 -1.34913e-17 6.26999)
(9.98606 1.04713e-19 0.106187)
(9.98522 0 0.0739222)
(9.95872 -5.63714e-21 0.175876)
(9.97198 1.03066e-19 0.146673)
(9.91821 -1.03109e-19 0.246226)
(9.94338 -1.04949e-19 0.219578)
(9.86466 0 0.318712)
(9.89808 0 0.294073)
(9.79832 0 0.394736)
(9.83878 2.16604e-19 0.371588)
(9.71942 2.31778e-19 0.475546)
(9.76747 2.21099e-19 0.453484)
(9.62803 7.014e-19 0.562219)
(9.68446 1.42434e-21 0.540937)
(9.52405 -2.26559e-20 0.655789)
(9.58935 7.00384e-19 0.635014)
(9.40738 -3.45585e-19 0.757323)
(9.48203 -5.95382e-19 0.736797)
(9.2778 1.83891e-19 0.86792)
(9.36233 1.15777e-21 0.847414)
(9.13508 1.11454e-18 0.988717)
(9.23006 -6.17424e-20 0.968018)
(8.97897 -1.12747e-18 1.1209)
(9.08505 1.03807e-18 1.09978)
(8.80923 -9.99961e-19 1.26575)
(8.92707 -2.11991e-18 1.24397)
(8.62558 1.07549e-18 1.42463)
(8.7559 -1.06336e-18 1.40195)
(8.42776 2.35312e-18 1.59901)
(8.57128 4.35481e-18 1.5752)
(8.21549 -9.76691e-20 1.79041)
(8.37312 8.79527e-20 1.76527)
(7.98829 -2.30917e-18 2.00037)
(8.16102 -2.34136e-18 1.97382)
(7.74558 1.57684e-19 2.23048)
(7.93447 2.34432e-18 2.20253)
(7.48675 4.73121e-19 2.48242)
(7.69292 2.57306e-18 2.45312)
(7.21094 3.11818e-19 2.75801)
(7.43552 -4.84275e-18 2.72751)
(6.91667 -5.41614e-18 3.05904)
(7.16148 -1.54119e-19 3.02791)
(6.60124 -1.47426e-19 3.38681)
(6.86922 -5.51933e-18 3.35657)
(6.26068 -5.95941e-19 3.74217)
(6.55555 2.65114e-19 3.71514)
(5.89002 5.60986e-18 4.12583)
(6.21596 -6.9264e-19 4.10476)
(5.48257 -6.66908e-18 4.53744)
(5.84524 4.30087e-19 4.52666)
(5.02744 -1.73994e-17 4.97354)
(5.43578 -6.71773e-18 4.98111)
(4.51283 1.23658e-17 5.42909)
(4.97935 4.01338e-20 5.46124)
(3.91247 2.46299e-17 5.87683)
(4.42832 1.22438e-17 5.97324)
(3.25361 -2.43142e-18 6.32944)
(3.96839 1.27084e-17 6.39433)
(2.70926 -1.34152e-17 7.09924)
(9.98643 0 0.115437)
(9.98532 -5.0276e-20 0.0799254)
(9.95999 0 0.191511)
(9.97277 5.10343e-20 0.158769)
(9.92111 0 0.268565)
(9.94552 2.07627e-19 0.238016)
(9.86992 2.20309e-19 0.348101)
(9.90229 -2.1111e-19 0.319207)
(9.80661 4.37882e-19 0.431513)
(9.84579 9.77349e-22 0.403753)
(9.73143 -1.28452e-20 0.520095)
(9.778 -4.39163e-19 0.493004)
(9.64446 1.13155e-20 0.615012)
(9.69919 8.93322e-19 0.588215)
(9.54571 1.07405e-19 0.717374)
(9.60907 -6.82702e-19 0.690534)
(9.4351 -2.39392e-19 0.828324)
(9.50756 -2.33928e-19 0.801111)
(9.31249 -2.45591e-19 0.949038)
(9.39456 -1.07948e-18 0.921155)
(9.1777 -1.22391e-19 1.08071)
(9.26998 7.25447e-19 1.05188)
(9.03056 0 1.22459)
(9.13372 1.24072e-19 1.19452)
(8.87088 -2.16825e-18 1.38205)
(8.98555 1.02234e-18 1.3504)
(8.69848 2.29069e-18 1.55452)
(8.82534 -3.17455e-18 1.52098)
(8.51321 2.0333e-18 1.74358)
(8.65301 4.34305e-18 1.70778)
(8.3149 -2.19043e-18 1.95095)
(8.46846 -2.22089e-18 1.91249)
(8.10315 2.37547e-18 2.17839)
(8.27144 0 2.13705)
(7.87741 4.76673e-18 2.42773)
(8.06174 4.64681e-18 2.38336)
(7.63699 -2.82903e-18 2.70093)
(7.8387 -4.40286e-18 2.65342)
(7.38109 -5.26293e-18 3.00026)
(7.60148 -5.14697e-19 2.94946)
(7.10866 -3.11394e-19 3.32838)
(7.34924 4.67531e-18 3.27417)
(6.81767 -5.05032e-18 3.68784)
(7.08094 -4.95081e-18 3.63077)
(6.5043 1.4794e-19 4.08063)
(6.79451 1.31325e-20 4.02245)
(6.16354 -5.85831e-18 4.50849)
(6.48549 2.48456e-19 4.45154)
(5.78972 3.10248e-19 4.973)
(6.14852 -1.06663e-17 4.92019)
(5.37344 1.07598e-17 5.47217)
(5.77706 2.07216e-17 5.43098)
(4.90374 0 6.00184)
(5.36731 -9.94211e-18 5.97713)
(4.34966 3.46025e-19 6.5303)
(4.85001 0 6.57357)
(3.74006 3.31138e-19 7.06288)
(4.49173 2.10987e-20 7.05617)
(3.14385 1.03554e-17 7.89302)
(9.98692 2.55924e-21 0.124361)
(9.98545 3.49612e-19 0.0857098)
(9.9616 2.61475e-19 0.206515)
(9.97377 5.10553e-20 0.170367)
(9.92453 -1.06535e-20 0.289912)
(9.94804 1.35425e-21 0.255616)
(9.8759 -4.27012e-19 0.376118)
(9.90706 -6.30545e-19 0.343115)
(9.81589 -8.83617e-19 0.466524)
(9.8536 -2.43738e-21 0.434293)
(9.7447 4.88516e-19 0.562451)
(9.78957 -6.60742e-19 0.530487)
(9.66249 1.7463e-19 0.665128)
(9.71527 1.34342e-18 0.632994)
(9.56933 -1.01756e-18 0.775737)
(9.63047 -1.13866e-18 0.743026)
(9.4652 -1.08712e-18 0.895492)
(9.53515 1.15259e-19 0.861807)
(9.35003 -8.17333e-20 1.02564)
(9.42926 -1.19336e-18 0.990614)
(9.22374 9.63766e-19 1.16743)
(9.31286 9.70838e-19 1.13071)
(9.0862 1.15973e-18 1.32217)
(9.1859 9.83668e-19 1.2834)
(8.93728 -4.09551e-20 1.49131)
(9.04816 3.01265e-20 1.45007)
(8.77689 -1.02185e-18 1.67635)
(8.89964 -2.95102e-18 1.63225)
(8.60497 0 1.87894)
(8.74044 2.06222e-18 1.8315)
(8.42146 0 2.10097)
(8.57031 0 2.04963)
(8.22622 2.32825e-18 2.34449)
(8.38928 0 2.28873)
(8.01887 -4.63313e-18 2.61161)
(8.19748 2.26862e-18 2.55102)
(7.79874 -2.05095e-18 2.90461)
(7.99435 -6.90686e-18 2.83885)
(7.56488 9.49423e-18 3.2261)
(7.77933 4.66706e-18 3.15488)
(7.31639 -5.13986e-20 3.57932)
(7.55139 9.43481e-18 3.50209)
(7.05211 1.56257e-19 3.96811)
(7.3096 -4.65393e-18 3.88428)
(6.76926 1.24847e-19 4.39597)
(7.05313 3.05313e-19 4.30616)
(6.46295 -4.64776e-18 4.86577)
(6.77865 -4.61275e-18 4.77183)
(6.12756 9.95856e-18 5.38069)
(6.48091 0 5.28458)
(5.75478 -1.42726e-19 5.94043)
(6.15279 9.90779e-18 5.84896)
(5.33419 -9.88844e-18 6.54321)
(5.79583 -1.00274e-17 6.45921)
(4.82965 -3.24749e-19 7.15461)
(5.3165 0 7.14174)
(4.26028 1.04435e-17 7.7723)
(5.05725 -3.22334e-19 7.69645)
(3.62152 1.04568e-17 8.67112)
(9.98753 3.93531e-19 0.132892)
(9.9856 8.07301e-22 0.091226)
(9.96348 -2.1004e-19 0.220806)
(9.97493 1.00882e-19 0.181395)
(9.92839 -6.29574e-19 0.310176)
(9.95088 -5.12992e-19 0.272296)
(9.88252 -1.95454e-19 0.402651)
(9.91231 -6.26179e-19 0.365705)
(9.82602 2.09974e-19 0.499635)
(9.86207 6.36604e-19 0.463096)
(9.7591 2.26193e-19 0.602455)
(9.80205 -4.30508e-19 0.565796)
(9.68196 -8.82121e-21 0.712381)
(9.73253 2.22723e-19 0.675106)
(9.59473 1.37388e-20 0.830662)
(9.65339 -2.24595e-19 0.792294)
(9.49746 -1.01583e-20 0.958578)
(9.56459 1.14482e-18 0.918664)
(9.39015 -1.0902e-19 1.09743)
(9.4662 -1.15746e-18 1.05554)
(9.27283 9.90795e-19 1.24852)
(9.35838 -8.26655e-19 1.20421)
(9.14544 -1.59562e-19 1.41324)
(9.24111 1.57849e-18 1.36607)
(9.00793 -2.92227e-18 1.59307)
(9.11431 -9.94631e-19 1.54257)
(8.86033 1.99251e-19 1.78958)
(8.97813 -4.03596e-18 1.73524)
(8.70262 2.03789e-18 2.00449)
(8.8328 4.07659e-18 1.94575)
(8.53481 0 2.2398)
(8.67799 2.05519e-18 2.17598)
(8.35694 -3.46645e-20 2.49776)
(8.51402 -1.94068e-18 2.42813)
(8.16902 -1.04234e-19 2.78082)
(8.34106 -3.43068e-20 2.70459)
(7.97072 -6.4502e-20 3.09168)
(8.15892 -6.96592e-20 3.00808)
(7.76127 4.64658e-18 3.43338)
(7.96771 1.2363e-22 3.34177)
(7.53965 4.71563e-18 3.80948)
(7.76659 3.0553e-19 3.70908)
(7.30507 -4.46201e-18 4.22464)
(7.55459 8.75717e-18 4.11413)
(7.05618 -4.47639e-18 4.68406)
(7.33133 -4.60456e-18 4.56252)
(6.78922 7.22214e-20 5.19247)
(7.09553 -4.20441e-18 5.06047)
(6.49849 0 5.75464)
(6.84307 -8.3523e-18 5.61324)
(6.1758 -7.22203e-20 6.37267)
(6.5656 8.32915e-18 6.22766)
(5.81008 -7.14206e-20 7.04963)
(6.2702 -7.19498e-20 6.90087)
(5.36155 0 7.75254)
(5.84 0 7.67248)
(4.82363 1.38793e-19 8.47846)
(5.67725 0 8.32598)
(4.16115 1.30263e-20 9.47157)
(9.98824 -2.90368e-19 0.140977)
(9.98579 -3.99435e-19 0.0964309)
(9.96558 -2.12943e-19 0.234315)
(9.97623 -3.99947e-19 0.191796)
(9.93262 -5.11524e-19 0.329278)
(9.95402 2.03221e-19 0.287989)
(9.88966 2.27004e-19 0.427604)
(9.91796 -2.05058e-19 0.386898)
(9.83687 -2.12687e-20 0.530724)
(9.87108 4.23083e-19 0.490063)
(9.77446 -4.2383e-19 0.639955)
(9.81531 -4.29135e-19 0.598795)
(9.7027 0 0.756592)
(9.75086 2.16804e-19 0.714383)
(9.62173 9.27542e-19 0.881949)
(9.67765 -4.43158e-19 0.838159)
(9.53165 -3.63774e-20 1.01736)
(9.59565 1.13848e-18 0.971487)
(9.43255 -1.87117e-18 1.16416)
(9.5051 -6.94526e-19 1.11571)
(9.32453 -2.05977e-19 1.3237)
(9.40621 -7.1686e-19 1.27217)
(9.20767 7.08751e-19 1.49743)
(9.29897 9.62428e-21 1.44228)
(9.08206 -2.14798e-18 1.68687)
(9.18352 3.11283e-18 1.62755)
(8.94785 -5.54101e-20 1.89364)
(9.06017 -4.05743e-18 1.82952)
(8.80516 4.07028e-18 2.11956)
(8.92914 2.13674e-18 2.04994)
(8.65407 6.86716e-20 2.36671)
(8.79037 4.05481e-18 2.2908)
(8.4947 -1.92123e-18 2.63744)
(8.64446 -6.09314e-18 2.55438)
(8.32722 0 2.93435)
(8.49152 1.89799e-18 2.84315)
(8.1519 -4.25981e-21 3.2606)
(8.33155 0 3.15994)
(7.96863 -4.34683e-18 3.61976)
(8.16535 -4.3505e-18 3.5084)
(7.7767 4.40818e-18 4.0158)
(7.99293 3.86589e-18 3.89254)
(7.5754 8.54575e-18 4.45376)
(7.81373 4.5547e-18 4.31683)
(7.36441 -4.32237e-18 4.9402)
(7.62752 -1.7777e-20 4.78721)
(7.14187 -1.26692e-17 5.48204)
(7.4348 -4.29168e-18 5.31156)
(6.90313 3.82578e-20 6.08644)
(7.23377 -4.55636e-18 5.89774)
(6.64009 8.30635e-18 6.75964)
(7.01638 4.57426e-18 6.55599)
(6.34011 0 7.51264)
(6.79561 6.98618e-18 7.28919)
(5.96304 0 8.32255)
(6.43907 -6.11472e-18 8.15094)
(5.46146 -1.26238e-19 9.20992)
(6.38315 5.28767e-18 8.94604)
(4.81134 -5.10805e-19 10.3491)
(9.98904 -5.09073e-19 0.148564)
(9.98597 4.92691e-20 0.101286)
(9.9679 2.68498e-20 0.246984)
(9.97765 7.44933e-19 0.201511)
(9.93718 5.03023e-19 0.347153)
(9.95741 4.08937e-19 0.302639)
(9.89723 1.41202e-21 0.450898)
(9.92397 6.18926e-19 0.40664)
(9.84834 1.44477e-21 0.559677)
(9.8806 -2.08633e-19 0.515098)
(9.79072 2.2189e-19 0.674807)
(9.82927 -4.22801e-19 0.629346)
(9.72458 -2.36539e-19 0.797606)
(9.77013 4.28773e-19 0.750686)
(9.65011 -2.09034e-19 0.929431)
(9.70304 -2.27528e-19 0.880479)
(9.5675 4.53724e-19 1.07165)
(9.62807 1.77897e-18 1.02011)
(9.47695 4.60638e-19 1.22562)
(9.54564 -4.44566e-19 1.17093)
(9.37861 -4.91253e-19 1.39275)
(9.45599 2.23155e-21 1.33434)
(9.27266 2.45579e-18 1.57448)
(9.35919 -7.10115e-19 1.51177)
(9.15931 1.11333e-18 1.77238)
(9.25549 4.76214e-18 1.70473)
(9.03881 -1.78939e-18 1.98811)
(9.14534 -4.06771e-18 1.91481)
(8.91152 2.14226e-18 2.22352)
(9.02892 1.87359e-21 2.14374)
(8.77781 -2.22314e-18 2.48083)
(8.90661 1.99958e-18 2.39353)
(8.63799 -2.18997e-18 2.76249)
(8.77928 -4.1567e-18 2.66663)
(8.49227 1.88157e-18 3.07111)
(8.64727 1.78242e-18 2.96562)
(8.34115 -4.39083e-18 3.40999)
(8.51075 0 3.29328)
(8.1854 3.93604e-18 3.7832)
(8.37071 -4.11002e-18 3.65329)
(8.0252 4.02333e-18 4.1952)
(8.22834 8.20018e-18 4.05023)
(7.86045 -4.0583e-18 4.65133)
(8.08407 -4.08853e-18 4.48896)
(7.69155 0 5.15887)
(7.93841 0 4.97553)
(7.51874 3.84775e-18 5.72656)
(7.79304 0 5.51851)
(7.34 2.11878e-20 6.36465)
(7.64943 3.83957e-18 6.12801)
(7.14956 3.24544e-18 7.08523)
(7.5028 -2.96999e-18 6.818)
(6.93522 7.46704e-19 7.91072)
(7.37398 7.00868e-18 7.59937)
(6.66441 -7.01109e-19 8.84351)
(7.13452 -6.88013e-18 8.53903)
(6.24615 3.94023e-18 9.99678)
(7.23487 5.96637e-18 9.51912)
(5.66955 -3.70616e-19 11.3852)
(9.98989 1.31474e-18 0.155611)
(9.98614 5.02176e-20 0.105769)
(9.97039 1.1214e-18 0.258755)
(9.97912 5.18115e-19 0.21049)
(9.94202 5.28391e-19 0.363744)
(9.96095 -1.03157e-19 0.316198)
(9.90523 3.95374e-19 0.472451)
(9.93028 6.2918e-19 0.424872)
(9.86039 -6.36483e-19 0.586376)
(9.89055 1.79709e-19 0.538125)
(9.80772 -2.02752e-19 0.706874)
(9.84378 -1.2279e-18 0.657361)
(9.74738 4.27995e-19 0.835277)
(9.79009 2.14217e-19 0.783928)
(9.6796 1.79087e-18 0.972943)
(9.7293 4.22852e-19 0.919164)
(9.60468 8.49018e-19 1.12125)
(9.66162 1.58515e-18 1.06442)
(9.52294 -8.974e-19 1.28158)
(9.58755 -8.98425e-19 1.22106)
(9.43463 -2.26248e-19 1.45537)
(9.50741 -2.33792e-19 1.39054)
(9.33999 1.66775e-18 1.64411)
(9.42138 -8.64578e-19 1.57431)
(9.2393 -5.31497e-19 1.84935)
(9.32982 8.00549e-19 1.7739)
(9.1329 -2.22729e-18 2.07272)
(9.23333 2.62939e-20 1.9909)
(9.02133 -1.19293e-19 2.31606)
(9.13214 -1.23049e-19 2.22693)
(8.90527 0 2.58166)
(9.02683 -1.79093e-18 2.48397)
(8.78542 -1.20867e-19 2.87209)
(8.91849 1.79442e-18 2.76455)
(8.66231 -1.18539e-19 3.19004)
(8.80794 3.27921e-19 3.07137)
(8.53659 2.49707e-19 3.53867)
(8.69586 -1.57268e-18 3.40719)
(8.40951 2.45707e-19 3.92216)
(8.58329 2.04202e-18 3.77544)
(8.28245 0 4.34534)
(8.47219 -4.37184e-19 4.18074)
(8.1565 0 4.8138)
(8.36442 0 4.62821)
(8.03318 0 5.33483)
(8.26179 0 5.12374)
(7.91495 0 5.918)
(8.1673 0 5.67555)
(7.80386 8.33082e-19 6.57597)
(8.08616 0 6.29433)
(7.7006 8.27205e-19 7.32569)
(8.01974 9.02746e-20 6.99518)
(7.60107 -7.59684e-19 8.20035)
(7.9998 0 7.7943)
(7.49984 -4.22838e-20 9.2406)
(7.93404 3.50663e-19 8.75939)
(7.31798 7.38467e-19 10.8483)
(8.38302 -3.68995e-19 9.87437)
(7.88326 -1.38835e-19 12.6227)
(-0.254753 -1.22185e-18 0.223502)
(-0.0927653 -1.35388e-18 0.228399)
(-0.87661 7.37108e-20 0.397262)
(-0.639306 -2.30613e-18 0.529015)
(-1.68536 -9.92187e-20 0.440251)
(-1.40624 2.15518e-19 0.638683)
(-2.61261 -1.03935e-19 0.446435)
(-2.29384 -1.93508e-19 0.690057)
(-3.61297 0 0.435981)
(-3.26922 1.16387e-18 0.711088)
(-4.64979 0 0.416519)
(-4.29672 -9.38996e-19 0.713261)
(-5.69302 0 0.391617)
(-5.34476 -4.91439e-20 0.702478)
(-6.71874 -9.12102e-20 0.3631)
(-6.3869 4.60737e-21 0.682087)
(-7.70907 -1.21313e-20 0.331994)
(-7.4019 -9.14968e-20 0.654146)
(-8.65105 7.95865e-20 0.298895)
(-8.37458 1.03441e-20 0.620087)
(-9.53498 6.45634e-22 0.264068)
(-9.29427 6.97143e-20 0.580749)
(-10.3528 -9.66739e-22 0.227603)
(-10.1517 -9.63968e-22 0.53638)
(-11.0973 0 0.189556)
(-10.939 1.10572e-19 0.487075)
(-11.7611 0 0.149906)
(-11.6494 -7.63755e-20 0.432892)
(-12.3366 0 0.108509)
(-12.2753 0 0.373596)
(-12.815 0 0.065209)
(-12.8084 0 0.308829)
(-13.1868 0 0.0198788)
(-13.24 -8.61193e-20 0.238416)
(-13.442 -2.48708e-20 -0.0277478)
(-13.5603 0 0.16231)
(-13.5705 -5.10464e-20 -0.0786024)
(-13.7591 -2.50343e-20 0.0808037)
(-13.5573 -3.81023e-20 -0.135392)
(-13.8253 2.36382e-20 -0.00891816)
(-13.3901 4.68781e-20 -0.200716)
(-13.746 -1.20369e-20 -0.104668)
(-13.0471 1.71115e-20 -0.276285)
(-13.5079 1.40085e-20 -0.212161)
(-12.5072 -4.32401e-20 -0.36464)
(-13.0942 -8.82904e-20 -0.330768)
(-11.746 -2.86274e-20 -0.469846)
(-12.4863 -1.58868e-20 -0.461801)
(-10.7327 -3.04497e-20 -0.59882)
(-11.6647 1.02712e-21 -0.608988)
(-9.4282 7.77063e-21 -0.765023)
(-10.5982 1.03823e-20 -0.77714)
(-7.77097 1.46594e-20 -0.997418)
(-9.2271 6.34674e-21 -0.978805)
(-5.61488 5.54131e-21 -1.33324)
(-7.45299 -3.66264e-21 -1.26284)
(-2.68532 0 -1.7166)
(-5.18069 1.81781e-20 -1.70255)
(-2.33125 -1.66534e-21 -1.97156)
(-0.501557 -2.42121e-18 0.639954)
(-0.236054 2.67845e-19 0.727199)
(-1.16778 -2.24572e-18 0.879486)
(-0.796356 -2.1471e-18 1.1076)
(-1.98538 1.334e-19 0.988363)
(-1.57424 4.06904e-19 1.29035)
(-2.91635 1.04917e-18 1.04165)
(-2.45307 -2.80835e-18 1.38628)
(-3.92142 2.47955e-19 1.06101)
(-3.41487 3.48093e-18 1.42796)
(-4.96486 -9.95472e-19 1.05786)
(-4.4266 -1.05451e-18 1.43317)
(-6.01618 -4.48035e-20 1.03862)
(-5.45822 -6.57939e-19 1.4124)
(-7.05088 4.62137e-21 1.00724)
(-6.48402 1.08824e-18 1.37212)
(-8.05076 -6.77281e-20 0.966252)
(-7.48362 -7.38529e-19 1.31649)
(-9.00263 2.69391e-21 0.917216)
(-8.44274 2.11119e-19 1.24843)
(-9.89645 6.88868e-20 0.860831)
(-9.35105 7.45835e-20 1.1696)
(-10.724 1.1024e-19 0.797282)
(-10.1995 7.86833e-20 1.08053)
(-11.4779 3.58449e-20 0.72657)
(-10.9809 -1.77222e-19 0.981528)
(-12.1509 -7.67406e-20 0.648448)
(-11.6888 1.34305e-19 0.87275)
(-12.7353 0 0.562366)