/*--------------------------------*- C++ -*----------------------------------*\
| =========                 |                                                 |
| \\      /  F ield         | OpenFOAM: The Open Source CFD Toolbox           |
|  \\    /   O peration     | Version:  5.x                                   |
|   \\  /    A nd           | Web:      www.OpenFOAM.org                      |
|    \\/     M anipulation  |                                                 |
\*---------------------------------------------------------------------------*/
FoamFile
{
    version     2.0;
    format      ascii;
    class       volVectorField;
    location    "2.4";
    object      Force;
}
// * * * * * * * * * * * * * * * * * * * * * * * * * * * * * * * * * * * * * //

dimensions      [1 1 -2 0 0 0 0];

internalField   uniform (0 0 0);

boundaryField
{
    inlet
    {
        type            calculated;
        value           uniform (0 0 0);
    }
    outlet
    {
        type            calculated;
        value           uniform (0 0 0);
    }
    flap
    {
        type            calculated;
        value           nonuniform List<vector> 
33
(
(3.04344 1.17549e-37 -0.191501)
(3.00989 5.77371e-18 -0.463949)
(2.92186 -1.90821e-18 -0.731361)
(2.78108 -3.08729e-21 -0.943782)
(2.59911 -1.8715e-18 -1.0995)
(2.39229 -1.7317e-20 -1.20158)
(2.17833 -1.12649e-17 -1.2555)
(1.97489 1.81059e-18 -1.26873)
(1.79065 0 -1.25007)
(1.62749 -1.07689e-17 -1.20554)
(1.48382 3.76158e-37 -1.13897)
(1.34939 3.09885e-18 -1.05051)
(1.20616 7.9302e-21 -0.937439)
(1.02777 8.3784e-18 -0.791292)
(0.778236 1.88079e-37 -0.59715)
(0.487449 2.11869e-18 0.627103)
(0.293553 2.55262e-21 0.378916)
(0.107023 -4.73019e-19 0.139652)
(-0.0395664 -2.32534e-23 0.00248892)
(-0.039499 1.29495e-18 0.00610087)
(-0.038837 -2.63485e-18 0.00976362)
(-0.037603 -1.45453e-18 0.012786)
(-0.0361514 -1.36448e-18 0.0153185)
(-0.0347445 3.67342e-40 0.0174678)
(-0.0334042 1.52803e-18 0.0192383)
(-0.0320278 -2.35099e-38 0.0205317)
(-0.0306373 9.71214e-22 0.0213122)
(-0.0293964 -1.10408e-21 0.0216778)
(-0.0284154 1.57136e-18 0.0217349)
(-0.0277831 1.6201e-18 0.0216428)
(-0.0268997 -1.82171e-22 0.0209906)
(-0.0266393 1.72297e-18 0.0212545)
(-0.0117689 2.48376e-18 0.0091153)
)
;
    }
    upperWall
    {
        type            calculated;
        value           uniform (0 0 0);
    }
    lowerWall
    {
        type            calculated;
        value           uniform (0 0 0);
    }
    frontAndBack
    {
        type            empty;
    }
}


// ************************************************************************* //
