/*--------------------------------*- C++ -*----------------------------------*\
| =========                 |                                                 |
| \\      /  F ield         | OpenFOAM: The Open Source CFD Toolbox           |
|  \\    /   O peration     | Version:  5.x                                   |
|   \\  /    A nd           | Web:      www.OpenFOAM.org                      |
|    \\/     M anipulation  |                                                 |
\*---------------------------------------------------------------------------*/
FoamFile
{
    version     2.0;
    format      ascii;
    class       volVectorField;
    location    "2.4";
    object      U;
}
// * * * * * * * * * * * * * * * * * * * * * * * * * * * * * * * * * * * * * //

dimensions      [0 1 -1 0 0 0 0];

internalField   nonuniform List<vector> 
2790
(
(9.94159 1.63817e-19 0.0196984)
(9.86745 0 0.0266257)
(9.76768 0 0.0309886)
(9.65163 0 0.0355509)
(9.52379 1.8731e-19 0.0402762)
(9.38456 0 0.0450761)
(9.23339 2.02381e-19 0.0500437)
(9.06989 -1.04492e-19 0.055321)
(8.89371 0 0.0610389)
(8.70425 0 0.0673114)
(8.50063 0 0.0742529)
(8.28182 0 0.0819889)
(8.04665 0 0.0906594)
(7.79375 0 0.100413)
(7.52156 0 0.111417)
(7.22846 0 0.123877)
(6.91263 0 0.138023)
(6.57207 1.68082e-19 0.1541)
(6.2047 5.41582e-19 0.172362)
(5.80842 -7.51358e-19 0.19307)
(5.38117 4.03697e-19 0.216476)
(4.92105 0 0.242802)
(4.42648 -1.86974e-18 0.27222)
(3.89652 1.97921e-18 0.304774)
(3.33096 0 0.340177)
(2.73083 1.16794e-18 0.377478)
(2.09963 1.26953e-18 0.413993)
(1.44545 0 0.440714)
(0.763776 0 0.426013)
(0.253075 0 0.203058)
(10.006 -1.83697e-19 0.0376253)
(9.99219 2.09078e-20 0.0533137)
(9.95496 0 0.0641035)
(9.89942 8.93754e-20 0.0757148)
(9.82894 -4.60744e-19 0.0881261)
(9.74427 3.80051e-19 0.101067)
(9.64516 -4.93569e-19 0.114709)
(9.53133 6.12583e-19 0.129377)
(9.40256 -2.10694e-19 0.145383)
(9.25835 0 0.163)
(9.09795 1.14188e-19 0.182507)
(8.92046 4.79142e-19 0.204206)
(8.7248 7.06196e-21 0.228443)
(8.50971 5.29476e-19 0.255604)
(8.2736 -1.07417e-18 0.2861)
(8.01485 1.41478e-19 0.320387)
(7.73167 0 0.358967)
(7.42204 -1.56318e-19 0.402363)
(7.08379 -2.16345e-18 0.451084)
(6.71461 2.75372e-18 0.505586)
(6.31212 2.59768e-18 0.566209)
(5.87389 -3.86445e-18 0.633095)
(5.3975 3.3389e-18 0.706079)
(4.88081 -2.61854e-18 0.784526)
(4.32179 -7.59115e-18 0.866928)
(3.71815 1.51277e-17 0.950273)
(3.06716 -1.84146e-17 1.02904)
(2.36375 9.28572e-18 1.09292)
(1.56744 2.50737e-18 1.12858)
(0.863517 2.96091e-18 1.06993)
(10.0034 -4.07127e-20 0.0371085)
(9.9872 -4.18959e-20 0.0600909)
(9.95274 -6.0169e-19 0.0785362)
(9.90236 5.32613e-19 0.0978786)
(9.83808 -1.82608e-19 0.118504)
(9.76087 -1.89298e-19 0.140168)
(9.67061 1.95715e-19 0.163102)
(9.56709 -6.09438e-19 0.187778)
(9.45015 4.17137e-19 0.214672)
(9.31941 0 0.244216)
(9.17423 -1.12802e-19 0.276869)
(9.01386 -8.26193e-19 0.313124)
(8.83736 9.67425e-19 0.353547)
(8.64369 0 0.398804)
(8.43154 0 0.449616)
(8.19943 -1.38035e-19 0.506754)
(7.94576 2.87455e-19 0.571069)
(7.66869 0 0.643484)
(7.36617 -3.16476e-19 0.724951)
(7.03592 5.35074e-18 0.816378)
(6.67541 -5.52473e-18 0.918555)
(6.2818 7.35003e-19 1.03204)
(5.85183 0 1.15697)
(5.38178 -8.18124e-19 1.2929)
(4.86702 -1.3901e-17 1.43852)
(4.30091 1.45161e-17 1.5912)
(3.67337 -1.56122e-17 1.7468)
(2.96858 1.64535e-17 1.89949)
(2.13276 3.09168e-17 2.05005)
(1.26454 -4.35017e-17 2.20657)
(10.0016 6.48176e-19 0.0399369)
(9.98302 -8.33003e-20 0.071631)
(9.94838 7.71148e-19 0.0989191)
(9.89906 -3.53456e-19 0.126214)
(9.83622 0 0.154609)
(9.76081 -7.53634e-19 0.18421)
(9.6729 7.75318e-19 0.215415)
(9.57235 0 0.248856)
(9.45913 -1.2509e-18 0.285155)
(9.33296 2.05122e-19 0.32491)
(9.19339 1.78397e-18 0.368753)
(9.03984 -1.03486e-18 0.417359)
(8.87158 0 0.471479)
(8.68782 0 0.531993)
(8.48763 0 0.599902)
(8.26989 0 0.676289)
(8.03338 -2.81924e-19 0.762342)
(7.77665 -5.02636e-18 0.859377)
(7.49809 5.4701e-18 0.968825)
(7.19582 -6.3728e-19 1.09213)
(6.86761 5.39721e-18 1.23072)
(6.51078 -4.16066e-18 1.38594)
(6.12189 0 1.55887)
(5.69642 -1.23764e-17 1.75013)
(5.2281 2.57475e-17 1.95989)
(4.7077 -1.50868e-17 2.18793)
(4.12148 0 2.43475)
(3.44867 0 2.70307)
(2.65856 -2.91795e-17 2.98664)
(1.66487 3.5467e-17 3.40025)
(10.0007 -5.66068e-19 0.0442797)
(9.98063 -8.27313e-20 0.0830934)
(9.9456 1.70992e-19 0.117912)
(9.89702 -1.23028e-18 0.15227)
(9.83548 -2.33645e-21 0.18773)
(9.76169 3.71335e-19 0.22475)
(9.67577 -3.87238e-19 0.263874)
(9.57768 -3.97965e-19 0.305828)
(9.46744 1.24033e-18 0.351326)
(9.34481 -1.06048e-18 0.401074)
(9.20946 0 0.455837)
(9.06095 -2.27773e-19 0.516431)
(8.89872 0 0.583741)
(8.72211 0 0.658796)
(8.53042 -3.17441e-20 0.742788)
(8.32289 -1.31843e-19 0.837046)
(8.09862 0 0.94302)
(7.85656 -4.32392e-18 1.06234)
(7.59556 8.92155e-18 1.19685)
(7.31426 -3.676e-18 1.34852)
(7.01088 0 1.51937)
(6.68322 8.13466e-18 1.71166)
(6.3283 -1.10902e-17 1.92765)
(5.94169 0 2.16961)
(5.51707 0 2.44001)
(5.04495 1.58175e-18 2.74167)
(4.51204 0 3.07926)
(3.89261 0 3.46683)
(3.22724 2.82829e-17 3.85773)
(2.1264 -3.08817e-17 4.53916)
(10.0003 -8.05701e-20 0.0493637)
(9.97937 8.23643e-20 0.0946327)
(9.94421 -1.35654e-18 0.136597)
(9.89655 6.99822e-19 0.178028)
(9.83657 -7.1947e-19 0.220601)
(9.76469 7.41509e-19 0.265029)
(9.68106 3.83252e-19 0.311984)
(9.58571 -7.92725e-19 0.362275)
(9.47869 4.04613e-19 0.4167)
(9.3598 -2.11462e-18 0.47606)
(9.22878 3.48327e-18 0.541227)
(9.08541 -3.1521e-18 0.613146)
(8.92924 3.72733e-18 0.692848)
(8.75973 -1.91659e-18 0.781499)
(8.57635 3.13048e-20 0.880447)
(8.37853 1.29812e-19 0.991228)
(8.16566 0 1.11551)
(7.93693 0 1.25516)
(7.69158 0 1.41241)
(7.42882 -6.01465e-19 1.58967)
(7.14708 1.2335e-18 1.78953)
(6.84494 1.29377e-18 2.01511)
(6.52033 0 2.26997)
(6.16934 1.36411e-18 2.55795)
(5.78692 2.14169e-17 2.88392)
(5.36529 -2.3247e-17 3.25383)
(4.89505 -2.3927e-17 3.67382)
(4.33728 4.83418e-17 4.17207)
(3.8501 -7.3029e-19 4.62471)
(2.65422 -2.69806e-17 5.54569)
(10.0001 0 0.0548017)
(9.97893 1.31148e-18 0.106227)
(9.94401 3.03998e-18 0.154952)
(9.89751 -3.46735e-19 0.203196)
(9.83935 7.19716e-19 0.252615)
(9.76977 -1.47235e-18 0.304144)
(9.6888 0 0.358603)
(9.59657 3.91851e-19 0.41687)
(9.49326 8.0685e-19 0.479829)
(9.37867 8.32349e-19 0.548377)
(9.25263 4.28589e-19 0.623461)
(9.115 -2.22275e-19 0.706129)
(8.96546 -2.28444e-19 0.797551)
(8.80361 -3.81302e-18 0.899011)
(8.62906 3.82964e-18 1.01198)
(8.44144 0 1.13818)
(8.24043 0 1.27948)
(8.02528 4.3592e-18 1.43792)
(7.7956 -1.34561e-17 1.616)
(7.55126 8.61079e-18 1.81666)
(7.29078 -1.20081e-18 2.04291)
(7.0133 0 2.29851)
(6.71785 -1.01895e-17 2.58829)
(6.4018 -1.18691e-17 2.91766)
(6.06166 2.25425e-17 3.29313)
(5.692 -1.33633e-18 3.72333)
(5.29138 0 4.21313)
(4.79468 -4.16807e-20 4.8089)
(4.5058 -3.44444e-19 5.27958)
(3.22568 0 6.38476)
(10.0002 0 0.060362)
(9.979 -1.47147e-18 0.117739)
(9.94466 -1.17724e-18 0.172857)
(9.89954 0 0.2276)
(9.84348 1.42429e-18 0.283584)
(9.77652 -2.1926e-18 0.341944)
(9.69861 7.49828e-19 0.403631)
(9.60998 0 0.469556)
(9.51087 -3.99746e-19 0.540662)
(9.40121 -4.1193e-19 0.617949)
(9.2809 -4.24627e-19 0.702451)
(9.14976 -1.75708e-18 0.795297)
(9.00757 2.46602e-18 0.897757)
(8.85415 2.31405e-19 1.01123)
(8.68912 3.91682e-18 1.13726)
(8.51241 -3.92816e-18 1.2777)
(8.32408 -4.10252e-18 1.4347)
(8.12337 4.17553e-18 1.61042)
(7.91009 0 1.8075)
(7.68463 5.60473e-19 2.02934)
(7.44633 0 2.2796)
(7.19442 0 2.56241)
(6.9284 0 2.88331)
(6.64771 1.96735e-17 3.24923)
(6.35074 7.03773e-19 3.66795)
(6.03328 -1.87333e-17 4.14981)
(5.70552 1.53385e-19 4.69586)
(5.2652 3.88286e-20 5.37563)
(5.16594 -3.71357e-17 5.83662)
(3.81175 1.17072e-18 7.06238)
(10.0003 0 0.0659193)
(9.97934 9.71769e-19 0.12905)
(9.94584 -1.39959e-21 0.190224)
(9.90233 1.0303e-18 0.251143)
(9.84855 4.06275e-21 0.313393)
(9.78442 2.17855e-18 0.378278)
(9.70992 -7.42974e-19 0.446864)
(9.62533 1.54018e-18 0.520077)
(9.53085 -1.57089e-18 0.598895)
(9.42655 1.63099e-18 0.684402)
(9.31244 -1.66209e-18 0.777736)
(9.18843 3.45616e-18 0.880106)
(9.05441 -4.40349e-18 0.992852)
(8.91033 -2.28378e-19 1.11749)
(8.75582 0 1.25564)
(8.59092 -3.87732e-18 1.40916)
(8.41599 3.94069e-18 1.58045)
(8.23085 0 1.77195)
(8.03525 0 1.98631)
(7.82943 0 2.22711)
(7.61418 9.08297e-18 2.49877)
(7.38907 -8.91031e-18 2.80593)
(7.15393 0 3.15449)
(6.90959 -1.81626e-17 3.55229)
(6.65649 1.79054e-17 4.00816)
(6.39076 1.83816e-17 4.53388)
(6.1351 -1.83576e-17 5.12405)
(5.74605 0 5.87543)
(5.80997 0 6.32099)
(4.39188 3.55245e-17 7.61324)
(10.0005 -2.36272e-18 0.0713954)
(9.97995 -3.70998e-18 0.140063)
(9.94755 9.93449e-19 0.206968)
(9.90589 0 0.273738)
(9.85459 0 0.341951)
(9.79346 -2.16125e-18 0.413026)
(9.72263 2.21808e-18 0.488122)
(9.64244 -1.51135e-18 0.568199)
(9.55306 0 0.654262)
(9.45464 7.98276e-19 0.74746)
(9.34722 1.65287e-18 0.849017)
(9.23086 -1.68178e-18 0.960195)
(9.1056 3.14832e-21 1.0824)
(8.97139 0 1.21726)
(8.82831 3.67973e-18 1.36652)
(8.67622 -7.51058e-18 1.53199)
(8.51537 3.82933e-18 1.71609)
(8.34661 7.9246e-18 1.92163)
(8.16985 -8.02407e-18 2.15147)
(7.9851 0 2.40918)
(7.79383 -2.64061e-19 2.69954)
(7.59643 0 3.02786)
(7.39368 1.32625e-19 3.40053)
(7.187 -1.75068e-17 3.82585)
(6.97835 1.61135e-17 4.31327)
(6.76379 -2.07496e-18 4.87628)
(6.57739 0 5.5019)
(6.2359 2.68813e-17 6.31374)
(6.42815 -3.04058e-17 6.75869)
(4.95924 -3.76369e-18 8.08686)
(10.0008 8.26281e-21 0.0767072)
(9.98086 2.57124e-18 0.150671)
(9.94981 3.2575e-19 0.222981)
(9.91028 -1.68774e-18 0.295276)
(9.86171 6.89431e-19 0.369145)
(9.80385 -4.29784e-21 0.446067)
(9.73698 2.19555e-18 0.527266)
(9.66146 7.59099e-19 0.613747)
(9.57756 -7.6573e-19 0.706546)
(9.48537 -4.53506e-21 0.806872)
(9.38511 -2.44621e-18 0.91602)
(9.27693 3.30634e-18 1.03528)
(9.16084 -4.20521e-19 1.1661)
(9.03693 0 1.31017)
(8.90576 3.1451e-18 1.46934)
(8.76731 -3.63755e-18 1.64555)
(8.62163 0 1.84105)
(8.46994 4.73155e-19 2.05883)
(8.31267 0 2.30208)
(8.1502 4.88799e-19 2.57448)
(7.98406 0 2.88091)
(7.81551 -4.98058e-19 3.22715)
(7.64616 -1.2772e-19 3.62012)
(7.4782 0 4.06864)
(7.31485 1.67677e-17 4.58256)
(7.15139 -1.54259e-17 5.17749)
(7.03171 0 5.83441)
(6.73754 3.05998e-17 6.69798)
(7.02394 -5.187e-17 7.17257)
(5.52264 3.52673e-17 8.54146)
(10.0011 4.99066e-18 0.0817865)
(9.98194 0 0.160785)
(9.95242 -3.92374e-18 0.23817)
(9.91517 1.34497e-18 0.315651)
(9.86955 -5.48837e-21 0.394842)
(9.81524 -1.40815e-18 0.477247)
(9.75264 1.44309e-18 0.564138)
(9.68212 -2.23101e-18 0.656555)
(9.60397 7.52128e-19 0.755578)
(9.51822 -4.78082e-21 0.862438)
(9.42541 2.40055e-18 0.978466)
(9.32586 -4.06066e-18 1.10503)
(9.21946 8.37581e-19 1.24361)
(9.10651 0 1.39587)
(8.98766 4.37671e-19 1.56373)
(8.8633 0 1.74925)
(8.73369 0 1.95469)
(8.59984 -6.53143e-21 2.18296)
(8.46268 0 2.43748)
(8.32322 -8.04323e-18 2.72211)
(8.18312 1.42619e-17 3.04179)
(8.04441 -7.13041e-18 3.40262)
(7.90948 0 3.81199)
(7.78116 0 4.27925)
(7.66423 -1.44621e-17 4.81475)
(7.55279 1.58982e-17 5.43668)
(7.4985 0 6.12396)
(7.2585 0 7.03384)
(7.61646 0 7.57888)
(6.10945 -5.75354e-18 9.03999)
(10.0014 -2.63975e-18 0.0866036)
(9.98311 -1.59142e-19 0.170352)
(9.9552 3.25358e-18 0.252487)
(9.9203 9.96957e-19 0.334802)
(9.87774 -2.05174e-18 0.418944)
(9.82715 2.098e-18 0.506432)
(9.76903 -1.44275e-18 0.59857)
(9.70383 1.46049e-18 0.696433)
(9.63179 0 0.801157)
(9.55298 7.58956e-19 0.913967)
(9.46803 -3.14616e-18 1.03616)
(9.37736 3.99394e-18 1.1692)
(9.281 -3.28169e-18 1.31462)
(9.17949 3.32152e-18 1.47405)
(9.07336 0 1.64938)
(8.96339 0 1.84275)
(8.85023 7.03695e-18 2.05648)
(8.73479 -6.65064e-18 2.29343)
(8.6184 0 2.55706)
(8.50258 -7.22882e-18 2.85136)
(8.3892 8.13802e-18 3.18129)
(8.28096 1.25911e-17 3.55314)
(8.18123 -1.42395e-17 3.97472)
(8.09357 0 4.45579)
(8.02443 -1.32277e-17 5.00756)
(7.96741 1.28106e-17 5.65075)
(7.9796 0 6.36771)
(7.81054 -5.11512e-18 7.31886)
(8.23872 9.42003e-18 7.97939)
(6.76803 2.47818e-18 9.6421)
(10.0017 -2.45926e-18 0.0911364)
(9.98442 0 0.179328)
(9.95824 0 0.265886)
(9.92585 -1.32412e-18 0.352679)
(9.88649 1.34962e-18 0.441385)
(9.83976 1.38064e-18 0.533533)
(9.78633 -2.8389e-18 0.630442)
(9.72666 1.44318e-18 0.733229)
(9.66089 1.47412e-18 0.843075)
(9.58937 -1.03467e-20 0.961208)
(9.51268 0 1.0889)
(9.43107 0 1.22761)
(9.34495 0 1.3789)
(9.25508 0 1.54441)
(9.16205 0 1.72597)
(9.06677 -7.56555e-18 1.92571)
(8.9702 7.6188e-18 2.14602)
(8.87348 -6.88046e-18 2.38972)
(8.77821 5.17452e-18 2.66019)
(8.68637 0 2.96147)
(8.60019 0 3.2985)
(8.52295 1.7193e-18 3.67756)
(8.45889 0 4.10665)
(8.41272 1.2751e-17 4.5958)
(8.39277 -2.44575e-17 5.15723)
(8.39417 1.72088e-17 5.8133)
(8.47751 -2.07465e-17 6.55509)
(8.40747 1.42944e-17 7.53498)
(8.93157 -2.38757e-17 8.34564)
(7.56318 7.72195e-18 10.3921)
(10.0021 5.04926e-18 0.095348)
(9.98586 -4.68955e-19 0.187659)
(9.96155 3.19559e-19 0.278304)
(9.93183 -6.56695e-19 0.369212)
(9.89584 -6.74754e-19 0.462102)
(9.85314 -2.74076e-18 0.55849)
(9.80454 0 0.659702)
(9.75046 0 0.766903)
(9.69101 -2.91773e-18 0.88128)
(9.62685 9.0695e-21 1.00406)
(9.55853 -3.02228e-18 1.13654)
(9.48624 -1.55845e-18 1.28014)
(9.41064 1.56652e-18 1.43638)
(9.3326 1.58318e-18 1.60687)
(9.25284 0 1.79342)
(9.17238 8.20822e-19 1.99813)
(9.09242 -7.41923e-18 2.22335)
(9.01443 -2.48915e-18 2.47181)
(8.94024 1.66724e-18 2.7468)
(8.87223 6.60364e-18 3.05226)
(8.81331 0 3.39306)
(8.76723 3.16977e-18 3.77529)
(8.73891 0 4.20663)
(8.73459 0 4.69713)
(8.76473 1.1049e-17 5.25935)
(8.82882 -2.03872e-17 5.91538)
(8.99008 9.53847e-18 6.66674)
(9.05503 7.6411e-18 7.64296)
(9.72257 1.34756e-17 8.59537)
(8.57272 0 11.3624)
(-0.00553352 0 -0.0112426)
(0.0494988 -7.25362e-20 -0.0328515)
(0.177305 -5.9589e-20 -0.0403258)
(0.316949 5.64701e-20 -0.0360255)
(0.44764 2.08659e-21 -0.0268701)
(0.55465 0 -0.01885)
(0.637371 1.07008e-20 -0.0138146)
(0.702745 0 -0.011357)
(0.75773 1.02611e-20 -0.0103303)
(0.806074 -1.00972e-20 -0.00951388)
(0.84851 3.02916e-20 -0.00845693)
(0.886024 0 -0.00807011)
(0.920609 0 -0.00763383)
(0.950566 2.06202e-20 -0.00533778)
(0.972217 2.1052e-20 -0.00258545)
(0.987435 0 -0.00202274)
(1.00114 -2.22624e-20 -0.00219828)
(1.01074 2.26341e-20 -0.000354867)
(1.00907 1.14658e-20 0.00242397)
(0.996415 0 0.00423501)
(0.98179 1.18156e-20 0.00388355)
(0.975509 0 0.000877529)
(0.984859 0 -0.00429359)
(1.01186 -9.66885e-21 -0.00957774)
(1.05324 -1.29897e-21 -0.0145085)
(1.10586 0 -0.0212337)
(1.17119 4.16287e-22 -0.0312754)
(1.25425 -4.08581e-22 -0.0433084)
(1.35817 7.76125e-21 -0.054267)
(1.51604 3.18354e-21 -0.0607397)
(-0.024793 0 -0.0146575)
(0.0114118 -2.83677e-19 -0.0925136)
(0.135815 7.11668e-20 -0.119021)
(0.280085 -1.43877e-19 -0.111529)
(0.424766 2.43204e-19 -0.0903745)
(0.549335 0 -0.0702402)
(0.648396 7.09819e-20 -0.0563567)
(0.72665 -8.49358e-20 -0.0485441)
(0.791323 -1.01256e-20 -0.0444111)
(0.847253 -5.91938e-20 -0.040869)
(0.895235 1.99305e-20 -0.0365904)
(0.935609 0 -0.0346604)
(0.972461 6.00565e-20 -0.0329694)
(1.00713 -1.97335e-20 -0.0263249)
(1.03384 -4.11484e-20 -0.0191052)
(1.0515 -3.19297e-20 -0.0174053)
(1.0684 -2.17401e-20 -0.0142079)
(1.08779 1.13156e-20 -0.00170438)
(1.10034 -1.13433e-20 0.0104294)
(1.09867 0 0.0138843)
(1.08473 1.1955e-20 0.00794777)
(1.06633 0 -0.00559373)
(1.04925 -2.33745e-20 -0.0210347)
(1.03788 1.35989e-20 -0.0345481)
(1.03622 1.77898e-20 -0.0431995)
(1.03952 2.08427e-21 -0.0495859)
(1.04513 -2.05898e-21 -0.057869)
(1.06111 0 -0.0713024)
(1.09874 -7.88805e-21 -0.0917312)
(1.19376 3.00686e-21 -0.115825)
(-0.042267 7.93181e-20 -0.0125135)
(-0.0367452 1.39026e-19 -0.146062)
(0.0631195 0 -0.188025)
(0.182617 1.0314e-19 -0.177257)
(0.307719 -1.77178e-19 -0.146103)
(0.415645 1.80697e-19 -0.115611)
(0.49882 0 -0.0938502)
(0.560237 0 -0.0812107)
(0.606784 -7.85525e-20 -0.0744188)
(0.64379 6.04462e-20 -0.0679308)
(0.671933 1.18284e-19 -0.0585955)
(0.689479 -3.93805e-20 -0.0563285)
(0.700976 -8.09904e-20 -0.0554478)
(0.714361 -2.10809e-20 -0.0408143)
(0.719675 -9.37042e-22 -0.0250968)
(0.708324 2.12261e-20 -0.0300688)
(0.691687 9.12903e-20 -0.0439631)
(0.689068 -4.61326e-20 -0.036692)
(0.670765 1.19897e-20 -0.0115816)
(0.602223 -1.19168e-20 0.0136774)
(0.509248 -2.48648e-20 0.0252444)
(0.407983 0 0.0222572)
(0.310668 3.12395e-20 0.0103843)
(0.238312 -3.40778e-22 -0.00382618)
(0.200534 -2.78521e-20 -0.0164146)
(0.200092 0 -0.0332576)
(0.232077 3.46487e-20 -0.0646581)
(0.299163 -1.7998e-21 -0.108937)
(0.381923 -1.63121e-20 -0.160229)
(0.497151 -6.59705e-21 -0.212014)
(-0.0615565 -7.90296e-20 -0.0172235)
(-0.0829971 -4.01951e-19 -0.18917)
(-0.00704898 0 -0.240498)
(0.0829624 0 -0.2253)
(0.178852 0 -0.186614)
(0.257822 4.1913e-20 -0.148338)
(0.312724 0 -0.120012)
(0.34488 -1.77626e-19 -0.10301)
(0.360444 1.62144e-19 -0.0943671)
(0.365079 -1.18104e-19 -0.0856393)
(0.362014 1.58518e-19 -0.0670065)
(0.346677 -7.96294e-20 -0.0635109)
(0.306173 -1.23969e-19 -0.0733351)
(0.278577 8.36252e-20 -0.0669174)
(0.256267 -8.80172e-20 -0.0400667)
(0.174816 1.17654e-19 -0.0154352)
(0.00262595 -7.3395e-20 -0.00627501)
(-0.153855 2.58851e-20 0.0158712)
(-0.23604 -2.57952e-20 0.0555188)
(-0.287668 -5.32717e-20 0.0834922)
(-0.335373 -1.3434e-20 0.0917723)
(-0.372315 1.32143e-20 0.0795695)
(-0.396427 0 0.0468586)
(-0.398661 0 0.00166544)
(-0.36941 -4.4965e-20 -0.046433)
(-0.318799 -4.388e-20 -0.0920298)
(-0.259575 -6.11916e-20 -0.136493)
(-0.200731 -1.31021e-21 -0.181084)
(-0.149279 1.79531e-20 -0.226438)
(-0.109699 0 -0.269865)
(-0.0883014 -6.24063e-19 -0.0426388)
(-0.132491 1.01568e-18 -0.225585)
(-0.0793534 -4.52674e-19 -0.277785)
(-0.0231975 3.72671e-19 -0.253961)
(0.0346113 -4.63231e-19 -0.20792)
(0.0722015 -4.34279e-20 -0.163399)
(0.0859692 0 -0.129096)
(0.0753212 2.05697e-20 -0.106523)
(0.0427432 0 -0.0944074)
(-0.00716503 7.95214e-20 -0.0877071)
(-0.0624498 8.00657e-20 -0.072631)
(-0.101162 0 -0.0462866)
(-0.268547 8.75878e-20 -0.0274889)
(-0.452613 0 0.000618007)
(-0.564129 9.04634e-20 0.0445483)
(-0.647321 -4.70711e-20 0.0728079)
(-0.731209 0 0.0734652)
(-0.796646 0 0.0640095)
(-0.836263 2.5462e-20 0.0685146)
(-0.857043 -6.85884e-22 0.0779759)
(-0.859508 3.83183e-20 0.0762021)
(-0.846228 9.10845e-20 0.0545216)
(-0.823525 0 0.0148131)
(-0.798525 9.50768e-20 -0.0341256)
(-0.765548 1.2868e-19 -0.0824163)
(-0.732252 1.16083e-19 -0.12839)
(-0.700929 2.69149e-20 -0.17185)
(-0.675612 0 -0.214044)
(-0.660929 -2.80557e-20 -0.255662)
(-0.657416 0 -0.291011)
(-0.125081 -1.65883e-19 -0.0861401)
(-0.190276 -5.12394e-19 -0.252804)
(-0.160876 0 -0.295504)
(-0.146544 0 -0.256963)
(-0.138398 4.36488e-19 -0.201083)
(-0.158776 -6.92811e-19 -0.149061)
(-0.203947 3.48097e-19 -0.108572)
(-0.273815 -4.1005e-20 -0.0769911)
(-0.380996 0 -0.048171)
(-0.535681 -8.19664e-20 -0.0253565)
(-0.690469 -1.61545e-19 0.000398331)
(-0.811149 8.00713e-20 0.0379924)
(-0.916649 -2.08663e-21 0.054822)
(-1.00456 1.68475e-19 0.0576716)
(-1.06906 0 0.0665139)
(-1.1241 -9.27106e-20 0.0766892)
(-1.17472 -2.42401e-20 0.0775957)
(-1.21425 -8.98687e-22 0.0727529)
(-1.23724 1.49923e-19 0.0695116)
(-1.2416 7.71046e-20 0.0654605)
(-1.22911 -1.27021e-20 0.0522668)
(-1.20612 -7.52832e-20 0.0250257)
(-1.18142 -1.24027e-20 -0.0146307)
(-1.15918 -1.13524e-20 -0.0611776)
(-1.13814 -1.53145e-19 -0.108865)
(-1.12154 -7.13557e-20 -0.153262)
(-1.10968 3.15493e-21 -0.194398)
(-1.10536 -2.02581e-21 -0.233694)
(-1.11021 2.58904e-20 -0.27227)
(-1.11752 0 -0.30364)
(-0.171176 3.00847e-19 -0.137798)
(-0.258594 -6.98218e-19 -0.263733)
(-0.257659 6.40477e-19 -0.284511)
(-0.29901 0 -0.223007)
(-0.354854 -9.05159e-20 -0.151985)
(-0.456101 -3.40996e-19 -0.0834054)
(-0.587195 3.68712e-19 -0.0316557)
(-0.74201 2.0014e-19 0.0109416)
(-0.887316 -1.58912e-19 0.039784)
(-1.01194 0 0.0525311)
(-1.12294 7.50203e-20 0.058911)
(-1.21698 0 0.0687843)
(-1.29459 -7.91363e-20 0.0781638)
(-1.36255 6.24946e-22 0.0852146)
(-1.41764 -1.30962e-19 0.0908693)
(-1.4612 8.6268e-20 0.0927527)
(-1.4962 4.56233e-20 0.0869481)
(-1.52212 0 0.0765109)
(-1.53626 -9.72911e-20 0.065165)
(-1.53708 -9.87993e-20 0.051388)
(-1.52666 0 0.0307261)
(-1.51046 1.22163e-20 0.00059239)
(-1.49481 -2.36276e-20 -0.0382367)
(-1.48165 -7.67991e-20 -0.0822523)
(-1.47316 5.72128e-21 -0.126813)
(-1.46974 6.15613e-20 -0.168602)
(-1.47213 2.91327e-21 -0.207148)
(-1.48255 -4.03444e-20 -0.243683)
(-1.49988 -2.11854e-20 -0.278984)
(-1.51254 -7.93362e-21 -0.306033)
(-0.222404 -8.80897e-19 -0.182501)
(-0.336793 0 -0.246376)
(-0.376852 -2.11635e-19 -0.230464)
(-0.494238 -3.73975e-19 -0.133547)
(-0.631887 7.85953e-19 -0.0475727)
(-0.793203 -2.69088e-20 0.0225772)
(-0.95254 -5.16101e-19 0.0694547)
(-1.09639 8.3185e-20 0.0947123)
(-1.22066 7.12356e-20 0.104843)
(-1.32789 0 0.108324)
(-1.41946 -1.45698e-19 0.109627)
(-1.49994 7.15487e-20 0.11087)
(-1.56993 -7.55531e-20 0.111482)
(-1.62912 -7.95799e-20 0.111342)
(-1.67645 8.38484e-20 0.109794)
(-1.71296 4.62083e-20 0.104296)
(-1.74115 -4.55136e-20 0.0930119)
(-1.76202 0 0.0777906)
(-1.77475 0 0.0605547)
(-1.77889 -2.52311e-20 0.0404111)
(-1.77617 4.98661e-20 0.0150368)
(-1.77041 7.39316e-20 -0.0168212)
(-1.76549 1.12016e-20 -0.0545488)
(-1.76385 -1.1013e-20 -0.0957251)
(-1.76731 7.56628e-20 -0.137035)
(-1.77562 -6.43117e-20 -0.176072)
(-1.78989 5.17529e-20 -0.21211)
(-1.81202 3.38606e-20 -0.246125)
(-1.8385 2.06717e-20 -0.278362)
(-1.85461 7.94757e-21 -0.301774)
(-0.273339 1.45343e-19 -0.20236)
(-0.423957 0 -0.185717)
(-0.530611 0 -0.117344)
(-0.707856 -3.73241e-19 -0.00600148)
(-0.888925 4.29707e-19 0.080142)
(-1.06498 2.00068e-20 0.139147)
(-1.21784 0 0.166231)
(-1.34566 7.30836e-20 0.172751)
(-1.45703 -5.1689e-21 0.169205)
(-1.55515 0 0.162076)
(-1.64073 -6.47596e-20 0.155147)
(-1.71459 0 0.148886)
(-1.77741 -2.85839e-21 0.14233)
(-1.82946 -8.50809e-20 0.135148)
(-1.871 8.03823e-20 0.126548)
(-1.90352 0 0.114841)
(-1.92934 -9.63966e-20 0.0991133)
(-1.94989 0 0.0802597)
(-1.96536 0 0.0590997)
(-1.97595 2.53775e-20 0.0350403)
(-1.98297 7.66859e-20 0.00688078)
(-1.98896 1.53566e-21 -0.0258058)
(-1.9961 -1.09516e-20 -0.0621779)
(-2.00648 2.05287e-20 -0.100606)
(-2.02148 6.21646e-20 -0.139224)
(-2.04071 3.37967e-21 -0.175976)
(-2.0655 -5.13424e-20 -0.209969)
(-2.09752 0 -0.241852)
(-2.13126 3.18518e-20 -0.271439)
(-2.14982 0 -0.292063)
(-0.322845 0 -0.176041)
(-0.516514 0 -0.0722097)
(-0.68217 0 0.0310447)
(-0.896479 -4.66699e-20 0.14908)
(-1.09214 -3.28694e-19 0.222702)
(-1.25791 3.04311e-19 0.25172)
(-1.40344 -6.3951e-20 0.256459)
(-1.52984 -1.24392e-19 0.247507)
(-1.63788 5.86718e-20 0.232013)
(-1.72958 0 0.214977)
(-1.80745 6.33228e-20 0.199224)
(-1.87354 0 0.184999)
(-1.92908 0 0.171346)
(-1.97483 7.67394e-20 0.157569)
(-2.01178 0 0.14292)
(-2.04184 0 0.126394)
(-2.06737 1.93054e-19 0.107445)
(-2.09009 2.56055e-20 0.0862718)
(-2.11076 -1.30579e-19 0.0629427)
(-2.12984 2.57039e-20 0.0368911)
(-2.14819 -2.03457e-19 0.00741917)
(-2.16719 -2.18833e-19 -0.0254882)
(-2.18787 9.07196e-20 -0.0607793)
(-2.21028 -9.0407e-20 -0.0971075)
(-2.2364 -5.71646e-20 -0.13351)
(-2.26593 -3.9573e-21 -0.168574)
(-2.30031 0 -0.201096)
(-2.341 -5.54522e-20 -0.231238)
(-2.38085 -5.86233e-20 -0.258503)
(-2.40127 1.81563e-22 -0.276909)
(-0.364384 1.35663e-19 -0.0860487)
(-0.592291 0 0.0803159)
(-0.810603 0 0.224263)
(-1.03302 4.73372e-20 0.317982)
(-1.22744 0 0.355481)
(-1.40105 0 0.363647)
(-1.54999 2.27928e-19 0.350118)
(-1.67382 -1.10249e-19 0.323751)
(-1.77456 0 0.293318)
(-1.8565 -5.43979e-20 0.264791)
(-1.92432 1.64362e-19 0.240224)
(-1.98126 -5.75144e-20 0.218685)
(-2.02891 -7.21996e-20 0.198588)
(-2.0682 7.10062e-20 0.179056)
(-2.10051 4.44409e-20 0.159654)
(-2.12819 -4.37949e-20 0.139913)
(-2.15395 -9.70793e-20 0.119371)
(-2.17991 1.06554e-19 0.0976173)
(-2.20724 1.03852e-19 0.0740568)
(-2.23641 0 0.047904)
(-2.26772 1.01389e-19 0.0185531)
(-2.30138 9.15555e-21 -0.0139416)
(-2.33728 -9.01771e-20 -0.0485574)
(-2.37403 6.92528e-20 -0.0838736)
(-2.41114 6.78614e-20 -0.118947)
(-2.45062 1.06328e-19 -0.152975)
(-2.49392 3.00003e-21 -0.184893)
(-2.54237 5.47622e-20 -0.213955)
(-2.58754 3.97308e-21 -0.239297)
(-2.60951 8.25949e-21 -0.255973)
(-0.377331 -1.24094e-18 0.0812603)
(-0.623821 0 0.306059)
(-0.882372 -1.12527e-20 0.422695)
(-1.12343 -3.32218e-19 0.483378)
(-1.33531 3.18214e-19 0.500314)
(-1.51689 0 0.484252)
(-1.66544 -5.1175e-20 0.445955)
(-1.78157 0 0.397324)
(-1.8696 3.50746e-20 0.349373)
(-1.93721 -3.91673e-20 0.308943)
(-1.99189 -6.53147e-21 0.276658)
(-2.03786 5.33313e-20 0.249192)
(-2.07633 -7.02916e-20 0.223728)
(-2.10784 2.8853e-20 0.199483)
(-2.13399 -4.6847e-20 0.176749)
(-2.15783 -4.99157e-20 0.15565)
(-2.18283 2.08676e-19 0.13564)
(-2.21178 -2.70112e-19 0.115588)
(-2.24623 1.14233e-19 0.0940848)
(-2.28653 -1.13056e-19 0.069837)
(-2.33228 0 0.0419951)
(-2.38252 1.98833e-19 0.0104105)
(-2.43579 9.11396e-20 -0.0241454)
(-2.48981 -7.94049e-20 -0.0601887)
(-2.54186 -6.71059e-20 -0.0963877)
(-2.59164 -1.08425e-19 -0.131607)
(-2.64338 -7.60143e-20 -0.164139)
(-2.69893 4.56883e-20 -0.192651)
(-2.74907 2.24467e-20 -0.215832)
(-2.77258 -8.39402e-21 -0.230129)
(-0.376201 1.0053e-18 0.257499)
(-0.633803 0 0.560371)
(-0.931299 4.79216e-20 0.641727)
(-1.19941 3.62142e-20 0.6757)
(-1.42643 -1.10764e-19 0.66056)
(-1.6121 8.04409e-20 0.610141)
(-1.75443 -1.68537e-20 0.53907)
(-1.85539 3.80551e-20 0.4626)
(-1.92272 -3.50987e-20 0.39479)
(-1.96933 7.56283e-21 0.343529)
(-2.00681 1.39837e-21 0.306523)
(-2.03965 -2.02989e-19 0.275467)
(-2.06699 1.15938e-19 0.245816)
(-2.08797 0 0.217735)
(-2.1044 8.64676e-20 0.193089)
(-2.12053 0 0.172865)
(-2.14128 -2.47519e-19 0.156252)
(-2.17051 2.59152e-19 0.14107)
(-2.21026 -2.13979e-20 0.124757)
(-2.26078 1.12921e-19 0.10517)
(-2.32082 2.80539e-20 0.0809338)
(-2.38802 -1.12399e-19 0.0515562)
(-2.45953 -6.75224e-20 0.0175568)
(-2.53182 6.79457e-20 -0.0196642)
(-2.60136 0 -0.0582511)
(-2.66656 -1.02946e-19 -0.0961642)
(-2.72897 7.64317e-20 -0.130993)
(-2.79131 -4.47229e-20 -0.159598)
(-2.84569 0 -0.17944)
(-2.87087 0 -0.189551)
(-0.272191 6.93887e-19 0.930034)
(-0.587579 1.10466e-19 0.826139)
(-0.978992 2.52714e-19 0.885539)
(-1.26972 -6.0864e-20 0.882531)
(-1.50963 9.56665e-20 0.824063)
(-1.69439 -2.59691e-20 0.73075)
(-1.8222 1.65398e-20 0.621139)
(-1.89687 1.90202e-20 0.512619)
(-1.93123 -2.20666e-20 0.423066)
(-1.94688 1.92473e-20 0.36407)
(-1.96242 0 0.328579)
(-1.98065 9.99758e-20 0.296951)
(-1.99477 -1.11899e-19 0.263337)
(-2.00086 0 0.231181)
(-2.00116 0 0.205519)
(-2.00213 -5.43606e-20 0.188623)
(-2.01098 5.81998e-20 0.179029)
(-2.03317 -8.86574e-20 0.172819)
(-2.07143 -2.86026e-19 0.165709)
(-2.12615 0 0.154249)
(-2.19546 1.21245e-19 0.136107)
(-2.27559 0 0.110208)
(-2.36201 -5.45792e-21 0.0768917)
(-2.44942 5.38204e-21 0.0377358)
(-2.5326 0 -0.00487947)
(-2.60904 1.00561e-19 -0.0479789)
(-2.67984 6.58361e-22 -0.0875948)
(-2.74718 -5.49908e-23 -0.118539)
(-2.80417 4.45087e-23 -0.136556)
(-2.83084 1.23323e-23 -0.143052)
(-0.0971215 7.15257e-19 0.250597)
(-0.764895 3.23941e-19 1.13706)
(-1.04519 -1.1766e-19 1.27288)
(-1.3491 -1.81774e-20 1.22051)
(-1.59683 -4.97237e-21 1.08153)
(-1.76966 -3.01527e-20 0.908589)
(-1.87049 3.7688e-20 0.725062)
(-1.9048 -2.36829e-20 0.55098)
(-1.88906 1.16149e-20 0.417625)
(-1.85916 5.55614e-22 0.353977)
(-1.84947 1.24051e-20 0.336047)
(-1.85615 -3.16414e-20 0.309335)
(-1.85681 -2.05359e-20 0.271196)
(-1.84271 -3.29659e-20 0.23343)
(-1.81796 0 0.206922)
(-1.79291 -1.01903e-20 0.195874)
(-1.77814 3.40305e-20 0.197474)
(-1.78088 1.72359e-21 0.205019)
(-1.80461 1.00118e-19 0.212013)
(-1.85029 0 0.21347)
(-1.91679 -1.23032e-19 0.205682)
(-2.00057 6.70195e-21 0.186488)
(-2.09636 1.92412e-19 0.155746)
(-2.1972 2.79565e-21 0.115232)
(-2.29555 0 0.068133)
(-2.38627 0 0.0186052)
(-2.46802 -6.52803e-20 -0.0277821)
(-2.54179 3.76499e-20 -0.0631496)
(-2.60249 -9.14484e-24 -0.0805781)
(-2.63193 1.13943e-23 -0.0832263)
(10.0025 -2.34931e-18 0.0992823)
(9.9874 0 0.195446)
(9.96509 0 0.289898)
(9.93817 0 0.384628)
(9.9057 0 0.481386)
(9.86729 1.3126e-18 0.581667)
(9.82375 -7.25996e-21 0.686793)
(9.77555 1.35996e-18 0.797967)
(9.72288 1.39419e-18 0.916374)
(9.66645 -7.5418e-21 1.04322)
(9.60681 -1.47622e-20 1.17983)
(9.54435 1.44843e-18 1.32757)
(9.47986 -1.48346e-18 1.48789)
(9.41416 1.48812e-18 1.66235)
(9.34817 0 1.85274)
(9.28309 0 2.06105)
(9.22033 1.53027e-18 2.28954)
(9.1616 1.55855e-18 2.54083)
(9.10905 1.52728e-18 2.818)
(9.06532 1.51389e-18 3.12473)
(9.0341 0 3.46567)
(9.01979 -2.98406e-18 3.84655)
(9.028 1.12538e-17 4.27428)
(9.06641 -1.62423e-17 4.75802)
(9.14781 4.91488e-18 5.3092)
(9.2783 -1.80408e-17 5.94634)
(9.52341 8.35764e-18 6.67656)
(9.76267 -3.93106e-18 7.58405)
(10.7986 -3.41263e-18 8.51456)
(11.9993 -3.78104e-18 11.6563)
(10.0029 2.26863e-18 0.102946)
(9.98899 0 0.202694)
(9.96879 0 0.300669)
(9.94479 0 0.398911)
(9.91602 -2.47521e-18 0.499195)
(9.88207 2.52556e-18 0.602989)
(9.84385 -8.11596e-21 0.711598)
(9.80178 0 0.826255)
(9.75615 -1.35088e-18 0.94815)
(9.70767 1.3511e-18 1.07847)
(9.65686 -1.37769e-18 1.21847)
(9.60444 -2.81331e-18 1.36949)
(9.55126 4.25217e-18 1.53292)
(9.49811 1.42873e-18 1.71026)
(9.44609 0 1.9032)
(9.39656 1.44802e-18 2.11361)
(9.35112 5.82631e-18 2.34357)
(9.3117 -5.84558e-18 2.59552)
(9.28073 -1.46678e-18 2.87227)
(9.26118 4.26768e-18 3.17708)
(9.25695 -2.8708e-18 3.51405)
(9.27334 0 3.88833)
(9.31688 1.03736e-17 4.30563)
(9.3959 -9.88038e-18 4.77293)
(9.52478 4.69222e-18 5.29868)
(9.71483 4.25053e-18 5.89413)
(10.0256 0 6.56096)
(10.3749 -1.38116e-18 7.32098)
(11.1224 1.13711e-18 8.06414)
(12.0625 -6.97363e-19 9.26046)
(10.0033 -2.21106e-18 0.106284)
(9.99071 0 0.20929)
(9.97275 0 0.310461)
(9.95186 0 0.411871)
(9.92696 2.40954e-18 0.515318)
(9.89767 -4.89989e-18 0.62222)
(9.86495 1.23562e-18 0.733857)
(9.82914 -1.27282e-18 0.851492)
(9.79066 1.27913e-18 0.976319)
(9.75027 0 1.10947)
(9.70855 1.33644e-18 1.25213)
(9.66631 -1.35805e-18 1.40556)
(9.62448 1.35009e-18 1.57112)
(9.58396 -1.38223e-18 1.75024)
(9.54597 5.53184e-18 1.94444)
(9.51198 -8.32169e-18 2.15541)
(9.48373 -6.94196e-18 2.38505)
(9.46335 -2.72057e-18 2.63551)
(9.45353 5.48602e-18 2.90926)
(9.45751 0 3.20903)
(9.47909 -2.66566e-18 3.5381)
(9.52427 0 3.90065)
(9.60006 2.34612e-21 4.30073)
(9.71448 -4.49774e-18 4.74229)
(9.8815 -4.16708e-18 5.22957)
(10.1116 0 5.76522)
(10.442 4.92587e-18 6.34158)