/*--------------------------------*- C++ -*----------------------------------*\
| =========                 |                                                 |
| \\      /  F ield         | OpenFOAM: The Open Source CFD Toolbox           |
|  \\    /   O peration     | Version:  2006                                  |
|   \\  /    A nd           | Website:  www.openfoam.com                      |
|    \\/     M anipulation  |                                                 |
\*---------------------------------------------------------------------------*/
FoamFile
{
    version     2.0;
    format      ascii;
    class       volScalarField;
    location    "6.1";
    object      p;
}
// * * * * * * * * * * * * * * * * * * * * * * * * * * * * * * * * * * * * * //

dimensions      [0 2 -2 0 0 0 0];


internalField   nonuniform List<scalar> 
2790
(
146.866
146.773
147.041
147.612
148.392
149.349
150.481
151.788
153.265
154.906
156.705
158.656
160.75
162.975
165.315
167.751
170.255
172.794
175.326
177.8
180.158
182.336
184.266
185.887
187.147
188.021
188.457
188.512
188.563
188.776
146.663
146.681
146.973
147.541
148.318
149.272
150.4
151.7
153.169
154.802
156.592
158.533
160.616
162.829
165.159
167.585
170.08
172.614
175.144
177.622
179.99
182.186
184.14
185.789
187.073
187.947
188.344
188.399
188.531
188.816
146.465
146.552
146.864
147.421
148.185
149.126
150.239
151.521
152.969
154.577
156.339
158.248
160.296
162.472
164.76
167.142
169.594
172.085
174.577
177.024
179.374
181.567
183.539
185.229
186.58
187.556
188.149
188.504
188.82
189.118
146.24
146.358
146.682
147.231
147.98
148.905
149.998
151.256
152.675
154.25
155.973
157.839
159.837
161.958
164.186
166.504
168.889
171.312
173.739
176.129
178.436
180.608
182.59
184.33
185.784
186.936
187.804
188.475
189.028
189.547
145.979
146.111
146.444
146.985
147.717
148.621
149.689
150.916
152.298
153.829
155.503
157.312
159.248
161.299
163.451
165.686
167.984
170.319
172.661
174.974
177.219
179.354
181.337
183.127
184.698
186.04
187.17
188.133
188.944
189.691
145.678
145.816
146.151
146.683
147.395
148.273
149.309
150.498
151.835
153.315
154.93
156.672
158.533
160.501
162.562
164.7
166.895
169.124
171.361
173.577
175.739
177.817
179.779
181.6
183.263
184.764
186.111
187.316
188.336
189.254
145.336
145.475
145.806
146.325
147.014
147.862
148.861
150.006
151.292
152.712
154.259
155.925
157.7
159.572
161.53
163.555
165.631
167.737
169.85
171.946
174.001
175.992
177.9
179.71
181.416
183.017
184.511
185.89
187.054
188.101
144.951
145.088
145.412
145.915
146.578
147.392
148.349
149.445
150.672
152.025
153.496
155.075
156.754
158.52
160.36
162.259
164.2
166.164
168.132
170.084
172.001
173.869
175.676
177.418
179.097
180.716
182.271
183.743
184.993
186.143
144.525
144.658
144.972
145.455
146.089
146.865
147.776
148.817
149.98
151.259
152.645
154.129
155.702
157.35
159.061
160.819
162.609
164.412
166.211
167.99
169.734
171.432
173.08
174.68
176.242
177.777
179.286
180.756
182.027
183.265
144.058
144.186
144.487
144.947
145.55
146.284
147.145
148.126
149.22
150.418
151.713
153.094
154.551
156.072
157.641
159.245
160.866
162.489
164.095
165.668
167.197
168.671
170.089
171.457
172.79
174.109
175.429
176.767
177.968
179.272
143.553
143.675
143.96
144.395
144.963
145.654
146.461
147.377
148.396
149.509
150.706
151.977
153.311
154.694
156.111
157.547
158.984
160.405
161.792
163.127
164.395
165.585
166.692
167.72
168.684
169.613
170.544
171.543
172.505
173.823
143.011
143.125
143.393
143.802
144.333
144.976
145.726
146.575
147.515
148.537
149.631
150.786
151.989
153.226
154.481
155.738
156.976
158.177
159.319
160.381
161.343
162.185
162.893
163.459
163.886
164.196
164.439
164.748
165.13
166.304
142.434
142.541
142.79
143.17
143.662
144.256
144.946
145.724
146.582
147.509
148.496
149.529
150.595
151.68
152.765
153.831
154.858
155.822
156.697
157.456
158.069
158.504
158.726
158.701
158.398
157.801
156.927
155.936
154.989
155.495
141.825
141.923
142.153
142.502
142.953
143.496
144.124
144.829
145.601
146.431
147.307
148.214
149.14
150.067
150.975
151.844
152.649
153.363
153.954
154.386
154.616
154.593
154.255
153.523
152.3
150.472
147.91
144.611
140.666
138.633
141.185
141.275
141.485
141.803
142.211
142.702
143.266
143.895
144.58
145.31
146.072
146.852
147.633
148.399
149.126
149.793
150.37
150.826
151.123
151.213
151.04
150.529
149.584
148.069
145.791
142.459
137.618
130.606
120.152
107.942
0.887059
0.867442
0.802285
0.713921
0.623962
0.542664
0.472964
0.414621
0.366247
0.32607
0.292284
0.263268
0.237625
0.214574
0.193307
0.173186
0.153843
0.135036
0.116704
0.0989249
0.0819011
0.0659009
0.0512098
0.0382965
0.0272787
0.01814
0.0108472
0.00538915
0.00181875
-0.000421283
0.842319
0.820562
0.759516
0.678318
0.595808
0.520943
0.45643
0.402187
0.357019
0.31931
0.287387
0.259775
0.235365
0.213107
0.192335
0.172559
0.153383
0.134615
0.116214
0.0982904
0.0810771
0.0649318
0.0503152
0.0374641
0.0265309
0.0174768
0.0102961
0.00492132
0.00162203
0.000464426
0.792671
0.766941
0.708499
0.634105
0.55975
0.492425
0.434293
0.385302
0.344373
0.309989
0.280597
0.254871
0.231797
0.21054
0.190488
0.171178
0.152269
0.133594
0.115152
0.097098
0.0797178
0.0634142
0.0486688
0.0358304
0.0249919
0.0159906
0.0086652
0.00351266
0.000784474
0.000598356
0.744651
0.71473
0.658042
0.589495
0.522802
0.46275
0.410909
0.36719
0.330573
0.299595
0.272783
0.248978
0.227309
0.20711
0.187843
0.169082
0.150514
0.132011
0.113618
0.0955303
0.078068
0.0616683
0.0468873
0.0341871
0.0235758
0.0147771
0.00758447
0.00250417
-0.000142183
-0.000520081
0.710964
0.676837
0.621605
0.557209
0.496099
0.441193
0.393782
0.353803
0.320289
0.29176
0.266764
0.244318
0.223655
0.204229
0.185548
0.167216
0.148917
0.130564
0.11225
0.0941927
0.0767236
0.0602901
0.0455286
0.0330228
0.0225645
0.0137324
0.00638497
0.0016071
-0.000305514
-0.000684385
0.703314
0.663815
0.609256
0.546083
0.486934
0.433629
0.387558
0.348763
0.316307
0.288592
0.264136
0.242191
0.221823
0.202638
0.184144
0.165968
0.147725
0.12939
0.111112
0.0931194
0.0757059
0.0593011
0.0446467
0.0325455
0.022813
0.0143627
0.00692375
0.00123651
-0.00137802
-0.00112464
0.732509
0.684961
0.628035
0.56119
0.49836
0.441846
0.393238
0.352559
0.318781
0.290132
0.264944
0.242316
0.221505
0.201961
0.183191
0.164943
0.146612
0.128331
0.11031
0.0927259
0.0756902
0.0594209
0.0444676
0.0316549
0.021496
0.0134056
0.00661171
0.00127128
-0.00160924
-0.00123684
0.804384
0.746283
0.678788
0.601489
0.528542
0.46378
0.408773
0.36328
0.326214
0.295644
0.268956
0.244731
0.22269
0.202241
0.18278
0.163663
0.144979
0.126555
0.108503
0.0910285
0.0742625
0.0583738
0.0437968
0.0311975
0.0210751
0.012995
0.00626779
0.000781752
-0.00243821
-0.00146221
0.918783
0.839948
0.752708
0.658063
0.570202
0.494232
0.431044
0.378769
0.335192
0.299204
0.269492
0.244196
0.221597
0.200772
0.181002
0.161764
0.143022
0.124814
0.1072
0.0901314
0.073505
0.0574368
0.0425105
0.0296425
0.01949
0.0117402
0.00543632
2.77385e-05
-0.00324574
-0.00165527
1.05479
0.942995
0.827188
0.711911
0.608422
0.518601
0.444778
0.386064
0.33942
0.301329
0.269654
0.24286
0.219514
0.198361
0.17833
0.158822
0.139898
0.121873
0.104846
0.0884627
0.0721862
0.0558953
0.0403248
0.0268674
0.0166308
0.00942973
0.00388934
-0.00106064
-0.00402346
-0.00181718
1.1727
1.02767
0.882226
0.742607
0.623163
0.525901
0.447444
0.385191
0.336304
0.297153
0.264863
0.237734
0.214547
0.193837
0.17405
0.1544
0.135283
0.117581
0.101539
0.0862982
0.0705566
0.0537715
0.0369581
0.0223728
0.0119786
0.00574139
0.00156751
-0.00238233
-0.00469562
-0.00193915
1.26368
1.06797
0.892038
0.735306
0.606908
0.506726
0.42892
0.368636
0.322123
0.28512
0.254176
0.227986
0.206121
0.187013
0.168205
0.148455
0.128841
0.111435
0.096925
0.0836242
0.0688433
0.0512503
0.032294
0.0156991
0.00494919
0.000303312
-0.00155534
-0.00380582
-0.0052058
-0.00200986
1.26621
1.00281
0.805787
0.651748
0.535219
0.449108
0.383327
0.332378
0.294202
0.26397
0.2369
0.212764
0.193455
0.177655
0.161012
0.141108
0.120235
0.102838
0.0906637
0.0806373
0.0675872
0.0487737
0.0263084
0.00628971
-0.00521196
-0.00731678
-0.00540307
-0.00508827
-0.00549035
-0.00202
1.01131
0.686702
0.550978
0.463547
0.391784
0.345589
0.309011
0.275754
0.252174
0.234393
0.213697
0.191592
0.175784
0.166007
0.153643
0.133294
0.109371
0.091024
0.0823135
0.0778037
0.0678226
0.0471949
0.0191175
-0.00658706
-0.0195889
-0.0177125
-0.00974258
-0.00575502
-0.00544231
-0.00196278
0.312859
-0.0690858
0.0296417
0.155931
0.169346
0.203937
0.21878
0.201971
0.19358
0.197061
0.187203
0.165315
0.152813
0.152982
0.148379
0.12638
0.0954033
0.0737672
0.0703259
0.0754013
0.0709738
0.0477676
0.0109501
-0.0239561
-0.0398123
-0.0317985
-0.0141039
-0.00490427
-0.00485713
-0.00183632
140.506
140.587
140.775
141.06
141.425
141.86
142.358
142.91
143.505
144.131
144.776
145.424
146.058
146.657
147.2
147.659
148.002
148.194
148.187
147.927
147.341
146.332
144.767
142.453
139.091
134.185
126.816
115.069
92.921
33.1828
139.779
139.85
140.016
140.266
140.585
140.963
141.392
141.863
142.365
142.885
143.409
143.921
144.403
144.833
145.185
145.432
145.538
145.462
145.151
144.541
143.547
142.057
139.911
136.878
132.6
126.492
117.523
103.959
84.4341
55.969
139.01
139.071
139.214
139.427
139.699
140.018
140.376
140.764
141.171
141.582
141.983
142.358
142.686
142.944
143.107
143.142
143.013
142.673
142.067
141.124
139.753
137.833
135.2
131.623
126.777
120.206
111.321
99.4803
85.2326
68.5833
138.199
138.25
138.369
138.546
138.769
139.028
139.314
139.618
139.928
140.229
140.507
140.744
140.919
141.007
140.982
140.811
140.453
139.862
138.98
137.733
136.032
133.758
130.759
126.839
121.751
115.201
106.892
96.4906
83.9329
68.7783
137.349
137.39
137.484
137.624
137.798
137.996
138.21
138.429
138.642
138.834
138.989
139.089
139.113
139.036
138.829
138.459
137.886
137.063
135.931
134.42
132.445
129.899
126.653
122.551
117.412
111.035
103.221
93.7267
82.3829
69.3967
136.463
136.493
136.563
136.665
136.789
136.926
137.067
137.202
137.319
137.402
137.437
137.403
137.281
137.044
136.665
136.109
135.338
134.305
132.956
131.224
129.035
126.296
122.902
118.734
113.661
107.549
100.275
91.7392
81.9318
71.2652
135.542
135.561
135.606
135.671
135.745
135.822
135.891
135.943
135.965
135.943
135.86
135.698
135.435
135.048
134.507
133.781
132.832
131.616
130.083
128.176
125.828
122.966
119.506
115.363
110.448
104.682
98.0116
90.4247
81.9645
72.9669
134.59
134.599
134.619
134.646
134.672
134.689
134.688
134.658
134.588
134.464
134.268
133.984
133.589
133.061
132.373
131.493
130.387
129.016
127.335
125.295
122.841
119.915
116.457
112.405
107.708
102.326
96.2429
89.4807
82.0886
74.3391
133.61
133.609
133.606
133.596
133.574
133.532
133.463
133.354
133.196
132.973
132.671
132.271
131.754
131.098
130.276
129.262
128.023
126.524
124.729
122.595
120.08
117.14
113.732
109.817
105.368
100.37
94.8273
88.7753
82.2674
75.5312
132.607
132.596
132.569
132.524
132.455
132.357
132.222
132.038
131.795
131.48
131.078
130.572
129.943
129.171
128.232
127.102
125.752
124.153
122.273
120.081
117.542
114.626
111.304
107.554
103.364
98.7344
93.6833
88.2499
82.4871
76.5802
131.585
131.564
131.515
131.435
131.322
131.17
130.972
130.717
130.395
129.993
129.498
128.895
128.165
127.291
126.251
125.024
123.585
121.91
119.975
117.753
115.22
112.356
109.144
105.573
101.641
97.3588
92.7496
87.8526
82.716
77.4881
130.549
130.519
130.448
130.335
130.18
129.977
129.719
129.397
129.001
128.521
127.942
127.251
126.432
125.469
124.344
123.037
121.53
119.802
117.833
115.606
113.103
110.312
107.224
103.836
100.154
96.1922
91.9765
87.543
82.9335
78.2673
129.505
129.466
129.374
129.231
129.035
128.784
128.471
128.087
127.624
127.07
126.416
125.647
124.751
123.713
122.517
121.148
119.591
117.829
115.847
113.634
111.179
108.473
105.516
102.31
98.8633
95.1942
91.3268
87.2935
83.1302
78.9332
128.457
128.411
128.3
128.127
127.894
127.599
127.234
126.794
126.269
125.651
124.929
124.093
123.131
122.03
120.778
119.362
117.77
115.99
114.013
111.828
109.432
106.821
103.996
100.965
97.738
94.333
90.7728
87.0856
83.3017
79.4991
127.413
127.359
127.23
127.031
126.764
126.427
126.016
125.524
124.945
124.269
123.489
122.595
121.577
120.425
119.13
117.681
116.068
114.285
112.323
110.179
107.849
105.336
102.642
99.7763
96.7514
93.5836
90.2937
86.906
83.4462
79.9774
126.379
126.317
126.172
125.948
125.65
125.276
124.824
124.286
123.657
122.932
122.101
121.158
120.095
118.904
117.577
116.106
114.485
112.708
110.772
108.675
106.417
104.001
101.434
98.723
95.8821
92.9262
89.8739
86.7459
83.5637
80.379
125.361
125.293
125.133
124.887
124.56
124.153
123.663
123.085
122.414
121.645
120.773
119.79
118.691
117.47
116.12
114.637
113.017
111.256
109.353
107.308
105.123
102.803
100.354
97.7872
95.1128
92.3457
89.5018
86.5992
83.6557
80.7138
124.366
124.293
124.119
123.853
123.501
123.065
122.542
121.929
121.222
120.417
119.509
118.494
117.367
116.124
114.761
113.275
111.663
109.924
108.058
106.067
103.955
101.727
99.3902
96.9541
94.4298
91.83
89.169
86.462
83.7242
80.9905
123.402
123.323
123.138
122.854
122.48
122.018
121.467
120.824
120.086
119.251
118.315
117.275
116.127
114.87
113.501
112.018
110.419
108.707
106.881
104.945
102.904
100.762
98.5287
96.2118
93.8218
91.3702
88.8693
86.3322
83.7718
81.217
122.476
122.392
122.197
121.897
121.504
121.02
120.444
119.776
119.013
118.153
117.194
116.136
114.974
113.709
112.339
110.864
109.283
107.6
105.815
103.933
101.959
99.899
97.76
95.5506
93.2802
90.9592
88.5983
86.2087
83.8014
81.4005
121.595
121.507
121.303
120.99
120.58
120.077
119.481
118.791
118.007
117.128
116.153
115.081
113.91
112.642
111.276
109.812
108.252
106.599
104.855
103.025
101.115
99.1291
97.0758
94.9627
92.7984
90.592
88.353
86.0912
83.816
81.5474
120.767
120.676
120.464
120.139
119.715
119.196
118.583
117.877
117.076
116.182
115.194
114.113
112.938
111.67
110.311
108.861
107.323
105.701
103.997
102.216
100.364
98.4461
96.4699
94.4423
92.3713
90.265
88.1319
85.9804
83.8187
81.6637
120
119.907
119.687
119.353
118.917
118.385
117.758
117.038
116.224
115.319
114.322
113.235
112.059
110.795
109.444
108.01
106.495
104.902
103.236
101.5
99.7014
97.8448
95.9369
93.9846
91.995
89.9756
87.9337
85.8769
83.8124
81.7542
119.303
119.207
118.982
118.639
118.192
117.649
117.012
116.28
115.457
114.543
113.541
112.451
111.276
110.018
108.678
107.26
105.766
104.202
102.57
100.876
99.1244
97.3218
95.4739
93.587
91.6678
89.723
87.7591
85.783
83.8011
81.8251
118.684
118.585
118.355
118.004
117.549
116.997
116.35
115.61
114.78
113.861
112.855
111.765
110.592
109.34
108.011
106.609
105.136
103.597
101.996
100.339
98.6291
96.8734
95.0772
93.2463
91.3869
89.5052
87.6071
85.6988
83.7859
81.8783
118.152
118.051
117.814
117.456
116.994
116.435
115.782
115.036
114.2
113.277
112.27
111.18
110.012
108.766
107.448
106.06
104.606
103.09
101.516
99.8904
98.2168
96.5009
94.7482
92.9642
91.1548
89.3255
87.482
85.6297
83.7739
81.9231
117.718
117.612
117.369
117.003
116.534
115.969
115.31
114.559
113.719
112.794
111.786
110.699
109.534
108.296
106.987
105.612
104.174
102.677
101.127
99.5268
97.8826
96.1991
94.4817
92.7356
90.9663
89.1789
87.3787
85.5707
83.7599
81.9531
117.392
117.281
117.028
116.656
116.182
115.612
114.949
114.195
113.353
112.426
111.418
110.332
109.172
107.939
106.639
105.274
103.849
102.368
100.836
99.2568
97.6358
95.9779
94.2881
92.5715
90.8332
89.0784
87.3118
85.5384
83.7628
81.9911
117.19
117.055
116.785
116.407
115.931
115.359
114.693
113.937
113.094
112.167
111.16
110.077
108.919
107.691
106.397
105.04
103.624
102.155
100.635
99.0702
97.4649
95.8242
94.1528
92.4558
90.7381
89.0045
87.2598
85.5086
83.7553
82.0048
117.172
116.973
116.675
116.29
115.811
115.236
114.567
113.809
112.965
112.039
111.033
109.951
108.796
107.571
106.282
104.93
103.522
102.059
100.548
98.9929
97.398
95.7684
94.1089
92.4242
90.7194
88.999
87.2678
85.5302
83.7905
82.0529
-50.5705
-30.325
-11.1501
35.5988
28.1601
16.1391
51.0735
38.9845
27.7732
52.4998
42.0756
34.0313
56.8404
48.5512
41.793
61.2288
54.319
48.427
64.5033
58.6214
53.572
67.1008
62.0755
57.7662
69.2906
64.958
61.2491
71.1391
67.3602
64.1331
72.6934
69.3631
66.5262
74.0031
71.0407
68.5223
75.1086
72.4509
70.1949
76.0423
73.6393
71.6016
76.8306
74.6424
72.788
77.4954
75.4897
73.7905
78.055
76.2053
74.6382
78.5247
76.809
75.3547
78.9173
77.317
75.9596
79.244
77.7433
76.4691
79.5142
78.0994
76.8967
79.7367
78.3958
77.2543
79.918
78.6406
77.5513
80.0663
78.8428
77.7977
80.184
79.0058
77.9979
80.283
79.1422
78.1643
80.3546
79.2436
78.2905
80.4272
79.339
78.4031
80.4612
79.3893
78.4674
80.5303
79.4724
78.557
-2.80088
-2.69142
-1.22034
-0.0802623
-0.0483392
0.0453215
0.110261
0.0898045
0.105176
0.164477
0.174604
0.138601
0.119706
0.134288
0.146388
0.122054
0.0776117
0.048746
0.0538564
0.0757944
0.0811131
0.0535524
0.00262066
-0.0473996
-0.0687754
-0.0513996
-0.0177003
-0.000757075
-0.00322509
-0.00164377
2.37208
-0.56383
1.02235
0.492603
-0.836105
-0.603494
0.0208962
0.0672275
0.0823487
0.183641
0.16871
0.074579
0.0415618
0.104955
0.1685
0.137681
0.0617776
0.011941
0.026063
0.0767686
0.0998276
0.0651244
-0.00777648
-0.0814103
-0.112283
-0.080137
-0.019055
0.0103038
0.000764909
-0.00141916
13.5118
5.1399
2.35015
-0.0912062
-0.427651
0.954864
1.14205
-0.127147
-0.511465
-0.162821
0.186557
0.0843487
0.0271296
0.150557
0.2361
0.15553
0.0126578
-0.076585
-0.0379092
0.0818369
0.147422
0.0981643
-0.00982871
-0.120954
-0.170707
-0.120206
-0.0151528
0.0350856
0.0103745
-0.00127574
23.2762
13.3969
7.52736
3.75653
2.01731
1.45144
0.274857
-0.401436
-0.064927
1.10636
1.02955
-0.0521385
-0.442004
-0.248695
0.202263
0.248692
0.0123303
-0.138796
-0.0610719
0.152271
0.23547
0.138415
-0.0274359
-0.197142
-0.280488
-0.203937
-0.00575684
0.0837419
0.0316379
-0.00156475
32.4462
22.6787
15.3598
10.0697
6.43602
3.96553
2.10698
1.10425
0.826029
0.837522
0.334287
-0.253646
-0.347203
0.511344
1.05008
0.485336
-0.12267
-0.471196
-0.43048
0.0245941
0.323333
0.218348
-0.0189962
-0.256491
-0.374769
-0.228802
0.0335128
0.172514
0.0727574
-0.0030463
40.4248
31.4959
23.6081
17.1773
12.2541
8.61322
5.94555
4.0675
2.79896
1.89949
1.13326
0.538812
0.301231
0.54332
0.547134
0.297039
-0.17577
-0.493759
-0.240355
0.580914
0.764947
0.286319
-0.0673943
-0.396786
-0.632496
-0.567537
-0.00161003
0.300032
0.137655
-0.0081295
46.936
39.1277
31.35
24.4595
18.8365
14.3811
10.8631
8.11392
6.02169
4.45103
3.23103
2.26922
1.62022
1.28394
1.00722
0.663877
0.18828
-0.126453
-0.0162115
0.353943
0.484871
0.293043
-0.0405983
-0.423409
-0.681164
-0.4067
0.369793
0.568838
0.215528
-0.0211531
52.2389
45.505
38.2454
31.415
25.5337
20.5915
16.4552
13.0367
10.2698
8.05719
6.26946
4.82323
3.71536
2.91951
2.29697
1.69863
1.10714
0.690174
0.574581
0.65628
0.66804
0.452977
0.0807205
-0.295812
-0.496534
-0.29192
0.173714
0.406701
0.31112
-0.0621431
56.5646
50.7458
44.1597
37.6856
31.8686
26.7593
22.2931
18.4346
15.1544
12.3964
10.0841
8.15856
6.59
5.33726
4.30583
3.3989
2.60318
1.99112
1.61825
1.42024
1.21972
0.888238
0.469797
0.0916331
-0.109945
-0.0244468
0.249505
0.40106
0.26778
-0.301063
60.0946
55.0254
49.1214
43.1359
37.5828
32.5396
27.9776
23.8923
20.285
17.137
14.4109
12.068
10.0757
8.39529
6.96653
5.73057
4.66634
3.79434
3.13058
2.62808
2.17634
1.6917
1.19075
0.753809
0.470981
0.39742
0.460351
0.44312
0.179538
-0.516361
62.9937
58.5331
53.252
47.7833
42.5875
37.748
33.2518
29.1106
25.3451
21.9608
18.9455
16.2787
13.9378
11.8951
10.1136
8.55525
7.19751
6.03787
5.07262
4.26679
3.55342
2.87752
2.2376
1.67739
1.25053
0.980672
0.808959
0.587152
0.177978
-0.591971
65.3949
61.4305
56.6917
51.7125
46.8983
42.3277
37.9939
33.914
30.1175
26.6231
23.4344
20.5454
17.9452
15.6182
13.5423
11.6934
10.0529
8.61026
7.35452
6.25947
5.28298
4.38762
3.56426
2.83255
2.21944
1.72981
1.31669
0.878983
0.314064
-0.521602
67.3979
63.842
59.5664
55.0274
50.5815
46.2994
42.1749
38.2252
34.482
30.9698
27.7011
24.68
21.9049
19.3696
17.0629
14.9709
13.0802
11.38
9.85842
8.49576
7.26446
6.13865
5.10689
4.17421
3.34988
2.62866
1.97372
1.31595
0.583817
-0.33072
69.0779
65.8619
61.9801
57.8276
53.7202
49.7201
45.82
42.0344
38.3938
34.9245
31.6433
28.56
25.6794
23.0022
20.5248
18.2405
16.1415
14.2193
12.4639
10.8612
9.39258
8.03986
6.79165
5.64501
4.59904
3.6438
2.75068
1.8725
0.961974
-0.0552602
70.4928
67.5621
64.0155
60.1991
56.3952
52.6584
48.9794
45.3696
41.8566
38.4661
35.2165
32.1205
29.1869
26.4206
23.8234
21.3939
19.1284
17.0219
15.0673
13.2547
11.5718
10.0053
8.54507
7.18458
5.91787
4.73346
3.6091
2.51249
1.41305
0.264774
71.6878
68.9981
65.7377
62.2129
58.6777
55.1805
51.7103
48.2751
44.8992
41.6064
38.4151
35.3392
32.3895
29.5738
26.897
24.3614
21.9668
19.711
17.5901
15.5976
13.7251
11.9634
10.3036
8.73816
7.25922
5.85534
4.50901
3.19749
1.90049
0.593776
72.6986
70.2135
67.1982
63.926
60.6274
57.3454
54.0676
50.7989
47.5602
44.373
41.2549
38.2197
35.279
32.4421
29.7162
27.1056
24.6128
22.2382
19.9801
17.835
15.7975
13.8608
12.018
10.2615
8.58317
6.97237
5.41482
3.89356
2.39366
0.906045
73.5539
71.243
68.4381
65.385
62.2939
59.2034
56.1003
52.9866
49.88
46.7996
43.7615
40.779
37.8637
35.0256
32.2728
29.6113
27.0453
24.577
22.2068
19.9332
17.7531
15.6618
13.6537
11.7222
9.85943
8.05563
6.29865
4.57464
2.8707
1.18707
74.2771
72.1148
69.4908
66.6276
63.7179
60.7971
57.8509
54.8791
51.8965
48.9199
45.9637
43.0402
40.1606
37.3347
34.5713
31.8772
29.2577
26.7164
24.255
21.8738
19.5713
17.3444
15.1888
13.0988
11.067
9.08474
7.1409
5.22304
3.31837
1.43178
74.8876
72.8521
70.3837
67.6848
64.9335
62.162
59.3556
56.5123
53.6441
50.7657
47.8898
45.0276
42.1894
39.3848
36.6224
33.9095
31.2519
28.6542
26.1193
23.6484
21.2414
18.8965
16.6102
14.3778
12.1927
10.0466
7.92907
5.82816
3.73015
1.64149
75.4014
73.474
71.1394
68.5825
65.9688
63.328
60.6453
57.917
55.1528
52.3655
49.5662
46.7647
43.9705
41.1926
38.4392
35.7177
33.0342
30.3938
27.7999
25.2548
22.7591
20.3119
17.9108
15.5516
13.2283
10.933
8.65572
6.3842
4.10371
1.82037
75.8324
73.997
71.7769
69.3424
66.8478
64.3208
61.7465
59.1201
56.4492
53.7449
51.0168
48.2736
45.5237
42.7752
40.0361
37.3134
34.6132
31.9409
29.3003
26.6941
24.1237
21.5888
19.0875
16.6163
14.1696
11.7399
9.31709
6.88881
4.43932
1.97337
76.1917
74.4342
72.3119
69.9821
67.5898
65.1611
62.6811
60.1439
57.5557
54.9258
52.2626
49.5737
46.8664
44.1482
41.4263
38.7074
35.9976
33.3019
30.6246
27.9687
25.3358
22.7261
20.1384
17.5692
15.0136
12.464
9.91052
7.3404
4.73721
2.10394
76.4903
74.7983
72.7585
70.5177
68.2125
65.8679
63.4689
61.0088
58.4927
55.9284
53.3232
50.6836
48.016
45.3273
42.6238
39.9119
37.1974
34.4851
31.7794
29.0833
26.3987
23.7261
21.0645
18.4108
15.7602
13.1054
10.4363
7.73997
4.99958
2.21583
76.7343
75.0967
73.126
70.9597
68.7276
66.4537
64.1232
61.7288
59.2743
56.7666
54.2119
51.6159
48.9842
46.3227
43.6375
40.9342
38.2183
35.4945
32.767
30.0389
27.312
24.5872
21.8635
19.138
16.4061
13.6604
10.8909
8.08464
5.2244
2.30865
76.9356
75.3421
73.4281
71.3231
69.1512
66.9356
64.6618
62.322
59.919
57.4589
54.9471
52.3883
49.7878
47.1506
44.4822
41.788
39.0728
36.3414
33.5975
30.8442
28.0835
25.3161
22.5413
19.7562
16.9562
14.134
11.2796
8.37977
5.41728
2.38752
77.091
75.5323
73.6631
71.6067
69.4826
67.3134
65.0848
62.7887
60.4272
58.0055
55.5284
53.0003
50.4254
47.8086
45.1548
42.4689
39.7555
37.0189
34.2629
31.4904
28.7033
25.9024
23.0868
20.2538
17.3988
14.5145
11.5909
8.61452
5.56833
2.44545
77.2226
75.6896
73.8545
71.835
69.747
67.6129
65.4186
63.1557
60.8257
58.4333
55.983
53.4783
50.9235
48.3227
45.6804
43.0014
40.2898
37.5499
34.7852
31.9984
29.1916
26.3653
23.5186
20.6491
17.7518
14.8196
11.8422
8.80601
5.69384
2.49498
77.3036
75.7867
73.9739
71.9794
69.9159
67.8052
65.6338
63.3932
61.0843
58.7117
56.2793
53.7906
51.2493
48.6593
46.0251
43.3508
40.6408
37.8989
35.1285
32.3324
29.5124
26.6691
23.8017
20.9075
17.9816
15.0166
12.0022
8.92449
5.76615
2.51489
77.3925
75.8768
74.0762
72.0967
70.0469
67.9488
65.7895
63.5606
61.2627
58.9002
56.4768
53.9959
51.461
48.876
46.245
43.5724
40.8621
38.118
35.3435
32.5413
29.7132
26.8598
23.9802
21.0718
18.1297
15.1464
12.1111
9.00906
5.82046
2.52135
)
;

boundaryField
{
    inlet
    {
        type            zeroGradient;
    }
    outlet
    {
        type            fixedValue;
        value           uniform 0;
    }
    flap
    {
        type            zeroGradient;
    }
    upperWall
    {
        type            zeroGradient;
    }
    lowerWall
    {
        type            zeroGradient;
    }
    frontAndBack
    {
        type            empty;
    }
}


// ************************************************************************* //
