/*--------------------------------*- C++ -*----------------------------------*\
| =========                 |                                                 |
| \\      /  F ield         | OpenFOAM: The Open Source CFD Toolbox           |
|  \\    /   O peration     | Version:  2006                                  |
|   \\  /    A nd           | Website:  www.openfoam.com                      |
|    \\/     M anipulation  |                                                 |
\*---------------------------------------------------------------------------*/
FoamFile
{
    version     2.0;
    format      ascii;
    class       surfaceVectorField;
    location    "6.1";
    object      Uf;
}
// * * * * * * * * * * * * * * * * * * * * * * * * * * * * * * * * * * * * * //

dimensions      [0 1 -1 0 0 0 0];


internalField   nonuniform List<vector> 
5457
(
(9.92088 0.0251095 0)
(9.97125 0.0387456 0)
(9.82402 0.0328266 0)
(9.92859 0.0485848 0)
(9.70961 0.0393118 0)
(9.85548 0.0587677 0)
(9.57544 0.0460113 0)
(9.7568 0.0705928 0)
(9.42138 0.0529486 0)
(9.63754 0.0830128 0)
(9.24755 0.0601659 0)
(9.49862 0.0959359 0)
(9.05363 0.0678106 0)
(9.33931 0.109612 0)
(8.83893 0.0760343 0)
(9.15875 0.124288 0)
(8.60253 0.0849701 0)
(8.9561 0.140167 0)
(8.34327 0.0947448 0)
(8.73039 0.157433 0)
(8.05986 0.105487 0)
(8.48042 0.17627 0)
(7.75081 0.117328 0)
(8.20478 0.196858 0)
(7.41457 0.130396 0)
(7.90196 0.219363 0)
(7.04951 0.144811 0)
(7.57032 0.243925 0)
(6.65404 0.160674 0)
(7.2082 0.270635 0)
(6.22672 0.178046 0)
(6.814 0.299504 0)
(5.76643 0.19693 0)
(6.38634 0.330418 0)
(5.27258 0.217236 0)
(5.92418 0.363088 0)
(4.74538 0.238739 0)
(5.42711 0.396981 0)
(4.1862 0.261035 0)
(4.89566 0.431242 0)
(3.59797 0.283491 0)
(4.33165 0.464624 0)
(2.98556 0.305205 0)
(3.73861 0.495429 0)
(2.35612 0.325071 0)
(3.12228 0.521516 0)
(1.71911 0.34255 0)
(2.49107 0.54056 0)
(1.08435 0.361883 0)
(1.85586 0.551675 0)
(0.451835 0.348683 0)
(1.24548 0.563022 0)
(-0.145839 0.102464 0)
(0.608915 0.54488 0)
(-0.423621 -0.207096 0)
(0.0946637 0.25937 0)
(-0.402156 -0.361259 0)
(-0.133672 -0.0205264 0)
(-0.119681 -0.393887 0)
(9.99641 0.051672 0)
(9.99705 0.0405042 0)
(9.95879 0.0708609 0)
(9.97851 0.0674538 0)
(9.89824 0.087986 0)
(9.93378 0.089869 0)
(9.81659 0.105984 0)
(9.86453 0.113554 0)
(9.71359 0.124921 0)
(9.77438 0.138513 0)
(9.58909 0.144853 0)
(9.66436 0.164645 0)
(9.44275 0.166089 0)
(9.53398 0.192331 0)
(9.27391 0.188966 0)
(9.3825 0.22203 0)
(9.08167 0.213783 0)
(9.2092 0.254148 0)
(8.86491 0.240816 0)
(9.01317 0.289064 0)
(8.62231 0.270338 0)
(8.79332 0.327153 0)
(8.3524 0.302609 0)
(8.54837 0.368788 0)
(8.05357 0.33786 0)
(8.27684 0.414319 0)
(7.72413 0.376266 0)
(7.97718 0.46405 0)
(7.36238 0.417907 0)
(7.64772 0.518194 0)
(6.96673 0.462713 0)
(7.28683 0.576813 0)
(6.53584 0.510392 0)
(6.89296 0.639733 0)
(6.06883 0.560339 0)
(6.46482 0.706436 0)
(5.56559 0.611527 0)
(6.0016 0.775918 0)
(5.0271 0.662391 0)
(5.50326 0.846533 0)
(4.45588 0.710714 0)
(4.97089 0.915815 0)
(3.85649 0.753545 0)
(4.40718 0.980314 0)
(3.23619 0.7872 0)
(3.81704 1.03546 0)
(2.60581 0.807504 0)
(3.20846 1.07549 0)
(1.98279 0.810468 0)
(2.59339 1.09315 0)
(1.40528 0.776897 0)
(1.9962 1.07708 0)
(0.929749 0.6464 0)
(1.41949 0.978408 0)
(0.439853 0.384337 0)
(0.937571 0.716796 0)
(0.0591707 -0.118616 0)
(0.443789 0.343522 0)
(0.17492 -0.335933 0)
(9.98903 0.0594302 0)
(9.99481 0.0458769 0)
(9.95434 0.0894755 0)
(9.97368 0.0848532 0)
(9.8973 0.11803 0)
(9.92984 0.119172 0)
(9.82047 0.147897 0)
(9.86357 0.153974 0)
(9.72417 0.17942 0)
(9.77736 0.190406 0)
(9.60822 0.212774 0)
(9.67227 0.228635 0)
(9.47235 0.248391 0)
(9.5481 0.269127 0)
(9.31608 0.286773 0)
(9.40432 0.312495 0)
(9.13869 0.328396 0)
(9.24035 0.359324 0)
(8.93925 0.373721 0)
(9.0555 0.410173 0)
(8.71665 0.423206 0)
(8.8489 0.465598 0)
(8.46961 0.477296 0)
(8.61952 0.526153 0)
(8.19669 0.5364 0)
(8.36616 0.592373 0)
(7.89633 0.600844 0)
(8.08753 0.664739 0)
(7.56692 0.670813 0)
(7.7822 0.74362 0)
(7.20684 0.746259 0)
(7.44874 0.829193 0)
(6.81457 0.826786 0)
(7.08569 0.921323 0)
(6.38888 0.911487 0)
(6.69171 1.01941 0)
(5.92904 0.998763 0)
(6.26572 1.12218 0)
(5.43514 1.0861 0)
(5.80712 1.22743 0)
(4.90855 1.16983 0)
(5.31608 1.33175 0)
(4.35243 1.2449 0)
(4.79398 1.4302 0)
(3.77259 1.30455 0)
(4.24397 1.51588 0)
(3.17873 1.33984 0)
(3.67181 1.57943 0)
(2.58663 1.33812 0)
(3.08632 1.60775 0)
(2.01986 1.27297 0)
(2.50293 1.58158 0)
(1.48695 1.09541 0)
(1.92874 1.46425 0)
(0.958299 0.769171 0)
(1.38525 1.2104 0)
(0.479879 0.202451 0)
(0.829544 0.801038 0)
(0.433731 0.134079 0)
(9.98515 0.0716129 0)
(9.99367 0.0531471 0)
(9.95039 0.113629 0)
(9.97088 0.102289 0)
(9.89437 0.154131 0)
(9.92691 0.147952 0)
(9.81882 0.195571 0)
(9.86185 0.193719 0)
(9.72442 0.238809 0)
(9.77746 0.241275 0)
(9.61113 0.284322 0)
(9.67467 0.291161 0)
(9.47875 0.332718 0)
(9.55343 0.343953 0)
(9.32695 0.384672 0)
(9.41336 0.400369 0)
(9.15524 0.440845 0)
(9.25401 0.461137 0)
(8.96292 0.501882 0)
(9.07485 0.526959 0)
(8.74917 0.568427 0)
(8.87521 0.598535 0)
(8.51305 0.641112 0)
(8.65431 0.676562 0)
(8.25347 0.720531 0)
(8.41123 0.761721 0)
(7.96927 0.807192 0)
(8.14501 0.854638 0)
(7.65918 0.90144 0)
(7.85455 0.955822 0)
(7.32193 1.00335 0)
(7.53876 1.06557 0)
(6.95621 1.11258 0)
(7.19647 1.18385 0)
(6.56085 1.22814 0)
(6.82653 1.31009 0)
(6.13489 1.34817 0)
(6.42789 1.44292 0)
(5.67785 1.4696 0)
(5.99967 1.57991 0)
(5.19 1.58778 0)
(5.54134 1.71709 0)
(4.67287 1.69603 0)
(5.05306 1.84854 0)
(4.1298 1.78515 0)
(4.53596 1.96584 0)
(3.56666 1.84253 0)
(3.99273 2.05731 0)
(2.99205 1.85073 0)
(3.4276 2.10714 0)
(2.41585 1.78249 0)
(2.84764 2.09448 0)
(1.84055 1.60045 0)
(2.25623 1.98873 0)
(1.25939 1.27843 0)
(1.66032 1.75304 0)
(0.666776 0.789536 0)
(1.02397 1.36776 0)
(0.523037 0.787144 0)
(9.98337 0.0844061 0)
(9.99316 0.0612904 0)
(9.94821 0.136835 0)
(9.96959 0.119925 0)
(9.89315 0.188029 0)
(9.92575 0.176237 0)
(9.81907 0.240166 0)
(9.862 0.232695 0)
(9.72663 0.294464 0)
(9.77964 0.291083 0)
(9.6159 0.351655 0)
(9.6794 0.35227 0)
(9.48672 0.412466 0)
(9.56128 0.416973 0)
(9.33879 0.477672 0)
(9.42497 0.486004 0)
(9.17172 0.548047 0)
(9.2701 0.5602 0)
(8.98493 0.624351 0)
(9.09621 0.640383 0)
(8.77779 0.707341 0)
(8.90275 0.727364 0)
(8.54954 0.797762 0)
(8.68908 0.821954 0)
(8.29936 0.896325 0)
(8.45445 0.92494 0)
(8.02635 1.00365 0)
(8.19808 1.03706 0)
(7.72958 1.12021 0)
(7.91913 1.15892 0)
(7.40806 1.24617 0)
(7.6167 1.29093 0)
(7.06077 1.38128 0)
(7.28986 1.43315 0)
(6.6867 1.52459 0)
(6.93763 1.58511 0)
(6.28485 1.67419 0)
(6.55899 1.74551 0)
(5.85438 1.8268 0)
(6.15287 1.91189 0)
(5.39471 1.97726 0)
(5.71822 2.08017 0)
(4.90575 2.11806 0)
(5.25407 2.2441 0)
(4.38825 2.23861 0)
(4.75973 2.39461 0)
(3.84394 2.32455 0)
(4.23495 2.5192 0)
(3.27543 2.35695 0)
(3.67989 2.60124 0)
(2.68539 2.31059 0)
(3.09572 2.6197 0)
(2.07269 2.155 0)
(2.48169 2.54732 0)
(1.42938 1.86739 0)
(1.83992 2.35371 0)
(0.742612 1.41956 0)
(1.13136 2.02452 0)
(0.543306 1.51449 0)
(9.98264 0.097496 0)
(9.99299 0.0697915 0)
(9.94744 0.159772 0)
(9.96925 0.137581 0)
(9.89354 0.221344 0)
(9.92597 0.203923 0)
(9.82134 0.284088 0)
(9.86381 0.270684 0)
(9.73134 0.349343 0)
(9.78386 0.339577 0)
(9.62367 0.418013 0)
(9.68665 0.411691 0)
(9.4982 0.490933 0)
(9.57219 0.487897 0)
(9.35466 0.568969 0)
(9.44022 0.569098 0)
(9.1927 0.652999 0)
(9.29044 0.656228 0)
(9.01184 0.743893 0)
(9.12243 0.750208 0)
(8.81152 0.842513 0)
(8.93572 0.851952 0)
(8.5911 0.949707 0)
(8.72974 0.962363 0)
(8.34986 1.06628 0)
(8.50383 1.08232 0)
(8.08707 1.19296 0)
(8.25729 1.21265 0)
(7.80193 1.33031 0)
(7.98938 1.35405 0)
(7.4936 1.4786 0)
(7.6993 1.50703 0)
(7.16119 1.63769 0)
(7.38617 1.67177 0)
(6.80372 1.80676 0)
(7.04903 1.84793 0)
(6.42011 1.98398 0)
(6.68675 2.03437 0)
(6.00912 2.16615 0)
(6.29801 2.22885 0)
(5.5694 2.34812 0)
(5.88119 2.42749 0)
(5.09946 2.52222 0)
(5.43433 2.62427 0)
(4.59774 2.67757 0)
(4.95511 2.8103 0)
(4.06269 2.7995 0)
(4.44084 2.97323 0)
(3.49269 2.86911 0)
(3.88851 3.09663 0)
(2.88582 2.86292 0)
(3.29522 3.1599 0)
(2.23801 2.75392 0)
(2.65689 3.1379 0)
(1.54244 2.52102 0)
(1.97483 3.00318 0)
(0.793646 2.13133 0)
(1.20724 2.74059 0)
(0.556734 2.29181 0)
(9.9825 0.110624 0)
(9.99302 0.0783599 0)
(9.94771 0.182321 0)
(9.96954 0.155034 0)
(9.89523 0.253813 0)
(9.92722 0.230881 0)
(9.82524 0.326761 0)
(9.86697 0.307503 0)
(9.73814 0.402549 0)
(9.78978 0.386516 0)
(9.63404 0.482227 0)
(9.69606 0.469141 0)
(9.51286 0.56675 0)
(9.5858 0.55639 0)
(9.37439 0.657086 0)
(9.45881 0.649263 0)
(9.21829 0.754206 0)
(9.31482 0.74878 0)
(9.04415 0.859079 0)
(9.15348 0.855956 0)
(8.85146 0.972658 0)
(8.97435 0.971795 0)
(8.63964 1.09588 0)
(8.77692 1.09729 0)
(8.40804 1.22964 0)
(8.56059 1.23342 0)
(8.15596 1.37475 0)
(8.32471 1.38108 0)
(7.88265 1.53187 0)
(8.06854 1.54108 0)
(7.58728 1.70139 0)
(7.79126 1.71406 0)
(7.2689 1.88331 0)
(7.49197 1.90032 0)
(6.92643 2.07699 0)
(7.16955 2.09972 0)
(6.55851 2.28087 0)
(6.82266 2.31141 0)
(6.16347 2.49207 0)
(6.44959 2.53351 0)
(5.73912 2.70585 0)
(6.04809 2.76267 0)
(5.28272 2.91501 0)
(5.61524 2.99349 0)
(4.79082 3.10917 0)
(5.14723 3.21787 0)
(4.25929 3.27421 0)
(4.63937 3.42429 0)
(3.68338 3.39186 0)
(4.08604 3.59716 0)
(3.05804 3.43968 0)
(3.4813 3.71654 0)
(2.37772 3.39179 0)
(2.81835 3.75812 0)
(1.6379 3.22616 0)
(2.09915 3.69397 0)
(0.839127 2.90083 0)
(1.27891 3.50446 0)
(0.573356 3.11369 0)
(9.98273 0.123579 0)
(9.99316 0.0868156 0)
(9.94873 0.204305 0)
(9.97027 0.172089 0)
(9.89794 0.285247 0)
(9.92927 0.25697 0)
(9.83051 0.367959 0)
(9.87124 0.342981 0)
(9.74671 0.453844 0)
(9.79716 0.43167 0)
(9.64669 0.544069 0)
(9.70735 0.524342 0)
(9.53039 0.639699 0)
(9.60181 0.622126 0)
(9.39763 0.741791 0)
(9.48039 0.726117 0)
(9.24814 0.851407 0)
(9.34287 0.837416 0)
(9.08154 0.9696 0)
(9.18895 0.957124 0)
(8.89738 1.09742 0)
(9.01826 1.08633 0)
(8.69511 1.23588 0)
(8.83031 1.22613 0)
(8.47414 1.38598 0)
(8.62456 1.37758 0)
(8.23378 1.54863 0)
(8.40038 1.54168 0)
(7.97324 1.72461 0)
(8.15703 1.71938 0)
(7.69162 1.91445 0)
(7.89365 1.91144 0)
(7.38786 2.11836 0)
(7.60921 2.11837 0)
(7.06063 2.33598 0)
(7.30243 2.34031 0)
(6.70821 2.56614 0)
(6.97166 2.57678 0)
(6.32837 2.8065 0)
(6.61472 2.82645 0)
(5.9181 3.05307 0)
(6.22872 3.08672 0)
(5.47345 3.29955 0)
(5.80974 3.3532 0)
(4.9893 3.53667 0)
(5.35265 3.619 0)
(4.45933 3.75143 0)
(4.85087 3.87401 0)
(3.87621 3.92647 0)
(4.29641 4.10395 0)
(3.23231 4.03985 0)
(3.68053 4.28969 0)
(2.52082 4.06498 0)
(2.99349 4.40677 0)
(1.73836 3.97612 0)
(2.23736 4.42456 0)
(0.889466 3.71873 0)
(1.36335 4.31627 0)
(0.598747 3.98486 0)
(9.98321 0.136201 0)
(9.99339 0.0950383 0)
(9.95032 0.225567 0)
(9.97131 0.188585 0)
(9.90151 0.31549 0)
(9.93193 0.282043 0)
(9.83694 0.407495 0)
(9.87644 0.376952 0)
(9.75684 0.503003 0)
(9.8058 0.474831 0)
(9.66136 0.603267 0)
(9.72031 0.57704 0)
(9.55047 0.709449 0)
(9.61997 0.684804 0)
(9.42405 0.822691 0)
(9.50466 0.799305 0)
(9.28185 0.944136 0)
(9.37424 0.921723 0)
(9.12358 1.07492 0)
(9.22845 1.05324 0)
(8.94881 1.21618 0)
(9.06697 1.19503 0)
(8.75707 1.36904 0)
(8.8894 1.34827 0)
(8.54778 1.53458 0)
(8.69522 1.51411 0)
(8.32027 1.71384 0)
(8.48384 1.6937 0)
(8.07372 1.90774 0)
(8.25453 1.8881 0)
(7.80715 2.11703 0)
(8.00638 2.09827 0)
(7.51934 2.34217 0)
(7.73827 2.32498 0)
(7.2087 2.58317 0)
(7.44875 2.5687 0)
(6.87312 2.83941 0)
(7.13587 2.82947 0)
(6.50978 3.10929 0)
(6.79703 3.10666 0)
(6.11489 3.38983 0)
(6.42869 3.39864 0)
(5.68332 3.67605 0)
(6.02605 3.70233 0)
(5.20838 3.96023 0)
(5.58268 4.01251 0)
(4.68164 4.231 0)
(5.09021 4.32099 0)
(4.09317 4.47232 0)
(4.53815 4.6154 0)
(3.43239 4.66254 0)
(3.91457 4.87787 0)
(2.69002 4.77313 0)
(3.20555 5.08356 0)
(1.86176 4.77236 0)
(2.41116 5.19792 0)
(0.954133 4.58966 0)
(1.4762 5.18424 0)
(0.639154 4.91938 0)
(9.98386 0.148366 0)
(9.99368 0.102941 0)
(9.95235 0.245965 0)
(9.97261 0.20439 0)
(9.90579 0.344392 0)
(9.9351 0.305963 0)
(9.84438 0.44519 0)
(9.88241 0.409262 0)
(9.76834 0.549801 0)
(9.81552 0.515806 0)
(9.67781 0.659548 0)
(9.73472 0.627 0)
(9.57282 0.775676 0)
(9.64 0.744146 0)
(9.45329 0.899406 0)
(9.53131 0.868504 0)
(9.31903 1.03196 0)
(9.40855 1.00132 0)
(9.1698 1.17454 0)
(9.27153 1.14386 0)
(9.00524 1.32839 0)
(9.12001 1.29737 0)
(8.82494 1.49471 0)
(8.95363 1.46312 0)
(8.62837 1.6747 0)
(8.77196 1.64236 0)
(8.41487 1.86954 0)
(8.57445 1.83636 0)
(8.18363 2.08033 0)
(8.3604 2.04635 0)
(7.93363 2.30806 0)
(8.12892 2.2735 0)
(7.6635 2.55352 0)
(7.87883 2.51889 0)
(7.37145 2.8172 0)
(7.60856 2.78341 0)
(7.05507 3.09914 0)
(7.316 3.06771 0)
(6.71102 3.39868 0)
(6.99821 3.37199 0)
(6.3348 3.71411 0)
(6.65119 3.69581 0)
(5.92023 4.04213 0)
(6.26939 4.0377 0)
(5.45913 4.37709 0)
(5.84527 4.39455 0)
(4.9409 4.70991 0)
(5.36873 4.76075 0)
(4.35254 5.02654 0)
(4.82661 5.12676 0)
(3.67939 5.30616 0)
(4.20297 5.47706 0)
(2.90732 5.51812 0)
(3.47768 5.78743 0)
(2.0275 5.62292 0)
(2.64482 6.01942 0)
(1.04501 5.52934 0)
(1.63756 6.1238 0)
(0.704397 5.94291 0)
(9.98465 0.159978 0)
(9.99402 0.11046 0)
(9.95473 0.265376 0)
(9.97409 0.219395 0)
(9.91065 0.371813 0)
(9.93868 0.328605 0)
(9.85267 0.480875 0)
(9.88905 0.439767 0)
(9.78101 0.594034 0)
(9.82619 0.554423 0)
(9.69582 0.712669 0)
(9.75039 0.674013 0)
(9.59717 0.838095 0)
(9.66168 0.799904 0)
(9.48504 0.971603 0)
(9.56004 0.933421 0)
(9.35929 1.11448 0)
(9.44545 1.07588 0)
(9.21975 1.26801 0)
(9.31778 1.2286 0)
(9.06615 1.43351 0)
(9.17686 1.3929 0)
(8.89813 1.61227 0)
(9.02243 1.57014 0)
(8.71524 1.80563 0)
(8.85412 1.76168 0)
(8.51688 2.01489 0)
(8.67148 1.9689 0)
(8.30228 2.24136 0)
(8.47388 2.19321 0)
(8.07042 2.48631 0)
(8.26047 2.43601 0)
(7.81991 2.75091 0)
(8.03014 2.69872 0)
(7.54885 3.03621 0)
(7.78132 2.98269 0)
(7.25465 3.343 0)
(7.51185 3.28924 0)
(6.93369 3.67174 0)
(7.21869 3.61952 0)
(6.58093 4.02221 0)
(6.89763 3.97444 0)
(6.18945 4.39319 0)
(6.54272 4.3544 0)
(5.74973 4.78167 0)
(6.14568 4.75887 0)
(5.24905 5.18178 0)
(5.69501 5.18563 0)
(4.67083 5.58285 0)
(5.17497 5.62929 0)
(3.99476 5.96656 0)
(4.56493 6.07885 0)
(3.19825 6.30167 0)
(3.83613 6.51359 0)
(2.26161 6.54057 0)
(2.9706 6.89398 0)
(1.1805 6.56492 0)
(1.87894 7.15767 0)
(0.812699 7.09913 0)
(9.98554 0.170959 0)
(9.9944 0.117544 0)
(9.95739 0.283692 0)
(9.97572 0.233514 0)
(9.91601 0.397627 0)
(9.94259 0.349861 0)
(9.8617 0.514401 0)
(9.89624 0.468341 0)
(9.79469 0.635523 0)
(9.83765 0.590528 0)
(9.71518 0.762415 0)
(9.76714 0.717896 0)
(9.62326 0.896453 0)
(9.68477 0.85186 0)
(9.51896 1.03899 0)
(9.59057 0.993803 0)
(9.40223 1.19136 0)
(9.48458 1.14509 0)
(9.27296 1.35493 0)
(9.36676 1.3071 0)
(9.13096 1.53107 0)
(9.23701 1.48122 0)
(8.97599 1.72118 0)
(9.09517 1.66886 0)
(8.80766 1.92669 0)
(8.94099 1.87149 0)
(8.62549 2.14908 0)
(8.77411 2.09062 0)
(8.4288 2.38984 0)
(8.59404 2.32781 0)
(8.21664 2.65052 0)
(8.40005 2.58471 0)
(7.98772 2.93273 0)
(8.19117 2.86305 0)
(7.7402 3.23807 0)
(7.96597 3.16467 0)
(7.47151 3.5682 0)
(7.72246 3.49157 0)
(7.178 3.92473 0)
(7.45777 3.84587 0)
(6.85455 4.30918 0)
(7.16784 4.22992 0)
(6.49388 4.7227 0)
(6.84687 4.64617 0)
(6.08572 5.16559 0)
(6.48649 5.09705 0)
(5.61562 5.63636 0)
(6.07467 5.58454 0)
(5.06351 6.12986 0)
(5.59396 6.10914 0)
(4.40208 6.63377 0)
(5.01948 6.66761 0)
(3.59594 7.12114 0)
(4.31235 7.24852 0)
(2.60411 7.54045 0)
(3.43541 7.82007 0)
(1.39414 7.74015 0)
(2.25619 8.31477 0)
(1.00245 8.46461 0)
(9.9865 0.181248 0)
(9.9948 0.124153 0)
(9.96027 0.300825 0)
(9.97747 0.246674 0)
(9.92177 0.421723 0)
(9.94676 0.369637 0)
(9.87134 0.545638 0)
(9.90388 0.494874 0)
(9.80924 0.674108 0)
(9.84978 0.62399 0)
(9.73569 0.808598 0)
(9.78479 0.75849 0)
(9.65082 0.950527 0)
(9.70904 0.899828 0)
(9.55473 1.10129 0)
(9.6226 1.04943 0)
(9.44745 1.26229 0)
(9.52557 1.2087 0)
(9.32893 1.43493 0)
(9.41801 1.37907 0)
(9.19911 1.62065 0)
(9.29991 1.56196 0)
(9.05783 1.82093 0)
(9.17122 1.75886 0)
(8.90484 2.03728 0)
(9.0318 1.9713 0)
(8.73978 2.27134 0)
(8.88145 2.2009 0)
(8.56214 2.52479 0)
(8.71984 2.44938 0)
(8.37114 2.79945 0)
(8.54646 2.71858 0)
(8.16568 3.09731 0)
(8.36054 3.01054 0)
(7.94418 3.42056 0)
(8.16098 3.32753 0)
(7.70434 3.77166 0)
(7.94613 3.67217 0)
(7.44287 4.15345 0)
(7.71363 4.04752 0)
(7.15504 4.56917 0)
(7.46004 4.45727 0)
(6.83395 5.02255 0)
(7.18032 4.90592 0)
(6.46955 5.51772 0)
(6.86709 5.39897 0)
(6.04698 6.0588 0)
(6.5093 5.94314 0)
(5.54397 6.64882 0)
(6.08998 6.5463 0)
(4.92691 7.28704 0)
(5.58298 7.21688 0)
(4.14476 7.96137 0)
(4.94226 7.96158 0)
(3.12146 8.63335 0)
(4.10893 8.77555 0)
(1.756 9.1274 0)
(2.87802 9.62057 0)
(1.36444 10.1845 0)
(9.98754 0.190794 0)
(9.99523 0.130257 0)
(9.96333 0.316699 0)
(9.97932 0.258817 0)
(9.92786 0.444011 0)
(9.95115 0.387858 0)
(9.88148 0.574475 0)
(9.91188 0.519272 0)
(9.82449 0.709663 0)
(9.86244 0.654698 0)
(9.75713 0.851068 0)
(9.80318 0.795665 0)
(9.6796 1.00014 0)
(9.73426 0.943656 0)
(9.59203 1.15833 0)
(9.65584 1.10012 0)
(9.49453 1.32705 0)
(9.56807 1.26651 0)
(9.38718 1.50776 0)
(9.4711 1.44426 0)
(9.26999 1.70194 0)
(9.36502 1.63484 0)
(9.14293 1.91113 0)
(9.2499 1.83979 0)
(9.00591 2.13693 0)
(9.12575 2.06069 0)
(8.85874 2.38108 0)
(8.99255 2.29924 0)
(8.70112 2.64543 0)
(8.85015 2.55725 0)
(8.53252 2.93203 0)
(8.69832 2.83675 0)
(8.35216 3.2432 0)
(8.53662 3.14 0)
(8.15889 3.58163 0)
(8.36436 3.46963 0)
(7.95096 3.95049 0)
(8.18048 3.82874 0)
(7.72581 4.35369 0)
(7.98338 4.22115 0)
(7.47971 4.79606 0)
(7.77071 4.65166 0)
(7.20709 5.28381 0)
(7.53897 5.12647 0)
(6.89955 5.8249 0)
(7.28292 5.65378 0)
(6.54414 6.42969 0)
(6.99456 6.24473 0)
(6.1201 7.11158 0)
(6.66117 6.91484 0)
(5.5927 7.88771 0)
(6.26217 7.68634 0)
(4.90044 8.77788 0)
(5.75712 8.5927 0)
(3.92633 9.80129 0)
(5.0867 9.68509 0)
(2.43271 10.856 0)
(3.9787 11.0489 0)
(2.14562 12.5672 0)
(9.98862 0.199557 0)
(9.99567 0.135832 0)
(9.96652 0.331253 0)
(9.98124 0.269898 0)
(9.9342 0.464406 0)
(9.95571 0.404461 0)
(9.89203 0.600806 0)
(9.92017 0.541461 0)
(9.84031 0.742049 0)
(9.87553 0.682565 0)
(9.77933 0.88965 0)
(9.82217 0.829319 0)
(9.70933 1.04509 0)
(9.76029 0.983221 0)
(9.63052 1.20983 0)
(9.69011 1.14575 0)
(9.54309 1.38532 0)
(9.61187 1.31835 0)
(9.4472 1.57303 0)
(9.52579 1.50249 0)
(9.34298 1.77449 0)
(9.43209 1.69966 0)
(9.23055 1.99125 0)
(9.33095 1.91141 0)
(9.10998 2.225 0)
(9.22256 2.13935 0)
(8.98129 2.47753 0)
(9.10707 2.38522 0)
(8.84441 2.7508 0)
(8.9846 2.65092 0)
(8.69917 3.04705 0)
(8.8552 2.93855 0)
(8.5452 3.36882 0)
(8.71883 3.25053 0)
(8.3819 3.71916 0)
(8.57534 3.58969 0)
(8.20832 4.10176 0)
(8.42438 3.95945 0)
(8.023 4.5213 0)
(8.26539 4.36408 0)
(7.82374 4.9838 0)
(8.09744 4.80905 0)
(7.60726 5.49733 0)
(7.91919 5.3016 0)
(7.36852 6.07293 0)
(7.72865 5.85158 0)
(7.0996 6.72624 0)
(7.52293 6.47294 0)
(6.78732 7.48046 0)
(7.29779 7.18624 0)
(6.40813 8.3723 0)
(7.04774 8.02387 0)
(5.91498 9.46617 0)
(6.76254 9.04228 0)
(5.19528 10.9083 0)
(6.46117 10.3571 0)
(3.88346 13.1778 0)
(6.18836 12.3034 0)
(5.25653 16.3708 0)
(0.185795 -0.109591 0)
(0.108967 -0.181975 0)
(0.360756 -0.091853 0)
(0.2646 -0.167316 0)
(0.502665 -0.0688594 0)
(0.417732 -0.132503 0)
(0.611268 -0.0485791 0)
(0.544786 -0.0990098 0)
(0.691477 -0.0323851 0)
(0.642089 -0.0713967 0)
(0.748772 -0.0199791 0)
(0.714466 -0.0497951 0)
(0.788114 -0.0107553 0)
(0.767763 -0.0333855 0)
(0.813801 -0.00412503 0)
(0.806816 -0.0212826 0)
(0.829459 0.000439083 0)
(0.835368 -0.012667 0)
(0.838058 0.0034013 0)
(0.856364 -0.00679211 0)
(0.84195 0.00515644 0)
(0.872121 -0.00300182 0)
(0.842966 0.00601338 0)
(0.884415 -0.000765109 0)
(0.842481 0.00620135 0)
(0.894562 0.000356531 0)
(0.841423 0.00594144 0)
(0.903521 0.000760065 0)
(0.840581 0.00543144 0)
(0.911998 0.00058971 0)
(0.840415 0.00481811 0)
(0.920493 0.000113515 0)
(0.841128 0.00423046 0)
(0.9293 -0.000475942 0)
(0.842614 0.0037718 0)
(0.938513 -0.000969847 0)
(0.844538 0.00352357 0)
(0.948039 -0.00122542 0)
(0.84638 0.00353898 0)
(0.957622 -0.0011458 0)
(0.847552 0.00380772 0)
(0.966887 -0.000711382 0)
(0.847593 0.00421357 0)
(0.975401 -2.43271e-05 0)
(0.846047 0.00464765 0)
(0.982742 0.000895105 0)
(0.84276 0.00506329 0)
(0.98859 0.00185752 0)
(0.837675 0.00542148 0)
(0.992798 0.00280665 0)
(0.830789 0.00569159 0)
(0.995327 0.00371067 0)
(0.822174 0.00586451 0)
(0.996213 0.00453225 0)
(0.811847 0.00584209 0)
(0.995216 0.00530525 0)
(0.800699 0.00508075 0)
(0.992583 0.00559112 0)
(0.988944 0.00421391 0)
(0.172154 -0.263419 0)
(0.0910234 -0.350589 0)
(0.335921 -0.22799 0)
(0.235377 -0.323928 0)
(0.471958 -0.177937 0)
(0.369578 -0.259524 0)
(0.580255 -0.132998 0)
(0.482212 -0.197741 0)
(0.665408 -0.0968351 0)
(0.570468 -0.147194 0)
(0.732222 -0.0689262 0)
(0.638928 -0.107864 0)
(0.784861 -0.0479628 0)
(0.692452 -0.0780544 0)
(0.826793 -0.0326496 0)
(0.734896 -0.0560253 0)
(0.860843 -0.0218183 0)
(0.76921 -0.0402121 0)
(0.889235 -0.0144387 0)
(0.797678 -0.029218 0)
(0.913648 -0.00964042 0)
(0.822049 -0.0218294 0)
(0.935292 -0.00673978 0)
(0.843592 -0.0170631 0)
(0.955051 -0.00522341 0)
(0.863183 -0.014171 0)
(0.973661 -0.00467247 0)
(0.881449 -0.0125988 0)
(0.991577 -0.00473726 0)
(0.898873 -0.0119673 0)
(1.00914 -0.0051286 0)
(0.915776 -0.0119034 0)
(1.02653 -0.00559177 0)
(0.932365 -0.0120973 0)
(1.04385 -0.00591275 0)
(0.948773 -0.0122726 0)
(1.06109 -0.00592144 0)
(0.96504 -0.0122068 0)
(1.07813 -0.0055066 0)
(0.981125 -0.0117444 0)
(1.09476 -0.00464577 0)
(0.99691 -0.01081 0)
(1.11057 -0.00342715 0)
(1.01222 -0.00939817 0)
(1.12523 -0.00198375 0)
(1.02676 -0.00758801 0)
(1.1385 -0.000438381 0)
(1.04035 -0.00564234 0)
(1.15032 0.00113035 0)
(1.05295 -0.00372012 0)
(1.16063 0.00273916 0)
(1.06457 -0.00184195 0)
(1.16925 0.00426779 0)
(1.0752 -2.82067e-06 0)
(1.17579 0.00535268 0)
(1.08476 0.00194413 0)
(1.18091 0.00526404 0)
(1.09299 0.00302212 0)
(1.10134 0.00269905 0)
(0.145686 -0.417496 0)
(0.0711001 -0.493279 0)
(0.279913 -0.362351 0)
(0.192457 -0.45229 0)
(0.389474 -0.285744 0)
(0.294246 -0.361823 0)
(0.476056 -0.217388 0)
(0.3799 -0.276674 0)
(0.544201 -0.162606 0)
(0.445868 -0.207853 0)
(0.598024 -0.120389 0)
(0.497065 -0.154642 0)
(0.640937 -0.0886704 0)
(0.537264 -0.11447 0)
(0.675707 -0.0654435 0)
(0.569291 -0.0848333 0)
(0.704566 -0.0489069 0)
(0.59532 -0.0635583 0)
(0.72925 -0.0374658 0)
(0.617068 -0.0487152 0)
(0.751012 -0.0297763 0)
(0.63584 -0.0386128 0)
(0.770705 -0.0247871 0)
(0.652526 -0.0318919 0)
(0.788931 -0.0217182 0)
(0.667654 -0.0275709 0)
(0.806149 -0.0200026 0)
(0.681575 -0.0249588 0)
(0.82266 -0.0191958 0)
(0.694566 -0.0235392 0)
(0.838692 -0.0189155 0)
(0.706837 -0.0228749 0)
(0.854389 -0.0188296 0)
(0.718545 -0.0225857 0)
(0.86982 -0.0186543 0)
(0.729793 -0.0223397 0)
(0.88499 -0.018171 0)
(0.740643 -0.0218703 0)
(0.89986 -0.0172416 0)
(0.751115 -0.0209922 0)
(0.914341 -0.0158098 0)
(0.761189 -0.0196042 0)
(0.928319 -0.013905 0)
(0.770813 -0.0176855 0)
(0.941717 -0.011693 0)
(0.779934 -0.0153443 0)
(0.954544 -0.00940261 0)
(0.788527 -0.0128926 0)
(0.966936 -0.00714828 0)
(0.79665 -0.0105593 0)
(0.979014 -0.00486889 0)
(0.804453 -0.00834998 0)
(0.990628 -0.00263871 0)
(0.811945 -0.00611327 0)
(1.00186 -0.000788312 0)
(0.819343 -0.00382322 0)
(1.01205 0.000440092 0)
(0.825894 -0.0020893 0)
(0.832815 -0.000745978 0)
(0.116441 -0.537451 0)
(0.0510369 -0.607326 0)
(0.215588 -0.461524 0)
(0.143684 -0.547105 0)
(0.292749 -0.362295 0)
(0.206804 -0.433869 0)
(0.352443 -0.275745 0)
(0.26215 -0.331096 0)
(0.398923 -0.207219 0)
(0.301985 -0.249226 0)
(0.435342 -0.154741 0)
(0.332468 -0.186294 0)
(0.464164 -0.115458 0)
(0.355863 -0.138927 0)
(0.487295 -0.0867562 0)
(0.373853 -0.103999 0)
(0.50631 -0.0663473 0)
(0.38776 -0.0789404 0)
(0.522414 -0.05219 0)
(0.398722 -0.0614357 0)
(0.536401 -0.042558 0)
(0.407623 -0.0493994 0)
(0.548724 -0.0361361 0)
(0.415017 -0.0411708 0)
(0.559675 -0.031996 0)
(0.421013 -0.0356228 0)
(0.569495 -0.0294697 0)
(0.425711 -0.0320078 0)
(0.578363 -0.0280328 0)
(0.429261 -0.0297547 0)
(0.586433 -0.0272411 0)
(0.431814 -0.0283978 0)
(0.59382 -0.0267095 0)
(0.433509 -0.0275216 0)
(0.600601 -0.0261186 0)
(0.434482 -0.0267634 0)
(0.606828 -0.0252296 0)
(0.434871 -0.025837 0)
(0.612544 -0.0238881 0)
(0.434789 -0.0245474 0)
(0.617774 -0.0220196 0)
(0.434303 -0.0227799 0)
(0.622488 -0.0196593 0)
(0.433418 -0.0204801 0)
(0.626622 -0.0170423 0)
(0.432115 -0.0177376 0)
(0.630319 -0.0144578 0)
(0.430413 -0.0149822 0)
(0.633837 -0.0119626 0)
(0.42833 -0.0125009 0)
(0.637404 -0.00942835 0)
(0.42593 -0.0102719 0)
(0.640642 -0.00700589 0)
(0.42324 -0.00781685 0)
(0.643226 -0.00523258 0)
(0.421419 -0.00515084 0)
(0.645351 -0.00371846 0)
(0.416213 -0.0031549 0)
(0.408752 -0.00108183 0)
(0.0823004 -0.624861 0)
(0.0298111 -0.687934 0)
(0.142153 -0.527666 0)
(0.0881941 -0.604342 0)
(0.183507 -0.410647 0)
(0.107836 -0.472482 0)
(0.213608 -0.31174 0)
(0.13104 -0.358538 0)
(0.235826 -0.234425 0)
(0.142069 -0.269003 0)
(0.252207 -0.175565 0)
(0.14934 -0.200531 0)
(0.264127 -0.131593 0)
(0.153048 -0.149042 0)
(0.27256 -0.0994636 0)
(0.153872 -0.110986 0)
(0.278467 -0.0765959 0)
(0.152307 -0.0837192 0)
(0.28258 -0.060654 0)
(0.149008 -0.0646839 0)
(0.285258 -0.0496079 0)
(0.144598 -0.0514648 0)
(0.286523 -0.0419193 0)
(0.139229 -0.0421232 0)
(0.286393 -0.0366111 0)
(0.132662 -0.0355271 0)
(0.284961 -0.0330325 0)
(0.124896 -0.0309803 0)
(0.282351 -0.0306621 0)
(0.116092 -0.0279249 0)
(0.278722 -0.0290539 0)
(0.106414 -0.0259148 0)
(0.274234 -0.0278159 0)
(0.096052 -0.0245223 0)
(0.269029 -0.026631 0)
(0.0852206 -0.0233683 0)
(0.263244 -0.0252665 0)
(0.0740978 -0.022152 0)
(0.257002 -0.0235553 0)
(0.0627689 -0.0206647 0)
(0.250389 -0.0213752 0)
(0.051199 -0.0187647 0)
(0.243396 -0.0187149 0)
(0.0392538 -0.0163336 0)
(0.235824 -0.0158957 0)
(0.0268405 -0.0133542 0)
(0.227874 -0.0135271 0)
(0.0138933 -0.0104886 0)
(0.21994 -0.0117651 0)
(-0.00091949 -0.00812224 0)
(0.212263 -0.00987657 0)
(-0.0168583 -0.00613481 0)
(0.20434 -0.0068619 0)
(-0.0324715 -0.00364859 0)
(0.193383 -0.0029625 0)
(-0.0449148 0.000477964 0)
(0.17908 6.23283e-05 0)
(-0.0558736 0.00401874 0)
(-0.06822 0.00421149 0)
(0.0428776 -0.674738 0)
(0.00619204 -0.72993 0)
(0.0590343 -0.556534 0)
(0.0245038 -0.619793 0)
(0.0621769 -0.426806 0)
(-0.00189419 -0.475417 0)
(0.0608913 -0.320893 0)
(-0.0137003 -0.357366 0)
(0.0563014 -0.23879 0)
(-0.0338709 -0.264917 0)
(0.0496376 -0.176592 0)
(-0.0530274 -0.19474 0)
(0.04139 -0.130147 0)
(-0.0723922 -0.142043 0)
(0.0318011 -0.0962222 0)
(-0.0919613 -0.103042 0)
(0.021236 -0.0722084 0)
(-0.111946 -0.0751722 0)
(0.0100123 -0.0554502 0)
(-0.132035 -0.0558187 0)
(-0.00221238 -0.0436306 0)
(-0.151733 -0.042037 0)
(-0.015469 -0.0352218 0)
(-0.171084 -0.0321409 0)
(-0.0296303 -0.0292659 0)
(-0.190503 -0.0251155 0)
(-0.0446129 -0.0251351 0)
(-0.210073 -0.0202251 0)
(-0.0602634 -0.0223779 0)
(-0.229796 -0.0169556 0)
(-0.0763368 -0.0205997 0)
(-0.249737 -0.0149151 0)
(-0.0926286 -0.0194087 0)
(-0.269842 -0.0136365 0)
(-0.10904 -0.018462 0)
(-0.290051 -0.0126619 0)
(-0.125546 -0.0174859 0)
(-0.310523 -0.0116376 0)
(-0.142205 -0.0162331 0)
(-0.331542 -0.0103034 0)
(-0.159163 -0.0143988 0)
(-0.353238 -0.00846728 0)
(-0.176612 -0.011649 0)
(-0.375271 -0.00598776 0)
(-0.195016 -0.00792977 0)
(-0.396779 -0.00270015 0)
(-0.215719 -0.00398158 0)
(-0.416648 0.0012133 0)
(-0.238475 -0.000899777 0)
(-0.435317 0.00443687 0)
(-0.260908 0.00143876 0)
(-0.453671 0.00595305 0)
(-0.280739 0.00425675 0)
(-0.470938 0.00678516 0)
(-0.295024 0.00701191 0)
(-0.485273 0.00781574 0)
(-0.304202 0.00743785 0)
(-0.494154 0.00862213 0)
(-0.500265 0.00764648 0)
(-0.00549666 -0.680214 0)
(-0.0223822 -0.724546 0)
(-0.0342428 -0.542891 0)
(-0.0496546 -0.592303 0)
(-0.0706312 -0.407057 0)
(-0.12233 -0.44144 0)
(-0.106859 -0.300498 0)
(-0.174215 -0.324339 0)
(-0.141977 -0.218781 0)
(-0.22825 -0.233657 0)
(-0.175334 -0.157513 0)
(-0.277102 -0.165749 0)
(-0.207019 -0.112065 0)
(-0.321589 -0.115155 0)
(-0.237504 -0.0792585 0)
(-0.362301 -0.077784 0)
(-0.266797 -0.0565516 0)
(-0.400581 -0.0514746 0)
(-0.294625 -0.0408986 0)
(-0.437567 -0.0338382 0)
(-0.321163 -0.0295553 0)
(-0.473658 -0.0215704 0)
(-0.346756 -0.0212426 0)
(-0.506195 -0.0128701 0)
(-0.371547 -0.0154327 0)
(-0.536048 -0.00688872 0)
(-0.395695 -0.0115732 0)
(-0.563825 -0.00289022 0)
(-0.419517 -0.00912306 0)
(-0.590121 -0.000258715 0)
(-0.443166 -0.00758595 0)
(-0.615416 0.00126878 0)
(-0.466819 -0.00645423 0)
(-0.639994 0.00216748 0)
(-0.490836 -0.00518162 0)
(-0.663905 0.00300686 0)
(-0.515756 -0.00341892 0)
(-0.687185 0.0042362 0)
(-0.541859 -0.00118975 0)
(-0.710046 0.00593123 0)
(-0.568634 0.00129466 0)
(-0.732785 0.00779205 0)
(-0.5947 0.00393382 0)
(-0.755275 0.009467 0)
(-0.618048 0.0066641 0)
(-0.776627 0.0108159 0)
(-0.636718 0.00898442 0)
(-0.795334 0.0117661 0)
(-0.651173 0.0101882 0)
(-0.810116 0.0124144 0)
(-0.663504 0.0103483 0)
(-0.822566 0.0125979 0)
(-0.674486 0.010257 0)
(-0.833635 0.0125628 0)
(-0.684029 0.0102212 0)
(-0.843365 0.0127182 0)
(-0.691792 0.00968429 0)
(-0.8512 0.0125155 0)
(-0.855621 0.0114112 0)
(-0.0561985 -0.635512 0)
(-0.0581139 -0.669503 0)
(-0.13688 -0.486452 0)
(-0.13503 -0.515147 0)
(-0.217168 -0.352817 0)
(-0.257256 -0.366473 0)
(-0.293014 -0.25142 0)
(-0.354991 -0.255193 0)
(-0.361986 -0.175568 0)
(-0.44692 -0.172262 0)
(-0.423462 -0.119847 0)
(-0.528777 -0.11232 0)
(-0.477793 -0.0786358 0)
(-0.600735 -0.069051 0)
(-0.526864 -0.0479736 0)
(-0.663557 -0.0371263 0)
(-0.573 -0.0259443 0)
(-0.715876 -0.0141522 0)
(-0.617539 -0.0112146 0)
(-0.760984 0.00134218 0)
(-0.65893 -0.0020871 0)
(-0.800994 0.0103504 0)
(-0.695725 0.00341814 0)
(-0.83626 0.0148369 0)
(-0.728513 0.00688004 0)
(-0.867719 0.0172169 0)
(-0.75832 0.00905984 0)
(-0.896257 0.0185071 0)
(-0.785952 0.0103815 0)
(-0.922661 0.0191085 0)
(-0.812025 0.0111164 0)
(-0.947498 0.0191111 0)
(-0.836718 0.0115468 0)
(-0.9711 0.018667 0)
(-0.859807 0.0120414 0)
(-0.993428 0.0180699 0)
(-0.881037 0.0128525 0)
(-1.01424 0.0177594 0)
(-0.900571 0.0139283 0)
(-1.03353 0.0180801 0)
(-0.918976 0.014982 0)
(-1.05172 0.0189685 0)
(-0.936686 0.0157402 0)
(-1.06934 0.019968 0)
(-0.953501 0.0161064 0)
(-1.0864 0.02055 0)
(-0.968788 0.0161304 0)
(-1.10225 0.0204069 0)
(-0.98185 0.0158948 0)
(-1.11602 0.0196232 0)
(-0.99275 0.0155176 0)