# vtk DataFile Version 2.0

ASCII

DATASET UNSTRUCTURED_GRID

POINTS 58 float 

5.0000000000000003e-02  0.0000000000000000e+00  1.0000000000000000e+00
-5.0000000000000003e-02  0.0000000000000000e+00  1.0000000000000000e+00
-5.0000000000000003e-02  2.9999999999999999e-01  1.0000000000000000e+00
5.0000000000000003e-02  2.9999999999999999e-01  1.0000000000000000e+00
5.0000000000000003e-02  0.0000000000000000e+00  8.0000000000000004e-01
-5.0000000000000003e-02  0.0000000000000000e+00  8.0000000000000004e-01
-5.0000000000000003e-02  2.9999999999999999e-01  8.0000000000000004e-01
5.0000000000000003e-02  2.9999999999999999e-01  8.0000000000000004e-01
0.0000000000000000e+00  0.0000000000000000e+00  1.0000000000000000e+00
-5.0000000000000003e-02  1.4999999999999999e-01  1.0000000000000000e+00
0.0000000000000000e+00  2.9999999999999999e-01  1.0000000000000000e+00
5.0000000000000003e-02  1.4999999999999999e-01  1.0000000000000000e+00
5.0000000000000003e-02  0.0000000000000000e+00  9.0000000000000002e-01
-5.0000000000000003e-02  0.0000000000000000e+00  9.0000000000000002e-01
-5.0000000000000003e-02  2.9999999999999999e-01  9.0000000000000002e-01
5.0000000000000003e-02  2.9999999999999999e-01  9.0000000000000002e-01
-5.0000000000000003e-02  1.4999999999999999e-01  8.0000000000000004e-01
5.0000000000000003e-02  1.4999999999999999e-01  8.0000000000000004e-01
5.0000000000000003e-02  0.0000000000000000e+00  5.9999999999999998e-01
-5.0000000000000003e-02  0.0000000000000000e+00  5.9999999999999998e-01
-5.0000000000000003e-02  2.9999999999999999e-01  5.9999999999999998e-01
5.0000000000000003e-02  2.9999999999999999e-01  5.9999999999999998e-01
5.0000000000000003e-02  0.0000000000000000e+00  6.9999999999999996e-01
-5.0000000000000003e-02  0.0000000000000000e+00  6.9999999999999996e-01
-5.0000000000000003e-02  2.9999999999999999e-01  6.9999999999999996e-01
5.0000000000000003e-02  2.9999999999999999e-01  6.9999999999999996e-01
-5.0000000000000003e-02  1.4999999999999999e-01  5.9999999999999998e-01
5.0000000000000003e-02  1.4999999999999999e-01  5.9999999999999998e-01
5.0000000000000003e-02  0.0000000000000000e+00  4.0000000000000002e-01
-5.0000000000000003e-02  0.0000000000000000e+00  4.0000000000000002e-01
-5.0000000000000003e-02  2.9999999999999999e-01  4.0000000000000002e-01
5.0000000000000003e-02  2.9999999999999999e-01  4.0000000000000002e-01
5.0000000000000003e-02  0.0000000000000000e+00  5.0000000000000000e-01
-5.0000000000000003e-02  0.0000000000000000e+00  5.0000000000000000e-01
-5.0000000000000003e-02  2.9999999999999999e-01  5.0000000000000000e-01
5.0000000000000003e-02  2.9999999999999999e-01  5.0000000000000000e-01
-5.0000000000000003e-02  1.4999999999999999e-01  4.0000000000000002e-01
5.0000000000000003e-02  1.4999999999999999e-01  4.0000000000000002e-01
5.0000000000000003e-02  0.0000000000000000e+00  2.0000000000000001e-01
-5.0000000000000003e-02  0.0000000000000000e+00  2.0000000000000001e-01
-5.0000000000000003e-02  2.9999999999999999e-01  2.0000000000000001e-01
5.0000000000000003e-02  2.9999999999999999e-01  2.0000000000000001e-01
5.0000000000000003e-02  0.0000000000000000e+00  2.9999999999999999e-01
-5.0000000000000003e-02  0.0000000000000000e+00  2.9999999999999999e-01
-5.0000000000000003e-02  2.9999999999999999e-01  2.9999999999999999e-01
5.0000000000000003e-02  2.9999999999999999e-01  2.9999999999999999e-01
-5.0000000000000003e-02  1.4999999999999999e-01  2.0000000000000001e-01
5.0000000000000003e-02  1.4999999999999999e-01  2.0000000000000001e-01
5.0000000000000003e-02  0.0000000000000000e+00  0.0000000000000000e+00
-5.0000000000000003e-02  0.0000000000000000e+00  0.0000000000000000e+00
-5.0000000000000003e-02  2.9999999999999999e-01  0.0000000000000000e+00
5.0000000000000003e-02  2.9999999999999999e-01  0.0000000000000000e+00
5.0000000000000003e-02  0.0000000000000000e+00  1.0000000000000001e-01
-5.0000000000000003e-02  0.0000000000000000e+00  1.0000000000000001e-01
-5.0000000000000003e-02  2.9999999999999999e-01  1.0000000000000001e-01
5.0000000000000003e-02  2.9999999999999999e-01  1.0000000000000001e-01
-5.0000000000000003e-02  1.4999999999999999e-01  0.0000000000000000e+00
5.0000000000000003e-02  1.4999999999999999e-01  0.0000000000000000e+00

CELLS 0 0


CELL_TYPES 0


POINT_DATA 58

VECTORS VertexNormals float

0.0000000000000000e+00 0.0000000000000000e+00 0.0000000000000000e+00 
0.0000000000000000e+00 0.0000000000000000e+00 0.0000000000000000e+00 
0.0000000000000000e+00 0.0000000000000000e+00 0.0000000000000000e+00 
0.0000000000000000e+00 0.0000000000000000e+00 0.0000000000000000e+00 
0.0000000000000000e+00 0.0000000000000000e+00 0.0000000000000000e+00 
0.0000000000000000e+00 0.0000000000000000e+00 0.0000000000000000e+00 
0.0000000000000000e+00 0.0000000000000000e+00 0.0000000000000000e+00 
0.0000000000000000e+00 0.0000000000000000e+00 0.0000000000000000e+00 
0.0000000000000000e+00 0.0000000000000000e+00 0.0000000000000000e+00 
0.0000000000000000e+00 0.0000000000000000e+00 0.0000000000000000e+00 
0.0000000000000000e+00 0.0000000000000000e+00 0.0000000000000000e+00 
0.0000000000000000e+00 0.0000000000000000e+00 0.0000000000000000e+00 
0.0000000000000000e+00 0.0000000000000000e+00 0.0000000000000000e+00 
0.0000000000000000e+00 0.0000000000000000e+00 0.0000000000000000e+00 
0.0000000000000000e+00 0.0000000000000000e+00 0.0000000000000000e+00 
0.0000000000000000e+00 0.0000000000000000e+00 0.0000000000000000e+00 
0.0000000000000000e+00 0.0000000000000000e+00 0.0000000000000000e+00 
0.0000000000000000e+00 0.0000000000000000e+00 0.0000000000000000e+00 
0.0000000000000000e+00 0.0000000000000000e+00 0.0000000000000000e+00 
0.0000000000000000e+00 0.0000000000000000e+00 0.0000000000000000e+00 
0.0000000000000000e+00 0.0000000000000000e+00 0.0000000000000000e+00 
0.0000000000000000e+00 0.0000000000000000e+00 0.0000000000000000e+00 
0.0000000000000000e+00 0.0000000000000000e+00 0.0000000000000000e+00 
0.0000000000000000e+00 0.0000000000000000e+00 0.0000000000000000e+00 
0.0000000000000000e+00 0.0000000000000000e+00 0.0000000000000000e+00 
0.0000000000000000e+00 0.0000000000000000e+00 0.0000000000000000e+00 
0.0000000000000000e+00 0.0000000000000000e+00 0.0000000000000000e+00 
0.0000000000000000e+00 0.0000000000000000e+00 0.0000000000000000e+00 
0.0000000000000000e+00 0.0000000000000000e+00 0.0000000000000000e+00 
0.0000000000000000e+00 0.0000000000000000e+00 0.0000000000000000e+00 
0.0000000000000000e+00 0.0000000000000000e+00 0.0000000000000000e+00 
0.0000000000000000e+00 0.0000000000000000e+00 0.0000000000000000e+00 
0.0000000000000000e+00 0.0000000000000000e+00 0.0000000000000000e+00 
0.0000000000000000e+00 0.0000000000000000e+00 0.0000000000000000e+00 
0.0000000000000000e+00 0.0000000000000000e+00 0.0000000000000000e+00 
0.0000000000000000e+00 0.0000000000000000e+00 0.0000000000000000e+00 
0.0000000000000000e+00 0.0000000000000000e+00 0.0000000000000000e+00 
0.0000000000000000e+00 0.0000000000000000e+00 0.0000000000000000e+00 
0.0000000000000000e+00 0.0000000000000000e+00 0.0000000000000000e+00 
0.0000000000000000e+00 0.0000000000000000e+00 0.0000000000000000e+00 
0.0000000000000000e+00 0.0000000000000000e+00 0.0000000000000000e+00 
0.0000000000000000e+00 0.0000000000000000e+00 0.0000000000000000e+00 
0.0000000000000000e+00 0.0000000000000000e+00 0.0000000000000000e+00 
0.0000000000000000e+00 0.0000000000000000e+00 0.0000000000000000e+00 
0.0000000000000000e+00 0.0000000000000000e+00 0.0000000000000000e+00 
0.0000000000000000e+00 0.0000000000000000e+00 0.0000000000000000e+00 
0.0000000000000000e+00 0.0000000000000000e+00 0.0000000000000000e+00 
0.0000000000000000e+00 0.0000000000000000e+00 0.0000000000000000e+00 
0.0000000000000000e+00 0.0000000000000000e+00 0.0000000000000000e+00 
0.0000000000000000e+00 0.0000000000000000e+00 0.0000000000000000e+00 
0.0000000000000000e+00 0.0000000000000000e+00 0.0000000000000000e+00 
0.0000000000000000e+00 0.0000000000000000e+00 0.0000000000000000e+00 
0.0000000000000000e+00 0.0000000000000000e+00 0.0000000000000000e+00 
0.0000000000000000e+00 0.0000000000000000e+00 0.0000000000000000e+00 
0.0000000000000000e+00 0.0000000000000000e+00 0.0000000000000000e+00 
0.0000000000000000e+00 0.0000000000000000e+00 0.0000000000000000e+00 
0.0000000000000000e+00 0.0000000000000000e+00 0.0000000000000000e+00 
0.0000000000000000e+00 0.0000000000000000e+00 0.0000000000000000e+00 

VECTORS DisplacementDeltas0 float
7.5315367052039623e-319 0.0000000000000000e+00 0.0000000000000000e+00 
3.0836139927516368e-02 0.0000000000000000e+00 -9.9907101598286172e-03 
3.0650494430212005e-02 0.0000000000000000e+00 -9.6571254404042087e-03 
2.4898442590993670e-02 0.0000000000000000e+00 -1.7004684445344087e-02 
1.1293745300724894e-02 0.0000000000000000e+00 -7.0487144122177662e-03 
1.5808814523695737e-02 0.0000000000000000e+00 -4.7594642338588070e-04 
1.5166626371606980e-02 0.0000000000000000e+00 -1.6984692402212398e-04 
1.1158968414409755e-02 0.0000000000000000e+00 -6.5120619685572218e-03 
2.8298773779872485e-02 0.0000000000000000e+00 -1.3518363738896245e-02 
3.0763372574761819e-02 0.0000000000000000e+00 -1.0334206345088063e-02 
2.7791191733171100e-02 0.0000000000000000e+00 -1.3386181320680169e-02 
2.5619755817932313e-02 0.0000000000000000e+00 -1.7399195974358659e-02 
1.8486797669039039e-02 0.0000000000000000e+00 -1.2449390042211848e-02 
2.3694947594549667e-02 0.0000000000000000e+00 -5.3967950781713620e-03 
2.3260899978447436e-02 0.0000000000000000e+00 -4.5582239957388413e-03 
1.7869994282722186e-02 0.0000000000000000e+00 -1.1477486709260083e-02 
1.5577105716453928e-02 0.0000000000000000e+00 -9.9223859662598765e-05 
1.0797658612003849e-02 0.0000000000000000e+00 -6.9797408441536826e-03 
1.8100152631502363e-03 0.0000000000000000e+00 -8.8810636162777725e-04 
2.5623828505269668e-03 0.0000000000000000e+00 2.2960586337708419e-03 
2.6219176555556676e-03 0.0000000000000000e+00 2.3791001575258937e-03 
1.7723976524125782e-03 0.0000000000000000e+00 -1.0000644997530713e-03 
5.6147233969836077e-03 0.0000000000000000e+00 -3.1230289407607617e-03 
7.8776940504102222e-03 0.0000000000000000e+00 2.3424640947323884e-03 
7.6443929684788213e-03 0.0000000000000000e+00 2.3681654311299904e-03 
5.5994289835573172e-03 0.0000000000000000e+00 -3.0201587090240454e-03 
2.3820814443427851e-03 0.0000000000000000e+00 2.1700228368252490e-03 
1.6449560365567038e-03 0.0000000000000000e+00 -1.0970280956739563e-03 
-5.3708099517389934e-04 0.0000000000000000e+00 3.9665691846706765e-04 
-4.2225562098444211e-04 0.0000000000000000e+00 5.5885774212911300e-04 
-4.6915247420470959e-04 0.0000000000000000e+00 4.5853030009957861e-04 
-6.2509752292986154e-04 0.0000000000000000e+00 4.3750586021861420e-04 
-2.3170794752228247e-04 0.0000000000000000e+00 -3.1792479684576074e-06 
1.5045546661659071e-05 0.0000000000000000e+00 1.3647727427668409e-03 
4.1116793709775317e-05 0.0000000000000000e+00 1.2299292339619074e-03 
-1.5408114021793506e-04 0.0000000000000000e+00 -6.0059919904784293e-06 
-6.5410167044544095e-04 0.0000000000000000e+00 2.8457529900410069e-04 
-6.7943742396126146e-04 0.0000000000000000e+00 4.5448583487709576e-04 
-2.7269242066096933e-04 0.0000000000000000e+00 5.8749861787223481e-05 
-3.9448813310524614e-04 0.0000000000000000e+00 -1.4702061392930278e-04 
-2.9071543725468036e-04 0.0000000000000000e+00 -1.3600844998206703e-04 
-1.7693344247814505e-04 0.0000000000000000e+00 -5.6041277210903593e-05 
-4.5188270770530259e-04 0.0000000000000000e+00 2.1442341476162917e-04 
-3.5562184741561378e-04 0.0000000000000000e+00 2.2264063816068616e-04 
-3.6412524479648893e-04 0.0000000000000000e+00 1.8499650755467997e-04 
-4.5958368118569765e-04 0.0000000000000000e+00 1.2614279325922316e-04 
-3.5152467013975812e-04 0.0000000000000000e+00 4.7279011189139085e-05 
-3.6010644959138562e-04 0.0000000000000000e+00 1.0388552174853756e-04 
0.0000000000000000e+00 0.0000000000000000e+00 0.0000000000000000e+00 
0.0000000000000000e+00 0.0000000000000000e+00 0.0000000000000000e+00 
0.0000000000000000e+00 0.0000000000000000e+00 0.0000000000000000e+00 
0.0000000000000000e+00 0.0000000000000000e+00 0.0000000000000000e+00 
-2.8159122448884947e-05 0.0000000000000000e+00 1.3523394248030258e-04 
-8.7450336091601799e-05 0.0000000000000000e+00 -9.2376930181720411e-05 
-1.8749141912951487e-04 0.0000000000000000e+00 -1.1395444703908765e-04 
-1.0502574073205503e-04 0.0000000000000000e+00 1.0750793892912798e-04 
0.0000000000000000e+00 0.0000000000000000e+00 0.0000000000000000e+00 
0.0000000000000000e+00 0.0000000000000000e+00 0.0000000000000000e+00 

VECTORS Forces0 float
6.3716458940792968e+00 -3.6237982660277948e+00 -1.4551512781642768e+00 
6.3270257622432186e-02 9.4958947291269493e-04 -2.6379594686704103e-02 
-1.7790999203296642e+00 -1.1225776963230163e-01 2.2876971945918037e+00 
1.5829045783067115e+00 -9.6173661120536480e-01 -4.2920999607385013e-01 
-1.1193585144912008e+00 9.9144611301346067e-02 1.1848814602845562e-01 
-2.8836701741234094e+00 -4.0029704383493313e-02 1.5851095775270829e+00 
-1.2294975981267937e+00 -1.5870809072177122e-02 6.2328084789703664e-01 
-1.2249988623233286e+00 1.1752051310531419e-01 5.2777971295649595e-01 
0.0000000000000000e+00 0.0000000000000000e+00 0.0000000000000000e+00 
0.0000000000000000e+00 0.0000000000000000e+00 0.0000000000000000e+00 
0.0000000000000000e+00 0.0000000000000000e+00 0.0000000000000000e+00 
0.0000000000000000e+00 0.0000000000000000e+00 0.0000000000000000e+00 
0.0000000000000000e+00 0.0000000000000000e+00 0.0000000000000000e+00 
0.0000000000000000e+00 0.0000000000000000e+00 0.0000000000000000e+00 
0.0000000000000000e+00 0.0000000000000000e+00 0.0000000000000000e+00 
0.0000000000000000e+00 0.0000000000000000e+00 0.0000000000000000e+00 
0.0000000000000000e+00 0.0000000000000000e+00 0.0000000000000000e+00 
0.0000000000000000e+00 0.0000000000000000e+00 0.0000000000000000e+00 
9.2648837823444330e-01 1.3386596221661093e-03 -2.1950764353407212e-01 
3.7649708231337193e+00 6.8382324698376172e-03 -9.0591189041549258e-01 
3.4977683894031446e+00 6.3729681704257843e-03 -8.2249165141975344e-01 
1.4801408952808932e+00 2.0386506516898734e-03 -3.3093228674591907e-01 
0.0000000000000000e+00 0.0000000000000000e+00 0.0000000000000000e+00 
0.0000000000000000e+00 0.0000000000000000e+00 0.0000000000000000e+00 
0.0000000000000000e+00 0.0000000000000000e+00 0.0000000000000000e+00 
0.0000000000000000e+00 0.0000000000000000e+00 0.0000000000000000e+00 
0.0000000000000000e+00 0.0000000000000000e+00 0.0000000000000000e+00 
0.0000000000000000e+00 0.0000000000000000e+00 0.0000000000000000e+00 
9.2612700462732056e-01 1.2718017168296321e-04 -2.1206743601703073e-02 
1.5407810846076009e+00 1.1213229000346381e-04 -4.4367162826308537e-02 
1.5521027125166873e+00 1.1163327235472939e-04 -4.4618261332413964e-02 
8.7492535225020573e-01 1.2049723450469325e-04 -2.0172071976399066e-02 
0.0000000000000000e+00 0.0000000000000000e+00 0.0000000000000000e+00 
0.0000000000000000e+00 0.0000000000000000e+00 0.0000000000000000e+00 
0.0000000000000000e+00 0.0000000000000000e+00 0.0000000000000000e+00 
0.0000000000000000e+00 0.0000000000000000e+00 0.0000000000000000e+00 
0.0000000000000000e+00 0.0000000000000000e+00 0.0000000000000000e+00 
0.0000000000000000e+00 0.0000000000000000e+00 0.0000000000000000e+00 
9.8398479359836366e-03 -8.5447469691380025e-05 7.8513525532222014e-04 
2.8941061766541378e+00 -6.0020766808341905e-04 -2.3554811297319886e-02 
2.8667936461748615e+00 -5.9841585905023344e-04 -2.3096208203055246e-02 
-1.4658781893922335e-02 -8.7007435073700891e-05 1.0600466423677426e-03 
0.0000000000000000e+00 0.0000000000000000e+00 0.0000000000000000e+00 
0.0000000000000000e+00 0.0000000000000000e+00 0.0000000000000000e+00 
0.0000000000000000e+00 0.0000000000000000e+00 0.0000000000000000e+00 
0.0000000000000000e+00 0.0000000000000000e+00 0.0000000000000000e+00 
0.0000000000000000e+00 0.0000000000000000e+00 0.0000000000000000e+00 
0.0000000000000000e+00 0.0000000000000000e+00 0.0000000000000000e+00 
1.6422791751534122e-01 -2.7989978065056983e-05 -3.0292749128335841e-03 
1.1818524746090653e+00 -9.8082734080767649e-05 -2.5430006342493088e-02 
1.1854392264021159e+00 -9.8076537319804970e-05 -2.5805913056563920e-02 
1.5599732690510842e-01 -2.7721676806853974e-05 -2.9380961495091770e-03 
0.0000000000000000e+00 0.0000000000000000e+00 0.0000000000000000e+00 
0.0000000000000000e+00 0.0000000000000000e+00 0.0000000000000000e+00 
0.0000000000000000e+00 0.0000000000000000e+00 0.0000000000000000e+00 
0.0000000000000000e+00 0.0000000000000000e+00 0.0000000000000000e+00 
0.0000000000000000e+00 0.0000000000000000e+00 0.0000000000000000e+00 
0.0000000000000000e+00 0.0000000000000000e+00 0.0000000000000000e+00 

