# vtk DataFile Version 2.0

ASCII

DATASET UNSTRUCTURED_GRID

POINTS 58 double 

5.0000000000000003e-02  0.0000000000000000e+00  1.0000000000000000e+00
-5.0000000000000003e-02  0.0000000000000000e+00  1.0000000000000000e+00
-5.0000000000000003e-02  2.9999999999999999e-01  1.0000000000000000e+00
5.0000000000000003e-02  2.9999999999999999e-01  1.0000000000000000e+00
5.0000000000000003e-02  0.0000000000000000e+00  8.0000000000000004e-01
-5.0000000000000003e-02  0.0000000000000000e+00  8.0000000000000004e-01
-5.0000000000000003e-02  2.9999999999999999e-01  8.0000000000000004e-01
5.0000000000000003e-02  2.9999999999999999e-01  8.0000000000000004e-01
0.0000000000000000e+00  0.0000000000000000e+00  1.0000000000000000e+00
-5.0000000000000003e-02  1.4999999999999999e-01  1.0000000000000000e+00
0.0000000000000000e+00  2.9999999999999999e-01  1.0000000000000000e+00
5.0000000000000003e-02  1.4999999999999999e-01  1.0000000000000000e+00
5.0000000000000003e-02  0.0000000000000000e+00  9.0000000000000002e-01
-5.0000000000000003e-02  0.0000000000000000e+00  9.0000000000000002e-01
-5.0000000000000003e-02  2.9999999999999999e-01  9.0000000000000002e-01
5.0000000000000003e-02  2.9999999999999999e-01  9.0000000000000002e-01
-5.0000000000000003e-02  1.4999999999999999e-01  8.0000000000000004e-01
5.0000000000000003e-02  1.4999999999999999e-01  8.0000000000000004e-01
5.0000000000000003e-02  0.0000000000000000e+00  5.9999999999999998e-01
-5.0000000000000003e-02  0.0000000000000000e+00  5.9999999999999998e-01
-5.0000000000000003e-02  2.9999999999999999e-01  5.9999999999999998e-01
5.0000000000000003e-02  2.9999999999999999e-01  5.9999999999999998e-01
5.0000000000000003e-02  0.0000000000000000e+00  6.9999999999999996e-01
-5.0000000000000003e-02  0.0000000000000000e+00  6.9999999999999996e-01
-5.0000000000000003e-02  2.9999999999999999e-01  6.9999999999999996e-01
5.0000000000000003e-02  2.9999999999999999e-01  6.9999999999999996e-01
-5.0000000000000003e-02  1.4999999999999999e-01  5.9999999999999998e-01
5.0000000000000003e-02  1.4999999999999999e-01  5.9999999999999998e-01
5.0000000000000003e-02  0.0000000000000000e+00  4.0000000000000002e-01
-5.0000000000000003e-02  0.0000000000000000e+00  4.0000000000000002e-01
-5.0000000000000003e-02  2.9999999999999999e-01  4.0000000000000002e-01
5.0000000000000003e-02  2.9999999999999999e-01  4.0000000000000002e-01
5.0000000000000003e-02  0.0000000000000000e+00  5.0000000000000000e-01
-5.0000000000000003e-02  0.0000000000000000e+00  5.0000000000000000e-01
-5.0000000000000003e-02  2.9999999999999999e-01  5.0000000000000000e-01
5.0000000000000003e-02  2.9999999999999999e-01  5.0000000000000000e-01
-5.0000000000000003e-02  1.4999999999999999e-01  4.0000000000000002e-01
5.0000000000000003e-02  1.4999999999999999e-01  4.0000000000000002e-01
5.0000000000000003e-02  0.0000000000000000e+00  2.0000000000000001e-01
-5.0000000000000003e-02  0.0000000000000000e+00  2.0000000000000001e-01
-5.0000000000000003e-02  2.9999999999999999e-01  2.0000000000000001e-01
5.0000000000000003e-02  2.9999999999999999e-01  2.0000000000000001e-01
5.0000000000000003e-02  0.0000000000000000e+00  2.9999999999999999e-01
-5.0000000000000003e-02  0.0000000000000000e+00  2.9999999999999999e-01
-5.0000000000000003e-02  2.9999999999999999e-01  2.9999999999999999e-01
5.0000000000000003e-02  2.9999999999999999e-01  2.9999999999999999e-01
-5.0000000000000003e-02  1.4999999999999999e-01  2.0000000000000001e-01
5.0000000000000003e-02  1.4999999999999999e-01  2.0000000000000001e-01
5.0000000000000003e-02  0.0000000000000000e+00  0.0000000000000000e+00
-5.0000000000000003e-02  0.0000000000000000e+00  0.0000000000000000e+00
-5.0000000000000003e-02  2.9999999999999999e-01  0.0000000000000000e+00
5.0000000000000003e-02  2.9999999999999999e-01  0.0000000000000000e+00
5.0000000000000003e-02  0.0000000000000000e+00  1.0000000000000001e-01
-5.0000000000000003e-02  0.0000000000000000e+00  1.0000000000000001e-01
-5.0000000000000003e-02  2.9999999999999999e-01  1.0000000000000001e-01
5.0000000000000003e-02  2.9999999999999999e-01  1.0000000000000001e-01
-5.0000000000000003e-02  1.4999999999999999e-01  0.0000000000000000e+00
5.0000000000000003e-02  1.4999999999999999e-01  0.0000000000000000e+00

CELLS 0 0


CELL_TYPES 0


POINT_DATA 58

VECTORS VertexNormals double

0.0000000000000000e+00 0.0000000000000000e+00 0.0000000000000000e+00 
0.0000000000000000e+00 0.0000000000000000e+00 0.0000000000000000e+00 
0.0000000000000000e+00 0.0000000000000000e+00 0.0000000000000000e+00 
0.0000000000000000e+00 0.0000000000000000e+00 0.0000000000000000e+00 
0.0000000000000000e+00 0.0000000000000000e+00 0.0000000000000000e+00 
0.0000000000000000e+00 0.0000000000000000e+00 0.0000000000000000e+00 
0.0000000000000000e+00 0.0000000000000000e+00 0.0000000000000000e+00 
0.0000000000000000e+00 0.0000000000000000e+00 0.0000000000000000e+00 
0.0000000000000000e+00 0.0000000000000000e+00 0.0000000000000000e+00 
0.0000000000000000e+00 0.0000000000000000e+00 0.0000000000000000e+00 
0.0000000000000000e+00 0.0000000000000000e+00 0.0000000000000000e+00 
0.0000000000000000e+00 0.0000000000000000e+00 0.0000000000000000e+00 
0.0000000000000000e+00 0.0000000000000000e+00 0.0000000000000000e+00 
0.0000000000000000e+00 0.0000000000000000e+00 0.0000000000000000e+00 
0.0000000000000000e+00 0.0000000000000000e+00 0.0000000000000000e+00 
0.0000000000000000e+00 0.0000000000000000e+00 0.0000000000000000e+00 
0.0000000000000000e+00 0.0000000000000000e+00 0.0000000000000000e+00 
0.0000000000000000e+00 0.0000000000000000e+00 0.0000000000000000e+00 
0.0000000000000000e+00 0.0000000000000000e+00 0.0000000000000000e+00 
0.0000000000000000e+00 0.0000000000000000e+00 0.0000000000000000e+00 
0.0000000000000000e+00 0.0000000000000000e+00 0.0000000000000000e+00 
0.0000000000000000e+00 0.0000000000000000e+00 0.0000000000000000e+00 
0.0000000000000000e+00 0.0000000000000000e+00 0.0000000000000000e+00 
0.0000000000000000e+00 0.0000000000000000e+00 0.0000000000000000e+00 
0.0000000000000000e+00 0.0000000000000000e+00 0.0000000000000000e+00 
0.0000000000000000e+00 0.0000000000000000e+00 0.0000000000000000e+00 
0.0000000000000000e+00 0.0000000000000000e+00 0.0000000000000000e+00 
0.0000000000000000e+00 0.0000000000000000e+00 0.0000000000000000e+00 
0.0000000000000000e+00 0.0000000000000000e+00 0.0000000000000000e+00 
0.0000000000000000e+00 0.0000000000000000e+00 0.0000000000000000e+00 
0.0000000000000000e+00 0.0000000000000000e+00 0.0000000000000000e+00 
0.0000000000000000e+00 0.0000000000000000e+00 0.0000000000000000e+00 
0.0000000000000000e+00 0.0000000000000000e+00 0.0000000000000000e+00 
0.0000000000000000e+00 0.0000000000000000e+00 0.0000000000000000e+00 
0.0000000000000000e+00 0.0000000000000000e+00 0.0000000000000000e+00 
0.0000000000000000e+00 0.0000000000000000e+00 0.0000000000000000e+00 
0.0000000000000000e+00 0.0000000000000000e+00 0.0000000000000000e+00 
0.0000000000000000e+00 0.0000000000000000e+00 0.0000000000000000e+00 
0.0000000000000000e+00 0.0000000000000000e+00 0.0000000000000000e+00 
0.0000000000000000e+00 0.0000000000000000e+00 0.0000000000000000e+00 
0.0000000000000000e+00 0.0000000000000000e+00 0.0000000000000000e+00 
0.0000000000000000e+00 0.0000000000000000e+00 0.0000000000000000e+00 
0.0000000000000000e+00 0.0000000000000000e+00 0.0000000000000000e+00 
0.0000000000000000e+00 0.0000000000000000e+00 0.0000000000000000e+00 
0.0000000000000000e+00 0.0000000000000000e+00 0.0000000000000000e+00 
0.0000000000000000e+00 0.0000000000000000e+00 0.0000000000000000e+00 
0.0000000000000000e+00 0.0000000000000000e+00 0.0000000000000000e+00 
0.0000000000000000e+00 0.0000000000000000e+00 0.0000000000000000e+00 
0.0000000000000000e+00 0.0000000000000000e+00 0.0000000000000000e+00 
0.0000000000000000e+00 0.0000000000000000e+00 0.0000000000000000e+00 
0.0000000000000000e+00 0.0000000000000000e+00 0.0000000000000000e+00 
0.0000000000000000e+00 0.0000000000000000e+00 0.0000000000000000e+00 
0.0000000000000000e+00 0.0000000000000000e+00 0.0000000000000000e+00 
0.0000000000000000e+00 0.0000000000000000e+00 0.0000000000000000e+00 
0.0000000000000000e+00 0.0000000000000000e+00 0.0000000000000000e+00 
0.0000000000000000e+00 0.0000000000000000e+00 0.0000000000000000e+00 
0.0000000000000000e+00 0.0000000000000000e+00 0.0000000000000000e+00 
0.0000000000000000e+00 0.0000000000000000e+00 0.0000000000000000e+00 

VECTORS DisplacementDeltas0 double
3.5128067419312629e-318 0.0000000000000000e+00 0.0000000000000000e+00 
-2.3506327045750341e-02 0.0000000000000000e+00 -7.7854851816071602e-02 
-2.2528800607234056e-02 0.0000000000000000e+00 -7.5978047421134565e-02 
-2.4132464491562450e-02 0.0000000000000000e+00 -6.6900080222635327e-02 
-2.4864636352192604e-04 0.0000000000000000e+00 -6.3231956883272156e-02 
2.0261537759778403e-03 0.0000000000000000e+00 -7.3729137609764323e-02 
1.4041739916196005e-03 0.0000000000000000e+00 -7.4674890038696679e-02 
-1.4538147053701489e-03 0.0000000000000000e+00 -6.3945538186060635e-02 
-2.4675998030038365e-02 0.0000000000000000e+00 -7.1972686003483777e-02 
-2.3127287155403853e-02 0.0000000000000000e+00 -7.6877023134334699e-02 
-2.3403532485167911e-02 0.0000000000000000e+00 -7.1407387798696875e-02 
-2.4690013689466356e-02 0.0000000000000000e+00 -6.6241707293016650e-02 
-1.2991747691474487e-02 0.0000000000000000e+00 -6.4780833424708972e-02 
-1.1419568372953437e-02 0.0000000000000000e+00 -7.5736252250672320e-02 
-1.1950369019902540e-02 0.0000000000000000e+00 -7.5660519481715649e-02 
-1.3475029758506923e-02 0.0000000000000000e+00 -6.5697123361878107e-02 
1.8180758240290973e-03 0.0000000000000000e+00 -7.4107591311660087e-02 
-9.1159261528883651e-04 0.0000000000000000e+00 -6.3291571103259670e-02 
2.3084089962630103e-02 0.0000000000000000e+00 -4.7742491336579790e-02 
3.5048107110336180e-02 0.0000000000000000e+00 -5.6145996965193998e-02 
3.5121336605223430e-02 0.0000000000000000e+00 -5.5909207839342528e-02 
2.2850557112270631e-02 0.0000000000000000e+00 -4.7536243306073048e-02 
1.2198969336652488e-02 0.0000000000000000e+00 -5.7645917040790862e-02 
1.8557804194427846e-02 0.0000000000000000e+00 -6.9072417203773856e-02 
1.8682836077164533e-02 0.0000000000000000e+00 -6.9515782779976193e-02 
1.1621215311056948e-02 0.0000000000000000e+00 -5.7715233875586081e-02 
3.4879498248690410e-02 0.0000000000000000e+00 -5.5888958073858935e-02 
2.2739900444317548e-02 0.0000000000000000e+00 -4.8060496207914263e-02 
2.5561462388152295e-02 0.0000000000000000e+00 -1.8668645709075862e-02 
3.6607053372238317e-02 0.0000000000000000e+00 -1.1958786001374684e-02 
3.6512608522243507e-02 0.0000000000000000e+00 -1.1971632054785415e-02 
2.5600282882240175e-02 0.0000000000000000e+00 -1.8665199717910131e-02 
2.7270126278138386e-02 0.0000000000000000e+00 -3.3367590798873831e-02 
4.2631713075745509e-02 0.0000000000000000e+00 -3.3741503790547300e-02 
4.2429455226536822e-02 0.0000000000000000e+00 -3.3567066924158229e-02 
2.7092685388190145e-02 0.0000000000000000e+00 -3.3351459871672068e-02 
3.6657697807188007e-02 0.0000000000000000e+00 -1.2416305829715063e-02 
2.5589691905503552e-02 0.0000000000000000e+00 -1.8675123272433196e-02 
9.2454743660441169e-03 0.0000000000000000e+00 -3.7371135958669775e-03 
1.0707453077414822e-02 0.0000000000000000e+00 2.5493247940225373e-03 
1.0743997104949304e-02 0.0000000000000000e+00 2.5130088325014902e-03 
9.2474173189500946e-03 0.0000000000000000e+00 -3.8234369775550520e-03 
1.8115913134761540e-02 0.0000000000000000e+00 -9.3476622530056144e-03 
2.3347530755816727e-02 0.0000000000000000e+00 -5.7686722713996136e-04 
2.3340176708825759e-02 0.0000000000000000e+00 -5.7742662950470772e-04 
1.8135361237701236e-02 0.0000000000000000e+00 -9.3692318245326960e-03 
1.0895126106225431e-02 0.0000000000000000e+00 2.7554028596677820e-03 
9.6642625811303538e-03 0.0000000000000000e+00 -3.9782291089006522e-03 
0.0000000000000000e+00 0.0000000000000000e+00 0.0000000000000000e+00 
0.0000000000000000e+00 0.0000000000000000e+00 0.0000000000000000e+00 
0.0000000000000000e+00 0.0000000000000000e+00 0.0000000000000000e+00 
0.0000000000000000e+00 0.0000000000000000e+00 0.0000000000000000e+00 
2.8807755620156176e-03 0.0000000000000000e+00 -1.7734660699576348e-03 
2.7337147848314606e-03 0.0000000000000000e+00 1.5272159487530364e-03 
2.7428379118690279e-03 0.0000000000000000e+00 1.4399271538212436e-03 
2.9051659589724790e-03 0.0000000000000000e+00 -1.7036337570388929e-03 
0.0000000000000000e+00 0.0000000000000000e+00 0.0000000000000000e+00 
0.0000000000000000e+00 0.0000000000000000e+00 0.0000000000000000e+00 

VECTORS Forces0 double
-7.2641010010866758e-01 -4.6274471662626260e-01 -4.4267214495297669e-01 
1.5773268153343770e+01 2.3934704905290873e+00 9.7119090510389192e+00 
6.1294630285916540e-01 2.3906477630085106e+00 4.4812701473864394e+00 
4.4817843343717687e+00 2.3753396075020770e+00 2.4378045932857164e+00 
4.6950914789905198e+00 4.6443315257439949e-01 2.0151472594927640e+00 
-1.0235470921396498e+01 1.9146210522457424e-01 -3.3286332840669139e+00 
-4.3343942678977516e+00 9.0066575294785872e-02 -1.7107035081136601e+00 
5.7867300234633117e+00 -2.2595279942152655e+00 5.7571013639876156e-02 
0.0000000000000000e+00 0.0000000000000000e+00 0.0000000000000000e+00 
0.0000000000000000e+00 0.0000000000000000e+00 0.0000000000000000e+00 
0.0000000000000000e+00 0.0000000000000000e+00 0.0000000000000000e+00 
0.0000000000000000e+00 0.0000000000000000e+00 0.0000000000000000e+00 
0.0000000000000000e+00 0.0000000000000000e+00 0.0000000000000000e+00 
0.0000000000000000e+00 0.0000000000000000e+00 0.0000000000000000e+00 
0.0000000000000000e+00 0.0000000000000000e+00 0.0000000000000000e+00 
0.0000000000000000e+00 0.0000000000000000e+00 0.0000000000000000e+00 
0.0000000000000000e+00 0.0000000000000000e+00 0.0000000000000000e+00 
0.0000000000000000e+00 0.0000000000000000e+00 0.0000000000000000e+00 
8.1987767866682653e+00 -6.7445412853333608e-02 1.1338795491244412e+01 
3.0074077313036600e+00 -3.2517569206912657e-02 3.8273176022074749e+00 
3.7930014765951419e+00 -4.3114813891729865e-02 5.1133340055747638e+00 
6.2983012183962428e+00 -5.5123649265470281e-02 9.3243134996096568e+00 
0.0000000000000000e+00 0.0000000000000000e+00 0.0000000000000000e+00 
0.0000000000000000e+00 0.0000000000000000e+00 0.0000000000000000e+00 
0.0000000000000000e+00 0.0000000000000000e+00 0.0000000000000000e+00 
0.0000000000000000e+00 0.0000000000000000e+00 0.0000000000000000e+00 
0.0000000000000000e+00 0.0000000000000000e+00 0.0000000000000000e+00 
0.0000000000000000e+00 0.0000000000000000e+00 0.0000000000000000e+00 
-2.8552824244428168e+00 -2.5982612083200879e-05 4.9958958511359572e+00 
-2.0801363929267760e+00 -1.6739449769948983e-03 3.5672853729734637e+00 
-1.9119948546726435e+00 -1.3273382228572704e-03 3.1023314066880610e+00 
-2.8919763198826547e+00 -3.1088942705899641e-05 5.0618710582287987e+00 
0.0000000000000000e+00 0.0000000000000000e+00 0.0000000000000000e+00 
0.0000000000000000e+00 0.0000000000000000e+00 0.0000000000000000e+00 
0.0000000000000000e+00 0.0000000000000000e+00 0.0000000000000000e+00 
0.0000000000000000e+00 0.0000000000000000e+00 0.0000000000000000e+00 
0.0000000000000000e+00 0.0000000000000000e+00 0.0000000000000000e+00 
0.0000000000000000e+00 0.0000000000000000e+00 0.0000000000000000e+00 
-9.8640776103513375e+00 2.5439848355546376e-03 1.9877735878447365e+00 
4.8073756569845880e+00 -9.9436936913496927e-04 -1.5766538019920577e+00 
5.0196492542086029e+00 -1.0356294856095616e-03 -1.6428777117661761e+00 
-9.7111952431276887e+00 2.5067306196255700e-03 1.9603654601422194e+00 
0.0000000000000000e+00 0.0000000000000000e+00 0.0000000000000000e+00 
0.0000000000000000e+00 0.0000000000000000e+00 0.0000000000000000e+00 
0.0000000000000000e+00 0.0000000000000000e+00 0.0000000000000000e+00 
0.0000000000000000e+00 0.0000000000000000e+00 0.0000000000000000e+00 
0.0000000000000000e+00 0.0000000000000000e+00 0.0000000000000000e+00 
0.0000000000000000e+00 0.0000000000000000e+00 0.0000000000000000e+00 
-4.7220825393463919e+00 2.4543219792931944e-04 -2.9757495695011665e-01 
1.3839520456678129e+00 -6.5717053753586727e-05 -6.0852563015658390e-03 
1.3537621065338250e+00 -6.4091150487986256e-05 -5.6687231738615854e-03 
-4.6803771284493401e+00 2.4329302968752095e-04 -2.9425830169201450e-01 
0.0000000000000000e+00 0.0000000000000000e+00 0.0000000000000000e+00 
0.0000000000000000e+00 0.0000000000000000e+00 0.0000000000000000e+00 
0.0000000000000000e+00 0.0000000000000000e+00 0.0000000000000000e+00 
0.0000000000000000e+00 0.0000000000000000e+00 0.0000000000000000e+00 
0.0000000000000000e+00 0.0000000000000000e+00 0.0000000000000000e+00 
0.0000000000000000e+00 0.0000000000000000e+00 0.0000000000000000e+00 

