# vtk DataFile Version 2.0

ASCII

DATASET UNSTRUCTURED_GRID

POINTS 58 float 

5.0000000000000003e-02  0.0000000000000000e+00  1.0000000000000000e+00
-5.0000000000000003e-02  0.0000000000000000e+00  1.0000000000000000e+00
-5.0000000000000003e-02  2.9999999999999999e-01  1.0000000000000000e+00
5.0000000000000003e-02  2.9999999999999999e-01  1.0000000000000000e+00
5.0000000000000003e-02  0.0000000000000000e+00  8.0000000000000004e-01
-5.0000000000000003e-02  0.0000000000000000e+00  8.0000000000000004e-01
-5.0000000000000003e-02  2.9999999999999999e-01  8.0000000000000004e-01
5.0000000000000003e-02  2.9999999999999999e-01  8.0000000000000004e-01
0.0000000000000000e+00  0.0000000000000000e+00  1.0000000000000000e+00
-5.0000000000000003e-02  1.4999999999999999e-01  1.0000000000000000e+00
0.0000000000000000e+00  2.9999999999999999e-01  1.0000000000000000e+00
5.0000000000000003e-02  1.4999999999999999e-01  1.0000000000000000e+00
5.0000000000000003e-02  0.0000000000000000e+00  9.0000000000000002e-01
-5.0000000000000003e-02  0.0000000000000000e+00  9.0000000000000002e-01
-5.0000000000000003e-02  2.9999999999999999e-01  9.0000000000000002e-01
5.0000000000000003e-02  2.9999999999999999e-01  9.0000000000000002e-01
-5.0000000000000003e-02  1.4999999999999999e-01  8.0000000000000004e-01
5.0000000000000003e-02  1.4999999999999999e-01  8.0000000000000004e-01
5.0000000000000003e-02  0.0000000000000000e+00  5.9999999999999998e-01
-5.0000000000000003e-02  0.0000000000000000e+00  5.9999999999999998e-01
-5.0000000000000003e-02  2.9999999999999999e-01  5.9999999999999998e-01
5.0000000000000003e-02  2.9999999999999999e-01  5.9999999999999998e-01
5.0000000000000003e-02  0.0000000000000000e+00  6.9999999999999996e-01
-5.0000000000000003e-02  0.0000000000000000e+00  6.9999999999999996e-01
-5.0000000000000003e-02  2.9999999999999999e-01  6.9999999999999996e-01
5.0000000000000003e-02  2.9999999999999999e-01  6.9999999999999996e-01
-5.0000000000000003e-02  1.4999999999999999e-01  5.9999999999999998e-01
5.0000000000000003e-02  1.4999999999999999e-01  5.9999999999999998e-01
5.0000000000000003e-02  0.0000000000000000e+00  4.0000000000000002e-01
-5.0000000000000003e-02  0.0000000000000000e+00  4.0000000000000002e-01
-5.0000000000000003e-02  2.9999999999999999e-01  4.0000000000000002e-01
5.0000000000000003e-02  2.9999999999999999e-01  4.0000000000000002e-01
5.0000000000000003e-02  0.0000000000000000e+00  5.0000000000000000e-01
-5.0000000000000003e-02  0.0000000000000000e+00  5.0000000000000000e-01
-5.0000000000000003e-02  2.9999999999999999e-01  5.0000000000000000e-01
5.0000000000000003e-02  2.9999999999999999e-01  5.0000000000000000e-01
-5.0000000000000003e-02  1.4999999999999999e-01  4.0000000000000002e-01
5.0000000000000003e-02  1.4999999999999999e-01  4.0000000000000002e-01
5.0000000000000003e-02  0.0000000000000000e+00  2.0000000000000001e-01
-5.0000000000000003e-02  0.0000000000000000e+00  2.0000000000000001e-01
-5.0000000000000003e-02  2.9999999999999999e-01  2.0000000000000001e-01
5.0000000000000003e-02  2.9999999999999999e-01  2.0000000000000001e-01
5.0000000000000003e-02  0.0000000000000000e+00  2.9999999999999999e-01
-5.0000000000000003e-02  0.0000000000000000e+00  2.9999999999999999e-01
-5.0000000000000003e-02  2.9999999999999999e-01  2.9999999999999999e-01
5.0000000000000003e-02  2.9999999999999999e-01  2.9999999999999999e-01
-5.0000000000000003e-02  1.4999999999999999e-01  2.0000000000000001e-01
5.0000000000000003e-02  1.4999999999999999e-01  2.0000000000000001e-01
5.0000000000000003e-02  0.0000000000000000e+00  0.0000000000000000e+00
-5.0000000000000003e-02  0.0000000000000000e+00  0.0000000000000000e+00
-5.0000000000000003e-02  2.9999999999999999e-01  0.0000000000000000e+00
5.0000000000000003e-02  2.9999999999999999e-01  0.0000000000000000e+00
5.0000000000000003e-02  0.0000000000000000e+00  1.0000000000000001e-01
-5.0000000000000003e-02  0.0000000000000000e+00  1.0000000000000001e-01
-5.0000000000000003e-02  2.9999999999999999e-01  1.0000000000000001e-01
5.0000000000000003e-02  2.9999999999999999e-01  1.0000000000000001e-01
-5.0000000000000003e-02  1.4999999999999999e-01  0.0000000000000000e+00
5.0000000000000003e-02  1.4999999999999999e-01  0.0000000000000000e+00

CELLS 0 0


CELL_TYPES 0


POINT_DATA 58

VECTORS VertexNormals float

0.0000000000000000e+00 0.0000000000000000e+00 0.0000000000000000e+00 
0.0000000000000000e+00 0.0000000000000000e+00 0.0000000000000000e+00 
0.0000000000000000e+00 0.0000000000000000e+00 0.0000000000000000e+00 
0.0000000000000000e+00 0.0000000000000000e+00 0.0000000000000000e+00 
0.0000000000000000e+00 0.0000000000000000e+00 0.0000000000000000e+00 
0.0000000000000000e+00 0.0000000000000000e+00 0.0000000000000000e+00 
0.0000000000000000e+00 0.0000000000000000e+00 0.0000000000000000e+00 
0.0000000000000000e+00 0.0000000000000000e+00 0.0000000000000000e+00 
0.0000000000000000e+00 0.0000000000000000e+00 0.0000000000000000e+00 
0.0000000000000000e+00 0.0000000000000000e+00 0.0000000000000000e+00 
0.0000000000000000e+00 0.0000000000000000e+00 0.0000000000000000e+00 
0.0000000000000000e+00 0.0000000000000000e+00 0.0000000000000000e+00 
0.0000000000000000e+00 0.0000000000000000e+00 0.0000000000000000e+00 
0.0000000000000000e+00 0.0000000000000000e+00 0.0000000000000000e+00 
0.0000000000000000e+00 0.0000000000000000e+00 0.0000000000000000e+00 
0.0000000000000000e+00 0.0000000000000000e+00 0.0000000000000000e+00 
0.0000000000000000e+00 0.0000000000000000e+00 0.0000000000000000e+00 
0.0000000000000000e+00 0.0000000000000000e+00 0.0000000000000000e+00 
0.0000000000000000e+00 0.0000000000000000e+00 0.0000000000000000e+00 
0.0000000000000000e+00 0.0000000000000000e+00 0.0000000000000000e+00 
0.0000000000000000e+00 0.0000000000000000e+00 0.0000000000000000e+00 
0.0000000000000000e+00 0.0000000000000000e+00 0.0000000000000000e+00 
0.0000000000000000e+00 0.0000000000000000e+00 0.0000000000000000e+00 
0.0000000000000000e+00 0.0000000000000000e+00 0.0000000000000000e+00 
0.0000000000000000e+00 0.0000000000000000e+00 0.0000000000000000e+00 
0.0000000000000000e+00 0.0000000000000000e+00 0.0000000000000000e+00 
0.0000000000000000e+00 0.0000000000000000e+00 0.0000000000000000e+00 
0.0000000000000000e+00 0.0000000000000000e+00 0.0000000000000000e+00 
0.0000000000000000e+00 0.0000000000000000e+00 0.0000000000000000e+00 
0.0000000000000000e+00 0.0000000000000000e+00 0.0000000000000000e+00 
0.0000000000000000e+00 0.0000000000000000e+00 0.0000000000000000e+00 
0.0000000000000000e+00 0.0000000000000000e+00 0.0000000000000000e+00 
0.0000000000000000e+00 0.0000000000000000e+00 0.0000000000000000e+00 
0.0000000000000000e+00 0.0000000000000000e+00 0.0000000000000000e+00 
0.0000000000000000e+00 0.0000000000000000e+00 0.0000000000000000e+00 
0.0000000000000000e+00 0.0000000000000000e+00 0.0000000000000000e+00 
0.0000000000000000e+00 0.0000000000000000e+00 0.0000000000000000e+00 
0.0000000000000000e+00 0.0000000000000000e+00 0.0000000000000000e+00 
0.0000000000000000e+00 0.0000000000000000e+00 0.0000000000000000e+00 
0.0000000000000000e+00 0.0000000000000000e+00 0.0000000000000000e+00 
0.0000000000000000e+00 0.0000000000000000e+00 0.0000000000000000e+00 
0.0000000000000000e+00 0.0000000000000000e+00 0.0000000000000000e+00 
0.0000000000000000e+00 0.0000000000000000e+00 0.0000000000000000e+00 
0.0000000000000000e+00 0.0000000000000000e+00 0.0000000000000000e+00 
0.0000000000000000e+00 0.0000000000000000e+00 0.0000000000000000e+00 
0.0000000000000000e+00 0.0000000000000000e+00 0.0000000000000000e+00 
0.0000000000000000e+00 0.0000000000000000e+00 0.0000000000000000e+00 
0.0000000000000000e+00 0.0000000000000000e+00 0.0000000000000000e+00 
0.0000000000000000e+00 0.0000000000000000e+00 0.0000000000000000e+00 
0.0000000000000000e+00 0.0000000000000000e+00 0.0000000000000000e+00 
0.0000000000000000e+00 0.0000000000000000e+00 0.0000000000000000e+00 
0.0000000000000000e+00 0.0000000000000000e+00 0.0000000000000000e+00 
0.0000000000000000e+00 0.0000000000000000e+00 0.0000000000000000e+00 
0.0000000000000000e+00 0.0000000000000000e+00 0.0000000000000000e+00 
0.0000000000000000e+00 0.0000000000000000e+00 0.0000000000000000e+00 
0.0000000000000000e+00 0.0000000000000000e+00 0.0000000000000000e+00 
0.0000000000000000e+00 0.0000000000000000e+00 0.0000000000000000e+00 
0.0000000000000000e+00 0.0000000000000000e+00 0.0000000000000000e+00 

VECTORS DisplacementDeltas0 float
0.0000000000000000e+00 0.0000000000000000e+00 0.0000000000000000e+00 
1.2978358992283578e-03 0.0000000000000000e+00 -9.4039889621489381e-04 
9.8267599729932962e-04 0.0000000000000000e+00 -1.1374316273086496e-03 
1.9518205550626223e-03 0.0000000000000000e+00 5.6111980980892392e-04 
1.5108268720547674e-04 0.0000000000000000e+00 -2.7483164676604779e-04 
4.3628878225339358e-04 0.0000000000000000e+00 1.9266882921233541e-04 
4.5657216065020275e-04 0.0000000000000000e+00 3.5419536872808032e-04 
1.3969523262291633e-04 0.0000000000000000e+00 -3.2821785027601166e-04 
1.4213782570911136e-03 0.0000000000000000e+00 -2.0990630364934877e-04 
1.9603705295737693e-03 0.0000000000000000e+00 4.2670680030652364e-04 
1.5729700994936775e-03 0.0000000000000000e+00 -4.0722216899473135e-05 
2.1195321363585936e-03 0.0000000000000000e+00 -9.5511230756929158e-04 
8.0843760201493992e-04 0.0000000000000000e+00 9.3944683236085594e-05 
6.3643377584211630e-04 0.0000000000000000e+00 -2.9271468310469696e-04 
4.7857699031573510e-04 0.0000000000000000e+00 -2.9476363646577957e-04 
7.0451194480362802e-04 0.0000000000000000e+00 2.2561412819438180e-04 
5.3275338887192225e-04 0.0000000000000000e+00 2.5041030998380946e-04 
6.8013858563892499e-04 0.0000000000000000e+00 -5.2602116094932843e-05 
2.0808101288802972e-04 0.0000000000000000e+00 1.3156595655610539e-04 
1.6816153227821874e-04 0.0000000000000000e+00 1.4978063859044248e-04 
2.1438108356669353e-04 0.0000000000000000e+00 8.4628124629633792e-05 
2.5188066648307447e-04 0.0000000000000000e+00 1.2005588951937808e-04 
5.9396354562595509e-06 0.0000000000000000e+00 -4.7088578284365665e-06 
5.9987632354127388e-05 0.0000000000000000e+00 2.5488083452065627e-04 
2.2619577811833097e-05 0.0000000000000000e+00 2.8273033250706162e-04 
-5.9778573934658313e-05 0.0000000000000000e+00 4.4059001108459413e-05 
3.7251212756798208e-04 0.0000000000000000e+00 1.2309155966489337e-04 
2.3842951884288252e-04 0.0000000000000000e+00 1.0694696651135522e-04 
1.3502254366883908e-04 0.0000000000000000e+00 1.6979392948239554e-05 
1.1218438394134211e-04 0.0000000000000000e+00 2.3925656802854273e-05 
1.1001658031135450e-04 0.0000000000000000e+00 1.9651539347857641e-05 
1.2799880588732477e-04 0.0000000000000000e+00 2.0544608326560100e-05 
5.6923174709273141e-05 0.0000000000000000e+00 2.9014541106135397e-05 
3.6422251473652596e-06 0.0000000000000000e+00 2.5463587766151413e-05 
3.6063501326075512e-07 0.0000000000000000e+00 2.7267726924594603e-05 
6.3802248030140734e-05 0.0000000000000000e+00 9.4854083056435051e-06 
3.6533943707839865e-04 0.0000000000000000e+00 -5.2761040449782397e-05 
3.7509873551870630e-04 0.0000000000000000e+00 2.6968025514072541e-05 
3.9539881030482160e-05 0.0000000000000000e+00 -3.7090666429958478e-06 
1.1856826064907033e-04 0.0000000000000000e+00 -5.3711134617605814e-05 
1.1705930458925137e-04 0.0000000000000000e+00 -5.3343596623345279e-05 
3.7337487073146354e-05 0.0000000000000000e+00 -3.7823924649306327e-06 
5.0873076147648516e-05 0.0000000000000000e+00 -5.9720106141177837e-06 
6.5146618713018227e-05 0.0000000000000000e+00 1.6349054253542511e-05 
6.6931073111758198e-05 0.0000000000000000e+00 1.4275356202188616e-05 
5.3603912471027117e-05 0.0000000000000000e+00 -5.5950859135880595e-06 
3.2354178893463122e-04 0.0000000000000000e+00 3.0531111458320407e-05 
3.2047977773312392e-04 0.0000000000000000e+00 -3.6927325134211798e-05 
0.0000000000000000e+00 0.0000000000000000e+00 0.0000000000000000e+00 
0.0000000000000000e+00 0.0000000000000000e+00 0.0000000000000000e+00 
0.0000000000000000e+00 0.0000000000000000e+00 0.0000000000000000e+00 
0.0000000000000000e+00 0.0000000000000000e+00 0.0000000000000000e+00 
2.0643522812133760e-05 0.0000000000000000e+00 -2.6353970445644840e-06 
3.7609877526834657e-05 0.0000000000000000e+00 -2.0445095715421711e-06 
3.7815123240354556e-05 0.0000000000000000e+00 -2.3006173505730856e-06 
2.0911526809052392e-05 0.0000000000000000e+00 -2.5933341809174630e-06 
0.0000000000000000e+00 0.0000000000000000e+00 0.0000000000000000e+00 
0.0000000000000000e+00 0.0000000000000000e+00 0.0000000000000000e+00 

VECTORS Forces0 float
6.6674930198485560e+00 -1.0614330002692826e-01 3.1888324780168178e+00 
1.3370445061442410e-01 4.9074325622711274e-04 -6.7445699756999752e-02 
9.8170925874838111e-03 3.2363543737273033e-04 -7.7098612608301545e-03 
6.4093758747271776e+00 -1.0272787097047548e-01 3.0669014010675948e+00 
-1.5228801156177525e+00 2.7917868050630467e-03 3.2324878816686001e-03 
5.2142840699936261e+00 4.6506346252936778e-03 -5.1442119790543847e-02 
5.2799159759033518e+00 4.7073986418274885e-03 -4.8913160732517398e-02 
-1.3917622519302835e+00 2.5864040001435957e-03 1.3933897840297206e-02 
0.0000000000000000e+00 0.0000000000000000e+00 0.0000000000000000e+00 
0.0000000000000000e+00 0.0000000000000000e+00 0.0000000000000000e+00 
0.0000000000000000e+00 0.0000000000000000e+00 0.0000000000000000e+00 
0.0000000000000000e+00 0.0000000000000000e+00 0.0000000000000000e+00 
0.0000000000000000e+00 0.0000000000000000e+00 0.0000000000000000e+00 
0.0000000000000000e+00 0.0000000000000000e+00 0.0000000000000000e+00 
0.0000000000000000e+00 0.0000000000000000e+00 0.0000000000000000e+00 
0.0000000000000000e+00 0.0000000000000000e+00 0.0000000000000000e+00 
0.0000000000000000e+00 0.0000000000000000e+00 0.0000000000000000e+00 
0.0000000000000000e+00 0.0000000000000000e+00 0.0000000000000000e+00 
1.2633311263059199e+00 -4.7981887473820412e-05 -4.9975958984380521e-04 
2.2352811584677186e+00 2.5270452132656795e-05 -6.7018127524870932e-03 
2.2360545815264397e+00 2.6218285047430557e-05 -5.8197915417416788e-03 
1.2609346143233613e+00 -4.7604151027434598e-05 9.3069272582936352e-06 
0.0000000000000000e+00 0.0000000000000000e+00 0.0000000000000000e+00 
0.0000000000000000e+00 0.0000000000000000e+00 0.0000000000000000e+00 
0.0000000000000000e+00 0.0000000000000000e+00 0.0000000000000000e+00 
0.0000000000000000e+00 0.0000000000000000e+00 0.0000000000000000e+00 
0.0000000000000000e+00 0.0000000000000000e+00 0.0000000000000000e+00 
0.0000000000000000e+00 0.0000000000000000e+00 0.0000000000000000e+00 
9.3643157010292621e-01 -2.4942697061483011e-05 -3.5294139313990817e-04 
2.8994192410460835e+00 -6.8358735243567132e-05 1.8963788846651868e-03 
2.9051428502919090e+00 -6.8412416425594021e-05 1.7412285073003901e-03 
9.3101404749986960e-01 -2.4914200245846810e-05 -4.3852218718971002e-04 
0.0000000000000000e+00 0.0000000000000000e+00 0.0000000000000000e+00 
0.0000000000000000e+00 0.0000000000000000e+00 0.0000000000000000e+00 
0.0000000000000000e+00 0.0000000000000000e+00 0.0000000000000000e+00 
0.0000000000000000e+00 0.0000000000000000e+00 0.0000000000000000e+00 
0.0000000000000000e+00 0.0000000000000000e+00 0.0000000000000000e+00 
0.0000000000000000e+00 0.0000000000000000e+00 0.0000000000000000e+00 
6.8438351209641413e-01 4.5095578383988514e-06 -9.8120871932827177e-04 
4.1783738290269152e+00 1.2825797079024710e-05 -6.4256867666418107e-03 
4.1773054900935378e+00 1.2825892158013966e-05 -6.4380876109963042e-03 
6.7737806856972194e-01 4.5053509491839060e-06 -9.7275322746082863e-04 
0.0000000000000000e+00 0.0000000000000000e+00 0.0000000000000000e+00 
0.0000000000000000e+00 0.0000000000000000e+00 0.0000000000000000e+00 
0.0000000000000000e+00 0.0000000000000000e+00 0.0000000000000000e+00 
0.0000000000000000e+00 0.0000000000000000e+00 0.0000000000000000e+00 
0.0000000000000000e+00 0.0000000000000000e+00 0.0000000000000000e+00 
0.0000000000000000e+00 0.0000000000000000e+00 0.0000000000000000e+00 
4.8584667700425949e-01 1.0214915318431190e-06 -1.4529907818484002e-03 
1.7877694887675788e+00 2.5208930410533240e-06 -7.4646243238691914e-03 
1.7868920633391077e+00 2.5204848699062493e-06 -7.4536187061640131e-03 
4.8348066097999709e-01 1.0199637223351001e-06 -1.4429903375493471e-03 
0.0000000000000000e+00 0.0000000000000000e+00 0.0000000000000000e+00 
0.0000000000000000e+00 0.0000000000000000e+00 0.0000000000000000e+00 
0.0000000000000000e+00 0.0000000000000000e+00 0.0000000000000000e+00 
0.0000000000000000e+00 0.0000000000000000e+00 0.0000000000000000e+00 
0.0000000000000000e+00 0.0000000000000000e+00 0.0000000000000000e+00 
0.0000000000000000e+00 0.0000000000000000e+00 0.0000000000000000e+00 

