# vtk DataFile Version 2.0

ASCII

DATASET UNSTRUCTURED_GRID

POINTS 58 double 

5.0000000000000003e-02  0.0000000000000000e+00  1.0000000000000000e+00
-5.0000000000000003e-02  0.0000000000000000e+00  1.0000000000000000e+00
-5.0000000000000003e-02  2.9999999999999999e-01  1.0000000000000000e+00
5.0000000000000003e-02  2.9999999999999999e-01  1.0000000000000000e+00
5.0000000000000003e-02  0.0000000000000000e+00  8.0000000000000004e-01
-5.0000000000000003e-02  0.0000000000000000e+00  8.0000000000000004e-01
-5.0000000000000003e-02  2.9999999999999999e-01  8.0000000000000004e-01
5.0000000000000003e-02  2.9999999999999999e-01  8.0000000000000004e-01
0.0000000000000000e+00  0.0000000000000000e+00  1.0000000000000000e+00
-5.0000000000000003e-02  1.4999999999999999e-01  1.0000000000000000e+00
0.0000000000000000e+00  2.9999999999999999e-01  1.0000000000000000e+00
5.0000000000000003e-02  1.4999999999999999e-01  1.0000000000000000e+00
5.0000000000000003e-02  0.0000000000000000e+00  9.0000000000000002e-01
-5.0000000000000003e-02  0.0000000000000000e+00  9.0000000000000002e-01
-5.0000000000000003e-02  2.9999999999999999e-01  9.0000000000000002e-01
5.0000000000000003e-02  2.9999999999999999e-01  9.0000000000000002e-01
-5.0000000000000003e-02  1.4999999999999999e-01  8.0000000000000004e-01
5.0000000000000003e-02  1.4999999999999999e-01  8.0000000000000004e-01
5.0000000000000003e-02  0.0000000000000000e+00  5.9999999999999998e-01
-5.0000000000000003e-02  0.0000000000000000e+00  5.9999999999999998e-01
-5.0000000000000003e-02  2.9999999999999999e-01  5.9999999999999998e-01
5.0000000000000003e-02  2.9999999999999999e-01  5.9999999999999998e-01
5.0000000000000003e-02  0.0000000000000000e+00  6.9999999999999996e-01
-5.0000000000000003e-02  0.0000000000000000e+00  6.9999999999999996e-01
-5.0000000000000003e-02  2.9999999999999999e-01  6.9999999999999996e-01
5.0000000000000003e-02  2.9999999999999999e-01  6.9999999999999996e-01
-5.0000000000000003e-02  1.4999999999999999e-01  5.9999999999999998e-01
5.0000000000000003e-02  1.4999999999999999e-01  5.9999999999999998e-01
5.0000000000000003e-02  0.0000000000000000e+00  4.0000000000000002e-01
-5.0000000000000003e-02  0.0000000000000000e+00  4.0000000000000002e-01
-5.0000000000000003e-02  2.9999999999999999e-01  4.0000000000000002e-01
5.0000000000000003e-02  2.9999999999999999e-01  4.0000000000000002e-01
5.0000000000000003e-02  0.0000000000000000e+00  5.0000000000000000e-01
-5.0000000000000003e-02  0.0000000000000000e+00  5.0000000000000000e-01
-5.0000000000000003e-02  2.9999999999999999e-01  5.0000000000000000e-01
5.0000000000000003e-02  2.9999999999999999e-01  5.0000000000000000e-01
-5.0000000000000003e-02  1.4999999999999999e-01  4.0000000000000002e-01
5.0000000000000003e-02  1.4999999999999999e-01  4.0000000000000002e-01
5.0000000000000003e-02  0.0000000000000000e+00  2.0000000000000001e-01
-5.0000000000000003e-02  0.0000000000000000e+00  2.0000000000000001e-01
-5.0000000000000003e-02  2.9999999999999999e-01  2.0000000000000001e-01
5.0000000000000003e-02  2.9999999999999999e-01  2.0000000000000001e-01
5.0000000000000003e-02  0.0000000000000000e+00  2.9999999999999999e-01
-5.0000000000000003e-02  0.0000000000000000e+00  2.9999999999999999e-01
-5.0000000000000003e-02  2.9999999999999999e-01  2.9999999999999999e-01
5.0000000000000003e-02  2.9999999999999999e-01  2.9999999999999999e-01
-5.0000000000000003e-02  1.4999999999999999e-01  2.0000000000000001e-01
5.0000000000000003e-02  1.4999999999999999e-01  2.0000000000000001e-01
5.0000000000000003e-02  0.0000000000000000e+00  0.0000000000000000e+00
-5.0000000000000003e-02  0.0000000000000000e+00  0.0000000000000000e+00
-5.0000000000000003e-02  2.9999999999999999e-01  0.0000000000000000e+00
5.0000000000000003e-02  2.9999999999999999e-01  0.0000000000000000e+00
5.0000000000000003e-02  0.0000000000000000e+00  1.0000000000000001e-01
-5.0000000000000003e-02  0.0000000000000000e+00  1.0000000000000001e-01
-5.0000000000000003e-02  2.9999999999999999e-01  1.0000000000000001e-01
5.0000000000000003e-02  2.9999999999999999e-01  1.0000000000000001e-01
-5.0000000000000003e-02  1.4999999999999999e-01  0.0000000000000000e+00
5.0000000000000003e-02  1.4999999999999999e-01  0.0000000000000000e+00

CELLS 0 0


CELL_TYPES 0


POINT_DATA 58

VECTORS VertexNormals double

0.0000000000000000e+00 0.0000000000000000e+00 0.0000000000000000e+00 
0.0000000000000000e+00 0.0000000000000000e+00 0.0000000000000000e+00 
0.0000000000000000e+00 0.0000000000000000e+00 0.0000000000000000e+00 
0.0000000000000000e+00 0.0000000000000000e+00 0.0000000000000000e+00 
0.0000000000000000e+00 0.0000000000000000e+00 0.0000000000000000e+00 
0.0000000000000000e+00 0.0000000000000000e+00 0.0000000000000000e+00 
0.0000000000000000e+00 0.0000000000000000e+00 0.0000000000000000e+00 
0.0000000000000000e+00 0.0000000000000000e+00 0.0000000000000000e+00 
0.0000000000000000e+00 0.0000000000000000e+00 0.0000000000000000e+00 
0.0000000000000000e+00 0.0000000000000000e+00 0.0000000000000000e+00 
0.0000000000000000e+00 0.0000000000000000e+00 0.0000000000000000e+00 
0.0000000000000000e+00 0.0000000000000000e+00 0.0000000000000000e+00 
0.0000000000000000e+00 0.0000000000000000e+00 0.0000000000000000e+00 
0.0000000000000000e+00 0.0000000000000000e+00 0.0000000000000000e+00 
0.0000000000000000e+00 0.0000000000000000e+00 0.0000000000000000e+00 
0.0000000000000000e+00 0.0000000000000000e+00 0.0000000000000000e+00 
0.0000000000000000e+00 0.0000000000000000e+00 0.0000000000000000e+00 
0.0000000000000000e+00 0.0000000000000000e+00 0.0000000000000000e+00 
0.0000000000000000e+00 0.0000000000000000e+00 0.0000000000000000e+00 
0.0000000000000000e+00 0.0000000000000000e+00 0.0000000000000000e+00 
0.0000000000000000e+00 0.0000000000000000e+00 0.0000000000000000e+00 
0.0000000000000000e+00 0.0000000000000000e+00 0.0000000000000000e+00 
0.0000000000000000e+00 0.0000000000000000e+00 0.0000000000000000e+00 
0.0000000000000000e+00 0.0000000000000000e+00 0.0000000000000000e+00 
0.0000000000000000e+00 0.0000000000000000e+00 0.0000000000000000e+00 
0.0000000000000000e+00 0.0000000000000000e+00 0.0000000000000000e+00 
0.0000000000000000e+00 0.0000000000000000e+00 0.0000000000000000e+00 
0.0000000000000000e+00 0.0000000000000000e+00 0.0000000000000000e+00 
0.0000000000000000e+00 0.0000000000000000e+00 0.0000000000000000e+00 
0.0000000000000000e+00 0.0000000000000000e+00 0.0000000000000000e+00 
0.0000000000000000e+00 0.0000000000000000e+00 0.0000000000000000e+00 
0.0000000000000000e+00 0.0000000000000000e+00 0.0000000000000000e+00 
0.0000000000000000e+00 0.0000000000000000e+00 0.0000000000000000e+00 
0.0000000000000000e+00 0.0000000000000000e+00 0.0000000000000000e+00 
0.0000000000000000e+00 0.0000000000000000e+00 0.0000000000000000e+00 
0.0000000000000000e+00 0.0000000000000000e+00 0.0000000000000000e+00 
0.0000000000000000e+00 0.0000000000000000e+00 0.0000000000000000e+00 
0.0000000000000000e+00 0.0000000000000000e+00 0.0000000000000000e+00 
0.0000000000000000e+00 0.0000000000000000e+00 0.0000000000000000e+00 
0.0000000000000000e+00 0.0000000000000000e+00 0.0000000000000000e+00 
0.0000000000000000e+00 0.0000000000000000e+00 0.0000000000000000e+00 
0.0000000000000000e+00 0.0000000000000000e+00 0.0000000000000000e+00 
0.0000000000000000e+00 0.0000000000000000e+00 0.0000000000000000e+00 
0.0000000000000000e+00 0.0000000000000000e+00 0.0000000000000000e+00 
0.0000000000000000e+00 0.0000000000000000e+00 0.0000000000000000e+00 
0.0000000000000000e+00 0.0000000000000000e+00 0.0000000000000000e+00 
0.0000000000000000e+00 0.0000000000000000e+00 0.0000000000000000e+00 
0.0000000000000000e+00 0.0000000000000000e+00 0.0000000000000000e+00 
0.0000000000000000e+00 0.0000000000000000e+00 0.0000000000000000e+00 
0.0000000000000000e+00 0.0000000000000000e+00 0.0000000000000000e+00 
0.0000000000000000e+00 0.0000000000000000e+00 0.0000000000000000e+00 
0.0000000000000000e+00 0.0000000000000000e+00 0.0000000000000000e+00 
0.0000000000000000e+00 0.0000000000000000e+00 0.0000000000000000e+00 
0.0000000000000000e+00 0.0000000000000000e+00 0.0000000000000000e+00 
0.0000000000000000e+00 0.0000000000000000e+00 0.0000000000000000e+00 
0.0000000000000000e+00 0.0000000000000000e+00 0.0000000000000000e+00 
0.0000000000000000e+00 0.0000000000000000e+00 0.0000000000000000e+00 
0.0000000000000000e+00 0.0000000000000000e+00 0.0000000000000000e+00 

VECTORS DisplacementDeltas0 double
0.0000000000000000e+00 0.0000000000000000e+00 0.0000000000000000e+00 
6.8546523553054840e-03 0.0000000000000000e+00 8.0606523670609474e-05 
6.7028755381801364e-03 0.0000000000000000e+00 7.0511006148152484e-04 
7.3481420834614446e-03 0.0000000000000000e+00 -1.8328044047749715e-03 
2.5129012875645652e-03 0.0000000000000000e+00 -5.5296091691319068e-04 
3.1833865633837601e-03 0.0000000000000000e+00 6.3412974322795941e-04 
2.9945282062636834e-03 0.0000000000000000e+00 5.6874077264544120e-04 
2.3941960187524600e-03 0.0000000000000000e+00 -3.3064283353448484e-04 
7.0943652350553190e-03 0.0000000000000000e+00 -6.2521320122091559e-04 
7.0634707155700256e-03 0.0000000000000000e+00 1.7032986396496824e-04 
6.9840411893952372e-03 0.0000000000000000e+00 -5.7655244491927366e-04 
6.3847173637541672e-03 0.0000000000000000e+00 -1.4367688942192413e-03 
5.1313034005243657e-03 0.0000000000000000e+00 -1.3175371866057306e-03 
4.9757001776711577e-03 0.0000000000000000e+00 6.1890519488897616e-04 
4.7274675383267113e-03 0.0000000000000000e+00 5.5102306327770218e-04 
4.8266523157672195e-03 0.0000000000000000e+00 -1.1216241877138524e-03 
2.6513478655566598e-03 0.0000000000000000e+00 8.3518561183091667e-04 
2.4497533377644057e-03 0.0000000000000000e+00 -9.7665491881952391e-04 
5.2829015760008549e-04 0.0000000000000000e+00 -2.1346678851672668e-04 
3.4974170373241261e-04 0.0000000000000000e+00 5.2821189461715911e-04 
3.3090020217787510e-04 0.0000000000000000e+00 4.8500481638273429e-04 
4.8281666336377229e-04 0.0000000000000000e+00 -2.4858766501881203e-04 
1.1347334772737901e-03 0.0000000000000000e+00 -4.3997092340952856e-04 
1.2607592446670828e-03 0.0000000000000000e+00 6.2805540494933847e-04 
1.2185644287514635e-03 0.0000000000000000e+00 6.9965722546848027e-04 
1.0856452723548098e-03 0.0000000000000000e+00 -5.5489232316623539e-04 
3.8189131685555696e-04 0.0000000000000000e+00 2.4282278511038573e-04 
3.8699636071674415e-04 0.0000000000000000e+00 -2.1421395725577008e-04 
6.7737033750397751e-04 0.0000000000000000e+00 4.4147334973696590e-05 
5.2825865806453687e-04 0.0000000000000000e+00 -1.6332631516604676e-04 
5.0234881393717450e-04 0.0000000000000000e+00 -1.1085404608441303e-04 
6.8416752250047047e-04 0.0000000000000000e+00 9.7111082987370325e-06 
3.1645526362248147e-04 0.0000000000000000e+00 -1.7532947922850194e-05 
3.5244030463810509e-04 0.0000000000000000e+00 7.9187722276023075e-05 
3.9815721602716166e-04 0.0000000000000000e+00 -3.8353127644627510e-05 
3.8103306955027821e-04 0.0000000000000000e+00 -2.3281752958389265e-05 
2.5755646355935099e-04 0.0000000000000000e+00 -2.5043434805147003e-05 
3.6509460662688962e-04 0.0000000000000000e+00 7.9803085236345659e-05 
3.4823432271498841e-04 0.0000000000000000e+00 -6.5019929252940230e-05 
2.8302718280768754e-04 0.0000000000000000e+00 1.7378558185130152e-04 
2.9652486993721671e-04 0.0000000000000000e+00 1.5466885679809271e-04 
4.0734663381414890e-04 0.0000000000000000e+00 -6.2755400864861777e-05 
6.5444485073401786e-04 0.0000000000000000e+00 -2.5311950522303867e-05 
6.4476563560209293e-04 0.0000000000000000e+00 7.0351430252513648e-05 
6.2003892005615285e-04 0.0000000000000000e+00 5.5844395615014397e-05 
6.0652457353868464e-04 0.0000000000000000e+00 -3.9960444231102651e-05 
1.6833156756380170e-04 0.0000000000000000e+00 1.3525257609274598e-04 
2.3352012844476326e-04 0.0000000000000000e+00 -9.5004889932483460e-06 
0.0000000000000000e+00 0.0000000000000000e+00 0.0000000000000000e+00 
0.0000000000000000e+00 0.0000000000000000e+00 0.0000000000000000e+00 
0.0000000000000000e+00 0.0000000000000000e+00 0.0000000000000000e+00 
0.0000000000000000e+00 0.0000000000000000e+00 0.0000000000000000e+00 
1.1847582060357310e-04 0.0000000000000000e+00 4.3395227671387169e-05 
1.2721406010749987e-04 0.0000000000000000e+00 1.3126150314319714e-04 
1.3126744762264058e-04 0.0000000000000000e+00 1.6747062724396526e-04 
1.1646625826952981e-04 0.0000000000000000e+00 6.2188630584259581e-05 
0.0000000000000000e+00 0.0000000000000000e+00 0.0000000000000000e+00 
0.0000000000000000e+00 0.0000000000000000e+00 0.0000000000000000e+00 

VECTORS Forces0 double
7.3051899979144839e+00 -6.5818469413652025e-01 2.6022160064092130e+00 
-2.2973417758520612e-01 -5.5009963537344642e-04 1.1303049403948733e-01 
-8.4857687704601248e-01 -1.9051707199003072e-03 5.2027870583954083e-01 
6.3530016320324503e+00 -5.7663819937304184e-01 2.2483258643122026e+00 
-1.5101536383219425e+00 2.0477093287936097e-02 2.5733931094154675e-02 
2.4822791903281702e+00 6.3941894482058203e-03 -2.2675143205970066e-01 
2.7929064439215936e+00 7.1768174033461831e-03 -2.5234653069261498e-01 
-1.3472881037459723e+00 1.8393375732697066e-02 8.6643975693340591e-02 
0.0000000000000000e+00 0.0000000000000000e+00 0.0000000000000000e+00 
0.0000000000000000e+00 0.0000000000000000e+00 0.0000000000000000e+00 
0.0000000000000000e+00 0.0000000000000000e+00 0.0000000000000000e+00 
0.0000000000000000e+00 0.0000000000000000e+00 0.0000000000000000e+00 
0.0000000000000000e+00 0.0000000000000000e+00 0.0000000000000000e+00 
0.0000000000000000e+00 0.0000000000000000e+00 0.0000000000000000e+00 
0.0000000000000000e+00 0.0000000000000000e+00 0.0000000000000000e+00 
0.0000000000000000e+00 0.0000000000000000e+00 0.0000000000000000e+00 
0.0000000000000000e+00 0.0000000000000000e+00 0.0000000000000000e+00 
0.0000000000000000e+00 0.0000000000000000e+00 0.0000000000000000e+00 
1.5627080605837032e+00 4.6445681461175948e-04 -3.7890675253992832e-02 
1.9575248699686982e+00 4.6291085718134291e-04 -4.5623681525684648e-02 
1.8931872176879601e+00 4.4921970110554010e-04 -4.2191223921662108e-02 
1.6030604378603495e+00 4.7243805324891634e-04 -3.6960004034404519e-02 
0.0000000000000000e+00 0.0000000000000000e+00 0.0000000000000000e+00 
0.0000000000000000e+00 0.0000000000000000e+00 0.0000000000000000e+00 
0.0000000000000000e+00 0.0000000000000000e+00 0.0000000000000000e+00 
0.0000000000000000e+00 0.0000000000000000e+00 0.0000000000000000e+00 
0.0000000000000000e+00 0.0000000000000000e+00 0.0000000000000000e+00 
0.0000000000000000e+00 0.0000000000000000e+00 0.0000000000000000e+00 
1.0075262860155849e+00 1.1062274043287266e-04 1.1318444618203952e-03 
1.1623208357883152e+00 1.3421593089925896e-04 1.8237831714999005e-03 
1.1604893500743958e+00 1.3464135142538186e-04 1.7883905173960918e-03 
9.9175961528893275e-01 1.0969739001966543e-04 1.1626940111449874e-03 
0.0000000000000000e+00 0.0000000000000000e+00 0.0000000000000000e+00 
0.0000000000000000e+00 0.0000000000000000e+00 0.0000000000000000e+00 
0.0000000000000000e+00 0.0000000000000000e+00 0.0000000000000000e+00 
0.0000000000000000e+00 0.0000000000000000e+00 0.0000000000000000e+00 
0.0000000000000000e+00 0.0000000000000000e+00 0.0000000000000000e+00 
0.0000000000000000e+00 0.0000000000000000e+00 0.0000000000000000e+00 
7.7228490180854781e-01 -1.6392371450547186e-04 -8.9379605651600282e-03 
2.5958755774018845e+00 -1.9110044316584941e-04 -2.6854637166195544e-02 
2.5902286101670708e+00 -1.9052556648196879e-04 -2.6582947099828773e-02 
7.6291404444077948e-01 -1.6276926795766750e-04 -8.7680388703356340e-03 
0.0000000000000000e+00 0.0000000000000000e+00 0.0000000000000000e+00 
0.0000000000000000e+00 0.0000000000000000e+00 0.0000000000000000e+00 
0.0000000000000000e+00 0.0000000000000000e+00 0.0000000000000000e+00 
0.0000000000000000e+00 0.0000000000000000e+00 0.0000000000000000e+00 
0.0000000000000000e+00 0.0000000000000000e+00 0.0000000000000000e+00 
0.0000000000000000e+00 0.0000000000000000e+00 0.0000000000000000e+00 
5.4461836731388025e-01 -3.9437451105253916e-05 -8.8756305238855363e-03 
1.0514387805921497e+00 -3.4667940186018379e-05 -1.6524690456484824e-02 
1.0535666193509896e+00 -3.4723259752786276e-05 -1.6660803733453154e-02 
5.4685322163758776e-01 -3.9481875761329453e-05 -9.0261651110291954e-03 
0.0000000000000000e+00 0.0000000000000000e+00 0.0000000000000000e+00 
0.0000000000000000e+00 0.0000000000000000e+00 0.0000000000000000e+00 
0.0000000000000000e+00 0.0000000000000000e+00 0.0000000000000000e+00 
0.0000000000000000e+00 0.0000000000000000e+00 0.0000000000000000e+00 
0.0000000000000000e+00 0.0000000000000000e+00 0.0000000000000000e+00 
0.0000000000000000e+00 0.0000000000000000e+00 0.0000000000000000e+00 

