# vtk DataFile Version 2.0

ASCII

DATASET UNSTRUCTURED_GRID

POINTS 58 double 

5.0000000000000003e-02  0.0000000000000000e+00  1.0000000000000000e+00
-5.0000000000000003e-02  0.0000000000000000e+00  1.0000000000000000e+00
-5.0000000000000003e-02  2.9999999999999999e-01  1.0000000000000000e+00
5.0000000000000003e-02  2.9999999999999999e-01  1.0000000000000000e+00
5.0000000000000003e-02  0.0000000000000000e+00  8.0000000000000004e-01
-5.0000000000000003e-02  0.0000000000000000e+00  8.0000000000000004e-01
-5.0000000000000003e-02  2.9999999999999999e-01  8.0000000000000004e-01
5.0000000000000003e-02  2.9999999999999999e-01  8.0000000000000004e-01
0.0000000000000000e+00  0.0000000000000000e+00  1.0000000000000000e+00
-5.0000000000000003e-02  1.4999999999999999e-01  1.0000000000000000e+00
0.0000000000000000e+00  2.9999999999999999e-01  1.0000000000000000e+00
5.0000000000000003e-02  1.4999999999999999e-01  1.0000000000000000e+00
5.0000000000000003e-02  0.0000000000000000e+00  9.0000000000000002e-01
-5.0000000000000003e-02  0.0000000000000000e+00  9.0000000000000002e-01
-5.0000000000000003e-02  2.9999999999999999e-01  9.0000000000000002e-01
5.0000000000000003e-02  2.9999999999999999e-01  9.0000000000000002e-01
-5.0000000000000003e-02  1.4999999999999999e-01  8.0000000000000004e-01
5.0000000000000003e-02  1.4999999999999999e-01  8.0000000000000004e-01
5.0000000000000003e-02  0.0000000000000000e+00  5.9999999999999998e-01
-5.0000000000000003e-02  0.0000000000000000e+00  5.9999999999999998e-01
-5.0000000000000003e-02  2.9999999999999999e-01  5.9999999999999998e-01
5.0000000000000003e-02  2.9999999999999999e-01  5.9999999999999998e-01
5.0000000000000003e-02  0.0000000000000000e+00  6.9999999999999996e-01
-5.0000000000000003e-02  0.0000000000000000e+00  6.9999999999999996e-01
-5.0000000000000003e-02  2.9999999999999999e-01  6.9999999999999996e-01
5.0000000000000003e-02  2.9999999999999999e-01  6.9999999999999996e-01
-5.0000000000000003e-02  1.4999999999999999e-01  5.9999999999999998e-01
5.0000000000000003e-02  1.4999999999999999e-01  5.9999999999999998e-01
5.0000000000000003e-02  0.0000000000000000e+00  4.0000000000000002e-01
-5.0000000000000003e-02  0.0000000000000000e+00  4.0000000000000002e-01
-5.0000000000000003e-02  2.9999999999999999e-01  4.0000000000000002e-01
5.0000000000000003e-02  2.9999999999999999e-01  4.0000000000000002e-01
5.0000000000000003e-02  0.0000000000000000e+00  5.0000000000000000e-01
-5.0000000000000003e-02  0.0000000000000000e+00  5.0000000000000000e-01
-5.0000000000000003e-02  2.9999999999999999e-01  5.0000000000000000e-01
5.0000000000000003e-02  2.9999999999999999e-01  5.0000000000000000e-01
-5.0000000000000003e-02  1.4999999999999999e-01  4.0000000000000002e-01
5.0000000000000003e-02  1.4999999999999999e-01  4.0000000000000002e-01
5.0000000000000003e-02  0.0000000000000000e+00  2.0000000000000001e-01
-5.0000000000000003e-02  0.0000000000000000e+00  2.0000000000000001e-01
-5.0000000000000003e-02  2.9999999999999999e-01  2.0000000000000001e-01
5.0000000000000003e-02  2.9999999999999999e-01  2.0000000000000001e-01
5.0000000000000003e-02  0.0000000000000000e+00  2.9999999999999999e-01
-5.0000000000000003e-02  0.0000000000000000e+00  2.9999999999999999e-01
-5.0000000000000003e-02  2.9999999999999999e-01  2.9999999999999999e-01
5.0000000000000003e-02  2.9999999999999999e-01  2.9999999999999999e-01
-5.0000000000000003e-02  1.4999999999999999e-01  2.0000000000000001e-01
5.0000000000000003e-02  1.4999999999999999e-01  2.0000000000000001e-01
5.0000000000000003e-02  0.0000000000000000e+00  0.0000000000000000e+00
-5.0000000000000003e-02  0.0000000000000000e+00  0.0000000000000000e+00
-5.0000000000000003e-02  2.9999999999999999e-01  0.0000000000000000e+00
5.0000000000000003e-02  2.9999999999999999e-01  0.0000000000000000e+00
5.0000000000000003e-02  0.0000000000000000e+00  1.0000000000000001e-01
-5.0000000000000003e-02  0.0000000000000000e+00  1.0000000000000001e-01
-5.0000000000000003e-02  2.9999999999999999e-01  1.0000000000000001e-01
5.0000000000000003e-02  2.9999999999999999e-01  1.0000000000000001e-01
-5.0000000000000003e-02  1.4999999999999999e-01  0.0000000000000000e+00
5.0000000000000003e-02  1.4999999999999999e-01  0.0000000000000000e+00

CELLS 0 0


CELL_TYPES 0


POINT_DATA 58

VECTORS VertexNormals double

0.0000000000000000e+00 0.0000000000000000e+00 0.0000000000000000e+00 
0.0000000000000000e+00 0.0000000000000000e+00 0.0000000000000000e+00 
0.0000000000000000e+00 0.0000000000000000e+00 0.0000000000000000e+00 
0.0000000000000000e+00 0.0000000000000000e+00 0.0000000000000000e+00 
0.0000000000000000e+00 0.0000000000000000e+00 0.0000000000000000e+00 
0.0000000000000000e+00 0.0000000000000000e+00 0.0000000000000000e+00 
0.0000000000000000e+00 0.0000000000000000e+00 0.0000000000000000e+00 
0.0000000000000000e+00 0.0000000000000000e+00 0.0000000000000000e+00 
0.0000000000000000e+00 0.0000000000000000e+00 0.0000000000000000e+00 
0.0000000000000000e+00 0.0000000000000000e+00 0.0000000000000000e+00 
0.0000000000000000e+00 0.0000000000000000e+00 0.0000000000000000e+00 
0.0000000000000000e+00 0.0000000000000000e+00 0.0000000000000000e+00 
0.0000000000000000e+00 0.0000000000000000e+00 0.0000000000000000e+00 
0.0000000000000000e+00 0.0000000000000000e+00 0.0000000000000000e+00 
0.0000000000000000e+00 0.0000000000000000e+00 0.0000000000000000e+00 
0.0000000000000000e+00 0.0000000000000000e+00 0.0000000000000000e+00 
0.0000000000000000e+00 0.0000000000000000e+00 0.0000000000000000e+00 
0.0000000000000000e+00 0.0000000000000000e+00 0.0000000000000000e+00 
0.0000000000000000e+00 0.0000000000000000e+00 0.0000000000000000e+00 
0.0000000000000000e+00 0.0000000000000000e+00 0.0000000000000000e+00 
0.0000000000000000e+00 0.0000000000000000e+00 0.0000000000000000e+00 
0.0000000000000000e+00 0.0000000000000000e+00 0.0000000000000000e+00 
0.0000000000000000e+00 0.0000000000000000e+00 0.0000000000000000e+00 
0.0000000000000000e+00 0.0000000000000000e+00 0.0000000000000000e+00 
0.0000000000000000e+00 0.0000000000000000e+00 0.0000000000000000e+00 
0.0000000000000000e+00 0.0000000000000000e+00 0.0000000000000000e+00 
0.0000000000000000e+00 0.0000000000000000e+00 0.0000000000000000e+00 
0.0000000000000000e+00 0.0000000000000000e+00 0.0000000000000000e+00 
0.0000000000000000e+00 0.0000000000000000e+00 0.0000000000000000e+00 
0.0000000000000000e+00 0.0000000000000000e+00 0.0000000000000000e+00 
0.0000000000000000e+00 0.0000000000000000e+00 0.0000000000000000e+00 
0.0000000000000000e+00 0.0000000000000000e+00 0.0000000000000000e+00 
0.0000000000000000e+00 0.0000000000000000e+00 0.0000000000000000e+00 
0.0000000000000000e+00 0.0000000000000000e+00 0.0000000000000000e+00 
0.0000000000000000e+00 0.0000000000000000e+00 0.0000000000000000e+00 
0.0000000000000000e+00 0.0000000000000000e+00 0.0000000000000000e+00 
0.0000000000000000e+00 0.0000000000000000e+00 0.0000000000000000e+00 
0.0000000000000000e+00 0.0000000000000000e+00 0.0000000000000000e+00 
0.0000000000000000e+00 0.0000000000000000e+00 0.0000000000000000e+00 
0.0000000000000000e+00 0.0000000000000000e+00 0.0000000000000000e+00 
0.0000000000000000e+00 0.0000000000000000e+00 0.0000000000000000e+00 
0.0000000000000000e+00 0.0000000000000000e+00 0.0000000000000000e+00 
0.0000000000000000e+00 0.0000000000000000e+00 0.0000000000000000e+00 
0.0000000000000000e+00 0.0000000000000000e+00 0.0000000000000000e+00 
0.0000000000000000e+00 0.0000000000000000e+00 0.0000000000000000e+00 
0.0000000000000000e+00 0.0000000000000000e+00 0.0000000000000000e+00 
0.0000000000000000e+00 0.0000000000000000e+00 0.0000000000000000e+00 
0.0000000000000000e+00 0.0000000000000000e+00 0.0000000000000000e+00 
0.0000000000000000e+00 0.0000000000000000e+00 0.0000000000000000e+00 
0.0000000000000000e+00 0.0000000000000000e+00 0.0000000000000000e+00 
0.0000000000000000e+00 0.0000000000000000e+00 0.0000000000000000e+00 
0.0000000000000000e+00 0.0000000000000000e+00 0.0000000000000000e+00 
0.0000000000000000e+00 0.0000000000000000e+00 0.0000000000000000e+00 
0.0000000000000000e+00 0.0000000000000000e+00 0.0000000000000000e+00 
0.0000000000000000e+00 0.0000000000000000e+00 0.0000000000000000e+00 
0.0000000000000000e+00 0.0000000000000000e+00 0.0000000000000000e+00 
0.0000000000000000e+00 0.0000000000000000e+00 0.0000000000000000e+00 
0.0000000000000000e+00 0.0000000000000000e+00 0.0000000000000000e+00 

VECTORS DisplacementDeltas0 double
0.0000000000000000e+00 0.0000000000000000e+00 0.0000000000000000e+00 
-2.3261683059564081e-02 0.0000000000000000e+00 -7.1121334382854062e-02 
-2.6819284283795708e-02 0.0000000000000000e+00 -7.0836258623179660e-02 
-2.6369974231055707e-02 0.0000000000000000e+00 -6.9269943201619943e-02 
-1.9479341700700870e-02 0.0000000000000000e+00 -7.1760987480646965e-02 
-2.0944457599466532e-02 0.0000000000000000e+00 -7.5811413518855730e-02 
-2.1438272811538317e-02 0.0000000000000000e+00 -7.6078169623249092e-02 
-1.8847386093438695e-02 0.0000000000000000e+00 -7.0692325960889424e-02 
-2.4431852033082679e-02 0.0000000000000000e+00 -7.1042816785720331e-02 
-2.7198497988483644e-02 0.0000000000000000e+00 -7.2006306079610782e-02 
-2.6608449972122250e-02 0.0000000000000000e+00 -6.9922097753171819e-02 
-2.6108721221583253e-02 0.0000000000000000e+00 -6.9199964594727659e-02 
-2.2516436390943806e-02 0.0000000000000000e+00 -7.0859708950035682e-02 
-2.3500158046005720e-02 0.0000000000000000e+00 -7.3248221974623884e-02 
-2.4651079879974169e-02 0.0000000000000000e+00 -7.2828712192683165e-02 
-2.3702101845099188e-02 0.0000000000000000e+00 -6.9796036575765275e-02 
-2.0198849495683402e-02 0.0000000000000000e+00 -7.6312247217554530e-02 
-1.8024932061648596e-02 0.0000000000000000e+00 -7.1799872838655243e-02 
2.8197661686219788e-03 0.0000000000000000e+00 -7.2273032388220138e-02 
-1.3219045370689575e-03 0.0000000000000000e+00 -8.4170377078207737e-02 
-8.7553163695733294e-04 0.0000000000000000e+00 -8.4499655656011891e-02 
3.1895476500815867e-03 0.0000000000000000e+00 -7.2800695929948339e-02 
-1.0710086833916693e-02 0.0000000000000000e+00 -7.2660071524034919e-02 
-1.4099701125325437e-02 0.0000000000000000e+00 -8.0242456046143940e-02 
-1.3626734349220015e-02 0.0000000000000000e+00 -8.0748006584791143e-02 
-1.0189613965377597e-02 0.0000000000000000e+00 -7.2558751284098666e-02 
4.5451858200318274e-05 0.0000000000000000e+00 -8.4210298202181844e-02 
2.3580470663860931e-03 0.0000000000000000e+00 -7.1410450554232424e-02 
3.3581112875133518e-02 0.0000000000000000e+00 -4.9895246143416137e-02 
4.0772234195026097e-02 0.0000000000000000e+00 -6.9624373197600203e-02 
4.0997451573632104e-02 0.0000000000000000e+00 -6.9568132438546010e-02 
3.3620310026132763e-02 0.0000000000000000e+00 -4.9879781074498739e-02 
1.8388401656000530e-02 0.0000000000000000e+00 -6.4997176375373125e-02 
2.0155013635249325e-02 0.0000000000000000e+00 -8.2966236349367575e-02 
2.0493168966213837e-02 0.0000000000000000e+00 -8.3086773350030715e-02 
1.8670158848474935e-02 0.0000000000000000e+00 -6.5218247597298371e-02 
4.0516648040378633e-02 0.0000000000000000e+00 -6.8871294712914630e-02 
2.8465218345152893e-02 0.0000000000000000e+00 -5.4240442708839216e-02 
1.3466212032431670e-02 0.0000000000000000e+00 -1.7515196519733982e-02 
3.4872299261865664e-02 0.0000000000000000e+00 -1.7454946756454467e-02 
3.4920937488170788e-02 0.0000000000000000e+00 -1.7459732310433781e-02 
1.3642834986884175e-02 0.0000000000000000e+00 -1.7495330201778441e-02 
2.6663593287675515e-02 0.0000000000000000e+00 -3.6921975703479881e-02 
4.6621621590960810e-02 0.0000000000000000e+00 -4.3061593375218921e-02 
4.6743613476625132e-02 0.0000000000000000e+00 -4.2979038677547529e-02 
2.6660700307924320e-02 0.0000000000000000e+00 -3.6903669116881727e-02 
3.4699910550635267e-02 0.0000000000000000e+00 -1.7649825762057935e-02 
1.6668352701760702e-02 0.0000000000000000e+00 -2.1977810743246499e-02 
0.0000000000000000e+00 0.0000000000000000e+00 0.0000000000000000e+00 
0.0000000000000000e+00 0.0000000000000000e+00 0.0000000000000000e+00 
0.0000000000000000e+00 0.0000000000000000e+00 0.0000000000000000e+00 
0.0000000000000000e+00 0.0000000000000000e+00 0.0000000000000000e+00 
5.4002154889140480e-03 0.0000000000000000e+00 -9.3582762273747028e-03 
1.5965483854296976e-02 0.0000000000000000e+00 -1.3982505306179872e-03 
1.5966265744438331e-02 0.0000000000000000e+00 -1.3032083834507938e-03 
5.4180018706839065e-03 0.0000000000000000e+00 -9.2169198980870254e-03 
0.0000000000000000e+00 0.0000000000000000e+00 0.0000000000000000e+00 
0.0000000000000000e+00 0.0000000000000000e+00 0.0000000000000000e+00 

VECTORS Forces0 double
7.1335018762514464e+00 -1.7734373327652162e+00 3.6332192912225059e-01 
5.1759819384083791e+01 5.8276321490750496e+00 1.6184557529409247e+01 
1.6314690571998174e+01 8.4180549939512730e+00 1.6671322803445804e+01 
1.2947471652150877e+01 -3.6863655300390330e+00 4.6532168236628713e-01 
-1.3487221373420070e+01 -2.3582496230397658e+00 -5.6081351871648275e+00 
-2.8768876314175195e+01 2.7351265081269838e-02 1.0136794464045776e+01 
-2.9206792775291767e+01 2.5135605182535083e-02 1.0489269464638047e+01 
-8.9061682879333715e-01 3.4881513540002920e+00 5.4724380842460620e+00 
0.0000000000000000e+00 0.0000000000000000e+00 0.0000000000000000e+00 
0.0000000000000000e+00 0.0000000000000000e+00 0.0000000000000000e+00 
0.0000000000000000e+00 0.0000000000000000e+00 0.0000000000000000e+00 
0.0000000000000000e+00 0.0000000000000000e+00 0.0000000000000000e+00 
0.0000000000000000e+00 0.0000000000000000e+00 0.0000000000000000e+00 
0.0000000000000000e+00 0.0000000000000000e+00 0.0000000000000000e+00 
0.0000000000000000e+00 0.0000000000000000e+00 0.0000000000000000e+00 
0.0000000000000000e+00 0.0000000000000000e+00 0.0000000000000000e+00 
0.0000000000000000e+00 0.0000000000000000e+00 0.0000000000000000e+00 
0.0000000000000000e+00 0.0000000000000000e+00 0.0000000000000000e+00 
5.8821230215260023e+01 -2.6387538439716707e-01 -3.3332978040923154e+00 
-2.4821160277298144e+01 1.3922729956519514e-01 9.1568424601204068e-02 
-2.2216277303902476e+01 1.2479074270782585e-01 -9.4070013333695579e-02 
6.1376817540902849e+01 -2.7597454996836868e-01 -3.7090154851586212e+00 
0.0000000000000000e+00 0.0000000000000000e+00 0.0000000000000000e+00 
0.0000000000000000e+00 0.0000000000000000e+00 0.0000000000000000e+00 
0.0000000000000000e+00 0.0000000000000000e+00 0.0000000000000000e+00 
0.0000000000000000e+00 0.0000000000000000e+00 0.0000000000000000e+00 
0.0000000000000000e+00 0.0000000000000000e+00 0.0000000000000000e+00 
0.0000000000000000e+00 0.0000000000000000e+00 0.0000000000000000e+00 
8.7133665170942535e+01 -2.8706761365249250e-01 1.1554902042804213e+02 
5.8011816343600788e+00 -2.3472140483815768e-02 5.8573331090210603e+00 
6.2049005531724273e+00 -2.5369414436214946e-02 6.3962008264888865e+00 
8.5763648738306543e+01 -2.8467094288682149e-01 1.1509231614585468e+02 
0.0000000000000000e+00 0.0000000000000000e+00 0.0000000000000000e+00 
0.0000000000000000e+00 0.0000000000000000e+00 0.0000000000000000e+00 
0.0000000000000000e+00 0.0000000000000000e+00 0.0000000000000000e+00 
0.0000000000000000e+00 0.0000000000000000e+00 0.0000000000000000e+00 
0.0000000000000000e+00 0.0000000000000000e+00 0.0000000000000000e+00 
0.0000000000000000e+00 0.0000000000000000e+00 0.0000000000000000e+00 
-5.6103069876796944e+01 -6.4643194938067611e-02 1.1272632053340867e+02 
-1.2149271283195988e+00 -1.4978210472952973e-03 2.4174217269954004e+00 
-1.1154279557793298e+00 -1.3308954699984825e-03 2.1002273121576578e+00 
-5.6355600852525662e+01 -6.4973872302687072e-02 1.1333191261519637e+02 
0.0000000000000000e+00 0.0000000000000000e+00 0.0000000000000000e+00 
0.0000000000000000e+00 0.0000000000000000e+00 0.0000000000000000e+00 
0.0000000000000000e+00 0.0000000000000000e+00 0.0000000000000000e+00 
0.0000000000000000e+00 0.0000000000000000e+00 0.0000000000000000e+00 
0.0000000000000000e+00 0.0000000000000000e+00 0.0000000000000000e+00 
0.0000000000000000e+00 0.0000000000000000e+00 0.0000000000000000e+00 
-6.1683772920842792e+01 -9.6083743934549052e-03 5.1282180345719077e+01 
3.5892973432300446e+00 3.6798924645025771e-04 -3.5083658816350578e+00 
3.5850003636311278e+00 3.6783910271575399e-04 -3.5002380282638761e+00 
-6.1547371599740693e+01 -9.5798048187466390e-03 5.1129691948900053e+01 
0.0000000000000000e+00 0.0000000000000000e+00 0.0000000000000000e+00 
0.0000000000000000e+00 0.0000000000000000e+00 0.0000000000000000e+00 
0.0000000000000000e+00 0.0000000000000000e+00 0.0000000000000000e+00 
0.0000000000000000e+00 0.0000000000000000e+00 0.0000000000000000e+00 
0.0000000000000000e+00 0.0000000000000000e+00 0.0000000000000000e+00 
0.0000000000000000e+00 0.0000000000000000e+00 0.0000000000000000e+00 

