# vtk DataFile Version 2.0

ASCII

DATASET UNSTRUCTURED_GRID

POINTS 58 double 

5.0000000000000003e-02  0.0000000000000000e+00  1.0000000000000000e+00
-5.0000000000000003e-02  0.0000000000000000e+00  1.0000000000000000e+00
-5.0000000000000003e-02  2.9999999999999999e-01  1.0000000000000000e+00
5.0000000000000003e-02  2.9999999999999999e-01  1.0000000000000000e+00
5.0000000000000003e-02  0.0000000000000000e+00  8.0000000000000004e-01
-5.0000000000000003e-02  0.0000000000000000e+00  8.0000000000000004e-01
-5.0000000000000003e-02  2.9999999999999999e-01  8.0000000000000004e-01
5.0000000000000003e-02  2.9999999999999999e-01  8.0000000000000004e-01
0.0000000000000000e+00  0.0000000000000000e+00  1.0000000000000000e+00
-5.0000000000000003e-02  1.4999999999999999e-01  1.0000000000000000e+00
0.0000000000000000e+00  2.9999999999999999e-01  1.0000000000000000e+00
5.0000000000000003e-02  1.4999999999999999e-01  1.0000000000000000e+00
5.0000000000000003e-02  0.0000000000000000e+00  9.0000000000000002e-01
-5.0000000000000003e-02  0.0000000000000000e+00  9.0000000000000002e-01
-5.0000000000000003e-02  2.9999999999999999e-01  9.0000000000000002e-01
5.0000000000000003e-02  2.9999999999999999e-01  9.0000000000000002e-01
-5.0000000000000003e-02  1.4999999999999999e-01  8.0000000000000004e-01
5.0000000000000003e-02  1.4999999999999999e-01  8.0000000000000004e-01
5.0000000000000003e-02  0.0000000000000000e+00  5.9999999999999998e-01
-5.0000000000000003e-02  0.0000000000000000e+00  5.9999999999999998e-01
-5.0000000000000003e-02  2.9999999999999999e-01  5.9999999999999998e-01
5.0000000000000003e-02  2.9999999999999999e-01  5.9999999999999998e-01
5.0000000000000003e-02  0.0000000000000000e+00  6.9999999999999996e-01
-5.0000000000000003e-02  0.0000000000000000e+00  6.9999999999999996e-01
-5.0000000000000003e-02  2.9999999999999999e-01  6.9999999999999996e-01
5.0000000000000003e-02  2.9999999999999999e-01  6.9999999999999996e-01
-5.0000000000000003e-02  1.4999999999999999e-01  5.9999999999999998e-01
5.0000000000000003e-02  1.4999999999999999e-01  5.9999999999999998e-01
5.0000000000000003e-02  0.0000000000000000e+00  4.0000000000000002e-01
-5.0000000000000003e-02  0.0000000000000000e+00  4.0000000000000002e-01
-5.0000000000000003e-02  2.9999999999999999e-01  4.0000000000000002e-01
5.0000000000000003e-02  2.9999999999999999e-01  4.0000000000000002e-01
5.0000000000000003e-02  0.0000000000000000e+00  5.0000000000000000e-01
-5.0000000000000003e-02  0.0000000000000000e+00  5.0000000000000000e-01
-5.0000000000000003e-02  2.9999999999999999e-01  5.0000000000000000e-01
5.0000000000000003e-02  2.9999999999999999e-01  5.0000000000000000e-01
-5.0000000000000003e-02  1.4999999999999999e-01  4.0000000000000002e-01
5.0000000000000003e-02  1.4999999999999999e-01  4.0000000000000002e-01
5.0000000000000003e-02  0.0000000000000000e+00  2.0000000000000001e-01
-5.0000000000000003e-02  0.0000000000000000e+00  2.0000000000000001e-01
-5.0000000000000003e-02  2.9999999999999999e-01  2.0000000000000001e-01
5.0000000000000003e-02  2.9999999999999999e-01  2.0000000000000001e-01
5.0000000000000003e-02  0.0000000000000000e+00  2.9999999999999999e-01
-5.0000000000000003e-02  0.0000000000000000e+00  2.9999999999999999e-01
-5.0000000000000003e-02  2.9999999999999999e-01  2.9999999999999999e-01
5.0000000000000003e-02  2.9999999999999999e-01  2.9999999999999999e-01
-5.0000000000000003e-02  1.4999999999999999e-01  2.0000000000000001e-01
5.0000000000000003e-02  1.4999999999999999e-01  2.0000000000000001e-01
5.0000000000000003e-02  0.0000000000000000e+00  0.0000000000000000e+00
-5.0000000000000003e-02  0.0000000000000000e+00  0.0000000000000000e+00
-5.0000000000000003e-02  2.9999999999999999e-01  0.0000000000000000e+00
5.0000000000000003e-02  2.9999999999999999e-01  0.0000000000000000e+00
5.0000000000000003e-02  0.0000000000000000e+00  1.0000000000000001e-01
-5.0000000000000003e-02  0.0000000000000000e+00  1.0000000000000001e-01
-5.0000000000000003e-02  2.9999999999999999e-01  1.0000000000000001e-01
5.0000000000000003e-02  2.9999999999999999e-01  1.0000000000000001e-01
-5.0000000000000003e-02  1.4999999999999999e-01  0.0000000000000000e+00
5.0000000000000003e-02  1.4999999999999999e-01  0.0000000000000000e+00

CELLS 0 0


CELL_TYPES 0


POINT_DATA 58

VECTORS VertexNormals double

0.0000000000000000e+00 0.0000000000000000e+00 0.0000000000000000e+00 
0.0000000000000000e+00 0.0000000000000000e+00 0.0000000000000000e+00 
0.0000000000000000e+00 0.0000000000000000e+00 0.0000000000000000e+00 
0.0000000000000000e+00 0.0000000000000000e+00 0.0000000000000000e+00 
0.0000000000000000e+00 0.0000000000000000e+00 0.0000000000000000e+00 
0.0000000000000000e+00 0.0000000000000000e+00 0.0000000000000000e+00 
0.0000000000000000e+00 0.0000000000000000e+00 0.0000000000000000e+00 
0.0000000000000000e+00 0.0000000000000000e+00 0.0000000000000000e+00 
0.0000000000000000e+00 0.0000000000000000e+00 0.0000000000000000e+00 
0.0000000000000000e+00 0.0000000000000000e+00 0.0000000000000000e+00 
0.0000000000000000e+00 0.0000000000000000e+00 0.0000000000000000e+00 
0.0000000000000000e+00 0.0000000000000000e+00 0.0000000000000000e+00 
0.0000000000000000e+00 0.0000000000000000e+00 0.0000000000000000e+00 
0.0000000000000000e+00 0.0000000000000000e+00 0.0000000000000000e+00 
0.0000000000000000e+00 0.0000000000000000e+00 0.0000000000000000e+00 
0.0000000000000000e+00 0.0000000000000000e+00 0.0000000000000000e+00 
0.0000000000000000e+00 0.0000000000000000e+00 0.0000000000000000e+00 
0.0000000000000000e+00 0.0000000000000000e+00 0.0000000000000000e+00 
0.0000000000000000e+00 0.0000000000000000e+00 0.0000000000000000e+00 
0.0000000000000000e+00 0.0000000000000000e+00 0.0000000000000000e+00 
0.0000000000000000e+00 0.0000000000000000e+00 0.0000000000000000e+00 
0.0000000000000000e+00 0.0000000000000000e+00 0.0000000000000000e+00 
0.0000000000000000e+00 0.0000000000000000e+00 0.0000000000000000e+00 
0.0000000000000000e+00 0.0000000000000000e+00 0.0000000000000000e+00 
0.0000000000000000e+00 0.0000000000000000e+00 0.0000000000000000e+00 
0.0000000000000000e+00 0.0000000000000000e+00 0.0000000000000000e+00 
0.0000000000000000e+00 0.0000000000000000e+00 0.0000000000000000e+00 
0.0000000000000000e+00 0.0000000000000000e+00 0.0000000000000000e+00 
0.0000000000000000e+00 0.0000000000000000e+00 0.0000000000000000e+00 
0.0000000000000000e+00 0.0000000000000000e+00 0.0000000000000000e+00 
0.0000000000000000e+00 0.0000000000000000e+00 0.0000000000000000e+00 
0.0000000000000000e+00 0.0000000000000000e+00 0.0000000000000000e+00 
0.0000000000000000e+00 0.0000000000000000e+00 0.0000000000000000e+00 
0.0000000000000000e+00 0.0000000000000000e+00 0.0000000000000000e+00 
0.0000000000000000e+00 0.0000000000000000e+00 0.0000000000000000e+00 
0.0000000000000000e+00 0.0000000000000000e+00 0.0000000000000000e+00 
0.0000000000000000e+00 0.0000000000000000e+00 0.0000000000000000e+00 
0.0000000000000000e+00 0.0000000000000000e+00 0.0000000000000000e+00 
0.0000000000000000e+00 0.0000000000000000e+00 0.0000000000000000e+00 
0.0000000000000000e+00 0.0000000000000000e+00 0.0000000000000000e+00 
0.0000000000000000e+00 0.0000000000000000e+00 0.0000000000000000e+00 
0.0000000000000000e+00 0.0000000000000000e+00 0.0000000000000000e+00 
0.0000000000000000e+00 0.0000000000000000e+00 0.0000000000000000e+00 
0.0000000000000000e+00 0.0000000000000000e+00 0.0000000000000000e+00 
0.0000000000000000e+00 0.0000000000000000e+00 0.0000000000000000e+00 
0.0000000000000000e+00 0.0000000000000000e+00 0.0000000000000000e+00 
0.0000000000000000e+00 0.0000000000000000e+00 0.0000000000000000e+00 
0.0000000000000000e+00 0.0000000000000000e+00 0.0000000000000000e+00 
0.0000000000000000e+00 0.0000000000000000e+00 0.0000000000000000e+00 
0.0000000000000000e+00 0.0000000000000000e+00 0.0000000000000000e+00 
0.0000000000000000e+00 0.0000000000000000e+00 0.0000000000000000e+00 
0.0000000000000000e+00 0.0000000000000000e+00 0.0000000000000000e+00 
0.0000000000000000e+00 0.0000000000000000e+00 0.0000000000000000e+00 
0.0000000000000000e+00 0.0000000000000000e+00 0.0000000000000000e+00 
0.0000000000000000e+00 0.0000000000000000e+00 0.0000000000000000e+00 
0.0000000000000000e+00 0.0000000000000000e+00 0.0000000000000000e+00 
0.0000000000000000e+00 0.0000000000000000e+00 0.0000000000000000e+00 
0.0000000000000000e+00 0.0000000000000000e+00 0.0000000000000000e+00 

VECTORS DisplacementDeltas0 double
0.0000000000000000e+00 0.0000000000000000e+00 0.0000000000000000e+00 
4.0219441257200755e-02 0.0000000000000000e+00 -5.4888613030348102e-02 
4.0256310462108758e-02 0.0000000000000000e+00 -5.4119626639228327e-02 
2.3700285276697070e-02 0.0000000000000000e+00 -5.3938545801100329e-02 
2.0619381776662588e-02 0.0000000000000000e+00 -2.2056323321627602e-02 
3.4545690466125184e-02 0.0000000000000000e+00 -2.0696402244415688e-02 
3.5276348003134561e-02 0.0000000000000000e+00 -1.9328129759640027e-02 
2.1227446844712144e-02 0.0000000000000000e+00 -2.1279402694817831e-02 
3.1910449693852649e-02 0.0000000000000000e+00 -5.5511515658817956e-02 
3.9470862522774430e-02 0.0000000000000000e+00 -5.5050162667016324e-02 
3.2054035371868461e-02 0.0000000000000000e+00 -5.4148745631462263e-02 
2.3110157232776818e-02 0.0000000000000000e+00 -5.5867645315505352e-02 
2.1719744684724721e-02 0.0000000000000000e+00 -3.8565265259958625e-02 
3.7661597131783714e-02 0.0000000000000000e+00 -3.8155805091635242e-02 
3.8805070664040237e-02 0.0000000000000000e+00 -3.6972816308608880e-02 
2.3149886771036313e-02 0.0000000000000000e+00 -3.7391033679484618e-02 
3.5003113525511859e-02 0.0000000000000000e+00 -2.0319050414164173e-02 
2.1005945552450812e-02 0.0000000000000000e+00 -2.1732909866227404e-02 
8.3498629529536791e-03 0.0000000000000000e+00 -2.2254327774308040e-03 
1.4924243115560643e-02 0.0000000000000000e+00 5.4649976376801041e-03 
1.4833485750516783e-02 0.0000000000000000e+00 5.5760708981716176e-03 
8.4952470873226205e-03 0.0000000000000000e+00 -2.1642303795861764e-03 
1.5844950506615142e-02 0.0000000000000000e+00 -1.0289743118585652e-02 
2.7307043920569603e-02 0.0000000000000000e+00 -4.4673553085828998e-03 
2.7085386976371924e-02 0.0000000000000000e+00 -3.7507037031727728e-03 
1.6018466434152161e-02 0.0000000000000000e+00 -1.0043300537521262e-02 
1.5021356602879420e-02 0.0000000000000000e+00 5.7312867152198004e-03 
8.4284014616836187e-03 0.0000000000000000e+00 -1.9955060585281417e-03 
-1.9902211143696131e-03 0.0000000000000000e+00 2.5550009965558933e-03 
-1.0540416495761892e-03 0.0000000000000000e+00 5.3873650289920239e-03 
-1.1080289803939245e-03 0.0000000000000000e+00 5.2433975193475757e-03 
-1.9761204024711901e-03 0.0000000000000000e+00 2.6658798401002822e-03 
1.9982001175261662e-03 0.0000000000000000e+00 1.2162059062489213e-03 
4.3023847187344455e-03 0.0000000000000000e+00 7.2230560979681616e-03 
4.2800850024312265e-03 0.0000000000000000e+00 7.1730016730356437e-03 
1.9424954126081556e-03 0.0000000000000000e+00 1.2737175867851833e-03 
-1.1148051963027661e-03 0.0000000000000000e+00 5.1804349713003026e-03 
-1.9894836686109099e-03 0.0000000000000000e+00 2.7678435837822338e-03 
-1.8251828683008326e-03 0.0000000000000000e+00 2.4687404285605166e-03 
-1.2553316203219506e-03 0.0000000000000000e+00 1.3639907200245047e-03 
-1.3189036173237904e-03 0.0000000000000000e+00 1.4499730105220010e-03 
-1.8245496508969184e-03 0.0000000000000000e+00 2.3886987765021732e-03 
-2.7490197804311287e-03 0.0000000000000000e+00 2.8065034809735701e-03 
-2.2156346259875411e-03 0.0000000000000000e+00 2.9534943394354165e-03 
-2.1691028285164026e-03 0.0000000000000000e+00 2.9981799495560736e-03 
-2.7272688761846432e-03 0.0000000000000000e+00 2.7014275223350539e-03 
-1.2152216222914621e-03 0.0000000000000000e+00 1.3183647287273517e-03 
-1.6702941308864199e-03 0.0000000000000000e+00 2.1323424067984887e-03 
0.0000000000000000e+00 0.0000000000000000e+00 0.0000000000000000e+00 
0.0000000000000000e+00 0.0000000000000000e+00 0.0000000000000000e+00 
0.0000000000000000e+00 0.0000000000000000e+00 0.0000000000000000e+00 
0.0000000000000000e+00 0.0000000000000000e+00 0.0000000000000000e+00 
-6.6720486198799511e-04 0.0000000000000000e+00 1.2931525329788311e-03 
-2.3315104572193347e-04 0.0000000000000000e+00 5.4602680067810598e-04 
-2.1770593307437807e-04 0.0000000000000000e+00 4.5877891073752637e-04 
-6.7898443338163959e-04 0.0000000000000000e+00 1.3752090773649626e-03 
0.0000000000000000e+00 0.0000000000000000e+00 0.0000000000000000e+00 
0.0000000000000000e+00 0.0000000000000000e+00 0.0000000000000000e+00 

VECTORS Forces0 double
6.2379769664809159e-01 -2.0646316898120158e+00 -1.6160974710696754e+00 
4.0130939955374405e+00 8.5384632888392553e-01 2.1426953796737194e+00 
1.3424181575617436e-01 3.7532302003924697e-02 -3.8630649025632124e-01 
-3.9890405500474060e+00 1.0300631846735419e+01 7.9648017087218950e+00 
1.4855473895052724e+00 -2.4144345907792941e-01 -2.5657443888182158e-01 
-3.0034646347131986e+00 -3.3112848487682112e-01 1.2302074567685104e+01 
-2.7964716159079237e+00 -2.8693278143570816e-01 1.0605938772749575e+01 
1.5028639969192403e-02 9.2834589752293084e-03 5.9933380248381324e-02 
0.0000000000000000e+00 0.0000000000000000e+00 0.0000000000000000e+00 
0.0000000000000000e+00 0.0000000000000000e+00 0.0000000000000000e+00 
0.0000000000000000e+00 0.0000000000000000e+00 0.0000000000000000e+00 
0.0000000000000000e+00 0.0000000000000000e+00 0.0000000000000000e+00 
0.0000000000000000e+00 0.0000000000000000e+00 0.0000000000000000e+00 
0.0000000000000000e+00 0.0000000000000000e+00 0.0000000000000000e+00 
0.0000000000000000e+00 0.0000000000000000e+00 0.0000000000000000e+00 
0.0000000000000000e+00 0.0000000000000000e+00 0.0000000000000000e+00 
0.0000000000000000e+00 0.0000000000000000e+00 0.0000000000000000e+00 
0.0000000000000000e+00 0.0000000000000000e+00 0.0000000000000000e+00 
-1.1287825919671843e+00 -5.3893286683990042e-03 9.5334328217789732e-01 
3.3676597888390560e+00 2.2434058182659186e-02 -3.0072468537762669e+00 
3.3977335645079263e+00 2.2316027070355331e-02 -2.9524561651720536e+00 
7.7580798140088747e-01 2.7976257994657395e-03 -5.0179248033756496e-01 
0.0000000000000000e+00 0.0000000000000000e+00 0.0000000000000000e+00 
0.0000000000000000e+00 0.0000000000000000e+00 0.0000000000000000e+00 
0.0000000000000000e+00 0.0000000000000000e+00 0.0000000000000000e+00 
0.0000000000000000e+00 0.0000000000000000e+00 0.0000000000000000e+00 
0.0000000000000000e+00 0.0000000000000000e+00 0.0000000000000000e+00 
0.0000000000000000e+00 0.0000000000000000e+00 0.0000000000000000e+00 
7.0380331452776168e-01 -1.5251475158097828e-04 -8.2346626267061032e-02 
5.1340147976059942e+00 1.2479085724331766e-03 -7.7301854284240157e-01 
5.1410538157284966e+00 1.2464428306321669e-03 -7.7115435641717867e-01 
4.9351341510902491e-01 -1.0840972391049119e-04 -5.7506618153943971e-02 
0.0000000000000000e+00 0.0000000000000000e+00 0.0000000000000000e+00 
0.0000000000000000e+00 0.0000000000000000e+00 0.0000000000000000e+00 
0.0000000000000000e+00 0.0000000000000000e+00 0.0000000000000000e+00 
0.0000000000000000e+00 0.0000000000000000e+00 0.0000000000000000e+00 
0.0000000000000000e+00 0.0000000000000000e+00 0.0000000000000000e+00 
0.0000000000000000e+00 0.0000000000000000e+00 0.0000000000000000e+00 
-5.1655651247750090e-01 8.9419959350934595e-05 -1.0731405903718261e-02 
2.9858126651331292e+00 -1.7707263319222024e-04 2.8996898222239841e-02 
2.9986204117676141e+00 -1.7829043223601993e-04 2.9240115164274102e-02 
-4.8466165656870391e-01 8.6393209567518962e-05 -1.0311956940911794e-02 
0.0000000000000000e+00 0.0000000000000000e+00 0.0000000000000000e+00 
0.0000000000000000e+00 0.0000000000000000e+00 0.0000000000000000e+00 
0.0000000000000000e+00 0.0000000000000000e+00 0.0000000000000000e+00 
0.0000000000000000e+00 0.0000000000000000e+00 0.0000000000000000e+00 
0.0000000000000000e+00 0.0000000000000000e+00 0.0000000000000000e+00 
0.0000000000000000e+00 0.0000000000000000e+00 0.0000000000000000e+00 
-1.1165087599700463e-01 6.4947443016949849e-06 -1.5487402557337591e-03 
1.4668290437918723e+00 -4.2246311706038234e-05 7.7253332434618844e-03 
1.4587908956739417e+00 -4.1976204459098882e-05 7.5854540254250190e-03 
-9.6344380006190611e-02 6.0505541643068634e-06 -1.4689662650013964e-03 
0.0000000000000000e+00 0.0000000000000000e+00 0.0000000000000000e+00 
0.0000000000000000e+00 0.0000000000000000e+00 0.0000000000000000e+00 
0.0000000000000000e+00 0.0000000000000000e+00 0.0000000000000000e+00 
0.0000000000000000e+00 0.0000000000000000e+00 0.0000000000000000e+00 
0.0000000000000000e+00 0.0000000000000000e+00 0.0000000000000000e+00 
0.0000000000000000e+00 0.0000000000000000e+00 0.0000000000000000e+00 

