/*--------------------------------*- C++ -*----------------------------------*\
| =========                 |                                                 |
| \\      /  F ield         | OpenFOAM: The Open Source CFD Toolbox           |
|  \\    /   O peration     | Version:  4.1                                   |
|   \\  /    A nd           | Web:      www.OpenFOAM.org                      |
|    \\/     M anipulation  |                                                 |
\*---------------------------------------------------------------------------*/
FoamFile
{
    version     2.0;
    format      ascii;
    class       pointVectorField;
    location    "4.4";
    object      pointDisplacement;
}
// * * * * * * * * * * * * * * * * * * * * * * * * * * * * * * * * * * * * * //

dimensions      [0 1 0 0 0 0 0];

internalField   nonuniform List<vector> 
5828
(
(0 0 0)
(0.0127452 0 0)
(0.02419 0 0)
(0.0340329 0 0)
(0.0424129 0 0)
(0.0494629 0 0)
(0.055302 0 0)
(0.0600345 0 0)
(0.0637513 0 0)
(0.0665322 0 0)
(0.0684473 0 0)
(0.069557 0 0)
(0.0699139 0 0)
(0.0695636 0 0)
(0.0685466 0 0)
(0.0668996 0 0)
(0.0646566 0 0)
(0.0618505 0 0)
(0.0585143 0 0)
(0.0546831 0 0)
(0.0503962 0 0)
(0.0456999 0 0)
(0.0406495 0 0)
(0.0353133 0 0)
(0.0297777 0 0)
(0.0241562 0 0)
(0.0186048 0 0)
(0.0133483 0 0)
(0.00872542 0 0)
(0.00537002 0 0)
(0 0 0)
(0 0 0)
(0.0127521 0 -3.00324e-05)
(0.0242043 0 -5.72647e-05)
(0.0340547 0 -8.11684e-05)
(0.0424428 0 -0.000102134)
(0.0495016 0 -0.000120396)
(0.0553506 0 -0.000136068)
(0.0600946 0 -0.000149194)
(0.0638244 0 -0.000159596)
(0.0666203 0 -0.000166952)
(0.0685527 0 -0.0001709)
(0.0696824 0 -0.000170949)
(0.0700626 0 -0.000166523)
(0.0697392 0 -0.000156683)
(0.068753 0 -0.000140294)
(0.0671416 0 -0.000116203)
(0.0649397 0 -8.29435e-05)
(0.0621808 0 -3.8754e-05)
(0.0588988 0 1.84563e-05)
(0.05513 0 9.1155e-05)
(0.0509148 0 0.000182239)
(0.0463011 0 0.000295095)
(0.0413465 0 0.000433672)
(0.0361222 0 0.000602594)
(0.0307177 0 0.000807343)
(0.0252508 0 0.00105446)
(0.0198841 0 0.00135156)
(0.0148585 0 0.00170563)
(0.0105382 0 0.00211364)
(0.0075603 0 0.00253089)
(0.00348212 0 0.00328622)
(0 0 0)
(0.0127754 0 -6.01526e-05)
(0.0242503 0 -0.000114714)
(0.0341236 0 -0.000162632)
(0.0425357 0 -0.000204705)
(0.0496206 0 -0.000241401)
(0.0554993 0 -0.000272942)
(0.0602775 0 -0.000299472)
(0.064046 0 -0.000320631)
(0.0668863 0 -0.000335759)
(0.0688703 0 -0.000344175)
(0.0700595 0 -0.000344896)
(0.070508 0 -0.000336703)
(0.0702634 0 -0.000317915)
(0.0693684 0 -0.000286464)
(0.0678623 0 -0.000240016)
(0.0657817 0 -0.00017573)
(0.0631624 0 -9.02258e-05)
(0.0600407 0 2.0487e-05)
(0.056456 0 0.000161086)
(0.0524523 0 0.000337011)
(0.0480819 0 0.000554534)
(0.0434091 0 0.000820778)
(0.0385136 0 0.00114375)
(0.0334952 0 0.00153236)
(0.0284828 0 0.00199621)
(0.02365 0 0.00254464)
(0.0192603 0 0.0031811)
(0.0157233 0 0.00388448)
(0.0136594 0 0.00455573)
(0.010716 0 0.00559629)
(0 0 0)
(0.0128153 0 -9.04299e-05)
(0.0243283 0 -0.000172492)
(0.0342396 0 -0.000244622)
(0.042692 0 -0.000308066)
(0.04982 0 -0.000363518)
(0.0557478 0 -0.00041128)
(0.0605824 0 -0.000451537)
(0.0644142 0 -0.000483908)
(0.0673274 0 -0.000507549)
(0.0693962 0 -0.000521398)
(0.0706833 0 -0.000524018)
(0.0712439 0 -0.000513487)
(0.0711286 0 -0.000487637)
(0.0703835 0 -0.000443762)
(0.06905 0 -0.000378395)
(0.0671681 0 -0.000287522)
(0.0647772 0 -0.000166439)
(0.0619177 0 -9.64487e-06)
(0.0586334 0 0.000189229)
(0.0549736 0 0.000437473)
(0.050997 0 0.000743297)
(0.0467774 0 0.00111562)
(0.0424075 0 0.00156373)
(0.0380018 0 0.00209674)
(0.0337046 0 0.00272227)
(0.0297004 0 0.00344329)
(0.0262465 0 0.00424879)
(0.0237615 0 0.00508912)
(0.0228043 0 0.0058196)
(0.0210947 0 0.00683062)
(0 0 0)
(0.0128717 0 -0.000120907)
(0.0244378 0 -0.000230692)
(0.0344019 0 -0.000327283)
(0.0429098 0 -0.000412308)
(0.0500966 0 -0.000486787)
(0.0560903 0 -0.000551191)
(0.0610013 0 -0.000605597)
(0.0649214 0 -0.000649845)
(0.0679361 0 -0.000683054)
(0.0701215 0 -0.000703697)
(0.0715433 0 -0.000710027)
(0.0722593 0 -0.000699655)
(0.0723232 0 -0.000669909)
(0.0717844 0 -0.000617479)
(0.0706883 0 -0.000538131)
(0.0690791 0 -0.000427008)
(0.0670013 0 -0.000278498)
(0.0645008 0 -8.61302e-05)
(0.061627 0 0.000157448)
(0.0584352 0 0.000460435)
(0.0549892 0 0.000831803)
(0.0513736 0 0.00128061)
(0.0476966 0 0.00181491)
(0.0440862 0 0.00244053)
(0.0406994 0 0.00315842)
(0.0377285 0 0.00395938)
(0.0354066 0 0.00481484)
(0.0340908 0 0.00564972)
(0.0342353 0 0.00629742)
(0.0335786 0 0.00711865)
(0 0 0)
(0.0129453 0 -0.000151604)
(0.0245783 0 -0.000289269)
(0.0346061 0 -0.000410458)
(0.043182 0 -0.000517228)
(0.0504443 0 -0.000611049)
(0.0565216 0 -0.000692641)
(0.0615289 0 -0.000762051)
(0.0655613 0 -0.000819195)
(0.0687037 0 -0.000863165)
(0.0710354 0 -0.000892312)
(0.0726265 0 -0.000904637)
(0.0735379 0 -0.000897494)
(0.0738267 0 -0.00086777)
(0.0735462 0 -0.000811652)
(0.0727465 0 -0.000724501)
(0.0714775 0 -0.000601018)
(0.0697899 0 -0.000435186)
(0.0677365 0 -0.000220191)
(0.0653734 0 5.14929e-05)
(0.0627636 0 0.000387871)
(0.0599764 0 0.000797462)
(0.0570987 0 0.00128822)
(0.0542508 0 0.00186479)
(0.0515756 0 0.00252677)
(0.0492321 0 0.00326599)
(0.0474053 0 0.00406027)
(0.0462983 0 0.00486598)
(0.0461591 0 0.00559546)
(0.0473016 0 0.00608742)
(0.0474764 0 0.00669848)
(0 0 0)
(0.0130334 0 -0.00018244)
(0.0247433 0 -0.000348011)
(0.0348464 0 -0.000493919)
(0.0435054 0 -0.00062286)
(0.0508595 0 -0.000736504)
(0.0570374 0 -0.000835823)
(0.0621592 0 -0.000921183)
(0.066324 0 -0.000992344)
(0.0696179 0 -0.00104848)
(0.072124 0 -0.00108815)
(0.0739153 0 -0.0011091)
(0.075057 0 -0.00110853)
(0.0756107 0 -0.00108315)
(0.0756339 0 -0.00102894)
(0.0751817 0 -0.000941107)
(0.0743107 0 -0.000814316)
(0.0730792 0 -0.0006427)
(0.0715475 0 -0.000419736)
(0.0697796 0 -0.000138497)
(0.0678469 0 0.000207914)
(0.0658287 0 0.000626056)
(0.063809 0 0.00112153)
(0.0619015 0 0.00169529)
(0.0602598 0 0.00233946)
(0.0590415 0 0.00303613)
(0.0584025 0 0.00375305)
(0.0584994 0 0.00443743)
(0.0594742 0 0.00500327)
(0.0614917 0 0.00531429)
(0.0623369 0 0.00574979)
(0 0 0)
(0.0131307 0 -0.000213284)
(0.0249283 0 -0.000406867)
(0.0351227 0 -0.000577832)
(0.0438789 0 -0.000729325)
(0.0513355 0 -0.000863117)
(0.0576285 0 -0.000980715)
(0.0628826 0 -0.00108294)
(0.0671992 0 -0.00116956)
(0.0706678 0 -0.00123977)
(0.0733738 0 -0.00129228)
(0.0753933 0 -0.0013248)
(0.0767964 0 -0.00133449)
(0.0776502 0 -0.00131821)
(0.0780169 0 -0.00127204)
(0.0779561 0 -0.00119122)
(0.0775315 0 -0.00107079)
(0.0768106 0 -0.000905628)
(0.0758613 0 -0.00069008)
(0.0747552 0 -0.000418456)
(0.0735706 0 -8.56422e-05)
(0.0723951 0 0.000312034)
(0.071319 0 0.000776124)
(0.0704392 0 0.00130397)
(0.0698988 0 0.00188172)
(0.0698462 0 0.002483)
(0.0703951 0 0.00306935)
(0.0716403 0 0.00358639)
(0.0736333 0 0.00395941)
(0.0763956 0 0.00408612)
(0.0778299 0 0.00436307)
(0 0 0)
(0.013234 0 -0.000244116)
(0.0251337 0 -0.000465918)
(0.0354322 0 -0.000662187)
(0.0442933 0 -0.000836359)
(0.0518637 0 -0.000990777)
(0.0582883 0 -0.00112754)
(0.0636922 0 -0.00124771)
(0.0681794 0 -0.00135136)
(0.0718422 0 -0.00143765)
(0.0747678 0 -0.00150518)
(0.0770372 0 -0.00155206)
(0.078727 0 -0.00157582)
(0.0799099 0 -0.0015736)
(0.0806532 0 -0.00154182)
(0.0810225 0 -0.00147624)
(0.0810854 0 -0.00137228)
(0.0809173 0 -0.00122586)
(0.0805961 0 -0.00103298)
(0.0801999 0 -0.000789721)
(0.0798125 0 -0.000493293)
(0.0795248 0 -0.000143108)
(0.0794329 0 0.000257927)
(0.0796294 0 0.000702667)
(0.0802313 0 0.00117329)
(0.0813523 0 0.00163881)
(0.0830598 0 0.00205846)
(0.0853809 0 0.00238189)
(0.0882801 0 0.00255013)
(0.091642 0 0.00249835)
(0.0936002 0 0.00261028)
(0 0 0)
(0.0133423 0 -0.000274911)
(0.0253546 0 -0.000525045)
(0.0357667 0 -0.000746669)
(0.0447434 0 -0.000943825)
(0.052442 0 -0.00111966)
(0.0590116 0 -0.00127649)
(0.064579 0 -0.00141564)
(0.0692511 0 -0.00153756)
(0.073121 0 -0.0016415)
(0.0762797 0 -0.00172608)
(0.0788157 0 -0.00179005)
(0.080812 0 -0.00183164)
(0.0823452 0 -0.00184829)
(0.0834886 0 -0.00183707)
(0.0843166 0 -0.00179478)
(0.0848996 0 -0.0017175)
(0.0853146 0 -0.00160185)
(0.0856497 0 -0.00144597)
(0.0859913 0 -0.00124839)
(0.0864267 0 -0.00100889)
(0.0870494 0 -0.000730109)
(0.0879549 0 -0.000418761)
(0.089236 0 -8.62766e-05)
(0.0909812 0 0.000247075)
(0.0932531 0 0.00054983)
(0.0960666 0 0.000783096)
(0.099377 0 0.000904162)
(0.103059 0 0.000871003)
(0.106865 0 0.000656356)
(0.109231 0 0.000581107)
(0 0 0)
(0.0134535 0 -0.00030562)
(0.025586 0 -0.000584126)
(0.0361209 0 -0.000831274)
(0.0452269 0 -0.00105185)
(0.0530657 0 -0.00124967)
(0.0597889 0 -0.00142725)
(0.0655294 0 -0.0015863)
(0.0703951 0 -0.0017274)
(0.0744816 0 -0.00185036)
(0.0778866 0 -0.00195437)
(0.080704 0 -0.00203848)
(0.0830212 0 -0.00210155)
(0.0849188 0 -0.00214159)
(0.0864762 0 -0.00215653)
(0.0877741 0 -0.0021443)
(0.0888906 0 -0.00210241)
(0.0899058 0 -0.00202871)
(0.0909102 0 -0.00192288)
(0.0919954 0 -0.00178591)
(0.093253 0 -0.00162042)
(0.0947784 0 -0.00143215)
(0.0966658 0 -0.00123092)
(0.0990045 0 -0.00103137)
(0.101853 0 -0.000854007)
(0.105222 0 -0.00072704)
(0.109071 0 -0.000683413)
(0.11328 0 -0.000754966)
(0.117624 0 -0.000966101)
(0.121731 0 -0.00131104)
(0.124329 0 -0.00157329)
(0 0 0)
(0.0135684 0 -0.000336249)
(0.0258258 0 -0.000643139)
(0.0364919 0 -0.000916051)
(0.0457372 0 -0.0011604)
(0.0537254 0 -0.00138051)
(0.0606097 0 -0.00157937)
(0.0665292 0 -0.00175914)
(0.0715957 0 -0.0019206)
(0.0759086 0 -0.00206408)
(0.07957 0 -0.00218963)
(0.0826778 0 -0.00229664)
(0.0853235 0 -0.00238447)
(0.0875921 0 -0.00245197)
(0.0895678 0 -0.00249802)
(0.0913356 0 -0.00252165)
(0.0929817 0 -0.00252214)
(0.0945945 0 -0.00249938)
(0.0962606 0 -0.00245422)
(0.0980703 0 -0.0023895)
(0.100121 0 -0.00231081)
(0.102509 0 -0.00222644)
(0.105324 0 -0.00214833)
(0.108654 0 -0.00209339)
(0.112528 0 -0.00208002)
(0.11691 0 -0.00212919)
(0.12171 0 -0.00226384)
(0.126737 0 -0.00250072)
(0.13166 0 -0.00284469)
(0.135991 0 -0.00326739)
(0.138685 0 -0.00364788)
(0 0 0)
(0.0136898 0 -0.000366764)
(0.0260738 0 -0.000701977)
(0.0368753 0 -0.00100076)
(0.0462662 0 -0.00126913)
(0.05441 0 -0.00151186)
(0.0614629 0 -0.00173251)
(0.0675677 0 -0.00193371)
(0.0728409 0 -0.0021168)
(0.0773863 0 -0.00228244)
(0.081309 0 -0.00243122)
(0.0847111 0 -0.00256338)
(0.0876872 0 -0.0026788)
(0.090326 0 -0.0027772)
(0.0927159 0 -0.00285845)
(0.0949458 0 -0.00292286)
(0.0971077 0 -0.00297143)
(0.0992916 0 -0.00300562)
(0.101582 0 -0.00302779)
(0.104071 0 -0.00304297)
(0.106857 0 -0.00305888)
(0.110033 0 -0.0030858)
(0.113687 0 -0.00313703)
(0.117899 0 -0.00322985)
(0.122674 0 -0.00337868)
(0.127945 0 -0.00359542)
(0.133593 0 -0.00388905)
(0.139378 0 -0.00425581)
(0.144875 0 -0.00467646)
(0.149475 0 -0.0051135)
(0.152357 0 -0.00549864)
(0 0 0)
(0.0138179 0 -0.000397052)
(0.0263311 0 -0.000760411)
(0.0372683 0 -0.00108504)
(0.0468076 0 -0.00137756)
(0.0551122 0 -0.00164329)
(0.0623376 0 -0.00188624)
(0.068631 0 -0.00210938)
(0.0741144 0 -0.00231487)
(0.0788954 0 -0.00250406)
(0.0830814 0 -0.00267784)
(0.0867769 0 -0.00283702)
(0.0900792 0 -0.00298228)
(0.0930804 0 -0.0031142)
(0.0958712 0 -0.00323368)
(0.098543 0 -0.00334219)
(0.101189 0 -0.00344213)
(0.103898 0 -0.00353639)
(0.106756 0 -0.00362925)
(0.109857 0 -0.00372766)
(0.113294 0 -0.0038408)
(0.117152 0 -0.00398006)
(0.121522 0 -0.00416042)
(0.126463 0 -0.00439687)
(0.131958 0 -0.00469902)
(0.137941 0 -0.00507178)
(0.144288 0 -0.00550896)
(0.150754 0 -0.00598263)
(0.156877 0 -0.00644013)
(0.161937 0 -0.00683715)
(0.165596 0 -0.00708389)
(0 0 0)
(0.0139505 0 -0.000426975)
(0.0265959 0 -0.000818174)
(0.0376692 0 -0.00116847)
(0.0473562 0 -0.00148516)
(0.0558225 0 -0.00177397)
(0.0632207 0 -0.00203937)
(0.0697027 0 -0.002285)
(0.0753971 0 -0.00251351)
(0.0804134 0 -0.00272699)
(0.084858 0 -0.00292678)
(0.0888382 0 -0.00311414)
(0.0924553 0 -0.00329064)
(0.0958021 0 -0.00345766)
(0.0989706 0 -0.00361703)
(0.102052 0 -0.00377125)
(0.105138 0 -0.00392377)
(0.108316 0 -0.00407902)
(0.111675 0 -0.00424299)
(0.115301 0 -0.00442385)
(0.11928 0 -0.00463176)
(0.12369 0 -0.00487879)
(0.128616 0 -0.00518061)
(0.134086 0 -0.00554943)
(0.140071 0 -0.00599189)
(0.146518 0 -0.00651001)
(0.153311 0 -0.00708967)
(0.160244 0 -0.00768702)
(0.166913 0 -0.00820816)
(0.172628 0 -0.00856055)
(0.178647 0 -0.00846878)
(0 0 0)
(0.0140863 0 -0.0004566)
(0.0268662 0 -0.000875385)
(0.0380769 0 -0.00125116)
(0.0479094 0 -0.00159193)
(0.0565341 0 -0.00190384)
(0.0641067 0 -0.002192)
(0.0707792 0 -0.00246074)
(0.0766832 0 -0.00271303)
(0.0819291 0 -0.00295122)
(0.0866237 0 -0.00317737)
(0.0908779 0 -0.00339368)
(0.0947945 0 -0.00360227)
(0.0984659 0 -0.00380523)
(0.101984 0 -0.00400518)
(0.105437 0 -0.00420555)
(0.108916 0 -0.0044107)
(0.112504 0 -0.00462619)
(0.116286 0 -0.00485912)
(0.120341 0 -0.00511844)
(0.124743 0 -0.00541485)
(0.129563 0 -0.00576105)
(0.134856 0 -0.00617065)
(0.140623 0 -0.00665385)
(0.14683 0 -0.00721809)
(0.153415 0 -0.00786743)
(0.160257 0 -0.00859658)
(0.167158 0 -0.00938806)
(0.17377 0 -0.0102115)
(0.179617 0 -0.0111173)
(0.191728 0 -0.00978053)
(0 0 0)
(0.0127452 0 0)
(0.02419 0 0)
(0.0340329 0 0)
(0.0424129 0 0)
(0.0494629 0 0)
(0.055302 0 0)
(0.0600345 0 0)
(0.0637513 0 0)
(0.0665322 0 0)
(0.0684473 0 0)
(0.069557 0 0)
(0.0699139 0 0)
(0.0695636 0 0)
(0.0685466 0 0)
(0.0668996 0 0)
(0.0646566 0 0)
(0.0618505 0 0)
(0.0585143 0 0)
(0.0546831 0 0)
(0.0503962 0 0)
(0.0456999 0 0)
(0.0406495 0 0)
(0.0353133 0 0)
(0.0297777 0 0)
(0.0241562 0 0)
(0.0186048 0 0)
(0.0133483 0 0)
(0.00872542 0 0)
(0.00537002 0 0)
(0 0 0)
(0 0 0)
(0.0127521 0 -3.00324e-05)
(0.0242043 0 -5.72647e-05)
(0.0340547 0 -8.11684e-05)
(0.0424428 0 -0.000102134)
(0.0495016 0 -0.000120396)
(0.0553506 0 -0.000136068)
(0.0600946 0 -0.000149194)
(0.0638244 0 -0.000159596)
(0.0666203 0 -0.000166952)
(0.0685527 0 -0.0001709)
(0.0696824 0 -0.000170949)
(0.0700626 0 -0.000166523)
(0.0697392 0 -0.000156683)
(0.068753 0 -0.000140294)
(0.0671416 0 -0.000116203)
(0.0649397 0 -8.29435e-05)
(0.0621808 0 -3.8754e-05)
(0.0588988 0 1.84563e-05)
(0.05513 0 9.1155e-05)
(0.0509148 0 0.000182239)
(0.0463011 0 0.000295095)
(0.0413465 0 0.000433672)
(0.0361222 0 0.000602594)
(0.0307177 0 0.000807343)
(0.0252508 0 0.00105446)
(0.0198841 0 0.00135156)
(0.0148585 0 0.00170563)
(0.0105382 0 0.00211364)
(0.0075603 0 0.00253089)
(0.00348212 0 0.00328622)
(0 0 0)
(0.0127754 0 -6.01526e-05)
(0.0242503 0 -0.000114714)
(0.0341236 0 -0.000162632)
(0.0425357 0 -0.000204705)
(0.0496206 0 -0.000241401)
(0.0554993 0 -0.000272942)
(0.0602775 0 -0.000299472)
(0.064046 0 -0.000320631)
(0.0668863 0 -0.000335759)
(0.0688703 0 -0.000344175)
(0.0700595 0 -0.000344896)
(0.070508 0 -0.000336703)
(0.0702634 0 -0.000317915)
(0.0693684 0 -0.000286464)
(0.0678623 0 -0.000240016)
(0.0657817 0 -0.00017573)
(0.0631624 0 -9.02258e-05)
(0.0600407 0 2.0487e-05)
(0.056456 0 0.000161086)
(0.0524523 0 0.000337011)
(0.0480819 0 0.000554534)
(0.0434091 0 0.000820778)
(0.0385136 0 0.00114375)
(0.0334952 0 0.00153236)
(0.0284828 0 0.00199621)
(0.02365 0 0.00254464)
(0.0192603 0 0.0031811)
(0.0157233 0 0.00388448)
(0.0136594 0 0.00455573)
(0.010716 0 0.00559629)
(0 0 0)
(0.0128153 0 -9.04299e-05)
(0.0243283 0 -0.000172492)
(0.0342396 0 -0.000244622)
(0.042692 0 -0.000308066)
(0.04982 0 -0.000363518)
(0.0557478 0 -0.00041128)
(0.0605824 0 -0.000451537)
(0.0644142 0 -0.000483908)
(0.0673274 0 -0.000507549)
(0.0693962 0 -0.000521398)
(0.0706833 0 -0.000524018)
(0.0712439 0 -0.000513487)
(0.0711286 0 -0.000487637)
(0.0703835 0 -0.000443762)
(0.06905 0 -0.000378395)
(0.0671681 0 -0.000287522)
(0.0647772 0 -0.000166439)
(0.0619177 0 -9.64487e-06)
(0.0586334 0 0.000189229)
(0.0549736 0 0.000437473)
(0.050997 0 0.000743297)
(0.0467774 0 0.00111562)
(0.0424075 0 0.00156373)
(0.0380018 0 0.00209674)
(0.0337046 0 0.00272227)
(0.0297004 0 0.00344329)
(0.0262465 0 0.00424879)
(0.0237615 0 0.00508912)
(0.0228043 0 0.0058196)
(0.0210947 0 0.00683062)
(0 0 0)
(0.0128717 0 -0.000120907)
(0.0244378 0 -0.000230692)
(0.0344019 0 -0.000327283)
(0.0429098 0 -0.000412308)
(0.0500966 0 -0.000486787)
(0.0560903 0 -0.000551191)
(0.0610013 0 -0.000605597)
(0.0649214 0 -0.000649845)
(0.0679361 0 -0.000683054)
(0.0701215 0 -0.000703697)
(0.0715433 0 -0.000710027)
(0.0722593 0 -0.000699655)
(0.0723232 0 -0.000669909)
(0.0717844 0 -0.000617479)
(0.0706883 0 -0.000538131)
(0.0690791 0 -0.000427008)
(0.0670013 0 -0.000278498)
(0.0645008 0 -8.61302e-05)
(0.061627 0 0.000157448)
(0.0584352 0 0.000460435)
(0.0549892 0 0.000831803)
(0.0513736 0 0.00128061)
(0.0476966 0 0.00181491)
(0.0440862 0 0.00244053)
(0.0406994 0 0.00315842)
(0.0377285 0 0.00395938)
(0.0354066 0 0.00481484)
(0.0340908 0 0.00564972)
(0.0342353 0 0.00629742)
(0.0335786 0 0.00711865)
(0 0 0)
(0.0129453 0 -0.000151604)
(0.0245783 0 -0.000289269)
(0.0346061 0 -0.000410458)
(0.043182 0 -0.000517228)
(0.0504443 0 -0.000611049)
(0.0565216 0 -0.000692641)
(0.0615289 0 -0.000762051)
(0.0655613 0 -0.000819195)
(0.0687037 0 -0.000863165)
(0.0710354 0 -0.000892312)
(0.0726265 0 -0.000904637)
(0.0735379 0 -0.000897494)
(0.0738267 0 -0.00086777)
(0.0735462 0 -0.000811652)
(0.0727465 0 -0.000724501)
(0.0714775 0 -0.000601018)
(0.0697899 0 -0.000435186)
(0.0677365 0 -0.000220191)
(0.0653734 0 5.14929e-05)
(0.0627636 0 0.000387871)
(0.0599764 0 0.000797462)
(0.0570987 0 0.00128822)
(0.0542508 0 0.00186479)
(0.0515756 0 0.00252677)
(0.0492321 0 0.00326599)
(0.0474053 0 0.00406027)
(0.0462983 0 0.00486598)
(0.0461591 0 0.00559546)
(0.0473016 0 0.00608742)
(0.0474764 0 0.00669848)
(0 0 0)
(0.0130334 0 -0.00018244)
(0.0247433 0 -0.000348011)
(0.0348464 0 -0.000493919)
(0.0435054 0 -0.00062286)
(0.0508595 0 -0.000736504)
(0.0570374 0 -0.000835823)
(0.0621592 0 -0.000921183)
(0.066324 0 -0.000992344)
(0.0696179 0 -0.00104848)
(0.072124 0 -0.00108815)
(0.0739153 0 -0.0011091)
(0.075057 0 -0.00110853)
(0.0756107 0 -0.00108315)
(0.0756339 0 -0.00102894)
(0.0751817 0 -0.000941107)
(0.0743107 0 -0.000814316)
(0.0730792 0 -0.0006427)
(0.0715475 0 -0.000419736)
(0.0697796 0 -0.000138497)
(0.0678469 0 0.000207914)
(0.0658287 0 0.000626056)
(0.063809 0 0.00112153)
(0.0619015 0 0.00169529)
(0.0602598 0 0.00233946)
(0.0590415 0 0.00303613)
(0.0584025 0 0.00375305)
(0.0584994 0 0.00443743)
(0.0594742 0 0.00500327)
(0.0614917 0 0.00531429)
(0.0623369 0 0.00574979)
(0 0 0)
(0.0131307 0 -0.000213284)
(0.0249283 0 -0.000406867)
(0.0351227 0 -0.000577832)
(0.0438789 0 -0.000729325)
(0.0513355 0 -0.000863117)
(0.0576285 0 -0.000980715)
(0.0628826 0 -0.00108294)
(0.0671992 0 -0.00116956)
(0.0706678 0 -0.00123977)
(0.0733738 0 -0.00129228)
(0.0753933 0 -0.0013248)
(0.0767964 0 -0.00133449)
(0.0776502 0 -0.00131821)
(0.0780169 0 -0.00127204)
(0.0779561 0 -0.00119122)
(0.0775315 0 -0.00107079)
(0.0768106 0 -0.000905628)
(0.0758613 0 -0.00069008)
(0.0747552 0 -0.000418456)
(0.0735706 0 -8.56422e-05)
(0.0723951 0 0.000312034)
(0.071319 0 0.000776124)
(0.0704392 0 0.00130397)
(0.0698988 0 0.00188172)
(0.0698462 0 0.002483)
(0.0703951 0 0.00306935)
(0.0716403 0 0.00358639)
(0.0736333 0 0.00395941)
(0.0763956 0 0.00408612)
(0.0778299 0 0.00436307)
(0 0 0)
(0.013234 0 -0.000244116)
(0.0251337 0 -0.000465918)
(0.0354322 0 -0.000662187)
(0.0442933 0 -0.000836359)
(0.0518637 0 -0.000990777)
(0.0582883 0 -0.00112754)
(0.0636922 0 -0.00124771)
(0.0681794 0 -0.00135136)
(0.0718422 0 -0.00143765)
(0.0747678 0 -0.00150518)
(0.0770372 0 -0.00155206)
(0.078727 0 -0.00157582)
(0.0799099 0 -0.0015736)
(0.0806532 0 -0.00154182)
(0.0810225 0 -0.00147624)
(0.0810854 0 -0.00137228)
(0.0809173 0 -0.00122586)
(0.0805961 0 -0.00103298)
(0.0801999 0 -0.000789721)
(0.0798125 0 -0.000493293)
(0.0795248 0 -0.000143108)
(0.0794329 0 0.000257927)
(0.0796294 0 0.000702667)
(0.0802313 0 0.00117329)
(0.0813523 0 0.00163881)
(0.0830598 0 0.00205846)
(0.0853809 0 0.00238189)
(0.0882801 0 0.00255013)
(0.091642 0 0.00249835)
(0.0936002 0 0.00261028)
(0 0 0)
(0.0133423 0 -0.000274911)
(0.0253546 0 -0.000525045)
(0.0357667 0 -0.000746669)
(0.0447434 0 -0.000943825)
(0.052442 0 -0.00111966)
(0.0590116 0 -0.00127649)
(0.064579 0 -0.00141564)
(0.0692511 0 -0.00153756)
(0.073121 0 -0.0016415)
(0.0762797 0 -0.00172608)
(0.0788157 0 -0.00179005)
(0.080812 0 -0.00183164)
(0.0823452 0 -0.00184829)
(0.0834886 0 -0.00183707)
(0.0843166 0 -0.00179478)
(0.0848996 0 -0.0017175)
(0.0853146 0 -0.00160185)
(0.0856497 0 -0.00144597)
(0.0859913 0 -0.00124839)
(0.0864267 0 -0.00100889)
(0.0870494 0 -0.000730109)
(0.0879549 0 -0.000418761)
(0.089236 0 -8.62766e-05)
(0.0909812 0 0.000247075)
(0.0932531 0 0.00054983)
(0.0960666 0 0.000783096)
(0.099377 0 0.000904162)
(0.103059 0 0.000871003)
(0.106865 0 0.000656356)
(0.109231 0 0.000581107)
(0 0 0)
(0.0134535 0 -0.00030562)
(0.025586 0 -0.000584126)
(0.0361209 0 -0.000831274)
(0.0452269 0 -0.00105185)
(0.0530657 0 -0.00124967)
(0.0597889 0 -0.00142725)
(0.0655294 0 -0.0015863)
(0.0703951 0 -0.0017274)
(0.0744816 0 -0.00185036)
(0.0778866 0 -0.00195437)
(0.080704 0 -0.00203848)
(0.0830212 0 -0.00210155)
(0.0849188 0 -0.00214159)
(0.0864762 0 -0.00215653)
(0.0877741 0 -0.0021443)
(0.0888906 0 -0.00210241)
(0.0899058 0 -0.00202871)
(0.0909102 0 -0.00192288)
(0.0919954 0 -0.00178591)
(0.093253 0 -0.00162042)
(0.0947784 0 -0.00143215)
(0.0966658 0 -0.00123092)
(0.0990045 0 -0.00103137)
(0.101853 0 -0.000854007)
(0.105222 0 -0.00072704)
(0.109071 0 -0.000683413)
(0.11328 0 -0.000754966)
(0.117624 0 -0.000966101)
(0.121731 0 -0.00131104)
(0.124329 0 -0.00157329)
(0 0 0)
(0.0135684 0 -0.000336249)
(0.0258258 0 -0.000643139)
(0.0364919 0 -0.000916051)
(0.0457372 0 -0.0011604)
(0.0537254 0 -0.00138051)
(0.0606097 0 -0.00157937)
(0.0665292 0 -0.00175914)
(0.0715957 0 -0.0019206)
(0.0759086 0 -0.00206408)
(0.07957 0 -0.00218963)
(0.0826778 0 -0.00229664)
(0.0853235 0 -0.00238447)
(0.0875921 0 -0.00245197)
(0.0895678 0 -0.00249802)
(0.0913356 0 -0.00252165)
(0.0929817 0 -0.00252214)
(0.0945945 0 -0.00249938)
(0.0962606 0 -0.00245422)
(0.0980703 0 -0.0023895)
(0.100121 0 -0.00231081)
(0.102509 0 -0.00222644)
(0.105324 0 -0.00214833)
(0.108654 0 -0.00209339)
(0.112528 0 -0.00208002)
(0.11691 0 -0.00212919)
(0.12171 0 -0.00226384)
(0.126737 0 -0.00250072)
(0.13166 0 -0.00284469)
(0.135991 0 -0.00326739)
(0.138685 0 -0.00364788)
(0 0 0)
(0.0136898 0 -0.000366764)
(0.0260738 0 -0.000701977)
(0.0368753 0 -0.00100076)
(0.0462662 0 -0.00126913)
(0.05441 0 -0.00151186)
(0.0614629 0 -0.00173251)
(0.0675677 0 -0.00193371)
(0.0728409 0 -0.0021168)
(0.0773863 0 -0.00228244)
(0.081309 0 -0.00243122)
(0.0847111 0 -0.00256338)
(0.0876872 0 -0.0026788)
(0.090326 0 -0.0027772)
(0.0927159 0 -0.00285845)
(0.0949458 0 -0.00292286)
(0.0971077 0 -0.00297143)
(0.0992916 0 -0.00300562)
(0.101582 0 -0.00302779)
(0.104071 0 -0.00304297)
(0.106857 0 -0.00305888)
(0.110033 0 -0.0030858)
(0.113687 0 -0.00313703)
(0.117899 0 -0.00322985)
(0.122674 0 -0.00337868)
(0.127945 0 -0.00359542)
(0.133593 0 -0.00388905)
(0.139378 0 -0.00425581)
(0.144875 0 -0.00467646)
(0.149475 0 -0.0051135)
(0.152357 0 -0.00549864)
(0 0 0)
(0.0138179 0 -0.000397052)
(0.0263311 0 -0.000760411)
(0.0372683 0 -0.00108504)
(0.0468076 0 -0.00137756)
(0.0551122 0 -0.00164329)
(0.0623376 0 -0.00188624)
(0.068631 0 -0.00210938)
(0.0741144 0 -0.00231487)
(0.0788954 0 -0.00250406)
(0.0830814 0 -0.00267784)
(0.0867769 0 -0.00283702)
(0.0900792 0 -0.00298228)
(0.0930804 0 -0.0031142)
(0.0958712 0 -0.00323368)
(0.098543 0 -0.00334219)
(0.101189 0 -0.00344213)
(0.103898 0 -0.00353639)
(0.106756 0 -0.00362925)
(0.109857 0 -0.00372766)
(0.113294 0 -0.0038408)
(0.117152 0 -0.00398006)
(0.121522 0 -0.00416042)
(0.126463 0 -0.00439687)
(0.131958 0 -0.00469902)
(0.137941 0 -0.00507178)
(0.144288 0 -0.00550896)
(0.150754 0 -0.00598263)
(0.156877 0 -0.00644013)
(0.161937 0 -0.00683715)
(0.165596 0 -0.00708389)
(0 0 0)
(0.0139505 0 -0.000426975)
(0.0265959 0 -0.000818174)
(0.0376692 0 -0.00116847)
(0.0473562 0 -0.00148516)
(0.0558225 0 -0.00177397)
(0.0632207 0 -0.00203937)
(0.0697027 0 -0.002285)
(0.0753971 0 -0.00251351)
(0.0804134 0 -0.00272699)
(0.084858 0 -0.00292678)
(0.0888382 0 -0.00311414)
(0.0924553 0 -0.00329064)
(0.0958021 0 -0.00345766)
(0.0989706 0 -0.00361703)
(0.102052 0 -0.00377125)
(0.105138 0 -0.00392377)
(0.108316 0 -0.00407902)
(0.111675 0 -0.00424299)
(0.115301 0 -0.00442385)
(0.11928 0 -0.00463176)
(0.12369 0 -0.00487879)
(0.128616 0 -0.00518061)
(0.134086 0 -0.00554943)
(0.140071 0 -0.00599189)
(0.146518 0 -0.00651001)
(0.153311 0 -0.00708967)
(0.160244 0 -0.00768702)
(0.166913 0 -0.00820816)
(0.172628 0 -0.00856055)
(0.178647 0 -0.00846878)
(0 0 0)
(0.0140863 0 -0.0004566)
(0.0268662 0 -0.000875385)
(0.0380769 0 -0.00125116)
(0.0479094 0 -0.00159193)
(0.0565341 0 -0.00190384)
(0.0641067 0 -0.002192)
(0.0707792 0 -0.00246074)
(0.0766832 0 -0.00271303)
(0.0819291 0 -0.00295122)
(0.0866237 0 -0.00317737)
(0.0908779 0 -0.00339368)
(0.0947945 0 -0.00360227)
(0.0984659 0 -0.00380523)
(0.101984 0 -0.00400518)
(0.105437 0 -0.00420555)
(0.108916 0 -0.0044107)
(0.112504 0 -0.00462619)
(0.116286 0 -0.00485912)
(0.120341 0 -0.00511844)
(0.124743 0 -0.00541485)
(0.129563 0 -0.00576105)
(0.134856 0 -0.00617065)
(0.140623 0 -0.00665385)
(0.14683 0 -0.00721809)
(0.153415 0 -0.00786743)
(0.160257 0 -0.00859658)
(0.167158 0 -0.00938806)
(0.17377 0 -0.0102115)
(0.179617 0 -0.0111173)
(0.191728 0 -0.00978053)
(0 0 0)
(0.00695955 0 0)
(0.0126253 0 0)
(0.0207413 0 0)
(0.0303016 0 0)
(0.0404092 0 0)
(0.0504127 0 0)
(0.0598879 0 0)
(0.0685609 0 0)
(0.0762678 0 0)
(0.0829314 0 0)
(0.0885343 0 0)
(0.0930821 0 0)
(0.0965949 0 0)
(0.0991075 0 0)
(0.100649 0 0)
(0.101236 0 0)
(0.10088 0 0)
(0.0995861 0 0)
(0.0973493 0 0)
(0.0941515 0 0)
(0.0899633 0 0)
(0.0847506 0 0)
(0.0784723 0 0)
(0.0710758 0 0)
(0.0625021 0 0)
(0.0526893 0 0)
(0.0415693 0 0)
(0.0290712 0 0)
(0.0151159 0 0)
(0 0 0)
(0.00318107 0 -0.00362088)
(0.00907209 0 -0.00337092)
(0.0146441 0 -0.00338283)
(0.0226064 0 -0.00333318)
(0.0319798 0 -0.00325396)
(0.0418784 0 -0.00314617)
(0.051679 0 -0.00301388)
(0.0609715 0 -0.00286591)
(0.0694826 0 -0.00271014)
(0.0770453 0 -0.00254942)
(0.083582 0 -0.00238569)
(0.0890752 0 -0.00222255)
(0.0935305 0 -0.00206111)
(0.0969675 0 -0.00190597)
(0.0994173 0 -0.00176078)
(0.100905 0 -0.00162376)
(0.101446 0 -0.00149357)
(0.101054 0 -0.00136942)
(0.0997297 0 -0.00125066)
(0.0974678 0 -0.00113761)
(0.0942492 0 -0.00103017)
(0.0900436 0 -0.000926616)
(0.0848163 0 -0.000827067)
(0.0785265 0 -0.000730305)
(0.0711202 0 -0.00063406)
(0.0625378 0 -0.000537784)
(0.0527176 0 -0.000440183)
(0.0415909 0 -0.000339359)
(0.0290862 0 -0.0002335)
(0.0151239 0 -0.000120304)
(0 0 0)
(0.00989158 0 -0.00674982)
(0.0150284 0 -0.00652494)
(0.020417 0 -0.00657506)
(0.0279823 0 -0.00650995)
(0.0368289 0 -0.00637111)
(0.0461415 0 -0.00616607)
(0.0553741 0 -0.0059126)
(0.0641473 0 -0.00562856)
(0.0721888 0 -0.00532699)
(0.0793273 0 -0.00501378)
(0.0854925 0 -0.00469521)
(0.0906669 0 -0.00437812)
(0.0948531 0 -0.00406682)
(0.0980671 0 -0.00376738)
(0.100331 0 -0.00348413)
(0.10166 0 -0.00321413)
(0.102069 0 -0.00295659)
(0.101568 0 -0.00271237)
(0.100155 0 -0.00247969)
(0.0978191 0 -0.00225801)
(0.09454 0 -0.00204603)
(0.0902835 0 -0.00184177)
(0.0850125 0 -0.00164468)
(0.0786884 0 -0.00145221)
(0.0712535 0 -0.00126094)
(0.0626446 0 -0.00106969)
(0.0528023 0 -0.000875825)
(0.0416556 0 -0.000675316)
(0.0291305 0 -0.000464728)
(0.0151471 0 -0.000239466)
(0 0 0)
(0.0197019 0 -0.00950928)
(0.0240567 0 -0.0093852)
(0.0292598 0 -0.00949662)
(0.0362797 0 -0.00944409)
(0.0443507 0 -0.0092667)
(0.0528073 0 -0.00898645)
(0.0611967 0 -0.00863112)
(0.0691762 0 -0.00822805)
(0.0764824 0 -0.00779438)
(0.0829556 0 -0.00734093)
(0.0885403 0 -0.00688087)
(0.0932153 0 -0.0064234)
(0.0969779 0 -0.00597598)
(0.0998364 0 -0.00554527)
(0.1018 0 -0.00513415)
(0.102876 0 -0.00474052)
(0.103075 0 -0.00436472)
(0.1024 0 -0.00400774)
(0.100842 0 -0.00366788)
(0.0983884 0 -0.00334377)
(0.0950116 0 -0.00303318)
(0.0906735 0 -0.00273402)
(0.0853351 0 -0.00244334)
(0.0789563 0 -0.00215766)
(0.0714729 0 -0.00187429)
(0.0628196 0 -0.0015906)
(0.0529412 0 -0.00130244)
(0.0417617 0 -0.00100443)
(0.0292029 0 -0.000691369)
(0.0151848 0 -0.000356317)
(0 0 0)
(0.0316834 0 -0.0120088)
(0.0354139 0 -0.0119927)
(0.0404146 0 -0.0121581)
(0.0468018 0 -0.0121217)
(0.0539624 0 -0.0119167)
(0.0614041 0 -0.0115787)
(0.0687592 0 -0.0111394)
(0.0757354 0 -0.0106326)
(0.0821015 0 -0.0100828)
(0.087727 0 -0.00950684)
(0.0925667 0 -0.00892168)
(0.0965952 0 -0.00833931)
(0.0998052 0 -0.00776966)
(0.102194 0 -0.00721958)
(0.103757 0 -0.00669068)
(0.104498 0 -0.00618387)
(0.104419 0 -0.00570055)
(0.103513 0 -0.00524002)
(0.101764 0 -0.00480085)
(0.0991504 0 -0.00438131)
(0.0956413 0 -0.00397928)
(0.0911949 0 -0.00359122)
(0.0857697 0 -0.0032124)
(0.0793175 0 -0.00283928)
(0.0717683 0 -0.0024687)
(0.063059 0 -0.00209633)
(0.0531327 0 -0.00171712)
(0.0419062 0 -0.0013248)
(0.0293004 0 -0.00091196)
(0.0152355 0 -0.000469957)
(0 0 0)
(0.0451874 0 -0.0143637)
(0.0484399 0 -0.0144063)
(0.0531934 0 -0.0145938)
(0.0588984 0 -0.0145562)
(0.0650969 0 -0.0143232)
(0.0714369 0 -0.0139336)
(0.0776376 0 -0.0134218)
(0.0834714 0 -0.0128248)
(0.0887614 0 -0.0121752)
(0.0934117 0 -0.0114952)
(0.0973848 0 -0.0108027)
(0.100656 0 -0.0101119)
(0.10321 0 -0.00943407)
(0.105037 0 -0.00877703)
(0.106124 0 -0.00814383)
(0.106467 0 -0.00753666)
(0.106056 0 -0.00695652)
(0.104871 0 -0.00640238)
(0.10289 0 -0.00587264)
(0.100082 0 -0.00536526)
(0.0964107 0 -0.00487782)
(0.0918312 0 -0.00440586)
(0.0862967 0 -0.00394465)
(0.0797527 0 -0.00349048)
(0.0721261 0 -0.00303832)
(0.0633505 0 -0.0025823)
(0.0533641 0 -0.00211688)
(0.0420858 0 -0.0016346)
(0.0294295 0 -0.0011257)
(0.0153031 0 -0.00058008)
(0 0 0)
(0.0597606 0 -0.0166311)
(0.0626127 0 -0.0166604)
(0.0670537 0 -0.0168297)
(0.072036 0 -0.016763)
(0.0772446 0 -0.016491)
(0.0824355 0 -0.0160487)
(0.0874155 0 -0.0154708)
(0.0920289 0 -0.0147958)
(0.0961622 0 -0.0140612)
(0.0997575 0 -0.0132933)
(0.102787 0 -0.0125108)
(0.105226 0 -0.0117287)
(0.107055 0 -0.0109579)
(0.108257 0 -0.0102081)
(0.108818 0 -0.00948604)