/*--------------------------------*- C++ -*----------------------------------*\
| =========                 |                                                 |
| \\      /  F ield         | OpenFOAM: The Open Source CFD Toolbox           |
|  \\    /   O peration     | Version:  5.x                                   |
|   \\  /    A nd           | Web:      www.OpenFOAM.org                      |
|    \\/     M anipulation  |                                                 |
\*---------------------------------------------------------------------------*/
FoamFile
{
    version     2.0;
    format      ascii;
    class       volVectorField;
    location    "4.4";
    object      U;
}
// * * * * * * * * * * * * * * * * * * * * * * * * * * * * * * * * * * * * * //

dimensions      [0 1 -1 0 0 0 0];

internalField   nonuniform List<vector> 
2790
(
(9.93245 -5.46796e-20 0.0200086)
(9.86704 0 0.0278512)
(9.77099 0 0.0331638)
(9.65008 0 0.0387196)
(9.51201 -6.07755e-20 0.0445356)
(9.35878 3.12281e-20 0.0505499)
(9.1897 -6.50302e-20 0.0568935)
(9.0038 6.67949e-20 0.0637196)
(8.80024 0 0.0711495)
(8.5782 4.51995e-21 0.079298)
(8.33669 0 0.0882846)
(8.07455 0 0.0982343)
(7.79048 0 0.109281)
(7.48312 -1.73875e-19 0.121563)
(7.15103 -1.85486e-19 0.135218)
(6.7928 -5.35262e-20 0.150375)
(6.40711 4.01408e-19 0.16715)
(5.99282 1.07131e-19 0.185628)
(5.54908 -5.73424e-19 0.205842)
(5.07556 4.8304e-19 0.227742)
(4.57258 0 0.251159)
(4.0414 -1.40686e-18 0.275753)
(3.4845 1.20053e-18 0.300972)
(2.90582 -3.26793e-19 0.325992)
(2.31101 -2.85176e-18 0.349719)
(1.70751 3.08347e-18 0.371087)
(1.10403 0 0.391485)
(0.517184 0 0.405125)
(-0.191498 0 -0.0745343)
(-0.00677954 -4.19567e-18 -0.323994)
(9.99232 6.81747e-20 0.0388003)
(9.98299 -4.16275e-20 0.0572036)
(9.94572 8.51363e-20 0.0709013)
(9.88214 -1.16273e-19 0.0855226)
(9.79875 2.09054e-19 0.101171)
(9.69772 6.21302e-20 0.117654)
(9.5786 9.69965e-22 0.135234)
(9.44055 -1.29895e-19 0.154254)
(9.28283 0 0.174992)
(9.10465 -2.851e-19 0.197707)
(8.90511 -3.40786e-21 0.222671)
(8.68308 6.01944e-19 0.250163)
(8.4373 -3.11295e-19 0.280468)
(8.16641 0 0.313874)
(7.86895 -8.53539e-20 0.350635)
(7.54343 1.34244e-19 0.390955)
(7.18842 -1.70495e-18 0.434953)
(6.8026 -1.23264e-19 0.482624)
(6.38491 1.55727e-18 0.533757)
(5.93466 0 0.587856)
(5.45176 -4.69585e-19 0.644031)
(4.93694 2.50627e-19 0.700867)
(4.39205 5.34127e-19 0.756302)
(3.82044 -2.85502e-19 0.807463)
(3.2273 0 0.850415)
(2.62099 0 0.87972)
(2.01566 0 0.886317)
(1.41813 0 0.8482)
(0.869466 0 0.663312)
(0.431591 3.5354e-17 0.160854)
(9.98944 0 0.0394916)
(9.97741 -1.10655e-19 0.0667046)
(9.94241 2.25357e-22 0.0899097)
(9.88364 -2.31597e-19 0.114234)
(9.80636 2.37493e-19 0.140226)
(9.71281 -1.82553e-19 0.16779)
(9.60286 0 0.197281)
(9.47585 0 0.229201)
(9.33112 0 0.263983)
(9.16805 -1.71938e-20 0.30205)
(8.98589 0 0.343853)
(8.78371 -5.76112e-19 0.389862)
(8.5604 6.09376e-19 0.440564)
(8.31473 -1.36407e-18 0.496457)
(8.04539 1.48534e-18 0.558002)
(7.75099 1.48297e-18 0.625585)
(7.43007 -1.07653e-18 0.699477)
(7.08122 0 0.779757)
(6.70309 -3.40809e-18 0.866193)
(6.29451 6.70236e-18 0.958104)
(5.85466 -2.62485e-18 1.05417)
(5.38318 3.29041e-18 1.15221)
(4.88042 -3.43792e-18 1.24889)
(4.34782 -5.20389e-19 1.33947)
(3.78804 1.11422e-18 1.4171)
(3.20544 -1.19081e-18 1.47188)
(2.60645 0 1.48793)
(1.98844 0 1.43574)
(1.32916 0 1.26121)
(0.757546 0 0.916851)
(9.98766 -2.71448e-20 0.0438417)
(9.97339 3.58815e-19 0.0812055)
(9.93822 2.256e-19 0.114985)
(9.88059 -2.30616e-19 0.149135)
(9.80491 1.17833e-19 0.18491)
(9.71334 0 0.222603)
(9.60597 3.12179e-19 0.262734)
(9.48236 -2.55156e-19 0.305979)
(9.34197 5.30514e-19 0.352941)
(9.18436 -5.24808e-19 0.404196)
(9.00901 5.5712e-19 0.460372)
(8.81526 5.74494e-19 0.522128)
(8.60227 -1.23579e-18 0.590146)
(8.36914 -1.18103e-18 0.665122)
(8.11491 2.67936e-18 0.74773)
(7.8385 -1.34254e-18 0.838571)
(7.53879 -8.13947e-22 0.938128)
(7.21461 0 1.04668)
(6.86472 3.8438e-19 1.16413)
(6.48788 0 1.28987)
(6.08292 -4.21659e-19 1.42249)
(5.64862 4.42773e-19 1.55951)
(5.18388 -8.40497e-18 1.69693)
(4.68786 7.80052e-18 1.82885)
(4.15981 -1.03928e-18 1.9467)
(3.59844 1.10341e-18 2.03833)
(3.00129 0 2.08667)
(2.35935 2.02702e-17 2.06582)
(1.63184 -2.20023e-17 1.94846)
(0.942519 2.39882e-17 1.71409)
(9.98668 2.16503e-19 0.0496538)
(9.97119 -2.20353e-19 0.0955385)
(9.93587 3.36751e-19 0.138474)
(9.87915 -1.14568e-19 0.181517)
(9.805 0 0.226369)
(9.71538 -1.20246e-19 0.273687)
(9.61035 -5.57943e-19 0.324112)
(9.48959 -4.22502e-21 0.378421)
(9.3527 5.202e-19 0.437318)
(9.19927 0 0.501481)
(9.02891 8.68575e-21 0.571651)
(8.84111 0 0.648612)
(8.63523 3.71035e-20 0.733176)
(8.4106 0 0.826179)
(8.1665 -1.5924e-19 0.928439)
(7.90215 -1.65225e-19 1.04071)
(7.61672 -1.71625e-19 1.16366)
(7.30932 2.86773e-18 1.29776)
(6.97896 -2.94298e-18 1.44312)
(6.62448 -6.6019e-18 1.5993)
(6.24462 1.20828e-17 1.76507)
(5.83771 -1.34596e-17 1.93804)
(5.40149 -8.05633e-20 2.11416)
(4.93316 -5.65222e-18 2.2872)
(4.42904 3.10559e-17 2.44823)
(3.88375 -1.63332e-17 2.58503)
(3.2895 1.85562e-17 2.68198)
(2.6364 9.11623e-20 2.71818)
(1.88499 -2.0154e-17 2.6754)
(1.10919 1.58137e-20 2.54685)
(9.9861 -2.16271e-19 0.0561665)
(9.97015 0 0.109909)
(9.93502 -2.23247e-19 0.161566)
(9.87939 -2.27988e-19 0.21348)
(9.80708 0 0.267412)
(9.71983 1.19656e-19 0.324288)
(9.61756 0 0.384865)
(9.50006 -5.05231e-19 0.449977)
(9.36705 4.50198e-19 0.520426)
(9.21814 0 0.597001)
(9.05299 0 0.680551)
(8.8712 0 0.771965)
(8.67224 0 0.872176)
(8.45556 2.42125e-18 0.982152)
(8.22058 -4.97459e-18 1.10284)
(7.96665 1.26107e-19 1.23512)
(7.69309 2.64682e-18 1.3798)
(7.39919 3.43761e-19 1.53755)
(7.08412 -5.76609e-18 1.70872)
(6.74673 6.28031e-18 1.89313)
(6.38561 7.75627e-19 2.08985)
(5.99889 7.98855e-19 2.29692)
(5.58369 0 2.51074)
(5.13573 -8.77481e-19 2.72544)
(4.64929 0 2.93258)
(4.11679 -1.53993e-17 3.12076)
(3.52801 1.51338e-17 3.27563)
(2.8739 -1.07021e-18 3.37838)
(2.1271 -5.74691e-19 3.40733)
(1.28319 1.30927e-18 3.372)
(9.98581 0 0.0629936)
(9.96989 -2.18329e-19 0.124253)
(9.93522 2.22241e-19 0.184197)
(9.88097 2.26765e-19 0.244663)
(9.81086 -2.31678e-19 0.307347)
(9.72632 1.18476e-19 0.373414)
(9.62723 -1.21296e-19 0.443749)
(9.51352 0 0.519236)
(9.38499 1.9152e-19 0.600782)
(9.24121 1.05513e-18 0.689285)
(9.08196 -1.1076e-18 0.785682)
(8.90688 1.73062e-20 0.890956)
(8.7155 2.28281e-18 1.00615)
(8.50734 -2.34308e-18 1.13234)
(8.2819 2.44597e-18 1.2706)
(8.03856 -5.17435e-18 1.42193)
(7.77665 2.57361e-18 1.58727)
(7.49552 -5.72148e-18 1.76746)
(7.19434 5.4971e-18 1.96315)
(6.87195 -5.75607e-18 2.17447)
(6.52667 5.88628e-18 2.40091)
(6.15634 -1.38668e-17 2.6411)
(5.75787 1.26547e-17 2.89231)
(5.32604 0 3.14951)
(4.8538 0 3.40506)
(4.33247 8.90082e-19 3.64842)
(3.75084 0 3.8655)
(3.09946 -1.49636e-17 4.03721)
(2.37025 1.75465e-17 4.13047)
(1.46753 0 4.17013)
(9.98574 -5.36339e-20 0.0699085)
(9.97007 5.98277e-19 0.138433)
(9.93622 -1.11047e-19 0.206232)
(9.88376 -2.25444e-19 0.274871)
(9.81612 2.30736e-19 0.345991)
(9.73454 1.17178e-19 0.420918)
(9.63909 7.24078e-19 0.500635)
(9.5297 -3.6829e-19 0.586084)
(9.4062 -1.2652e-19 0.67827)
(9.26824 -1.04098e-18 0.778189)
(9.11562 2.16014e-18 0.886856)
(8.94802 -1.10346e-18 1.00535)
(8.76502 1.75797e-20 1.13481)
(8.56621 2.32076e-18 1.27643)
(8.35115 -2.36004e-18 1.43142)
(8.11928 0 1.60093)
(7.86982 5.06064e-18 1.78603)
(7.60199 -5.47184e-18 1.98775)
(7.31496 -5.69919e-18 2.20703)
(7.00747 1.09974e-17 2.44444)
(6.67762 -1.09838e-17 2.69997)
(6.32283 -5.92384e-18 2.97293)
(5.93967 1.20116e-17 3.26162)
(5.52247 0 3.5622)
(5.06335 0 3.86805)
(4.55276 -1.6751e-18 4.16925)
(3.97883 0 4.45111)
(3.32898 1.49515e-17 4.6932)
(2.61785 1.55888e-17 4.84719)
(1.65971 -3.44149e-17 4.94428)
(9.98581 0 0.0767738)
(9.97059 -4.33979e-19 0.15231)
(9.93791 -4.4002e-19 0.227538)
(9.88753 -1.13889e-22 0.303966)
(9.82255 2.284e-19 0.383205)
(9.74425 2.34532e-19 0.466631)
(9.65287 -5.95262e-19 0.555293)
(9.5483 -1.22177e-19 0.650221)
(9.43043 1.24473e-19 0.752524)
(9.29895 0 0.863284)
(9.15365 0 0.983591)
(8.99428 6.68481e-20 1.11461)
(8.82047 -2.2293e-18 1.25758)
(8.63189 2.24549e-18 1.4138)
(8.4281 0 1.58459)
(8.20871 -7.39401e-20 1.77134)
(7.97294 0 1.97532)
(7.71968 -4.87785e-18 2.19773)
(7.44802 1.06068e-17 2.43982)
(7.15661 -5.25061e-18 2.70263)
(6.84336 -3.40879e-19 2.98681)
(6.50533 7.00311e-19 3.29248)
(6.13851 3.53757e-19 3.61902)
(5.73687 1.17796e-17 3.96398)
(5.29193 -1.20483e-17 4.32207)
(4.79291 7.8785e-19 4.68403)
(4.22691 -1.99614e-19 5.03429)
(3.57488 -2.13821e-19 5.35096)
(2.87291 4.40768e-19 5.57026)
(1.8577 0 5.71383)
(9.986 4.25227e-19 0.0834854)
(9.97144 0 0.165751)
(9.94019 4.38911e-19 0.248014)
(9.892 0 0.331841)
(9.82994 0 0.418837)
(9.75535 2.31139e-19 0.510353)
(9.66842 7.12352e-19 0.607474)
(9.56914 -9.61937e-19 0.711347)
(9.45742 -1.23509e-19 0.823189)
(9.333 -1.13754e-18 0.944169)
(9.19569 3.22458e-18 1.07544)
(9.0453 -2.16464e-18 1.21824)
(8.88151 1.69083e-20 1.37391)
(8.70408 0 1.54383)
(8.51258 0 1.72944)
(8.30668 7.25793e-20 1.93233)
(8.08577 4.68138e-18 2.15412)
(7.84863 -9.52685e-18 2.39625)
(7.59415 5.07879e-18 2.66024)
(7.32086 0 2.94765)
(7.02651 1.03778e-17 3.25987)
(6.70784 -1.05177e-17 3.59802)
(6.36043 -1.11544e-17 3.96274)
(5.97765 -5.60099e-20 4.35318)
(5.55019 1.12419e-17 4.76573)
(5.06562 -1.15603e-17 5.1925)
(4.50899 1.20805e-17 5.61766)
(3.85127 1.19655e-17 6.01864)
(3.14386 -2.60304e-17 6.31937)
(2.06431 2.78747e-17 6.51405)
(9.98635 1.04626e-19 0.0899519)
(9.97254 -1.07352e-19 0.178649)
(9.94292 4.35017e-19 0.267586)
(9.89705 -4.42254e-19 0.358408)
(9.83816 -2.25016e-19 0.452723)
(9.76767 -2.30046e-19 0.551868)
(9.68561 2.34455e-19 0.656943)
(9.59202 -9.57402e-19 0.769199)
(9.4869 7.27496e-19 0.889973)
(9.37002 2.48287e-19 1.0205)
(9.24131 -8.13184e-22 1.16199)
(9.10057 2.07913e-18 1.31576)
(8.94761 1.87094e-20 1.48321)
(8.78225 -2.14782e-18 1.66585)
(8.60418 -3.42347e-20 1.86523)
(8.41293 4.51417e-18 2.0831)
(8.20799 -4.49054e-18 2.32138)
(7.98855 -4.69125e-18 2.58191)
(7.75338 9.3658e-18 2.86657)
(7.5008 -4.74878e-18 3.1774)
(7.22845 -9.87636e-18 3.51665)
(6.93294 9.89469e-18 3.8865)
(6.60954 7.839e-20 4.28916)
(6.25111 0 4.72576)
(5.84731 -1.0533e-17 5.19509)
(5.3834 1.07922e-17 5.69193)
(4.84121 1.08355e-17 6.2022)
(4.17842 -1.11854e-17 6.70504)
(3.45125 -3.73371e-19 7.11797)
(2.29244 4.03191e-19 7.39632)
(9.98678 -4.22847e-19 0.0961027)
(9.97384 6.398e-19 0.190928)
(9.94598 -4.33692e-19 0.286177)
(9.90266 2.21044e-19 0.383573)
(9.84714 -2.24177e-19 0.484719)
(9.78104 4.54294e-19 0.590981)
(9.70422 9.29089e-19 0.703487)
(9.61668 -9.40846e-19 0.82355)
(9.51854 4.80408e-19 0.952616)
(9.4097 -1.22735e-19 1.09198)
(9.29011 -2.49315e-19 1.24288)
(9.15963 0 1.40671)
(9.01824 0 1.58496)
(8.86583 1.31129e-19 1.77921)
(8.70214 1.00403e-19 1.99118)
(8.52673 -4.31557e-18 2.22276)
(8.33919 -3.39225e-20 2.47604)
(8.13913 9.04808e-18 2.75329)
(7.92543 -4.55634e-18 3.05685)
(7.69636 -5.50415e-20 3.38936)
(7.44968 0 3.75387)
(7.18211 -9.32087e-18 4.15383)
(6.88866 1.88318e-17 4.59304)
(6.56214 -6.429e-21 5.07523)
(6.19165 -9.58089e-18 5.60277)
(5.75973 -9.83205e-18 6.17507)
(5.24411 9.53836e-18 6.78365)
(4.58673 -9.61129e-18 7.41462)
(3.83504 2.06854e-17 7.98875)
(2.57211 -1.11396e-17 8.4273)
(9.9872 4.19387e-19 0.101893)
(9.97529 -4.25488e-19 0.202522)
(9.94935 -4.29718e-19 0.303705)
(9.90877 0 0.407237)
(9.8568 -4.44727e-19 0.51471)
(9.79529 9.00364e-19 0.627542)
(9.72401 0 0.746924)
(9.64282 0 0.8742)
(9.55201 -1.424e-21 1.01088)
(9.45163 -1.20827e-18 1.1583)
(9.34163 1.3453e-18 1.31777)
(9.22198 2.00218e-18 1.49069)
(9.09283 -1.11665e-19 1.67865)
(8.95411 -2.18194e-18 1.88332)
(8.80564 -6.56953e-20 2.10654)
(8.6472 -6.66675e-20 2.35032)
(8.47861 4.31004e-18 2.6169)
(8.29967 -4.3688e-18 2.90887)
(8.10951 0 3.22906)
(7.9068 -4.45084e-18 3.58073)
(7.68967 8.76377e-18 3.96777)
(7.45523 -1.34634e-17 4.39486)
(7.19886 1.79987e-17 4.86758)
(6.91403 -8.92646e-18 5.39257)
(6.59012 -8.82203e-18 5.97691)
(6.20826 1.06971e-19 6.62733)
(5.74284 9.09145e-18 7.34667)
(5.11998 0 8.13808)
(4.36411 0 8.94486)
(2.96241 2.71966e-19 9.69672)
(9.98758 -3.1441e-19 0.107303)
(9.97682 -7.38416e-19 0.213368)
(9.95294 6.42653e-19 0.320087)
(9.91527 0 0.429311)
(9.86705 4.39344e-19 0.5426)
(9.8103 -4.46103e-19 0.661432)
(9.74477 -1.36294e-18 0.787109)
(9.67019 2.07381e-18 0.920986)
(9.58696 -1.16859e-18 1.06456)
(9.49537 1.19191e-18 1.21923)
(9.39539 -3.14037e-18 1.38634)
(9.28706 1.95251e-18 1.56733)
(9.17066 1.24705e-19 1.76385)
(9.04623 0 1.97763)
(8.9138 0 2.2106)
(8.77339 0 2.46484)
(8.62506 -4.17029e-18 2.74273)
(8.4688 4.18478e-18 3.04708)
(8.30418 4.22281e-18 3.38114)
(8.13051 -4.22716e-18 3.74871)
(7.94663 1.33711e-19 4.15437)
(7.75039 4.20783e-18 4.60388)
(7.53871 -4.19358e-18 5.10464)
(7.30672 0 5.66613)
(7.04577 0 6.30049)
(6.73935 7.83394e-18 7.02391)
(6.36352 -7.80904e-18 7.85647)
(5.8363 4.45026e-19 8.83357)
(5.15523 -2.11744e-19 9.96423)
(3.58208 -2.87568e-19 11.3582)
(9.98793 -8.30287e-19 0.112322)
(9.97838 4.20859e-19 0.223422)
(9.95666 0 0.335249)
(9.92208 0 0.449695)
(9.87787 -4.39556e-19 0.568281)
(9.82601 1.33027e-18 0.692539)
(9.76634 -8.965e-19 0.823901)
(9.69859 -2.2849e-19 0.963725)
(9.62323 9.26349e-19 1.11344)
(9.54072 4.70568e-21 1.27448)
(9.45107 -9.46903e-19 1.44827)
(9.35443 2.39268e-19 1.63626)
(9.25119 0 1.8401)
(9.14157 -1.97206e-18 2.06159)
(9.02583 1.98158e-18 2.30266)
(8.90425 -4.01303e-18 2.56545)
(8.77714 4.02381e-18 2.85242)
(8.64479 0 3.16653)
(8.50736 -4.30579e-18 3.51124)
(8.36495 4.40918e-21 3.8907)
(8.21733 4.031e-18 4.30997)
(8.06379 -4.46091e-18 4.77554)
(7.90358 4.42339e-18 5.29606)
(7.73474 0 5.88304)
(7.55354 0 6.55278)
(7.35199 3.49363e-18 7.32985)
(7.12024 -5.89295e-18 8.25196)
(6.79715 2.80572e-18 9.39429)
(6.4115 1.88957e-19 10.8881)
(4.6676 -4.0544e-18 13.7774)
(0.11115 -3.9736e-21 -0.0984841)
(0.293568 0 -0.107247)
(0.493685 1.5513e-20 -0.0929094)
(0.677491 -1.47052e-20 -0.0751516)
(0.833856 1.85218e-20 -0.0593528)
(0.963076 4.73179e-21 -0.0463951)
(1.06932 -1.98088e-20 -0.0358883)
(1.15677 0 -0.0272041)
(1.22821 -3.01782e-21 -0.0197371)
(1.28513 -1.29935e-20 -0.0129843)
(1.32813 1.28029e-20 -0.00659705)
(1.35734 -3.41108e-21 -0.000416352)
(1.37258 -7.07054e-21 0.00539998)
(1.37469 6.9733e-21 0.0103127)
(1.36477 0 0.0137554)
(1.34486 -3.56562e-21 0.0157384)
(1.31814 9.02488e-25 0.0162564)
(1.28827 1.039e-20 0.0154664)
(1.25891 -1.59145e-23 0.0137185)
(1.23317 -3.26557e-21 0.0113441)
(1.21328 0 0.00853327)
(1.201 0 0.00537863)
(1.19696 2.709e-21 0.00238119)
(1.20015 0 -9.92123e-05)
(1.20872 -2.15019e-21 -0.00201327)
(1.22126 0 -0.00348574)
(1.23658 -1.57045e-22 -0.00462315)
(1.2538 1.54304e-22 -0.00551029)
(1.27242 0 -0.00613442)
(1.29745 2.06027e-22 -0.00647861)
(0.0964826 -6.09222e-20 -0.248932)
(0.276214 6.20509e-20 -0.267403)
(0.471228 -6.60963e-20 -0.235638)
(0.651999 5.99182e-20 -0.196588)
(0.809348 0 -0.161892)
(0.94367 -4.38326e-20 -0.133484)
(1.0588 9.04388e-20 -0.110537)
(1.15859 -4.36943e-20 -0.0916264)
(1.24572 3.00538e-21 -0.0753446)
(1.32172 4.57413e-20 -0.0605234)
(1.38756 -8.48705e-20 -0.0463601)
(1.44373 2.31086e-20 -0.0323958)
(1.49031 0 -0.0185819)
(1.52622 0 -0.00525102)
(1.55103 -7.07857e-21 0.00659487)
(1.5648 1.4054e-20 0.0157552)
(1.57021 -6.95613e-21 0.0212474)
(1.57065 -1.01893e-20 0.0229098)
(1.56961 -3.29724e-21 0.0211283)
(1.56987 -3.0895e-21 0.0167274)
(1.57328 1.22618e-20 0.0109372)
(1.58038 0 0.00478426)
(1.59078 -1.0447e-20 -0.0011077)
(1.60405 7.26648e-21 -0.00601124)
(1.61994 2.08383e-21 -0.0096408)
(1.63744 3.55443e-21 -0.0120682)
(1.6555 -2.83958e-21 -0.013531)
(1.67312 1.86052e-21 -0.0143731)
(1.68962 -9.97261e-22 -0.0148929)
(1.70784 1.60859e-22 -0.0148222)
(0.0721917 0 -0.417175)
(0.228486 -1.36368e-19 -0.431571)
(0.400851 1.28972e-19 -0.379652)
(0.558148 7.41559e-20 -0.319306)
(0.693688 -6.72509e-20 -0.266045)
(0.808882 9.17075e-20 -0.222512)
(0.907594 -1.7132e-19 -0.187502)
(0.993523 1.02753e-19 -0.158842)
(1.06917 -1.25781e-20 -0.134356)
(1.13602 -6.64996e-21 -0.112315)
(1.19522 2.03241e-20 -0.0915807)
(1.24745 6.92955e-21 -0.0713874)
(1.29302 1.45596e-20 -0.0513552)
(1.33192 6.92137e-22 -0.031808)
(1.36423 -2.144e-20 -0.0136866)
(1.39069 0 0.00137684)
(1.41016 2.1285e-20 0.011625)
(1.42461 7.01359e-21 0.0163384)
(1.43567 -1.33093e-20 0.0158453)
(1.44503 1.30968e-20 0.011304)
(1.45396 -6.15607e-21 0.00422685)
(1.46293 -1.16878e-20 -0.00347048)
(1.47258 1.04861e-20 -0.010874)
(1.48289 -9.88271e-21 -0.0171622)
(1.49333 8.61475e-21 -0.0218182)
(1.50299 -3.58772e-21 -0.0246584)
(1.51115 -2.34638e-21 -0.0257913)
(1.51708 1.12975e-21 -0.0255182)
(1.52038 1.68814e-21 -0.02427)
(1.52118 -4.17176e-22 -0.0219444)
(0.0499545 -1.54305e-19 -0.571671)
(0.177316 -1.46777e-19 -0.568168)
(0.323672 -8.77698e-21 -0.494217)
(0.453059 3.07548e-19 -0.414735)
(0.561489 -1.65905e-19 -0.345875)
(0.651816 -5.35048e-21 -0.290215)
(0.727913 3.45342e-22 -0.245939)
(0.793243 -2.46796e-20 -0.210066)
(0.850211 -1.0701e-19 -0.179685)
(0.900319 1.18697e-19 -0.15261)
(0.944847 4.33077e-20 -0.127477)
(0.984646 -5.64149e-20 -0.103236)
(1.02051 1.46432e-20 -0.0791283)
(1.05246 1.49429e-20 -0.0553511)
(1.07997 0 -0.0334462)
(1.10302 0 -0.0153877)
(1.12284 -1.46324e-20 -0.00263448)
(1.13797 1.45102e-22 0.00397497)
(1.14919 -1.38141e-20 0.00503281)
(1.15664 3.43125e-22 0.00198269)
(1.16079 4.7826e-22 -0.00366338)
(1.16184 1.84627e-20 -0.0101529)
(1.16011 -1.65264e-22 -0.0160152)
(1.15626 -1.55349e-20 -0.0203245)
(1.15054 -8.85333e-21 -0.0225877)
(1.14295 0 -0.0228123)
(1.13374 6.01836e-21 -0.0214313)
(1.12336 -3.94736e-21 -0.0190769)
(1.11253 -4.44044e-22 -0.0166872)
(1.09951 0 -0.0152928)
(0.0311431 0 -0.709886)
(0.126264 1.56321e-19 -0.678206)
(0.243721 -1.51484e-19 -0.581361)
(0.341921 0 -0.4852)
(0.419673 5.31704e-21 -0.403605)
(0.481271 0 -0.33844)
(0.530373 -1.21306e-20 -0.287032)
(0.570215 -9.39338e-20 -0.245687)
(0.60324 1.18861e-19 -0.210956)
(0.630946 8.72636e-20 -0.180353)
(0.654799 -2.33114e-19 -0.152391)
(0.675368 8.74799e-20 -0.126053)
(0.694643 1.53078e-20 -0.100552)
(0.712713 -1.54637e-20 -0.0755537)
(0.728367 0 -0.0518232)
(0.740003 3.12168e-20 -0.0308943)
(0.746962 -3.0717e-20 -0.0143864)
(0.749288 -3.01596e-20 -0.00342212)
(0.748207 1.4781e-20 0.00183944)
(0.744806 1.39654e-20 0.00240625)
(0.740178 -4.51226e-23 -0.000132892)
(0.735158 -1.29382e-20 -0.00448858)
(0.730175 2.37346e-20 -0.00938268)
(0.725966 2.15646e-20 -0.0138096)
(0.722755 4.43227e-21 -0.0169314)
(0.72006 -1.62425e-20 -0.0183979)
(0.716968 1.0208e-20 -0.0182867)
(0.712585 0 -0.0169128)
(0.706615 -2.43644e-22 -0.0151494)
(0.692322 2.39298e-22 -0.0148475)
(0.0175496 -1.69404e-19 -0.825293)
(0.0780123 2.53023e-21 -0.757545)
(0.163248 0 -0.637626)
(0.227079 -1.79944e-19 -0.526687)
(0.271104 3.80542e-19 -0.434212)
(0.301146 -4.03454e-19 -0.361395)
(0.320194 2.00096e-19 -0.304395)
(0.33155 -8.44777e-20 -0.258824)
(0.337707 -3.42884e-20 -0.22095)
(0.340195 1.14935e-19 -0.188041)
(0.340788 0 -0.158163)
(0.338271 2.41152e-23 -0.129894)
(0.336312 4.8808e-20 -0.102354)
(0.333405 -6.3898e-20 -0.0750206)
(0.331654 0 -0.0492481)
(0.330991 6.55974e-20 -0.0271643)
(0.330874 -6.46162e-20 -0.0108803)
(0.331908 1.60158e-20 -0.000955626)
(0.33351 -1.53827e-20 0.00292896)
(0.335816 0 0.00201802)
(0.338537 -1.42135e-20 -0.00209767)
(0.341484 1.85687e-22 -0.00776007)
(0.344446 -1.16197e-20 -0.0136495)
(0.346896 1.23218e-20 -0.0185721)
(0.348857 -4.73206e-21 -0.021414)
(0.349007 1.70461e-20 -0.0215889)
(0.345829 3.48806e-21 -0.0191673)
(0.338391 -1.03657e-20 -0.0147193)
(0.326127 0 -0.0098027)
(0.302011 -2.12827e-21 -0.00737992)
(0.00994013 -1.70478e-19 -0.912364)
(0.0341078 1.62988e-19 -0.801822)
(0.0831378 -1.7631e-19 -0.659293)
(0.10923 3.62522e-19 -0.535492)
(0.116693 7.10675e-22 -0.434409)
(0.113357 -1.84116e-19 -0.355695)
(0.101598 0 -0.296101)
(0.0852044 -2.78024e-20 -0.249076)
(0.0665233 1.06099e-22 -0.210775)
(0.0474159 2.98133e-20 -0.178282)
(0.0292405 3.04754e-20 -0.149542)
(0.0127817 -9.59877e-20 -0.123131)
(-0.00116476 1.58159e-19 -0.0979722)
(-0.0121668 -9.58486e-20 -0.0738104)
(-0.0194989 0 -0.0514063)
(-0.0236061 0 -0.0318806)
(-0.0245136 3.2346e-20 -0.0169055)
(-0.0230615 -3.18799e-20 -0.00758431)
(-0.0200337 0 -0.00370841)
(-0.0160343 0 -0.00412802)
(-0.0116368 4.47003e-20 -0.00744861)
(-0.00758101 -2.93106e-20 -0.0123696)
(-0.00403627 -1.35176e-20 -0.0175564)
(-0.00143364 -1.182e-20 -0.0216908)
(-0.000285959 -4.99588e-21 -0.0236037)
(-0.00169332 -1.79402e-20 -0.0220189)
(-0.00773309 -1.03387e-20 -0.0166263)
(-0.0205154 1.05981e-20 -0.00817561)
(-0.0400658 2.77892e-22 0.000972992)
(-0.0751213 1.91169e-21 0.00143615)
(0.00813501 0 -0.964013)
(-0.00464368 0 -0.804512)
(0.00256381 -1.73323e-19 -0.639608)
(-0.0135675 -1.16643e-20 -0.50685)
(-0.045036 1.83346e-19 -0.405196)
(-0.0816575 0 -0.328228)
(-0.120838 2.59785e-20 -0.269972)
(-0.158813 -1.96795e-19 -0.225414)
(-0.194182 3.6343e-19 -0.190109)
(-0.225937 -2.35687e-20 -0.160729)
(-0.253753 -2.6751e-19 -0.134904)
(-0.277606 1.19085e-19 -0.111127)
(-0.29751 1.24574e-19 -0.0885813)
(-0.313486 -3.02999e-20 -0.0670901)
(-0.325679 -3.16367e-20 -0.0472801)
(-0.334544 0 -0.0303608)
(-0.340342 0 -0.0177308)
(-0.343189 0 -0.0101813)
(-0.343938 3.16251e-20 -0.0072665)
(-0.343229 0 -0.00800676)
(-0.341772 -2.92527e-20 -0.0112705)
(-0.34022 2.78793e-20 -0.0159346)
(-0.339001 0 -0.0207196)
(-0.338522 2.50473e-20 -0.0242045)
(-0.339465 -5.07946e-21 -0.0247263)
(-0.343212 2.31938e-20 -0.0207052)
(-0.351814 1.53822e-20 -0.0115729)
(-0.368014 0 0.00126329)
(-0.393756 6.89521e-21 0.0125432)
(-0.417236 0 0.0123543)
(0.0108268 0 -0.968354)
(-0.0390169 -8.91788e-24 -0.760313)
(-0.0814059 1.65216e-19 -0.581042)
(-0.143028 3.09992e-21 -0.446562)
(-0.214059 -1.76531e-19 -0.347459)
(-0.28195 -1.20021e-20 -0.276867)
(-0.344896 -2.36419e-19 -0.225726)
(-0.400606 2.05867e-19 -0.188215)
(-0.448757 0 -0.159383)
(-0.489807 2.83562e-20 -0.13574)
(-0.524506 0 -0.114892)
(-0.553711 -2.92382e-20 -0.0953413)
(-0.578229 -3.01074e-20 -0.0762828)
(-0.598804 -3.03278e-20 -0.0575986)
(-0.616384 -3.1676e-20 -0.0401211)
(-0.63119 1.55463e-19 -0.0254609)
(-0.642295 1.34084e-21 -0.0150553)
(-0.650498 -6.19764e-20 -0.00939075)
(-0.656031 8.19731e-22 -0.00797278)
(-0.659423 0 -0.00959302)
(-0.661574 0 -0.013164)
(-0.663331 0 -0.0177398)
(-0.665021 -1.31346e-20 -0.0222295)
(-0.666911 -2.33301e-20 -0.0251224)
(-0.66952 1.17219e-20 -0.0244497)
(-0.673978 -1.52393e-20 -0.018269)
(-0.682135 -1.59144e-20 -0.00593199)
(-0.696838 -3.30125e-21 0.00992963)
(-0.716488 -6.7128e-21 0.0218969)
(-0.730965 0 0.0234)
(0.0157798 1.43675e-19 -0.916542)
(-0.0719974 -1.40056e-19 -0.664841)
(-0.175789 1.60515e-19 -0.477409)
(-0.287902 -1.43323e-19 -0.348009)
(-0.397475 1.08233e-20 -0.260613)
(-0.49532 1.19341e-20 -0.203941)
(-0.579276 0 -0.166445)
(-0.649386 -2.60528e-20 -0.140656)
(-0.707281 0 -0.121487)
(-0.755083 0 -0.105579)
(-0.794738 0 -0.0907587)
(-0.82805 2.86614e-20 -0.075765)
(-0.856823 0 -0.0601376)
(-0.882418 2.96127e-20 -0.0442716)
(-0.904389 0 -0.0294029)
(-0.923075 -3.03324e-20 -0.0172378)
(-0.939179 0 -0.00920534)
(-0.952454 0 -0.00576844)
(-0.962659 -6.20903e-20 -0.00606926)
(-0.970175 3.08643e-20 -0.0088794)
(-0.976057 0 -0.0130056)
(-0.980901 3.03415e-20 -0.0177547)
(-0.98503 0 -0.0223804)
(-0.988032 1.22445e-20 -0.0254111)
(-0.989906 -3.03569e-20 -0.0245447)
(-0.991672 1.38038e-20 -0.0173405)
(-0.995836 0 -0.00304858)
(-1.00547 -1.17235e-21 0.0148753)
(-1.01902 8.39304e-21 0.0287578)
(-1.02824 0 0.0325765)
(0.0182652 -1.13457e-19 -0.798317)
(-0.119592 2.33442e-19 -0.512254)
(-0.299921 -1.26483e-19 -0.329679)
(-0.462188 0 -0.217439)
(-0.60947 -1.08033e-20 -0.150251)
(-0.734491 1.91178e-19 -0.11392)
(-0.835419 -1.85738e-19 -0.0956944)
(-0.915245 -1.28441e-19 -0.0858085)
(-0.978924 1.26415e-19 -0.0787643)
(-1.03052 2.62382e-20 -0.0719201)
(-1.07301 0 -0.0638194)
(-1.10862 0 -0.0537744)
(-1.13885 5.69938e-20 -0.0418675)
(-1.16501 -1.13867e-19 -0.0289111)
(-1.18918 1.45235e-19 -0.016291)
(-1.21195 -2.83982e-20 -0.00599809)
(-1.233 3.05665e-20 3.07872e-05)
(-1.25115 0 0.0012589)
(-1.26565 -2.64778e-22 -0.00123538)
(-1.27694 -3.11839e-20 -0.00565765)
(-1.28592 -3.10651e-20 -0.0107429)
(-1.29335 1.7433e-20 -0.0161362)
(-1.29914 1.4702e-20 -0.0216581)
(-1.30208 -1.26889e-20 -0.0259605)
(-1.30161 3.55767e-20 -0.0262092)
(-1.29877 2.08847e-20 -0.0191313)
(-1.29686 1.67187e-20 -0.00354066)
(-1.3001 1.21576e-20 0.0167737)
(-1.30792 7.4245e-21 0.0336835)
(-1.3131 5.7699e-21 0.0403449)
(-0.00028544 -7.46598e-20 -0.591877)
(-0.221587 7.42873e-20 -0.301316)
(-0.529688 0 -0.103232)
(-0.75046 -1.56104e-19 -0.0302283)
(-0.918922 1.5111e-19 -0.0102922)
(-1.04288 0 -0.0125251)
(-1.13571 0 -0.0216626)
(-1.20733 -3.60579e-23 -0.0304438)
(-1.26395 -1.50296e-22 -0.0364164)
(-1.30961 -3.27627e-22 -0.0389737)
(-1.34717 0 -0.0376401)
(-1.37909 1.3299e-19 -0.0323202)
(-1.4074 -4.99785e-20 -0.0236163)
(-1.43378 -5.35208e-20 -0.0126432)
(-1.45963 -2.00632e-22 -0.00115561)
(-1.4856 -5.81248e-20 0.00819359)
(-1.51071 -2.9803e-20 0.0126905)
(-1.53297 3.14226e-20 0.0114356)
(-1.55087 6.33573e-20 0.00592746)
(-1.56451 -9.72276e-20 -0.000816737)
(-1.57538 1.48247e-20 -0.00713563)
(-1.58452 -1.37786e-20 -0.013548)
(-1.5913 -4.59286e-20 -0.0207629)
(-1.59342 1.43987e-20 -0.027622)
(-1.58952 0 -0.0304789)
(-1.58076 -4.21638e-20 -0.0247757)
(-1.57145 -1.82064e-20 -0.0083238)
(-1.56735 -2.38257e-20 0.0150901)
(-1.56951 -1.33017e-20 0.036272)
(-1.57111 -5.4335e-21 0.0464274)
(-0.0908345 1.37631e-22 -0.236069)
(-0.44546 3.46363e-21 0.122565)
(-0.791063 0 0.172222)
(-1.0258 0 0.151479)
(-1.19456 -1.07475e-20 0.113925)
(-1.31619 2.29427e-20 0.0746373)
(-1.40478 9.51111e-20 0.0401238)
(-1.47099 -4.50876e-20 0.0150476)
(-1.52242 -2.42509e-20 -0.00136898)
(-1.56324 -2.94935e-22 -0.0114571)
(-1.59628 2.43863e-20 -0.0153802)
(-1.62453 -6.42415e-22 -0.0131023)
(-1.65047 0 -0.0060147)
(-1.6759 -5.41726e-20 0.00409748)
(-1.70246 5.27407e-20 0.0154163)
(-1.73105 -6.70804e-23 0.0247716)
(-1.76025 0 0.0282131)
(-1.78661 -6.27318e-20 0.0240306)
(-1.8072 -1.61086e-21 0.0148939)
(-1.82217 -1.23386e-21 0.00522409)
(-1.83414 6.56574e-20 -0.00251978)
(-1.84496 -3.20737e-20 -0.00999832)
(-1.85288 3.06921e-20 -0.0195592)
(-1.85428 3.06991e-20 -0.0303777)
(-1.84639 -2.10902e-20 -0.037599)
(-1.83044 1.53325e-20 -0.0346903)
(-1.81233 0 -0.0178005)
(-1.79945 -1.32635e-20 0.00959229)
(-1.79513 0 0.0365162)
(-1.79322 5.70096e-21 0.0509853)
(-0.165957 5.50054e-20 0.304077)
(-0.620146 -1.38133e-19 0.542023)
(-1.06133 1.00325e-19 0.464167)
(-1.31473 -8.34506e-20 0.341108)
(-1.47574 9.1862e-20 0.238827)
(-1.58478 -2.21492e-20 0.157698)
(-1.65854 -2.42025e-20 0.0945668)
(-1.71032 -2.34134e-20 0.0560087)
(-1.75118 0 0.0325885)
(-1.78421 -1.19157e-19 0.0150546)
(-1.81035 9.28455e-20 0.0046948)
(-1.83305 -2.41606e-20 0.00391753)
(-1.85553 0 0.0104136)
(-1.87921 -5.21914e-20 0.0207194)
(-1.9058 2.45022e-20 0.0330183)
(-1.93698 8.87283e-24 0.0438291)
(-1.97101 0 0.0471912)
(-2.00207 4.12448e-22 0.0398166)
(-2.0252 -3.38946e-20 0.0256252)
(-2.04058 0 0.0120549)
(-2.05288 -3.65337e-20 0.00297165)
(-2.06552 -3.66771e-20 -0.00509172)
(-2.07571 0 -0.0175043)
(-2.07709 -7.05541e-20 -0.0340553)
(-2.06483 3.40084e-20 -0.0479727)
(-2.04014 2.90899e-20 -0.049683)
(-2.01102 -7.06489e-21 -0.0328225)
(-1.98771 2.7143e-20 -0.000259606)
(-1.9754 -1.59314e-22 0.0340436)
(-1.96985 -5.51584e-21 0.0540176)
(-0.253286 -2.28228e-21 1.31309)
(-0.840613 0 1.45116)
(-1.42634 -9.58778e-20 0.908255)
(-1.65717 -4.27008e-21 0.490946)
(-1.77054 9.8676e-20 0.293342)
(-1.84409 8.64197e-20 0.197643)
(-1.88599 -1.59044e-19 0.126724)
(-1.911 8.31673e-20 0.0875782)
(-1.93909 4.68913e-20 0.0591698)
(-1.96486 -4.60098e-20 0.0299396)
(-1.98178 -4.49626e-20 0.0118431)
(-1.99561 0 0.0139036)
(-2.01288 0 0.0260688)
(-2.03414 0 0.0391869)
(-2.0601 5.3556e-20 0.0529677)
(-2.09406 -2.49133e-20 0.0664117)
(-2.13456 3.02447e-20 0.0707888)
(-2.17226 -1.93549e-21 0.0593451)
(-2.19806 6.69292e-20 0.0374202)
(-2.2122 0 0.0184185)
(-2.22355 3.60405e-20 0.00890031)
(-2.23878 3.61819e-20 0.00173708)
(-2.25329 0 -0.0137168)
(-2.25606 -3.29935e-21 -0.0383789)
(-2.23904 0 -0.0622606)
(-2.20334 -5.43456e-20 -0.071124)
(-2.15995 -3.28928e-20 -0.0549834)
(-2.1237 0 -0.0161192)
(-2.10182 1.59049e-22 0.0282198)
(-2.09207 -5.80316e-21 0.0555408)
(9.98828 7.99241e-19 0.117025)
(9.98 8.03304e-19 0.232832)
(9.96052 -4.0642e-19 0.349408)
(9.92924 0 0.468676)
(9.88934 -4.19145e-19 0.592153)
(9.84257 -4.26209e-19 0.721401)
(9.78899 1.72017e-18 0.85795)
(9.72846 -8.68477e-19 1.00315)
(9.66149 4.39032e-19 1.15836)
(9.58859 1.11653e-18 1.32503)
(9.50986 -9.01056e-19 1.50464)
(9.4256 -2.1805e-21 1.69866)
(9.33633 1.61935e-18 1.9087)
(9.24247 -1.85785e-18 2.13654)
(9.1445 2.11163e-18 2.38412)
(9.04298 -2.11807e-18 2.65357)
(8.93856 0 2.94737)
(8.83193 3.79129e-18 3.26847)
(8.72391 -6.85928e-18 3.62036)
(8.61549 7.5237e-18 4.00727)
(8.50755 -2.45846e-20 4.43428)
(8.40153 -2.7663e-18 4.90814)
(8.29932 -4.55787e-19 5.43766)
(8.20301 0 6.03464)
(8.11678 -8.14064e-19 6.71647)
(8.04734 3.80624e-18 7.50958)
(8.01707 -3.71545e-18 8.45541)
(8.054 0 9.63009)
(8.69316 6.81016e-19 11.111)
(9.15563 -1.28271e-18 13.9437)
(9.98865 0 0.12142)
(9.98174 -3.68471e-21 0.241603)
(9.96467 5.94154e-19 0.362547)
(9.93688 -2.00058e-19 0.486204)
(9.90146 0 0.614124)
(9.86003 -4.11591e-19 0.747888)
(9.8128 4.1679e-19 0.889042)
(9.75982 0 1.03893)
(9.70158 -3.23306e-21 1.19887)
(9.63859 -2.15998e-19 1.37033)
(9.57112 1.30927e-18 1.55478)
(9.49968 -3.9496e-18 1.75368)
(9.42486 1.98976e-18 1.96859)
(9.34729 0 2.20123)
(9.2677 -2.25535e-19 2.45346)
(9.18692 -1.34916e-18 2.72737)
(9.10596 1.79945e-18 3.02534)
(9.026 0 3.35016)
(8.94847 3.11401e-18 3.70514)
(8.87526 -3.54896e-18 4.0942)
(8.8085 -3.03799e-18 4.52204)
(8.75157 3.00337e-18 4.99477)
(8.70889 -3.68887e-18 5.52012)
(8.68667 9.24365e-20 6.10796)
(8.69604 3.85626e-18 6.77201)
(8.75555 -1.41179e-18 7.53056)
(8.90622 5.75371e-19 8.40601)
(9.16078 -1.18761e-18 9.42485)
(9.8234 -5.13051e-19 10.5419)
(10.4468 8.00827e-19 11.7376)
(9.98903 6.56456e-19 0.125431)
(9.98357 9.1142e-20 0.249583)
(9.96907 1.91918e-19 0.374463)