/*--------------------------------*- C++ -*----------------------------------*\
| =========                 |                                                 |
| \\      /  F ield         | OpenFOAM: The Open Source CFD Toolbox           |
|  \\    /   O peration     | Version:  5.x                                   |
|   \\  /    A nd           | Web:      www.OpenFOAM.org                      |
|    \\/     M anipulation  |                                                 |
\*---------------------------------------------------------------------------*/
FoamFile
{
    version     2.0;
    format      ascii;
    class       surfaceVectorField;
    location    "4.4";
    object      Uf;
}
// * * * * * * * * * * * * * * * * * * * * * * * * * * * * * * * * * * * * * //

dimensions      [0 1 -1 0 0 0 0];

internalField   nonuniform List<vector> 
5457
(
(9.91611 -2.69169e-20 0.0239888)
(9.96238 6.78518e-21 0.0375572)
(9.81865 0 0.0305519)
(9.92502 -2.08134e-20 0.0449632)
(9.70713 0 0.0359884)
(9.85835 4.25674e-20 0.0531773)
(9.57904 -3.08833e-20 0.0416754)
(9.76611 -5.81354e-20 0.063105)
(9.43437 -1.40321e-20 0.0475911)
(9.65538 7.41389e-20 0.0736099)
(9.27331 -1.7667e-20 0.0537719)
(9.52824 4.66788e-20 0.0846025)
(9.09562 1.92488e-21 0.0603601)
(9.38414 -3.20309e-20 0.0963335)
(8.90071 3.28753e-20 0.0674923)
(9.22217 -3.15475e-20 0.109035)
(8.68777 2.29507e-21 0.0752867)
(9.04153 0 0.122884)
(8.45586 2.22507e-21 0.0838603)
(8.84142 -1.40285e-19 0.138052)
(8.20387 0 0.0933355)
(8.62089 -1.70386e-21 0.154722)
(7.93055 0 0.103842)
(8.3788 3.00958e-19 0.173079)
(7.63458 -8.82687e-20 0.115515)
(8.11388 -1.55639e-19 0.193313)
(7.31454 -1.79769e-19 0.128494)
(7.82475 -8.69431e-20 0.215615)
(6.96901 -1.18506e-19 0.142912)
(7.50996 -1.35424e-19 0.240153)
(6.5966 1.7739e-19 0.158892)
(7.16809 4.03377e-20 0.267057)
(6.19606 2.52032e-19 0.176533)
(6.79773 -6.51683e-19 0.296404)
(5.76639 -2.38296e-19 0.195895)
(6.39768 -8.00832e-21 0.328181)
(5.30698 -3.73311e-20 0.216968)
(5.96696 4.9176e-19 0.362238)
(4.8178 2.37934e-19 0.239644)
(5.50508 2.41543e-19 0.39823)
(4.29967 -7.13689e-19 0.263666)
(5.01214 -2.34772e-19 0.435545)
(3.75445 -8.5043e-20 0.288589)
(4.48916 -5.78455e-19 0.473223)
(3.18542 4.26454e-19 0.313722)
(3.9383 8.67345e-19 0.509875)
(2.5975 -1.60547e-18 0.338107)
(3.36319 -3.06593e-19 0.543613)
(1.99752 1.48948e-19 0.36066)
(2.76929 -1.42577e-18 0.572022)
(1.39404 1.52668e-18 0.38155)
(2.1645 1.54137e-18 0.592428)
(0.795108 0 0.39865)
(1.56026 0 0.603862)
(0.198892 0 0.163882)
(0.968192 0 0.607847)
(-0.107702 -2.14672e-18 -0.201831)
(0.3398 0 0.307714)
(0.213292 1.56258e-17 -0.107786)
(9.99957 1.23926e-20 0.0481401)
(9.99088 3.40885e-20 0.0377459)
(9.96581 2.28258e-20 0.064166)
(9.9802 -7.61402e-20 0.060537)
(9.91163 -1.72144e-20 0.0783347)
(9.94406 4.26822e-20 0.0790089)
(9.83892 4.90329e-20 0.0934756)
(9.88289 -1.73933e-19 0.0989239)
(9.74756 1.34408e-19 0.109545)
(9.80256 2.23273e-19 0.120091)
(9.63758 3.1056e-20 0.126583)
(9.70526 -6.02045e-20 0.142372)
(9.50879 -6.54994e-20 0.144893)
(9.59073 4.85007e-22 0.166155)
(9.3607 -6.39335e-20 0.164784)
(9.4582 -6.49512e-20 0.191881)
(9.1926 -1.4476e-19 0.186524)
(9.30697 0 0.219907)
(9.00358 -1.42073e-19 0.21038)
(9.13635 -1.51157e-19 0.250583)
(8.79261 3.03923e-19 0.236627)
(8.9455 -1.70408e-21 0.28428)
(8.55848 1.3833e-19 0.265546)
(8.73339 1.29743e-20 0.321376)
(8.29989 -1.53272e-19 0.297425)
(8.49884 1.48989e-19 0.362267)
(8.0154 -4.3327e-20 0.332535)
(8.24056 -6.81948e-19 0.407354)
(7.70355 2.61141e-20 0.371103)
(7.95716 6.999e-19 0.457003)
(7.36287 -7.99302e-19 0.413292)
(7.64719 8.08478e-19 0.511509)
(6.99197 -9.0226e-19 0.459158)
(7.30922 -1.39073e-18 0.571075)
(6.58965 7.29473e-19 0.508591)
(6.94188 -6.16431e-20 0.635736)
(6.15503 7.67028e-19 0.561237)
(6.54396 -9.24863e-19 0.70527)
(5.68773 -2.38247e-19 0.616401)
(6.11454 3.35057e-18 0.779076)
(5.18809 -1.04287e-19 0.672927)
(5.65315 -1.54679e-18 0.856034)
(4.65743 3.94361e-19 0.729073)
(5.16 1.77031e-18 0.934316)
(4.09843 1.18825e-19 0.782367)
(4.63618 -1.45205e-18 1.0112)
(3.51544 -1.40961e-19 0.829402)
(4.08408 -4.02586e-19 1.08283)
(2.9153 0 0.865492)
(3.50765 5.57196e-19 1.14374)
(2.30886 0 0.883418)
(2.91326 -5.95659e-19 1.18602)
(1.71792 0 0.866951)
(2.31125 0 1.1951)
(1.19531 0 0.751694)
(1.70383 0 1.13343)
(0.581149 1.80241e-17 0.412928)
(1.10043 0 0.911136)
(0.596378 1.76047e-17 0.468855)
(9.99231 -5.61835e-20 0.0533032)
(9.98855 -1.35717e-20 0.0411939)
(9.96192 -5.42861e-20 0.0784988)
(9.9754 1.24074e-19 0.0745668)
(9.91137 -1.17576e-19 0.102275)
(9.94032 1.12914e-19 0.103131)
(9.84357 6.75089e-21 0.127444)
(9.88212 -2.31107e-19 0.132347)
(9.75889 2.40951e-20 0.15423)
(9.80563 1.77667e-19 0.163205)
(9.65729 -8.9828e-20 0.182768)
(9.71308 -9.12827e-20 0.195774)
(9.53864 0 0.213491)
(9.60441 1.56077e-19 0.230519)
(9.40258 0 0.246862)
(9.47911 -1.27567e-19 0.268042)
(9.24853 -8.72975e-21 0.283309)
(9.33654 2.6523e-19 0.308864)
(9.07578 -8.46483e-21 0.323271)
(9.1762 -2.70971e-19 0.353488)
(8.88344 -2.92459e-19 0.367207)
(8.99745 2.78523e-19 0.402455)
(8.67049 2.5668e-20 0.415597)
(8.79949 -8.95981e-22 0.456334)
(8.43576 -3.92317e-19 0.468933)
(8.58133 -3.13054e-19 0.515712)
(8.17799 8.21782e-20 0.527695)
(8.34193 -1.27257e-18 0.581195)
(7.8958 1.48414e-18 0.592306)
(8.08014 2.08222e-18 0.653354)
(7.58778 1.84054e-19 0.663093)
(7.79473 7.05341e-20 0.732689)
(7.25247 -5.30219e-19 0.740231)
(7.48442 -5.38821e-19 0.819583)
(6.8885 -1.72934e-18 0.82364)
(7.14789 0 0.914219)
(6.49462 1.72097e-18 0.912862)
(6.78388 -1.51234e-18 1.01644)
(6.06982 1.9719e-18 1.00689)
(6.39116 3.35211e-18 1.1256)
(5.61355 3.745e-19 1.10397)
(5.96875 -1.52361e-18 1.24032)
(5.12584 -1.18687e-19 1.20134)
(5.51586 1.86699e-18 1.35825)
(4.60766 -1.96029e-18 1.29494)
(5.03211 -5.92129e-18 1.47568)
(4.06123 3.06724e-19 1.37898)
(4.51781 3.64018e-18 1.58719)
(3.49048 -5.06375e-20 1.44503)
(3.97393 3.70716e-20 1.68483)
(2.90158 -5.90184e-19 1.48013)
(3.40201 -4.30152e-20 1.75689)
(2.30069 0 1.46117)
(2.80409 0 1.78547)
(1.67937 0 1.3459)
(2.17435 1.01531e-17 1.74145)
(0.970343 0 1.09491)
(1.4811 -1.10319e-17 1.58882)
(0.850856 1.20391e-17 1.28572)
(9.98811 1.68862e-19 0.0628061)
(9.98717 9.46705e-20 0.0465241)
(9.95775 2.91092e-19 0.0983745)
(9.97229 6.92463e-20 0.0885904)
(9.90812 -6.2565e-21 0.132344)
(9.93704 2.81172e-19 0.126822)
(9.84142 -5.35718e-20 0.167316)
(9.87987 -1.72596e-19 0.165239)
(9.75839 5.79722e-20 0.204058)
(9.80495 5.89214e-20 0.205496)
(9.65909 1.5856e-19 0.242984)
(9.71436 -6.01178e-20 0.247991)
(9.54346 2.40542e-20 0.284694)
(9.60816 -1.22837e-19 0.293274)
(9.41127 1.43775e-19 0.329823)
(9.48598 -1.29706e-19 0.342074)
(9.26213 -5.28004e-21 0.378961)
(9.34733 5.25358e-19 0.39504)
(9.09551 2.44215e-20 0.432712)
(9.19181 -2.62445e-19 0.452794)
(8.91081 5.65927e-19 0.491718)
(9.01896 2.82951e-19 0.51602)
(8.70725 -3.44345e-19 0.55665)
(8.82818 2.87305e-19 0.585438)
(8.48398 -1.208e-18 0.628197)
(8.61875 -5.99489e-19 0.661797)
(8.24006 7.78048e-19 0.707046)
(8.38987 -5.90666e-19 0.745861)
(7.97446 6.38479e-19 0.793832)
(8.1407 1.26045e-18 0.838378)
(7.68608 -6.61741e-19 0.889097)
(7.87031 -7.54073e-19 0.940031)
(7.37379 -4.00989e-22 0.993218)
(7.57774 -8.61985e-20 1.05139)
(7.03636 1.94989e-19 1.10629)
(7.26194 1.43334e-18 1.17283)
(6.67258 1.89429e-19 1.22795)
(6.92182 -1.27866e-18 1.30437)
(6.28123 -2.13801e-19 1.35718)
(6.55615 -3.29967e-18 1.44545)
(5.86115 1.64688e-20 1.49203)
(6.16373 5.82827e-18 1.59477)
(5.41124 -4.03902e-18 1.62925)
(5.74313 -6.50625e-18 1.74985)
(4.9306 -2.0384e-19 1.76388)
(5.29265 -4.24374e-18 1.9066)
(4.41862 3.33062e-18 1.88865)
(4.81049 1.07495e-18 2.05887)
(3.87466 4.27625e-20 1.99314)
(4.29443 1.50098e-17 2.19774)
(3.29704 5.47186e-19 2.06274)
(3.74116 -7.6184e-18 2.31084)
(2.67928 1.01887e-17 2.0761)
(3.14555 9.28614e-18 2.382)
(2.00306 -9.05612e-19 2.00583)
(2.49813 1.01649e-17 2.38924)
(1.23155 1.41799e-18 1.83749)
(1.75872 -2.10759e-17 2.3126)
(1.02601 1.19673e-17 2.13903)
(9.98599 -5.30719e-21 0.0729435)
(9.98639 1.37516e-22 0.0528045)
(9.95519 6.28646e-20 0.117362)
(9.97067 -1.10186e-19 0.102823)
(9.90639 1.07385e-19 0.160352)
(9.93544 5.67727e-20 0.150126)
(9.84087 -5.63537e-20 0.20431)
(9.87927 -1.71273e-19 0.197565)
(9.75945 -6.10848e-20 0.250407)
(9.80604 0 0.246982)
(9.66228 -3.42547e-19 0.299296)
(9.71761 -3.07114e-22 0.299114)
(9.54928 -2.76743e-19 0.351689)
(9.61395 -2.79007e-19 0.354636)
(9.42026 2.62053e-19 0.408323)
(9.49482 -2.54691e-19 0.414365)
(9.27495 2.56121e-19 0.469888)
(9.35987 4.85205e-19 0.479054)
(9.11293 4.40877e-21 0.537097)
(9.2087 0 0.549437)
(8.93369 4.27744e-21 0.61071)
(9.04094 4.34383e-21 0.62631)
(8.73668 1.88294e-20 0.691526)
(8.85615 0 0.710512)
(8.52124 1.82759e-20 0.780369)
(8.65373 1.8557e-20 0.802917)
(8.28666 -8.07959e-20 0.878067)
(8.43308 1.21024e-18 0.904426)
(8.03218 -1.62276e-19 0.985407)
(8.19353 -2.56607e-18 1.01592)
(7.75701 -1.68471e-19 1.1031)
(7.93439 -1.96157e-20 1.13823)
(7.46031 1.36992e-18 1.2317)
(7.65489 1.237e-18 1.27207)
(7.14111 -7.86497e-20 1.37151)
(7.35423 1.60633e-18 1.41804)
(6.79837 -4.79797e-18 1.52235)
(7.03151 -4.35384e-18 1.57634)
(6.43087 2.86717e-18 1.68338)
(6.68557 -1.64046e-19 1.74665)
(6.03716 -8.55931e-19 1.85279)
(6.31508 6.43209e-18 1.9279)
(5.61536 -6.68745e-18 2.02733)
(5.91826 -6.33364e-18 2.11791)
(5.16296 -2.89995e-18 2.20184)
(5.49255 -4.02961e-20 2.3128)
(4.67685 1.28942e-17 2.36874)
(5.03442 -3.26543e-18 2.50649)
(4.15259 7.1433e-18 2.51743)
(4.53916 1.55287e-17 2.69028)
(3.58338 1.24553e-18 2.63402)
(4.00031 -1.58662e-17 2.8525)
(2.95834 9.27778e-18 2.70064)
(3.40883 1.6844e-17 2.97861)
(2.26019 -1.00555e-17 2.69667)
(2.75528 -4.90219e-19 3.04963)
(1.46962 -9.87708e-18 2.61385)
(2.00624 -1.03454e-17 3.04706)
(1.19627 6.65132e-19 2.97392)
(9.98496 -1.06459e-19 0.0834451)
(9.98595 -1.08147e-19 0.0595453)
(9.95398 -1.13493e-19 0.136166)
(9.97002 -1.09154e-19 0.117144)
(9.90614 -2.25631e-19 0.187952)
(9.93512 -5.22844e-22 0.172983)
(9.84213 -1.12147e-19 0.240885)
(9.88018 -6.36048e-22 0.229161)
(9.76273 6.07822e-20 0.296304)
(9.80897 -1.15825e-19 0.287465)
(9.66809 5.8888e-20 0.35505)
(9.72308 1.19066e-19 0.348935)
(9.55811 -2.56537e-19 0.417924)
(9.62239 -6.06387e-20 0.414393)
(9.43268 -2.0166e-20 0.48574)
(9.50679 -2.52659e-19 0.484699)
(9.29157 2.2168e-19 0.559294)
(9.37602 3.20886e-19 0.560706)
(9.13441 0 0.639403)
(9.22967 5.27449e-19 0.643259)
(8.96079 0 0.726939)
(9.06747 -5.5366e-19 0.73325)
(8.77026 0 0.822811)
(8.88903 8.65058e-21 0.831612)
(8.56227 1.22838e-18 0.927972)
(8.69386 1.14103e-18 0.939334)
(8.33624 -1.33038e-18 1.04338)
(8.48144 3.99615e-20 1.05744)
(8.09156 -2.38763e-18 1.16994)
(8.25123 -1.26583e-18 1.18693)
(7.82757 1.40426e-18 1.3085)
(8.00259 -2.52292e-18 1.32875)
(7.5436 1.47916e-18 1.45981)
(7.73485 2.61023e-18 1.48377)
(7.23886 -2.75324e-18 1.62435)
(7.44733 -2.68721e-18 1.65275)
(6.91237 3.37707e-19 1.80222)
(7.13919 -1.37811e-19 1.83616)
(6.56288 3.49191e-18 1.99285)
(6.8093 2.65854e-19 2.034)
(6.18875 7.87388e-19 2.19478)
(6.4561 3.32931e-18 2.24552)
(5.78764 3.94659e-19 2.40523)
(6.07757 -6.52941e-18 2.46907)
(5.35597 -4.43564e-19 2.61942)
(5.67073 6.32394e-18 2.70149)
(4.88878 -4.34383e-19 2.83021)
(5.23084 -4.38921e-19 2.9373)
(4.37933 -7.76691e-18 3.02769)
(4.75152 0 3.16855)
(3.8185 -2.22081e-20 3.19905)
(4.22464 -7.25456e-18 3.38442)
(3.19458 6.98444e-18 3.32813)
(3.63946 7.56422e-18 3.57098)
(2.49278 -8.21516e-19 3.39418)
(2.98676 -8.02256e-18 3.70959)
(1.70768 3.86227e-19 3.38694)
(2.24884 8.49963e-18 3.77335)
(1.37547 6.53442e-19 3.7808)
(9.98458 -1.1086e-19 0.0940889)
(9.98577 -2.68139e-20 0.0664569)
(9.95375 5.64253e-21 0.154722)
(9.96998 1.89931e-19 0.131397)
(9.90704 2.24514e-19 0.214929)
(9.93572 5.56139e-20 0.195314)
(9.84488 -6.16215e-21 0.276514)
(9.88236 6.87923e-22 0.259865)
(9.76788 -5.38171e-20 0.340906)
(9.81349 -4.99455e-22 0.326749)
(9.67617 -3.28426e-21 0.40913)
(9.73043 1.17827e-19 0.397247)
(9.5697 -5.9712e-20 0.482073)
(9.63316 3.01319e-19 0.472291)
(9.4484 9.72208e-20 0.56063)
(9.52161 -1.84109e-19 0.552773)
(9.31208 6.29834e-19 0.645699)
(9.39559 3.25342e-20 0.639652)
(9.16045 -4.23578e-20 0.7382)
(9.25472 7.34304e-21 0.733879)
(8.99314 -5.36854e-19 0.839095)
(9.09878 5.25795e-19 0.836426)
(8.80976 1.16658e-18 0.949393)
(8.92745 -5.42894e-19 0.948324)
(8.60983 -6.34833e-20 1.07016)
(8.74025 1.15062e-18 1.07067)
(8.39285 8.56168e-20 1.20246)
(8.53676 -1.21437e-20 1.20459)
(8.15826 -1.41773e-18 1.34734)
(8.31651 4.40978e-20 1.35123)
(7.90542 -1.24686e-18 1.50576)
(8.0789 -2.58852e-18 1.51166)
(7.6337 -1.63031e-18 1.67862)
(7.82321 3.81641e-18 1.68687)
(7.34234 -3.80247e-20 1.86665)
(7.54872 -5.59674e-18 1.87781)
(7.03035 -2.02244e-19 2.07023)
(7.25461 -9.7225e-20 2.08526)
(6.69634 1.37275e-19 2.28918)
(6.93966 2.61459e-18 2.30958)
(6.3384 -4.10885e-18 2.52253)
(6.60209 -2.54239e-18 2.5505)
(5.95386 -4.56525e-19 2.76824)
(6.23952 -9.89841e-18 2.80697)
(5.5386 6.26138e-18 3.02239)
(5.8487 1.23334e-17 3.07678)
(5.08648 0 3.27866)
(5.42419 0 3.35553)
(4.58942 4.48787e-19 3.52801)
(4.95852 0 3.63612)
(4.03736 4.41733e-19 3.75816)
(4.44259 -3.92144e-19 3.90842)
(3.41875 -7.53075e-18 3.95277)
(3.86484 0 4.15816)
(2.72027 1.36367e-18 4.08681)
(3.21427 1.13524e-21 4.36566)
(1.94441 8.58739e-18 4.14273)
(2.49419 1.65665e-17 4.49023)
(1.56374 -1.7231e-17 4.5609)
(9.98456 2.7746e-19 0.104693)
(9.98577 -2.68201e-20 0.0733736)
(9.95422 2.37715e-19 0.172895)
(9.97033 8.22107e-20 0.145431)
(9.90892 -1.69184e-19 0.241118)
(9.93707 -2.75512e-19 0.216983)
(9.84893 6.32492e-21 0.311007)
(9.88564 -1.12792e-19 0.289515)
(9.77464 1.73059e-19 0.384047)
(9.81933 2.29568e-19 0.36468)
(9.68621 4.25347e-19 0.461395)
(9.73939 1.75843e-19 0.443866)
(9.58372 1.69506e-19 0.544013)
(9.64598 6.45337e-20 0.528075)
(9.46711 -2.45575e-19 0.632873)
(9.539 -2.45262e-19 0.618278)
(9.33623 -5.90579e-19 0.728975)
(9.41831 -1.05484e-21 0.715537)
(9.19081 5.83182e-19 0.833323)
(9.28359 -5.20637e-19 0.820889)
(9.03057 5.04587e-19 0.946966)
(9.13463 1.08042e-18 0.935387)
(8.85513 -5.3489e-19 1.07101)
(8.97114 -5.18524e-19 1.06016)
(8.66408 1.18549e-18 1.20663)
(8.79273 -1.10539e-18 1.19639)
(8.45698 -5.22851e-20 1.35502)
(8.59904 2.28314e-18 1.34532)
(8.23334 -1.1638e-18 1.51735)
(8.3896 -1.18065e-18 1.50823)
(7.99247 2.56437e-18 1.69475)
(8.16397 -3.69482e-20 1.68637)
(7.73365 -2.74459e-19 1.88825)
(7.92134 2.53195e-18 1.88091)
(7.45607 -5.58697e-18 2.09883)
(7.66079 -5.17505e-18 2.09295)
(7.15865 2.75195e-18 2.32726)
(7.38144 2.44751e-18 2.32361)
(6.83983 -1.23351e-19 2.5738)
(7.08198 2.88014e-18 2.57368)
(6.49742 -8.42568e-18 2.83809)
(6.76042 -5.66703e-18 2.84347)
(6.12831 3.13924e-18 3.11894)
(6.414 -2.61478e-18 3.13268)
(5.72799 5.94618e-18 3.41354)
(6.039 6.18811e-18 3.44014)
(5.28969 0 3.71668)
(5.62958 5.88457e-18 3.76274)
(4.80444 -8.44523e-19 4.02016)
(5.17755 -6.01953e-18 4.0945)
(4.26137 -8.31052e-19 4.3117)
(4.67277 -4.44392e-19 4.42582)
(3.64881 7.53161e-18 4.57362)
(4.10284 -9.97765e-20 4.74158)
(2.95315 1.52969e-17 4.77472)
(3.45194 7.3682e-18 5.02059)
(2.17832 -1.0098e-17 4.88508)
(2.74548 8.00925e-18 5.20658)
(1.75879 -1.71931e-17 5.3262)
(9.98479 -2.20358e-19 0.115117)
(9.9859 2.12587e-19 0.0801868)
(9.95526 -4.3705e-19 0.190548)
(9.97101 -2.17019e-19 0.159097)
(9.91163 -2.16463e-19 0.266381)
(9.93905 -6.12547e-22 0.237863)
(9.85405 1.1596e-19 0.344225)
(9.88976 -5.69527e-23 0.317996)
(9.78275 2.31514e-19 0.425575)
(9.82625 1.14219e-19 0.401117)
(9.69798 -1.86791e-19 0.511646)
(9.7498 2.32836e-19 0.488596)
(9.59992 -3.55118e-19 0.603478)
(9.66065 5.84071e-20 0.581502)
(9.48854 3.00001e-21 0.70214)
(9.55872 -5.41957e-19 0.680918)
(9.36371 6.13151e-20 0.808724)
(9.44392 5.13573e-22 0.788003)
(9.2252 0 0.924315)
(9.31597 -5.68594e-19 0.903886)
(9.07274 3.39037e-20 1.05004)
(9.17466 1.61172e-18 1.02969)
(8.90602 -1.09745e-18 1.18711)
(9.01978 -1.04845e-18 1.16661)
(8.7247 3.91344e-20 1.33678)
(8.85098 -1.10671e-18 1.31595)
(8.52837 1.10741e-18 1.50037)
(8.66797 1.12332e-18 1.47904)
(8.31662 -3.74651e-20 1.67923)
(8.47031 0 1.65725)
(8.08885 -3.64869e-20 1.87469)
(8.25766 -7.25913e-22 1.85209)
(7.84418 -2.46985e-18 2.08797)
(8.02931 2.33901e-18 2.06498)
(7.58161 2.95909e-18 2.3203)
(7.7841 -7.20053e-18 2.29725)
(7.29993 2.58485e-18 2.57283)
(7.52102 7.84516e-18 2.55028)
(6.99748 -2.76801e-18 2.8464)
(7.23866 -2.62773e-18 2.82537)
(6.67176 1.85299e-19 3.14137)
(6.93484 5.01313e-18 3.12352)
(6.31922 5.25277e-19 3.45751)
(6.60648 -4.9028e-18 3.44535)
(5.93484 6.12071e-18 3.79327)
(6.24935 -5.39397e-18 3.79084)
(5.5114 -2.37865e-19 4.14477)
(5.85713 5.86842e-18 4.15833)
(5.03905 -5.5762e-18 4.50481)
(5.42093 -4.15452e-19 4.5433)
(4.50562 2.90018e-19 4.861)
(4.92914 -5.3805e-18 4.93709)
(3.89795 -2.06779e-19 5.19402)
(4.36785 5.936e-18 5.32384)
(3.2001 1.16606e-19 5.46631)
(3.71302 5.87344e-18 5.68112)
(2.41049 2.15519e-19 5.63039)
(3.00839 -1.27969e-17 5.9386)
(1.961 1.39389e-17 6.10334)
(9.98524 2.0932e-19 0.125244)
(9.98617 2.64944e-19 0.0867965)
(9.95679 2.23116e-19 0.207564)
(9.97199 -5.36686e-20 0.172268)
(9.91499 2.15866e-19 0.290617)
(9.94155 4.36964e-19 0.257881)
(9.86 0 0.376039)
(9.89453 -2.21091e-19 0.345219)
(9.79201 1.17381e-19 0.465313)
(9.83405 -1.12488e-19 0.435889)
(9.71131 4.75443e-19 0.559658)
(9.76151 5.89303e-22 0.531227)
(9.61812 -1.37468e-19 0.660194)
(9.67701 4.7346e-19 0.632333)
(9.51247 -5.36476e-19 0.768101)
(9.58058 -9.5967e-19 0.74041)
(9.39426 -6.37955e-19 0.884566)
(9.47216 3.01871e-19 0.85673)
(9.26327 1.0749e-18 1.01075)
(9.3515 -4.4485e-19 0.9825)
(9.11931 4.91915e-19 1.14785)
(9.21849 1.61248e-18 1.1189)
(8.9621 -1.05872e-18 1.29716)
(9.07293 -4.36516e-20 1.2672)
(8.79137 8.339e-21 1.46003)
(8.91455 1.78084e-20 1.42879)
(8.60677 0 1.63788)
(8.74315 -1.07333e-18 1.60509)
(8.40793 3.67622e-20 1.83222)
(8.55835 -1.71069e-20 1.79761)
(8.19435 2.40618e-18 2.04466)
(8.35977 2.29185e-18 2.00799)
(7.96519 -2.5093e-18 2.2767)
(8.14683 9.89598e-20 2.23805)
(7.71928 -2.13845e-18 2.52985)
(7.91853 -7.1111e-18 2.48942)
(7.45527 2.51074e-18 2.80563)
(7.67369 7.22031e-18 2.76376)
(7.17133 5.24457e-18 3.10552)
(7.41074 -2.37201e-18 3.06289)
(6.86474 -1.74899e-19 3.43076)
(7.12737 2.61681e-19 3.38862)
(6.53161 -1.08391e-17 3.78224)
(6.82026 -3.23424e-19 3.7426)
(6.16638 -5.55637e-18 4.15986)
(6.48483 -5.5451e-18 4.12619)
(5.76113 5.64076e-18 4.5614)
(6.1142 -2.80417e-20 4.5395)
(5.3049 -2.57651e-19 4.98112)
(5.69856 3.68647e-19 4.98003)
(4.78332 3.6435e-19 5.40729)
(5.22431 -3.98165e-19 5.44099)
(4.17972 1.20224e-17 5.81953)
(4.67491 1.14587e-17 5.90706)
(3.47285 -7.22872e-18 6.1754)
(4.01468 4.00686e-19 6.35604)
(2.64842 1.59953e-18 6.40593)
(3.29743 -1.3208e-17 6.70802)
(2.17821 1.41492e-17 6.93586)
(9.98588 -3.13921e-21 0.134974)
(9.98656 -1.59079e-19 0.0931194)
(9.95869 1.68347e-19 0.223853)
(9.97319 2.66169e-19 0.18486)
(9.91887 -1.07743e-20 0.313742)
(9.94445 7.28537e-22 0.276963)
(9.86665 -3.31901e-19 0.406322)
(9.89986 -1.10659e-19 0.371089)
(9.80231 -2.2757e-19 0.50307)
(9.84265 -2.24594e-19 0.468836)
(9.72607 5.75235e-21 0.605207)
(9.77436 1.12052e-19 0.57155)
(9.63817 -3.70421e-19 0.713913)
(9.69491 5.8169e-19 0.680345)
(9.53868 -1.02506e-19 0.830478)
(9.60435 -9.49126e-19 0.796513)
(9.42754 4.84417e-19 0.956185)
(9.50272 6.03993e-19 0.921449)
(9.30462 1.21967e-19 1.09225)
(9.38986 6.28371e-20 1.05641)
(9.16978 1.05364e-18 1.23995)
(9.2657 -1.25018e-19 1.20263)
(9.02284 1.03493e-18 1.40063)
(9.13009 1.04002e-18 1.36145)
(8.86357 -1.07892e-18 1.57576)
(8.98291 9.35934e-21 1.53433)
(8.69172 -1.07728e-18 1.76685)
(8.82402 -1.00898e-18 1.7228)
(8.50692 2.26874e-18 1.97557)
(8.65313 3.30433e-20 1.92849)
(8.30869 -4.3038e-20 2.20373)
(8.46979 1.02403e-19 2.15324)
(8.09639 -4.59208e-18 2.45323)
(8.27354 -2.264e-18 2.39907)
(7.86896 2.41646e-18 2.72591)
(8.06377 2.1724e-18 2.66803)
(7.62496 2.23285e-18 3.02373)
(7.83932 2.41141e-18 2.96219)
(7.36237 -7.33878e-18 3.34885)
(7.59847 -2.40438e-18 3.28392)
(7.07836 1.03184e-19 3.70347)
(7.33894 -4.94383e-18 3.63586)
(6.76881 4.94217e-18 4.08978)
(7.05737 2.98853e-19 4.02082)
(6.42778 3.88548e-20 4.5095)
(6.74891 9.44241e-18 4.44176)
(6.04657 -5.31199e-18 4.9626)
(6.4064 -3.20988e-21 4.90109)
(5.61271 2.23492e-19 5.44582)
(6.01923 -1.00577e-17 5.39921)
(5.1087 1.0814e-17 5.94973)
(5.57128 4.95731e-19 5.93287)
(4.51184 -3.07842e-19 6.45527)
(5.04235 1.01879e-17 6.49015)
(3.7915 -5.7031e-18 6.91836)
(4.38225 -1.03997e-17 7.05265)
(2.91328 2.36781e-20 7.24828)
(3.64284 1.01439e-17 7.53825)
(2.43189 -5.35885e-18 7.88184)
(9.98666 1.16663e-19 0.144234)
(9.98699 -1.78869e-21 0.0990975)
(9.96087 9.409e-20 0.239339)
(9.97457 1.07232e-19 0.196806)
(9.9232 -1.00967e-19 0.335672)
(9.94767 -4.31705e-19 0.295026)
(9.87398 -5.10774e-21 0.434954)
(9.90572 1.10542e-19 0.395504)
(9.81351 1.20326e-19 0.538676)
(9.85197 -3.3443e-19 0.499829)
(9.74206 6.95297e-19 0.648088)
(9.78816 6.7728e-19 0.609391)
(9.65981 -1.9816e-20 0.764413)
(9.71411 4.64658e-19 0.72534)
(9.56686 -2.19812e-19 0.889029)
(9.62974 -4.70554e-19 0.849017)
(9.46324 1.7451e-19 1.0233)
(9.53527 2.39564e-19 0.981904)
(9.34889 -1.86913e-19 1.16849)
(9.43066 -6.65308e-19 1.12532)
(9.22375 -1.22947e-19 1.32593)
(9.31586 5.47676e-19 1.28052)
(9.08774 0 1.49704)
(9.19079 1.00064e-18 1.44892)
(8.94073 6.64222e-20 1.68336)
(9.05552 -5.58041e-20 1.63206)
(8.78254 1.15571e-19 1.88656)
(8.90994 -1.02475e-18 1.83154)
(8.61286 -2.13477e-18 2.10842)
(8.75386 1.74043e-20 2.04917)
(8.43129 -2.1497e-18 2.35094)
(8.58692 -2.19264e-18 2.2869)
(8.23738 4.55859e-18 2.61629)
(8.40884 2.13634e-18 2.5469)
(8.03035 2.17198e-18 2.90679)
(8.21933 2.34554e-18 2.83158)
(7.80882 -2.28235e-18 3.22491)
(8.01738 -2.28038e-18 3.14354)
(7.57082 -2.72512e-20 3.5735)
(7.80147 -2.2506e-18 3.48575)
(7.31356 -4.70336e-18 3.95582)
(7.56954 4.3768e-18 3.86168)
(7.03292 4.8752e-18 4.37548)
(7.3185 -1.13895e-17 4.27536)
(6.72283 9.33512e-18 4.83633)
(7.04355 1.84159e-17 4.73155)
(6.37419 -4.83324e-18 5.34144)
(6.73783 -4.45995e-18 5.23537)
(5.97313 -9.70761e-18 5.89161)
(6.39059 -9.20204e-18 5.79137)
(5.49843 -4.86511e-20 6.48263)
(5.98364 -4.87051e-18 6.40226)
(4.91927 -1.5656e-19 7.10154)
(5.49306 9.31526e-18 7.06429)
(4.19038 5.76164e-18 7.70926)
(4.85288 -4.81353e-18 7.76997)
(3.2479 4.32518e-18 8.20082)
(4.09907 1.03581e-17 8.44759)
(2.7665 -5.44844e-18 9.01197)
(9.9875 -9.54871e-21 0.15297)
(9.98739 5.25383e-20 0.1047)
(9.96328 -4.27638e-19 0.253947)
(9.97606 -5.81928e-19 0.208036)
(9.92795 -2.11376e-19 0.356314)
(9.95115 1.06382e-19 0.311987)
(9.88188 -2.25888e-19 0.461829)
(9.91202 0 0.418373)
(9.8255 2.3822e-19 0.572)
(9.86193 -2.78455e-21 0.52877)
(9.75909 4.43383e-19 0.688134)
(9.80279 2.2728e-19 0.644616)
(9.68277 0 0.811504)
(9.73439 -6.81297e-19 0.767152)
(9.5967 -7.22332e-22 0.943531)
(9.6565 1.03661e-18 0.897734)
(9.50097 -6.13412e-19 1.08564)
(9.56948 -5.8482e-19 1.03787)
(9.39565 8.61765e-20 1.23915)
(9.47349 -8.61701e-21 1.18895)
(9.28073 1.67818e-18 1.40541)
(9.3685 -8.96613e-19 1.35226)
(9.15627 9.31411e-19 1.58592)
(9.25451 1.97736e-18 1.52924)
(9.02222 -1.15997e-18 1.78232)
(9.13173 6.46221e-21 1.7215)
(8.87848 -1.11065e-18 1.99634)
(9.00014 -1.0916e-18 1.93077)
(8.72491 -6.61872e-20 2.22992)
(8.85969 -3.28688e-20 2.15892)
(8.56131 2.14701e-18 2.48519)
(8.71025 -3.33575e-20 2.40799)
(8.38743 -7.71392e-20 2.76455)
(8.55178 7.32134e-20 2.6803)
(8.20271 -2.16125e-18 3.07073)
(8.38416 -9.57268e-20 2.97854)
(8.00612 -2.24775e-18 3.40675)
(8.20676 2.10939e-18 3.3058)
(7.79602 2.21822e-18 3.7762)
(8.01854 -4.33912e-18 3.66559)
(7.57002 -2.44753e-18 4.18336)
(7.81801 4.45364e-18 4.06217)
(7.32443 2.39711e-18 4.63338)
(7.60263 -4.63869e-18 4.5008)
(7.0536 4.42694e-18 5.13246)
(7.36856 6.91712e-18 4.98803)
(6.74889 -8.8738e-18 5.68749)
(7.11012 -4.46935e-18 5.53191)
(6.39607 -4.31867e-18 6.3053)
(6.81763 -4.41734e-18 6.14207)
(5.97132 4.64386e-18 6.99107)
(6.47345 3.96484e-18 6.82987)
(5.43558 4.48574e-18 7.74614)
(6.05277 6.52994e-19 7.60601)
(4.72427 0 8.55062)
(5.47769 2.22233e-19 8.48645)
(3.72895 1.38954e-19 9.31346)
(4.75913 -1.05752e-19 9.436)
(3.27059 -2.63924e-21 10.4229)
(9.98837 -5.29803e-19 0.161138)
(9.98776 -5.7231e-19 0.109917)
(9.96585 -3.64168e-20 0.267605)
(9.9776 -1.58865e-19 0.218489)
(9.93301 3.16138e-19 0.375586)
(9.9548 3.2138e-19 0.327766)
(9.89029 2.23139e-19 0.486853)
(9.91867 0 0.439613)
(9.83816 -1.02026e-20 0.602932)
(9.87246 -1.98507e-23 0.555563)
(9.77698 -9.11402e-19 0.725215)
(9.81815 4.41887e-19 0.677117)
(9.70685 3.8065e-19 0.855032)
(9.75555 -1.12978e-18 0.805649)
(9.62789 4.29309e-19 0.993805)
(9.68438 9.22988e-19 0.942514)
(9.54036 2.82508e-20 1.14298)
(9.60509 -1.21458e-19 1.08918)
(9.44442 -1.00387e-18 1.30393)
(9.51803 5.98521e-19 1.24706)
(9.34019 -5.60033e-19 1.47805)
(9.42322 -2.04408e-18 1.41753)
(9.22777 1.02673e-18 1.66688)
(9.32073 1.09628e-18 1.60205)
(9.10724 6.15651e-20 1.87211)
(9.2109 6.23837e-20 1.80227)
(8.97868 0 2.09557)
(9.09387 -9.8548e-19 2.01995)
(8.84216 0 2.33925)
(8.96978 9.9018e-19 2.25703)
(8.6977 -2.10877e-18 2.6054)
(8.83878 -2.00517e-18 2.51562)
(8.54527 5.20603e-20 2.89661)
(8.70105 -7.62336e-20 2.79812)
(8.38465 4.20399e-18 3.21591)
(8.55673 2.09406e-18 3.10746)
(8.21531 -4.28074e-20 3.56683)
(8.40569 -3.77972e-20 3.447)
(8.03628 -2.02651e-18 3.95355)
(8.24762 -2.11335e-18 3.82071)
(7.84593 2.18847e-18 4.38125)
(8.08185 2.08041e-18 4.23347)
(7.64165 -2.64159e-20 4.85656)
(7.90693 -1.21945e-19 4.69148)
(7.41928 -2.07933e-18 5.38801)
(7.72095 1.10189e-19 5.20281)
(7.17198 0 5.98641)
(7.52051 0 5.77809)
(6.88768 3.95287e-18 6.66597)
(7.2994 0 6.43193)
(6.54427 -6.21927e-20 7.44527)
(7.04542 5.66602e-18 7.18534)
(6.10035 -3.62778e-18 8.35087)
(6.74174 -6.85162e-18 8.06825)
(5.47537 1.10813e-19 9.41115)
(6.3171 1.62433e-18 9.13624)
(4.50056 -2.5021e-19 10.6478)
(5.78553 -1.00751e-20 10.4452)
(4.12189 -2.1622e-18 12.2809)
(9.98925 -1.95108e-19 0.168713)
(9.98811 -3.09511e-20 0.114739)
(9.9685 2.06957e-19 0.280253)
(9.97917 6.08456e-19 0.228137)
(9.9383 0 0.393398)
(9.95855 -1.99355e-19 0.342299)
(9.89912 -2.23231e-19 0.509924)
(9.92559 0 0.459123)
(9.85144 4.58925e-19 0.631364)
(9.88349 -4.2955e-19 0.580112)
(9.79564 2.00267e-19 0.759202)
(9.83413 4.68766e-19 0.706821)
(9.73185 -5.57627e-19 0.894834)
(9.77745 3.86875e-19 0.840743)
(9.66026 3.57166e-19 1.03965)
(9.71324 -5.42366e-19 0.983225)
(9.5812 4.59139e-19 1.19509)
(9.64199 6.87358e-19 1.13565)
(9.49498 -4.775e-19 1.36256)
(9.56419 5.49945e-19 1.29948)
(9.40177 -3.45994e-19 1.54351)
(9.4799 -9.24421e-19 1.47614)
(9.30177 1.18099e-19 1.7395)
(9.38933 1.20865e-19 1.66712)
(9.19523 -9.98303e-19 1.95224)
(9.29294 7.94016e-19 1.87405)
(9.08243 2.83642e-20 2.1836)
(9.19104 -1.91606e-18 2.0987)
(8.96367 -1.05051e-18 2.43561)
(9.08401 2.04534e-18 2.34302)
(8.83922 4.96986e-20 2.71058)
(8.97227 -3.08403e-18 2.60915)
(8.70934 1.9904e-18 3.01121)
(8.85627 2.05128e-18 2.89957)
(8.57426 -2.17485e-18 3.34072)
(8.73653 1.85843e-18 3.21723)
(8.4341 -2.1307e-18 3.70292)
(8.6135 -5.55736e-18 3.56565)
(8.28875 2.03508e-18 4.10241)
(8.48775 3.68977e-18 3.949)
(8.13781 -2.51973e-19 4.54497)
(8.35957 2.0434e-18 4.37244)
(7.9804 1.72531e-20 5.03826)
(8.22932 -3.63029e-18 4.84262)
(7.81487 2.19271e-18 5.59242)
(8.09753 2.03207e-18 5.36834)
(7.63825 0 6.22139)
(7.96425 0 5.96158)
(7.44461 1.76334e-18 6.94575)
(7.82962 -3.98943e-19 6.63979)
(7.22199 -1.24107e-18 7.79722)
(7.69288 3.64684e-18 7.42998)
(6.94431 -1.49422e-18 8.83203)
(7.56005 -4.82914e-18 8.37626)
(6.54955 1.47418e-18 10.1599)
(7.41392 1.43032e-18 9.57125)
(5.8611 -1.90973e-18 12.2831)
(7.53238 4.30136e-19 11.2098)
(6.88996 -2.81396e-18 14.8717)
(0.188309 -1.99861e-21 -0.102389)
(0.103781 -3.28763e-20 -0.161961)
(0.397695 7.55035e-21 -0.100483)
(0.284904 3.09849e-20 -0.175845)
(0.592112 2.18576e-21 -0.0844501)
(0.482459 -2.52603e-20 -0.154528)
(0.759558 1.67562e-21 -0.0674946)
(0.664743 2.25916e-20 -0.128101)
(0.899905 1.20719e-20 -0.0529893)
(0.821597 9.26287e-21 -0.10464)
(1.01649 -7.312e-21 -0.0411982)
(0.953367 -1.94726e-20 -0.0854084)
(1.11299 -9.97037e-21 -0.0315792)
(1.06405 3.53068e-20 -0.0697919)
(1.19235 -1.49995e-21 -0.0234938)
(1.15767 -2.18441e-20 -0.0568229)
(1.25652 -7.97712e-21 -0.0163802)
(1.23696 -3.77349e-23 -0.0455549)
(1.30653 -1.72687e-22 -0.00980954)
(1.30342 1.63697e-20 -0.0351941)
(1.34268 4.7451e-21 -0.00352576)
(1.35784 -3.60267e-20 -0.025204)
(1.36496 -5.22916e-21 0.00247296)
(1.40053 9.83093e-21 -0.015344)
(1.37361 -9.51336e-23 0.00783994)
(1.43143 -3.53565e-21 -0.005823)
(1.36965 3.51116e-21 0.0120225)
(1.45045 3.48696e-21 0.00281967)
(1.35451 -1.76983e-21 0.0147411)
(1.45789 -3.53899e-21 0.0103248)
(1.33122 -1.78736e-21 0.0159967)
(1.45482 5.24342e-21 0.0156241)
(1.30294 5.16381e-21 0.0158654)
(1.44416 -3.4773e-21 0.0187139)
(1.27339 5.22099e-21 0.0146)
(1.42945 1.02879e-22 0.0193069)
(1.24591 -1.6279e-21 0.0125411)
(1.41425 -1.65216e-21 0.0177359)
(1.22319 -1.64572e-21 0.00994996)
(1.40151 -3.18382e-21 0.0144985)
(1.20712 0 0.00696853)
(1.39327 6.13066e-21 0.0101671)
(1.199 1.34378e-21 0.00389176)
(1.39068 0 0.00515357)
(1.19854 1.36513e-21 0.00115073)
(1.39386 -3.87117e-21 0.000454247)
(1.20439 -1.06674e-21 -0.0010488)
(1.4021 3.63314e-21 -0.00331839)
(1.21493 -1.08336e-21 -0.00274384)
(1.41433 -3.06163e-23 -0.00603469)
(1.22883 -7.79261e-23 -0.00405011)
(1.42935 1.77719e-21 -0.00790008)
(1.24504 -2.31966e-24 -0.00506337)
(1.44604 -1.4983e-21 -0.00911043)
(1.26282 7.77224e-23 -0.00582)
(1.46346 1.00741e-21 -0.00987629)
(1.28168 1.02102e-22 -0.00630461)
(1.48102 -4.98634e-22 -0.0103412)
(1.50265 1.84481e-22 -0.0105614)
(0.174826 7.38957e-21 -0.257078)
(0.0843334 -3.04854e-20 -0.328611)
(0.376543 -3.79958e-22 -0.252412)
(0.252396 -3.69765e-20 -0.34581)
(0.566396 -8.92621e-21 -0.217038)
(0.436072 3.13106e-20 -0.304293)
(0.733555 3.03716e-20 -0.179781)
(0.60509 6.69826e-20 -0.254945)
(0.877566 -2.16891e-20 -0.147953)
(0.751521 -3.36201e-20 -0.211423)
(1.00142 2.25169e-20 -0.122143)
(0.876273 2.39342e-20 -0.175906)
(1.1086 2.39206e-20 -0.101159)
(0.983191 -4.03826e-20 -0.147308)
(1.20198 -2.04871e-20 -0.0835391)
(1.07605 2.95279e-20 -0.123823)
(1.28354 2.42471e-20 -0.0679792)
(1.15744 -4.786e-21 -0.103671)