/*--------------------------------*- C++ -*----------------------------------*\
| =========                 |                                                 |
| \\      /  F ield         | OpenFOAM: The Open Source CFD Toolbox           |
|  \\    /   O peration     | Version:  4.1                                   |
|   \\  /    A nd           | Web:      www.OpenFOAM.org                      |
|    \\/     M anipulation  |                                                 |
\*---------------------------------------------------------------------------*/
FoamFile
{
    version     2.0;
    format      ascii;
    class       surfaceVectorField;
    location    "4.4";
    object      Uf;
}
// * * * * * * * * * * * * * * * * * * * * * * * * * * * * * * * * * * * * * //

dimensions      [0 1 -1 0 0 0 0];

internalField   nonuniform List<vector> 
5457
(
(9.91611 -3.20052e-20 0.0239888)
(9.96238 -5.27738e-20 0.0375572)
(9.81865 -2.89665e-20 0.0305519)
(9.92502 -7.47339e-20 0.0449632)
(9.70713 3.52041e-21 0.0359884)
(9.85835 -1.06419e-20 0.0531773)
(9.57904 0 0.0416754)
(9.76611 2.90127e-20 0.063105)
(9.43437 -1.59078e-20 0.0475911)
(9.65538 2.98196e-20 0.0736099)
(9.27331 -7.18528e-21 0.0537719)
(9.52824 -3.11749e-22 0.0846025)
(9.09562 7.96505e-21 0.0603601)
(9.38414 1.90286e-22 0.0963335)
(8.90071 -3.99415e-20 0.0674923)
(9.22217 0 0.109035)
(8.68777 -4.46297e-21 0.0752867)
(9.04153 -3.51146e-20 0.122884)
(8.45586 3.32056e-20 0.0838603)
(8.84142 1.71914e-19 0.138052)
(8.20387 -2.49511e-21 0.0933355)
(8.62089 -2.89608e-19 0.154722)
(7.93055 8.17282e-20 0.103842)
(8.3788 1.49424e-19 0.173079)
(7.63458 -1.63807e-20 0.115515)
(8.11388 -2.32579e-19 0.193313)
(7.31454 -2.80668e-19 0.128494)
(7.82475 -9.08735e-20 0.215615)
(6.96901 1.27415e-20 0.142912)
(7.50996 -1.87818e-19 0.240153)
(6.5966 -7.11738e-20 0.158892)
(7.16809 1.84568e-19 0.267057)
(6.19606 -3.44589e-20 0.176533)
(6.79773 -4.98292e-19 0.296404)
(5.76639 4.42774e-19 0.195895)
(6.39768 9.99479e-19 0.328181)
(5.30698 4.17055e-19 0.216968)
(5.96696 3.34201e-19 0.362238)
(4.8178 -2.07638e-19 0.239644)
(5.50508 2.43211e-19 0.39823)
(4.29967 4.824e-20 0.263666)
(5.01214 -7.39438e-19 0.435545)
(3.75445 5.78244e-19 0.288589)
(4.48916 5.48657e-19 0.473223)
(3.18542 8.29059e-19 0.313722)
(3.9383 2.45517e-20 0.509875)
(2.5975 -2.21988e-18 0.338107)
(3.36319 2.96855e-18 0.543613)
(1.99752 -2.81826e-18 0.36066)
(2.76929 -2.81836e-18 0.572022)
(1.39404 1.68897e-18 0.38155)
(2.1645 -2.65682e-18 0.592428)
(0.795108 5.38192e-18 0.39865)
(1.56026 1.68301e-18 0.603862)
(0.198892 -2.71331e-19 0.163882)
(0.968192 3.68081e-18 0.607847)
(-0.107702 -3.83778e-18 -0.201831)
(0.3398 -3.07401e-18 0.307714)
(0.213292 1.97049e-18 -0.107786)
(9.99957 -9.58666e-20 0.0481401)
(9.99088 -3.50081e-23 0.0377459)
(9.96581 -5.53375e-20 0.064166)
(9.9802 -1.3857e-20 0.060537)
(9.91163 1.54874e-20 0.0783347)
(9.94406 1.41344e-20 0.0790089)
(9.83892 5.88465e-20 0.0934756)
(9.88289 -8.66139e-20 0.0989239)
(9.74756 4.49306e-20 0.109545)
(9.80256 1.38187e-22 0.120091)
(9.63758 7.0714e-21 0.126583)
(9.70526 -1.51135e-20 0.142372)
(9.50879 -7.77787e-21 0.144893)
(9.59073 -1.33815e-19 0.166155)
(9.3607 4.27938e-21 0.164784)
(9.4582 1.2865e-19 0.191881)
(9.1926 1.44482e-19 0.186524)
(9.30697 -1.1309e-19 0.219907)
(9.00358 -1.58033e-19 0.21038)
(9.13635 5.56411e-19 0.250583)
(8.79261 -1.30944e-19 0.236627)
(8.9455 -5.73019e-19 0.28428)
(8.55848 -1.70739e-19 0.265546)
(8.73339 -1.45341e-19 0.321376)
(8.29989 -3.04923e-19 0.297425)
(8.49884 -3.19543e-19 0.362267)
(8.0154 5.16828e-22 0.332535)
(8.24056 3.22334e-19 0.407354)
(7.70355 -1.033e-20 0.371103)
(7.95716 -4.96583e-21 0.457003)
(7.36287 -2.52948e-19 0.413292)
(7.64719 -7.90086e-19 0.511509)
(6.99197 5.58277e-19 0.459158)
(7.30922 1.11454e-18 0.571075)
(6.58965 8.80945e-19 0.508591)
(6.94188 3.36093e-20 0.635736)
(6.15503 1.59131e-19 0.561237)
(6.54396 -1.93964e-19 0.70527)
(5.68773 -3.03055e-19 0.616401)
(6.11454 -1.63199e-18 0.779076)
(5.18809 -2.20266e-19 0.672927)
(5.65315 1.62229e-18 0.856034)
(4.65743 -1.21642e-20 0.729073)
(5.16 2.00282e-18 0.934316)
(4.09843 2.20373e-18 0.782367)
(4.63618 -2.09768e-18 1.0112)
(3.51544 2.29907e-18 0.829402)
(4.08408 1.78188e-18 1.08283)
(2.9153 -2.65333e-18 0.865492)
(3.50765 2.11976e-20 1.14374)
(2.30886 -2.62149e-18 0.883418)
(2.91326 -2.04944e-18 1.18602)
(1.71792 0 0.866951)
(2.31125 5.13901e-18 1.1951)
(1.19531 8.48459e-19 0.751694)
(1.70383 5.56283e-18 1.13343)
(0.581149 2.8346e-18 0.412928)
(1.10043 -1.20254e-17 0.911136)
(0.596378 1.7732e-19 0.468855)
(9.99231 8.17939e-20 0.0533032)
(9.98855 1.63001e-19 0.0411939)
(9.96192 5.60862e-20 0.0784988)
(9.9754 1.10613e-19 0.0745668)
(9.91137 -8.96289e-20 0.102275)
(9.94032 5.64994e-20 0.103131)
(9.84357 -1.4392e-19 0.127444)
(9.88212 5.73655e-20 0.132347)
(9.75889 -6.01586e-20 0.15423)
(9.80563 -8.86025e-20 0.163205)
(9.65729 -1.57892e-19 0.182768)
(9.71308 -6.06753e-20 0.195774)
(9.53864 6.75319e-21 0.213491)
(9.60441 -2.50914e-19 0.230519)
(9.40258 7.51448e-21 0.246862)
(9.47911 5.13553e-19 0.268042)
(9.24853 3.09213e-19 0.283309)
(9.33654 -3.96542e-19 0.308864)
(9.07578 1.24045e-19 0.323271)
(9.1762 4.18289e-19 0.353488)
(8.88344 -5.80885e-19 0.367207)
(8.99745 -5.6196e-19 0.402455)
(8.67049 -2.96829e-19 0.415597)
(8.79949 -8.08651e-21 0.456334)
(8.43576 3.17571e-19 0.468933)
(8.58133 -2.28322e-20 0.515712)
(8.17799 3.11938e-19 0.527695)
(8.34193 3.55786e-19 0.581195)
(7.8958 -7.96698e-19 0.592306)
(8.08014 -8.09969e-20 0.653354)
(7.58778 6.0611e-19 0.663093)
(7.79473 6.60399e-19 0.732689)
(7.25247 5.73923e-19 0.740231)
(7.48442 -1.25709e-19 0.819583)
(6.8885 -1.04507e-18 0.82364)
(7.14789 -7.53627e-19 0.914219)
(6.49462 -2.00652e-18 0.912862)
(6.78388 -2.97376e-19 1.01644)
(6.06982 3.39575e-19 1.00689)
(6.39116 -1.68819e-18 1.1256)
(5.61355 3.85128e-18 1.10397)
(5.96875 2.18483e-18 1.24032)
(5.12584 -1.37671e-19 1.20134)
(5.51586 2.31783e-18 1.35825)
(4.60766 -2.46839e-18 1.29494)
(5.03211 -1.50176e-18 1.47568)
(4.06123 -5.16759e-19 1.37898)
(4.51781 -3.153e-20 1.58719)
(3.49048 6.01782e-19 1.44503)
(3.97393 0 1.68483)
(2.90158 5.76962e-18 1.48013)
(3.40201 4.30152e-20 1.75689)
(2.30069 1.06875e-17 1.46117)
(2.80409 5.1292e-18 1.78547)
(1.67937 -7.33479e-18 1.3459)
(2.17435 5.54414e-18 1.74145)
(0.970343 -1.44189e-17 1.09491)
(1.4811 -2.38797e-17 1.58882)
(0.850856 9.4388e-18 1.28572)
(9.98811 1.91009e-19 0.0628061)
(9.98717 1.35439e-19 0.0465241)
(9.95775 1.10068e-19 0.0983745)
(9.97229 5.53404e-20 0.0885904)
(9.90812 2.03539e-19 0.132344)
(9.93704 8.4132e-20 0.126822)
(9.84142 1.10331e-19 0.167316)
(9.87987 1.1562e-19 0.165239)
(9.75839 -8.86763e-20 0.204058)
(9.80495 -2.65589e-22 0.205496)
(9.65909 -1.56716e-19 0.242984)
(9.71436 3.00083e-20 0.247991)
(9.54346 2.67925e-19 0.284694)
(9.60816 -1.86701e-19 0.293274)
(9.41127 9.53485e-20 0.329823)
(9.48598 3.84964e-19 0.342074)
(9.26213 -2.7495e-19 0.378961)
(9.34733 -2.4668e-19 0.39504)
(9.09551 -2.82816e-19 0.432712)
(9.19181 2.70528e-19 0.452794)
(8.91081 1.93557e-20 0.491718)
(9.01896 -5.67666e-19 0.51602)
(8.70725 2.65815e-19 0.55665)
(8.82818 2.89334e-19 0.585438)
(8.48398 2.10692e-20 0.628197)
(8.61875 -2.60736e-22 0.661797)
(8.24006 -4.38063e-20 0.707046)
(8.38987 -3.76264e-20 0.745861)
(7.97446 1.3875e-18 0.793832)
(8.1407 -1.43478e-21 0.838378)
(7.68608 -8.27825e-20 0.889097)
(7.87031 1.44622e-18 0.940031)
(7.37379 -1.46341e-18 0.993218)
(7.57774 -1.39997e-18 1.05139)
(7.03636 1.07633e-21 1.10629)
(7.26194 0 1.17283)
(6.67258 1.04564e-21 1.22795)
(6.92182 2.35913e-21 1.30437)
(6.28123 2.12434e-19 1.35718)
(6.55615 1.9212e-19 1.44545)
(5.86115 6.52409e-19 1.49203)
(6.16373 3.24856e-18 1.59477)
(5.41124 9.02651e-19 1.62925)
(5.74313 -3.74392e-18 1.74985)
(4.9306 9.54233e-19 1.76388)
(5.29265 2.07715e-20 1.9066)
(4.41862 4.85746e-19 1.88865)
(4.81049 -6.92901e-18 2.05887)
(3.87466 -5.57213e-19 1.99314)
(4.29443 -7.04243e-20 2.19774)
(3.29704 -5.47186e-19 2.06274)
(3.74116 7.6184e-18 2.31084)
(2.67928 0 2.0761)
(3.14555 0 2.382)
(2.00306 -1.10589e-17 2.00583)
(2.49813 9.36394e-18 2.38924)
(1.23155 4.75948e-19 1.83749)
(1.75872 -3.12544e-17 2.3126)
(1.02601 2.34005e-17 2.13903)
(9.98599 -1.5623e-21 0.0729435)
(9.98639 -8.12315e-20 0.0528045)
(9.95519 2.98584e-20 0.117362)
(9.97067 -2.75359e-20 0.102823)
(9.90639 -3.28079e-21 0.160352)
(9.93544 -5.58889e-20 0.150126)
(9.84087 3.14174e-21 0.20431)
(9.87927 -1.71421e-19 0.197565)
(9.75945 1.18923e-19 0.250407)
(9.80604 2.48147e-22 0.246982)
(9.66228 -3.38412e-21 0.299296)
(9.71761 1.19929e-19 0.299114)
(9.54928 -6.07356e-20 0.351689)
(9.61395 -3.74946e-22 0.354636)
(9.42026 3.3112e-20 0.408323)
(9.49482 0 0.414365)
(9.27495 3.06819e-19 0.469888)
(9.35987 2.68592e-22 0.479054)
(9.11293 -2.70407e-20 0.537097)
(9.2087 2.70622e-19 0.549437)
(8.93369 -2.84752e-19 0.61071)
(9.04094 -2.80604e-19 0.62631)
(8.73668 1.88294e-20 0.691526)
(8.85615 -5.4974e-22 0.710512)
(8.52124 -5.95223e-20 0.780369)
(8.65373 3.67034e-20 0.802917)
(8.28666 5.26981e-21 0.878067)
(8.43308 -1.24926e-18 0.904426)
(8.03218 7.84521e-20 0.985407)
(8.19353 1.31479e-18 1.01592)
(7.75701 8.70599e-20 1.1031)
(7.93439 1.21464e-18 1.13823)
(7.46031 8.45775e-20 1.2317)
(7.65489 -1.237e-18 1.27207)
(7.14111 1.29026e-21 1.37151)
(7.35423 0 1.41804)
(6.79837 1.96131e-19 1.52235)
(7.03151 1.80864e-19 1.57634)
(6.43087 3.27121e-18 1.68338)
(6.68557 5.80795e-21 1.74665)
(6.03716 -1.23929e-18 1.85279)
(6.31508 3.04169e-18 1.9279)
(5.61536 -4.58018e-18 2.02733)
(5.91826 -1.54002e-19 2.11791)
(5.16296 -7.94444e-18 2.20184)
(5.49255 -3.35304e-18 2.3128)
(4.67685 -7.41587e-18 2.36874)
(5.03442 -6.98926e-18 2.50649)
(4.15259 8.17087e-18 2.51743)
(4.53916 -7.04211e-20 2.69028)
(3.58338 8.10388e-18 2.63402)
(4.00031 7.68833e-18 2.8525)
(2.95834 9.39972e-18 2.70064)
(3.40883 -8.13121e-18 2.97861)
(2.26019 -1.09082e-17 2.69667)
(2.75528 1.84871e-17 3.04963)
(1.46962 -7.37767e-18 2.61385)
(2.00624 -2.94397e-17 3.04706)
(1.19627 2.32727e-17 2.97392)
(9.98496 -1.06459e-19 0.0834451)
(9.98595 -2.96339e-19 0.0595453)
(9.95398 -1.13768e-19 0.136166)
(9.97002 -2.733e-20 0.117144)
(9.90614 -2.25951e-19 0.187952)
(9.93512 -2.23328e-19 0.172983)
(9.84213 -1.71545e-19 0.240885)
(9.88018 2.26353e-19 0.229161)
(9.76273 3.15214e-21 0.296304)
(9.80897 -5.84298e-20 0.287465)
(9.66809 1.21054e-19 0.35505)
(9.72308 3.09523e-22 0.348935)
(9.55811 6.03851e-20 0.417924)
(9.62239 1.21985e-19 0.414393)
(9.43268 -3.28463e-20 0.48574)
(9.50679 0 0.484699)
(9.29157 -3.1858e-20 0.559294)
(9.37602 4.81004e-19 0.560706)
(9.13441 8.69774e-21 0.639403)
(9.22967 -5.22437e-19 0.643259)
(8.96079 7.88293e-21 0.726939)
(9.06747 -8.24879e-21 0.73325)
(8.77026 1.78783e-20 0.822811)
(8.88903 -6.77648e-24 0.831612)
(8.56227 -1.17226e-18 0.927972)
(8.69386 9.15755e-21 0.939334)
(8.33624 9.7591e-20 1.04338)
(8.48144 -2.35864e-18 1.05744)
(8.09156 2.4504e-18 1.16994)
(8.25123 2.51919e-18 1.18693)
(7.82757 -1.44256e-19 1.3085)
(8.00259 1.29428e-18 1.32875)
(7.5436 -1.30487e-18 1.45981)
(7.73485 1.28124e-18 1.48377)
(7.23886 1.82138e-19 1.62435)
(7.44733 -2.65736e-18 1.65275)
(6.91237 -1.18302e-20 1.80222)
(7.13919 1.79769e-19 1.83616)
(6.56288 -1.84117e-19 1.99285)
(6.8093 -1.86677e-19 2.034)
(6.18875 4.08575e-18 2.19478)
(6.4561 0 2.24552)
(5.78764 1.04065e-18 2.40523)
(6.07757 3.65204e-18 2.46907)
(5.35597 -2.44145e-18 2.61942)
(5.67073 3.0759e-18 2.70149)
(4.88878 4.29456e-19 2.83021)
(5.23084 -6.1423e-18 2.9373)
(4.37933 -4.8045e-19 3.02769)
(4.75152 0 3.16855)
(3.8185 -8.65908e-18 3.19905)
(4.22464 -2.44215e-20 3.38442)
(3.19458 1.10666e-18 3.32813)
(3.63946 -5.63791e-19 3.57098)
(2.49278 -2.03952e-19 3.39418)
(2.98676 -7.3248e-18 3.70959)
(1.70768 2.20455e-18 3.38694)
(2.24884 -9.26239e-18 3.77335)
(1.37547 2.0792e-17 3.7808)
(9.98458 -2.13118e-19 0.0940889)
(9.98577 5.34213e-20 0.0664569)
(9.95375 -1.40174e-19 0.154722)
(9.96998 -5.45519e-20 0.131397)
(9.90704 2.36383e-19 0.214929)
(9.93572 -1.11447e-19 0.195314)
(9.84488 3.34918e-19 0.276514)
(9.88236 2.27455e-19 0.259865)
(9.76788 -6.03405e-20 0.340906)
(9.81349 -1.1503e-19 0.326749)
(9.67617 3.12875e-21 0.40913)
(9.73043 -5.94051e-20 0.397247)
(9.5697 5.9712e-20 0.482073)
(9.63316 3.75158e-22 0.472291)
(9.4484 5.21294e-19 0.56063)
(9.52161 0 0.552773)
(9.31208 -2.47151e-20 0.645699)
(9.39559 4.50583e-19 0.639652)
(9.16045 -5.31842e-19 0.7382)
(9.25472 -2.329e-21 0.733879)
(8.99314 -1.60246e-20 0.839095)
(9.09878 -5.29125e-19 0.836426)
(8.80976 -8.59809e-21 0.949393)
(8.92745 5.43578e-22 0.948324)
(8.60983 -1.21168e-18 1.07016)
(8.74025 -1.77925e-20 1.07067)
(8.39285 1.33118e-19 1.20246)
(8.53676 -2.34609e-18 1.20459)
(8.15826 1.34531e-18 1.34734)
(8.31651 2.3893e-18 1.35123)
(7.90542 2.72026e-18 1.50576)
(8.0789 1.30689e-18 1.51166)
(7.6337 -1.23435e-19 1.67862)
(7.82321 1.35871e-18 1.68687)
(7.34234 -2.62347e-18 1.86665)
(7.54872 -5.64957e-20 1.87781)
(7.03035 0 2.07023)
(7.25461 -2.65088e-18 2.08526)
(6.69634 0 2.28918)
(6.93966 -1.70658e-19 2.30958)
(6.3384 -3.90117e-19 2.52253)
(6.60209 0 2.5505)
(5.95386 5.67976e-18 2.76824)
(6.23952 5.12212e-18 2.80697)
(5.5386 -7.15839e-19 3.02239)
(5.8487 -3.78091e-19 3.07678)
(5.08648 -6.51718e-18 3.27866)
(5.42419 -1.32325e-17 3.35553)
(4.58942 4.55676e-19 3.52801)
(4.95852 6.82754e-18 3.63612)
(4.03736 8.06158e-18 3.75816)
(4.44259 4.51993e-19 3.90842)
(3.41875 -9.0358e-18 3.95277)
(3.86484 7.61463e-19 4.15816)
(2.72027 -1.63721e-17 4.08681)
(3.21427 -9.19951e-18 4.36566)
(1.94441 9.99214e-18 4.14273)
(2.49419 5.66091e-20 4.49023)
(1.56374 9.45584e-18 4.5609)
(9.98456 2.10211e-19 0.104693)
(9.98577 2.68421e-19 0.0733736)
(9.95422 -2.67643e-20 0.172895)
(9.97033 -5.43178e-20 0.145431)
(9.90892 -1.14873e-19 0.241118)
(9.93707 -2.19981e-19 0.216983)
(9.84893 -2.28097e-19 0.311007)
(9.88564 -1.02222e-21 0.289515)
(9.77464 -1.13225e-19 0.384047)
(9.81933 1.13708e-19 0.36468)
(9.68621 -6.12301e-20 0.461395)
(9.73939 0 0.443866)
(9.58372 -5.9368e-20 0.544013)
(9.64598 -2.99626e-19 0.528075)
(9.46711 -6.39618e-20 0.632873)
(9.539 2.43036e-19 0.618278)
(9.33623 4.66198e-19 0.728975)
(9.41831 -5.24335e-22 0.715537)
(9.19081 -7.18812e-21 0.833323)
(9.28359 7.505e-21 0.820889)
(9.03057 -5.04985e-19 0.946966)
(9.13463 8.31315e-21 0.935387)
(8.85513 -8.91612e-21 1.07101)
(8.97114 -1.07806e-18 1.06016)
(8.66408 -1.18549e-18 1.20663)
(8.79273 1.09403e-18 1.19639)
(8.45698 -2.31829e-20 1.35502)
(8.59904 -1.16971e-18 1.34532)
(8.23334 2.33614e-18 1.51735)
(8.3896 1.10618e-18 1.50823)
(7.99247 -5.44909e-20 1.69475)
(8.16397 1.22958e-18 1.68637)
(7.73365 1.40617e-18 1.88825)
(7.92134 -1.17511e-18 1.88091)
(7.45607 -1.139e-19 2.09883)
(7.66079 2.60748e-18 2.09295)
(7.15865 -2.79276e-18 2.32726)
(7.38144 -2.49518e-18 2.32361)
(6.83983 -1.68751e-19 2.5738)
(7.08198 2.80852e-18 2.57368)
(6.49742 5.57474e-18 2.83809)
(6.76042 -2.8609e-18 2.84347)
(6.12831 -9.94643e-19 3.11894)
(6.414 5.86706e-18 3.13268)
(5.72799 -1.30363e-17 3.41354)
(6.039 -6.02641e-18 3.44014)
(5.28969 2.97377e-19 3.71668)
(5.62958 -6.65951e-18 3.76274)
(4.80444 6.77405e-18 4.02016)
(5.17755 1.25095e-17 4.0945)
(4.26137 -6.84745e-18 4.3117)
(4.67277 -6.21954e-18 4.42582)
(3.64881 5.37071e-19 4.57362)
(4.10284 -7.10097e-18 4.74158)
(2.95315 7.23765e-18 4.77472)
(3.45194 1.41002e-17 5.02059)
(2.17832 -2.18314e-19 4.88508)
(2.74548 -6.9392e-18 5.20658)
(1.75879 -2.71181e-19 5.3262)
(9.98479 -1.29023e-21 0.115117)
(9.9859 1.1501e-22 0.0801868)
(9.95526 -2.50329e-19 0.190548)
(9.97101 2.15187e-19 0.159097)
(9.91163 -1.02542e-19 0.266381)
(9.93905 -1.1029e-19 0.237863)
(9.85405 3.42707e-19 0.344225)
(9.88976 2.23035e-19 0.317996)
(9.78275 2.252e-19 0.425575)
(9.82625 3.42734e-19 0.401117)
(9.69798 -2.4307e-19 0.511646)
(9.7498 -2.3103e-19 0.488596)
(9.59992 1.10786e-20 0.603478)
(9.66065 -2.39419e-19 0.581502)
(9.48854 3.0289e-19 0.70214)
(9.55872 7.27234e-19 0.680918)
(9.36371 -4.59287e-19 0.808724)
(9.44392 6.62142e-20 0.788003)
(9.2252 2.28861e-20 0.924315)
(9.31597 -1.45818e-18 0.903886)
(9.07274 -5.80324e-19 1.05004)
(9.17466 1.03412e-18 1.02969)
(8.90602 5.56072e-20 1.18711)
(9.01978 -1.04608e-18 1.16661)
(8.7247 1.07905e-18 1.33678)
(8.85098 2.21215e-18 1.31595)
(8.52837 -8.66329e-21 1.50037)
(8.66797 -2.21501e-18 1.47904)
(8.31662 0 1.67923)
(8.47031 1.12318e-18 1.65725)
(8.08885 7.6853e-20 1.87469)
(8.25766 2.32203e-18 1.85209)
(7.84418 7.48997e-20 2.08797)
(8.02931 2.5409e-20 2.06498)
(7.58161 1.61639e-19 2.3203)
(7.7841 -2.40598e-18 2.29725)
(7.29993 3.17494e-18 2.57283)
(7.52102 4.31288e-21 2.55028)
(6.99748 5.29729e-20 2.8464)
(7.23866 5.36351e-18 2.82537)
(6.67176 -2.47879e-18 3.14137)
(6.93484 -5.27441e-18 3.12352)
(6.31922 7.10112e-19 3.45751)
(6.60648 5.4791e-18 3.44535)
(5.93484 3.56456e-19 3.79327)
(6.24935 -4.84055e-18 3.79084)
(5.5114 5.72772e-18 4.14477)
(5.85713 -5.51427e-18 4.15833)
(5.03905 -6.43887e-19 4.50481)
(5.42093 5.66273e-18 4.5433)
(4.50562 -6.47829e-18 4.861)
(4.92914 5.30794e-18 4.93709)
(3.89795 6.62712e-18 5.19402)
(4.36785 -6.15215e-18 5.32384)
(3.2001 -2.29131e-19 5.46631)
(3.71302 6.68265e-18 5.68112)
(2.41049 -6.84001e-18 5.63039)
(3.00839 -7.39943e-18 5.9386)
(1.961 2.16491e-19 6.10334)
(9.98524 2.19952e-19 0.125244)
(9.98617 -2.91242e-19 0.0867965)
(9.95679 3.49874e-19 0.207564)
(9.97199 8.11044e-20 0.172268)
(9.91499 2.20762e-19 0.290617)
(9.94155 1.09779e-19 0.257881)
(9.86 2.24971e-19 0.376039)
(9.89453 2.21183e-19 0.345219)
(9.79201 -1.2256e-19 0.465313)
(9.83405 1.13936e-19 0.435889)
(9.71131 -2.27521e-19 0.559658)
(9.76151 -2.31118e-19 0.531227)
(9.61812 4.91525e-19 0.660194)
(9.67701 0 0.632333)
(9.51247 4.80723e-19 0.768101)
(9.58058 4.84326e-19 0.74041)
(9.39426 -9.55244e-19 0.884566)
(9.47216 -6.0596e-19 0.85673)
(9.26327 -4.11029e-19 1.01075)
(9.3515 -5.74767e-19 0.9825)
(9.11931 5.39061e-19 1.14785)
(9.21849 5.76347e-19 1.1189)
(8.9621 1.15663e-18 1.29716)
(9.07293 1.03952e-18 1.2672)
(8.79137 -1.14358e-18 1.46003)
(8.91455 5.75377e-20 1.42879)
(8.60677 -1.03924e-18 1.63788)
(8.74315 -2.20008e-18 1.60509)
(8.40793 3.463e-18 1.83222)
(8.55835 1.10741e-18 1.79761)
(8.19435 2.24325e-18 2.04466)
(8.35977 2.32488e-18 2.00799)
(7.96519 -2.48688e-18 2.2767)
(8.14683 -5.05774e-20 2.23805)
(7.71928 -2.53697e-18 2.52985)
(7.91853 -2.44613e-18 2.48942)
(7.45527 2.25405e-18 2.80563)
(7.67369 -1.18906e-19 2.76376)
(7.17133 -8.04229e-20 3.10552)
(7.41074 2.42091e-18 3.06289)
(6.86474 2.79998e-18 3.43076)
(7.12737 -2.41318e-18 3.38862)
(6.53161 -1.70227e-19 3.78224)
(6.82026 5.33617e-18 3.7426)
(6.16638 -1.07298e-17 4.15986)
(6.48483 -5.3732e-18 4.12619)
(5.76113 -5.49486e-18 4.5614)
(6.1142 -3.90764e-19 4.5395)
(5.3049 1.16252e-17 4.98112)
(5.69856 2.39026e-20 4.98003)
(4.78332 5.54133e-18 5.40729)
(5.22431 1.03306e-18 5.44099)
(4.17972 -5.98519e-18 5.81953)
(4.67491 -4.31771e-19 5.90706)
(3.47285 -5.98681e-19 6.1754)
(4.01468 -5.41426e-18 6.35604)
(2.64842 -1.76132e-19 6.40593)
(3.29743 5.64879e-18 6.70802)
(2.17821 1.59647e-20 6.93586)
(9.98588 -4.24202e-19 0.134974)
(9.98656 -2.63981e-19 0.0931194)
(9.95869 -1.58587e-19 0.223853)
(9.97319 -1.61295e-19 0.18486)
(9.91887 1.11973e-19 0.313742)
(9.94445 -2.16163e-19 0.276963)
(9.86665 1.08417e-19 0.406322)
(9.89986 1.09362e-19 0.371089)
(9.80231 0 0.50307)
(9.84265 -2.23209e-19 0.468836)
(9.72607 0 0.605207)
(9.77436 0 0.57155)
(9.63817 0 0.713913)
(9.69491 3.4893e-19 0.680345)
(9.53868 -6.18832e-19 0.830478)
(9.60435 -4.70298e-19 0.796513)
(9.42754 -2.24919e-19 0.956185)
(9.50272 -4.89595e-19 0.921449)
(9.30462 4.29479e-19 1.09225)
(9.38986 4.32171e-19 1.05641)
(9.16978 1.08341e-18 1.23995)
(9.2657 6.56508e-22 1.20263)
(9.02284 -7.32717e-20 1.40063)
(9.13009 1.00755e-18 1.36145)
(8.86357 -1.02974e-18 1.57576)
(8.98291 -1.08534e-18 1.53433)
(8.69172 -8.98759e-21 1.76685)
(8.82402 -5.70609e-20 1.7228)
(8.50692 -1.7177e-20 1.97557)
(8.65313 -2.88474e-22 1.92849)
(8.30869 -2.69414e-22 2.20373)
(8.46979 3.38805e-20 2.15324)
(8.09639 -3.66787e-20 2.45323)
(8.27354 -2.22558e-18 2.39907)
(7.86896 1.47487e-21 2.72591)
(8.06377 4.50176e-18 2.66803)
(7.62496 7.44209e-20 3.02373)
(7.83932 -4.56578e-18 2.96219)
(7.36237 3.71343e-20 3.34885)
(7.59847 2.30726e-18 3.28392)
(7.07836 1.9831e-19 3.70347)
(7.33894 0 3.63586)
(6.76881 3.29312e-20 4.08978)
(7.05737 4.88778e-18 4.02082)
(6.42778 5.02945e-18 4.5095)
(6.74891 -4.84097e-18 4.44176)
(6.04657 5.14584e-18 4.9626)
(6.4064 5.16056e-18 4.90109)
(5.61271 -1.05907e-17 5.44582)
(6.01923 -4.65237e-18 5.39921)
(5.1087 -4.95565e-18 5.94973)
(5.57128 -9.46018e-19 5.93287)
(4.51184 8.31248e-20 6.45527)
(5.04235 6.79394e-19 6.49015)
(3.7915 9.63678e-19 6.91836)
(4.38225 -4.37471e-19 7.05265)
(2.91328 5.71593e-18 7.24828)
(3.64284 8.71332e-19 7.53825)
(2.43189 5.32277e-18 7.88184)
(9.98666 7.05127e-22 0.144234)
(9.98699 2.11142e-19 0.0990975)
(9.96087 -2.19788e-19 0.239339)
(9.97457 -1.0618e-19 0.196806)
(9.9232 -2.13523e-19 0.335672)
(9.94767 1.07022e-19 0.295026)
(9.87398 -2.27619e-19 0.434954)
(9.90572 -1.70935e-21 0.395504)
(9.81351 -2.19782e-19 0.538676)
(9.85197 -1.81355e-21 0.499829)
(9.74206 3.54313e-19 0.648088)
(9.78816 4.50083e-19 0.609391)
(9.65981 -1.33626e-19 0.764413)
(9.71411 5.78318e-19 0.72534)
(9.56686 -3.41329e-19 0.889029)
(9.62974 -3.05054e-21 0.849017)
(9.46324 1.80961e-19 1.0233)
(9.53527 -3.523e-19 0.981904)
(9.34889 -2.91443e-21 1.16849)
(9.43066 1.81523e-19 1.12532)
(9.22375 -6.16846e-20 1.32593)
(9.31586 1.04367e-18 1.28052)
(9.08774 -3.29137e-20 1.49704)
(9.19079 -9.93656e-19 1.44892)
(8.94073 -9.84754e-20 1.68336)
(9.05552 -1.11257e-18 1.63206)
(8.78254 -4.76679e-20 1.88656)
(8.90994 1.02475e-18 1.83154)
(8.61286 5.12397e-20 2.10842)
(8.75386 -1.09663e-18 2.04917)
(8.43129 -2.22004e-18 2.35094)
(8.58692 -1.06942e-18 2.2869)
(8.23738 2.39167e-18 2.61629)
(8.40884 -2.2636e-20 2.5469)
(8.03035 -1.64677e-19 2.90679)
(8.21933 4.54601e-18 2.83158)
(7.80882 -2.26428e-18 3.22491)
(8.01738 -4.54364e-18 3.14354)
(7.57082 2.24985e-18 3.5735)
(7.80147 2.27452e-18 3.48575)
(7.31356 4.74023e-18 3.95582)
(7.56954 -2.29385e-18 3.86168)
(7.03292 -6.91359e-20 4.37548)
(7.3185 6.93188e-18 4.27536)
(6.72283 -4.63784e-18 4.83633)
(7.04355 -4.76389e-18 4.73155)
(6.37419 -4.73538e-18 5.34144)
(6.73783 9.5067e-21 5.23537)
(5.97313 5.05177e-18 5.89161)
(6.39059 -4.85243e-18 5.79137)
(5.49843 4.71129e-18 6.48263)
(5.98364 9.64244e-18 6.40226)
(4.91927 1.5656e-19 7.10154)
(5.49306 -4.91685e-18 7.06429)
(4.19038 -5.36361e-19 7.70926)
(4.85288 4.81353e-18 7.76997)
(3.2479 5.79881e-19 8.20082)
(4.09907 -5.20823e-18 8.44759)
(2.7665 5.4122e-18 9.01197)
(9.9875 9.93851e-20 0.15297)
(9.98739 2.10482e-19 0.1047)
(9.96328 2.24273e-19 0.253947)
(9.97606 -3.16958e-19 0.208036)
(9.92795 3.17174e-19 0.356314)
(9.95115 4.30393e-19 0.311987)
(9.88188 2.24171e-19 0.461829)
(9.91202 -3.26638e-19 0.418373)
(9.8255 6.75238e-19 0.572)
(9.86193 2.21443e-19 0.52877)
(9.75909 6.76119e-19 0.688135)
(9.80279 -4.43676e-19 0.644616)
(9.68277 7.00434e-19 0.811504)
(9.73439 1.15762e-19 0.767152)
(9.5967 -1.8935e-20 0.943531)
(9.6565 4.67769e-19 0.897734)
(9.50097 -3.44332e-19 1.08564)
(9.56948 -4.73084e-19 1.03787)
(9.39565 1.24053e-18 1.23915)
(9.47349 1.02922e-21 1.18895)
(9.28073 8.42404e-20 1.40541)
(9.3685 1.9537e-18 1.35226)
(9.15627 -2.07587e-18 1.58592)
(9.25451 -1.97037e-18 1.52924)
(9.02222 3.81015e-20 1.78232)
(9.13173 -2.01454e-18 1.7215)
(8.87848 -5.06818e-20 1.99634)
(9.00014 1.96925e-18 1.93077)
(8.72491 -2.21868e-18 2.22992)
(8.85969 -2.07207e-18 2.15892)
(8.56131 1.14174e-18 2.48519)
(8.71025 -1.46491e-20 2.40799)
(8.38743 2.18368e-18 2.76455)
(8.55178 2.14455e-18 2.6803)
(8.20271 6.875e-20 3.07073)
(8.38416 2.22871e-18 2.97854)
(8.00612 6.73462e-20 3.40675)
(8.20676 -4.21121e-18 3.3058)
(7.79602 -2.31826e-18 3.7762)
(8.01854 2.24216e-18 3.66559)
(7.57002 -2.54818e-20 4.18336)
(7.81801 -2.36292e-18 4.06217)
(7.32443 2.14181e-18 4.63338)
(7.60263 1.33214e-19 4.5008)
(7.0536 -7.0128e-20 5.13246)
(7.36856 5.92842e-18 4.98803)
(6.74889 -1.42164e-19 5.68749)
(7.11012 -4.14378e-18 5.53191)
(6.39607 -1.39674e-19 6.3053)
(6.81763 -3.89381e-19 6.14207)
(5.97132 -1.41519e-19 6.99107)
(6.47345 0 6.82987)
(5.43558 -1.38202e-19 7.74614)
(6.05277 -3.92196e-18 7.60601)
(4.72427 0 8.55062)
(5.47769 3.7931e-18 8.48644)
(3.72895 -1.38954e-19 9.31346)
(4.75913 -3.52935e-18 9.436)
(3.27059 7.17839e-18 10.4229)
(9.98837 -2.14017e-19 0.161138)
(9.98776 0 0.109917)
(9.96585 -9.8472e-20 0.267605)
(9.9776 -1.05397e-19 0.218489)
(9.93301 -2.25722e-19 0.375586)
(9.9548 1.07005e-19 0.327766)
(9.89029 -3.208e-19 0.486853)
(9.91867 -2.18254e-19 0.439613)
(9.83816 -9.08056e-19 0.602932)
(9.87246 -2.18815e-19 0.555563)
(9.77698 -9.9604e-19 0.725215)
(9.81815 -4.51225e-19 0.677117)
(9.70685 -1.11928e-19 0.855032)
(9.75555 -5.62459e-19 0.805649)
(9.62789 0 0.993805)
(9.68438 -1.95591e-21 0.942514)
(9.54036 -1.20907e-19 1.14298)
(9.60509 4.60853e-19 1.08918)
(9.44442 7.40934e-19 1.30393)
(9.51803 -2.64873e-21 1.24706)
(9.34019 -1.53572e-19 1.47805)
(9.42322 -1.04218e-19 1.41753)
(9.22777 -1.90954e-18 1.66688)
(9.32073 -1.37821e-19 1.60205)
(9.10724 -3.29487e-20 1.87211)
(9.2109 -9.3431e-19 1.80227)
(8.97868 -1.0205e-19 2.09557)
(9.09387 1.00219e-18 2.01995)
(8.84216 1.57482e-19 2.33925)
(8.96978 -9.5836e-19 2.25703)
(8.6977 1.01275e-18 2.6054)
(8.83878 -8.51834e-19 2.51562)
(8.54527 2.19012e-18 2.89661)
(8.70105 5.28974e-20 2.79812)
(8.38465 -2.11944e-18 3.21591)
(8.55673 3.99936e-18 3.10746)
(8.21531 -1.97567e-18 3.56683)
(8.40569 -4.28709e-18 3.447)
(8.03628 2.15918e-18 3.95355)
(8.24762 2.11885e-18 3.82071)
(7.84593 -2.18554e-18 4.38125)
(8.08185 6.32447e-20 4.23347)
(7.64165 3.96923e-18 4.85656)
(7.90693 -4.08871e-18 4.69148)
(7.41928 1.77644e-18 5.38801)
(7.72095 8.23065e-18 5.20281)
(7.17198 -4.36468e-18 5.98641)
(7.52051 -4.15412e-18 5.77809)
(6.88768 -2.46296e-19 6.66597)
(7.2994 -1.12015e-20 6.43193)
(6.54427 -3.82663e-18 7.44527)
(7.04542 0 7.18534)
(6.10035 1.15973e-19 8.35087)
(6.74174 -3.78949e-18 8.06825)
(5.47537 1.34433e-19 9.41115)
(6.3171 3.79609e-18 9.13624)
(4.50056 4.17531e-18 10.6478)
(5.78553 -3.52161e-18 10.4452)
(4.12189 5.16899e-18 12.2809)
(9.98925 1.07046e-19 0.168713)
(9.98811 0 0.114739)
(9.9685 1.0367e-19 0.280253)
(9.97917 8.70531e-21 0.228137)
(9.9383 1.09279e-19 0.393398)
(9.95855 -9.94997e-20 0.342299)
(9.89912 -1.16222e-19 0.509924)
(9.92559 -9.28906e-20 0.459123)
(9.85144 2.34648e-19 0.631364)
(9.88349 -1.80257e-20 0.580112)
(9.79564 -1.90409e-20 0.759202)
(9.83413 4.51685e-19 0.706821)
(9.73185 -4.44418e-19 0.894834)
(9.77745 -2.46323e-19 0.840743)
(9.66026 4.6563e-19 1.03965)
(9.71324 2.10637e-19 0.983225)
(9.5812 5.72871e-19 1.19509)
(9.64199 9.02948e-19 1.13565)
(9.49498 -8.49695e-19 1.36256)
(9.56419 -8.66207e-19 1.29948)
(9.40177 -8.91023e-20 1.54351)
(9.4799 -5.28324e-19 1.47614)
(9.30177 8.28486e-19 1.7395)
(9.38933 9.67915e-19 1.66712)
(9.19523 1.25145e-19 1.95224)
(9.29294 0 1.87405)
(9.08243 1.22118e-19 2.1836)
(9.19104 2.39426e-19 2.0987)
(8.96367 -1.96776e-18 2.43561)
(9.08401 1.14208e-19 2.34302)
(8.83922 -1.80418e-18 2.71058)
(8.97227 -3.95159e-18 2.60915)
(8.70934 1.90388e-18 3.01121)
(8.85627 1.85859e-18 2.89957)
(8.57426 1.75033e-18 3.34072)
(8.73653 1.92031e-18 3.21723)
(8.4341 -1.29057e-19 3.70292)
(8.6135 -2.29617e-19 3.56565)
(8.28875 1.83193e-21 4.10241)
(8.48775 -1.30342e-19 3.949)
(8.13781 -1.87578e-18 4.54497)
(8.35957 1.29821e-19 4.37244)
(7.9804 2.6856e-19 5.03826)
(8.22932 -1.80252e-18 4.84262)
(7.81487 2.20019e-18 5.59242)
(8.09753 2.04716e-18 5.36834)
(7.63825 2.39647e-19 6.22139)
(7.96425 0 5.96158)
(7.44461 2.35306e-19 6.94575)
(7.82962 2.42273e-19 6.63979)
(7.22199 0 7.79722)
(7.69288 3.74003e-19 7.42998)
(6.94431 0 8.83203)
(7.56005 0 8.37626)
(6.54955 0 10.1599)
(7.41392 0 9.57125)
(5.8611 -2.21514e-18 12.2831)
(7.53238 0 11.2098)
(6.88996 -1.71738e-18 14.8717)
(0.188309 5.88404e-23 -0.102388)
(0.103781 2.13054e-22 -0.16196)
(0.397695 -7.48957e-21 -0.100483)
(0.284904 6.24948e-20 -0.175845)
(0.592111 -2.18576e-21 -0.0844501)
(0.482459 -5.50328e-21 -0.154528)
(0.759558 1.65867e-20 -0.0674946)
(0.664742 -2.47165e-20 -0.128101)
(0.899905 8.32441e-22 -0.0529892)
(0.821597 4.96868e-20 -0.10464)
(1.01649 -9.0625e-21 -0.0411982)
(0.953367 -4.60701e-20 -0.0854084)
(1.11299 0 -0.0315791)
(1.06405 2.49752e-20 -0.0697919)
(1.19235 -6.17009e-21 -0.0234938)
(1.15767 -2.1844e-20 -0.0568229)
(1.25652 -1.6821e-22 -0.0163802)
(1.23696 2.18106e-20 -0.0455549)
(1.30653 6.14602e-21 -0.00980957)
(1.30342 -1.52588e-20 -0.0351941)
(1.34268 -1.69519e-21 -0.0035258)
(1.35784 1.34782e-20 -0.0252041)
(1.36496 1.9292e-23 0.00247291)
(1.40053 -1.32997e-20 -0.0153441)
(1.37361 -1.79173e-21 0.00783988)
(1.43143 2.90354e-23 -0.00582309)
(1.36965 1.67922e-21 0.0120224)
(1.45045 -3.57459e-21 0.00281954)
(1.35451 7.11954e-21 0.0147411)
(1.45789 -3.53682e-21 0.0103247)
(1.33122 4.97805e-23 0.0159966)
(1.45482 7.00421e-21 0.0156239)
(1.30294 -4.12569e-23 0.0158654)
(1.44416 1.67705e-21 0.0187137)
(1.27339 1.75041e-21 0.0145999)
(1.42945 -1.6941e-21 0.0193068)
(1.24591 0 0.0125411)
(1.41425 -5.59707e-23 0.0177358)
(1.22319 -1.54619e-21 0.00994995)
(1.40151 -6.41054e-21 0.0144984)
(1.20712 -1.5709e-21 0.00696855)
(1.39327 -4.94052e-23 0.010167)
(1.19901 0 0.00389179)
(1.39068 0 0.00515358)
(1.19854 2.86875e-22 0.00115078)
(1.39386 -1.26419e-21 0.0004543)
(1.20439 -1.05744e-21 -0.00104873)
(1.4021 1.53119e-21 -0.00331831)
(1.21493 -1.36975e-21 -0.00274377)
(1.41433 -3.14823e-22 -0.0060346)
(1.22884 0 -0.00405005)
(1.42935 0 -0.00789999)
(1.24504 -5.25722e-23 -0.00506332)
(1.44604 -1.72658e-21 -0.00911034)
(1.26282 1.19766e-23 -0.00581997)
(1.46346 1.28254e-21 -0.00987622)
(1.28168 -5.32735e-23 -0.00630459)
(1.48102 6.52435e-23 -0.0103411)
(1.50265 1.89014e-22 -0.0105614)
(0.174826 6.95336e-20 -0.257078)
(0.0843334 1.4158e-19 -0.328611)
(0.376543 7.00969e-20 -0.252412)
(0.252396 -4.10653e-21 -0.34581)
(0.566396 -2.45347e-20 -0.217038)
(0.436072 7.23566e-20 -0.304293)
(0.733555 7.34919e-21 -0.179781)
(0.605089 -9.80428e-20 -0.254945)
(0.877566 5.39654e-21 -0.147953)
(0.751521 3.57592e-20 -0.211423)
(1.00142 -1.26158e-20 -0.122143)
(0.876272 -3.70861e-20 -0.175906)
(1.1086 3.54147e-21 -0.101159)