/*--------------------------------*- C++ -*----------------------------------*\
| =========                 |                                                 |
| \\      /  F ield         | OpenFOAM: The Open Source CFD Toolbox           |
|  \\    /   O peration     | Version:  2006                                  |
|   \\  /    A nd           | Website:  www.openfoam.com                      |
|    \\/     M anipulation  |                                                 |
\*---------------------------------------------------------------------------*/
FoamFile
{
    version     2.0;
    format      ascii;
    class       surfaceScalarField;
    location    "0.9";
    object      phi;
}
// * * * * * * * * * * * * * * * * * * * * * * * * * * * * * * * * * * * * * //

dimensions      [0 3 -1 0 0 0 0];
oriented        oriented;


internalField   nonuniform List<scalar> 
5457
(
0.198296
0.00145814
0.196382
0.00169133
0.194253
0.00192742
0.191856
0.00221293
0.189187
0.00250103
0.186248
0.00278653
0.183033
0.00307686
0.179532
0.00337853
0.175728
0.00369617
0.171602
0.00403361
0.167135
0.00439384
0.162298
0.00478068
0.157064
0.00519727
0.151399
0.00564596
0.14527
0.00612926
0.13864
0.00664828
0.131472
0.007203
0.123729
0.00779162
0.115378
0.00841011
0.106392
0.00905186
0.0967521
0.00970719
0.0864539
0.0103626
0.0755093
0.0110008
0.0639515
0.0116
0.0518414
0.0121325
0.0392862
0.0125656
0.0264372
0.0128503
0.0135632
0.012858
0.00185822
0.0116656
0.00185506
0.199852
0.00135963
0.199152
0.00216883
0.198125
0.00275267
0.196803
0.00335069
0.19518
0.00395622
0.193252
0.00456114
0.191015
0.00517576
0.188457
0.00581203
0.185565
0.00647938
0.18232
0.00718565
0.178701
0.00793765
0.174682
0.00874272
0.170233
0.00960756
0.16532
0.0105379
0.159908
0.0115393
0.153957
0.0126151
0.147426
0.0137668
0.140272
0.0149923
0.132453
0.0162854
0.123933
0.0176352
0.11468
0.0190249
0.104674
0.0204304
0.0939078
0.0218203
0.0823931
0.0231536
0.0701644
0.024374
0.0573195
0.0254021
0.0440474
0.0260993
0.0307382
0.026112
0.0177086
0.024588
0.0194266
0.1997
0.00141284
0.199052
0.0025935
0.198082
0.00352045
0.196838
0.00441021
0.195322
0.00530233
0.193532
0.00619703
0.191463
0.00710573
0.189106
0.00804405
0.186448
0.00902548
0.183477
0.0100617
0.180173
0.0111639
0.176514
0.0123418
0.172474
0.0136055
0.168022
0.0149655
0.163125
0.0164304
0.157745
0.0180075
0.151838
0.0197017
0.145358
0.0215136
0.138256
0.0234388
0.130482
0.0254667
0.121986
0.0275802
0.112718
0.0297531
0.102634
0.0319505
0.0916915
0.034126
0.0798493
0.0362161
0.0670789
0.0381295
0.0533645
0.0397392
0.0384641
0.040901
0.0212082
0.0416713
0.0405486
0.199617
0.0015485
0.198962
0.00302492
0.198002
0.00427687
0.196769
0.00545683
0.195272
0.00662711
0.193512
0.00780153
0.191485
0.00899395
0.18918
0.0102222
0.186588
0.0115029
0.1837
0.0128511
0.180502
0.0142815
0.176973
0.0158066
0.173093
0.0174394
0.168835
0.0191937
0.164173
0.0210816
0.159071
0.0231146
0.153493
0.0253016
0.147392
0.0276479
0.140721
0.030154
0.133421
0.0328149
0.12543
0.0356194
0.116676
0.0385493
0.107077
0.0415793
0.0965365
0.0446761
0.0849222
0.0478055
0.0720402
0.0509244
0.0576494
0.0539866
0.0413381
0.0570288
0.022291
0.060478
0.0626822
0.199573
0.00172594
0.198902
0.00347201
0.19795
0.00502507
0.196729
0.00648917
0.19525
0.00793127
0.193516
0.00937768
0.191524
0.0108464
0.18926
0.0123569
0.186716
0.0139283
0.183886
0.015579
0.180755
0.0173263
0.177307
0.0191861
0.17352
0.0211737
0.169373
0.0233053
0.164839
0.0255966
0.159888
0.0280629
0.154484
0.0307178
0.148586
0.0335714
0.142142
0.0366311
0.135091
0.0399024
0.127354
0.043387
0.118846
0.0470806
0.109457
0.0509766
0.0990447
0.0550694
0.0874156
0.0593731
0.0742719
0.0639363
0.0592346
0.068811
0.0419081
0.0740729
0.0221633
0.0798704
0.0846562
0.19955
0.00192493
0.198868
0.00392969
0.197924
0.00576349
0.196721
0.00750198
0.195266
0.00920898
0.193564
0.0109195
0.191608
0.0126563
0.18939
0.0144412
0.186901
0.0162955
0.184132
0.0182405
0.181071
0.0202963
0.1777
0.022482
0.173999
0.0248154
0.169945
0.0273149
0.165515
0.0299998
0.160675
0.0328903
0.155389
0.0360049
0.149615
0.0393595
0.143297
0.0429701
0.136363
0.0468553
0.128724
0.0510328
0.120286
0.0555193
0.11091
0.0603409
0.100398
0.0655288
0.0885359
0.0711318
0.0750101
0.0772853
0.0593868
0.0841545
0.0412037
0.0918603
0.0211559
0.0994255
0.105513
0.199537
0.00213439
0.198852
0.00439087
0.197918
0.00648953
0.196736
0.00849114
0.195311
0.0104549
0.193644
0.012421
0.191731
0.0144171
0.189568
0.0164677
0.187143
0.0185965
0.184445
0.0208271
0.181463
0.0231827
0.17818
0.0256855
0.17457
0.028356
0.170616
0.0312153
0.166291
0.0342874
0.161558
0.0375983
0.15638
0.0411721
0.150707
0.0450325
0.144474
0.0492087
0.137596
0.0537313
0.129977
0.0586339
0.121512
0.0639635
0.112033
0.0697808
0.101302
0.0761698
0.0890585
0.0832228
0.0750308
0.0910855
0.0588313
0.100015
0.0399236
0.11029
0.0198071
0.118971
0.12507
0.199533
0.00234751
0.198847
0.00484953
0.197927
0.00719961
0.19677
0.00945244
0.19538
0.0116637
0.193755
0.0138763
0.191894
0.0161222
0.189793
0.018429
0.187441
0.0208227
0.184823
0.0233291
0.181931
0.0259746
0.178743
0.0287841
0.175236
0.0317812
0.171395
0.0349914
0.167189
0.0384447
0.162575
0.0421736
0.157513
0.0462087
0.151945
0.0505848
0.145793
0.0553448
0.138968
0.0605334
0.131357
0.0662122
0.122812
0.0724582
0.113156
0.0793529
0.102156
0.0870339
0.0894964
0.0956763
0.0748816
0.105409
0.0581008
0.116398
0.0386981
0.12916
0.0186034
0.138456
0.143462
0.199534
0.00255994
0.198851
0.00530088
0.197947
0.00789017
0.19682
0.010382
0.19547
0.0128301
0.193894
0.0152792
0.192092
0.0177643
0.19006
0.0203163
0.187786
0.0229635
0.185258
0.0257339
0.182464
0.0286572
0.179382
0.0317614
0.175996
0.035074
0.172288
0.0386264
0.168217
0.0424543
0.163739
0.0465963
0.158813
0.0510927
0.153368
0.0559938
0.147318
0.0613546
0.140564
0.067239
0.132975
0.0737421
0.124375
0.0809683
0.114545
0.0890463
0.103254
0.0981361
0.090183
0.108482
0.0749696
0.120255
0.057614
0.133285
0.0378364
0.148345
0.0177299
0.157886
0.160874
0.199537
0.0027687
0.198862
0.00574046
0.197978
0.00855752
0.196884
0.0112761
0.195577
0.0139496
0.194057
0.016624
0.19232
0.019337
0.190362
0.0221221
0.188174
0.0250099
0.185744
0.0280312
0.183058
0.0312187
0.180099
0.0346042
0.176851
0.0382203
0.173293
0.0421035
0.169375
0.0462946
0.165056
0.0508402
0.160293
0.0557941
0.155005
0.0612213
0.1491
0.0671917
0.142456
0.0738006
0.13493
0.0811662
0.126346
0.0894248
0.11643
0.0987818
0.10488
0.109434
0.0914221
0.121607
0.0757121
0.135529
0.0577964
0.150669
0.0375809
0.167921
0.0174176
0.177356
0.177996
0.19954
0.00297164
0.198877
0.00616456
0.198017
0.00919812
0.196959
0.0121311
0.195701
0.0150178
0.19424
0.0179055
0.192573
0.0208342
0.190696
0.0238395
0.188603
0.0269545
0.186281
0.0302125
0.183716
0.0336493
0.180891
0.0373007
0.177796
0.0412043
0.174403
0.0454022
0.170659
0.0499408
0.166526
0.0548758
0.161961
0.0602757
0.156879
0.0662188
0.151175
0.0727975
0.144722
0.0801375
0.137363
0.0883901
0.128876
0.0977423
0.11898
0.108438
0.107332
0.120763
0.0936354
0.134906
0.0775637
0.151113
0.0590988
0.168559
0.038345
0.188046
0.0178831
0.197232
0.195661
0.199545
0.00316723
0.198896
0.00657066
0.198064
0.00980889
0.197046
0.0129439
0.195839
0.016031
0.194441
0.0191191
0.192849
0.02225
0.191061
0.0254618
0.189073
0.0287898
0.186867
0.0322694
0.184431
0.0359386
0.181754
0.0398377
0.178825
0.0440097
0.175615
0.0485022
0.172068
0.0533674
0.168156
0.0586696
0.163835
0.0644931
0.159011
0.0709319
0.153574
0.0781039
0.147402
0.0861594
0.140332
0.0952895
0.132102
0.105747
0.122432
0.117801
0.110982
0.131829
0.0973272
0.148095
0.0810764
0.166821
0.062156
0.186873
0.040736
0.208884
0.0194513
0.218092
0.215031
0.199551
0.00335391
0.19892
0.00695632
0.198118
0.0103869
0.197142
0.0137111
0.19599
0.0169854
0.19466
0.0202605
0.193148
0.0235796
0.191455
0.026983
0.189577
0.0305087
0.187496
0.0341928
0.185201
0.0380759
0.182682
0.0422025
0.179933
0.0466204
0.176925
0.0513832
0.173603
0.0565485
0.16995
0.0621887
0.165916
0.068403
0.1614
0.0753022
0.156311
0.0830244
0.150528
0.0917516
0.143888
0.101709
0.136159
0.113194
0.127025
0.12657
0.116145
0.142264
0.103015
0.160692
0.0871361
0.182093
0.0681292
0.205246
0.0458695
0.230597
0.0226248
0.241003
0.237544
0.199557
0.0035304
0.198947
0.0073194
0.198178
0.0109299
0.197248
0.01443
0.196153
0.017878
0.194893
0.021326
0.193467
0.0248186
0.191873
0.0283977
0.19011
0.0321033
0.188164
0.0359738
0.186021
0.0400519
0.183672
0.0443839
0.181117
0.0490219
0.178325
0.0540263
0.175256
0.0594589
0.171897
0.065401
0.168185
0.0719618
0.164036
0.0792661
0.159386
0.0874698
0.154125
0.0967798
0.148102
0.107459
0.141128
0.119834
0.132924
0.134359
0.123187
0.151497
0.111469
0.171816
0.0972264
0.195679
0.0794055
0.222421
0.0570052
0.252474
0.0294159
0.268276
0.266858
0.199564
0.0036958
0.198976
0.00765823
0.198243
0.0114355
0.197361
0.0150984
0.196327
0.0187061
0.19514
0.0223121
0.193802
0.0259627
0.192311
0.0297009
0.190669
0.0335685
0.188866
0.0376069
0.186881
0.0418592
0.184712
0.0463724
0.18236
0.0512039
0.179796
0.0564181
0.177002
0.06208
0.173958
0.0682799
0.170599
0.075132
0.166876
0.0827702
0.16274
0.0913663
0.158111
0.101136
0.152883
0.112369
0.14692
0.125415
0.140091
0.140723
0.132236
0.158802
0.123204
0.18022
0.112866
0.20535
0.100762
0.233901
0.0877886
0.264979
0.0718041
0.28399
0.338561
0.003346
-0.00336643
0.00100001
0.00211197
-0.00396455
0.00449591
-0.0110337
0.00644742
-0.0199352
0.00823246
-0.0302232
0.00967669
-0.0414287
0.0107158
-0.0531585
0.0113841
-0.0651128
0.011757
-0.0770805
0.0118975
-0.0889257
0.0118597
-0.100528
0.0116821
-0.111753
0.0113635
-0.122461
0.0108984
-0.132499
0.0102877
-0.141714
0.00951217
-0.149943
0.00855888
-0.156987
0.00740678
-0.162625
0.0060268
-0.166616
0.00440747
-0.168719
0.00254367
-0.168543
0.00028331
-0.165777
-0.00229205
-0.15984
-0.00545273
-0.150267
-0.00907875
-0.136566
-0.0131912
-0.118106
-0.0179338
-0.0937091
-0.023852
-0.0619031
-0.0312286
-0.0337285
-0.0032548
-0.000150881
-0.00799432
0.00657401
-0.0154593
0.0114684
-0.0251769
0.0155382
-0.0365113
0.0189011
-0.0488847
0.0214531
-0.0618339
0.0231923
-0.0750233
0.0242375
-0.0882166
0.0247513
-0.101259
0.0248629
-0.11405
0.0246546
-0.126488
0.0241835
-0.138456
0.0234625
-0.149841
0.0224737
-0.160509
0.0211969
-0.170314
0.0196037
-0.179089
0.0176605
-0.186647
0.0153235
-0.192782
0.0125517
-0.197266
0.00930962
-0.199827
0.00554531
-0.200314
0.0012297
-0.198333
-0.00379834
-0.193769
-0.0095323
-0.186353
-0.0160028
-0.175884
-0.0231508
-0.162301
-0.0309902
-0.145904
-0.0397039
-0.127585
-0.0489706
-0.0570832
-0.00608207
0.00585057
-0.014054
0.0141802
-0.0239612
0.0208391
-0.0355275
0.0264668
-0.0482156
0.0309351
-0.0614556
0.0341346
-0.0748712
0.0361831
-0.0882419
0.0373123
-0.101449
0.03777
-0.114407
0.037735
-0.12705
0.0373037
-0.139325
0.0365237
-0.151145
0.0354078
-0.162416
0.033929
-0.173025
0.0320446
-0.182844
0.029707
-0.191719
0.0268621
-0.199481
0.0234458
-0.205935
0.0193974
-0.210866
0.0146601
-0.214065
0.00918628
-0.215285
0.0029117
-0.214425
-0.00418057
-0.211289
-0.0121824
-0.205747
-0.0210553
-0.19774
-0.0306496
-0.187413
-0.0407884
-0.175215
-0.0513552
-0.16134
-0.0622657
-0.0727617
-0.008219
0.0138514
-0.0186401
0.0241147
-0.0305282
0.0321397
-0.0433951
0.038696
-0.056728
0.0436531
-0.0700845
0.0469914
-0.0832526
0.0489894
-0.0961566
0.0499785
-0.108796
0.0502618
-0.121178
0.0500379
-0.133268
0.0493976
-0.145045
0.048367
-0.156452
0.0469355
-0.167406
0.0450603
-0.177799
0.0426745
-0.18751
0.0397073
-0.196399
0.0360806
-0.2043
0.0317102
-0.211023
0.0265158
-0.216365
0.0204248
-0.220115
0.0133818
-0.22209
0.00535088
-0.222138
-0.00365255
-0.220183
-0.0136475
-0.21615
-0.0245932
-0.210057
-0.0362313
-0.202113
-0.0482023
-0.192703
-0.0602145
-0.18208
-0.0723045
-0.0835291
-0.00998587
0.0235923
-0.0224112
0.0359562
-0.0357464
0.0448487
-0.0493213
0.0516637
-0.0626634
0.0564682
-0.0755782
0.0594785
-0.0880361
0.0611318
-0.100094
0.0618396
-0.111838
0.0619045
-0.123357
0.0615096
-0.134657
0.060715
-0.145732
0.059519
-0.156548
0.0578764
-0.167025
0.0557183
-0.17706
0.0529485
-0.186533
0.0494749
-0.195317
0.0451979
-0.203249
0.0400099
-0.210146
0.033813
-0.215814
0.0265203
-0.220055
0.0180736
-0.222697
0.00846046
-0.223596
-0.00227116
-0.222694
-0.0140546
-0.219965
-0.0268189
-0.215473
-0.0402071
-0.209433
-0.0537086
-0.202192
-0.0669008
-0.194169
-0.0797388
-0.0909988
-0.0115384
0.0348748
-0.0255182
0.0493108
-0.0397244
0.0584291
-0.0533834
0.0647757
-0.0661849
0.068845
-0.0782015
0.0711489
-0.0895914
0.0722523
-0.100526
0.0726084
-0.111169
0.0724715
-0.121646
0.0719673
-0.132
0.0711081
-0.142238
0.0698517
-0.152344
0.0681153
-0.162246
0.065803
-0.171835
0.0627862
-0.181003
0.058943
-0.189627
0.0541613
-0.19755
0.0483062
-0.204591
0.0412601
-0.210561
0.0329229
-0.215263
0.0232317
-0.218519
0.0121895
-0.220179
-0.000122973
-0.220209
-0.0135256
-0.218626
-0.0278917
-0.215507
-0.0428048
-0.211054
-0.0576234
-0.205606
-0.0717881
-0.199683
-0.0850672
-0.0961001
-0.0128843
0.0475245
-0.0279184
0.0636956
-0.0423443
0.0722677
-0.0554566
0.0774124
-0.0672269
0.0802597
-0.0779532
0.0815975
-0.0879812
0.0820676
-0.0975881
0.0820835
-0.106989
0.0818144
-0.116322
0.0813016
-0.125647
0.0804901
-0.134979
0.0792962
-0.144307
0.0775928
-0.153572
0.0752522
-0.162675
0.0721345
-0.171499
0.068072
-0.179928
0.0629336
-0.18781
0.0565674
-0.19497
0.0488314
-0.20122
0.0396125
-0.206364
0.0288373
-0.210208
0.0165138
-0.21259
0.00275296
-0.21348
-0.01213
-0.21294
-0.0279151
-0.211037
-0.0441801
-0.20796
-0.0601576
-0.204046
-0.0751357
-0.19985
-0.0886625
-0.0993703
-0.0139321
0.0611201
-0.0294054
0.0785108
-0.0433662
0.0856962
-0.0553004
0.0889368
-0.0655494
0.0902003
-0.0746541
0.0904717
-0.0831127
0.0903572
-0.0912708
0.0901408
-0.0993542
0.0898627
-0.107507
0.0894747
-0.115788
0.0888427
-0.124196
0.08783
-0.132728
0.086296
-0.141333
0.0840574
-0.149922
0.0809676
-0.158381
0.0768367
-0.166593
0.0714929
-0.174414
0.0647725
-0.181675
0.0565099
-0.188188
0.0465707
-0.193749
0.0348666
-0.198154
0.0214053
-0.20126
0.00635984
-0.203001
-0.00987668
-0.203438
-0.0269549
-0.202648
-0.0444363
-0.200805
-0.0614516
-0.198237
-0.0771309
-0.195499
-0.0907933
-0.101131
-0.0144947
0.075291
-0.0297035
0.0931354
-0.0424592
0.0979946
-0.0525724
0.098697
-0.0608493
0.0982074
-0.0680788
0.0975052
-0.0748605
0.096995
-0.0815401
0.0967432
-0.0883107
0.096627
-0.0952952
0.0964991
-0.102559
0.0961908
-0.11008
0.0954838
-0.117833
0.0942292
-0.125785
0.0922248
-0.133843
0.0892824
-0.141913
0.085213
-0.149883
0.0798136
-0.157616
0.0728946
-0.164953
0.0642693
-0.17171
0.0537788
-0.177685
0.0413171
-0.182675
0.0268885
-0.186509
0.0107019
-0.189081
-0.00678615
-0.190454
-0.0250528
-0.190721
-0.0436296
-0.190034
-0.0615829
-0.188692
-0.0778946
-0.187229
-0.0916409
-0.101573
-0.0144763
0.089557
-0.0286058
0.106813
-0.0392646
0.108274
-0.0468787
0.106005
-0.0528073
0.1039
-0.0580132
0.102548
-0.0631059
0.101965
-0.0683619
0.101933
-0.0739162
0.102195
-0.0798314
0.102475
-0.08614
0.102595
-0.0928342
0.102315
-0.0998536
0.10143
-0.107159
0.0997531
-0.114682
0.0970706
-0.122336
0.093178
-0.130026
0.0878575
-0.13763
0.0808921
-0.145003
0.0720694
-0.151974
0.0612068
-0.158355
0.048179
-0.163941
0.0329736
-0.168515
0.0157907
-0.1719
-0.00287596
-0.174177
-0.022241
-0.175485
-0.0417753
-0.17594
-0.0605665
-0.175774
-0.0774748
-0.175484
-0.0913085
-0.1008
-0.0138236
0.103206
-0.0258232
0.118477
-0.033247
0.115378
-0.0377194
0.110212
-0.0410974
0.107081
-0.0443077
0.105632
-0.0478353
0.105408
-0.0518422
0.105883
-0.0563435
0.106705
-0.0613434
0.107543
-0.0668162
0.108169
-0.0727379
0.108377
-0.0790628
0.107938
-0.085737
0.106653
-0.0927108
0.104314
-0.0999194
0.100701
-0.107284
0.0955794
-0.114704
0.0887083
-0.122051
0.079849
-0.129178
0.0687957
-0.135919
0.0554058
-0.142075
0.0396352
-0.147396
0.021631
-0.151566
0.00182557
-0.154686
-0.0185804
-0.157047
-0.0388619
-0.158687
-0.0583585
-0.159734
-0.0758368
-0.160593
-0.08982
-0.0988567
-0.0124049
0.115505
-0.0206562
0.12645
-0.0234952
0.11794
-0.0245027
0.110991
-0.0254942
0.107909
-0.0270686
0.107103
-0.029352
0.107637
-0.0323599
0.108854
-0.0359977
0.110342
-0.0402023
0.111807
-0.0449365
0.113002
-0.0501478
0.113727
-0.0557982
0.113771
-0.0618454
0.112927
-0.0682552
0.110995
-0.0749827
0.107745
-0.0819691
0.102926
-0.0891368
0.0962757
-0.0963803
0.0875278
-0.103568
0.0764498
-0.110557
0.062885
-0.117144
0.0467321
-0.123037
0.0280496
-0.127976
0.00730057
-0.131999
-0.0140105
-0.135433
-0.0348708
-0.138338
-0.0548803
-0.140715
-0.0728611
-0.142793
-0.0871061
-0.0957228
-0.00982146
0.125116
-0.0111208
0.127465
-0.00905573
0.115626
-0.00704132
0.108771
-0.00630686
0.10702
-0.00678086
0.107473
-0.00821675
0.109014
-0.0104587
0.111067
-0.0133756
0.113263
-0.0168785
0.115362
-0.0209213
0.11714
-0.0254624
0.118406
-0.0304625
0.118952
-0.0358761
0.118567
-0.0416935
0.117086
-0.0478898
0.114259
-0.0544271
0.109824
-0.0612568
0.103507
-0.0682981
0.0950072
-0.0754289
0.0840496
-0.0825329
0.0704835
-0.0894041
0.0541176
-0.0957716
0.0349465
-0.101373
0.0134429
-0.10623
-0.00860307
-0.110669
-0.029869
-0.114884
-0.0500868
-0.118765
-0.068376
-0.122237
-0.0829918
-0.0913143
-0.00370103
0.128677
0.0037774
0.119706
0.0106308
0.108528
0.0141867
0.105001
0.0156388
0.105397
0.0157425
0.107248
0.0148826
0.109799
0.0132651
0.11265
0.0110014
0.115532
0.00816786
0.118244
0.00480525
0.120594
0.000937747
0.122409
-0.00342495
0.123496
-0.00823711
0.123606
-0.0134517
0.122573
-0.0190528
0.120179
-0.0250382
0.116172
-0.0313975
0.11027
-0.0380833
0.102133
-0.0449689
0.0914065
-0.0520401
0.0780515
-0.0591206
0.0617153
-0.0659752
0.0423335
-0.0721991
0.0202113
-0.0776506
-0.00259672
-0.0828879
-0.0240651
-0.088333
-0.0440584
-0.0938528
-0.0622473
-0.098989
-0.0772075
-0.0854822
0.0194509
0.109096
0.0291374
0.109755
0.0350164
0.102385
0.0378193
0.101959
0.0391301
0.103894
0.0394675
0.106773
0.039041
0.110138
0.0379558
0.113694
0.0362814
0.117209
0.0340713
0.1205
0.031361
0.123395
0.0281799
0.125725
0.0245493
0.127306
0.0204736
0.127908
0.0159874
0.127333
0.0111126
0.125373
0.00585604
0.121792
0.000196577
0.116334
-0.00590127
0.108671
-0.0123972
0.0983747
-0.0190807
0.0852333
-0.0259625
0.069116
-0.0330934
0.0499992
-0.0404443
0.0281091
-0.0467031
0.00421999
-0.0523821
-0.0178161
-0.0588472
-0.0370061
-0.0659502
-0.0545308
-0.0730095
-0.0694948
-0.0779906
0.207215
0.00385536
0.20663
0.0079835
0.205908
0.0119194
0.205045
0.0157363
0.204038
0.0194945
0.202888
0.0232483
0.201597
0.0270455
0.200165
0.0309302
0.198597
0.0349457
0.196883
0.039136
0.195003
0.0435439
0.192958
0.0482168
0.190749
0.0532154
0.188361
0.0586056
0.18579
0.0644589
0.183006
0.070868
0.179963
0.0779448
0.176646
0.0858298
0.173026
0.0947023
0.169063
0.104778
0.164725
0.116334
0.159997
0.129705
0.154933
0.14527
0.149664
0.163476
0.144624
0.184606
0.140704
0.208603
0.139855
0.234157
0.14686
0.257571
0.16488
0.26577
0.253422
0.24998
0.212238
0.00400517
0.211665
0.00828736
0.210966
0.0123697
0.21014
0.0163277
0.209185
0.0202238
0.208097
0.0241124
0.206881
0.0280415
0.205541
0.0320562
0.204081
0.0362017
0.202495
0.0405232
0.200763
0.045063
0.198893
0.0498692
0.196883
0.0550028
0.194734
0.0605285
0.192455
0.066523
0.190017
0.0730788
0.187394
0.080302
0.184598
0.0883314
0.181638
0.0973373
0.178534
0.107517
0.175344
0.119106
0.172191
0.132379
0.169311
0.1476
0.167194
0.164983
0.166783
0.18437
0.169773
0.204972
0.178917
0.224463
0.197488
0.238639
0.220952
0.242129
0.238625
0.235642
0.217383
0.00414391
0.216824
0.00856677
0.216154
0.0127819
0.215371
0.0168671
0.214474
0.0208869
0.213457
0.0248954
0.212327
0.0289394
0.211092
0.0330662
0.209757
0.0373228
0.20831
0.0417526
0.206746
0.0463968
0.205075
0.0513057
0.203296
0.0565381
0.201418
0.0621564
0.199461
0.068235
0.197418
0.0748644
0.195276
0.0821454
0.193075
0.0901986
0.190877
0.0991725
0.188758
0.109232
0.186858
0.120554
0.185415
0.133313
0.184828
0.147621
0.185789
0.163409
0.189364
0.180163
0.196984
0.196746
0.209707
0.21123
0.226871
0.221124
0.244116
0.224676
0.221895
0.260675
0.222653
0.00427015
0.222112
0.00881832
0.221477
0.0131515
0.220744
0.0173493
0.219908
0.0214767
0.218971
0.0255876
0.21794
0.0297289
0.216824
0.0339486
0.215625
0.0382944
0.214334
0.0428071
0.212955
0.0475279
0.211502
0.0525061
0.209983
0.0577961
0.208408
0.0634584
0.206802
0.0695641
0.205184
0.0761905
0.203572
0.0834278
0.202028
0.0913785
0.200647
0.100159
0.199552
0.109891
0.198954
0.120672
0.199172
0.132568
0.20067
0.14555
0.20413
0.159342
0.210363
0.173322
0.220052
0.18649
0.233238
0.197567
0.249079
0.20493
0.266166
0.207337
0.203764
0.284083
0.228052
0.00438248
0.227532
0.00903935
0.226937
0.0134744
0.226259
0.0177681
0.22549
0.0219848
0.224643
0.0261793
0.223726
0.0304002
0.222738
0.0346934
0.221683
0.0391033
0.220565
0.043671
0.219391
0.048438
0.218177
0.0534505
0.216937
0.058756
0.21569
0.0644111
0.214465
0.0704824
0.213302
0.0770282
0.212249
0.0841246
0.211381
0.0918584
0.210822
0.100298
0.210738
0.109517
0.211367
0.119547
0.213044
0.130356
0.216211
0.141811
0.221392
0.153571
0.229058
0.165077
0.239466
0.17555
0.252511
0.184069
0.267527
0.189557
0.28339
0.191195
0.188203
0.298724
0.233585
0.00447927
0.233089
0.0092272
0.232537
0.0137462
0.231917
0.0181171
0.231226
0.0224042
0.230477
0.0266629
0.229683
0.0309429
0.228835
0.0352879
0.227937
0.0397377
0.227005
0.044332
0.226053
0.0491119
0.225096
0.0541213
0.224152
0.0594017
0.22325
0.0649986
0.222431
0.0709702
0.22174
0.0773664
0.221249
0.084237
0.221056
0.0916436
0.221292
0.0996239
0.222141
0.108194
0.22384
0.117341
0.226687
0.126971
0.231039
0.136897
0.237242
0.1468
0.245565
0.156207
0.256073
0.16454
0.268566
0.17114
0.282413
0.175352
0.296605
0.176714
0.174413
0.310166
0.239253
0.00455889
0.238786
0.00937789
0.238281
0.0139621
0.237725
0.0183916
0.237119
0.0227298
0.236476
0.0270321
0.235808
0.031348
0.235114
0.0357202
0.234389
0.0401852
0.233656
0.0447781
0.232937
0.0495377
0.232252
0.0545064
0.231621
0.0597204
0.231077
0.0652102
0.23067
0.0710242
0.230456
0.0772065
0.23052
0.0837773
0.230971
0.0907708
0.231937
0.0982058
0.233595
0.106056
0.23616
0.114267
0.239874
0.122726
0.24499
0.131237
0.251735
0.139513
0.260242
0.147182
0.270484
0.153822
0.282202
0.159003
0.294871
0.162328
0.307777
0.163515
0.161784
0.320177
0.24506
0.00462012
0.244624
0.00948854
0.244171
0.0141178
0.243687
0.0185861
0.243175
0.0229551
0.242645
0.0272798
0.242109
0.0316084
0.241572
0.035982
0.241035
0.040435
0.240515
0.044999
0.240037
0.0497073
0.239634
0.0545977
0.239332
0.0597029
0.239151
0.0650442
0.239151
0.070653
0.239409
0.0765596
0.240003
0.0827733
0.24104
0.0893026
0.242648
0.0961405
0.244978
0.103243
0.248206
0.110535
0.25252
0.117893
0.258097
0.125136
0.265067
0.132027
0.273476
0.138283
0.283252
0.143595
0.294157
0.147695
0.30578
0.150357
0.317602
0.1514
0.150155
0.329005
0.25101
0.0046617
0.250608
0.00955751
0.250209
0.0142093
0.249803
0.0186946
0.249392
0.0230734
0.248985
0.0273992
0.248589
0.0317173
0.248217
0.0360665
0.247876
0.0404802
0.247579
0.0449877
0.24735
0.0496149
0.247232
0.0543925
0.247258
0.0593503
0.247443
0.0645036
0.247845
0.0698664
0.248551
0.0754547
0.249636
0.0812716
0.251196
0.0873072
0.253344
0.0935349
0.25621
0.0999005
0.259933
0.106321
0.264648
0.112677
0.270469
0.118815
0.277464
0.124544
0.28563
0.129654
0.294865
0.133934
0.304969
0.137208
0.315638
0.139352
0.32648
0.14027
0.139409
0.337005
0.257106
0.00468237
0.25674
0.00958242
0.256399
0.0142333
0.256077
0.0187125
0.255774
0.0230795
0.255494
0.0273844
0.255248
0.0316685
0.25505
0.0359685
0.25491
0.0403167
0.254843
0.0447392
0.254874
0.0492566
0.25504
0.0538928
0.255382
0.0586706
0.255924
0.0635996
0.256718
0.0686847
0.257841
0.0739299
0.259367
0.0793282
0.26138
0.0848587
0.263979
0.0904846
0.267267
0.096147
0.271347
0.101765
0.276313
0.107233
0.282231
0.112422
0.289128
0.117187
0.296973
0.121373
0.305662
0.124843
0.315025
0.127484
0.32483
0.129227
0.334799
0.130025
0.129443
0.344553
0.263351
0.00468078
0.263024
0.00956065
0.262746
0.014187
0.262512
0.018637
0.262321
0.0229692
0.262175
0.02723
0.262086
0.0314568
0.262067
0.0356839
0.262133
0.0399415
0.262301
0.0442522
0.262594
0.0486334
0.263045
0.0531021
0.263693
0.0576734
0.264574
0.0623525
0.265737
0.0671378
0.267243
0.0720238
0.26916
0.0769959
0.271563
0.082027
0.274531
0.0870759
0.278144
0.0920843
0.282476
0.0969785
0.287584
0.101671
0.293503
0.106057
0.300234
0.110026
0.30773
0.113471
0.315896
0.116302
0.324593
0.118447
0.333646
0.119873
0.342851
0.120559
0.120173
0.351921
0.269748
0.00465556
0.269465
0.0094901
0.269254
0.0140684
0.269111
0.0184659
0.269034
0.0227393
0.269028
0.0269322
0.269101
0.0310788
0.269267
0.0352104
0.269542
0.0393539
0.269943
0.0435291
0.270495
0.0477502
0.271226
0.0520287
0.272174
0.056373
0.273377
0.060784
0.274878
0.0652556
0.276731
0.0697762
0.278994
0.0743262
0.281728
0.0788756
0.284995
0.0833843
0.288854
0.0877945
0.293357
0.092045
0.298533
0.0960677
0.304397
0.0997772
0.31093
0.103093
0.318083
0.105942
0.325773
0.108265
0.333887
0.110019
0.342291
0.111191
0.350834
0.111773
0.111523
0.359301
0.276303
0.00460561
0.276066
0.00936915
0.275926
0.0138752
0.275876
0.0181966
0.275918
0.0223876
0.276055
0.0264891
0.276293
0.0305331
0.276647
0.0345475
0.27713
0.0385556
0.277763
0.0425742
0.278567
0.0466146
0.279571
0.0506841
0.280807
0.0547861
0.282312
0.0589177
0.284124
0.0630692
0.286289
0.0672261
0.288854
0.0713663
0.291869
0.0754594
0.295378
0.0794688
0.299421
0.0833436
0.304034
0.0870281
0.309232
0.0904724
0.315008
0.0936158
0.321338
0.0963958
0.328173
0.0987626
0.335442
0.100678
0.343054
0.10212
0.350905
0.103085
0.358882
0.103575
0.103416
0.366822
0.283017
0.00453014
0.28283
0.0091965
0.282763
0.0136056
0.282811
0.0178274
0.282974
0.0219129
0.283255
0.0259008
0.28366
0.0298205
0.284201
0.0336969
0.284893
0.0375499
0.285753
0.0413935
0.286804
0.0452361
0.288069
0.049082
0.289579
0.0529312
0.291366
0.0567776
0.293462
0.0606094
0.295904
0.064411
0.298733
0.068159
0.301984
0.0718255
0.305689
0.0753788
0.309874
0.0787758
0.314557
0.081969
0.319744
0.0849197
0.32542
0.0875871
0.331556
0.0899244
0.338107
0.0918982
0.345012
0.0934856
0.352197
0.0946758
0.359581
0.0954718
0.367079
0.09588
0.0957808
0.374567
0.289896
0.00442847
0.28976
0.00897124
0.28977
0.0132587
0.289918
0.0173572
0.290204
0.021315
0.290629
0.0251679
0.291201
0.0289428
0.291929
0.0326619
0.292826
0.0363422
0.293908
0.0399948
0.295196
0.0436259
0.29671
0.0472374
0.298478
0.0508272
0.300529
0.0543878
0.302885
0.0579052
0.305573
0.0613639
0.308628
0.0647429
0.312076
0.0680153
0.315941
0.0711541
0.320236
0.0741257
0.324965
0.0768933
0.330124
0.0794255
0.335699
0.0816913
0.34166
0.0836611
0.347964
0.0853128
0.354559
0.0866332
0.361385
0.0876186
0.368379
0.088275
0.375474
0.0886108
0.0885496
0.382577
0.296943
0.00430015
0.296861
0.00869288
0.296948
0.0128339
0.297198
0.0167862
0.297607
0.0205946
0.298178
0.024292
0.298915
0.027903
0.299826
0.0314472
0.300924
0.0349392
0.302221
0.0383875
0.303736
0.0417965
0.305485
0.0451666
0.307492
0.0484936
0.309787
0.0517695
0.312384
0.0549823
0.315292
0.0581147
0.318544
0.061148
0.322161
0.0640592
0.326157
0.0668254
0.330534
0.0694217
0.335292
0.0718187
0.340421
0.0739923
0.345903
0.0759204
0.351709
0.0775842
0.357802
0.07897
0.364137
0.0800712
0.370665
0.080888
0.377335
0.0814281
0.384094
0.0817007
0.0816614
0.390872
0.304162
0.00414488
0.304134
0.00836133
0.304301
0.0123316
0.304653
0.0161151
0.305186
0.0197533
0.305901
0.023276
0.306801
0.0267052
0.307892
0.0300586
0.309184
0.0333487
0.310689
0.036582
0.312419
0.039761
0.31439
0.0428853
0.316617
0.04595
0.31913
0.0489459
0.321945
0.0518638
0.325057
0.0546881
0.328485
0.0573998
0.332249
0.0599817
0.336354
0.062415
0.340799
0.0646793
0.345578
0.0667535
0.350677
0.0686196
0.356078
0.0702625
0.361752
0.0716701
0.367668
0.0728348
0.373787
0.0737542
0.380069
0.0744312
0.386471
0.0748738
0.392952
0.0750912
0.0750627
0.399459
0.311556
0.00396257
0.311585
0.0079769
0.311832
0.0117526
0.312286
0.0153454
0.312942
0.0187935
0.313799
0.0221235
0.314858
0.0253548
0.316124
0.028503
0.317604
0.0315791
0.319307
0.0345887
0.321243
0.0375327
0.323423
0.0404091
0.32586
0.0432136
0.32857
0.0459376
0.331575
0.0485722
0.334871
0.0511054
0.338458
0.0535206
0.342351
0.0558027
0.346552
0.057937
0.351055
0.0599081
0.355852
0.061701
0.360926
0.0633026
0.366259
0.0647029
0.371826
0.0658946
0.377596
0.0668742
0.383538
0.0676419
0.389618
0.068202
0.395802
0.0685625
0.402054
0.0687321
0.0687064
0.408335
0.31913
0.00375327
0.319217
0.00754041
0.319544
0.0110985
0.320099
0.0144794
0.320876
0.017718
0.321872
0.0208383
0.323086
0.0238573
0.32452
0.0267881
0.326181
0.02964
0.328074
0.0324183
0.330205
0.0351235
0.332583
0.0377524
0.335216
0.0403006
0.338114
0.0427615
0.34129
0.0451267
0.344744
0.047386
0.348475
0.0495265
0.352484
0.0515356
0.356771
0.0534017
0.361327
0.0551134
0.366141
0.0566601
0.371198
0.0580331
0.376478
0.0592257
0.381959
0.0602343
0.387613
0.0610577
0.393413
0.061698
0.39933
0.0621599
0.405336
0.0624511
0.411402
0.0625796
0.0625519
0.417497
0.326887
0.0035168
0.327035
0.00705283
0.32744
0.0103716
0.328093
0.0135202
0.328988
0.0165307
0.330121
0.019425
0.331486
0.0222184
0.333083
0.0249213
0.334915
0.027541
0.336988
0.0300821
0.339304
0.0325456
0.341867
0.0349284
0.344683
0.0372261
0.347756
0.039433
0.351091
0.0415419
0.354689
0.0435443
0.358547
0.0454304
0.362662
0.0471903
0.367028
0.048815
0.371635
0.0502963
0.376471
0.0516269
0.381519
0.052801
0.386761
0.053815
0.392176
0.054667
0.397739
0.0553579
0.403428
0.0558904
0.409217
0.0562695
0.41508
0.0565022
0.420996
0.056596
0.0565636
0.426938
0.334832
0.00325357
0.335039
0.00651496
0.335523
0.00957343
0.336273
0.0124706
0.337284
0.0152359
0.338547
0.0178895
0.340057
0.0204444
0.341811
0.0229096
0.343808
0.0252904
0.346051
0.0275907
0.34854
0.0298114
0.351276
0.0319501
0.354261
0.0340029
0.357495
0.0359649
0.36098
0.03783
0.364712
0.0395914
0.368688
0.0412417
0.372901
0.0427736
0.377342
0.0441802
0.382
0.0454557
0.386861
0.0465953
0.391911
0.0475955
0.397129
0.0484543
0.402497
0.0491718
0.407994
0.0497493
0.413598
0.0501903
0.419287
0.0504995
0.42504
0.0506832
0.430836