/*--------------------------------*- C++ -*----------------------------------*\
| =========                 |                                                 |
| \\      /  F ield         | OpenFOAM: The Open Source CFD Toolbox           |
|  \\    /   O peration     | Version:  2006                                  |
|   \\  /    A nd           | Website:  www.openfoam.com                      |
|    \\/     M anipulation  |                                                 |
\*---------------------------------------------------------------------------*/
FoamFile
{
    version     2.0;
    format      ascii;
    class       volVectorField;
    location    "0.9";
    object      U;
}
// * * * * * * * * * * * * * * * * * * * * * * * * * * * * * * * * * * * * * //

dimensions      [0 1 -1 0 0 0 0];


internalField   nonuniform List<vector> 
2790
(
(9.93993 0.0191618 -1.85525e-20)
(9.88134 0.0265617 1.89024e-20)
(9.79558 0.031326 -7.69738e-20)
(9.68822 0.0362472 3.9217e-20)
(9.5658 0.041367 0)
(9.42978 0.0466142 0)
(9.27936 0.0521 4.20128e-20)
(9.11353 0.0579708 0)
(8.93148 0.0643587 -8.85991e-20)
(8.7323 0.0713894 0)
(8.51493 0.0791895 -9.41296e-20)
(8.27816 0.0878914 0)
(8.02061 0.097647 0)
(7.74085 0.108629 0)
(7.43738 0.121016 0)
(7.10865 0.134987 2.28607e-19)
(6.75316 0.150722 -2.42806e-19)
(6.36951 0.16839 5.02182e-19)
(5.95652 0.188129 0)
(5.51331 0.210031 2.82772e-19)
(5.03942 0.234116 -3.01079e-19)
(4.53497 0.260286 0)
(4.00083 0.288299 2.78032e-18)
(3.43879 0.317706 -2.22413e-18)
(2.85178 0.347775 0)
(2.24415 0.377348 -8.78757e-19)
(1.62159 0.404343 0)
(0.992336 0.421829 1.04743e-18)
(0.334377 0.358668 -1.13933e-18)
(-0.175997 -0.403836 3.10233e-19)
(9.99604 0.0363492 9.25396e-21)
(9.9901 0.0532608 6.56867e-20)
(9.96046 0.0653323 3.81323e-20)
(9.90847 0.0781355 1.94143e-20)
(9.83935 0.0918252 -1.97139e-20)
(9.75466 0.106196 -8.04844e-20)
(9.65379 0.121456 -4.11837e-20)
(9.53584 0.137931 -1.67927e-19)
(9.39999 0.155931 -4.27934e-20)
(9.24538 0.175752 -4.39934e-20)
(9.07098 0.197694 -9.06191e-20)
(8.87559 0.222073 3.7548e-19)
(8.65778 0.249242 -3.84103e-19)
(8.4161 0.279589 -4.01192e-19)
(8.14903 0.3135 4.11887e-19)
(7.85493 0.351342 -1.08114e-18)
(7.53216 0.393446 -1.13773e-18)
(7.17917 0.440061 3.75664e-18)
(6.79452 0.4913 -3.94098e-18)
(6.37699 0.547082 3.88824e-18)
(5.92569 0.607047 -1.9035e-18)
(5.44018 0.670429 5.791e-19)
(4.9206 0.73594 -4.95906e-18)
(4.3679 0.80161 -2.02128e-18)
(3.78396 0.864476 1.69437e-17)
(3.17228 0.920119 -1.13297e-17)
(2.53823 0.960969 1.47437e-17)
(1.89132 0.970348 -2.91348e-17)
(1.19747 0.905543 1.6229e-17)
(0.757881 0.671191 3.38176e-17)
(9.99306 0.0356786 0)
(9.98397 0.0600429 -5.25794e-23)
(9.9559 0.0804329 1.90419e-20)
(9.90792 0.101703 -1.93149e-20)
(9.84389 0.124409 0)
(9.76546 0.148449 2.40287e-19)
(9.67235 0.174088 -8.19022e-20)
(9.56378 0.201782 4.17385e-19)
(9.43908 0.232009 3.42172e-19)
(9.29754 0.265243 -1.74093e-19)
(9.13835 0.301975 1.79254e-19)
(8.96048 0.342746 3.6789e-19)
(8.7627 0.388152 7.61702e-19)
(8.54379 0.438833 -7.78314e-19)
(8.30244 0.49545 0)
(8.03718 0.558664 -8.36077e-19)
(7.74653 0.629096 -8.67862e-19)
(7.42893 0.707252 0)
(7.08286 0.793442 0)
(6.7068 0.887689 0)
(6.29935 0.989604 -1.03198e-18)
(5.8592 1.09818 -1.62906e-18)
(5.38509 1.21158 0)
(4.87615 1.32685 1.21372e-18)
(4.33154 1.43943 -1.28097e-18)
(3.7505 1.54252 0)
(3.13118 1.62575 -1.4634e-18)
(2.46952 1.67138 2.35667e-17)
(1.70575 1.65692 -2.54181e-17)
(1.0155 1.53705 2.89236e-18)
(9.9914 0.0389593 0)
(9.97994 0.0721594 -7.492e-20)
(9.95142 0.101999 -1.13789e-19)
(9.90428 0.131994 1.15597e-19)
(9.84143 0.163301 1.56651e-19)
(9.7645 0.19621 -1.59569e-19)
(9.67342 0.231138 0)
(9.5675 0.268678 0)
(9.4462 0.309474 -5.09058e-19)
(9.30901 0.354177 3.45147e-19)
(9.15531 0.403466 0)
(8.98428 0.45809 -1.09497e-18)
(8.79502 0.518863 7.44529e-19)
(8.58663 0.58665 7.68516e-19)
(8.35815 0.662372 0)
(8.10854 0.746986 -1.65696e-18)
(7.8367 0.841424 7.63407e-18)
(7.54149 0.946517 -3.49736e-18)
(7.22172 1.0629 9.10763e-19)
(6.87604 1.1909 -9.47378e-19)
(6.50306 1.33043 1.97972e-18)
(6.10105 1.48071 1.03675e-18)
(5.66783 1.63994 6.5426e-18)
(5.20098 1.80513 -6.77944e-18)
(4.69692 1.97163 1.19743e-18)
(4.15021 2.13259 0)
(3.55245 2.27927 0)
(2.8928 2.40002 2.41815e-17)
(2.11508 2.48811 2.58702e-17)
(1.27896 2.56417 -5.42798e-17)
(9.99056 0.0437103 1.47545e-19)
(9.97773 0.0841564 -1.49394e-19)
(9.94876 0.121982 1.51554e-19)
(9.90223 0.159742 7.6773e-20)
(9.84053 0.198934 -4.68345e-19)
(9.76509 0.24019 7.92301e-20)
(9.67591 0.284064 1.61968e-19)
(9.57233 0.331229 -1.64233e-19)
(9.45387 0.382417 0)
(9.32014 0.438403 0)
(9.17058 0.500007 -7.04731e-19)
(9.00454 0.568115 7.1629e-19)
(8.82131 0.643684 0)
(8.62021 0.727742 -7.58579e-19)
(8.40054 0.821396 0)
(8.16156 0.925821 -8.04255e-19)
(7.90255 1.04219 8.26542e-19)
(7.62277 1.1716 0)
(7.32147 1.315 -8.8773e-19)
(6.99765 1.47313 2.74952e-18)
(6.65002 1.64634 -2.85218e-18)
(6.27699 1.83441 -7.95026e-18)
(5.87612 2.03606 1.23089e-17)
(5.4441 2.24903 -1.79744e-20)
(4.97582 2.46982 -2.22707e-18)
(4.4633 2.6934 0)
(3.8952 2.91434 -4.18127e-17)
(3.25985 3.1275 8.2765e-17)
(2.53067 3.32225 -4.09486e-17)
(1.59039 3.60362 -1.50947e-18)
(9.99011 0.0491687 -1.86249e-20)
(9.97663 0.0963174 3.54253e-19)
(9.94755 0.141736 -3.77529e-20)
(9.90179 0.187274 -3.06286e-19)
(9.84149 0.23442 1.55545e-19)
(9.76786 0.284012 -3.15565e-19)
(9.68087 0.336732 0)
(9.57998 0.393323 -3.27856e-19)
(9.46476 0.454589 3.32279e-19)
(9.33485 0.521425 1.02169e-18)
(9.18976 0.594785 -6.92067e-19)
(9.02896 0.67568 1.42604e-18)
(8.85182 0.765201 -1.44847e-18)
(8.6578 0.864522 1.49766e-18)
(8.44639 0.974908 1.55169e-18)
(8.21703 1.09772 -3.13078e-18)
(7.96925 1.23433 -8.10885e-19)
(7.70258 1.38606 5.03883e-18)
(7.41657 1.55418 -6.84072e-18)
(7.11052 1.73985 -1.77921e-18)
(6.78325 1.9439 1.83888e-17)
(6.4337 2.16682 1.34853e-19)
(6.05953 2.40826 -1.56324e-17)
(5.65695 2.66706 -2.03945e-18)
(5.22093 2.94152 2.11524e-18)
(4.7434 3.22891 0)
(4.21298 3.52616 4.08502e-17)
(3.61529 3.83309 -3.53963e-17)
(2.98129 4.11156 -4.41675e-17)
(1.95216 4.57838 4.27739e-17)
(9.9899 0.0549581 -1.47208e-19)
(9.97621 0.108558 -1.11693e-19)
(9.94736 0.16117 -3.76373e-20)
(9.90257 0.214189 1.5269e-19)
(9.84391 0.268997 -1.54989e-19)
(9.77237 0.326582 4.71216e-19)
(9.68793 0.387761 -3.19893e-19)
(9.59019 0.453364 3.22567e-19)
(9.47874 0.52428 3.29491e-19)
(9.35319 0.601508 -3.37006e-19)
(9.2132 0.686117 1.3782e-18)
(9.05826 0.779235 -1.39713e-18)
(8.88781 0.882067 7.23782e-19)
(8.70149 0.995894 -2.19166e-18)
(8.49887 1.12212 1.49789e-18)
(8.27954 1.26228 0)
(8.04315 1.41792 -1.57453e-18)
(7.78944 1.59056 3.24254e-18)
(7.51802 1.78177 1.66009e-18)
(7.22835 1.99316 0)
(6.91973 2.22602 1.06321e-17)
(6.59139 2.48159 1.15741e-19)
(6.2413 2.7606 -1.67472e-17)
(5.86585 3.06315 0)
(5.46079 3.38924 3.17054e-17)
(5.01958 3.73827 -3.25071e-17)
(4.53323 4.1076 3.34523e-17)
(3.97789 4.50233 -3.66287e-17)
(3.46709 4.83587 -2.19785e-18)
(2.35699 5.45488 -1.17542e-18)
(9.98985 0.0608621 -1.46653e-19)
(9.97623 0.120732 0)
(9.9479 0.180176 0)
(9.90432 0.240348 7.6076e-20)
(9.84751 0.302532 7.7332e-20)
(9.77836 0.367814 -3.9966e-22)
(9.69686 0.437112 1.57152e-19)
(9.60271 0.511353 -3.23979e-19)
(9.49547 0.591512 -3.30154e-19)
(9.37482 0.678668 6.64535e-19)
(9.24051 0.773994 6.77509e-19)
(9.09205 0.878726 1.38864e-18)
(8.929 0.994153 -6.99285e-19)
(8.75118 1.12165 -7.15548e-19)
(8.5582 1.26278 -2.94433e-18)
(8.34968 1.41924 3.02384e-18)
(8.12546 1.59275 -3.05762e-18)
(7.88538 1.78503 -1.58153e-18)
(7.62898 1.99798 -6.49516e-18)
(7.35602 2.23355 1.82125e-17)
(7.06623 2.49361 -1.17866e-17)
(6.7587 2.77999 -1.56321e-17)
(6.43207 3.09451 -8.4225e-20)
(6.0838 3.43862 1.44771e-17)
(5.71019 3.8135 -2.9705e-17)
(5.30626 4.21995 -2.7645e-20)
(4.86796 4.65415 6.35768e-17)
(4.35331 5.12883 -2.95051e-17)
(3.97274 5.4948 2.04056e-18)
(2.78739 6.22479 1.09451e-18)
(9.98991 0.0667453 1.64879e-19)
(9.97656 0.132715 -3.14144e-19)
(9.94901 0.198658 7.48426e-20)
(9.90686 0.265643 2.26739e-19)
(9.85213 0.334892 3.06143e-19)
(9.78567 0.407538 -3.10904e-19)
(9.70746 0.484583 -3.15291e-19)
(9.61721 0.567045 2.46383e-21)
(9.51457 0.655982 -6.47468e-19)
(9.39931 0.752539 -6.61482e-19)
(9.2712 0.857983 2.0119e-18)
(9.12986 0.973644 -2.04152e-18)
(8.97504 1.10088 0)
(8.80656 1.24117 -1.42332e-18)
(8.62398 1.39623 4.32258e-18)
(8.42713 1.56794 -5.9099e-18)
(8.21605 1.75814 7.48684e-18)
(7.99043 1.96881 0)
(7.75003 2.20213 -1.56822e-18)
(7.49491 2.46045 1.60005e-18)
(7.22489 2.74614 0)
(6.93917 3.06163 -1.16007e-17)
(6.637 3.40966 1.00857e-17)
(6.31701 3.79298 2.3999e-17)
(5.97625 4.21362 -2.77289e-17)
(5.61022 4.67309 -3.47734e-18)
(5.22174 5.16511 -7.09588e-18)
(4.74269 5.71349 -3.02458e-17)
(4.48273 6.10241 2.93848e-17)
(3.22661 6.9141 0)
(9.99001 0.0725174 0)
(9.97713 0.144392 2.95335e-19)
(9.95058 0.216518 7.45669e-20)
(9.91008 0.289969 -6.77997e-19)
(9.85763 0.365937 -4.57148e-19)
(9.79412 0.445586 -1.53215e-19)
(9.71949 0.529987 -6.25599e-19)
(9.63347 0.620231 3.18275e-19)
(9.53583 0.717438 2.73696e-21)
(9.42641 0.822819 3.46397e-21)
(9.30504 0.937725 -1.32461e-18)
(9.17145 1.06357 1.34602e-18)
(9.02552 1.20178 4.10994e-18)
(8.867 1.35395 -1.36782e-18)
(8.6955 1.52192 -2.81849e-18)
(8.5112 1.7077 0)
(8.3142 1.91335 -7.3269e-18)
(8.10408 2.14103 5.92537e-18)
(7.88092 2.39325 0)
(7.64496 2.67271 3.051e-18)
(7.39607 2.98228 -1.24752e-17)
(7.13408 3.32514 1.2576e-17)
(6.85835 3.70469 4.63666e-20)
(6.56822 4.12466 -2.24823e-17)
(6.26217 4.58815 2.90975e-17)
(5.93527 5.09744 3.28172e-18)
(5.59759 5.64228 3.29357e-18)
(5.14964 6.26159 0)
(4.99718 6.67688 1.63104e-18)
(3.6743 7.56274 0)
(9.99013 0.0781164 2.91043e-19)
(9.97788 0.155665 0)
(9.95253 0.233665 0)
(9.91383 0.31323 3.00373e-19)
(9.86387 0.395552 -1.51094e-19)
(9.80352 0.481817 4.60478e-19)
(9.73274 0.573155 -6.20153e-19)
(9.6513 0.67071 6.29878e-19)
(9.55905 0.775646 1.27679e-18)
(9.45587 0.889236 -6.47114e-19)
(9.34168 1.01291 2.61875e-18)
(9.21634 1.14813 -4.64497e-18)
(9.07977 1.29645 -1.3502e-18)
(8.93178 1.45953 4.11026e-18)
(8.77212 1.6393 -5.54194e-18)
(8.60117 1.8379 -2.83692e-18)
(8.41911 2.05758 7.10882e-18)
(8.22561 2.30075 0)
(8.02103 2.57019 -5.85585e-18)
(7.80568 2.86895 2.92026e-18)
(7.5797 3.20044 2.95929e-18)
(7.34327 3.56848 0)
(7.09614 3.97721 3.03506e-18)
(6.83824 4.43128 2.98778e-18)
(6.56938 4.93486 2.09664e-17)
(6.28378 5.49181 -4.48768e-17)
(5.99832 6.0876 2.09644e-17)
(5.5798 6.77985 0)
(5.52245 7.2374 -1.5291e-18)
(4.13467 8.21004 3.93953e-19)
(9.99028 0.0834965 -2.72735e-19)
(9.97877 0.166457 -5.49689e-20)
(9.95477 0.250016 1.10952e-19)
(9.91806 0.33534 2.23632e-19)
(9.87076 0.42363 3.02126e-19)
(9.81379 0.516102 3.04498e-19)
(9.74709 0.613925 6.17641e-19)
(9.67053 0.718287 0)
(9.584 0.830392 0)
(9.48738 0.951556 -1.27743e-18)
(9.38073 1.08326 -6.48012e-19)
(9.26402 1.22706 2.61812e-18)
(9.13729 1.38455 -2.65072e-18)
(9.00042 1.5575 2.67555e-18)
(8.85322 1.74787 -1.35253e-18)
(8.69634 1.95792 0)
(8.53005 2.19009 -5.5632e-18)
(8.35417 2.44703 5.58589e-18)
(8.1693 2.73175 -2.80721e-18)
(7.97594 3.04767 -1.13749e-17)
(7.77464 3.39875 8.51324e-18)
(7.56565 3.78928 0)
(7.3496 4.2243 2.55369e-17)
(7.12704 4.70952 -2.54596e-17)
(6.89854 5.2502 2.7588e-18)
(6.65731 5.85299 -5.49132e-18)
(6.42742 6.50125 2.67743e-17)
(6.0422 7.27317 -2.01214e-17)
(6.07643 7.799 0)
(4.62324 8.90541 -7.24343e-19)
(9.99046 0.0886197 1.8102e-20)
(9.97977 0.176707 -9.1295e-20)
(9.95726 0.265497 -4.81816e-23)
(9.92268 0.356213 -2.23382e-19)
(9.87821 0.450075 0)
(9.82479 0.548324 -6.06101e-19)
(9.7624 0.652158 0)
(9.69096 0.762803 -6.17518e-19)
(9.6104 0.881506 0)
(9.52062 1.00959 6.33295e-19)
(9.42184 1.14857 6.3716e-19)
(9.31414 1.30007 -2.30916e-22)
(9.19765 1.46577 -1.29382e-18)
(9.07234 1.64747 3.95517e-18)
(8.93815 1.84717 -1.31874e-18)
(8.79599 2.06722 2.68909e-18)
(8.6461 2.31021 -1.35116e-18)
(8.48857 2.579 0)
(8.32439 2.87682 2.74334e-18)
(8.15424 3.2074 -1.09365e-17)
(7.97914 3.57515 8.19134e-18)
(7.79984 3.98498 0)
(7.61765 4.44263 -1.34108e-17)
(7.43375 4.95501 1.05861e-17)
(7.24966 5.52903 -2.61288e-18)
(7.05797 6.17517 2.54659e-18)
(6.8906 6.87916 -2.48048e-18)
(6.55277 7.73909 -4.98608e-20)
(6.69223 8.36885 0)
(5.16782 9.68934 4.13864e-17)
(9.99065 0.0934557 0)
(9.98088 0.186363 7.27709e-20)
(9.95994 0.280044 -7.33359e-20)
(9.92762 0.375778 0)
(9.88611 0.474805 0)
(9.83639 0.57839 -3.00549e-19)
(9.77847 0.687751 3.03588e-19)
(9.71232 0.804139 1.22942e-18)
(9.63795 0.928838 -6.18434e-19)
(9.55537 1.06317 0)
(9.46473 1.20867 -1.89733e-18)
(9.36628 1.36699 1.05977e-21)
(9.26037 1.53987 1.28831e-18)
(9.14692 1.72916 -1.29893e-18)
(9.02618 1.93686 0)
(8.89921 2.16539 -2.62765e-18)
(8.76614 2.41743 1.30604e-18)
(8.62761 2.69598 0)
(8.48494 3.00446 2.6241e-18)
(8.33906 3.34679 2.61349e-18)
(8.19146 3.72774 -5.21352e-18)
(8.04382 4.15276 7.77051e-18)
(7.89798 4.62824 0)
(7.75615 5.16225 0)
(7.62163 5.76383 1.65819e-17)
(7.48774 6.44761 -1.8504e-17)
(7.39465 7.20747 0)
(7.13566 8.15748 -1.06472e-18)
(7.41336 8.94678 0)
(5.81949 10.6255 0)
(9.99085 0.0979821 3.59753e-20)
(9.98205 0.195384 1.80816e-19)
(9.96279 0.293606 3.64736e-19)
(9.93284 0.393976 1.47321e-19)
(9.89438 0.497747 -1.48313e-19)
(9.84847 0.606204 2.99796e-19)
(9.79519 0.720582 0)
(9.73448 0.842145 0)
(9.66651 0.972198 -6.14723e-19)
(9.59132 1.11208 -6.1927e-19)
(9.509 1.26331 6.22543e-19)
(9.42005 1.42755 7.28654e-21)
(9.3249 1.60657 1.2673e-18)
(9.2235 1.80225 -1.27016e-18)
(9.11655 2.01661 1.27346e-18)
(9.00497 2.25203 -2.56921e-18)
(8.88905 2.51126 6.43104e-18)
(8.77004 2.79738 -5.12764e-18)
(8.64941 3.11385 -5.14331e-18)
(8.5285 3.46472 -2.54962e-18)
(8.40939 3.85492 3.99248e-21)
(8.2946 4.29017 4.11754e-20)
(8.18696 4.77736 0)
(8.09029 5.3253 0)
(8.01048 5.94468 1.97795e-17)
(7.94445 6.65281 -4.6799e-19)
(7.94113 7.45489 -2.58186e-18)
(7.81576 8.46238 -2.80434e-17)
(8.26158 9.46356 1.42881e-17)
(6.7867 11.9045 -2.58528e-17)
(0.213945 -0.189884 2.77149e-19)
(0.185228 0.0553262 0)
(0.0122005 0.118183 0)
(-0.270373 0.147511 1.04186e-19)
(-0.648855 0.174057 0)
(-1.11119 0.195804 2.37504e-18)
(-1.63639 0.211466 -2.58175e-18)
(-2.20273 0.220973 0)
(-2.7919 0.224768 0)
(-3.3897 0.223448 2.35226e-19)
(-3.98593 0.217669 -2.08523e-19)
(-4.57288 0.207934 5.30057e-19)
(-5.14366 0.194602 -3.32658e-19)
(-5.69191 0.177933 0)
(-6.21122 0.158058 -1.11336e-19)
(-6.69399 0.135115 0)
(-7.13198 0.109305 0)
(-7.51657 0.0807489 0)
(-7.83808 0.0494122 0)
(-8.08526 0.0152405 0)
(-8.24482 -0.0220314 0)
(-8.30115 -0.06416 4.08498e-21)
(-8.2429 -0.11709 1.06864e-21)
(-8.0391 -0.178747 7.223e-22)
(-7.6708 -0.250347 -1.25358e-21)
(-7.11395 -0.334087 1.2642e-21)
(-6.31758 -0.434873 0)
(-5.18879 -0.56118 0)
(-3.65842 -0.706987 5.89477e-22)
(-1.95925 -0.799505 -7.01312e-22)
(-0.068739 -0.130349 -5.52211e-19)
(-0.191177 0.150496 -1.54213e-17)
(-0.48194 0.280538 2.68736e-17)
(-0.88959 0.380022 -1.19718e-17)
(-1.39328 0.46369 -1.03112e-17)
(-1.96906 0.532272 1.02458e-17)
(-2.59261 0.585772 4.37518e-18)
(-3.24292 0.624836 -4.16589e-18)
(-3.90377 0.650366 0)
(-4.56354 0.663493 2.05284e-19)
(-5.21383 0.665395 -1.2234e-18)
(-5.84827 0.656892 2.73584e-18)
(-6.46144 0.638538 -1.45526e-18)
(-7.04768 0.610669 0)
(-7.60111 0.573373 9.97297e-20)
(-8.11515 0.526714 4.56914e-19)
(-8.58218 0.470822 -3.50787e-19)
(-8.99375 0.40573 4.87151e-20)
(-9.34048 0.331378 -3.54837e-20)
(-9.61154 0.247696 0)
(-9.79518 0.154593 -8.6578e-21)
(-9.87958 0.0506722 -1.09971e-20)
(-9.85028 -0.0683336 -7.61621e-22)
(-9.69863 -0.200725 -2.3666e-22)
(-9.41496 -0.344817 0)
(-8.98803 -0.500659 0)
(-8.39414 -0.671695 -3.17117e-21)
(-7.5938 -0.865639 -1.4341e-22)
(-6.62023 -1.07255 2.51274e-22)
(-5.86326 -1.22316 2.77402e-22)
(-0.110146 0.105351 2.672e-19)
(-0.352715 0.411271 -4.49398e-19)
(-0.749111 0.603346 9.65981e-20)
(-1.24308 0.753955 1.09953e-17)
(-1.81781 0.876465 -5.45925e-19)
(-2.44857 0.973936 -9.05011e-18)
(-3.11189 1.04719 0)
(-3.78935 1.09744 7.23146e-18)
(-4.46758 1.12612 -6.93539e-18)
(-5.13823 1.13492 -3.8061e-19)
(-5.79529 1.1255 2.58387e-18)
(-6.43373 1.09901 -2.78759e-18)
(-7.0497 1.05631 2.59128e-19)
(-7.63877 0.997926 1.03679e-18)
(-8.19612 0.924182 -9.74541e-19)
(-8.71607 0.835305 -1.51944e-19)
(-9.19202 0.731546 6.04646e-20)
(-9.61622 0.613199 -1.1714e-19)
(-9.97999 0.480633 1.89388e-19)
(-10.2735 0.334365 5.33102e-21)
(-10.4861 0.17509 4.98437e-20)
(-10.6065 0.00340449 8.50842e-21)
(-10.6245 -0.179611 -9.0018e-21)
(-10.5363 -0.378486 9.67682e-22)
(-10.3342 -0.590693 -6.54962e-24)
(-10.0141 -0.81207 -5.18377e-22)
(-9.56423 -1.03988 1.58612e-21)
(-8.96228 -1.27545 2.60029e-21)
(-8.25179 -1.51713 -2.58527e-21)
(-7.75084 -1.7286 -4.10506e-21)
(-0.0564444 0.422499 0)
(-0.36843 0.76294 4.12723e-19)
(-0.845364 0.997719 0)
(-1.39973 1.18566 3.14043e-19)
(-2.01614 1.33616 0)
(-2.67141 1.45303 0)
(-3.34534 1.53833 7.39559e-18)
(-4.02353 1.59447 -7.09867e-18)
(-4.69627 1.62384 -7.81279e-19)
(-5.35808 1.62867 7.03221e-19)
(-6.00555 1.61091 -6.26033e-19)
(-6.63519 1.5719 0)
(-7.24418 1.5126 0)
(-7.82899 1.43349 -2.08592e-19)
(-8.38547 1.33485 -4.56571e-19)
(-8.90829 1.21671 6.14099e-19)
(-9.39123 1.07901 -1.06028e-19)
(-9.82709 0.921723 5.65242e-20)
(-10.2075 0.744813 -1.93854e-19)
(-10.5231 0.548457 -1.30595e-19)
(-10.7641 0.333078 5.66723e-20)
(-10.9204 0.0992685 4.1115e-22)
(-10.9819 -0.152181 3.29902e-21)
(-10.9467 -0.418491 -5.65202e-21)
(-10.8123 -0.697061 0)
(-10.5771 -0.981014 -1.13357e-22)
(-10.2355 -1.26268 1.63178e-21)
(-9.77577 -1.53836 0)
(-9.24254 -1.81108 0)
(-8.88456 -2.05368 1.27677e-21)
(0.0666068 0.809546 2.99001e-17)
(-0.272444 1.18634 -2.40292e-17)
(-0.810682 1.45102 -2.08471e-17)
(-1.40414 1.66166 1.82987e-17)
(-2.04144 1.82733 0)
(-2.70114 1.95264 9.64768e-19)
(-3.36763 2.04122 -8.85993e-19)
(-4.03104 2.09642 0)
(-4.68555 2.12117 -5.0148e-18)
(-5.32796 2.11779 1.00808e-17)
(-5.95681 2.0882 1.76706e-19)
(-6.57007 2.03353 -4.44387e-18)
(-7.16552 1.95442 -4.48673e-19)
(-7.74032 1.85114 0)
(-8.29062 1.72369 1.17909e-18)
(-8.81146 1.57195 -8.98969e-19)
(-9.29693 1.39579 1.04409e-19)
(-9.74028 1.19524 0)
(-10.1335 0.970633 8.64514e-21)
(-10.4679 0.72272 -3.16374e-20)
(-10.7343 0.453071 3.39413e-20)
(-10.9236 0.164135 -9.01311e-21)
(-11.0268 -0.141139 -3.57104e-21)
(-11.0401 -0.460727 1.40514e-20)
(-10.9657 -0.791496 -1.07964e-20)
(-10.8029 -1.12361 0)
(-10.5502 -1.44533 6.93165e-22)
(-10.2038 -1.74935 -6.77056e-22)
(-9.80645 -2.03853 0)
(-9.54726 -2.2841 2.63795e-21)
(0.25107 1.26039 -2.79158e-17)
(-0.0839288 1.66749 4.39486e-17)
(-0.670017 1.95157 -3.8929e-17)
(-1.28462 2.17167 1.76972e-17)
(-1.9257 2.34059 -1.67004e-17)
(-2.57419 2.46476 1.41062e-17)
(-3.21967 2.54959 8.59077e-19)
(-3.85674 2.59908 -1.21571e-17)
(-4.48312 2.61619 1.18169e-17)
(-5.09795 2.60319 0)
(-5.70098 2.56166 0)
(-6.29141 2.49242 4.30633e-18)
(-6.86755 2.39573 -3.26155e-18)
(-7.42723 2.27157 9.9981e-19)
(-7.96714 2.11964 -5.16437e-19)
(-8.48249 1.93953 -4.67992e-19)
(-8.96782 1.73091 -8.37417e-19)
(-9.41689 1.49361 -3.29349e-19)
(-9.82199 1.22777 2.53317e-19)
(-10.1746 0.934087 2.40067e-20)
(-10.4658 0.614268 6.33225e-21)
(-10.6865 0.271631 -1.86027e-20)
(-10.8288 -0.0890574 0)
(-10.8854 -0.46206 0)
(-10.8645 -0.842785 1.08188e-20)
(-10.765 -1.21966 0)
(-10.5879 -1.57772 -5.43714e-21)
(-10.3358 -1.90662 1.03328e-20)
(-10.0479 -2.20623 -7.2188e-22)
(-9.86344 -2.4457 -6.78512e-22)
(0.492145 1.76965 -2.5378e-17)
(0.185136 2.19334 2.10309e-17)
(-0.44098 2.48564 0)
(-1.06059 2.70242 -1.02312e-18)
(-1.6901 2.86408 1.5901e-17)
(-2.31388 2.97954 -6.23906e-19)
(-2.92694 3.05539 -1.42833e-17)
(-3.52811 3.09578 -1.24795e-17)
(-4.11819 3.10337 1.67737e-17)
(-4.69839 3.07998 -5.19161e-18)
(-5.26946 3.02656 0)
(-5.83153 2.9435 3.15579e-18)
(-6.38353 2.83054 -3.95905e-18)
(-6.92355 2.68718 3.58733e-19)
(-7.44908 2.51275 5.65765e-19)
(-7.95579 2.30636 0)
(-8.43834 2.06743 -2.73506e-19)
(-8.89096 1.79563 4.84856e-19)
(-9.3063 1.49104 0)
(-9.67601 1.15449 0)
(-9.99097 0.788038 -3.46564e-20)
(-10.2421 0.39573 1.13165e-19)
(-10.4216 -0.0159143 -5.98679e-20)
(-10.5197 -0.43746 -4.47328e-20)
(-10.5478 -0.86266 4.29854e-20)
(-10.5055 -1.27937 -1.86061e-20)
(-10.395 -1.66951 0)
(-10.2239 -2.01944 -5.03801e-21)
(-10.0274 -2.32479 1.04401e-21)
(-9.90314 -2.55495 1.79756e-22)
(0.779439 2.33301 0)
(0.519365 2.75185 0)
(-0.139001 3.03853 0)
(-0.747036 3.23944 9.8947e-19)
(-1.35035 3.38523 1.43623e-17)
(-1.93681 3.48646 -6.4829e-19)
(-2.50711 3.54985 -1.23414e-17)
(-3.06398 3.5792 7.50897e-19)
(-3.61072 3.57649 0)
(-4.15006 3.54275 0)
(-4.68367 3.47824 5.26338e-19)
(-5.21227 3.38278 0)
(-5.73551 3.25563 4.10371e-19)
(-6.25178 3.09563 1.52448e-18)
(-6.75891 2.90174 -1.45318e-18)
(-7.25343 2.67266 -1.89397e-19)
(-7.73032 2.40733 0)
(-8.18411 2.10522 -2.21803e-19)
(-8.60779 1.76612 9.40975e-20)
(-8.99308 1.39077 6.06217e-21)
(-9.33058 0.981319 0)
(-9.61059 0.542439 4.51653e-20)
(-9.82466 0.0827939 0)
(-9.96745 -0.385232 1.04909e-19)
(-10.0413 -0.851886 -4.40466e-20)
(-10.0522 -1.30541 -5.20097e-22)
(-10.0023 -1.72499 3.74712e-20)
(-9.90275 -2.09346 0)
(-9.78513 -2.40187 6.85772e-21)
(-9.71219 -2.62179 0)
(1.10144 2.93562 4.38254e-17)
(0.90367 3.32774 -3.47285e-17)
(0.222283 3.59415 3.25711e-17)
(-0.356268 3.76788 -1.38806e-17)
(-0.918951 3.8915 1.3712e-17)
(-1.45606 3.97503 0)
(-1.97411 4.0242 0)
(-2.4791 4.04193 1.05592e-17)
(-2.97622 4.0292 -1.04068e-17)
(-3.4691 3.98602 0)
(-3.96024 3.91205 3.44075e-18)
(-4.45077 3.8063 -3.87906e-18)
(-4.94075 3.66754 0)
(-5.42914 3.49406 -3.26887e-19)
(-5.91392 3.2842 0)
(-6.39223 3.03628 1.94173e-19)
(-6.85979 2.74874 1.84941e-19)
(-7.31144 2.42057 -1.32209e-19)
(-7.7406 2.05121 0)
(-8.13928 1.64113 7.75898e-20)
(-8.49805 1.19251 -1.44604e-19)
(-8.80663 0.710657 -1.07126e-19)
(-9.0563 0.206152 -6.75592e-20)
(-9.24352 -0.305963 7.18886e-20)
(-9.36087 -0.811971 -2.90087e-21)
(-9.42297 -1.29989 -3.2474e-20)
(-9.43032 -1.747 -4.31354e-20)
(-9.39646 -2.13264 1.66782e-20)
(-9.34974 -2.44291 -6.96173e-21)
(-9.32314 -2.65227 0)
(1.44667 3.55743 0)
(1.32459 3.90257 1.26413e-19)
(0.630435 4.13486 -4.73292e-19)
(0.100918 4.27243 -1.84285e-18)
(-0.406834 4.37023 8.99073e-19)
(-0.883099 4.43462 -1.22861e-17)
(-1.34024 4.46941 2.60489e-17)
(-1.78652 4.47617 -1.13426e-17)
(-2.2284 4.45488 -6.77836e-19)
(-2.67009 4.40409 4.51242e-18)
(-3.11436 4.32289 -4.40011e-18)
(-3.56268 4.20965 0)
(-4.01529 4.06231 1.003e-18)
(-4.47147 3.87875 -2.55465e-19)
(-4.9296 3.65676 -1.04701e-18)
(-5.38727 3.39417 0)
(-5.84096 3.08892 0)
(-6.28606 2.7394 -2.92388e-20)
(-6.71669 2.3446 -1.03517e-19)
(-7.12555 1.90465 1.59981e-19)
(-7.50356 1.42169 9.25827e-20)
(-7.84001 0.901366 6.28918e-20)
(-8.12549 0.35518 0)
(-8.35703 -0.199925 0)
(-8.51565 -0.743791 0)
(-8.62803 -1.26365 0)
(-8.69198 -1.73669 5.78639e-20)
(-8.72156 -2.13913 2.41452e-20)
(-8.74205 -2.45138 0)
(-8.76027 -2.64991 0)
(1.8016 4.17638 1.75743e-23)
(1.76765 4.45676 -3.05531e-17)
(1.07278 4.64186 1.48721e-18)
(0.614451 4.7377 3.09108e-17)
(0.175521 4.80859 1.39765e-17)
(-0.229097 4.85422 -1.57766e-17)
(-0.617543 4.87623 -8.19473e-19)
(-0.999316 4.87379 0)
(-1.38118 4.84626 0)
(-1.76769 4.7909 -5.84465e-19)
(-2.1615 4.70546 -3.90005e-18)
(-2.56398 4.58793 1.72933e-18)
(-2.97542 4.43551 9.96851e-19)
(-3.39523 4.24553 2.30352e-18)
(-3.82217 4.01542 -9.91445e-19)
(-4.25437 3.74253 0)
(-4.68905 3.4243 8.93448e-20)
(-5.12237 3.05853 -8.79468e-20)
(-5.54933 2.64365 0)
(-5.9636 2.17948 -1.92961e-19)
(-6.35698 1.66801 0)
(-6.71866 1.11452 0)
(-7.03861 0.529904 0)
(-7.31384 -0.0680673 -1.0578e-19)
(-7.5098 -0.648341 8.76737e-20)
(-7.67167 -1.19633 -1.242e-19)
(-7.79388 -1.69342 3.65678e-21)
(-7.88836 -2.11301 -1.19355e-19)
(-7.97691 -2.42888 -3.03399e-20)
(-8.04235 -2.61649 -1.53072e-20)
(2.1533 4.77288 3.4764e-17)
(2.21809 4.96949 0)
(1.53513 5.0949 -9.20181e-19)
(1.17473 5.14858 1.47807e-17)
(0.816766 5.19288 2.23209e-19)
(0.493719 5.22187 -1.46006e-17)
(0.180764 5.23426 0)
(-0.131676 5.22632 5.13869e-18)
(-0.449933 5.19605 1.84008e-19)
(-0.778024 5.13996 -9.1137e-18)
(-1.11831 5.05426 4.47654e-18)
(-1.47184 4.9362 4.5579e-19)
(-1.83865 4.78243 -2.44705e-20)
(-2.2181 4.58983 -9.71006e-19)
(-2.60926 4.35572 9.45658e-19)
(-3.01095 4.077 1.13227e-19)
(-3.42117 3.7506 -4.05037e-20)
(-3.83698 3.37378 3.98373e-20)
(-4.25433 2.94435 0)
(-4.66789 2.46171 1.16314e-19)
(-5.0703 1.92772 1.91445e-19)
(-5.45053 1.34659 2.00792e-21)
(-5.79659 0.727584 2.32327e-19)
(-6.10019 0.0904697 -2.64074e-19)
(-6.34583 -0.52493 1.06298e-19)
(-6.55453 -1.09671 0)
(-6.73771 -1.61494 -3.4023e-20)
(-6.90155 -2.05201 2.59684e-20)
(-7.0638 -2.37478 -3.96919e-21)
(-7.18403 -2.55213 1.54529e-20)
(2.48435 5.33782 -3.24234e-17)
(2.66345 5.41227 0)
(1.99717 5.48336 9.93758e-19)
(1.77279 5.48478 0)
(1.50159 5.50817 -1.00901e-18)
(1.27093 5.52533 9.64317e-19)
(1.03934 5.53374 -6.83738e-18)
(0.800339 5.52631 7.51877e-18)
(0.548533 5.4985 -7.34863e-19)
(0.281204 5.4461 0)
(-0.00304597 5.36425 -2.54693e-18)
(-0.304933 5.2493 -1.3747e-19)
(-0.6241 5.09755 8.73184e-19)
(-0.959385 4.90624 0)
(-1.31005 4.67248 0)
(-1.67586 4.39253 -2.26371e-20)
(-2.05558 4.0629 0)
(-2.44736 3.68043 5.07753e-20)
(-2.84833 3.24205 -1.17216e-19)
(-3.25401 2.74655 0)
(-3.65813 2.19624 -2.03636e-19)
(-4.04926 1.59341 -1.09281e-19)
(-4.41205 0.945455 -2.90012e-19)
(-4.73487 0.274633 -1.33848e-20)
(-5.03001 -0.373724 2.01108e-19)
(-5.27916 -0.965018 1.13791e-19)
(-5.52328 -1.49876 -1.84187e-19)
(-5.76116 -1.95154 9.90998e-20)
(-6.00644 -2.28549 3.42514e-20)
(-6.19665 -2.45495 4.40517e-21)
(2.74647 5.88723 -3.18847e-17)
(3.06556 5.76215 1.61707e-17)
(2.44077 5.77163 -1.63925e-17)
(2.37243 5.72294 7.82412e-18)
(2.21736 5.73384 -1.52489e-17)
(2.0845 5.74927 1.43422e-17)
(1.93927 5.76232 -6.87803e-18)
(1.77716 5.76351 7.55955e-19)
(1.59512 5.74566 0)
(1.392 5.70356 -6.04621e-19)
(1.16747 5.63187 1.99615e-18)
(0.921526 5.52648 -1.5005e-18)
(0.654181 5.38279 3.76563e-19)
(0.363191 5.19477 4.63749e-19)
(0.0558008 4.96318 -4.50023e-19)
(-0.269323 4.68446 -8.39788e-20)
(-0.611988 4.35466 -1.5994e-19)
(-0.97168 3.97001 1.0101e-19)
(-1.34712 3.5271 2.50865e-20)
(-1.73447 3.02444 0)
(-2.13062 2.4626 2.69404e-19)
(-2.52621 1.84026 4.76404e-19)
(-2.90152 1.16778 1.75619e-19)
(-3.24035 0.473133 -3.6201e-21)
(-3.57691 -0.203015 9.08855e-20)
(-3.85457 -0.807747 -6.08719e-20)
(-4.15344 -1.34483 1.02801e-19)
(-4.46545 -1.8059 6.16075e-20)
(-4.80203 -2.15406 1.45126e-20)
(-5.08826 -2.32056 -2.11554e-20)
(2.8472 6.5083 3.2633e-17)
(3.23876 6.07082 -8.34982e-18)
(2.89436 5.94014 7.68024e-18)
(2.9584 5.85499 0)
(2.94706 5.8563 0)
(2.91527 5.8806 -2.34883e-18)
(2.85745 5.90879 3.10551e-18)
(2.77255 5.92763 -1.01317e-20)
(2.66042 5.9274 -6.09609e-19)
(2.52185 5.90149 1.16035e-20)
(2.35791 5.84448 8.76545e-19)
(2.16959 5.75222 -8.54937e-19)
(1.95818 5.62074 0)
(1.72275 5.44479 2.30856e-19)
(1.46613 5.22209 0)
(1.18933 4.9507 1.5457e-19)
(0.89291 4.62783 -4.49328e-20)
(0.577396 4.25049 1.38853e-19)
(0.240782 3.81205 2.03244e-19)
(-0.117327 3.30361 6.76611e-20)
(-0.490252 2.73524 -4.0226e-19)
(-0.872634 2.10397 -5.11956e-19)
(-1.24221 1.40977 -3.91657e-19)
(-1.6073 0.666032 2.06124e-19)
(-2.00646 -0.0319922 9.67447e-20)
(-2.29678 -0.635766 -8.59195e-20)
(-2.64003 -1.15806 -1.26921e-19)
(-3.01834 -1.61323 -8.47509e-20)
(-3.44177 -1.97245 5.24338e-20)
(-3.8626 -2.14262 2.16488e-20)
(9.99108 0.102255 3.45455e-20)
(9.9833 0.203891 -3.13685e-19)
(9.96581 0.306379 -2.10747e-19)
(9.93837 0.41109 -7.06162e-20)
(9.90315 0.519283 0)
(9.86126 0.632248 0)
(9.81286 0.751241 5.77246e-19)
(9.7579 0.877523 0)
(9.69664 1.01241 -5.88138e-19)
(9.62916 1.15728 5.91409e-19)
(9.5556 1.3136 5.94752e-19)
(9.47666 1.48298 1.20796e-18)
(9.39272 1.66722 1.20461e-18)
(9.304 1.8682 -1.20873e-18)
(9.21153 2.08794 -1.21924e-18)
(9.11596 2.32876 -1.21021e-18)
(9.01808 2.59336 1.22099e-18)
(8.91958 2.88482 -4.84214e-18)
(8.82201 3.20654 4.80532e-18)
(8.72731 3.56253 -9.50642e-18)
(8.63817 3.95765 2.37814e-18)
(8.5579 4.39754 -2.21197e-18)
(8.49074 4.88898 9.89852e-20)
(8.44239 5.44067 6.46279e-18)
(8.42189 6.06326 7.95876e-18)
(8.43279 6.77256 -6.72533e-18)
(8.53294 7.57981 1.77126e-18)
(8.61263 8.5558 -8.02205e-19)
(9.4775 9.57484 -2.41156e-18)
(10.2226 11.642 3.29601e-18)
(9.99133 0.106286 2.68585e-19)
(9.98462 0.211905 2.70466e-19)
(9.969 0.318374 0)
(9.94422 0.427104 -2.74244e-19)
(9.91246 0.539364 0)
(9.87478 0.656438 -2.7898e-19)
(9.83142 0.779582 2.78112e-19)
(9.78244 0.91006 0)
(9.7281 1.0492 5.67762e-19)
(9.66855 1.19837 5.712e-19)
(9.60406 1.35901 -5.7676e-19)
(9.5354 1.53265 2.89392e-18)
(9.46291 1.72106 -8.37788e-21)
(9.38719 1.9261 0)
(9.30943 2.14979 1.16223e-18)
(9.23022 2.39431 1.12318e-20)
(9.15075 2.6622 2.326e-18)
(9.07299 2.95645 -2.29997e-18)
(8.99878 3.2803 -4.55942e-18)
(8.9305 3.6375 2.27954e-18)
(8.87148 4.03252 -4.40866e-18)
(8.82579 4.47045 1.07434e-17)
(8.79877 4.95717 -4.18154e-18)
(8.79768 5.49997 2.00891e-18)
(8.83373 6.10696 0)
(8.91534 6.78716 -8.85152e-19)
(9.09622 7.54451 0)
(9.29692 8.38414 0)
(9.88127 9.18034 1.30688e-18)
(10.5291 9.88046 -5.6968e-18)
(9.9916 0.110011 -2.45862e-19)
(9.98602 0.219302 1.55358e-20)
(9.97236 0.329414 -2.97982e-19)
(9.95037 0.44179 1.00925e-21)
(9.92222 0.557735 0)
(9.88892 0.678506 0)
(9.85081 0.805326 -1.09006e-18)
(9.80803 0.939466 0)
(9.76082 1.08226 -1.10337e-18)
(9.70935 1.23506 -1.66444e-18)
(9.65417 1.39922 5.56718e-19)
(9.59602 1.57624 -1.12257e-18)
(9.53525 1.76778 -1.12598e-18)
(9.4727 1.97562 0)
(9.40966 2.20174 -2.24591e-18)
(9.34702 2.44822 3.36616e-18)
(9.28602 2.71731 -2.22935e-18)
(9.22883 3.01174 4.43267e-18)
(9.17776 3.33453 -2.1871e-18)
(9.13548 3.68892 4.29639e-18)
(9.10572 4.07871 -2.08346e-18)
(9.09307 4.50801 -2.05741e-18)
(9.10332 4.98115 0)
(9.14412 5.50294 -9.26696e-19)
(9.22624 6.07727 -4.39656e-19)
(9.3568 6.70432 -8.26759e-19)
(9.56868 7.3761 0)
(9.80394 8.0565 6.97866e-19)
(10.1487 8.67596 -1.30136e-18)
(10.6568 9.25379 -1.25021e-18)
(9.99189 0.11339 -2.54192e-19)
(9.98748 0.225994 -9.55249e-22)
(9.9759 0.339369 2.58493e-19)
(9.9568 0.454986 2.60193e-19)
(9.9323 0.574173 -3.26162e-19)
(9.90358 0.698162 -4.5906e-19)
(9.87092 0.828122 6.62712e-19)
(9.83448 0.965334 -1.32938e-19)
(9.79454 1.11114 2.96757e-21)