/*--------------------------------*- C++ -*----------------------------------*\
| =========                 |                                                 |
| \\      /  F ield         | OpenFOAM: The Open Source CFD Toolbox           |
|  \\    /   O peration     | Version:  4.1                                   |
|   \\  /    A nd           | Web:      www.OpenFOAM.org                      |
|    \\/     M anipulation  |                                                 |
\*---------------------------------------------------------------------------*/
FoamFile
{
    version     2.0;
    format      ascii;
    class       pointVectorField;
    location    "5";
    object      pointDisplacement;
}
// * * * * * * * * * * * * * * * * * * * * * * * * * * * * * * * * * * * * * //

dimensions      [0 1 0 0 0 0 0];

internalField   nonuniform List<vector> 
5828
(
(0 0 0)
(0.016105 0 0)
(0.0304841 0 0)
(0.0427341 0 0)
(0.0530363 0 0)
(0.0615694 0 0)
(0.0684945 0 0)
(0.0739544 0 0)
(0.0780755 0 0)
(0.0809698 0 0)
(0.0827373 0 0)
(0.0834672 0 0)
(0.0832389 0 0)
(0.0821241 0 0)
(0.080189 0 0)
(0.0774961 0 0)
(0.0741066 0 0)
(0.0700796 0 0)
(0.0654743 0 0)
(0.0603538 0 0)
(0.0547875 0 0)
(0.0488528 0 0)
(0.042638 0 0)
(0.036246 0 0)
(0.0297997 0 0)
(0.0234533 0 0)
(0.0174029 0 0)
(0.0119019 0 0)
(0.00729381 0 0)
(0.00412693 0 0)
(-1.2039e-15 0 0)
(0 0 0)
(0.0161161 5.26075e-05 0)
(0.0305078 0.000101617 0)
(0.0427704 0.00014713 0)
(0.0530854 0.000190647 0)
(0.0616323 0.000233386 0)
(0.0685727 0.000276382 0)
(0.0740496 0.000320492 0)
(0.0781896 0.000366512 0)
(0.0811051 0.000414992 0)
(0.0828965 0.000466446 0)
(0.0836535 0.000521531 0)
(0.0834558 0.000580813 0)
(0.0823754 0.000644812 0)
(0.0804788 0.000714038 0)
(0.0778288 0.000789048 0)
(0.0744876 0.000870604 0)
(0.0705151 0.000958519 0)
(0.0659701 0.00105257 0)
(0.0609162 0.00115328 0)
(0.0554235 0.00126071 0)
(0.0495699 0.00137477 0)
(0.0434444 0.00149519 0)
(0.0371502 0.00162157 0)
(0.0308092 0.00175349 0)
(0.0245762 0.00189213 0)
(0.0186504 0.00203899 0)
(0.0132908 0.00219508 0)
(0.00884969 0.00236012 0)
(0.00587765 0.00252609 0)
(0.00211248 0.00263434 0)
(0 0 0)
(0.0161545 0.000105032 0)
(0.0305838 0.00020288 0)
(0.0428838 0.000293755 0)
(0.053237 0.000380632 0)
(0.061825 0.000465935 0)
(0.0688106 0.00055174 0)
(0.0743379 0.000639733 0)
(0.0785344 0.000731574 0)
(0.0815129 0.000828302 0)
(0.0833753 0.000930879 0)
(0.0842128 0.0010407 0)
(0.0841059 0.00115887 0)
(0.0831279 0.00128642 0)
(0.0813461 0.00142434 0)
(0.0788235 0.00157362 0)
(0.0756243 0.00173529 0)
(0.0718119 0.00190951 0)
(0.0674459 0.00209654 0)
(0.0625901 0.00229705 0)
(0.0573163 0.00251111 0)
(0.0517043 0.00273856 0)
(0.0458456 0.00297903 0)
(0.039847 0.00323181 0)
(0.0338283 0.00349602 0)
(0.0279401 0.00377208 0)
(0.0223837 0.00406086 0)
(0.0174359 0.00436572 0)
(0.0134752 0.0046878 0)
(0.0110538 0.00501025 0)
(0.00764892 0.00530226 0)
(0 0 0)
(0.0162189 0.000157088 0)
(0.0307113 0.000303426 0)
(0.0430738 0.000439358 0)
(0.0534904 0.000569278 0)
(0.0621464 0.000696783 0)
(0.0692073 0.000825015 0)
(0.0748182 0.000956399 0)
(0.0791075 0.00109317 0)
(0.0821891 0.00123708 0)
(0.0841683 0.00138986 0)
(0.0851385 0.00155344 0)
(0.0851816 0.00172941 0)
(0.0843725 0.00191927 0)
(0.0827804 0.00212443 0)
(0.0804701 0.00234614 0)
(0.0775062 0.00258516 0)
(0.0739562 0.0028428 0)
(0.069884 0.00312043 0)
(0.0653546 0.00341837 0)
(0.0604419 0.00373664 0)
(0.0552276 0.00407509 0)
(0.0498078 0.0044335 0)
(0.0442947 0.00481112 0)
(0.0388146 0.00520666 0)
(0.0335156 0.00561738 0)
(0.0285879 0.00604092 0)
(0.0243062 0.00647906 0)
(0.0210897 0.00693301 0)
(0.0195078 0.00737965 0)
(0.016817 0.00778746 0)
(0 0 0)
(0.0163091 0.000208586 0)
(0.0308894 0.000402869 0)
(0.0433389 0.000583179 0)
(0.0538426 0.000755377 0)
(0.0625925 0.000924368 0)
(0.0697576 0.00109431 0)
(0.0754828 0.00126816 0)
(0.0798987 0.00144838 0)
(0.0831233 0.00163787 0)
(0.0852648 0.00183937 0)
(0.0864184 0.00205502 0)
(0.0866683 0.00228685 0)
(0.0860921 0.00253682 0)
(0.084762 0.00280674 0)
(0.0827466 0.0030982 0)
(0.0801122 0.00341229 0)
(0.0769278 0.00375094 0)
(0.0732622 0.00411596 0)
(0.0691851 0.00450769 0)
(0.0647722 0.00492616 0)
(0.0601057 0.00537101 0)
(0.0552872 0.00584242 0)
(0.0504361 0.00633945 0)
(0.0456883 0.00685948 0)
(0.0412029 0.00739765 0)
(0.0371671 0.00794789 0)
(0.0338182 0.00850267 0)
(0.0315727 0.00905615 0)
(0.0310403 0.00958354 0)
(0.0291758 0.00998937 0)
(0 0 0)
(0.0164243 0.000259191 0)
(0.0311135 0.000500501 0)
(0.0436702 0.000724113 0)
(0.0542863 0.000937496 0)
(0.0631579 0.00114692 0)
(0.0704544 0.00135716 0)
(0.0763218 0.00157183 0)
(0.0808974 0.00179419 0)
(0.0843044 0.00202791 0)
(0.0866519 0.00227625 0)
(0.088037 0.00254176 0)
(0.0885477 0.00282692 0)
(0.0882652 0.00313411 0)
(0.0872657 0.00346558 0)
(0.085622 0.00382341 0)
(0.0834051 0.00420938 0)
(0.0806854 0.00462545 0)
(0.0775366 0.00507349 0)
(0.0740347 0.00555437 0)
(0.0702597 0.00606812 0)
(0.0662958 0.00661448 0)
(0.062243 0.00719307 0)
(0.0582229 0.00780152 0)
(0.054384 0.00843634 0)
(0.0509016 0.0090917 0)
(0.0479714 0.00975703 0)
(0.045807 0.0104164 0)
(0.0447508 0.0110512 0)
(0.0454236 0.0116355 0)
(0.0443524 0.0120154 0)
(0 0 0)
(0.0165637 0.000308459 0)
(0.0313803 0.000595406 0)
(0.0440634 0.000861144 0)
(0.0548164 0.00111462 0)
(0.0638344 0.00136317 0)
(0.0712866 0.00161196 0)
(0.0773252 0.00186557 0)
(0.0820944 0.00212851 0)
(0.0857201 0.00240464 0)
(0.0883132 0.00269748 0)
(0.0899745 0.00301011 0)
(0.0907962 0.00334545 0)
(0.0908638 0.0037063 0)
(0.0902581 0.00409533 0)
(0.0890574 0.00451508 0)
(0.0873375 0.00496778 0)
(0.0851716 0.00545545 0)
(0.08264 0.00598056 0)
(0.0798275 0.00654456 0)
(0.076819 0.00714753 0)
(0.0737078 0.00778968 0)
(0.070591 0.00846902 0)
(0.0675823 0.00918157 0)
(0.0648307 0.00992308 0)
(0.0625272 0.0106861 0)
(0.0608819 0.0114567 0)
(0.0601022 0.0122143 0)
(0.0604443 0.0129315 0)
(0.0624982 0.0135789 0)
(0.0622186 0.0139595 0)
(0 0 0)
(0.0167192 0.000356011 0)
(0.0316863 0.000687081 0)
(0.0445197 0.000993654 0)
(0.0554306 0.00128586 0)
(0.0646151 0.00157176 0)
(0.0722453 0.00185738 0)
(0.0784832 0.00214829 0)
(0.0834769 0.00244969 0)
(0.0873539 0.00276572 0)
(0.090229 0.00310024 0)
(0.0922074 0.00345676 0)
(0.0933857 0.00383858 0)
(0.0938545 0.00424885 0)
(0.0936998 0.00469062 0)
(0.0930067 0.00516693 0)
(0.0918582 0.00568039 0)
(0.090333 0.00623344 0)
(0.088515 0.00682886 0)
(0.0864951 0.00746811 0)
(0.0843642 0.0081515 0)
(0.0822283 0.00887978 0)
(0.0801962 0.00965071 0)
(0.0783824 0.0104599 0)
(0.0769172 0.011301 0)
(0.0759756 0.0121643 0)
(0.0757923 0.013035 0)
(0.076586 0.01389 0)
(0.0785463 0.0147002 0)
(0.0821908 0.0154267 0)
(0.0828301 0.0159281 0)
(0 0 0)
(0.0168894 0.000401686 0)
(0.0320287 0.000775284 0)
(0.0450342 0.00112113 0)
(0.0561202 0.0014503 0)
(0.0654891 0.00177155 0)
(0.0733212 0.00209211 0)
(0.0797844 0.00241839 0)
(0.0850292 0.0027558 0)
(0.0891868 0.00310891 0)
(0.0923764 0.00348191 0)
(0.094708 0.00387864 0)
(0.0962833 0.00430271 0)
(0.0971983 0.00475754 0)
(0.0975439 0.00524646 0)
(0.0974141 0.00577317 0)
(0.0969016 0.0063408 0)
(0.0960941 0.00695217 0)
(0.095077 0.00760958 0)
(0.093945 0.00831421 0)
(0.0928008 0.00906747 0)
(0.0917553 0.00987031 0)
(0.0909287 0.0107209 0)
(0.0904545 0.0116151 0)
(0.0904671 0.0125461 0)
(0.0911016 0.0135017 0)
(0.0925773 0.0144658 0)
(0.095149 0.0154143 0)
(0.0989808 0.0163167 0)
(0.104408 0.0171118 0)
(0.106174 0.0177681 0)
(0 0 0)
(0.017079 0.000445399 0)
(0.0324077 0.000859656 0)
(0.0456016 0.00124281 0)
(0.0568766 0.00160685 0)
(0.0664468 0.00196156 0)
(0.0745031 0.00231512 0)
(0.0812146 0.00267442 0)
(0.086734 0.00304513 0)
(0.0911976 0.00343221 0)
(0.0947299 0.00384013 0)
(0.0974457 0.00427299 0)
(0.0994523 0.00473462 0)
(0.100852 0.00522863 0)
(0.101744 0.00575887 0)
(0.102228 0.00632946 0)
(0.102403 0.0069434 0)
(0.102366 0.00760342 0)
(0.10221 0.00831176 0)
(0.102043 0.00907047 0)
(0.101983 0.00988188 0)
(0.102142 0.0107462 0)
(0.102642 0.0116616 0)
(0.103629 0.0126253 0)
(0.105264 0.0136304 0)
(0.107684 0.0146642 0)
(0.111043 0.0157077 0)
(0.115599 0.0167315 0)
(0.121514 0.0176957 0)
(0.12883 0.0185086 0)
(0.131988 0.019235 0)
(0 0 0)
(0.0172851 0.000486959 0)
(0.0328158 0.000939712 0)
(0.0462101 0.00135795 0)
(0.0576913 0.00175476 0)
(0.0674826 0.00214101 0)
(0.0757808 0.00252539 0)
(0.0827584 0.00291509 0)
(0.0885721 0.00331616 0)
(0.0933633 0.00373385 0)
(0.0972614 0.00417284 0)
(0.100387 0.00463742 0)
(0.102852 0.00513155 0)
(0.104766 0.00565905 0)
(0.106241 0.00622447 0)
(0.10738 0.00683149 0)
(0.108282 0.00748238 0)
(0.109056 0.0081801 0)
(0.109811 0.00892758 0)
(0.110667 0.00972764 0)
(0.11175 0.010582 0)
(0.113188 0.0114909 0)
(0.115121 0.0124533 0)
(0.11769 0.0134665 0)
(0.12107 0.0145242 0)
(0.125429 0.015613 0)
(0.13087 0.0167106 0)
(0.137592 0.0177787 0)
(0.145684 0.0187575 0)
(0.154873 0.0195279 0)
(0.159396 0.0201503 0)
(0 0 0)
(0.0175047 0.00052609 0)
(0.0332478 0.00101496 0)
(0.0468537 0.00146613 0)
(0.0585575 0.00189373 0)
(0.0685861 0.0023093 0)
(0.0771406 0.00272197 0)
(0.0843993 0.00313928 0)
(0.0905233 0.00356757 0)
(0.095659 0.00401231 0)
(0.099941 0.0044783 0)
(0.103495 0.00496992 0)
(0.10644 0.00549115 0)
(0.108892 0.00604621 0)
(0.110972 0.00663965 0)
(0.112785 0.00727421 0)
(0.114437 0.00795208 0)
(0.116052 0.00867668 0)
(0.117757 0.00945114 0)
(0.119675 0.0102775 0)
(0.121937 0.011157 0)
(0.124694 0.0120906 0)
(0.128114 0.0130773 0)
(0.132354 0.0141145 0)
(0.137576 0.0151964 0)
(0.143962 0.016308 0)
(0.151617 0.0174258 0)
(0.16063 0.0185041 0)
(0.170917 0.019463 0)
(0.181886 0.0201637 0)
(0.187717 0.0207212 0)
(0 0 0)
(0.0177353 0.000562623 0)
(0.0337023 0.0010852 0)
(0.0475322 0.00156712 0)
(0.0594694 0.00202328 0)
(0.0697463 0.00246574 0)
(0.0785686 0.00290406 0)
(0.08612 0.00334606 0)
(0.0925663 0.0037983 0)
(0.098059 0.00426637 0)
(0.102738 0.00475513 0)
(0.106733 0.00526893 0)
(0.110169 0.00581178 0)
(0.113176 0.00638821 0)
(0.115873 0.00700188 0)
(0.118368 0.00765473 0)
(0.120783 0.00834952 0)
(0.123251 0.00908961 0)
(0.125907 0.00987706 0)
(0.128886 0.010713 0)
(0.132343 0.0115984 0)
(0.136431 0.0125338 0)
(0.141338 0.013518 0)
(0.14726 0.0145473 0)
(0.154344 0.0156153 0)
(0.162775 0.0167077 0)
(0.172688 0.0178028 0)
(0.184027 0.0188553 0)
(0.196492 0.0197794 0)
(0.209149 0.02042 0)
(0.216564 0.0210096 0)
(0 0 0)
(0.0179749 0.000596526 0)
(0.0341756 0.00115036 0)
(0.0482388 0.00166065 0)
(0.0604181 0.00214295 0)
(0.0709515 0.00260977 0)
(0.0800501 0.003071 0)
(0.0879025 0.00353469 0)
(0.0946793 0.00400752 0)
(0.100537 0.00449512 0)
(0.105619 0.00500233 0)
(0.110062 0.00553334 0)
(0.113998 0.00609232 0)
(0.117562 0.00668354 0)
(0.120873 0.00730949 0)
(0.124048 0.00797179 0)
(0.127224 0.00867346 0)
(0.130538 0.00941659 0)
(0.134124 0.0102019 0)
(0.138136 0.0110302 0)
(0.142746 0.0119009 0)
(0.148126 0.0128127 0)
(0.154461 0.0137636 0)
(0.161961 0.0147465 0)
(0.170808 0.015753 0)
(0.181178 0.016771 0)
(0.193209 0.017781 0)
(0.20674 0.0187508 0)
(0.221294 0.0196162 0)
(0.235605 0.0202169 0)
(0.245613 0.0210321 0)
(0 0 0)
(0.0182217 0.000627704 0)
(0.0346633 0.00121023 0)
(0.0489667 0.00174642 0)
(0.0613941 0.00225237 0)
(0.07219 0.00274096 0)
(0.0815705 0.00322233 0)
(0.0897288 0.00370464 0)
(0.0968402 0.00419464 0)
(0.103066 0.00469796 0)
(0.108554 0.00521931 0)
(0.113445 0.0057627 0)
(0.117881 0.00633233 0)
(0.121994 0.00693152 0)
(0.125906 0.00756183 0)
(0.129747 0.00822501 0)
(0.133658 0.00892328 0)
(0.137781 0.00965707 0)
(0.142261 0.0104257 0)
(0.147251 0.0112288 0)
(0.15293 0.0120638 0)
(0.159492 0.0129259 0)
(0.167104 0.0138097 0)
(0.17598 0.0147042 0)
(0.186332 0.0155948 0)
(0.1983 0.0164653 0)
(0.211985 0.0172929 0)
(0.227212 0.0180578 0)
(0.24341 0.0187478 0)
(0.25927 0.019266 0)
(0.274415 0.02088 0)
(0 0 0)
(0.0184756 0.000656317 0)
(0.0351651 0.00126512 0)
(0.0497153 0.00182488 0)
(0.0623971 0.00235212 0)
(0.0734613 0.00286001 0)
(0.0831291 0.00335884 0)
(0.0915977 0.00385683 0)
(0.0990467 0.00436071 0)
(0.105642 0.00487607 0)
(0.111536 0.00540735 0)
(0.116875 0.00595851 0)
(0.121805 0.00653326 0)
(0.126454 0.00713374 0)
(0.13095 0.00776114 0)
(0.135437 0.00841668 0)
(0.140052 0.00910108 0)
(0.144933 0.0098137 0)
(0.150239 0.0105518 0)
(0.156127 0.0113125 0)
(0.162762 0.012091 0)
(0.170325 0.0128779 0)
(0.178992 0.0136618 0)
(0.188953 0.014426 0)
(0.200374 0.0151441 0)
(0.213335 0.0157833 0)
(0.227844 0.0162936 0)
(0.243634 0.0166017 0)
(0.259958 0.0165811 0)
(0.275726 0.0158503 0)
(0.303001 0.0208411 0)
(0 0 0)
(0.016105 0 0)
(0.0304841 0 0)
(0.0427341 0 0)
(0.0530363 0 0)
(0.0615694 0 0)
(0.0684945 0 0)
(0.0739544 0 0)
(0.0780755 0 0)
(0.0809698 0 0)
(0.0827373 0 0)
(0.0834672 0 0)
(0.0832389 0 0)
(0.0821241 0 0)
(0.080189 0 0)
(0.0774961 0 0)
(0.0741066 0 0)
(0.0700796 0 0)
(0.0654743 0 0)
(0.0603538 0 0)
(0.0547875 0 0)
(0.0488528 0 0)
(0.042638 0 0)
(0.036246 0 0)
(0.0297997 0 0)
(0.0234533 0 0)
(0.0174029 0 0)
(0.0119019 0 0)
(0.00729381 0 0)
(0.00412693 0 0)
(6.93889e-18 0 0)
(0 0 0)
(0.0161161 5.26075e-05 0)
(0.0305078 0.000101617 0)
(0.0427704 0.00014713 0)
(0.0530854 0.000190647 0)
(0.0616323 0.000233386 0)
(0.0685727 0.000276382 0)
(0.0740496 0.000320492 0)
(0.0781896 0.000366512 0)
(0.0811051 0.000414992 0)
(0.0828965 0.000466446 0)
(0.0836535 0.000521531 0)
(0.0834558 0.000580813 0)
(0.0823754 0.000644812 0)
(0.0804788 0.000714038 0)
(0.0778288 0.000789048 0)
(0.0744876 0.000870604 0)
(0.0705151 0.000958519 0)
(0.0659701 0.00105257 0)
(0.0609162 0.00115328 0)
(0.0554235 0.00126071 0)
(0.0495699 0.00137477 0)
(0.0434444 0.00149519 0)
(0.0371502 0.00162157 0)
(0.0308092 0.00175349 0)
(0.0245762 0.00189213 0)
(0.0186504 0.00203899 0)
(0.0132908 0.00219508 0)
(0.00884969 0.00236012 0)
(0.00587765 0.00252609 0)
(0.00211248 0.00263434 0)
(0 0 0)
(0.0161545 0.000105032 0)
(0.0305838 0.00020288 0)
(0.0428838 0.000293755 0)
(0.053237 0.000380632 0)
(0.061825 0.000465935 0)
(0.0688106 0.00055174 0)
(0.0743379 0.000639733 0)
(0.0785344 0.000731574 0)
(0.0815129 0.000828302 0)
(0.0833753 0.000930879 0)
(0.0842128 0.0010407 0)
(0.0841059 0.00115887 0)
(0.0831279 0.00128642 0)
(0.0813461 0.00142434 0)
(0.0788235 0.00157362 0)
(0.0756243 0.00173529 0)
(0.0718119 0.00190951 0)
(0.0674459 0.00209654 0)
(0.0625901 0.00229705 0)
(0.0573163 0.00251111 0)
(0.0517043 0.00273856 0)
(0.0458456 0.00297903 0)
(0.039847 0.00323181 0)
(0.0338283 0.00349602 0)
(0.0279401 0.00377208 0)
(0.0223837 0.00406086 0)
(0.0174359 0.00436572 0)
(0.0134752 0.0046878 0)
(0.0110538 0.00501025 0)
(0.00764892 0.00530226 0)
(0 0 0)
(0.0162189 0.000157088 0)
(0.0307113 0.000303426 0)
(0.0430738 0.000439358 0)
(0.0534904 0.000569278 0)
(0.0621464 0.000696783 0)
(0.0692073 0.000825015 0)
(0.0748182 0.000956399 0)
(0.0791075 0.00109317 0)
(0.0821891 0.00123708 0)
(0.0841683 0.00138986 0)
(0.0851385 0.00155344 0)
(0.0851816 0.00172941 0)
(0.0843725 0.00191927 0)
(0.0827804 0.00212443 0)
(0.0804701 0.00234614 0)
(0.0775062 0.00258516 0)
(0.0739562 0.0028428 0)
(0.069884 0.00312043 0)
(0.0653546 0.00341837 0)
(0.0604419 0.00373664 0)
(0.0552276 0.00407509 0)
(0.0498078 0.0044335 0)
(0.0442947 0.00481112 0)
(0.0388146 0.00520666 0)
(0.0335156 0.00561738 0)
(0.0285879 0.00604092 0)
(0.0243062 0.00647906 0)
(0.0210897 0.00693301 0)
(0.0195078 0.00737965 0)
(0.016817 0.00778746 0)
(0 0 0)
(0.0163091 0.000208586 0)
(0.0308894 0.000402869 0)
(0.0433389 0.000583179 0)
(0.0538426 0.000755377 0)
(0.0625925 0.000924368 0)
(0.0697576 0.00109431 0)
(0.0754828 0.00126816 0)
(0.0798987 0.00144838 0)
(0.0831233 0.00163787 0)
(0.0852648 0.00183937 0)
(0.0864184 0.00205502 0)
(0.0866683 0.00228685 0)
(0.0860921 0.00253682 0)
(0.084762 0.00280674 0)
(0.0827466 0.0030982 0)
(0.0801122 0.00341229 0)
(0.0769278 0.00375094 0)
(0.0732622 0.00411596 0)
(0.0691851 0.00450769 0)
(0.0647722 0.00492616 0)
(0.0601057 0.00537101 0)
(0.0552872 0.00584242 0)
(0.0504361 0.00633945 0)
(0.0456883 0.00685948 0)
(0.0412029 0.00739765 0)
(0.0371671 0.00794789 0)
(0.0338182 0.00850267 0)
(0.0315727 0.00905615 0)
(0.0310403 0.00958354 0)
(0.0291758 0.00998937 0)
(0 0 0)
(0.0164243 0.000259191 0)
(0.0311135 0.000500501 0)
(0.0436702 0.000724113 0)
(0.0542863 0.000937496 0)
(0.0631579 0.00114692 0)
(0.0704544 0.00135716 0)
(0.0763218 0.00157183 0)
(0.0808974 0.00179419 0)
(0.0843044 0.00202791 0)
(0.0866519 0.00227625 0)
(0.088037 0.00254176 0)
(0.0885477 0.00282692 0)
(0.0882652 0.00313411 0)
(0.0872657 0.00346558 0)
(0.085622 0.00382341 0)
(0.0834051 0.00420938 0)
(0.0806854 0.00462545 0)
(0.0775366 0.00507349 0)
(0.0740347 0.00555437 0)
(0.0702597 0.00606812 0)
(0.0662958 0.00661448 0)
(0.062243 0.00719307 0)
(0.0582229 0.00780152 0)
(0.054384 0.00843634 0)
(0.0509016 0.0090917 0)
(0.0479714 0.00975703 0)
(0.045807 0.0104164 0)
(0.0447508 0.0110512 0)
(0.0454236 0.0116355 0)
(0.0443524 0.0120154 0)
(0 0 0)
(0.0165637 0.000308459 0)
(0.0313803 0.000595406 0)
(0.0440634 0.000861144 0)
(0.0548164 0.00111462 0)
(0.0638344 0.00136317 0)
(0.0712866 0.00161196 0)
(0.0773252 0.00186557 0)
(0.0820944 0.00212851 0)
(0.0857201 0.00240464 0)
(0.0883132 0.00269748 0)
(0.0899745 0.00301011 0)
(0.0907962 0.00334545 0)
(0.0908638 0.0037063 0)
(0.0902581 0.00409533 0)
(0.0890574 0.00451508 0)
(0.0873375 0.00496778 0)
(0.0851716 0.00545545 0)
(0.08264 0.00598056 0)
(0.0798275 0.00654456 0)
(0.076819 0.00714753 0)
(0.0737078 0.00778968 0)
(0.070591 0.00846902 0)
(0.0675823 0.00918157 0)
(0.0648307 0.00992308 0)
(0.0625272 0.0106861 0)
(0.0608819 0.0114567 0)
(0.0601022 0.0122143 0)
(0.0604443 0.0129315 0)
(0.0624982 0.0135789 0)
(0.0622186 0.0139595 0)
(0 0 0)
(0.0167192 0.000356011 0)
(0.0316863 0.000687081 0)
(0.0445197 0.000993654 0)
(0.0554306 0.00128586 0)
(0.0646151 0.00157176 0)
(0.0722453 0.00185738 0)
(0.0784832 0.00214829 0)
(0.0834769 0.00244969 0)
(0.0873539 0.00276572 0)
(0.090229 0.00310024 0)
(0.0922074 0.00345676 0)
(0.0933857 0.00383858 0)
(0.0938545 0.00424885 0)
(0.0936998 0.00469062 0)
(0.0930067 0.00516693 0)
(0.0918582 0.00568039 0)
(0.090333 0.00623344 0)
(0.088515 0.00682886 0)
(0.0864951 0.00746811 0)
(0.0843642 0.0081515 0)
(0.0822283 0.00887978 0)
(0.0801962 0.00965071 0)
(0.0783824 0.0104599 0)
(0.0769172 0.011301 0)
(0.0759756 0.0121643 0)
(0.0757923 0.013035 0)
(0.076586 0.01389 0)
(0.0785463 0.0147002 0)
(0.0821908 0.0154267 0)
(0.0828301 0.0159281 0)
(0 0 0)
(0.0168894 0.000401686 0)
(0.0320287 0.000775284 0)
(0.0450342 0.00112113 0)
(0.0561202 0.0014503 0)
(0.0654891 0.00177155 0)
(0.0733212 0.00209211 0)
(0.0797844 0.00241839 0)
(0.0850292 0.0027558 0)
(0.0891868 0.00310891 0)
(0.0923764 0.00348191 0)
(0.094708 0.00387864 0)
(0.0962833 0.00430271 0)
(0.0971983 0.00475754 0)
(0.0975439 0.00524646 0)
(0.0974141 0.00577317 0)
(0.0969016 0.0063408 0)
(0.0960941 0.00695217 0)
(0.095077 0.00760958 0)
(0.093945 0.00831421 0)
(0.0928008 0.00906747 0)
(0.0917553 0.00987031 0)
(0.0909287 0.0107209 0)
(0.0904545 0.0116151 0)
(0.0904671 0.0125461 0)
(0.0911016 0.0135017 0)
(0.0925773 0.0144658 0)
(0.095149 0.0154143 0)
(0.0989808 0.0163167 0)
(0.104408 0.0171118 0)
(0.106174 0.0177681 0)
(0 0 0)
(0.017079 0.000445399 0)
(0.0324077 0.000859656 0)
(0.0456016 0.00124281 0)
(0.0568766 0.00160685 0)
(0.0664468 0.00196156 0)
(0.0745031 0.00231512 0)
(0.0812146 0.00267442 0)
(0.086734 0.00304513 0)
(0.0911976 0.00343221 0)
(0.0947299 0.00384013 0)
(0.0974457 0.00427299 0)
(0.0994523 0.00473462 0)
(0.100852 0.00522863 0)
(0.101744 0.00575887 0)
(0.102228 0.00632946 0)
(0.102403 0.0069434 0)
(0.102366 0.00760342 0)
(0.10221 0.00831176 0)
(0.102043 0.00907047 0)
(0.101983 0.00988188 0)
(0.102142 0.0107462 0)
(0.102642 0.0116616 0)
(0.103629 0.0126253 0)
(0.105264 0.0136304 0)
(0.107684 0.0146642 0)
(0.111043 0.0157077 0)
(0.115599 0.0167315 0)
(0.121514 0.0176957 0)
(0.12883 0.0185086 0)
(0.131988 0.019235 0)
(0 0 0)
(0.0172851 0.000486959 0)
(0.0328158 0.000939712 0)
(0.0462101 0.00135795 0)
(0.0576913 0.00175476 0)
(0.0674826 0.00214101 0)
(0.0757808 0.00252539 0)
(0.0827584 0.00291509 0)
(0.0885721 0.00331616 0)
(0.0933633 0.00373385 0)
(0.0972614 0.00417284 0)
(0.100387 0.00463742 0)
(0.102852 0.00513155 0)
(0.104766 0.00565905 0)
(0.106241 0.00622447 0)
(0.10738 0.00683149 0)
(0.108282 0.00748238 0)
(0.109056 0.0081801 0)
(0.109811 0.00892758 0)
(0.110667 0.00972764 0)
(0.11175 0.010582 0)
(0.113188 0.0114909 0)
(0.115121 0.0124533 0)
(0.11769 0.0134665 0)
(0.12107 0.0145242 0)
(0.125429 0.015613 0)
(0.13087 0.0167106 0)
(0.137592 0.0177787 0)
(0.145684 0.0187575 0)
(0.154873 0.0195279 0)
(0.159396 0.0201503 0)
(0 0 0)
(0.0175047 0.00052609 0)
(0.0332478 0.00101496 0)
(0.0468537 0.00146613 0)
(0.0585575 0.00189373 0)
(0.0685861 0.0023093 0)
(0.0771406 0.00272197 0)
(0.0843993 0.00313928 0)
(0.0905233 0.00356757 0)
(0.095659 0.00401231 0)
(0.099941 0.0044783 0)
(0.103495 0.00496992 0)
(0.10644 0.00549115 0)
(0.108892 0.00604621 0)
(0.110972 0.00663965 0)
(0.112785 0.00727421 0)
(0.114437 0.00795208 0)
(0.116052 0.00867668 0)
(0.117757 0.00945114 0)
(0.119675 0.0102775 0)
(0.121937 0.011157 0)
(0.124694 0.0120906 0)
(0.128114 0.0130773 0)
(0.132354 0.0141145 0)
(0.137576 0.0151964 0)
(0.143962 0.016308 0)
(0.151617 0.0174258 0)
(0.16063 0.0185041 0)
(0.170917 0.019463 0)
(0.181886 0.0201637 0)
(0.187717 0.0207212 0)
(0 0 0)
(0.0177353 0.000562623 0)
(0.0337023 0.0010852 0)
(0.0475322 0.00156712 0)
(0.0594694 0.00202328 0)
(0.0697463 0.00246574 0)
(0.0785686 0.00290406 0)
(0.08612 0.00334606 0)
(0.0925663 0.0037983 0)
(0.098059 0.00426637 0)
(0.102738 0.00475513 0)
(0.106733 0.00526893 0)
(0.110169 0.00581178 0)
(0.113176 0.00638821 0)
(0.115873 0.00700188 0)
(0.118368 0.00765473 0)
(0.120783 0.00834952 0)
(0.123251 0.00908961 0)
(0.125907 0.00987706 0)
(0.128886 0.010713 0)
(0.132343 0.0115984 0)
(0.136431 0.0125338 0)
(0.141338 0.013518 0)
(0.14726 0.0145473 0)
(0.154344 0.0156153 0)
(0.162775 0.0167077 0)
(0.172688 0.0178028 0)
(0.184027 0.0188553 0)
(0.196492 0.0197794 0)
(0.209149 0.02042 0)
(0.216564 0.0210096 0)
(0 0 0)
(0.0179749 0.000596526 0)
(0.0341756 0.00115036 0)
(0.0482388 0.00166065 0)
(0.0604181 0.00214295 0)
(0.0709515 0.00260977 0)
(0.0800501 0.003071 0)
(0.0879025 0.00353469 0)
(0.0946793 0.00400752 0)
(0.100537 0.00449512 0)
(0.105619 0.00500233 0)
(0.110062 0.00553334 0)
(0.113998 0.00609232 0)
(0.117562 0.00668354 0)
(0.120873 0.00730949 0)
(0.124048 0.00797179 0)
(0.127224 0.00867346 0)
(0.130538 0.00941659 0)
(0.134124 0.0102019 0)
(0.138136 0.0110302 0)
(0.142746 0.0119009 0)
(0.148126 0.0128127 0)
(0.154461 0.0137636 0)
(0.161961 0.0147465 0)
(0.170808 0.015753 0)
(0.181178 0.016771 0)
(0.193209 0.017781 0)
(0.20674 0.0187508 0)
(0.221294 0.0196162 0)
(0.235605 0.0202169 0)
(0.245613 0.0210321 0)
(0 0 0)
(0.0182217 0.000627704 0)
(0.0346633 0.00121023 0)
(0.0489667 0.00174642 0)
(0.0613941 0.00225237 0)
(0.07219 0.00274096 0)
(0.0815705 0.00322233 0)
(0.0897288 0.00370464 0)
(0.0968402 0.00419464 0)
(0.103066 0.00469796 0)
(0.108554 0.00521931 0)
(0.113445 0.0057627 0)
(0.117881 0.00633233 0)
(0.121994 0.00693152 0)
(0.125906 0.00756183 0)
(0.129747 0.00822501 0)
(0.133658 0.00892328 0)
(0.137781 0.00965707 0)
(0.142261 0.0104257 0)
(0.147251 0.0112288 0)
(0.15293 0.0120638 0)
(0.159492 0.0129259 0)
(0.167104 0.0138097 0)
(0.17598 0.0147042 0)
(0.186332 0.0155948 0)
(0.1983 0.0164653 0)
(0.211985 0.0172929 0)
(0.227212 0.0180578 0)
(0.24341 0.0187478 0)
(0.25927 0.019266 0)
(0.274415 0.02088 0)
(0 0 0)
(0.0184756 0.000656317 0)
(0.0351651 0.00126512 0)
(0.0497153 0.00182488 0)
(0.0623971 0.00235212 0)
(0.0734613 0.00286001 0)
(0.0831291 0.00335884 0)
(0.0915977 0.00385683 0)
(0.0990467 0.00436071 0)
(0.105642 0.00487607 0)
(0.111536 0.00540735 0)
(0.116875 0.00595851 0)
(0.121805 0.00653326 0)
(0.126454 0.00713374 0)
(0.13095 0.00776114 0)
(0.135437 0.00841668 0)
(0.140052 0.00910108 0)
(0.144933 0.0098137 0)
(0.150239 0.0105518 0)
(0.156127 0.0113125 0)
(0.162762 0.012091 0)
(0.170325 0.0128779 0)
(0.178992 0.0136618 0)
(0.188953 0.014426 0)
(0.200374 0.0151441 0)
(0.213335 0.0157833 0)
(0.227844 0.0162936 0)
(0.243634 0.0166017 0)
(0.259958 0.0165811 0)
(0.275726 0.0158503 0)
(0.303001 0.0208411 0)
(3.46945e-18 0 0)
(0.00597238 0 0)
(0.0123077 0 0)
(0.022748 0 0)
(0.0366568 0 0)
(0.0529218 0 0)
(0.0702437 0 0)
(0.0874217 0 0)
(0.103529 0 0)
(0.11796 0 0)
(0.130395 0 0)
(0.140709 0 0)
(0.148917 0 0)
(0.155101 0 0)
(0.159368 0 0)
(0.161832 0 0)
(0.162586 0 0)
(0.161706 0 0)
(0.159238 0 0)
(0.155213 0 0)
(0.149647 0 0)
(0.142515 0 0)
(0.133772 0 0)
(0.123384 0 0)
(0.111315 0 0)
(0.0975021 0 0)
(0.0818634 0 0)
(0.064315 0 0)
(0.0447908 0 0)
(0.023213 0 0)
(0 0 0)
(0.00213905 -0.0027755 0)
(0.00787358 -0.00278871 0)
(0.0143285 -0.00286186 0)
(0.0248562 -0.00288696 0)
(0.0387921 -0.0028671 0)
(0.0549993 -0.00279719 0)
(0.0721903 -0.00268225 0)
(0.0891917 -0.00253321 0)
(0.105096 -0.00236167 0)
(0.119317 -0.00217758 0)
(0.13155 -0.00199315 0)
(0.141675 -0.00181535 0)
(0.149713 -0.00164541 0)
(0.155752 -0.00148285 0)
(0.159902 -0.00133186 0)
(0.162269 -0.00119351 0)
(0.162943 -0.0010671 0)
(0.161998 -0.00095387 0)
(0.159479 -0.000851032 0)
(0.155413 -0.000756497 0)
(0.149813 -0.00066998 0)
(0.142653 -0.000591041 0)
(0.133885 -0.000517526 0)
(0.123474 -0.000448858 0)
(0.111388 -0.000384168 0)
(0.0975634 -0.000321832 0)
(0.081914 -0.00026029 0)
(0.0643524 -0.000198532 0)
(0.0448144 -0.000135375 0)
(0.0232257 -6.93103e-05 0)
(0 0 0)
(0.00768707 -0.00557324 0)
(0.0134973 -0.00551697 0)
(0.0203382 -0.00565341 0)
(0.0311368 -0.00570294 0)
(0.0451264 -0.00565956 0)
(0.0611441 -0.00551268 0)
(0.077957 -0.00527783 0)
(0.0944375 -0.00497922 0)
(0.109728 -0.00463842 0)
(0.123315 -0.00427593 0)
(0.134937 -0.00391004 0)
(0.144501 -0.00355594 0)
(0.152045 -0.00322047 0)
(0.157667 -0.00290416 0)
(0.161474 -0.00261117 0)
(0.163557 -0.00234236 0)
(0.163998 -0.00209624 0)
(0.162863 -0.00187403 0)
(0.16019 -0.00167272 0)
(0.155999 -0.00148877 0)
(0.150295 -0.00132062 0)
(0.143052 -0.0011664 0)
(0.134217 -0.00102275 0)
(0.123744 -0.000887237 0)
(0.111605 -0.000759084 0)
(0.0977429 -0.000635966 0)
(0.0820626 -0.000514534 0)
(0.0644696 -0.000392605 0)
(0.0448988 -0.000267709 0)
(0.0232711 -0.000137002 0)
(0 0 0)
(0.0168426 -0.00819019 0)
(0.022658 -0.00810999 0)
(0.0301286 -0.0083098 0)
(0.0413303 -0.00838078 0)
(0.0553459 -0.00830239 0)
(0.0710409 -0.00807317 0)
(0.087227 -0.00771709 0)
(0.102832 -0.00726786 0)
(0.117114 -0.00676071 0)
(0.129671 -0.00622848 0)
(0.14031 -0.00569318 0)
(0.148984 -0.00517412 0)
(0.155756 -0.00468484 0)
(0.160727 -0.00422942 0)
(0.163992 -0.00380836 0)
(0.165623 -0.00342076 0)
(0.165695 -0.00306625 0)
(0.164257 -0.00274409 0)
(0.161335 -0.00245098 0)
(0.156941 -0.00218355 0)
(0.151071 -0.00193904 0)
(0.143693 -0.00171375 0)
(0.134751 -0.00150402 0)
(0.124186 -0.00130586 0)
(0.111963 -0.00111751 0)
(0.0980351 -0.000936236 0)
(0.0823014 -0.000757764 0)
(0.0646599 -0.000578485 0)
(0.045039 -0.000394679 0)
(0.0233464 -0.000202061 0)
(0 0 0)
(0.0292086 -0.0105312 0)
(0.0351216 -0.0105293 0)
(0.0434124 -0.010793 0)
(0.0550869 -0.0108752 0)
(0.0690834 -0.0107482 0)
(0.0842915 -0.0104263 0)
(0.0995432 -0.00994245 0)
(0.113908 -0.00934326 0)
(0.126816 -0.00867711 0)
(0.137996 -0.00798682 0)
(0.14734 -0.0073 0)
(0.154858 -0.00663716 0)
(0.160633 -0.00601346 0)
(0.164757 -0.00543469 0)
(0.16731 -0.00490075 0)
(0.168352 -0.00440888 0)
(0.167942 -0.00395952 0)
(0.16611 -0.00354944 0)
(0.162863 -0.00317431 0)
(0.1582 -0.00283097 0)
(0.15211 -0.00251654 0)
(0.144553 -0.00222649 0)
(0.135464 -0.00195577 0)
(0.124777 -0.00169994 0)
(0.112449 -0.00145577 0)
(0.0984305 -0.00121998 0)
(0.0826188 -0.000987885 0)
(0.0649062 -0.000754564 0)
(0.0452138 -0.000515142 0)
(0.0234391 -0.000263889 0)
(0 0 0)
(0.0443884 -0.0127089 0)
(0.0506547 -0.0127944 0)
(0.0599141 -0.0131019 0)
(0.0720534 -0.0131641 0)
(0.0859025 -0.0129631 0)
(0.100345 -0.0125269 0)
(0.114313 -0.0119049 0)
(0.127101 -0.0111604 0)
(0.138324 -0.0103497 0)
(0.147848 -0.00951991 0)
(0.155655 -0.00870263 0)
(0.161818 -0.00791993 0)
(0.166424 -0.00718486 0)
(0.16955 -0.00650227 0)
(0.171268 -0.00587312 0)
(0.17162 -0.00529426 0)
(0.17064 -0.00476391 0)
(0.16834 -0.00427875 0)
(0.16471 -0.00383389 0)
(0.159727 -0.00342463 0)
(0.15337 -0.00304829 0)
(0.145597 -0.00270065 0)
(0.136332 -0.00237519 0)
(0.1255 -0.00206694 0)
(0.113045 -0.00177165 0)
(0.0989146 -0.00148558 0)
(0.0830033 -0.00120369 0)
(0.0652002 -0.000919948 0)
(0.0454186 -0.000628401 0)
(0.0235466 -0.000322048 0)
(0 0 0)
(0.0622623 -0.0148108 0)
(0.0690816 -0.0149354 0)
(0.0793577 -0.0152346 0)
(0.0918148 -0.0152218 0)
(0.105239 -0.014906 0)
(0.118557 -0.014332 0)
(0.130896 -0.0135673 0)
(0.141801 -0.0126866 0)
(0.151091 -0.0117512 0)
(0.158759 -0.0108075 0)
(0.16487 -0.00988631 0)
(0.169546 -0.00900918 0)
(0.17287 -0.00818732 0)
(0.174904 -0.00742372 0)
(0.175706 -0.00671937 0)
(0.175301 -0.00607148 0)
(0.173688 -0.005475 0)
(0.170866 -0.00492787 0)
(0.166809 -0.00442543 0)
(0.161471 -0.00396115 0)
(0.154815 -0.00353157 0)
(0.146793 -0.00313298 0)
(0.137327 -0.00275922 0)
(0.12633 -0.00240438 0)
(0.113734 -0.00206332 0)
(0.099473 -0.0017317 0)
(0.0834429 -0.00140415 0)
(0.0655334 -0.00107388 0)
(0.0456482 -0.000733963 0)
(0.0236663 -0.000376298 0)
(0 0 0)
(0.0828534 -0.0169154 0)
(0.0902004 -0.0169259 0)
(0.101358 -0.0171428 0)
(0.113849 -0.0169992 0)
(0.126464 -0.0165324 0)
(0.138261 -0.0158066 0)
(0.148634 -0.0149035 0)
(0.157397 -0.0139024 0)
(0.164564 -0.0128659 0)
(0.170252 -0.0118371 0)
(0.174597 -0.0108425 0)
(0.177726 -0.00989911 0)
(0.179716 -0.00901659 0)
(0.180615 -0.00819562 0)
(0.180463 -0.00743632 0)
(0.179262 -0.00673681 0)
(0.176983 -0.00609034 0)
(0.173604 -0.00549446 0)
(0.169089 -0.00494555 0)
(0.163374 -0.0044369 0)
(0.1564 -0.00396357 0)
(0.14811 -0.00352183 0)
(0.13842 -0.00310644 0)
(0.127241 -0.00271103 0)
(0.114491 -0.00232991 0)
(0.100086 -0.00195786 0)
(0.0839247 -0.00158901 0)
(0.0658969 -0.00121619 0)
(0.0458971 -0.000831733 0)
(0.0237952 -0.000426596 0)
(0 0 0)
(0.106195 -0.018857 0)
(0.11373 -0.0186684 0)
(0.125436 -0.0187426 0)
(0.137556 -0.0184342 0)
(0.148896 -0.0177993 0)
(0.158754 -0.0169219 0)
(0.166857 -0.0158951 0)
(0.173285 -0.0147986 0)