/*--------------------------------*- C++ -*----------------------------------*\
| =========                 |                                                 |
| \\      /  F ield         | OpenFOAM: The Open Source CFD Toolbox           |
|  \\    /   O peration     | Version:  5.x                                   |
|   \\  /    A nd           | Web:      www.OpenFOAM.org                      |
|    \\/     M anipulation  |                                                 |
\*---------------------------------------------------------------------------*/
FoamFile
{
    version     2.0;
    format      ascii;
    class       volVectorField;
    location    "3.6";
    object      Force;
}
// * * * * * * * * * * * * * * * * * * * * * * * * * * * * * * * * * * * * * //

dimensions      [1 1 -2 0 0 0 0];

internalField   uniform (0 0 0);

boundaryField
{
    inlet
    {
        type            calculated;
        value           uniform (0 0 0);
    }
    outlet
    {
        type            calculated;
        value           uniform (0 0 0);
    }
    flap
    {
        type            calculated;
        value           nonuniform List<vector> 
33
(
(3.82037 -0.209132 -1.51108e-21)
(3.77532 -0.424923 -6.70619e-18)
(3.73063 -0.603512 1.78381e-18)
(3.67692 -0.707956 -4.87566e-18)
(3.62494 -0.748044 -1.70134e-18)
(3.57741 -0.755344 6.50987e-18)
(3.5246 -0.740375 -1.66411e-18)
(3.46952 -0.714481 -1.65803e-18)
(3.40337 -0.697583 1.66018e-18)
(3.30692 -0.682361 6.13417e-18)
(3.18245 -0.646126 -1.64076e-18)
(3.02666 -0.590059 -3.48408e-24)
(2.81507 -0.525203 3.14039e-24)
(2.48035 -0.453825 4.94756e-18)
(1.88846 -0.344615 -1.03327e-18)
(0.141864 0.748517 4.4081e-39)
(0.09142 0.486037 -3.27035e-19)
(0.0364309 0.202854 1.37289e-19)
(0.0630326 -0.00386689 1.38867e-18)
(0.0640927 -0.00795117 1.45397e-18)
(0.0650007 -0.011273 -1.4327e-18)
(0.0658265 -0.0133409 -3.17283e-18)
(0.0658551 -0.0140816 -1.62859e-18)
(0.0647658 -0.0141424 3.77389e-22)
(0.062694 -0.0135651 1.75051e-18)
(0.0595355 -0.0126702 -1.66528e-18)
(0.055569 -0.0118283 9.18355e-41)
(0.0526204 -0.0111915 1.67209e-18)
(0.0514328 -0.0106309 3.29571e-18)
(0.0504393 -0.00977468 1.68763e-18)
(0.0502025 -0.00914171 3.45351e-18)
(0.0533704 -0.00934504 1.72543e-18)
(0.0622172 -0.0110988 0)
)
;
    }
    upperWall
    {
        type            calculated;
        value           uniform (0 0 0);
    }
    lowerWall
    {
        type            calculated;
        value           uniform (0 0 0);
    }
    frontAndBack
    {
        type            empty;
    }
}


// ************************************************************************* //
