# vtk DataFile Version 2.0

ASCII

DATASET UNSTRUCTURED_GRID

POINTS 80 float 

1.0566243270259354e-02  0.0000000000000000e+00  1.0566243270259354e-02
1.0566243270259354e-02  0.0000000000000000e+00  3.9433756729740643e-02
3.9433756729740643e-02  0.0000000000000000e+00  1.0566243270259354e-02
3.9433756729740643e-02  0.0000000000000000e+00  3.9433756729740643e-02
6.0566243270259362e-02  0.0000000000000000e+00  1.0566243270259354e-02
6.0566243270259362e-02  0.0000000000000000e+00  3.9433756729740643e-02
8.9433756729740646e-02  0.0000000000000000e+00  1.0566243270259354e-02
8.9433756729740646e-02  0.0000000000000000e+00  3.9433756729740643e-02
1.1056624327025935e-01  0.0000000000000000e+00  1.0566243270259354e-02
1.1056624327025935e-01  0.0000000000000000e+00  3.9433756729740643e-02
1.3943375672974065e-01  0.0000000000000000e+00  1.0566243270259354e-02
1.3943375672974065e-01  0.0000000000000000e+00  3.9433756729740643e-02
1.6056624327025937e-01  0.0000000000000000e+00  1.0566243270259354e-02
1.6056624327025937e-01  0.0000000000000000e+00  3.9433756729740643e-02
1.8943375672974067e-01  0.0000000000000000e+00  1.0566243270259354e-02
1.8943375672974067e-01  0.0000000000000000e+00  3.9433756729740643e-02
2.1056624327025936e-01  0.0000000000000000e+00  1.0566243270259354e-02
2.1056624327025936e-01  0.0000000000000000e+00  3.9433756729740643e-02
2.3943375672974065e-01  0.0000000000000000e+00  1.0566243270259354e-02
2.3943375672974065e-01  0.0000000000000000e+00  3.9433756729740643e-02
2.6056624327025935e-01  0.0000000000000000e+00  1.0566243270259354e-02
2.6056624327025935e-01  0.0000000000000000e+00  3.9433756729740643e-02
2.8943375672974064e-01  0.0000000000000000e+00  1.0566243270259354e-02
2.8943375672974064e-01  0.0000000000000000e+00  3.9433756729740643e-02
3.1056624327025939e-01  0.0000000000000000e+00  1.0566243270259354e-02
3.1056624327025939e-01  0.0000000000000000e+00  3.9433756729740643e-02
3.3943375672974069e-01  0.0000000000000000e+00  1.0566243270259354e-02
3.3943375672974069e-01  0.0000000000000000e+00  3.9433756729740643e-02
3.6056624327025938e-01  0.0000000000000000e+00  1.0566243270259354e-02
3.6056624327025938e-01  0.0000000000000000e+00  3.9433756729740643e-02
3.8943375672974068e-01  0.0000000000000000e+00  1.0566243270259354e-02
3.8943375672974068e-01  0.0000000000000000e+00  3.9433756729740643e-02
4.1056624327025937e-01  0.0000000000000000e+00  1.0566243270259354e-02
4.1056624327025937e-01  0.0000000000000000e+00  3.9433756729740643e-02
4.3943375672974067e-01  0.0000000000000000e+00  1.0566243270259354e-02
4.3943375672974067e-01  0.0000000000000000e+00  3.9433756729740643e-02
4.6056624327025936e-01  0.0000000000000000e+00  1.0566243270259354e-02
4.6056624327025936e-01  0.0000000000000000e+00  3.9433756729740643e-02
4.8943375672974065e-01  0.0000000000000000e+00  1.0566243270259354e-02
4.8943375672974065e-01  0.0000000000000000e+00  3.9433756729740643e-02
5.1056624327025935e-01  0.0000000000000000e+00  1.0566243270259354e-02
5.1056624327025935e-01  0.0000000000000000e+00  3.9433756729740643e-02
5.3943375672974070e-01  0.0000000000000000e+00  1.0566243270259354e-02
5.3943375672974070e-01  0.0000000000000000e+00  3.9433756729740643e-02
5.6056624327025939e-01  0.0000000000000000e+00  1.0566243270259354e-02
5.6056624327025939e-01  0.0000000000000000e+00  3.9433756729740643e-02
5.8943375672974063e-01  0.0000000000000000e+00  1.0566243270259354e-02
5.8943375672974063e-01  0.0000000000000000e+00  3.9433756729740643e-02
6.1056624327025943e-01  0.0000000000000000e+00  1.0566243270259354e-02
6.1056624327025943e-01  0.0000000000000000e+00  3.9433756729740643e-02
6.3943375672974068e-01  0.0000000000000000e+00  1.0566243270259354e-02
6.3943375672974068e-01  0.0000000000000000e+00  3.9433756729740643e-02
6.6056624327025937e-01  0.0000000000000000e+00  1.0566243270259354e-02
6.6056624327025937e-01  0.0000000000000000e+00  3.9433756729740643e-02
6.8943375672974072e-01  0.0000000000000000e+00  1.0566243270259354e-02
6.8943375672974072e-01  0.0000000000000000e+00  3.9433756729740643e-02
7.1056624327025941e-01  0.0000000000000000e+00  1.0566243270259354e-02
7.1056624327025941e-01  0.0000000000000000e+00  3.9433756729740643e-02
7.3943375672974065e-01  0.0000000000000000e+00  1.0566243270259354e-02
7.3943375672974065e-01  0.0000000000000000e+00  3.9433756729740643e-02
7.6056624327025935e-01  0.0000000000000000e+00  1.0566243270259354e-02
7.6056624327025935e-01  0.0000000000000000e+00  3.9433756729740643e-02
7.8943375672974070e-01  0.0000000000000000e+00  1.0566243270259354e-02
7.8943375672974070e-01  0.0000000000000000e+00  3.9433756729740643e-02
8.1056624327025950e-01  0.0000000000000000e+00  1.0566243270259354e-02
8.1056624327025950e-01  0.0000000000000000e+00  3.9433756729740643e-02
8.3943375672974063e-01  0.0000000000000000e+00  1.0566243270259354e-02
8.3943375672974063e-01  0.0000000000000000e+00  3.9433756729740643e-02
8.6056624327025943e-01  0.0000000000000000e+00  1.0566243270259354e-02
8.6056624327025943e-01  0.0000000000000000e+00  3.9433756729740643e-02
8.8943375672974057e-01  0.0000000000000000e+00  1.0566243270259354e-02
8.8943375672974057e-01  0.0000000000000000e+00  3.9433756729740643e-02
9.1056624327025948e-01  0.0000000000000000e+00  1.0566243270259354e-02
9.1056624327025948e-01  0.0000000000000000e+00  3.9433756729740643e-02
9.3943375672974061e-01  0.0000000000000000e+00  1.0566243270259354e-02
9.3943375672974061e-01  0.0000000000000000e+00  3.9433756729740643e-02
9.6056624327025952e-01  0.0000000000000000e+00  1.0566243270259354e-02
9.6056624327025952e-01  0.0000000000000000e+00  3.9433756729740643e-02
9.8943375672974065e-01  0.0000000000000000e+00  1.0566243270259354e-02
9.8943375672974065e-01  0.0000000000000000e+00  3.9433756729740643e-02

CELLS 0 0


CELL_TYPES 0


POINT_DATA 80

VECTORS VertexNormals float

0.0000000000000000e+00 0.0000000000000000e+00 0.0000000000000000e+00 
0.0000000000000000e+00 0.0000000000000000e+00 0.0000000000000000e+00 
0.0000000000000000e+00 0.0000000000000000e+00 0.0000000000000000e+00 
0.0000000000000000e+00 0.0000000000000000e+00 0.0000000000000000e+00 
0.0000000000000000e+00 0.0000000000000000e+00 0.0000000000000000e+00 
0.0000000000000000e+00 0.0000000000000000e+00 0.0000000000000000e+00 
0.0000000000000000e+00 0.0000000000000000e+00 0.0000000000000000e+00 
0.0000000000000000e+00 0.0000000000000000e+00 0.0000000000000000e+00 
0.0000000000000000e+00 0.0000000000000000e+00 0.0000000000000000e+00 
0.0000000000000000e+00 0.0000000000000000e+00 0.0000000000000000e+00 
0.0000000000000000e+00 0.0000000000000000e+00 0.0000000000000000e+00 
0.0000000000000000e+00 0.0000000000000000e+00 0.0000000000000000e+00 
0.0000000000000000e+00 0.0000000000000000e+00 0.0000000000000000e+00 
0.0000000000000000e+00 0.0000000000000000e+00 0.0000000000000000e+00 
0.0000000000000000e+00 0.0000000000000000e+00 0.0000000000000000e+00 
0.0000000000000000e+00 0.0000000000000000e+00 0.0000000000000000e+00 
0.0000000000000000e+00 0.0000000000000000e+00 0.0000000000000000e+00 
0.0000000000000000e+00 0.0000000000000000e+00 0.0000000000000000e+00 
0.0000000000000000e+00 0.0000000000000000e+00 0.0000000000000000e+00 
0.0000000000000000e+00 0.0000000000000000e+00 0.0000000000000000e+00 
0.0000000000000000e+00 0.0000000000000000e+00 0.0000000000000000e+00 
0.0000000000000000e+00 0.0000000000000000e+00 0.0000000000000000e+00 
0.0000000000000000e+00 0.0000000000000000e+00 0.0000000000000000e+00 
0.0000000000000000e+00 0.0000000000000000e+00 0.0000000000000000e+00 
0.0000000000000000e+00 0.0000000000000000e+00 0.0000000000000000e+00 
0.0000000000000000e+00 0.0000000000000000e+00 0.0000000000000000e+00 
0.0000000000000000e+00 0.0000000000000000e+00 0.0000000000000000e+00 
0.0000000000000000e+00 0.0000000000000000e+00 0.0000000000000000e+00 
0.0000000000000000e+00 0.0000000000000000e+00 0.0000000000000000e+00 
0.0000000000000000e+00 0.0000000000000000e+00 0.0000000000000000e+00 
0.0000000000000000e+00 0.0000000000000000e+00 0.0000000000000000e+00 
0.0000000000000000e+00 0.0000000000000000e+00 0.0000000000000000e+00 
0.0000000000000000e+00 0.0000000000000000e+00 0.0000000000000000e+00 
0.0000000000000000e+00 0.0000000000000000e+00 0.0000000000000000e+00 
0.0000000000000000e+00 0.0000000000000000e+00 0.0000000000000000e+00 
0.0000000000000000e+00 0.0000000000000000e+00 0.0000000000000000e+00 
0.0000000000000000e+00 0.0000000000000000e+00 0.0000000000000000e+00 
0.0000000000000000e+00 0.0000000000000000e+00 0.0000000000000000e+00 
0.0000000000000000e+00 0.0000000000000000e+00 0.0000000000000000e+00 
0.0000000000000000e+00 0.0000000000000000e+00 0.0000000000000000e+00 
0.0000000000000000e+00 0.0000000000000000e+00 0.0000000000000000e+00 
0.0000000000000000e+00 0.0000000000000000e+00 0.0000000000000000e+00 
0.0000000000000000e+00 0.0000000000000000e+00 0.0000000000000000e+00 
0.0000000000000000e+00 0.0000000000000000e+00 0.0000000000000000e+00 
0.0000000000000000e+00 0.0000000000000000e+00 0.0000000000000000e+00 
0.0000000000000000e+00 0.0000000000000000e+00 0.0000000000000000e+00 
0.0000000000000000e+00 0.0000000000000000e+00 0.0000000000000000e+00 
0.0000000000000000e+00 0.0000000000000000e+00 0.0000000000000000e+00 
0.0000000000000000e+00 0.0000000000000000e+00 0.0000000000000000e+00 
0.0000000000000000e+00 0.0000000000000000e+00 0.0000000000000000e+00 
0.0000000000000000e+00 0.0000000000000000e+00 0.0000000000000000e+00 
0.0000000000000000e+00 0.0000000000000000e+00 0.0000000000000000e+00 
0.0000000000000000e+00 0.0000000000000000e+00 0.0000000000000000e+00 
0.0000000000000000e+00 0.0000000000000000e+00 0.0000000000000000e+00 
0.0000000000000000e+00 0.0000000000000000e+00 0.0000000000000000e+00 
0.0000000000000000e+00 0.0000000000000000e+00 0.0000000000000000e+00 
0.0000000000000000e+00 0.0000000000000000e+00 0.0000000000000000e+00 
0.0000000000000000e+00 0.0000000000000000e+00 0.0000000000000000e+00 
0.0000000000000000e+00 0.0000000000000000e+00 0.0000000000000000e+00 
0.0000000000000000e+00 0.0000000000000000e+00 0.0000000000000000e+00 
0.0000000000000000e+00 0.0000000000000000e+00 0.0000000000000000e+00 
0.0000000000000000e+00 0.0000000000000000e+00 0.0000000000000000e+00 
0.0000000000000000e+00 0.0000000000000000e+00 0.0000000000000000e+00 
0.0000000000000000e+00 0.0000000000000000e+00 0.0000000000000000e+00 
0.0000000000000000e+00 0.0000000000000000e+00 0.0000000000000000e+00 
0.0000000000000000e+00 0.0000000000000000e+00 0.0000000000000000e+00 
0.0000000000000000e+00 0.0000000000000000e+00 0.0000000000000000e+00 
0.0000000000000000e+00 0.0000000000000000e+00 0.0000000000000000e+00 
0.0000000000000000e+00 0.0000000000000000e+00 0.0000000000000000e+00 
0.0000000000000000e+00 0.0000000000000000e+00 0.0000000000000000e+00 
0.0000000000000000e+00 0.0000000000000000e+00 0.0000000000000000e+00 
0.0000000000000000e+00 0.0000000000000000e+00 0.0000000000000000e+00 
0.0000000000000000e+00 0.0000000000000000e+00 0.0000000000000000e+00 
0.0000000000000000e+00 0.0000000000000000e+00 0.0000000000000000e+00 
0.0000000000000000e+00 0.0000000000000000e+00 0.0000000000000000e+00 
0.0000000000000000e+00 0.0000000000000000e+00 0.0000000000000000e+00 
0.0000000000000000e+00 0.0000000000000000e+00 0.0000000000000000e+00 
0.0000000000000000e+00 0.0000000000000000e+00 0.0000000000000000e+00 
0.0000000000000000e+00 0.0000000000000000e+00 0.0000000000000000e+00 
0.0000000000000000e+00 0.0000000000000000e+00 0.0000000000000000e+00 

SCALARS Temperature float
LOOKUP_TABLE default
3.0223671085863464e+02
3.0223671085863464e+02
3.0252073151487212e+02
3.0252073151487212e+02
3.0262381805418141e+02
3.0262381805418141e+02
3.0279524218571709e+02
3.0279524218571709e+02
3.0288706971229175e+02
3.0288706971229175e+02
3.0296987841793970e+02
3.0296987841793970e+02
3.0301227327348636e+02
3.0301227327348636e+02
3.0306632759999104e+02
3.0306632759999104e+02
3.0309720798069327e+02
3.0309720798069327e+02
3.0312598032972568e+02
3.0312598032972568e+02
3.0314150130736078e+02
3.0314150130736078e+02
3.0316071121609883e+02
3.0316071121609883e+02
3.0316843813301881e+02
3.0316843813301881e+02
3.0317877731670131e+02
3.0317877731670131e+02
3.0318506892227163e+02
3.0318506892227163e+02
3.0319059310852685e+02
3.0319059310852685e+02
3.0319325442543425e+02
3.0319325442543425e+02
3.0319647740404719e+02
3.0319647740404719e+02
3.0319805482658501e+02
3.0319805482658501e+02
3.0319915954898642e+02
3.0319915954898642e+02
3.0319965924071323e+02
3.0319965924071323e+02
3.0319997007175476e+02
3.0319997007175476e+02
3.0319969682164219e+02
3.0319969682164219e+02
3.0319817086533686e+02
3.0319817086533686e+02
3.0319717696312370e+02
3.0319717696312370e+02
3.0319440418015233e+02
3.0319440418015233e+02
3.0319210724027863e+02
3.0319210724027863e+02
3.0318677608304489e+02
3.0318677608304489e+02
3.0318232123328352e+02
3.0318232123328352e+02
3.0317317942578705e+02
3.0317317942578705e+02
3.0316516096829628e+02
3.0316516096829628e+02
3.0314795862550011e+02
3.0314795862550011e+02
3.0313218448030989e+02
3.0313218448030989e+02
3.0309811985323552e+02
3.0309811985323552e+02
3.0306961523851112e+02
3.0306961523851112e+02
3.0302668377929871e+02
3.0302668377929871e+02
3.0295606870216261e+02
3.0295606870216261e+02
3.0279063686291272e+02
3.0279063686291272e+02
3.0275647571428078e+02
3.0275647571428078e+02
3.0245376358565557e+02
3.0245376358565557e+02

