# vtk DataFile Version 2.0

ASCII

DATASET UNSTRUCTURED_GRID

POINTS 80 double 

1.0566243270259354e-02  0.0000000000000000e+00  1.0566243270259354e-02
1.0566243270259354e-02  0.0000000000000000e+00  3.9433756729740643e-02
3.9433756729740643e-02  0.0000000000000000e+00  1.0566243270259354e-02
3.9433756729740643e-02  0.0000000000000000e+00  3.9433756729740643e-02
6.0566243270259362e-02  0.0000000000000000e+00  1.0566243270259354e-02
6.0566243270259362e-02  0.0000000000000000e+00  3.9433756729740643e-02
8.9433756729740646e-02  0.0000000000000000e+00  1.0566243270259354e-02
8.9433756729740646e-02  0.0000000000000000e+00  3.9433756729740643e-02
1.1056624327025935e-01  0.0000000000000000e+00  1.0566243270259354e-02
1.1056624327025935e-01  0.0000000000000000e+00  3.9433756729740643e-02
1.3943375672974065e-01  0.0000000000000000e+00  1.0566243270259354e-02
1.3943375672974065e-01  0.0000000000000000e+00  3.9433756729740643e-02
1.6056624327025937e-01  0.0000000000000000e+00  1.0566243270259354e-02
1.6056624327025937e-01  0.0000000000000000e+00  3.9433756729740643e-02
1.8943375672974067e-01  0.0000000000000000e+00  1.0566243270259354e-02
1.8943375672974067e-01  0.0000000000000000e+00  3.9433756729740643e-02
2.1056624327025936e-01  0.0000000000000000e+00  1.0566243270259354e-02
2.1056624327025936e-01  0.0000000000000000e+00  3.9433756729740643e-02
2.3943375672974065e-01  0.0000000000000000e+00  1.0566243270259354e-02
2.3943375672974065e-01  0.0000000000000000e+00  3.9433756729740643e-02
2.6056624327025935e-01  0.0000000000000000e+00  1.0566243270259354e-02
2.6056624327025935e-01  0.0000000000000000e+00  3.9433756729740643e-02
2.8943375672974064e-01  0.0000000000000000e+00  1.0566243270259354e-02
2.8943375672974064e-01  0.0000000000000000e+00  3.9433756729740643e-02
3.1056624327025939e-01  0.0000000000000000e+00  1.0566243270259354e-02
3.1056624327025939e-01  0.0000000000000000e+00  3.9433756729740643e-02
3.3943375672974069e-01  0.0000000000000000e+00  1.0566243270259354e-02
3.3943375672974069e-01  0.0000000000000000e+00  3.9433756729740643e-02
3.6056624327025938e-01  0.0000000000000000e+00  1.0566243270259354e-02
3.6056624327025938e-01  0.0000000000000000e+00  3.9433756729740643e-02
3.8943375672974068e-01  0.0000000000000000e+00  1.0566243270259354e-02
3.8943375672974068e-01  0.0000000000000000e+00  3.9433756729740643e-02
4.1056624327025937e-01  0.0000000000000000e+00  1.0566243270259354e-02
4.1056624327025937e-01  0.0000000000000000e+00  3.9433756729740643e-02
4.3943375672974067e-01  0.0000000000000000e+00  1.0566243270259354e-02
4.3943375672974067e-01  0.0000000000000000e+00  3.9433756729740643e-02
4.6056624327025936e-01  0.0000000000000000e+00  1.0566243270259354e-02
4.6056624327025936e-01  0.0000000000000000e+00  3.9433756729740643e-02
4.8943375672974065e-01  0.0000000000000000e+00  1.0566243270259354e-02
4.8943375672974065e-01  0.0000000000000000e+00  3.9433756729740643e-02
5.1056624327025935e-01  0.0000000000000000e+00  1.0566243270259354e-02
5.1056624327025935e-01  0.0000000000000000e+00  3.9433756729740643e-02
5.3943375672974070e-01  0.0000000000000000e+00  1.0566243270259354e-02
5.3943375672974070e-01  0.0000000000000000e+00  3.9433756729740643e-02
5.6056624327025939e-01  0.0000000000000000e+00  1.0566243270259354e-02
5.6056624327025939e-01  0.0000000000000000e+00  3.9433756729740643e-02
5.8943375672974063e-01  0.0000000000000000e+00  1.0566243270259354e-02
5.8943375672974063e-01  0.0000000000000000e+00  3.9433756729740643e-02
6.1056624327025943e-01  0.0000000000000000e+00  1.0566243270259354e-02
6.1056624327025943e-01  0.0000000000000000e+00  3.9433756729740643e-02
6.3943375672974068e-01  0.0000000000000000e+00  1.0566243270259354e-02
6.3943375672974068e-01  0.0000000000000000e+00  3.9433756729740643e-02
6.6056624327025937e-01  0.0000000000000000e+00  1.0566243270259354e-02
6.6056624327025937e-01  0.0000000000000000e+00  3.9433756729740643e-02
6.8943375672974072e-01  0.0000000000000000e+00  1.0566243270259354e-02
6.8943375672974072e-01  0.0000000000000000e+00  3.9433756729740643e-02
7.1056624327025941e-01  0.0000000000000000e+00  1.0566243270259354e-02
7.1056624327025941e-01  0.0000000000000000e+00  3.9433756729740643e-02
7.3943375672974065e-01  0.0000000000000000e+00  1.0566243270259354e-02
7.3943375672974065e-01  0.0000000000000000e+00  3.9433756729740643e-02
7.6056624327025935e-01  0.0000000000000000e+00  1.0566243270259354e-02
7.6056624327025935e-01  0.0000000000000000e+00  3.9433756729740643e-02
7.8943375672974070e-01  0.0000000000000000e+00  1.0566243270259354e-02
7.8943375672974070e-01  0.0000000000000000e+00  3.9433756729740643e-02
8.1056624327025950e-01  0.0000000000000000e+00  1.0566243270259354e-02
8.1056624327025950e-01  0.0000000000000000e+00  3.9433756729740643e-02
8.3943375672974063e-01  0.0000000000000000e+00  1.0566243270259354e-02
8.3943375672974063e-01  0.0000000000000000e+00  3.9433756729740643e-02
8.6056624327025943e-01  0.0000000000000000e+00  1.0566243270259354e-02
8.6056624327025943e-01  0.0000000000000000e+00  3.9433756729740643e-02
8.8943375672974057e-01  0.0000000000000000e+00  1.0566243270259354e-02
8.8943375672974057e-01  0.0000000000000000e+00  3.9433756729740643e-02
9.1056624327025948e-01  0.0000000000000000e+00  1.0566243270259354e-02
9.1056624327025948e-01  0.0000000000000000e+00  3.9433756729740643e-02
9.3943375672974061e-01  0.0000000000000000e+00  1.0566243270259354e-02
9.3943375672974061e-01  0.0000000000000000e+00  3.9433756729740643e-02
9.6056624327025952e-01  0.0000000000000000e+00  1.0566243270259354e-02
9.6056624327025952e-01  0.0000000000000000e+00  3.9433756729740643e-02
9.8943375672974065e-01  0.0000000000000000e+00  1.0566243270259354e-02
9.8943375672974065e-01  0.0000000000000000e+00  3.9433756729740643e-02

CELLS 0 0


CELL_TYPES 0


POINT_DATA 80

VECTORS VertexNormals double

0.0000000000000000e+00 0.0000000000000000e+00 0.0000000000000000e+00 
0.0000000000000000e+00 0.0000000000000000e+00 0.0000000000000000e+00 
0.0000000000000000e+00 0.0000000000000000e+00 0.0000000000000000e+00 
0.0000000000000000e+00 0.0000000000000000e+00 0.0000000000000000e+00 
0.0000000000000000e+00 0.0000000000000000e+00 0.0000000000000000e+00 
0.0000000000000000e+00 0.0000000000000000e+00 0.0000000000000000e+00 
0.0000000000000000e+00 0.0000000000000000e+00 0.0000000000000000e+00 
0.0000000000000000e+00 0.0000000000000000e+00 0.0000000000000000e+00 
0.0000000000000000e+00 0.0000000000000000e+00 0.0000000000000000e+00 
0.0000000000000000e+00 0.0000000000000000e+00 0.0000000000000000e+00 
0.0000000000000000e+00 0.0000000000000000e+00 0.0000000000000000e+00 
0.0000000000000000e+00 0.0000000000000000e+00 0.0000000000000000e+00 
0.0000000000000000e+00 0.0000000000000000e+00 0.0000000000000000e+00 
0.0000000000000000e+00 0.0000000000000000e+00 0.0000000000000000e+00 
0.0000000000000000e+00 0.0000000000000000e+00 0.0000000000000000e+00 
0.0000000000000000e+00 0.0000000000000000e+00 0.0000000000000000e+00 
0.0000000000000000e+00 0.0000000000000000e+00 0.0000000000000000e+00 
0.0000000000000000e+00 0.0000000000000000e+00 0.0000000000000000e+00 
0.0000000000000000e+00 0.0000000000000000e+00 0.0000000000000000e+00 
0.0000000000000000e+00 0.0000000000000000e+00 0.0000000000000000e+00 
0.0000000000000000e+00 0.0000000000000000e+00 0.0000000000000000e+00 
0.0000000000000000e+00 0.0000000000000000e+00 0.0000000000000000e+00 
0.0000000000000000e+00 0.0000000000000000e+00 0.0000000000000000e+00 
0.0000000000000000e+00 0.0000000000000000e+00 0.0000000000000000e+00 
0.0000000000000000e+00 0.0000000000000000e+00 0.0000000000000000e+00 
0.0000000000000000e+00 0.0000000000000000e+00 0.0000000000000000e+00 
0.0000000000000000e+00 0.0000000000000000e+00 0.0000000000000000e+00 
0.0000000000000000e+00 0.0000000000000000e+00 0.0000000000000000e+00 
0.0000000000000000e+00 0.0000000000000000e+00 0.0000000000000000e+00 
0.0000000000000000e+00 0.0000000000000000e+00 0.0000000000000000e+00 
0.0000000000000000e+00 0.0000000000000000e+00 0.0000000000000000e+00 
0.0000000000000000e+00 0.0000000000000000e+00 0.0000000000000000e+00 
0.0000000000000000e+00 0.0000000000000000e+00 0.0000000000000000e+00 
0.0000000000000000e+00 0.0000000000000000e+00 0.0000000000000000e+00 
0.0000000000000000e+00 0.0000000000000000e+00 0.0000000000000000e+00 
0.0000000000000000e+00 0.0000000000000000e+00 0.0000000000000000e+00 
0.0000000000000000e+00 0.0000000000000000e+00 0.0000000000000000e+00 
0.0000000000000000e+00 0.0000000000000000e+00 0.0000000000000000e+00 
0.0000000000000000e+00 0.0000000000000000e+00 0.0000000000000000e+00 
0.0000000000000000e+00 0.0000000000000000e+00 0.0000000000000000e+00 
0.0000000000000000e+00 0.0000000000000000e+00 0.0000000000000000e+00 
0.0000000000000000e+00 0.0000000000000000e+00 0.0000000000000000e+00 
0.0000000000000000e+00 0.0000000000000000e+00 0.0000000000000000e+00 
0.0000000000000000e+00 0.0000000000000000e+00 0.0000000000000000e+00 
0.0000000000000000e+00 0.0000000000000000e+00 0.0000000000000000e+00 
0.0000000000000000e+00 0.0000000000000000e+00 0.0000000000000000e+00 
0.0000000000000000e+00 0.0000000000000000e+00 0.0000000000000000e+00 
0.0000000000000000e+00 0.0000000000000000e+00 0.0000000000000000e+00 
0.0000000000000000e+00 0.0000000000000000e+00 0.0000000000000000e+00 
0.0000000000000000e+00 0.0000000000000000e+00 0.0000000000000000e+00 
0.0000000000000000e+00 0.0000000000000000e+00 0.0000000000000000e+00 
0.0000000000000000e+00 0.0000000000000000e+00 0.0000000000000000e+00 
0.0000000000000000e+00 0.0000000000000000e+00 0.0000000000000000e+00 
0.0000000000000000e+00 0.0000000000000000e+00 0.0000000000000000e+00 
0.0000000000000000e+00 0.0000000000000000e+00 0.0000000000000000e+00 
0.0000000000000000e+00 0.0000000000000000e+00 0.0000000000000000e+00 
0.0000000000000000e+00 0.0000000000000000e+00 0.0000000000000000e+00 
0.0000000000000000e+00 0.0000000000000000e+00 0.0000000000000000e+00 
0.0000000000000000e+00 0.0000000000000000e+00 0.0000000000000000e+00 
0.0000000000000000e+00 0.0000000000000000e+00 0.0000000000000000e+00 
0.0000000000000000e+00 0.0000000000000000e+00 0.0000000000000000e+00 
0.0000000000000000e+00 0.0000000000000000e+00 0.0000000000000000e+00 
0.0000000000000000e+00 0.0000000000000000e+00 0.0000000000000000e+00 
0.0000000000000000e+00 0.0000000000000000e+00 0.0000000000000000e+00 
0.0000000000000000e+00 0.0000000000000000e+00 0.0000000000000000e+00 
0.0000000000000000e+00 0.0000000000000000e+00 0.0000000000000000e+00 
0.0000000000000000e+00 0.0000000000000000e+00 0.0000000000000000e+00 
0.0000000000000000e+00 0.0000000000000000e+00 0.0000000000000000e+00 
0.0000000000000000e+00 0.0000000000000000e+00 0.0000000000000000e+00 
0.0000000000000000e+00 0.0000000000000000e+00 0.0000000000000000e+00 
0.0000000000000000e+00 0.0000000000000000e+00 0.0000000000000000e+00 
0.0000000000000000e+00 0.0000000000000000e+00 0.0000000000000000e+00 
0.0000000000000000e+00 0.0000000000000000e+00 0.0000000000000000e+00 
0.0000000000000000e+00 0.0000000000000000e+00 0.0000000000000000e+00 
0.0000000000000000e+00 0.0000000000000000e+00 0.0000000000000000e+00 
0.0000000000000000e+00 0.0000000000000000e+00 0.0000000000000000e+00 
0.0000000000000000e+00 0.0000000000000000e+00 0.0000000000000000e+00 
0.0000000000000000e+00 0.0000000000000000e+00 0.0000000000000000e+00 
0.0000000000000000e+00 0.0000000000000000e+00 0.0000000000000000e+00 
0.0000000000000000e+00 0.0000000000000000e+00 0.0000000000000000e+00 

SCALARS Temperature double
LOOKUP_TABLE default
3.0196096256309346e+02
3.0196096256309346e+02
3.0222250677973386e+02
3.0222250677973386e+02
3.0230953074274288e+02
3.0230953074274288e+02
3.0245528231927744e+02
3.0245528231927744e+02
3.0252933016209596e+02
3.0252933016209596e+02
3.0258978482959526e+02
3.0258978482959526e+02
3.0261865739066474e+02
3.0261865739066474e+02
3.0265493638179458e+02
3.0265493638179458e+02
3.0267424202953674e+02
3.0267424202953674e+02
3.0269092319228804e+02
3.0269092319228804e+02
3.0269936440636053e+02
3.0269936440636053e+02
3.0270952337212515e+02
3.0270952337212515e+02
3.0271345221921433e+02
3.0271345221921433e+02
3.0271848766772786e+02
3.0271848766772786e+02
3.0272147343177227e+02
3.0272147343177227e+02
3.0272390522860599e+02
3.0272390522860599e+02
3.0272508703218602e+02
3.0272508703218602e+02
3.0272662771237765e+02
3.0272662771237765e+02
3.0272727925206152e+02
3.0272727925206152e+02
3.0272753448337636e+02
3.0272753448337636e+02
3.0272769955166319e+02
3.0272769955166319e+02
3.0272793347503097e+02
3.0272793347503097e+02
3.0272773115846513e+02
3.0272773115846513e+02
3.0272659786350891e+02
3.0272659786350891e+02
3.0272603390307512e+02
3.0272603390307512e+02
3.0272472842992624e+02
3.0272472842992624e+02
3.0272344646807250e+02
3.0272344646807250e+02
3.0272013772220657e+02
3.0272013772220657e+02
3.0271757327881585e+02
3.0271757327881585e+02
3.0271236784928061e+02
3.0271236784928061e+02
3.0270762749013272e+02
3.0270762749013272e+02
3.0269668491599970e+02
3.0269668491599970e+02
3.0268626193405765e+02
3.0268626193405765e+02
3.0266228506533815e+02
3.0266228506533815e+02
3.0264261379864155e+02
3.0264261379864155e+02
3.0261113991963731e+02
3.0261113991963731e+02
3.0255365368413607e+02
3.0255365368413607e+02
3.0240975881775768e+02
3.0240975881775768e+02
3.0238188134532828e+02
3.0238188134532828e+02
3.0210058452597906e+02
3.0210058452597906e+02

