# vtk DataFile Version 2.0

ASCII

DATASET UNSTRUCTURED_GRID

POINTS 80 float 

1.0566243270259354e-02  0.0000000000000000e+00  1.0566243270259354e-02
1.0566243270259354e-02  0.0000000000000000e+00  3.9433756729740643e-02
3.9433756729740643e-02  0.0000000000000000e+00  1.0566243270259354e-02
3.9433756729740643e-02  0.0000000000000000e+00  3.9433756729740643e-02
6.0566243270259362e-02  0.0000000000000000e+00  1.0566243270259354e-02
6.0566243270259362e-02  0.0000000000000000e+00  3.9433756729740643e-02
8.9433756729740646e-02  0.0000000000000000e+00  1.0566243270259354e-02
8.9433756729740646e-02  0.0000000000000000e+00  3.9433756729740643e-02
1.1056624327025935e-01  0.0000000000000000e+00  1.0566243270259354e-02
1.1056624327025935e-01  0.0000000000000000e+00  3.9433756729740643e-02
1.3943375672974065e-01  0.0000000000000000e+00  1.0566243270259354e-02
1.3943375672974065e-01  0.0000000000000000e+00  3.9433756729740643e-02
1.6056624327025937e-01  0.0000000000000000e+00  1.0566243270259354e-02
1.6056624327025937e-01  0.0000000000000000e+00  3.9433756729740643e-02
1.8943375672974067e-01  0.0000000000000000e+00  1.0566243270259354e-02
1.8943375672974067e-01  0.0000000000000000e+00  3.9433756729740643e-02
2.1056624327025936e-01  0.0000000000000000e+00  1.0566243270259354e-02
2.1056624327025936e-01  0.0000000000000000e+00  3.9433756729740643e-02
2.3943375672974065e-01  0.0000000000000000e+00  1.0566243270259354e-02
2.3943375672974065e-01  0.0000000000000000e+00  3.9433756729740643e-02
2.6056624327025935e-01  0.0000000000000000e+00  1.0566243270259354e-02
2.6056624327025935e-01  0.0000000000000000e+00  3.9433756729740643e-02
2.8943375672974064e-01  0.0000000000000000e+00  1.0566243270259354e-02
2.8943375672974064e-01  0.0000000000000000e+00  3.9433756729740643e-02
3.1056624327025939e-01  0.0000000000000000e+00  1.0566243270259354e-02
3.1056624327025939e-01  0.0000000000000000e+00  3.9433756729740643e-02
3.3943375672974069e-01  0.0000000000000000e+00  1.0566243270259354e-02
3.3943375672974069e-01  0.0000000000000000e+00  3.9433756729740643e-02
3.6056624327025938e-01  0.0000000000000000e+00  1.0566243270259354e-02
3.6056624327025938e-01  0.0000000000000000e+00  3.9433756729740643e-02
3.8943375672974068e-01  0.0000000000000000e+00  1.0566243270259354e-02
3.8943375672974068e-01  0.0000000000000000e+00  3.9433756729740643e-02
4.1056624327025937e-01  0.0000000000000000e+00  1.0566243270259354e-02
4.1056624327025937e-01  0.0000000000000000e+00  3.9433756729740643e-02
4.3943375672974067e-01  0.0000000000000000e+00  1.0566243270259354e-02
4.3943375672974067e-01  0.0000000000000000e+00  3.9433756729740643e-02
4.6056624327025936e-01  0.0000000000000000e+00  1.0566243270259354e-02
4.6056624327025936e-01  0.0000000000000000e+00  3.9433756729740643e-02
4.8943375672974065e-01  0.0000000000000000e+00  1.0566243270259354e-02
4.8943375672974065e-01  0.0000000000000000e+00  3.9433756729740643e-02
5.1056624327025935e-01  0.0000000000000000e+00  1.0566243270259354e-02
5.1056624327025935e-01  0.0000000000000000e+00  3.9433756729740643e-02
5.3943375672974070e-01  0.0000000000000000e+00  1.0566243270259354e-02
5.3943375672974070e-01  0.0000000000000000e+00  3.9433756729740643e-02
5.6056624327025939e-01  0.0000000000000000e+00  1.0566243270259354e-02
5.6056624327025939e-01  0.0000000000000000e+00  3.9433756729740643e-02
5.8943375672974063e-01  0.0000000000000000e+00  1.0566243270259354e-02
5.8943375672974063e-01  0.0000000000000000e+00  3.9433756729740643e-02
6.1056624327025943e-01  0.0000000000000000e+00  1.0566243270259354e-02
6.1056624327025943e-01  0.0000000000000000e+00  3.9433756729740643e-02
6.3943375672974068e-01  0.0000000000000000e+00  1.0566243270259354e-02
6.3943375672974068e-01  0.0000000000000000e+00  3.9433756729740643e-02
6.6056624327025937e-01  0.0000000000000000e+00  1.0566243270259354e-02
6.6056624327025937e-01  0.0000000000000000e+00  3.9433756729740643e-02
6.8943375672974072e-01  0.0000000000000000e+00  1.0566243270259354e-02
6.8943375672974072e-01  0.0000000000000000e+00  3.9433756729740643e-02
7.1056624327025941e-01  0.0000000000000000e+00  1.0566243270259354e-02
7.1056624327025941e-01  0.0000000000000000e+00  3.9433756729740643e-02
7.3943375672974065e-01  0.0000000000000000e+00  1.0566243270259354e-02
7.3943375672974065e-01  0.0000000000000000e+00  3.9433756729740643e-02
7.6056624327025935e-01  0.0000000000000000e+00  1.0566243270259354e-02
7.6056624327025935e-01  0.0000000000000000e+00  3.9433756729740643e-02
7.8943375672974070e-01  0.0000000000000000e+00  1.0566243270259354e-02
7.8943375672974070e-01  0.0000000000000000e+00  3.9433756729740643e-02
8.1056624327025950e-01  0.0000000000000000e+00  1.0566243270259354e-02
8.1056624327025950e-01  0.0000000000000000e+00  3.9433756729740643e-02
8.3943375672974063e-01  0.0000000000000000e+00  1.0566243270259354e-02
8.3943375672974063e-01  0.0000000000000000e+00  3.9433756729740643e-02
8.6056624327025943e-01  0.0000000000000000e+00  1.0566243270259354e-02
8.6056624327025943e-01  0.0000000000000000e+00  3.9433756729740643e-02
8.8943375672974057e-01  0.0000000000000000e+00  1.0566243270259354e-02
8.8943375672974057e-01  0.0000000000000000e+00  3.9433756729740643e-02
9.1056624327025948e-01  0.0000000000000000e+00  1.0566243270259354e-02
9.1056624327025948e-01  0.0000000000000000e+00  3.9433756729740643e-02
9.3943375672974061e-01  0.0000000000000000e+00  1.0566243270259354e-02
9.3943375672974061e-01  0.0000000000000000e+00  3.9433756729740643e-02
9.6056624327025952e-01  0.0000000000000000e+00  1.0566243270259354e-02
9.6056624327025952e-01  0.0000000000000000e+00  3.9433756729740643e-02
9.8943375672974065e-01  0.0000000000000000e+00  1.0566243270259354e-02
9.8943375672974065e-01  0.0000000000000000e+00  3.9433756729740643e-02

CELLS 0 0


CELL_TYPES 0


POINT_DATA 80

VECTORS VertexNormals float

0.0000000000000000e+00 0.0000000000000000e+00 0.0000000000000000e+00 
0.0000000000000000e+00 0.0000000000000000e+00 0.0000000000000000e+00 
0.0000000000000000e+00 0.0000000000000000e+00 0.0000000000000000e+00 
0.0000000000000000e+00 0.0000000000000000e+00 0.0000000000000000e+00 
0.0000000000000000e+00 0.0000000000000000e+00 0.0000000000000000e+00 
0.0000000000000000e+00 0.0000000000000000e+00 0.0000000000000000e+00 
0.0000000000000000e+00 0.0000000000000000e+00 0.0000000000000000e+00 
0.0000000000000000e+00 0.0000000000000000e+00 0.0000000000000000e+00 
0.0000000000000000e+00 0.0000000000000000e+00 0.0000000000000000e+00 
0.0000000000000000e+00 0.0000000000000000e+00 0.0000000000000000e+00 
0.0000000000000000e+00 0.0000000000000000e+00 0.0000000000000000e+00 
0.0000000000000000e+00 0.0000000000000000e+00 0.0000000000000000e+00 
0.0000000000000000e+00 0.0000000000000000e+00 0.0000000000000000e+00 
0.0000000000000000e+00 0.0000000000000000e+00 0.0000000000000000e+00 
0.0000000000000000e+00 0.0000000000000000e+00 0.0000000000000000e+00 
0.0000000000000000e+00 0.0000000000000000e+00 0.0000000000000000e+00 
0.0000000000000000e+00 0.0000000000000000e+00 0.0000000000000000e+00 
0.0000000000000000e+00 0.0000000000000000e+00 0.0000000000000000e+00 
0.0000000000000000e+00 0.0000000000000000e+00 0.0000000000000000e+00 
0.0000000000000000e+00 0.0000000000000000e+00 0.0000000000000000e+00 
0.0000000000000000e+00 0.0000000000000000e+00 0.0000000000000000e+00 
0.0000000000000000e+00 0.0000000000000000e+00 0.0000000000000000e+00 
0.0000000000000000e+00 0.0000000000000000e+00 0.0000000000000000e+00 
0.0000000000000000e+00 0.0000000000000000e+00 0.0000000000000000e+00 
0.0000000000000000e+00 0.0000000000000000e+00 0.0000000000000000e+00 
0.0000000000000000e+00 0.0000000000000000e+00 0.0000000000000000e+00 
0.0000000000000000e+00 0.0000000000000000e+00 0.0000000000000000e+00 
0.0000000000000000e+00 0.0000000000000000e+00 0.0000000000000000e+00 
0.0000000000000000e+00 0.0000000000000000e+00 0.0000000000000000e+00 
0.0000000000000000e+00 0.0000000000000000e+00 0.0000000000000000e+00 
0.0000000000000000e+00 0.0000000000000000e+00 0.0000000000000000e+00 
0.0000000000000000e+00 0.0000000000000000e+00 0.0000000000000000e+00 
0.0000000000000000e+00 0.0000000000000000e+00 0.0000000000000000e+00 
0.0000000000000000e+00 0.0000000000000000e+00 0.0000000000000000e+00 
0.0000000000000000e+00 0.0000000000000000e+00 0.0000000000000000e+00 
0.0000000000000000e+00 0.0000000000000000e+00 0.0000000000000000e+00 
0.0000000000000000e+00 0.0000000000000000e+00 0.0000000000000000e+00 
0.0000000000000000e+00 0.0000000000000000e+00 0.0000000000000000e+00 
0.0000000000000000e+00 0.0000000000000000e+00 0.0000000000000000e+00 
0.0000000000000000e+00 0.0000000000000000e+00 0.0000000000000000e+00 
0.0000000000000000e+00 0.0000000000000000e+00 0.0000000000000000e+00 
0.0000000000000000e+00 0.0000000000000000e+00 0.0000000000000000e+00 
0.0000000000000000e+00 0.0000000000000000e+00 0.0000000000000000e+00 
0.0000000000000000e+00 0.0000000000000000e+00 0.0000000000000000e+00 
0.0000000000000000e+00 0.0000000000000000e+00 0.0000000000000000e+00 
0.0000000000000000e+00 0.0000000000000000e+00 0.0000000000000000e+00 
0.0000000000000000e+00 0.0000000000000000e+00 0.0000000000000000e+00 
0.0000000000000000e+00 0.0000000000000000e+00 0.0000000000000000e+00 
0.0000000000000000e+00 0.0000000000000000e+00 0.0000000000000000e+00 
0.0000000000000000e+00 0.0000000000000000e+00 0.0000000000000000e+00 
0.0000000000000000e+00 0.0000000000000000e+00 0.0000000000000000e+00 
0.0000000000000000e+00 0.0000000000000000e+00 0.0000000000000000e+00 
0.0000000000000000e+00 0.0000000000000000e+00 0.0000000000000000e+00 
0.0000000000000000e+00 0.0000000000000000e+00 0.0000000000000000e+00 
0.0000000000000000e+00 0.0000000000000000e+00 0.0000000000000000e+00 
0.0000000000000000e+00 0.0000000000000000e+00 0.0000000000000000e+00 
0.0000000000000000e+00 0.0000000000000000e+00 0.0000000000000000e+00 
0.0000000000000000e+00 0.0000000000000000e+00 0.0000000000000000e+00 
0.0000000000000000e+00 0.0000000000000000e+00 0.0000000000000000e+00 
0.0000000000000000e+00 0.0000000000000000e+00 0.0000000000000000e+00 
0.0000000000000000e+00 0.0000000000000000e+00 0.0000000000000000e+00 
0.0000000000000000e+00 0.0000000000000000e+00 0.0000000000000000e+00 
0.0000000000000000e+00 0.0000000000000000e+00 0.0000000000000000e+00 
0.0000000000000000e+00 0.0000000000000000e+00 0.0000000000000000e+00 
0.0000000000000000e+00 0.0000000000000000e+00 0.0000000000000000e+00 
0.0000000000000000e+00 0.0000000000000000e+00 0.0000000000000000e+00 
0.0000000000000000e+00 0.0000000000000000e+00 0.0000000000000000e+00 
0.0000000000000000e+00 0.0000000000000000e+00 0.0000000000000000e+00 
0.0000000000000000e+00 0.0000000000000000e+00 0.0000000000000000e+00 
0.0000000000000000e+00 0.0000000000000000e+00 0.0000000000000000e+00 
0.0000000000000000e+00 0.0000000000000000e+00 0.0000000000000000e+00 
0.0000000000000000e+00 0.0000000000000000e+00 0.0000000000000000e+00 
0.0000000000000000e+00 0.0000000000000000e+00 0.0000000000000000e+00 
0.0000000000000000e+00 0.0000000000000000e+00 0.0000000000000000e+00 
0.0000000000000000e+00 0.0000000000000000e+00 0.0000000000000000e+00 
0.0000000000000000e+00 0.0000000000000000e+00 0.0000000000000000e+00 
0.0000000000000000e+00 0.0000000000000000e+00 0.0000000000000000e+00 
0.0000000000000000e+00 0.0000000000000000e+00 0.0000000000000000e+00 
0.0000000000000000e+00 0.0000000000000000e+00 0.0000000000000000e+00 
0.0000000000000000e+00 0.0000000000000000e+00 0.0000000000000000e+00 

SCALARS Temperature float
LOOKUP_TABLE default
3.0271114095550752e+02
3.0271114095550752e+02
3.0302741957866550e+02
3.0302741957866550e+02
3.0315489879682804e+02
3.0315489879682804e+02
3.0336532540165524e+02
3.0336532540165524e+02
3.0348515187700309e+02
3.0348515187700309e+02
3.0360588874287970e+02
3.0360588874287970e+02
3.0367283844876795e+02
3.0367283844876795e+02
3.0376134874050962e+02
3.0376134874050962e+02
3.0381688982594204e+02
3.0381688982594204e+02
3.0387380455156239e+02
3.0387380455156239e+02
3.0390738421932519e+02
3.0390738421932519e+02
3.0395165324694608e+02
3.0395165324694608e+02
3.0397097377250628e+02
3.0397097377250628e+02
3.0399897541737835e+02
3.0399897541737835e+02
3.0401721772720543e+02
3.0401721772720543e+02
3.0403498978140112e+02
3.0403498978140112e+02
3.0404420929542823e+02
3.0404420929542823e+02
3.0405537088260741e+02
3.0405537088260741e+02
3.0406174367999324e+02
3.0406174367999324e+02
3.0406757513154292e+02
3.0406757513154292e+02
3.0407061960850467e+02
3.0407061960850467e+02
3.0407305922289930e+02
3.0407305922289930e+02
3.0407333132062786e+02
3.0407333132062786e+02
3.0407178681785609e+02
3.0407178681785609e+02
3.0407008853042061e+02
3.0407008853042061e+02
3.0406427820201048e+02
3.0406427820201048e+02
3.0405956299439106e+02
3.0405956299439106e+02
3.0404931761852288e+02
3.0404931761852288e+02
3.0404044393534014e+02
3.0404044393534014e+02
3.0402277941351429e+02
3.0402277941351429e+02
3.0400772198192391e+02
3.0400772198192391e+02
3.0397788502555187e+02
3.0397788502555187e+02
3.0395191909969742e+02
3.0395191909969742e+02
3.0390033132441761e+02
3.0390033132441761e+02
3.0385705206537381e+02
3.0385705206537381e+02
3.0379606706970168e+02
3.0379606706970168e+02
3.0370639676898389e+02
3.0370639676898389e+02
3.0351283348235899e+02
3.0351283348235899e+02
3.0347013867828434e+02
3.0347013867828434e+02
3.0314395414887872e+02
3.0314395414887872e+02

