# vtk DataFile Version 2.0

ASCII

DATASET UNSTRUCTURED_GRID

POINTS 80 double 

1.0566243270259354e-02  0.0000000000000000e+00  1.0566243270259354e-02
1.0566243270259354e-02  0.0000000000000000e+00  3.9433756729740643e-02
3.9433756729740643e-02  0.0000000000000000e+00  1.0566243270259354e-02
3.9433756729740643e-02  0.0000000000000000e+00  3.9433756729740643e-02
6.0566243270259362e-02  0.0000000000000000e+00  1.0566243270259354e-02
6.0566243270259362e-02  0.0000000000000000e+00  3.9433756729740643e-02
8.9433756729740646e-02  0.0000000000000000e+00  1.0566243270259354e-02
8.9433756729740646e-02  0.0000000000000000e+00  3.9433756729740643e-02
1.1056624327025935e-01  0.0000000000000000e+00  1.0566243270259354e-02
1.1056624327025935e-01  0.0000000000000000e+00  3.9433756729740643e-02
1.3943375672974065e-01  0.0000000000000000e+00  1.0566243270259354e-02
1.3943375672974065e-01  0.0000000000000000e+00  3.9433756729740643e-02
1.6056624327025937e-01  0.0000000000000000e+00  1.0566243270259354e-02
1.6056624327025937e-01  0.0000000000000000e+00  3.9433756729740643e-02
1.8943375672974067e-01  0.0000000000000000e+00  1.0566243270259354e-02
1.8943375672974067e-01  0.0000000000000000e+00  3.9433756729740643e-02
2.1056624327025936e-01  0.0000000000000000e+00  1.0566243270259354e-02
2.1056624327025936e-01  0.0000000000000000e+00  3.9433756729740643e-02
2.3943375672974065e-01  0.0000000000000000e+00  1.0566243270259354e-02
2.3943375672974065e-01  0.0000000000000000e+00  3.9433756729740643e-02
2.6056624327025935e-01  0.0000000000000000e+00  1.0566243270259354e-02
2.6056624327025935e-01  0.0000000000000000e+00  3.9433756729740643e-02
2.8943375672974064e-01  0.0000000000000000e+00  1.0566243270259354e-02
2.8943375672974064e-01  0.0000000000000000e+00  3.9433756729740643e-02
3.1056624327025939e-01  0.0000000000000000e+00  1.0566243270259354e-02
3.1056624327025939e-01  0.0000000000000000e+00  3.9433756729740643e-02
3.3943375672974069e-01  0.0000000000000000e+00  1.0566243270259354e-02
3.3943375672974069e-01  0.0000000000000000e+00  3.9433756729740643e-02
3.6056624327025938e-01  0.0000000000000000e+00  1.0566243270259354e-02
3.6056624327025938e-01  0.0000000000000000e+00  3.9433756729740643e-02
3.8943375672974068e-01  0.0000000000000000e+00  1.0566243270259354e-02
3.8943375672974068e-01  0.0000000000000000e+00  3.9433756729740643e-02
4.1056624327025937e-01  0.0000000000000000e+00  1.0566243270259354e-02
4.1056624327025937e-01  0.0000000000000000e+00  3.9433756729740643e-02
4.3943375672974067e-01  0.0000000000000000e+00  1.0566243270259354e-02
4.3943375672974067e-01  0.0000000000000000e+00  3.9433756729740643e-02
4.6056624327025936e-01  0.0000000000000000e+00  1.0566243270259354e-02
4.6056624327025936e-01  0.0000000000000000e+00  3.9433756729740643e-02
4.8943375672974065e-01  0.0000000000000000e+00  1.0566243270259354e-02
4.8943375672974065e-01  0.0000000000000000e+00  3.9433756729740643e-02
5.1056624327025935e-01  0.0000000000000000e+00  1.0566243270259354e-02
5.1056624327025935e-01  0.0000000000000000e+00  3.9433756729740643e-02
5.3943375672974070e-01  0.0000000000000000e+00  1.0566243270259354e-02
5.3943375672974070e-01  0.0000000000000000e+00  3.9433756729740643e-02
5.6056624327025939e-01  0.0000000000000000e+00  1.0566243270259354e-02
5.6056624327025939e-01  0.0000000000000000e+00  3.9433756729740643e-02
5.8943375672974063e-01  0.0000000000000000e+00  1.0566243270259354e-02
5.8943375672974063e-01  0.0000000000000000e+00  3.9433756729740643e-02
6.1056624327025943e-01  0.0000000000000000e+00  1.0566243270259354e-02
6.1056624327025943e-01  0.0000000000000000e+00  3.9433756729740643e-02
6.3943375672974068e-01  0.0000000000000000e+00  1.0566243270259354e-02
6.3943375672974068e-01  0.0000000000000000e+00  3.9433756729740643e-02
6.6056624327025937e-01  0.0000000000000000e+00  1.0566243270259354e-02
6.6056624327025937e-01  0.0000000000000000e+00  3.9433756729740643e-02
6.8943375672974072e-01  0.0000000000000000e+00  1.0566243270259354e-02
6.8943375672974072e-01  0.0000000000000000e+00  3.9433756729740643e-02
7.1056624327025941e-01  0.0000000000000000e+00  1.0566243270259354e-02
7.1056624327025941e-01  0.0000000000000000e+00  3.9433756729740643e-02
7.3943375672974065e-01  0.0000000000000000e+00  1.0566243270259354e-02
7.3943375672974065e-01  0.0000000000000000e+00  3.9433756729740643e-02
7.6056624327025935e-01  0.0000000000000000e+00  1.0566243270259354e-02
7.6056624327025935e-01  0.0000000000000000e+00  3.9433756729740643e-02
7.8943375672974070e-01  0.0000000000000000e+00  1.0566243270259354e-02
7.8943375672974070e-01  0.0000000000000000e+00  3.9433756729740643e-02
8.1056624327025950e-01  0.0000000000000000e+00  1.0566243270259354e-02
8.1056624327025950e-01  0.0000000000000000e+00  3.9433756729740643e-02
8.3943375672974063e-01  0.0000000000000000e+00  1.0566243270259354e-02
8.3943375672974063e-01  0.0000000000000000e+00  3.9433756729740643e-02
8.6056624327025943e-01  0.0000000000000000e+00  1.0566243270259354e-02
8.6056624327025943e-01  0.0000000000000000e+00  3.9433756729740643e-02
8.8943375672974057e-01  0.0000000000000000e+00  1.0566243270259354e-02
8.8943375672974057e-01  0.0000000000000000e+00  3.9433756729740643e-02
9.1056624327025948e-01  0.0000000000000000e+00  1.0566243270259354e-02
9.1056624327025948e-01  0.0000000000000000e+00  3.9433756729740643e-02
9.3943375672974061e-01  0.0000000000000000e+00  1.0566243270259354e-02
9.3943375672974061e-01  0.0000000000000000e+00  3.9433756729740643e-02
9.6056624327025952e-01  0.0000000000000000e+00  1.0566243270259354e-02
9.6056624327025952e-01  0.0000000000000000e+00  3.9433756729740643e-02
9.8943375672974065e-01  0.0000000000000000e+00  1.0566243270259354e-02
9.8943375672974065e-01  0.0000000000000000e+00  3.9433756729740643e-02

CELLS 0 0


CELL_TYPES 0


POINT_DATA 80

VECTORS VertexNormals double

0.0000000000000000e+00 0.0000000000000000e+00 0.0000000000000000e+00 
0.0000000000000000e+00 0.0000000000000000e+00 0.0000000000000000e+00 
0.0000000000000000e+00 0.0000000000000000e+00 0.0000000000000000e+00 
0.0000000000000000e+00 0.0000000000000000e+00 0.0000000000000000e+00 
0.0000000000000000e+00 0.0000000000000000e+00 0.0000000000000000e+00 
0.0000000000000000e+00 0.0000000000000000e+00 0.0000000000000000e+00 
0.0000000000000000e+00 0.0000000000000000e+00 0.0000000000000000e+00 
0.0000000000000000e+00 0.0000000000000000e+00 0.0000000000000000e+00 
0.0000000000000000e+00 0.0000000000000000e+00 0.0000000000000000e+00 
0.0000000000000000e+00 0.0000000000000000e+00 0.0000000000000000e+00 
0.0000000000000000e+00 0.0000000000000000e+00 0.0000000000000000e+00 
0.0000000000000000e+00 0.0000000000000000e+00 0.0000000000000000e+00 
0.0000000000000000e+00 0.0000000000000000e+00 0.0000000000000000e+00 
0.0000000000000000e+00 0.0000000000000000e+00 0.0000000000000000e+00 
0.0000000000000000e+00 0.0000000000000000e+00 0.0000000000000000e+00 
0.0000000000000000e+00 0.0000000000000000e+00 0.0000000000000000e+00 
0.0000000000000000e+00 0.0000000000000000e+00 0.0000000000000000e+00 
0.0000000000000000e+00 0.0000000000000000e+00 0.0000000000000000e+00 
0.0000000000000000e+00 0.0000000000000000e+00 0.0000000000000000e+00 
0.0000000000000000e+00 0.0000000000000000e+00 0.0000000000000000e+00 
0.0000000000000000e+00 0.0000000000000000e+00 0.0000000000000000e+00 
0.0000000000000000e+00 0.0000000000000000e+00 0.0000000000000000e+00 
0.0000000000000000e+00 0.0000000000000000e+00 0.0000000000000000e+00 
0.0000000000000000e+00 0.0000000000000000e+00 0.0000000000000000e+00 
0.0000000000000000e+00 0.0000000000000000e+00 0.0000000000000000e+00 
0.0000000000000000e+00 0.0000000000000000e+00 0.0000000000000000e+00 
0.0000000000000000e+00 0.0000000000000000e+00 0.0000000000000000e+00 
0.0000000000000000e+00 0.0000000000000000e+00 0.0000000000000000e+00 
0.0000000000000000e+00 0.0000000000000000e+00 0.0000000000000000e+00 
0.0000000000000000e+00 0.0000000000000000e+00 0.0000000000000000e+00 
0.0000000000000000e+00 0.0000000000000000e+00 0.0000000000000000e+00 
0.0000000000000000e+00 0.0000000000000000e+00 0.0000000000000000e+00 
0.0000000000000000e+00 0.0000000000000000e+00 0.0000000000000000e+00 
0.0000000000000000e+00 0.0000000000000000e+00 0.0000000000000000e+00 
0.0000000000000000e+00 0.0000000000000000e+00 0.0000000000000000e+00 
0.0000000000000000e+00 0.0000000000000000e+00 0.0000000000000000e+00 
0.0000000000000000e+00 0.0000000000000000e+00 0.0000000000000000e+00 
0.0000000000000000e+00 0.0000000000000000e+00 0.0000000000000000e+00 
0.0000000000000000e+00 0.0000000000000000e+00 0.0000000000000000e+00 
0.0000000000000000e+00 0.0000000000000000e+00 0.0000000000000000e+00 
0.0000000000000000e+00 0.0000000000000000e+00 0.0000000000000000e+00 
0.0000000000000000e+00 0.0000000000000000e+00 0.0000000000000000e+00 
0.0000000000000000e+00 0.0000000000000000e+00 0.0000000000000000e+00 
0.0000000000000000e+00 0.0000000000000000e+00 0.0000000000000000e+00 
0.0000000000000000e+00 0.0000000000000000e+00 0.0000000000000000e+00 
0.0000000000000000e+00 0.0000000000000000e+00 0.0000000000000000e+00 
0.0000000000000000e+00 0.0000000000000000e+00 0.0000000000000000e+00 
0.0000000000000000e+00 0.0000000000000000e+00 0.0000000000000000e+00 
0.0000000000000000e+00 0.0000000000000000e+00 0.0000000000000000e+00 
0.0000000000000000e+00 0.0000000000000000e+00 0.0000000000000000e+00 
0.0000000000000000e+00 0.0000000000000000e+00 0.0000000000000000e+00 
0.0000000000000000e+00 0.0000000000000000e+00 0.0000000000000000e+00 
0.0000000000000000e+00 0.0000000000000000e+00 0.0000000000000000e+00 
0.0000000000000000e+00 0.0000000000000000e+00 0.0000000000000000e+00 
0.0000000000000000e+00 0.0000000000000000e+00 0.0000000000000000e+00 
0.0000000000000000e+00 0.0000000000000000e+00 0.0000000000000000e+00 
0.0000000000000000e+00 0.0000000000000000e+00 0.0000000000000000e+00 
0.0000000000000000e+00 0.0000000000000000e+00 0.0000000000000000e+00 
0.0000000000000000e+00 0.0000000000000000e+00 0.0000000000000000e+00 
0.0000000000000000e+00 0.0000000000000000e+00 0.0000000000000000e+00 
0.0000000000000000e+00 0.0000000000000000e+00 0.0000000000000000e+00 
0.0000000000000000e+00 0.0000000000000000e+00 0.0000000000000000e+00 
0.0000000000000000e+00 0.0000000000000000e+00 0.0000000000000000e+00 
0.0000000000000000e+00 0.0000000000000000e+00 0.0000000000000000e+00 
0.0000000000000000e+00 0.0000000000000000e+00 0.0000000000000000e+00 
0.0000000000000000e+00 0.0000000000000000e+00 0.0000000000000000e+00 
0.0000000000000000e+00 0.0000000000000000e+00 0.0000000000000000e+00 
0.0000000000000000e+00 0.0000000000000000e+00 0.0000000000000000e+00 
0.0000000000000000e+00 0.0000000000000000e+00 0.0000000000000000e+00 
0.0000000000000000e+00 0.0000000000000000e+00 0.0000000000000000e+00 
0.0000000000000000e+00 0.0000000000000000e+00 0.0000000000000000e+00 
0.0000000000000000e+00 0.0000000000000000e+00 0.0000000000000000e+00 
0.0000000000000000e+00 0.0000000000000000e+00 0.0000000000000000e+00 
0.0000000000000000e+00 0.0000000000000000e+00 0.0000000000000000e+00 
0.0000000000000000e+00 0.0000000000000000e+00 0.0000000000000000e+00 
0.0000000000000000e+00 0.0000000000000000e+00 0.0000000000000000e+00 
0.0000000000000000e+00 0.0000000000000000e+00 0.0000000000000000e+00 
0.0000000000000000e+00 0.0000000000000000e+00 0.0000000000000000e+00 
0.0000000000000000e+00 0.0000000000000000e+00 0.0000000000000000e+00 
0.0000000000000000e+00 0.0000000000000000e+00 0.0000000000000000e+00 

SCALARS Temperature double
LOOKUP_TABLE default
3.0177087794598555e+02
3.0177087794598555e+02
3.0201480807781553e+02
3.0201480807781553e+02
3.0208964757190159e+02
3.0208964757190159e+02
3.0221634064626789e+02
3.0221634064626789e+02
3.0227786243206702e+02
3.0227786243206702e+02
3.0232358824396846e+02
3.0232358824396846e+02
3.0234406476079272e+02
3.0234406476079272e+02
3.0236981723421792e+02
3.0236981723421792e+02
3.0238282343229849e+02
3.0238282343229849e+02
3.0239338415744652e+02
3.0239338415744652e+02
3.0239846730227765e+02
3.0239846730227765e+02
3.0240450758365455e+02
3.0240450758365455e+02
3.0240682073309193e+02
3.0240682073309193e+02
3.0240973817192321e+02
3.0240973817192321e+02
3.0241145001884291e+02
3.0241145001884291e+02
3.0241273720564897e+02
3.0241273720564897e+02
3.0241339159097288e+02
3.0241339159097288e+02
3.0241432987933166e+02
3.0241432987933166e+02
3.0241467472769665e+02
3.0241467472769665e+02
3.0241468228192161e+02
3.0241468228192161e+02
3.0241475930888390e+02
3.0241475930888390e+02
3.0241499560745717e+02
3.0241499560745717e+02
3.0241484917990778e+02
3.0241484917990778e+02
3.0241395672783710e+02
3.0241395672783710e+02
3.0241360571850157e+02
3.0241360571850157e+02
3.0241298405493239e+02
3.0241298405493239e+02
3.0241217200823678e+02
3.0241217200823678e+02
3.0240982812049759e+02
3.0240982812049759e+02
3.0240819060699613e+02
3.0240819060699613e+02
3.0240503206841464e+02
3.0240503206841464e+02
3.0240200274678534e+02
3.0240200274678534e+02
3.0239450218638143e+02
3.0239450218638143e+02
3.0238717745557062e+02
3.0238717745557062e+02
3.0236957397926773e+02
3.0236957397926773e+02
3.0235561255840480e+02
3.0235561255840480e+02
3.0233194437167879e+02
3.0233194437167879e+02
3.0228404838255858e+02
3.0228404838255858e+02
3.0215722021280561e+02
3.0215722021280561e+02
3.0213422293370792e+02
3.0213422293370792e+02
3.0187113014476205e+02
3.0187113014476205e+02

