# vtk DataFile Version 2.0

ASCII

DATASET UNSTRUCTURED_GRID

POINTS 80 float 

1.0566243270259354e-02  0.0000000000000000e+00  1.0566243270259354e-02
1.0566243270259354e-02  0.0000000000000000e+00  3.9433756729740643e-02
3.9433756729740643e-02  0.0000000000000000e+00  1.0566243270259354e-02
3.9433756729740643e-02  0.0000000000000000e+00  3.9433756729740643e-02
6.0566243270259362e-02  0.0000000000000000e+00  1.0566243270259354e-02
6.0566243270259362e-02  0.0000000000000000e+00  3.9433756729740643e-02
8.9433756729740646e-02  0.0000000000000000e+00  1.0566243270259354e-02
8.9433756729740646e-02  0.0000000000000000e+00  3.9433756729740643e-02
1.1056624327025935e-01  0.0000000000000000e+00  1.0566243270259354e-02
1.1056624327025935e-01  0.0000000000000000e+00  3.9433756729740643e-02
1.3943375672974065e-01  0.0000000000000000e+00  1.0566243270259354e-02
1.3943375672974065e-01  0.0000000000000000e+00  3.9433756729740643e-02
1.6056624327025937e-01  0.0000000000000000e+00  1.0566243270259354e-02
1.6056624327025937e-01  0.0000000000000000e+00  3.9433756729740643e-02
1.8943375672974067e-01  0.0000000000000000e+00  1.0566243270259354e-02
1.8943375672974067e-01  0.0000000000000000e+00  3.9433756729740643e-02
2.1056624327025936e-01  0.0000000000000000e+00  1.0566243270259354e-02
2.1056624327025936e-01  0.0000000000000000e+00  3.9433756729740643e-02
2.3943375672974065e-01  0.0000000000000000e+00  1.0566243270259354e-02
2.3943375672974065e-01  0.0000000000000000e+00  3.9433756729740643e-02
2.6056624327025935e-01  0.0000000000000000e+00  1.0566243270259354e-02
2.6056624327025935e-01  0.0000000000000000e+00  3.9433756729740643e-02
2.8943375672974064e-01  0.0000000000000000e+00  1.0566243270259354e-02
2.8943375672974064e-01  0.0000000000000000e+00  3.9433756729740643e-02
3.1056624327025939e-01  0.0000000000000000e+00  1.0566243270259354e-02
3.1056624327025939e-01  0.0000000000000000e+00  3.9433756729740643e-02
3.3943375672974069e-01  0.0000000000000000e+00  1.0566243270259354e-02
3.3943375672974069e-01  0.0000000000000000e+00  3.9433756729740643e-02
3.6056624327025938e-01  0.0000000000000000e+00  1.0566243270259354e-02
3.6056624327025938e-01  0.0000000000000000e+00  3.9433756729740643e-02
3.8943375672974068e-01  0.0000000000000000e+00  1.0566243270259354e-02
3.8943375672974068e-01  0.0000000000000000e+00  3.9433756729740643e-02
4.1056624327025937e-01  0.0000000000000000e+00  1.0566243270259354e-02
4.1056624327025937e-01  0.0000000000000000e+00  3.9433756729740643e-02
4.3943375672974067e-01  0.0000000000000000e+00  1.0566243270259354e-02
4.3943375672974067e-01  0.0000000000000000e+00  3.9433756729740643e-02
4.6056624327025936e-01  0.0000000000000000e+00  1.0566243270259354e-02
4.6056624327025936e-01  0.0000000000000000e+00  3.9433756729740643e-02
4.8943375672974065e-01  0.0000000000000000e+00  1.0566243270259354e-02
4.8943375672974065e-01  0.0000000000000000e+00  3.9433756729740643e-02
5.1056624327025935e-01  0.0000000000000000e+00  1.0566243270259354e-02
5.1056624327025935e-01  0.0000000000000000e+00  3.9433756729740643e-02
5.3943375672974070e-01  0.0000000000000000e+00  1.0566243270259354e-02
5.3943375672974070e-01  0.0000000000000000e+00  3.9433756729740643e-02
5.6056624327025939e-01  0.0000000000000000e+00  1.0566243270259354e-02
5.6056624327025939e-01  0.0000000000000000e+00  3.9433756729740643e-02
5.8943375672974063e-01  0.0000000000000000e+00  1.0566243270259354e-02
5.8943375672974063e-01  0.0000000000000000e+00  3.9433756729740643e-02
6.1056624327025943e-01  0.0000000000000000e+00  1.0566243270259354e-02
6.1056624327025943e-01  0.0000000000000000e+00  3.9433756729740643e-02
6.3943375672974068e-01  0.0000000000000000e+00  1.0566243270259354e-02
6.3943375672974068e-01  0.0000000000000000e+00  3.9433756729740643e-02
6.6056624327025937e-01  0.0000000000000000e+00  1.0566243270259354e-02
6.6056624327025937e-01  0.0000000000000000e+00  3.9433756729740643e-02
6.8943375672974072e-01  0.0000000000000000e+00  1.0566243270259354e-02
6.8943375672974072e-01  0.0000000000000000e+00  3.9433756729740643e-02
7.1056624327025941e-01  0.0000000000000000e+00  1.0566243270259354e-02
7.1056624327025941e-01  0.0000000000000000e+00  3.9433756729740643e-02
7.3943375672974065e-01  0.0000000000000000e+00  1.0566243270259354e-02
7.3943375672974065e-01  0.0000000000000000e+00  3.9433756729740643e-02
7.6056624327025935e-01  0.0000000000000000e+00  1.0566243270259354e-02
7.6056624327025935e-01  0.0000000000000000e+00  3.9433756729740643e-02
7.8943375672974070e-01  0.0000000000000000e+00  1.0566243270259354e-02
7.8943375672974070e-01  0.0000000000000000e+00  3.9433756729740643e-02
8.1056624327025950e-01  0.0000000000000000e+00  1.0566243270259354e-02
8.1056624327025950e-01  0.0000000000000000e+00  3.9433756729740643e-02
8.3943375672974063e-01  0.0000000000000000e+00  1.0566243270259354e-02
8.3943375672974063e-01  0.0000000000000000e+00  3.9433756729740643e-02
8.6056624327025943e-01  0.0000000000000000e+00  1.0566243270259354e-02
8.6056624327025943e-01  0.0000000000000000e+00  3.9433756729740643e-02
8.8943375672974057e-01  0.0000000000000000e+00  1.0566243270259354e-02
8.8943375672974057e-01  0.0000000000000000e+00  3.9433756729740643e-02
9.1056624327025948e-01  0.0000000000000000e+00  1.0566243270259354e-02
9.1056624327025948e-01  0.0000000000000000e+00  3.9433756729740643e-02
9.3943375672974061e-01  0.0000000000000000e+00  1.0566243270259354e-02
9.3943375672974061e-01  0.0000000000000000e+00  3.9433756729740643e-02
9.6056624327025952e-01  0.0000000000000000e+00  1.0566243270259354e-02
9.6056624327025952e-01  0.0000000000000000e+00  3.9433756729740643e-02
9.8943375672974065e-01  0.0000000000000000e+00  1.0566243270259354e-02
9.8943375672974065e-01  0.0000000000000000e+00  3.9433756729740643e-02

CELLS 0 0


CELL_TYPES 0


POINT_DATA 80

VECTORS VertexNormals float

0.0000000000000000e+00 0.0000000000000000e+00 0.0000000000000000e+00 
0.0000000000000000e+00 0.0000000000000000e+00 0.0000000000000000e+00 
0.0000000000000000e+00 0.0000000000000000e+00 0.0000000000000000e+00 
0.0000000000000000e+00 0.0000000000000000e+00 0.0000000000000000e+00 
0.0000000000000000e+00 0.0000000000000000e+00 0.0000000000000000e+00 
0.0000000000000000e+00 0.0000000000000000e+00 0.0000000000000000e+00 
0.0000000000000000e+00 0.0000000000000000e+00 0.0000000000000000e+00 
0.0000000000000000e+00 0.0000000000000000e+00 0.0000000000000000e+00 
0.0000000000000000e+00 0.0000000000000000e+00 0.0000000000000000e+00 
0.0000000000000000e+00 0.0000000000000000e+00 0.0000000000000000e+00 
0.0000000000000000e+00 0.0000000000000000e+00 0.0000000000000000e+00 
0.0000000000000000e+00 0.0000000000000000e+00 0.0000000000000000e+00 
0.0000000000000000e+00 0.0000000000000000e+00 0.0000000000000000e+00 
0.0000000000000000e+00 0.0000000000000000e+00 0.0000000000000000e+00 
0.0000000000000000e+00 0.0000000000000000e+00 0.0000000000000000e+00 
0.0000000000000000e+00 0.0000000000000000e+00 0.0000000000000000e+00 
0.0000000000000000e+00 0.0000000000000000e+00 0.0000000000000000e+00 
0.0000000000000000e+00 0.0000000000000000e+00 0.0000000000000000e+00 
0.0000000000000000e+00 0.0000000000000000e+00 0.0000000000000000e+00 
0.0000000000000000e+00 0.0000000000000000e+00 0.0000000000000000e+00 
0.0000000000000000e+00 0.0000000000000000e+00 0.0000000000000000e+00 
0.0000000000000000e+00 0.0000000000000000e+00 0.0000000000000000e+00 
0.0000000000000000e+00 0.0000000000000000e+00 0.0000000000000000e+00 
0.0000000000000000e+00 0.0000000000000000e+00 0.0000000000000000e+00 
0.0000000000000000e+00 0.0000000000000000e+00 0.0000000000000000e+00 
0.0000000000000000e+00 0.0000000000000000e+00 0.0000000000000000e+00 
0.0000000000000000e+00 0.0000000000000000e+00 0.0000000000000000e+00 
0.0000000000000000e+00 0.0000000000000000e+00 0.0000000000000000e+00 
0.0000000000000000e+00 0.0000000000000000e+00 0.0000000000000000e+00 
0.0000000000000000e+00 0.0000000000000000e+00 0.0000000000000000e+00 
0.0000000000000000e+00 0.0000000000000000e+00 0.0000000000000000e+00 
0.0000000000000000e+00 0.0000000000000000e+00 0.0000000000000000e+00 
0.0000000000000000e+00 0.0000000000000000e+00 0.0000000000000000e+00 
0.0000000000000000e+00 0.0000000000000000e+00 0.0000000000000000e+00 
0.0000000000000000e+00 0.0000000000000000e+00 0.0000000000000000e+00 
0.0000000000000000e+00 0.0000000000000000e+00 0.0000000000000000e+00 
0.0000000000000000e+00 0.0000000000000000e+00 0.0000000000000000e+00 
0.0000000000000000e+00 0.0000000000000000e+00 0.0000000000000000e+00 
0.0000000000000000e+00 0.0000000000000000e+00 0.0000000000000000e+00 
0.0000000000000000e+00 0.0000000000000000e+00 0.0000000000000000e+00 
0.0000000000000000e+00 0.0000000000000000e+00 0.0000000000000000e+00 
0.0000000000000000e+00 0.0000000000000000e+00 0.0000000000000000e+00 
0.0000000000000000e+00 0.0000000000000000e+00 0.0000000000000000e+00 
0.0000000000000000e+00 0.0000000000000000e+00 0.0000000000000000e+00 
0.0000000000000000e+00 0.0000000000000000e+00 0.0000000000000000e+00 
0.0000000000000000e+00 0.0000000000000000e+00 0.0000000000000000e+00 
0.0000000000000000e+00 0.0000000000000000e+00 0.0000000000000000e+00 
0.0000000000000000e+00 0.0000000000000000e+00 0.0000000000000000e+00 
0.0000000000000000e+00 0.0000000000000000e+00 0.0000000000000000e+00 
0.0000000000000000e+00 0.0000000000000000e+00 0.0000000000000000e+00 
0.0000000000000000e+00 0.0000000000000000e+00 0.0000000000000000e+00 
0.0000000000000000e+00 0.0000000000000000e+00 0.0000000000000000e+00 
0.0000000000000000e+00 0.0000000000000000e+00 0.0000000000000000e+00 
0.0000000000000000e+00 0.0000000000000000e+00 0.0000000000000000e+00 
0.0000000000000000e+00 0.0000000000000000e+00 0.0000000000000000e+00 
0.0000000000000000e+00 0.0000000000000000e+00 0.0000000000000000e+00 
0.0000000000000000e+00 0.0000000000000000e+00 0.0000000000000000e+00 
0.0000000000000000e+00 0.0000000000000000e+00 0.0000000000000000e+00 
0.0000000000000000e+00 0.0000000000000000e+00 0.0000000000000000e+00 
0.0000000000000000e+00 0.0000000000000000e+00 0.0000000000000000e+00 
0.0000000000000000e+00 0.0000000000000000e+00 0.0000000000000000e+00 
0.0000000000000000e+00 0.0000000000000000e+00 0.0000000000000000e+00 
0.0000000000000000e+00 0.0000000000000000e+00 0.0000000000000000e+00 
0.0000000000000000e+00 0.0000000000000000e+00 0.0000000000000000e+00 
0.0000000000000000e+00 0.0000000000000000e+00 0.0000000000000000e+00 
0.0000000000000000e+00 0.0000000000000000e+00 0.0000000000000000e+00 
0.0000000000000000e+00 0.0000000000000000e+00 0.0000000000000000e+00 
0.0000000000000000e+00 0.0000000000000000e+00 0.0000000000000000e+00 
0.0000000000000000e+00 0.0000000000000000e+00 0.0000000000000000e+00 
0.0000000000000000e+00 0.0000000000000000e+00 0.0000000000000000e+00 
0.0000000000000000e+00 0.0000000000000000e+00 0.0000000000000000e+00 
0.0000000000000000e+00 0.0000000000000000e+00 0.0000000000000000e+00 
0.0000000000000000e+00 0.0000000000000000e+00 0.0000000000000000e+00 
0.0000000000000000e+00 0.0000000000000000e+00 0.0000000000000000e+00 
0.0000000000000000e+00 0.0000000000000000e+00 0.0000000000000000e+00 
0.0000000000000000e+00 0.0000000000000000e+00 0.0000000000000000e+00 
0.0000000000000000e+00 0.0000000000000000e+00 0.0000000000000000e+00 
0.0000000000000000e+00 0.0000000000000000e+00 0.0000000000000000e+00 
0.0000000000000000e+00 0.0000000000000000e+00 0.0000000000000000e+00 
0.0000000000000000e+00 0.0000000000000000e+00 0.0000000000000000e+00 

SCALARS Temperature float
LOOKUP_TABLE default
3.0268270582412219e+02
3.0268270582412219e+02
3.0299720099075216e+02
3.0299720099075216e+02
3.0312327232421586e+02
3.0312327232421586e+02
3.0333146924017325e+02
3.0333146924017325e+02
3.0344969666609103e+02
3.0344969666609103e+02
3.0356821177390435e+02
3.0356821177390435e+02
3.0363368693435689e+02
3.0363368693435689e+02
3.0372006222578113e+02
3.0372006222578113e+02
3.0377400924909381e+02
3.0377400924909381e+02
3.0382902778239458e+02
3.0382902778239458e+02
3.0386133938877276e+02
3.0386133938877276e+02
3.0390377561842928e+02
3.0390377561842928e+02
3.0392221001103240e+02
3.0392221001103240e+02
3.0394880772247461e+02
3.0394880772247461e+02
3.0396605987975283e+02
3.0396605987975283e+02
3.0398277081893747e+02
3.0398277081893747e+02
3.0399139096475221e+02
3.0399139096475221e+02
3.0400180226655704e+02
3.0400180226655704e+02
3.0400770078743511e+02
3.0400770078743511e+02
3.0401304484533711e+02
3.0401304484533711e+02
3.0401579858874419e+02
3.0401579858874419e+02
3.0401795196989718e+02
3.0401795196989718e+02
3.0401812739629537e+02
3.0401812739629537e+02
3.0401648982416128e+02
3.0401648982416128e+02
3.0401480028521013e+02
3.0401480028521013e+02
3.0400913015055829e+02
3.0400913015055829e+02
3.0400455489558800e+02
3.0400455489558800e+02
3.0399461064799857e+02
3.0399461064799857e+02
3.0398601259311278e+02
3.0398601259311278e+02
3.0396887227982990e+02
3.0396887227982990e+02
3.0395425030164103e+02
3.0395425030164103e+02
3.0392517919102818e+02
3.0392517919102818e+02
3.0389981824177613e+02
3.0389981824177613e+02
3.0384923296876411e+02
3.0384923296876411e+02
3.0380678627991244e+02
3.0380678627991244e+02
3.0374679092267900e+02
3.0374679092267900e+02
3.0365811726361272e+02
3.0365811726361272e+02
3.0346592391560461e+02
3.0346592391560461e+02
3.0342366240241643e+02
3.0342366240241643e+02
3.0309841631762680e+02
3.0309841631762680e+02

