# vtk DataFile Version 2.0

ASCII

DATASET UNSTRUCTURED_GRID

POINTS 161 float 

1.2479480269999997e-03  0.0000000000000000e+00  2.5000000000000005e-02
3.7564605215000004e-03  0.0000000000000000e+00  2.5000000000000001e-02
6.2903334465000014e-03  0.0000000000000000e+00  2.5000000000000005e-02
8.8498231920000007e-03  0.0000000000000000e+00  2.5000000000000005e-02
1.1435188734999997e-02  0.0000000000000000e+00  2.5000000000000001e-02
1.4046691670000002e-02  0.0000000000000000e+00  2.5000000000000001e-02
1.6684596245000002e-02  0.0000000000000000e+00  2.5000000000000001e-02
1.9349169374999996e-02  0.0000000000000000e+00  2.4999999999999998e-02
2.2040680664999996e-02  0.0000000000000000e+00  2.5000000000000001e-02
2.4759402454999999e-02  0.0000000000000000e+00  2.4999999999999998e-02
2.7505609844999997e-02  0.0000000000000000e+00  2.5000000000000001e-02
3.0279580699999999e-02  0.0000000000000000e+00  2.5000000000000001e-02
3.3081595699999994e-02  0.0000000000000000e+00  2.5000000000000001e-02
3.5911938370000000e-02  0.0000000000000000e+00  2.5000000000000005e-02
3.8770895094999994e-02  0.0000000000000000e+00  2.5000000000000005e-02
4.1658755154999998e-02  0.0000000000000000e+00  2.5000000000000001e-02
4.4575810750000000e-02  0.0000000000000000e+00  2.5000000000000005e-02
4.7522357044999998e-02  0.0000000000000000e+00  2.5000000000000001e-02
5.0498692184999992e-02  0.0000000000000000e+00  2.5000000000000001e-02
5.3505117319999997e-02  0.0000000000000000e+00  2.5000000000000001e-02
5.6541936659999993e-02  0.0000000000000000e+00  2.5000000000000005e-02
5.9609457479999996e-02  0.0000000000000000e+00  2.5000000000000001e-02
6.2707990165000005e-02  0.0000000000000000e+00  2.5000000000000001e-02
6.5837848234999982e-02  0.0000000000000000e+00  2.4999999999999998e-02
6.8999348380000006e-02  0.0000000000000000e+00  2.5000000000000001e-02
7.2192810504999996e-02  0.0000000000000000e+00  2.5000000000000005e-02
7.5418557725000002e-02  0.0000000000000000e+00  2.5000000000000005e-02
7.8676916434999994e-02  0.0000000000000000e+00  2.5000000000000005e-02
8.1968216339999997e-02  0.0000000000000000e+00  2.5000000000000001e-02
8.5292790460000004e-02  0.0000000000000000e+00  2.5000000000000001e-02
8.8650975185000008e-02  0.0000000000000000e+00  2.5000000000000001e-02
9.2043110309999981e-02  0.0000000000000000e+00  2.5000000000000001e-02
9.5469539070000012e-02  0.0000000000000000e+00  2.5000000000000005e-02
9.8930608189999977e-02  0.0000000000000000e+00  2.5000000000000005e-02
1.0242666780000000e-01  0.0000000000000000e+00  2.5000000000000005e-02
1.0595807170000000e-01  0.0000000000000000e+00  2.4999999999999998e-02
1.0952517724999998e-01  0.0000000000000000e+00  2.5000000000000001e-02
1.1312834529999997e-01  0.0000000000000000e+00  2.5000000000000001e-02
1.1676794049999999e-01  0.0000000000000000e+00  2.5000000000000001e-02
1.2044433110000000e-01  0.0000000000000000e+00  2.5000000000000001e-02
1.2415788905000000e-01  0.0000000000000000e+00  2.5000000000000001e-02
1.2790899015000001e-01  0.0000000000000000e+00  2.5000000000000005e-02
1.3169801395000000e-01  0.0000000000000000e+00  2.4999999999999998e-02
1.3552534380000000e-01  0.0000000000000000e+00  2.5000000000000005e-02
1.3939136699999999e-01  0.0000000000000000e+00  2.5000000000000001e-02
1.4329647475000001e-01  0.0000000000000000e+00  2.5000000000000005e-02
1.4724106214999999e-01  0.0000000000000000e+00  2.4999999999999998e-02
1.5122552830000000e-01  0.0000000000000000e+00  2.5000000000000001e-02
1.5525027640000000e-01  0.0000000000000000e+00  2.5000000000000001e-02
1.5931571375000000e-01  0.0000000000000000e+00  2.4999999999999998e-02
1.6342225165000002e-01  0.0000000000000000e+00  2.5000000000000005e-02
1.6757030559999997e-01  0.0000000000000000e+00  2.5000000000000001e-02
1.7176029529999998e-01  0.0000000000000000e+00  2.5000000000000005e-02
1.7599264474999998e-01  0.0000000000000000e+00  2.5000000000000005e-02
1.8026778220000000e-01  0.0000000000000000e+00  2.5000000000000001e-02
1.8458614020000003e-01  0.0000000000000000e+00  2.5000000000000005e-02
1.8894815575000001e-01  0.0000000000000000e+00  2.5000000000000001e-02
1.9335427015000003e-01  0.0000000000000000e+00  2.5000000000000001e-02
1.9780492924999996e-01  0.0000000000000000e+00  2.5000000000000001e-02
2.0230058344999999e-01  0.0000000000000000e+00  2.5000000000000001e-02
2.0684168754999999e-01  0.0000000000000000e+00  2.5000000000000001e-02
2.1142870105000000e-01  0.0000000000000000e+00  2.5000000000000001e-02
2.1606208815000000e-01  0.0000000000000000e+00  2.5000000000000001e-02
2.2074231759999996e-01  0.0000000000000000e+00  2.4999999999999998e-02
2.2546986299999996e-01  0.0000000000000000e+00  2.5000000000000001e-02
2.3024520269999998e-01  0.0000000000000000e+00  2.5000000000000005e-02
2.3506881985000003e-01  0.0000000000000000e+00  2.4999999999999998e-02
2.3994120254999998e-01  0.0000000000000000e+00  2.5000000000000001e-02
2.4486284384999998e-01  0.0000000000000000e+00  2.5000000000000001e-02
2.4983424174999996e-01  0.0000000000000000e+00  2.4999999999999998e-02
2.5485589919999996e-01  0.0000000000000000e+00  2.5000000000000005e-02
2.5992832429999996e-01  0.0000000000000000e+00  2.5000000000000005e-02
2.6505203035000002e-01  0.0000000000000000e+00  2.5000000000000001e-02
2.7022753580000008e-01  0.0000000000000000e+00  2.5000000000000005e-02
2.7545536429999989e-01  0.0000000000000000e+00  2.5000000000000001e-02
2.8073604484999998e-01  0.0000000000000000e+00  2.5000000000000001e-02
2.8607011174999997e-01  0.0000000000000000e+00  2.5000000000000001e-02
2.9145810470000000e-01  0.0000000000000000e+00  2.5000000000000001e-02
2.9690056894999994e-01  0.0000000000000000e+00  2.5000000000000005e-02
3.0239805515000001e-01  0.0000000000000000e+00  2.5000000000000001e-02
3.0795111949999998e-01  0.0000000000000000e+00  2.5000000000000001e-02
3.1356032395000000e-01  0.0000000000000000e+00  2.5000000000000001e-02
3.1922623605000000e-01  0.0000000000000000e+00  2.5000000000000005e-02
3.2494942910000002e-01  0.0000000000000000e+00  2.5000000000000001e-02
3.3073048220000001e-01  0.0000000000000000e+00  2.5000000000000001e-02
3.3656998030000002e-01  0.0000000000000000e+00  2.5000000000000001e-02
3.4246851424999997e-01  0.0000000000000000e+00  2.5000000000000001e-02
3.4842668090000001e-01  0.0000000000000000e+00  2.4999999999999998e-02
3.5444508315000001e-01  0.0000000000000000e+00  2.4999999999999998e-02
3.6052432990000000e-01  0.0000000000000000e+00  2.5000000000000001e-02
3.6666503630000002e-01  0.0000000000000000e+00  2.5000000000000005e-02
3.7286782369999993e-01  0.0000000000000000e+00  2.5000000000000001e-02
3.7913331969999992e-01  0.0000000000000000e+00  2.5000000000000001e-02
3.8546215830000002e-01  0.0000000000000000e+00  2.5000000000000001e-02
3.9185497989999996e-01  0.0000000000000000e+00  2.5000000000000001e-02
3.9831243130000005e-01  0.0000000000000000e+00  2.5000000000000001e-02
4.0483516589999996e-01  0.0000000000000000e+00  2.5000000000000001e-02
4.1142384369999990e-01  0.0000000000000000e+00  2.5000000000000005e-02
4.1807913139999997e-01  0.0000000000000000e+00  2.5000000000000001e-02
4.2480170239999998e-01  0.0000000000000000e+00  2.4999999999999998e-02
4.3159223684999998e-01  0.0000000000000000e+00  2.5000000000000001e-02
4.3845142189999992e-01  0.0000000000000000e+00  2.5000000000000001e-02
4.4537995159999993e-01  0.0000000000000000e+00  2.4999999999999998e-02
4.5237852700000009e-01  0.0000000000000000e+00  2.5000000000000005e-02
4.5944785625000001e-01  0.0000000000000000e+00  2.5000000000000005e-02
4.6658865464999993e-01  0.0000000000000000e+00  2.5000000000000001e-02
4.7380164474999992e-01  0.0000000000000000e+00  2.5000000000000001e-02
4.8108755635000006e-01  0.0000000000000000e+00  2.5000000000000005e-02
4.8844712664999984e-01  0.0000000000000000e+00  2.4999999999999998e-02
4.9588110034999994e-01  0.0000000000000000e+00  2.5000000000000001e-02
5.0339022965000002e-01  0.0000000000000000e+00  2.5000000000000001e-02
5.1097527440000001e-01  0.0000000000000000e+00  2.4999999999999998e-02
5.1863700204999996e-01  0.0000000000000000e+00  2.4999999999999998e-02
5.2637618780000006e-01  0.0000000000000000e+00  2.5000000000000005e-02
5.3419361479999994e-01  0.0000000000000000e+00  2.5000000000000001e-02
5.4209007400000009e-01  0.0000000000000000e+00  2.5000000000000001e-02
5.5006636439999990e-01  0.0000000000000000e+00  2.5000000000000005e-02
5.5812329314999998e-01  0.0000000000000000e+00  2.5000000000000005e-02
5.6626167539999994e-01  0.0000000000000000e+00  2.4999999999999998e-02
5.7448233464999998e-01  0.0000000000000000e+00  2.5000000000000005e-02
5.8278610269999997e-01  0.0000000000000000e+00  2.5000000000000001e-02
5.9117381974999994e-01  0.0000000000000000e+00  2.5000000000000001e-02
5.9964633454999994e-01  0.0000000000000000e+00  2.5000000000000001e-02
6.0820450430000006e-01  0.0000000000000000e+00  2.5000000000000005e-02
6.1684919499999991e-01  0.0000000000000000e+00  2.5000000000000005e-02
6.2558128135000002e-01  0.0000000000000000e+00  2.5000000000000001e-02
6.3440164689999989e-01  0.0000000000000000e+00  2.4999999999999998e-02
6.4331118415000010e-01  0.0000000000000000e+00  2.5000000000000005e-02
6.5231079455000007e-01  0.0000000000000000e+00  2.5000000000000005e-02
6.6140138875000010e-01  0.0000000000000000e+00  2.5000000000000001e-02
6.7058388660000001e-01  0.0000000000000000e+00  2.5000000000000005e-02
6.7985921719999987e-01  0.0000000000000000e+00  2.5000000000000001e-02
6.8922831899999992e-01  0.0000000000000000e+00  2.5000000000000001e-02
6.9869214009999991e-01  0.0000000000000000e+00  2.5000000000000001e-02
7.0825163804999991e-01  0.0000000000000000e+00  2.4999999999999998e-02
7.1790778009999989e-01  0.0000000000000000e+00  2.5000000000000005e-02
7.2766154335000000e-01  0.0000000000000000e+00  2.5000000000000005e-02
7.3751391470000005e-01  0.0000000000000000e+00  2.5000000000000001e-02
7.4746589105000005e-01  0.0000000000000000e+00  2.5000000000000005e-02
7.5751847934999994e-01  0.0000000000000000e+00  2.4999999999999998e-02
7.6767269680000005e-01  0.0000000000000000e+00  2.5000000000000005e-02
7.7792957085000014e-01  0.0000000000000000e+00  2.5000000000000005e-02
7.8829013930000025e-01  0.0000000000000000e+00  2.5000000000000008e-02
7.9875545049999996e-01  0.0000000000000000e+00  2.5000000000000001e-02
8.0932656339999998e-01  0.0000000000000000e+00  2.5000000000000005e-02
8.2000454754999996e-01  0.0000000000000000e+00  2.5000000000000001e-02
8.3079048344999984e-01  0.0000000000000000e+00  2.5000000000000001e-02
8.4168546244999998e-01  0.0000000000000000e+00  2.4999999999999998e-02
8.5269058695000000e-01  0.0000000000000000e+00  2.5000000000000001e-02
8.6380697049999988e-01  0.0000000000000000e+00  2.5000000000000001e-02
8.7503573784999988e-01  0.0000000000000000e+00  2.5000000000000001e-02
8.8637802524999998e-01  0.0000000000000000e+00  2.4999999999999998e-02
8.9783498034999998e-01  0.0000000000000000e+00  2.5000000000000001e-02
9.0940776234999998e-01  0.0000000000000000e+00  2.5000000000000001e-02
9.2109754224999985e-01  0.0000000000000000e+00  2.5000000000000005e-02
9.3290550294999997e-01  0.0000000000000000e+00  2.5000000000000001e-02
9.4483283914999994e-01  0.0000000000000000e+00  2.5000000000000001e-02
9.5688075770000003e-01  0.0000000000000000e+00  2.4999999999999998e-02
9.6905047765000007e-01  0.0000000000000000e+00  2.5000000000000001e-02
9.8134323039999993e-01  0.0000000000000000e+00  2.5000000000000001e-02
9.9376025984999994e-01  0.0000000000000000e+00  2.4999999999999998e-02

CELLS 0 0


CELL_TYPES 0


POINT_DATA 161

VECTORS VertexNormals float

0.0000000000000000e+00 0.0000000000000000e+00 0.0000000000000000e+00 
0.0000000000000000e+00 0.0000000000000000e+00 0.0000000000000000e+00 
0.0000000000000000e+00 0.0000000000000000e+00 0.0000000000000000e+00 
0.0000000000000000e+00 0.0000000000000000e+00 0.0000000000000000e+00 
0.0000000000000000e+00 0.0000000000000000e+00 0.0000000000000000e+00 
0.0000000000000000e+00 0.0000000000000000e+00 0.0000000000000000e+00 
0.0000000000000000e+00 0.0000000000000000e+00 0.0000000000000000e+00 
0.0000000000000000e+00 0.0000000000000000e+00 0.0000000000000000e+00 
0.0000000000000000e+00 0.0000000000000000e+00 0.0000000000000000e+00 
0.0000000000000000e+00 0.0000000000000000e+00 0.0000000000000000e+00 
0.0000000000000000e+00 0.0000000000000000e+00 0.0000000000000000e+00 
0.0000000000000000e+00 0.0000000000000000e+00 0.0000000000000000e+00 
0.0000000000000000e+00 0.0000000000000000e+00 0.0000000000000000e+00 
0.0000000000000000e+00 0.0000000000000000e+00 0.0000000000000000e+00 
0.0000000000000000e+00 0.0000000000000000e+00 0.0000000000000000e+00 
0.0000000000000000e+00 0.0000000000000000e+00 0.0000000000000000e+00 
0.0000000000000000e+00 0.0000000000000000e+00 0.0000000000000000e+00 
0.0000000000000000e+00 0.0000000000000000e+00 0.0000000000000000e+00 
0.0000000000000000e+00 0.0000000000000000e+00 0.0000000000000000e+00 
0.0000000000000000e+00 0.0000000000000000e+00 0.0000000000000000e+00 
0.0000000000000000e+00 0.0000000000000000e+00 0.0000000000000000e+00 
0.0000000000000000e+00 0.0000000000000000e+00 0.0000000000000000e+00 
0.0000000000000000e+00 0.0000000000000000e+00 0.0000000000000000e+00 
0.0000000000000000e+00 0.0000000000000000e+00 0.0000000000000000e+00 
0.0000000000000000e+00 0.0000000000000000e+00 0.0000000000000000e+00 
0.0000000000000000e+00 0.0000000000000000e+00 0.0000000000000000e+00 
0.0000000000000000e+00 0.0000000000000000e+00 0.0000000000000000e+00 
0.0000000000000000e+00 0.0000000000000000e+00 0.0000000000000000e+00 
0.0000000000000000e+00 0.0000000000000000e+00 0.0000000000000000e+00 
0.0000000000000000e+00 0.0000000000000000e+00 0.0000000000000000e+00 
0.0000000000000000e+00 0.0000000000000000e+00 0.0000000000000000e+00 
0.0000000000000000e+00 0.0000000000000000e+00 0.0000000000000000e+00 
0.0000000000000000e+00 0.0000000000000000e+00 0.0000000000000000e+00 
0.0000000000000000e+00 0.0000000000000000e+00 0.0000000000000000e+00 
0.0000000000000000e+00 0.0000000000000000e+00 0.0000000000000000e+00 
0.0000000000000000e+00 0.0000000000000000e+00 0.0000000000000000e+00 
0.0000000000000000e+00 0.0000000000000000e+00 0.0000000000000000e+00 
0.0000000000000000e+00 0.0000000000000000e+00 0.0000000000000000e+00 
0.0000000000000000e+00 0.0000000000000000e+00 0.0000000000000000e+00 
0.0000000000000000e+00 0.0000000000000000e+00 0.0000000000000000e+00 
0.0000000000000000e+00 0.0000000000000000e+00 0.0000000000000000e+00 
0.0000000000000000e+00 0.0000000000000000e+00 0.0000000000000000e+00 
0.0000000000000000e+00 0.0000000000000000e+00 0.0000000000000000e+00 
0.0000000000000000e+00 0.0000000000000000e+00 0.0000000000000000e+00 
0.0000000000000000e+00 0.0000000000000000e+00 0.0000000000000000e+00 
0.0000000000000000e+00 0.0000000000000000e+00 0.0000000000000000e+00 
0.0000000000000000e+00 0.0000000000000000e+00 0.0000000000000000e+00 
0.0000000000000000e+00 0.0000000000000000e+00 0.0000000000000000e+00 
0.0000000000000000e+00 0.0000000000000000e+00 0.0000000000000000e+00 
0.0000000000000000e+00 0.0000000000000000e+00 0.0000000000000000e+00 
0.0000000000000000e+00 0.0000000000000000e+00 0.0000000000000000e+00 
0.0000000000000000e+00 0.0000000000000000e+00 0.0000000000000000e+00 
0.0000000000000000e+00 0.0000000000000000e+00 0.0000000000000000e+00 
0.0000000000000000e+00 0.0000000000000000e+00 0.0000000000000000e+00 
0.0000000000000000e+00 0.0000000000000000e+00 0.0000000000000000e+00 
0.0000000000000000e+00 0.0000000000000000e+00 0.0000000000000000e+00 
0.0000000000000000e+00 0.0000000000000000e+00 0.0000000000000000e+00 
0.0000000000000000e+00 0.0000000000000000e+00 0.0000000000000000e+00 
0.0000000000000000e+00 0.0000000000000000e+00 0.0000000000000000e+00 
0.0000000000000000e+00 0.0000000000000000e+00 0.0000000000000000e+00 
0.0000000000000000e+00 0.0000000000000000e+00 0.0000000000000000e+00 
0.0000000000000000e+00 0.0000000000000000e+00 0.0000000000000000e+00 
0.0000000000000000e+00 0.0000000000000000e+00 0.0000000000000000e+00 
0.0000000000000000e+00 0.0000000000000000e+00 0.0000000000000000e+00 
0.0000000000000000e+00 0.0000000000000000e+00 0.0000000000000000e+00 
0.0000000000000000e+00 0.0000000000000000e+00 0.0000000000000000e+00 
0.0000000000000000e+00 0.0000000000000000e+00 0.0000000000000000e+00 
0.0000000000000000e+00 0.0000000000000000e+00 0.0000000000000000e+00 
0.0000000000000000e+00 0.0000000000000000e+00 0.0000000000000000e+00 
0.0000000000000000e+00 0.0000000000000000e+00 0.0000000000000000e+00 
0.0000000000000000e+00 0.0000000000000000e+00 0.0000000000000000e+00 
0.0000000000000000e+00 0.0000000000000000e+00 0.0000000000000000e+00 
0.0000000000000000e+00 0.0000000000000000e+00 0.0000000000000000e+00 
0.0000000000000000e+00 0.0000000000000000e+00 0.0000000000000000e+00 
0.0000000000000000e+00 0.0000000000000000e+00 0.0000000000000000e+00 
0.0000000000000000e+00 0.0000000000000000e+00 0.0000000000000000e+00 
0.0000000000000000e+00 0.0000000000000000e+00 0.0000000000000000e+00 
0.0000000000000000e+00 0.0000000000000000e+00 0.0000000000000000e+00 
0.0000000000000000e+00 0.0000000000000000e+00 0.0000000000000000e+00 
0.0000000000000000e+00 0.0000000000000000e+00 0.0000000000000000e+00 
0.0000000000000000e+00 0.0000000000000000e+00 0.0000000000000000e+00 
0.0000000000000000e+00 0.0000000000000000e+00 0.0000000000000000e+00 
0.0000000000000000e+00 0.0000000000000000e+00 0.0000000000000000e+00 
0.0000000000000000e+00 0.0000000000000000e+00 0.0000000000000000e+00 
0.0000000000000000e+00 0.0000000000000000e+00 0.0000000000000000e+00 
0.0000000000000000e+00 0.0000000000000000e+00 0.0000000000000000e+00 
0.0000000000000000e+00 0.0000000000000000e+00 0.0000000000000000e+00 
0.0000000000000000e+00 0.0000000000000000e+00 0.0000000000000000e+00 
0.0000000000000000e+00 0.0000000000000000e+00 0.0000000000000000e+00 
0.0000000000000000e+00 0.0000000000000000e+00 0.0000000000000000e+00 
0.0000000000000000e+00 0.0000000000000000e+00 0.0000000000000000e+00 
0.0000000000000000e+00 0.0000000000000000e+00 0.0000000000000000e+00 
0.0000000000000000e+00 0.0000000000000000e+00 0.0000000000000000e+00 
0.0000000000000000e+00 0.0000000000000000e+00 0.0000000000000000e+00 
0.0000000000000000e+00 0.0000000000000000e+00 0.0000000000000000e+00 
0.0000000000000000e+00 0.0000000000000000e+00 0.0000000000000000e+00 
0.0000000000000000e+00 0.0000000000000000e+00 0.0000000000000000e+00 
0.0000000000000000e+00 0.0000000000000000e+00 0.0000000000000000e+00 
0.0000000000000000e+00 0.0000000000000000e+00 0.0000000000000000e+00 
0.0000000000000000e+00 0.0000000000000000e+00 0.0000000000000000e+00 
0.0000000000000000e+00 0.0000000000000000e+00 0.0000000000000000e+00 
0.0000000000000000e+00 0.0000000000000000e+00 0.0000000000000000e+00 
0.0000000000000000e+00 0.0000000000000000e+00 0.0000000000000000e+00 
0.0000000000000000e+00 0.0000000000000000e+00 0.0000000000000000e+00 
0.0000000000000000e+00 0.0000000000000000e+00 0.0000000000000000e+00 
0.0000000000000000e+00 0.0000000000000000e+00 0.0000000000000000e+00 
0.0000000000000000e+00 0.0000000000000000e+00 0.0000000000000000e+00 
0.0000000000000000e+00 0.0000000000000000e+00 0.0000000000000000e+00 
0.0000000000000000e+00 0.0000000000000000e+00 0.0000000000000000e+00 
0.0000000000000000e+00 0.0000000000000000e+00 0.0000000000000000e+00 
0.0000000000000000e+00 0.0000000000000000e+00 0.0000000000000000e+00 
0.0000000000000000e+00 0.0000000000000000e+00 0.0000000000000000e+00 
0.0000000000000000e+00 0.0000000000000000e+00 0.0000000000000000e+00 
0.0000000000000000e+00 0.0000000000000000e+00 0.0000000000000000e+00 
0.0000000000000000e+00 0.0000000000000000e+00 0.0000000000000000e+00 
0.0000000000000000e+00 0.0000000000000000e+00 0.0000000000000000e+00 
0.0000000000000000e+00 0.0000000000000000e+00 0.0000000000000000e+00 
0.0000000000000000e+00 0.0000000000000000e+00 0.0000000000000000e+00 
0.0000000000000000e+00 0.0000000000000000e+00 0.0000000000000000e+00 
0.0000000000000000e+00 0.0000000000000000e+00 0.0000000000000000e+00 
0.0000000000000000e+00 0.0000000000000000e+00 0.0000000000000000e+00 
0.0000000000000000e+00 0.0000000000000000e+00 0.0000000000000000e+00 
0.0000000000000000e+00 0.0000000000000000e+00 0.0000000000000000e+00 
0.0000000000000000e+00 0.0000000000000000e+00 0.0000000000000000e+00 
0.0000000000000000e+00 0.0000000000000000e+00 0.0000000000000000e+00 
0.0000000000000000e+00 0.0000000000000000e+00 0.0000000000000000e+00 
0.0000000000000000e+00 0.0000000000000000e+00 0.0000000000000000e+00 
0.0000000000000000e+00 0.0000000000000000e+00 0.0000000000000000e+00 
0.0000000000000000e+00 0.0000000000000000e+00 0.0000000000000000e+00 
0.0000000000000000e+00 0.0000000000000000e+00 0.0000000000000000e+00 
0.0000000000000000e+00 0.0000000000000000e+00 0.0000000000000000e+00 
0.0000000000000000e+00 0.0000000000000000e+00 0.0000000000000000e+00 
0.0000000000000000e+00 0.0000000000000000e+00 0.0000000000000000e+00 
0.0000000000000000e+00 0.0000000000000000e+00 0.0000000000000000e+00 
0.0000000000000000e+00 0.0000000000000000e+00 0.0000000000000000e+00 
0.0000000000000000e+00 0.0000000000000000e+00 0.0000000000000000e+00 
0.0000000000000000e+00 0.0000000000000000e+00 0.0000000000000000e+00 
0.0000000000000000e+00 0.0000000000000000e+00 0.0000000000000000e+00 
0.0000000000000000e+00 0.0000000000000000e+00 0.0000000000000000e+00 
0.0000000000000000e+00 0.0000000000000000e+00 0.0000000000000000e+00 
0.0000000000000000e+00 0.0000000000000000e+00 0.0000000000000000e+00 
0.0000000000000000e+00 0.0000000000000000e+00 0.0000000000000000e+00 
0.0000000000000000e+00 0.0000000000000000e+00 0.0000000000000000e+00 
0.0000000000000000e+00 0.0000000000000000e+00 0.0000000000000000e+00 
0.0000000000000000e+00 0.0000000000000000e+00 0.0000000000000000e+00 
0.0000000000000000e+00 0.0000000000000000e+00 0.0000000000000000e+00 
0.0000000000000000e+00 0.0000000000000000e+00 0.0000000000000000e+00 
0.0000000000000000e+00 0.0000000000000000e+00 0.0000000000000000e+00 
0.0000000000000000e+00 0.0000000000000000e+00 0.0000000000000000e+00 
0.0000000000000000e+00 0.0000000000000000e+00 0.0000000000000000e+00 
0.0000000000000000e+00 0.0000000000000000e+00 0.0000000000000000e+00 
0.0000000000000000e+00 0.0000000000000000e+00 0.0000000000000000e+00 
0.0000000000000000e+00 0.0000000000000000e+00 0.0000000000000000e+00 
0.0000000000000000e+00 0.0000000000000000e+00 0.0000000000000000e+00 
0.0000000000000000e+00 0.0000000000000000e+00 0.0000000000000000e+00 
0.0000000000000000e+00 0.0000000000000000e+00 0.0000000000000000e+00 
0.0000000000000000e+00 0.0000000000000000e+00 0.0000000000000000e+00 
0.0000000000000000e+00 0.0000000000000000e+00 0.0000000000000000e+00 
0.0000000000000000e+00 0.0000000000000000e+00 0.0000000000000000e+00 
0.0000000000000000e+00 0.0000000000000000e+00 0.0000000000000000e+00 
0.0000000000000000e+00 0.0000000000000000e+00 0.0000000000000000e+00 

SCALARS Temperature float
LOOKUP_TABLE default
3.0153144113518891e+02
3.0164454680277424e+02
3.0173540812043336e+02
3.0181039079135286e+02
3.0187198571329765e+02
3.0191377699994769e+02
3.0195845925751411e+02
3.0199840006240640e+02
3.0203279162606248e+02
3.0206056303612047e+02
3.0207312255677891e+02
3.0209265934358342e+02
3.0211037514552174e+02
3.0212437397429824e+02
3.0212553118402906e+02
3.0213656083235719e+02
3.0214859928751474e+02
3.0216016259941404e+02
3.0216682554883153e+02
3.0217891262864180e+02
3.0219243787575272e+02
3.0220698293004153e+02
3.0222327497429569e+02
3.0223853888166968e+02
3.0225371378410597e+02
3.0226899487012679e+02
3.0228542625786855e+02
3.0230031428332626e+02
3.0231471826275208e+02
3.0232890196256625e+02
3.0234396483259786e+02
3.0235713258462397e+02
3.0236946117251154e+02
3.0238113389469453e+02
3.0239254659496430e+02
3.0240279098188887e+02
3.0241216886655462e+02
3.0242034249941821e+02
3.0242841635044056e+02
3.0243599928319986e+02
3.0244299558710577e+02
3.0244898076674809e+02
3.0245504975224236e+02
3.0246075358101473e+02
3.0246563438615868e+02
3.0247082287689159e+02
3.0247590566721169e+02
3.0248074596005267e+02
3.0248561766849537e+02
3.0249046425619986e+02
3.0249552035132541e+02
3.0250015877098150e+02
3.0250465701765631e+02
3.0250930614750808e+02
3.0251348570468230e+02
3.0251749054666811e+02
3.0252162260938508e+02
3.0252524318156429e+02
3.0252864186927729e+02
3.0253203863639180e+02
3.0253502516574298e+02
3.0253779928561016e+02
3.0254048622087794e+02
3.0254292626762157e+02
3.0254529312145326e+02
3.0254741796754155e+02
3.0254941193326596e+02
3.0255138674854743e+02
3.0255316082775624e+02
3.0255484537679467e+02
3.0255655721634150e+02
3.0255810806109065e+02
3.0255968387634329e+02
3.0256108934642742e+02
3.0256251378987957e+02
3.0256375065297999e+02
3.0256492017746331e+02
3.0256614494894825e+02
3.0256720996682338e+02
3.0256829905340186e+02
3.0256922963358062e+02
3.0257016882401490e+02
3.0257095578078349e+02
3.0257169097622693e+02
3.0257247632726973e+02
3.0257314274772864e+02
3.0257384836891947e+02
3.0257442014744089e+02
3.0257498484216740e+02
3.0257544999862341e+02
3.0257587792374204e+02
3.0257625934482377e+02
3.0257662201078102e+02
3.0257694979819286e+02
3.0257726906951416e+02
3.0257756530503673e+02
3.0257788681379458e+02
3.0257816788261545e+02
3.0257850038889717e+02
3.0257876705658089e+02
3.0257908779777080e+02
3.0257938782562377e+02
3.0257958485506174e+02
3.0257975530926302e+02
3.0257987254776049e+02
3.0257992431363238e+02
3.0257998390711685e+02
3.0257999063846387e+02
3.0257998644340995e+02
3.0258001779146946e+02
3.0258006186080667e+02
3.0258010198410989e+02
3.0258020051432084e+02
3.0258028977926267e+02
3.0258030205535243e+02
3.0258033935170312e+02
3.0258026993526897e+02
3.0258016432095894e+02
3.0257993506804132e+02
3.0257975604742830e+02
3.0257945949562622e+02
3.0257914615745437e+02
3.0257892374679733e+02
3.0257869022704170e+02
3.0257852013940044e+02
3.0257832856276843e+02
3.0257804122759876e+02
3.0257773864062273e+02
3.0257724696091225e+02
3.0257669823890251e+02
3.0257585892637263e+02
3.0257490469199854e+02
3.0257388018829101e+02
3.0257294689864676e+02
3.0257178599196146e+02
3.0257053966094543e+02
3.0256914893256049e+02
3.0256760789651764e+02
3.0256590116484205e+02
3.0256372666661883e+02
3.0256106371920475e+02
3.0255799920231385e+02
3.0255449383559460e+02
3.0255064728599433e+02
3.0254559127722547e+02
3.0253947925620196e+02
3.0253246938059146e+02
3.0252467646452402e+02
3.0251662238641256e+02
3.0250773864356609e+02
3.0249620466731204e+02
3.0247995378127149e+02
3.0245858222569404e+02
3.0242691951584248e+02
3.0238484902167130e+02
3.0233769710507062e+02
3.0229078419820803e+02
3.0226513766753465e+02
3.0224601769817394e+02
3.0217667594085452e+02
3.0199200070886747e+02

SCALARS Heat-Flux float
LOOKUP_TABLE default
4.5879136725867484e+03
4.5879136725867484e+03
4.5879136725867484e+03
4.5879136725867484e+03
4.5879136725867484e+03
4.0611288581813060e+03
4.0611288581813060e+03
4.0611288581813060e+03
4.0611288581813060e+03
4.0611288581813060e+03
3.5343440437758641e+03
3.5343440437758641e+03
3.5343440437758641e+03
3.5343440437758641e+03
3.0075592293704212e+03
3.0075592293704212e+03
3.0075592293704212e+03
3.0075592293704212e+03
2.7727834571434305e+03
2.7727834571434305e+03
2.7727834571434305e+03
2.7727834571434305e+03
2.8300167270948909e+03
2.8300167270948909e+03
2.8300167270948909e+03
2.8300167270948909e+03
2.8872499970463509e+03
2.8872499970463509e+03
2.8872499970463509e+03
2.8872499970463509e+03
2.9444832669978114e+03
2.9444832669978114e+03
2.9444832669978114e+03
2.9444832669978114e+03
2.9626835307169763e+03
2.9626835307169763e+03
2.9626835307169763e+03
2.9418507882038457e+03
2.9418507882038457e+03
2.9418507882038457e+03
2.9418507882038457e+03
2.9210180456907156e+03
2.9210180456907156e+03
2.9210180456907156e+03
2.9001853031775854e+03
2.9001853031775854e+03
2.9001853031775854e+03
2.8953818732581558e+03
2.8953818732581558e+03
2.8953818732581558e+03
2.9066077559324281e+03
2.9066077559324281e+03
2.9066077559324281e+03
2.9178336386066994e+03
2.9178336386066994e+03
2.9178336386066994e+03
2.9290595212809712e+03
2.9290595212809712e+03
2.9290595212809712e+03
2.9362800431061351e+03
2.9362800431061351e+03
2.9362800431061351e+03
2.9394952040821918e+03
2.9394952040821918e+03
2.9427103650582480e+03
2.9427103650582480e+03
2.9427103650582480e+03
2.9459255260343052e+03
2.9459255260343052e+03
2.9459255260343052e+03
2.9492321973614198e+03
2.9492321973614198e+03
2.9526303790395918e+03
2.9526303790395918e+03
2.9560285607177648e+03
2.9560285607177648e+03
2.9560285607177648e+03
2.9594267423959373e+03
2.9594267423959373e+03
2.9624314382998227e+03
2.9624314382998227e+03
2.9650426484294185e+03
2.9650426484294185e+03
2.9650426484294185e+03
2.9676538585590156e+03
2.9676538585590156e+03
2.9702650686886118e+03
2.9702650686886118e+03
2.9717161433580741e+03
2.9717161433580741e+03
2.9720070825674011e+03
2.9720070825674011e+03
2.9722980217767281e+03
2.9722980217767281e+03
2.9725889609860551e+03
2.9725889609860551e+03
2.9735688507023883e+03
2.9735688507023883e+03
2.9752376909257277e+03
2.9752376909257277e+03
2.9769065311490676e+03
2.9785753713724071e+03
2.9785753713724071e+03
2.9789671820390613e+03
2.9789671820390613e+03
2.9780819631490303e+03
2.9780819631490303e+03
2.9771967442589994e+03
2.9763115253689680e+03
2.9763115253689680e+03
2.9765445775983826e+03
2.9765445775983826e+03
2.9778959009472428e+03
2.9792472242961030e+03
2.9792472242961030e+03
2.9805985476449632e+03
2.9802726886779637e+03
2.9802726886779637e+03
2.9782696473951050e+03
2.9782696473951050e+03
2.9762666061122463e+03
2.9742635648293881e+03
2.9742635648293881e+03
2.9738617903031618e+03
2.9750612825335688e+03
2.9762607747639759e+03
2.9762607747639759e+03
2.9774602669943824e+03
2.9763595502906046e+03
2.9763595502906046e+03
2.9729586246526405e+03
2.9695576990146765e+03
2.9661567733767133e+03
2.9661567733767133e+03
2.9640554259066744e+03
2.9632536566045610e+03
2.9624518873024472e+03
2.9616501180003334e+03
2.9616501180003334e+03
2.9588025413537835e+03
2.9539091573627979e+03
2.9490157733718124e+03
2.9441223893808265e+03
2.9441223893808265e+03
2.9376367387201167e+03