/*--------------------------------*- C++ -*----------------------------------*\
| =========                 |                                                 |
| \\      /  F ield         | OpenFOAM: The Open Source CFD Toolbox           |
|  \\    /   O peration     | Version:  4.1                                   |
|   \\  /    A nd           | Web:      www.OpenFOAM.org                      |
|    \\/     M anipulation  |                                                 |
\*---------------------------------------------------------------------------*/
FoamFile
{
    version     2.0;
    format      ascii;
    class       surfaceScalarField;
    location    "1.2";
    object      phi;
}
// * * * * * * * * * * * * * * * * * * * * * * * * * * * * * * * * * * * * * //

dimensions      [0 3 -1 0 0 0 0];

internalField   nonuniform List<scalar> 
5457
(
0.197506
0.00230058
0.194957
0.00239854
0.192333
0.00251916
0.18956
0.0027073
0.18662
0.00290498
0.183508
0.00310421
0.180213
0.00330928
0.176719
0.00352536
0.173007
0.00375532
0.169061
0.00400195
0.164862
0.00426764
0.160388
0.00455271
0.155616
0.00485948
0.15052
0.00519089
0.145071
0.0055498
0.139239
0.00593907
0.132989
0.00636157
0.126285
0.00682018
0.119087
0.00731782
0.111353
0.00785732
0.103039
0.00844032
0.0941017
0.00906719
0.0844969
0.00973811
0.0741807
0.0104531
0.0631083
0.0112122
0.0512394
0.0120115
0.0385323
0.0128498
0.0249436
0.0137222
0.0104681
0.0145672
0.0106145
0.199312
0.00279373
0.198104
0.00345671
0.196675
0.00384406
0.195042
0.00427374
0.19319
0.00472268
0.19111
0.00517627
0.188796
0.00563853
0.186236
0.00611606
0.183413
0.00662211
0.180309
0.00716232
0.176909
0.00773528
0.173195
0.00834496
0.169146
0.00899665
0.164735
0.00969669
0.159935
0.010451
0.154714
0.011266
0.149039
0.0121485
0.142869
0.0131054
0.136163
0.0141441
0.128869
0.0152736
0.120933
0.0165013
0.112297
0.0178323
0.102891
0.0192751
0.0926354
0.0208424
0.0814231
0.0225596
0.0691108
0.0244583
0.0554952
0.0265967
0.0402266
0.0291121
0.0222217
0.0326501
0.0330159
0.199172
0.00342558
0.198042
0.00443649
0.196688
0.00509338
0.195152
0.00574294
0.193426
0.00641324
0.191501
0.00709451
0.189368
0.00778758
0.187014
0.00850111
0.184424
0.00925482
0.181585
0.010056
0.178484
0.0109038
0.175103
0.011804
0.171424
0.012765
0.167418
0.0137969
0.163062
0.0149083
0.158323
0.0161104
0.153168
0.0174148
0.147555
0.0188342
0.141436
0.0203819
0.13475
0.0220805
0.127424
0.0239502
0.119374
0.0260077
0.110492
0.0282831
0.100642
0.030819
0.0896318
0.0336963
0.0771518
0.0370597
0.0627181
0.0411398
0.0456425
0.0462756
0.0249
0.05344
0.0580762
0.199081
0.00414615
0.197954
0.00541226
0.196615
0.00632781
0.195093
0.00719779
0.193388
0.00808146
0.191492
0.00898239
0.1894
0.00989812
0.187093
0.0108396
0.184559
0.01183
0.18179
0.0128769
0.178774
0.013984
0.175501
0.0151562
0.171949
0.0164061
0.168093
0.0177472
0.16391
0.0191895
0.159375
0.0207499
0.154453
0.0224464
0.149102
0.0242991
0.143272
0.0263294
0.1369
0.0285713
0.129901
0.0310691
0.122163
0.0338654
0.113541
0.0370224
0.103833
0.0406425
0.092767
0.0448726
0.0799562
0.0499719
0.0647485
0.0564303
0.0461505
0.064916
0.0242668
0.0753184
0.0824244
0.199032
0.00491326
0.197893
0.00639889
0.196563
0.00755276
0.195052
0.00864052
0.193362
0.00973305
0.19149
0.0108445
0.189431
0.0119768
0.187154
0.0131452
0.18465
0.0143702
0.181917
0.0156592
0.178942
0.0170188
0.175713
0.0184581
0.172214
0.0199918
0.168419
0.0216342
0.164306
0.0233996
0.159847
0.0253103
0.155011
0.0273905
0.149753
0.0296702
0.144013
0.0321838
0.137731
0.0349687
0.130814
0.0381012
0.123124
0.0416669
0.114495
0.045761
0.104682
0.0505569
0.0933214
0.0563214
0.0799663
0.063396
0.0640954
0.0723468
0.0446137
0.0843932
0.0224837
0.097379
0.104875
0.199006
0.00570344
0.197853
0.00739591
0.196534
0.00876752
0.195041
0.0100663
0.193371
0.0113633
0.191529
0.0126767
0.189503
0.0140212
0.187255
0.0154179
0.184781
0.0168767
0.182082
0.0184056
0.179143
0.0200149
0.175947
0.0217216
0.17248
0.0235385
0.168725
0.0254804
0.164648
0.0275715
0.160219
0.0298364
0.155412
0.0323046
0.150177
0.0350206
0.144438
0.038034
0.138125
0.0413913
0.13114
0.045195
0.123334
0.0495756
0.1145
0.0546917
0.104386
0.060757
0.0926384
0.0681376
0.0787152
0.0773554
0.0622265
0.0888344
0.042303
0.104262
0.0204914
0.119069
0.125294
0.198992
0.00650271
0.197834
0.00839507
0.19653
0.00996766
0.195062
0.0114691
0.193422
0.0129661
0.191611
0.0144821
0.189613
0.0160378
0.187399
0.0176556
0.184964
0.0193434
0.182305
0.0211105
0.17941
0.0229708
0.176256
0.0249441
0.172831
0.0270418
0.169115
0.0292877
0.165067
0.0317125
0.160653
0.0343403
0.155846
0.0372102
0.150595
0.0403822
0.144818
0.0439186
0.138423
0.04789
0.131299
0.0524198
0.123292
0.0576763
0.114182
0.0638838
0.103661
0.0713448
0.091418
0.0804299
0.076996
0.0917912
0.0599906
0.105802
0.0398075
0.124351
0.0186628
0.140071
0.143974
0.198986
0.00730188
0.19783
0.00938798
0.196546
0.0111488
0.195109
0.0128441
0.193503
0.0145374
0.191726
0.0162562
0.189763
0.018019
0.187591
0.0198502
0.185201
0.021763
0.18259
0.0237662
0.179742
0.0258777
0.176638
0.0281148
0.17326
0.0304953
0.169583
0.0330519
0.165573
0.0358158
0.161189
0.0388172
0.15638
0.0421074
0.151098
0.0457585
0.14527
0.0498478
0.138786
0.0544732
0.131516
0.0597822
0.123276
0.0659987
0.113856
0.0733726
0.10297
0.082282
0.090217
0.0932127
0.0752552
0.10675
0.0577924
0.123207
0.0375778
0.144457
0.017314
0.160189
0.161452
0.198982
0.00809693
0.197833
0.0103674
0.196576
0.0123026
0.195174
0.014183
0.193605
0.0160671
0.191869
0.017982
0.189947
0.0199499
0.187818
0.0219943
0.185478
0.0241281
0.182921
0.0263642
0.18013
0.0287239
0.177087
0.0312239
0.173761
0.0338926
0.170125
0.0367634
0.166167
0.039866
0.161835
0.0432542
0.157046
0.0469861
0.151751
0.0511367
0.145888
0.0558043
0.139327
0.0611276
0.131921
0.0672732
0.123498
0.0744948
0.113797
0.0831293
0.102568
0.0935491
0.0894243
0.106376
0.0739987
0.122163
0.0561894
0.140946
0.0361781
0.164354
0.0166819
0.179518
0.178345
0.198986
0.00888248
0.197851
0.0113262
0.196624
0.0134252
0.195258
0.015483
0.193729
0.0175505
0.192037
0.0196559
0.190158
0.0218278
0.188077
0.0240819
0.185797
0.0264301
0.183304
0.0288954
0.18058
0.0314998
0.177616
0.0342621
0.174365
0.0372188
0.170791
0.0404033
0.166891
0.0438512
0.16261
0.047636
0.157862
0.0518224
0.152593
0.0564884
0.146724
0.0617606
0.140132
0.0678061
0.132646
0.0748373
0.124094
0.083112
0.11424
0.0930291
0.102746
0.105065
0.0893422
0.1198
0.0737164
0.137784
0.0558601
0.158717
0.0361805
0.183895
0.0170127
0.198442
0.195464
0.199005
0.00965103
0.197893
0.0122642
0.196691
0.014523
0.195358
0.016751
0.193873
0.0189955
0.192227
0.0212865
0.190401
0.0236516
0.188386
0.0261031
0.186175
0.0286609
0.183754
0.0313515
0.181108
0.0341942
0.178224
0.0372171
0.17506
0.0404583
0.171579
0.0439534
0.167752
0.0477524
0.163534
0.0519351
0.158861
0.0565762
0.153665
0.0617653
0.14784
0.0676682
0.141274
0.0744534
0.133825
0.0823589
0.125264
0.0917332
0.115379
0.102953
0.103836
0.116616
0.0904124
0.133234
0.0748613
0.153323
0.0571858
0.176285
0.0378998
0.202984
0.0187009
0.217281
0.214096
0.19903
0.010399
0.197946
0.0131795
0.19677
0.0155927
0.195472
0.0179822
0.194032
0.0203965
0.192437
0.0228651
0.190676
0.0254113
0.188733
0.0280537
0.186597
0.030817
0.184258
0.0337229
0.181703
0.0367964
0.178905
0.0400765
0.175837
0.0435938
0.172472
0.0473949
0.168752
0.0515463
0.164634
0.0561215
0.160073
0.0612116
0.154991
0.0669252
0.149296
0.0734415
0.142857
0.0809686
0.135549
0.0897364
0.127174
0.100166
0.117478
0.11269
0.106218
0.127898
0.0931642
0.146283
0.0780152
0.16841
0.060799
0.193348
0.0421213
0.221379
0.0226664
0.236267
0.236564
0.199053
0.0111257
0.197998
0.0140666
0.196854
0.0166259
0.195596
0.0191675
0.194204
0.0217423
0.192667
0.0243787
0.190973
0.0270992
0.189104
0.0299299
0.187053
0.0328888
0.184812
0.0359958
0.182363
0.0392957
0.179673
0.0428253
0.176719
0.0466104
0.173479
0.0507121
0.169893
0.0552041
0.165923
0.060157
0.161524
0.0656805
0.156614
0.0719075
0.151124
0.0790061
0.144952
0.0872147
0.137928
0.0968277
0.129923
0.108228
0.120728
0.121927
0.110179
0.138502
0.0980374
0.158424
0.0839345
0.182389
0.0679773
0.209086
0.0507057
0.238275
0.0310011
0.255422
0.267286
0.199076
0.0118298
0.198051
0.0149224
0.196946
0.0176188
0.195732
0.020303
0.194392
0.0230283
0.192919
0.0258222
0.191299
0.0287084
0.189519
0.0317164
0.187567
0.0348598
0.185429
0.0381645
0.183087
0.0416842
0.180519
0.0454478
0.177702
0.0494904
0.174609
0.0538765
0.171192
0.0586841
0.167417
0.0639929
0.163234
0.0699271
0.158581
0.0766253
0.15339
0.0842684
0.147591
0.0930863
0.141048
0.103435
0.133667
0.115659
0.125331
0.130288
0.115992
0.147879
0.105489
0.168897
0.0936372
0.194051
0.08067
0.221756
0.0669503
0.251533
0.0480886
0.273682
0.315018
0.199095
0.012512
0.198102
0.015746
0.197038
0.0185701
0.195871
0.0213877
0.194583
0.0242534
0.193175
0.027194
0.19163
0.0302386
0.189939
0.0334131
0.188085
0.0367307
0.186048
0.0402282
0.183818
0.0439529
0.18138
0.0479301
0.178717
0.0522117
0.175795
0.0568625
0.172565
0.0619682
0.169003
0.0676086
0.165074
0.0739116
0.160721
0.081033
0.155921
0.0891362
0.150609
0.0984708
0.144718
0.109385
0.138217
0.1222
0.131106
0.13741
0.123498
0.15547
0.115469
0.17681
0.107463
0.201793
0.100084
0.228756
0.0940787
0.257007
0.0847265
0.282419
0.399262
0.0054582
-0.00551348
0.010427
-0.00504014
0.0151712
-0.00495321
0.0199073
-0.00496869
0.0246298
-0.00482147
0.0292861
-0.00453076
0.0337647
-0.00413211
0.037917
-0.00362671
0.0416219
-0.00305925
0.0447459
-0.00245082
0.0471708
-0.00176425
0.0487847
-0.000963863
0.0495219
-0.000113884
0.0494586
0.00066947
0.0487811
0.00126112
0.047652
0.00167052
0.0462628
0.00190106
0.0448141
0.0019439
0.0434774
0.00181989
0.0424226
0.00152684
0.0418531
0.00107684
0.0419016
0.000499254
0.0426677
-0.000217503
0.0444025
-0.00118389
0.0474393
-0.00248306
0.0521521
-0.00415627
0.058785
-0.00607421
0.0676204
-0.00827565
0.079027
-0.0108461
-0.0138783
0.00341807
-0.00895851
0.00746822
-0.00920337
0.0115247
-0.0092665
0.015413
-0.00915825
0.0190659
-0.00865209
0.0223844
-0.0077997
0.0252442
-0.0067054
0.0275045
-0.00541094
0.0289962
-0.00395982
0.0295436
-0.00237476
0.0291448
-0.000731769
0.0280768
0.000751285
0.0265747
0.00200834
0.0247045
0.00312006
0.022547
0.00398777
0.0202678
0.00451207
0.0180224
0.00469422
0.0159635
0.00453483
0.0142524
0.00405076
0.0130232
0.00326672
0.0123942
0.00222956
0.0124817
0.000952997
0.0134602
-0.00065192
0.0155502
-0.00272663
0.0188825
-0.00526457
0.0235122
-0.00823187
0.0295147
-0.0115199
0.0370753
-0.015278
0.0462935
-0.0195048
-0.0242814
0.00215974
-0.0111009
0.00481224
-0.0120405
0.00740704
-0.0121837
0.00959886
-0.0117144
0.0113155
-0.0106094
0.012499
-0.00899583
0.0130852
-0.00705821
0.0130266
-0.0049168
0.012256
-0.00266663
0.0108608
-0.000436551
0.00913689
0.00157024
0.00716494
0.00333968
0.0048943
0.00489238
0.00240014
0.00617487
-0.000180345
0.00709756
-0.00272086
0.00759111
-0.00510454
0.0076235
-0.00720933
0.00717709
-0.00890747
0.00627873
-0.0100808
0.00496535
-0.0106168
0.00329309
-0.0104044
0.00127373
-0.00933808
-0.00118074
-0.00738102
-0.00414178
-0.004511
-0.00758833
-0.000759489
-0.0114331
0.00392578
-0.0156514
0.00942872
-0.020225
0.015587
-0.0251051
-0.0296354
0.00123731
-0.01227
0.00248067
-0.0135406
0.0034192
-0.0135125
0.00369667
-0.0123969
0.00335083
-0.0105316
0.00246458
-0.00814949
0.0010826
-0.00547902
-0.000662535
-0.00276326
-0.00265543
-0.000180963
-0.00480163
0.00220692
-0.00711622
0.0044172
-0.00962135
0.00640251
-0.0122808
0.00811473
-0.0150246
0.00946676
-0.0177685
0.0103635
-0.0204156
0.0107538
-0.0228529
0.0105805
-0.0249789
0.00982175
-0.0266862
0.00850256
-0.0278711
0.00666635
-0.0284358
0.00437701
-0.0283072
0.0016697
-0.027454
-0.00150388
-0.0258866
-0.00517364
-0.0236602
-0.00927385
-0.0208636
-0.0136838
-0.017651
-0.0183141
-0.0142607
-0.0230622
-0.0110757
-0.0277342
-0.0320473
0.000362604
-0.0125928
0.000124147
-0.0136194
-0.000666956
-0.0131702
-0.00231699
-0.0111717
-0.00445795
-0.00865533
-0.00693775
-0.00569994
-0.00951916
-0.00269736
-0.0120718
0.000155835
-0.0146107
0.00279161
-0.0172508
0.00529897
-0.0199799
0.00763741
-0.0227902
0.00972872
-0.0256706
0.0115067
-0.0285509
0.0128631
-0.0313736
0.0136977
-0.0340623
0.0139442
-0.036527
0.0135443
-0.0386843
0.0124796
-0.040446
0.0107663
-0.041726
0.00845098
-0.0424442
0.00560441
-0.0425523
0.0022931
-0.0420699
-0.00146448
-0.0410621
-0.00565308
-0.0395998
-0.0102015
-0.0378052
-0.014938
-0.0358685
-0.019705
-0.0340375
-0.0243436
-0.0325478
-0.0286704
-0.0324483
-0.000632255
-0.0120435
-0.00254022
-0.0120711
-0.00492846
-0.0112587
-0.00808112
-0.00842114
-0.0115518
-0.005404
-0.0149901
-0.00224612
-0.0181764
0.000744165
-0.0211369
0.00348971
-0.0240815
0.00612533
-0.0270234
0.00865408
-0.0299688
0.0110166
-0.0329339
0.0131506
-0.0359012
0.0149419
-0.0388257
0.0162613
-0.0416669
0.0170156
-0.0443683
0.017122
-0.0468652
0.0165193
-0.0490872
0.0151836
-0.050963
0.0131286
-0.0524231
0.0104025
-0.0534034
0.00708262
-0.0538665
0.00326131
-0.0538448
-0.000973338
-0.0534201
-0.00555732
-0.0526908
-0.010403
-0.0517829
-0.0153113
-0.050872
-0.0200752
-0.050155
-0.0245149
-0.0498257
-0.0284491
-0.0316422
-0.00163996
-0.0105954
-0.00492208
-0.00917355
-0.00897043
-0.00767218
-0.0133058
-0.00441718
-0.0175724
-0.00127705
-0.0214486
0.00169016
-0.0249056
0.00445782
-0.0281535
0.00709814
-0.0313048
0.00965214
-0.0343576
0.0121128
-0.0373721
0.0144398
-0.0403711
0.0165557
-0.0433316
0.0183245
-0.0462433
0.0196083
-0.0490795
0.0202965
-0.0517999
0.0202931
-0.0543543
0.0195301
-0.0566849
0.0179772
-0.058731
0.0156447
-0.0604333
0.0125823
-0.0617401
0.00887504
-0.0626227
0.00463816
-0.0630966
3.65825e-06
-0.063245
-0.00489702
-0.0631875
-0.00994021
-0.0630375
-0.0149331
-0.0629418
-0.0196356
-0.0630573
-0.023858
-0.0635537
-0.0274054
-0.0300999
-0.00267357
-0.00812279
-0.00741739
-0.00483469
-0.012666
-0.0028324
-0.0176851
0.000370956
-0.0222169
0.00321366
-0.0262227
0.00581434
-0.029845
0.00829992
-0.0331982
0.010736
-0.0363611
0.0131497
-0.0393898
0.015515
-0.0423543
0.0177883
-0.0452875
0.0198687
-0.0481892
0.0216153
-0.0510628
0.0228841
-0.0538939
0.0235421
-0.0566546
0.0234787
-0.0593049
0.0226146
-0.0617946
0.0209106
-0.0640676
0.0183708
-0.0660672
0.0150446
-0.067744
0.0110245
-0.0690683
0.00644512
-0.0700504
0.00147867
-0.070758
-0.00368669
-0.071307
-0.00887885
-0.0718044
-0.0139145
-0.0723698
-0.0185408
-0.0731312
-0.02256
-0.0742285
-0.0257644
-0.0280677
-0.00395452
-0.00429444
-0.00973858
0.000519164
-0.0156528
0.00274756
-0.0208878
0.0054751
-0.0254603
0.00783181
-0.0294401
0.00997635
-0.0329913
0.0120784
-0.0362477
0.0142351
-0.0392721
0.0164639
-0.0421626
0.0187267
-0.0449891
0.0209523
-0.0477956
0.0230214
-0.0506059
0.0247837
-0.0534306
0.0260811
-0.0562655
0.0267639
-0.0590914
0.0267047
-0.0618743
0.02581
-0.064568
0.0240285
-0.0671173
0.0213561
-0.0694648
0.0178398
-0.0715586
0.0135775
-0.0733616
0.0087189
-0.0748675
0.0034667
-0.0761218
-0.00193914
-0.0772213
-0.00727547
-0.0782818
-0.0123401
-0.0793986
-0.016901
-0.0806769
-0.0207505
-0.082228
-0.0236739
-0.0256756
-0.00509885
0.000744698
-0.0116344
0.00661329
-0.0177421
0.00860326
-0.0229423
0.0106265
-0.0273041
0.0122903
-0.0310203
0.0138852
-0.0342905
0.0155735
-0.037261
0.0174361
-0.0400251
0.019482
-0.0426823
0.0216605
-0.0453047
0.0238716
-0.0479464
0.0259761
-0.050644
0.0278097
-0.0534172
0.0291991
-0.0562696
0.0299772
-0.0591869
0.0299986
-0.0621387
0.0291529
-0.065079
0.027374
-0.0679509
0.0246469
-0.0706924
0.0210136
-0.0732456
0.0165761
-0.0755661
0.0114978
-0.0776299
0.00600164
-0.0794411
0.000355322
-0.0810657
-0.00515572
-0.0826319
-0.0102678
-0.0842257
-0.0147907
-0.0859333
-0.0185172
-0.0878443
-0.0212279
-0.0230016
-0.00605116
0.00676786
-0.0130208
0.0131846
-0.018935
0.0143571
-0.0236904
0.0153988
-0.0275634
0.0162855
-0.030813
0.0173059
-0.0336393
0.018592
-0.0361945
0.0201973
-0.0385965
0.0221056
-0.0409408
0.0242456
-0.0433043
0.026497
-0.0457485
0.0287021
-0.0483186
0.0306801
-0.0510416
0.032241
-0.0539261
0.0331986
-0.0569611
0.033388
-0.060117
0.0326795
-0.0633466
0.0309901
-0.0665887
0.0282909
-0.0697737
0.0246157
-0.0728331
0.0200672
-0.075709
0.0148197
-0.07836
0.0091124
-0.0807665
0.00323499
-0.0829462
-0.00249001
-0.0849891
-0.00772677
-0.0870153
-0.0122551
-0.0890981
-0.0159147
-0.0913127
-0.0184833
-0.0200919
-0.006815
0.0135768
-0.0136526
0.0197355
-0.0188926
0.0195363
-0.0229241
0.0194946
-0.0261186
0.0196097
-0.0287402
0.0200787
-0.0309877
0.0210031
-0.0330192
0.0224066
-0.0349625
0.0242423
-0.0369196
0.0264148
-0.0389733
0.0287837
-0.0411893
0.0311723
-0.0436173
0.0333828
-0.0462896
0.035208
-0.0492182
0.0364419
-0.0523942
0.0368977
-0.0557879
0.0364247
-0.0593502
0.0349209
-0.0630143
0.0323403
-0.0667005
0.0287037
-0.0703245
0.024109
-0.0738099
0.0187384
-0.0770958
0.0128467
-0.080141
0.00674298
-0.0829246
0.000770254
-0.0854698
-0.00469177
-0.0879103
-0.00931237
-0.0903442
-0.0129674
-0.0928362
-0.0154663
-0.0169672
-0.00697356
0.0205858
-0.013081
0.0256987
-0.0173909
0.0238715
-0.0205994
0.0227893
-0.0229941
0.022124
-0.0248279
0.0220419
-0.0263409
0.0226561
-0.0277223
0.0239417
-0.0291096
0.0257993
-0.0306075
0.0281009
-0.0323
0.030685
-0.0342535
0.033356
-0.0365178
0.0358986
-0.0391304
0.0380933
-0.0421057
0.0397111
-0.0454364
0.0405431
-0.049093
0.0404149
-0.0530243
0.0392035
-0.0571584
0.0368435
-0.0614035
0.0333356
-0.0656545
0.0287642
-0.0698127
0.0233174
-0.0737965
0.0172673
-0.0775444
0.0109433
-0.0810152
0.00470817
-0.0841621
-0.00106357
-0.0870432
-0.0059367
-0.0898331
-0.00967051
-0.0926065
-0.0121735
-0.0136245
-0.00603476
0.0267518
-0.0111444
0.0307713
-0.014596
0.0273934
-0.0169603
0.0252374
-0.0183394
0.0236005
-0.0191316
0.0229402
-0.0197152
0.0233572
-0.0203142
0.0246723
-0.0210501
0.0266831
-0.0220165
0.0292337
-0.0232932
0.0321483
-0.0249419
0.0352124
-0.0270066
0.0381928
-0.0295344
0.0408721
-0.0325406
0.0429906
-0.0360219
0.04432
-0.039948
0.0446577
-0.0442679
0.0438589
-0.0489115
0.0418408
-0.0537773
0.0385736
-0.0587353
0.0341129
-0.0636607
0.0286509
-0.0684452
0.0224772
-0.0729934
0.0159333
-0.0772303
0.00940262
-0.0811034
0.00328207
-0.0845549
-0.00199828
-0.0877274
-0.00599789
-0.0908202
-0.00856703
-0.010042
-0.00167603
0.0287415
-0.00827307
0.0373087
-0.0112462
0.0304036
-0.012579
0.0266238
-0.0124296
0.0235192
-0.01176
0.0223511
-0.0111849
0.0228763
-0.0108792
0.0244759
-0.0108712
0.0268012
-0.0112296
0.0297369
-0.0120265
0.0331103
-0.0133132
0.0366855
-0.0151155
0.0402032
-0.0175065
0.0434933
-0.0204945
0.0462311
-0.0240837
0.0481849
-0.0282468
0.04912
-0.0329397
0.0488721
-0.0381047
0.047345
-0.0436397
0.0444669
-0.0493814
0.040232
-0.0551714
0.034837
-0.0608742
0.028594
-0.0663494
0.0218399
-0.0714925
0.0149936
-0.0762187
0.00847213
-0.080456
0.002718
-0.08421
-0.00175074
-0.0877008
-0.00456867
-0.006153
0.206752
0.0131812
0.20577
0.0165502
0.204727
0.0194988
0.203574
0.022447
0.202305
0.0254463
0.200924
0.0285277
0.199413
0.0317273
0.197771
0.0350594
0.195977
0.038541
0.194003
0.0422232
0.191847
0.0461398
0.189506
0.0503137
0.18695
0.0548189
0.184139
0.0597204
0.181056
0.0650967
0.177671
0.0710408
0.173971
0.0776564
0.169923
0.0851198
0.16554
0.0935749
0.160774
0.103293
0.155655
0.114555
0.150257
0.127629
0.144722
0.142939
0.139397
0.160724
0.134799
0.1812
0.132202
0.204043
0.133261
0.227224
0.140948
0.248702
0.159093
0.263594
0.266919
0.290938
0.211783
0.0138317
0.210821
0.0173259
0.209809
0.0203936
0.208689
0.0234647
0.20746
0.0265881
0.206127
0.0298021
0.204683
0.0331415
0.203126
0.036619
0.201419
0.0402587
0.199541
0.0441139
0.197505
0.0482044
0.195306
0.0525598
0.192902
0.0572709
0.19026
0.0623991
0.187396
0.0680006
0.184291
0.074186
0.180937
0.0810457
0.17735
0.088739
0.173525
0.0974322
0.169482
0.107352
0.165397
0.118673
0.161416
0.13162
0.157849
0.146454
0.155323
0.163118
0.154792
0.181457
0.158055
0.200374
0.16735
0.2174
0.185918
0.229487
0.214805
0.234034
0.238163
0.243048
0.216945
0.0144584
0.216008
0.0180682
0.215028
0.0212441
0.213955
0.0244282
0.212783
0.0276687
0.211514
0.0310017
0.210155
0.0344647
0.208693
0.038079
0.207083
0.0418683
0.205326
0.0458747
0.203441
0.0501168
0.201402
0.0546435
0.199185
0.0595296
0.196781
0.0648352
0.194205
0.0706106
0.191466
0.0769581
0.188558
0.0839828
0.185525
0.0918039
0.182393
0.100575
0.179287
0.110441
0.176435
0.121523
0.174051
0.133953
0.172655
0.147722
0.17303
0.162539
0.17629
0.177868
0.183929
0.192284
0.196884
0.203897
0.214723
0.211033
0.234852
0.213318
0.212092
0.260494
0.222238
0.0150575
0.221331
0.0187705
0.220387
0.0220418
0.219368
0.0253299
0.218268
0.0286752
0.217081
0.0321142
0.215811
0.0356942
0.214453
0.0394291
0.212964
0.0433466
0.211351
0.0474831
0.209638
0.0518561
0.207795
0.0565248
0.205812
0.0615419
0.203704
0.0669687
0.201474
0.072866
0.199146
0.0793097
0.196746
0.0864004
0.194345
0.0942227
0.192032
0.102878
0.189989
0.112461
0.188442
0.12303
0.187725
0.134548
0.188459
0.146796
0.19138
0.159355
0.197358
0.171521
0.207036
0.18214
0.220266
0.190137
0.236213
0.194531
0.254385
0.194632
0.189505
0.27659
0.227661
0.0156227
0.226791
0.0194225
0.22589
0.0227796
0.224934
0.0261612
0.223918
0.0295958
0.222822
0.03313
0.221658
0.0368088
0.220427
0.0406425
0.219077
0.0446711
0.217625
0.0489165
0.216116
0.0533897
0.214515
0.0581556
0.212803
0.0632667
0.211016
0.0687707
0.209172
0.0747248
0.207307
0.0811844
0.205481
0.0882253
0.20379
0.0959051
0.202357
0.104281
0.201384
0.113397
0.201152
0.123179
0.202061
0.133467
0.204638
0.143982
0.209408
0.15428
0.216804
0.163738
0.226926
0.171563
0.239479
0.17709
0.253935
0.179576
0.269641
0.178469
0.172705
0.286095
0.233219
0.0161476
0.23239
0.0200188
0.23154
0.0234479
0.230661
0.0269078
0.229744
0.030421
0.228752
0.034033
0.227712
0.0377841
0.226622
0.0417012
0.225422
0.0458219
0.224166
0.0501409
0.222896
0.054682
0.22155
0.0595134
0.220133
0.0646773
0.218699
0.0702042
0.217287
0.076138
0.215943
0.0825211
0.214737
0.0894055
0.213783
0.0968219
0.213234
0.104772
0.213332
0.113218
0.214373
0.122007
0.216677
0.130958
0.220592
0.1398
0.226411
0.148132
0.234305
0.15546
0.244193
0.161247
0.255798
0.165029
0.268617
0.166304
0.281845
0.164829
0.159271
0.294959
0.238919
0.0166266
0.238132
0.0205544
0.237334
0.0240384
0.236548
0.0275558
0.235758
0.0311311
0.234891
0.0348073
0.233977
0.0386168
0.233032
0.0425969
0.23201
0.046777
0.230982
0.0511335
0.229962
0.0557156
0.228887
0.0605758
0.227801
0.0657365
0.22676
0.0712224
0.225815
0.0770624
0.225011
0.0832918
0.224432
0.0899254
0.224229
0.096954
0.224581
0.104326
0.225708
0.111965
0.227821
0.11972
0.231136
0.12741
0.235869
0.134778
0.242177
0.141485
0.25011
0.147157
0.259528
0.151438
0.270152
0.153984
0.281531
0.154506
0.29302
0.152963
0.147844
0.304149
0.244766
0.0170524
0.244029
0.0210194
0.243288
0.0245388
0.242606
0.0280921
0.241959
0.0317149
0.241222
0.0354451
0.24044
0.039295
0.239663
0.0433088
0.23885
0.0475127
0.238063
0.0518837
0.237298
0.056475
0.236528
0.0613137
0.235806
0.0664158
0.235179
0.0718007
0.234711
0.0774832
0.234458
0.0834779
0.234535
0.0897562
0.235097
0.0962878
0.236284
0.103009
0.238254
0.109831
0.241156
0.116613
0.245147
0.123165
0.250361
0.129262
0.25686
0.134639
0.26462
0.139038
0.27351
0.142191
0.283258
0.14385
0.293459
0.143918
0.303649
0.142425
0.137846
0.313365
0.250773
0.0174134
0.25009
0.0214045
0.249418
0.0249381
0.24885
0.0285089
0.248335
0.0321685
0.247731
0.0359332
0.247111
0.039796
0.246525
0.0438157
0.245938
0.0480144
0.245394
0.0523772
0.244899
0.0569372
0.244464
0.0617058
0.244123
0.0667002
0.243926
0.0719253
0.243955
0.0773812
0.244279
0.0830558
0.245006
0.0889107
0.246248
0.0949096
0.248113
0.100983
0.250727
0.107026
0.254211
0.112902
0.258666
0.118443
0.264158
0.123464
0.270679
0.127776
0.278179
0.131186
0.286543
0.133483
0.295511
0.134529
0.304746
0.134331
0.313914
0.132934
0.128892
0.322602
0.256924
0.0177082
0.256314
0.0217028
0.255737
0.0252288
0.255283
0.0288048
0.254878
0.0324837
0.254428
0.036249
0.254005
0.0401004
0.253621
0.0441047
0.253261
0.0482711
0.25297
0.0525928
0.25277
0.0570758
0.252688
0.061729
0.252744
0.0665672
0.252994
0.071577
0.253524
0.0767493
0.254394
0.0820619
0.255685
0.0874772
0.257492
0.0929412
0.259912
0.0983782
0.263041
0.103687
0.266961
0.108741
0.271728
0.113403
0.277351
0.117537
0.283798
0.121001
0.291024
0.123622
0.298902
0.125269
0.307192
0.125907
0.315636
0.125563
0.323998
0.124272
0.120712
0.331925
0.263203
0.0179282
0.262702
0.0219007
0.262242
0.0254076
0.261889
0.0289757
0.261599
0.0326394
0.261337
0.0363756
0.26112
0.0402048
0.260935
0.0441693
0.260816
0.0482696
0.260803
0.0525065
0.26092
0.0568718
0.261193
0.061372
0.261646
0.0660107
0.262334
0.0707686
0.263324
0.0756303
0.264674
0.0805651
0.266457
0.0855287
0.268751
0.0904627
0.271631
0.0952931
0.275167
0.0999258
0.27941
0.104251
0.28437
0.108168
0.290029
0.111575
0.296375
0.114336
0.303341
0.11633
0.310774
0.117512
0.318486
0.117878
0.326295
0.11745
0.334019
0.116264
0.113126
0.341364
0.269637
0.0180592
0.269257
0.0219922
0.268919
0.0254703
0.268669
0.0290033
0.268521
0.0326186
0.268454
0.0363125
0.268435
0.0400997
0.268468
0.0439916
0.268609
0.0479937
0.268889
0.0521078
0.269324
0.0563244
0.269941
0.0606422
0.270772
0.0650522
0.271866
0.0695347
0.273278
0.0740659
0.275063
0.0786116
0.27728
0.0831251
0.279989
0.0875481
0.283242
0.0918146
0.287096
0.0958388
0.291574
0.099531
0.296646
0.10282
0.30231
0.105607
0.308545
0.107788
0.315248
0.109313
0.322288
0.110162
0.329527
0.110336
0.336825
0.109863
0.344042
0.108776
0.106004
0.350932
0.276247
0.0180985
0.275969
0.0219727
0.27576
0.0254
0.275645
0.0288721
0.275651
0.0324218
0.275761
0.0360525
0.275946
0.0397629
0.276221
0.0435547
0.276628
0.0474343
0.277192
0.0514006
0.277935
0.055443
0.278886
0.0595517
0.280077
0.0637118
0.28155
0.0679008
0.283352
0.0720911
0.285528
0.0762472
0.288125
0.0803227
0.291188
0.0842611
0.294742
0.0880135
0.298829
0.0915066
0.303472
0.0946507
0.30863
0.0973884
0.314283
0.0996523
0.320385
0.101382
0.32684
0.102554
0.333549
0.103154
0.340404
0.103193
0.347291
0.1027
0.354105
0.101703
0.0992492
0.360637
0.283028
0.018037
0.282849
0.0218284
0.282773
0.0251829
0.282811
0.0285782
0.282975
0.0320438
0.28326
0.0355824
0.283656
0.0391879
0.284174
0.0428575
0.284844
0.0465927
0.285689
0.0503892
0.286734
0.0542349
0.288006
0.0581147
0.289538
0.0620096
0.291364
0.065895
0.293523
0.0697413
0.296047
0.0735163
0.298973
0.0771738
0.302329
0.0806679
0.306126
0.0839588
0.3104
0.0869723
0.315167
0.0896319
0.320381
0.091902
0.325996
0.0937453
0.33196
0.0951232
0.338201
0.096019
0.344637
0.096431
0.351178
0.0963735
0.357737
0.0958756
0.364229
0.0949621
0.0927836
0.370477
0.289976
0.0178652
0.289905
0.0215528
0.289964
0.0248148
0.290155
0.0281142
0.290484
0.0314751
0.290954
0.0348979
0.291562
0.0383749
0.29232
0.0419002
0.293248
0.0454707
0.294368
0.0490792
0.295704
0.0527111
0.297284
0.0563477
0.299134
0.0599681
0.301287
0.0635459
0.303773
0.0670503
0.306605
0.0704607
0.309803
0.0737373
0.313396
0.0768247
0.317408
0.0796852
0.321851
0.0822618
0.326706
0.0845069
0.331935
0.0863961
0.337495
0.0878991
0.343337
0.0889942
0.349397
0.0896737
0.355607
0.0899424
0.361895
0.0898167
0.368191
0.0893237
0.374426
0.088485
0.0865472
0.38045
0.297094
0.0175768
0.29714
0.0211403
0.297336
0.0242908
0.297682
0.0274743
0.298183
0.0307105
0.298842
0.0339971
0.299663
0.0373249
0.300654
0.0406858
0.301834
0.0440737
0.303219
0.047479
0.304833
0.0508847
0.306703
0.0542687
0.30885
0.0576102
0.311306
0.0608822
0.314088
0.0640595
0.317183
0.0671276
0.320616
0.0700433
0.324428
0.0727497
0.328625
0.0752188
0.333192
0.0774202
0.338105
0.079317
0.343333
0.0808866
0.348839
0.0821104
0.354573
0.0829773
0.360483
0.0834862
0.366509
0.0836452
0.372592
0.0834716
0.378677
0.0829897
0.384708
0.0822184
0.0804919
0.390555
0.304386
0.0171667
0.304554
0.0205857
0.30489
0.0236061
0.305394
0.0266546
0.30607
0.0297473
0.306921
0.0328793
0.307952
0.0360399
0.309172
0.0392191
0.310595
0.0424084
0.312235
0.0455988
0.314107
0.0487705
0.316255
0.0518944
0.318689
0.0549557
0.321411
0.0579359
0.324447
0.0608055
0.327782
0.0635429
0.331439
0.0661102
0.335441
0.0684711
0.339779
0.0706036
0.344438
0.0724808
0.349394
0.0740782
0.354619
0.0753791
0.360075
0.0763726
0.365719
0.0770546
0.371503
0.0774279
0.37738
0.0775028
0.3833
0.077296
0.389216
0.0768294
0.395084
0.0761192
0.0745793
0.400791
0.311856
0.0166309
0.312149
0.019885
0.312628
0.0227575
0.313292
0.0256527
0.314143
0.0285839
0.315188
0.0315443
0.316427
0.0345226
0.31787
0.0375059
0.319531
0.0404805
0.321418
0.0434452
0.323536
0.0463812
0.325936
0.0492465
0.328638
0.0520303
0.331605
0.0547263
0.334861
0.057299
0.338417
0.0597227
0.34227
0.061975
0.346428
0.0640282
0.350884
0.0658625
0.35562
0.0674582
0.360613
0.0687988
0.365833
0.0698734
0.371248
0.0706763
0.376817
0.0712077
0.382501
0.0714731
0.388258
0.0714837
0.394047
0.0712549
0.399829
0.0708064
0.405568
0.070152
0.0687781
0.411165
0.319508
0.0159664
0.319929
0.0190355
0.320551
0.0217429
0.321375
0.0244674
0.322404
0.027219
0.323645
0.0299887
0.325096
0.0327719
0.326752
0.035555
0.328633
0.038309
0.330755
0.0410342
0.333122
0.0437232
0.33576
0.0463349
0.338687
0.0488527
0.341881
0.051269
0.345345
0.0535574
0.34909
0.0556951
0.353113
0.0576624
0.357409
0.0594396
0.361967
0.0610106
0.366771
0.0623618
0.371797
0.0634823
0.377017
0.0643657
0.382399
0.0650104
0.38791
0.065419
0.393515
0.0655986
0.399177
0.0655602
0.404863
0.0653184
0.41054
0.0648901
0.416178
0.0642875
0.0630623
0.421689
0.327345
0.0151697
0.327898
0.018034
0.328667
0.0205599
0.329651
0.023098
0.330856
0.0256541
0.332285
0.0282203
0.333939
0.030795
0.335811
0.0333658
0.337908
0.0358984
0.34025
0.0383826
0.342852
0.0408162
0.345717
0.0431737
0.348847
0.0454347
0.352242
0.0475854
0.355898
0.0496065
0.359816
0.0514795
0.363989
0.0531883
0.368408
0.0547181
0.37306
0.056057
0.377927
0.0571957
0.382985
0.0581275
0.38821
0.0588496
0.393571
0.0593627
0.39904
0.0596712
0.404585
0.0597828
0.410175
0.0597081
0.415783
0.0594603
0.421379
0.0590543
0.426939
0.0585006
0.05741
0.432385
0.335373
0.0142378
0.33606
0.0168775
0.336978
0.0192061
0.338125
0.0215433
0.339501
0.0238926
0.34111
0.0262476