/*--------------------------------*- C++ -*----------------------------------*\
| =========                 |                                                 |
| \\      /  F ield         | OpenFOAM: The Open Source CFD Toolbox           |
|  \\    /   O peration     | Version:  5.x                                   |
|   \\  /    A nd           | Web:      www.OpenFOAM.org                      |
|    \\/     M anipulation  |                                                 |
\*---------------------------------------------------------------------------*/
FoamFile
{
    version     2.0;
    format      ascii;
    class       surfaceVectorField;
    location    "1.2";
    object      Uf;
}
// * * * * * * * * * * * * * * * * * * * * * * * * * * * * * * * * * * * * * //

dimensions      [0 1 -1 0 0 0 0];

internalField   nonuniform List<vector> 
5457
(
(9.91386 -2.22847e-19 0.0224505)
(9.96522 -4.31503e-22 0.0359667)
(9.82016 -1.23268e-19 0.0277011)
(9.92961 0 0.0404456)
(9.7173 -2.45562e-19 0.0318731)
(9.86952 -1.21666e-21 0.0461708)
(9.6024 -1.22259e-19 0.0362892)
(9.78953 -1.66324e-21 0.0536241)
(9.47535 0 0.0408877)
(9.69575 -2.53866e-19 0.0616067)
(9.33631 0 0.0456772)
(9.58966 -1.31358e-19 0.0699997)
(9.1851 7.31842e-20 0.0507713)
(9.47071 2.70579e-19 0.0789891)
(9.02125 -5.45479e-21 0.0562934)
(9.33818 2.30068e-21 0.0887688)
(8.84407 6.04544e-21 0.062356)
(9.19151 1.4213e-19 0.0995195)
(8.65267 7.70464e-20 0.0690641)
(9.02999 7.77634e-20 0.11141)
(8.44607 -1.26974e-19 0.0765249)
(8.85279 6.97851e-22 0.124602)
(8.22317 -1.23158e-19 0.0848566)
(8.65894 -8.52495e-20 0.139273)
(7.98273 0 0.094198)
(8.44729 3.76844e-19 0.155625)
(7.72337 1.95546e-19 0.10471)
(8.21657 3.73882e-19 0.173899)
(7.44358 3.7073e-19 0.116573)
(7.96537 -5.25817e-19 0.194364)
(7.14171 -2.4968e-19 0.129983)
(7.69212 9.59563e-19 0.217304)
(6.81598 -4.67331e-19 0.145156)
(7.39513 -1.19981e-18 0.243017)
(6.46457 -5.32493e-19 0.162327)
(7.07256 -1.6597e-18 0.27181)
(6.08558 -8.88815e-20 0.181743)
(6.72252 3.19523e-18 0.303988)
(5.67714 3.61627e-19 0.203654)
(6.34303 -1.31971e-18 0.339826)
(5.2375 -2.82999e-19 0.228303)
(5.93211 0 0.379529)
(4.7651 -2.74479e-19 0.255919)
(5.48788 1.49598e-18 0.423197)
(4.25878 -3.22919e-19 0.286707)
(5.00862 -2.11547e-18 0.470775)
(3.71783 -3.14346e-19 0.320819)
(4.49286 -3.67309e-20 0.521975)
(3.14217 2.9983e-18 0.358277)
(3.93936 -4.8233e-18 0.57617)
(2.53259 -2.58108e-19 0.398696)
(3.34723 8.04969e-18 0.632166)
(1.89079 3.0007e-19 0.440384)
(2.71551 7.79546e-18 0.687529)
(1.21997 -1.66683e-19 0.473803)
(2.04164 -8.2e-18 0.736605)
(0.519265 -3.53989e-18 0.346588)
(1.30772 -5.20822e-18 0.762848)
(0.601672 3.69263e-17 0.596735)
(10.0046 2.22146e-19 0.0434186)
(9.99619 2.5471e-19 0.0340255)
(9.97861 1.22009e-19 0.0555669)
(9.9897 -2.89275e-20 0.0516144)
(9.93643 2.42644e-19 0.0659614)
(9.96221 1.19451e-19 0.0650533)
(9.87975 -1.38421e-19 0.0773461)
(9.91495 3.68257e-19 0.0800196)
(9.80841 -3.82801e-19 0.0895742)
(9.85287 2.51381e-19 0.0961384)
(9.72247 1.47042e-19 0.102611)
(9.77767 -1.31373e-19 0.113203)
(9.62186 1.9458e-19 0.116684)
(9.68905 1.22193e-21 0.131486)
(9.50625 1.5251e-19 0.132076)
(9.58643 6.81702e-20 0.151349)
(9.37506 2.12677e-19 0.149049)
(9.46931 7.35902e-20 0.17315)
(9.22757 0 0.167854)
(9.33713 -7.41205e-19 0.197221)
(9.06289 4.0879e-20 0.188746)
(9.18918 -1.57848e-19 0.223893)
(8.88 4.23008e-19 0.212013)
(9.02461 3.43793e-20 0.253533)
(8.67775 7.50693e-19 0.237986)
(8.84238 9.06085e-19 0.286552)
(8.45481 -3.6323e-19 0.267046)
(8.64132 1.07786e-18 0.32344)
(8.20971 8.86515e-20 0.29961)
(8.42016 -1.4193e-18 0.364746)
(7.94082 -2.75654e-20 0.33612)
(8.17745 2.2087e-18 0.411064)
(7.64636 -2.39992e-18 0.377039)
(7.91155 -2.2971e-18 0.463029)
(7.32441 2.14867e-18 0.422839)
(7.6207 -3.40021e-18 0.521304)
(6.97296 1.8912e-18 0.473978)
(7.30296 6.97758e-18 0.586574)
(6.5899 -1.66027e-18 0.530848)
(6.95629 7.58934e-20 0.659498)
(6.17308 1.80187e-18 0.593728)
(6.57841 -3.59744e-18 0.740638)
(5.72041 -3.96386e-19 0.66273)
(6.16701 2.24962e-18 0.830399)
(5.22983 -1.80026e-18 0.737737)
(5.7196 -7.10977e-18 0.928966)
(4.69933 -4.59998e-18 0.818312)
(5.23354 4.44207e-18 1.03619)
(4.12677 3.59226e-19 0.903572)
(4.70569 -4.8147e-18 1.15145)
(3.50963 1.60751e-17 0.991822)
(4.13208 -4.25935e-18 1.27346)
(2.84352 -7.02049e-19 1.07987)
(3.50678 2.06964e-17 1.39992)
(2.11793 -1.32544e-17 1.16255)
(2.81945 -2.98269e-17 1.52667)
(1.29304 3.6368e-17 1.2308)
(2.03437 4.36117e-17 1.6508)
(1.21186 4.25144e-18 1.78231)
(9.99762 -1.87179e-21 0.0453014)
(9.9939 -9.00341e-19 0.0350362)
(9.9756 -2.83081e-20 0.0642882)
(9.98509 5.75966e-20 0.0611559)
(9.93729 2.50267e-19 0.081854)
(9.95884 -5.92951e-20 0.0823041)
(9.88566 7.55776e-19 0.100794)
(9.91458 6.11362e-19 0.104188)
(9.82097 4.9533e-19 0.121195)
(9.85622 1.28298e-19 0.127591)
(9.74318 -2.74636e-19 0.143074)
(9.78553 0 0.152471)
(9.6522 -1.23953e-19 0.166737)
(9.70244 -5.37129e-19 0.17913)
(9.54778 -1.06416e-20 0.192603)
(9.60642 6.86938e-19 0.208052)
(9.42947 -8.9537e-19 0.221085)
(9.49709 -1.43136e-19 0.239755)
(9.29663 -8.88548e-19 0.252585)
(9.37403 -3.02452e-19 0.274709)
(9.14855 -1.60885e-19 0.287532)
(9.23667 -6.64289e-21 0.313398)
(8.98432 5.32954e-19 0.326405)
(9.08433 -5.78493e-21 0.356361)
(8.80296 1.2363e-18 0.369758)
(8.91615 -6.07479e-19 0.404197)
(8.60332 -2.15748e-20 0.418229)
(8.73117 1.99275e-18 0.457611)
(8.38413 7.63099e-19 0.472532)
(8.52839 -2.09362e-18 0.517409)
(8.14392 -1.37297e-19 0.533437)
(8.30663 2.90081e-18 0.584488)
(7.88106 -3.31602e-18 0.60176)
(8.06454 -1.5158e-18 0.659819)
(7.59375 1.59993e-18 0.678359)
(7.80058 -4.52077e-18 0.744433)
(7.28002 5.05042e-18 0.764111)
(7.51309 3.07294e-18 0.839447)
(6.93764 -1.91633e-18 0.859842)
(7.2002 5.50348e-18 0.946011)
(6.56416 -3.06195e-18 0.96625)
(6.85967 -7.09822e-18 1.06521)
(6.15686 -4.59431e-18 1.08383)
(6.48898 1.22809e-17 1.198)
(5.7127 -7.22441e-19 1.21281)
(6.08519 -1.15632e-17 1.34521)
(5.22799 4.11189e-18 1.35302)
(5.64473 1.20894e-17 1.50739)
(4.69788 -9.39297e-18 1.50392)
(5.16286 -1.6492e-17 1.68481)
(4.11523 5.13406e-19 1.66474)
(4.63293 -7.15407e-19 1.87757)
(3.46825 -8.41706e-18 1.83494)
(4.0449 2.7759e-17 2.08611)
(2.73368 2.58464e-17 2.01421)
(3.38224 -3.91807e-17 2.31321)
(1.88357 1.05365e-17 2.2473)
(2.63269 4.57032e-17 2.55487)
(1.66578 -3.38354e-17 2.97116)
(9.9931 -8.22636e-19 0.0512571)
(9.99243 2.60465e-20 0.0379333)
(9.97123 2.40691e-20 0.0783954)
(9.98172 -8.90043e-19 0.0706434)
(9.9337 3.15839e-19 0.103835)
(9.95518 5.31478e-19 0.0992216)
(9.88291 -2.59414e-20 0.13022)
(9.91177 -4.85205e-19 0.127986)
(9.81959 -3.69689e-19 0.158181)
(9.85464 1.23313e-19 0.158421)
(9.74374 -2.72885e-19 0.187982)
(9.78549 -2.56977e-19 0.190805)
(9.65532 2.97068e-19 0.220062)
(9.70442 -2.69715e-19 0.225499)
(9.55414 5.39105e-19 0.254981)
(9.61093 8.2073e-19 0.263077)
(9.43988 4.47065e-19 0.293305)
(9.50472 0 0.304174)
(9.3121 5.8516e-19 0.335583)
(9.38555 1.49034e-19 0.349373)
(9.17026 1.48596e-19 0.382411)
(9.25294 1.51323e-19 0.399282)
(9.01367 -1.157e-18 0.434447)
(9.10644 -1.08558e-18 0.4546)
(8.84157 1.93743e-19 0.492427)
(8.94536 5.1314e-20 0.516084)
(8.65312 -1.49377e-19 0.557208)
(8.76893 -3.36925e-20 0.584574)
(8.4474 1.28587e-19 0.629778)
(8.57646 -3.89038e-20 0.661079)
(8.22332 1.44846e-18 0.711228)
(8.36707 -1.35715e-18 0.746773)
(7.97962 -2.76941e-18 0.802722)
(8.13981 2.80735e-18 0.842923)
(7.7149 -2.92525e-18 0.905524)
(7.89351 -2.91469e-18 0.950875)
(7.42759 3.56227e-18 1.021)
(7.62688 -2.39587e-19 1.07215)
(7.11579 1.32369e-19 1.15054)
(7.33857 4.78571e-19 1.20842)
(6.77721 8.51271e-18 1.29548)
(7.02673 6.60014e-18 1.36136)
(6.40909 4.99851e-18 1.45707)
(6.68904 4.85716e-18 1.53266)
(6.00798 1.52362e-18 1.63643)
(6.32269 -1.47297e-17 1.72404)
(5.56933 -8.75641e-18 1.8345)
(5.92389 7.84795e-18 1.93718)
(5.08673 -7.76146e-18 2.05213)
(5.48735 -1.74655e-17 2.17379)
(4.55057 2.65508e-17 2.29057)
(5.00548 1.65482e-17 2.43593)
(3.94621 -2.80936e-18 2.55337)
(4.46758 1.89417e-17 2.7265)
(3.24522 -2.01138e-17 2.8381)
(3.84984 -2.08764e-17 3.05501)
(2.47201 -1.66008e-18 3.20182)
(3.20562 8.70531e-20 3.37504)
(2.12635 -1.38374e-18 3.99979)
(9.99069 -5.88225e-20 0.0579267)
(9.99168 9.55137e-19 0.0418361)
(9.9683 -3.52229e-19 0.0917691)
(9.97979 5.45488e-20 0.0803575)
(9.9314 -2.90818e-19 0.124002)
(9.95304 2.25939e-21 0.115868)
(9.88147 -3.23735e-19 0.157068)
(9.91045 -1.09421e-18 0.151404)
(9.81933 2.28648e-19 0.192014)
(9.85461 9.98515e-19 0.188698)
(9.74509 -2.54062e-19 0.229334)
(9.78707 -1.02558e-18 0.228359)
(9.65869 2.74585e-19 0.269558)
(9.70797 5.22408e-19 0.270858)
(9.55995 2.66353e-19 0.313325)
(9.6168 -2.6969e-19 0.316841)
(9.44865 -2.95482e-19 0.361291)
(9.51341 0 0.367015)
(9.32445 -2.85056e-19 0.414104)
(9.39761 -5.76922e-19 0.422059)
(9.18697 -1.10497e-18 0.47248)
(9.26902 0 0.482679)
(9.0357 1.42589e-19 0.537222)
(9.1273 -9.34688e-19 0.549712)
(8.87 -1.77012e-19 0.609196)
(8.97199 1.18955e-18 0.624076)
(8.68924 7.59842e-20 0.689388)
(8.80244 -1.32385e-18 0.706715)
(8.49277 -1.54579e-18 0.778986)
(8.61807 1.27159e-18 0.798772)
(8.27981 6.79251e-20 0.879338)
(8.41827 -2.82149e-18 0.901637)
(8.04947 2.57178e-18 0.991888)
(8.20248 5.67371e-18 1.01683)
(7.80077 -1.86141e-19 1.11822)
(7.96982 -2.93341e-18 1.14595)
(7.5326 -3.31026e-18 1.26014)
(7.71928 -3.05618e-18 1.29085)
(7.24361 7.02306e-18 1.41959)
(7.45012 -5.31747e-19 1.45366)
(6.93196 2.94419e-18 1.59858)
(7.16103 1.00983e-17 1.63666)
(6.59527 -1.51101e-17 1.79922)
(6.85014 -7.77562e-18 1.84228)
(6.23037 -8.15453e-18 2.02371)
(6.51512 -7.28523e-18 2.07321)
(5.83273 -1.11048e-18 2.27442)
(6.15269 -7.11515e-20 2.3324)
(5.39585 6.99273e-18 2.55393)
(5.75797 1.45998e-17 2.62308)
(4.91035 9.02873e-18 2.86512)
(5.32377 -2.20729e-17 2.94891)
(4.36397 1.03393e-18 3.2135)
(4.84215 1.53702e-17 3.31284)
(3.723 -1.07319e-18 3.58815)
(4.27601 0 3.73183)
(3.05121 2.72895e-19 4.03304)
(3.77152 -2.04875e-18 4.08894)
(2.60458 2.33565e-18 4.85132)
(9.98946 1.05132e-18 0.0650103)
(9.99135 0 0.0462529)
(9.96666 4.08009e-19 0.105029)
(9.9788 5.7098e-21 0.0902519)
(9.93051 -8.24049e-19 0.14388)
(9.95211 -7.06407e-19 0.13219)
(9.88177 2.70366e-19 0.183687)
(9.91055 -7.23156e-19 0.174284)
(9.82115 -2.95621e-19 0.225668)
(9.85627 2.5101e-19 0.218265)
(9.74882 -2.19369e-19 0.270487)
(9.79068 -1.27687e-18 0.264988)
(9.66472 -3.66957e-20 0.318754)
(9.71389 5.23658e-19 0.315062)
(9.56872 -5.31365e-19 0.37117)
(9.62545 5.34891e-19 0.36919)
(9.46065 -2.91839e-19 0.428463)
(9.52529 -1.65847e-18 0.428129)
(9.34025 -2.81642e-19 0.491373)
(9.41327 1.12922e-18 0.49265)
(9.20722 1.54291e-19 0.560718)
(9.2891 2.91545e-19 0.563549)
(9.0612 1.49083e-19 0.637442)
(9.15242 -1.05604e-18 0.641748)
(8.90174 0 0.722554)
(9.00302 1.23186e-18 0.728309)
(8.72828 -8.47467e-20 0.817162)
(8.84044 2.55861e-18 0.82433)
(8.5403 -7.11119e-20 0.922584)
(8.66407 -2.61228e-18 0.931059)
(8.33731 2.92114e-18 1.04037)
(8.47349 -2.63023e-18 1.04998)
(8.11874 3.55887e-20 1.17222)
(8.2685 8.52074e-18 1.18284)
(7.88383 -5.80652e-18 1.31997)
(8.04853 -5.77915e-18 1.33153)
(7.63185 -2.45503e-19 1.48576)
(7.81266 -9.17609e-18 1.49808)
(7.36202 2.69545e-18 1.67206)
(7.56062 8.40519e-18 1.685)
(7.07308 -8.50815e-19 1.8815)
(7.29167 -6.28589e-18 1.89513)
(6.7632 4.43322e-20 2.11705)
(7.00448 1.20238e-17 2.13159)
(6.42989 8.60946e-19 2.38202)
(6.69735 -5.29876e-18 2.39797)
(6.06944 1.56786e-17 2.67998)
(6.36788 1.35646e-17 2.69834)
(5.67628 -1.44143e-17 3.01487)
(6.01235 1.80263e-18 3.03715)
(5.2422 -1.58642e-17 3.3902)
(5.62436 -2.99079e-17 3.4191)
(4.75979 1.44588e-17 3.8111)
(5.20101 1.43101e-17 3.84455)
(4.18839 -9.40584e-19 4.25612)
(4.68407 1.40344e-17 4.34119)
(3.60336 2.36585e-19 4.74346)
(4.32261 1.35391e-17 4.71054)
(3.08568 -6.14148e-17 5.56933)
(9.98887 -1.04589e-18 0.0723174)
(9.99122 0 0.0509147)
(9.96597 -1.1243e-18 0.118162)
(9.97841 -1.02508e-18 0.1002)
(9.93068 -6.05829e-19 0.163314)
(9.9521 1.04809e-18 0.148137)
(9.8834 -7.23134e-19 0.209622)
(9.91172 -9.58375e-19 0.196505)
(9.82465 -7.60318e-19 0.258378)
(9.85924 4.911e-19 0.246956)
(9.75461 -4.9946e-19 0.310396)
(9.7959 -5.06893e-19 0.300506)
(9.67326 1.09567e-18 0.366381)
(9.72177 -5.19941e-19 0.357888)
(9.58051 -6.31992e-19 0.42709)
(9.63648 1.60871e-18 0.419855)
(9.47622 -1.87856e-19 0.493325)
(9.54002 -2.75644e-18 0.487216)
(9.36021 1.68863e-18 0.565914)
(9.43231 2.53637e-18 0.560823)
(9.23219 -9.42188e-19 0.645754)
(9.31311 3.05391e-21 0.641569)
(9.0919 6.49768e-20 0.733877)
(9.18206 -3.1616e-19 0.730431)
(8.93908 3.81402e-18 0.831441)
(9.03912 2.04735e-20 0.828546)
(8.77329 -5.15503e-20 0.939692)
(8.88401 2.56135e-18 0.937215)
(8.59406 -5.17416e-18 1.06002)
(8.7162 -2.6919e-18 1.0578)
(8.40116 3.13933e-18 1.1941)
(8.5354 -2.56204e-18 1.19176)
(8.19434 2.49637e-18 1.34389)
(8.34149 8.38743e-18 1.34102)
(7.97303 -9.19698e-18 1.51146)
(8.13435 -5.81301e-18 1.50783)
(7.73673 -2.93107e-19 1.69919)
(7.91332 -1.1697e-17 1.69441)
(7.48505 -7.53857e-19 1.90994)
(7.67824 1.20813e-17 1.90343)
(7.21731 6.77405e-18 2.14695)
(7.42885 -1.25221e-17 2.13826)
(6.93231 6.53873e-18 2.41389)
(7.16439 1.9004e-17 2.40265)
(6.62834 7.51139e-18 2.71501)
(6.88387 -6.16764e-18 2.7009)
(6.30286 -2.76151e-19 3.05498)
(6.58575 5.21813e-19 3.03796)
(5.9519 -1.37689e-17 3.43846)
(6.26772 -7.92484e-19 3.41914)
(5.56828 5.41799e-20 3.86855)
(5.92415 -1.32382e-17 3.84987)
(5.14865 1.38562e-17 4.34921)
(5.55853 1.30499e-17 4.32591)
(4.64554 2.86793e-17 4.85061)
(5.08525 1.39405e-17 4.8901)
(4.12585 -5.36257e-17 5.3623)
(4.85568 4.24934e-17 5.26261)
(3.56095 -9.03127e-17 6.20336)
(9.98864 1.47664e-21 0.0796907)
(9.99116 0 0.0556733)
(9.96595 1.19225e-18 0.131072)
(9.97841 9.06915e-19 0.110066)
(9.93168 6.54306e-19 0.18219)
(9.95276 4.69445e-19 0.163643)
(9.88603 2.8518e-19 0.234729)
(9.91373 -7.13891e-19 0.217985)
(9.82939 7.2555e-19 0.290011)
(9.86319 7.38731e-19 0.274662)
(9.76192 -5.27574e-19 0.348963)
(9.80231 1.40161e-21 0.334781)
(9.68364 3.20262e-20 0.41237)
(9.73112 -5.17417e-19 0.399171)
(9.59451 -5.9455e-19 0.481041)
(9.64933 -5.22055e-19 0.468641)
(9.49445 6.14456e-20 0.555837)
(9.55699 -5.57617e-19 0.544041)
(9.38332 8.06663e-19 0.637678)
(9.45407 1.12028e-18 0.6263)
(9.26089 6.24158e-19 0.727528)
(9.34034 -1.43121e-18 0.716414)
(9.12698 -3.54586e-19 0.826466)
(9.21559 2.05716e-18 0.81538)
(8.98148 -1.19395e-18 0.93578)
(9.07977 -3.61833e-18 0.924378)
(8.82408 -1.62855e-19 1.05688)
(8.93273 2.44706e-18 1.04491)
(8.65443 -7.48286e-20 1.19121)
(8.77434 -2.59426e-21 1.17846)
(8.47233 2.84949e-18 1.3405)
(8.60427 -7.99614e-20 1.32652)
(8.27774 -1.2494e-19 1.50689)
(8.42219 2.89608e-18 1.49105)
(8.07052 -8.39129e-18 1.69276)
(8.22843 -2.78072e-18 1.67456)
(7.85036 9.71906e-19 1.90068)
(8.02289 -1.11499e-17 1.87953)
(7.61712 3.58822e-20 2.13379)
(7.8053 1.18384e-17 2.10883)
(7.37054 1.4605e-20 2.39585)
(7.57582 -6.05454e-18 2.3662)
(7.11007 6.09297e-18 2.69115)
(7.33426 6.14358e-18 2.65592)
(6.83483 -1.30786e-17 3.02459)
(7.08026 -3.81674e-19 2.98284)
(6.54332 -6.4571e-20 3.40162)
(6.81313 -1.28271e-17 3.35258)
(6.23308 -2.00813e-19 3.82756)
(6.53176 1.29319e-17 3.77105)
(5.89784 -4.85083e-19 4.30447)
(6.23072 -1.30182e-17 4.24452)
(5.53666 1.31392e-17 4.83538)
(5.92111 2.48324e-17 4.76311)
(5.09704 2.76037e-17 5.38557)
(5.48665 -1.45707e-17 5.388)
(4.62903 -5.73907e-18 5.91811)
(5.3753 2.50009e-17 5.76342)
(4.03046 -2.75678e-17 6.78254)
(9.98863 9.22945e-19 0.0870119)
(9.99119 1.10161e-19 0.0604369)
(9.96642 1.7451e-19 0.143663)
(9.97872 7.93376e-19 0.11973)
(9.93333 -9.23643e-19 0.200441)
(9.95396 -6.97182e-19 0.178636)
(9.88944 -2.31503e-19 0.258941)
(9.91645 -2.34346e-19 0.238673)
(9.83505 0 0.320482)
(9.86801 0 0.30131)
(9.77038 1.96948e-21 0.38607)
(9.80982 0 0.367699)
(9.69548 -1.07191e-18 0.456561)
(9.74186 5.12418e-19 0.438759)
(9.61035 -4.85968e-19 0.532809)
(9.66392 -1.57666e-18 0.515348)
(9.51497 5.3098e-19 0.615737)
(9.57614 4.66664e-21 0.598357)
(9.40924 -1.16208e-18 0.706346)
(9.47847 0 0.688792)
(9.293 5.91904e-20 0.805663)
(9.37075 -1.70374e-18 0.787733)
(9.16611 -1.29875e-18 0.914793)
(9.25298 1.16485e-18 0.896215)
(9.02854 1.1821e-19 1.0351)
(9.12489 -2.40748e-18 1.01543)
(8.88028 2.57222e-18 1.16815)
(8.98645 3.05131e-18 1.14694)
(8.72114 -8.65962e-21 1.31555)
(8.8381 -2.31708e-18 1.29243)
(8.55084 7.39548e-21 1.47901)
(8.67953 2.35057e-18 1.45359)
(8.36934 1.62785e-19 1.66077)
(8.51024 3.3797e-21 1.63234)
(8.1769 -5.64029e-18 1.86342)
(8.33076 0 1.83119)
(7.97357 -2.48175e-20 2.08979)
(8.14146 -1.09628e-17 2.05293)
(7.7594 5.56677e-18 2.34329)
(7.94215 1.09253e-17 2.30071)
(7.53455 1.83367e-19 2.62807)
(7.7333 1.82194e-19 2.57851)
(7.29904 -3.78398e-19 2.94892)
(7.51534 0 2.89105)
(7.05273 -1.84667e-19 3.3113)
(7.28839 -1.13651e-17 3.24367)
(6.79507 1.90555e-19 3.72114)
(7.05252 1.15538e-17 3.64252)
(6.52452 1.90069e-19 4.18442)
(6.80781 -9.89438e-18 4.09403)
(6.23538 1.19496e-17 4.7024)
(6.5481 1.1401e-17 4.60553)
(5.92803 -2.44552e-18 5.27772)
(6.29274 9.17288e-18 5.16147)
(5.54787 -1.76028e-17 5.87287)
(5.89446 -1.44486e-17 5.84234)
(5.12348 -1.85812e-18 6.42873)
(5.88793 -2.92977e-18 6.22605)
(4.4976 7.93625e-19 7.31712)
(9.98881 -6.81458e-21 0.0941863)
(9.99134 -1.64296e-18 0.0651226)
(9.9673 -1.10202e-19 0.155844)
(9.97935 -1.90295e-18 0.129096)
(9.93557 1.96986e-21 0.217989)
(9.95565 0 0.193036)
(9.89363 1.89194e-21 0.282169)
(9.91986 9.44246e-19 0.258475)
(9.84176 0 0.349675)
(9.87379 0 0.326775)
(9.78019 5.2019e-19 0.421569)
(9.81856 0 0.399111)
(9.70901 -2.97283e-20 0.498765)
(9.75411 5.10944e-19 0.476478)
(9.62828 -1.05828e-18 0.582165)
(9.68036 -4.08227e-21 0.559766)
(9.53804 -5.27062e-19 0.672752)
(9.59747 -5.36523e-19 0.649917)
(9.4382 -5.69876e-19 0.771595)
(9.50541 -5.40255e-19 0.748021)
(9.32874 -5.51562e-19 0.879791)
(9.40411 -6.25597e-21 0.855187)
(9.20951 0 0.998482)
(9.29378 -5.64573e-19 0.97255)
(9.08042 6.10253e-19 1.12902)
(9.17405 0 1.10135)
(8.94171 -1.92066e-18 1.27306)
(9.04487 9.27492e-21 1.24303)
(8.79355 1.0625e-19 1.43241)
(8.90697 -2.47955e-18 1.3994)
(8.63577 2.31823e-18 1.60893)
(8.76029 2.51738e-18 1.57246)
(8.46834 -1.59861e-19 1.80483)
(8.60463 4.6223e-19 1.7642)
(8.29164 -5.44861e-18 2.02281)
(8.44042 3.17477e-19 1.97701)
(8.10603 2.0819e-19 2.26593)
(8.26821 -5.71782e-18 2.21393)
(7.91179 5.44744e-18 2.53784)
(8.08813 6.15378e-18 2.47836)
(7.70951 -2.71174e-21 2.84306)
(7.90089 -5.32257e-18 2.77446)
(7.49977 -1.10355e-17 3.18675)
(7.70746 5.34057e-18 3.10733)
(7.28301 3.81334e-19 3.57485)
(7.50849 -1.13488e-17 3.48272)
(7.05952 1.53332e-18 4.01392)
(7.30451 1.27059e-17 3.90733)
(6.82858 1.17202e-18 4.51053)
(7.09706 -1.12438e-17 4.38817)
(6.58443 8.65612e-18 5.06558)
(6.87877 1.12281e-17 4.93397)
(6.32749 -2.63336e-18 5.68224)
(6.67694 -1.64774e-19 5.52427)
(6.00443 9.10717e-20 6.32102)
(6.31499 1.66283e-17 6.25742)
(5.61514 0 6.90807)
(6.39957 4.08059e-18 6.66242)
(4.96858 -6.34796e-19 7.82212)
(9.98926 -3.54522e-18 0.101121)
(9.99163 -5.32743e-21 0.06962)
(9.96864 -1.75278e-18 0.167534)
(9.98028 -6.34986e-21 0.138084)
(9.93842 9.61943e-19 0.234743)
(9.95773 0 0.206774)
(9.89867 9.24062e-19 0.304292)
(9.92381 9.43015e-19 0.277279)
(9.84961 0 0.377448)
(9.88033 0 0.350918)
(9.7914 0 0.455304)
(9.82826 -4.90728e-19 0.428883)
(9.7242 5.27525e-19 0.538812)
(9.76757 5.00038e-19 0.512194)
(9.64815 5.09323e-19 0.628913)
(9.6983 -5.07889e-19 0.601754)
(9.56329 -5.49676e-19 0.726657)
(9.62056 -3.614e-22 0.698582)
(9.46962 3.23168e-20 0.833159)
(9.53438 -3.34137e-22 0.803829)
(9.36723 -2.75286e-20 0.949571)
(9.43987 1.1362e-20 0.918594)
(9.25613 -5.56437e-19 1.07713)
(9.33722 -2.24155e-18 1.0441)
(9.13621 -6.01588e-19 1.21717)
(9.2263 2.26599e-18 1.18171)
(9.00768 -5.84696e-19 1.37129)
(9.10723 -1.17075e-18 1.33277)
(8.87093 0 1.54146)
(8.98034 0 1.49905)
(8.72619 6.32542e-19 1.72976)
(8.84598 0 1.68276)
(8.5736 9.3925e-19 1.93842)
(8.70456 1.34668e-20 1.88605)
(8.41354 -1.12984e-20 2.17018)
(8.55639 7.61734e-21 2.11134)
(8.24657 3.39429e-19 2.42829)
(8.40202 -8.64612e-21 2.36175)
(8.07332 -4.71247e-18 2.71662)
(8.24207 1.96312e-20 2.64088)
(7.89468 6.66806e-20 3.03991)
(8.07755 -4.70474e-18 2.95304)
(7.71174 4.99838e-18 3.40373)
(7.90974 5.35702e-18 3.30362)
(7.5255 9.81666e-19 3.8144)
(7.73995 -3.38769e-19 3.69885)
(7.33683 1.14162e-21 4.2793)
(7.56914 8.77284e-18 4.14593)
(7.14616 -1.34277e-18 4.80579)
(7.39993 -1.35492e-17 4.65236)
(6.94784 2.50994e-18 5.39516)
(7.22429 9.36063e-18 5.22888)
(6.74002 1.89719e-17 6.05225)
(7.07703 -6.61902e-18 5.85263)
(6.47414 2.10106e-17 6.73738)
(6.75591 1.21933e-17 6.63528)
(6.11244 1.51992e-18 7.37555)
(6.92036 -7.87591e-18 7.0852)
(5.45865 3.53167e-17 8.33398)
(9.98985 3.53567e-18 0.107742)
(9.99196 1.74988e-18 0.0738721)
(9.97024 1.74781e-18 0.178674)
(9.98134 1.56443e-18 0.146644)
(9.9416 0 0.25064)
(9.96005 2.26977e-19 0.219816)
(9.90415 0 0.32522)
(9.92809 -1.85654e-18 0.295043)
(9.85803 -5.00245e-19 0.403686)
(9.88731 9.49362e-19 0.373676)
(9.8034 2.74315e-20 0.487142)
(9.83856 -4.91221e-19 0.456911)
(9.74045 -5.53709e-19 0.576553)
(9.78191 -4.90583e-19 0.545762)
(9.66934 -1.00997e-18 0.672905)
(9.71739 -1.02773e-18 0.641161)
(9.59016 5.49596e-19 0.777304)
(9.64506 1.03619e-18 0.744189)
(9.503 -2.08411e-20 0.890891)
(9.56511 1.59898e-18 0.856022)
(9.408 -2.23947e-18 1.01484)
(9.47781 -1.08422e-18 0.97777)
(9.30532 6.48536e-19 1.15046)
(9.38312 -2.77204e-18 1.11069)
(9.19512 1.65017e-18 1.29914)
(9.28131 4.50773e-18 1.25618)
(9.0775 -5.70075e-19 1.46246)
(9.17279 -2.27299e-18 1.41568)
(8.9528 0 1.64236)
(9.05751 0 1.59094)
(8.82161 -6.19939e-19 1.84107)
(8.93605 0 1.78408)
(8.6844 -9.20744e-19 2.06098)
(8.80928 4.13518e-18 1.99745)
(8.54164 9.56482e-21 2.30485)
(8.67766 -9.88977e-18 2.23362)
(8.39407 -3.28157e-19 2.57605)
(8.54184 5.13577e-18 2.49571)
(8.24271 2.17117e-21 2.87862)
(8.40278 -6.37285e-19 2.78739)
(8.08884 6.29462e-19 3.21743)
(8.2619 -4.82743e-18 3.11313)
(7.93395 0 3.59846)
(8.12087 4.82733e-18 3.47854)
(7.77968 7.44372e-18 4.02857)
(7.98156 0 3.89026)
(7.62721 -4.65141e-18 4.51571)
(7.84589 1.69223e-18 4.35626)
(7.47808 -3.04206e-18 5.06822)
(7.71679 1.02969e-17 4.88415)
(7.3281 4.26694e-19 5.68951)
(7.58625 6.82968e-19 5.48704)
(7.17138 -1.35977e-17 6.38798)
(7.49655 -9.20928e-18 6.14411)
(6.96793 -1.63892e-17 7.12723)
(7.22821 -4.40264e-18 6.97351)
(6.63825 2.93716e-17 7.85499)
(7.46966 -4.83784e-18 7.50228)
(5.99877 2.84346e-17 8.89457)
(9.99047 -2.26095e-19 0.114007)
(9.99228 0 0.0778698)
(9.97198 1.47061e-20 0.189223)
(9.98247 -2.21971e-19 0.154728)
(9.94505 -1.67256e-18 0.265644)
(9.96261 4.53045e-19 0.23211)
(9.90997 -8.52832e-19 0.344907)
(9.93276 -2.08394e-18 0.311723)
(9.86693 9.31997e-19 0.428315)
(9.89479 -4.67372e-19 0.394981)
(9.81609 -1.00966e-18 0.516973)
(9.84956 2.4091e-18 0.483087)
(9.75765 -9.74471e-19 0.611859)
(9.79719 -1.97127e-18 0.577051)
(9.69176 1.05466e-18 0.713993)
(9.73762 1.00525e-18 0.677843)
(9.61859 2.09589e-18 0.824513)
(9.67093 1.03779e-18 0.786557)
(9.53834 4.93748e-19 0.944585)
(9.59751 1.99279e-20 0.904371)
(9.45113 -1.64193e-18 1.0754)
(9.51765 -5.40093e-19 1.03247)
(9.35718 1.19342e-18 1.21826)
(9.43128 -1.10018e-18 1.1721)
(9.25687 4.90003e-19 1.37463)
(9.3389 3.33611e-18 1.3246)
(9.15049 -1.6748e-18 1.54614)
(9.24101 1.63824e-18 1.49154)
(9.03836 0 1.73467)
(9.13769 -1.12629e-18 1.67469)
(8.92118 4.8068e-18 1.94246)
(9.02968 0 1.87607)
(8.79978 -4.97329e-18 2.17204)
(8.91788 9.37462e-18 2.09802)
(8.67487 -4.64966e-18 2.42627)
(8.80315 -1.53933e-17 2.34333)
(8.54739 4.7979e-18 2.70852)
(8.68645 4.83748e-18 2.61514)
(8.41868 -5.49441e-18 3.02288)
(8.56893 -1.15632e-18 2.91706)
(8.29047 -6.16672e-19 3.37442)
(8.45236 -4.33453e-18 3.25363)
(8.16483 4.84261e-18 3.76936)
(8.33902 4.85087e-18 3.63062)
(8.04416 -5.78606e-18 4.21525)
(8.2313 2.22394e-18 4.05491)
(7.93025 1.66292e-17 4.72045)
(8.1326 -1.6693e-17 4.53524)
(7.82531 1.41746e-17 5.29417)
(8.04648 4.14491e-17 5.07939)
(7.72792 -8.83926e-18 5.9438)
(7.96546 -2.07015e-17 5.70242)
(7.62906 0 6.68386)
(7.9386 0 6.3903)
(7.50283 7.21659e-18 7.48718)
(7.74554 0 7.25969)
(7.23344 -2.547e-18 8.36279)
(8.07509 1.0311e-17 7.90546)
(6.63735 -5.19193e-18 9.52834)
(9.99113 0 0.119885)
(9.99258 -1.71982e-18 0.0815938)
(9.97391 2.3074e-19 0.199121)
(9.98369 0 0.162277)
(9.94885 -9.02996e-21 0.279686)
(9.96542 -2.23058e-19 0.243576)
(9.91633 -1.66732e-18 0.363277)
(9.93779 2.06994e-18 0.327239)
(9.87656 1.0633e-18 0.451235)
(9.90276 4.52109e-19 0.414739)
(9.82973 1.3702e-18 0.544679)
(9.86123 -4.57918e-19 0.507302)
(9.77599 6.05112e-20 0.644601)
(9.8133 1.94298e-18 0.605962)
(9.71549 9.89095e-19 0.752028)
(9.75884 2.0014e-18 0.711702)
(9.64851 -1.05688e-18 0.868096)
(9.698 -3.03135e-18 0.825579)
(9.57531 -1.02419e-18 0.994011)
(9.63127 -2.07086e-18 0.948781)
(9.49611 -5.20327e-21 1.13099)
(9.55895 4.18056e-18 1.08257)
(9.41119 1.10516e-18 1.28031)
(9.48119 -4.25561e-18 1.22814)
(9.32102 4.46519e-18 1.44344)
(9.39856 1.09485e-18 1.38681)
(9.22605 2.1586e-18 1.62205)
(9.31147 5.51183e-18 1.56019)
(9.1268 -1.11507e-18 1.81802)
(9.22033 -6.64949e-18 1.75007)
(9.02401 4.66542e-18 2.03351)
(9.1261 4.44022e-18 1.95838)
(8.91869 -1.265e-18 2.27109)
(9.02956 4.62588e-18 2.18743)
(8.81197 -5.75193e-18 2.53375)
(8.93186 -4.67399e-18 2.44005)
(8.70506 -1.16503e-18 2.82484)
(8.83456 -1.11684e-18 2.71945)
(8.59957 8.95475e-22 3.14836)
(8.73901 -3.4454e-20 3.02913)
(8.49766 1.15118e-18 3.5095)
(8.64717 3.85395e-20 3.37355)
(8.40205 2.22638e-18 3.91452)
(8.56201 0 3.75844)
(8.31611 -8.60675e-18 4.37142)
(8.48666 2.19508e-18 4.19067)
(8.24309 7.66553e-18 4.88897)
(8.42599 -1.09382e-17 4.67924)
(8.18632 7.12895e-18 5.47716)
(8.38535 1.49224e-17 5.23217)
(8.14815 -1.20524e-17 6.14789)
(8.3596 -1.16528e-18 5.86536)
(8.12024 0 6.9232)
(8.40272 -6.86166e-18 6.57385)
(8.0991 3.17978e-18 7.79322)
(8.31733 0 7.46374)
(7.95202 5.92601e-18 8.89651)
(8.76414 2.11814e-19 8.25253)
(7.44069 2.55496e-18 10.242)
(9.99183 -1.68792e-18 0.125339)
(9.99287 -2.91869e-20 0.0850278)
(9.97598 -4.58736e-19 0.208307)
(9.98496 -3.09734e-19 0.169245)
(9.95291 1.90274e-18 0.292697)
(9.96838 -2.46918e-19 0.254171)
(9.92303 4.16079e-18 0.380251)
(9.94302 2.34137e-18 0.341553)
(9.88663 -1.08664e-18 0.472354)
(9.91098 1.44913e-19 0.432906)
(9.84392 1.56334e-19 0.570161)
(9.87326 -1.12901e-18 0.529504)
(9.79502 3.88751e-18 0.674681)
(9.82986 2.06506e-18 0.632432)
(9.7401 -2.10348e-18 0.786919)
(9.7807 1.01502e-18 0.742655)
(9.67949 -4.03268e-18 0.907991)
(9.72594 -3.09246e-18 0.861171)
(9.61349 3.23119e-18 1.03912)
(9.6661 -9.09612e-20 0.989193)
(9.54245 -1.90409e-19 1.18155)
(9.60151 4.26751e-18 1.12798)
(9.46681 -4.19873e-18 1.33652)
(9.53263 -7.31494e-18 1.2787)
(9.38707 2.19565e-18 1.50549)
(9.45998 6.01008e-18 1.44267)
(9.30375 -3.44726e-18 1.69014)
(9.38395 -8.25245e-19 1.62152)
(9.21756 -9.7518e-19 1.89233)
(9.30532 -6.65796e-18 1.81698)
(9.1294 4.40427e-18 2.11414)
(9.22509 5.56224e-18 2.03093)
(9.04035 1.14065e-18 2.35808)
(9.14419 0 2.26563)
(8.95191 -2.13606e-21 2.62716)
(9.0638 6.31884e-18 2.52375)
(8.86574 2.06222e-20 2.92473)
(8.98609 -4.2298e-18 2.80851)
(8.78371 4.49281e-21 3.25463)
(8.91274 5.23612e-18 3.12334)
(8.70834 -1.11864e-18 3.62188)
(8.84603 -5.18483e-18 3.47248)
(8.64316 -4.18227e-20 4.03257)
(8.78943 5.89618e-18 3.86121)
(8.5925 -4.21258e-20 4.4946)
(8.74705 -2.07404e-18 4.29609)
(8.56162 -3.92934e-18 5.01661)
(8.72494 -7.38553e-18 4.78547)
(8.55639 6.8023e-18 5.60896)
(8.73087 -4.05224e-18 5.33689)
(8.58458 4.14382e-18 6.28631)
(8.76481 1.11515e-17 5.96471)
(8.64451 -6.87477e-18 7.07491)
(8.88321 -9.95021e-18 6.67042)
(8.76625 -2.92748e-18 7.98879)
(8.93814 -2.47314e-18 7.5353)
(8.86106 -3.34846e-18 9.42575)
(9.61043 -6.18143e-19 8.40513)
(9.42279 -1.60544e-18 10.928)
(0.326267 -1.14897e-19 -0.182053)
(0.132916 -9.52867e-18 -0.235358)
(0.659713 1.07363e-18 -0.152995)
(0.391637 6.90874e-18 -0.211973)
(1.01544 1.54346e-18 -0.131167)
(0.719667 -3.48259e-18 -0.190711)
(1.39294 8.57056e-19 -0.119606)
(1.06057 -7.86924e-19 -0.180474)
(1.76996 -7.71048e-19 -0.112055)
(1.40544 2.34016e-18 -0.171627)
(2.12232 -3.87785e-19 -0.105612)
(1.73317 0 -0.161619)
(2.43465 -1.73132e-19 -0.0988065)
(2.02326 -3.81912e-19 -0.14927)
(2.69983 1.91313e-19 -0.0908923)
(2.26341 1.95456e-18 -0.133598)
(2.91534 1.8496e-19 -0.0815061)
(2.44671 -1.59618e-18 -0.114514)
(3.07965 -2.68264e-21 -0.0700912)
(2.57025 1.83459e-19 -0.0920212)
(3.19029 -1.81199e-19 -0.055671)
(2.63296 -9.57958e-19 -0.0657498)
(3.24303 8.39182e-20 -0.0381193)
(2.63739 7.80038e-19 -0.0348474)
(3.23945 5.99637e-22 -0.019495)
(2.59582 8.40119e-20 -0.00273644)
(3.18871 -8.32046e-20 -0.00227876)
(2.51601 -4.5606e-19 0.0253534)
(3.10271 3.03296e-19 0.0120211)
(2.40629 -1.07222e-18 0.0469989)
(2.9931 3.40435e-19 0.0224292)
(2.27685 1.30241e-19 0.0622008)
(2.87144 3.18242e-22 0.0283324)
(2.13836 -1.32965e-19 0.0704129)
(2.74912 -3.56087e-20 0.0297182)
(2.00112 -1.89921e-19 0.0714999)
(2.63587 -2.97309e-20 0.0271082)
(1.87565 3.00646e-19 0.066441)
(2.54075 -1.42232e-19 0.0209458)
(1.76967 -1.75987e-19 0.0554956)
(2.47244 -8.58402e-20 0.0114852)
(1.69101 -2.45954e-19 0.0388902)
(2.43663 2.75356e-20 0.000789217)
(1.6491 8.60244e-20 0.018382)
(2.439 0 -0.00935112)
(1.65132 -5.78395e-20 -0.00601536)
(2.49131 6.4961e-20 -0.0238162)
(1.68596 0 -0.0384207)
(2.60936 1.35179e-19 -0.0494892)
(1.78489 1.48608e-19 -0.0814735)
(2.81049 6.75996e-20 -0.0878519)
(1.95527 1.70198e-20 -0.136413)
(3.10457 -2.12173e-21 -0.137296)
(2.20202 -5.72961e-21 -0.198602)
(3.50273 1.89869e-21 -0.197503)
(2.53436 -1.0669e-20 -0.269094)
(4.01936 1.89097e-20 -0.268575)
(2.95055 1.28638e-21 -0.350619)
(3.57229 -3.9041e-20 -0.442371)
(0.169366 -3.01828e-18 -0.316783)
(0.0317802 -9.47467e-18 -0.389559)
(0.441468 2.99387e-18 -0.300491)
(0.198367 7.84798e-18 -0.378593)
(0.748329 -5.93261e-18 -0.280937)
(0.466901 -3.49685e-18 -0.350044)
(1.06672 6.76012e-19 -0.268916)
(0.730792 -8.03616e-19 -0.329332)
(1.37261 3.10035e-18 -0.255381)
(0.989564 -6.00745e-20 -0.30882)
(1.64137 0 -0.237332)
(1.21898 -4.02689e-19 -0.284295)
(1.857 1.80237e-18 -0.213364)
(1.40015 1.03156e-19 -0.25334)
(2.01086 1.06861e-19 -0.182703)
(1.52221 1.77572e-18 -0.213942)
(2.0986 -1.58405e-18 -0.145057)