/*--------------------------------*- C++ -*----------------------------------*\
| =========                 |                                                 |
| \\      /  F ield         | OpenFOAM: The Open Source CFD Toolbox           |
|  \\    /   O peration     | Version:  5.x                                   |
|   \\  /    A nd           | Web:      www.OpenFOAM.org                      |
|    \\/     M anipulation  |                                                 |
\*---------------------------------------------------------------------------*/
FoamFile
{
    version     2.0;
    format      ascii;
    class       volVectorField;
    location    "0.9";
    object      cellDisplacement;
}
// * * * * * * * * * * * * * * * * * * * * * * * * * * * * * * * * * * * * * //

dimensions      [0 1 0 0 0 0 0];

internalField   nonuniform List<vector> 
2790
(
(0.00999758 1.77772e-05 0)
(0.0285293 5.14864e-05 0)
(0.0443312 8.21893e-05 0)
(0.0576274 0.000110906 0)
(0.0686676 0.000138576 0)
(0.0776708 0.000165929 0)
(0.0848296 0.000193543 0)
(0.0903144 0.00022184 0)
(0.0942775 0.000251286 0)
(0.0968526 0.000282368 0)
(0.098158 0.000315657 0)
(0.0982983 0.000351022 0)
(0.0973692 0.000389015 0)
(0.0954571 0.000430026 0)
(0.0926412 0.000474397 0)
(0.0889964 0.000522461 0)
(0.0845947 0.000574541 0)
(0.0795077 0.000630953 0)
(0.0738078 0.000692003 0)
(0.0675713 0.00075798 0)
(0.0608802 0.000829152 0)
(0.0538254 0.000905757 0)
(0.0465099 0.000987976 0)
(0.0390532 0.00107582 0)
(0.0315989 0.00116933 0)
(0.0243278 0.00126889 0)
(0.0174801 0.00137578 0)
(0.0113894 0.00149184 0)
(0.00653349 0.00161645 0)
(0.00380135 0.0017412 0)
(0.0100132 5.32898e-05 0)
(0.0285763 0.000154342 0)
(0.0444076 0.000246403 0)
(0.0577329 0.000332488 0)
(0.0688048 0.000415435 0)
(0.0778431 0.000497431 0)
(0.0850401 0.000580232 0)
(0.0905671 0.00066504 0)
(0.0945773 0.000753259 0)
(0.0972055 0.000846323 0)
(0.0985708 0.000946262 0)
(0.0987777 0.00105215 0)
(0.0979238 0.00116596 0)
(0.0960962 0.00128883 0)
(0.0933752 0.00142177 0)
(0.0898367 0.00156578 0)
(0.0855541 0.00172183 0)
(0.0805999 0.00189088 0)
(0.0750482 0.00207385 0)
(0.0689771 0.00227164 0)
(0.0624702 0.00248505 0)
(0.0556207 0.00271486 0)
(0.0485356 0.00296171 0)
(0.0413369 0.00322553 0)
(0.0341705 0.00350603 0)
(0.0272176 0.00380343 0)
(0.0207226 0.00412097 0)
(0.0150494 0.00446655 0)
(0.0107223 0.0048399 0)
(0.00862728 0.00521029 0)
(0.0100456 8.86751e-05 0)
(0.0286732 0.000256834 0)
(0.0445641 0.000410109 0)
(0.0579476 0.000553346 0)
(0.0690835 0.000691367 0)
(0.0781921 0.000827803 0)
(0.0854658 0.000965658 0)
(0.0910766 0.00110671 0)
(0.0951807 0.00125334 0)
(0.0979146 0.00140769 0)
(0.0993952 0.00157145 0)
(0.0997333 0.00174654 0)
(0.0990281 0.00193497 0)
(0.0973675 0.00213837 0)
(0.0948341 0.0023584 0)
(0.0915058 0.00259668 0)
(0.0874583 0.00285482 0)
(0.0827668 0.00313441 0)
(0.0775084 0.00343701 0)
(0.0717643 0.00376411 0)
(0.0656223 0.00411714 0)
(0.0591793 0.00449752 0)
(0.0525529 0.00490722 0)
(0.0458733 0.00534639 0)
(0.0392956 0.00581504 0)
(0.0330046 0.00631304 0)
(0.0272282 0.00684001 0)
(0.0223316 0.00739874 0)
(0.0189642 0.00800489 0)
(0.018003 0.00860218 0)
(0.010094 0.000123842 0)
(0.0288199 0.000358686 0)
(0.0447987 0.000572131 0)
(0.0582671 0.000771773 0)
(0.0694984 0.000964142 0)
(0.078712 0.00115422 0)
(0.0860998 0.00134649 0)
(0.0918344 0.00154281 0)
(0.0960773 0.00174671 0)
(0.098966 0.00196086 0)
(0.10062 0.0021869 0)
(0.101156 0.00242962 0)
(0.100672 0.00269074 0)
(0.0992597 0.00297244 0)
(0.0970051 0.00327697 0)
(0.0939893 0.00360655 0)
(0.0902914 0.0039634 0)
(0.0859904 0.00434967 0)
(0.0811676 0.00476749 0)
(0.0759085 0.00521889 0)
(0.0703071 0.00570589 0)
(0.06446 0.00622984 0)
(0.058506 0.00679608 0)
(0.0525842 0.00740414 0)
(0.0468662 0.00805523 0)
(0.0415663 0.00874947 0)
(0.0369287 0.00948186 0)
(0.0332455 0.0102453 0)
(0.0311807 0.0110447 0)
(0.0318229 0.0118287 0)
(0.0101579 0.000158496 0)
(0.0289998 0.000458891 0)
(0.0450943 0.000731544 0)
(0.0586871 0.000986787 0)
(0.0700454 0.00123251 0)
(0.0793988 0.00147504 0)
(0.0869334 0.00171908 0)
(0.0928289 0.00196884 0)
(0.0972538 0.00222813 0)
(0.100347 0.00250027 0)
(0.102232 0.0027883 0)
(0.103027 0.00309651 0)
(0.102834 0.00342768 0)
(0.101748 0.00378461 0)
(0.0998602 0.00417017 0)
(0.0972553 0.00458715 0)
(0.0940177 0.0050383 0)
(0.0902318 0.00552638 0)
(0.085985 0.00605409 0)
(0.0813689 0.0066241 0)
(0.0764925 0.0072396 0)
(0.0714534 0.00790337 0)
(0.0663819 0.00861689 0)
(0.0614426 0.00938057 0)
(0.056823 0.0101971 0)
(0.0527832 0.0110687 0)
(0.0496108 0.0119889 0)
(0.047614 0.0129445 0)
(0.0472512 0.013909 0)
(0.0498903 0.0148393 0)
(0.0102376 0.000192329 0)
(0.0292262 0.000556773 0)
(0.0454625 0.000887713 0)
(0.0592047 0.00119732 0)
(0.0707186 0.00149509 0)
(0.0802359 0.00178844 0)
(0.0879527 0.00208271 0)
(0.0940541 0.0023845 0)
(0.0987041 0.00269729 0)
(0.102049 0.00302526 0)
(0.104217 0.00337222 0)
(0.10533 0.00374297 0)
(0.105494 0.00414075 0)
(0.104809 0.00456893 0)
(0.103371 0.00503101 0)
(0.10127 0.00553024 0)
(0.0985975 0.00606987 0)
(0.0954434 0.00665319 0)
(0.0919042 0.0072836 0)
(0.0880723 0.00796393 0)
(0.0840785 0.00870006 0)
(0.0800408 0.00949367 0)
(0.0760874 0.0103435 0)
(0.0723898 0.0112516 0)
(0.0691358 0.0122188 0)
(0.0665963 0.0132436 0)
(0.0651696 0.0143229 0)
(0.0652048 0.0154354 0)
(0.0670317 0.0165475 0)
(0.0719056 0.0175681 0)
(0.0103339 0.00022536 0)
(0.0294962 0.000651882 0)
(0.0458967 0.00103917 0)
(0.0598127 0.00140134 0)
(0.0715088 0.00174932 0)
(0.0812211 0.00209173 0)
(0.0891556 0.00243549 0)
(0.0954979 0.00278753 0)
(0.100412 0.00315145 0)
(0.104052 0.00353257 0)
(0.106551 0.0039349 0)
(0.108038 0.00436468 0)
(0.10862 0.00482492 0)
(0.108404 0.00531959 0)
(0.107493 0.00585283 0)
(0.105985 0.00642824 0)
(0.103976 0.00704946 0)
(0.101564 0.00772032 0)
(0.0988654 0.00844534 0)
(0.0959785 0.00922867 0)
(0.093019 0.0100727 0)
(0.0901227 0.0109786 0)
(0.0874794 0.0119515 0)
(0.085261 0.0129893 0)
(0.0836742 0.0140896 0)
(0.0829458 0.0152454 0)
(0.0835085 0.0164491 0)
(0.0858711 0.0176768 0)
(0.0903056 0.0188895 0)
(0.0974463 0.0199273 0)
(0.0104298 0.000257115 0)
(0.0297909 0.000743827 0)
(0.0463923 0.00118594 0)
(0.0605078 0.00159894 0)
(0.0724124 0.00199533 0)
(0.0823486 0.0023849 0)
(0.0905315 0.00277573 0)
(0.0971411 0.00317417 0)
(0.102352 0.00358606 0)
(0.106329 0.00401711 0)
(0.109211 0.0044728 0)
(0.111124 0.00495775 0)
(0.11218 0.00547561 0)
(0.112494 0.00603107 0)
(0.112181 0.00662922 0)
(0.111344 0.0072737 0)
(0.110088 0.00796834 0)
(0.108512 0.00871725 0)
(0.106763 0.00952772 0)
(0.104956 0.0104022 0)
(0.103199 0.0113404 0)
(0.101653 0.0123481 0)
(0.100488 0.0134257 0)
(0.0999188 0.0145698 0)
(0.100218 0.0157786 0)
(0.101623 0.0170396 0)
(0.104435 0.0183303 0)
(0.109318 0.0196216 0)
(0.116501 0.0208524 0)
(0.125933 0.0218318 0)
(0.0105405 0.000287699 0)
(0.030124 0.000832543 0)
(0.046946 0.00132738 0)
(0.0612838 0.00178922 0)
(0.0734208 0.00223197 0)
(0.0836059 0.00266649 0)
(0.092058 0.00310147 0)
(0.0989652 0.00354355 0)
(0.104513 0.00400072 0)
(0.108865 0.00447871 0)
(0.112171 0.00498371 0)
(0.114552 0.00551868 0)
(0.116132 0.00608864 0)
(0.117028 0.00669832 0)
(0.117376 0.00735448 0)
(0.117281 0.00806007 0)
(0.116862 0.00881906 0)
(0.116234 0.00963792 0)
(0.115532 0.0105212 0)
(0.11489 0.0114703 0)
(0.114448 0.0124884 0)
(0.114414 0.0135809 0)
(0.11493 0.0147426 0)
(0.116225 0.0159724 0)
(0.118576 0.0172626 0)
(0.122321 0.0185951 0)
(0.127666 0.0199388 0)
(0.135152 0.0212416 0)
(0.145015 0.0224216 0)
(0.156709 0.0232934 0)
(0.0106633 0.000316935 0)
(0.0304896 0.000917203 0)
(0.0475502 0.0014622 0)
(0.0621295 0.0019704 0)
(0.0745194 0.00245698 0)
(0.0849754 0.00293377 0)
(0.0937221 0.00341021 0)
(0.100958 0.00389405 0)
(0.10687 0.00439305 0)
(0.111628 0.00491368 0)
(0.115382 0.0054617 0)
(0.118267 0.00604136 0)
(0.120413 0.00665745 0)
(0.121952 0.00731626 0)
(0.123014 0.00802318 0)
(0.12372 0.00878112 0)
(0.124199 0.00959519 0)
(0.124588 0.0104716 0)
(0.125022 0.0114129 0)
(0.125654 0.0124217 0)
(0.126654 0.0135029 0)
(0.128201 0.0146575 0)
(0.130544 0.0158832 0)
(0.133904 0.0171744 0)
(0.138495 0.018518 0)
(0.144732 0.019892 0)
(0.152818 0.0212549 0)
(0.162964 0.022532 0)
(0.17543 0.023628 0)
(0.189169 0.0243719 0)
(0.0107962 0.0003448 0)
(0.0308843 0.000997835 0)
(0.0482017 0.00159051 0)
(0.0630411 0.00214265 0)
(0.0757033 0.00267057 0)
(0.0864511 0.00318701 0)
(0.0955153 0.00370207 0)
(0.103102 0.00422419 0)
(0.109401 0.00476117 0)
(0.11459 0.00532014 0)
(0.118824 0.0059067 0)
(0.122245 0.00652568 0)
(0.124993 0.00718221 0)
(0.127208 0.00788245 0)
(0.129024 0.00863099 0)
(0.130574 0.00943132 0)
(0.131999 0.0102883 0)
(0.133455 0.0112083 0)
(0.135086 0.0121937 0)
(0.13706 0.0132463 0)
(0.139596 0.0143705 0)
(0.142862 0.015566 0)
(0.147099 0.0168298 0)
(0.152619 0.0181532 0)
(0.159649 0.0195231 0)
(0.168466 0.0209087 0)
(0.179365 0.0222603 0)
(0.192265 0.0234941 0)
(0.207251 0.0245007 0)
(0.222773 0.0251215 0)
(0.0109381 0.000371186 0)
(0.0313048 0.00107414 0)
(0.0488946 0.00171183 0)
(0.0640098 0.00230528 0)
(0.0769609 0.00287189 0)
(0.0880184 0.00342517 0)
(0.0974187 0.00397581 0)
(0.105373 0.0045326 0)
(0.112079 0.00510342 0)
(0.117721 0.00569633 0)
(0.122458 0.0063165 0)
(0.12644 0.00696898 0)
(0.129814 0.00765866 0)
(0.13273 0.00839222 0)
(0.135329 0.00917381 0)
(0.137751 0.0100061 0)
(0.140149 0.0108943 0)
(0.14271 0.0118445 0)
(0.145578 0.0128566 0)
(0.148949 0.0139344 0)
(0.153025 0.0150795 0)
(0.158069 0.0162907 0)
(0.164286 0.0175638 0)
(0.171986 0.0188898 0)
(0.181504 0.0202511 0)
(0.192967 0.0216172 0)
(0.206696 0.0229371 0)
(0.222418 0.0241304 0)
(0.23985 0.0250777 0)
(0.25694 0.0256144 0)
(0.011087 0.000395871 0)
(0.0317452 0.00114547 0)
(0.0496193 0.00182511 0)
(0.0650221 0.00245689 0)
(0.0782746 0.00305915 0)
(0.0896552 0.00364616 0)
(0.0994057 0.00422901 0)
(0.107742 0.0048167 0)
(0.114876 0.00541822 0)
(0.12099 0.00604062 0)
(0.126247 0.00668926 0)
(0.130805 0.00736927 0)
(0.134822 0.00808572 0)
(0.138455 0.00884455 0)
(0.141849 0.00964907 0)
(0.145158 0.0105021 0)
(0.148554 0.0114092 0)
(0.152203 0.0123736 0)
(0.156311 0.0133965 0)
(0.161084 0.0144784 0)
(0.166718 0.0156199 0)
(0.173475 0.0168189 0)
(0.181659 0.0180682 0)
(0.191506 0.0193587 0)
(0.203411 0.0206716 0)
(0.217511 0.0219817 0)
(0.234008 0.0232456 0)
(0.25254 0.024407 0)
(0.272405 0.0253528 0)
(0.291104 0.0258715 0)
(0.0112419 0.000418876 0)
(0.0322032 0.00121191 0)
(0.0503724 0.00193052 0)
(0.0660733 0.0025977 0)
(0.0796382 0.00323263 0)
(0.0913544 0.00385031 0)
(0.101468 0.00446213 0)
(0.110203 0.00507756 0)
(0.117775 0.00570551 0)
(0.12436 0.00635191 0)
(0.130147 0.00702368 0)
(0.13529 0.00772498 0)
(0.139952 0.00846046 0)
(0.144306 0.00923619 0)
(0.148498 0.0100547 0)
(0.152685 0.0109179 0)
(0.157073 0.0118305 0)
(0.161821 0.0127941 0)
(0.167123 0.0138093 0)
(0.173227 0.0148741 0)
(0.180362 0.0159859 0)
(0.188754 0.0171408 0)
(0.198744 0.0183291 0)
(0.210605 0.0195392 0)
(0.224678 0.0207503 0)
(0.241166 0.0219408 0)
(0.260107 0.0230841 0)
(0.281238 0.0241624 0)
(0.303452 0.0251036 0)
(0.324158 0.025603 0)
(0.0114014 0.000440141 0)
(0.0326748 0.0012733 0)
(0.0511478 0.00202779 0)
(0.0671539 0.00272732 0)
(0.081039 0.00339181 0)
(0.0931004 0.00403707 0)
(0.103585 0.00467443 0)
(0.112723 0.00531353 0)
(0.120726 0.00596254 0)
(0.127799 0.00662906 0)
(0.13412 0.00731885 0)
(0.139847 0.00803528 0)
(0.14515 0.00878329 0)
(0.150222 0.00956809 0)
(0.155192 0.01039 0)
(0.16025 0.0112528 0)
(0.165576 0.0121583 0)
(0.171378 0.0131057 0)
(0.177835 0.0140943 0)
(0.185172 0.0151206 0)
(0.193654 0.0161765 0)
(0.203544 0.0172551 0)
(0.215093 0.018342 0)
(0.228661 0.0194178 0)
(0.244432 0.0204572 0)
(0.262684 0.0214223 0)
(0.283302 0.0222859 0)
(0.306186 0.0230332 0)
(0.329789 0.0236984 0)
(0.353171 0.0239064 0)
(0.00524878 -0.00175443 0)
(0.0112855 -0.00186237 0)
(0.0238065 -0.00193153 0)
(0.0425242 -0.00196418 0)
(0.0658127 -0.00194387 0)
(0.0914212 -0.00187919 0)
(0.117012 -0.00178553 0)
(0.140775 -0.00166507 0)
(0.161604 -0.00153182 0)
(0.179062 -0.00140067 0)
(0.193136 -0.00126538 0)
(0.20399 -0.0011337 0)
(0.211934 -0.00101778 0)
(0.217241 -0.000913083 0)
(0.220118 -0.000813564 0)
(0.220746 -0.000726197 0)
(0.219259 -0.000643221 0)
(0.215762 -0.000570009 0)
(0.210304 -0.000504167 0)
(0.202923 -0.000444777 0)
(0.19362 -0.000391002 0)
(0.182348 -0.000342726 0)
(0.169099 -0.000296009 0)
(0.153796 -0.000253158 0)
(0.136403 -0.000212829 0)
(0.11686 -0.000174318 0)
(0.0950023 -0.000136628 0)
(0.0708438 -9.89573e-05 0)
(0.0443272 -6.0736e-05 0)
(0.0152294 -2.06794e-05 0)
(0.0100151 -0.00525205 0)
(0.0166038 -0.00555348 0)
(0.0296841 -0.0057594 0)
(0.0486615 -0.00582852 0)
(0.0718665 -0.005748 0)
(0.0971406 -0.00554914 0)
(0.122166 -0.00525661 0)
(0.14524 -0.00489733 0)
(0.165377 -0.00450072 0)
(0.182187 -0.00410532 0)
(0.195675 -0.00370941 0)
(0.206068 -0.00333469 0)
(0.213633 -0.00298978 0)
(0.218618 -0.00267831 0)
(0.221238 -0.00239242 0)
(0.221659 -0.00213253 0)
(0.220007 -0.00189426 0)
(0.216377 -0.0016801 0)
(0.210811 -0.00148717 0)
(0.203342 -0.00131277 0)
(0.193962 -0.00115439 0)
(0.182645 -0.00101048 0)
(0.169361 -0.000874824 0)
(0.154012 -0.000748773 0)
(0.136584 -0.000629682 0)
(0.117012 -0.000515968 0)
(0.095133 -0.000404623 0)
(0.0709464 -0.000293048 0)
(0.0443913 -0.000179915 0)
(0.0152524 -6.12738e-05 0)
(0.0193197 -0.00866641 0)
(0.0270873 -0.00913503 0)
(0.041179 -0.00944325 0)
(0.0604983 -0.00950058 0)
(0.0835477 -0.00933676 0)
(0.108079 -0.00897446 0)
(0.131955 -0.00847136 0)
(0.153716 -0.00788066 0)
(0.172506 -0.00723171 0)
(0.188093 -0.00658673 0)
(0.200535 -0.00595995 0)
(0.210041 -0.00536722 0)
(0.216873 -0.00481846 0)
(0.221252 -0.00431347 0)
(0.223386 -0.00385881 0)
(0.223414 -0.00344256 0)
(0.221453 -0.00306724 0)
(0.217567 -0.00272365 0)
(0.211794 -0.0024138 0)
(0.204159 -0.00213282 0)
(0.194644 -0.00187694 0)
(0.183221 -0.00164205 0)
(0.169854 -0.00142441 0)
(0.154432 -0.0012206 0)
(0.136938 -0.00102684 0)
(0.117305 -0.000841984 0)
(0.0953919 -0.00066096 0)
(0.0711513 -0.000479454 0)
(0.0445122 -0.000294532 0)
(0.015295 -0.000100353 0)
(0.0330725 -0.0119369 0)
(0.0425451 -0.0125452 0)
(0.05776 -0.01287 0)
(0.0774424 -0.0128751 0)
(0.10007 -0.0125946 0)
(0.123419 -0.0120606 0)
(0.145622 -0.0113438 0)
(0.165502 -0.0105332 0)
(0.182435 -0.0096622 0)
(0.196362 -0.00879916 0)
(0.207349 -0.00797321 0)
(0.215618 -0.00718947 0)
(0.221436 -0.00646721 0)
(0.224976 -0.00579948 0)
(0.226429 -0.00519372 0)
(0.225907 -0.00464287 0)
(0.223507 -0.00414439 0)
(0.219265 -0.0036878 0)
(0.2132 -0.00327324 0)
(0.205328 -0.00289572 0)
(0.195625 -0.00255123 0)
(0.184045 -0.00223304 0)
(0.17055 -0.00193948 0)
(0.155035 -0.00166428 0)
(0.137449 -0.00140219 0)
(0.117715 -0.00115088 0)
(0.0957278 -0.000904405 0)
(0.0714077 -0.000657233 0)
(0.0446733 -0.000404114 0)
(0.0153519 -0.000137759 0)
(0.051065 -0.0150117 0)
(0.0624679 -0.0156849 0)
(0.0787271 -0.0159558 0)
(0.0986707 -0.0158697 0)
(0.120493 -0.0154365 0)
(0.14225 -0.0147358 0)
(0.162305 -0.013827 0)
(0.179877 -0.0128178 0)
(0.194585 -0.0117629 0)
(0.206488 -0.0107192 0)
(0.215705 -0.0097235 0)
(0.222492 -0.00878637 0)
(0.227067 -0.00791755 0)
(0.229595 -0.00711793 0)
(0.230216 -0.00638719 0)
(0.229019 -0.0057213 0)
(0.226067 -0.00511467 0)
(0.221387 -0.00456192 0)
(0.214965 -0.00405681 0)
(0.206799 -0.00359381 0)
(0.196866 -0.0031712 0)
(0.185091 -0.00278009 0)
(0.171423 -0.00241797 0)
(0.155773 -0.00207801 0)
(0.138067 -0.00175422 0)
(0.11822 -0.00144172 0)
(0.0961312 -0.00113424 0)
(0.07171 -0.000825221 0)
(0.0448649 -0.000507821 0)
(0.0154194 -0.000173191 0)
(0.072983 -0.0178183 0)
(0.0861748 -0.0184503 0)
(0.103374 -0.0186304 0)
(0.123282 -0.0184209 0)
(0.143916 -0.0178333 0)
(0.163627 -0.0169633 0)
(0.18118 -0.0158909 0)
(0.196112 -0.0147184 0)
(0.208307 -0.0135146 0)
(0.217938 -0.01233 0)
(0.225185 -0.0112032 0)
(0.230316 -0.0101461 0)
(0.233503 -0.00916376 0)
(0.234891 -0.00825917 0)
(0.234573 -0.00742862 0)
(0.232611 -0.00666929 0)
(0.22903 -0.00597345 0)
(0.223846 -0.00533938 0)
(0.217021 -0.00475862 0)
(0.208521 -0.00422441 0)
(0.198306 -0.00373455 0)
(0.186303 -0.00328116 0)
(0.172438 -0.00285884 0)
(0.156624 -0.00246093 0)
(0.138775 -0.00208093 0)
(0.118796 -0.00171254 0)
(0.096588 -0.00134884 0)
(0.0720486 -0.000982326 0)
(0.0450788 -0.000604945 0)
(0.0154944 -0.000206399 0)
(0.0984299 -0.0202621 0)
(0.113116 -0.0207921 0)
(0.130997 -0.0208583 0)
(0.150438 -0.0205082 0)
(0.169451 -0.0197689 0)
(0.186701 -0.0187421 0)
(0.201413 -0.0175282 0)
(0.213453 -0.0162268 0)
(0.222954 -0.0149113 0)
(0.230176 -0.0136262 0)
(0.235339 -0.0124057 0)
(0.238733 -0.011264 0)
(0.240449 -0.0101994 0)
(0.240634 -0.00921826 0)
(0.239314 -0.00831252 0)
(0.236539 -0.00748216 0)
(0.232291 -0.00671838 0)
(0.22656 -0.00601932 0)
(0.219291 -0.0053775 0)
(0.210427 -0.00478633 0)
(0.199905 -0.00424078 0)
(0.187644 -0.00373401 0)
(0.173561 -0.00325963 0)
(0.157562 -0.00281081 0)
(0.139551 -0.00238056 0)
(0.119427 -0.0019618 0)
(0.0970837 -0.00154691 0)
(0.0724132 -0.00112763 0)
(0.0453079 -0.0006949 0)
(0.0155743 -0.000237177 0)
(0.126792 -0.0222702 0)
(0.142672 -0.0226847 0)
(0.160872 -0.0226309 0)
(0.179336 -0.0221349 0)
(0.19622 -0.0212446 0)
(0.210592 -0.0200742 0)
(0.222182 -0.0187427 0)
(0.231178 -0.017347 0)
(0.237906 -0.0159577 0)
(0.242688 -0.0146126 0)
(0.245772 -0.0133369 0)
(0.247403 -0.0121428 0)
(0.247646 -0.0110284 0)
(0.2466 -0.00999573 0)
(0.244273 -0.00904099 0)
(0.24067 -0.00816098 0)
(0.235746 -0.00734984 0)
(0.229451 -0.00660323 0)
(0.221714 -0.00591489 0)
(0.212462 -0.00527847 0)
(0.201613 -0.00468806 0)
(0.189077 -0.00413704 0)
(0.174759 -0.00361871 0)
(0.158559 -0.00312606 0)
(0.140372 -0.0026518 0)
(0.120092 -0.00218832 0)
(0.0976041 -0.00172749 0)
(0.0727936 -0.00126039 0)
(0.0455455 -0.000777223 0)
(0.0156569 -0.000265364 0)
(0.15747 -0.0238469 0)
(0.174216 -0.0241428 0)
(0.192281 -0.0239665 0)
(0.20915 -0.023315 0)
(0.223327 -0.0222687 0)
(0.23443 -0.0209679 0)
(0.242703 -0.019545 0)
(0.248601 -0.0180911 0)
(0.252586 -0.0166664 0)
(0.254991 -0.0152984 0)
(0.256081 -0.0140055 0)
(0.255991 -0.0127901 0)
(0.254831 -0.0116567 0)
(0.252602 -0.0105995 0)
(0.249307 -0.00961883 0)
(0.244895 -0.00871052 0)
(0.239296 -0.00786972 0)
(0.232434 -0.0070916 0)
(0.224223 -0.00637053 0)
(0.214571 -0.00570057 0)
(0.203384 -0.00507569 0)
(0.190561 -0.00448946 0)
(0.175999 -0.00393516 0)
(0.159589 -0.00340573 0)
(0.141219 -0.00289374 0)
(0.120774 -0.0023913 0)
(0.0981352 -0.00188987 0)
(0.0731798 -0.00138009 0)
(0.0457855 -0.00085157 0)
(0.0157399 -0.000290839 0)
(0.189926 -0.0250347 0)
(0.207206 -0.0252199 0)
(0.224511 -0.0248996 0)
(0.238994 -0.0240616 0)
(0.249837 -0.0228478 0)
(0.257345 -0.0214325 0)
(0.262221 -0.0199503 0)
(0.265085 -0.0184773 0)
(0.266465 -0.0170566 0)
(0.266644 -0.015702 0)
(0.265882 -0.0144246 0)
(0.264243 -0.0132207 0)
(0.261791 -0.0120925 0)
(0.258488 -0.011037 0)
(0.254284 -0.0100523 0)
(0.2491 -0.00913512 0)
(0.242849 -0.00828132 0)
(0.235433 -0.0074865 0)
(0.226752 -0.00674566 0)
(0.216701 -0.00605338 0)
(0.205174 -0.00540395 0)
(0.192062 -0.00479123 0)
(0.177251 -0.00420871 0)
(0.160626 -0.00364942 0)
(0.142068 -0.00310595 0)
(0.121456 -0.00257026 0)
(0.0986637 -0.00203364 0)
(0.0735622 -0.00148639 0)
(0.0460217 -0.000917716 0)
(0.0158212 -0.00031352 0)
(0.223725 -0.0258995 0)
(0.241159 -0.0259803 0)
(0.256722 -0.025447 0)
(0.267813 -0.0243666 0)
(0.274732 -0.0229776 0)
(0.278464 -0.0214761 0)
(0.280033 -0.0199778 0)
(0.28007 -0.0185301 0)
(0.279105 -0.017154 0)
(0.277347 -0.0158484 0)
(0.274971 -0.0146144 0)
(0.271996 -0.0134492 0)
(0.268403 -0.0123515 0)
(0.264129 -0.0113191 0)
(0.25909 -0.0103498 0)
(0.25319 -0.00944094 0)
(0.246322 -0.00858937 0)
(0.238377 -0.00779136 0)
(0.229242 -0.00704268 0)
(0.218803 -0.0063386 0)
(0.206942 -0.00567393 0)
(0.193543 -0.00504302 0)
(0.178485 -0.00443969 0)
(0.161645 -0.00385723 0)
(0.1429 -0.00328836 0)
(0.122122 -0.0027251 0)
(0.0991772 -0.00215863 0)
(0.0739316 -0.00157913 0)
(0.0462487 -0.00097555 0)
(0.0158991 -0.000333368 0)
(0.258616 -0.0265533 0)
(0.275426 -0.0264525 0)
(0.287689 -0.0255644 0)
(0.294288 -0.0241842 0)
(0.296917 -0.0226414 0)
(0.296963 -0.0211094 0)
(0.295541 -0.019653 0)
(0.293191 -0.0182798 0)
(0.290282 -0.0169842 0)
(0.286949 -0.0157581 0)
(0.283239 -0.0145958 0)
(0.279127 -0.0134933 0)
(0.274549 -0.0124479 0)
(0.269419 -0.0114576 0)
(0.263633 -0.0105207 0)
(0.257081 -0.00963555 0)
(0.249646 -0.00879979 0)
(0.241207 -0.00801071 0)
(0.231643 -0.00726499 0)
(0.220832 -0.00655874 0)
(0.20865 -0.00588747 0)
(0.194972 -0.00524611 0)
(0.179673 -0.00462897 0)
(0.162625 -0.00402972 0)
(0.143697 -0.00344132 0)
(0.122756 -0.00285597 0)
(0.0996638 -0.00226492 0)
(0.0742798 -0.00165833 0)
(0.0464614 -0.00102507 0)
(0.0159716 -0.000350378 0)
(0.29444 -0.0270654 0)
(0.308597 -0.0265301 0)
(0.315506 -0.0251052 0)
(0.316868 -0.0234318 0)
(0.315331 -0.0218213 0)
(0.312284 -0.0203475 0)
(0.308497 -0.0189976 0)
(0.304332 -0.0177456 0)
(0.299947 -0.0165695 0)
(0.295376 -0.0154539 0)
(0.290598 -0.0143896 0)
(0.28555 -0.0133715 0)
(0.280144 -0.0123973 0)
(0.274279 -0.0114657 0)
(0.26784 -0.010576 0)
(0.260708 -0.00972762 0)
(0.252759 -0.00891947 0)
(0.243868 -0.00814996 0)
(0.233907 -0.0074168 0)
(0.222748 -0.00671704 0)
(0.210263 -0.00604701 0)
(0.196321 -0.00540233 0)
(0.180793 -0.00477788 0)
(0.163545 -0.00416782 0)
(0.144442 -0.00356548 0)
(0.123345 -0.00296333 0)
(0.100113 -0.0023528 0)
(0.074599 -0.00172416 0)
(0.046655 -0.00106636 0)
(0.0160373 -0.00036458 0)
(0.329977 -0.0272582 0)
(0.337577 -0.0258412 0)
(0.337599 -0.0238099 0)
(0.334292 -0.0219986 0)
(0.329574 -0.0204791 0)
(0.324354 -0.0191788 0)
(0.31897 -0.0180197 0)
(0.313542 -0.0169488 0)
(0.308096 -0.0159349 0)
(0.302603 -0.0149608 0)
(0.297002 -0.0140182 0)
(0.29121 -0.0131038 0)
(0.28513 -0.0122167 0)
(0.27865 -0.0113575 0)
(0.271654 -0.0105272 0)
(0.264018 -0.00972656 0)
(0.255616 -0.00895603 0)
(0.246319 -0.00821519 0)
(0.235997 -0.00750293 0)
(0.224518 -0.00681729 0)
(0.211752 -0.00615549 0)
(0.197565 -0.00551393 0)
(0.181821 -0.00488815 0)
(0.164385 -0.00427285 0)
(0.145118 -0.00366181 0)
(0.123877 -0.00304787 0)
(0.100515 -0.00242276 0)
(0.0748824 -0.00177696 0)
(0.0468255 -0.00109962 0)
(0.0160948 -0.000376035 0)
(0.358663 -0.0263236 0)
(0.358766 -0.023383 0)
(0.352829 -0.0211046 0)
(0.34638 -0.0196265 0)
(0.339875 -0.0185302 0)
(0.33345 -0.0176025 0)
(0.327136 -0.0167479 0)
(0.320925 -0.0159244 0)
(0.31478 -0.0151135 0)
(0.308644 -0.0143081 0)
(0.302442 -0.0135068 0)
(0.296085 -0.012711 0)
(0.289472 -0.0119235 0)
(0.282494 -0.0111475 0)
(0.275035 -0.0103863 0)
(0.26697 -0.00964229 0)
(0.258176 -0.00891751 0)
(0.248523 -0.00821293 0)
(0.237879 -0.00752862 0)
(0.226114 -0.00686367 0)
(0.213092 -0.00621625 0)
(0.19868 -0.00558355 0)
(0.182739 -0.00496182 0)
(0.165131 -0.00434637 0)
(0.145713 -0.00373151 0)
(0.12434 -0.00311049 0)
(0.100862 -0.00247543 0)
(0.0751239 -0.00181715 0)
(0.0469692 -0.0011251 0)
(0.0161428 -0.000384831 0)
(0.0115665 0.000459877 0)
(0.0331628 0.00133023 0)
(0.05195 0.0021179 0)
(0.0682695 0.00284703 0)
(0.0824901 0.00353887 0)
(0.094911 0.00420905 0)
(0.105777 0.00486889 0)
(0.115328 0.00552818 0)
(0.123781 0.00619512 0)
(0.131346 0.00687722 0)
(0.138201 0.00757931 0)
(0.144512 0.00830462 0)
(0.150467 0.00905863 0)
(0.156237 0.00984406 0)
(0.161971 0.0106611 0)
(0.167875 0.011512 0)
(0.174117 0.0123967 0)
(0.18089 0.0133138 0)
(0.188423 0.0142573 0)
(0.196896 0.0152216 0)
(0.206557 0.0161968 0)
(0.217686 0.0171653 0)
(0.230477 0.018109 0)
(0.245248 0.0189936 0)
(0.262059 0.0197785 0)
(0.281092 0.0203879 0)
(0.30203 0.0207177 0)
(0.324373 0.0205314 0)
(0.346026 0.0193613 0)
(0.365858 0.0156651 0)
(0.0117383 0.000478183 0)
(0.0336708 0.00138301 0)
(0.0527866 0.00220136 0)
(0.0694449 0.0029582 0)
(0.0840125 0.00367476 0)
(0.0967931 0.00436642 0)
(0.108053 0.00504561 0)
(0.118026 0.00572151 0)
(0.126933 0.00640198 0)
(0.134998 0.0070949 0)
(0.142396 0.00780438 0)
(0.149293 0.00853318 0)
(0.155894 0.00928601 0)
(0.162347 0.010063 0)
(0.168832 0.0108655 0)
(0.175528 0.0116938 0)
(0.182631 0.0125444 0)
(0.190303 0.0134145 0)
(0.198774 0.0142963 0)
(0.208224 0.0151769 0)
(0.21884 0.0160443 0)
(0.230877 0.0168741 0)
(0.244488 0.0176374 0)
(0.259821 0.0182883 0)
(0.276871 0.0187642 0)
(0.295488 0.0189637 0)
(0.315078 0.0187422 0)
(0.334508 0.0178779 0)
(0.351961 0.0160796 0)
(0.366249 0.0128659 0)
(0.0119142 0.000494762 0)
(0.0341912 0.00143077 0)
(0.0536437 0.00227674 0)
(0.0706463 0.00305816 0)
(0.085562 0.00379584 0)
(0.0987162 0.00450623 0)
(0.110379 0.00520146 0)
(0.120777 0.0058901 0)
(0.130145 0.00658039 0)
(0.138708 0.0072795 0)
(0.146633 0.00799006 0)
(0.154112 0.00871606 0)
(0.161322 0.0094602 0)
(0.168433 0.0102219 0)
(0.175623 0.0110002 0)
(0.183051 0.0117944 0)
(0.190915 0.0125995 0)
(0.199392 0.0134087 0)
(0.208629 0.0142127 0)
(0.218817 0.0149934 0)
(0.230126 0.015734 0)
(0.242701 0.0164053 0)
(0.256634 0.0169689 0)
(0.271885 0.017375 0)
(0.288344 0.0175487 0)
(0.305538 0.0174007 0)
(0.322686 0.0168074 0)
(0.338738 0.0156341 0)
(0.352663 0.0136755 0)
(0.363414 0.0107193 0)
(0.0120925 0.00050943 0)
(0.0347191 0.00147299 0)
(0.0545125 0.00234318 0)
(0.0718645 0.00314592 0)
(0.0871478 0.00390228 0)
(0.100678 0.004628 0)
(0.112731 0.00533495 0)
(0.12355 0.00603213 0)
(0.133378 0.00672785 0)
(0.142424 0.00742801 0)
(0.15087 0.00813531 0)
(0.158905 0.008852 0)
(0.166699 0.00957988 0)
(0.174418 0.0103186 0)
(0.182239 0.0110645 0)
(0.190335 0.0118151 0)
(0.198848 0.0125646 0)
(0.207957 0.0133012 0)
(0.217778 0.0140146 0)
(0.228476 0.0146847 0)
(0.240169 0.0152884 0)
(0.252889 0.0157967 0)
(0.266641 0.0161647 0)
(0.281265 0.0163465 0)
(0.296493 0.0162753 0)
(0.311761 0.0158841 0)
(0.326429 0.015083 0)
(0.33976 0.0137739 0)
(0.350993 0.0118475 0)
(0.359399 0.00925214 0)
(0.0122716 0.00052204 0)
(0.0352494 0.00150925 0)
(0.055382 0.0023999 0)
(0.0730892 0.00322073 0)
(0.0887429 0.00399239 0)
(0.102643 0.00472944 0)
(0.115085 0.00544446 0)
(0.126329 0.00614692 0)
(0.136602 0.00684333 0)
(0.146115 0.00753924 0)
(0.155056 0.00823797 0)
(0.163611 0.00894005 0)
(0.171942 0.00964508 0)
(0.180211 0.010353 0)
(0.188596 0.0110599 0)
(0.197237 0.0117584 0)
(0.206266 0.0124432 0)
(0.215843 0.0131008 0)
(0.22607 0.0137165 0)
(0.237025 0.0142722 0)
(0.24877 0.0147395 0)
(0.261274 0.0150914 0)
(0.274449 0.0152884 0)
(0.288066 0.015287 0)
(0.3018 0.015039 0)
(0.315198 0.0144901 0)
(0.327754 0.0135796 0)
(0.338929 0.0122452 0)
(0.348158 0.01046 0)
(0.354997 0.0082261 0)
(0.0124498 0.000532443 0)
(0.035778 0.00153914 0)
(0.0562639 0.00244713 0)
(0.0743228 0.00328236 0)
(0.0903271 0.00406491 0)
(0.104589 0.00480943 0)
(0.117418 0.00552883 0)
(0.129075 0.0062325 0)
(0.13978 0.00692582 0)
(0.149734 0.00761264 0)
(0.159134 0.0082969 0)
(0.168169 0.00897911 0)
(0.176977 0.00965607 0)
(0.185737 0.0103271 0)
(0.194581 0.0109881 0)
(0.203646 0.0116294 0)
(0.213069 0.0122442 0)
(0.222954 0.0128191 0)
(0.233358 0.0133362 0)
(0.244322 0.0137784 0)
(0.255853 0.0141206 0)
(0.267865 0.0143344 0)
(0.280215 0.0143893 0)
(0.292684 0.0142494 0)
(0.304969 0.0138776 0)
(0.316707 0.0132358 0)
(0.327526 0.0122816 0)
(0.336986 0.0109975 0)
(0.34471 0.00939125 0)
(0.350471 0.00748174 0)
(0.0126248 0.000540512 0)
(0.0362962 0.0015622 0)
(0.0571255 0.00248325 0)
(0.0755293 0.00332895 0)
(0.0918833 0.00411896 0)
(0.106512 0.00486802 0)
(0.119709 0.0055876 0)
(0.131751 0.00628765 0)
(0.142869 0.0069738 0)
(0.153234 0.00764759 0)
(0.163064 0.00831274 0)
(0.172518 0.00896978 0)
(0.181749 0.00961452 0)
(0.190901 0.0102435 0)
(0.200106 0.0108533 0)
(0.209493 0.0114343 0)
(0.219165 0.0119767 0)
(0.229179 0.0124686 0)
(0.239563 0.0128921 0)
(0.250333 0.0132294 0)
(0.261442 0.01346 0)
(0.272799 0.0135594 0)
(0.28425 0.0135017 0)
(0.295586 0.0132599 0)
(0.306546 0.0128075 0)
(0.316876 0.0121174 0)
(0.326247 0.0111724 0)
(0.334332 0.00998001 0)
(0.340925 0.0085511 0)
(0.345902 0.00691761 0)
(0.0127946 0.00054613 0)
(0.0367932 0.00157788 0)
(0.0579534 0.00250755 0)
(0.0766977 0.00335995 0)
(0.0933952 0.00415381 0)
(0.108377 0.00490361 0)
(0.121929 0.00561993 0)
(0.13434 0.00631246 0)
(0.14583 0.00698695 0)
(0.156582 0.00764434 0)
(0.166778 0.00828586 0)
(0.176591 0.00891289 0)
(0.186175 0.00952166 0)
(0.195633 0.0101061 0)
(0.205114 0.0106621 0)
(0.214702 0.0111816 0)
(0.224469 0.0116527 0)
(0.234447 0.0120645 0)
(0.244657 0.0124013 0)
(0.255085 0.0126466 0)
(0.265672 0.0127822 0)
(0.276315 0.0127884 0)
(0.286868 0.012645 0)
(0.297149 0.0123325 0)
(0.30695 0.0118331 0)
(0.316055 0.0111316 0)
(0.324215 0.0102309 0)
(0.331215 0.00913994 0)
(0.336936 0.00787572 0)
(0.34131 0.00647191 0)
(0.01296 0.000549321 0)
(0.0372916 0.00158719 0)
(0.0587601 0.00252068 0)
(0.0778114 0.0033747 0)
(0.0948401 0.00416864 0)
(0.11016 0.00491555 0)
(0.124058 0.00562558 0)
(0.136797 0.00630646 0)
(0.148618 0.00696489 0)
(0.159714 0.00760229 0)
(0.170227 0.00821746 0)
(0.180349 0.0088113 0)
(0.190203 0.00938083 0)
(0.199889 0.00991946 0)
(0.209528 0.0104215 0)
(0.219185 0.0108797 0)
(0.228919 0.0112835 0)
(0.238754 0.0116215 0)
(0.248689 0.0118805 0)
(0.258697 0.012046 0)
(0.268711 0.0121031 0)
(0.278632 0.0120364 0)
(0.28833 0.0118307 0)
(0.297651 0.0114736 0)
(0.306435 0.0109534 0)
(0.314495 0.0102682 0)
(0.321651 0.00942569 0)
(0.327779 0.00843662 0)
(0.332805 0.00732006 0)
(0.336695 0.00610655 0)
(0.0131161 0.000549886 0)
(0.0377598 0.00158877 0)
(0.0595368 0.00252243 0)
(0.0788738 0.00337378 0)
(0.0961951 0.00416284 0)
(0.111832 0.00490324 0)
(0.126046 0.00560327 0)
(0.139088 0.00626972 0)
(0.151212 0.00690887 0)
(0.162595 0.0075226 0)
(0.173379 0.00810922 0)
(0.183731 0.00866801 0)
(0.193766 0.00919625 0)
(0.203586 0.00968831 0)
(0.213285 0.0101381 0)
(0.222924 0.0105381 0)
(0.232542 0.010879 0)
(0.242154 0.0111506 0)
(0.25175 0.0113416 0)
(0.261293 0.0114402 0)
(0.270719 0.0114344 0)
(0.279942 0.0113131 0)
(0.288847 0.0110647 0)
(0.297312 0.010682 0)
(0.3052 0.010162 0)
(0.312362 0.00950916 0)
(0.318691 0.00873056 0)
(0.324106 0.00783878 0)
(0.328563 0.00685228 0)
(0.332049 0.00579714 0)
(0.0132586 0.000547674 0)
(0.0381879 0.00158231 0)