/*--------------------------------*- C++ -*----------------------------------*\
| =========                 |                                                 |
| \\      /  F ield         | OpenFOAM: The Open Source CFD Toolbox           |
|  \\    /   O peration     | Version:  5.x                                   |
|   \\  /    A nd           | Web:      www.OpenFOAM.org                      |
|    \\/     M anipulation  |                                                 |
\*---------------------------------------------------------------------------*/
FoamFile
{
    version     2.0;
    format      ascii;
    class       volScalarField;
    location    "0.9";
    object      p;
}
// * * * * * * * * * * * * * * * * * * * * * * * * * * * * * * * * * * * * * //

dimensions      [0 2 -2 0 0 0 0];

internalField   nonuniform List<scalar> 
2790
(
178.801
178.467
178.492
178.852
179.421
180.147
181.024
182.051
183.219
184.523
185.956
187.511
189.182
190.961
192.84
194.807
196.85
198.952
201.093
203.246
205.383
207.468
209.459
211.31
212.97
214.388
215.514
216.307
216.735
216.839
178.627
178.4
178.445
178.802
179.366
180.089
180.963
181.985
183.148
184.445
185.87
187.417
189.079
190.848
192.716
194.673
196.706
198.798
200.93
203.077
205.211
207.298
209.296
211.16
212.839
214.281
215.433
216.249
216.692
217.008
178.467
178.31
178.372
178.718
179.271
179.984
180.846
181.854
183
184.278
185.682
187.203
188.836
190.573
192.406
194.323
196.312
198.357
200.439
202.535
204.618
206.656
208.611
210.442
212.101
213.544
214.729
215.638
216.276
216.88
178.294
178.171
178.245
178.583
179.123
179.822
180.669
181.659
182.784
184.036
185.41
186.897
188.491
190.183
191.965
193.826
195.751
197.726
199.732
201.746
203.743
205.693
207.561
209.31
210.9
212.291
213.452
214.364
214.978
215.31
178.1
177.995
178.078
178.408
178.934
179.617
180.445
181.411
182.507
183.727
185.063
186.506
188.049
189.685
191.404
193.193
195.038
196.924
198.832
200.741
202.624
204.453
206.195
207.817
209.28
210.544
211.567
212.296
212.611
212.186
177.881
177.785
177.872
178.193
178.702
179.365
180.168
181.105
182.167
183.348
184.639
186.03
187.514
189.084
190.728
192.433
194.185
195.966
197.758
199.54
201.284
202.962
204.542
205.989
207.26
208.305
209.06
209.423
209.273
207.746
177.636
177.543
177.628
177.938
178.429
179.068
179.842
180.745
181.769
182.905
184.143
185.474
186.891
188.385
189.944
191.553
193.198
194.862
196.523
198.157
199.739
201.238
202.62
203.844
204.858
205.599
205.974
205.828
205.143
202.33
177.364
177.27
177.349
177.644
178.115
178.728
179.469
180.333
181.314
182.4
183.578
184.841
186.183
187.593
189.058
190.561
192.087
193.619
195.132
196.602
197.999
199.293
200.442
201.398
202.098
202.463
202.38
201.631
200.422
196.414
177.064
176.967
177.036
177.315
177.763
178.346
179.051
179.873
180.805
181.834
182.947
184.136
185.395
186.714
188.075
189.461
190.857
192.244
193.595
194.882
196.074
197.136
198.019
198.666
199.003
198.933
198.34
196.94
195.263
190.309
176.737
176.635
176.691
176.952
177.375
177.925
178.59
179.366
180.245
181.211
182.253
183.363
184.534
185.752
187
188.26
189.516
190.746
191.919
193.007
193.975
194.779
195.366
195.666
195.595
195.04
193.897
191.81
189.672
183.871
176.385
176.274
176.316
176.557
176.952
177.467
178.089
178.815
179.635
180.535
181.502
182.527
183.602
184.713
185.84
186.966
188.074
189.134
190.117
190.991
191.714
192.237
192.498
192.417
191.896
190.81
189.072
186.248
183.607
177.002
176.007
175.886
175.912
176.131
176.497
176.974
177.55
178.222
178.981
179.81
180.697
181.633
182.607
183.604
184.603
185.589
186.538
187.419
188.2
188.844
189.304
189.526
189.435
188.94
187.93
186.264
183.867
180.221
176.928
169.29
175.605
175.473
175.482
175.677
176.012
176.448
176.976
177.591
178.285
179.041
179.844
180.685
181.554
182.431
183.298
184.136
184.919
185.611
186.18
186.582
186.766
186.669
186.205
185.267
183.729
181.426
178.282
173.666
169.391
160.041
175.181
175.037
175.027
175.197
175.498
175.892
176.369
176.925
177.552
178.231
178.946
179.69
180.449
181.202
181.932
182.618
183.226
183.723
184.073
184.225
184.125
183.697
182.842
181.442
179.346
176.354
172.349
166.55
160.735
148.418
174.735
174.578
174.548
174.692
174.959
175.309
175.732
176.227
176.784
177.385
178.01
178.652
179.298
179.925
180.515
181.043
181.474
181.772
181.897
181.797
181.408
180.644
179.396
177.53
174.871
171.17
166.225
159.054
150.985
133.208
101.951
101.649
101.035
99.9246
98.1572
95.6208
92.2621
88.0967
83.195
77.6543
71.5891
65.1306
58.42
51.6017
44.8268
38.2572
32.0587
26.3941
21.4204
17.2869
14.0995
11.8693
10.601
10.2409
10.6535
11.6738
13.0333
13.9107
12.5038
6.99084
102.119
101.848
101.223
100.071
98.2458
95.6481
92.2322
88.0172
83.0731
77.4946
71.393
64.8987
58.152
51.2964
44.484
37.8772
31.6414
25.9384
20.9204
16.7232
13.4391
11.1261
9.75548
9.26455
9.5014
10.2621
11.2852
12.0415
11.1718
5.54677
102.491
102.183
101.474
100.206
98.247
95.5115
91.9699
87.6511
82.6248
76.98
70.8239
64.2824
57.4912
50.591
43.7332
37.0803
30.797
25.045
19.974
15.7155
12.3785
9.95248
8.48842
7.89413
7.99796
8.56156
9.3379
10.0039
9.41704
4.29572
102.995
102.596
101.737
100.273
98.0999
95.1557
91.4291
86.9569
81.8058
76.0572
69.8128
63.1914
56.3225
49.3445
42.4072
35.6733
29.3086
23.4752
18.3232
13.9731
10.5027
8
6.44176
5.75158
5.75609
6.21291
6.89766
7.5613
7.19446
3.15227
103.508
102.956
101.883
100.157
97.7111
94.5133
90.5692
85.919
80.6245
74.7586
68.4153
61.7061
54.7531
47.6915
40.6695
33.8482
27.395
21.4723
16.2303
11.7893
8.2302
5.62028
3.96546
3.19663
3.14222
3.57163
4.27276
4.99901
4.90331
2.12139
103.9
103.126
101.778
99.7385
96.9875
93.5191
89.3495
84.5169
79.0751
73.0873
66.6371
59.8287
52.7772
45.6145
38.4889
31.5601
24.9976
18.9671
13.6216
9.08924
5.45784
2.77605
1.05872
0.259004
0.215425
0.713558
1.53816
2.42045
2.69592
1.19236
104.103
102.978
101.302
98.9252
95.8674
92.1394
87.7596
82.7592
77.1809
71.0784
64.525
57.6162
50.4632
43.1948
35.9599
28.9188
22.2412
16.0976
10.6468
6.02601
2.33047
-0.398954
-2.14522
-2.93242
-2.90286
-2.25585
-1.2193
-0.0891907
0.63821
0.356945
103.934
102.375
100.366
97.6642
94.3317
90.3814
85.827
80.688
74.9951
68.7929
62.1455
55.1411
47.8872
40.5113
33.1621
26.0026
19.2041
12.9415
7.38207
2.67407
-1.07513
-3.81741
-5.54817
-6.2814
-6.12178
-5.25841
-3.93508
-2.47586
-1.24369
-0.390575
103.251
101.23
98.9317
95.9544
92.409
88.2958
83.6164
78.3775
72.5982
66.3148
59.5852
52.4919
45.14
37.6569
30.1919
22.911
15.9892
9.60542
3.9356
-0.858423
-4.64882
-7.37319
-9.05189
-9.69508
-9.35885
-8.22684
-6.55783
-4.70461
-2.93878
-1.05434
102.014
99.529
97.0259
93.8555
90.182
85.9784
81.2306
75.9329
70.0951
63.748
56.9461
49.7692
42.3222
34.7337
27.1546
19.7531
12.7082
6.20404
0.42464
-4.45316
-8.2778
-10.971
-12.5701
-13.0864
-12.5379
-11.1011
-9.04521
-6.75119
-4.44122
-1.63738
100.22
97.3194
94.7458
91.4913
87.7886
83.5697
78.8059
73.4825
67.6055
61.205
54.3358
47.0783
39.5392
31.8493
24.1606
16.6434
9.47964
2.85848
-3.02832
-7.99071
-11.855
-14.5196
-16.0132
-16.3645
-15.5835
-13.8241
-11.36
-8.59692
-5.74629
-2.14106
97.9262
94.7089
92.274
89.0515
85.4195
81.2456
76.4978
71.1621
65.2497
58.7956
51.8593
44.5229
36.8963
29.1116
21.3215
13.6975
6.42291
-0.309374
-6.30097
-11.3528
-15.2736
-17.9244
-19.2769
-19.4242
-18.4184
-16.3385
-13.4667
-10.2259
-6.84889
-2.56515
95.2223
91.8871
89.9138
86.7769
83.3048
79.1935
74.4569
69.096
63.1352
56.62
49.6146
42.2006
34.4926
26.6225
18.7427
11.0254
3.65242
-3.18222
-9.27354
-14.4161
-18.4004
-21.0375
-22.2543
-22.2022
-20.9702
-18.5856
-15.3286
-11.6234
-7.74259
-2.90707
92.175
89.3685
87.8318
85.0324
81.6662
77.5659
72.793
67.3734
61.3461
54.7653
47.6866
40.1951
32.414
24.471
16.517
8.72562
1.27193
-5.65255
-11.8332
-17.0598
-21.1069
-23.7444
-24.8743
-24.6304
-23.162
-20.5049
-16.906
-12.7725
-8.41716
-3.15987
88.9808
87.4391
86.7489
84.1575
80.6905
76.472
71.5778
66.0458
59.9202
53.2544
46.1034
38.5552
30.7248
22.7375
14.7429
6.89638
-0.6299
-7.62935
-13.8857
-19.1882
-23.302
-25.972
-27.0855
-26.6499
-24.9166
-22.05
-18.1594
-13.6542
-8.86378
-3.31355
174.261
174.091
174.039
174.155
174.385
174.688
175.056
175.488
175.973
176.49
177.021
177.558
178.086
178.582
179.027
179.393
179.641
179.735
179.632
179.276
178.595
177.495
175.861
173.546
170.356
165.998
160.159
151.644
140.5
109.12
173.752
173.569
173.494
173.578
173.769
174.024
174.334
174.699
175.108
175.537
175.97
176.397
176.803
177.164
177.46
177.657
177.718
177.605
177.272
176.66
175.693
174.273
172.285
169.576
165.955
161.133
154.796
145.942
135.327
123.861
173.213
173.015
172.916
172.968
173.116
173.32
173.571
173.868
174.197
174.534
174.865
175.18
175.46
175.685
175.827
175.853
175.726
175.407
174.849
173.992
172.757
171.05
168.762
165.757
161.873
156.908
150.745
143.111
135.082
129.469
172.644
172.43
172.307
172.324
172.427
172.578
172.769
172.996
173.241
173.484
173.711
173.912
174.065
174.15
174.138
173.994
173.682
173.164
172.391
171.306
169.832
167.884
165.368
162.178
158.205
153.346
147.611
140.973
133.645
126.339
172.044
171.816
171.668
171.648
171.703
171.801
171.932
172.085
172.244
172.391
172.514
172.599
172.625
172.57
172.404
172.094
171.604
170.896
169.927
168.638
166.96
164.823
162.152
158.874
154.922
150.247
144.855
138.72
131.796
124.587
171.417
171.174
170.999
170.94
170.948
170.992
171.06
171.138
171.209
171.26
171.279
171.247
171.147
170.953
170.638
170.168
169.511
168.629
167.482
166.017
164.174
161.898
159.134
155.834
151.957
147.474
142.386
136.703
130.454
124.077
170.763
170.506
170.302
170.203
170.163
170.153
170.156
170.157
170.141
170.097
170.011
169.865
169.64
169.312
168.853
168.233
167.42
166.381
165.08
163.467
161.496
159.125
156.315
153.036
149.264
144.984
140.204
134.963
129.308
123.512
170.085
169.812
169.578
169.439
169.354
169.288
169.224
169.147
169.045
168.907
168.717
168.459
168.113
167.656
167.062
166.303
165.349
164.172
162.737
161.006
158.94
156.51
153.689
150.46
146.812
142.735
138.246
133.384
128.184
122.833
169.384
169.095
168.83
168.652
168.52
168.399
168.267
168.113
167.927
167.696
167.406
167.039
166.577
165.998
165.278
164.392
163.313
162.016
160.471
158.646
156.514
154.052
151.246
148.088
144.569
140.687
136.462
131.929
127.116
122.173
168.663
168.357
168.061
167.844
167.667
167.49
167.29
167.06
166.792
166.472
166.084
165.614
165.042
164.349
163.514
162.514
161.325
159.926
158.291
156.397
154.222
151.751
148.978
145.9
142.51
138.813
134.829
130.59
126.12
121.542
167.924
167.602
167.275
167.02
166.798
166.565
166.298
165.995
165.647
165.24
164.76
164.191
163.517
162.72
161.781
160.68
159.396
157.912
156.206
154.262
152.063
149.6
146.873
143.879
140.616
137.094
133.332
129.356
125.187
120.929
167.169
166.831
166.477
166.184
165.915
165.626
165.297
164.923
164.498
164.009
163.441
162.781
162.013
161.121
160.089
158.9
157.536
155.981
154.222
152.244
150.036
147.595
144.92
142.011
138.873
135.515
131.955
128.214
124.311
120.334
166.404
166.051
165.669
165.34
165.025
164.681
164.291
163.85
163.353
162.786
162.136
161.391
160.537
159.56
158.446
157.181
155.75
154.14
152.341
150.342
148.138
145.726
143.108
140.287
137.268
134.062
130.685
127.155
123.488
119.76
165.63
165.263
164.856
164.491
164.131
163.735
163.287
162.784
162.217
161.578
160.852
160.03
159.097
158.045
156.861
155.532
154.045
152.392
150.565
148.557
146.364
143.988
141.43
138.695
135.79
132.725
129.514
126.173
122.717
119.209
164.853
164.474
164.042
163.643
163.24
162.794
162.292
161.728
161.098
160.392
159.597
158.704
157.702
156.583
155.338
153.957
152.426
150.739
148.894
146.885
144.712
142.375
139.878
137.227
134.429
131.494
128.434
125.263
121.995
118.684
164.078
163.687
163.231
162.8
162.356
161.864
161.31
160.691
160.002
159.235
158.377
157.422
156.358
155.181
153.885
152.46
150.893
149.183
147.328
145.326
143.176
140.881
138.446
135.875
133.177
130.361
127.438
124.421
121.321
118.185
163.309
162.907
162.431
161.968
161.487
160.951
160.349
159.678
158.936
158.114
157.2
156.188
155.071
153.845
152.506
151.043
149.45
147.724
145.867
143.876
141.754
139.502
137.126
134.632
132.028
129.321
126.522
123.643
120.693
117.714
162.551
162.14
161.645
161.154
160.637
160.061
159.414
158.696
157.906
157.035
156.071
155.009
153.847
152.58
151.203
149.711
148.098
146.365
144.51
142.535
140.441
138.233
135.915
133.493
130.974
128.367
125.681
122.926
120.11
117.27
161.81
161.393
160.88
160.362
159.812
159.2
158.513
157.752
156.919
156.004
154.995
153.891
152.69
151.388
149.981
148.467
146.841
145.104
143.255
141.298
139.235
137.069
134.806
132.451
130.012
127.496
124.911
122.267
119.572
116.856
161.093
160.669
160.142
159.599
159.019
158.374
157.652
156.854
155.98
155.025
153.979
152.839
151.605
150.274
148.844
147.313
145.678
143.941
142.103
140.166
138.132
136.008
133.796
131.504
129.137
126.703
124.21
121.666
119.077
116.471
160.406
159.977
159.437
158.872
158.264
157.59
156.837
156.006
155.097
154.106
153.027
151.857
150.596
149.242
147.794
146.251
144.611
142.878
141.051
139.134
137.131
135.045
132.882
130.647
128.346
125.987
123.575
121.119
118.626
116.117
159.758
159.323
158.769
158.185
157.555
156.855
156.074
155.214
154.274
153.253
152.146
150.951
149.668
148.296
146.834
145.282
143.642
141.914
140.1
138.204
136.229
134.18
132.061
129.878
127.637
125.344
123.005
120.628
118.218
115.795
159.154
158.713
158.146
157.547
156.898
156.175
155.37
154.484
153.518
152.471
151.341
150.125
148.824
147.438
145.966
144.41
142.77
141.049
139.249
137.373
135.425
133.41
131.331
129.196
127.008
124.774
122.499
120.191
117.855
115.507
158.602
158.156
157.577
156.965
156.299
155.557
154.731
153.823
152.835
151.767
150.617
149.385
148.069
146.672
145.194
143.635
141.998
140.285
138.498
136.642
134.719
132.734
130.692
128.598
126.457
124.275
122.057
119.809
117.536
115.253
158.109
157.659
157.07
156.445
155.765
155.006
154.162
153.237
152.231
151.145
149.979
148.733
147.407
146.002
144.519
142.96
141.327
139.622
137.848
136.009
134.109
132.152
130.142
128.085
125.985
123.847
121.677
119.481
117.263
115.035
157.683
157.23
156.632
155.995
155.303
154.53
153.672
152.732
151.712
150.612
149.434
148.178
146.844
145.433
143.948
142.389
140.76
139.064
137.302
135.48
133.6
131.666
129.684
127.658
125.593
123.493
121.365
119.211
117.039
114.858
157.335
156.878
156.27
155.621
154.918
154.135
153.265
152.312
151.281
150.171
148.984
147.72
146.38
144.966
143.479
141.923
140.298
138.609
136.859
135.05
133.187
131.274
129.315
127.314
125.278
123.209
121.113
118.995
116.859
114.714
157.076
156.611
155.992
155.334
154.623
153.831
152.953
151.991
150.951
149.834
148.64
147.37
146.027
144.611
143.125
141.57
139.95
138.268
136.527
134.73
132.881
130.984
129.044
127.065
125.051
123.007
120.938
118.848
116.742
114.627
156.917
156.427
155.792
155.128
154.412
153.615
152.731
151.764
150.719
149.597
148.4
147.127
145.782
144.365
142.88
141.328
139.711
138.034
136.299
134.51
132.671
130.786
128.858
126.893
124.894
122.866
120.814
118.742
116.655
114.557
156.917
156.36
155.698
155.029
154.311
153.51
152.621
151.651
150.603
149.479
148.28
147.007
145.662
144.247
142.763
141.214
139.602
137.93
136.201
134.419
132.588
130.712
128.794
126.839
124.852
122.836
120.797
118.738
116.663
114.579
28.8598
55.6433
71.7572
113.366
110.577
105.194
121.838
115.413
110.251
117.448
112.029
108.302
117.485
112.931
109.307
118.11
114.007
110.468
118.101
114.339
111.039
117.877
114.433
111.399
117.621
114.454
111.662
117.334
114.401
111.823
117.017
114.287
111.897
116.682
114.131
111.907
116.339
113.947
111.868
115.993
113.744
111.795
115.652
113.53
111.696
115.317
113.31
111.579
114.993
113.089
111.45
114.682
112.871
111.313
114.386
112.659
111.174
114.108
112.456
111.035
113.849
112.263
110.9
113.611
112.085
110.772
113.396
111.922
110.654
113.207
111.778
110.548
113.043
111.654
110.456
112.913
111.557
110.386
112.805
111.476
110.328
112.75
111.442
110.309
112.698
111.405
110.286
112.742
111.462
110.349
83.7655
87.048
87.1268
84.2741
80.4269
75.9326
70.8179
65.114
58.8607
52.1019
44.8897
37.304
29.4495
21.4456
13.4319
5.55357
-2.0065
-9.03431
-15.3251
-20.6641
-24.8108
-27.5527
-28.693
-28.1643
-26.2766
-23.2181
-19.0788
-14.2885
-9.11865
-3.37325
100.609
94.7364
90.2597
85.6419
80.913
75.9033
70.4606
64.5423
58.1504
51.3062
44.0505
36.451
28.6016
20.6151
12.6239
4.77496
-2.75597
-9.76268
-16.0417
-21.379
-25.5479
-28.3517
-29.5462
-29.0375
-27.0082
-23.8471
-19.6077
-14.6903
-9.23651
-3.37369
103.833
96.6999
91.7133
86.7362
81.4833
76.0247
70.2919
64.2007
57.7106
50.8202
43.5585
35.9828
28.1776
20.2497
12.3269
4.55611
-2.89322
-9.82747
-16.0434
-21.3285
-25.4605
-28.233
-29.45
-29.0428
-27.0855
-23.9343
-19.7726
-14.8226
-9.23673
-3.38655
102.921
96.2747
91.3093
86.4989
81.3336
75.8511
70.0624
63.9315
57.4341
50.5703
43.3652
35.87
28.1626
20.3446
12.5396
4.89166
-2.4348
-9.25459
-15.3685
-20.5678
-24.6378
-27.3774
-28.6266
-28.3354
-26.5782
-23.508
-19.4367
-14.6215
-9.19231
-3.45453
103.934
97.3765
91.7717
86.4735
81.112
75.5834
69.8092
63.7211
57.2895
50.5176
43.4308
36.0762
28.5254
20.874
13.2401
5.76321
-1.39766
-8.06432
-14.0443
-19.1367
-23.139
-25.8658
-27.1783
-27.03
-25.4834
-22.6791
-18.8005
-14.1502
-8.98977
-3.50419
105.426
99.1458
93.0585
87.1888
81.4413
75.691
69.818
63.7265
57.3602
50.7018
43.7652
36.5896
29.2388
21.8005
14.3848
7.12373
0.168961
-6.30992
-12.1299
-17.1011
-21.036
-23.7666
-25.1705
-25.2021
-23.9077
-21.4127
-17.8961
-13.5769
-8.67499
-3.49439
106.53
100.722
94.5398
88.3775
82.3527
76.3763
70.3429
64.1749
57.8184
51.2434
44.4469
37.4542
30.3171
23.1128
15.9411
8.92369
2.20171
-4.06669
-9.71096
-14.5552
-18.428
-21.1788
-22.6983
-22.9424
-21.9433
-19.805
-16.6858
-12.7824
-8.31415
-3.47189
107.36
102.039
96.0176
89.8267
83.7062
77.6109
71.4623
65.213
58.8321
52.298
45.6048
38.768
31.828
24.8491
17.9193
11.1475
4.66194
-1.39309
-6.86212
-11.5854
-15.4087
-18.1977
-19.8549
-20.337
-19.665
-17.9217
-15.2408
-11.7906
-7.75279
-3.31637
108.004
103.131
97.4079
91.3746
85.3251
79.2489
73.09
66.8253
60.4471
53.9511
47.3402
40.6311
33.8588
27.0788
20.3674
13.8209
7.55335
1.69386
-3.61837
-8.24071
-12.0363
-14.8862
-16.7032
-17.4453
-17.124
-15.8036
-13.5935
-10.6347
-7.08211
-3.12389
108.48
104.009
98.6426
92.8815
87.0313
81.1016
75.0507
68.8694
62.5669
56.1549
49.647
43.0662
36.4486
29.8461
23.3273
16.9779
10.8992
5.2054
0.0197596
-4.53187
-8.32906
-11.267
-13.2679
-14.2914
-14.3411
-13.4656
-11.7527
-9.31947
-6.29775
-2.8658
108.819
104.703
99.7012
94.266
88.694
83.0036
77.1587
71.1558
65.0145
58.757
52.4046
45.9855
39.5385
33.1147
26.7785
20.608
14.6938
9.13771
4.04835
-0.463582
-4.29242
-7.34596
-9.55454
-10.8794
-11.3184
-10.9068
-9.71431
-7.83744
-5.38805
-2.53085
109.056
105.25
100.595
95.4973
90.2385
84.8392
79.2628
73.5079
67.6001
61.566
55.4294
49.2207
42.98
36.7575
30.6143
24.6224
18.8641
13.4303
8.41748
3.9232
0.0404021
-3.14944
-5.58369
-7.22525
-8.06723
-8.13453
-7.48181
-6.18849
-4.35005
-2.1173
109.216
105.683
101.345
96.5729
91.6311
86.5392
81.2596
75.7926
70.1661
64.4052
58.5328
52.579
46.5828
40.592
34.6637
28.864
23.2674
17.9556
13.0141
8.52931
4.58331
1.24846
-1.41861
-3.38239
-4.63253
-5.1856
-5.08424
-4.39407
-3.19743
-1.6314
109.317
106.025
101.973
97.503
92.8629
88.0711
83.0923
77.9282
72.6037
67.1408
61.5601
55.8893
50.1646
44.43
38.7375
33.1467
27.7245
22.5433
17.6789
13.2076
9.20199
5.72634
2.83198
0.552681
-1.09882
-2.13272
-2.58219
-2.50182
-1.96327
-1.08938
109.372
106.292
102.497
98.301
93.9392
89.4298
84.7414
79.8749
74.8509
69.6884
64.4053
59.026
53.5829
48.1155
42.6698
37.2987
32.0608
27.0199
22.2423
17.7949
13.7414
10.1387
7.0332
4.45643
2.4225
0.925821
-0.059448
-0.578992
-0.695573
-0.516856
109.391
106.497
102.931
98.9818
94.8733
90.6254
86.2087
81.6217
76.8817
72.0055
67.0088
61.9129
56.7459
51.542
46.3416
41.1903
36.139
31.2429
26.5593
22.1461
18.0589
14.3474
11.053
8.2046
5.81666
3.88673
2.39449
1.30146
0.552583
0.0559681
109.382
106.651
103.288
99.5608
95.6815
91.6722
87.5041
83.1723
78.6922
74.0795
69.3482
64.5165
59.6084
54.653
49.685
44.7435
39.8722
35.1179
30.5298
26.1575
22.0486
18.2463
14.7868
11.6962
8.98817
6.66229
4.70233
3.07565
1.73396
0.600966
109.352
106.765
103.582
100.053
96.3792
92.5837
88.6379
84.5358
80.2908
75.9164
71.4252
66.8329
62.1598
57.4308
52.6753
47.9264
43.2211
38.5993
34.1024
29.7725
25.6502
21.7724
18.1702
14.8665
11.8741
9.19319
6.8107
4.69871
2.8149
1.09753
109.305
106.845
103.822
100.469
96.9786
93.3724
89.6243
85.7279
81.693
77.531
73.2533
68.8739
64.41
59.8826
55.3163
50.7393
46.1826
41.6798
37.2658
32.9761
28.8447
24.9031
21.1777
17.6882
14.4457
11.451
8.69291
6.14753
3.77775
1.5347
109.248
106.898
104.016
100.819
97.4906
94.0524
90.4801
86.7655
82.9158
78.9408
74.8512
70.659
66.3789
62.0284
57.6281
53.2015
48.7748
44.3762
40.035
35.7809
31.6424
27.646
23.8139
20.1628
16.7022
13.4327
10.3448
7.41769
4.61887
1.9103
109.185
106.93
104.172
101.113
97.9267
94.6367
91.2189
87.6634
83.9756
80.1646
76.2393
72.2102
68.0901
63.8935
59.6371
55.3407
51.0262
46.7173
42.4386
38.2148
34.0698
30.0257
26.1011
22.3099
18.66
15.1518
11.7769
8.517
5.34376
2.22782
109.119
106.947
104.297
101.358
98.297
95.1363
91.8528
88.4357
84.889
81.2205
77.4378
73.55
69.5682
65.5043
61.3717
57.1869
52.9683
48.7359
44.51
40.3114
36.1601
32.0743
28.0696
24.1575
20.3444
16.6302
13.0074
9.46001
5.96309
2.49393
109.054
106.954
104.397
101.563
98.6097
95.5607
92.3932
89.0955
85.6706
82.125
78.4651
74.6989
70.8356
66.8849
62.8579
58.7681
54.6309
50.463
46.2815
42.1036
37.946
33.824
29.7503
25.7344
21.7813
17.8906
14.0555
10.2618
6.48751
2.71485
108.995
106.955
104.479
101.734
98.8736
95.9202
92.8517
89.656
86.3351
82.8946
79.34
75.6772
71.9137
68.0585
64.1208
60.1113
56.0426
51.9287
47.784
43.623
39.4596
35.3062
31.1736
27.0694
22.9976
18.9573
14.9421
10.9393
6.92961
2.89815
108.941
106.952
104.544
101.876
99.0936
96.2208
93.2356
90.1258
86.8926
83.5408
80.0743
76.4977
72.8174
69.0419
65.1787
61.2361
57.2241
53.1547
49.0402
44.8927
40.7237
36.5436
32.3613
28.1829
24.0114
19.8456
15.6795
11.5016
7.29466
3.04597
108.903
106.955
104.604
101.998
99.281
96.4747
93.5585
90.52
87.3593
84.0801
80.6858
77.18
73.5684
69.8583
66.0558
62.1675
58.2018
54.1686
50.0785
45.9416
41.7676
37.5653
33.3419
29.1024
24.8489
20.5799
16.2897
11.9676
7.59794
3.16808
108.871
106.957
104.651
102.096
99.4301
96.6769
93.816
90.8344
87.7312
84.5095
81.1723
77.7227
74.1657
70.5069
66.7517
62.9059
58.9765
54.9716
50.9002
46.771
42.5925
38.3719
34.1154
29.8268
25.5077
21.1563
16.7668
12.3295
7.83027
3.25686
108.87
106.981
104.709
102.193
99.5672
96.855
94.0365
91.0982
88.0388
84.8609
81.5673
78.1606
74.6443
71.0236
67.3039
63.4904
59.5883
55.6045
51.5467
47.4229
43.2404
39.0054
34.7232
30.397
26.0276
21.6128
17.1472
12.6211
8.02096
3.33214
108.863
106.99
104.741
102.251
99.6518
96.9674
94.1777
91.2683
88.2376
85.0888
81.8242
78.4458
74.9559
71.3595
67.6631
63.8712
59.9874
56.0172
51.9681
47.8474
43.6618
39.4168
35.1171
30.7652
26.3617
21.904
17.3864
12.7994
8.13027
3.36514
108.925
107.054
104.819
102.346
99.7629
97.0954
94.3235
91.4307
88.4159
85.2829
82.0341
78.6707
75.1943
71.6102
67.9254
64.1439
60.2683
56.3035
52.2569
48.1355
43.9458
39.6929
35.3812
31.013
26.5885
22.105
17.5561
12.9311
8.21385
3.37771
)
;

boundaryField
{
    inlet
    {
        type            zeroGradient;
    }
    outlet
    {
        type            fixedValue;
        value           uniform 0;
    }
    flap
    {
        type            zeroGradient;
    }
    upperWall
    {
        type            zeroGradient;
    }
    lowerWall
    {
        type            zeroGradient;
    }
    frontAndBack
    {
        type            empty;
    }
}


// ************************************************************************* //
