/*--------------------------------*- C++ -*----------------------------------*\
| =========                 |                                                 |
| \\      /  F ield         | OpenFOAM: The Open Source CFD Toolbox           |
|  \\    /   O peration     | Version:  4.1                                   |
|   \\  /    A nd           | Web:      www.OpenFOAM.org                      |
|    \\/     M anipulation  |                                                 |
\*---------------------------------------------------------------------------*/
FoamFile
{
    version     2.0;
    format      ascii;
    class       volVectorField;
    location    "2.9";
    object      U;
}
// * * * * * * * * * * * * * * * * * * * * * * * * * * * * * * * * * * * * * //

dimensions      [0 1 -1 0 0 0 0];

internalField   nonuniform List<vector> 
2790
(
(9.93851 0.0206471 -1.03222e-19)
(9.86098 0.0280974 2.65203e-20)
(9.75467 0.0330468 -2.7289e-20)
(9.62917 0.0382697 0)
(9.48979 0.0436803 0)
(9.33729 0.0492035 1.21338e-19)
(9.17127 0.0549674 -6.25562e-20)
(8.99136 0.0611097 0)
(8.79724 0.0677401 0)
(8.58842 0.0749602 7.05156e-20)
(8.36422 0.0828771 0)
(8.12383 0.0916047 -1.53418e-19)
(7.8663 0.101265 0)
(7.59056 0.11199 -1.70428e-19)
(7.29546 0.123922 3.50284e-19)
(6.97977 0.137212 0)
(6.6422 0.152017 0)
(6.28143 0.168494 0)
(5.89619 0.186801 0)
(5.48527 0.207077 9.33925e-19)
(5.04767 0.229425 1.0082e-18)
(4.58268 0.253895 -4.21529e-18)
(4.09002 0.28046 2.24281e-18)
(3.57006 0.308956 1.83504e-18)
(3.02403 0.338963 2.00627e-18)
(2.45444 0.369468 -5.6341e-18)
(1.86558 0.397868 -1.53405e-18)
(1.26514 0.41601 0)
(0.652371 0.393571 0)
(0.190138 0.152528 0)
(10.0034 0.0398903 1.03029e-19)
(9.98628 0.0574984 0)
(9.94233 0.0703523 0)
(9.87686 0.0841302 0)
(9.79416 0.0987092 0)
(9.69528 0.113883 -5.93354e-20)
(9.58016 0.129917 0)
(9.44862 0.147118 0)
(9.30048 0.165744 0)
(9.13538 0.186044 4.79532e-19)
(8.95276 0.208272 -5.62186e-19)
(8.75189 0.232695 1.4692e-19)
(8.53191 0.259596 0)
(8.29183 0.289277 1.58969e-19)
(8.03052 0.322052 -1.34026e-18)
(7.74678 0.358241 1.38223e-18)
(7.43928 0.39815 1.46877e-18)
(7.10662 0.442055 -1.9014e-18)
(6.7474 0.490184 3.24283e-18)
(6.36018 0.542662 -3.36791e-18)
(5.94362 0.599437 3.60925e-18)
(5.49649 0.660223 -3.76772e-18)
(5.01781 0.724412 -1.00472e-18)
(4.50685 0.790958 -5.33123e-19)
(3.96324 0.858137 1.71239e-18)
(3.38683 0.923054 9.82701e-18)
(2.77703 0.980709 -3.01763e-17)
(2.13095 1.02218 1.96068e-17)
(1.41363 1.03645 0)
(0.795578 0.962328 0)
(10.0005 0.0403236 -4.62522e-19)
(9.9808 0.0666848 5.24953e-20)
(9.93923 0.0886905 0)
(9.87868 0.111653 -2.22018e-19)
(9.8021 0.135887 0)
(9.71057 0.161294 0)
(9.60431 0.188229 4.88955e-19)
(9.48327 0.217127 -7.51928e-19)
(9.34731 0.248399 0)
(9.19618 0.282451 0)
(9.02943 0.319705 0)
(8.84646 0.360605 0)
(8.64655 0.405627 1.20748e-18)
(8.42882 0.455286 -1.55104e-18)
(8.19231 0.510128 -2.61286e-18)
(7.9359 0.570721 5.40798e-18)
(7.65838 0.637627 -2.0972e-18)
(7.35836 0.711375 -2.59905e-18)
(7.03437 0.792451 -3.1491e-18)
(6.68484 0.881213 6.41265e-18)
(6.30803 0.977782 6.82486e-18)
(5.90208 1.08195 -7.07401e-18)
(5.46496 1.19304 5.01205e-21)
(4.99436 1.30978 2.96151e-18)
(4.48737 1.43011 -1.04695e-18)
(3.93985 1.55096 -2.20262e-18)
(3.345 1.66806 0)
(2.69213 1.77566 1.55458e-20)
(1.93738 1.87435 2.62223e-18)
(1.17122 1.96505 4.88416e-17)
(9.99881 0.0446135 4.10938e-19)
(9.97666 0.0811777 0)
(9.93482 0.11344 -6.45925e-19)
(9.87553 0.145695 4.4223e-19)
(9.80056 0.17906 2.27578e-19)
(9.71087 0.213834 0)
(9.607 0.250517 0)
(9.48902 0.289687 2.49669e-19)
(9.35691 0.33192 1.03574e-18)
(9.21056 0.377784 -7.93808e-19)
(9.04969 0.427862 0)
(8.8739 0.482766 0)
(8.68267 0.543153 -1.78836e-18)
(8.47541 0.609737 -6.42774e-19)
(8.2514 0.683283 -3.34106e-20)
(8.00983 0.764607 5.28805e-18)
(7.74982 0.854553 -4.10509e-18)
(7.47027 0.953948 -7.13562e-19)
(7.16997 1.0636 5.26279e-18)
(6.84755 1.18424 -6.95172e-18)
(6.50133 1.31644 0)
(6.12921 1.46041 0)
(5.72863 1.616 -8.76383e-19)
(5.29622 1.78252 -1.49031e-20)
(4.82728 1.95856 -1.56415e-17)
(4.31492 2.14226 1.82731e-17)
(3.7488 2.33186 0)
(3.11547 2.52598 -2.20318e-18)
(2.39168 2.71678 -6.99583e-18)
(1.52207 2.9694 0)
(9.99792 0.0503176 0)
(9.97431 0.0953961 0)
(9.93221 0.13647 2.143e-19)
(9.87397 0.177047 -2.20469e-19)
(9.80056 0.218866 -2.26747e-19)
(9.71266 0.262549 4.65863e-19)
(9.61097 0.308666 -9.64515e-19)
(9.49562 0.357885 1.98027e-18)
(9.36667 0.410893 9.62166e-21)
(9.22405 0.468374 -1.31238e-18)
(9.06758 0.531023 0)
(8.89698 0.59957 0)
(8.71188 0.6748 -5.82718e-19)
(8.51184 0.757567 6.03291e-19)
(8.29638 0.848798 0)
(8.06492 0.949495 6.44892e-19)
(7.81684 1.06073 3.56165e-21)
(7.55142 1.18359 6.97854e-19)
(7.26773 1.31918 -5.09602e-18)
(6.96466 1.46865 6.71966e-18)
(6.64082 1.63305 1.55363e-18)
(6.29427 1.81324 0)
(5.92239 2.00983 -1.18774e-17)
(5.52148 2.22322 1.21858e-17)
(5.08625 2.45341 0)
(4.60903 2.70004 3.04187e-17)
(4.07904 2.96287 -6.27589e-17)
(3.47953 3.24436 3.64359e-17)
(2.83345 3.50648 6.2884e-18)
(1.88591 3.88659 -7.26344e-17)
(9.99739 0.0567342 0)
(9.97315 0.109659 4.16441e-19)
(9.93128 0.159151 1.37094e-21)
(9.87418 0.208084 1.30858e-21)
(9.8025 0.258436 0)
(9.7168 0.311022 -4.63703e-19)
(9.61771 0.366473 -9.57082e-19)
(9.50544 0.425545 1.96297e-18)
(9.38006 0.489031 -1.00638e-18)
(9.24157 0.557724 -5.2004e-19)
(9.08982 0.632433 -5.3625e-19)
(8.92462 0.714002 -2.23035e-18)
(8.74569 0.803334 4.5807e-18)
(8.55269 0.901405 1.81839e-18)
(8.34528 1.00929 -4.86138e-18)
(8.12304 1.12814 -6.3375e-19)
(7.88549 1.25924 -6.47522e-19)
(7.63219 1.4039 -5.44786e-18)
(7.36242 1.56355 5.56705e-18)
(7.07528 1.73969 0)
(6.76968 1.9339 1.05664e-17)
(6.44396 2.14776 -1.23419e-17)
(6.09575 2.38275 -1.59515e-18)
(5.72156 2.64033 0)
(5.31636 2.92206 2.57771e-17)
(4.87298 3.229 2.08714e-19)
(4.38221 3.56045 3.73006e-18)
(3.81887 3.92268 -2.57477e-17)
(3.26615 4.23383 -3.89409e-20)
(2.25631 4.69247 -2.11574e-18)
(9.99707 0.0634963 1.01967e-19)
(9.97279 0.123883 -3.11491e-19)
(9.93155 0.181384 2.13513e-19)
(9.87575 0.238432 4.35908e-19)
(9.80605 0.297021 -4.47357e-19)
(9.72292 0.358141 -4.59398e-19)
(9.62688 0.422544 -4.72045e-19)
(9.51819 0.491079 0)
(9.39696 0.564636 0)
(9.26321 0.644113 1.82985e-21)
(9.11685 0.730421 1.05989e-18)
(8.95774 0.824507 0)
(8.78566 0.927378 5.08917e-18)
(8.60038 1.04012 -4.03463e-18)
(8.40162 1.16393 -6.0088e-18)
(8.18907 1.30012 4.90924e-18)
(7.96237 1.45012 1.27777e-18)
(7.72116 1.61548 0)
(7.4649 1.79792 -1.0906e-17)
(7.19291 1.99931 1.11136e-17)
(6.90427 2.22173 0)
(6.59759 2.46742 -1.47328e-18)
(6.27086 2.7388 1.53396e-18)
(5.92108 3.03839 2.35954e-17)
(5.54379 3.3688 1.80582e-18)
(5.13253 3.73234 -2.60696e-17)
(4.68103 4.1264 2.32384e-17)
(4.14955 4.56261 -3.01451e-17)
(3.68345 4.91247 -4.11545e-20)
(2.62127 5.41595 -9.29498e-19)
(9.99688 0.0703842 2.0325e-19)
(9.97297 0.137925 -6.21096e-19)
(9.93264 0.203055 1.26893e-18)
(9.87841 0.267929 -1.30483e-18)
(9.81103 0.33446 1.77779e-18)
(9.73083 0.403789 9.13102e-19)
(9.63826 0.476807 4.69362e-19)
(9.53364 0.554451 0)
(9.4171 0.637692 0)
(9.28871 0.72752 -1.53355e-18)
(9.14842 0.824943 1.55693e-18)
(8.99614 0.931 -5.35996e-19)
(8.83173 1.0468 5.48178e-19)
(8.655 1.17353 4.57492e-18)
(8.46577 1.31252 -8.18959e-18)
(8.26381 1.46522 9.63341e-18)
(8.04884 1.63322 -4.92683e-18)
(7.82055 1.81831 0)
(7.57851 2.02248 0)
(7.3222 2.24799 0)
(7.05087 2.4974 -1.37071e-18)
(6.76334 2.77358 1.42231e-18)
(6.45788 3.07977 -2.32134e-17)
(6.1321 3.41953 2.49732e-17)
(5.782 3.7963 0)
(5.40129 4.21341 0)
(4.98751 4.66573 -2.43875e-17)
(4.48192 5.17229 2.43952e-17)
(4.08777 5.56192 4.74158e-17)
(2.97825 6.10151 -5.35144e-17)
(9.9969 0.0772503 -8.08142e-19)
(9.97356 0.151661 -4.12635e-19)
(9.93438 0.224069 -8.13593e-22)
(9.88202 0.296448 -4.34036e-19)
(9.81725 0.370603 1.32191e-18)
(9.74032 0.447796 -4.53692e-19)
(9.65164 0.529054 0)
(9.55155 0.615401 0)
(9.44023 0.707885 -1.96367e-18)
(9.31777 0.807576 1.99817e-18)
(9.1842 0.915569 -4.13858e-18)
(9.03948 1.03299 5.79276e-18)
(8.88352 1.16104 -1.08826e-18)
(8.71621 1.30103 0)
(8.53746 1.45439 4.59721e-18)
(8.3471 1.62271 4.76586e-18)
(8.14494 1.80781 -1.07731e-17)
(7.93075 2.01167 0)
(7.70413 2.23657 -1.01511e-17)
(7.46472 2.48514 1.1566e-17)
(7.21194 2.76046 1.32741e-18)
(6.9448 3.06601 2.1585e-17)
(6.66181 3.40577 -2.17761e-17)
(6.36087 3.78432 0)
(6.03854 4.206 0)
(5.68774 4.67537 2.76521e-18)
(5.31012 5.18481 -1.37853e-18)
(4.82587 5.7619 4.56308e-17)
(4.4896 6.1998 -4.49988e-17)
(3.33303 6.78726 -5.06019e-17)
(9.99725 0.0839735 2.24784e-21)
(9.97444 0.165004 0)
(9.93656 0.244337 4.20043e-19)
(9.88637 0.323859 -1.28681e-18)
(9.82454 0.405285 -8.79066e-19)
(9.75122 0.489971 0)
(9.66681 0.579062 0)
(9.57169 0.673668 1.89282e-18)
(9.46608 0.774903 1.49973e-20)
(9.3501 0.883908 -4.94659e-18)
(9.22385 1.00186 2.01975e-18)
(9.08737 1.12999 -1.04202e-18)
(8.94062 1.26956 -3.21712e-18)
(8.78358 1.42199 1.04484e-18)
(8.61622 1.58884 4.44308e-18)
(8.43851 1.77186 0)
(8.25031 1.97304 1.05564e-17)
(8.05156 2.19464 -1.09857e-18)
(7.84177 2.43917 8.4491e-20)
(7.6208 2.70965 -1.11119e-17)
(7.3884 3.00971 0)
(7.14363 3.34345 0)
(6.88529 3.71573 -2.5505e-18)
(6.61121 4.13211 2.07406e-17)
(6.31843 4.59823 -4.14391e-17)
(5.99854 5.12032 1.67514e-17)
(5.65701 5.68886 1.2963e-18)
(5.19305 6.34023 -4.14236e-17)
(4.9053 6.83892 4.08998e-17)
(3.69786 7.49734 4.50183e-17)
(9.99773 0.090466 8.03689e-19)
(9.97552 0.177885 0)
(9.93914 0.263772 -8.32283e-19)
(9.89139 0.350035 0)
(9.83276 0.438348 3.93264e-21)
(9.76336 0.530125 -8.88745e-19)
(9.68358 0.626612 -1.82916e-18)
(9.59383 0.728998 9.2864e-19)
(9.49437 0.838458 0)
(9.38537 0.956193 9.78429e-19)
(9.26701 1.08346 4.00966e-18)
(9.1394 1.22157 -4.06672e-18)
(9.00258 1.37188 -1.04709e-18)
(8.8566 1.53588 -1.07022e-18)
(8.70153 1.71526 0)
(8.53747 1.91191 0)
(8.36437 2.12803 0)
(8.18234 2.36617 1.1583e-18)
(7.99098 2.62905 -1.16183e-18)
(7.79032 2.92006 8.3377e-18)
(7.58047 3.24342 -2.9969e-17)
(7.36055 3.60398 3.74187e-17)
(7.12973 4.00765 -1.68932e-17)
(6.88568 4.46111 -1.93257e-17)
(6.62586 4.97167 1.91947e-17)
(6.34013 5.54794 1.20011e-18)
(6.03751 6.17999 1.1415e-18)
(5.59722 6.91294 3.62136e-17)
(5.35224 7.49121 -3.69849e-17)
(4.08783 8.25264 3.0426e-19)
(9.99818 0.0966805 1.79493e-18)
(9.97679 0.190219 -2.02765e-19)
(9.94212 0.282283 8.30046e-19)
(9.897 0.37487 0)
(9.8418 0.46966 -6.84248e-22)
(9.77659 0.568102 -8.90634e-19)
(9.70176 0.671522 1.80006e-18)
(9.61773 0.781188 9.24212e-19)
(9.52482 0.898318 2.83014e-18)
(9.42328 1.02416 -5.78013e-18)
(9.31333 1.16004 3.91498e-18)
(9.19518 1.30735 4.02579e-18)
(9.06893 1.46753 -4.07455e-18)
(8.93475 1.64214 -1.03766e-18)
(8.79282 1.83298 0)
(8.64333 2.04209 -1.07366e-18)
(8.48639 2.27186 0)
(8.3222 2.52504 0)
(8.15105 2.80475 1.13202e-18)
(7.97293 3.11466 -1.70395e-17)
(7.78788 3.45952 3.64766e-17)
(7.59561 3.84508 -3.53352e-17)
(7.39564 4.27839 1.92879e-17)
(7.18606 4.7677 0)
(6.96463 5.3224 1.08875e-18)
(6.71947 5.95422 0)
(6.46277 6.65571 -1.07334e-18)
(6.05568 7.48169 3.23601e-17)
(5.85351 8.1721 -3.28391e-17)
(4.5248 9.10555 -3.53741e-17)
(9.99864 0.102587 -1.59258e-18)
(9.9782 0.201922 8.0596e-19)
(9.94543 0.299785 8.22154e-19)
(9.90315 0.398279 0)
(9.8516 0.499114 0)
(9.79083 0.603771 1.75571e-18)
(9.72121 0.713641 9.01245e-19)
(9.64322 0.830051 -1.81801e-18)
(9.55726 0.954249 -1.87103e-18)
(9.46357 1.08752 1.89028e-18)
(9.36248 1.23126 0)
(9.25429 1.38695 0)
(9.1392 1.55608 0)
(9.01748 1.74028 2.03678e-18)
(8.88944 1.94142 -7.27297e-18)
(8.75533 2.1617 1.00066e-18)
(8.61564 2.40365 8.46573e-18)
(8.47064 2.67014 -8.59613e-18)
(8.32126 2.96471 1.0343e-18)
(8.16765 3.29145 2.60091e-17)
(8.00978 3.65549 -3.35405e-17)
(7.84828 4.06347 1.03224e-20)
(7.6831 4.5236 -1.02063e-18)
(7.51343 5.0461 1.67472e-17)
(7.33773 5.64277 -1.71859e-17)
(7.14369 6.32962 1.58324e-17)
(6.94658 7.10581 -9.21058e-19)
(6.59444 8.03859 0)
(6.45897 8.88764 -4.43979e-19)
(5.06075 10.1424 -2.92639e-17)
(9.99911 0.108154 0)
(9.97977 0.212917 -1.20625e-18)
(9.94908 0.316185 -4.11288e-19)
(9.90981 0.42016 -8.36254e-19)
(9.86211 0.526586 -3.57898e-21)
(9.80598 0.636981 2.60516e-18)
(9.74178 0.752786 -5.30614e-18)
(9.67012 0.875367 -9.95851e-21)
(9.59142 1.006 9.10066e-19)
(9.50594 1.146 -9.31282e-19)
(9.41409 1.29683 3.814e-18)
(9.3163 1.46001 -4.81536e-18)
(9.21288 1.63709 0)
(9.10419 1.82974 -9.99756e-19)
(8.9907 2.03993 -9.09763e-18)
(8.87282 2.2699 8.12767e-18)
(8.75139 2.52232 8.23762e-18)
(8.62704 2.80019 -8.25216e-18)
(8.5007 3.10728 8.28235e-18)
(8.37309 3.44816 -8.27206e-18)
(8.24484 3.82838 0)
(8.11724 4.2552 -1.00397e-18)
(7.99122 4.73783 0)
(7.86751 5.28825 0)
(7.74656 5.92097 1.47716e-17)
(7.61865 6.65689 -1.43966e-17)
(7.5036 7.50598 8.64917e-19)
(7.2487 8.55116 -1.20474e-17)
(7.24988 9.6053 2.38299e-17)
(5.78466 11.4366 -1.17888e-17)
(9.9996 0.113357 1.96867e-19)
(9.98143 0.223141 2.0027e-19)
(9.95298 0.331418 -1.21762e-18)
(9.91687 0.440453 1.65692e-18)
(9.87316 0.552018 -8.42523e-19)
(9.82184 0.667674 0)
(9.76327 0.788891 8.77319e-19)
(9.6982 0.917053 -8.88062e-19)
(9.62705 1.05347 -9.03003e-19)
(9.55009 1.19949 -2.76905e-18)
(9.46783 1.3566 3.72955e-18)
(9.38077 1.52634 4.75611e-18)
(9.28943 1.71035 -7.68783e-18)
(9.19424 1.91029 -3.91822e-18)
(9.09584 2.12814 6.8608e-18)
(8.99501 2.36623 7.93246e-18)
(8.8927 2.62723 -1.59154e-17)
(8.78993 2.91434 8.95544e-18)
(8.68774 3.23144 6.95952e-18)
(8.58749 3.58335 -7.91452e-18)
(8.49085 3.97591 0)
(8.39988 4.41668 9.71062e-19)
(8.31707 4.91548 -1.57669e-17)
(8.24529 5.48524 2.43954e-19)
(8.18873 6.14242 2.73899e-17)
(8.144 6.91137 -1.31058e-17)
(8.14024 7.8136 -1.15296e-17)
(8.04597 8.94499 2.13056e-17)
(8.30503 10.2204 -9.61625e-18)
(6.77207 13.2659 0)
(-0.037755 0.00308708 0)
(0.0191683 -0.0366944 0)
(0.181017 -0.0617447 -1.07193e-19)
(0.362662 -0.0600742 8.55536e-20)
(0.533716 -0.047974 -1.20032e-20)
(0.669893 -0.033789 -5.03719e-20)
(0.764527 -0.0208136 6.31809e-20)
(0.822153 -0.0104507 0)
(0.852344 -0.00296891 2.85844e-20)
(0.863551 0.00241907 -2.88572e-20)
(0.86137 0.0064095 0)
(0.849751 0.00881564 0)
(0.832317 0.00988728 -7.55803e-21)
(0.812896 0.0104872 -1.4928e-20)
(0.793064 0.0115697 1.49368e-20)
(0.771575 0.0130716 -7.2958e-21)
(0.747292 0.0138618 3.54194e-21)
(0.722007 0.0127893 -3.39809e-21)
(0.700095 0.00906784 0)
(0.685896 0.00328654 0)
(0.682165 -0.00199345 -1.19893e-22)
(0.688534 -0.00539266 -5.04983e-21)
(0.702206 -0.00727559 2.38701e-21)
(0.720114 -0.00790013 1.96861e-21)
(0.740091 -0.00816002 0)
(0.762238 -0.00923042 -5.88413e-22)
(0.789215 -0.0119681 5.85002e-22)
(0.824984 -0.0163725 0)
(0.872302 -0.0212459 0)
(0.944918 -0.0244098 0)
(-0.0365407 0.00342494 2.39318e-19)
(0.0327654 -0.119769 -2.45031e-19)
(0.175459 -0.168351 -1.31804e-20)
(0.345832 -0.16376 1.20264e-20)
(0.511766 -0.13632 1.18623e-20)
(0.649817 -0.103083 0)
(0.752338 -0.0713568 1.99535e-19)
(0.821748 -0.0448846 -1.30641e-19)
(0.865828 -0.0250389 -2.27204e-19)
(0.892007 -0.0100219 1.16136e-19)
(0.904943 0.00242403 -8.99699e-20)
(0.907257 0.0107295 7.53497e-20)
(0.901661 0.0140566 6.7655e-20)
(0.892648 0.0142643 -4.51383e-20)
(0.882045 0.0152921 -1.48532e-20)
(0.868712 0.0182878 -7.33464e-21)
(0.851492 0.0206766 -3.51129e-21)
(0.831921 0.0202358 3.36663e-21)
(0.813447 0.0163889 0)
(0.799146 0.0101397 1.15266e-20)
(0.789581 0.00252267 -3.17135e-21)
(0.784592 -0.00538663 -4.77786e-21)
(0.785449 -0.0116936 8.97504e-21)
(0.792567 -0.0158269 -5.8363e-21)
(0.804354 -0.0185975 6.10461e-22)
(0.818971 -0.0222258 4.32248e-21)
(0.835505 -0.0287541 -1.00647e-21)
(0.855084 -0.03831 0)
(0.880337 -0.0489159 0)
(0.926106 -0.0567049 0)
(-0.0187408 -0.0165749 4.42879e-20)
(0.0314914 -0.204478 9.34752e-19)
(0.13943 -0.264566 2.34022e-20)
(0.275741 -0.255638 -3.84726e-19)
(0.408625 -0.214645 0)
(0.518215 -0.164937 -2.58899e-19)
(0.598039 -0.116797 1.55139e-19)
(0.649712 -0.0763581 -2.00408e-19)
(0.679667 -0.0463822 2.31375e-19)
(0.69543 -0.0241323 0)
(0.700653 -0.00510135 -2.23144e-22)
(0.694051 0.0103529 -4.67102e-20)
(0.677783 0.0194566 6.18601e-20)
(0.658769 0.0242125 -1.59177e-20)
(0.639966 0.0299761 -9.13242e-20)
(0.618235 0.0370472 7.53605e-20)
(0.589448 0.0405226 4.31784e-20)
(0.554402 0.0371679 -1.44556e-20)
(0.517322 0.0271693 0)
(0.482609 0.014969 -5.0673e-22)
(0.450683 0.00284724 -1.19165e-20)
(0.419526 -0.0078899 0)
(0.390414 -0.0162693 0)
(0.366982 -0.021937 7.13127e-23)
(0.351666 -0.0250131 0)
(0.343325 -0.0274022 1.44791e-21)
(0.34007 -0.0322165 1.05304e-21)
(0.344119 -0.0420012 -1.44319e-21)
(0.359564 -0.0573576 -1.21775e-22)
(0.403654 -0.0794303 3.37554e-22)
(-0.0107346 -0.0682204 5.29791e-19)
(0.00914292 -0.28476 8.64963e-22)
(0.0897379 -0.343415 -1.25655e-20)
(0.192483 -0.324228 2.45535e-20)
(0.288412 -0.269204 -4.10021e-19)
(0.363082 -0.205513 8.40351e-19)
(0.41221 -0.143201 -3.81175e-19)
(0.438161 -0.091415 0)
(0.444779 -0.0529787 2.46184e-19)
(0.439963 -0.0201517 -2.49297e-19)
(0.430543 0.00827626 -9.67164e-20)
(0.405671 0.0268189 3.2236e-20)
(0.368235 0.0298476 1.61821e-19)
(0.32428 0.0272432 0)
(0.278117 0.0334512 -1.59005e-20)
(0.220395 0.0494749 0)
(0.144488 0.0659743 -1.5259e-20)
(0.0541631 0.0748681 -4.34676e-20)
(-0.0421073 0.0727546 2.89207e-20)
(-0.1351 0.0626929 1.32243e-20)
(-0.214123 0.0500044 -1.8771e-20)
(-0.27451 0.0370164 0)
(-0.313216 0.0237221 0)
(-0.339916 0.0101008 -4.34506e-21)
(-0.346283 -0.00439925 0)
(-0.330599 -0.020757 -2.92404e-21)
(-0.29656 -0.0406163 0)
(-0.247498 -0.0666539 2.65071e-21)
(-0.192814 -0.0995214 -3.18118e-21)
(-0.115462 -0.132785 -4.84917e-22)
(-0.0412113 -0.141788 0)
(-0.0425476 -0.361387 -4.28003e-19)
(0.0182513 -0.40489 3.96765e-19)
(0.0891542 -0.368683 -4.32276e-19)
(0.145352 -0.298349 4.05191e-19)
(0.180918 -0.2234 5.46572e-20)
(0.191519 -0.148486 0)
(0.186035 -0.0871904 0)
(0.161778 -0.0571999 -2.59455e-19)
(0.125599 -0.0335111 2.30365e-19)
(0.0680124 0.0110505 0)
(-0.0149057 0.0567743 -3.42203e-20)
(-0.133343 0.0830353 -6.8292e-20)
(-0.275042 0.0914118 -1.0189e-19)
(-0.409044 0.107629 1.34786e-19)
(-0.468129 0.128269 -3.31271e-20)
(-0.525398 0.140693 1.59737e-20)
(-0.582897 0.142056 4.33352e-20)
(-0.633976 0.130882 -3.0512e-20)
(-0.677406 0.108679 -2.71673e-20)
(-0.710645 0.0811609 4.79101e-20)
(-0.731791 0.0525768 -2.32837e-20)
(-0.740764 0.0244854 0)
(-0.738258 -0.00316265 0)
(-0.724381 -0.0297334 0)
(-0.701371 -0.0553714 0)
(-0.670835 -0.0812181 0)
(-0.636924 -0.108084 3.19894e-21)
(-0.60659 -0.134174 1.66969e-21)
(-0.58825 -0.152319 5.28676e-22)
(-0.10572 -0.223737 0)
(-0.120266 -0.430044 -8.27775e-19)
(-0.0768065 -0.44521 1.21522e-18)
(-0.0406098 -0.385587 1.99021e-20)
(-0.031224 -0.298468 -8.13807e-19)
(-0.0401545 -0.213845 9.29888e-19)
(-0.0872687 -0.142242 -4.88965e-19)
(-0.130139 -0.0704134 -6.55584e-20)
(-0.239647 0.00573187 -6.73799e-20)
(-0.464423 0.0616996 3.43948e-20)
(-0.574411 0.112162 0)
(-0.62873 0.15127 1.69832e-19)
(-0.702312 0.169686 -1.00787e-19)
(-0.78018 0.167112 -3.26635e-20)
(-0.85307 0.157838 -3.27637e-20)
(-0.910661 0.156346 3.1661e-20)
(-0.955578 0.159856 4.5574e-20)
(-0.989614 0.157221 -3.05438e-20)
(-1.01499 0.143242 1.43722e-20)
(-1.03432 0.119088 -2.56218e-20)
(-1.04889 0.0891031 -1.0252e-20)
(-1.0586 0.0570953 2.35833e-20)
(-1.06305 0.0250136 0)
(-1.06128 -0.00650862 0)
(-1.05336 -0.0374335 6.83402e-21)
(-1.04052 -0.0668637 -1.30759e-20)
(-1.02516 -0.0945484 -4.82876e-21)
(-1.01109 -0.120333 -4.36509e-21)
(-1.00189 -0.14353 -7.21766e-22)
(-0.998995 -0.160708 0)
(-0.184169 -0.30847 -9.41348e-19)
(-0.215858 -0.479391 -8.05851e-19)
(-0.195208 -0.454616 7.57387e-19)
(-0.206576 -0.363948 4.32904e-19)
(-0.260767 -0.256011 -5.02476e-19)
(-0.335998 -0.14126 -5.56299e-19)
(-0.530409 -0.0212575 -1.6959e-20)
(-0.713929 0.0722076 1.14954e-19)
(-0.789056 0.128102 5.82231e-19)
(-0.876818 0.146758 2.64648e-19)
(-0.958259 0.15858 3.80585e-21)
(-1.02174 0.182051 -2.61545e-19)
(-1.07818 0.199832 -1.30357e-19)
(-1.13195 0.2016 1.2882e-19)
(-1.18375 0.194615 -9.62074e-20)
(-1.22972 0.187915 1.26521e-19)
(-1.26603 0.181981 3.14382e-20)
(-1.29273 0.171131 1.58459e-20)
(-1.31263 0.152085 -6.97888e-20)
(-1.32855 0.12533 5.54729e-20)
(-1.34182 0.0934894 -2.43546e-20)
(-1.35215 0.0591697 2.42567e-20)
(-1.35856 0.0241008 -1.98054e-20)
(-1.36019 -0.0106336 1.96842e-20)
(-1.35752 -0.0439057 0)
(-1.35158 -0.0746172 6.13417e-21)
(-1.3448 -0.102102 4.69355e-21)
(-1.34016 -0.126349 -3.61513e-21)
(-1.33928 -0.147522 1.5891e-21)
(-1.34051 -0.16306 1.19606e-21)
(-0.260399 -0.391643 8.92304e-19)
(-0.323841 -0.492752 -7.57478e-19)
(-0.344358 -0.410614 2.42892e-20)
(-0.4336 -0.262965 0)
(-0.595331 -0.10508 0)
(-0.800873 0.0361941 5.99448e-20)
(-0.918479 0.102922 4.95834e-19)
(-1.01442 0.139158 -5.52314e-19)
(-1.09841 0.171373 0)
(-1.17537 0.194041 2.57432e-19)
(-1.24589 0.208014 -2.7211e-20)
(-1.30541 0.222244 -2.55088e-19)
(-1.35586 0.231361 3.22871e-20)
(-1.40201 0.230587 -1.28835e-19)
(-1.44595 0.223151 9.49199e-20)
(-1.48589 0.213344 1.26729e-19)
(-1.5194 0.201598 -9.41432e-20)
(-1.54613 0.185367 5.08799e-23)
(-1.5678 0.162836 -5.96748e-20)
(-1.58613 0.134117 0)
(-1.60171 0.100679 -2.53923e-20)
(-1.61409 0.0642703 2.52877e-20)
(-1.62245 0.0264605 1.14676e-20)
(-1.62615 -0.0111971 0)
(-1.62589 -0.0467923 0)
(-1.62317 -0.0785928 0)
(-1.62063 -0.105615 0)
(-1.62089 -0.128186 3.53246e-21)
(-1.62426 -0.147215 0)
(-1.6272 -0.160777 9.9142e-23)
(-0.32695 -0.451105 -8.35467e-19)
(-0.444337 -0.438387 7.24191e-19)
(-0.547402 -0.262953 -2.49254e-20)
(-0.736693 -0.0710932 4.25652e-19)
(-0.92732 0.0742298 -3.70248e-19)
(-1.0425 0.136082 5.60145e-20)
(-1.15293 0.179637 0)
(-1.24938 0.209781 -5.9841e-20)
(-1.33349 0.230913 0)
(-1.40744 0.244884 0)
(-1.47278 0.253934 3.17924e-19)
(-1.52894 0.260851 3.73807e-20)
(-1.57722 0.263219 -2.84751e-19)
(-1.62107 0.258975 3.25337e-20)
(-1.6624 0.249502 1.61739e-19)
(-1.7005 0.236786 -1.61362e-19)
(-1.73412 0.22103 0)
(-1.76294 0.200982 -6.06057e-20)
(-1.7877 0.175568 9.34545e-20)
(-1.80915 0.144674 0)
(-1.82732 0.109088 0)
(-1.84158 0.0701032 0)
(-1.85119 0.0293534 -1.12499e-20)
(-1.85584 -0.0110414 1.91941e-20)
(-1.85647 -0.0486434 -2.81355e-20)
(-1.85499 -0.0810925 6.40522e-21)
(-1.8544 -0.107234 -6.34484e-21)
(-1.85726 -0.127823 0)
(-1.86293 -0.144453 -4.11123e-22)
(-1.86668 -0.15597 -4.39583e-22)
(-0.386945 -0.443455 -7.50915e-19)
(-0.582525 -0.279755 6.80579e-19)
(-0.765822 -0.0458526 7.58132e-19)
(-0.955707 0.121772 -7.78315e-19)
(-1.09743 0.192883 3.77296e-19)
(-1.22835 0.237704 -4.81794e-19)
(-1.34293 0.265585 2.84591e-20)
(-1.44104 0.282341 -1.51565e-19)
(-1.52451 0.29168 4.51758e-19)
(-1.59583 0.295834 -2.41285e-19)
(-1.65719 0.297351 2.21748e-19)
(-1.71036 0.297533 -2.80397e-19)
(-1.75739 0.294819 -1.29909e-19)
(-1.80076 0.287672 -3.55379e-20)
(-1.84187 0.276174 1.63338e-19)
(-1.88029 0.26098 1.65684e-19)
(-1.91529 0.242147 -6.55435e-20)
(-1.94657 0.219041 -1.96713e-19)
(-1.97437 0.190953 9.69853e-20)
(-1.9988 0.157589 -1.2368e-19)
(-2.01942 0.119317 6.03772e-20)
(-2.03536 0.0772012 0)
(-2.04579 0.0330425 0)
(-2.05053 -0.0105074 0)
(-2.05079 -0.0502061 9.0232e-21)
(-2.049 -0.0831064 1.16712e-21)
(-2.04868 -0.107995 5.53678e-22)
(-2.05253 -0.126192 -2.77116e-21)
(-2.05927 -0.140146 -7.30697e-21)
(-2.0633 -0.149676 2.23151e-21)
(-0.448556 -0.325949 6.70769e-19)
(-0.696102 -0.0397269 -6.03072e-19)
(-0.897431 0.184595 0)
(-1.08093 0.278267 6.47351e-22)
(-1.24621 0.325347 4.20934e-19)
(-1.38763 0.346646 -8.61083e-19)
(-1.50492 0.354534 4.38311e-19)
(-1.60223 0.354966 -2.92205e-20)
(-1.68292 0.351003 5.96654e-20)
(-1.7502 0.344859 -2.17138e-19)
(-1.80723 0.338704 2.20359e-20)
(-1.85712 0.333157 4.08757e-19)
(-1.90282 0.326656 -2.25706e-19)
(-1.94633 0.317266 1.29635e-19)
(-1.98831 0.303975 -6.75311e-20)
(-2.02812 0.286588 -6.92326e-20)
(-2.06502 0.265126 1.04148e-19)
(-2.09874 0.239342 3.34799e-20)
(-2.1293 0.208667 0)
(-2.15646 0.172576 0)
(-2.17937 0.1311 -3.07029e-20)
(-2.19683 0.0852084 3.05795e-20)
(-2.20776 0.0369953 0)
(-2.21191 -0.0102344 1.42166e-21)
(-2.21064 -0.0523478 1.09883e-20)
(-2.20702 -0.0856588 -6.69995e-21)
(-2.20536 -0.108873 2.3033e-20)
(-2.20886 -0.124055 1.1405e-20)
(-2.21581 -0.134853 -4.62193e-22)
(-2.21981 -0.142307 -2.23786e-21)
(-0.49111 -0.0965664 5.78218e-19)
(-0.737413 0.261558 -9.10833e-21)
(-0.976441 0.403356 3.45102e-19)
(-1.20106 0.459436 -3.20154e-19)
(-1.38671 0.468263 0)
(-1.53259 0.457798 2.74127e-20)
(-1.64727 0.442098 -2.81424e-20)
(-1.73955 0.424937 0)
(-1.81444 0.40715 -2.41638e-19)
(-1.87538 0.390526 2.07207e-19)
(-1.92651 0.377303 -3.08463e-20)
(-1.9723 0.367605 -3.15517e-20)
(-2.01638 0.358993 -3.23621e-20)
(-2.06037 0.34839 0)
(-2.10397 0.333702 1.76084e-19)
(-2.14582 0.314224 -1.40175e-19)
(-2.18485 0.290203 -3.53083e-20)
(-2.22084 0.26184 -7.34166e-20)
(-2.2539 0.228602 7.28034e-20)
(-2.28362 0.189586 0)
(-2.30878 0.144442 -2.67818e-21)
(-2.3277 0.0940815 -2.31939e-21)
(-2.33886 0.0409647 -3.0756e-20)
(-2.34164 -0.0108167 -1.24194e-20)
(-2.33745 -0.0560061 0)
(-2.3302 -0.0898514 -1.78623e-20)
(-2.32547 -0.110854 -6.65525e-21)
(-2.32737 -0.122094 -9.61833e-21)
(-2.3339 -0.128949 5.9227e-21)
(-2.33768 -0.134037 0)
(-0.439213 0.306285 -9.66761e-19)
(-0.739937 0.582966 7.44967e-19)
(-1.06773 0.670874 -2.70089e-19)
(-1.33761 0.662085 0)
(-1.53361 0.6136 4.08538e-19)
(-1.67155 0.563034 -4.5755e-19)
(-1.77417 0.522919 0)
(-1.85586 0.489255 0)
(-1.92158 0.458135 1.99125e-22)
(-1.97346 0.431137 -1.23333e-19)
(-2.01637 0.411811 1.21192e-19)
(-2.05668 0.400039 3.20843e-20)
(-2.09891 0.391463 0)
(-2.144 0.381058 0)
(-2.19016 0.365518 3.70424e-20)
(-2.23471 0.343888 7.64895e-20)
(-2.27596 0.317074 -3.56551e-20)
(-2.31391 0.286078 -7.87884e-20)
(-2.34918 0.250377 1.19176e-19)
(-2.38139 0.208406 4.05903e-20)
(-2.40887 0.159246 3.56603e-20)
(-2.42927 0.103719 -3.37268e-20)
(-2.44035 0.0446705 3.366e-20)
(-2.44087 -0.0129521 0)
(-2.43212 -0.062325 0)
(-2.41905 -0.0970114 9.22707e-21)
(-2.4092 -0.115049 0)
(-2.40821 -0.120958 1.0866e-20)
(-2.41389 -0.122638 0)
(-2.41742 -0.124834 2.72738e-21)
(-0.366628 0.750317 -6.34276e-19)
(-0.767677 1.00338 5.78921e-19)
(-1.21729 0.991492 -3.69449e-19)
(-1.52056 0.878178 3.11795e-20)
(-1.70204 0.749705 2.73953e-20)
(-1.80804 0.651673 2.95297e-20)
(-1.88433 0.591708 -2.65527e-19)
(-1.95064 0.545133 -6.78218e-21)
(-2.0053 0.500679 1.75057e-19)
(-2.04537 0.462702 -1.23107e-19)
(-2.07663 0.439007 1.21058e-19)
(-2.10934 0.429175 -3.19779e-20)
(-2.14967 0.424608 1.40129e-19)
(-2.19709 0.416964 -1.74043e-19)
(-2.24734 0.401521 -3.68298e-20)
(-2.29554 0.377399 0)
(-2.339 0.34698 -3.97206e-20)
(-2.37835 0.313023 0)
(-2.41542 0.27509 -1.27981e-19)
(-2.45015 0.230291 1.91755e-21)
(-2.48019 0.176643 3.99213e-20)
(-2.50225 0.114752 -3.97981e-20)
(-2.51311 0.0479658 -1.87047e-20)
(-2.51046 -0.0176056 0)
(-2.49512 -0.0727991 1.16434e-20)
(-2.47339 -0.108841 -7.0081e-21)
(-2.45587 -0.122816 -4.50201e-21)
(-2.45066 -0.121312 -2.21254e-20)
(-2.45533 -0.115898 0)
(-2.45875 -0.114304 9.03379e-23)
(-0.339334 1.29367 -5.46168e-19)
(-0.876025 1.85133 -2.44785e-19)
(-1.48399 1.49032 2.45926e-19)
(-1.78392 1.14636 -2.90946e-19)
(-1.90593 0.852879 4.91992e-19)
(-1.94061 0.679119 -4.11288e-19)
(-1.97159 0.624089 2.53465e-19)
(-2.0226 0.5817 -1.28632e-20)
(-2.06703 0.53085 -2.09052e-19)
(-2.09073 0.485112 2.40686e-19)
(-2.10364 0.460848 -1.20183e-19)
(-2.12527 0.458613 -1.34068e-19)
(-2.16458 0.462109 1.4874e-19)
(-2.2173 0.458172 3.62041e-20)
(-2.27469 0.441393 -8.21355e-20)
(-2.32834 0.412006 1.02789e-19)
(-2.37388 0.37534 0)
(-2.41344 0.337461 4.62702e-20)
(-2.45164 0.297743 2.0817e-20)
(-2.48929 0.250421 -4.62888e-20)
(-2.5228 0.191898 -2.39186e-20)
(-2.54722 0.12295 0)
(-2.5579 0.0478924 1.86595e-20)
(-2.55086 -0.025872 -3.36117e-20)
(-2.52633 -0.0889059 9.18092e-21)
(-2.49235 -0.127411 6.20703e-21)
(-2.46399 -0.135784 1.65058e-20)
(-2.45321 -0.123719 1.12905e-20)
(-2.45712 -0.108241 0)
(-2.46086 -0.101393 -2.83397e-21)
(10.0002 0.118257 1.88617e-19)
(9.9832 0.232721 -1.71706e-18)
(9.95709 0.345678 7.77554e-19)
(9.92433 0.45943 -2.91308e-21)
(9.88483 0.575763 8.12627e-19)
(9.83859 0.696279 -4.10749e-18)
(9.786 0.822446 3.34424e-18)
(9.72794 0.955664 8.60117e-19)
(9.66479 1.09728 -5.1794e-18)
(9.59689 1.2487 3.49754e-18)
(9.52486 1.41137 0)
(9.44918 1.58684 3.60846e-18)
(9.37064 1.7768 1.56893e-20)
(9.28991 1.98287 -2.75509e-18)
(9.20766 2.20701 9.31715e-19)
(9.1251 2.45159 -7.45806e-18)
(9.04324 2.71932 7.4592e-18)
(8.96339 3.01343 -1.86476e-18)
(8.88711 3.33784 0)
(8.81648 3.69729 9.08757e-19)
(8.75408 4.09761 -8.92787e-19)
(8.70317 4.54622 1.40207e-17)
(8.66812 5.05275 -1.24491e-17)
(8.65472 5.62972 0)
(8.67218 6.29313 0)
(8.72731 7.06598 0)
(8.86611 7.97267 3.13923e-19)
(9.02454 9.09087 0)
(9.94795 10.3488 -1.35749e-18)
(10.8355 13.4402 8.38839e-19)
(10.001 0.122857 0)
(9.98507 0.241699 1.85914e-18)
(9.96139 0.358991 -1.13473e-18)
(9.93225 0.477096 -7.67352e-19)
(9.89719 0.597801 7.84527e-19)
(9.85626 0.722729 7.97886e-19)
(9.80999 0.853334 8.06266e-19)
(9.75924 0.991033 0)
(9.70441 1.13722 4.17626e-18)
(9.64589 1.29329 1.36804e-20)
(9.58455 1.4607 -3.41385e-18)
(9.52074 1.64096 0)
(9.45549 1.83569 -8.68246e-19)
(9.38982 2.04653 -7.92881e-18)
(9.32435 2.27534 7.94215e-18)
(9.26056 2.52455 0)
(9.19975 2.79681 6.20669e-18)
(9.14354 3.09521 -7.04467e-18)
(9.09414 3.42347 0)
(9.05425 3.78602 -8.7132e-19)
(9.02731 4.18823 1.68919e-18)
(9.01782 4.63678 1.30245e-17)
(9.032 5.13999 -1.31437e-17)
(9.07839 5.70807 -1.1821e-17)
(9.17047 6.3531 1.14608e-17)
(9.32364 7.08981 0)
(9.59218 7.92951 4.05542e-18)
(9.9338 8.89585 -2.38572e-18)
(10.7169 9.91062 -8.91421e-19)
(11.6321 11.2218 -1.49087e-18)
(10.0018 0.127071 1.59496e-18)
(9.98704 0.249934 -5.40417e-19)
(9.96597 0.37115 1.0946e-18)
(9.94059 0.493198 7.45623e-19)
(9.91006 0.617836 1.51981e-18)
(9.87471 0.746672 -1.53844e-18)
(9.83509 0.881176 1.56217e-18)
(9.79192 1.02277 -2.37495e-18)
(9.7457 1.17285 -3.2219e-18)
(9.69695 1.3328 6.51112e-18)
(9.6466 1.50406 -3.28582e-18)
(9.59506 1.68809 0)
(9.54362 1.88641 8.4116e-19)
(9.49337 2.10058 -6.73566e-18)
(9.44499 2.33243 6.73556e-18)
(9.40025 2.58432 0)
(9.36079 2.85873 -5.04026e-18)
(9.32861 3.15844 7.53263e-18)
(9.30635 3.48677 8.17404e-19)
(9.29731 3.84758 0)
(9.30556 4.24535 -7.08979e-18)