/*--------------------------------*- C++ -*----------------------------------*\
| =========                 |                                                 |
| \\      /  F ield         | OpenFOAM: The Open Source CFD Toolbox           |
|  \\    /   O peration     | Version:  4.1                                   |
|   \\  /    A nd           | Web:      www.OpenFOAM.org                      |
|    \\/     M anipulation  |                                                 |
\*---------------------------------------------------------------------------*/
FoamFile
{
    version     2.0;
    format      ascii;
    class       volVectorField;
    location    "4";
    object      U;
}
// * * * * * * * * * * * * * * * * * * * * * * * * * * * * * * * * * * * * * //

dimensions      [0 1 -1 0 0 0 0];

internalField   nonuniform List<vector> 
2790
(
(9.93802 0 0.0201826)
(9.87182 -7.87675e-21 0.0285298)
(9.77438 0 0.0343245)
(9.65183 -1.65525e-20 0.0403663)
(9.51082 2.54595e-20 0.046701)
(9.35277 -1.74101e-20 0.0532716)
(9.1769 0 0.0602046)
(8.9822 3.73837e-20 0.0676568)
(8.76784 -3.83558e-20 0.0757617)
(8.53287 0 0.0846419)
(8.27619 0 0.0944225)
(7.99649 0 0.105234)
(7.69235 2.26288e-20 0.117212)
(7.36229 0 0.13049)
(7.00476 0 0.145199)
(6.61829 0 0.161448)
(6.20155 5.54458e-20 0.179316)
(5.75353 0 0.198824)
(5.27366 6.25579e-20 0.219903)
(4.76212 -1.33633e-19 0.242361)
(4.22009 0 0.265827)
(3.65004 0 0.2897)
(3.05613 0 0.313083)
(2.44449 0 0.334738)
(1.82341 0 0.353217)
(1.20076 2.16161e-19 0.368787)
(0.617247 2.37272e-19 0.392057)
(-0.11569 -2.03928e-18 0.155833)
(-0.349153 2.11321e-18 -0.275252)
(-0.141776 0 -0.366537)
(9.99528 0 0.039438)
(9.98277 2.34769e-20 0.0592031)
(9.94217 -3.19513e-20 0.0742828)
(9.87542 8.14891e-20 0.0903024)
(9.78784 -4.16136e-20 0.107427)
(9.681 0 0.12548)
(9.55432 5.30226e-20 0.144708)
(9.40692 -9.01608e-20 0.165458)
(9.23798 0 0.188031)
(9.04664 -1.16565e-19 0.212703)
(8.83179 3.19493e-19 0.239751)
(8.59218 -1.64736e-19 0.269457)
(8.32639 -2.15441e-20 0.302094)
(8.03288 0 0.337914)
(7.71008 0 0.377121)
(7.35641 -9.80831e-20 0.419832)
(6.97037 -5.15858e-20 0.466023)
(6.55072 0 0.515458)
(6.09662 8.6646e-19 0.567607)
(5.60787 -8.4363e-19 0.621529)
(5.08519 2.57753e-19 0.675758)
(4.53061 2.49041e-18 0.728165)
(3.94784 -4.71515e-18 0.775827)
(3.34287 2.20579e-18 0.814885)
(2.72504 0 0.840364)
(2.10841 -5.53703e-19 0.845776)
(1.52209 -1.9981e-19 0.821665)
(0.95936 4.36775e-19 0.685446)
(0.556437 -4.8923e-19 0.424968)
(0.101718 0 -0.320579)
(9.99236 1.53942e-20 0.0407634)
(9.97697 1.11065e-23 0.0699678)
(9.93844 -1.58928e-20 0.0953831)
(9.87638 -1.62337e-20 0.122007)
(9.79483 1.65981e-20 0.150426)
(9.6955 0 0.180584)
(9.5781 1.74404e-20 0.212816)
(9.44196 -1.78743e-20 0.247615)
(9.2864 0 0.285454)
(9.11072 -3.80467e-20 0.326786)
(8.91402 3.16005e-19 0.372075)
(8.69523 -3.23175e-19 0.421794)
(8.45311 -6.78191e-19 0.476416)
(8.18631 1.39954e-18 0.536389)
(7.89335 -1.54677e-18 0.602091)
(7.57271 1.61255e-18 0.673775)
(7.22286 -7.86946e-19 0.751482)
(6.84235 0 0.834921)
(6.42994 -1.75275e-18 0.923327)
(5.98477 2.03739e-19 1.01527)
(5.50664 1.43574e-18 1.10844)
(4.99628 -2.55677e-19 1.19937)
(4.4558 -2.70004e-19 1.28315)
(3.88928 2.88759e-19 1.35305)
(3.30358 4.32997e-18 1.39975)
(2.70888 -1.0907e-17 1.40956)
(2.12105 5.70069e-18 1.36003)
(1.53924 -3.91017e-19 1.19315)
(0.95455 6.56088e-18 0.877157)
(0.522 -8.26725e-18 0.352448)
(9.99069 0 0.045864)
(9.97306 0 0.0858106)
(9.93433 -2.01851e-23 0.122588)
(9.87346 0 0.159915)
(9.79357 0 0.199016)
(9.69634 0 0.240249)
(9.58172 2.43367e-19 0.284119)
(9.44922 -2.12003e-19 0.331275)
(9.29834 0 0.382366)
(9.12858 0 0.438026)
(8.93929 0 0.498899)
(8.7297 -7.98671e-20 0.565646)
(8.49891 6.65982e-19 0.638934)
(8.24591 -7.66516e-19 0.71941)
(7.96963 8.0463e-19 0.807655)
(7.66889 7.53533e-19 0.904114)
(7.34248 -1.3344e-18 1.00899)
(6.98915 1.81172e-18 1.1221)
(6.60768 2.26033e-20 1.24267)
(6.19697 -1.95565e-18 1.36912)
(5.75614 -2.26793e-19 1.49871)
(5.28476 3.87115e-18 1.62716)
(4.78306 8.01318e-19 1.74822)
(4.25226 -4.8009e-18 1.85306)
(3.69479 5.13822e-18 1.92938)
(3.11368 -4.23591e-18 1.95984)
(2.5125 -6.52673e-19 1.91969)
(1.88737 0 1.76762)
(1.20067 7.98982e-19 1.48463)
(0.623402 1.59594e-17 1.03393)
(9.98987 0 0.0524043)
(9.97099 0 0.101473)
(9.9321 1.59062e-20 0.148145)
(9.87227 -6.42489e-20 0.195207)
(9.79403 3.27951e-20 0.244265)
(9.69888 0 0.296042)
(9.58684 3.43687e-20 0.351172)
(9.45752 -3.52297e-20 0.410391)
(9.31049 7.2144e-20 0.474453)
(9.14534 7.41395e-20 0.544105)
(8.96159 7.6291e-20 0.620105)
(8.75861 -5.54926e-19 0.703227)
(8.53574 6.46406e-19 0.794262)
(8.29223 2.51659e-19 0.893985)
(8.02729 1.39897e-18 1.00311)
(7.74009 -1.43018e-18 1.12224)
(7.42971 -1.87072e-19 1.25172)
(7.0952 1.36605e-18 1.3915)
(6.7355 -1.19964e-18 1.54095)
(6.34947 -4.17796e-19 1.69852)
(5.93587 4.39037e-19 1.86142)
(5.49337 0 2.02514)
(5.0205 3.37083e-18 2.18286)
(4.51574 -3.5042e-18 2.32493)
(3.97736 8.01306e-18 2.438)
(3.40274 -9.01262e-18 2.50432)
(2.78789 1.03397e-17 2.50134)
(2.12749 -9.87613e-18 2.39842)
(1.3763 0 2.18052)
(0.70412 -1.44479e-17 1.80809)
(9.98947 0 0.0596037)
(9.97006 -6.2002e-20 0.117173)
(9.9314 1.8896e-19 0.17327)
(9.87284 -1.27866e-19 0.229997)
(9.7966 -2.94436e-19 0.288996)
(9.70395 -3.48457e-20 0.351209)
(9.59495 2.71579e-19 0.417391)
(9.46927 0 0.488356)
(9.32653 -2.17818e-22 0.564953)
(9.16639 -7.34462e-20 0.648034)
(8.98843 -7.54745e-20 0.738464)
(8.79214 0 0.837125)
(8.57696 0 0.94491)
(8.34229 -1.64927e-19 1.06271)
(8.08749 -1.367e-18 1.19134)
(7.81189 1.57094e-19 1.33154)
(7.51476 2.72104e-18 1.48379)
(7.19529 -4.514e-18 1.64821)
(6.8525 3.08842e-18 1.82434)
(6.48518 3.50602e-21 2.01086)
(6.09182 0 2.20523)
(5.67043 4.33558e-19 2.40319)
(5.21813 0 2.59813)
(4.73127 4.72876e-19 2.7806)
(4.20508 5.022e-19 2.93769)
(3.6332 5.25711e-19 3.05259)
(3.0073 -9.06089e-18 3.10499)
(2.32171 -6.67115e-19 3.06918)
(1.52985 1.07397e-17 2.92996)
(0.786201 1.23131e-17 2.63921)
(9.98931 0 0.0670735)
(9.96988 -3.09471e-20 0.132818)
(9.93184 9.39539e-20 0.197868)
(9.8748 1.2764e-19 0.2639)
(9.80087 -9.70608e-20 0.332483)
(9.71115 2.98475e-19 0.404721)
(9.6057 -5.40358e-19 0.481503)
(9.48422 -2.10426e-19 0.563738)
(9.34642 1.05995e-18 0.652365)
(9.19199 -5.04357e-19 0.748332)
(9.02056 7.40751e-20 0.852596)
(8.8317 0 0.966131)
(8.6249 0 1.08992)
(8.39963 -1.29671e-18 1.22494)
(8.15533 1.31933e-18 1.37213)
(7.89137 -1.71438e-19 1.53232)
(7.60708 5.27641e-19 1.70614)
(7.30163 0 1.89391)
(6.97401 2.64314e-18 2.09544)
(6.62282 4.25157e-19 2.30972)
(6.24621 -6.02082e-18 2.53468)
(5.84164 2.47757e-18 2.76676)
(5.40518 0 3.00014)
(4.93168 -7.67873e-18 3.22633)
(4.41427 7.49478e-18 3.43361)
(3.84411 -9.8942e-19 3.60648)
(3.21018 0 3.7261)
(2.50686 0 3.76843)
(1.68891 9.88659e-18 3.71534)
(0.881273 -1.10842e-17 3.51046)
(9.98929 3.04009e-20 0.0745849)
(9.9702 -9.22371e-20 0.148244)
(9.93313 0 0.221801)
(9.87791 0 0.296728)
(9.8066 -3.2256e-20 0.37452)
(9.72021 -2.6329e-19 0.456386)
(9.61879 3.33718e-19 0.543337)
(9.50209 4.80278e-19 0.636373)
(9.36986 -5.56491e-19 0.736514)
(9.22184 -3.15482e-22 0.84479)
(9.05773 -7.32997e-20 0.962245)
(8.87713 1.49447e-19 1.08994)
(8.67961 1.53207e-19 1.22895)
(8.46467 0 1.38034)
(8.23177 0 1.54517)
(7.98029 0 1.72438)
(7.70952 -3.4346e-19 1.91881)
(7.41857 0 2.12898)
(7.10628 -2.91161e-18 2.35503)
(6.77102 5.59272e-18 2.59644)
(6.41044 2.73307e-18 2.85176)
(6.02143 -5.91191e-18 3.11834)
(5.59943 0 3.39161)
(5.1382 6.82443e-18 3.66457)
(4.62937 -7.04684e-18 3.92712)
(4.06229 4.66304e-19 4.16519)
(3.42379 0 4.36091)
(2.70772 0 4.49035)
(1.87218 0 4.5303)
(0.997693 -8.52358e-22 4.41959)
(9.98936 -3.02515e-20 0.0819921)
(9.97089 3.06592e-20 0.163296)
(9.93509 0 0.244944)
(9.88197 0 0.328342)
(9.81359 -2.56553e-19 0.41493)
(9.73091 2.59796e-19 0.505989)
(9.63397 -6.64256e-20 0.602632)
(9.52256 0 0.705941)
(9.39649 0 0.817013)
(9.25557 -6.36738e-19 0.936955)
(9.09952 5.73615e-19 1.06689)
(8.92803 -1.47704e-19 1.20797)
(8.7407 -3.01377e-19 1.36135)
(8.53709 1.39451e-18 1.52822)
(8.31667 -1.25783e-18 1.70973)
(8.07882 0 1.90701)
(7.8228 0 2.12108)
(7.5476 0 2.35275)
(7.25186 -2.80466e-18 2.60257)
(6.93374 3.20893e-18 2.87064)
(6.5905 5.90276e-18 3.15629)
(6.21837 -3.22952e-19 3.45793)
(5.81234 -1.28065e-17 3.77253)
(5.3652 5.98614e-18 4.0949)
(4.8675 -6.24089e-18 4.41702)
(4.30713 6.45081e-18 4.72664)
(3.66857 -4.45998e-19 5.00667)
(2.94358 0 5.23275)
(2.09617 1.65296e-17 5.37461)
(1.14437 -1.81618e-17 5.37186)
(9.9895 -6.02724e-20 0.0891951)
(9.97184 1.82973e-19 0.177846)
(9.93759 -1.23361e-19 0.267176)
(9.88684 0 0.3586)
(9.82167 -2.54701e-19 0.453535)
(9.74305 1.93258e-19 0.55331)
(9.651 -6.55453e-20 0.659121)
(9.54537 5.36883e-19 0.772127)
(9.42602 -5.43303e-19 0.893496)
(9.2928 6.92849e-20 1.0244)
(9.14552 1.41327e-19 1.16605)
(8.98391 -1.16285e-18 1.31966)
(8.80768 1.47218e-18 1.4865)
(8.6164 -1.5148e-19 1.66784)
(8.40959 2.47842e-18 1.865)
(8.18667 -2.35137e-18 2.07927)
(7.94681 0 2.31189)
(7.68898 2.96941e-18 2.56404)
(7.41165 -2.67558e-18 2.83675)
(7.1128 -3.40685e-19 3.1308)
(6.78949 0 3.44651)
(6.43753 6.11889e-18 3.7835)
(6.05132 -5.48258e-18 4.1405)
(5.62281 3.7996e-19 4.51442)
(5.14152 -6.59427e-18 4.89976)
(4.59396 6.7849e-18 5.28693)
(3.96181 8.29503e-19 5.66015)
(3.23196 0 5.99476)
(2.37772 -1.46738e-17 6.25122)
(1.33191 1.62115e-17 6.37503)
(9.98969 3.01079e-20 0.096121)
(9.973 -3.02904e-20 0.191784)
(9.94053 0 0.288381)
(9.89239 -3.10336e-20 0.38737)
(9.83071 6.2944e-20 0.49017)
(9.75646 -2.56499e-19 0.598149)
(9.66968 2.59861e-19 0.712566)
(9.57026 -5.30888e-19 0.834652)
(9.45812 5.36676e-19 0.965636)
(9.33318 1.09985e-18 1.10676)
(9.1953 -1.252e-18 1.25928)
(9.04431 -1.14177e-18 1.4245)
(8.88001 1.00838e-18 1.60377)
(8.70204 0 1.7985)
(8.50995 1.49596e-19 2.01012)
(8.30321 -3.06264e-19 2.24014)
(8.08103 -2.5063e-18 2.49005)
(7.84235 4.76279e-18 2.76142)
(7.58568 -5.17277e-18 3.0558)
(7.30891 3.28001e-18 3.37471)
(7.00904 5.03745e-18 3.71954)
(6.68171 -5.09231e-18 4.09138)
(6.32091 5.20678e-18 4.4909)
(5.91808 -5.62951e-18 4.91762)
(5.46154 5.7566e-18 5.3691)
(4.93615 -5.88674e-18 5.83946)
(4.32023 -3.84901e-19 6.31594)
(3.59172 3.84584e-19 6.77512)
(2.73553 -4.12184e-19 7.16644)
(1.57315 2.16648e-19 7.44276)
(9.98991 -2.98825e-20 0.102715)
(9.97433 -6.04489e-20 0.205021)
(9.94382 -1.88708e-22 0.308454)
(9.89852 4.01882e-19 0.414532)
(9.84057 -1.24305e-19 0.524689)
(9.77098 3.82567e-19 0.640326)
(9.6898 -5.13882e-19 0.762756)
(9.59698 6.52397e-20 0.893266)
(9.49249 5.33371e-19 1.03314)
(9.37631 4.78042e-19 1.18367)
(9.24843 -1.23149e-18 1.34617)
(9.10877 0 1.522)
(8.95715 -1.41303e-19 1.71261)
(8.79331 1.43571e-19 1.91951)
(8.61694 -1.47327e-19 2.14429)
(8.42758 1.49739e-19 2.38863)
(8.22457 -2.42764e-18 2.65432)
(8.00696 2.14148e-18 2.94328)
(7.77338 2.18695e-18 3.25762)
(7.52184 -2.51897e-18 3.59961)
(7.24947 3.21801e-19 3.97175)
(6.95207 -6.44615e-19 4.37674)
(6.62366 3.29557e-19 4.81741)
(6.25562 5.58744e-18 5.29637)
(5.83549 -5.32458e-18 5.81522)
(5.34616 -3.30203e-19 6.37331)
(4.76208 0 6.96393)
(4.04713 -3.58061e-19 7.56966)
(3.19568 1.07191e-20 8.13106)
(1.88812 -5.68888e-19 8.60735)
(9.99016 5.97097e-20 0.108934)
(9.97579 -9.0188e-20 0.217482)
(9.94741 1.2149e-19 0.327304)
(9.90513 -1.22624e-19 0.439977)
(9.85113 3.1121e-19 0.556961)
(9.78644 1.90197e-19 0.679684)
(9.71116 -9.56861e-19 0.809501)
(9.62527 4.51379e-19 0.947744)
(9.5288 -5.265e-19 1.09574)
(9.42185 5.97422e-19 1.25482)
(9.30451 1.35593e-19 1.42634)
(9.17674 1.10049e-18 1.61172)
(9.03841 -9.69285e-19 1.8125)
(8.88944 -1.27384e-18 2.03027)
(8.72969 1.13992e-18 2.26676)
(8.55884 1.43919e-19 2.5238)
(8.37642 1.45557e-19 2.80345)
(8.1817 2.52775e-18 3.10797)
(7.97359 -4.33646e-18 3.43997)
(7.75044 4.52153e-18 3.80248)
(7.50982 -2.42662e-18 4.19905)
(7.24812 3.08654e-19 4.63396)
(6.96002 3.0198e-19 5.11233)
(6.63758 -3.10968e-19 5.64017)
(6.26872 -3.00589e-19 6.22413)
(5.8352 6.10834e-19 6.87098)
(5.30831 -2.96921e-19 7.58492)
(4.63368 0 8.36449)
(3.80561 -1.35631e-19 9.15726)
(2.31902 -9.9415e-18 9.94385)
(9.99043 1.14312e-22 0.114744)
(9.97735 0 0.229108)
(9.95123 0 0.34485)
(9.91214 0 0.46361)
(9.86228 3.07529e-20 0.586872)
(9.8027 -5.0007e-19 0.716088)
(9.73357 -2.09781e-21 0.852645)
(9.65488 5.10595e-19 0.997906)
(9.56676 0 1.15322)
(9.46945 -1.11898e-18 1.31996)
(9.36304 1.12707e-18 1.4995)
(9.24754 1.21455e-18 1.69334)
(9.12305 -1.08741e-18 1.90305)
(8.98961 1.37198e-19 2.1303)
(8.84726 -1.3863e-19 2.37689)
(8.69589 -1.77042e-21 2.64482)
(8.53528 2.13485e-18 2.93632)
(8.36506 -1.99936e-18 3.25396)
(8.18454 -2.30782e-18 3.60076)
(7.99267 2.30949e-18 3.98037)
(7.78781 -2.45564e-18 4.39725)
(7.56742 2.31281e-18 4.85706)
(7.32765 4.4323e-18 5.36701)
(7.06251 -4.43549e-18 5.93642)
(6.76231 2.86544e-19 6.57743)
(6.41091 3.94378e-18 7.30609)
(5.98111 -4.08418e-18 8.14292)
(5.40377 0 9.11846)
(4.66358 2.9443e-20 10.2345)
(2.96861 4.42255e-19 11.6212)
(9.99072 5.91625e-20 0.12012)
(9.97899 -5.9467e-20 0.239849)
(9.95524 -2.99174e-20 0.361026)
(9.91947 0 0.485345)
(9.8739 -3.06599e-20 0.614311)
(9.81962 0 0.749398)
(9.75683 4.38944e-19 0.89201)
(9.68558 -5.05048e-19 1.04353)
(9.6061 0 1.20532)
(9.5187 0 1.37877)
(9.42347 -6.56971e-20 1.5653)
(9.32059 -1.32866e-19 1.76644)
(9.21036 0 1.98377)
(9.09297 -1.21734e-18 2.21899)
(8.96862 1.3581e-18 2.47396)
(8.83747 -1.37923e-19 2.75077)
(8.69964 0 3.05178)
(8.55516 -2.35466e-18 3.37975)
(8.40392 2.07644e-18 3.73798)
(8.24564 0 4.13051)
(8.07977 2.07639e-19 4.56242)
(7.90536 -2.18014e-18 5.04028)
(7.72086 -2.26244e-18 5.57279)
(7.52369 4.13201e-18 6.17174)
(7.30948 0 6.85367)
(7.07022 9.72207e-20 7.64302)
(6.79264 5.68841e-20 8.57742)
(6.42058 -3.2419e-18 9.72941)
(5.97464 6.07682e-18 11.2251)
(4.0747 -3.18067e-18 14.0531)
(0.101524 0 -0.0977329)
(0.293114 3.90284e-21 -0.111097)
(0.492731 0 -0.0995611)
(0.67461 0 -0.0822107)
(0.829696 0 -0.0653597)
(0.957872 0 -0.0505148)
(1.06173 0 -0.0376322)
(1.14374 0 -0.0263441)
(1.20566 0 -0.0163501)
(1.24879 4.27324e-21 -0.00746834)
(1.2743 1.96817e-20 0.000330169)
(1.28376 -1.16597e-20 0.00668851)
(1.27965 -6.913e-21 0.0108324)
(1.26478 6.80552e-21 0.0131576)
(1.24301 0 0.0140575)
(1.21794 0 0.0139095)
(1.19242 2.69346e-21 0.0129195)
(1.16885 -2.65177e-21 0.0111599)
(1.14948 0 0.00875785)
(1.13609 2.22492e-21 0.00599741)
(1.12942 0 0.00316246)
(1.12909 0 0.000477017)
(1.13455 -7.82879e-22 -0.00209081)
(1.14549 4.20854e-23 -0.00468671)
(1.16262 -6.20432e-22 -0.00728252)
(1.186 0 -0.00956464)
(1.21474 0 -0.0112168)
(1.24773 0 -0.012302)
(1.28376 0 -0.0126706)
(1.32765 0 -0.0110153)
(0.0859112 -1.79559e-20 -0.272345)
(0.280995 -2.48328e-19 -0.29104)
(0.472571 2.21237e-19 -0.258908)
(0.648035 -2.11813e-19 -0.217765)
(0.801287 1.00692e-19 -0.179315)
(0.933117 -9.43625e-21 -0.145802)
(1.04592 -1.67088e-19 -0.116685)
(1.14175 7.96601e-20 -0.090957)
(1.22198 7.09776e-20 -0.0679098)
(1.2877 -8.22542e-20 -0.0471205)
(1.33985 3.9484e-21 -0.0282868)
(1.37888 2.54128e-20 -0.0113914)
(1.40474 -2.86195e-20 0.00271558)
(1.41777 -3.22089e-20 0.0125778)
(1.42194 1.90537e-20 0.0180149)
(1.42097 0 0.0200803)
(1.41786 -5.41874e-21 0.0193499)
(1.41524 0 0.0162237)
(1.41542 0 0.0113901)
(1.4198 2.03562e-21 0.00597105)
(1.42854 -6.13704e-21 0.000857746)
(1.44057 -1.81331e-21 -0.00351488)
(1.45443 3.15391e-21 -0.00738979)
(1.46912 -7.94636e-22 -0.0112759)
(1.48346 6.06152e-22 -0.0152638)
(1.49638 -2.01296e-21 -0.0189905)
(1.50734 1.57754e-21 -0.0220813)
(1.51642 0 -0.0247595)
(1.52476 0 -0.0268201)
(1.53776 0 -0.0250145)
(0.0526068 3.11181e-20 -0.451565)
(0.230646 0 -0.467611)
(0.395264 0 -0.413558)
(0.543661 -2.00983e-19 -0.350519)
(0.673092 1.88763e-19 -0.292951)
(0.785757 1.67191e-20 -0.242986)
(0.883919 -1.53084e-19 -0.199472)
(0.969221 3.0299e-19 -0.160817)
(1.04253 -1.4975e-19 -0.126076)
(1.10449 -5.84177e-20 -0.0947693)
(1.15601 -5.09155e-21 -0.06636)
(1.19769 1.20767e-19 -0.0405942)
(1.2299 -6.50901e-20 -0.0180562)
(1.25381 6.66161e-21 -0.000567931)
(1.26887 1.248e-20 0.0107331)
(1.27869 -2.2886e-20 0.0165398)
(1.28522 1.06169e-21 0.0175154)
(1.29021 2.61634e-20 0.0141021)
(1.29533 0 0.00731153)
(1.30126 -4.4212e-21 -0.00117433)
(1.30735 1.38745e-20 -0.00909727)
(1.31213 -9.32606e-21 -0.0151761)
(1.31403 1.80677e-21 -0.0193798)
(1.31185 0 -0.0221282)
(1.30538 1.14248e-21 -0.0235413)
(1.29552 -1.13867e-21 -0.0234948)
(1.28334 -1.60478e-21 -0.0220643)
(1.26903 -2.3432e-22 -0.0203545)
(1.25264 2.3016e-22 -0.0203635)
(1.23774 0 -0.0207503)
(0.0203056 -5.10105e-19 -0.611736)
(0.170201 -4.49496e-19 -0.612882)
(0.301764 4.40326e-19 -0.535007)
(0.416834 0 -0.452711)
(0.515347 3.61752e-19 -0.38011)
(0.601306 -2.00891e-19 -0.318035)
(0.676733 -3.473e-19 -0.264294)
(0.743357 1.6175e-19 -0.216479)
(0.801751 1.45376e-19 -0.173362)
(0.851954 -1.42851e-19 -0.134493)
(0.895123 0 -0.0987902)
(0.932257 1.53909e-20 -0.065126)
(0.962425 6.39988e-20 -0.0359168)
(0.986712 -4.21367e-20 -0.014644)
(1.00405 -1.91913e-20 -0.00114947)
(1.01348 0 0.00667982)
(1.01602 5.62378e-21 0.00921364)
(1.01156 -5.25934e-21 0.00742475)
(1.00013 -1.90689e-20 0.00303495)
(0.982481 2.75531e-20 -0.00188612)
(0.960163 -1.28403e-20 -0.00527167)
(0.935413 0 -0.00654549)
(0.910068 0 -0.00639529)
(0.886239 0 -0.00596481)
(0.865831 -2.39003e-21 -0.00649061)
(0.85003 4.48263e-21 -0.00791039)
(0.839404 0 -0.00923584)
(0.832814 4.88567e-22 -0.0106283)
(0.827557 -4.79199e-22 -0.014853)
(0.817953 -4.8619e-22 -0.021821)
(-0.00897771 1.46511e-20 -0.749205)
(0.104438 4.39441e-19 -0.724019)
(0.198209 -4.34621e-19 -0.621943)
(0.275943 0 -0.523678)
(0.33857 1.20182e-20 -0.439972)
(0.392095 1.13114e-20 -0.369642)
(0.437785 -1.07031e-20 -0.309438)
(0.478182 1.01409e-20 -0.256121)
(0.513911 0 -0.207888)
(0.543471 -1.40691e-19 -0.165099)
(0.569651 2.70886e-19 -0.127727)
(0.59516 -1.30336e-19 -0.0934689)
(0.617123 -7.37337e-20 -0.0607566)
(0.621274 5.78308e-20 -0.0309115)
(0.611442 8.277e-24 -0.00620657)
(0.601266 1.24804e-20 0.00957117)
(0.588483 1.17094e-20 0.018696)
(0.571928 1.04015e-20 0.0222996)
(0.553608 -5.10941e-20 0.0219197)
(0.536028 -3.58926e-21 0.0192737)
(0.520338 1.8034e-20 0.0156068)
(0.506495 1.55718e-20 0.011557)
(0.494473 -7.07406e-21 0.00683717)
(0.484481 1.25582e-20 0.00153879)
(0.47728 -5.7984e-21 -0.00391034)
(0.470759 -2.01886e-21 -0.00865934)
(0.464008 1.98003e-21 -0.0112058)
(0.458198 0 -0.0112324)
(0.450588 1.27522e-22 -0.0122913)
(0.424837 3.7589e-22 -0.0222935)
(-0.0347239 4.51275e-19 -0.855297)
(0.0370067 -3.4369e-21 -0.795514)
(0.0886986 0 -0.670273)
(0.12652 0 -0.558499)
(0.150282 0 -0.466096)
(0.167462 -1.16341e-20 -0.389685)
(0.178254 1.10586e-20 -0.3251)
(0.186142 0 -0.268517)
(0.192365 1.99135e-20 -0.216828)
(0.192665 0 -0.170278)
(0.191296 0 -0.126848)
(0.176557 -1.67226e-20 -0.0841611)
(0.175704 1.57757e-20 -0.0456956)
(0.166588 -2.97898e-20 -0.0140652)
(0.167005 1.39237e-20 0.00738144)
(0.165102 5.10566e-20 0.0204306)
(0.162164 -4.99621e-20 0.0275578)
(0.15659 -2.22733e-20 0.0290983)
(0.150893 3.24451e-20 0.0265747)
(0.146095 -9.26325e-21 0.0220082)
(0.142104 9.64227e-21 0.0168702)
(0.138533 -7.85489e-21 0.011978)
(0.134672 -7.09433e-21 0.00726038)
(0.129908 6.16259e-21 0.00270507)
(0.124388 -6.045e-21 -0.00108354)
(0.116151 -2.11083e-21 -0.00363402)
(0.105639 2.07051e-21 -0.00441938)
(0.0937492 -3.19317e-21 -0.00344207)
(0.0780884 5.22053e-22 -0.00372591)
(0.0575547 0 -0.0136174)
(-0.0571621 4.55519e-19 -0.921235)
(-0.0297339 -4.41715e-19 -0.822206)
(-0.02377 0 -0.677171)
(-0.0270449 -4.10315e-19 -0.553928)
(-0.0423205 4.0437e-19 -0.455837)
(-0.0621686 -1.18754e-20 -0.376112)
(-0.0856451 0 -0.309554)
(-0.110193 -3.31383e-19 -0.252158)
(-0.133825 3.05616e-19 -0.201288)
(-0.15534 -1.88289e-20 -0.156118)
(-0.172885 -1.76991e-20 -0.116326)
(-0.185552 1.29576e-19 -0.0815891)
(-0.193481 -5.58706e-21 -0.0495744)
(-0.197547 -1.19542e-19 -0.0208608)
(-0.197205 0 0.000774481)
(-0.196386 4.98916e-20 0.0163979)
(-0.195187 -1.41414e-20 0.0246918)
(-0.194444 8.94498e-21 0.0270498)
(-0.194381 -4.26352e-20 0.0252786)
(-0.194927 -9.65661e-21 0.0214652)
(-0.196084 8.86782e-21 0.0169903)
(-0.19801 -8.09542e-21 0.0126247)
(-0.201096 7.29581e-21 0.00866218)
(-0.205833 -6.11475e-21 0.00515252)
(-0.212487 6.00019e-21 0.0024658)
(-0.221618 0 0.00107506)
(-0.233344 -1.58881e-21 0.00162369)
(-0.248247 4.16082e-21 0.00329978)
(-0.267312 -3.15672e-21 0.00263259)
(-0.283513 0 -0.00407198)
(-0.0772818 0 -0.938933)
(-0.0951671 0 -0.798792)
(-0.137092 -4.29487e-19 -0.641174)
(-0.181119 4.24115e-19 -0.516422)
(-0.231819 0 -0.418194)
(-0.282137 1.16842e-20 -0.340319)
(-0.329737 3.47941e-19 -0.277189)
(-0.372398 -3.41071e-19 -0.224486)
(-0.408916 2.88217e-19 -0.179139)
(-0.439014 -2.65096e-19 -0.139091)
(-0.463197 -1.18409e-19 -0.102945)
(-0.482094 1.16812e-19 -0.0701794)
(-0.49575 0 -0.0409004)
(-0.504811 1.42051e-20 -0.0164525)
(-0.508377 6.52777e-20 0.00203704)
(-0.509995 -1.11757e-19 0.0150142)
(-0.51055 4.75225e-20 0.0226861)
(-0.511014 0 0.0254318)
(-0.511953 0 0.0244584)
(-0.51346 9.38829e-21 0.0213902)
(-0.515478 0 0.0175512)
(-0.518109 0 0.0137768)
(-0.521748 0 0.010486)
(-0.526973 -1.25574e-20 0.00790076)
(-0.534315 3.05673e-22 0.00636072)
(-0.544276 0 0.0063486)
(-0.557473 3.7128e-21 0.00829983)
(-0.575235 5.25561e-22 0.0112497)
(-0.597667 2.55887e-21 0.0120008)
(-0.615409 0 0.00908719)
(-0.0969673 1.50934e-20 -0.903497)
(-0.158383 0 -0.730034)
(-0.247882 4.36233e-19 -0.567174)
(-0.331575 -8.36991e-19 -0.445013)
(-0.414335 7.84602e-19 -0.353272)
(-0.489154 -3.83057e-19 -0.283856)
(-0.554375 0 -0.229848)
(-0.609503 0 -0.186008)
(-0.655284 1.94203e-20 -0.148606)
(-0.692984 -1.82181e-20 -0.11527)
(-0.723859 3.45427e-20 -0.0847032)
(-0.749177 1.09282e-19 -0.0566816)
(-0.77068 -1.22957e-19 -0.0318315)
(-0.783654 1.09031e-19 -0.0112956)
(-0.793584 -1.19545e-19 0.00505184)
(-0.800916 -2.3075e-20 0.0167419)
(-0.806577 4.63487e-20 0.0236992)
(-0.811255 -1.05525e-20 0.0262507)
(-0.815322 -2.90845e-20 0.0253547)
(-0.818884 1.88685e-20 0.0223905)
(-0.822078 0 0.0186765)
(-0.825326 0 0.015192)
(-0.82939 6.8387e-21 0.0125297)
(-0.835205 -3.79342e-22 0.011023)
(-0.843579 -1.46915e-22 0.0109538)
(-0.855137 0 0.0126753)
(-0.870772 3.85674e-21 0.0164144)
(-0.8919 0 0.0211613)
(-0.916968 -1.28462e-22 0.0240388)
(-0.934159 1.35561e-22 0.0238411)
(-0.114945 -1.00726e-18 -0.813378)
(-0.219754 0 -0.612121)
(-0.362385 8.90025e-19 -0.452526)
(-0.486188 -8.78938e-19 -0.342722)
(-0.598274 1.24881e-20 -0.266779)
(-0.693624 0 -0.213048)
(-0.773024 3.25356e-19 -0.172735)
(-0.838525 -3.39271e-19 -0.140088)
(-0.892601 3.92023e-20 -0.111481)
(-0.93787 -1.0595e-19 -0.085001)
(-0.976641 6.73553e-21 -0.0601148)
(-1.00863 1.61722e-19 -0.0374926)
(-1.03253 0 -0.017819)
(-1.05227 -2.74681e-20 -0.00097037)
(-1.06859 0 0.0127061)
(-1.08218 -6.97826e-20 0.0225291)
(-1.09345 2.18993e-21 0.0281047)
(-1.10268 5.24645e-20 0.0295622)
(-1.10998 4.71581e-20 0.0277509)
(-1.11549 -3.68565e-20 0.0240484)
(-1.11969 -1.62883e-20 0.0199156)
(-1.12347 1.59952e-20 0.0165272)
(-1.12803 -1.43648e-20 0.0146068)
(-1.13454 0 0.0144666)
(-1.14386 1.07089e-20 0.016194)
(-1.15657 -1.0442e-20 0.0198747)
(-1.17367 -1.90551e-20 0.0255063)
(-1.19659 -4.34064e-21 0.0321151)
(-1.22281 -1.03671e-21 0.0372034)
(-1.23939 1.10782e-21 0.0393384)
(-0.137733 -1.03477e-18 -0.664236)
(-0.292242 3.40669e-20 -0.445659)
(-0.49456 9.71275e-19 -0.303991)
(-0.66045 4.27598e-19 -0.216209)
(-0.801595 -1.60822e-20 -0.16223)
(-0.916128 -3.86973e-19 -0.128844)
(-1.00772 -3.25714e-19 -0.10572)
(-1.08108 1.33377e-20 -0.0868664)
(-1.14018 2.78079e-19 -0.0691247)
(-1.18822 1.05595e-19 -0.0511315)
(-1.22774 -7.38694e-20 -0.0330913)
(-1.26142 -1.28393e-19 -0.015754)
(-1.29111 2.91431e-20 6.54177e-05)
(-1.31711 2.67781e-20 0.013867)
(-1.33979 0 0.024911)
(-1.3595 0 0.0325368)
(-1.37637 2.13866e-20 0.0361308)
(-1.39029 1.9946e-20 0.0356835)
(-1.40107 3.664e-20 0.0320914)
(-1.40889 -5.35598e-20 0.0269432)
(-1.41453 0 0.0219636)
(-1.41923 3.03951e-20 0.0185134)
(-1.42451 -1.42391e-20 0.0173407)
(-1.43174 1.94743e-20 0.0186058)
(-1.44181 -7.16305e-22 0.0221283)
(-1.45536 4.20264e-21 0.0277296)
(-1.47357 7.41226e-21 0.0352745)
(-1.4979 5.273e-21 0.0439259)
(-1.52502 -2.59886e-22 0.0514651)
(-1.54129 -1.96759e-21 0.0558773)
(-0.179937 1.1013e-18 -0.451918)
(-0.417811 -1.05691e-18 -0.21)
(-0.696622 -1.4604e-20 -0.0901631)
(-0.89826 -2.71003e-20 -0.0478477)
(-1.0517 0 -0.0366277)
(-1.16728 0 -0.0359018)
(-1.25562 0 -0.036019)
(-1.32495 0 -0.0334816)
(-1.38108 3.00478e-19 -0.0272832)
(-1.42848 -1.52698e-19 -0.01712)
(-1.47041 -1.03317e-19 -0.00405709)
(-1.50866 -1.20266e-19 0.0097689)
(-1.54348 8.89769e-20 0.022395)
(-1.57462 2.6409e-20 0.0330035)
(-1.6023 0 0.041263)
(-1.62682 -4.3729e-20 0.0464001)
(-1.64807 6.26157e-20 0.0474962)
(-1.66545 -5.93528e-20 0.0443781)
(-1.67844 3.57382e-20 0.0381286)
(-1.68716 -1.79219e-20 0.0307589)
(-1.69266 1.62939e-20 0.0243903)
(-1.69662 -1.51554e-20 0.0205751)
(-1.70093 1.44171e-20 0.020024)
(-1.70726 -1.94201e-20 0.0226821)
(-1.71673 6.07011e-21 0.0280592)
(-1.73014 -4.43765e-21 0.0356829)
(-1.74882 4.3554e-21 0.0452689)
(-1.77407 1.10058e-21 0.0560889)
(-1.80189 2.46667e-21 0.0660866)
(-1.81805 2.05051e-21 0.0725911)
(-0.237432 1.16949e-18 0.00714147)
(-0.555574 0 0.160414)
(-0.893597 4.45745e-19 0.157325)
(-1.12087 -3.50584e-19 0.12169)
(-1.28308 0 0.0828156)
(-1.3995 0 0.0496615)
(-1.48607 -4.29862e-20 0.027864)
(-1.55376 0 0.0168085)
(-1.60888 0 0.0137766)
(-1.65602 -3.57076e-20 0.0178857)
(-1.6992 9.52464e-20 0.0273956)
(-1.74027 2.39838e-20 0.0384154)
(-1.77866 -6.66633e-21 0.0479077)
(-1.81333 -1.32549e-19 0.0551607)
(-1.84434 2.23626e-20 0.0604146)
(-1.8722 -2.3392e-20 0.0628752)
(-1.89661 -5.9421e-20 0.0610667)
(-1.91637 7.55209e-20 0.0545213)
(-1.93035 -5.38251e-20 0.044667)
(-1.93858 0 0.0342412)
(-1.94248 -1.59813e-20 0.025968)
(-1.94435 -1.54023e-20 0.0216055)
(-1.9466 -6.52145e-21 0.0217528)
(-1.95129 1.34962e-20 0.0260744)
(-1.95984 1.84119e-20 0.0336976)
(-1.97322 0 0.0437614)
(-1.99272 -8.38809e-21 0.0557514)
(-2.01931 0 0.0689886)
(-2.0483 -6.6436e-21 0.0814891)
(-2.06482 -1.20042e-21 0.0899409)
(-0.32456 1.11813e-18 0.541628)
(-0.743011 0 0.58296)
(-1.15092 -5.03183e-20 0.437997)
(-1.3817 -9.71746e-20 0.298488)
(-1.53213 -4.10577e-19 0.199916)
(-1.63391 3.13207e-19 0.12771)
(-1.70648 2.06824e-19 0.0854208)
(-1.76449 -2.01215e-19 0.0645881)
(-1.81336 -1.47098e-19 0.0537449)
(-1.85607 2.80571e-19 0.0522171)
(-1.89754 2.57441e-20 0.0595419)
(-1.93999 -6.75932e-20 0.0691669)
(-1.98108 -7.12334e-21 0.0758291)
(-2.0181 -8.14932e-20 0.0793497)
(-2.05109 -6.97645e-20 0.0814532)
(-2.08131 2.26644e-20 0.0813905)
(-2.10843 -1.83696e-20 0.0765433)
(-2.13021 1.94198e-20 0.0658279)
(-2.14454 3.36313e-22 0.0512588)
(-2.15124 1.66937e-20 0.0368037)
(-2.15232 1.57366e-20 0.0261172)
(-2.15097 -7.05888e-22 0.0211595)
(-2.15033 -2.20777e-20 0.0222665)
(-2.15294 -4.42767e-22 0.0287211)
(-2.16055 -1.26452e-20 0.0391796)
(-2.17427 -5.69202e-21 0.0522477)
(-2.19517 -6.18411e-22 0.0670431)
(-2.22378 -6.02767e-22 0.0828737)
(-2.25466 3.96111e-21 0.0978074)
(-2.2721 1.36121e-21 0.107995)
(-0.547255 -6.25667e-19 1.79972)
(-1.04599 4.04676e-19 1.34175)
(-1.52059 2.72892e-20 0.770997)
(-1.69869 -3.07677e-19 0.402734)
(-1.79483 3.92712e-19 0.27495)
(-1.85771 4.25786e-20 0.185994)
(-1.89832 0 0.135264)
(-1.93942 1.93346e-20 0.109508)
(-1.97994 -3.76188e-20 0.087679)
(-2.01462 3.48852e-20 0.0788057)
(-2.05119 0 0.0880555)
(-2.09438 1.4648e-19 0.100635)
(-2.13844 -1.13945e-19 0.105967)
(-2.1772 4.82377e-20 0.105179)
(-2.21095 -3.54455e-21 0.103781)
(-2.24298 -2.25191e-20 0.101727)
(-2.27316 0 0.0940013)
(-2.29745 -3.37863e-20 0.0782117)
(-2.31196 1.73151e-20 0.0573865)
(-2.31624 1.62439e-20 0.037609)
(-2.31332 0 0.0239692)
(-2.30769 1.53211e-20 0.0185343)
(-2.30345 0 0.0210832)
(-2.30371 1.46475e-20 0.030377)
(-2.31061 0 0.0445067)
(-2.32533 -2.575e-21 0.0613528)
(-2.34862 1.12951e-20 0.0794545)
(-2.38035 0 0.098043)
(-2.41421 0 0.115305)
(-2.43328 -1.35784e-21 0.127011)
(9.99102 2.83727e-20 0.125128)
(9.98073 0 0.249848)
(9.95948 5.7469e-20 0.376065)
(9.92721 2.89294e-20 0.505516)
(9.88615 0 0.639725)
(9.83743 2.95047e-20 0.780177)
(9.78131 5.99728e-20 0.928286)
(9.7179 0 1.08544)
(9.64752 0 1.253)
(9.57047 9.27668e-19 1.43238)
(9.48701 -9.94825e-19 1.62502)
(9.3975 0 1.83242)
(9.30235 6.30956e-20 2.05616)
(9.20194 6.35449e-20 2.29794)
(9.09668 -1.22403e-18 2.55965)
(8.98703 3.10375e-18 2.84338)
(8.87349 -2.07356e-18 3.15155)
(8.75656 0 3.48696)
(8.63684 -6.42038e-20 3.85299)
(8.51496 0 4.25381)
(8.39171 -2.07178e-18 4.69468)
(8.26807 2.02743e-18 5.1824)
(8.14544 0 5.72605)
(8.02596 0 6.33807)
(7.91325 1.70248e-18 7.03613)
(7.81407 -1.75565e-18 7.84678)
(7.74834 -5.23666e-20 8.81155)
(7.7463 2.46395e-19 10.0064)
(8.34234 5.86916e-19 11.5089)
(8.57061 -6.89215e-19 14.2377)
(9.99134 5.50007e-20 0.129776)
(9.98257 -5.53811e-20 0.259111)
(9.96396 1.67529e-19 0.389955)
(9.93537 -2.79037e-20 0.524077)
(9.89902 4.43679e-22 0.663016)
(9.8561 -7.17291e-19 0.808258)
(9.8069 -1.26809e-21 0.961218)
(9.75161 4.66936e-19 1.12328)
(9.69058 0 1.2958)
(9.62421 4.9102e-22 1.4802)
(9.55291 0 1.67788)
(9.47718 0 1.89032)
(9.39756 -6.12523e-20 2.11906)
(9.31462 -6.16386e-20 2.36577)
(9.22904 1.04722e-18 2.6323)
(9.14156 -1.04783e-18 2.92067)
(9.05307 -1.97464e-18 3.23323)
(8.96461 -2.68579e-20 3.57269)
(8.87745 1.99657e-18 3.94229)
(8.79318 0 4.34597)
(8.71393 -3.03859e-20 4.78863)
(8.64261 1.86915e-18 5.27649)
(8.58347 -1.85069e-18 5.81759)
(8.54308 -1.08719e-19 6.42251)
(8.53228 1.07742e-19 7.1053)
(8.56988 0 7.88457)
(8.69546 0 8.78303)
(8.92038 -3.19039e-19 9.82848)
(9.56865 5.13098e-19 10.978)
(10.0822 -6.18379e-21 12.164)
(9.99169 0 0.133983)
(9.9845 1.34075e-20 0.267485)
(9.96865 2.71562e-20 0.402484)
(9.94389 0 0.540774)
(9.91244 2.20555e-19 0.683897)
(9.87551 2.22953e-19 0.833334)
(9.83346 -4.47985e-19 0.990485)
(9.78652 0 1.15672)
(9.7351 0 1.33338)
(9.6797 8.62928e-20 1.52184)
(9.62085 -9.26807e-19 1.72347)
(9.55919 1.86292e-18 1.93969)
(9.49539 -9.06353e-19 2.17197)
(9.43024 0 2.42192)
(9.36463 -9.42168e-19 2.69125)
(9.29962 9.72773e-19 2.98188)
(9.23647 0 3.29595)
(9.1767 1.89808e-18 3.63594)
(9.12222 -1.8332e-18 4.00469)