/*--------------------------------*- C++ -*----------------------------------*\
| =========                 |                                                 |
| \\      /  F ield         | OpenFOAM: The Open Source CFD Toolbox           |
|  \\    /   O peration     | Version:  2006                                  |
|   \\  /    A nd           | Website:  www.openfoam.com                      |
|    \\/     M anipulation  |                                                 |
\*---------------------------------------------------------------------------*/
FoamFile
{
    version     2.0;
    format      ascii;
    class       volScalarField;
    location    "8.3";
    object      p;
}
// * * * * * * * * * * * * * * * * * * * * * * * * * * * * * * * * * * * * * //

dimensions      [0 2 -2 0 0 0 0];


internalField   nonuniform List<scalar> 
2790
(
146.724
146.631
146.898
147.469
148.249
149.207
150.339
151.646
153.122
154.763
156.563
158.514
160.608
162.833
165.173
167.609
170.113
172.652
175.184
177.658
180.016
182.194
184.125
185.745
187.005
187.879
188.315
188.37
188.421
188.633
146.521
146.539
146.831
147.399
148.175
149.129
150.257
151.558
153.027
154.66
156.45
158.391
160.474
162.688
165.017
167.443
169.939
172.472
175.002
177.48
179.849
182.044
183.998
185.647
186.931
187.805
188.202
188.257
188.389
188.674
146.322
146.41
146.721
147.279
148.042
148.984
150.097
151.379
152.827
154.435
156.197
158.106
160.154
162.33
164.618
167.001
169.453
171.943
174.435
176.883
179.232
181.425
183.398
185.087
186.438
187.414
188.007
188.362
188.677
188.976
146.097
146.216
146.539
147.089
147.837
148.762
149.856
151.114
152.533
154.107
155.831
157.697
159.695
161.816
164.044
166.362
168.747
171.17
173.597
175.988
178.295
180.466
182.448
184.188
185.642
186.794
187.662
188.333
188.885
189.404
145.836
145.969
146.301
146.843
147.575
148.479
149.546
150.773
152.155
153.687
155.361
157.17
159.106
161.157
163.309
165.544
167.842
170.178
172.519
174.832
177.078
179.213
181.195
182.985
184.556
185.898
187.028
187.991
188.802
189.548
145.536
145.674
146.008
146.54
147.252
148.13
149.166
150.355
151.693
153.172
154.787
156.53
158.391
160.359
162.42
164.558
166.753
168.983
171.22
173.435
175.598
177.675
179.637
181.458
183.121
184.622
185.969
187.174
188.194
189.112
145.193
145.332
145.664
146.182
146.872
147.719
148.719
149.864
151.15
152.57
154.117
155.783
157.558
159.43
161.388
163.413
165.489
167.595
169.708
171.804
173.86
175.851
177.758
179.569
181.274
182.875
184.369
185.748
186.913
187.959
144.808
144.945
145.27
145.772
146.435
147.249
148.207
149.302
150.53
151.883
153.353
154.933
156.611
158.378
160.218
162.117
164.058
166.022
167.99
169.942
171.86
173.727
175.534
177.277
178.955
180.574
182.129
183.601
184.851
186.002
144.382
144.515
144.829
145.312
145.946
146.722
147.634
148.674
149.838
151.117
152.503
153.987
155.559
157.208
158.919
160.677
162.467
164.27
166.07
167.849
169.592
171.29
172.938
174.539
176.101
177.636
179.145
180.615
181.886
183.124
143.916
144.044
144.344
144.805
145.407
146.142
147.003
147.984
149.077
150.276
151.571
152.952
154.409
155.929
157.499
159.103
160.725
162.347
163.953
165.527
167.055
168.53
169.948
171.316
172.649
173.968
175.289
176.627
177.827
179.132
143.41
143.532
143.817
144.253
144.821
145.511
146.318
147.235
148.254
149.367
150.564
151.835
153.169
154.551
155.969
157.405
158.842
160.264
161.65
162.985
164.253
165.443
166.551
167.579
168.544
169.473
170.404
171.403
172.366
173.684
142.868
142.983
143.251
143.659
144.19
144.834
145.583
146.432
147.373
148.395
149.489
150.644
151.847
153.084
154.339
155.595
156.834
158.035
159.177
160.239
161.201
162.044
162.752
163.319
163.746
164.056
164.3
164.61
164.992
166.166
142.291
142.398
142.648
143.027
143.519
144.113
144.803
145.581
146.439
147.367
148.353
149.386
150.453
151.537
152.622
153.689
154.716
155.68
156.555
157.314
157.927
158.362
158.585
158.56
158.258
157.662
156.789
155.799
154.854
155.36
141.682
141.78
142.011
142.36
142.811
143.354
143.981
144.686
145.459
146.289
147.164
148.072
148.997
149.924
150.833
151.702
152.507
153.221
153.812
154.244
154.474
154.452
154.114
153.382
152.16
150.333
147.773
144.477
140.535
138.505
141.043
141.133
141.342
141.66
142.069
142.559
143.123
143.752
144.438
145.167
145.929
146.709
147.491
148.256
148.984
149.65
150.228
150.684
150.981
151.071
150.898
150.388
149.443
147.929
145.651
142.321
137.482
130.474
120.028
107.83
0.627466
0.607706
0.538745
0.443165
0.343988
0.25324
0.175731
0.112941
0.064693
0.0296214
0.00653855
-0.00686734
-0.0130147
-0.0139897
-0.0116387
-0.00759167
-0.00317978
0.000637677
0.00327546
0.00449546
0.00437652
0.00325573
0.00162598
-2.81223e-06
-0.00125018
-0.00196221
-0.00217969
-0.00202665
-0.00159967
-0.000931043
0.579251
0.55691
0.491995
0.403842
0.312404
0.228234
0.155877
0.0970229
0.0519706
0.0203898
-0.00013208
-0.0117173
-0.0164036
-0.0161396
-0.0127537
-0.00789079
-0.00290357
0.00124891
0.00400091
0.00515403
0.0048524
0.00350909
0.00168453
-6.82978e-05
-0.00135684
-0.00205468
-0.00224207
-0.00207151
-0.00163385
-0.000753271
0.52524
0.498546
0.436197
0.355052
0.271933
0.195338
0.129311
0.0756267
0.0346598
0.00567019
-0.0122026
-0.0211107
-0.0232308
-0.0205594
-0.0149953
-0.00828489
-0.00185803
0.00326129
0.00646772
0.00758268
0.00686236
0.00489916
0.00246441
0.000286174
-0.00119238
-0.00192761
-0.00210873
-0.00195936
-0.00154098
-0.000654286
0.472264
0.441148
0.380548
0.305396
0.230015
0.160675
0.100891
0.0524378
0.0158237
-0.00951439
-0.0248343
-0.0313718
-0.0309763
-0.0257434
-0.0177721
-0.00899896
-0.000975009
0.00519686
0.00885892
0.0098563
0.00860494
0.00591525
0.00278597
0.000149537
-0.00150039
-0.00223664
-0.00237446
-0.00222471
-0.0018782
-0.00114868
0.433736
0.398506
0.339503
0.26868
0.198965
0.134799
0.0794742
0.0347682
0.00132452
-0.0212681
-0.0344177
-0.0394658
-0.0375385
-0.0304646
-0.0206048
-0.0101455
-0.000773928
0.00631786
0.010392
0.0112812
0.00955127
0.0062319
0.00257554
-0.000306575
-0.00190134
-0.0024064
-0.00233751
-0.0021112
-0.00177505
-0.00122242
0.42193
0.381602
0.323764
0.254565
0.187088
0.124702
0.0708448
0.0273151
-0.00515869
-0.0271179
-0.0403687
-0.0451572
-0.0422616
-0.0340406
-0.0230617
-0.0115686
-0.0012508
0.00663534
0.0111671
0.0120837
0.0101089
0.0063781
0.00230787
-0.000870468
-0.00259203
-0.00304922
-0.00284502
-0.00252465
-0.00222514
-0.00140038
0.447705
0.399407
0.340639
0.268783
0.198484
0.133472
0.0773386
0.0319719
-0.00183832
-0.0245472
-0.0381072
-0.0447801
-0.043838
-0.0360787
-0.0251692
-0.013597
-0.0031218
0.00493924
0.00967271
0.0108984
0.00923238
0.00576731
0.00184861
-0.00126435
-0.00297384
-0.00342431
-0.00322019
-0.00300574
-0.00290983
-0.00163017
0.515381
0.458414
0.390775
0.310324
0.231539
0.159604
0.0980458
0.0484706
0.0111173
-0.0150627
-0.0323475
-0.0413716
-0.0419538
-0.0361621
-0.0266998
-0.0160397
-0.00603665
0.00194858
0.00697736
0.00873027
0.00758679
0.00448934
0.000738397
-0.00237725
-0.00410634
-0.00448631
-0.00419029
-0.00403717
-0.00396536
-0.00189589
0.626259
0.551468
0.465226
0.368834
0.276606
0.194234
0.125104
0.0701449
0.0279998
-0.00322792
-0.0242198
-0.0354982
-0.0384168
-0.0349304
-0.0275127
-0.0184574
-0.0095194
-0.0019886
0.00318165
0.00545536
0.0048722
0.00212469
-0.00152655
-0.0046473
-0.0062713
-0.0063592
-0.00574516
-0.00543153
-0.00508711
-0.00216737
0.764597
0.659025
0.543518
0.425573
0.31872
0.226117
0.148394
0.0865105
0.0397886
0.00611915
-0.0167727
-0.0299919
-0.0348789
-0.0334273
-0.0280611
-0.0209073
-0.013423
-0.00660578
-0.00136553
0.0014368
0.0013357
-0.00131975
-0.00523358
-0.00859972
-0.010046
-0.00947803
-0.00807984
-0.00715494
-0.00617441
-0.0024281
0.899191
0.749324
0.606855
0.464665
0.340533
0.238756
0.157731
0.0942988
0.0462507
0.0113382
-0.0126369
-0.0269708
-0.0329423
-0.0327012
-0.0289317
-0.0237067
-0.0179427
-0.0119839
-0.00655657
-0.00302261
-0.00265528
-0.00561222
-0.0104322
-0.0145591
-0.0158574
-0.0141514
-0.0112831
-0.00915073
-0.00719008
-0.00267018
1.01274
0.808374
0.625923
0.466162
0.334652
0.230346
0.149406
0.0877464
0.0421635
0.00915925
-0.0139992
-0.028161
-0.0338791
-0.0334617
-0.0304148
-0.0270501
-0.0233725
-0.0184215
-0.0124548
-0.00765043
-0.00664937
-0.010418
-0.0171421
-0.0229187
-0.0242267
-0.0206979
-0.0153618
-0.0113057
-0.00810485
-0.00288767
1.0454
0.771802
0.561284
0.3975
0.274666
0.183906
0.114736
0.0621443
0.0246396
-0.00208771
-0.0220544
-0.0348763
-0.0388104
-0.0361469
-0.0324186
-0.0309099
-0.0300972
-0.026487
-0.019295
-0.0120982
-0.00995095
-0.0151692
-0.0253059
-0.0341911
-0.0358748
-0.0295156
-0.020223
-0.0133935
-0.00888135
-0.00307627
0.833847
0.481551
0.324931
0.222699
0.142543
0.091629
0.0515835
0.0162778
-0.00703259
-0.0220832
-0.0366704
-0.0481706
-0.04891
-0.0406898
-0.0338622
-0.0344718
-0.0383315
-0.0370047
-0.0274885
-0.0158269
-0.0114486
-0.0189469
-0.0347675
-0.0490938
-0.0518735
-0.0411694
-0.0256075
-0.0149484
-0.00944632
-0.00323348
0.169004
-0.254625
-0.187245
-0.0811485
-0.0739369
-0.0397252
-0.0275606
-0.0481784
-0.0569147
-0.0514664
-0.0565242
-0.0682868
-0.0650903
-0.046326
-0.0324784
-0.0364804
-0.0490802
-0.0522597
-0.0385196
-0.0184633
-0.00963845
-0.0204357
-0.0452654
-0.0686492
-0.0738503
-0.0565341
-0.0309861
-0.0150482
-0.00962787
-0.00335843
140.363
140.444
140.633
140.917
141.282
141.717
142.215
142.767
143.362
143.989
144.633
145.281
145.915
146.515
147.057
147.516
147.86
148.051
148.045
147.785
147.198
146.189
144.625
142.312
138.951
134.046
126.68
114.939
92.806
33.1257
139.636
139.708
139.874
140.123
140.442
140.82
141.249
141.72
142.222
142.742
143.266
143.778
144.26
144.69
145.043
145.289
145.395
145.319
145.008
144.398
143.405
141.914
139.768
136.735
132.458
126.351
117.384
103.823
84.3026
55.8364
138.867
138.928
139.071
139.285
139.556
139.875
140.234
140.622
141.028
141.439
141.84
142.215
142.543
142.802
142.964
142.999
142.87
142.53
141.924
140.981
139.61
137.69
135.056
131.479
126.633
120.062
111.176
99.3327
85.0782
68.4096
138.056
138.107
138.226
138.403
138.626
138.885
139.171
139.475
139.785
140.086
140.364
140.601
140.776
140.864
140.839
140.667
140.31
139.719
138.836
137.59
135.888
133.614
130.615
126.694
121.605
115.053
106.742
96.3351
83.7689
68.6006
137.206
137.247
137.342
137.481
137.655
137.853
138.067
138.286
138.499
138.691
138.846
138.946
138.97
138.892
138.686
138.316
137.743
136.919
135.787
134.276
132.301
129.754
126.507
122.404
117.263
110.885
103.067
93.5676
82.2163
69.2195
136.32
136.35
136.42
136.522
136.646
136.783
136.924
137.059
137.176
137.259
137.294
137.26
137.138
136.901
136.521
135.966
135.194
134.161
132.811
131.08
128.89
126.15
122.755
118.585
113.511
107.397
100.119
91.5782
81.7639
71.088
135.399
135.418
135.463
135.528
135.602
135.679
135.748
135.8
135.822
135.8
135.717
135.555
135.292
134.904
134.364
133.637
132.687
131.471
129.938
128.031
125.682
122.819
119.359
115.214
110.297
104.528
97.8544
90.2627
81.7964
72.7912
134.447
134.456
134.476
134.503
134.529
134.546
134.545
134.515
134.445
134.32
134.125
133.84
133.446
132.918
132.229
131.349
130.243
128.871
127.19
125.149
122.695
119.768
116.308
112.255
107.556
102.171
96.0851
89.3188
81.9216
74.166
133.467
133.466
133.463
133.453
133.431
133.389
133.319
133.211
133.053
132.83
132.527
132.128
131.611
130.954
130.132
129.118
127.878
126.379
124.583
122.449
119.933
116.992
113.583
109.667
105.216
100.215
94.6697
88.6142
82.102
75.361
132.464
132.453
132.426
132.38
132.312
132.214
132.078
131.895
131.652
131.337
130.934
130.428
129.799
129.027
128.088
126.957
125.607
124.008
122.128
119.935
117.395
114.478
111.154
107.403
103.212
98.58
93.5263
88.0899
82.3237
76.413
131.442
131.421
131.372
131.292
131.179
131.027
130.828
130.573
130.251
129.85
129.355
128.751
128.022
127.147
126.107
124.879
123.44
121.765
119.829
117.606
115.073
112.208
108.995
105.422
101.489
97.2049
92.5935
87.6941
82.5547
77.3238
130.406
130.376
130.305
130.192
130.037
129.834
129.576
129.254
128.858
128.377
127.798
127.107
126.288
125.325
124.199
122.893
121.385
119.656
117.687
115.46
112.956
110.164
107.075
103.686
100.002
96.0391
91.8216
87.3861
82.7744
78.106
129.362
129.323
129.231
129.088
128.892
128.641
128.328
127.944
127.48
126.927
126.272
125.504
124.607
123.569
122.373
121.004
119.446
117.683
115.702
113.488
111.032
108.326
105.367
102.16
98.7125
95.0421
91.1732
87.1383
82.9734
78.7746
128.314
128.267
128.157
127.984
127.751
127.456
127.091
126.65
126.126
125.507
124.785
123.949
122.987
121.886
120.633
119.217
117.625
115.845
113.867
111.682
109.285
106.673
103.848
100.816
97.5879
94.1819
90.6205
86.9321
83.147
79.3432
127.27
127.216
127.087
126.887
126.62
126.284
125.873
125.381
124.801
124.125
123.345
122.451
121.433
120.281
118.986
117.536
115.924
114.14
112.178
110.033
107.703
105.189
102.494
99.6279
96.6022
93.4336
90.1428
86.7543
83.2935
79.8239
126.236
126.174
126.029
125.805
125.507
125.133
124.68
124.142
123.514
122.788
121.958
121.015
119.952
118.76
117.433
115.961
114.34
112.563
110.627
108.53
106.271
103.855
101.287
98.5754
95.7339
92.7774
89.7244
86.5958
83.413
80.2278
125.218
125.15
124.99
124.743
124.417
124.01
123.52
122.942
122.271
121.502
120.629
119.646
118.547
117.326
115.976
114.493
112.873
111.111
109.208
107.163
104.977
102.657
100.208
97.6404
94.9656
92.198
89.3538
86.4507
83.5068
80.5646
124.223
124.149
123.976
123.71
123.358
122.922
122.399
121.786
121.078
120.273
119.365
118.35
117.224
115.981
114.617
113.131
111.519
109.779
107.913
105.922
103.81
101.582
99.2445
96.8081
94.2835
91.6835
89.0223
86.3151
83.5771
80.8433
123.259
123.18
122.995
122.711
122.337
121.875
121.324
120.68
119.943
119.107
118.171
117.131
115.984
114.727
113.357
111.874
110.275
108.562
106.736
104.8
102.759
100.617
98.3837
96.0666
93.6765
91.2247
88.7238
86.1867
83.6263
81.0716
122.332
122.249
122.054
121.754
121.361
120.877
120.301
119.633
118.869
118.009
117.051
115.992
114.831
113.566
112.195
110.72
109.139
107.456
105.671
103.789
101.815
99.7547
97.6157
95.4062
93.1359
90.8148
88.454
86.0645
83.6574
81.2567
121.451
121.364
121.16
120.847
120.437
119.934
119.338
118.648
117.864
116.985
116.01
114.937
113.767
112.499
111.132
109.668
108.109
106.455
104.712
102.882
100.971
98.9854
96.9322
94.8191
92.6549
90.4486
88.2098
85.9482
83.6733
81.405
120.624
120.533
120.321
119.996
119.572
119.053
118.44
117.734
116.933
116.039
115.051
113.969
112.795
111.527
110.167
108.718
107.18
105.557
103.853
102.073
100.221
98.303
96.3269
94.2995
92.2286
90.1225
87.9897
85.8385
83.6772
81.5226
119.857
119.763
119.544
119.21
118.774
118.242
117.615
116.894
116.081
115.175
114.179
113.092
111.916
110.652
109.301
107.867
106.352
104.759
103.093
101.358
99.5587
97.7022
95.7945
93.8424
91.8531
89.8339
87.7924
85.736
83.672
81.6143
119.16
119.064
118.839
118.496
118.049
117.506
116.868
116.137
115.314
114.4
113.398
112.308
111.133
109.875
108.535
107.117
105.624
104.059
102.427
100.733
98.9822
97.1798
95.3321
93.4455
91.5266
89.5821
87.6187
85.643
83.6616
81.6862
118.541
118.442
118.211
117.861
117.406
116.854
116.207
115.467
114.637
113.718
112.712
111.622
110.449
109.197
107.868
106.466
104.993
103.454
101.854
100.196
98.4873
96.7318
94.9358
93.1053
91.2463
89.3649
87.4674
85.5595
83.6472
81.7403
118.009
117.908
117.671
117.313
116.851
116.292
115.639
114.893
114.057
113.134
112.127
111.037
109.869
108.624
107.306
105.918
104.464
102.948
101.374
99.7486
98.0753
96.3596
94.6072
92.8237
91.0147
89.1859
87.3428
85.4911
83.636
81.7858
117.575
117.469
117.226
116.86
116.391
115.826
115.167
114.416
113.577
112.651
111.644
110.556
109.391
108.153
106.845
105.469
104.032
102.535
100.985
99.3853
97.7413
96.0582
94.3412
92.5955
90.8266
89.0396
87.24
85.4326
83.6225
81.8164
117.249
117.138
116.885
116.513
116.039
115.469
114.806
114.052
113.21
112.283
111.276
110.19
109.029
107.797
106.496
105.132
103.707
102.226
100.694
99.1155
97.4948
95.8372
94.1478
92.4316
90.6939
88.9395
87.1735
85.4007
83.6258
81.8548
117.047
116.912
116.642
116.264
115.788
115.216
114.55
113.794
112.951
112.025
111.018
109.934
108.777
107.549
106.255
104.898
103.483
102.013
100.494
98.929
97.3241
95.6837
94.0127
92.3161
90.5989
88.8659
87.1218
85.3712
83.6185
81.8688
117.029
116.83
116.532
116.147
115.668
115.093
114.424
113.666
112.822
111.896
110.89
109.808
108.653
107.429
106.14
104.788
103.38
101.918
100.407
98.8518
97.2573
95.628
93.9688
92.2847
90.5803
88.8605
87.1299
85.3929
83.6538
81.917
-50.4895
-30.2258
-11.1392
35.4497
27.964
15.845
50.8723
38.7585
27.512
52.307
41.8711
33.8111
56.6505
48.3512
41.5817
61.0407
54.1227
48.2228
64.3192
58.4311
53.3761
66.9212
61.8913
57.5778
69.1154
64.7792
61.0671
70.968
67.1863
63.9569
72.5262
69.1938
66.3551
73.8395
70.8755
68.3558
74.9483
72.2895
70.0325
75.8851
73.4812
71.4429
76.6762
74.4874
72.6326
77.3436
75.3376
73.6381
77.9056
76.0558
74.4885
78.3774
76.6617
75.2075
78.772
77.1718
75.8145
79.1004
77.5999
76.3259
79.3722
77.9577
76.7552
79.596
78.2556
77.1143
79.7786
78.5016
77.4127
79.928
78.7049
77.6602
80.0466
78.8689
77.8614
80.1464
79.006
78.0286
80.2185
79.108
78.1554
80.2916
79.2039
78.2685
80.3259
79.2545
78.3331
80.3951
79.3378
78.4229
-2.99728
-2.91352
-1.45973
-0.320535
-0.282658
-0.182546
-0.123426
-0.153847
-0.137003
-0.0745276
-0.0622559
-0.0892255
-0.091518
-0.0567347
-0.0262733
-0.0348077
-0.0629861
-0.074579
-0.0531945
-0.01761
-0.000479138
-0.0166195
-0.0560591
-0.0945572
-0.104805
-0.0774525
-0.035518
-0.0118834
-0.00894299
-0.00345498
2.06434
-0.813024
0.781691
0.258043
-1.10837
-0.853421
-0.19391
-0.170962
-0.14912
-0.0472514
-0.0693862
-0.158325
-0.171979
-0.0796413
0.00655253
-0.0123996
-0.0754202
-0.109117
-0.0788713
-0.0152895
0.0177076
-0.0069335
-0.0691101
-0.131379
-0.150536
-0.107398
-0.0374842
-0.0016072
-0.00591683
-0.00354236
13.2323
4.87297
2.04972
-0.406714
-0.708032
0.841473
0.995566
-0.408665
-0.763457
-0.388765
-0.0479703
-0.147426
-0.174944
-0.0037202
0.0927247
0.0124853
-0.122307
-0.194659
-0.137452
-0.00509564
0.0651807
0.0242855
-0.0737607
-0.173738
-0.211067
-0.148297
-0.0335685
0.0228308
0.00297127
-0.00370371
23.0331
13.1371
7.24427
3.47495
1.77083
1.26471
0.0107673
-0.665908
-0.235391
0.93617
0.78416
-0.309316
-0.681594
-0.440897
0.0815963
0.115452
-0.120506
-0.252373
-0.154055
0.0670244
0.149058
0.0618981
-0.0942705
-0.253055
-0.323102
-0.233078
-0.0230497
0.0717265
0.023986
-0.00420989
32.2186
22.4366
15.108
9.81985
6.19476
3.72915
1.85337
0.867703
0.624052
0.592249
0.0674627
-0.532709
-0.571826
0.466883
0.981735
0.310877
-0.275974
-0.591056
-0.517168
-0.0456777
0.242428
0.139653
-0.0877415
-0.31418
-0.41725
-0.253207
0.0184196
0.160371
0.0646451
-0.00581235
40.2098
31.2704
23.3744
16.9399
12.0165
8.37845
5.71269
3.8368
2.56863
1.65136
0.881671
0.293858
0.10526
0.432426
0.431583
0.150081
-0.317871
-0.5995
-0.293791
0.50536
0.665053
0.206727
-0.137198
-0.456612
-0.67898
-0.594632
-0.0111141
0.288234
0.12874
-0.0109217
46.7326
38.9159
31.1303
24.2344
18.6096
14.1555
10.6375
7.88601
5.79279
4.22018
3.00219
2.05284
1.4362
1.14176
0.881051
0.52965
0.0557079
-0.232198
-0.0934651
0.265707
0.400068
0.215821
-0.11034
-0.484548
-0.726714
-0.418504
0.366316
0.551391
0.206223
-0.0239496
52.0451
45.3049
38.0386
31.2031
25.319
20.3756
16.2378
12.8181
10.052
7.84095
6.0573
4.62286
3.53788
2.771
2.16615
1.56834
0.981127
0.582585
0.485431
0.57102
0.587032
0.376457
0.0119741
-0.354143
-0.538208
-0.310118
0.161138
0.396291
0.304103
-0.0642286
56.3788
50.5553
43.9641
37.4856
31.6655
26.5543
22.0868
18.2281
14.949
12.1934
9.88635
7.97135
6.41994
5.18782
4.17124
3.2705
2.48207
1.88405
1.52593
1.33574
1.13933
0.813229
0.403429
0.0366699
-0.149646
-0.0470449
0.235956
0.391693
0.260682
-0.303176
59.9156
54.8431
48.9352
42.9462
37.3903
32.3455
27.7827
23.6976
20.0918
16.9468
14.2262
11.8924
9.91311
8.2476
6.83153
5.60449
4.54904
3.6886
3.03689
2.54285
2.09695
1.61907
1.12712
0.701331
0.431857
0.372168
0.444685
0.43229
0.172127
-0.518096
62.8206
58.3576
53.0737
47.6024
42.4046
37.5639
33.0674
28.9268
25.1631
21.7821
18.7721
16.113
13.7821
11.751
9.9805
8.43165
7.08303
5.93351
4.97861
4.1815
3.47541
2.80711
2.17619
1.62648
1.21142
0.953359
0.790827
0.574928
0.170563
-0.593074
65.227
61.2609
56.5202
51.5391
46.7236
42.1524
37.8187
33.7397
29.9453
26.4542
23.2703
20.3878
17.7959
15.4783
13.412
11.5723
9.94061
8.50729
7.26095
6.17462
5.2061
4.31879
3.50431
2.78249
2.17999
1.7008
1.29651
0.865565
0.306486
-0.522351
67.2345
63.6775
59.4007
54.8605
50.4139
46.1316
42.0076
38.0591
34.3181
30.8091
27.5448
24.5294
21.7613
19.234
16.9357
14.8521
12.9698
11.2784
9.76554
8.41142
7.18832
6.07074
5.04773
4.12441
3.30984
2.59818
1.95182
1.30133
0.575759
-0.331552
68.9185
65.7019
61.8194
57.6662
53.5586
49.5587
45.6594
41.8753
38.2369
34.7706
31.4935
28.4153
25.5408
22.8704
20.4005
18.124
16.0329
14.1188
12.3717
10.7773
9.31682
7.97235
6.73269
5.59499
4.55818
3.61194
2.72721
1.85662
0.953163
-0.0565883
70.337
67.406
63.8591
60.0425
56.2388
52.5024
48.8245
45.2163
41.7056
38.318
35.0722
31.9808
29.0525
26.2924
23.7018
21.2794
19.0213
16.9224
14.9756
13.1711
11.4961
9.93777
8.4859
7.13399
5.87601
4.70023
3.58414
2.4953
1.40328
0.262629
71.5353
68.8455
65.585
62.0604
58.5256
55.0292
51.5602
48.1267
44.753
41.4631
38.2753
35.2036
32.2588
29.4486
26.7779
24.2488
21.861
19.6125
17.4989
15.5141
13.6494
11.8956
10.2439
8.68679
7.21627
5.82077
4.48262
3.17899
1.88964
0.590639
72.5489
70.064
67.0488
63.7771
60.4792
57.1981
53.9216
50.6547
47.4182
44.2338
41.1189
38.0876
35.1514
32.3197
29.5992
26.9947
24.5083
22.1405
19.8894
17.7516
15.7215
13.7926
11.9576
10.2092
8.53911
6.9365
5.38707
3.87378
2.3817
0.901893
73.4068
71.0961
68.2917
65.2392
62.1489
59.0595
55.9578
52.846
49.7415
46.6638
43.6288
40.65
37.7389
34.9055
32.1578
29.502
26.942
24.48
22.1165
19.8499
17.677
15.5932
13.5927
11.6691
9.81429
8.01856
6.26966
4.55367
2.85772
1.18199
74.1322
71.9703
69.3469
66.4844
63.5757
60.6561
57.7114
54.7415
51.7611
48.7871
45.8339
42.9138
40.0381
37.2167
34.4581
31.7693
29.1554
26.6201
24.1651
21.7905
19.495
17.2753
15.1272
13.0448
11.0209
9.04659
7.11079
5.20102
3.30447
1.42595
74.7447
72.7097
70.2421
67.544
64.7938
62.0235
59.2187
56.3772
53.5112
50.6354
47.7624
44.9035
42.069
39.2685
36.5107
33.8027
31.1506
28.5586
26.0297
23.5653
21.165
18.827
16.548
14.3231
12.1457
10.0075
7.89801
5.80523
3.71548
1.63507
75.2603
73.3335
70.9996
68.4438
65.8312
63.1918
60.5106
57.7842
55.0221
52.2373
49.4408
46.6425
43.8519
41.0779
38.3289
35.6121
32.9337
30.2987
27.7107
25.1718
22.6826
20.2422
17.8482
15.4963
13.1806
10.8931
8.62385
6.36052
4.08842
1.81353
75.6928
73.8581
71.6389
69.2054
66.712
64.1864
61.6138
58.9891
56.3205
53.6186
50.8932
48.1531
45.4066
42.6619
39.9269
37.2088
34.5135
31.8464
29.2114
26.6112
24.0471
21.5188
19.0245
16.5605
14.1213
11.6993
9.28455
6.86453
4.42354
1.96624
76.0535
74.2967
72.1753
69.8466
67.4555
65.0283
62.5499
60.0146
57.4285
54.801
52.1405
49.4546
46.7506
44.0361
41.3182
38.6037
35.8985
33.208
30.5361
27.8859
25.2592
22.656
20.075
17.513
14.9648
12.4229
9.87744
7.31562
4.72105
2.0966
76.3533
74.662
72.6232
70.3835
68.0796
65.7364
63.3391
60.8809
58.3669
55.805
53.2024
50.5657
47.9014
45.2161
42.5166
39.8089
37.0989
34.3916
31.6912
29.0007
26.3221
23.6559
21.0009
18.3543
15.711
13.0638
10.4028
7.71481
4.98313
2.20836
76.5983
74.9614
72.9917
70.8266
68.5958
66.3233
63.9945
61.602
59.1496
56.6443
54.0922
51.499
48.8704
46.2124
43.531
40.8318
38.1204
35.4014
32.6791
29.9564
27.2355
24.5169
21.7997
19.0812
16.3565
13.6185
10.8571
8.05917
5.20772
2.30108
76.8004
75.2077
73.2947
71.1909
69.0203
66.8062
64.534
62.1961
59.7952
57.3374
54.8281
52.2722
49.6748
47.041
44.3763
41.6861
38.9754
36.2486
33.5097
30.7619
28.007
25.2458
22.4774
19.6992
16.9064
14.0918
11.2455
8.35406
5.40042
2.3799
76.9564
75.3986
73.5304
71.4752
69.3525
67.1848
64.9578
62.6636
60.3041
57.8847
55.4102
52.8848
50.313
47.6996
45.0494
42.3674
39.6583
36.9264
34.1754
31.4082
28.6268
25.832
23.0228
20.1966
17.3489
14.4722
11.5565
8.58862
5.55135
2.4378
77.0885
75.5564
73.7223
71.704
69.6174
67.4848
65.2921
63.0311
60.7031
58.3131
55.8652
53.3633
50.8115
48.214
45.5753
42.9002
40.1929
37.4576
34.6977
31.9163
29.1151
26.2948
23.4545
20.5918
17.7017
14.777
11.8076
8.77995
5.67673
2.4873
77.1698
75.6538
73.842
71.8488
69.7866
67.6775
65.5078
63.2689
60.9622
58.5918
56.1619
53.6759
51.1376
48.5509
45.9202
43.2499
40.544
37.8067
35.0412
32.2503
29.4359
26.5986
23.7375
20.8501
17.9313
14.9739
11.9676
8.89835
5.74899
2.50722
77.2589
75.744
73.9444
71.9662
69.9177
67.8211
65.6636
63.4364
61.1407
58.7804
56.3595
53.8813
51.3494
48.7676
46.1402
43.4714
40.7653
38.0257
35.2561
32.4591
29.6366
26.7891
23.9159
21.0143
18.0793
15.1036
12.0763
8.98276
5.80316
2.51361
)
;

boundaryField
{
    inlet
    {
        type            zeroGradient;
    }
    outlet
    {
        type            fixedValue;
        value           uniform 0;
    }
    flap
    {
        type            zeroGradient;
    }
    upperWall
    {
        type            zeroGradient;
    }
    lowerWall
    {
        type            zeroGradient;
    }
    frontAndBack
    {
        type            empty;
    }
}


// ************************************************************************* //
