/*--------------------------------*- C++ -*----------------------------------*\
| =========                 |                                                 |
| \\      /  F ield         | OpenFOAM: The Open Source CFD Toolbox           |
|  \\    /   O peration     | Version:  5.x                                   |
|   \\  /    A nd           | Web:      www.OpenFOAM.org                      |
|    \\/     M anipulation  |                                                 |
\*---------------------------------------------------------------------------*/
FoamFile
{
    version     2.0;
    format      ascii;
    class       pointVectorField;
    location    "1.4";
    object      pointDisplacement;
}
// * * * * * * * * * * * * * * * * * * * * * * * * * * * * * * * * * * * * * //

dimensions      [0 1 0 0 0 0 0];

internalField   nonuniform List<vector> 
5828
(
(0 0 0)
(0.0238336 0 0)
(0.0449568 0 0)
(0.0627646 0 0)
(0.077599 0 0)
(0.0897858 0 0)
(0.0996065 0 0)
(0.107304 0 0)
(0.113087 0 0)
(0.117136 0 0)
(0.119615 0 0)
(0.120667 0 0)
(0.120415 0 0)
(0.118968 0 0)
(0.116424 0 0)
(0.112871 0 0)
(0.108391 0 0)
(0.10306 0 0)
(0.0969531 0 0)
(0.0901449 0 0)
(0.0827127 0 0)
(0.0747386 0 0)
(0.0663118 0 0)
(0.0575336 0 0)
(0.0485238 0 0)
(0.0394324 0 0)
(0.0304623 0 0)
(0.0219377 0 0)
(0.0143996 0 0)
(0.00900458 0 0)
(1.16757e-09 0 0)
(0 0 0)
(0.0238503 0 -0.000230221)
(0.0449889 0 -0.000437175)
(0.0628122 0 -0.000618012)
(0.0776626 0 -0.000777514)
(0.0898669 0 -0.0009194)
(0.0997069 0 -0.00104615)
(0.107426 0 -0.00115931)
(0.113233 0 -0.00125985)
(0.117307 0 -0.00134768)
(0.119816 0 -0.00142237)
(0.120901 0 -0.00148342)
(0.120688 0 -0.00152959)
(0.119284 0 -0.00155911)
(0.116789 0 -0.00156958)
(0.113292 0 -0.00155802)
(0.108875 0 -0.00152087)
(0.103617 0 -0.00145386)
(0.097593 0 -0.00135198)
(0.0908807 0 -0.00120939)
(0.08356 0 -0.00101941)
(0.0757171 0 -0.00077422)
(0.0674467 0 -0.000464526)
(0.0588577 0 -7.96065e-05)
(0.0500823 0 0.000392622)
(0.0412878 0 0.000965583)
(0.0326892 0 0.00165498)
(0.0246217 0 0.00247671)
(0.0176815 0 0.00343281)
(0.0131703 0 0.00443114)
(0.00613232 0 0.00599716)
(0 0 0)
(0.0239007 0 -0.000460889)
(0.0450875 0 -0.000875339)
(0.0629572 0 -0.00123763)
(0.0778558 0 -0.00155733)
(0.0901123 0 -0.00184195)
(0.10001 0 -0.00209648)
(0.107793 0 -0.00232391)
(0.113669 0 -0.00252483)
(0.117822 0 -0.00270045)
(0.120419 0 -0.00285146)
(0.121606 0 -0.00297563)
(0.121505 0 -0.00307055)
(0.12023 0 -0.00313289)
(0.117881 0 -0.00315796)
(0.11455 0 -0.00314003)
(0.110322 0 -0.00307223)
(0.10528 0 -0.00294637)
(0.0995043 0 -0.00275289)
(0.0930769 0 -0.00248059)
(0.0860866 0 -0.00211707)
(0.0786313 0 -0.00164792)
(0.0708195 0 -0.00105594)
(0.0627799 0 -0.000321625)
(0.0546743 0 0.000576353)
(0.0467221 0 0.00165963)
(0.039206 0 0.00294803)
(0.0325142 0 0.0044498)
(0.0272918 0 0.00613692)
(0.0251204 0 0.00776231)
(0.0201267 0 0.0102441)
(0 0 0)
(0.0239846 0 -0.00069127)
(0.0452517 0 -0.00131315)
(0.0631979 0 -0.001857)
(0.0781756 0 -0.00233715)
(0.0905186 0 -0.00276506)
(0.100511 0 -0.00314828)
(0.108398 0 -0.00349154)
(0.11439 0 -0.00379591)
(0.118675 0 -0.00406305)
(0.121421 0 -0.00429387)
(0.122773 0 -0.00448522)
(0.12286 0 -0.00463397)
(0.121798 0 -0.00473562)
(0.11969 0 -0.0047834)
(0.116633 0 -0.00476926)
(0.112718 0 -0.00468353)
(0.108033 0 -0.0045148)
(0.102668 0 -0.00424983)
(0.0967096 0 -0.00387289)
(0.0902625 0 -0.00336779)
(0.0834447 0 -0.00271629)
(0.076386 0 -0.00189606)
(0.0692426 0 -0.000883072)
(0.062213 0 0.000347597)
(0.055573 0 0.00181644)
(0.0497183 0 0.00352773)
(0.0451975 0 0.00544909)
(0.0427113 0 0.00748603)
(0.0439006 0 0.009192)
(0.0415819 0 0.0119315)
(0 0 0)
(0.0241013 0 -0.000921264)
(0.0454798 0 -0.00174989)
(0.063531 0 -0.00247459)
(0.0786179 0 -0.00311511)
(0.0910808 0 -0.00368671)
(0.101205 0 -0.00419951)
(0.109237 0 -0.00466051)
(0.11539 0 -0.00507187)
(0.119856 0 -0.00543477)
(0.122806 0 -0.00574997)
(0.124387 0 -0.00601387)
(0.124733 0 -0.00622334)
(0.123964 0 -0.00637347)
(0.122189 0 -0.00645557)
(0.11951 0 -0.00645991)
(0.116026 0 -0.00637486)
(0.111834 0 -0.00618688)
(0.107036 0 -0.00588064)
(0.10173 0 -0.0054379)
(0.0960326 0 -0.00483922)
(0.0900865 0 -0.00406502)
(0.0840541 0 -0.00309319)
(0.0781275 0 -0.00190109)
(0.0725626 0 -0.000471193)
(0.0676884 0 0.00120362)
(0.0639749 0 0.00310154)
(0.0621579 0 0.00512475)
(0.0631766 0 0.00705431)
(0.0685142 0 0.00824905)
(0.0690946 0 0.0107332)
(0 0 0)
(0.024245 0 -0.00115103)
(0.0457614 0 -0.00218588)
(0.0639495 0 -0.0030913)
(0.0791791 0 -0.00389287)
(0.0917951 0 -0.00460924)
(0.102087 0 -0.00525318)
(0.110303 0 -0.00583326)
(0.116659 0 -0.00635329)
(0.121353 0 -0.0068156)
(0.124561 0 -0.00722094)
(0.126434 0 -0.00756597)
(0.127109 0 -0.00784683)
(0.126711 0 -0.00805739)
(0.125355 0 -0.00818862)
(0.123153 0 -0.00823021)
(0.120212 0 -0.0081695)
(0.116641 0 -0.00799192)
(0.112553 0 -0.00768193)
(0.108071 0 -0.00722195)
(0.103318 0 -0.00659002)
(0.0984621 0 -0.00576808)
(0.0937075 0 -0.00474063)
(0.0892858 0 -0.00349212)
(0.0855101 0 -0.00202019)
(0.0827947 0 -0.000347703)
(0.0816896 0 0.00146003)
(0.0829857 0 0.0032404)
(0.0879088 0 0.00461199)
(0.0979003 0 0.00475082)
(0.101606 0 0.00658871)
(0 0 0)
(0.0244145 0 -0.00137981)
(0.0460944 0 -0.00262085)
(0.0644506 0 -0.00370793)
(0.0798556 0 -0.00467172)
(0.0926564 0 -0.00553449)
(0.103149 0 -0.00631165)
(0.111584 0 -0.00701253)
(0.118184 0 -0.00764391)
(0.123155 0 -0.00821068)
(0.126674 0 -0.0087133)
(0.128899 0 -0.00914992)
(0.12997 0 -0.00951478)
(0.130015 0 -0.00979972)
(0.129161 0 -0.00999748)
(0.127529 0 -0.0100983)
(0.125236 0 -0.0100895)
(0.1224 0 -0.00995631)
(0.119153 0 -0.00968508)
(0.115643 0 -0.00926152)
(0.112012 0 -0.00866573)
(0.108451 0 -0.00788392)
(0.105198 0 -0.00690944)
(0.102547 0 -0.00574477)
(0.100854 0 -0.00440841)
(0.100596 0 -0.00295703)
(0.10246 0 -0.00152451)
(0.107282 0 -0.000350783)
(0.116381 0 4.5725e-05)
(0.131236 0 -0.00132198)
(0.138219 0 -0.000478526)
(0 0 0)
(0.024613 0 -0.00160701)
(0.0464837 0 -0.00305356)
(0.0650331 0 -0.00432234)
(0.0806397 0 -0.00544883)
(0.0936546 0 -0.00645925)
(0.104378 0 -0.00737175)
(0.113069 0 -0.00819772)
(0.119955 0 -0.00894602)
(0.125246 0 -0.00962322)
(0.129124 0 -0.0102306)
(0.131752 0 -0.010767)
(0.133276 0 -0.0112265)
(0.13383 0 -0.0116006)
(0.133551 0 -0.0118841)
(0.132573 0 -0.0120692)
(0.131024 0 -0.0121439)
(0.129037 0 -0.0120956)
(0.126757 0 -0.0119126)
(0.124352 0 -0.0115848)
(0.121999 0 -0.0111005)
(0.119915 0 -0.0104548)
(0.118368 0 -0.0096522)
(0.117703 0 -0.00871627)
(0.118344 0 -0.00769901)
(0.12083 0 -0.00669981)
(0.125921 0 -0.00591533)
(0.134608 0 -0.00569538)
(0.148132 0 -0.00665562)
(0.16784 0 -0.00987906)
(0.178074 0 -0.0103417)
(0 0 0)
(0.0248386 0 -0.00183231)
(0.0469245 0 -0.00348279)
(0.0656897 0 -0.00493229)
(0.0815225 0 -0.00622146)
(0.0947784 0 -0.00738043)
(0.105764 0 -0.00843042)
(0.114743 0 -0.0093857)
(0.121951 0 -0.0102561)
(0.127601 0 -0.0110497)
(0.131881 0 -0.0117696)
(0.134959 0 -0.0124147)
(0.136988 0 -0.012981)
(0.138113 0 -0.0134624)
(0.13848 0 -0.0138543)
(0.138232 0 -0.0141502)
(0.137512 0 -0.0143418)
(0.136474 0 -0.0144215)
(0.13527 0 -0.0143787)
(0.134088 0 -0.0142096)
(0.133146 0 -0.0139154)
(0.132689 0 -0.0135027)
(0.133027 0 -0.0129945)
(0.134534 0 -0.0124358)
(0.137699 0 -0.0119156)
(0.143165 0 -0.0115917)
(0.151725 0 -0.0117196)
(0.164485 0 -0.0127561)
(0.182571 0 -0.0153946)
(0.207008 0 -0.020719)
(0.22036 0 -0.0226859)
(0 0 0)
(0.02509 0 -0.00205553)
(0.0474121 0 -0.00390792)
(0.066414 0 -0.00553703)
(0.0824961 0 -0.0069888)
(0.0960181 0 -0.00829726)
(0.107292 0 -0.00948681)
(0.116589 0 -0.0105746)
(0.124152 0 -0.0115726)
(0.1302 0 -0.0124901)
(0.134923 0 -0.0133311)
(0.138493 0 -0.014096)
(0.141077 0 -0.0147836)
(0.142831 0 -0.0153914)
(0.143906 0 -0.0159149)
(0.14445 0 -0.0163478)
(0.144627 0 -0.0166885)
(0.144612 0 -0.0169361)
(0.144573 0 -0.017085)
(0.14472 0 -0.0171398)
(0.145299 0 -0.0171141)
(0.146588 0 -0.0170299)
(0.148937 0 -0.0169318)
(0.152765 0 -0.0168939)
(0.15863 0 -0.0170468)
(0.167239 0 -0.0176011)
(0.179477 0 -0.0188893)
(0.196434 0 -0.0214389)
(0.219117 0 -0.0260001)
(0.248038 0 -0.0335409)
(0.264331 0 -0.0371257)
(0 0 0)
(0.025356 0 -0.00227597)
(0.0479378 0 -0.00432874)
(0.0672008 0 -0.00613695)
(0.0835545 0 -0.00775153)
(0.0973659 0 -0.00921061)
(0.108955 0 -0.0105419)
(0.118599 0 -0.0117658)
(0.126549 0 -0.0128977)
(0.133027 0 -0.0139468)
(0.138225 0 -0.014917)
(0.142327 0 -0.0158126)
(0.145506 0 -0.0166351)
(0.147928 0 -0.0173841)
(0.149755 0 -0.0180585)
(0.151149 0 -0.0186568)
(0.152285 0 -0.019181)
(0.153353 0 -0.0196357)
(0.154548 0 -0.0200261)
(0.156101 0 -0.0203669)
(0.158283 0 -0.0206842)
(0.161407 0 -0.0210192)
(0.165861 0 -0.0214412)
(0.17212 0 -0.0220569)
(0.180804 0 -0.023041)
(0.192688 0 -0.0246602)
(0.208742 0 -0.0273218)
(0.229966 0 -0.0315929)
(0.257228 0 -0.0382431)
(0.290209 0 -0.0479544)
(0.309251 0 -0.0531859)
(0 0 0)
(0.0256342 0 -0.00249337)
(0.0484978 0 -0.00474527)
(0.0680447 0 -0.00673217)
(0.0846905 0 -0.00850981)
(0.0988127 0 -0.0101207)
(0.110739 0 -0.0115959)
(0.120755 0 -0.0129591)
(0.129118 0 -0.0142283)
(0.136048 0 -0.0154133)
(0.141747 0 -0.01652)
(0.14641 0 -0.0175563)
(0.150218 0 -0.0185269)
(0.153344 0 -0.0194336)
(0.155963 0 -0.02028)
(0.158256 0 -0.0210715)
(0.160398 0 -0.0218116)
(0.162592 0 -0.0225107)
(0.165068 0 -0.0231884)
(0.168076 0 -0.0238706)
(0.171912 0 -0.0245983)
(0.176919 0 -0.0254327)
(0.183533 0 -0.0264715)
(0.192286 0 -0.0278586)
(0.203841 0 -0.029807)
(0.219076 0 -0.0326505)
(0.238977 0 -0.036847)
(0.264478 0 -0.0429913)
(0.296217 0 -0.0517995)
(0.332712 0 -0.0634911)
(0.354521 0 -0.07024)
(0 0 0)
(0.0259305 0 -0.00270746)
(0.0490907 0 -0.00515587)
(0.0689364 0 -0.00731981)
(0.0858912 0 -0.00925995)
(0.100341 0 -0.011023)
(0.112623 0 -0.0126433)
(0.123031 0 -0.0141481)
(0.131823 0 -0.0155572)
(0.139227 0 -0.0168828)
(0.145453 0 -0.0181345)
(0.150705 0 -0.0193227)
(0.15517 0 -0.0204542)
(0.159033 0 -0.0215362)
(0.162474 0 -0.0225746)
(0.165684 0 -0.0235795)
(0.168859 0 -0.0245628)
(0.172212 0 -0.0255418)
(0.175992 0 -0.026547)
(0.180475 0 -0.0276181)
(0.185978 0 -0.0288125)
(0.192877 0 -0.0302124)
(0.201652 0 -0.0319458)
(0.212888 0 -0.0341933)
(0.227313 0 -0.0372147)
(0.245856 0 -0.0413929)
(0.269495 0 -0.0472218)
(0.299173 0 -0.0553238)
(0.335091 0 -0.0662379)
(0.374555 0 -0.0796575)
(0.399791 0 -0.0877413)
(0 0 0)
(0.0262406 0 -0.00291719)
(0.0497092 0 -0.00555848)
(0.0698659 0 -0.00789698)
(0.0871434 0 -0.0099983)
(0.101936 0 -0.0119134)
(0.114589 0 -0.0136806)
(0.125407 0 -0.01533)
(0.134648 0 -0.0168831)
(0.142544 0 -0.0183549)
(0.14932 0 -0.0197602)
(0.155182 0 -0.02111)
(0.160319 0 -0.0224124)
(0.164929 0 -0.0236809)
(0.169207 0 -0.024927)
(0.173348 0 -0.0261647)
(0.17757 0 -0.0274159)
(0.18209 0 -0.0287038)
(0.187171 0 -0.0300677)
(0.193118 0 -0.0315653)
(0.200268 0 -0.0332696)
(0.209026 0 -0.0352851)
(0.219905 0 -0.037767)
(0.233537 0 -0.0409327)
(0.250712 0 -0.0450888)
(0.272332 0 -0.0506412)
(0.299417 0 -0.0581284)
(0.332884 0 -0.0681713)
(0.372375 0 -0.0810443)
(0.414339 0 -0.0960149)
(0.444971 0 -0.105363)
(0 0 0)
(0.0265622 0 -0.00312248)
(0.0503498 0 -0.00595305)
(0.0708285 0 -0.00846359)
(0.0884409 0 -0.0107247)
(0.103591 0 -0.0127919)
(0.116633 0 -0.0147081)
(0.127873 0 -0.0165048)
(0.137573 0 -0.0182045)
(0.145975 0 -0.0198268)
(0.153309 0 -0.0213894)
(0.159787 0 -0.0229059)
(0.165606 0 -0.024389)
(0.170973 0 -0.0258552)
(0.176094 0 -0.0273234)
(0.181169 0 -0.0288107)
(0.186423 0 -0.0303451)
(0.192092 0 -0.0319613)
(0.198452 0 -0.0337089)
(0.205822 0 -0.0356579)
(0.214557 0 -0.0378986)
(0.225092 0 -0.0405585)
(0.23795 0 -0.0438133)
(0.253794 0 -0.0479127)
(0.273405 0 -0.0531889)
(0.297671 0 -0.0600769)
(0.327611 0 -0.0691496)
(0.363931 0 -0.0809748)
(0.405777 0 -0.0956002)
(0.449578 0 -0.112152)
(0.490061 0 -0.122954)
(0 0 0)
(0.0268968 0 -0.00332507)
(0.051015 0 -0.00634284)
(0.0718275 0 -0.00902431)
(0.0897876 0 -0.011445)
(0.105311 0 -0.0136652)
(0.118754 0 -0.0157311)
(0.130425 0 -0.0176758)
(0.140594 0 -0.0195246)
(0.149512 0 -0.0213014)
(0.157415 0 -0.0230268)
(0.16452 0 -0.0247182)
(0.171036 0 -0.0263928)
(0.177166 0 -0.0280681)
(0.183123 0 -0.0297674)
(0.189121 0 -0.0315161)
(0.19539 0 -0.0333482)
(0.202185 0 -0.0353091)
(0.209787 0 -0.0374577)
(0.218514 0 -0.0398723)
(0.228743 0 -0.0426616)
(0.240918 0 -0.0459701)
(0.255568 0 -0.0499933)
(0.273325 0 -0.0549941)
(0.294915 0 -0.061315)
(0.321187 0 -0.0694155)
(0.35295 0 -0.0798467)
(0.390419 0 -0.0930916)
(0.432064 0 -0.109176)
(0.473932 0 -0.127669)
(0.53522 0 -0.140564)
(0 0 0)
(0.0238336 0 0)
(0.0449568 0 0)
(0.0627646 0 0)
(0.077599 0 0)
(0.0897858 0 0)
(0.0996065 0 0)
(0.107304 0 0)
(0.113087 0 0)
(0.117136 0 0)
(0.119615 0 0)
(0.120667 0 0)
(0.120415 0 0)
(0.118968 0 0)
(0.116424 0 0)
(0.112871 0 0)
(0.108391 0 0)
(0.10306 0 0)
(0.0969531 0 0)
(0.0901449 0 0)
(0.0827127 0 0)
(0.0747386 0 0)
(0.0663118 0 0)
(0.0575336 0 0)
(0.0485238 0 0)
(0.0394324 0 0)
(0.0304623 0 0)
(0.0219377 0 0)
(0.0143996 0 0)
(0.00900458 0 0)
(0 0 0)
(0 0 0)
(0.0238503 0 -0.000230221)
(0.0449889 0 -0.000437175)
(0.0628122 0 -0.000618012)
(0.0776626 0 -0.000777514)
(0.0898669 0 -0.0009194)
(0.0997069 0 -0.00104615)
(0.107426 0 -0.00115931)
(0.113233 0 -0.00125985)
(0.117307 0 -0.00134768)
(0.119816 0 -0.00142237)
(0.120901 0 -0.00148342)
(0.120688 0 -0.00152959)
(0.119284 0 -0.00155911)
(0.116789 0 -0.00156958)
(0.113292 0 -0.00155802)
(0.108875 0 -0.00152087)
(0.103617 0 -0.00145386)
(0.097593 0 -0.00135198)
(0.0908807 0 -0.00120939)
(0.08356 0 -0.00101941)
(0.0757171 0 -0.00077422)
(0.0674467 0 -0.000464526)
(0.0588577 0 -7.96065e-05)
(0.0500823 0 0.000392622)
(0.0412878 0 0.000965583)
(0.0326892 0 0.00165498)
(0.0246217 0 0.00247671)
(0.0176815 0 0.00343281)
(0.0131703 0 0.00443114)
(0.00613232 0 0.00599716)
(0 0 0)
(0.0239007 0 -0.000460889)
(0.0450875 0 -0.000875339)
(0.0629572 0 -0.00123763)
(0.0778558 0 -0.00155733)
(0.0901123 0 -0.00184195)
(0.10001 0 -0.00209648)
(0.107793 0 -0.00232391)
(0.113669 0 -0.00252483)
(0.117822 0 -0.00270045)
(0.120419 0 -0.00285146)
(0.121606 0 -0.00297563)
(0.121505 0 -0.00307055)
(0.12023 0 -0.00313289)
(0.117881 0 -0.00315796)
(0.11455 0 -0.00314003)
(0.110322 0 -0.00307223)
(0.10528 0 -0.00294637)
(0.0995043 0 -0.00275289)
(0.0930769 0 -0.00248059)
(0.0860866 0 -0.00211707)
(0.0786313 0 -0.00164792)
(0.0708195 0 -0.00105594)
(0.0627799 0 -0.000321625)
(0.0546743 0 0.000576353)
(0.0467221 0 0.00165963)
(0.039206 0 0.00294803)
(0.0325142 0 0.0044498)
(0.0272918 0 0.00613692)
(0.0251204 0 0.00776231)
(0.0201267 0 0.0102441)
(0 0 0)
(0.0239846 0 -0.00069127)
(0.0452517 0 -0.00131315)
(0.0631979 0 -0.001857)
(0.0781756 0 -0.00233715)
(0.0905186 0 -0.00276506)
(0.100511 0 -0.00314828)
(0.108398 0 -0.00349154)
(0.11439 0 -0.00379591)
(0.118675 0 -0.00406305)
(0.121421 0 -0.00429387)
(0.122773 0 -0.00448522)
(0.12286 0 -0.00463397)
(0.121798 0 -0.00473562)
(0.11969 0 -0.0047834)
(0.116633 0 -0.00476926)
(0.112718 0 -0.00468353)
(0.108033 0 -0.0045148)
(0.102668 0 -0.00424983)
(0.0967096 0 -0.00387289)
(0.0902625 0 -0.00336779)
(0.0834447 0 -0.00271629)
(0.076386 0 -0.00189606)
(0.0692426 0 -0.000883072)
(0.062213 0 0.000347597)
(0.055573 0 0.00181644)
(0.0497183 0 0.00352773)
(0.0451975 0 0.00544909)
(0.0427113 0 0.00748603)
(0.0439006 0 0.009192)
(0.0415818 0 0.0119315)
(0 0 0)
(0.0241013 0 -0.000921264)
(0.0454798 0 -0.00174989)
(0.063531 0 -0.00247459)
(0.0786179 0 -0.00311511)
(0.0910808 0 -0.00368671)
(0.101205 0 -0.00419951)
(0.109237 0 -0.00466051)
(0.11539 0 -0.00507187)
(0.119856 0 -0.00543477)
(0.122806 0 -0.00574997)
(0.124387 0 -0.00601387)
(0.124733 0 -0.00622334)
(0.123964 0 -0.00637347)
(0.122189 0 -0.00645557)
(0.11951 0 -0.00645991)
(0.116026 0 -0.00637486)
(0.111834 0 -0.00618688)
(0.107036 0 -0.00588064)
(0.10173 0 -0.0054379)
(0.0960326 0 -0.00483922)
(0.0900865 0 -0.00406502)
(0.0840541 0 -0.00309319)
(0.0781275 0 -0.00190109)
(0.0725626 0 -0.000471193)
(0.0676884 0 0.00120362)
(0.0639749 0 0.00310154)
(0.0621579 0 0.00512475)
(0.0631766 0 0.00705431)
(0.0685142 0 0.00824905)
(0.0690946 0 0.0107332)
(0 0 0)
(0.024245 0 -0.00115103)
(0.0457614 0 -0.00218588)
(0.0639495 0 -0.0030913)
(0.0791791 0 -0.00389287)
(0.0917951 0 -0.00460924)
(0.102087 0 -0.00525318)
(0.110303 0 -0.00583326)
(0.116659 0 -0.00635329)
(0.121353 0 -0.0068156)
(0.124561 0 -0.00722094)
(0.126434 0 -0.00756597)
(0.127109 0 -0.00784683)
(0.126711 0 -0.00805739)
(0.125355 0 -0.00818862)
(0.123153 0 -0.00823021)
(0.120212 0 -0.0081695)
(0.116641 0 -0.00799192)
(0.112553 0 -0.00768193)
(0.108071 0 -0.00722195)
(0.103318 0 -0.00659002)
(0.0984621 0 -0.00576808)
(0.0937075 0 -0.00474063)
(0.0892858 0 -0.00349212)
(0.0855101 0 -0.00202019)
(0.0827947 0 -0.000347703)
(0.0816896 0 0.00146003)
(0.0829857 0 0.0032404)
(0.0879088 0 0.00461199)
(0.0979003 0 0.00475082)
(0.101606 0 0.00658871)
(0 0 0)
(0.0244145 0 -0.00137981)
(0.0460944 0 -0.00262085)
(0.0644506 0 -0.00370793)
(0.0798556 0 -0.00467172)
(0.0926564 0 -0.00553449)
(0.103149 0 -0.00631165)
(0.111584 0 -0.00701253)
(0.118184 0 -0.00764391)
(0.123155 0 -0.00821068)
(0.126674 0 -0.0087133)
(0.128899 0 -0.00914992)
(0.12997 0 -0.00951478)
(0.130015 0 -0.00979972)
(0.129161 0 -0.00999748)
(0.127529 0 -0.0100983)
(0.125236 0 -0.0100895)
(0.1224 0 -0.00995631)
(0.119153 0 -0.00968508)
(0.115643 0 -0.00926152)
(0.112012 0 -0.00866573)
(0.108451 0 -0.00788392)
(0.105198 0 -0.00690944)
(0.102547 0 -0.00574477)
(0.100854 0 -0.00440841)
(0.100596 0 -0.00295703)
(0.10246 0 -0.00152451)
(0.107282 0 -0.000350783)
(0.116381 0 4.5725e-05)
(0.131236 0 -0.00132198)
(0.138219 0 -0.000478526)
(0 0 0)
(0.024613 0 -0.00160701)
(0.0464837 0 -0.00305356)
(0.0650331 0 -0.00432234)
(0.0806397 0 -0.00544883)
(0.0936546 0 -0.00645925)
(0.104378 0 -0.00737175)
(0.113069 0 -0.00819772)
(0.119955 0 -0.00894602)
(0.125246 0 -0.00962322)
(0.129124 0 -0.0102306)
(0.131752 0 -0.010767)
(0.133276 0 -0.0112265)
(0.13383 0 -0.0116006)
(0.133551 0 -0.0118841)
(0.132573 0 -0.0120692)
(0.131024 0 -0.0121439)
(0.129037 0 -0.0120956)
(0.126757 0 -0.0119126)
(0.124352 0 -0.0115848)
(0.121999 0 -0.0111005)
(0.119915 0 -0.0104548)
(0.118368 0 -0.0096522)
(0.117703 0 -0.00871627)
(0.118344 0 -0.00769901)
(0.12083 0 -0.00669981)
(0.125921 0 -0.00591533)
(0.134608 0 -0.00569538)
(0.148132 0 -0.00665562)
(0.16784 0 -0.00987906)
(0.178074 0 -0.0103417)
(0 0 0)
(0.0248386 0 -0.00183231)
(0.0469245 0 -0.00348279)
(0.0656897 0 -0.00493229)
(0.0815225 0 -0.00622146)
(0.0947784 0 -0.00738043)
(0.105764 0 -0.00843042)
(0.114743 0 -0.0093857)
(0.121951 0 -0.0102561)
(0.127601 0 -0.0110497)
(0.131881 0 -0.0117696)
(0.134959 0 -0.0124147)
(0.136988 0 -0.012981)
(0.138113 0 -0.0134624)
(0.13848 0 -0.0138543)
(0.138232 0 -0.0141502)
(0.137512 0 -0.0143418)
(0.136474 0 -0.0144215)
(0.13527 0 -0.0143787)
(0.134088 0 -0.0142096)
(0.133146 0 -0.0139154)
(0.132689 0 -0.0135027)
(0.133027 0 -0.0129945)
(0.134534 0 -0.0124358)
(0.137699 0 -0.0119156)
(0.143165 0 -0.0115917)
(0.151725 0 -0.0117196)
(0.164485 0 -0.0127561)
(0.182571 0 -0.0153946)
(0.207008 0 -0.020719)
(0.22036 0 -0.0226859)
(0 0 0)
(0.02509 0 -0.00205553)
(0.0474121 0 -0.00390792)
(0.066414 0 -0.00553703)
(0.0824961 0 -0.0069888)
(0.0960181 0 -0.00829726)
(0.107292 0 -0.00948681)
(0.116589 0 -0.0105746)
(0.124152 0 -0.0115726)
(0.1302 0 -0.0124901)
(0.134923 0 -0.0133311)
(0.138493 0 -0.014096)
(0.141077 0 -0.0147836)
(0.142831 0 -0.0153914)
(0.143906 0 -0.0159149)
(0.14445 0 -0.0163478)
(0.144627 0 -0.0166885)
(0.144612 0 -0.0169361)
(0.144573 0 -0.017085)
(0.14472 0 -0.0171398)
(0.145299 0 -0.0171141)
(0.146588 0 -0.0170299)
(0.148937 0 -0.0169318)
(0.152765 0 -0.0168939)
(0.15863 0 -0.0170468)
(0.167239 0 -0.0176011)
(0.179477 0 -0.0188893)
(0.196434 0 -0.0214389)
(0.219117 0 -0.0260001)
(0.248038 0 -0.0335409)
(0.264331 0 -0.0371257)
(0 0 0)
(0.025356 0 -0.00227597)
(0.0479378 0 -0.00432874)
(0.0672008 0 -0.00613695)
(0.0835545 0 -0.00775153)
(0.0973659 0 -0.00921061)
(0.108955 0 -0.0105419)
(0.118599 0 -0.0117658)
(0.126549 0 -0.0128977)
(0.133027 0 -0.0139468)
(0.138225 0 -0.014917)
(0.142327 0 -0.0158126)
(0.145506 0 -0.0166351)
(0.147928 0 -0.0173841)
(0.149755 0 -0.0180585)
(0.151149 0 -0.0186568)
(0.152285 0 -0.019181)
(0.153353 0 -0.0196357)
(0.154548 0 -0.0200261)
(0.156101 0 -0.0203669)
(0.158283 0 -0.0206842)
(0.161407 0 -0.0210192)
(0.165861 0 -0.0214412)
(0.17212 0 -0.0220569)
(0.180804 0 -0.023041)
(0.192688 0 -0.0246602)
(0.208742 0 -0.0273218)
(0.229966 0 -0.0315929)
(0.257228 0 -0.0382431)
(0.290209 0 -0.0479544)
(0.309251 0 -0.0531859)
(0 0 0)
(0.0256342 0 -0.00249337)
(0.0484978 0 -0.00474527)
(0.0680447 0 -0.00673217)
(0.0846905 0 -0.00850981)
(0.0988127 0 -0.0101207)
(0.110739 0 -0.0115959)
(0.120755 0 -0.0129591)
(0.129118 0 -0.0142283)
(0.136048 0 -0.0154133)
(0.141747 0 -0.01652)
(0.14641 0 -0.0175563)
(0.150218 0 -0.0185269)
(0.153344 0 -0.0194336)
(0.155963 0 -0.02028)
(0.158256 0 -0.0210715)
(0.160398 0 -0.0218116)
(0.162592 0 -0.0225107)
(0.165068 0 -0.0231884)
(0.168076 0 -0.0238706)
(0.171912 0 -0.0245983)
(0.176919 0 -0.0254327)
(0.183533 0 -0.0264715)
(0.192286 0 -0.0278586)
(0.203841 0 -0.029807)
(0.219076 0 -0.0326505)
(0.238977 0 -0.036847)
(0.264478 0 -0.0429913)
(0.296217 0 -0.0517995)
(0.332712 0 -0.0634911)
(0.354521 0 -0.07024)
(0 0 0)
(0.0259305 0 -0.00270746)
(0.0490907 0 -0.00515587)
(0.0689364 0 -0.00731981)
(0.0858912 0 -0.00925995)
(0.100341 0 -0.011023)
(0.112623 0 -0.0126433)
(0.123031 0 -0.0141481)
(0.131823 0 -0.0155572)
(0.139227 0 -0.0168828)
(0.145453 0 -0.0181345)
(0.150705 0 -0.0193227)
(0.15517 0 -0.0204542)
(0.159033 0 -0.0215362)
(0.162474 0 -0.0225746)
(0.165684 0 -0.0235795)
(0.168859 0 -0.0245628)
(0.172212 0 -0.0255418)
(0.175992 0 -0.026547)
(0.180475 0 -0.0276181)
(0.185978 0 -0.0288125)
(0.192877 0 -0.0302124)
(0.201652 0 -0.0319458)
(0.212888 0 -0.0341933)
(0.227313 0 -0.0372147)
(0.245856 0 -0.0413929)
(0.269495 0 -0.0472218)
(0.299173 0 -0.0553238)
(0.335091 0 -0.0662379)
(0.374555 0 -0.0796575)
(0.399791 0 -0.0877413)
(0 0 0)
(0.0262406 0 -0.00291719)
(0.0497092 0 -0.00555848)
(0.0698659 0 -0.00789698)
(0.0871434 0 -0.0099983)
(0.101936 0 -0.0119134)
(0.114589 0 -0.0136806)
(0.125407 0 -0.01533)
(0.134648 0 -0.0168831)
(0.142544 0 -0.0183549)
(0.14932 0 -0.0197602)
(0.155182 0 -0.02111)
(0.160319 0 -0.0224124)
(0.164929 0 -0.0236809)
(0.169207 0 -0.024927)
(0.173348 0 -0.0261647)
(0.17757 0 -0.0274159)
(0.18209 0 -0.0287038)
(0.187171 0 -0.0300677)
(0.193118 0 -0.0315653)
(0.200268 0 -0.0332696)
(0.209026 0 -0.0352851)
(0.219905 0 -0.037767)
(0.233537 0 -0.0409327)
(0.250712 0 -0.0450888)
(0.272332 0 -0.0506412)
(0.299417 0 -0.0581284)
(0.332884 0 -0.0681713)
(0.372375 0 -0.0810443)
(0.414339 0 -0.0960149)
(0.444971 0 -0.105363)
(0 0 0)
(0.0265622 0 -0.00312248)
(0.0503498 0 -0.00595305)
(0.0708285 0 -0.00846359)
(0.0884409 0 -0.0107247)
(0.103591 0 -0.0127919)
(0.116633 0 -0.0147081)
(0.127873 0 -0.0165048)
(0.137573 0 -0.0182045)
(0.145975 0 -0.0198268)
(0.153309 0 -0.0213894)
(0.159787 0 -0.0229059)
(0.165606 0 -0.024389)
(0.170973 0 -0.0258552)
(0.176094 0 -0.0273234)
(0.181169 0 -0.0288107)
(0.186423 0 -0.0303451)
(0.192092 0 -0.0319613)
(0.198452 0 -0.0337089)
(0.205822 0 -0.0356579)
(0.214557 0 -0.0378986)
(0.225092 0 -0.0405585)
(0.23795 0 -0.0438133)
(0.253794 0 -0.0479127)
(0.273405 0 -0.0531889)
(0.297671 0 -0.0600769)
(0.327611 0 -0.0691496)
(0.363931 0 -0.0809748)
(0.405777 0 -0.0956002)
(0.449578 0 -0.112152)
(0.490061 0 -0.122954)
(0 0 0)
(0.0268968 0 -0.00332507)
(0.051015 0 -0.00634284)
(0.0718275 0 -0.00902431)
(0.0897876 0 -0.011445)
(0.105311 0 -0.0136652)
(0.118754 0 -0.0157311)
(0.130425 0 -0.0176758)
(0.140594 0 -0.0195246)
(0.149512 0 -0.0213014)
(0.157415 0 -0.0230268)
(0.16452 0 -0.0247182)
(0.171036 0 -0.0263928)
(0.177166 0 -0.0280681)
(0.183123 0 -0.0297674)
(0.189121 0 -0.0315161)
(0.19539 0 -0.0333482)
(0.202185 0 -0.0353091)
(0.209787 0 -0.0374577)
(0.218514 0 -0.0398723)
(0.228743 0 -0.0426616)
(0.240918 0 -0.0459701)
(0.255568 0 -0.0499933)
(0.273325 0 -0.0549941)
(0.294915 0 -0.061315)
(0.321187 0 -0.0694155)
(0.35295 0 -0.0798467)
(0.390419 0 -0.0930916)
(0.432064 0 -0.109176)
(0.473932 0 -0.127669)
(0.53522 0 -0.140564)
(0 0 0)
(0.017323 0 0)
(0.0397261 0 0)
(0.0803113 0 0)
(0.135296 0 0)
(0.193091 0 0)
(0.242778 0 0)
(0.280601 0 0)
(0.307944 0 0)
(0.327242 0 0)
(0.340421 0 0)
(0.34885 0 0)
(0.353466 0 0)
(0.354902 0 0)
(0.353574 0 0)
(0.349738 0 0)
(0.343539 0 0)
(0.335051 0 0)
(0.324298 0 0)
(0.311271 0 0)
(0.295934 0 0)
(0.278235 0 0)
(0.258106 0 0)
(0.23547 0 0)
(0.210241 0 0)
(0.182332 0 0)
(0.151651 0 0)
(0.118104 0 0)
(0.0816068 0 0)
(0.0420204 0 0)
(0 0 0)
(0.00505766 0 -0.00691052)
(0.0214624 0 -0.00815724)
(0.0444827 0 -0.0104328)
(0.0852681 0 -0.0132891)
(0.139822 0 -0.0160812)
(0.196712 0 -0.0180514)
(0.245456 0 -0.0189169)
(0.282574 0 -0.0189706)
(0.309428 0 -0.0185459)
(0.328377 0 -0.0178261)
(0.341304 0 -0.0169382)
(0.349547 0 -0.0159534)
(0.354023 0 -0.0149158)
(0.355354 0 -0.0138652)
(0.353944 0 -0.0128381)
(0.350045 0 -0.011859)
(0.343795 0 -0.0109278)
(0.335266 0 -0.010044)
(0.32448 0 -0.00920461)
(0.311425 0 -0.00840497)
(0.296066 0 -0.00763906)
(0.278348 0 -0.00690007)
(0.258203 0 -0.0061806)
(0.235554 0 -0.00547264)
(0.210315 0 -0.00476761)
(0.182396 0 -0.00405612)
(0.151706 0 -0.00332786)
(0.118151 0 -0.00257125)
(0.0816454 0 -0.00177317)
(0.0420472 0 -0.00091688)
(0 0 0)
(0.0169026 0 -0.0140608)
(0.033489 0 -0.0167528)
(0.0583143 0 -0.0212742)
(0.0997397 0 -0.0267639)
(0.153087 0 -0.0319464)
(0.20736 0 -0.0354648)
(0.253399 0 -0.036978)
(0.288448 0 -0.0370277)
(0.313843 0 -0.0361819)
(0.331754 0 -0.0347809)
(0.343927 0 -0.0330614)
(0.351613 0 -0.0311672)
(0.355673 0 -0.0291798)
(0.356687 0 -0.0271598)
(0.355034 0 -0.0251769)
(0.350944 0 -0.0232847)
(0.344543 0 -0.0214814)
(0.335891 0 -0.0197656)
(0.325004 0 -0.0181322)
(0.311867 0 -0.0165723)
(0.29644 0 -0.0150746)
(0.278665 0 -0.0136265)
(0.258473 0 -0.0122138)
(0.235784 0 -0.0108211)
(0.210511 0 -0.00943175)
(0.182563 0 -0.00802766)
(0.151846 0 -0.00658865)
(0.118264 0 -0.00509207)
(0.0817298 0 -0.00351222)
(0.0420955 0 -0.00181627)
(0 0 0)
(0.0354576 0 -0.0220486)
(0.0524523 0 -0.0261756)
(0.0798894 0 -0.0329007)
(0.122087 0 -0.0407013)
(0.1734 0 -0.0476551)
(0.223745 0 -0.0521574)
(0.265808 0 -0.0540031)
(0.29774 0 -0.0539143)
(0.320884 0 -0.0526297)
(0.337168 0 -0.0505972)
(0.348147 0 -0.048119)
(0.354942 0 -0.0453951)
(0.35833 0 -0.0425412)
(0.358835 0 -0.0396518)
(0.356792 0 -0.0368231)
(0.352395 0 -0.0341077)
(0.345747 0 -0.0315116)
(0.336895 0 -0.0290338)
(0.325845 0 -0.0266675)
(0.312574 0 -0.0244008)
(0.297035 0 -0.0222184)
(0.279168 0 -0.0201024)
(0.258899 0 -0.0180328)
(0.236146 0 -0.0159878)
(0.210817 0 -0.0139435)
(0.182821 0 -0.0118737)
(0.15206 0 -0.00974913)
(0.118436 0 -0.00753685)
(0.0818553 0 -0.00519941)
(0.0421658 0 -0.00268885)
(0 0 0)
(0.059639 0 -0.0313722)
(0.0773826 0 -0.0368031)
(0.107771 0 -0.0455981)
(0.15048 0 -0.0552497)
(0.198948 0 -0.0633038)
(0.24448 0 -0.0682398)
(0.281748 0 -0.0700836)
(0.309846 0 -0.0696983)
(0.33015 0 -0.0679266)
(0.344338 0 -0.0652866)
(0.353753 0 -0.0621026)
(0.359367 0 -0.0586022)
(0.36187 0 -0.0549628)
(0.361706 0 -0.051311)
(0.359142 0 -0.0477386)
(0.354332 0 -0.0442906)
(0.347352 0 -0.0409817)
(0.33823 0 -0.037813)
(0.326959 0 -0.0347768)
(0.313506 0 -0.0318588)
(0.297818 0 -0.0290406)
(0.279826 0 -0.0263)
(0.259453 0 -0.0236122)
(0.236612 0 -0.0209496)
(0.211209 0 -0.0182821)
(0.183148 0 -0.015576)
(0.152329 0 -0.0127938)
(0.118648 0 -0.00989315)
(0.0820088 0 -0.00682573)
(0.0422503 0 -0.00352975)
(0 0 0)
(0.0886829 0 -0.0423505)
(0.107352 0 -0.0488792)
(0.140591 0 -0.0594873)
(0.183205 0 -0.0703936)
(0.228072 0 -0.0788674)
(0.268206 0 -0.0837017)
(0.300221 0 -0.0852258)
(0.324071 0 -0.0843984)
(0.341138 0 -0.0820759)
(0.352881 0 -0.0788082)
(0.360451 0 -0.0749459)
(0.364684 0 -0.0707496)
(0.366148 0 -0.0664311)
(0.365186 0 -0.0621194)
(0.361994 0 -0.0578945)
(0.356681 0 -0.0538019)
(0.349296 0 -0.0498606)
(0.339843 0 -0.0460729)
(0.328302 0 -0.0424307)
(0.314625 0 -0.0389186)
(0.298752 0 -0.0355152)
(0.280607 0 -0.0321953)
(0.260106 0 -0.0289298)
(0.237158 0 -0.0256864)
(0.211665 0 -0.0224294)
(0.183525 0 -0.0191186)
(0.152635 0 -0.0157091)
(0.118888 0 -0.0121501)
(0.0821795 0 -0.0083834)
(0.042343 0 -0.00433477)
(0 0 0)
(0.121904 0 -0.0550867)
(0.141502 0 -0.062452)
(0.177118 0 -0.0744936)
(0.218773 0 -0.0859834)
(0.259311 0 -0.0942095)
(0.293676 0 -0.0984538)
(0.320239 0 -0.0993636)
(0.339641 0 -0.0979425)
(0.353255 0 -0.0950075)
(0.362359 0 -0.091106)
(0.36794 0 -0.0866204)
(0.370681 0 -0.0818329)
(0.371003 0 -0.0769392)
(0.369146 0 -0.0720601)
(0.365244 0 -0.0672726)
(0.359359 0 -0.0626213)
(0.351509 0 -0.0581264)
(0.341677 0 -0.0537912)
(0.329823 0 -0.0496075)
(0.315888 0 -0.0455587)
(0.299802 0 -0.0416218)
(0.281479 0 -0.0377687)
(0.260831 0 -0.0339673)
(0.237759 0 -0.0301812)
(0.212161 0 -0.02637)
(0.183932 0 -0.022488)
(0.152963 0 -0.0184836)
(0.119141 0 -0.0142984)
(0.0823576 0 -0.0098658)
(0.0424385 0 -0.00510038)
(0 0 0)
(0.158652 0 -0.0694741)
(0.179014 0 -0.0773914)
(0.216216 0 -0.0903663)
(0.255872 0 -0.101734)
(0.29141 0 -0.109107)
(0.3198 0 -0.112358)
(0.340887 0 -0.112404)
(0.355815 0 -0.110252)
(0.365932 0 -0.106661)
(0.372369 0 -0.102166)
(0.375937 0 -0.0971446)
(0.377139 0 -0.0918593)
(0.376259 0 -0.0864824)
(0.373449 0 -0.0811269)
(0.368781 0 -0.0758645)
(0.362275 0 -0.0707376)
(0.353917 0 -0.0657661)
(0.343668 0 -0.0609535)
(0.331469 0 -0.0562916)
(0.31725 0 -0.0517634)
(0.300928 0 -0.0473446)
(0.28241 0 -0.0430051)
(0.261598 0 -0.0387101)
(0.238389 0 -0.0344204)
(0.212677 0 -0.0300916)
(0.184351 0 -0.0256731)
(0.153296 0 -0.0211077)
(0.119395 0 -0.0163305)
(0.0825342 0 -0.0112675)
(0.0425319 0 -0.00582372)
(0 0 0)
(0.198286 0 -0.0853056)
(0.219114 0 -0.0934371)
(0.256854 0 -0.106745)
(0.29337 0 -0.117292)
(0.323302 0 -0.123292)
(0.345633 0 -0.125239)
(0.361357 0 -0.124242)
(0.371937 0 -0.121271)
(0.378681 0 -0.117028)
(0.382556 0 -0.112004)
(0.384164 0 -0.106533)
(0.383836 0 -0.100837)