/*--------------------------------*- C++ -*----------------------------------*\
| =========                 |                                                 |
| \\      /  F ield         | OpenFOAM: The Open Source CFD Toolbox           |
|  \\    /   O peration     | Version:  4.1                                   |
|   \\  /    A nd           | Web:      www.OpenFOAM.org                      |
|    \\/     M anipulation  |                                                 |
\*---------------------------------------------------------------------------*/
FoamFile
{
    version     2.0;
    format      ascii;
    class       volVectorField;
    location    "1.4";
    object      U;
}
// * * * * * * * * * * * * * * * * * * * * * * * * * * * * * * * * * * * * * //

dimensions      [0 1 -1 0 0 0 0];

internalField   nonuniform List<vector> 
2790
(
(9.93675 0 0.0189269)
(9.86985 -2.96606e-19 0.0251356)
(9.77937 0 0.0288684)
(9.6728 0 0.0328501)
(9.5557 1.64871e-19 0.0370137)
(9.42892 0 0.0412699)
(9.29176 8.88442e-20 0.0457257)
(9.14362 0 0.0505197)
(8.98386 0 0.0557753)
(8.81154 0 0.0615955)
(8.62585 0 0.0680752)
(8.42576 0 0.0753336)
(8.20996 -2.85375e-20 0.0835169)
(7.97701 2.41269e-19 0.0927877)
(7.72532 -2.49374e-19 0.10333)
(7.45312 0 0.115355)
(7.15843 0 0.129103)
(6.83913 -1.47075e-19 0.144844)
(6.49292 0 0.162881)
(6.11737 -6.68443e-19 0.183542)
(5.71 1.05028e-18 0.207187)
(5.26831 0 0.23419)
(4.78988 0 0.264945)
(4.27255 -8.65569e-19 0.299843)
(3.71446 3.76839e-18 0.339252)
(3.11433 -4.012e-18 0.383338)
(2.47153 0 0.431524)
(1.78662 2.40437e-18 0.480405)
(1.04688 -7.66846e-18 0.515062)
(0.415212 0 0.39793)
(10.0018 5.73703e-19 0.0353655)
(9.99588 8.46253e-19 0.0489489)
(9.96836 3.79283e-20 0.0578897)
(9.92265 7.86246e-20 0.0678057)
(9.86326 2.43741e-19 0.07859)
(9.79133 1.6805e-19 0.0899767)
(9.70641 -2.60229e-19 0.102168)
(9.60809 -1.79668e-19 0.11547)
(9.49584 -1.86288e-19 0.130167)
(9.36894 0 0.146508)
(9.22668 4.04725e-19 0.16474)
(9.06807 -3.11227e-19 0.185163)
(8.89188 9.05461e-19 0.208133)
(8.69677 1.37277e-20 0.234049)
(8.48123 -1.90131e-18 0.263358)
(8.24352 4.54604e-20 0.296563)
(7.98171 2.08632e-18 0.334227)
(7.69365 -9.48799e-19 0.376963)
(7.37699 2.87557e-19 0.425421)
(7.02915 0 0.480273)
(6.64734 2.27247e-18 0.542176)
(6.22863 7.29727e-19 0.611726)
(5.76985 -2.86097e-18 0.689394)
(5.26766 7.6882e-19 0.775461)
(4.71829 -4.97566e-18 0.869939)
(4.1173 6.94851e-18 0.972411)
(3.45824 0 1.08165)
(2.72973 4.0183e-18 1.19555)
(1.88689 1.27368e-20 1.31691)
(1.06586 0 1.43805)
(9.99918 -5.72924e-19 0.0333991)
(9.99092 -6.60783e-19 0.05296)
(9.96611 7.55963e-20 0.0683537)
(9.92542 6.2438e-19 0.0848613)
(9.8721 -3.22701e-19 0.102763)
(9.80735 -3.33456e-19 0.121844)
(9.73097 1.7239e-19 0.142363)
(9.64261 5.36727e-19 0.16475)
(9.5418 -1.80416e-19 0.189437)
(9.42791 -1.1505e-18 0.216819)
(9.30038 1.38999e-18 0.247316)
(9.15838 -9.23375e-20 0.281433)
(9.00086 -8.51082e-19 0.319753)
(8.82668 -8.42835e-19 0.362932)
(8.63451 9.21941e-19 0.411722)
(8.42287 6.02254e-20 0.466976)
(8.19004 1.26206e-19 0.529659)
(7.9341 0 0.600842)
(7.65289 -2.51495e-18 0.681691)
(7.34396 2.30375e-18 0.773452)
(7.00451 4.92722e-18 0.877426)
(6.63136 -5.72937e-18 0.994914)
(6.22081 0 1.12714)
(5.7684 -1.00749e-17 1.2752)
(5.26841 1.04153e-17 1.44007)
(4.71297 0 1.62289)
(4.09029 -1.01822e-17 1.82566)
(3.38139 1.23511e-17 2.05325)
(2.54849 3.1812e-17 2.3117)
(1.56035 -7.76026e-17 2.72329)
(9.99734 0 0.0347366)
(9.98663 0 0.0617322)
(9.96158 -1.51044e-19 0.0848053)
(9.92191 -4.67144e-19 0.108161)
(9.86991 0 0.132799)
(9.80678 0 0.15887)
(9.73253 6.86044e-19 0.186764)
(9.6469 -3.52526e-19 0.217051)
(9.5495 -7.35644e-19 0.250317)
(9.43986 1.51691e-18 0.287098)
(9.31757 -5.84505e-19 0.327966)
(9.18198 0 0.373607)
(9.03232 -1.70241e-18 0.424805)
(8.86769 1.68871e-18 0.482445)
(8.6871 -1.83974e-18 0.547542)
(8.48941 1.88446e-18 0.62126)
(8.27333 3.8663e-18 0.704929)
(8.03739 -4.09091e-18 0.800064)
(7.77994 0 0.908355)
(7.49903 4.53312e-18 1.03167)
(7.19233 -4.65366e-18 1.17207)
(6.85706 -1.21969e-18 1.33181)
(6.4897 0 1.5133)
(6.08572 -1.34894e-18 1.71923)
(5.63889 0 1.95263)
(5.14018 1.17937e-17 2.21754)
(4.57663 -3.97756e-17 2.52042)
(3.924 2.52835e-17 2.87697)
(3.2108 0 3.2578)
(2.08601 7.45781e-18 3.98774)
(9.99638 0 0.0376029)
(9.98411 0 0.0704602)
(9.95867 0 0.0998999)
(9.91974 3.10364e-19 0.129218)
(9.86892 -3.18503e-19 0.159909)
(9.80723 0 0.192476)
(9.73477 -3.40394e-19 0.227414)
(9.65133 0 0.265364)
(9.5566 3.63415e-19 0.307004)
(9.45024 -3.80221e-19 0.352976)
(9.33187 2.72364e-18 0.403967)
(9.20098 -1.59937e-18 0.460786)
(9.05697 -1.67852e-18 0.524364)
(8.89916 1.71706e-18 0.595755)
(8.72679 -1.80717e-18 0.676166)
(8.53905 -2.0218e-18 0.766992)
(8.33502 4.08136e-18 0.869842)
(8.11367 0 0.986574)
(7.87386 -3.69706e-18 1.11932)
(7.61427 4.85726e-18 1.27047)
(7.33324 -1.12478e-18 1.4428)
(7.02872 1.06687e-17 1.63951)
(6.69799 -1.06644e-18 1.86427)
(6.33734 -1.0081e-17 2.12144)
(5.94159 0 2.41648)
(5.5031 2.18332e-17 2.75654)
(5.01253 1.29821e-19 3.15064)
(4.43321 -2.26483e-17 3.6289)
(3.92188 -1.7467e-19 4.07547)
(2.68173 0 5.10558)
(9.99588 0 0.0412321)
(9.98272 0 0.0792791)
(9.95716 2.99427e-19 0.114697)
(9.91907 -3.07427e-19 0.150012)
(9.86965 3.15789e-19 0.186841)
(9.80969 3.26342e-19 0.225924)
(9.73933 -6.74356e-19 0.26785)
(9.65841 4.19161e-21 0.313319)
(9.56669 -7.16101e-19 0.36308)
(9.46389 -2.23681e-18 0.417876)
(9.34971 7.59767e-19 0.478508)
(9.22373 0 0.545899)
(9.08547 -2.04814e-19 0.621105)
(8.93443 -2.11932e-19 0.705323)
(8.77005 -3.4371e-18 0.799921)
(8.59173 3.62294e-18 0.906481)
(8.39887 3.6901e-18 1.02683)
(8.19081 -4.13407e-18 1.16309)
(7.96684 -4.92726e-21 1.31775)
(7.7262 8.47726e-18 1.49367)
(7.46795 -1.63449e-17 1.6942)
(7.19086 8.95893e-18 1.92336)
(6.89331 1.17405e-18 2.18596)
(6.57301 0 2.48787)
(6.22676 0 2.83639)
(5.8496 -2.01716e-17 3.24124)
(5.44054 2.15976e-17 3.71053)
(4.9367 0 4.29516)
(4.66653 3.89708e-17 4.745)
(3.32998 -1.12614e-18 6.01906)
(9.99564 0 0.0452542)
(9.98208 1.44584e-19 0.0881839)
(9.95669 1.49379e-19 0.129203)
(9.9196 1.28215e-21 0.170289)
(9.87176 3.13995e-19 0.213025)
(9.81379 0 0.258327)
(9.74584 6.70739e-19 0.306907)
(9.66781 1.38521e-18 0.359534)
(9.57952 7.22125e-19 0.417027)
(9.48076 -1.82762e-18 0.480222)
(9.37129 3.79811e-19 0.550016)
(9.25079 -1.57485e-18 0.62743)
(9.11892 -1.04088e-18 0.713618)
(8.97528 1.67215e-19 0.809893)
(8.81951 3.32254e-18 0.917756)
(8.6512 3.53788e-18 1.03893)
(8.47 -3.77992e-18 1.17543)
(8.27557 2.3937e-19 1.32957)
(8.06757 -8.42636e-18 1.50409)
(7.84572 -6.20289e-19 1.70223)
(7.60974 8.33189e-18 1.92781)
(7.35926 9.75174e-18 2.18547)
(7.09382 -8.8133e-18 2.4809)
(6.81277 -1.93126e-17 2.82107)
(6.51534 1.83781e-17 3.21451)
(6.19894 -1.14392e-18 3.67253)
(5.87483 1.72272e-17 4.19827)
(5.4407 -1.81009e-17 4.87146)
(5.41185 0 5.27776)
(3.9956 3.5959e-17 6.72188)
(9.99557 7.01574e-20 0.0494505)
(9.98194 2.22458e-18 0.0970635)
(9.957 1.47781e-18 0.143332)
(9.9211 -3.03888e-19 0.189916)
(9.87504 -6.26392e-19 0.238324)
(9.81933 -6.43358e-19 0.289594)
(9.75411 6.63185e-19 0.344545)
(9.67934 0 0.404013)
(9.59491 1.41579e-18 0.468876)
(9.50067 -7.17992e-19 0.540045)
(9.39645 0 0.618502)
(9.28204 -1.55096e-18 0.705347)
(9.1572 1.18276e-18 0.801821)
(9.0217 0 0.909335)
(8.8753 2.10496e-19 1.02949)
(8.71781 -3.45401e-18 1.16414)
(8.54908 3.57164e-18 1.31541)
(8.36907 -5.75327e-20 1.4858)
(8.1778 0 1.67823)
(7.97542 0 1.89619)
(7.76223 4.98788e-19 2.14388)
(7.53869 -9.3131e-18 2.42638)
(7.30544 2.5228e-17 2.74994)
(7.06342 -1.53948e-17 3.12216)
(6.81427 -1.71574e-17 3.55216)
(6.5568 3.5102e-17 4.0523)
(6.3167 7.58966e-19 4.61691)
(5.94386 -1.61126e-17 5.36028)
(6.12828 0 5.70108)
(4.6481 0 7.24382)
(9.9956 0 0.0536853)
(9.98216 -5.79593e-21 0.105806)
(9.95792 -1.17762e-18 0.157009)
(9.9234 -1.20818e-18 0.208805)
(9.87934 0 0.262631)
(9.82615 0 0.319591)
(9.76398 -6.59444e-19 0.380594)
(9.69284 -1.35189e-18 0.446539)
(9.61268 0 0.518362)
(9.52342 0 0.597036)
(9.42496 7.47168e-19 0.68361)
(9.31719 -2.26769e-18 0.779247)
(9.19999 0 0.885265)
(9.07328 0 1.00315)
(8.93698 3.53164e-18 1.1346)
(8.79107 -6.80513e-18 1.28152)
(8.63562 -3.55655e-18 1.44616)
(8.47088 7.087e-18 1.63114)
(8.2972 7.34809e-18 1.83951)
(8.11515 7.42719e-20 2.07495)
(7.92556 -8.15293e-18 2.34188)
(7.72962 0 2.64569)
(7.52903 1.59096e-17 2.99291)
(7.32605 -3.24425e-17 3.39147)
(7.12437 1.594e-17 3.85046)
(6.92301 1.56651e-17 4.3832)
(6.76276 -1.6212e-17 4.97278)
(6.44354 0 5.76866)
(6.79787 -2.49852e-17 6.04684)
(5.27039 2.84159e-17 7.6334)
(9.99571 2.21796e-18 0.0578672)
(9.98264 -2.90816e-19 0.114315)
(9.95931 2.91965e-19 0.170156)
(9.92635 6.0576e-19 0.226868)
(9.88447 -2.46894e-18 0.28583)
(9.83404 6.33161e-19 0.348176)
(9.77521 0 0.414886)
(9.70802 -1.34019e-18 0.48692)
(9.63249 2.75556e-18 0.565266)
(9.54862 1.19981e-20 0.650943)
(9.45637 6.08889e-21 0.745053)
(9.35574 7.49145e-19 0.848811)
(9.24672 -3.08404e-18 0.963584)
(9.12937 -3.19569e-20 1.09092)
(9.0038 6.06178e-18 1.23256)
(8.87016 -9.9668e-18 1.39053)
(8.72873 6.76189e-18 1.5671)
(8.58002 -6.87901e-18 1.76496)
(8.4247 7.56978e-18 1.98728)
(8.26375 -2.24445e-19 2.23783)
(8.09852 0 2.52117)
(7.93083 -1.53696e-17 2.84282)
(7.76331 1.49509e-17 3.20948)
(7.59923 -1.489e-17 3.62917)
(7.44401 -1.67144e-18 4.11059)
(7.29569 2.55123e-19 4.66833)
(7.20906 1.37553e-17 5.27361)
(6.93814 2.43081e-17 6.10617)
(7.41613 -2.39547e-17 6.34473)
(5.8588 -2.58276e-17 7.94497)
(9.99591 -4.41765e-18 0.0619245)
(9.98335 -6.67287e-21 0.122505)
(9.96109 -2.31967e-18 0.18271)
(9.92984 1.19534e-18 0.244035)
(9.89032 1.22785e-18 0.307825)
(9.84286 0 0.375231)
(9.78759 -1.28944e-18 0.447283)
(9.72462 2.65217e-18 0.524996)
(9.65403 0 0.609392)
(9.57588 0 0.701532)
(9.49023 -3.59521e-18 0.802557)
(9.39717 2.19315e-18 0.913724)
(9.2968 -7.49739e-19 1.03643)
(9.1893 0 1.17226)
(9.07497 0 1.32301)
(8.95415 -6.48874e-18 1.49073)
(8.82735 5.74914e-18 1.67775)
(8.6953 -8.35143e-19 1.88676)
(8.55896 -4.31007e-19 2.12098)
(8.4197 -6.41518e-19 2.38423)
(8.27936 0 2.68111)
(8.14032 1.3171e-18 3.0172)
(8.00606 0 3.3993)
(7.8806 1.21227e-17 3.8354)
(7.77061 -2.86678e-17 4.3337)
(7.67267 1.62776e-17 4.9104)
(7.6528 0 5.52663)
(7.42851 0 6.38287)
(7.99139 -8.78903e-18 6.6184)
(6.42328 2.41353e-17 8.23399)
(9.99616 2.19968e-18 0.0658015)
(9.98425 -2.25037e-18 0.130305)
(9.96321 2.02269e-18 0.194607)
(9.93382 2.95797e-19 0.26024)
(9.89681 -6.09465e-19 0.328533)
(9.85247 6.16426e-19 0.400649)
(9.80097 2.55798e-18 0.47766)
(9.74246 -1.3145e-18 0.560615)
(9.67706 0 0.650566)
(9.60493 0 0.748602)
(9.52621 -1.40534e-18 0.855903)
(9.44106 2.16206e-18 0.973744)
(9.3497 7.41088e-19 1.10354)
(9.25246 0 1.24689)
(9.14973 -3.86065e-18 1.40562)
(9.04212 3.13038e-18 1.58176)
(8.93036 8.04928e-19 1.77768)
(8.81539 -5.70234e-18 1.99607)
(8.69846 5.7501e-18 2.24011)
(8.58128 7.49553e-18 2.51364)
(8.46611 6.68851e-18 2.82122)
(8.35581 -1.25312e-17 3.16838)
(8.25462 -1.6282e-18 3.562)
(8.16718 1.76422e-17 4.01007)
(8.10123 2.91207e-18 4.52056)
(8.05181 -3.37493e-18 5.11082)
(8.09243 -1.107e-17 5.7366)
(7.9187 0 6.6062)
(8.54226 -9.22592e-18 6.88206)
(6.9897 0 8.54871)
(9.99644 2.31624e-18 0.0694614)
(9.98526 -1.39494e-19 0.137656)
(9.96557 0 0.205785)
(9.93819 0 0.275417)
(9.90383 0 0.347876)
(9.86279 -1.23287e-18 0.424339)
(9.81524 -2.52653e-18 0.505911)
(9.76138 0 0.593661)
(9.70143 -1.33139e-18 0.688656)
(9.63556 1.35315e-18 0.792015)
(9.564 1.39244e-18 0.90494)
(9.48702 -1.08328e-20 1.02871)
(9.40494 -2.90515e-18 1.16473)
(9.31822 2.94105e-18 1.31461)
(9.22742 7.55402e-19 1.48015)
(9.13328 4.61282e-18 1.66339)
(9.03677 -6.18393e-18 1.86665)
(8.93909 -1.55763e-18 2.0926)
(8.84174 2.36767e-18 2.34438)
(8.74676 0 2.62573)
(8.65679 -1.26866e-17 2.94116)
(8.57516 -3.08839e-18 3.29613)
(8.50647 1.68652e-18 3.69738)
(8.45602 9.01584e-18 4.15304)
(8.43308 0 4.67121)
(8.43137 0 5.2693)
(8.52787 -9.37717e-18 5.90447)
(8.41619 8.02569e-18 6.77691)
(9.09163 0 7.13761)
(7.59834 -1.02937e-17 8.9199)
(9.99673 2.29453e-18 0.0728799)
(9.98635 -4.16123e-19 0.144515)
(9.96813 1.98654e-18 0.216189)
(9.94288 2.91249e-18 0.289503)
(9.9113 0 0.365783)
(9.87369 1.22726e-18 0.446222)
(9.83024 2.51252e-18 0.531943)
(9.78122 -1.27845e-18 0.624024)
(9.72687 -1.30603e-18 0.723539)
(9.66744 4.01766e-18 0.831627)
(9.60322 -4.0831e-18 0.9495)
(9.5346 -1.11171e-20 1.07842)
(9.462 0 1.21978)
(9.38598 0 1.37516)
(9.30727 0 1.54636)
(9.22676 1.49463e-18 1.73535)
(9.1456 0 1.94439)
(9.06522 1.52628e-18 2.17609)
(8.98736 -7.61988e-18 2.43349)
(8.91437 6.07893e-18 2.72021)
(8.84927 0 3.04065)
(8.79583 -1.3261e-17 3.40017)
(8.75899 1.16375e-17 3.80526)
(8.74454 -1.0967e-17 4.26397)
(8.76322 1.57211e-17 4.78442)
(8.80921 -1.39935e-17 5.38335)
(8.95936 1.75754e-17 6.02559)
(8.92909 -6.51109e-19 6.88487)
(9.65719 -7.24617e-19 7.36649)
(8.29646 -7.06384e-18 9.35989)
(9.99703 -4.32115e-18 0.0760372)
(9.98751 0 0.150845)
(9.97085 -8.56745e-21 0.225773)
(9.94784 -2.3209e-18 0.302453)
(9.91913 5.94028e-19 0.382209)
(9.88504 1.81513e-18 0.466246)
(9.84581 1.24305e-18 0.555696)
(9.80175 6.03452e-21 0.651636)
(9.75314 -1.28945e-18 0.755146)
(9.70028 -7.75427e-21 0.867374)
(9.64355 1.34845e-18 0.989531)
(9.58344 -1.13205e-20 1.12286)
(9.52042 2.78745e-18 1.2687)
(9.45514 -2.81422e-18 1.42861)
(9.38854 -5.72891e-18 1.60433)
(9.32163 7.2016e-18 1.79775)
(9.25575 1.44576e-18 2.01106)
(9.19248 7.30259e-18 2.24677)
(9.13381 -4.39895e-18 2.50777)
(9.08228 -5.80443e-18 2.79746)
(9.04124 5.75681e-18 3.12009)
(9.01482 -5.54235e-18 3.48075)
(9.00867 1.09322e-17 3.88566)
(9.0291 0 4.34233)
(9.08762 -4.89415e-18 4.85838)
(9.18133 4.43943e-18 5.44877)
(9.38431 -1.45697e-17 6.08869)
(9.45843 6.70649e-18 6.90816)
(10.2418 -1.30184e-18 7.51681)
(9.14692 -4.68311e-19 9.87687)
(0.110137 0 -0.114666)
(0.293992 1.86102e-19 -0.10419)
(0.547567 -3.08913e-19 -0.0860628)
(0.826856 4.17242e-19 -0.0768108)
(1.13244 -1.34886e-19 -0.072852)
(1.44879 1.22233e-19 -0.0718366)
(1.7508 -7.12965e-20 -0.0710047)
(2.02201 -6.18357e-20 -0.0688381)
(2.25906 0 -0.0654847)
(2.46524 0 -0.0615796)
(2.64456 0 -0.0575494)
(2.80063 -9.69936e-21 -0.053707)
(2.93697 9.46883e-21 -0.050365)
(3.05734 -4.23906e-20 -0.0477103)
(3.16483 -2.41855e-20 -0.0457348)
(3.26129 0 -0.0444564)
(3.34849 0 -0.0439596)
(3.42861 0 -0.0441242)
(3.5035 0 -0.0445812)
(3.57463 0 -0.0448806)
(3.64321 -3.54983e-20 -0.0446926)
(3.71043 0 -0.0439264)
(3.77792 -2.26452e-21 -0.0428083)
(3.84817 2.22031e-21 -0.0418332)
(3.92473 0 -0.0415637)
(4.01241 0 -0.0425935)
(4.11745 0 -0.0457262)
(4.24795 0 -0.0522623)
(4.41289 0 -0.0636757)
(4.68058 -8.47428e-21 -0.0808782)
(0.0214527 -7.96176e-19 -0.180524)
(0.160312 -1.74673e-19 -0.203453)
(0.402439 6.18845e-19 -0.188454)
(0.670192 0 -0.181877)
(0.96621 4.96698e-19 -0.180814)
(1.26418 -6.51081e-19 -0.181696)
(1.53744 -2.36493e-19 -0.179532)
(1.77276 1.3362e-19 -0.172414)
(1.96937 1.08297e-19 -0.161706)
(2.13171 -1.01994e-19 -0.149432)
(2.2647 -8.67054e-20 -0.136828)
(2.37258 3.86977e-20 -0.12454)
(2.45839 -1.10849e-19 -0.113012)
(2.52457 5.22155e-20 -0.102422)
(2.5736 1.68871e-20 -0.0925713)
(2.60701 0 -0.0832682)
(2.62586 0 -0.0745233)
(2.632 0 -0.0664335)
(2.62867 -9.21326e-21 -0.0592207)
(2.62065 8.37069e-20 -0.0534169)
(2.61394 2.86987e-20 -0.0498194)
(2.61477 -7.92852e-20 -0.0491502)
(2.6283 9.81181e-21 -0.051936)
(2.6586 0 -0.0587393)
(2.70981 7.56768e-20 -0.0705216)
(2.78664 0 -0.0889425)
(2.89421 0 -0.11587)
(3.03795 -1.41963e-21 -0.153401)
(3.22251 -3.56726e-20 -0.204041)
(3.51843 9.02944e-21 -0.267451)
(-0.0394155 2.75248e-18 -0.250232)
(0.0212174 -1.93515e-20 -0.304854)
(0.22635 -1.2059e-18 -0.296347)
(0.437669 0 -0.288058)
(0.674542 0 -0.285348)
(0.901764 -3.53707e-19 -0.283667)
(1.09573 5.18353e-19 -0.27646)
(1.24844 0 -0.261906)
(1.36222 2.39188e-21 -0.242385)
(1.44215 -9.42062e-20 -0.220689)
(1.49279 2.72293e-19 -0.198441)
(1.51816 -8.63015e-20 -0.176325)
(1.5214 7.81939e-20 -0.154656)
(1.50562 1.82928e-19 -0.133536)
(1.47432 -7.26244e-20 -0.113046)
(1.43144 1.44912e-19 -0.0938439)
(1.38242 -3.64961e-20 -0.0774064)
(1.33467 1.98453e-20 -0.0656387)
(1.2965 -1.9606e-20 -0.0600293)
(1.27381 -8.39436e-20 -0.0610995)
(1.27056 8.67376e-20 -0.0685285)
(1.28939 -5.52647e-23 -0.0814541)
(1.33219 7.74517e-20 -0.0996866)
(1.4004 2.16347e-20 -0.124236)
(1.49647 -9.36199e-20 -0.156436)
(1.6209 -4.587e-21 -0.197568)
(1.77286 4.4317e-21 -0.248747)
(1.95179 -5.42271e-20 -0.312272)
(2.15867 7.66892e-20 -0.393717)
(2.4465 8.63498e-22 -0.497391)
(-0.0842662 3.91425e-19 -0.287907)
(-0.090962 0 -0.361025)
(0.0781279 0 -0.364544)
(0.222111 0 -0.356062)
(0.389712 -9.99896e-19 -0.352095)
(0.534189 1.55903e-18 -0.345169)
(0.639351 -5.2455e-19 -0.329706)
(0.703081 -3.43685e-19 -0.305295)
(0.730542 3.46656e-19 -0.275572)
(0.727901 0 -0.243575)
(0.699406 0 -0.210874)
(0.65 1.74234e-19 -0.178318)
(0.585223 0 -0.147271)
(0.512572 -2.42244e-21 -0.119066)
(0.438147 0 -0.0945895)
(0.370066 -8.02324e-20 -0.0758681)
(0.31501 0 -0.0645061)
(0.278756 -1.69938e-19 -0.0619193)
(0.263081 0 -0.068057)
(0.269115 -2.36873e-20 -0.0813286)
(0.299408 -9.60732e-20 -0.101609)
(0.35386 3.11311e-19 -0.130189)
(0.434502 -2.73792e-19 -0.168332)
(0.539408 -1.15889e-20 -0.213383)
(0.665793 0 -0.264383)
(0.81146 0 -0.321815)
(0.971991 0 -0.388006)
(1.14484 5.41899e-20 -0.466202)
(1.32998 -1.10939e-19 -0.564832)
(1.54077 -8.40504e-22 -0.695921)
(-0.121051 0 -0.315984)
(-0.180278 0 -0.393048)
(-0.050059 0 -0.407148)
(0.0219278 0 -0.394218)
(0.114441 0 -0.385581)
(0.170203 -3.74138e-19 -0.367814)
(0.18464 5.40578e-19 -0.340535)
(0.162823 5.86531e-19 -0.305459)
(0.112311 -4.76345e-19 -0.266902)
(0.0414337 1.97379e-19 -0.227975)
(-0.0424583 -1.97408e-19 -0.190661)
(-0.131936 -2.57867e-19 -0.155602)
(-0.221331 8.27961e-20 -0.124375)
(-0.308305 -1.53709e-19 -0.0995131)
(-0.381138 -7.49659e-20 -0.0829229)
(-0.432421 7.3771e-20 -0.0748271)
(-0.462139 3.91177e-20 -0.0751449)
(-0.472512 1.20598e-19 -0.0846733)
(-0.46402 1.63853e-19 -0.103266)
(-0.433315 0 -0.130319)
(-0.379312 -2.28567e-20 -0.165937)
(-0.301868 -1.62598e-19 -0.209932)
(-0.203344 2.10715e-19 -0.261094)
(-0.0883364 -1.9374e-19 -0.317504)
(0.0417655 -1.12545e-20 -0.378518)
(0.188885 0 -0.447355)
(0.334917 -7.94807e-21 -0.51971)
(0.480471 4.69851e-21 -0.601771)
(0.620448 8.12598e-20 -0.703345)
(0.733151 0 -0.841735)
(-0.149198 0 -0.338137)
(-0.247948 0 -0.402492)
(-0.16682 1.13322e-18 -0.420755)
(-0.166263 -1.06224e-18 -0.396793)
(-0.159128 8.45458e-19 -0.379443)
(-0.190517 -1.32497e-19 -0.349669)
(-0.252984 0 -0.312814)
(-0.338003 2.32299e-19 -0.272682)
(-0.436817 4.08057e-19 -0.231983)
(-0.542446 -5.94801e-19 -0.192138)
(-0.653965 3.52129e-19 -0.155623)
(-0.760988 -1.65885e-19 -0.124959)
(-0.850934 0 -0.10111)
(-0.9192 0 -0.0851588)
(-0.969483 -2.02778e-19 -0.0782761)
(-1.00359 1.37301e-19 -0.0806773)
(-1.01909 -2.06999e-19 -0.0921268)
(-1.01304 -1.81827e-19 -0.112819)
(-0.987921 -1.56906e-19 -0.143788)
(-0.94049 7.98839e-20 -0.184661)
(-0.871403 -4.05069e-20 -0.234347)
(-0.782558 0 -0.291399)
(-0.677863 2.13877e-20 -0.353876)
(-0.561821 1.70927e-19 -0.419886)
(-0.438775 -2.05911e-20 -0.487524)
(-0.314314 0 -0.556718)
(-0.193753 7.35425e-21 -0.627853)
(-0.0837491 -7.27753e-21 -0.705169)
(0.00491818 0 -0.796815)
(0.0405885 2.26245e-20 -0.920875)
(-0.166437 7.61356e-19 -0.351681)
(-0.297382 2.41252e-18 -0.387461)
(-0.279231 -3.45175e-18 -0.403018)
(-0.348209 5.21543e-19 -0.364259)
(-0.417475 -1.12092e-18 -0.335679)
(-0.516616 0 -0.297431)
(-0.632898 1.22511e-19 -0.256013)
(-0.759837 -6.60006e-19 -0.214186)
(-0.892067 6.32321e-19 -0.174915)
(-1.01367 1.80538e-19 -0.140964)
(-1.11538 0 -0.113319)
(-1.20153 0 -0.0926017)
(-1.27603 0 -0.0789357)
(-1.33641 -1.26012e-19 -0.0729265)
(-1.38046 1.27311e-19 -0.0759826)
(-1.40646 -6.41708e-20 -0.0892094)
(-1.413 1.9563e-19 -0.11273)
(-1.39874 1.73197e-19 -0.146317)
(-1.36324 -3.44793e-20 -0.190388)
(-1.30701 3.804e-20 -0.244238)
(-1.23181 -5.71509e-20 -0.305751)
(-1.14069 3.92526e-20 -0.372625)
(-1.03795 1.35888e-19 -0.44249)
(-0.928585 1.52528e-19 -0.513019)
(-0.817988 8.88362e-21 -0.582351)
(-0.712245 -8.80144e-21 -0.649879)
(-0.618041 -6.5197e-21 -0.715452)
(-0.544813 6.44477e-21 -0.782314)
(-0.507119 1.10663e-19 -0.857164)
(-0.511857 -5.97922e-20 -0.940944)
(-0.167827 3.04532e-18 -0.35144)
(-0.332478 3.59833e-18 -0.345901)
(-0.378387 -1.195e-18 -0.351883)
(-0.511781 5.7315e-19 -0.298818)
(-0.64464 -7.84313e-19 -0.25933)
(-0.795255 9.38182e-20 -0.21439)
(-0.94966 8.92196e-19 -0.171926)
(-1.08832 -2.1527e-19 -0.137662)
(-1.20753 -3.85722e-19 -0.110778)
(-1.31562 -1.72761e-19 -0.0888405)
(-1.41308 0 -0.0710453)
(-1.49795 0 -0.0587383)
(-1.56872 1.22921e-19 -0.0538494)
(-1.62394 -2.08845e-22 -0.0578993)
(-1.66199 1.69778e-19 -0.0721519)
(-1.68146 -2.28698e-19 -0.0973696)
(-1.68153 -2.62657e-21 -0.133492)
(-1.66169 6.11829e-20 -0.180233)
(-1.62098 0 -0.237238)
(-1.56165 1.33558e-19 -0.303023)
(-1.48589 0 -0.37485)
(-1.39724 0 -0.449745)
(-1.30031 -1.5029e-19 -0.524707)
(-1.20056 -1.29615e-19 -0.596852)
(-1.10395 -1.74648e-20 -0.66387)
(-1.01689 -7.20378e-21 -0.724555)
(-0.94677 1.29951e-20 -0.779042)
(-0.904139 1.5115e-19 -0.830739)
(-0.90049 -1.07309e-19 -0.886493)
(-0.922185 6.06611e-21 -0.942858)
(-0.149761 -3.82213e-18 -0.334315)
(-0.348436 -1.22597e-18 -0.279091)
(-0.458624 -1.78208e-18 -0.268068)
(-0.649304 0 -0.201558)
(-0.829636 0 -0.14817)
(-0.996194 -9.8884e-19 -0.10867)
(-1.14298 7.49508e-19 -0.082336)
(-1.27689 2.09631e-19 -0.0616728)
(-1.3979 1.85057e-19 -0.0444654)
(-1.50629 0 -0.0307641)
(-1.60163 0 -0.0218778)
(-1.68286 2.45789e-19 -0.0193671)
(-1.74886 0 -0.0250294)
(-1.79863 -2.08004e-19 -0.0403644)
(-1.83118 -1.61731e-19 -0.0664185)
(-1.84562 1.08273e-19 -0.103875)
(-1.8416 1.09807e-19 -0.152697)
(-1.81893 5.43039e-20 -0.212265)
(-1.77681 0 -0.281493)
(-1.71825 -9.79201e-20 -0.358138)
(-1.64548 -1.52532e-20 -0.438906)
(-1.56213 -1.67152e-20 -0.520147)
(-1.47294 1.35283e-19 -0.598211)
(-1.38365 1.16557e-19 -0.669654)
(-1.30049 2.40196e-20 -0.731709)
(-1.22997 -7.58142e-21 -0.782878)
(-1.17976 0 -0.823709)
(-1.16045 -1.5324e-19 -0.85837)
(-1.17905 0 -0.893793)
(-1.20991 3.2023e-20 -0.927118)
(-0.109463 0 -0.297944)
(-0.340593 -3.71569e-18 -0.187562)
(-0.508872 3.12378e-18 -0.141485)
(-0.7304 1.15038e-18 -0.0668802)
(-0.918781 -1.15659e-18 -0.0289323)
(-1.08946 -9.60258e-19 -0.00382443)
(-1.24159 9.6675e-19 0.0124173)
(-1.37681 4.17566e-19 0.0231142)
(-1.49624 -1.68756e-19 0.0299775)
(-1.60079 4.35103e-19 0.0332945)
(-1.69082 -2.6492e-19 0.0317121)
(-1.76604 -1.17615e-19 0.0234407)
(-1.82595 0 0.00665206)
(-1.86996 1.56238e-19 -0.020113)
(-1.89754 2.25541e-19 -0.0579103)
(-1.90834 0 -0.107382)
(-1.9023 0 -0.168447)
(-1.87929 -1.3612e-19 -0.240115)
(-1.83888 2.65933e-20 -0.320588)
(-1.78412 3.03365e-20 -0.407019)
(-1.71703 2.10833e-19 -0.495573)
(-1.64101 0 -0.581945)
(-1.56072 -1.33087e-19 -0.661725)
(-1.48196 -1.30892e-19 -0.730834)
(-1.4111 -2.36641e-19 -0.786108)
(-1.35462 2.14625e-19 -0.826026)
(-1.32032 2.57537e-21 -0.851767)
(-1.31845 -2.5522e-21 -0.868462)
(-1.3521 0 -0.883646)
(-1.38866 0 -0.897948)
(-0.0436509 3.16523e-18 -0.234044)
(-0.27777 1.28029e-18 -0.0447694)
(-0.499847 3.12547e-19 0.0115969)
(-0.736905 0 0.0698497)
(-0.937705 -1.04133e-18 0.100515)
(-1.11395 1.48753e-18 0.113825)
(-1.2657 -6.71695e-19 0.116156)
(-1.39606 0 0.11337)
(-1.5082 3.23784e-19 0.108243)
(-1.60448 -2.88774e-19 0.100498)
(-1.68602 0 0.0881532)
(-1.75297 0 0.0690022)
(-1.80527 0 0.0411973)
(-1.84288 4.23117e-20 0.00335716)
(-1.86563 -2.18795e-19 -0.045552)
(-1.87359 0 -0.106194)
(-1.86712 0 -0.178412)
(-1.846 0 -0.261142)
(-1.81001 -1.65757e-19 -0.351752)
(-1.76186 -2.58942e-20 -0.446972)
(-1.70322 -2.39044e-19 -0.542511)
(-1.63694 -1.56397e-20 -0.633378)
(-1.56703 1.54276e-20 -0.714193)
(-1.49917 0 -0.780091)
(-1.4398 4.91911e-19 -0.82758)
(-1.39541 -2.27392e-19 -0.855313)
(-1.37388 0 -0.865237)
(-1.38519 1.41157e-19 -0.863513)
(-1.42959 8.56369e-22 -0.858824)
(-1.47023 0 -0.856543)
(0.0866774 0 -0.0798928)
(-0.183794 -1.25748e-18 0.10942)
(-0.443552 -2.28736e-19 0.182281)
(-0.696021 1.22922e-18 0.232372)
(-0.902968 0 0.24557)
(-1.07687 0 0.238979)
(-1.22011 0 0.222774)
(-1.33808 0 0.204467)
(-1.4367 -4.39119e-19 0.186863)
(-1.52026 2.77542e-19 0.168396)
(-1.59035 1.0152e-19 0.14572)
(-1.64691 -1.00258e-19 0.116106)
(-1.68985 0 0.0778976)
(-1.71969 9.59353e-20 0.0299462)
(-1.73698 3.57955e-20 -0.0287851)
(-1.74217 9.23044e-20 -0.0991249)
(-1.73617 3.68564e-20 -0.180928)
(-1.71871 1.79087e-19 -0.273128)
(-1.68955 1.71266e-19 -0.372505)
(-1.65098 0 -0.475381)
(-1.60392 -2.04738e-19 -0.57713)
(-1.55047 -1.42877e-20 -0.67215)
(-1.49363 2.42843e-19 -0.75399)
(-1.43832 2.70803e-19 -0.816658)
(-1.39094 -4.99778e-19 -0.856225)
(-1.35797 -2.28358e-19 -0.871667)
(-1.34731 -3.25949e-21 -0.865696)
(-1.36893 -1.42455e-19 -0.845464)
(-1.42158 8.85474e-20 -0.821103)
(-1.46568 -3.09197e-20 -0.803193)
(0.226952 -4.18836e-19 0.0656397)
(-0.0544742 1.27115e-18 0.326693)
(-0.355827 -1.08832e-19 0.388821)
(-0.616227 -1.20122e-18 0.414787)
(-0.821703 -2.44201e-19 0.399753)
(-0.984613 0 0.365177)
(-1.10961 0 0.325542)
(-1.20609 0 0.290223)
(-1.28415 0 0.261292)
(-1.35038 1.11861e-19 0.234081)
(-1.40612 1.93439e-19 0.202469)
(-1.45009 5.44977e-20 0.16323)
(-1.4816 3.15795e-20 0.115515)
(-1.50158 -1.65055e-19 0.0588665)
(-1.51161 2.88337e-20 -0.0076554)
(-1.51277 -1.60028e-19 -0.0853255)
(-1.50673 0 -0.174623)
(-1.49369 -1.59409e-19 -0.27392)
(-1.47318 0 -0.379897)
(-1.44701 1.30522e-20 -0.488743)
(-1.41544 2.08846e-19 -0.595784)
(-1.37918 -2.42049e-19 -0.694844)
(-1.34003 -2.52553e-19 -0.778346)
(-1.3014 -5.24785e-19 -0.838753)
(-1.26872 2.49146e-19 -0.871263)
(-1.24837 4.84297e-19 -0.875207)
(-1.24827 2.16805e-19 -0.854067)
(-1.27873 0 -0.815753)
(-1.33831 -8.95047e-20 -0.771639)
(-1.3859 3.10832e-20 -0.73772)
(0.402572 -1.42282e-18 0.546686)
(0.120725 -1.39375e-18 0.560719)
(-0.249917 2.9704e-19 0.624713)
(-0.509781 2.59007e-19 0.610708)
(-0.706694 2.42918e-19 0.553997)
(-0.846976 3.87218e-19 0.482323)
(-0.940255 -2.085e-19 0.414733)
(-1.00323 1.42341e-19 0.362558)
(-1.0528 -1.4021e-19 0.32637)
(-1.09793 -3.30739e-20 0.294624)
(-1.13716 -9.21315e-20 0.256093)
(-1.16586 -1.44394e-19 0.208036)
(-1.18249 -8.4044e-20 0.151836)
(-1.18886 2.16887e-20 0.0883338)
(-1.18796 -9.12747e-20 0.0167161)
(-1.18211 1.2666e-20 -0.0650252)
(-1.17347 -1.27214e-20 -0.158472)
(-1.16293 0 -0.261575)
(-1.15142 0 -0.371098)
(-1.14004 2.08949e-19 -0.483433)
(-1.1281 -1.29137e-20 -0.594123)
(-1.11513 2.46778e-19 -0.696618)
(-1.10103 0 -0.782302)
(-1.08688 5.6333e-19 -0.842111)
(-1.0756 0 -0.869848)
(-1.07232 -5.28791e-19 -0.864543)
(-1.08488 -4.62974e-19 -0.830253)
(-1.1241 0 -0.775174)
(-1.1898 -1.38886e-22 -0.711003)
(-1.24144 4.18455e-20 -0.65932)
(0.700427 -1.81048e-18 0.189909)
(0.16196 1.1984e-18 0.945731)
(-0.137767 -5.44313e-19 0.967118)
(-0.401737 -4.75945e-19 0.881789)
(-0.579553 0 0.741035)
(-0.679045 0 0.596883)
(-0.720514 -3.31489e-19 0.478464)
(-0.732312 1.55712e-19 0.404629)
(-0.744248 0 0.371722)
(-0.767544 -9.84808e-20 0.345034)
(-0.790842 0 0.303215)
(-0.801681 2.01746e-20 0.247016)
(-0.798181 1.15005e-19 0.183127)
(-0.784824 -3.76972e-20 0.114723)
(-0.766944 7.2483e-20 0.0407797)
(-0.748085 1.01062e-20 -0.0427836)
(-0.730552 -9.64237e-20 -0.136072)
(-0.71594 0 -0.238098)
(-0.709247 0 -0.345502)
(-0.711666 9.6461e-21 -0.455994)
(-0.722809 0 -0.566091)
(-0.740394 -2.25559e-21 -0.669247)
(-0.761812 3.15369e-19 -0.756505)
(-0.784405 2.93648e-20 -0.817867)
(-0.806601 0 -0.845104)
(-0.830367 2.77895e-19 -0.835333)
(-0.862099 2.52599e-19 -0.792382)
(-0.912747 0 -0.72391)
(-0.984951 -6.62906e-22 -0.639969)
(-1.0422 -9.13056e-20 -0.567314)
(9.99734 4.12396e-18 0.0789737)
(9.98874 2.64019e-19 0.156729)
(9.97372 -2.79173e-19 0.234674)
(9.95305 -5.54911e-19 0.314462)
(9.92733 3.96477e-18 0.397406)
(9.89691 -2.33033e-18 0.484712)
(9.8621 1.18182e-18 0.577522)
(9.82321 0 0.676909)
(9.78056 2.46926e-18 0.783952)
(9.73453 -1.25352e-18 0.899796)
(9.68556 0 1.02563)
(9.63433 1.29724e-18 1.16267)
(9.58127 -2.62616e-18 1.31221)
(9.52708 0 1.47574)
(9.47294 0 1.65489)
(9.41999 -1.82276e-20 1.85147)
(9.36971 2.73122e-18 2.06761)
(9.32386 -9.59455e-18 2.30564)
(9.28463 1.37745e-18 2.56825)
(9.25475 0 2.85861)
(9.23763 0 3.18061)
(9.23797 -2.61046e-18 3.53895)
(9.26178 0 3.93912)
(9.31605 9.17275e-18 4.38765)
(9.4132 -4.54601e-18 4.89121)
(9.5547 0 5.46039)
(9.80905 1.30804e-17 6.07861)
(10.0092 -5.81335e-18 6.81677)
(10.9762 -2.66288e-18 7.44054)
(11.9354 -1.24323e-18 10.0981)
(9.99768 -8.02092e-18 0.0816862)
(9.99004 0 0.162156)
(9.97678 -3.67232e-18 0.24287)
(9.95859 1.18475e-21 0.325499)
(9.93602 -2.75086e-18 0.41133)
(9.90944 -3.37381e-18 0.501558)
(9.87921 6.89829e-21 0.597342)
(9.84565 -7.6302e-21 0.699754)
(9.80912 1.18621e-18 0.80985)
(9.77002 -3.62134e-18 0.92875)
(9.72892 -2.46032e-18 1.05759)
(9.68665 2.48641e-18 1.19756)
(9.6436 0 1.34994)
(9.60063 0 1.5161)
(9.55905 0 1.69752)
(9.52001 1.26551e-18 1.89593)
(9.48523 1.30525e-18 2.11331)
(9.45655 -7.76817e-18 2.3518)
(9.43635 5.18856e-18 2.61385)
(9.42758 0 2.90236)
(9.43357 2.44635e-18 3.22067)
(9.45963 4.72951e-18 3.57286)
(9.51144 9.0191e-18 3.96316)
(9.59642 -8.70451e-18 4.39654)
(9.72777 -1.17361e-17 4.8777)
(9.91036 -6.71291e-18 5.41057)
(10.2002 6.29725e-18 5.97915)
(10.4759 0 6.59147)
(11.1078 7.95235e-18 7.10804)
(11.8072 0 8.05941)
(9.99803 3.77855e-18 0.0841309)
(9.99141 1.24138e-19 0.167042)
(9.97998 2.03987e-18 0.250242)
(9.96438 5.21152e-19 0.335417)
(9.9451 -5.31361e-19 0.423807)
(9.9225 1.0873e-18 0.516587)
(9.89697 1.11503e-18 0.614943)
(9.86889 -2.26145e-18 0.71994)
(9.83861 -2.29596e-18 0.832591)
(9.80657 4.66203e-18 0.953968)
(9.77352 0 1.08515)
(9.74015 0 1.22729)
(9.70701 -4.82355e-18 1.38163)
(9.67531 2.43546e-18 1.54941)
(9.64621 4.9055e-18 1.73196)
(9.62087 -2.47977e-18 1.93088)
(9.60124 -9.88396e-21 2.14799)
(9.58917 -4.89608e-18 2.38515)
(9.58719 2.44207e-18 2.64453)
(9.59834 0 2.92867)
(9.62622 -2.32668e-18 3.24037)
(9.67595 -4.61445e-18 3.58258)
(9.75287 8.35415e-18 3.95811)
(9.86441 3.60505e-18 4.36991)
(10.0227 -3.30698e-20 4.8195)
(10.2323 0 5.30388)
(10.5258 -5.56225e-18 5.80476)