/*--------------------------------*- C++ -*----------------------------------*\
| =========                 |                                                 |
| \\      /  F ield         | OpenFOAM: The Open Source CFD Toolbox           |
|  \\    /   O peration     | Version:  5.x                                   |
|   \\  /    A nd           | Web:      www.OpenFOAM.org                      |
|    \\/     M anipulation  |                                                 |
\*---------------------------------------------------------------------------*/
FoamFile
{
    version     2.0;
    format      ascii;
    class       volVectorField;
    location    "0.1";
    object      U;
}
// * * * * * * * * * * * * * * * * * * * * * * * * * * * * * * * * * * * * * //

dimensions      [0 1 -1 0 0 0 0];

internalField   nonuniform List<vector> 
2790
(
(9.93963 0.0198925 0)
(9.87731 0.0282433 -1.99106e-21)
(9.78365 0.0338482 0)
(9.6643 0.039396 0)
(9.52648 0.0448318 2.14175e-21)
(9.37257 0.0499911 -2.21029e-21)
(9.20302 0.0549393 0)
(9.01827 0.0598307 -2.37412e-21)
(8.81894 0.0648423 0)
(8.6054 0.0701632 -2.57716e-21)
(8.37752 0.0759866 6.81493e-22)
(8.1347 0.0824968 -6.99346e-22)
(7.87593 0.0898594 4.47159e-21)
(7.59989 0.0982155 -4.71446e-21)
(7.30506 0.107679 3.26404e-21)
(6.98986 0.118336 0)
(6.6527 0.130242 -1.4937e-20)
(6.29219 0.143415 7.79539e-21)
(5.90719 0.157833 0)
(5.49699 0.17343 0)
(5.06141 0.190085 0)
(4.60093 0.207624 4.14974e-20)
(4.11679 0.225828 0)
(3.61106 0.244452 0)
(3.08656 0.263264 -1.04782e-19)
(2.54678 0.282096 2.29364e-19)
(1.98868 0.301843 1.5623e-21)
(1.54134 0.310066 -2.71137e-19)
(0.532281 0.350173 0)
(0.87054 0.376016 -6.58427e-19)
(9.99419 0.0390718 0)
(9.98229 0.0594087 5.93267e-21)
(9.9408 0.075269 5.04297e-22)
(9.87005 0.0920549 -4.6202e-21)
(9.77487 0.109592 -2.37449e-21)
(9.65703 0.127232 2.44096e-21)
(9.51692 0.144805 0)
(9.35518 0.162404 -2.31423e-21)
(9.17287 0.180249 4.81363e-21)
(8.97102 0.198677 1.24315e-21)
(8.75025 0.218104 1.29687e-21)
(8.5107 0.238983 0)
(8.25202 0.261752 8.68329e-21)
(7.97344 0.286797 6.26645e-21)
(7.67387 0.314424 -1.25889e-20)
(7.352 0.344843 -1.36362e-20)
(7.00643 0.378147 2.12006e-20)
(6.63579 0.41429 0)
(6.23889 0.453075 -1.60533e-20)
(5.81488 0.494125 3.42382e-20)
(5.36334 0.536876 0)
(4.88453 0.580575 -3.93506e-20)
(4.3794 0.624303 -2.57367e-19)
(3.8498 0.667038 8.35817e-20)
(3.29843 0.707761 6.84568e-19)
(2.72917 0.745585 6.45806e-19)
(2.13413 0.781295 -1.1516e-18)
(1.65572 0.799146 2.53402e-18)
(0.615978 0.851405 -1.91794e-18)
(0.889311 0.86976 1.21462e-18)
(9.99129 0.0407605 7.7864e-21)
(9.97644 0.071329 3.80857e-21)
(9.93686 0.0991749 -4.54203e-25)
(9.87047 0.128925 8.30492e-21)
(9.78048 0.160465 0)
(9.6684 0.192773 -4.29931e-21)
(9.53451 0.225277 0)
(9.37925 0.257843 8.01874e-21)
(9.20353 0.29065 -3.58376e-21)
(9.00825 0.324147 -7.37761e-21)
(8.79402 0.35898 -7.76426e-21)
(8.561 0.395907 -5.41786e-21)
(8.30889 0.435699 5.76455e-21)
(8.03695 0.479067 -2.36766e-20)
(7.74411 0.52661 -1.13436e-22)
(7.42902 0.578772 0)
(7.09019 0.635809 0)
(6.7261 0.69775 -8.856e-20)
(6.3353 0.764362 7.69081e-20)
(5.91658 0.835106 1.00665e-19)
(5.46912 0.909108 -1.38948e-19)
(4.99262 0.985135 0)
(4.4875 1.06161 -8.05696e-20)
(3.95503 1.13666 -7.83268e-19)
(3.39743 1.20827 3.64677e-19)
(2.81897 1.27433 2.00782e-19)
(2.20595 1.33526 1.74471e-18)
(1.71792 1.37216 -2.11383e-18)
(0.675055 1.43969 -2.56181e-19)
(0.896585 1.45889 -5.05704e-18)
(9.98972 0.0461847 -1.55423e-20)
(9.97268 0.0880576 -8.11647e-21)
(9.93296 0.128529 3.74087e-22)
(9.86792 0.17088 -1.23169e-20)
(9.77985 0.215357 0)
(9.67016 0.261 4.81182e-21)
(9.53922 0.307048 -5.45969e-22)
(9.38749 0.353244 -4.54479e-21)
(9.21581 0.399785 0)
(9.02504 0.447251 4.15563e-23)
(8.81576 0.496514 0)
(8.58811 0.548611 1.06057e-20)
(8.34177 0.60462 1.64422e-22)
(8.07601 0.665563 4.51928e-22)
(7.78973 0.732322 -2.39313e-20)
(7.48156 0.80559 0)
(7.14991 0.885817 5.44698e-20)
(6.79311 0.97316 -2.75622e-20)
(6.40947 1.06743 -2.98355e-20)
(5.99747 1.16802 0)
(5.55582 1.27386 6.70384e-20)
(5.08371 1.38334 0)
(4.58091 1.49433 3.84916e-19)
(4.04805 1.60413 -1.14533e-18)
(3.48675 1.70967 8.69263e-19)
(2.90188 1.80741 -1.51576e-18)
(2.27387 1.89701 1.61155e-18)
(1.77765 1.95726 0)
(0.737657 2.03787 -2.3643e-19)
(0.902892 2.05438 4.67667e-18)
(9.98898 0.0530331 7.75464e-21)
(9.97077 0.104628 0)
(9.93099 0.156297 7.67193e-21)
(9.86721 0.210395 1.53265e-22)
(9.78119 0.267271 -7.97937e-21)
(9.67411 0.325942 -1.31518e-22)
(9.54638 0.385395 -8.67628e-21)
(9.39847 0.445168 0)
(9.23119 0.505405 -4.6757e-21)
(9.04539 0.566778 9.66325e-21)
(8.8416 0.630358 -2.49667e-20)
(8.61997 0.697451 2.07796e-20)
(8.38018 0.769441 1.47136e-22)
(8.1215 0.847666 -3.40737e-20)
(7.8428 0.933313 1.17214e-20)
(7.54265 1.02735 2.5567e-20)
(7.21937 1.13047 -5.14888e-20)
(6.8711 1.24302 5.55089e-20)
(6.49591 1.36491 -1.44958e-19)
(6.09189 1.49558 5.98301e-20)
(5.65726 1.63384 -1.28708e-19)
(5.19058 1.77783 0)
(4.69088 1.92486 -1.44722e-19)
(4.15802 2.07147 -3.91092e-19)
(3.59277 2.21336 6.51889e-19)
(3.00064 2.34521 0)
(2.35639 2.46521 -1.5225e-18)
(1.84576 2.55034 -2.16781e-19)
(0.80685 2.64167 1.98292e-18)
(0.905244 2.64879 -4.84096e-19)
(9.98867 0.0605073 1.53791e-20)
(9.97 0.121197 0)
(9.93056 0.183516 -7.65501e-21)
(9.86829 0.249153 1.57889e-20)
(9.78467 0.318231 1.6365e-20)
(9.68068 0.389622 0)
(9.55671 0.462081 1.82738e-20)
(9.41325 0.534971 -1.09881e-21)
(9.25113 0.608406 4.6065e-21)
(9.07115 0.683165 2.36417e-23)
(8.87386 0.760526 2.44418e-20)
(8.65939 0.842069 0)
(8.42744 0.929489 0)
(8.17727 1.02445 2.21658e-20)
(7.90774 1.12845 2.27417e-20)
(7.61736 1.24278 9.67509e-20)
(7.30433 1.36839 -4.98186e-20)
(6.96662 1.5059 0)
(6.602 1.65543 -2.75186e-20)
(6.20812 1.81653 5.86613e-20)
(5.78263 1.98807 6.17787e-20)
(5.32329 2.16801 -6.41504e-20)
(4.82823 2.35329 3.45385e-19)
(4.29623 2.53965 -3.59929e-19)
(3.72681 2.72154 6.21211e-19)
(3.1258 2.8916 -6.51309e-19)
(2.46257 3.04564 0)
(1.92839 3.15923 1.90804e-19)
(0.885826 3.26293 0)
(0.904149 3.25637 0)
(9.98859 0.0682122 -1.56087e-20)
(9.96998 0.137649 2.41914e-22)
(9.93129 0.21008 0)
(9.87082 0.286802 -8.22557e-21)
(9.78997 0.36763 -7.87395e-21)
(9.68955 0.451244 -2.01357e-24)
(9.56993 0.536195 -2.54487e-20)
(9.43164 0.621692 -1.7396e-20)
(9.27548 0.707815 0)
(9.10226 0.795437 4.6852e-21)
(8.91253 0.886033 -2.41117e-20)
(8.70644 0.981449 1.96279e-20)
(8.4837 1.08369 3.11404e-20)
(8.24359 1.19474 9.23852e-23)
(7.98498 1.31644 -4.51358e-20)
(7.70633 1.45042 9.34028e-20)
(7.40575 1.59798 -4.81085e-20)
(7.08103 1.76004 0)
(6.72963 1.93705 2.676e-20)
(6.34874 2.12885 -2.7538e-20)
(5.93534 2.33449 0)
(5.48629 2.55201 6.17188e-20)
(4.99852 2.77817 -2.91797e-19)
(4.46939 3.0081 3.02139e-19)
(3.89658 3.2351 3.54189e-20)
(3.28545 3.44971 0)
(2.60033 3.64468 3.36577e-19)
(2.03195 3.79411 4.61487e-20)
(0.976136 3.91663 9.53627e-20)
(0.899631 3.89795 -2.0568e-19)
(9.98867 0.0759156 1.52065e-20)
(9.97046 0.1538 0)
(9.9329 0.235831 1.55087e-20)
(9.87457 0.32313 -1.62279e-20)
(9.79686 0.415217 6.26057e-22)
(9.70049 0.510541 -3.84919e-22)
(9.58581 0.607446 1.7083e-20)
(9.45335 0.704988 1.72643e-20)
(9.30394 0.803211 -2.20764e-20)
(9.13839 0.903077 4.52422e-21)
(8.95726 1.00625 0)
(8.76074 1.11483 -9.74088e-21)
(8.54857 1.23112 -9.99088e-21)
(8.32008 1.35746 -2.10371e-20)
(8.07416 1.49602 0)
(7.80927 1.64881 5.21134e-22)
(7.52348 1.8175 -4.63723e-20)
(7.21441 2.00345 0)
(6.87926 2.20754 0)
(6.51476 2.43004 2.67003e-20)
(6.1172 2.67045 0)
(5.68241 2.92715 2.84347e-20)
(5.20591 3.19708 2.73823e-19)
(4.68322 3.47517 -2.82235e-19)
(4.10945 3.75392 -2.54411e-20)
(3.48835 4.02203 -1.72506e-20)
(2.77935 4.2688 1.76905e-19)
(2.16623 4.46654 -1.98678e-19)
(1.08443 4.6209 -2.58804e-19)
(0.895583 4.60638 1.8169e-19)
(9.98884 0.0834686 -1.51967e-20)
(9.97131 0.169481 1.52259e-20)
(9.93521 0.260621 -1.54743e-20)
(9.87934 0.357963 1.61737e-20)
(9.80513 0.460769 -4.94887e-22)
(9.71327 0.567236 0)
(9.60408 0.67549 1.04024e-21)
(9.47811 0.784443 -1.05263e-21)
(9.3362 0.8941 1.74686e-20)
(9.17918 1.0055 4.50934e-21)
(9.00763 1.12048 -4.57267e-21)
(8.8218 1.2414 0)
(8.6215 1.37086 -1.95145e-20)
(8.40613 1.5115 -3.54094e-22)
(8.17465 1.66588 -2.63032e-23)
(7.92557 1.83638 2.19367e-20)
(7.65696 2.02513 0)
(7.36636 2.23397 0)
(7.05079 2.46432 0)
(6.70657 2.71713 0)
(6.32935 2.99256 0)
(5.91391 3.28976 1.08318e-19)
(5.45421 3.60632 2.0094e-21)
(4.94353 3.93764 -2.26704e-19)
(4.37371 4.27613 1.13427e-19)
(3.74537 4.6094 4.8513e-20)
(3.01291 4.92335 -1.00987e-19)
(2.34683 5.18787 0)
(1.2281 5.39379 3.86192e-19)
(0.90434 5.40907 -1.35653e-18)
(9.98908 0.090768 4.70258e-22)
(9.97244 0.184549 -3.07873e-20)
(9.93809 0.284305 -9.58346e-22)
(9.88498 0.391129 1.63961e-20)
(9.81463 0.504066 -4.93211e-22)
(9.7277 0.621054 1.64223e-20)
(9.62451 0.739998 0)
(9.50563 0.859666 1.04896e-21)
(9.3719 0.980019 -1.06122e-21)
(9.2242 1.10217 0)
(9.06315 1.22811 -9.08976e-21)
(8.88907 1.36043 1.8569e-20)
(8.70185 1.502 3.83999e-20)
(8.50102 1.6558 -2.9639e-20)
(8.28565 1.82474 2.05026e-20)
(8.05437 2.0116 0)
(7.80533 2.21898 0)
(7.53611 2.44927 -6.71044e-20)
(7.24364 2.70459 4.56158e-20)
(6.92402 2.98667 4.78944e-20)
(6.57236 3.29671 -4.85216e-20)
(6.18254 3.63503 -1.32289e-20)
(5.74692 4.00055 -1.27701e-20)
(5.25637 4.39006 4.40333e-20)
(4.69882 4.79707 -4.13342e-20)
(4.07005 5.20948 -2.80156e-22)
(3.3186 5.61069 -2.99992e-20)
(2.59435 5.96758 1.92552e-19)
(1.42691 6.2524 -2.0675e-19)
(0.938445 6.31966 1.54404e-19)
(9.98938 0.0977382 0)
(9.97377 0.198886 1.50885e-20)
(9.94141 0.306749 -1.5106e-20)
(9.89136 0.422469 -1.53854e-20)
(9.82518 0.544906 -1.64469e-20)
(9.74356 0.671746 -1.48656e-20)
(9.64684 0.800672 1.5995e-20)
(9.53558 0.930302 0)
(9.41067 1.06055 0)
(9.273 1.19258 2.14046e-20)
(9.12328 1.32854 -4.3769e-21)
(8.96188 1.4712 0)
(8.78886 1.62372 -9.3654e-21)
(8.60388 1.78936 -2.87551e-20)
(8.40617 1.97138 3.7658e-23)
(8.19458 2.17295 0)
(7.96742 2.39716 -4.23067e-22)
(7.72246 2.64699 4.26821e-20)
(7.45671 2.9253 0)
(7.16627 3.23484 0)
(6.846 3.57806 0)
(6.48917 3.95692 3.53004e-20)
(6.08686 4.37247 -1.13497e-20)
(5.62761 4.82404 -3.36521e-20)
(5.0952 5.308 2.51709e-20)
(4.47881 5.81496 -2.61783e-20)
(3.71949 6.32834 0)
(2.93682 6.8132 -1.12175e-19)
(1.70427 7.21996 1.18501e-19)
(1.01119 7.36983 3.41325e-20)
(9.98972 0.104322 -2.95448e-20)
(9.97528 0.212394 -9.32515e-22)
(9.94511 0.327832 1.05483e-21)
(9.89836 0.451837 1.32028e-20)
(9.83664 0.58311 3.45387e-20)
(9.76068 0.719093 -1.9396e-21)
(9.67082 0.857245 -1.59068e-20)
(9.56766 0.996036 0)
(9.45211 1.13532 0)
(9.3251 1.27631 -1.69328e-20)
(9.18741 1.42125 -1.70959e-20)
(9.03954 1.57313 0)
(8.88169 1.73529 0)
(8.71369 1.91129 9.0107e-21)
(8.53504 2.10469 4.73398e-20)
(8.34484 2.31903 1.95594e-20)
(8.1417 2.55787 -1.98252e-20)
(7.92372 2.82477 -2.01541e-20)
(7.68823 3.12339 0)
(7.43162 3.45754 0)
(7.14895 3.83114 3.20526e-20)
(6.83338 4.24822 -2.16592e-20)
(6.4754 4.71265 0)
(6.06196 5.22764 0)
(5.5732 5.79471 0)
(4.99084 6.41096 4.54421e-20)
(4.24651 7.06542 -1.38539e-19)
(3.41789 7.72786 9.4954e-20)
(2.10512 8.33069 2.87629e-21)
(1.1516 8.63579 -2.57742e-20)
(9.99009 0.110474 2.95291e-20)
(9.97692 0.224994 9.24105e-22)
(9.94911 0.34745 1.05653e-21)
(9.90587 0.479107 -1.6937e-20)
(9.84885 0.61852 -1.33292e-20)
(9.77884 0.7629 1.37916e-23)
(9.6962 0.909485 -1.94084e-21)
(9.60153 1.05659 0)
(9.4958 1.20401 0)
(9.37997 1.35297 0)
(9.25492 1.50581 1.69406e-20)
(9.12127 1.66566 0)
(8.97938 1.83606 -4.41559e-21)
(8.82934 2.02079 -4.92748e-21)
(8.67091 2.22367 8.6859e-21)
(8.50355 2.44857 9.38568e-21)
(8.32629 2.69944 9.66255e-21)
(8.1377 2.9804 -1.93985e-22)
(7.93571 3.29585 1.9677e-20)
(7.71735 3.65062 -2.92327e-20)
(7.4784 4.05018 -3.01859e-20)
(7.21273 4.50078 1.00275e-20)
(6.9114 5.00965 -5.02035e-21)
(6.56129 5.58502 -1.01012e-20)
(6.14103 6.23596 5.94513e-20)
(5.62629 6.97104 -3.95591e-20)
(4.93992 7.79467 0)
(4.10712 8.69866 7.56177e-20)
(2.7198 9.62428 -8.067e-20)
(1.42829 10.2673 4.46584e-21)
(9.99048 0.11616 2.90371e-20)
(9.97867 0.236621 0)
(9.95335 0.365518 1.47838e-20)
(9.91379 0.504173 -1.85827e-21)
(9.86169 0.651009 3.7442e-21)
(9.79786 0.803016 -1.69472e-20)
(9.7227 0.957215 0)
(9.63686 1.11177 0)
(9.5413 1.26639 -1.5725e-20)
(9.43708 1.42229 0)
(9.32513 1.58188 5.15676e-22)
(9.20622 1.74841 1.58186e-21)
(9.08093 1.92556 1.04699e-20)
(8.94958 2.11727 -3.47359e-20)
(8.81228 2.32756 -3.08949e-20)
(8.66888 2.56057 0)
(8.51895 2.82054 0)
(8.3617 3.11202 -1.8664e-20)
(8.19587 3.44002 8.90034e-21)
(8.01954 3.81026 2.82647e-20)
(7.82978 4.22955 1.0245e-20)
(7.62215 4.70621 -1.15805e-21)
(7.3898 5.25078 8.84893e-21)
(7.12212 5.8769 -4.64057e-21)
(6.8004 6.60268 3.82188e-20)
(6.4004 7.45259 -3.37887e-20)
(5.84511 8.45865 3.18544e-20)
(5.11077 9.66622 -2.99256e-20)
(3.73442 11.111 0)
(2.01137 12.5903 -3.87374e-21)
(9.9909 0.121352 6.4697e-22)
(9.9805 0.247223 -9.06716e-22)
(9.95777 0.381961 -2.89932e-20)
(9.92202 0.526935 0)
(9.875 0.680444 -1.84051e-20)
(9.81754 0.839266 3.88531e-21)
(9.75009 1.00022 -3.78753e-21)
(9.67331 1.1613 1.5169e-20)
(9.5882 1.32212 1.9494e-20)
(9.49586 1.4839 -1.56424e-20)
(9.39735 1.64906 0)
(9.29356 1.82091 0)
(9.18527 2.00324 -1.61857e-20)
(9.0731 2.20009 1.43424e-20)
(8.95751 2.41562 1.93385e-20)
(8.83881 2.65409 -1.4811e-20)
(8.71717 2.91997 -2.16402e-21)
(8.59256 3.21804 -1.7165e-20)
(8.46473 3.5537 -1.78363e-20)
(8.3331 3.93323 0)
(8.19659 4.36436 -8.86413e-21)
(8.05337 4.85686 -1.7146e-22)
(7.90032 5.42373 -2.09931e-22)
(7.73239 6.08291 0)
(7.53957 6.86033 -7.498e-21)
(7.30978 7.79602 3.1879e-21)
(6.99208 8.95447 -2.61965e-20)
(6.56917 10.462 2.12349e-20)
(5.57159 12.6041 -8.8937e-21)
(3.38085 16.4638 -1.75518e-21)
(0.636832 0.218635 -5.92363e-19)
(-1.38292 0.209489 2.74846e-19)
(-0.856129 0.210819 0)
(-1.76364 0.187216 -2.3857e-21)
(-2.07373 0.158897 -1.12551e-19)
(-2.40592 0.110699 -1.02886e-19)
(-2.62708 0.0535258 1.00419e-19)
(-2.70677 -0.0102201 -1.70371e-21)
(-2.62939 -0.0795879 -8.47755e-20)
(-2.38751 -0.147203 7.80921e-20)
(-1.9941 -0.206937 -1.19949e-20)
(-1.45156 -0.253734 -1.73947e-20)
(-0.804484 -0.283432 -1.77941e-21)
(-0.0781995 -0.297527 0)
(0.677336 -0.297823 -1.98279e-21)
(1.45085 -0.287725 1.79989e-21)
(2.21271 -0.270534 0)
(2.94408 -0.248909 0)
(3.63231 -0.224963 0)
(4.26942 -0.200326 2.45594e-22)
(4.85123 -0.17618 0)
(5.37652 -0.153317 0)
(5.84619 -0.132218 1.17688e-22)
(6.26261 -0.113118 -3.53804e-23)
(6.62906 -0.0960731 1.45896e-23)
(6.94922 -0.0810184 0)
(7.22694 -0.0678136 4.37746e-23)
(7.46594 -0.0562885 2.43589e-23)
(7.66983 -0.0463077 0)
(7.87832 -0.0385688 0)
(0.682124 0.687333 5.63946e-19)
(-1.38584 0.703297 -2.60012e-19)
(-0.91744 0.657928 0)
(-1.84935 0.606669 2.27393e-19)
(-2.18665 0.516782 -1.07352e-19)
(-2.54342 0.380221 0)
(-2.77586 0.212264 0)
(-2.85989 0.0223544 2.21251e-19)
(-2.77337 -0.180109 -1.71884e-19)
(-2.51083 -0.374252 0)
(-2.08322 -0.545148 3.86422e-20)
(-1.50281 -0.676536 -3.7095e-20)
(-0.814706 -0.762745 -2.71307e-20)
(-0.0521294 -0.806698 0)
(0.734995 -0.813801 3.14429e-23)
(1.53656 -0.7923 2.75268e-21)
(2.32307 -0.750909 -3.14818e-21)
(3.07654 -0.696663 0)
(3.78503 -0.635182 5.66425e-22)
(4.44111 -0.570845 -1.24845e-21)
(5.04097 -0.506879 -7.70772e-23)
(5.58366 -0.445515 -2.11801e-22)
(6.07023 -0.388158 1.22504e-22)
(6.50308 -0.335572 0)
(6.88545 -0.28804 1.03693e-23)
(7.22097 -0.245512 -1.00971e-23)
(7.51339 -0.207716 -1.33905e-22)
(7.76631 -0.174274 -1.96788e-23)
(7.98288 -0.144849 0)
(8.20278 -0.120037 0)
(0.603801 1.1785 5.90717e-18)
(-1.39695 1.22752 -4.18765e-18)
(-1.05263 1.14293 1.85068e-18)
(-2.00841 1.05543 -8.65848e-19)
(-2.40364 0.890101 1.04408e-18)
(-2.80458 0.653324 0)
(-3.06285 0.35964 4.73799e-19)
(-3.15704 0.0273976 -3.66876e-19)
(-3.05597 -0.325829 0)
(-2.76026 -0.66203 0)
(-2.27666 -0.955149 6.0769e-20)
(-1.64613 -1.17423 -1.16444e-19)
(-0.905553 -1.31593 7.76803e-20)
(-0.094364 -1.38431 -2.20131e-20)
(0.726136 -1.39052 1.39177e-20)
(1.55308 -1.34992 -1.67409e-20)
(2.35661 -1.27683 5.46822e-21)
(3.12053 -1.1829 1.4676e-21)
(3.83444 -1.07746 -1.66282e-22)
(4.49221 -0.967733 -4.62311e-22)
(5.09119 -0.859038 0)
(5.6313 -0.755015 2.50674e-22)
(6.11431 -0.657941 -1.84269e-22)
(6.54316 -0.569031 2.70872e-22)
(6.92145 -0.488711 0)
(7.25308 -0.416859 0)
(7.54191 -0.35299 8.36669e-23)
(7.79161 -0.296423 2.08951e-24)
(8.0052 -0.246416 -3.53183e-23)
(8.2226 -0.202655 0)
(0.482976 1.75866 -9.47927e-21)
(-1.4167 1.81735 -1.39614e-18)
(-1.28055 1.70136 3.5013e-18)
(-2.25821 1.56799 -1.65821e-18)
(-2.74219 1.31846 -3.98672e-19)
(-3.20069 0.96741 -1.97063e-19)
(-3.48982 0.52932 -4.63686e-19)
(-3.5824 0.0295894 2.70439e-19)
(-3.44729 -0.496436 0)
(-3.08514 -0.993902 0)
(-2.51956 -1.41414 -4.5208e-22)
(-1.81173 -1.71944 7.00272e-21)
(-0.997326 -1.91037 4.41367e-20)
(-0.123754 -1.99237 -2.45121e-20)
(0.739026 -1.98626 -2.94316e-21)
(1.5969 -1.91781 -1.37687e-20)
(2.42023 -1.80636 -1.65293e-21)
(3.19526 -1.66789 7.57598e-22)
(3.91373 -1.51518 2.71285e-21)
(4.57135 -1.35805 -6.67532e-24)
(5.16694 -1.2036 0)
(5.70167 -1.05663 3.87075e-22)
(6.17824 -0.920068 1.058e-22)
(6.60026 -0.795394 2.86151e-22)
(6.97182 -0.683029 -1.28825e-23)
(7.29711 -0.582671 -2.70084e-22)
(7.58018 -0.493545 -1.77904e-22)
(7.82477 -0.414607 2.1117e-24)
(8.03383 -0.344685 3.50036e-23)
(8.24697 -0.28287 0)
(0.335814 2.45363 2.40899e-18)
(-1.46938 2.49843 -1.97491e-18)
(-1.5892 2.35751 1.75475e-18)
(-2.60246 2.16191 0)
(-3.1942 1.81009 1.87073e-19)
(-3.7119 1.3179 1.02013e-18)
(-4.02024 0.704204 -8.59533e-19)
(-4.08445 0.00135057 8.46791e-20)
(-3.87812 -0.727787 0)
(-3.41433 -1.40169 0)
(-2.74812 -1.94717 1.46325e-20)
(-1.94083 -2.33285 4.26097e-20)
(-1.04153 -2.56102 -6.04791e-21)
(-0.104638 -2.64198 -4.02889e-20)
(0.801814 -2.61069 0)
(1.68919 -2.50461 0)
(2.5297 -2.34743 -1.99992e-21)
(3.31241 -2.15896 -1.5294e-21)
(4.03157 -1.95511 -1.14279e-21)
(4.68497 -1.74796 8.60126e-22)
(5.2732 -1.54613 -1.01556e-21)
(5.79878 -1.35533 -1.7355e-21)
(6.26541 -1.1789 -7.24129e-22)
(6.67746 -1.01842 -1.04454e-21)
(7.03951 -0.874186 -1.41011e-23)
(7.35604 -0.745615 5.34396e-22)
(7.63126 -0.631576 1.77855e-22)
(7.86899 -0.530623 -2.10037e-24)
(8.07212 -0.441144 -4.0859e-23)
(8.27955 -0.361726 1.47886e-25)
(0.157792 3.28153 -5.81166e-20)
(-1.5622 3.30264 -8.31088e-19)
(-1.9578 3.12975 6.81074e-19)
(-3.01851 2.8484 2.40465e-20)
(-3.71232 2.36628 -4.74424e-20)
(-4.2719 1.69514 -4.20999e-20)
(-4.56913 0.858502 -2.28192e-19)
(-4.56551 -0.0885896 6.86148e-19)
(-4.24714 -1.04982 -3.12242e-19)
(-3.65815 -1.90407 -1.24518e-19)
(-2.87363 -2.56909 1.23625e-19)
(-1.96362 -3.02016 0)
(-0.982019 -3.26694 -4.25263e-20)
(0.00373269 -3.329 4.5421e-21)
(0.946461 -3.25931 1.77085e-20)
(1.85395 -3.10535 1.14154e-20)
(2.70272 -2.89471 -3.46072e-21)
(3.48474 -2.65067 2.17263e-21)
(4.19689 -2.39189 4.51263e-21)
(4.83917 -2.13237 -1.92394e-21)
(5.41394 -1.8819 1.26114e-21)
(5.92507 -1.64678 9.47191e-22)
(6.37725 -1.43055 7.8496e-22)
(6.7755 -1.23469 4.45407e-22)
(7.12481 -1.05921 -2.55995e-24)
(7.42989 -0.903147 -2.63039e-22)
(7.69504 -0.764943 -1.79388e-22)
(7.92408 -0.642702 0)
(8.1198 -0.534363 3.8041e-23)
(8.32005 -0.43803 3.27223e-23)
(-0.0400254 4.24616 -3.79358e-19)
(-1.68844 4.23644 2.89051e-19)
(-2.33628 4.01441 -3.74289e-19)
(-3.43889 3.62096 -2.57862e-20)
(-4.20453 2.96935 4.03443e-19)
(-4.77123 2.0687 -4.49256e-20)
(-5.01576 0.958518 -4.73731e-20)
(-4.89578 -0.276166 1.14376e-20)
(-4.43788 -1.48423 0)
(-3.71407 -2.51194 -1.24115e-19)
(-2.81212 -3.28054 2.31005e-19)
(-1.81336 -3.77488 -1.09577e-19)
(-0.766653 -4.0166 -3.30428e-20)
(0.241077 -4.04135 6.98409e-20)
(1.20364 -3.92224 -2.86523e-20)
(2.11447 -3.71142 -8.7635e-21)
(2.95656 -3.44066 1.50807e-20)
(3.72476 -3.13652 -1.18281e-20)
(4.41847 -2.82005 4.63093e-21)
(5.03988 -2.50676 0)
(5.59302 -2.20724 1.52399e-21)
(6.08294 -1.92808 -2.70114e-22)
(6.51512 -1.67275 0)
(6.89506 -1.44244 -5.27951e-22)
(7.22798 -1.23675 0)
(7.51866 -1.05425 2.72982e-22)
(7.77136 -0.892876 -1.86717e-22)
(7.98981 -0.750272 2.18054e-22)
(8.17663 -0.623919 -9.05029e-23)
(8.36824 -0.51145 -3.23067e-23)
(-0.229968 5.32273 2.15491e-19)
(-1.80549 5.2774 2.77271e-19)
(-2.6384 4.9829 0)
(-3.75711 4.44548 8.66938e-20)
(-4.54833 3.5816 -3.63981e-19)
(-5.07878 2.40175 1.93878e-19)
(-5.22502 0.97009 1.78958e-19)
(-4.94723 -0.58631 -3.73026e-19)
(-4.34172 -2.03905 1.48241e-20)
(-3.48967 -3.22157 1.42878e-19)
(-2.49346 -4.06677 7.59027e-21)
(-1.43564 -4.57779 -6.585e-21)
(-0.358969 -4.78838 3.31066e-20)
(0.640837 -4.76072 -2.76569e-20)
(1.59814 -4.58423 -6.24129e-21)
(2.48977 -4.30979 0)
(3.30533 -3.97411 3.62313e-21)
(4.04257 -3.60707 -2.48614e-21)
(4.70333 -3.23175 2.42373e-21)
(5.2918 -2.86472 0)
(5.8134 -2.51699 -9.40546e-22)
(6.27412 -2.19511 -2.66389e-22)
(6.67992 -1.90224 -7.43223e-22)
(7.03649 -1.63911 5.55357e-22)
(7.34902 -1.40479 0)
(7.62215 -1.19732 -2.54677e-22)
(7.85994 -1.01413 3.45123e-22)
(8.06585 -0.852354 -4.35286e-22)
(8.24227 -0.709051 8.94049e-23)
(8.42377 -0.58139 4.84776e-25)
(-0.368137 6.45982 -4.83616e-19)
(-1.84059 6.37506 0)
(-2.76511 5.98231 9.27868e-20)
(-3.85361 5.27213 8.69171e-20)
(-4.61446 4.15824 -1.00769e-19)
(-5.05928 2.65449 -5.57568e-20)
(-5.05402 0.857037 2.7785e-20)
(-4.60811 -1.03152 -1.86445e-19)
(-3.86671 -2.70769 3.2848e-19)
(-2.91625 -4.01204 -1.50234e-19)
(-1.86659 -4.90041 4.88003e-20)
(-0.785905 -5.39715 -4.97094e-20)
(0.25037 -5.552 0)
(1.22576 -5.46686 -2.1472e-20)
(2.14618 -5.22677 1.91076e-20)
(2.992 -4.88429 0)
(3.75766 -4.48134 -3.43017e-21)
(4.44398 -4.05094 5.00202e-21)
(5.05517 -3.61772 -4.35867e-21)
(5.59709 -3.19884 -1.57687e-21)
(6.07623 -2.80532 -2.65645e-22)
(6.49905 -2.44334 -1.5836e-21)
(6.87164 -2.11554 6.69753e-22)
(7.1995 -1.82204 3.32071e-23)
(7.4875 -1.56132 -1.41301e-23)
(7.73988 -1.33084 0)
(7.96027 -1.12753 1.86235e-23)
(8.15172 -0.948072 4.24615e-22)
(8.31626 -0.789096 1.14473e-24)
(8.48625 -0.647352 -1.1345e-24)
(-0.419468 7.59305 4.56667e-19)
(-1.71968 7.4509 -3.59278e-19)
(-2.62413 6.94176 5.26627e-20)
(-3.61828 6.04303 -9.30662e-20)
(-4.28942 4.6526 9.95827e-20)
(-4.59834 2.78998 5.74839e-20)
(-4.37999 0.595444 0)
(-3.78418 -1.60563 -1.57625e-19)
(-2.94808 -3.46272 1.77647e-19)
(-1.95119 -4.84714 -1.50749e-19)
(-0.905514 -5.74125 1.60079e-19)
(0.127174 -6.18886 -5.56122e-20)
(1.08957 -6.28244 3.48241e-20)
(2.00639 -6.13693 -3.31757e-20)
(2.85503 -5.8287 0)
(3.62505 -5.41648 -4.39981e-21)
(4.31515 -4.9469 0)
(4.92912 -4.45551 0)
(5.47322 -3.96787 4.01327e-21)
(5.95455 -3.50121 5.30042e-21)
(6.38012 -3.0661 -6.78604e-22)
(6.75636 -2.66807 1.80016e-21)
(7.08898 -2.30906 0)
(7.38293 -1.98851 5.72176e-23)
(7.6424 -1.70427 -5.68849e-23)
(7.87095 -1.45327 0)
(8.07157 -1.23194 0)
(8.24675 -1.03655 -2.23712e-22)
(8.39802 -0.863394 -1.03737e-22)
(8.5552 -0.70884 1.3126e-23)
(-0.360882 8.61537 6.95191e-20)
(-1.38784 8.39817 0)
(-2.13879 7.77088 1.5032e-19)
(-2.95747 6.68217 -4.17254e-20)
(-3.46626 4.99642 -1.16254e-19)
(-3.56397 2.74779 0)
(-3.09779 0.181254 0)
(-2.40744 -2.27748 5.72317e-20)
(-1.54886 -4.2587 4.11099e-20)
(-0.578319 -5.67992 -8.65569e-20)
(0.380316 -6.53105 -3.04368e-20)
(1.29349 -6.91428 0)
(2.16719 -6.95369 1.64884e-20)
(2.98073 -6.74401 -3.01893e-20)
(3.72062 -6.36646 -9.68773e-21)
(4.38315 -5.8865 1.37041e-20)
(4.9713 -5.35461 -6.53481e-21)
(5.49156 -4.80789 0)
(5.95163 -4.27213 -6.92127e-21)
(6.35911 -3.76404 -4.1961e-21)
(6.72082 -3.29337 3.35407e-22)
(7.04257 -2.8648 3.1241e-24)
(7.32917 -2.47943 -1.48091e-21)
(7.58458 -2.136 1.86453e-23)
(7.81198 -1.83177 -7.37598e-22)
(8.01399 -1.56319 0)
(8.19277 -1.32628 -3.93892e-22)
(8.35007 -1.117 -2.52267e-22)
(8.48686 -0.931348 1.13571e-22)
(8.63005 -0.765408 -1.30357e-23)
(-0.186324 9.37428 3.3267e-19)
(-0.816936 9.08498 -1.77808e-19)
(-1.26537 8.36182 2.63392e-20)
(-1.83414 7.11001 -1.15729e-19)
(-2.11209 5.1972 -1.59275e-21)
(-1.86064 2.59415 -9.48633e-20)
(-1.14221 -0.313848 -1.08023e-20)
(-0.464914 -2.98178 7.96404e-20)
(0.33098 -5.05169 4.997e-20)
(1.143 -6.40589 -3.54421e-20)
(1.95638 -7.2124 -2.43109e-20)
(2.73901 -7.55353 2.75705e-20)
(3.46972 -7.53432 2.14928e-20)
(4.13378 -7.25867 2.84337e-20)
(4.72636 -6.81522 -4.62935e-21)
(5.24991 -6.27429 4.61144e-21)
(5.71109 -5.68866 9.01985e-21)
(6.11818 -5.09591 -6.6369e-21)
(6.47937 -4.52126 2.69395e-21)
(6.80178 -3.98041 1.65456e-22)
(7.09121 -3.482 -1.74189e-22)
(7.35215 -3.0297 -9.16893e-23)
(7.58798 -2.6238 1.39739e-21)
(7.80124 -2.26239 1.14962e-21)
(7.99382 -1.94224 8.69254e-22)
(8.16719 -1.65942 -8.56935e-23)
(8.32248 -1.40968 3.89579e-22)
(8.46062 -1.18874 2.39203e-22)
(8.58193 -0.992449 0)
(8.71015 -0.816669 -2.61472e-25)
(0.0882565 9.72126 3.03832e-20)
(-0.0260333 9.40809 -2.25037e-19)
(-0.00789786 8.70149 1.92699e-19)
(-0.245396 7.40736 -2.69906e-21)
(-0.0702241 5.12864 8.69121e-20)
(0.591585 2.08062 0)
(1.36909 -0.935371 0)
(1.92439 -3.58003 -6.04495e-20)
(2.54808 -5.61736 0)
(3.20108 -6.99567 0)
(3.83928 -7.77647 2.66365e-20)
(4.43121 -8.06631 3.77341e-22)
(4.9635 -7.98679 -1.61528e-20)
(5.43243 -7.65031 -5.6714e-21)
(5.84138 -7.1508 5.6652e-21)
(6.1979 -6.56126 -1.72676e-21)
(6.51106 -5.93513 3.88395e-22)
(6.78959 -5.30934 6.63929e-21)
(7.0408 -4.70785 3.43938e-21)
(7.27025 -4.14497 -2.12926e-22)
(7.48178 -3.62811 -1.25494e-22)
(7.67787 -3.15997 3.2838e-22)
(7.85997 -2.74012 -1.61016e-21)
(8.02888 -2.36616 -2.25553e-21)
(8.18495 -2.03453 2.04534e-22)
(8.32833 -1.74108 -2.48438e-23)
(8.45907 -1.48145 -6.21621e-23)
(8.57718 -1.25127 1.17784e-23)
(8.6823 -1.04629 -2.63698e-22)
(8.79483 -0.862313 2.66476e-25)
(0.467074 9.47822 -2.43461e-20)
(1.00412 9.21398 2.07966e-19)
(1.58757 8.59984 -2.09236e-19)
(1.87726 7.2339 6.28877e-20)
(2.54058 4.86792 -7.98691e-20)
(3.42716 1.87876 0)
(4.1091 -1.28194 -3.44119e-20)
(4.6159 -4.01865 1.52291e-20)
(5.10351 -6.08425 1.20819e-20)
(5.55879 -7.44025 2.5401e-21)
(5.96122 -8.1736 -2.8095e-20)
(6.3034 -8.40868 -1.93652e-20)
(6.5882 -8.27542 1.5183e-20)
(6.82355 -7.89127 1.19503e-20)
(7.02021 -7.35254 9.42423e-21)
(7.18929 -6.73256 1.66099e-21)
(7.34053 -6.0837 -2.34173e-21)
(7.48142 -5.4412 6.6606e-22)
(7.61697 -4.82726 -7.35914e-21)
(7.74997 -4.25466 2.92511e-21)
(7.8815 -3.72968 0)
(8.01145 -3.25423 -1.99793e-22)
(8.139 -2.82741 1.58811e-21)
(8.26295 -2.44656 1.30374e-21)
(8.38202 -2.10804 -1.24121e-21)
(8.49498 -1.80769 1.13632e-22)
(8.60075 -1.54118 -3.60179e-22)
(8.69844 -1.30419 5.36262e-22)
(8.78701 -1.09255 2.45688e-22)
(8.88339 -0.90206 4.4011e-24)
(1.08595 8.27445 -9.86271e-20)
(2.38213 8.40535 7.83241e-20)
(3.47896 8.01907 0)
(4.29008 6.66463 0)
(5.2428 4.33184 -2.79958e-21)
(6.32602 1.31604 2.27619e-19)
(7.05223 -1.78451 -5.88278e-20)
(7.53113 -4.43298 2.12003e-20)
(7.86413 -6.41222 -1.08453e-20)
(8.0805 -7.69436 -3.54626e-20)
(8.20197 -8.36339 2.26235e-20)
(8.25292 -8.54562 0)
(8.25719 -8.37249 -1.43028e-20)
(8.23549 -7.96128 -2.01358e-22)
(8.20492 -7.40667 -9.03307e-21)
(8.1783 -6.77946 7.11692e-21)
(8.16405 -6.12926 0)
(8.16665 -5.48882 4.79764e-21)
(8.18749 -4.87833 -2.75443e-22)
(8.2257 -4.30922 2.51931e-23)
(8.27904 -3.78689 -2.29581e-21)
(8.34449 -3.31286 0)
(8.41882 -2.88609 0)
(8.49883 -2.50401 0)
(8.58161 -2.16314 6.37356e-22)
(8.66461 -1.85955 1.80233e-22)
(8.74567 -1.58911 4.19972e-22)
(8.82303 -1.34771 -5.32057e-22)
(8.89503 -1.13136 0)
(8.9751 -0.935992 0)
(9.99134 0.126113 -2.77118e-20)
(9.98242 0.256941 2.75315e-20)
(9.96242 0.397018 2.80278e-22)
(9.93067 0.547756 -2.77939e-20)
(9.88896 0.707327 1.57252e-22)
(9.83818 0.872306 2.83918e-20)
(9.7788 1.0393 0)
(9.71151 1.20613 -2.02127e-22)
(9.63735 1.37232 0)
(9.55748 1.53901 1.50284e-20)
(9.47303 1.70865 3.79259e-21)
(9.38507 1.88456 -2.09147e-20)
(9.29459 2.07056 1.93492e-21)
(9.20249 2.27075 -1.97006e-21)
(9.10962 2.48931 1.9794e-21)
(9.01681 2.73056 1.62402e-20)
(8.92486 2.99898 0)
(8.83462 3.29944 3.2194e-20)
(8.74698 3.63739 0)
(8.66294 4.01925 0)
(8.58365 4.45296 0)
(8.51058 4.94871 -7.83687e-21)
(8.44563 5.52017 0)
(8.3919 6.18653 -6.55561e-21)
(8.35384 6.97609 2.70589e-20)
(8.34551 7.93356 -2.60435e-20)
(8.38344 9.13195 -7.69629e-21)
(8.62256 10.707 1.32335e-20)
(9.57292 12.8602 -7.89562e-21)
(10.4667 16.398 3.39082e-20)
(9.9918 0.130447 2.48582e-20)
(9.98443 0.265768 1.3928e-21)
(9.96728 0.410656 3.03339e-20)
(9.9397 0.566546 2.37496e-20)
(9.9035 0.731492 1.7047e-20)
(9.85961 0.901872 -3.07527e-20)
(9.80855 1.07408 6.91401e-21)
(9.75103 1.24578 -2.09885e-20)
(9.68811 1.41636 0)
(9.62101 1.58689 0)
(9.55095 1.75978 -3.61639e-21)
(9.47915 1.93832 1.83864e-20)
(9.4068 2.12632 -1.82678e-20)
(9.33511 2.32784 -1.0974e-20)
(9.26531 2.54702 0)
(9.19871 2.78807 0)
(9.1368 3.05536 7.5094e-21)
(9.08126 3.35354 -3.02515e-20)
(9.03415 3.6878 7.44646e-21)
(8.99805 4.06417 -7.22913e-21)
(8.97636 4.48996 7.17482e-21)
(8.97376 4.97437 0)
(8.99713 5.52938 1.87816e-20)
(9.05732 6.17109 -1.17364e-20)
(9.17205 6.9215 1.11154e-20)
(9.37664 7.81122 4.0857e-21)
(9.72483 8.87875 9.4082e-22)
(10.3129 10.1724 -5.50635e-21)
(11.4558 11.6221 -6.45328e-22)
(12.6448 12.8051 0)
(9.99229 0.134273 -5.15136e-20)
(9.98652 0.273555 -5.16455e-20)
(9.97231 0.422666 -2.57525e-20)
(9.94904 0.583057 2.58544e-20)
(9.9185 0.752662 0)
(9.8817 0.927666 1.32471e-20)
(9.83915 1.10426 1.31615e-20)
(9.79161 1.27991 -1.99674e-20)
(9.74015 1.45389 -6.64688e-21)
(9.68601 1.62717 1.35047e-20)
(9.63053 1.80205 -6.89301e-21)
(9.57503 1.98179 6.93289e-21)
(9.52091 2.17009 1.41666e-20)
(9.46965 2.37091 7.41905e-21)
(9.42282 2.58823 -2.80316e-20)
(9.38222 2.82606 7.06981e-21)
(9.34991 3.08845 0)
(9.32835 3.37964 1.38601e-20)
(9.32062 3.7042 -2.05398e-22)
(9.33062 4.06724 -1.35299e-20)
(9.36355 4.4747 -1.27213e-20)
(9.42651 4.93361 1.25733e-20)
(9.52956 5.45236 -6.00549e-21)
(9.68751 6.04078 -5.49458e-21)
(9.922 6.70955 8.29001e-21)
(10.2664 7.46807 -1.81967e-20)
(10.7635 8.31527 5.9924e-21)
(11.4436 9.23408 1.7543e-21)
(12.4306 10.1558 4.51948e-22)
(13.7759 10.8194 9.53396e-22)
(9.99279 0.137544 2.50128e-20)
(9.98867 0.280199 2.50728e-20)
(9.97747 0.432885 2.51411e-20)
(9.95858 0.597053 -2.52358e-20)
(9.93383 0.770522 6.30313e-21)
(9.90422 0.949291 -6.32375e-21)
(9.87032 1.12935 -1.28356e-20)
(9.83288 1.30798 2.56564e-20)
(9.79298 1.48431 1.30426e-20)
(9.75189 1.65916 -1.31551e-20)
(9.711 1.83474 0)