/*--------------------------------*- C++ -*----------------------------------*\
| =========                 |                                                 |
| \\      /  F ield         | OpenFOAM: The Open Source CFD Toolbox           |
|  \\    /   O peration     | Version:  4.1                                   |
|   \\  /    A nd           | Web:      www.OpenFOAM.org                      |
|    \\/     M anipulation  |                                                 |
\*---------------------------------------------------------------------------*/
FoamFile
{
    version     2.0;
    format      ascii;
    class       volVectorField;
    location    "3";
    object      U;
}
// * * * * * * * * * * * * * * * * * * * * * * * * * * * * * * * * * * * * * //

dimensions      [0 1 -1 0 0 0 0];

internalField   nonuniform List<vector> 
2790
(
(9.94576 -6.58843e-20 0.0208069)
(9.86655 7.49399e-21 0.0292013)
(9.75665 0 0.0349877)
(9.62601 0 0.0410007)
(9.4788 -3.29026e-20 0.0472375)
(9.3151 3.37609e-20 0.0535982)
(9.13439 0 0.0602027)
(8.93642 0 0.0672203)
(8.72081 -8.53445e-20 0.0747863)
(8.48695 7.81334e-20 0.0830032)
(8.23407 5.11435e-21 0.0919647)
(7.96126 0 0.101784)
(7.66751 -2.23537e-20 0.112592)
(7.35169 0 0.124518)
(7.01263 4.92881e-20 0.137683)
(6.64916 0 0.152202)
(6.2602 -4.42581e-19 0.168169)
(5.84484 3.46006e-19 0.185653)
(5.40246 0 0.204668)
(4.93291 0 0.225151)
(4.43665 -2.82323e-19 0.246919)
(3.91503 0 0.269625)
(3.37056 1.6417e-18 0.292682)
(2.80722 -2.11422e-18 0.315147)
(2.23093 0 0.335508)
(1.65002 0 0.351225)
(1.0758 9.09645e-19 0.357456)
(0.527002 -6.92456e-18 0.340393)
(-0.0112223 -1.22119e-20 0.189618)
(-0.212796 1.13509e-17 -0.462081)
(10.0066 1.75086e-19 0.0409689)
(9.9846 0 0.0609467)
(9.93455 0 0.0759842)
(9.86216 0 0.091873)
(9.77046 -1.2932e-19 0.108671)
(9.65971 1.32218e-19 0.126095)
(9.52965 3.4189e-20 0.144384)
(9.38014 0 0.163931)
(9.21085 -2.84764e-19 0.185052)
(9.02124 3.01296e-19 0.207972)
(8.81064 3.16226e-19 0.232897)
(8.57817 3.32882e-19 0.260084)
(8.32284 -6.97665e-19 0.289824)
(8.04352 -7.15219e-19 0.322386)
(7.73903 6.91324e-19 0.357996)
(7.40814 0 0.396833)
(7.04968 1.85103e-18 0.438997)
(6.66258 -1.81647e-18 0.484461)
(6.246 -1.60315e-18 0.533015)
(5.79949 2.38951e-18 0.584177)
(5.32308 2.55203e-19 0.637092)
(4.8176 -4.37051e-18 0.690408)
(4.28491 4.32008e-18 0.742105)
(3.72817 6.20938e-19 0.789236)
(3.15235 0 0.827492)
(2.56482 0 0.850313)
(1.9762 -7.7511e-19 0.846791)
(1.40309 1.08983e-17 0.794967)
(0.819737 -2.90064e-17 0.64473)
(0.540722 1.0495e-17 0.291853)
(10.0038 8.71295e-20 0.0427963)
(9.97922 2.96728e-20 0.0725951)
(9.93171 1.21967e-19 0.0980482)
(9.86448 -1.24461e-19 0.124495)
(9.77932 0 0.152395)
(9.67661 -1.98757e-19 0.181525)
(9.5563 5.08923e-19 0.212227)
(9.41837 -2.78564e-19 0.245071)
(9.26259 0 0.280543)
(9.08858 0 0.318997)
(8.8958 -4.83506e-21 0.360783)
(8.68347 0 0.40635)
(8.4507 -1.21583e-18 0.45619)
(8.19652 2.77105e-18 0.510762)
(7.91984 -1.61366e-18 0.570472)
(7.61946 1.51666e-18 0.635662)
(7.2942 -1.74884e-19 0.706563)
(6.94287 -1.43097e-18 0.783214)
(6.56438 3.26821e-18 0.865375)
(6.15779 -8.18687e-18 0.952392)
(5.7224 3.80918e-18 1.043)
(5.25796 4.07493e-18 1.13515)
(4.76484 -4.26337e-18 1.22572)
(4.24412 0 1.31009)
(3.69774 0 1.38157)
(3.12842 -1.03989e-17 1.43025)
(2.53839 3.33888e-17 1.44114)
(1.92977 1.60722e-18 1.39015)
(1.24823 -5.3979e-17 1.24851)
(0.724303 3.44933e-17 0.950874)
(10.0021 -1.74507e-19 0.0482417)
(9.97525 1.7762e-19 0.0891794)
(9.92767 0 0.126106)
(9.86171 1.24107e-19 0.163192)
(9.77835 -2.55757e-19 0.201551)
(9.67789 3.26213e-19 0.241357)
(9.56046 -5.40957e-19 0.283156)
(9.4262 6.215e-19 0.327701)
(9.27503 -3.57004e-20 0.375631)
(9.10682 0 0.427439)
(8.92119 1.22764e-18 0.483642)
(8.71754 -2.52674e-18 0.544884)
(8.49528 1.30075e-18 0.611844)
(8.2537 0 0.685162)
(7.99199 1.7732e-18 0.765437)
(7.70927 -1.64118e-18 0.853204)
(7.40457 0 0.948884)
(7.07692 0 1.05268)
(6.72526 3.35615e-18 1.16449)
(6.34858 -2.59296e-18 1.28373)
(5.94573 -8.26909e-18 1.40908)
(5.51555 7.62945e-18 1.53821)
(5.05703 -1.00606e-18 1.66746)
(4.569 -1.06103e-18 1.79149)
(4.04991 -1.92245e-17 1.90254)
(3.49722 1.9059e-17 1.98963)
(2.90549 2.54653e-18 2.03768)
(2.26903 2.74027e-18 2.02594)
(1.52991 2.54039e-17 1.94085)
(0.87518 -3.10246e-17 1.74115)
(10.0012 0 0.055144)
(9.97314 -3.54012e-19 0.10556)
(9.92545 1.21556e-19 0.152542)
(9.86059 -3.70252e-19 0.199326)
(9.77905 2.54236e-19 0.247417)
(9.68077 -1.04116e-18 0.297383)
(9.56592 5.32224e-19 0.349942)
(9.43476 -6.87576e-20 0.405932)
(9.28731 3.54039e-20 0.466061)
(9.1236 -1.17298e-18 0.53092)
(8.94323 1.2e-18 0.60116)
(8.74576 -1.29014e-18 0.677554)
(8.53079 2.49291e-18 0.760899)
(8.29782 -1.15774e-18 0.851958)
(8.04625 -2.95228e-18 0.951476)
(7.77541 2.84737e-18 1.06014)
(7.48459 0 1.17853)
(7.17303 2.72963e-18 1.30703)
(6.83982 -3.19993e-18 1.4457)
(6.48395 -4.20909e-19 1.59418)
(6.10421 6.44822e-21 1.75141)
(5.69877 8.27636e-18 1.9151)
(5.26546 -7.61348e-18 2.08166)
(4.80132 1.71718e-17 2.24576)
(4.30212 -8.84879e-19 2.39984)
(3.76162 -1.77825e-17 2.53351)
(3.17013 -2.37828e-18 2.63334)
(2.52014 1.9061e-17 2.68136)
(1.76178 -2.31718e-17 2.66623)
(1.02544 1.57833e-18 2.55212)
(10.0009 0 0.0627165)
(9.97222 2.35524e-19 0.121927)
(9.92475 -2.40952e-19 0.178509)
(9.86126 2.4526e-19 0.234923)
(9.78188 2.51462e-19 0.29272)
(9.68621 1.29178e-19 0.352771)
(9.57439 1.3225e-19 0.415938)
(9.44679 0 0.483103)
(9.30354 0 0.555032)
(9.14469 0 0.632436)
(8.96984 1.18202e-18 0.716109)
(8.77863 -1.16012e-18 0.806935)
(8.57079 0 0.905808)
(8.3459 -2.79093e-18 1.01361)
(8.10351 -3.35438e-20 1.13122)
(7.84305 2.95241e-18 1.25947)
(7.5639 3.60576e-19 1.39909)
(7.26545 7.50013e-19 1.55065)
(6.94673 6.65428e-18 1.71437)
(6.60673 -6.42603e-18 1.89017)
(6.24424 -5.91773e-18 2.07746)
(5.85701 -8.86311e-20 2.27441)
(5.44192 8.1644e-18 2.47788)
(4.99477 0 2.6831)
(4.50956 2.99059e-18 2.88334)
(3.97806 0 3.06927)
(3.38856 1.77138e-17 3.22857)
(2.73318 9.95403e-20 3.34356)
(1.97442 -1.87849e-17 3.39546)
(1.17924 1.42627e-18 3.3453)
(10.0009 0 0.0705667)
(9.97205 1.17409e-19 0.138218)
(9.92519 -3.59135e-19 0.203927)
(9.86343 2.43863e-19 0.269624)
(9.78651 2.51437e-19 0.336785)
(9.69383 3.55835e-21 0.406542)
(9.58558 -6.54496e-19 0.479908)
(9.46216 -1.34425e-19 0.557804)
(9.32379 0 0.641066)
(9.17047 -1.14273e-18 0.73053)
(9.00183 2.31219e-18 0.827118)
(8.8176 -1.2165e-18 0.931801)
(8.61757 0 1.04556)
(8.40136 2.57259e-18 1.16938)
(8.16856 -2.623e-18 1.30426)
(7.9187 0 1.4512)
(7.65117 -2.60585e-21 1.61109)
(7.36534 -3.64855e-19 1.7847)
(7.06015 -6.42822e-18 1.97248)
(6.73425 6.18674e-18 2.1746)
(6.3864 -8.01053e-19 2.391)
(6.01413 -1.42671e-17 2.62068)
(5.61362 2.7713e-17 2.86129)
(5.17976 -1.34364e-17 3.10896)
(4.70536 1.41189e-17 3.35797)
(4.18103 -1.65661e-17 3.59995)
(3.59405 0 3.8227)
(2.93488 -3.58784e-17 4.00726)
(2.17941 3.68948e-17 4.1232)
(1.33556 -3.2092e-19 4.12219)
(10.0011 0 0.0784591)
(9.97241 0 0.15429)
(9.92644 -7.13766e-19 0.228654)
(9.86679 2.42397e-19 0.303219)
(9.79271 -2.47932e-19 0.379399)
(9.70341 0 0.4585)
(9.59922 -2.59588e-19 0.541662)
(9.48055 4.74601e-22 0.629856)
(9.3477 1.09789e-18 0.723989)
(9.20061 -1.04657e-18 0.825016)
(9.03895 -1.12145e-18 0.933966)
(8.86255 3.55662e-18 1.05189)
(8.67122 -2.42048e-18 1.17984)
(8.46462 7.79502e-20 1.31894)
(8.24233 2.75096e-18 1.4703)
(8.00392 -2.63712e-18 1.63506)
(7.7488 -6.82709e-19 1.81433)
(7.47619 3.50103e-19 2.00914)
(7.18513 -3.60708e-19 2.22034)
(6.87375 0 2.44833)
(6.54033 7.75392e-19 2.69352)
(6.18241 0 2.95594)
(5.79563 0 3.23428)
(5.37419 -8.55494e-19 3.52589)
(4.90994 8.72858e-19 3.82615)
(4.39242 9.20914e-19 4.12746)
(3.80803 -1.48244e-17 4.41727)
(3.1437 4.80591e-17 4.67498)
(2.38745 -3.33951e-17 4.85839)
(1.49638 3.81472e-17 4.90517)
(10.0015 -1.1446e-19 0.086243)
(9.97313 1.15941e-19 0.170006)
(9.9284 4.73922e-19 0.252566)
(9.87121 -4.84119e-19 0.335536)
(9.80032 7.38516e-19 0.420369)
(9.71479 0 0.508441)
(9.61509 1.292e-18 0.600958)
(9.50171 -1.97656e-18 0.698957)
(9.37495 2.29362e-18 0.803437)
(9.23475 -1.30822e-18 0.915458)
(9.08086 7.06464e-20 1.03614)
(8.91316 2.3366e-18 1.16661)
(8.73145 -2.37345e-18 1.30803)
(8.53546 -2.53765e-18 1.46162)
(8.32478 4.79047e-18 1.62863)
(8.09897 -2.56662e-18 1.81036)
(7.85742 1.67872e-19 2.00814)
(7.5992 -5.81254e-18 2.22328)
(7.32346 1.15298e-17 2.45715)
(7.02814 5.73315e-20 2.71065)
(6.71078 -1.77139e-17 2.98462)
(6.36863 1.20554e-17 3.28003)
(5.99705 0 3.59689)
(5.58957 0 3.93402)
(5.13719 -1.23842e-18 4.28825)
(4.62811 1.40626e-17 4.65292)
(4.04734 -4.27722e-17 5.01517)
(3.37655 2.93719e-17 5.35329)
(2.61286 -1.2104e-20 5.61494)
(1.66809 0 5.72131)
(10.0018 0 0.0938241)
(9.97414 0 0.18522)
(9.93107 2.35809e-19 0.275521)
(9.87653 -2.3929e-19 0.366432)
(9.80906 4.90658e-19 0.45952)
(9.72769 3.11189e-21 0.556154)
(9.63292 -7.62719e-19 0.65754)
(9.52529 -1.04623e-18 0.764799)
(9.40519 -1.41935e-19 0.87904)
(9.27255 2.1809e-18 1.00142)
(9.12716 -3.56002e-18 1.13315)
(8.96898 2.27276e-18 1.27542)
(8.79781 0 1.42949)
(8.61342 1.86193e-20 1.59669)
(8.41549 5.0014e-18 1.77844)
(8.20353 -4.99269e-18 1.9762)
(7.97695 5.32226e-18 2.19154)
(7.73478 -5.0679e-18 2.42608)
(7.47602 0 2.68166)
(7.19873 -1.10489e-17 2.95996)
(6.90009 2.55027e-19 3.26247)
(6.57675 1.14486e-17 3.59101)
(6.22381 0 3.94707)
(5.83416 3.7118e-19 4.33125)
(5.39797 -1.19202e-17 4.7424)
(4.9017 1.21614e-17 5.17555)
(4.3281 -2.59508e-17 5.61838)
(3.65179 2.6442e-17 6.04921)
(2.8746 -1.31677e-18 6.40759)
(1.86178 0 6.59949)
(10.0022 1.13434e-19 0.101125)
(9.97544 -1.14753e-19 0.199795)
(9.93432 0 0.297402)
(9.88254 0 0.395814)
(9.81865 0 0.496705)
(9.74181 0 0.601427)
(9.65239 1.26587e-18 0.711165)
(9.55098 2.64128e-19 0.8271)
(9.43805 -2.36591e-18 0.950469)
(9.31353 1.33835e-18 1.08253)
(9.17729 1.37526e-19 1.22453)
(9.02937 0 1.37778)
(8.86963 -7.12568e-20 1.54362)
(8.69785 2.36677e-18 1.72347)
(8.51377 2.4198e-18 1.9189)
(8.31696 -4.85343e-18 2.13159)
(8.10686 -5.07322e-18 2.36334)
(7.88258 5.04931e-18 2.61613)
(7.6429 -5.18976e-18 2.89226)
(7.38618 5.24343e-18 3.19421)
(7.10955 -1.10822e-17 3.52438)
(6.80921 1.10192e-17 3.88555)
(6.4801 -1.09937e-17 4.28089)
(6.11447 1.08378e-17 4.71309)
(5.70171 1.13095e-17 5.18384)
(5.22639 1.91522e-19 5.69128)
(4.66804 -1.18183e-17 6.2256)
(3.99183 1.13078e-18 6.76753)
(3.1991 8.09253e-19 7.25134)
(2.09571 4.21485e-19 7.57513)
(10.0026 0 0.108072)
(9.97701 0 0.213624)
(9.93799 0 0.318126)
(9.88912 0 0.423608)
(9.82903 4.82748e-19 0.531802)
(9.757 -4.89014e-19 0.644065)
(9.67334 0 0.761593)
(9.57858 -2.55148e-19 0.885606)
(9.47324 2.6014e-19 1.01743)
(9.35734 -1.32639e-19 1.15842)
(9.23083 2.16584e-18 1.3099)
(9.09381 -1.19623e-19 1.47321)
(8.94625 -2.02297e-18 1.64981)
(8.788 -2.32917e-18 1.84124)
(8.61883 2.31683e-18 2.04918)
(8.43844 0 2.27551)
(8.24638 7.80182e-20 2.52229)
(8.04179 -1.53879e-19 2.79184)
(7.8235 0 3.08692)
(7.5903 -1.94935e-20 3.41083)
(7.33948 -1.02091e-17 3.76693)
(7.06719 -2.42225e-19 4.15917)
(6.76852 1.03598e-17 4.5926)
(6.4354 1.0448e-17 5.07247)
(6.05676 -1.01025e-17 5.60418)
(5.6156 1.00612e-17 6.19098)
(5.08776 -1.06999e-17 6.82915)
(4.42633 -6.92875e-19 7.50708)
(3.6265 1.11437e-17 8.15974)
(2.40161 -1.25073e-17 8.69639)
(10.003 0 0.114611)
(9.97875 -9.0729e-19 0.226628)
(9.94198 -4.60964e-19 0.337613)
(9.89623 2.03651e-21 0.44971)
(9.84022 -9.55163e-19 0.564678)
(9.77328 4.84544e-19 0.683898)
(9.69567 0 0.808619)
(9.60793 1.00926e-18 0.940088)
(9.51057 -1.02078e-18 1.07968)
(9.40371 0 1.22882)
(9.28743 2.12878e-18 1.38889)
(9.16188 -2.01513e-18 1.56129)
(9.02714 -1.37743e-19 1.74756)
(8.88317 2.23882e-18 1.94936)
(8.72984 -2.39867e-18 2.16848)
(8.56702 0 2.40696)
(8.39445 4.67322e-18 2.66712)
(8.21134 -4.70376e-18 2.95159)
(8.01689 -4.85239e-18 3.26356)
(7.81024 4.81684e-18 3.60697)
(7.58915 0 3.98616)
(7.35039 -2.61902e-19 4.40646)
(7.08957 9.9428e-18 4.8748)
(6.79948 -2.95916e-20 5.39953)
(6.46946 -9.98704e-18 5.99051)
(6.08201 -2.8133e-19 6.6581)
(5.61075 0 7.41015)
(4.99557 0 8.25277)
(4.22091 9.48216e-18 9.13801)
(2.83777 -1.02983e-17 10.0367)
(10.0035 -8.90812e-19 0.120705)
(9.9806 1.13184e-18 0.23874)
(9.94624 2.30737e-19 0.355775)
(9.90381 4.67053e-19 0.473999)
(9.85218 -4.72433e-19 0.595188)
(9.79056 0 0.720782)
(9.71921 9.80807e-19 0.852082)
(9.63878 -9.91365e-19 0.99035)
(9.54976 0 1.13698)
(9.45232 0 1.29345)
(9.34669 -2.09229e-18 1.46119)
(9.2331 1.84737e-18 1.64165)
(9.11171 2.42313e-18 1.83643)
(8.98265 -1.21954e-19 2.04728)
(8.84595 -2.0618e-18 2.27609)
(8.70169 0 2.52502)
(8.54975 -4.6626e-18 2.7966)
(8.38981 -1.92455e-20 3.09375)
(8.22152 4.6418e-18 3.41999)
(8.04425 4.59906e-18 3.77965)
(7.85668 -9.19592e-18 4.17798)
(7.65681 4.87891e-18 4.62158)
(7.44146 -8.81207e-18 5.11903)
(7.2058 6.25354e-19 5.68182)
(6.94159 8.89705e-18 6.32453)
(6.63404 5.5296e-19 7.06605)
(6.25995 8.27026e-18 7.931)
(5.75199 -8.26737e-18 8.958)
(5.08974 7.6418e-18 10.1573)
(3.52076 -7.75802e-18 11.735)
(10.004 8.89643e-19 0.126329)
(9.98252 6.71495e-19 0.249917)
(9.95068 -2.25464e-19 0.372526)
(9.91182 -9.25359e-19 0.496361)
(9.86475 9.39325e-19 0.623221)
(9.80857 0 0.7546)
(9.74368 -4.8251e-19 0.891836)
(9.67082 0 1.0362)
(9.59041 2.48383e-19 1.1891)
(9.50271 -2.02823e-18 1.35204)
(9.40809 2.04524e-18 1.52649)
(9.30685 2.60883e-19 1.71393)
(9.19925 -2.64278e-19 1.916)
(9.0856 3.98445e-19 2.1345)
(8.96616 -2.67304e-19 2.37138)
(8.8412 -2.69498e-19 2.6289)
(8.71083 1.37497e-19 2.90967)
(8.57538 -2.72261e-19 3.21686)
(8.43496 4.40195e-18 3.55416)
(8.28941 -8.00697e-22 3.92612)
(8.13862 -9.8541e-21 4.33859)
(7.9822 -8.66685e-18 4.79895)
(7.81916 -4.22846e-18 5.31691)
(7.64825 -4.16986e-19 5.90606)
(7.4667 1.69303e-19 6.58464)
(7.26838 1.64818e-17 7.37886)
(7.04533 -1.46594e-17 8.32951)
(6.74912 1.35271e-17 9.51445)
(6.4179 -6.41907e-18 11.0576)
(4.67037 4.26306e-19 14.1502)
(-0.009713 0 -0.0119731)
(0.0734763 -1.56544e-20 -0.0534578)
(0.221138 3.58958e-21 -0.0675442)
(0.370932 1.66155e-21 -0.0617188)
(0.506457 0 -0.0479952)
(0.614491 1.1685e-20 -0.0326856)
(0.690479 0 -0.0187222)
(0.736859 -8.33804e-20 -0.00750075)
(0.759376 8.2259e-20 0.000643023)
(0.764564 0 0.0060592)
(0.75786 0 0.00861698)
(0.743927 -5.3633e-20 0.00939577)
(0.726588 3.52082e-20 0.00945395)
(0.706996 0 0.00995104)
(0.684231 0 0.0109299)
(0.657942 1.27447e-22 0.0114576)
(0.630187 7.4562e-21 0.0107898)
(0.60287 0 0.0102276)
(0.573639 -6.59589e-21 0.0110872)
(0.538767 0 0.0119085)
(0.499531 5.79574e-21 0.0107291)
(0.463644 0 0.00749753)
(0.441462 2.31019e-21 0.00333723)
(0.439182 -2.27891e-21 -0.00191095)
(0.454692 -3.73452e-21 -0.0086479)
(0.485211 3.12015e-21 -0.0165082)
(0.530547 0 -0.0232348)
(0.590195 1.83003e-22 -0.0280605)
(0.661507 2.03188e-21 -0.0311853)
(0.771465 0 -0.0327556)
(-0.0104022 -5.17478e-19 -0.0482431)
(0.0732696 5.01463e-20 -0.152596)
(0.210513 3.36681e-21 -0.181356)
(0.350623 4.21531e-19 -0.168162)
(0.481042 0 -0.137892)
(0.59029 1.15045e-20 -0.103365)
(0.674161 -2.19809e-20 -0.0708071)
(0.734146 -1.6599e-19 -0.0434465)
(0.77417 3.22967e-19 -0.0221684)
(0.798231 3.44759e-20 -0.00589157)
(0.810335 -1.51298e-19 0.00522139)
(0.813929 1.79599e-20 0.0106433)
(0.81163 0 0.0136968)
(0.803454 0 0.0176777)
(0.787564 0 0.022253)
(0.764377 -7.60215e-21 0.0247568)
(0.738253 0 0.0246766)
(0.712044 0 0.0268776)
(0.68137 -6.54685e-21 0.0336397)
(0.641589 0 0.0390468)
(0.596446 -5.74177e-21 0.0368226)
(0.555566 -5.10711e-21 0.0243246)
(0.526126 9.66391e-21 0.0061344)
(0.505655 -9.16963e-21 -0.00776374)
(0.486691 7.2382e-21 -0.0159762)
(0.462769 -9.41747e-21 -0.0227689)
(0.447148 -6.09434e-21 -0.0312675)
(0.45147 1.0735e-21 -0.0413117)
(0.475607 2.22861e-21 -0.0543248)
(0.546824 1.5635e-21 -0.0663062)
(-0.0135324 0 -0.106745)
(0.0558934 8.95763e-19 -0.248984)
(0.170097 -1.5806e-20 -0.282495)
(0.281771 -8.30795e-19 -0.260858)
(0.383923 -2.43523e-20 -0.215659)
(0.468044 -4.63957e-20 -0.164378)
(0.531512 -2.82957e-19 -0.116046)
(0.575972 3.44983e-19 -0.0755696)
(0.604843 -4.07858e-20 -0.0441778)
(0.62174 -3.93913e-20 -0.0201237)
(0.628159 0 -0.00178493)
(0.626885 -3.65384e-20 0.00949861)
(0.621857 1.38813e-19 0.0181105)
(0.610109 -2.03392e-19 0.0289623)
(0.586587 6.55985e-20 0.0401618)
(0.551526 -3.10307e-20 0.0444604)
(0.510841 0 0.0366979)
(0.467651 2.76553e-20 0.0364705)
(0.417953 -1.39736e-20 0.0502605)
(0.352959 2.52267e-20 0.0649556)
(0.270617 -1.14684e-20 0.0703956)
(0.175643 2.20264e-20 0.0625137)
(0.0786943 -1.05779e-20 0.045536)
(-0.0150358 9.03634e-21 0.0293137)
(-0.0552337 -2.36728e-20 0.0179595)
(-0.0723743 1.97935e-20 0.00049893)
(-0.0757475 5.21653e-21 -0.0248466)
(-0.0543445 0 -0.0547301)
(-0.0196415 -9.22456e-21 -0.0843387)
(0.0338968 -1.62367e-21 -0.105097)
(-0.0341976 0 -0.187215)
(0.0214557 4.56279e-23 -0.336637)
(0.11471 0 -0.361955)
(0.195037 6.39077e-21 -0.327708)
(0.263698 4.89781e-20 -0.268125)
(0.316049 7.14698e-19 -0.202878)
(0.351831 -8.1944e-19 -0.142187)
(0.373697 0 -0.0924702)
(0.382681 8.35307e-20 -0.0517039)
(0.383914 -3.18397e-19 -0.0180431)
(0.378254 4.69586e-19 0.00329377)
(0.364203 -1.14719e-19 0.00587113)
(0.337214 0 0.0104433)
(0.294766 0 0.031247)
(0.234542 0 0.0588331)
(0.146731 3.21176e-20 0.081149)
(0.0350187 0 0.0895395)
(-0.116463 2.83948e-20 0.0970492)
(-0.195832 -8.4844e-20 0.116717)
(-0.260036 2.61451e-20 0.130055)
(-0.325285 -4.82641e-20 0.131072)
(-0.384306 1.62046e-21 0.118337)
(-0.43347 2.09522e-20 0.0926046)
(-0.470075 -2.6153e-20 0.0574444)
(-0.488918 2.3557e-20 0.0221271)
(-0.494348 -1.27687e-20 -0.0104314)
(-0.492696 0 -0.0414954)
(-0.487582 -7.34288e-22 -0.0716953)
(-0.482639 5.13169e-21 -0.0983844)
(-0.479523 2.99541e-21 -0.116715)
(-0.0766853 0 -0.280428)
(-0.0345573 -8.93198e-19 -0.412737)
(0.0365759 8.80539e-19 -0.419041)
(0.0810506 -1.29801e-20 -0.367423)
(0.110876 7.33324e-19 -0.293957)
(0.125054 -1.48133e-18 -0.218175)
(0.126217 2.05265e-20 -0.149015)
(0.121063 7.24425e-19 -0.0965004)
(0.0993982 -4.32493e-20 -0.0650647)
(0.0764192 -3.31078e-19 -0.030045)
(0.0140823 6.50528e-19 0.0137685)
(-0.071195 -1.63622e-19 0.0492217)
(-0.241519 -1.54324e-19 0.0750205)
(-0.341568 -7.21088e-20 0.104025)
(-0.399297 -1.34088e-19 0.135439)
(-0.462359 1.30489e-19 0.157073)
(-0.537737 5.99442e-20 0.164616)
(-0.621816 -5.87047e-20 0.158391)
(-0.683354 2.55491e-20 0.156535)
(-0.73255 -5.13824e-20 0.158283)
(-0.771702 -2.33231e-20 0.152573)
(-0.802472 2.05557e-20 0.133944)
(-0.828209 -8.40528e-22 0.103621)
(-0.85144 1.71958e-20 0.0669216)
(-0.871636 0 0.0304388)
(-0.886978 0 -0.00368346)
(-0.901926 0 -0.0371916)
(-0.914572 -1.36858e-20 -0.0689977)
(-0.926429 8.12639e-21 -0.0978628)
(-0.935205 -2.99803e-21 -0.119641)
(-0.132067 2.0096e-18 -0.373876)
(-0.112268 -1.83219e-18 -0.469473)
(-0.0716875 0 -0.447208)
(-0.072391 0 -0.372163)
(-0.091517 2.56048e-20 -0.284404)
(-0.127638 0 -0.202814)
(-0.175052 8.1311e-19 -0.13381)
(-0.223095 -7.60266e-19 -0.059953)
(-0.363044 -8.96995e-20 0.00387052)
(-0.517449 3.34206e-19 0.0622538)
(-0.597093 -7.95873e-21 0.110424)
(-0.653391 -3.8353e-19 0.139276)
(-0.734553 -1.426e-19 0.144461)
(-0.809377 2.07623e-19 0.150627)
(-0.867613 -6.51829e-20 0.170164)
(-0.917256 0 0.18932)
(-0.966156 5.76675e-20 0.196677)
(-1.01712 -8.44909e-20 0.191632)
(-1.06313 2.59862e-20 0.185001)
(-1.1018 4.88849e-20 0.179274)
(-1.13299 2.25635e-20 0.167645)
(-1.15968 0 0.146028)
(-1.18556 -1.88139e-20 0.115226)
(-1.21222 -7.79913e-21 0.0790164)
(-1.23851 7.69807e-21 0.0417461)
(-1.26292 0 0.00576134)
(-1.28448 2.03303e-20 -0.0288225)
(-1.30667 1.26577e-20 -0.0620468)
(-1.32673 -9.18461e-21 -0.0927886)
(-1.3395 -2.69899e-21 -0.115859)
(-0.191575 1.98947e-18 -0.453738)
(-0.212316 -1.87795e-18 -0.492498)
(-0.218418 1.82239e-18 -0.427672)
(-0.280348 8.94265e-19 -0.319679)
(-0.36899 -8.54911e-19 -0.210523)
(-0.482262 0 -0.113512)
(-0.623925 0 -0.0201083)
(-0.761849 9.1313e-20 0.0591908)
(-0.848082 8.5813e-20 0.102068)
(-0.925427 -2.3964e-19 0.125325)
(-0.99348 5.40202e-19 0.148829)
(-1.05156 -5.13711e-19 0.171367)
(-1.11113 2.12995e-19 0.182488)
(-1.16965 0 0.189349)
(-1.22059 6.29407e-20 0.201836)
(-1.2635 -1.1846e-19 0.214515)
(-1.30306 5.86489e-20 0.21957)
(-1.34351 9.25526e-22 0.215889)
(-1.38359 1.01769e-19 0.208617)
(-1.42062 -9.77992e-20 0.199236)
(-1.45397 -4.55155e-20 0.18429)
(-1.48532 4.05845e-20 0.161266)
(-1.51674 0 0.130554)
(-1.54889 -3.21786e-20 0.0947215)
(-1.58085 -2.75114e-20 0.0569579)
(-1.61137 0 0.0195153)
(-1.63891 -1.78763e-20 -0.0164603)
(-1.66859 -1.23675e-21 -0.050981)
(-1.69488 -5.74983e-21 -0.0833193)
(-1.70998 2.70637e-21 -0.106739)
(-0.252649 2.01273e-18 -0.496254)
(-0.333395 -1.91408e-18 -0.45445)
(-0.414024 -9.15184e-19 -0.328336)
(-0.551074 8.41605e-19 -0.194068)
(-0.706999 8.34923e-19 -0.0764903)
(-0.86184 -1.60426e-18 0.0187398)
(-0.984626 1.41981e-18 0.0815607)
(-1.07358 -1.08679e-19 0.121746)
(-1.15605 -2.65663e-19 0.152108)
(-1.23093 -4.01229e-19 0.175047)
(-1.29679 7.51014e-20 0.193222)
(-1.35426 2.82913e-19 0.207955)
(-1.40832 -2.08299e-19 0.216844)
(-1.46027 -6.51005e-20 0.223204)
(-1.50741 0 0.231464)
(-1.54908 -5.9116e-20 0.239259)
(-1.58821 -5.4367e-20 0.242143)
(-1.62803 1.614e-19 0.238994)
(-1.66865 4.88192e-20 0.231781)
(-1.70849 -4.82873e-20 0.220832)
(-1.74691 0 0.204172)
(-1.78462 -9.80928e-20 0.180298)
(-1.82267 1.86494e-20 0.149521)
(-1.86123 1.95392e-22 0.113708)
(-1.89947 2.67744e-20 0.0753204)
(-1.93646 -4.86435e-21 0.036621)
(-1.97196 4.80127e-21 -0.000731208)
(-2.00656 1.1339e-20 -0.0367858)
(-2.03837 1.31401e-20 -0.070477)
(-2.05537 -4.65567e-21 -0.0941388)
(-0.318271 -2.06176e-18 -0.466902)
(-0.472249 3.89445e-18 -0.333693)
(-0.629698 -9.66909e-19 -0.171225)
(-0.813277 -8.86457e-19 -0.0306909)
(-0.977634 -8.36714e-19 0.0681163)
(-1.10598 8.08772e-19 0.125048)
(-1.21706 9.26913e-20 0.163816)
(-1.31485 0 0.192241)
(-1.40146 -8.21967e-20 0.21248)
(-1.47782 3.0778e-19 0.226982)
(-1.54454 -2.99883e-19 0.238001)
(-1.60309 2.7767e-19 0.246108)
(-1.65674 -2.7122e-19 0.25119)
(-1.70732 6.36099e-20 0.255375)
(-1.75427 -1.2011e-19 0.26055)
(-1.79771 1.75309e-19 0.265275)
(-1.83964 0 0.266816)
(-1.88224 -5.21074e-20 0.263958)
(-1.926 0 0.256957)
(-1.97022 4.58361e-20 0.24541)
(-2.01453 4.26675e-20 0.227973)
(-2.05925 2.02013e-20 0.203714)
(-2.10482 1.86538e-21 0.172921)
(-2.15099 2.29241e-21 0.136979)
(-2.1967 8.02783e-21 0.0978631)
(-2.2411 5.76979e-21 0.0577293)
(-2.28395 0 0.0183548)
(-2.32422 -1.00513e-20 -0.0195813)
(-2.36098 -1.83206e-20 -0.0545108)
(-2.37991 8.58596e-21 -0.0786705)
(-0.387484 -2.15058e-18 -0.34854)
(-0.605559 1.57474e-20 -0.152807)
(-0.817565 -9.61158e-19 0.0358125)
(-1.00149 9.76815e-19 0.140853)
(-1.15578 -5.28453e-20 0.195594)
(-1.29366 9.84693e-20 0.23104)
(-1.41429 -7.23244e-19 0.253906)
(-1.51897 7.00902e-19 0.268112)
(-1.60965 -2.38807e-19 0.276355)
(-1.68827 3.11543e-19 0.280989)
(-1.75676 7.27782e-20 0.283949)
(-1.81732 0 0.285826)
(-1.87249 0 0.286902)
(-1.92399 1.87185e-19 0.288346)
(-1.97234 -6.12618e-20 0.290906)
(-2.01831 -5.75399e-20 0.293506)
(-2.06353 1.07434e-19 0.294192)
(-2.10968 -2.0807e-19 0.291581)
(-2.15746 4.97533e-20 0.284977)
(-2.20683 0 0.273511)
(-2.25772 -4.17376e-20 0.256057)
(-2.31026 0 0.231921)
(-2.36439 0 0.201278)
(-2.41934 3.10005e-22 0.16513)
(-2.47364 5.58365e-21 0.125071)
(-2.52622 1.39245e-20 0.0831065)
(-2.57694 1.44661e-20 0.0412105)
(-2.62516 -9.5509e-22 0.000900567)
(-2.66472 1.2279e-20 -0.0356496)
(-2.68572 -4.48203e-21 -0.0604119)
(-0.457278 -2.2779e-18 -0.156046)
(-0.709823 1.07977e-18 0.120618)
(-0.929586 9.50213e-19 0.24229)
(-1.13322 -9.32071e-19 0.303817)
(-1.30989 1.76062e-18 0.333681)
(-1.46104 -8.82348e-19 0.346501)
(-1.58959 0 0.349943)
(-1.69906 8.47137e-20 0.347889)
(-1.79247 -4.74149e-19 0.342834)
(-1.87283 3.06435e-19 0.336976)
(-1.94289 2.10967e-19 0.331773)
(-2.00524 -6.81353e-21 0.327575)
(-2.06204 -5.19225e-19 0.324446)
(-2.11482 1.26849e-19 0.322861)
(-2.1646 -5.91306e-20 0.323019)
(-2.21262 1.68609e-19 0.324024)
(-2.26057 -1.64204e-19 0.324251)
(-2.31009 5.11026e-20 0.322134)
(-2.36218 0 0.316402)
(-2.41727 0 0.30582)
(-2.47552 -3.97026e-20 0.28922)
(-2.53688 1.5941e-21 0.26586)
(-2.60077 -3.28821e-20 0.235673)
(-2.66579 2.84625e-20 0.199282)
(-2.72987 0 0.157968)
(-2.79149 -1.90018e-20 0.113631)
(-2.85042 -4.07144e-20 0.0685128)
(-2.90609 8.43591e-22 0.0249086)
(-2.95185 -8.32821e-22 -0.0138156)
(-2.97308 0 -0.0396342)
(-0.472894 0 0.206351)
(-0.743501 -1.6175e-20 0.390258)
(-1.02367 1.01411e-18 0.471044)
(-1.26383 -3.38216e-20 0.492234)
(-1.45936 -8.74977e-19 0.484643)
(-1.61814 9.39886e-20 0.468077)
(-1.74977 7.83546e-19 0.449376)
(-1.86058 -7.59074e-19 0.42984)
(-1.95441 1.56379e-19 0.410778)
(-2.03481 0 0.394173)
(-2.10515 -2.0741e-19 0.381006)
(-2.1682 3.37672e-19 0.370931)
(-2.22573 1.26539e-19 0.363442)
(-2.27899 -6.25626e-20 0.35859)
(-2.32926 5.89615e-20 0.356438)
(-2.37821 -1.11543e-19 0.356276)
(-2.42789 2.17098e-19 0.356591)
(-2.48024 1.41455e-21 0.355582)
(-2.53661 9.79935e-20 0.351529)
(-2.59782 -1.88778e-21 0.34282)
(-2.66415 -4.25647e-20 0.328025)
(-2.73532 3.67114e-20 0.306104)
(-2.8102 -1.48728e-20 0.276604)
(-2.88669 1.47553e-20 0.239765)
(-2.962 5.00996e-21 0.196621)
(-3.03405 -1.17057e-21 0.149095)
(-3.10248 2.35686e-20 0.0999431)
(-3.16692 -1.57126e-20 0.052493)
(-3.21994 0 0.011139)
(-3.24494 0 -0.0157807)
(-0.451684 -1.12668e-18 0.552158)
(-0.782821 6.27556e-20 0.727538)
(-1.13876 8.68786e-19 0.744607)
(-1.4115 0 0.69931)
(-1.61375 9.6467e-20 0.639656)
(-1.76863 -9.18696e-20 0.589108)
(-1.89557 -8.6304e-20 0.548196)
(-2.00296 -3.99407e-19 0.511453)
(-2.09368 4.59755e-19 0.478272)
(-2.17107 -8.32603e-21 0.45108)
(-2.23926 -5.52049e-19 0.430561)
(-2.30115 2.00163e-19 0.415059)
(-2.35782 0 0.403162)
(-2.40994 0 0.394805)
(-2.45885 -8.59195e-22 0.390387)
(-2.50682 -1.13408e-19 0.389532)
(-2.55652 8.41313e-22 0.390719)
(-2.61036 -4.95433e-20 0.391789)
(-2.67013 1.38422e-21 0.390551)
(-2.73695 4.46134e-20 0.384955)
(-2.81123 1.95321e-20 0.37313)
(-2.89246 -3.62948e-20 0.353539)
(-2.97901 7.98214e-20 0.325226)
(-3.06799 0 0.288029)
(-3.15582 2.53549e-20 0.242785)
(-3.23962 2.6315e-20 0.191559)
(-3.31861 -2.10284e-20 0.137792)
(-3.39225 1.41814e-20 0.0860173)
(-3.4522 0 0.0417947)
(-3.48037 -1.43468e-21 0.0136848)
(-0.440559 2.20037e-18 1.00924)
(-0.862288 0 1.15072)
(-1.30849 0 1.05762)
(-1.59603 7.69711e-19 0.913109)
(-1.77886 -8.46592e-19 0.785483)
(-1.90892 0 0.700399)
(-2.02026 0 0.642026)
(-2.11889 7.91321e-20 0.589848)
(-2.2018 1.04165e-21 0.542326)
(-2.27132 0 0.504874)
(-2.3334 6.56474e-20 0.478366)
(-2.39134 -2.54781e-21 0.458419)
(-2.44476 -1.25148e-19 0.442156)
(-2.49299 -1.19585e-19 0.429939)
(-2.53733 5.91065e-20 0.423221)
(-2.58086 5.66192e-20 0.422259)
(-2.62716 -5.40281e-20 0.425371)
(-2.67921 -5.15436e-20 0.429809)
(-2.73912 -9.75906e-20 0.43283)
(-2.80831 4.67842e-20 0.431889)
(-2.88733 -2.20917e-20 0.424529)
(-2.97548 -1.91883e-20 0.408511)
(-3.07062 -1.68218e-20 0.382188)
(-3.16916 -1.39799e-20 0.344892)
(-3.26667 -2.03916e-20 0.297241)
(-3.35951 -5.83352e-20 0.2415)
(-3.44653 3.76263e-20 0.181917)
(-3.52712 9.41574e-21 0.124431)
(-3.59249 4.34978e-22 0.075995)
(-3.62327 1.00749e-21 0.045674)
(-0.467019 0 1.34133)
(-1.01933 3.49513e-19 1.90001)
(-1.57644 -3.60529e-19 1.49542)
(-1.83902 3.51535e-19 1.14204)
(-1.95583 -3.49206e-19 0.887214)
(-2.02679 0 0.771001)
(-2.11 0 0.717362)
(-2.19667 0 0.658371)
(-2.26618 7.31812e-20 0.5979)
(-2.32014 0 0.551122)
(-2.3702 0 0.521853)
(-2.42088 -1.25978e-19 0.499541)
(-2.46828 1.04802e-21 0.478833)
(-2.50906 1.79683e-19 0.461801)
(-2.54439 -1.75834e-19 0.452268)
(-2.5788 -1.77034e-22 0.451633)
(-2.61722 1.11954e-19 0.457741)
(-2.66323 -5.41011e-20 0.466794)
(-2.71919 9.8656e-20 0.475394)
(-2.78694 -4.79038e-20 0.480503)
(-2.86744 4.1496e-20 0.478953)
(-2.96012 3.69251e-20 0.467581)
(-3.06245 -1.39491e-20 0.443865)
(-3.17009 1.9149e-20 0.406584)
(-3.27765 3.45815e-20 0.356254)
(-3.38047 2.3674e-20 0.295508)
(-3.4767 -1.84259e-20 0.229514)
(-3.56548 -1.38568e-20 0.165735)
(-3.63754 1.32354e-22 0.112607)
(-3.67178 4.18666e-22 0.0796127)
(10.0045 0 0.131556)
(9.98456 -8.62756e-19 0.260303)
(9.9554 1.31263e-18 0.388078)
(9.92038 -4.42191e-19 0.517102)
(9.87813 4.50246e-19 0.649211)
(9.82767 -9.09372e-19 0.785915)
(9.76962 1.39029e-18 0.928545)
(9.70475 -9.35425e-19 1.07841)
(9.63342 2.35097e-19 1.23693)
(9.55606 0 1.4056)
(9.47312 -1.71228e-18 1.58591)
(9.38495 1.96865e-18 1.77936)
(9.29196 0 1.98759)
(9.19469 2.01519e-18 2.21242)
(9.09362 -1.51889e-18 2.45582)
(8.98926 5.10834e-19 2.72007)
(8.88208 -3.85283e-18 3.00782)
(8.7729 4.36746e-18 3.32223)
(8.66246 0 3.66706)
(8.55148 -3.57417e-18 4.04691)
(8.44115 8.09395e-18 4.46767)
(8.33296 -3.41838e-20 4.93682)
(8.22886 -1.02853e-18 5.46422)
(8.13212 -3.82043e-18 6.06348)
(8.04802 -3.57079e-18 6.75327)
(7.98542 3.44712e-18 7.56074)
(7.96889 7.64116e-19 8.5285)
(8.03388 2.53271e-18 9.73395)
(8.74404 -3.45957e-18 11.2425)
(9.37119 -3.24245e-19 14.2729)
(10.0051 1.03421e-19 0.13639)
(9.98673 -3.13604e-19 0.269898)
(9.96042 1.05682e-18 0.402413)
(9.92938 0 0.536179)
(9.89209 4.34261e-19 0.67306)
(9.84768 2.57524e-21 0.814552)
(9.79679 8.96305e-19 0.961966)
(9.74017 -4.52786e-19 1.11664)
(9.67824 -9.17344e-19 1.28002)
(9.61157 -1.39822e-18 1.45356)
(9.54069 1.17053e-18 1.63874)
(9.46602 1.89993e-18 1.83706)
(9.38818 -2.31142e-19 2.05014)
(9.30786 -2.365e-19 2.27975)
(9.22576 -2.1807e-18 2.52784)
(9.1427 -2.45096e-19 2.79666)
(9.05957 4.13775e-18 3.08874)
(8.97759 -3.89552e-18 3.40707)
(8.89819 -4.35048e-18 3.75527)
(8.82307 7.67344e-18 4.13768)
(8.75468 -3.33629e-18 4.55969)
(8.69635 -4.58573e-19 5.02804)
(8.65286 1.35014e-18 5.55132)
(8.63169 0 6.14073)
(8.64509 0 6.81063)
(8.71367 -1.54695e-18 7.57937)
(8.88093 -7.21239e-19 8.46877)
(9.16448 0 9.50456)
(9.8714 9.88782e-19 10.6341)
(10.6049 0 11.8759)
(10.0058 0 0.140745)
(9.98899 8.0908e-19 0.278545)
(9.96566 -8.24328e-19 0.415326)
(9.93874 0 0.553351)
(9.90661 -4.25126e-19 0.694472)
(9.86854 8.55314e-19 0.840167)
(9.82508 0 0.991741)
(9.77698 8.7401e-19 1.15055)
(9.72476 -2.21356e-18 1.31799)
(9.66906 -4.55406e-19 1.4955)
(9.61049 2.25779e-18 1.68452)
(9.54964 4.53283e-19 1.88653)
(9.48729 2.3072e-19 2.10309)
(9.42426 0 2.33586)
(9.36148 4.60125e-19 2.58674)
(9.30005 0 2.8578)