/*--------------------------------*- C++ -*----------------------------------*\
| =========                 |                                                 |
| \\      /  F ield         | OpenFOAM: The Open Source CFD Toolbox           |
|  \\    /   O peration     | Version:  5.x                                   |
|   \\  /    A nd           | Web:      www.OpenFOAM.org                      |
|    \\/     M anipulation  |                                                 |
\*---------------------------------------------------------------------------*/
FoamFile
{
    version     2.0;
    format      ascii;
    class       volVectorField;
    location    "0.8";
    object      U;
}
// * * * * * * * * * * * * * * * * * * * * * * * * * * * * * * * * * * * * * //

dimensions      [0 1 -1 0 0 0 0];

internalField   nonuniform List<vector> 
12013
(
(0.100003 -6.61226e-07 0)
(0.100011 -4.60858e-07 0)
(0.100013 8.29513e-07 0)
(0.0999952 3.18418e-06 0)
(0.0999499 6.20513e-06 0)
(0.0998745 9.28778e-06 0)
(0.0997724 1.18607e-05 0)
(0.099652 1.35861e-05 0)
(0.0995226 1.44196e-05 0)
(0.0993921 1.45386e-05 0)
(0.0992658 1.42152e-05 0)
(0.0991463 1.37053e-05 0)
(0.0990339 1.31886e-05 0)
(0.0989279 1.27559e-05 0)
(0.0988273 1.24315e-05 0)
(0.098731 1.21985e-05 0)
(0.0986384 1.20248e-05 0)
(0.0985491 1.18768e-05 0)
(0.0984628 1.17289e-05 0)
(0.0983797 1.15632e-05 0)
(0.0982998 1.13699e-05 0)
(0.0982233 1.11433e-05 0)
(0.0981503 1.08816e-05 0)
(0.098081 1.05849e-05 0)
(0.0980156 1.02533e-05 0)
(0.0979541 9.88765e-06 0)
(0.0978967 9.4894e-06 0)
(0.0978434 9.06032e-06 0)
(0.0977943 8.60189e-06 0)
(0.0977496 8.11632e-06 0)
(0.0977091 7.60683e-06 0)
(0.0976729 7.07634e-06 0)
(0.097641 6.52959e-06 0)
(0.0976133 5.97094e-06 0)
(0.0975898 5.4061e-06 0)
(0.0975703 4.84094e-06 0)
(0.0975546 4.28356e-06 0)
(0.0975427 3.74118e-06 0)
(0.0975343 3.22279e-06 0)
(0.0975291 2.73853e-06 0)
(0.0975269 2.29939e-06 0)
(0.0975273 1.91768e-06 0)
(0.09753 1.60733e-06 0)
(0.0975345 1.38369e-06 0)
(0.0975403 1.26457e-06 0)
(0.0975469 1.2691e-06 0)
(0.0975538 1.42007e-06 0)
(0.0975603 1.74259e-06 0)
(0.0975656 2.2658e-06 0)
(0.0975691 3.02306e-06 0)
(0.0975697 4.05292e-06 0)
(0.0975664 5.40044e-06 0)
(0.0975583 7.11733e-06 0)
(0.097544 9.26464e-06 0)
(0.0975221 1.19145e-05 0)
(0.097491 1.51516e-05 0)
(0.097449 1.90775e-05 0)
(0.097394 2.3814e-05 0)
(0.0973235 2.95081e-05 0)
(0.097235 3.63391e-05 0)
(0.0971252 4.45268e-05 0)
(0.0969903 5.43447e-05 0)
(0.0968261 6.61352e-05 0)
(0.0966272 8.03313e-05 0)
(0.0963873 9.7489e-05 0)
(0.0960988 0.00011833 0)
(0.0957522 0.000143807 0)
(0.0953357 0.000175194 0)
(0.0948344 0.000214228 0)
(0.0942289 0.000263323 0)
(0.0934943 0.000325899 0)
(0.0925971 0.000406912 0)
(0.0914916 0.000513706 0)
(0.0901148 0.000657438 0)
(0.0883766 0.000855465 0)
(0.0861473 0.00113546 0)
(0.0832337 0.00154264 0)
(0.07933 0.00215476 0)
(0.0739577 0.00312916 0)
(0.0665473 0.00490637 0)
(0.0582039 0.00947207 0)
(0.100003 -2.04025e-06 0)
(0.100011 -1.44216e-06 0)
(0.100013 2.50336e-06 0)
(0.0999963 9.71892e-06 0)
(0.0999517 1.89851e-05 0)
(0.099877 2.84474e-05 0)
(0.0997756 3.63518e-05 0)
(0.0996558 4.16593e-05 0)
(0.0995268 4.42301e-05 0)
(0.0993966 4.46069e-05 0)
(0.0992705 4.36242e-05 0)
(0.099151 4.20664e-05 0)
(0.0990386 4.04839e-05 0)
(0.0989326 3.91584e-05 0)
(0.0988319 3.81631e-05 0)
(0.0987356 3.7448e-05 0)
(0.098643 3.69141e-05 0)
(0.0985536 3.64601e-05 0)
(0.0984673 3.60068e-05 0)
(0.0983842 3.54998e-05 0)
(0.0983042 3.49083e-05 0)
(0.0982276 3.42157e-05 0)
(0.0981545 3.34166e-05 0)
(0.0980851 3.25092e-05 0)
(0.0980195 3.14957e-05 0)
(0.0979578 3.03794e-05 0)
(0.0979001 2.91638e-05 0)
(0.0978465 2.78534e-05 0)
(0.0977971 2.64538e-05 0)
(0.0977519 2.49723e-05 0)
(0.097711 2.34174e-05 0)
(0.0976743 2.17998e-05 0)
(0.0976418 2.01323e-05 0)
(0.0976135 1.84295e-05 0)
(0.0975892 1.67086e-05 0)
(0.0975689 1.49885e-05 0)
(0.0975525 1.32912e-05 0)
(0.0975396 1.16417e-05 0)
(0.0975302 1.00674e-05 0)
(0.097524 8.59864e-06 0)
(0.0975206 7.26908e-06 0)
(0.0975198 6.11668e-06 0)
(0.0975212 5.18388e-06 0)
(0.0975243 4.51869e-06 0)
(0.0975286 4.17446e-06 0)
(0.0975338 4.21068e-06 0)
(0.097539 4.69614e-06 0)
(0.0975438 5.70871e-06 0)
(0.0975475 7.33748e-06 0)
(0.0975491 9.68406e-06 0)
(0.0975478 1.28669e-05 0)
(0.0975427 1.70229e-05 0)
(0.0975326 2.23104e-05 0)
(0.0975164 2.89155e-05 0)
(0.0974925 3.70574e-05 0)
(0.0974596 4.69954e-05 0)
(0.0974157 5.90379e-05 0)
(0.0973589 7.35549e-05 0)
(0.0972869 9.09925e-05 0)
(0.0971969 0.000111894 0)
(0.0970861 0.000136925 0)
(0.0969506 0.000166911 0)
(0.0967864 0.000202881 0)
(0.0965884 0.000246139 0)
(0.0963506 0.000298347 0)
(0.0960657 0.000361659 0)
(0.095725 0.0004389 0)
(0.0953176 0.000533831 0)
(0.0948298 0.000651545 0)
(0.0942446 0.000799052 0)
(0.09354 0.000986185 0)
(0.0926874 0.00122699 0)
(0.0916498 0.00154195 0)
(0.0903775 0.00196142 0)
(0.0888048 0.00253121 0)
(0.0868446 0.00332119 0)
(0.0843832 0.00443776 0)
(0.0812714 0.00604106 0)
(0.0773428 0.00836744 0)
(0.0726511 0.0116945 0)
(0.0685475 0.0158902 0)
(0.100003 -3.53663e-06 0)
(0.100012 -2.57213e-06 0)
(0.100014 4.15488e-06 0)
(0.0999981 1.65102e-05 0)
(0.0999549 3.24128e-05 0)
(0.0998818 4.86832e-05 0)
(0.0997821 6.23062e-05 0)
(0.0996637 7.14867e-05 0)
(0.0995359 7.59705e-05 0)
(0.0994065 7.66785e-05 0)
(0.0992809 7.50373e-05 0)
(0.0991616 7.23924e-05 0)
(0.0990492 6.969e-05 0)
(0.0989432 6.74192e-05 0)
(0.0988425 6.57088e-05 0)
(0.0987461 6.44769e-05 0)
(0.0986535 6.35557e-05 0)
(0.0985641 6.27743e-05 0)
(0.0984778 6.19959e-05 0)
(0.0983946 6.11288e-05 0)
(0.0983145 6.01186e-05 0)
(0.0982378 5.89387e-05 0)
(0.0981646 5.7578e-05 0)
(0.098095 5.60343e-05 0)
(0.0980291 5.43106e-05 0)
(0.0979671 5.2413e-05 0)
(0.097909 5.03473e-05 0)
(0.0978549 4.81216e-05 0)
(0.0978049 4.57456e-05 0)
(0.0977591 4.32317e-05 0)
(0.0977173 4.05948e-05 0)
(0.0976797 3.78536e-05 0)
(0.0976462 3.50295e-05 0)
(0.0976167 3.21487e-05 0)
(0.0975912 2.92397e-05 0)
(0.0975695 2.63363e-05 0)
(0.0975515 2.34759e-05 0)
(0.097537 2.07011e-05 0)
(0.0975257 1.80595e-05 0)
(0.0975175 1.5603e-05 0)
(0.097512 1.33898e-05 0)
(0.0975089 1.14848e-05 0)
(0.0975078 9.96128e-06 0)
(0.0975083 8.90109e-06 0)
(0.0975099 8.39528e-06 0)
(0.0975122 8.54692e-06 0)
(0.0975144 9.47302e-06 0)
(0.097516 1.1307e-05 0)
(0.0975163 1.42007e-05 0)
(0.0975145 1.83284e-05 0)
(0.0975097 2.38918e-05 0)
(0.0975009 3.11231e-05 0)
(0.0974871 4.02926e-05 0)
(0.097467 5.17165e-05 0)
(0.0974394 6.57656e-05 0)
(0.0974027 8.28791e-05 0)
(0.0973551 0.000103578 0)
(0.0972948 0.000128484 0)
(0.0972195 0.000158349 0)
(0.0971267 0.00019408 0)
(0.0970136 0.00023679 0)
(0.0968766 0.000287849 0)
(0.096712 0.00034896 0)
(0.096515 0.000422265 0)
(0.0962803 0.00051048 0)
(0.0960014 0.000617095 0)
(0.0956705 0.000746642 0)
(0.0952783 0.000905089 0)
(0.0948135 0.0011004 0)
(0.0942624 0.00134334 0)
(0.0936079 0.00164871 0)
(0.0928294 0.00203706 0)
(0.091902 0.00253731 0)
(0.0907958 0.00319051 0)
(0.089477 0.00405493 0)
(0.087911 0.00521246 0)
(0.0860708 0.00677383 0)
(0.0839549 0.0088766 0)
(0.0816305 0.0116603 0)
(0.0793696 0.0151418 0)
(0.0779029 0.0187085 0)
(0.100003 -5.15913e-06 0)
(0.100012 -3.89209e-06 0)
(0.100015 5.70138e-06 0)
(0.100001 2.34237e-05 0)
(0.0999596 4.63145e-05 0)
(0.0998892 6.98096e-05 0)
(0.0997923 8.95607e-05 0)
(0.0996765 0.000102956 0)
(0.0995506 0.000109595 0)
(0.0994226 0.000110775 0)
(0.0992979 0.000108531 0)
(0.099179 0.000104797 0)
(0.0990668 0.000100941 0)
(0.0989607 9.76783e-05 0)
(0.0988599 9.52067e-05 0)
(0.0987636 9.34173e-05 0)
(0.0986709 9.20756e-05 0)
(0.0985815 9.09391e-05 0)
(0.0984953 8.98132e-05 0)
(0.0984121 8.85662e-05 0)
(0.0983321 8.71203e-05 0)
(0.0982554 8.5436e-05 0)
(0.0981821 8.34966e-05 0)
(0.0981123 8.12997e-05 0)
(0.0980462 7.88492e-05 0)
(0.0979838 7.61524e-05 0)
(0.0979252 7.32191e-05 0)
(0.0978706 7.00609e-05 0)
(0.0978198 6.6692e-05 0)
(0.0977731 6.31303e-05 0)
(0.0977303 5.93982e-05 0)
(0.0976916 5.55219e-05 0)
(0.0976567 5.15337e-05 0)
(0.0976257 4.74704e-05 0)
(0.0975985 4.33748e-05 0)
(0.0975749 3.92949e-05 0)
(0.0975547 3.52857e-05 0)
(0.0975379 3.14084e-05 0)
(0.0975242 2.77314e-05 0)
(0.0975132 2.43305e-05 0)
(0.0975048 2.12889e-05 0)
(0.0974985 1.87013e-05 0)
(0.097494 1.66729e-05 0)
(0.0974909 1.5321e-05 0)
(0.0974887 1.47769e-05 0)
(0.0974869 1.51891e-05 0)
(0.0974849 1.67259e-05 0)
(0.0974821 1.95777e-05 0)
(0.0974778 2.39622e-05 0)
(0.0974712 3.01291e-05 0)
(0.0974614 3.83656e-05 0)
(0.0974476 4.90027e-05 0)
(0.0974286 6.24249e-05 0)
(0.0974034 7.90802e-05 0)
(0.0973705 9.94943e-05 0)
(0.0973287 0.000124285 0)
(0.0972762 0.000154186 0)
(0.0972112 0.000190069 0)
(0.0971317 0.000232982 0)
(0.0970354 0.000284186 0)
(0.0969195 0.000345216 0)
(0.096781 0.000417955 0)
(0.0966165 0.000504724 0)
(0.0964219 0.000608417 0)
(0.0961927 0.00073267 0)
(0.0959233 0.000882097 0)
(0.0956076 0.00106261 0)
(0.0952384 0.00128186 0)
(0.0948073 0.00154986 0)
(0.0943048 0.0018798 0)
(0.0937201 0.00228926 0)
(0.0930419 0.00280179 0)
(0.0922583 0.00344894 0)
(0.0913596 0.00427289 0)
(0.0903408 0.00532893 0)
(0.0892091 0.00668668 0)
(0.0879946 0.00842596 0)
(0.086768 0.0106188 0)
(0.0856654 0.0132816 0)
(0.0849155 0.0162565 0)
(0.0848051 0.0189485 0)
(0.100003 -6.92764e-06 0)
(0.100012 -5.45721e-06 0)
(0.100017 7.02637e-06 0)
(0.100004 3.02706e-05 0)
(0.099966 6.04402e-05 0)
(0.0998993 9.15505e-05 0)
(0.0998064 0.000117859 0)
(0.0996943 0.00013587 0)
(0.0995714 0.00014499 0)
(0.0994455 0.000146865 0)
(0.099322 0.000144145 0)
(0.0992038 0.000139369 0)
(0.0990919 0.000134353 0)
(0.0989859 0.000130062 0)
(0.0988851 0.000126779 0)
(0.0987888 0.000124383 0)
(0.0986962 0.000122576 0)
(0.0986069 0.000121047 0)
(0.0985209 0.000119545 0)
(0.0984379 0.000117895 0)
(0.0983581 0.000115996 0)
(0.0982815 0.000113792 0)
(0.0982082 0.000111263 0)
(0.0981384 0.000108404 0)
(0.098072 0.000105219 0)
(0.0980094 0.000101718 0)
(0.0979503 9.79141e-05 0)
(0.0978951 9.38224e-05 0)
(0.0978436 8.94626e-05 0)
(0.0977959 8.4859e-05 0)
(0.097752 8.00412e-05 0)
(0.0977119 7.50447e-05 0)
(0.0976755 6.99128e-05 0)
(0.0976427 6.46947e-05 0)
(0.0976134 5.94474e-05 0)
(0.0975876 5.4235e-05 0)
(0.0975649 4.91306e-05 0)
(0.0975453 4.4216e-05 0)
(0.0975285 3.95814e-05 0)
(0.0975143 3.53267e-05 0)
(0.0975023 3.15638e-05 0)
(0.0974922 2.84172e-05 0)
(0.0974836 2.60258e-05 0)
(0.0974761 2.45439e-05 0)
(0.0974693 2.41452e-05 0)
(0.0974625 2.50254e-05 0)
(0.0974554 2.74051e-05 0)
(0.0974472 3.15345e-05 0)
(0.0974373 3.76984e-05 0)
(0.0974248 4.62236e-05 0)
(0.0974091 5.74834e-05 0)
(0.0973892 7.19087e-05 0)
(0.0973641 8.99975e-05 0)
(0.0973327 0.000112329 0)
(0.0972938 0.00013958 0)
(0.097246 0.000172543 0)
(0.0971879 0.000212152 0)
(0.0971178 0.000259518 0)
(0.0970337 0.000315961 0)
(0.0969338 0.000383064 0)
(0.0968156 0.000462742 0)
(0.0966765 0.000557315 0)
(0.0965137 0.000669624 0)
(0.0963239 0.000803164 0)
(0.0961033 0.000962273 0)
(0.0958482 0.00115237 0)
(0.0955539 0.00138025 0)
(0.0952157 0.00165455 0)
(0.0948286 0.00198623 0)
(0.0943878 0.00238933 0)
(0.0938888 0.00288181 0)
(0.0933288 0.00348659 0)
(0.0927078 0.00423272 0)
(0.0920314 0.00515618 0)
(0.0913145 0.00629978 0)
(0.0905876 0.00771032 0)
(0.0899036 0.00942971 0)
(0.0893469 0.0114741 0)
(0.0890359 0.0137927 0)
(0.0891083 0.0161974 0)
(0.0896466 0.0182723 0)
(0.100003 -8.86273e-06 0)
(0.100013 -7.33256e-06 0)
(0.100018 7.9884e-06 0)
(0.100008 3.68183e-05 0)
(0.0999741 7.44774e-05 0)
(0.0999122 0.000113554 0)
(0.0998246 0.000146863 0)
(0.0997173 0.000169957 0)
(0.0995984 0.000181977 0)
(0.0994754 0.000184874 0)
(0.0993537 0.00018189 0)
(0.0992365 0.000176181 0)
(0.099125 0.000170033 0)
(0.0990192 0.000164688 0)
(0.0989185 0.000160544 0)
(0.0988223 0.00015748 0)
(0.0987299 0.00015515 0)
(0.098641 0.000153181 0)
(0.0985553 0.000151264 0)
(0.0984727 0.000149183 0)
(0.0983932 0.00014681 0)
(0.0983169 0.000144076 0)
(0.0982438 0.00014095 0)
(0.0981741 0.000137427 0)
(0.0981077 0.000133511 0)
(0.0980448 0.000129213 0)
(0.0979855 0.00012455 0)
(0.0979297 0.000119542 0)
(0.0978775 0.000114213 0)
(0.0978288 0.000108596 0)
(0.0977838 0.000102727 0)
(0.0977422 9.66527e-05 0)
(0.0977041 9.0428e-05 0)
(0.0976694 8.41159e-05 0)
(0.097638 7.77878e-05 0)
(0.0976096 7.15259e-05 0)
(0.0975842 6.5422e-05 0)
(0.0975615 5.95794e-05 0)
(0.0975413 5.41115e-05 0)
(0.0975234 4.91443e-05 0)
(0.0975073 4.48184e-05 0)
(0.0974929 4.12902e-05 0)
(0.0974797 3.87329e-05 0)
(0.0974673 3.73403e-05 0)
(0.0974552 3.73291e-05 0)
(0.0974429 3.89428e-05 0)
(0.09743 4.24554e-05 0)
(0.0974157 4.81779e-05 0)
(0.0973995 5.64628e-05 0)
(0.0973807 6.77124e-05 0)
(0.0973584 8.23862e-05 0)
(0.0973317 0.000101012 0)
(0.0972999 0.000124198 0)
(0.0972619 0.000152648 0)
(0.0972165 0.000187179 0)
(0.0971625 0.000228747 0)
(0.0970987 0.000278468 0)
(0.0970235 0.000337662 0)
(0.0969353 0.000407884 0)
(0.0968325 0.000490987 0)
(0.0967131 0.000589186 0)
(0.0965751 0.000705136 0)
(0.0964163 0.000842049 0)
(0.0962342 0.00100382 0)
(0.0960264 0.00119518 0)
(0.0957903 0.00142196 0)
(0.0955236 0.00169126 0)
(0.0952238 0.00201189 0)
(0.0948894 0.00239465 0)
(0.0945197 0.00285283 0)
(0.0941158 0.00340268 0)
(0.0936814 0.0040638 0)
(0.0932251 0.00485929 0)
(0.0927616 0.00581533 0)
(0.0923156 0.00695937 0)
(0.0919245 0.00831575 0)
(0.0916417 0.00989687 0)
(0.0915373 0.0116871 0)
(0.0916914 0.0136178 0)
(0.0921718 0.015536 0)
(0.0929824 0.0171841 0)
(0.100003 -1.09852e-05 0)
(0.100013 -9.58994e-06 0)
(0.10002 8.42926e-06 0)
(0.100013 4.28006e-05 0)
(0.0999835 8.80622e-05 0)
(0.0999276 0.000135401 0)
(0.0998463 0.000176161 0)
(0.099745 0.00020487 0)
(0.0996312 0.000220312 0)
(0.0995118 0.000224668 0)
(0.0993926 0.000221733 0)
(0.0992768 0.000215272 0)
(0.099166 0.000208063 0)
(0.0990606 0.000201659 0)
(0.0989602 0.000196602 0)
(0.0988643 0.000192801 0)
(0.0987724 0.000189879 0)
(0.0986839 0.000187407 0)
(0.0985987 0.000185026 0)
(0.0985167 0.00018248 0)
(0.0984378 0.000179611 0)
(0.098362 0.000176334 0)
(0.0982893 0.000172611 0)
(0.0982199 0.00016843 0)
(0.0981537 0.000163795 0)
(0.0980908 0.000158721 0)
(0.0980312 0.000153227 0)
(0.097975 0.000147337 0)
(0.0979221 0.000141082 0)
(0.0978726 0.000134502 0)
(0.0978264 0.000127643 0)
(0.0977835 0.000120563 0)
(0.0977437 0.000113328 0)
(0.097707 0.000106016 0)
(0.0976732 9.87162e-05 0)
(0.0976423 9.15273e-05 0)
(0.0976139 8.45622e-05 0)
(0.0975879 7.79457e-05 0)
(0.0975641 7.18158e-05 0)
(0.0975422 6.63264e-05 0)
(0.0975219 6.16469e-05 0)
(0.0975028 5.79664e-05 0)
(0.0974846 5.54939e-05 0)
(0.0974669 5.44626e-05 0)
(0.0974492 5.51328e-05 0)
(0.097431 5.77962e-05 0)
(0.0974119 6.27806e-05 0)
(0.0973912 7.04558e-05 0)
(0.0973684 8.12405e-05 0)
(0.0973428 9.56103e-05 0)
(0.0973136 0.000114106 0)
(0.0972801 0.000137347 0)
(0.0972414 0.000166043 0)
(0.0971966 0.00020101 0)
(0.0971448 0.00024319 0)
(0.0970849 0.000293678 0)
(0.0970158 0.000353743 0)
(0.0969362 0.00042487 0)
(0.096845 0.000508797 0)
(0.0967406 0.000607568 0)
(0.0966218 0.000723597 0)
(0.0964871 0.000859741 0)
(0.096335 0.00101939 0)
(0.096164 0.0012066 0)
(0.095973 0.00142617 0)
(0.0957608 0.00168388 0)
(0.0955268 0.00198658 0)
(0.0952712 0.00234246 0)
(0.094995 0.00276119 0)
(0.0947009 0.00325414 0)
(0.0943939 0.0038344 0)
(0.0940823 0.00451676 0)
(0.0937788 0.00531714 0)
(0.0935018 0.00625155 0)
(0.0932776 0.00733377 0)
(0.0931406 0.00857135 0)
(0.0931341 0.00995903 0)
(0.0933072 0.0114691 0)
(0.0937064 0.0130391 0)
(0.0943591 0.0145617 0)
(0.0952461 0.015886 0)
(0.100003 -1.33166e-05 0)
(0.100013 -1.23016e-05 0)
(0.100022 8.18486e-06 0)
(0.100018 4.79373e-05 0)
(0.099994 0.000100802 0)
(0.0999448 0.000156627 0)
(0.0998709 0.000205283 0)
(0.0997767 0.000240196 0)
(0.0996688 0.000259684 0)
(0.099554 0.000266053 0)
(0.0994379 0.000263586 0)
(0.099324 0.000256636 0)
(0.0992143 0.00024849 0)
(0.0991096 0.000241046 0)
(0.0990098 0.000235031 0)
(0.0989144 0.000230417 0)
(0.0988231 0.00022682 0)
(0.0987353 0.000223772 0)
(0.0986509 0.000220869 0)
(0.0985697 0.000217816 0)
(0.0984916 0.000214427 0)
(0.0984165 0.000210597 0)
(0.0983445 0.000206278 0)
(0.0982755 0.000201453 0)
(0.0982097 0.000196124 0)
(0.098147 0.000190308 0)
(0.0980873 0.000184025 0)
(0.0980309 0.000177307 0)
(0.0979775 0.000170191 0)
(0.0979272 0.000162723 0)
(0.0978799 0.000154963 0)
(0.0978356 0.000146977 0)
(0.0977942 0.000138848 0)
(0.0977555 0.000130667 0)
(0.0977194 0.00012254 0)
(0.0976858 0.000114587 0)
(0.0976544 0.000106941 0)
(0.0976251 9.9749e-05 0)
(0.0975975 9.3175e-05 0)
(0.0975715 8.74e-05 0)
(0.0975467 8.26241e-05 0)
(0.0975228 7.90687e-05 0)
(0.0974995 7.6979e-05 0)
(0.0974763 7.66275e-05 0)
(0.0974528 7.83171e-05 0)
(0.0974286 8.2387e-05 0)
(0.0974032 8.92161e-05 0)
(0.097376 9.92311e-05 0)
(0.0973465 0.000112913 0)
(0.097314 0.000130804 0)
(0.097278 0.00015352 0)
(0.0972377 0.00018176 0)
(0.0971924 0.000216322 0)
(0.0971413 0.000258116 0)
(0.0970836 0.000308185 0)
(0.0970185 0.00036773 0)
(0.096945 0.000438131 0)
(0.0968623 0.000520984 0)
(0.0967693 0.000618136 0)
(0.0966653 0.000731732 0)
(0.0965492 0.000864263 0)
(0.0964202 0.00101863 0)
(0.0962778 0.0011982 0)
(0.0961213 0.00140692 0)
(0.0959507 0.00164935 0)
(0.0957662 0.00193079 0)
(0.0955688 0.00225735 0)
(0.0953604 0.002636 0)
(0.0951442 0.00307462 0)
(0.0949252 0.00358194 0)
(0.0947104 0.00416736 0)
(0.0945102 0.00484053 0)
(0.0943382 0.00561067 0)
(0.0942126 0.00648527 0)
(0.0941562 0.00746818 0)
(0.0941963 0.00855673 0)
(0.0943636 0.00973774 0)
(0.0946887 0.0109827 0)
(0.0951955 0.0122433 0)
(0.0958918 0.0134494 0)
(0.0967562 0.0145146 0)
(0.100003 -1.58754e-05 0)
(0.100014 -1.55335e-05 0)
(0.100024 7.10172e-06 0)
(0.100024 5.19579e-05 0)
(0.100005 0.000112309 0)
(0.0999631 0.000176763 0)
(0.0998973 0.000233735 0)
(0.099811 0.00027548 0)
(0.09971 0.000299724 0)
(0.0996005 0.00030877 0)
(0.0994881 0.000307296 0)
(0.0993768 0.000300208 0)
(0.0992688 0.000291308 0)
(0.0991651 0.000282878 0)
(0.0990662 0.000275873 0)
(0.0989716 0.000270371 0)
(0.0988811 0.000266009 0)
(0.0987944 0.000262303 0)
(0.098711 0.000258811 0)
(0.0986308 0.000255204 0)
(0.0985537 0.000251268 0)
(0.0984796 0.000246877 0)
(0.0984084 0.00024197 0)
(0.0983401 0.000236523 0)
(0.0982748 0.000230536 0)
(0.0982124 0.000224025 0)
(0.0981529 0.000217016 0)
(0.0980963 0.000209543 0)
(0.0980426 0.000201652 0)
(0.0979916 0.0001934 0)
(0.0979434 0.000184853 0)
(0.0978978 0.000176095 0)
(0.0978547 0.000167219 0)
(0.0978141 0.000158334 0)
(0.0977757 0.000149565 0)
(0.0977394 0.00014105 0)
(0.097705 0.000132943 0)
(0.0976722 0.000125417 0)
(0.0976409 0.000118659 0)
(0.0976108 0.000112879 0)
(0.0975815 0.000108307 0)
(0.0975528 0.000105196 0)
(0.0975243 0.000103827 0)
(0.0974956 0.00010451 0)
(0.0974663 0.000107589 0)
(0.0974361 0.000113448 0)
(0.0974044 0.000122513 0)
(0.0973708 0.000135262 0)
(0.0973347 0.000152232 0)
(0.0972957 0.000174024 0)
(0.0972532 0.000201315 0)
(0.0972066 0.000234871 0)
(0.0971552 0.000275556 0)
(0.0970985 0.00032435 0)
(0.0970359 0.000382365 0)
(0.0969666 0.000450867 0)
(0.09689 0.000531295 0)
(0.0968056 0.000625291 0)
(0.0967128 0.000734729 0)
(0.096611 0.000861747 0)
(0.0965 0.00100879 0)
(0.0963794 0.00117862 0)
(0.0962494 0.00137442 0)
(0.0961103 0.00159977 0)
(0.0959629 0.00185871 0)
(0.0958086 0.00215574 0)
(0.0956494 0.00249587 0)
(0.0954887 0.00288452 0)
(0.0953308 0.00332747 0)
(0.0951816 0.00383065 0)
(0.0950492 0.00439986 0)
(0.0949437 0.00504027 0)
(0.0948777 0.00575572 0)
(0.0948665 0.0065477 0)
(0.0949279 0.00741401 0)
(0.0950814 0.00834707 0)
(0.0953465 0.00933189 0)
(0.0957406 0.0103443 0)
(0.0962745 0.0113495 0)
(0.0969475 0.0123036 0)
(0.0977422 0.0131574 0)
(0.100003 -1.86748e-05 0)
(0.100014 -1.93376e-05 0)
(0.100026 5.05451e-06 0)
(0.100029 5.46337e-05 0)
(0.100016 0.00012224 0)
(0.0999815 0.000195375 0)
(0.0999242 0.00026104 0)
(0.0998463 0.000310258 0)
(0.0997528 0.000340029 0)
(0.0996494 0.000352504 0)
(0.0995415 0.000352644 0)
(0.0994333 0.000345852 0)
(0.0993275 0.000336447 0)
(0.0992254 0.000327127 0)
(0.0991277 0.000319125 0)
(0.0990343 0.000312668 0)
(0.098945 0.000307456 0)
(0.0988595 0.000303006 0)
(0.0987774 0.000298855 0)
(0.0986984 0.000294647 0)
(0.0986226 0.000290137 0)
(0.0985496 0.000285181 0)
(0.0984794 0.0002797 0)
(0.0984121 0.000273664 0)
(0.0983475 0.000267068 0)
(0.0982856 0.000259928 0)
(0.0982263 0.000252271 0)
(0.0981697 0.00024414 0)
(0.0981156 0.000235586 0)
(0.0980641 0.000226676 0)
(0.098015 0.000217489 0)
(0.0979681 0.000208121 0)
(0.0979235 0.00019868 0)
(0.097881 0.000189294 0)
(0.0978403 0.000180103 0)
(0.0978013 0.000171266 0)
(0.0977639 0.00016296 0)
(0.0977278 0.000155379 0)
(0.0976927 0.000148737 0)
(0.0976585 0.000143271 0)
(0.0976247 0.000139239 0)
(0.0975912 0.000136926 0)
(0.0975575 0.000136645 0)
(0.0975235 0.000138742 0)
(0.0974886 0.000143598 0)
(0.0974525 0.000151637 0)
(0.0974148 0.000163326 0)
(0.0973751 0.000179189 0)
(0.0973329 0.000199805 0)
(0.0972878 0.000225823 0)
(0.0972394 0.000257966 0)
(0.0971871 0.000297046 0)
(0.0971306 0.000343968 0)
(0.0970692 0.000399753 0)
(0.0970027 0.000465541 0)
(0.0969306 0.000542616 0)
(0.0968525 0.000632417 0)
(0.0967682 0.000736561 0)
(0.0966773 0.000856859 0)
(0.09658 0.00099534 0)
(0.0964762 0.00115427 0)
(0.0963664 0.00133615 0)
(0.0962511 0.00154378 0)
(0.0961314 0.0017802 0)
(0.0960088 0.00204872 0)
(0.0958854 0.00235288 0)
(0.0957642 0.00269639 0)
(0.0956489 0.00308304 0)
(0.0955444 0.00351652 0)
(0.0954568 0.00400023 0)
(0.0953936 0.00453696 0)
(0.0953638 0.00512842 0)
(0.0953778 0.00577476 0)
(0.0954473 0.00647386 0)
(0.0955849 0.00722054 0)
(0.0958032 0.00800576 0)
(0.0961139 0.00881585 0)
(0.0965257 0.00963202 0)
(0.0970424 0.0104306 0)
(0.0976605 0.0111841 0)
(0.098367 0.0118646 0)
(0.100003 -2.17222e-05 0)
(0.100014 -2.37431e-05 0)
(0.100027 1.96419e-06 0)
(0.100034 5.5807e-05 0)
(0.100026 0.000130343 0)
(0.0999988 0.000212115 0)
(0.09995 0.000286784 0)
(0.0998808 0.000344094 0)
(0.0997952 0.000380185 0)
(0.0996984 0.000396895 0)
(0.0995957 0.000399343 0)
(0.0994913 0.000393358 0)
(0.0993883 0.000383763 0)
(0.0992884 0.000373701 0)
(0.0991924 0.000364729 0)
(0.0991006 0.000357277 0)
(0.0990128 0.000351139 0)
(0.0989287 0.000345868 0)
(0.0988481 0.000340994 0)
(0.0987706 0.00033614 0)
(0.0986961 0.000331037 0)
(0.0986245 0.000325518 0)
(0.0985555 0.000319489 0)
(0.0984892 0.000312909 0)
(0.0984253 0.000305768 0)
(0.098364 0.000298081 0)
(0.0983051 0.000289879 0)
(0.0982486 0.000281208 0)
(0.0981943 0.000272129 0)
(0.0981422 0.000262719 0)
(0.0980922 0.000253068 0)
(0.0980442 0.000243286 0)
(0.097998 0.000233497 0)
(0.0979536 0.000223845 0)
(0.0979107 0.000214489 0)
(0.0978691 0.000205608 0)
(0.0978287 0.000197399 0)
(0.0977892 0.00019008 0)
(0.0977504 0.000183889 0)
(0.0977121 0.000179087 0)
(0.097674 0.000175959 0)
(0.0976357 0.000174821 0)
(0.0975972 0.000176013 0)
(0.0975579 0.000179913 0)
(0.0975176 0.000186935 0)
(0.0974759 0.000197534 0)
(0.0974326 0.000212212 0)
(0.0973872 0.000231524 0)
(0.0973395 0.000256083 0)
(0.097289 0.000286567 0)
(0.0972354 0.000323727 0)
(0.0971784 0.000368393 0)
(0.0971176 0.000421488 0)
(0.0970529 0.000484031 0)
(0.0969838 0.000557152 0)
(0.0969103 0.0006421 0)
(0.0968323 0.000740254 0)
(0.0967498 0.000853132 0)
(0.0966628 0.000982403 0)
(0.0965718 0.00112989 0)
(0.0964771 0.00129757 0)
(0.0963797 0.00148757 0)
(0.0962806 0.00170219 0)
(0.0961814 0.00194382 0)
(0.096084 0.00221494 0)
(0.0959908 0.00251804 0)
(0.0959053 0.00285558 0)
(0.0958311 0.00322981 0)
(0.095773 0.00364262 0)
(0.0957366 0.00409537 0)
(0.0957284 0.00458859 0)
(0.0957554 0.00512172 0)
(0.0958257 0.0056927 0)
(0.0959475 0.00629764 0)
(0.0961291 0.00693046 0)
(0.0963781 0.00758256 0)
(0.0967006 0.00824266 0)
(0.0971004 0.00889694 0)
(0.0975779 0.0095295 0)
(0.0981289 0.0101234 0)
(0.0987442 0.0106623 0)
(0.100003 -2.50157e-05 0)
(0.100015 -2.87518e-05 0)
(0.100029 -2.19068e-06 0)
(0.100038 5.54126e-05 0)
(0.100035 0.00013648 0)
(0.100014 0.000226762 0)
(0.0999735 0.000310664 0)
(0.0999128 0.000376624 0)
(0.0998352 0.000419801 0)
(0.0997454 0.000441567 0)
(0.0996484 0.000447058 0)
(0.0995485 0.000442447 0)
(0.099449 0.000433039 0)
(0.0993518 0.00042244 0)
(0.099258 0.000412576 0)
(0.0991682 0.000404121 0)
(0.0990822 0.000397012 0)
(0.0989999 0.000390861 0)
(0.0989209 0.000385215 0)
(0.0988451 0.000379683 0)
(0.0987721 0.000373978 0)
(0.0987019 0.000367912 0)
(0.0986342 0.000361374 0)
(0.0985689 0.000354312 0)
(0.098506 0.00034671 0)
(0.0984453 0.000338581 0)
(0.0983867 0.000329958 0)
(0.0983303 0.000320893 0)
(0.0982758 0.000311456 0)
(0.0982232 0.000301732 0)
(0.0981723 0.000291825 0)
(0.0981231 0.000281859 0)
(0.0980754 0.000271973 0)
(0.098029 0.000262326 0)
(0.0979838 0.000253097 0)
(0.0979396 0.000244482 0)
(0.0978962 0.0002367 0)
(0.0978534 0.000229989 0)
(0.097811 0.000224609 0)
(0.0977687 0.000220845 0)
(0.0977264 0.000219006 0)
(0.0976837 0.00021943 0)
(0.0976403 0.000222484 0)
(0.0975961 0.00022857 0)
(0.0975508 0.000238127 0)
(0.097504 0.000251634 0)
(0.0974555 0.000269615 0)
(0.0974051 0.000292645 0)
(0.0973524 0.000321353 0)
(0.0972972 0.000356428 0)
(0.0972394 0.000398623 0)
(0.0971786 0.000448765 0)
(0.0971148 0.000507756 0)
(0.0970478 0.00057658 0)
(0.0969776 0.00065631 0)
(0.0969043 0.00074811 0)
(0.0968279 0.000853241 0)
(0.0967487 0.00097306 0)
(0.0966672 0.00110902 0)
(0.096584 0.00126266 0)
(0.0964999 0.0014356 0)
(0.0964161 0.00162954 0)
(0.0963338 0.00184617 0)
(0.096255 0.00208722 0)
(0.0961817 0.00235434 0)
(0.0961166 0.00264906 0)
(0.0960628 0.00297267 0)
(0.0960239 0.00332616 0)
(0.0960041 0.00371003 0)
(0.096008 0.00412417 0)
(0.0960407 0.00456765 0)
(0.0961077 0.00503857 0)
(0.0962145 0.00553386 0)
(0.0963664 0.00604911 0)
(0.0965686 0.00657844 0)
(0.0968252 0.00711453 0)
(0.0971391 0.00764863 0)
(0.0975112 0.00817083 0)
(0.0979404 0.00867055 0)
(0.0984229 0.00913718 0)
(0.0989522 0.00956104 0)
(0.100003 -2.85448e-05 0)
(0.100015 -3.43372e-05 0)
(0.100029 -7.37216e-06 0)
(0.100041 5.34832e-05 0)
(0.100042 0.000140647 0)
(0.100027 0.000239238 0)
(0.0999936 0.000332508 0)
(0.0999409 0.000407584 0)
(0.0998712 0.000458546 0)
(0.0997886 0.000486153 0)
(0.0996977 0.000495424 0)
(0.0996028 0.00049279 0)
(0.0995073 0.000483997 0)
(0.0994134 0.000473126 0)
(0.0993224 0.000462503 0)
(0.0992349 0.000453089 0)
(0.0991511 0.000445003 0)
(0.0990708 0.000437947 0)
(0.0989937 0.000431504 0)
(0.0989196 0.000425284 0)
(0.0988482 0.000418988 0)
(0.0987794 0.000412409 0)
(0.098713 0.000405421 0)
(0.0986488 0.00039796 0)
(0.0985867 0.000390003 0)
(0.0985267 0.00038156 0)
(0.0984685 0.000372668 0)
(0.098412 0.000363384 0)
(0.0983573 0.000353784 0)
(0.0983041 0.000343966 0)
(0.0982524 0.000334044 0)
(0.0982019 0.000324156 0)
(0.0981526 0.000314456 0)
(0.0981043 0.000305119 0)
(0.0980569 0.000296339 0)
(0.0980101 0.000288332 0)
(0.0979637 0.000281334 0)
(0.0979177 0.000275601 0)
(0.0978717 0.000271413 0)
(0.0978256 0.000269073 0)
(0.0977791 0.000268911 0)
(0.0977321 0.000271283 0)
(0.0976843 0.000276575 0)
(0.0976355 0.000285206 0)
(0.0975855 0.000297629 0)
(0.0975341 0.000314337 0)
(0.0974811 0.000335864 0)
(0.0974262 0.000362787 0)
(0.0973694 0.000395734 0)
(0.0973105 0.000435383 0)
(0.0972493 0.000482467 0)
(0.0971859 0.000537776 0)
(0.0971202 0.000602161 0)
(0.0970522 0.000676535 0)
(0.0969822 0.00076187 0)
(0.0969103 0.000859204 0)
(0.0968369 0.000969627 0)
(0.0967625 0.00109428 0)
(0.0966877 0.00123436 0)
(0.0966134 0.00139108 0)
(0.0965406 0.00156566 0)
(0.0964706 0.0017593 0)
(0.0964049 0.00197316 0)
(0.0963453 0.0022083 0)
(0.0962941 0.00246561 0)
(0.0962537 0.0027458 0)
(0.0962268 0.00304925 0)
(0.0962167 0.00337598 0)
(0.0962267 0.00372553 0)
(0.0962604 0.00409683 0)
(0.0963216 0.00448819 0)
(0.0964142 0.00489709 0)
(0.0965416 0.0053202 0)
(0.0967074 0.0057533 0)
(0.0969141 0.0061913 0)
(0.0971639 0.0066283 0)
(0.0974576 0.00705774 0)
(0.0977949 0.00747266 0)
(0.0981742 0.00786596 0)
(0.0985921 0.00823092 0)
(0.099044 0.00856163 0)
(0.100003 -3.22924e-05 0)
(0.100014 -4.04498e-05 0)
(0.10003 -1.349e-05 0)
(0.100043 5.01388e-05 0)
(0.100047 0.000142962 0)
(0.100037 0.000249611 0)
(0.10001 0.00035229 0)
(0.0999644 0.000436834 0)
(0.0999021 0.000496171 0)
(0.0998266 0.000530328 0)
(0.0997421 0.000544085 0)
(0.0996526 0.000544036 0)
(0.0995616 0.000536325 0)
(0.0994715 0.000525501 0)
(0.0993837 0.000514311 0)
(0.099299 0.000504042 0)
(0.0992176 0.000495022 0)
(0.0991394 0.000487079 0)
(0.0990643 0.000479851 0)
(0.098992 0.000472966 0)
(0.0989223 0.000466116 0)
(0.098855 0.000459084 0)
(0.0987899 0.000451729 0)
(0.0987267 0.000443976 0)
(0.0986655 0.000435796 0)
(0.0986059 0.000427197 0)
(0.098548 0.000418217 0)
(0.0984916 0.000408918 0)
(0.0984365 0.000399384 0)
(0.0983827 0.000389722 0)
(0.0983299 0.000380059 0)
(0.0982782 0.000370544 0)
(0.0982273 0.000361344 0)
(0.098177 0.000352651 0)
(0.0981273 0.000344671 0)
(0.0980778 0.000337637 0)
(0.0980286 0.000331799 0)
(0.0979794 0.000327429 0)
(0.09793 0.000324822 0)
(0.0978802 0.000324295 0)
(0.0978299 0.000326191 0)
(0.0977788 0.000330879 0)
(0.0977269 0.000338755 0)
(0.097674 0.000350245 0)
(0.0976198 0.000365809 0)
(0.0975643 0.000385936 0)
(0.0975074 0.000411156 0)
(0.0974488 0.000442033 0)
(0.0973887 0.000479174 0)
(0.0973269 0.000523221 0)
(0.0972634 0.000574864 0)
(0.0971984 0.000634828 0)
(0.0971319 0.000703883 0)
(0.0970642 0.000782835 0)
(0.0969955 0.000872526 0)
(0.0969262 0.000973824 0)
(0.096857 0.00108762 0)
(0.0967883 0.00121482 0)
(0.096721 0.0013563 0)
(0.0966561 0.00151296 0)
(0.0965947 0.0016856 0)
(0.0965381 0.00187498 0)
(0.0964878 0.00208173 0)
(0.0964457 0.00230634 0)
(0.0964137 0.00254909 0)
(0.0963939 0.00281003 0)
(0.0963887 0.00308888 0)
(0.0964007 0.00338502 0)
(0.0964324 0.00369737 0)
(0.0964866 0.00402441 0)
(0.0965657 0.0043641 0)
(0.0966724 0.00471382 0)
(0.0968088 0.00507043 0)
(0.0969768 0.00543023 0)
(0.0971777 0.00578905 0)
(0.0974122 0.00614233 0)
(0.0976801 0.00648526 0)
(0.0979807 0.00681296 0)
(0.0983121 0.00712065 0)
(0.0986717 0.00740398 0)
(0.099056 0.00765926 0)
(0.100003 -3.6236e-05 0)
(0.100014 -4.70233e-05 0)
(0.10003 -2.04187e-05 0)
(0.100043 4.55631e-05 0)
(0.10005 0.000143636 0)
(0.100044 0.000258064 0)
(0.100022 0.00037011 0)
(0.099983 0.000464351 0)