/*--------------------------------*- C++ -*----------------------------------*\
| =========                 |                                                 |
| \\      /  F ield         | OpenFOAM: The Open Source CFD Toolbox           |
|  \\    /   O peration     | Version:  4.1                                   |
|   \\  /    A nd           | Web:      www.OpenFOAM.org                      |
|    \\/     M anipulation  |                                                 |
\*---------------------------------------------------------------------------*/
FoamFile
{
    version     2.0;
    format      ascii;
    class       surfaceScalarField;
    location    "3.3";
    object      phi;
}
// * * * * * * * * * * * * * * * * * * * * * * * * * * * * * * * * * * * * * //

dimensions      [0 3 -1 0 0 0 0];

internalField   nonuniform List<scalar> 
5457
(
0.198714
0.00160111
0.197093
0.00189764
0.195126
0.00219659
0.192776
0.00253829
0.190054
0.0028706
0.186979
0.00319083
0.18356
0.00350862
0.179798
0.00383143
0.175682
0.00416471
0.171201
0.00451302
0.166337
0.00487992
0.161072
0.00526875
0.155382
0.00568065
0.149239
0.00611879
0.142621
0.0065862
0.135501
0.00708268
0.127849
0.00760766
0.119638
0.00815971
0.110845
0.00873611
0.101455
0.00933085
0.0914607
0.00993379
0.0808706
0.0105301
0.069713
0.011099
0.0580459
0.0116107
0.0459707
0.0120221
0.033657
0.012267
0.0213946
0.012228
0.00976767
0.0116154
0.000376568
0.00942258
0.00038125
0.20045
0.00146671
0.200147
0.00247826
0.19936
0.0032135
0.198146
0.00394141
0.196514
0.00465254
0.194477
0.00534217
0.192051
0.00602522
0.189236
0.00671642
0.186024
0.00742673
0.182404
0.00816552
0.17836
0.00894025
0.173875
0.00975743
0.168925
0.0106209
0.163482
0.0115368
0.157525
0.0125114
0.151025
0.0135468
0.143949
0.0146424
0.136263
0.0157962
0.127939
0.0170045
0.118954
0.0182576
0.109292
0.0195378
0.0989478
0.020818
0.0879328
0.0220595
0.0762861
0.0232066
0.0640873
0.0241751
0.0514778
0.0248387
0.0386962
0.0249852
0.0261421
0.02417
0.0140405
0.0215825
0.0143949
0.200303
0.00148106
0.200069
0.00299062
0.199354
0.00415878
0.198239
0.00524827
0.196738
0.00630428
0.194861
0.00733049
0.192631
0.00834524
0.19005
0.00936997
0.187108
0.0104209
0.183795
0.0115115
0.1801
0.0126534
0.176006
0.0138555
0.171491
0.0151247
0.166534
0.0164708
0.161112
0.0179035
0.155197
0.0194302
0.148753
0.0210518
0.141737
0.0227664
0.134114
0.0245726
0.125854
0.0264628
0.116921
0.0284178
0.107283
0.0304058
0.0969158
0.0323809
0.0858057
0.0342771
0.0739553
0.0359953
0.0613854
0.0373926
0.0481039
0.0382716
0.0339429
0.0383604
0.0181567
0.0374614
0.0325577
0.200217
0.00158371
0.199983
0.00350401
0.199285
0.00508855
0.198189
0.00653787
0.196715
0.00792874
0.194876
0.00927965
0.192699
0.0106139
0.190187
0.0119585
0.187327
0.0133343
0.184116
0.0147574
0.180545
0.0162429
0.176602
0.0178018
0.172272
0.0194451
0.167537
0.0211859
0.162375
0.0230367
0.156767
0.0250088
0.150682
0.027108
0.144071
0.0293366
0.136897
0.0316964
0.129126
0.0341848
0.120712
0.0367885
0.111599
0.0394796
0.101728
0.0422206
0.0910242
0.044957
0.0794004
0.047608
0.066742
0.0500615
0.0528835
0.0521746
0.0374682
0.0538444
0.01982
0.0552196
0.0524559
0.200174
0.00173324
0.199928
0.00403034
0.199241
0.00600735
0.198162
0.00781011
0.196717
0.00952706
0.194919
0.0111936
0.192789
0.0128406
0.190327
0.0144984
0.187526
0.0161909
0.184382
0.0179371
0.18089
0.0197533
0.177039
0.021654
0.172822
0.0236564
0.168218
0.0257756
0.163204
0.0280246
0.157764
0.0304169
0.151878
0.0329662
0.145502
0.0356834
0.138588
0.038574
0.131094
0.0416409
0.122971
0.044882
0.114146
0.0482818
0.104538
0.0518196
0.0940187
0.0554743
0.0824285
0.0592058
0.0695709
0.0629544
0.0551801
0.0666405
0.0389338
0.0702051
0.0203976
0.0738913
0.0729939
0.200153
0.00190746
0.1999
0.00456668
0.199224
0.00691367
0.19817
0.00905812
0.196763
0.011092
0.195014
0.0130662
0.192935
0.0150197
0.190529
0.016984
0.187792
0.0189859
0.184722
0.0210468
0.181309
0.0231853
0.17755
0.0254202
0.173437
0.0277733
0.168946
0.0302615
0.164051
0.0328997
0.158736
0.0357047
0.152982
0.0386966
0.146758
0.0418935
0.140005
0.0453089
0.132669
0.0489552
0.124692
0.0528445
0.115985
0.0569839
0.106452
0.0613686
0.0959442
0.0660064
0.0842574
0.0709257
0.0711499
0.0761284
0.0563214
0.0815777
0.0394778
0.0872142
0.0205129
0.0930433
0.0936353
0.200146
0.00209451
0.199892
0.00510692
0.199229
0.00780268
0.198208
0.0102738
0.196848
0.0126164
0.195152
0.0148919
0.193132
0.0171438
0.190791
0.0194064
0.18813
0.0217086
0.185146
0.024075
0.18183
0.0265282
0.178175
0.0290909
0.174172
0.0317873
0.169798
0.0346379
0.165028
0.0376612
0.15984
0.0408783
0.154209
0.0443146
0.148103
0.0479949
0.141464
0.0519417
0.134232
0.0561804
0.126334
0.0607432
0.117664
0.0656643
0.108097
0.0709663
0.0974845
0.0766733
0.085631
0.0828544
0.0722574
0.0896093
0.0570511
0.0969401
0.0396844
0.104796
0.0204042
0.112571
0.11412
0.200145
0.00228749
0.199895
0.0056433
0.199255
0.0086693
0.198274
0.0114529
0.196966
0.0140959
0.195328
0.0166642
0.193374
0.0192045
0.191111
0.0217546
0.188539
0.0243466
0.185655
0.0270088
0.18245
0.0297678
0.178914
0.0326503
0.175036
0.0356828
0.170793
0.0388897
0.166161
0.0422944
0.161115
0.0459221
0.155622
0.0498057
0.149639
0.05398
0.143109
0.058476
0.135965
0.0633316
0.128126
0.0685995
0.119481
0.0743379
0.109876
0.0806179
0.0991272
0.0875066
0.0870452
0.0950554
0.0733781
0.103424
0.0577997
0.11272
0.0398938
0.122966
0.0202863
0.132494
0.134537
0.200142
0.00248214
0.199908
0.00616817
0.199303
0.0095097
0.198367
0.0125942
0.197111
0.0155265
0.195537
0.0183758
0.193659
0.0211923
0.191485
0.0240178
0.189015
0.0268884
0.186244
0.0298359
0.183163
0.032891
0.179762
0.0360836
0.176025
0.0394436
0.171933
0.0429992
0.167459
0.0467799
0.162574
0.0508165
0.157241
0.0551477
0.151414
0.0598189
0.145029
0.0648786
0.138001
0.0703828
0.130241
0.0763936
0.121637
0.0829941
0.112031
0.0902981
0.101205
0.0984417
0.0889004
0.107505
0.074905
0.117598
0.0589421
0.128922
0.040493
0.14173
0.0204443
0.152928
0.155116
0.200142
0.00267497
0.199929
0.00667686
0.199366
0.0103206
0.19848
0.0136938
0.197281
0.0169021
0.195778
0.0200185
0.193985
0.0230978
0.191911
0.0261861
0.189554
0.0293232
0.186909
0.0325445
0.183967
0.0358839
0.180716
0.039375
0.17714
0.0430511
0.173221
0.0469448
0.16893
0.0510927
0.164235
0.0555342
0.15909
0.0603115
0.153451
0.0654794
0.147255
0.0711057
0.140412
0.0772655
0.132811
0.0840491
0.12431
0.0915718
0.114759
0.0999561
0.103926
0.109403
0.0915018
0.12009
0.0772274
0.132083
0.0608636
0.145564
0.0418876
0.161076
0.0212615
0.17401
0.176601
0.200147
0.00286207
0.199957
0.0071671
0.199438
0.0110988
0.198608
0.0147461
0.197474
0.0182158
0.19605
0.0215847
0.19435
0.0249126
0.192384
0.0282503
0.190151
0.0316408
0.187646
0.0351224
0.184857
0.0387323
0.181772
0.0425078
0.178378
0.0464861
0.174653
0.0507049
0.170573
0.0552066
0.166107
0.0600377
0.161198
0.0652513
0.155792
0.0709152
0.149836
0.0771047
0.143244
0.0839137
0.135895
0.0914719
0.127627
0.0999392
0.118248
0.109472
0.107522
0.12028
0.0951457
0.132651
0.0807291
0.146756
0.0640336
0.162589
0.0445426
0.180991
0.0231491
0.195915
0.200032
0.200155
0.00304143
0.19999
0.00763649
0.199519
0.0118407
0.198751
0.0157457
0.197688
0.0194604
0.196348
0.0230658
0.194748
0.0266277
0.1929
0.030201
0.190804
0.0338308
0.188451
0.0375576
0.18583
0.0414221
0.182929
0.0454655
0.179736
0.0497285
0.17623
0.0542559
0.172388
0.0590937
0.168183
0.064293
0.163555
0.0699208
0.158456
0.0760541
0.152831
0.0827879
0.146576
0.0902436
0.139579
0.0985618
0.131696
0.107939
0.122692
0.118626
0.112321
0.130839
0.100275
0.144938
0.086031
0.161314
0.0692667
0.179736
0.0493675
0.201348
0.0269256
0.218865
0.227272
0.200161
0.00321278
0.200023
0.00808188
0.199603
0.0125415
0.198901
0.0166866
0.197916
0.0206291
0.196668
0.0244553
0.195178
0.028237
0.193457
0.0320311
0.191508
0.0358836
0.18932
0.0398383
0.186882
0.0439394
0.184182
0.0482314
0.181209
0.052759
0.177948
0.0575712
0.174378
0.0627178
0.170464
0.0682606
0.166166
0.0742721
0.161447
0.0808355
0.156242
0.0880693
0.150459
0.096122
0.14398
0.105157
0.136678
0.11538
0.128351
0.127119
0.118729
0.140696
0.107488
0.156485
0.094084
0.175082
0.0779261
0.196319
0.0582183
0.22152
0.0347572
0.24277
0.262243
0.200164
0.00337641
0.200054
0.00849976
0.199688
0.0131955
0.199058
0.0175636
0.198162
0.0217188
0.197017
0.0257518
0.19564
0.0297374
0.194051
0.0337333
0.192259
0.037789
0.190248
0.0419527
0.188009
0.0462705
0.185525
0.0507897
0.182791
0.0555584
0.179801
0.0606258
0.176533
0.0660481
0.172961
0.071895
0.169056
0.0782459
0.16478
0.0851977
0.160078
0.0928695
0.154896
0.101421
0.149137
0.11106
0.142672
0.122018
0.135376
0.134621
0.127048
0.149303
0.117374
0.166507
0.105924
0.18693
0.0919815
0.210713
0.0747248
0.239236
0.0518967
0.265971
0.314435
0.200168
0.0035308
0.200092
0.00888729
0.199784
0.0137999
0.199229
0.0183745
0.198427
0.0227278
0.197387
0.0269521
0.196124
0.031123
0.194675
0.0353004
0.193049
0.0395403
0.191225
0.0438935
0.189189
0.0484074
0.186931
0.0531297
0.184458
0.0581089
0.181759
0.0633997
0.178814
0.0690655
0.175617
0.0751727
0.172141
0.0818064
0.168368
0.0890726
0.16426
0.0971014
0.159775
0.106049
0.154885
0.116122
0.14951
0.127603
0.143608
0.140773
0.137138
0.156086
0.129974
0.174048
0.122051
0.195266
0.11309
0.22012
0.102887
0.249873
0.0865418
0.282643
0.401207
0.000568888
-0.000348134
0.00336309
-0.00257161
0.00715675
-0.00343946
0.0109572
-0.00334094
0.0143036
-0.00281843
0.0170029
-0.00216536
0.0190084
-0.00151959
0.0203452
-0.000954493
0.0211087
-0.000510505
0.0214635
-0.000175411
0.021513
9.18481e-05
0.0213001
0.000279554
0.0208946
0.000386541
0.0203833
0.000439891
0.0197998
0.000479896
0.0191571
0.000515117
0.0185013
0.000512652
0.0179001
0.00044587
0.0174065
0.000316728
0.0170315
0.000146668
0.0167932
-4.16479e-05
0.0166849
-0.000204292
0.0166567
-0.00033064
0.0167039
-0.000428859
0.0168167
-0.000505914
0.0169382
-0.000578218
0.0171242
-0.000671229
0.0174401
-0.000797463
0.0178316
-0.000931178
-0.00101053
0.00128444
-0.00141151
0.00421145
-0.00527821
0.0076875
-0.00656551
0.0111698
-0.00636482
0.0143357
-0.00545314
0.0169986
-0.00429575
0.0190999
-0.00314173
0.0206404
-0.00212332
0.0217145
-0.00133424
0.0224561
-0.000730003
0.0229242
-0.00023875
0.0230991
0.000155904
0.0230668
0.000391126
0.0229001
0.000528174
0.0225967
0.000669932
0.0221676
0.000810179
0.0216644
0.000866037
0.0211655
0.00078762
0.0207331
0.000575561
0.0203687
0.000288737
0.0200594
-7.35831e-07
0.0197793
-0.000227237
0.0195267
-0.000435427
0.0193119
-0.000596224
0.0191348
-0.000719484
0.0189334
-0.000833401
0.0187582
-0.000981766
0.0186767
-0.00119449
0.0186649
-0.00146055
-0.00172256
0.00217448
-0.00345691
0.0048563
-0.00772838
0.00772961
-0.00908137
0.0105119
-0.00867246
0.0130114
-0.00741344
0.0150917
-0.00585286
0.0167108
-0.00430606
0.0178627
-0.00293151
0.0186781
-0.0019131
0.0192693
-0.00113995
0.0195885
-0.000433461
0.0196601
0.000121038
0.0195802
0.000435626
0.0194002
0.000624334
0.019059
0.000890067
0.0185315
0.00119614
0.017873
0.00136484
0.0171617
0.0013259
0.0164536
0.0010956
0.0157551
0.000762838
0.0150491
0.000442061
0.0143112
0.000212878
0.0135536
-2.06769e-05
0.0128181
-0.000238406
0.0121316
-0.000434616
0.0114776
-0.000632175
0.0108994
-0.000886402
0.0104704
-0.00125602
0.0102085
-0.00174362
-0.00236253
0.00259232
-0.00597762
0.00511514
-0.00998346
0.00742655
-0.0110138
0.00948254
-0.0102354
0.0112277
-0.00862412
0.0126032
-0.0067317
0.0136193
-0.00490742
0.014253
-0.00325805
0.0146711
-0.0021209
0.0149473
-0.00126565
0.0149951
-0.000388116
0.0147358
0.000406096
0.0143323
0.000803958
0.0138307
0.00104801
0.0130816
0.00152807
0.0119968
0.00214085
0.0106265
0.00257353
0.00901268
0.00275467
0.00725627
0.00264617
0.00551604
0.00226977
0.00393787
0.00175307
0.00266273
0.00118733
0.00163345
0.000672663
0.000868154
0.000153111
0.000394789
-0.000370848
0.000189881
-0.000875462
0.000201213
-0.00137782
0.0003527
-0.00191224
0.000582534
-0.00252253
-0.0030257
0.00252442
-0.00842141
0.0048264
-0.011974
0.00655111
-0.0123264
0.0078152
-0.010998
0.00872964
-0.0090287
0.00929904
-0.00685042
0.00960003
-0.00484642
0.00963113
-0.0030292
0.00971502
-0.00203444
0.0093529
-0.000797648
0.00843226
0.000581277
0.00705206
0.00178429
0.00545005
0.00236202
0.00382071
0.00260105
0.00240157
0.00284541
0.00108461
0.00332479
-0.000238582
0.00374028
-0.00154064
0.00387343
-0.00276731
0.00366091
-0.00387221
0.00313584
-0.00480095
0.00241122
-0.00553467
0.00161741
-0.00605631
0.00085643
-0.00641566
0.000139205
-0.00666033
-0.0005354
-0.00683257
-0.0011492
-0.00699016
-0.00169993
-0.00718759
-0.0022261
-0.00749591
-0.00276622
-0.00327638
0.00209236
-0.010422
0.00396582
-0.0134998
0.00494933
-0.012863
0.00523926
-0.0107909
0.00513495
-0.00845913
0.00470079
-0.00603073
0.00414082
-0.00399055
0.00327839
-0.00196652
0.00126377
9.99881e-05
-0.000919497
0.00144895
-0.00234952
0.00202531
-0.00338763
0.00279008
-0.00443567
0.00334857
-0.00553655
0.00361569
-0.00664919
0.00384914
-0.00764862
0.0041896
-0.00853459
0.00446787
-0.00932384
0.00448036
-0.0100362
0.00416011
-0.0106846
0.00354289
-0.011279
0.00273344
-0.0118166
0.00185027
-0.0122804
0.000981763
-0.0126745
0.000159942
-0.0130306
-0.000588394
-0.0133881
-0.00123693
-0.0137865
-0.0017817
-0.014255
-0.0022725
-0.0147888
-0.00278667
-0.00332094
0.00163141
-0.0118032
0.00255638
-0.0140166
0.00244279
-0.0122706
0.00146561
-0.00934682
-0.000133492
-0.00646644
-0.00225735
-0.00360346
-0.00465868
-0.00136468
-0.00685407
0.000366376
-0.00826173
0.00157239
-0.00912055
0.00233571
-0.0101019
0.00299836
-0.0109899
0.00363176
-0.0118021
0.0040883
-0.0126337
0.00435216
-0.0134732
0.00457121
-0.0142334
0.00480935
-0.0148845
0.00495503
-0.0154568
0.004866
-0.0159953
0.00448352
-0.016528
0.00383187
-0.0170599
0.00299136
-0.0175715
0.00205589
-0.0180383
0.00110908
-0.018464
0.000211777
-0.0188783
-0.000583346
-0.0193224
-0.00123809
-0.0198304
-0.00175475
-0.0204128
-0.00220715
-0.0210567
-0.00269883
-0.00320336
0.000888423
-0.0123785
0.00048309
-0.0131155
-0.0013001
-0.00999074
-0.00395854
-0.00627725
-0.00691686
-0.00320325
-0.00956555
-0.00073692
-0.0116214
0.000846807
-0.0130877
0.00191769
-0.0142251
0.0027327
-0.0152257
0.00333724
-0.0161074
0.00385415
-0.0168558
0.00432574
-0.0175313
0.00468498
-0.0182107
0.00493102
-0.0188958
0.00513407
-0.0195382
0.00530752
-0.0201188
0.00536831
-0.0206578
0.00521398
-0.0211844
0.0047924
-0.021713
0.00411439
-0.0222367
0.00323908
-0.0227358
0.00224754
-0.0231965
0.00122927
-0.0236275
0.000268226
-0.0240628
-0.000557893
-0.0245451
-0.00120138
-0.0251054
-0.00167632
-0.0257482
-0.00208296
-0.0264639
-0.0025408
-0.00300494
-0.000247863
-0.0118182
-0.00239018
-0.0104275
-0.00569086
-0.00622115
-0.00920803
-0.002422
-0.0123827
0.000193592
-0.0147925
0.00181531
-0.0166079
0.00274725
-0.0180405
0.00339547
-0.0191785
0.00388189
-0.0201253
0.00426873
-0.0209249
0.00461426
-0.0215974
0.0049353
-0.022203
0.00520569
-0.0228033
0.00542568
-0.0234124
0.0056166
-0.0240114
0.00575847
-0.0245891
0.00577536
-0.0251509
0.00558116
-0.0257052
0.00512601
-0.0262516
0.00441235
-0.0267788
0.00348842
-0.0272726
0.00243228
-0.0277278
0.00134289
-0.0281591
0.000324019
-0.0286014
-0.000526045
-0.0290983
-0.00115069
-0.0296818
-0.00157551
-0.0303588
-0.00192581
-0.0311215
-0.00233705
-0.0027628
-0.00178521
-0.00979677
-0.00544779
-0.00625402
-0.00991676
-0.00136713
-0.0138108
0.00172493
-0.016807
0.00334322
-0.0190584
0.00415036
-0.0208616
0.00457889
-0.0222633
0.00480902
-0.0233415
0.00496346
-0.0242119
0.00511153
-0.0249324
0.00528408
-0.0255443
0.00547612
-0.0261003
0.00567069
-0.0266503
0.00586507
-0.0272178
0.00605346
-0.027803
0.00619191
-0.0283989
0.00619728
-0.0289988
0.00598324
-0.0295941
0.00549803
-0.0301731
0.00474058
-0.0307207
0.0037562
-0.0312242
0.00262524
-0.0316818
0.00145773
-0.0321096
0.000375444
-0.0325436
-0.000503202
-0.0330317
-0.00110956
-0.0336137
-0.00147693
-0.034305
-0.0017553
-0.0350977
-0.00210432
-0.00248953
-0.00340701
-0.00619118
-0.00900209
-0.000246395
-0.0139919
0.00390079
-0.0177918
0.00569309
-0.0206906
0.00633761
-0.0229308
0.00643248
-0.0246448
0.00629405
-0.0259338
0.00608499
-0.0269038
0.00591396
-0.0276712
0.00583697
-0.0283029
0.00585473
-0.0288448
0.00593925
-0.0293423
0.0060714
-0.0298414
0.00624885
-0.0303757
0.00645308
-0.0309584
0.00661947
-0.0315843
0.00664607
-0.0322351
0.0064334
-0.0328865
0.00592361
-0.033515
0.00511618
-0.0341002
0.00405983
-0.0346288
0.00284182
-0.0350957
0.00158064
-0.0355154
0.000417874
-0.0359252
-0.000505212
-0.0363811
-0.00110121
-0.0369381
-0.001404
-0.037626
-0.00158895
-0.0384376
-0.00185352
-0.00219028
-0.00590216
-0.000149966
-0.0125484
0.00669537
-0.0177339
0.00926771
-0.0216288
0.0096866
-0.0244634
0.00922072
-0.0265398
0.00852012
-0.0280635
0.00780275
-0.0291657
0.0071573
-0.0299673
0.00667514
-0.0305884
0.00640312
-0.0311049
0.00630115
-0.0315553
0.00630394
-0.0319736
0.00638762
-0.0324075
0.00656316
-0.0329053
0.00681261
-0.033493
0.00704875
-0.0341637
0.00713682
-0.0348842
0.00695076
-0.0356114
0.00642263
-0.0363082
0.00555816
-0.0369491
0.00441744
-0.0375168
0.00309623
-0.0380007
0.00171949
-0.0384086
0.0004477
-0.0387777
-0.000548545
-0.0391757
-0.00115119
-0.0396809
-0.00138335
-0.0403461
-0.00144581
-0.0411684
-0.00159266
-0.00186477
-0.00806693
0.0080096
-0.0159592
0.0147678
-0.0217701
0.0151781
-0.0256347
0.0135956
-0.0281809
0.011778
-0.0299466
0.0102731
-0.0311933
0.00901917
-0.0320243
0.00794569
-0.0325689
0.00716688
-0.0329849
0.00675458
-0.0333558
0.00659469
-0.0336933
0.00655
-0.034008
0.00659562
-0.0343542
0.00678599
-0.0348063
0.00712316
-0.0354071
0.00748835
-0.0361446
0.00769173
-0.0369626
0.00756339
-0.0377916
0.00702148
-0.0385781
0.0060881
-0.0392934
0.00484798
-0.0399177
0.00340599
-0.04043
0.00188591
-0.0408242
0.000463141
-0.0411341
-0.000651627
-0.0414428
-0.00129087
-0.0418616
-0.00144934
-0.0424791
-0.00135065
-0.0433044
-0.00132909
-0.00150608
-0.0101221
0.0181264
-0.0203543
0.0250855
-0.0266585
0.0215162
-0.030102
0.0170428
-0.0319585
0.0136184
-0.0331867
0.0114711
-0.0340736
0.00986442
-0.0345372
0.00835771
-0.0347013
0.00727018
-0.0348415
0.00682358
-0.0350478
0.00671812
-0.0352625
0.00666879
-0.0354459
0.00666857
-0.0356682
0.00688156
-0.0360558
0.00736643
-0.0366795
0.00794838
-0.0375148
0.00834223
-0.0384691
0.00831032
-0.0394336
0.00775404
-0.040334
0.00673043
-0.0411445
0.00537253
-0.0418485
0.00379445
-0.0424091
0.00209988
-0.0427948
0.000469636
-0.0430283
-0.000831401
-0.0432113
-0.00155645
-0.043499
-0.00164646
-0.0440336
-0.00133837
-0.0448532
-0.00107118
-0.00109651
-0.0124248
0.0305415
-0.0270581
0.039742
-0.0334435
0.0278933
-0.0355912
0.0191686
-0.0358405
0.0138354
-0.0361913
0.0117811
-0.0367427
0.0103668
-0.0367263
0.00828414
-0.0362906
0.00676852
-0.0360687
0.00652602
-0.0361358
0.00669854
-0.0362564
0.0066901
-0.0362813
0.00657995
-0.0363186
0.0067896
-0.0366098
0.00751098
-0.0372738
0.00844659
-0.0382561
0.00913787
-0.0394041
0.00924929
-0.0405485
0.00866511
-0.0415865
0.00750909
-0.0425104
0.00600948
-0.0433261
0.00429389
-0.0439722
0.00239883
-0.0443692
0.000487024
-0.0445136
-0.00110035
-0.0445293
-0.00198918
-0.04463
-0.00203039
-0.0450333
-0.0014571
-0.0458344
-0.000831336
-0.000615266
0.207842
0.00368081
0.207807
0.0092568
0.207548
0.0143748
0.20705
0.0191445
0.206315
0.0236846
0.205346
0.0280874
0.204171
0.0324281
0.202836
0.0367724
0.201339
0.0411814
0.199655
0.0457064
0.197775
0.0503965
0.195702
0.0552974
0.193449
0.0604583
0.190997
0.0659401
0.188345
0.0718045
0.185491
0.0781231
0.182426
0.0849776
0.179163
0.0924666
0.175682
0.100738
0.171969
0.109939
0.168059
0.12024
0.163995
0.131915
0.159843
0.14522
0.155794
0.160491
0.152157
0.178093
0.149604
0.198238
0.149301
0.220855
0.153632
0.245947
0.166376
0.270195
0.288917
0.278896
0.212889
0.00382103
0.212901
0.00959895
0.212697
0.0149067
0.212266
0.0198552
0.211613
0.024565
0.210744
0.029128
0.2097
0.0336212
0.208517
0.0381156
0.207181
0.042674
0.205675
0.0473487
0.203998
0.0521882
0.20217
0.0572362
0.200193
0.0625463
0.198056
0.0681773
0.195781
0.0741865
0.193368
0.0806484
0.190834
0.0876432
0.188198
0.0952661
0.185483
0.103636
0.182742
0.112887
0.180052
0.123169
0.177574
0.13467
0.175545
0.147575
0.174415
0.161996
0.17494
0.177967
0.178383
0.195189
0.18677
0.212865
0.203444
0.229628
0.230477
0.243415
0.259341
0.260195
0.218072
0.00394925
0.218128
0.00991175
0.217977
0.0153903
0.217615
0.0204977
0.217054
0.025356
0.216314
0.0300594
0.215426
0.0346882
0.214407
0.0393138
0.213249
0.0439987
0.211945
0.0487977
0.210505
0.0537558
0.208952
0.0589161
0.207286
0.0643327
0.205517
0.0700626
0.20367
0.0761638
0.20176
0.0826946
0.199825
0.0897361
0.197901
0.0973758
0.196058
0.105683
0.194404
0.114773
0.193071
0.124764
0.192319
0.135721
0.192539
0.147689
0.194313
0.16059
0.198452
0.174196
0.205973
0.188031
0.21778
0.201413
0.234324
0.213388
0.254371
0.223586
0.232747
0.281089
0.223384
0.00406352
0.223484
0.0101908
0.223392
0.0158183
0.22311
0.0210626
0.22266
0.0260477
0.222069
0.0308715
0.221347
0.0356163
0.220504
0.040351
0.219542
0.0451372
0.218465
0.0500296
0.217291
0.0550728
0.216043
0.0603094
0.214728
0.0657867
0.213361
0.0715624
0.21198
0.0776901
0.21062
0.0842145
0.209331
0.0912056
0.208188
0.0987211
0.207283
0.106813
0.206755
0.115552
0.206816
0.124981
0.20777
0.135074
0.210024
0.145766
0.214071
0.156889
0.220457
0.168149
0.229683
0.179134
0.24204
0.189366
0.257663
0.198024
0.276901
0.20454
0.207895
0.301866
0.228821
0.004163
0.228974
0.0104312
0.228954
0.0161843
0.22877
0.0215422
0.228447
0.0266321
0.228007
0.0315545
0.227456
0.036392
0.226804
0.0412113
0.226059
0.0460713
0.225227
0.0510238
0.224343
0.0561157
0.223433
0.0613882
0.222498
0.066883
0.221554
0.0726508
0.220667
0.0787317
0.219896
0.0851691
0.219294
0.0920079
0.218961
0.0992731
0.219008
0.107006
0.219602
0.11522
0.220977
0.12389
0.223402
0.132953
0.227199
0.142287
0.232712
0.1517
0.240267
0.160908
0.25014
0.169559
0.262561
0.177215
0.277589
0.183222
0.295142
0.187158
0.188044
0.315099
0.23439
0.00424557
0.234605
0.0106278
0.234669
0.0164814
0.234597
0.0219291
0.234409
0.0271009
0.234122
0.0320984
0.233749
0.0370026
0.233304
0.0418785
0.23279
0.0467821
0.232224
0.0517621
0.231653
0.0568664
0.231099
0.062133
0.230557
0.0675993
0.230058
0.0733013
0.229699
0.0792657
0.229541
0.0855332
0.229644
0.0921223
0.230113
0.0990365
0.231076
0.106293
0.232699
0.113864
0.235176
0.121696
0.238727
0.129698
0.243589
0.137726
0.250003
0.145586
0.258165
0.153034
0.268241
0.159751
0.280328
0.165367
0.294251
0.169499
0.309659
0.171905
0.171494
0.32631
0.240095
0.00430901
0.240379
0.0107761
0.240536
0.0167036
0.240581
0.0222166
0.240533
0.0274466
0.24041
0.032493
0.240227
0.037436
0.239999
0.0423391
0.239732
0.047254
0.239455
0.0522299
0.23921
0.0573108
0.239017
0.0625285
0.238881
0.0679139
0.238858
0.07349
0.239049
0.079276
0.239505
0.0853007
0.240293
0.0915641
0.241514
0.0980562
0.243296
0.104765
0.245781
0.111645
0.249128
0.118624
0.253513
0.125596
0.259105
0.132417
0.266052
0.138916
0.274473
0.144876
0.284446
0.150021
0.295926
0.154101
0.308685
0.15692
0.322434
0.158298
0.157118
0.336907
0.245939
0.00435152
0.246297
0.0108725
0.246552
0.0168464
0.246722
0.0223987
0.246822
0.0276604
0.246873
0.0327284
0.24689
0.0376824
0.24689
0.0425823
0.246887
0.0474773
0.246912
0.0524156
0.247
0.0574339
0.247178
0.0625581
0.247467
0.0678123
0.247935
0.0732112
0.248661
0.0787688
0.249696
0.0844964
0.251113
0.0903834
0.253007
0.0964077
0.25549
0.102536
0.258683
0.108714
0.262714
0.114861
0.267705
0.120873
0.273771
0.126617
0.281002
0.131941
0.289468
0.136652
0.299157
0.140552
0.309957
0.143495
0.321684
0.145357
0.334104
0.14601
0.14444
0.346874
0.251924
0.00437173
0.25236
0.0109143
0.252719
0.0169055
0.253019
0.0224693
0.253276
0.0277346
0.253509
0.032797
0.253736
0.0377326
0.253976
0.0425984
0.254248
0.0474429
0.254581
0.0523084
0.25501
0.0572257
0.255566
0.0622171
0.256284
0.0672993
0.257223
0.0724815
0.258447
0.07777
0.260016
0.083162
0.262
0.0886388
0.264484
0.0941694
0.267562
0.0997098
0.271331
0.1052
0.27588
0.110569
0.281293
0.115716
0.28765
0.120508
0.295011
0.124819
0.303377
0.128508
0.312683
0.131447
0.322817
0.133538
0.333628
0.134696
0.344913
0.134848
0.133112
0.35633
0.258055
0.00436853
0.258571
0.0108989
0.259039
0.0168768
0.259474
0.0224228
0.259894
0.0276635
0.260317
0.0326914
0.260762
0.0375788
0.261249
0.0423813
0.261799
0.0471443
0.262443
0.0519042
0.263213
0.0566877
0.264143
0.0615129
0.265272
0.0663902
0.266653
0.0713233
0.268342
0.0763107
0.270399
0.0813409
0.272889
0.0863897
0.275881
0.0914205
0.279453
0.0963848
0.283671
0.101229
0.288601
0.105886
0.294308
0.11025
0.300841
0.114208
0.308208
0.117672
0.316373
0.120547
0.325262
0.122742
0.334773
0.124188
0.344773
0.124836
0.355092
0.124645
0.12286
0.365428
0.264334
0.00434087
0.264933
0.010824
0.265513
0.0167567
0.266089
0.0222553
0.266676
0.0274423
0.267293
0.0324069
0.26796
0.0372181
0.268695
0.041929
0.269523
0.0465812
0.270473
0.0512064
0.271577
0.0558272
0.272868
0.0604572
0.274387
0.0651022
0.276181
0.0697612
0.2783
0.0744264
0.280797
0.0790807
0.283729
0.0836973
0.287152
0.0882384
0.29112
0.0926573
0.295682
0.0969047
0.300898
0.100906
0.306807
0.104569
0.313412
0.107822
0.320691
0.110597
0.328604
0.112822
0.337079
0.114437
0.346021
0.115396
0.355312
0.115674
0.364813
0.115253
0.113487
0.374266
0.270765
0.004288
0.271448
0.0106882
0.272143
0.0165434
0.27286
0.0219643
0.273617
0.0270688
0.27443
0.0319421
0.275318
0.03665
0.276301
0.0412422
0.277403
0.0457567
0.278652
0.0502211
0.280078
0.0546539
0.281715
0.0590653
0.2836
0.0634572
0.285774
0.0678247
0.288282
0.0721558
0.291171
0.0764299
0.294482
0.0806235
0.298257
0.0846994
0.302541
0.0886066
0.307379
0.0922962
0.312805
0.0957046
0.31882
0.0987684
0.325412
0.101434
0.332555
0.103645
0.3402
0.105351
0.348281
0.106514
0.356709
0.107107
0.365383
0.107119
0.374188
0.106549
0.104842
0.382909
0.27735
0.00420949
0.278118
0.0104907
0.278928
0.0162359
0.279789
0.021549
0.280715
0.0265426
0.281723
0.0312976
0.28283
0.0358762
0.284057
0.0403246
0.285426
0.044677
0.286964
0.0489577
0.288698
0.0531818
0.29066
0.0573562
0.292884
0.0614801
0.295404
0.065546
0.29826
0.0695398
0.301485
0.0734415
0.305114
0.0772289
0.309184
0.0808606
0.31373
0.0842873
0.318776
0.0874704
0.324329
0.090364
0.33038
0.0929196
0.336912
0.0950925
0.343891
0.0968423
0.351269
0.0981357
0.35898
0.0989484
0.366949
0.0992676
0.375087
0.0990928
0.383299
0.0984306
0.0968052
0.391407
0.284093
0.00410521
0.284946
0.0102316
0.28587
0.0158344
0.286873
0.0210102
0.287968
0.0258652
0.289168
0.0304759
0.29049
0.0349006
0.291954
0.0391822
0.29358
0.0433511
0.295393
0.0474287
0.297418
0.0514272
0.299682
0.0553512
0.302216
0.059198
0.305047
0.06296
0.308204
0.0666225
0.311718
0.0701632
0.315621
0.0735568
0.31994
0.076767
0.324689
0.0797574
0.329874
0.0824962
0.335495
0.0849451
0.341538
0.0870673
0.347979
0.0888297
0.354783
0.0902041
0.3619
0.0911694
0.369271
0.0917122
0.376829
0.0918289
0.3845
0.0915254
0.392206
0.0908129
0.0892826
0.399795
0.290997
0.00397536
0.291933
0.00991148
0.292971
0.0153401
0.294114
0.0203497
0.295373
0.0250395
0.296761
0.0294812
0.298292
0.0337295
0.299984
0.0378236
0.301855
0.0417905
0.303927
0.0456487
0.306222
0.049409
0.308764
0.0530749
0.311575
0.0566428
0.31468
0.060102
0.318105
0.0634372
0.321874
0.0666273
0.326009
0.0696483
0.330522
0.072474
0.335415
0.0750752
0.34069
0.0774228
0.346339
0.0794877
0.352344
0.0812427
0.358676
0.0826646
0.3653
0.0837346
0.372169
0.0844406
0.379229
0.084777
0.386423
0.084746
0.393687
0.0843574
0.400957
0.0836249
0.0821964
0.408105
0.298065
0.00382042
0.299084
0.0095318
0.300232
0.0147552
0.301511
0.0195706
0.30293
0.0240699
0.304499
0.0283196
0.306231
0.0323706
0.308139
0.0362592
0.310241
0.0400084
0.312555
0.0436352
0.315097
0.0471503
0.317889
0.0505533
0.320951
0.0538393
0.324303
0.0569977
0.327966
0.060014
0.331952
0.062872
0.33627
0.0655512
0.340928
0.068029
0.345925
0.0702819
0.351254
0.0722866
0.356902
0.0740215
0.362847
0.0754672
0.369061
0.0766078
0.375507
0.0774323
0.382144
0.0779346
0.388922
0.0781147
0.395792
0.0779785
0.402701
0.0775377
0.409594
0.076807
0.0754834
0.416363
0.305302
0.00364125
0.306399
0.00909453
0.307654
0.0140825
0.309066
0.0186771
0.310639
0.0229623
0.312381
0.0269986
0.314302
0.0308338
0.316414
0.0345019
0.31873
0.0380212
0.321265
0.0414069
0.324036
0.0446692
0.327058
0.047805
0.330348
0.0508096
0.333919
0.0536753
0.337781
0.0563898
0.341942
0.0589382
0.346407
0.0613031
0.351176
0.0634666
0.356243
0.06541
0.361598
0.0671158
0.367224
0.0685683
0.373097
0.0697543
0.379189
0.0706638
0.385465
0.0712911
0.391886
0.0716349
0.39841
0.0716985
0.404993
0.0714901
0.41159
0.0710222
0.418156
0.0703094
0.0690911
0.4246
0.31271
0.00343918
0.313883
0.00860213
0.315241
0.0133258
0.316779
0.0176746
0.318498
0.0217241
0.320402
0.0255281
0.322501
0.0291313
0.324804
0.0325636
0.32732
0.0358417
0.330062
0.0389789
0.333043
0.0419824
0.336274
0.0448515
0.339763
0.0475824
0.343519
0.0501675
0.347548
0.0525964
0.351853
0.0548565
0.356434
0.0569341
0.361285
0.0588149
0.366399
0.0604848
0.37176
0.0619311
0.377349
0.0631429
0.383143
0.0641117
0.389113
0.0648321
0.395228
0.0653023
0.401451
0.0655241
0.407746
0.0655029
0.414075
0.0652481
0.4204
0.0647722
0.426683
0.0640891
0.0629753
0.432844
0.320294
0.00321564
0.321539
0.00805787
0.322994
0.0124903
0.324651
0.0165694
0.326508
0.0203622
0.328566
0.023917
0.330832
0.0272727
0.333314
0.0304558
0.336017
0.0334835
0.338948
0.0363671
0.342117
0.0391121
0.34553
0.0417186
0.349191
0.0441834
0.353106
0.0465
0.357276
0.04866
0.361699
0.0506533
0.36637
0.0524691
0.371283
0.0540966
0.376423
0.0555256
0.381775
0.0567473
0.38732
0.0577544
0.393032
0.0585423
0.398885
0.0591089
0.40485
0.0594549
0.410894
0.0595843
0.416986
0.0595036
0.423091
0.0592227
0.429177
0.0587535
0.435213
0.058109
0.0570981
0.441131
0.328059
0.00297175
0.329371
0.00746539
0.330917
0.0115815
0.332686
0.015368
0.334673
0.0188842
0.336877
0.022173
0.3393
0.0252678
0.341946
0.0281927
0.344817
0.0309636
0.347919
0.0335904
0.351255
0.036078
0.354829
0.0384268
0.358641
0.0406341
0.362692
0.0426951
0.36698
0.0446029
0.371499
0.0463499