/*--------------------------------*- C++ -*----------------------------------*\
| =========                 |                                                 |
| \\      /  F ield         | OpenFOAM: The Open Source CFD Toolbox           |
|  \\    /   O peration     | Version:  4.1                                   |
|   \\  /    A nd           | Web:      www.OpenFOAM.org                      |
|    \\/     M anipulation  |                                                 |
\*---------------------------------------------------------------------------*/
FoamFile
{
    version     2.0;
    format      ascii;
    class       volVectorField;
    location    "3.3";
    object      U;
}
// * * * * * * * * * * * * * * * * * * * * * * * * * * * * * * * * * * * * * //

dimensions      [0 1 -1 0 0 0 0];

internalField   nonuniform List<vector> 
2790
(
(9.94361 0.0207183 0)
(9.86586 0.0286542 1.11879e-19)
(9.75862 0.0340162 2.88533e-20)
(9.63173 0.0396245 2.97255e-20)
(9.48972 0.0454574 0)
(9.33281 0.0514487 0)
(9.16049 0.0577169 0)
(8.97235 0.0643983 -1.36615e-19)
(8.76799 0.0716215 1.40468e-19)
(8.54683 0.0795059 7.33863e-20)
(8.30806 0.0881661 7.74665e-20)
(8.05068 0.0977249 -7.89135e-20)
(7.77356 0.108307 -8.34649e-20)
(7.47551 0.120038 0)
(7.15532 0.133054 0)
(6.81166 0.147491 -9.67288e-20)
(6.44321 0.16347 0)
(6.04875 0.181101 2.16144e-19)
(5.62719 0.200467 9.2525e-19)
(5.17772 0.221582 -9.70942e-19)
(4.69993 0.244364 0)
(4.19406 0.268597 0)
(3.66122 0.293858 0)
(3.10372 0.319413 3.25727e-19)
(2.52554 0.343989 -2.84029e-18)
(1.93295 0.365275 3.06348e-18)
(1.33565 0.378336 3.78307e-18)
(0.748731 0.368591 -3.18996e-18)
(0.192013 0.270489 7.90681e-18)
(-0.174201 -0.3575 -8.74987e-18)
(10.0057 0.0403404 2.17835e-19)
(9.98608 0.0591792 -1.11202e-19)
(9.9394 0.0731464 0)
(9.87122 0.0879891 -5.8141e-20)
(9.78487 0.103739 -1.20064e-19)
(9.68085 0.120207 1.23992e-19)
(9.55897 0.137632 0)
(9.41895 0.156317 0)
(9.26047 0.176566 2.74936e-19)
(9.08304 0.198662 -2.11093e-19)
(8.88591 0.22287 -7.33471e-20)
(8.66817 0.249472 -7.63911e-20)
(8.42873 0.27874 -7.93185e-20)
(8.16647 0.310934 -1.65642e-19)
(7.88019 0.346339 1.56926e-18)
(7.56853 0.38521 1.11748e-19)
(7.23005 0.427715 -1.51184e-18)
(6.86335 0.473948 -2.00277e-19)
(6.4672 0.523879 4.21342e-19)
(6.04049 0.577233 -4.45265e-19)
(5.5824 0.633399 0)
(5.09264 0.69132 4.04645e-18)
(4.5716 0.749322 -4.79258e-18)
(4.02072 0.804845 -2.86591e-19)
(3.44284 0.853986 0)
(2.84277 0.890602 0)
(2.228 0.904211 3.56293e-19)
(1.61 0.873929 1.20145e-17)
(0.970479 0.75678 -2.69158e-17)
(0.57692 0.428938 -1.99115e-20)
(10.0028 0.0413828 -2.17845e-19)
(9.98047 0.0694697 2.21804e-19)
(9.93616 0.0932223 0)
(9.87289 0.117953 1.16665e-19)
(9.79266 0.144137 0)
(9.69607 0.171677 -1.23321e-19)
(9.58338 0.200902 0)
(9.45436 0.232276 -5.26418e-19)
(9.3087 0.266272 2.68095e-19)
(9.14606 0.303343 4.22549e-19)
(8.96583 0.343938 -4.30892e-19)
(8.76721 0.388519 0)
(8.54932 0.437529 -1.55188e-19)
(8.3112 0.491418 1.46631e-18)
(8.05176 0.550706 -1.50819e-18)
(7.76976 0.615898 0)
(7.46373 0.687342 0)
(7.13215 0.765247 0)
(6.77363 0.849662 2.84108e-18)
(6.38678 0.940301 4.71921e-19)
(5.97012 1.03634 -3.53379e-18)
(5.52238 1.13627 4.67678e-19)
(5.04256 1.23758 -7.48539e-18)
(4.53 1.33641 -9.60156e-20)
(3.98453 1.42692 8.89179e-18)
(3.40618 1.50026 0)
(2.79404 1.5428 -6.3975e-19)
(2.14594 1.53274 0)
(1.41231 1.44461 1.49642e-18)
(0.802297 1.20113 0)
(10.0011 0.0462891 0)
(9.97642 0.0849927 2.20954e-19)
(9.932 0.119609 0)
(9.86998 0.154358 2.33018e-19)
(9.79134 0.190424 -2.37766e-19)
(9.69673 0.228065 7.36982e-19)
(9.58672 0.267803 -5.02409e-19)
(9.46115 0.310313 -5.22086e-19)
(9.31978 0.356237 8.01381e-19)
(9.16247 0.406185 -1.38877e-18)
(8.98879 0.460784 1.13721e-18)
(8.79822 0.520659 -1.19058e-18)
(8.5902 0.586407 1.52502e-18)
(8.36401 0.658681 3.17175e-19)
(8.11879 0.738241 2.32882e-18)
(7.85372 0.825871 -2.72565e-18)
(7.56764 0.92218 0)
(7.25919 1.02755 -3.73972e-18)
(6.92718 1.14222 3.08387e-18)
(6.5703 1.26615 0)
(6.18685 1.39867 6.83615e-18)
(5.77489 1.53828 -1.46774e-17)
(5.33221 1.68233 6.49415e-18)
(4.85613 1.82666 7.90237e-18)
(4.34323 1.96508 -8.24605e-18)
(3.78857 2.08857 -1.65351e-17)
(3.18373 2.18457 1.97591e-17)
(2.51804 2.23567 0)
(1.7322 2.23176 -1.35124e-18)
(0.995939 2.12342 0)
(10.0002 0.0526201 -4.33222e-19)
(9.97424 0.100234 -7.29792e-22)
(9.92963 0.14427 0)
(9.8686 0.188087 0)
(9.79165 0.233305 0)
(9.69919 0.280521 -2.43728e-19)
(9.59167 0.330427 0)
(9.46904 0.383838 -1.03509e-18)
(9.3312 0.44149 7.91234e-19)
(9.17803 0.504086 7.50698e-22)
(9.00925 0.572351 -1.41713e-18)
(8.82457 0.647009 1.45047e-18)
(8.62363 0.728794 0)
(8.40578 0.818519 2.1994e-18)
(8.17035 0.917104 -2.24477e-18)
(7.9168 1.02552 0)
(7.64443 1.14462 0)
(7.35223 1.27501 6.54179e-18)
(7.03904 1.4171 -5.96556e-18)
(6.70374 1.57118 6.29078e-18)
(6.34475 1.737 8.94474e-19)
(5.95984 1.91344 9.28806e-19)
(5.54615 2.09833 -6.15159e-18)
(5.09941 2.28804 -1.4889e-17)
(4.61398 2.47735 1.54342e-17)
(4.08186 2.65912 1.43354e-17)
(3.49061 2.82409 -3.54855e-17)
(2.82732 2.96004 1.81977e-17)
(2.03809 3.06227 0)
(1.21224 3.11035 1.36859e-18)
(9.99993 0.0596245 4.32876e-19)
(9.97326 0.115511 -2.20034e-19)
(9.92873 0.168566 -4.49908e-19)
(9.86894 0.221411 6.91257e-19)
(9.79409 0.275754 -4.70293e-19)
(9.70422 0.332489 -2.45458e-21)
(9.59959 0.392462 -9.9865e-19)
(9.48032 0.456555 5.06922e-19)
(9.34644 0.525588 2.62831e-19)
(9.19784 0.600352 -2.68838e-19)
(9.03438 0.681657 2.78873e-19)
(8.85588 0.770339 2.85303e-19)
(8.66201 0.867302 0)
(8.45217 0.97351 0)
(8.22586 1.08999 0)
(7.98268 1.21782 -4.61458e-18)
(7.7222 1.35807 5.37998e-18)
(7.44375 1.51164 -6.97994e-19)
(7.14609 1.67919 0)
(6.8282 1.8613 7.48851e-19)
(6.4887 2.05826 1.10015e-17)
(6.12531 2.26966 -2.67245e-17)
(5.73497 2.49429 -1.49742e-19)
(5.31262 2.72954 2.79747e-17)
(4.85144 2.97178 -1.44898e-17)
(4.34235 3.21649 1.89694e-18)
(3.77188 3.45776 -9.84893e-19)
(3.1271 3.6873 0)
(2.37436 3.89315 3.51661e-17)
(1.4704 4.09692 -4.05134e-17)
(9.9999 0.0669186 -1.07924e-19)
(9.97299 0.130775 1.09489e-19)
(9.92893 0.192384 0)
(9.87082 0.253883 0)
(9.7984 0.317002 0)
(9.71136 0.382902 4.83184e-19)
(9.61006 0.452571 5.00697e-19)
(9.4947 0.526936 -1.00523e-18)
(9.36538 0.606889 -1.04334e-18)
(9.22209 0.693306 1.06439e-18)
(9.06476 0.787087 0)
(8.89319 0.889201 -3.40295e-18)
(8.70707 1.00071 2.89556e-18)
(8.50594 1.12268 0)
(8.28941 1.25624 4.97696e-18)
(8.05711 1.40256 -5.07629e-18)
(7.80867 1.56288 0)
(7.54356 1.73841 6.81992e-19)
(7.26071 1.93014 0)
(6.95912 2.13896 -7.27639e-19)
(6.6374 2.36569 7.51805e-19)
(6.2933 2.61078 -7.67532e-19)
(5.92384 2.87425 -1.28369e-17)
(5.52419 3.1551 1.47816e-17)
(5.08697 3.45124 1.6933e-18)
(4.60298 3.76039 2.74827e-17)
(4.05976 4.07938 -2.83109e-17)
(3.44203 4.40325 0)
(2.75352 4.69946 0)
(1.77335 5.04405 1.07544e-18)
(9.99997 0.0742836 0)
(9.97324 0.14587 -4.36129e-19)
(9.9301 0.21556 0)
(9.87398 0.285297 4.54647e-19)
(9.80421 0.356895 0)
(9.72033 0.431663 -9.56424e-19)
(9.6228 0.510666 1.95279e-18)
(9.51192 0.594885 -4.95626e-19)
(9.38785 0.685278 0)
(9.25063 0.782807 2.27532e-21)
(9.10019 0.888486 0)
(8.93634 1.00341 5.57073e-19)
(8.75884 1.12876 1.72466e-18)
(8.56734 1.26572 -2.33643e-18)
(8.36153 1.4155 0)
(8.14107 1.57939 -5.62328e-18)
(7.90556 1.75882 5.08505e-18)
(7.65451 1.95529 -6.54361e-19)
(7.38714 2.17017 0)
(7.10246 2.40473 1.38355e-18)
(6.79892 2.66032 0)
(6.47439 2.93822 7.40771e-19)
(6.12597 3.23969 0)
(5.7495 3.56564 -1.56734e-18)
(5.33794 3.91579 -1.61222e-18)
(4.8821 4.28934 2.79549e-17)
(4.37143 4.68473 -2.69365e-17)
(3.78322 5.10188 2.94511e-17)
(3.17363 5.47656 -1.70993e-19)
(2.11682 5.94719 -3.23377e-17)
(10 0.0815806 0)
(9.97393 0.16061 2.17553e-19)
(9.93221 0.237961 2.21267e-19)
(9.87818 0.315562 5.8918e-22)
(9.81119 0.395314 -4.61123e-19)
(9.73084 0.478583 -4.76763e-19)
(9.63757 0.566478 9.63911e-19)
(9.53175 0.66005 0)
(9.41358 0.760336 -2.03715e-18)
(9.28309 0.868396 2.5902e-18)
(9.14024 0.985354 -2.67212e-18)
(8.9849 1.11241 2.17436e-18)
(8.81688 1.25085 0)
(8.63597 1.40195 5.72511e-19)
(8.44188 1.56705 -5.87095e-19)
(8.23436 1.74759 -4.86427e-18)
(8.01301 1.94518 4.93649e-18)
(7.77736 2.16156 1.90429e-18)
(7.52685 2.39849 0)
(7.26046 2.65777 -1.34408e-18)
(6.97675 2.94137 -1.23474e-17)
(6.67373 3.25138 9.75888e-18)
(6.34848 3.59011 1.41722e-18)
(5.99724 3.96023 -2.34344e-17)
(5.61416 4.36372 2.52599e-17)
(5.19018 4.80134 2.27947e-17)
(4.71689 5.27171 -4.94542e-17)
(4.15809 5.78289 2.35833e-17)
(3.63377 6.23269 2.63085e-17)
(2.49733 6.82836 -2.28501e-19)
(10.0002 0.0887007 9.58019e-19)
(9.97498 0.174833 1.08722e-19)
(9.93493 0.259479 2.21851e-19)
(9.88316 0.344607 -4.4873e-19)
(9.81921 0.432123 0)
(9.74279 0.523438 -1.41005e-18)
(9.65425 0.619723 4.71421e-19)
(9.55401 0.722108 1.46442e-18)
(9.44226 0.831715 0)
(9.31907 0.949689 5.10946e-19)
(9.18445 1.07725 3.03805e-21)
(9.03835 1.21569 5.34779e-19)
(8.88066 1.36637 -4.41464e-18)
(8.71126 1.5307 3.35103e-18)
(8.52994 1.71014 1.14988e-18)
(8.3365 1.90628 0)
(8.13062 2.12094 0)
(7.91195 2.35611 -1.23595e-18)
(7.67999 2.61389 0)
(7.43377 2.89661 0)
(7.17223 3.20702 -9.15796e-18)
(6.89351 3.54813 1.19207e-17)
(6.5948 3.92329 -1.36145e-18)
(6.27243 4.33655 0)
(5.92174 4.79229 -1.40101e-18)
(5.53415 5.29364 -1.37843e-18)
(5.10402 5.83892 2.11102e-17)
(4.57593 6.44745 -2.27409e-17)
(4.14376 6.97653 2.19725e-17)
(2.92272 7.71695 -2.49071e-17)
(10.0005 0.0955479 -1.06273e-18)
(9.97627 0.188453 6.46415e-19)
(9.93797 0.280035 -4.37651e-19)
(9.88874 0.372306 8.95716e-19)
(9.82818 0.467144 -9.0881e-19)
(9.75605 0.566006 9.32254e-19)
(9.67266 0.670152 -1.42086e-18)
(9.57842 0.780795 -2.28582e-21)
(9.47356 0.899125 -2.47887e-18)
(9.3582 1.02635 1.50611e-18)
(9.23242 1.16378 3.23154e-21)
(9.09624 1.31278 -3.6434e-21)
(8.94965 1.4748 0)
(8.79263 1.65134 5.51613e-19)
(8.62506 1.84402 3.9417e-18)
(8.44688 2.05459 1.17709e-18)
(8.25776 2.28501 -4.64137e-18)
(8.05757 2.53757 0)
(7.84605 2.81479 -1.19778e-18)
(7.62232 3.11943 0)
(7.38556 3.45498 0)
(7.13429 3.82552 -1.00723e-17)
(6.86622 4.2357 8.87514e-18)
(6.57769 4.6908 2.04273e-17)
(6.26487 5.19748 -2.0503e-17)
(5.91973 5.76237 -1.9136e-17)
(5.54046 6.3838 2.18222e-17)
(5.04825 7.09484 0)
(4.71769 7.71193 -1.998e-17)
(3.40492 8.62398 2.25179e-17)
(10.0009 0.102057 0)
(9.97771 0.20142 0)
(9.94133 0.299557 0)
(9.89488 0.398529 0)
(9.83801 0.500204 -9.02083e-19)
(9.77049 0.606091 9.23854e-19)
(9.69259 0.717549 -9.363e-19)
(9.60473 0.835873 1.91899e-18)
(9.5072 0.962292 -3.41627e-18)
(9.40015 1.09806 3.98264e-18)
(9.28374 1.24456 -1.51337e-18)
(9.15807 1.40323 3.63603e-18)
(9.02327 1.57559 -4.20064e-18)
(8.87938 1.76325 -1.06868e-18)
(8.72647 1.96796 1.08705e-18)
(8.56464 2.19162 2.23915e-18)
(8.39358 2.43633 -1.35566e-17)
(8.21343 2.70461 -6.07987e-20)
(8.02422 2.99941 1.11298e-18)
(7.82531 3.32402 9.34727e-18)
(7.61615 3.68258 0)
(7.39577 4.08013 0)
(7.16263 4.52275 2.86971e-20)
(6.91401 5.01757 0)
(6.64645 5.57335 0)
(6.35188 6.20086 0)
(6.03403 6.90027 1.81898e-17)
(5.58821 7.72038 -1.81404e-17)
(5.36685 8.44361 -1.62336e-17)
(3.95674 9.56978 1.82256e-17)
(10.0013 0.108198 -8.39296e-19)
(9.97924 0.213668 -4.23623e-19)
(9.94497 0.317947 1.59479e-21)
(9.90156 0.42315 -4.3978e-19)
(9.84864 0.531154 8.98629e-19)
(9.78602 0.643529 9.15381e-19)
(9.7139 0.761746 -9.26933e-19)
(9.63273 0.887148 -4.74418e-19)
(9.54287 1.02098 0)
(9.44454 1.16454 -1.47997e-18)
(9.33797 1.31926 1.98998e-18)
(9.22334 1.48666 4.07716e-18)
(9.10091 1.66832 2.92413e-20)
(8.97084 1.86591 -2.08356e-18)
(8.83339 2.08128 -1.07014e-18)
(8.68874 2.31647 1.26767e-20)
(8.537 2.57377 -1.08524e-18)
(8.37852 2.8559 0)
(8.21333 3.16604 0)
(8.04138 3.50809 8.96718e-18)
(7.86269 3.88683 -1.79538e-17)
(7.67694 4.30808 8.9698e-18)
(7.48332 4.77918 1.12934e-18)
(7.28101 5.30969 -1.75668e-17)
(7.0674 5.91067 1.74217e-17)
(6.8344 6.5975 -1.03357e-18)
(6.59293 7.3756 0)
(6.21413 8.31125 1.53826e-17)
(6.11526 9.17521 -1.7435e-17)
(4.60808 10.611 0)
(10.0016 0.113967 8.38157e-19)
(9.9808 0.225122 3.31633e-21)
(9.94889 0.335079 8.59048e-19)
(9.90881 0.44603 -8.7313e-19)
(9.86014 0.559859 0)
(9.8026 0.678199 9.06879e-19)
(9.73635 0.802604 -1.83495e-18)
(9.66206 0.934434 -1.87624e-18)
(9.58021 1.07495 1.89658e-18)
(9.49098 1.2255 1.45439e-18)
(9.39467 1.38758 -2.93607e-18)
(9.29151 1.56271 4.00028e-18)
(9.18192 1.75253 1.03162e-18)
(9.06627 1.95876 -9.22832e-18)
(8.94498 2.18334 8.29809e-18)
(8.81834 2.42835 -3.1276e-18)
(8.68688 2.69627 1.06484e-18)
(8.5512 2.98999 0)
(8.4116 3.31294 0)
(8.26864 3.66934 0)
(8.12304 4.06451 -9.57818e-18)
(7.97547 4.50501 8.4773e-18)
(7.82618 4.99915 0)
(7.67632 5.55847 -1.62384e-17)
(7.52593 6.19678 3.26781e-17)
(7.3688 6.93436 -1.53713e-17)
(7.2243 7.78545 1.41055e-17)
(6.95097 8.83438 -1.30036e-17)
(7.01551 9.88373 8.89955e-20)
(5.43155 11.8321 2.12878e-17)
(10.002 0.119352 -2.08274e-19)
(9.98251 0.235715 1.05426e-18)
(9.95312 0.350858 -4.28636e-19)
(9.91654 0.467076 4.33314e-19)
(9.87226 0.586254 4.22834e-22)
(9.81985 0.710057 8.98368e-19)
(9.7596 0.840053 -9.03274e-19)
(9.69248 0.977606 2.77556e-18)
(9.61895 1.12404 -1.87229e-18)
(9.53911 1.28077 -1.91019e-18)
(9.45335 1.44929 2.89592e-18)
(9.36199 1.63115 -4.89942e-18)
(9.26568 1.82795 2.95651e-18)
(9.16492 2.04146 -9.96122e-19)
(9.06025 2.27367 0)
(8.95235 2.52675 0)
(8.84181 2.80317 0)
(8.72962 3.10596 0)
(8.6168 3.43873 1.01817e-18)
(8.50442 3.8059 9.1886e-18)
(8.39394 4.21298 -7.10046e-18)
(8.28721 4.66698 0)
(8.1863 5.17688 0)
(8.09448 5.75513 -9.32746e-19)
(8.01608 6.41759 1.34009e-17)
(7.95014 7.18801 3.45752e-19)
(7.9273 8.09018 -1.30353e-17)
(7.81741 9.22157 -8.32194e-19)
(8.1285 10.4841 1.2567e-18)
(6.48965 13.5544 3.67558e-18)
(-0.0319044 -0.00240354 -7.65344e-22)
(0.0674871 -0.0584457 6.67681e-21)
(0.235791 -0.0787652 -6.07199e-21)
(0.406755 -0.0716807 -1.06386e-20)
(0.563255 -0.0557419 1.00011e-20)
(0.689436 -0.0388517 0)
(0.779825 -0.0237596 0)
(0.83668 -0.0113721 -1.13346e-20)
(0.86602 -0.00196151 8.26368e-21)
(0.874895 0.00495562 0)
(0.868785 0.00951415 0)
(0.851779 0.0122769 0)
(0.827742 0.013339 6.58073e-21)
(0.800581 0.0133858 -6.56752e-21)
(0.772425 0.0133058 -1.6023e-21)
(0.743586 0.0132487 6.38541e-21)
(0.71452 0.0126739 -3.15466e-21)
(0.68723 0.0110877 2.98655e-21)
(0.664918 0.00809559 -2.96768e-21)
(0.65049 0.00365621 0)
(0.645926 -0.000895076 -2.63667e-21)
(0.650798 -0.00412722 1.29086e-21)
(0.663324 -0.00676113 0)
(0.681701 -0.00878185 -5.00374e-22)
(0.704425 -0.010218 4.95257e-22)
(0.730676 -0.0113512 2.17243e-22)
(0.760964 -0.0126934 1.72864e-22)
(0.796637 -0.0145735 0)
(0.838551 -0.016588 -2.43769e-22)
(0.898815 -0.0177763 6.43501e-23)
(-0.0181607 -0.0255409 1.44505e-21)
(0.0965251 -0.168152 0)
(0.24275 -0.201757 -3.08437e-23)
(0.399142 -0.184155 0)
(0.546621 -0.148873 0)
(0.670983 -0.111066 0)
(0.766948 -0.0766073 0)
(0.835592 -0.0476614 -4.08633e-20)
(0.881504 -0.0253933 4.30911e-20)
(0.9105 -0.00833244 0)
(0.926848 0.0053805 -6.60261e-21)
(0.931911 0.015024 -3.30568e-20)
(0.928114 0.02025 2.6302e-20)
(0.919573 0.0225508 0)
(0.907608 0.0242354 1.12104e-20)
(0.891496 0.025646 2.98967e-21)
(0.871587 0.0252541 -1.24906e-20)
(0.8506 0.0220604 -5.90011e-21)
(0.832509 0.0164906 8.64429e-21)
(0.820249 0.0095457 -2.85858e-21)
(0.813674 0.00223929 1.31686e-21)
(0.811528 -0.00466497 0)
(0.813607 -0.0106613 0)
(0.819528 -0.0155108 0)
(0.828187 -0.0194341 8.59948e-22)
(0.839038 -0.0231395 -1.24037e-21)
(0.852308 -0.0276293 -5.24702e-22)
(0.868835 -0.0332752 5.19723e-22)
(0.889948 -0.0391132 2.42543e-22)
(0.927414 -0.0427249 -6.40973e-23)
(-0.000563874 -0.0854109 -4.45964e-20)
(0.0950073 -0.26901 -9.0712e-21)
(0.213165 -0.309088 2.80941e-20)
(0.338501 -0.28239 -7.47554e-22)
(0.455483 -0.231225 -6.59905e-20)
(0.553877 -0.175906 6.87339e-20)
(0.629389 -0.125075 -8.98319e-20)
(0.682627 -0.0820397 1.81488e-19)
(0.71693 -0.0497209 -3.96324e-20)
(0.738534 -0.0253805 -5.18966e-20)
(0.750666 -0.00552101 6.13525e-20)
(0.753172 0.0101924 -4.77051e-20)
(0.747399 0.0202694 -6.80504e-21)
(0.738152 0.0266917 2.66567e-20)
(0.726137 0.033244 -2.41077e-22)
(0.708286 0.039426 -1.64774e-20)
(0.683183 0.0414337 -1.27716e-20)
(0.653542 0.0367126 0)
(0.623242 0.0259771 5.89564e-21)
(0.596017 0.0128234 -8.40695e-21)
(0.571294 0.000796797 1.08862e-20)
(0.547703 -0.00823432 -1.03455e-20)
(0.52499 -0.0144206 7.34018e-21)
(0.50453 -0.018605 -2.31648e-21)
(0.487618 -0.0214815 2.00264e-21)
(0.475179 -0.0238332 0)
(0.467324 -0.0272138 -5.54916e-22)
(0.465365 -0.0333173 1.13325e-21)
(0.471917 -0.0426544 4.37456e-22)
(0.499572 -0.0552223 -8.14597e-23)
(-0.0295869 -0.190476 -2.63748e-20)
(0.0578424 -0.36588 2.45688e-20)
(0.155582 -0.394495 0)
(0.251139 -0.353502 -5.86098e-20)
(0.335533 -0.287549 -1.62963e-20)
(0.404586 -0.218211 7.24027e-20)
(0.454537 -0.154518 0)
(0.487649 -0.0998648 1.04844e-19)
(0.504285 -0.060516 -1.04851e-19)
(0.511482 -0.0267145 1.41868e-20)
(0.514615 0.00146684 -1.44036e-20)
(0.505779 0.0189925 4.24876e-20)
(0.485336 0.0258524 -4.95293e-20)
(0.459582 0.0291718 6.93744e-21)
(0.429928 0.0384413 -6.87606e-21)
(0.390825 0.0508426 0)
(0.336011 0.0605652 6.61591e-21)
(0.266504 0.0637259 -1.25167e-20)
(0.186875 0.0588084 2.15356e-20)
(0.103491 0.0482891 -6.0529e-21)
(0.0282325 0.03692 -5.88269e-21)
(-0.0295267 0.0273311 1.11403e-20)
(-0.0712706 0.018134 -8.12097e-21)
(-0.0995443 0.00792475 -4.61597e-21)
(-0.110459 -0.00336779 4.46116e-21)
(-0.105624 -0.0153293 -1.98282e-21)
(-0.0865798 -0.0290475 1.23594e-21)
(-0.0559312 -0.0461998 -1.80217e-21)
(-0.0214634 -0.0668921 -3.97538e-22)
(0.0256764 -0.0874751 0)
(-0.0955379 -0.312595 0)
(-0.00909709 -0.457407 -7.67619e-20)
(0.0667382 -0.459114 -3.19366e-20)
(0.130893 -0.398815 2.32114e-19)
(0.179917 -0.319989 -1.35458e-19)
(0.216646 -0.240913 -1.10418e-20)
(0.234685 -0.168538 -1.29214e-20)
(0.244249 -0.103407 0)
(0.240159 -0.0694563 1.45324e-20)
(0.226681 -0.0471475 1.05679e-19)
(0.202139 -0.00723845 -4.52972e-20)
(0.14131 0.0322445 -4.53598e-20)
(0.0628964 0.054887 1.47429e-20)
(-0.0250202 0.0659512 7.28405e-21)
(-0.108417 0.0826919 7.24164e-21)
(-0.156846 0.104212 0)
(-0.215414 0.119005 -6.95113e-21)
(-0.276214 0.122703 0)
(-0.33407 0.115193 -1.92586e-20)
(-0.386435 0.0979795 1.86867e-20)
(-0.427992 0.0747094 -1.23603e-20)
(-0.456145 0.04936 -9.31542e-24)
(-0.470359 0.0253384 -2.91103e-21)
(-0.474262 0.00292492 5.21963e-21)
(-0.468959 -0.0177218 -4.99376e-22)
(-0.457013 -0.0363796 -1.84552e-21)
(-0.440717 -0.0530779 3.92645e-22)
(-0.423866 -0.0688706 1.28253e-21)
(-0.409884 -0.0848282 -1.34599e-21)
(-0.400666 -0.0984657 0)
(-0.170702 -0.420657 0)
(-0.0955901 -0.531445 -8.60311e-20)
(-0.0508722 -0.497512 8.03231e-20)
(-0.0258837 -0.414081 9.72598e-22)
(-0.0194987 -0.323742 1.02115e-20)
(-0.0231508 -0.236368 -2.01348e-19)
(-0.0527005 -0.165632 2.36058e-19)
(-0.078827 -0.101685 -1.49576e-20)
(-0.10383 -0.0369848 -1.54268e-20)
(-0.291532 0.024572 1.57654e-20)
(-0.350494 0.0709242 -1.57958e-20)
(-0.390947 0.102567 -6.14897e-20)
(-0.449457 0.116652 1.05004e-19)
(-0.510967 0.120005 -2.94012e-20)
(-0.567064 0.125091 -5.71776e-20)
(-0.609794 0.13672 -4.18102e-20)
(-0.649698 0.146103 5.43088e-20)
(-0.684725 0.145938 -2.65536e-20)
(-0.714723 0.134159 1.18277e-22)
(-0.739876 0.112445 6.14931e-21)
(-0.7599 0.0849544 1.22448e-20)
(-0.774565 0.0560911 -6.14746e-21)
(-0.783812 0.0288365 0)
(-0.787095 0.0036105 -1.05903e-20)
(-0.7856 -0.019593 -4.22961e-22)
(-0.781094 -0.0399505 -3.85983e-21)
(-0.775885 -0.0572256 -3.41601e-21)
(-0.772122 -0.0726281 2.48112e-21)
(-0.770879 -0.0882098 1.30582e-21)
(-0.771628 -0.102752 0)
(-0.249209 -0.497161 3.07373e-20)
(-0.200941 -0.568607 -6.0664e-23)
(-0.194272 -0.495605 1.05247e-22)
(-0.222042 -0.383715 2.24862e-21)
(-0.270014 -0.279051 -5.48111e-21)
(-0.338022 -0.166331 1.29394e-20)
(-0.449956 -0.0798671 2.21392e-19)
(-0.568642 -0.000844886 -2.33711e-19)
(-0.648348 0.0601625 0)
(-0.699303 0.0840072 -1.5314e-20)
(-0.74954 0.099863 -1.05371e-19)
(-0.790645 0.122992 5.99595e-20)
(-0.832404 0.139448 4.34323e-20)
(-0.874677 0.146503 1.40138e-20)
(-0.914716 0.151721 0)
(-0.948806 0.158873 1.35595e-20)
(-0.977019 0.163188 0)
(-0.999919 0.158976 -6.66664e-21)
(-1.01917 0.144429 -6.34936e-21)
(-1.03619 0.120976 6.24268e-21)
(-1.0514 0.0920129 4.56003e-22)
(-1.06403 0.0611081 1.17469e-20)
(-1.07273 0.0308244 -1.84413e-20)
(-1.07685 0.00267489 5.37894e-21)
(-1.07747 -0.0221386 9.57509e-21)
(-1.07653 -0.0426872 -5.68922e-23)
(-1.07635 -0.0590763 4.86273e-21)
(-1.07842 -0.0733465 -2.89313e-21)
(-1.08235 -0.0884303 -2.44188e-21)
(-1.08568 -0.102868 -2.82445e-22)
(-0.324835 -0.534796 -3.23359e-20)
(-0.319973 -0.549835 3.86822e-23)
(-0.36204 -0.428648 -1.06544e-22)
(-0.459989 -0.280032 -2.28204e-21)
(-0.579576 -0.159557 -1.81174e-19)
(-0.702274 -0.0637483 1.7891e-19)
(-0.816558 0.00663338 0)
(-0.89437 0.05164 2.9232e-20)
(-0.953706 0.0857511 -1.19136e-19)
(-1.00745 0.112071 1.17122e-19)
(-1.05386 0.131876 -1.15415e-19)
(-1.09209 0.149221 1.13386e-19)
(-1.12619 0.161383 1.38403e-20)
(-1.15898 0.167947 -5.39411e-20)
(-1.19039 0.172559 5.3057e-20)
(-1.21851 0.176625 -2.66675e-20)
(-1.24241 0.177047 5.29033e-20)
(-1.26267 0.169949 -1.97578e-20)
(-1.28058 0.153783 -6.84e-21)
(-1.29697 0.129437 0)
(-1.31166 0.0994189 -6.44885e-21)
(-1.32364 0.0666965 6.35785e-21)
(-1.33169 0.033959 -6.44962e-21)
(-1.33566 0.00350897 1.24968e-20)
(-1.33678 -0.0226318 -5.18832e-21)
(-1.33725 -0.0431664 4.95092e-21)
(-1.33943 -0.0585463 -4.30189e-21)
(-1.34455 -0.0716551 3.0607e-21)
(-1.35121 -0.0860094 4.97162e-23)
(-1.35558 -0.099755 -3.26615e-22)
(-0.391125 -0.523306 5.00883e-20)
(-0.44349 -0.456978 -4.48903e-20)
(-0.54888 -0.29346 0)
(-0.69489 -0.150732 1.60512e-19)
(-0.838042 -0.042782 -1.71294e-19)
(-0.965579 0.0348304 -1.99425e-19)
(-1.05891 0.0796349 2.22574e-19)
(-1.13682 0.109704 1.00891e-19)
(-1.20062 0.131655 -2.28303e-19)
(-1.25357 0.14813 1.1311e-19)
(-1.29723 0.161641 -1.37031e-20)
(-1.33276 0.173127 0)
(-1.36319 0.181394 0)
(-1.39142 0.186586 1.27653e-20)
(-1.41848 0.190264 0)
(-1.44382 0.19237 -2.63718e-20)
(-1.46692 0.190366 -8.68435e-22)
(-1.48789 0.181291 2.64625e-20)
(-1.5071 0.163695 -2.13536e-20)
(-1.52451 0.138066 2.77661e-20)
(-1.53956 0.106397 7.53374e-21)
(-1.55131 0.0714623 -7.59273e-21)
(-1.55895 0.0362938 -2.12807e-20)
(-1.5627 0.00393164 6.56325e-21)
(-1.56387 -0.0229968 0)
(-1.56482 -0.0430433 0)
(-1.56805 -0.0570688 1.89086e-21)
(-1.57477 -0.0687405 -4.87688e-21)
(-1.58299 -0.0820247 1.8611e-21)
(-1.58783 -0.0948815 1.63761e-21)
(-0.446238 -0.452488 1.17059e-23)
(-0.556057 -0.310394 0)
(-0.711033 -0.136263 1.20026e-19)
(-0.890284 0.00705049 -1.13101e-19)
(-1.04133 0.0883432 1.14063e-20)
(-1.1609 0.129384 -1.25831e-20)
(-1.26152 0.152998 -1.35523e-20)
(-1.34295 0.167163 0)
(-1.40749 0.176348 0)
(-1.45848 0.183102 1.09383e-19)
(-1.49919 0.189248 -9.37668e-20)
(-1.53204 0.195059 5.14678e-20)
(-1.55984 0.199848 -8.86329e-20)
(-1.58521 0.203595 -2.54501e-20)
(-1.6097 0.206564 3.70276e-20)
(-1.63374 0.207697 0)
(-1.6572 0.204406 0)
(-1.6798 0.193977 -1.40868e-20)
(-1.70108 0.174969 -1.49333e-20)
(-1.72031 0.147691 0)
(-1.73661 0.11395 7.71551e-22)
(-1.74903 0.0765345 7.47305e-21)
(-1.75688 0.0388315 7.35862e-21)
(-1.76053 0.0044793 -1.44815e-22)
(-1.76128 -0.0232977 -1.81194e-22)
(-1.76171 -0.0428108 5.38876e-21)
(-1.76476 -0.0552789 -1.04578e-20)
(-1.77201 -0.0651414 -3.82919e-21)
(-1.78099 -0.0769676 0)
(-1.78598 -0.0888637 2.20592e-22)
(-0.485875 -0.332603 6.41751e-21)
(-0.651572 -0.131591 -8.14646e-20)
(-0.861442 0.0792729 8.2393e-20)
(-1.04745 0.170856 1.60017e-19)
(-1.20736 0.211354 -1.65593e-19)
(-1.33893 0.226555 -1.35436e-20)
(-1.44357 0.228328 0)
(-1.52437 0.224204 -1.41723e-20)
(-1.58583 0.219112 -1.09568e-19)
(-1.63273 0.215673 1.99892e-19)
(-1.66934 0.214586 -1.03617e-19)
(-1.69867 0.215222 0)
(-1.72332 0.216854 -6.01258e-20)
(-1.74574 0.219282 5.90924e-20)
(-1.76795 0.222006 1.21602e-20)
(-1.79112 0.223137 0)
(-1.81544 0.219596 0)
(-1.84026 0.208428 1.39032e-20)
(-1.86433 0.188071 1.47341e-20)
(-1.88626 0.158828 0)
(-1.90476 0.122566 -1.7044e-20)
(-1.91874 0.0822484 -9.25031e-21)
(-1.92744 0.041632 0)
(-1.93103 0.00491133 8.01412e-21)
(-1.93082 -0.0240485 7.36283e-21)
(-1.92971 -0.0431616 -7.03588e-21)
(-1.93142 -0.053846 1.08061e-20)
(-1.93821 -0.0613388 3.78553e-21)
(-1.94734 -0.0711403 0)
(-1.95223 -0.0818911 -1.86688e-21)
(-0.51841 -0.162593 5.92874e-20)
(-0.731933 0.166948 -6.33577e-20)
(-0.974423 0.296476 1.46746e-19)
(-1.19541 0.342381 -1.44853e-19)
(-1.37356 0.34356 -2.61118e-20)
(-1.51028 0.325846 -1.01135e-19)
(-1.61266 0.301749 1.12592e-19)
(-1.68761 0.277437 1.4068e-20)
(-1.74167 0.25748 -1.38376e-20)
(-1.78133 0.244162 1.31323e-20)
(-1.81182 0.236654 -1.20194e-20)
(-1.8362 0.232912 0)
(-1.85652 0.231844 -4.49807e-20)
(-1.87507 0.233356 4.41344e-20)
(-1.89454 0.23665 4.75543e-20)
(-1.91691 0.239013 -4.67045e-20)
(-1.94262 0.236425 2.81711e-20)
(-1.97048 0.225245 3.27788e-21)
(-1.99832 0.203671 -1.38467e-20)
(-2.02395 0.172165 0)
(-2.04563 0.13291 3.78761e-20)
(-2.06204 0.0891533 -9.81218e-21)
(-2.07217 0.0449824 0)
(-2.07581 0.00514343 0)
(-2.07411 -0.025711 1.10868e-21)
(-2.07035 -0.0448068 -9.27058e-22)
(-2.0694 -0.0534915 7.12222e-21)
(-2.07466 -0.0578397 7.68443e-21)
(-2.08335 -0.0647655 1.81359e-21)
(-2.0879 -0.0739742 -2.34513e-21)
(-0.471374 0.209485 2.65761e-22)
(-0.771783 0.480519 0)
(-1.10243 0.55563 -1.90292e-19)
(-1.36486 0.532764 -4.09296e-20)
(-1.55144 0.477039 2.40146e-19)
(-1.68161 0.420067 0)
(-1.77324 0.368395 0)
(-1.83609 0.322787 0)
(-1.87749 0.28775 1.37376e-20)
(-1.90591 0.265843 0)
(-1.92791 0.253669 5.74477e-20)
(-1.94588 0.24672 -4.4621e-20)
(-1.96052 0.243475 -4.1312e-20)
(-1.97389 0.244705 3.09419e-20)
(-1.98973 0.249905 -2.25459e-20)
(-2.01124 0.255333 2.21276e-20)
(-2.03909 0.255376 0)
(-2.07123 0.245179 0)
(-2.10418 0.222568 -3.45201e-20)
(-2.13468 0.188432 1.00722e-20)
(-2.16057 0.145637 1.19061e-21)
(-2.18036 0.0978113 0)
(-2.19271 0.0492136 2.16601e-20)
(-2.19667 0.00511285 -1.1288e-20)
(-2.19291 -0.0287944 -1.9088e-20)
(-2.18516 -0.0485675 -1.7448e-20)
(-2.17986 -0.0550691 -8.16221e-21)
(-2.18221 -0.0552209 -6.53514e-21)
(-2.18971 -0.0580011 0)
(-2.19362 -0.0649894 2.35142e-21)
(-0.414469 0.616071 8.28605e-20)
(-0.849114 0.903117 0)
(-1.29707 0.869007 0)
(-1.58445 0.735842 2.25722e-20)
(-1.75255 0.601061 0)
(-1.85611 0.500644 0)
(-1.92705 0.422144 -1.85771e-20)
(-1.97166 0.353812 0)
(-1.99392 0.303905 5.32788e-20)
(-2.00592 0.277304 -6.44396e-20)
(-2.01712 0.264718 -1.05481e-20)
(-2.02785 0.25671 -4.77263e-20)
(-2.03559 0.251704 3.76975e-20)
(-2.04189 0.253223 9.55301e-21)
(-2.05259 0.262186 -8.8536e-21)
(-2.07303 0.273234 2.44245e-20)
(-2.10412 0.27805 -3.70344e-20)
(-2.14234 0.269872 0)
(-2.18215 0.246075 3.76046e-20)
(-2.21889 0.208502 -1.85281e-20)
(-2.25011 0.161387 -2.31982e-20)
(-2.27447 0.108842 2.4798e-20)
(-2.29017 0.0548079 -2.46487e-20)
(-2.29509 0.00485287 0)
(-2.28894 -0.0339013 -1.17101e-20)
(-2.27574 -0.0555616 4.17175e-20)
(-2.26398 -0.0598632 -7.45202e-21)
(-2.26155 -0.054476 -7.22569e-21)
(-2.26684 -0.0512201 -1.1126e-21)
(-2.26971 -0.0548382 0)
(-0.43067 1.38847 -3.22769e-19)
(-0.997415 1.80123 0)
(-1.61434 1.37216 1.88674e-19)
(-1.88858 0.962792 -3.74703e-20)
(-1.98982 0.658302 -1.97435e-19)
(-2.03431 0.520449 0)
(-2.07459 0.442722 1.83418e-20)
(-2.09552 0.364531 7.15891e-20)
(-2.08854 0.305782 -5.50019e-20)
(-2.07651 0.28002 1.2069e-20)
(-2.07604 0.271413 4.37155e-20)
(-2.08108 0.262079 5.14513e-21)
(-2.0816 0.252725 -2.91352e-20)
(-2.07816 0.253781 -1.56276e-20)
(-2.08125 0.269186 4.25053e-20)
(-2.10036 0.290138 -2.2609e-20)
(-2.13653 0.303352 4.25098e-20)
(-2.18356 0.299165 7.49251e-21)
(-2.23266 0.274439 -2.46592e-20)
(-2.27713 0.232745 -5.70021e-20)
(-2.31467 0.180785 3.6611e-20)
(-2.345 0.123247 -1.49002e-20)
(-2.36593 0.0627414 0)
(-2.37328 0.00473572 -1.48548e-20)
(-2.36485 -0.0415482 3.83135e-20)
(-2.34467 -0.0670123 2.6045e-21)
(-2.32388 -0.0693885 0)
(-2.3142 -0.0568303 2.41552e-20)
(-2.31592 -0.0447031 0)
(-2.31718 -0.0428034 0)
(10.0023 0.124393 0)
(9.98449 0.245554 -8.05089e-19)
(9.95764 0.36549 4.10307e-19)
(9.92464 0.486594 -1.24884e-18)
(9.8849 0.61074 4.29356e-21)
(9.83785 0.739575 -8.54605e-19)
(9.78408 0.874628 8.72223e-19)
(9.72466 1.01729 -1.76473e-18)
(9.65983 1.16899 8.91724e-19)
(9.58984 1.33119 0)
(9.51514 1.50535 -9.14505e-19)
(9.43631 1.69297 4.65812e-18)
(9.35418 1.89567 -3.74698e-18)
(9.26912 2.11518 5.69039e-18)
(9.18202 2.35351 -3.80988e-18)
(9.0939 2.61286 0)
(9.00564 2.89571 0)
(8.91859 3.20501 0)
(8.83414 3.54435 -9.67214e-19)
(8.75431 3.91824 -9.60538e-19)
(8.68148 4.3321 0)
(8.61868 4.79278 -7.3054e-18)
(8.57029 5.30922 1.42739e-17)
(8.54232 5.8934 -1.28432e-17)
(8.54416 6.5608 6.60987e-18)
(8.58404 7.33389 0)
(8.71003 8.23829 0)
(8.85399 9.35271 7.76917e-20)
(9.80407 10.6003 2.21409e-18)
(10.5919 13.6719 -5.23699e-18)
(10.0029 0.129078 0)
(9.98663 0.25466 1.56649e-18)
(9.96237 0.37903 0)
(9.93307 0.50462 0)
(9.89805 0.633293 8.20468e-19)
(9.8567 0.766629 4.81616e-21)
(9.80986 0.906124 -1.68629e-18)
(9.75838 1.05325 2.55802e-18)
(9.70249 1.20952 -8.66979e-19)
(9.64266 1.37637 0)
(9.57937 1.55521 8.87844e-19)
(9.51352 1.74749 -4.46575e-18)
(9.44588 1.95478 3.59549e-18)
(9.37701 2.17883 -9.11991e-19)
(9.30815 2.42158 -3.64771e-18)
(9.24026 2.68509 8.21441e-18)
(9.1749 2.97185 -1.09596e-17)
(9.11371 3.28466 7.28873e-18)
(9.05829 3.62681 -8.9524e-19)
(9.01163 4.00261 0)
(8.97714 4.41702 0)
(8.95902 4.87609 4.21921e-19)
(8.96358 5.38762 0)
(8.99949 5.96134 0)
(9.0802 6.60885 5.78734e-18)
(9.222 7.34464 -5.59968e-18)
(9.48074 8.181 0)
(9.80839 9.14249 2.37813e-18)
(10.5992 10.154 -2.5825e-18)
(11.4708 11.4731 9.33567e-19)
(10.0036 0.133307 -1.4989e-18)
(9.98879 0.26291 -7.61994e-19)
(9.96718 0.391294 0)
(9.94175 0.520898 -7.79978e-19)
(9.91167 0.653562 7.90627e-19)
(9.87647 0.790818 8.06016e-19)
(9.83685 0.93416 1.6309e-18)
(9.79346 1.08512 -2.47558e-18)
(9.74675 1.24522 8.24764e-19)
(9.69732 1.41587 1.6826e-18)
(9.64581 1.59841 0)
(9.59323 1.7942 8.76734e-21)
(9.54026 2.00474 0)
(9.48792 2.23178 4.33624e-18)
(9.43759 2.47715 -3.47952e-18)
(9.39023 2.7427 -4.35782e-18)
(9.34783 3.03072 3.47509e-18)
(9.31237 3.34383 0)
(9.28601 3.68494 1.28552e-18)