/*--------------------------------*- C++ -*----------------------------------*\
| =========                 |                                                 |
| \\      /  F ield         | OpenFOAM: The Open Source CFD Toolbox           |
|  \\    /   O peration     | Version:  5.x                                   |
|   \\  /    A nd           | Web:      www.OpenFOAM.org                      |
|    \\/     M anipulation  |                                                 |
\*---------------------------------------------------------------------------*/
FoamFile
{
    version     2.0;
    format      ascii;
    class       volVectorField;
    location    "3.9";
    object      cellDisplacement;
}
// * * * * * * * * * * * * * * * * * * * * * * * * * * * * * * * * * * * * * //

dimensions      [0 1 0 0 0 0 0];

internalField   nonuniform List<vector> 
2790
(
(0.00465612 4.67497e-06 0)
(0.0133576 1.35879e-05 0)
(0.0209166 2.18136e-05 0)
(0.0274194 2.96428e-05 0)
(0.0329545 3.73201e-05 0)
(0.0376025 4.5055e-05 0)
(0.0414361 5.30359e-05 0)
(0.04452 6.14415e-05 0)
(0.0469119 7.04479e-05 0)
(0.0486623 8.02326e-05 0)
(0.049816 9.09756e-05 0)
(0.050412 0.000102866 0)
(0.050485 0.00011611 0)
(0.0500656 0.000130971 0)
(0.0491806 0.000147664 0)
(0.0478543 0.00016654 0)
(0.0461096 0.000188001 0)
(0.0439692 0.000212533 0)
(0.0414565 0.000240721 0)
(0.0385943 0.000272918 0)
(0.0354094 0.000310003 0)
(0.0319343 0.000353006 0)
(0.028209 0.000403255 0)
(0.024285 0.000462637 0)
(0.0202333 0.000534271 0)
(0.0161456 0.000621822 0)
(0.0121473 0.000730421 0)
(0.0084195 0.000866114 0)
(0.00525691 0.00103162 0)
(0.0033069 0.00120451 0)
(0.00466119 1.40056e-05 0)
(0.0133728 4.07078e-05 0)
(0.020942 6.53507e-05 0)
(0.0274555 8.88029e-05 0)
(0.0330023 0.000111796 0)
(0.0376634 0.000134955 0)
(0.0415117 0.000158843 0)
(0.0446125 0.000183994 0)
(0.0470238 0.000210932 0)
(0.0487967 0.00024019 0)
(0.0499762 0.000272302 0)
(0.0506021 0.000307826 0)
(0.0507097 0.000347366 0)
(0.0503306 0.000391743 0)
(0.049492 0.000441516 0)
(0.0482193 0.000497754 0)
(0.0465364 0.000561624 0)
(0.0444668 0.000634546 0)
(0.0420378 0.000718459 0)
(0.0392721 0.000813901 0)
(0.0361986 0.000923627 0)
(0.032853 0.00105047 0)
(0.0292789 0.00119793 0)
(0.0255292 0.00137051 0)
(0.0216866 0.00157703 0)
(0.0178552 0.0018255 0)
(0.014182 0.00212669 0)
(0.0108836 0.00248996 0)
(0.00828844 0.00290849 0)
(0.00698833 0.00330684 0)
(0.00467086 2.32725e-05 0)
(0.0134018 6.76424e-05 0)
(0.0209908 0.000108587 0)
(0.0275253 0.000147543 0)
(0.033095 0.000185721 0)
(0.0377817 0.000224153 0)
(0.0416591 0.000263769 0)
(0.0447933 0.000305447 0)
(0.0472431 0.000350055 0)
(0.0490606 0.000398469 0)
(0.0502917 0.00045157 0)
(0.0509772 0.000510265 0)
(0.0511533 0.000575457 0)
(0.0508545 0.00064872 0)
(0.0501082 0.000730583 0)
(0.0489422 0.000822948 0)
(0.0473821 0.000927611 0)
(0.0454519 0.00104664 0)
(0.0431833 0.0011821 0)
(0.0406069 0.00133668 0)
(0.0377513 0.00151392 0)
(0.034659 0.0017177 0)
(0.0313827 0.00195281 0)
(0.0279791 0.00222596 0)
(0.0245339 0.00254464 0)
(0.0211743 0.00291674 0)
(0.0180676 0.00335026 0)
(0.0154671 0.0038453 0)
(0.0136882 0.00436898 0)
(0.0131777 0.00480855 0)
(0.00468532 3.24232e-05 0)
(0.0134452 9.42385e-05 0)
(0.0210635 0.000151272 0)
(0.0276291 0.000205514 0)
(0.0332328 0.000258636 0)
(0.0379575 0.000312065 0)
(0.0418781 0.000367081 0)
(0.0450618 0.000424891 0)
(0.0475687 0.000486692 0)
(0.0494523 0.000553696 0)
(0.0507598 0.000627105 0)
(0.0515334 0.000708172 0)
(0.0518102 0.00079777 0)
(0.0516265 0.000897629 0)
(0.0510153 0.00100951 0)
(0.0500055 0.00113558 0)
(0.0486256 0.00127798 0)
(0.0469041 0.00143906 0)
(0.0448714 0.00162108 0)
(0.0425663 0.00182856 0)
(0.0400244 0.00206491 0)
(0.0372929 0.00233435 0)
(0.034431 0.00264187 0)
(0.0315131 0.00299334 0)
(0.0286272 0.00339176 0)
(0.0259055 0.00384112 0)
(0.0235164 0.00434031 0)
(0.0217249 0.00487308 0)
(0.0207928 0.00538401 0)
(0.0209872 0.00575723 0)
(0.00470446 4.14021e-05 0)
(0.0135025 0.000120332 0)
(0.0211595 0.000193138 0)
(0.027766 0.000262337 0)
(0.0334144 0.000330045 0)
(0.0381889 0.000398062 0)
(0.042166 0.000467994 0)
(0.0454145 0.000541353 0)
(0.0479961 0.000619641 0)
(0.0499662 0.000704398 0)
(0.0513735 0.000797103 0)
(0.0522589 0.00089851 0)
(0.0526661 0.00101051 0)
(0.0526325 0.00113479 0)
(0.0521959 0.00127415 0)
(0.0513879 0.00143065 0)
(0.0502407 0.00160672 0)
(0.048787 0.00180504 0)
(0.0470624 0.00202854 0)
(0.0451069 0.00228098 0)
(0.0429641 0.00256583 0)
(0.0406867 0.0028867 0)
(0.0383395 0.00324706 0)
(0.0360026 0.00364947 0)
(0.033776 0.00409385 0)
(0.0317889 0.00457645 0)
(0.0301909 0.00508585 0)
(0.029209 0.00559056 0)
(0.0290272 0.00602728 0)
(0.0297445 0.00630176 0)
(0.00472814 5.01517e-05 0)
(0.0135732 0.000145754 0)
(0.0212778 0.000233905 0)
(0.0279344 0.000317622 0)
(0.0336374 0.000399438 0)
(0.0384729 0.000481496 0)
(0.042519 0.000565702 0)
(0.0458463 0.000653836 0)
(0.048519 0.000747668 0)
(0.0505943 0.000849072 0)
(0.0521185 0.000959014 0)
(0.0531391 0.0010789 0)
(0.0537054 0.00121143 0)
(0.0538565 0.00135838 0)
(0.0536315 0.00152225 0)
(0.0530668 0.00170543 0)
(0.0521991 0.00191052 0)
(0.0510659 0.00214028 0)
(0.0497072 0.00239764 0)
(0.0481671 0.00268568 0)
(0.0464945 0.00300716 0)
(0.0447464 0.00336425 0)
(0.0429908 0.00375801 0)
(0.0413094 0.00418726 0)
(0.0398001 0.00464703 0)
(0.0385792 0.00512647 0)
(0.0377677 0.00560686 0)
(0.0375261 0.00604995 0)
(0.0379527 0.00639879 0)
(0.0390263 0.00658986 0)
(0.00475608 5.86154e-05 0)
(0.0136565 0.000170339 0)
(0.0214169 0.000273301 0)
(0.0281322 0.000370988 0)
(0.0338991 0.000466315 0)
(0.0388057 0.000561741 0)
(0.042932 0.000659431 0)
(0.0463508 0.000761388 0)
(0.0491289 0.000869579 0)
(0.0513216 0.000985671 0)
(0.0529816 0.00111127 0)
(0.0541628 0.0012484 0)
(0.0549131 0.00139923 0)
(0.055276 0.00156584 0)
(0.0552935 0.00175066 0)
(0.055007 0.00195618 0)
(0.0544576 0.00218495 0)
(0.0536877 0.00243957 0)
(0.052742 0.00272257 0)
(0.0516686 0.00303622 0)
(0.0505202 0.00338207 0)
(0.0493562 0.00376044 0)
(0.0482439 0.00416962 0)
(0.0472601 0.00460465 0)
(0.046491 0.00505578 0)
(0.046029 0.00550685 0)
(0.0459579 0.00593546 0)
(0.0463627 0.00630494 0)
(0.0472668 0.00657317 0)
(0.0485832 0.00670546 0)
(0.00478796 6.67396e-05 0)
(0.0137515 0.000193927 0)
(0.0215751 0.000311068 0)
(0.0283568 0.000422073 0)
(0.0341958 0.000530208 0)
(0.0391825 0.000638209 0)
(0.043399 0.000748465 0)
(0.0469202 0.000863147 0)
(0.0498137 0.000984278 0)
(0.0521392 0.0011136 0)
(0.053953 0.00125325 0)
(0.0553121 0.0014054 0)
(0.0562665 0.0015719 0)
(0.0568633 0.0017549 0)
(0.0571479 0.00195674 0)
(0.0571665 0.00217981 0)
(0.0569649 0.00242648 0)
(0.0565903 0.00269896 0)
(0.0560916 0.00299916 0)
(0.0555203 0.00332836 0)
(0.0549318 0.00368675 0)
(0.054385 0.00407273 0)
(0.0539432 0.00448197 0)
(0.0536724 0.00490623 0)
(0.0536389 0.00533205 0)
(0.0539034 0.00573983 0)
(0.054509 0.00610564 0)
(0.0554625 0.00639711 0)
(0.0567298 0.00658639 0)
(0.0581943 0.00666203 0)
(0.00482334 7.44736e-05 0)
(0.0138567 0.00021637 0)
(0.0217502 0.00034696 0)
(0.0286051 0.000470539 0)
(0.0345233 0.00059068 0)
(0.0395979 0.000710362 0)
(0.0439132 0.000832159 0)
(0.047546 0.000958376 0)
(0.0505662 0.00109113 0)
(0.0530371 0.00123235 0)
(0.0550174 0.00138402 0)
(0.0565663 0.00154851 0)
(0.0577401 0.00172783 0)
(0.0585873 0.00192376 0)
(0.0591563 0.00213842 0)
(0.0594983 0.00237404 0)
(0.0596638 0.00263264 0)
(0.059704 0.00291589 0)
(0.0596717 0.00322496 0)
(0.0596214 0.00356012 0)
(0.059609 0.00392023 0)
(0.0596915 0.00430203 0)
(0.059925 0.00469919 0)
(0.0603607 0.00510124 0)
(0.0610398 0.0054925 0)
(0.0619855 0.00585175 0)
(0.0631947 0.00615415 0)
(0.0645985 0.00637047 0)
(0.0661129 0.00648134 0)
(0.067604 0.00649445 0)
(0.00486174 8.17706e-05 0)
(0.0139708 0.00023753 0)
(0.0219397 0.000380756 0)
(0.0288734 0.000516077 0)
(0.0348769 0.000647338 0)
(0.0400457 0.000777719 0)
(0.0444666 0.000909943 0)
(0.0482186 0.00104641 0)
(0.0513741 0.00118932 0)
(0.0539994 0.00134068 0)
(0.0561566 0.00150251 0)
(0.0579054 0.00167685 0)
(0.0593058 0.00186582 0)
(0.0604141 0.00207111 0)
(0.0612768 0.00229428 0)
(0.0619511 0.00253741 0)
(0.0624917 0.00280202 0)
(0.0629533 0.00308916 0)
(0.0633917 0.00339921 0)
(0.0638631 0.0037315 0)
(0.0644234 0.00408381 0)
(0.0651261 0.00445174 0)
(0.0660184 0.00482791 0)
(0.0671354 0.00520107 0)
(0.0684915 0.00555537 0)
(0.0700701 0.00587024 0)
(0.0718156 0.00612154 0)
(0.0735932 0.00628266 0)
(0.0752674 0.00633865 0)
(0.0767046 0.00631078 0)
(0.00490259 8.85897e-05 0)
(0.0140921 0.000257289 0)
(0.0221409 0.000412261 0)
(0.0291579 0.000558424 0)
(0.0352513 0.000699848 0)
(0.0405193 0.000839877 0)
(0.0450509 0.000981343 0)
(0.0489276 0.00112672 0)
(0.052224 0.00127822 0)
(0.0550095 0.00143789 0)
(0.0573492 0.00160768 0)
(0.0593052 0.00178951 0)
(0.0609377 0.00198518 0)
(0.0623084 0.00219622 0)
(0.063465 0.00242358 0)
(0.064471 0.00266931 0)
(0.0653834 0.00293428 0)
(0.0662596 0.00321887 0)
(0.0671571 0.00352268 0)
(0.0681331 0.00384425 0)
(0.0692424 0.00418062 0)
(0.0705345 0.00452687 0)
(0.0720483 0.00487564 0)
(0.0738039 0.00521662 0)
(0.0757923 0.0055362 0)
(0.0779622 0.00581756 0)
(0.080208 0.00604103 0)
(0.0823423 0.00618428 0)
(0.0841732 0.0062338 0)
(0.0855737 0.00620954 0)
(0.00494528 9.48969e-05 0)
(0.0142187 0.000275547 0)
(0.0223508 0.000441318 0)
(0.0294545 0.000597367 0)
(0.0356411 0.000747946 0)
(0.0410115 0.000896526 0)
(0.0456572 0.00104601 0)
(0.0496619 0.0011989 0)
(0.0531026 0.0013574 0)
(0.0560509 0.00152351 0)
(0.0585745 0.00169908 0)
(0.0607383 0.00188586 0)
(0.0626053 0.00208547 0)
(0.0642318 0.00229857 0)
(0.0656764 0.00252623 0)
(0.0670044 0.00277001 0)
(0.0682745 0.00303016 0)
(0.0695453 0.00330639 0)
(0.0708753 0.0035976 0)
(0.0723213 0.00390167 0)
(0.0739366 0.00421523 0)
(0.0757665 0.00453338 0)
(0.0778433 0.00484967 0)
(0.0801768 0.00515613 0)
(0.0827431 0.00544361 0)
(0.0854705 0.00570231 0)
(0.0882216 0.0059217 0)
(0.0907728 0.00608743 0)
(0.0928701 0.00618469 0)
(0.094349 0.00621022 0)
(0.00498919 0.000100666 0)
(0.0143488 0.000292228 0)
(0.0225664 0.000467807 0)
(0.0297588 0.000632747 0)
(0.0360406 0.000791443 0)
(0.0415154 0.00094745 0)
(0.0462768 0.00110371 0)
(0.0504107 0.00126272 0)
(0.0539962 0.00142663 0)
(0.0571069 0.00159734 0)
(0.0598127 0.00177656 0)
(0.0621803 0.00196581 0)
(0.0642742 0.0021664 0)
(0.0661483 0.00237846 0)
(0.0678682 0.00260285 0)
(0.0695007 0.00284062 0)
(0.0711046 0.0030914 0)
(0.0727388 0.00335426 0)
(0.0744613 0.00362748 0)
(0.0763275 0.00390841 0)
(0.0783879 0.00419343 0)
(0.0806842 0.00447795 0)
(0.0832442 0.00475677 0)
(0.086073 0.00502474 0)
(0.0891434 0.00527803 0)
(0.0923827 0.00551561 0)
(0.0956546 0.00573998 0)
(0.0987305 0.0059504 0)
(0.1013 0.00613315 0)
(0.103071 0.00624304 0)
(0.00503367 0.000105877 0)
(0.0144806 0.000307276 0)
(0.0227846 0.00049164 0)
(0.0300665 0.000664454 0)
(0.0364443 0.000830212 0)
(0.0420237 0.000992517 0)
(0.0469009 0.00115432 0)
(0.0511633 0.00131806 0)
(0.0548918 0.00148583 0)
(0.0581619 0.00165938 0)
(0.0610446 0.00184023 0)
(0.0636085 0.00202966 0)
(0.0659189 0.00222858 0)
(0.0680247 0.00243669 0)
(0.0700017 0.0026547 0)
(0.0719142 0.00288297 0)
(0.0738201 0.00312057 0)
(0.0757771 0.00336597 0)
(0.0778412 0.00361689 0)
(0.0800649 0.00387023 0)
(0.0824947 0.00412214 0)
(0.0851685 0.00436824 0)
(0.08811 0.00460419 0)
(0.0913236 0.00482682 0)
(0.094787 0.00503595 0)
(0.0984426 0.00523725 0)
(0.10219 0.00544579 0)
(0.105842 0.00568125 0)
(0.109086 0.00594891 0)
(0.11145 0.00616443 0)
(0.00507811 0.000110517 0)
(0.0146123 0.000320656 0)
(0.0230024 0.000512766 0)
(0.0303736 0.000692427 0)
(0.0368466 0.000864191 0)
(0.0425298 0.00103168 0)
(0.047521 0.00119781 0)
(0.0519094 0.00136496 0)
(0.0557771 0.0015351 0)
(0.0592008 0.00170983 0)
(0.0622527 0.00189045 0)
(0.0650021 0.00207802 0)
(0.0675087 0.00227273 0)
(0.0698301 0.00247442 0)
(0.0720428 0.00268354 0)
(0.0742056 0.00289949 0)
(0.0763756 0.00312091 0)
(0.0786078 0.00334575 0)
(0.0809548 0.00357124 0)
(0.0834641 0.00379387 0)
(0.0861771 0.00400946 0)
(0.0891254 0.00421352 0)
(0.0923278 0.00440168 0)
(0.0957863 0.00457073 0)
(0.0994823 0.00472006 0)
(0.103373 0.00485418 0)
(0.1074 0.004988 0)
(0.111428 0.00515581 0)
(0.115249 0.00541746 0)
(0.11844 0.00576321 0)
(0.00397653 -0.00126411 0)
(0.00695278 -0.00118378 0)
(0.0116686 -0.0010484 0)
(0.0173386 -0.000913123 0)
(0.0234055 -0.000793417 0)
(0.0294844 -0.000690411 0)
(0.035323 -0.000603672 0)
(0.0407595 -0.000528183 0)
(0.0457087 -0.000462979 0)
(0.0501175 -0.000406632 0)
(0.0539567 -0.000357823 0)
(0.0572112 -0.000315675 0)
(0.0598758 -0.000278746 0)
(0.061952 -0.000246407 0)
(0.0634417 -0.000218029 0)
(0.064345 -0.000193049 0)
(0.0646588 -0.000170954 0)
(0.0643754 -0.000151217 0)
(0.0634832 -0.000133687 0)
(0.0619641 -0.00011792 0)
(0.059795 -0.000103618 0)
(0.0569589 -9.03474e-05 0)
(0.053418 -7.88188e-05 0)
(0.049126 -6.78343e-05 0)
(0.0440529 -5.73943e-05 0)
(0.0381452 -4.71946e-05 0)
(0.0313524 -3.72627e-05 0)
(0.0236288 -2.72392e-05 0)
(0.0149195 -1.68465e-05 0)
(0.00515932 -5.76475e-06 0)
(0.00749459 -0.0035384 0)
(0.0102069 -0.00333645 0)
(0.0145298 -0.00298957 0)
(0.0198124 -0.00262963 0)
(0.0255345 -0.0023037 0)
(0.0313024 -0.00201591 0)
(0.0368603 -0.00176559 0)
(0.0420539 -0.00154899 0)
(0.0468 -0.00136112 0)
(0.0510366 -0.00119798 0)
(0.0547298 -0.00105594 0)
(0.0578591 -0.000932034 0)
(0.0604172 -0.000823763 0)
(0.0624042 -0.000728863 0)
(0.063819 -0.000645481 0)
(0.0646595 -0.000571997 0)
(0.0649209 -0.000506944 0)
(0.0645934 -0.000448623 0)
(0.0636647 -0.000396906 0)
(0.0621152 -0.000350292 0)
(0.0599217 -0.000308051 0)
(0.0570609 -0.000269268 0)
(0.0534987 -0.000234535 0)
(0.0491935 -0.000201877 0)
(0.0441101 -0.000170895 0)
(0.0381914 -0.000140956 0)
(0.0313859 -0.000111342 0)
(0.0236527 -8.14052e-05 0)
(0.0149343 -5.03514e-05 0)
(0.00516438 -1.72313e-05 0)
(0.0134959 -0.00521919 0)
(0.0159596 -0.00498709 0)
(0.0197383 -0.00455171 0)
(0.0244069 -0.00406784 0)
(0.0295253 -0.00360685 0)
(0.0347204 -0.00318698 0)
(0.0397716 -0.0028105 0)
(0.0445332 -0.00247967 0)
(0.0489031 -0.00218931 0)
(0.0528147 -0.00193454 0)
(0.0562276 -0.00171081 0)
(0.059117 -0.00151388 0)
(0.0614722 -0.00134098 0)
(0.0632869 -0.00118882 0)
(0.0645561 -0.00105465 0)
(0.0652741 -0.000936053 0)
(0.0654331 -0.00083093 0)
(0.0650208 -0.00073718 0)
(0.0640202 -0.000653071 0)
(0.0624101 -0.000576824 0)
(0.0601653 -0.000507734 0)
(0.0572596 -0.000444738 0)
(0.0536591 -0.000387123 0)
(0.0493236 -0.000333302 0)
(0.0442113 -0.000282244 0)
(0.0382705 -0.000233038 0)
(0.031449 -0.00018417 0)
(0.0236984 -0.000134686 0)
(0.0149624 -8.33219e-05 0)
(0.0051741 -2.85179e-05 0)
(0.0211663 -0.00632087 0)
(0.0233972 -0.00610953 0)
(0.0266194 -0.00567948 0)
(0.0305935 -0.00516576 0)
(0.0349614 -0.00464385 0)
(0.0394448 -0.00415147 0)
(0.0438522 -0.00369843 0)
(0.0480365 -0.0032893 0)
(0.0518945 -0.00292303 0)
(0.0553567 -0.00259667 0)
(0.0583784 -0.00230663 0)
(0.0609312 -0.0020492 0)
(0.0629978 -0.00182111 0)
(0.0645662 -0.00161901 0)
(0.0656265 -0.00143978 0)
(0.066168 -0.00128059 0)
(0.0661782 -0.00113893 0)
(0.0656421 -0.00101272 0)
(0.0645385 -0.000898868 0)
(0.0628424 -0.00079568 0)
(0.0605215 -0.000701077 0)
(0.057551 -0.000614877 0)
(0.0538962 -0.000535534 0)
(0.0495155 -0.000461342 0)
(0.0443638 -0.00039084 0)
(0.0383901 -0.00032263 0)
(0.0315416 -0.000255053 0)
(0.0237651 -0.00018658 0)
(0.0150036 -0.000115454 0)
(0.00518826 -3.95214e-05 0)
(0.0298317 -0.00698713 0)
(0.0318568 -0.00680938 0)
(0.034572 -0.00642584 0)
(0.0378501 -0.00593873 0)
(0.041447 -0.0054172 0)
(0.0451697 -0.00490375 0)
(0.0488531 -0.00441586 0)
(0.0523677 -0.00396261 0)
(0.0556185 -0.00354751 0)
(0.0585391 -0.00317093 0)
(0.0610838 -0.00283147 0)
(0.0632214 -0.00252683 0)
(0.0649295 -0.00225429 0)
(0.0661907 -0.00201087 0)
(0.066989 -0.00179354 0)
(0.0673081 -0.00159938 0)
(0.0671302 -0.00142564 0)
(0.0664348 -0.0012698 0)
(0.0651978 -0.00112914 0)
(0.063393 -0.00100184 0)
(0.0609789 -0.000884494 0)
(0.0579257 -0.000776844 0)
(0.0542021 -0.000677325 0)
(0.0497634 -0.000584003 0)
(0.0445622 -0.000495099 0)
(0.0385463 -0.000408855 0)
(0.0316613 -0.00032336 0)
(0.0238511 -0.00023664 0)
(0.0150565 -0.000146474 0)
(0.00520646 -5.0149e-05 0)
(0.0390636 -0.00737213 0)
(0.0408976 -0.00721223 0)
(0.0431523 -0.00687882 0)
(0.0457662 -0.00644103 0)
(0.0486364 -0.0059553 0)
(0.0515956 -0.00545708 0)
(0.0545241 -0.00496681 0)
(0.0573203 -0.00449773 0)
(0.0599061 -0.00405777 0)
(0.062224 -0.00365096 0)
(0.0642317 -0.00327866 0)
(0.0658972 -0.00294041 0)
(0.0671949 -0.00263467 0)
(0.0681021 -0.00235919 0)
(0.068597 -0.00211136 0)
(0.0686574 -0.00188847 0)
(0.0682598 -0.00168779 0)
(0.0673779 -0.00150669 0)
(0.0659832 -0.00134255 0)
(0.0640462 -0.00119331 0)
(0.061522 -0.00105602 0)
(0.0583731 -0.000929106 0)
(0.0545685 -0.000811189 0)
(0.0500611 -0.000700206 0)
(0.0448011 -0.00059415 0)
(0.0387347 -0.000490987 0)
(0.0318053 -0.000388542 0)
(0.0239543 -0.000284476 0)
(0.0151199 -0.000176145 0)
(0.00522819 -6.032e-05 0)
(0.048602 -0.00754704 0)
(0.0502248 -0.00739465 0)
(0.0520512 -0.00711089 0)
(0.0540729 -0.00673402 0)
(0.0562467 -0.00630012 0)
(0.0584598 -0.00583788 0)
(0.0606326 -0.0053664 0)
(0.0626935 -0.00490196 0)
(0.0645867 -0.00445609 0)
(0.0662685 -0.00403609 0)
(0.0677036 -0.00364588 0)
(0.0688617 -0.00328692 0)
(0.0697149 -0.00295897 0)
(0.0702363 -0.00266073 0)
(0.0703988 -0.0023902 0)
(0.0701745 -0.00214509 0)
(0.0695337 -0.00192291 0)
(0.0684446 -0.00172113 0)
(0.0668731 -0.00153717 0)
(0.0647868 -0.00136916 0)
(0.0621377 -0.00121436 0)
(0.0588819 -0.00107045 0)
(0.0549863 -0.000936068 0)
(0.0504013 -0.000809055 0)
(0.0450745 -0.000687251 0)
(0.0389503 -0.000568413 0)
(0.03197 -0.000450129 0)
(0.024072 -0.000329751 0)
(0.0151921 -0.000204261 0)
(0.00525293 -6.99639e-05 0)
(0.0582113 -0.00752565 0)
(0.0595902 -0.00740056 0)
(0.0610265 -0.00717886 0)
(0.0625257 -0.00687089 0)
(0.0640417 -0.00649543 0)
(0.0655402 -0.00607681 0)
(0.066973 -0.00563477 0)
(0.0683021 -0.00518765 0)
(0.0694976 -0.00474946 0)
(0.0705329 -0.00432975 0)
(0.0713817 -0.00393434 0)
(0.0720166 -0.00356619 0)
(0.0724086 -0.00322624 0)
(0.0725273 -0.0029141 0)
(0.0723408 -0.0026285 0)
(0.0718157 -0.00236765 0)
(0.0709168 -0.00212948 0)
(0.0696069 -0.00191169 0)
(0.0678442 -0.0017116 0)
(0.0655954 -0.00152801 0)
(0.0628111 -0.00135847 0)
(0.0594402 -0.00119995 0)
(0.0554457 -0.00105113 0)
(0.0507758 -0.000909829 0)
(0.045376 -0.000773795 0)
(0.0391883 -0.000640629 0)
(0.0321516 -0.000507726 0)
(0.0242017 -0.000372176 0)
(0.0152715 -0.000230645 0)
(0.00528009 -7.90201e-05 0)
(0.0676247 -0.00736964 0)
(0.068792 -0.00729794 0)
(0.0699025 -0.00714599 0)
(0.0709286 -0.00690251 0)
(0.0718386 -0.00657996 0)
(0.0726537 -0.00620237 0)
(0.0733667 -0.00579205 0)
(0.0739788 -0.00536862 0)
(0.074488 -0.00494708 0)
(0.0748851 -0.00453787 0)
(0.0751526 -0.00414767 0)
(0.0752663 -0.00378027 0)
(0.0751964 -0.00343744 0)
(0.0749094 -0.00311955 0)
(0.0743691 -0.002826 0)
(0.0735372 -0.00255562 0)
(0.0723737 -0.00230681 0)
(0.0708367 -0.00207771 0)
(0.0688775 -0.00186571 0)
(0.0664556 -0.00166955 0)
(0.0635266 -0.00148766 0)
(0.0600355 -0.00131696 0)
(0.0559365 -0.00115577 0)
(0.0511765 -0.00100199 0)
(0.0456988 -0.000853312 0)
(0.0394431 -0.000707241 0)
(0.0323459 -0.000561016 0)
(0.0243404 -0.000411522 0)
(0.0153562 -0.000255151 0)
(0.00530906 -8.7439e-05 0)
(0.0767298 -0.00720513 0)
(0.0777662 -0.00718006 0)
(0.0786039 -0.00707633 0)
(0.0791777 -0.00687273 0)
(0.0794917 -0.00658383 0)
(0.0796392 -0.00623644 0)
(0.0796498 -0.00585468 0)
(0.0795673 -0.00545736 0)
(0.0794157 -0.00505841 0)
(0.0791997 -0.00466748 0)
(0.0789085 -0.00429094 0)
(0.0785195 -0.0039327 0)
(0.0780018 -0.00359492 0)
(0.0773189 -0.00327852 0)
(0.076431 -0.00298352 0)
(0.0752955 -0.00270932 0)
(0.0738684 -0.0024549 0)
(0.0721016 -0.00221863 0)
(0.0699469 -0.00199883 0)
(0.0673515 -0.00179356 0)
(0.0642727 -0.00160177 0)
(0.0606557 -0.0014211 0)
(0.0564483 -0.0012496 0)
(0.0515947 -0.00108516 0)
(0.0460359 -0.00092547 0)
(0.0397092 -0.000767959 0)
(0.0325488 -0.000609765 0)
(0.024485 -0.000447609 0)
(0.0154445 -0.00027767 0)
(0.0053392 -9.51821e-05 0)
(0.0856257 -0.00712072 0)
(0.0865711 -0.00710762 0)
(0.0871089 -0.00700589 0)
(0.0871821 -0.00680282 0)
(0.0868791 -0.00652119 0)
(0.0863358 -0.00619066 0)
(0.0856588 -0.00583351 0)
(0.0849153 -0.00546384 0)
(0.0841445 -0.00509222 0)
(0.0833582 -0.00472595 0)
(0.0825476 -0.00437007 0)
(0.0816897 -0.00402802 0)
(0.0807518 -0.00370204 0)
(0.0796949 -0.0033934 0)
(0.0784756 -0.00310265 0)
(0.0770485 -0.00282977 0)
(0.075367 -0.0025744 0)
(0.0733781 -0.00233516 0)
(0.0710254 -0.00211049 0)
(0.0682597 -0.00189934 0)
(0.0650322 -0.00170052 0)
(0.0612879 -0.00151218 0)
(0.0569706 -0.00133241 0)
(0.052022 -0.00115913 0)
(0.0463804 -0.000990048 0)
(0.0399812 -0.000822583 0)
(0.0327559 -0.0006538 0)
(0.0246324 -0.000480308 0)
(0.0155344 -0.000298116 0)
(0.00536986 -0.00010222 0)
(0.094472 -0.00712659 0)
(0.0952568 -0.00707891 0)
(0.0953423 -0.00692427 0)
(0.0947821 -0.00668213 0)
(0.0937948 -0.0063877 0)
(0.0925561 -0.00606748 0)
(0.0912232 -0.00573452 0)
(0.0898735 -0.00539597 0)
(0.0885461 -0.00505681 0)
(0.0872509 -0.00472093 0)
(0.0859767 -0.00439162 0)
(0.0846981 -0.00407159 0)
(0.0833801 -0.00376298 0)
(0.0819812 -0.00346734 0)
(0.0804559 -0.00318569 0)
(0.0787561 -0.00291853 0)
(0.0768324 -0.00266594 0)
(0.0746343 -0.00242757 0)
(0.0720945 -0.00220155 0)
(0.0691617 -0.00198719 0)
(0.0657892 -0.00178394 0)
(0.0619192 -0.00159018 0)
(0.0574929 -0.00140411 0)
(0.0524495 -0.00122378 0)
(0.0467252 -0.00104692 0)
(0.0402532 -0.000870987 0)
(0.0329629 -0.00069301 0)
(0.0247796 -0.000509528 0)
(0.015624 -0.000316431 0)
(0.00540038 -0.000108532 0)
(0.103336 -0.00715831 0)
(0.103712 -0.00702536 0)
(0.103064 -0.00677163 0)
(0.101705 -0.00647175 0)
(0.0999704 -0.0061647 0)
(0.0980818 -0.00586182 0)
(0.0961701 -0.00556151 0)
(0.0943022 -0.00526139 0)
(0.0925059 -0.00496084 0)
(0.0907824 -0.00466072 0)
(0.0891155 -0.00436286 0)
(0.0874766 -0.00406944 0)
(0.0858285 -0.00378258 0)
(0.0841285 -0.00350412 0)
(0.0823299 -0.00323552 0)
(0.0803831 -0.00297777 0)
(0.0782369 -0.00273141 0)
(0.0758397 -0.00249661 0)
(0.0731285 -0.00227237 0)
(0.0700393 -0.00205759 0)
(0.0665282 -0.0018523 0)
(0.062537 -0.00165524 0)
(0.0580048 -0.00146479 0)
(0.0528688 -0.00127911 0)
(0.0470633 -0.00109606 0)
(0.0405197 -0.000913117 0)
(0.0331654 -0.000727333 0)
(0.0249232 -0.000535213 0)
(0.0157112 -0.000332575 0)
(0.00543009 -0.000114103 0)
(0.111913 -0.00708993 0)
(0.111429 -0.00681051 0)
(0.109755 -0.00644708 0)
(0.107542 -0.00611805 0)
(0.10513 -0.00583283 0)
(0.102705 -0.00557298 0)
(0.100345 -0.00532169 0)
(0.0980845 -0.00507001 0)
(0.0959314 -0.00481439 0)
(0.0938771 -0.0045545 0)
(0.0919003 -0.0042917 0)
(0.0899704 -0.00402815 0)
(0.0880498 -0.00376618 0)
(0.0860959 -0.00350798 0)
(0.084062 -0.00325544 0)
(0.0818987 -0.00301002 0)
(0.0795541 -0.00277269 0)
(0.0769749 -0.00254398 0)
(0.0741052 -0.00232385 0)
(0.0708763 -0.0021113 0)
(0.0672351 -0.0019061 0)
(0.0631295 -0.00170769 0)
(0.0584964 -0.00151464 0)
(0.0532715 -0.00132526 0)
(0.0473879 -0.00113752 0)
(0.0407752 -0.000948994 0)
(0.0333589 -0.000756767 0)
(0.0250601 -0.000557351 0)
(0.0157942 -0.000346535 0)
(0.00545825 -0.000118929 0)
(0.118954 -0.00671568 0)
(0.117242 -0.0062123 0)
(0.114615 -0.00583971 0)
(0.111819 -0.00558872 0)
(0.109016 -0.0053928 0)
(0.106289 -0.00521179 0)
(0.103671 -0.00502765 0)
(0.101172 -0.0048336 0)
(0.0987883 -0.00462785 0)
(0.0965075 -0.0044112 0)
(0.0943072 -0.00418573 0)
(0.0921577 -0.00395409 0)
(0.0900235 -0.00371906 0)
(0.0878639 -0.00348325 0)
(0.0856344 -0.00324899 0)
(0.0832866 -0.00301815 0)
(0.0807694 -0.00279211 0)
(0.0780295 -0.00257175 0)
(0.075011 -0.00235743 0)
(0.0716534 -0.00214895 0)
(0.0678968 -0.00194597 0)
(0.0636857 -0.00174802 0)
(0.0589583 -0.001554 0)
(0.0536498 -0.00136244 0)
(0.0476922 -0.00117145 0)
(0.041014 -0.000978703 0)
(0.0335392 -0.000781357 0)
(0.025187 -0.000575962 0)
(0.0158707 -0.000358317 0)
(0.00548409 -0.000123008 0)
(0.0051226 0.000114646 0)
(0.014744 0.000332537 0)
(0.0232202 0.000531452 0)
(0.0306804 0.000717023 0)
(0.0372483 0.000893825 0)
(0.0430344 0.00106546 0)
(0.0481381 0.0012348 0)
(0.0526499 0.00140413 0)
(0.056653 0.00157527 0)
(0.0602247 0.00174964 0)
(0.0634373 0.00192828 0)
(0.0663585 0.00211187 0)
(0.0690487 0.00230045 0)
(0.0715742 0.00249383 0)
(0.0739995 0.00269164 0)
(0.076383 0.00289279 0)
(0.078779 0.00309551 0)
(0.0812389 0.00329731 0)
(0.0838096 0.00349496 0)
(0.0865322 0.00368458 0)
(0.0894403 0.00386164 0)
(0.0925567 0.0040212 0)
(0.0958914 0.00415814 0)
(0.099438 0.00426744 0)
(0.103171 0.00434406 0)
(0.107045 0.00438151 0)
(0.110983 0.00436645 0)
(0.114852 0.00426332 0)
(0.118501 0.0039604 0)
(0.121797 0.0031812 0)
(0.0051666 0.000118245 0)
(0.0148743 0.000342868 0)
(0.0234359 0.000547621 0)
(0.0309843 0.000738144 0)
(0.0376461 0.000918996 0)
(0.0435335 0.00109374 0)
(0.0487474 0.00126515 0)
(0.0533792 0.00143541 0)
(0.0575127 0.00160619 0)
(0.0612252 0.0017787 0)
(0.064589 0.00195376 0)
(0.0676713 0.00213171 0)
(0.0705347 0.00231245 0)
(0.073242 0.00249546 0)
(0.0758534 0.00267988 0)
(0.0784242 0.00286421 0)
(0.0810049 0.00304628 0)
(0.0836414 0.00322326 0)
(0.0863738 0.0033916 0)
(0.089235 0.00354709 0)
(0.0922488 0.00368487 0)
(0.0954271 0.0037995 0)
(0.0987675 0.00388488 0)
(0.10225 0.00393396 0)
(0.105834 0.00393768 0)
(0.109452 0.0038821 0)
(0.113008 0.00374289 0)
(0.116376 0.00347333 0)
(0.119367 0.00299701 0)
(0.121803 0.00218907 0)
(0.00520886 0.000121249 0)
(0.0149998 0.000351468 0)
(0.0236441 0.000561 0)
(0.0312782 0.000755443 0)
(0.038031 0.000939304 0)
(0.0440164 0.00111607 0)
(0.0493361 0.00128843 0)
(0.0540821 0.00145842 0)
(0.0583384 0.00162754 0)
(0.0621822 0.00179683 0)
(0.065685 0.00196685 0)
(0.0689133 0.00213773 0)
(0.0719292 0.00230911 0)
(0.0747925 0.0024802 0)
(0.0775592 0.00264978 0)
(0.0802803 0.00281601 0)
(0.0830014 0.00297646 0)
(0.0857622 0.00312801 0)
(0.0885954 0.00326693 0)
(0.0915252 0.0033888 0)
(0.0945653 0.00348857 0)
(0.0977172 0.00356043 0)
(0.100967 0.00359765 0)
(0.104283 0.0035919 0)
(0.107614 0.00353247 0)
(0.110887 0.00340284 0)
(0.114004 0.00318003 0)
(0.116829 0.00283118 0)
(0.119208 0.002313 0)
(0.121025 0.00153962 0)
(0.00524848 0.000123628 0)
(0.0151179 0.000358252 0)
(0.0238409 0.000571464 0)
(0.0315569 0.00076877 0)
(0.0383966 0.000954594 0)
(0.0444752 0.00113232 0)
(0.049895 0.00130452 0)
(0.0547482 0.00147309 0)
(0.0591185 0.00163938 0)
(0.0630825 0.00180421 0)
(0.0667107 0.00196796 0)
(0.0700682 0.00213052 0)
(0.0732153 0.00229133 0)
(0.0762086 0.00244938 0)
(0.0790999 0.00260315 0)
(0.0819356 0.00275059 0)
(0.0847556 0.00288907 0)
(0.0875934 0.00301538 0)
(0.0904746 0.00312564 0)
(0.0934147 0.00321546 0)
(0.0964193 0.00327976 0)
(0.0994812 0.00331263 0)
(0.102579 0.00330742 0)
(0.105675 0.00325516 0)
(0.108718 0.00314553 0)
(0.111631 0.00296526 0)
(0.114311 0.00269804 0)
(0.116659 0.00232346 0)
(0.118575 0.00181144 0)
(0.119964 0.00111722 0)
(0.00528454 0.000125356 0)
(0.015226 0.000363153 0)
(0.0240223 0.000578918 0)
(0.0318151 0.000778021 0)
(0.0387365 0.000964766 0)
(0.0449024 0.00114242 0)
(0.0504154 0.00131341 0)
(0.0553675 0.0014795 0)
(0.0598419 0.00164187 0)
(0.063914 0.00180118 0)
(0.0676529 0.00195761 0)
(0.0711219 0.00211088 0)
(0.0743788 0.00226023 0)
(0.0774766 0.00240448 0)
(0.0804632 0.00254196 0)
(0.0833801 0.00267045 0)
(0.0862617 0.00278726 0)
(0.0891357 0.00288918 0)
(0.0920214 0.00297235 0)
(0.0949269 0.00303251 0)
(0.0978515 0.00306495 0)
(0.100783 0.00306362 0)
(0.1037 0.00302232 0)
(0.10656 0.0029337 0)
(0.109302 0.00278936 0)
(0.111861 0.00258062 0)
(0.114162 0.00229575 0)
(0.116132 0.00192142 0)
(0.1177 0.00144165 0)
(0.118802 0.000841418 0)
(0.00531617 0.000126415 0)
(0.0153217 0.000366126 0)
(0.0241845 0.000583301 0)
(0.0320476 0.000783134 0)
(0.0390443 0.000969777 0)
(0.0452905 0.00114635 0)
(0.0508889 0.00131515 0)
(0.0559308 0.0014778 0)
(0.0604983 0.00163531 0)
(0.0646657 0.0017882 0)
(0.0685001 0.00193648 0)
(0.0720626 0.00207972 0)
(0.0754082 0.00221703 0)
(0.0785863 0.00234713 0)
(0.081641 0.00246826 0)
(0.0846095 0.00257813 0)
(0.0875202 0.00267407 0)
(0.0903964 0.00275314 0)
(0.0932536 0.00281134 0)
(0.0960915 0.00284477 0)
(0.0989112 0.00284905 0)
(0.101696 0.0028192 0)
(0.104412 0.00274978 0)
(0.107023 0.0026358 0)
(0.109479 0.00247085 0)
(0.111728 0.00224852 0)
(0.113714 0.00196173 0)
(0.115384 0.00160347 0)
(0.116692 0.00116801 0)
(0.117599 0.000655541 0)
(0.00534252 0.000126798 0)
(0.0154025 0.000367145 0)
(0.0243236 0.000584586 0)
(0.0322498 0.000784093 0)
(0.0393142 0.000969641 0)
(0.0456329 0.0011442 0)
(0.0513078 0.00130991 0)
(0.0564294 0.00146824 0)
(0.0610786 0.00162009 0)
(0.0653279 0.00176583 0)
(0.0692426 0.00190534 0)
(0.072881 0.00203808 0)
(0.0762952 0.00216309 0)
(0.0795307 0.00227899 0)
(0.082629 0.00238416 0)
(0.085624 0.00247615 0)
(0.0885365 0.00255235 0)
(0.0913914 0.00261005 0)
(0.0941978 0.0026459 0)
(0.0969496 0.00265618 0)
(0.0996432 0.00263703 0)
(0.10226 0.00258497 0)
(0.104772 0.0024957 0)
(0.107148 0.00236518 0)
(0.109349 0.00218921 0)
(0.111333 0.00196382 0)
(0.11306 0.00168546 0)
(0.114494 0.00135177 0)
(0.115605 0.000963088 0)
(0.116373 0.000525497 0)
(0.00536282 0.0001265 0)
(0.0154663 0.000366208 0)
(0.0244364 0.000582779 0)
(0.0324169 0.000780929 0)
(0.0395407 0.000964431 0)
(0.045923 0.00113608 0)
(0.0516649 0.00129788 0)
(0.0568557 0.00145116 0)
(0.0615747 0.00159669 0)
(0.0658927 0.00173473 0)
(0.0698726 0.00186508 0)
(0.0735702 0.0019871 0)
(0.0770345 0.00209978 0)
(0.0803064 0.00220168 0)
(0.0834296 0.00229129 0)
(0.0864325 0.00236649 0)
(0.0893301 0.00242466 0)
(0.0921417 0.00246316 0)
(0.094872 0.00247955 0)
(0.0975191 0.00247064 0)
(0.100075 0.00243334 0)
(0.102524 0.00236473 0)
(0.104844 0.00226178 0)
(0.107007 0.00212173 0)
(0.108984 0.00194208 0)
(0.110744 0.00172091 0)
(0.112259 0.00145719 0)
(0.113505 0.00115152 0)
(0.114465 0.000807141 0)
(0.115129 0.000431505 0)
(0.00537637 0.000125522 0)
(0.0155112 0.000363321 0)
(0.02452 0.000577898 0)
(0.0325456 0.000773682 0)