/*--------------------------------*- C++ -*----------------------------------*\
| =========                 |                                                 |
| \\      /  F ield         | OpenFOAM: The Open Source CFD Toolbox           |
|  \\    /   O peration     | Version:  5.x                                   |
|   \\  /    A nd           | Web:      www.OpenFOAM.org                      |
|    \\/     M anipulation  |                                                 |
\*---------------------------------------------------------------------------*/
FoamFile
{
    version     2.0;
    format      ascii;
    class       volScalarField;
    location    "0.6";
    object      T;
}
// * * * * * * * * * * * * * * * * * * * * * * * * * * * * * * * * * * * * * //

dimensions      [0 0 0 1 0 0 0];

internalField   nonuniform List<scalar> 
512
(
309.78
309.781
309.782
309.784
309.785
309.787
309.789
309.79
309.792
309.793
309.794
309.794
309.795
309.795
309.796
309.796
309.796
309.796
309.796
309.796
309.796
309.795
309.795
309.794
309.793
309.792
309.791
309.79
309.789
309.788
309.787
309.787
309.34
309.342
309.346
309.351
309.356
309.362
309.367
309.371
309.375
309.379
309.381
309.383
309.385
309.386
309.387
309.388
309.388
309.388
309.388
309.388
309.387
309.386
309.384
309.382
309.38
309.377
309.374
309.37
309.367
309.364
309.361
309.36
308.9
308.904
308.91
308.918
308.927
308.936
308.945
308.953
308.959
308.965
308.969
308.973
308.975
308.977
308.979
308.98
308.98
308.98
308.98
308.979
308.978
308.976
308.974
308.971
308.967
308.962
308.957
308.951
308.945
308.939
308.935
308.932
308.459
308.464
308.473
308.485
308.498
308.511
308.523
308.534
308.543
308.551
308.557
308.562
308.566
308.569
308.571
308.572
308.573
308.573
308.572
308.571
308.57
308.567
308.564
308.559
308.554
308.547
308.54
308.531
308.523
308.514
308.508
308.504
308.016
308.024
308.036
308.052
308.069
308.086
308.102
308.116
308.128
308.138
308.146
308.152
308.157
308.16
308.163
308.165
308.165
308.166
308.165
308.164
308.161
308.158
308.154
308.148
308.142
308.133
308.123
308.112
308.1
308.089
308.081
308.076
307.572
307.582
307.598
307.619
307.641
307.662
307.682
307.699
307.713
307.725
307.734
307.742
307.748
307.752
307.755
307.757
307.758
307.759
307.758
307.756
307.754
307.75
307.745
307.738
307.73
307.719
307.707
307.693
307.678
307.664
307.652
307.646
307.126
307.138
307.159
307.185
307.212
307.238
307.262
307.282
307.299
307.313
307.324
307.333
307.34
307.345
307.348
307.351
307.352
307.352
307.351
307.349
307.346
307.342
307.336
307.328
307.318
307.306
307.291
307.274
307.256
307.238
307.223
307.214
306.677
306.693
306.719
306.752
306.784
306.815
306.843
306.866
306.886
306.902
306.915
306.924
306.932
306.938
306.942
306.944
306.946
306.946
306.945
306.943
306.94
306.935
306.928
306.919
306.908
306.893
306.876
306.856
306.834
306.812
306.792
306.781
306.224
306.245
306.278
306.318
306.357
306.393
306.425
306.452
306.474
306.492
306.506
306.517
306.525
306.531
306.536
306.539
306.54
306.54
306.539
306.537
306.533
306.528
306.521
306.511
306.498
306.482
306.462
306.438
306.412
306.384
306.36
306.345
305.766
305.793
305.836
305.884
305.931
305.973
306.009
306.039
306.063
306.083
306.098
306.11
306.119
306.126
306.13
306.133
306.135
306.135
306.134
306.132
306.128
306.122
306.114
306.103
306.089
306.072
306.049
306.022
305.99
305.957
305.926
305.905
305.302
305.338
305.393
305.451
305.506
305.554
305.594
305.628
305.654
305.675
305.692
305.704
305.714
305.721
305.726
305.729
305.73
305.731
305.73
305.727
305.723
305.717
305.709
305.697
305.682
305.663
305.638
305.607
305.57
305.529
305.489
305.461
304.828
304.879
304.949
305.019
305.083
305.137
305.182
305.218
305.247
305.269
305.287
305.3
305.31
305.317
305.322
305.325
305.327
305.327
305.326
305.323
305.319
305.313
305.304
305.292
305.276
305.255
305.228
305.193
305.15
305.101
305.049
305.01
304.342
304.415
304.505
304.589
304.662
304.723
304.772
304.811
304.841
304.865
304.883
304.896
304.906
304.914
304.919
304.922
304.924
304.924
304.923
304.92
304.916
304.91
304.901
304.889
304.872
304.85
304.821
304.782
304.733
304.673
304.607
304.549
303.839
303.948
304.062
304.162
304.245
304.312
304.365
304.406
304.438
304.462
304.48
304.494
304.504
304.511
304.516
304.52
304.521
304.522
304.52
304.518
304.514
304.508
304.499
304.486
304.47
304.447
304.416
304.374
304.319
304.248
304.162
304.075
303.308
303.479
303.623
303.74
303.833
303.905
303.961
304.004
304.036
304.061
304.079
304.093
304.103
304.11
304.115
304.118
304.12
304.12
304.119
304.117
304.113
304.107
304.098
304.086
304.069
304.046
304.014
303.97
303.909
303.827
303.718
303.579
302.734
303.018
303.191
303.325
303.426
303.502
303.561
303.604
303.637
303.662
303.68
303.693
303.703
303.71
303.714
303.717
303.719
303.719
303.718
303.716
303.712
303.707
303.698
303.687
303.671
303.648
303.615
303.57
303.505
303.412
303.283
303.048
)
;

boundaryField
{
    left
    {
        type            zeroGradient;
    }
    right
    {
        type            zeroGradient;
    }
    interface
    {
        type            fixedValue;
        value           nonuniform List<scalar> 
32
(
302.423
302.813
302.993
303.136
303.241
303.32
303.38
303.424
303.458
303.483
303.501
303.514
303.524
303.531
303.535
303.538
303.54
303.54
303.539
303.537
303.533
303.528
303.52
303.509
303.492
303.47
303.437
303.391
303.325
303.228
303.095
302.77
)
;
    }
    bottom
    {
        type            fixedValue;
        value           uniform 310;
    }
    defaultFaces
    {
        type            empty;
    }
}


// ************************************************************************* //
