/*--------------------------------*- C++ -*----------------------------------*\
| =========                 |                                                 |
| \\      /  F ield         | OpenFOAM: The Open Source CFD Toolbox           |
|  \\    /   O peration     | Version:  2006                                  |
|   \\  /    A nd           | Website:  www.openfoam.com                      |
|    \\/     M anipulation  |                                                 |
\*---------------------------------------------------------------------------*/
FoamFile
{
    version     2.0;
    format      ascii;
    class       volScalarField;
    location    "9.5";
    object      p;
}
// * * * * * * * * * * * * * * * * * * * * * * * * * * * * * * * * * * * * * //

dimensions      [0 2 -2 0 0 0 0];


internalField   nonuniform List<scalar> 
2790
(
146.674
146.582
146.849
147.42
148.2
149.158
150.29
151.597
153.073
154.715
156.514
158.465
160.559
162.784
165.125
167.56
170.065
172.604
175.136
177.61
179.968
182.146
184.076
185.696
186.956
187.83
188.266
188.321
188.372
188.584
146.472
146.489
146.782
147.35
148.126
149.08
150.208
151.509
152.978
154.611
156.401
158.342
160.425
162.639
164.969
167.394
169.89
172.424
174.954
177.432
179.8
181.995
183.95
185.598
186.882
187.756
188.153
188.208
188.34
188.625
146.273
146.361
146.672
147.23
147.993
148.935
150.048
151.33
152.778
154.386
156.148
158.058
160.106
162.281
164.57
166.952
169.404
171.895
174.387
176.834
179.184
181.377
183.349
185.038
186.389
187.365
187.958
188.313
188.628
188.927
146.048
146.166
146.49
147.04
147.788
148.713
149.807
151.065
152.484
154.059
155.782
157.648
159.647
161.767
163.996
166.314
168.698
171.121
173.549
175.939
178.246
180.418
182.4
184.139
185.593
186.745
187.613
188.284
188.836
189.355
145.787
145.92
146.252
146.794
147.526
148.43
149.497
150.725
152.107
153.638
155.312
157.122
159.057
161.108
163.26
165.496
167.794
170.129
172.471
174.784
177.029
179.164
181.146
182.937
184.507
185.849
186.979
187.942
188.753
189.499
145.486
145.625
145.959
146.491
147.203
148.081
149.117
150.306
151.644
153.124
154.739
156.481
158.342
160.31
162.372
164.51
166.705
168.934
171.171
173.387
175.549
177.627
179.589
181.409
183.072
184.574
185.92
187.126
188.145
189.063
145.144
145.283
145.614
146.133
146.823
147.67
148.67
149.815
151.101
152.521
154.068
155.734
157.509
159.382
161.339
163.365
165.441
167.547
169.66
171.756
173.811
175.802
177.71
179.52
181.226
182.827
184.321
185.699
186.864
187.91
144.759
144.896
145.221
145.723
146.386
147.2
148.158
149.253
150.481
151.834
153.305
154.884
156.563
158.329
160.169
162.069
164.01
165.974
167.942
169.894
171.811
173.679
175.486
177.228
178.907
180.526
182.081
183.553
184.803
185.953
144.333
144.466
144.78
145.263
145.897
146.673
147.585
148.625
149.789
151.068
152.454
153.938
155.511
157.159
158.87
160.629
162.418
164.222
166.021
167.8
169.544
171.242
172.89
174.491
176.053
177.588
179.097
180.567
181.838
183.076
143.866
143.994
144.295
144.755
145.358
146.093
146.954
147.935
149.028
150.227
151.522
152.903
154.36
155.881
157.45
159.054
160.676
162.299
163.905
165.479
167.007
168.482
169.9
171.268
172.602
173.921
175.241
176.58
177.78
179.084
143.361
143.483
143.768
144.203
144.771
145.462
146.269
147.186
148.205
149.318
150.515
151.786
153.12
154.503
155.92
157.356
158.794
160.215
161.602
162.937
164.205
165.395
166.503
167.532
168.496
169.426
170.357
171.356
172.319
173.637
142.819
142.933
143.201
143.61
144.141
144.784
145.534
146.383
147.324
148.346
149.44
150.595
151.798
153.035
154.29
155.547
156.786
157.987
159.129
160.191
161.153
161.996
162.705
163.271
163.699
164.01
164.254
164.564
164.947
166.121
142.242
142.349
142.598
142.978
143.47
144.064
144.754
145.532
146.39
147.318
148.304
149.337
150.404
151.488
152.574
153.64
154.667
155.631
156.507
157.266
157.879
158.314
158.537
158.513
158.211
157.616
156.744
155.755
154.811
155.318
141.632
141.731
141.961
142.31
142.761
143.304
143.932
144.637
145.41
146.24
147.115
148.023
148.949
149.875
150.784
151.653
152.458
153.172
153.764
154.196
154.426
154.404
154.066
153.335
152.114
150.288
147.729
144.434
140.495
138.467
140.993
141.083
141.293
141.611
142.019
142.51
143.074
143.703
144.388
145.118
145.88
146.66
147.442
148.207
148.935
149.602
150.179
150.635
150.932
151.022
150.85
150.34
149.395
147.882
145.605
142.276
137.439
130.434
119.993
107.804
0.509092
0.489009
0.419147
0.322677
0.223089
0.132591
0.0560894
-0.0047608
-0.0498554
-0.0804602
-0.0972657
-0.102901
-0.100227
-0.0919391
-0.0805058
-0.068041
-0.0561409
-0.0458031
-0.0374692
-0.0311413
-0.0265112
-0.023093
-0.0203666
-0.0179118
-0.0154868
-0.0130094
-0.0104679
-0.0078414
-0.00506427
-0.00203589
0.460045
0.437452
0.371738
0.282793
0.190998
0.107058
0.0355947
-0.021523
-0.0636217
-0.0904
-0.104704
-0.108412
-0.104046
-0.0942728
-0.0816074
-0.0682008
-0.0556617
-0.044984
-0.0365675
-0.0303443
-0.0259184
-0.0227158
-0.0201522
-0.0177842
-0.0153907
-0.012926
-0.0104031
-0.00780737
-0.00506171
-0.00194028
0.404629
0.377718
0.314691
0.232897
0.149524
0.0731629
0.00791699
-0.0442557
-0.0826084
-0.107164
-0.118661
-0.119343
-0.112013
-0.0994143
-0.0841862
-0.0686259
-0.0544484
-0.0426832
-0.0337459
-0.0275306
-0.0235088
-0.0208877
-0.0188566
-0.016844
-0.0146451
-0.0122974
-0.00988558
-0.00742596
-0.00482469
-0.00186207
0.349584
0.318221
0.257051
0.181435
0.105957
0.0368941
-0.0221933
-0.0693377
-0.10365
-0.125044
-0.133658
-0.131227
-0.120637
-0.104861
-0.0867749
-0.0688328
-0.0528476
-0.0399298
-0.0305288
-0.0244872
-0.0210901
-0.0192439
-0.0178465
-0.0161922
-0.0141462
-0.0118857
-0.0095825
-0.00728103
-0.00489134
-0.00223908
0.308272
0.272724
0.213208
0.142128
0.0725107
0.00871356
-0.0459199
-0.0893887
-0.120653
-0.139424
-0.145819
-0.141153
-0.127852
-0.109348
-0.0888655
-0.0689801
-0.0515612
-0.0377733
-0.0280887
-0.0223125
-0.0195349
-0.0183579
-0.0174238
-0.0159341
-0.0138828
-0.0115795
-0.00929566
-0.00708122
-0.00478366
-0.00228783
0.292792
0.25223
0.193928
0.12467
0.0575186
-0.0043422
-0.0573984
-0.099592
-0.129816
-0.147688
-0.15328
-0.147142
-0.132074
-0.111984
-0.0901907
-0.069283
-0.0511406
-0.0369268
-0.0270744
-0.0214035
-0.0189302
-0.0181091
-0.0174101
-0.0160002
-0.0139567
-0.0116437
-0.00936381
-0.00717957
-0.00500001
-0.00240021
0.313998
0.26587
0.207023
0.135255
0.0656058
0.00137055
-0.0536727
-0.0973734
-0.128515
-0.146788
-0.153253
-0.148211
-0.133185
-0.112991
-0.0911257
-0.0702138
-0.0521328
-0.038016
-0.028304
-0.0226871
-0.0200593
-0.0189145
-0.0179509
-0.0164051
-0.01429
-0.0119275
-0.00961351
-0.00750979
-0.00554262
-0.00255795
0.378007
0.32089
0.253807
0.173797
0.0958328
0.0248689
-0.035365
-0.0828443
-0.116862
-0.13809
-0.147404
-0.144587
-0.131759
-0.113234
-0.0926254
-0.0726255
-0.055078
-0.0410866
-0.0311208
-0.0250054
-0.0218554
-0.0203414
-0.0191989
-0.0176127
-0.015413
-0.0128532
-0.0103442
-0.0082588
-0.00638056
-0.00273754
0.487223
0.413004
0.327669
0.231699
0.140375
0.0592734
-0.0083521
-0.0610909
-0.0997459
-0.125726
-0.13847
-0.138474
-0.128651
-0.11272
-0.0941684
-0.075682
-0.0590534
-0.0453497
-0.0351099
-0.0283822
-0.0246287
-0.0227908
-0.0216109
-0.0200597
-0.0176893
-0.014694
-0.0117154
-0.00938877
-0.00727647
-0.00291376
0.629514
0.524465
0.410175
0.29155
0.184544
0.093118
0.01772
-0.0418025
-0.0853708
-0.113952
-0.128977
-0.131803
-0.124899
-0.111654
-0.0954643
-0.0789328
-0.063639
-0.0504494
-0.0399509
-0.0325587
-0.0282549
-0.0263299
-0.025453
-0.0241525
-0.0215308
-0.0177474
-0.0138529
-0.0108454
-0.00812777
-0.00307772
0.776359
0.623134
0.479139
0.337013
0.212263
0.11002
0.0297869
-0.0312425
-0.0757534
-0.105497
-0.12207
-0.126888
-0.122055
-0.110826
-0.0967505
-0.082375
-0.0687887
-0.0563069
-0.0454536
-0.0372211
-0.0324165
-0.0308129
-0.0308538
-0.0302569
-0.0273557
-0.0222834
-0.0168087
-0.0125526
-0.00889698
-0.0032242
0.89989
0.691031
0.504586
0.342653
0.210838
0.106895
0.0266788
-0.0331184
-0.0755266
-0.103738
-0.120137
-0.125648
-0.12148
-0.110892
-0.0981693
-0.0860292
-0.0746341
-0.063083
-0.0515804
-0.0420413
-0.0366532
-0.0359349
-0.0378796
-0.0387976
-0.0356805
-0.0285879
-0.0205545
-0.0143802
-0.00955884
-0.003349
0.952318
0.670117
0.453011
0.283853
0.158389
0.0668628
-0.00205001
-0.0532659
-0.0880804
-0.11063
-0.124625
-0.129621
-0.124426
-0.112297
-0.0995625
-0.0897881
-0.0814811
-0.0712585
-0.0584782
-0.0466107
-0.0402565
-0.0411648
-0.0465395
-0.0503407
-0.0472319
-0.0370217
-0.0249541
-0.0160805
-0.0100769
-0.00344907
0.770737
0.398848
0.229032
0.117982
0.0337585
-0.0183479
-0.0586086
-0.093207
-0.114399
-0.126077
-0.135679
-0.140149
-0.132232
-0.114971
-0.099785
-0.0928074
-0.089535
-0.0816117
-0.0664677
-0.0503061
-0.0420844
-0.0456228
-0.0567691
-0.0656889
-0.0630988
-0.0481007
-0.0296898
-0.0171634
-0.0103794
-0.00352321
0.128142
-0.322549
-0.275639
-0.182777
-0.178506
-0.142712
-0.130552
-0.152109
-0.159458
-0.151413
-0.152671
-0.158053
-0.146107
-0.118151
-0.0965143
-0.0938952
-0.0999194
-0.0964631
-0.0769504
-0.0526539
-0.0405964
-0.0480441
-0.0684345
-0.0859912
-0.0849362
-0.0626209
-0.0341413
-0.016675
-0.0102983
-0.00357272
140.314
140.395
140.583
140.868
141.233
141.668
142.166
142.717
143.313
143.939
144.584
145.232
145.866
146.466
147.008
147.467
147.811
148.002
147.996
147.736
147.15
146.141
144.578
142.265
138.904
134.001
126.637
114.9
92.779
33.1404
139.587
139.658
139.824
140.074
140.393
140.771
141.2
141.671
142.173
142.693
143.217
143.729
144.211
144.641
144.994
145.24
145.346
145.27
144.959
144.349
143.356
141.866
139.72
136.688
132.41
126.305
117.339
103.781
84.2649
55.7998
138.817
138.879
139.021
139.235
139.507
139.826
140.184
140.572
140.978
141.39
141.791
142.166
142.494
142.752
142.915
142.95
142.82
142.481
141.875
140.932
139.561
137.641
135.007
131.43
126.584
120.014
111.127
99.2832
85.025
68.345
138.007
138.058
138.177
138.354
138.576
138.835
139.122
139.426
139.735
140.037
140.315
140.552
140.726
140.815
140.79
140.618
140.26
139.669
138.787
137.54
135.839
133.564
130.565
126.644
121.555
115.002
106.689
96.2803
83.7093
68.5329
137.157
137.198
137.292
137.432
137.605
137.803
138.017
138.237
138.449
138.641
138.796
138.896
138.92
138.843
138.636
138.266
137.693
136.869
135.737
134.226
132.251
129.704
126.457
122.353
117.212
110.832
103.013
93.5102
82.1547
69.1517
136.27
136.3
136.37
136.472
136.596
136.733
136.875
137.01
137.126
137.21
137.244
137.211
137.088
136.851
136.472
135.916
135.145
134.111
132.761
131.03
128.839
126.099
122.704
118.534
113.458
107.343
100.063
91.5193
81.701
71.0197
135.349
135.369
135.414
135.478
135.553
135.629
135.699
135.751
135.772
135.75
135.667
135.505
135.242
134.855
134.314
133.587
132.637
131.421
129.888
127.98
125.632
122.768
119.307
115.161
110.243
104.473
97.7973
90.203
81.7331
72.7234
134.397
134.406
134.427
134.454
134.479
134.496
134.495
134.466
134.395
134.271
134.075
133.79
133.396
132.868
132.179
131.299
130.193
128.821
127.14
125.099
122.644
119.717
116.256
112.202
107.502
102.115
96.0275
89.2588
81.8585
74.0993
133.417
133.416
133.413
133.403
133.381
133.339
133.27
133.161
133.003
132.78
132.478
132.078
131.561
130.904
130.082
129.067
127.828
126.329
124.533
122.398
119.882
116.94
113.53
109.613
105.161
100.159
94.6119
88.5543
82.0396
75.2957
132.414
132.403
132.376
132.331
132.262
132.164
132.029
131.845
131.602
131.287
130.884
130.378
129.749
128.977
128.038
126.907
125.557
123.957
122.077
119.883
117.343
114.425
111.101
107.349
103.157
98.5238
93.4686
88.0304
82.2621
76.3491
131.392
131.371
131.322
131.242
131.129
130.977
130.778
130.523
130.201
129.8
129.305
128.701
127.971
127.097
126.057
124.829
123.389
121.714
119.778
117.555
115.021
112.156
108.941
105.368
101.434
97.1488
92.5361
87.6352
82.4941
77.2614
130.356
130.326
130.255
130.142
129.987
129.784
129.526
129.204
128.808
128.327
127.748
127.057
126.238
125.275
124.149
122.842
121.334
119.605
117.636
115.408
112.904
110.111
107.021
103.631
99.9472
95.9832
91.7646
87.3278
82.7148
78.0449
129.312
129.273
129.181
129.038
128.842
128.591
128.278
127.894
127.43
126.877
126.222
125.453
124.557
123.518
122.322
120.953
119.395
117.632
115.65
113.436
110.979
108.273
105.314
102.106
98.6577
94.9865
91.1167
87.0808
82.9147
78.7148
128.264
128.217
128.107
127.934
127.701
127.405
127.041
126.6
126.075
125.457
124.735
123.899
122.936
121.835
120.583
119.166
117.574
115.794
113.815
111.63
109.233
106.621
103.795
100.762
97.5334
94.1267
90.5646
86.8753
83.0893
79.2846
127.22
127.166
127.037
126.837
126.57
126.234
125.823
125.331
124.751
124.075
123.295
122.4
121.382
120.231
118.935
117.485
115.872
114.088
112.126
109.981
107.651
105.136
102.441
99.5743
96.548
93.3788
90.0874
86.6982
83.2368
79.7665
126.186
126.124
125.979
125.755
125.456
125.083
124.63
124.092
123.464
122.738
121.907
120.964
119.901
118.709
117.382
115.91
114.289
112.512
110.575
108.478
106.219
103.802
101.234
98.522
95.68
92.7231
89.6696
86.5405
83.3572
80.1714
125.168
125.1
124.94
124.693
124.367
123.96
123.47
122.892
122.221
121.452
120.579
119.596
118.497
117.275
115.925
114.442
112.821
111.06
109.156
107.111
104.925
102.604
100.155
97.5873
94.9121
92.1442
89.2995
86.3961
83.4518
80.5092
124.173
124.099
123.926
123.659
123.308
122.871
122.349
121.735
121.028
120.223
119.315
118.3
117.173
115.93
114.567
113.08
111.467
109.728
107.862
105.871
103.758
101.529
99.192
96.7553
94.2304
91.6301
88.9686
86.2611
83.5228
80.7888
123.209
123.13
122.945
122.661
122.286
121.825
121.273
120.63
119.892
119.057
118.121
117.08
115.933
114.676
113.306
111.823
110.224
108.511
106.685
104.749
102.707
100.565
98.3314
96.0141
93.6238
91.1718
88.6707
86.1333
83.5728
81.0179
122.282
122.199
122.003
121.704
121.31
120.826
120.251
119.582
118.819
117.959
117
115.942
114.78
113.515
112.145
110.669
109.088
107.404
105.62
103.738
101.763
99.7029
97.5636
95.3541
93.0835
90.7623
88.4013
86.0117
83.6045
81.2038
121.401
121.314
121.109
120.796
120.386
119.883
119.287
118.598
117.814
116.934
115.959
114.887
113.716
112.448
111.081
109.617
108.057
106.404
104.66
102.83
100.919
98.9338
96.8804
94.7673
92.6029
90.3965
88.1576
85.896
83.621
81.3528
120.573
120.483
120.27
119.946
119.522
119.003
118.39
117.683
116.882
115.988
115
113.919
112.744
111.476
110.117
108.667
107.129
105.506
103.802
102.021
100.169
98.2516
96.2754
94.2479
92.177
90.0709
87.9379
85.7867
83.6255
81.4709
119.807
119.713
119.494
119.16
118.723
118.191
117.565
116.844
116.03
115.125
114.128
113.041
111.865
110.601
109.251
107.816
106.301
104.708
103.042
101.306
99.5075
97.651
95.7432
93.7911
91.8018
89.7826
87.7411
85.6847
83.6207
81.5631
119.11
119.013
118.788
118.445
117.999
117.456
116.818
116.087
115.263
114.35
113.347
112.258
111.083
109.824
108.484
107.066
105.573
104.008
102.376
100.682
98.9311
97.1287
95.281
93.3944
91.4755
89.531
87.5677
85.5921
83.6108
81.6354
118.491
118.392
118.161
117.81
117.356
116.803
116.157
115.417
114.586
113.667
112.661
111.571
110.399
109.147
107.818
106.415
104.942
103.404
101.803
100.146
98.4364
96.6809
94.885
93.0544
91.1955
89.3142
87.4167
85.5089
83.5967
81.6899
117.959
117.857
117.621
117.263
116.801
116.242
115.588
114.842
114.006
113.084
112.076
110.987
109.818
108.573
107.255
105.867
104.413
102.897
101.324
99.6979
98.0245
96.3089
94.5565
92.773
90.9641
89.1353
87.2924
85.4408
83.5858
81.7358
117.524
117.419
117.175
116.81
116.341
115.776
115.116
114.366
113.526
112.601
111.593
110.505
109.341
108.103
106.794
105.419
103.981
102.485
100.934
99.3346
97.6907
96.0076
94.2906
92.545
90.7761
88.9893
87.1898
85.3825
83.5725
81.7666
117.199
117.087
116.834
116.462
115.989
115.419
114.756
114.001
113.159
112.233
111.225
110.139
108.978
107.746
106.446
105.081
103.656
102.176
100.644
99.0649
97.4442
95.7867
94.0973
92.3813
90.6436
88.8893
87.1234
85.3508
83.576
81.8053
116.996
116.862
116.592
116.214
115.738
115.165
114.5
113.743
112.9
111.974
110.967
109.883
108.726
107.498
106.204
104.847
103.432
101.962
100.443
98.8784
97.2736
95.6332
93.9623
92.2658
90.5487
88.8158
87.0718
85.3214
83.5689
81.8193
116.978
116.779
116.481
116.097
115.618
115.042
114.374
113.616
112.772
111.845
110.839
109.757
108.603
107.379
106.089
104.738
103.329
101.867
100.356
98.8013
97.2068
95.5776
93.9185
92.2344
90.5302
88.8105
87.08
85.3431
83.6043
81.8677
-50.378
-30.103
-11.0766
35.4037
27.8872
15.7038
50.7909
38.662
27.3933
52.2307
41.7881
33.7185
56.5753
48.27
41.4938
60.9659
54.0432
48.1385
64.2464
58.3548
53.2965
66.8508
61.8181
57.5022
69.0471
64.7088
60.9949
70.9018
67.1185
63.8877
72.462
69.1282
66.2885
73.777
70.812
68.2915
74.8875
72.2279
69.9703
75.8257
73.4213
71.3825
76.6182
74.4289
72.5738
77.2868
75.2805
73.5807
77.8499
75.9998
74.4324
78.3227
76.6068
75.1525
78.7182
77.1179
75.7606
79.0474
77.5469
76.2728
79.3199
77.9054
76.7029
79.5444
78.2039
77.0628
79.7275
78.4505
77.3617
79.8773
78.6544
77.6098
79.9964
78.8188
77.8114
80.0965
78.9563
77.9789
80.1689
79.0586
78.106
80.2423
79.1547
78.2194
80.2767
79.2054
78.2841
80.3459
79.2888
78.3739
-3.07206
-3.00379
-1.56027
-0.423778
-0.380969
-0.274917
-0.218188
-0.254578
-0.235345
-0.16935
-0.155233
-0.176841
-0.169973
-0.125234
-0.087337
-0.0907684
-0.113311
-0.118111
-0.0905474
-0.0510354
-0.0316476
-0.0454453
-0.0809625
-0.113142
-0.115787
-0.0822723
-0.0372952
-0.0127533
-0.00935425
-0.00360417
1.91734
-0.917888
0.685109
0.15527
-1.23364
-0.96194
-0.272131
-0.268024
-0.240186
-0.135663
-0.163134
-0.249375
-0.251898
-0.145196
-0.0494139
-0.0663511
-0.125818
-0.152488
-0.114873
-0.0472388
-0.0135377
-0.0374364
-0.0967227
-0.152189
-0.161613
-0.110227
-0.0371256
-0.0014894
-0.00608022
-0.00364311
13.1033
4.75361
1.90629
-0.56157
-0.835101
0.832439
0.954539
-0.542624
-0.872658
-0.473134
-0.139916
-0.239158
-0.249359
-0.0559102
0.0476625
-0.0400479
-0.175086
-0.238653
-0.1699
-0.0325746
0.0343032
-0.00828571
-0.105236
-0.198013
-0.222151
-0.14758
-0.02983
0.0242053
0.00299831
-0.00378333
22.9261
13.0196
7.11124
3.34489
1.66701
1.20211
-0.108295
-0.786361
-0.285598
0.887911
0.684945
-0.421974
-0.783298
-0.497955
0.0509841
0.0648498
-0.175738
-0.295476
-0.179541
0.0414387
0.116232
0.026233
-0.131237
-0.282657
-0.334101
-0.228525
-0.0137635
0.0742513
0.0240036
-0.00430445
32.1205
22.3298
14.9957
9.71044
6.09226
3.63022
1.74284
0.768883
0.552116
0.493308
-0.04586
-0.657312
-0.669248
0.485211
0.992467
0.23237
-0.351211
-0.649557
-0.549764
-0.0520462
0.218491
0.102055
-0.130618
-0.352186
-0.429937
-0.240768
0.0345285
0.163259
0.0641859
-0.00596453
40.1189
31.1734
23.2731
16.8372
11.9146
8.2793
5.61558
3.74189
2.47587
1.54864
0.776218
0.189776
0.0290018
0.416291
0.407304
0.084375
-0.393573
-0.65078
-0.281176
0.503119
0.619471
0.165823
-0.189486
-0.512408
-0.705127
-0.561774
0.0287839
0.290707
0.127362
-0.0111084
46.6484
38.8268
31.0368
24.1382
18.5132
14.0609
10.5436
7.79133
5.69861
4.1257
2.90844
1.9653
1.36809
1.10119
0.842698
0.471799
-0.0097264
-0.277411
-0.106151
0.242794
0.373273
0.174893
-0.168057
-0.546701
-0.738739
-0.353158
0.399082
0.536665
0.204929
-0.0241926
51.9663
45.2223
37.9523
31.1141
25.2288
20.2854
16.1473
12.7274
9.96239
7.75274
5.97121
4.54301
3.47095
2.72025
2.12064
1.51456
0.924627
0.539057
0.458949
0.546789
0.558705
0.3335
-0.0420378
-0.402908
-0.544862
-0.273312
0.182778
0.399467
0.306064
-0.0634356
56.3043
50.478
43.8839
37.4029
31.5813
26.4693
22.0014
18.1429
14.8648
12.1107
9.80641
7.89686
6.35445
5.13274
4.12125
3.21878
2.43082
1.84119
1.49422
1.30803
1.10695
0.771865
0.357925
0.000751804
-0.156157
-0.0257303
0.255797
0.398823
0.261695
-0.303005
59.8447
54.7701
48.8599
42.8689
37.3116
32.266
27.7028
23.6179
20.013
16.8696
14.1518
11.8225
9.84961
8.19109
6.77965
5.55416
4.50089
3.6463
3.00191
2.51118
2.06319
1.58154
1.08966
0.673241
0.424026
0.38387
0.459351
0.438589
0.172933
-0.51802
62.7528
58.2883
53.0026
47.5297
42.3307
37.4893
32.9926
28.8522
25.0894
21.7099
18.7024
16.0469
13.7208
11.6947
9.92845
8.38244
7.03674
5.89166
4.94184
4.14782
3.44203
2.77328
2.14457
1.603
1.20219
0.957904
0.799579
0.57972
0.171706
-0.592621
65.1618
61.1946
56.4526
51.4703
46.6539
42.0822
37.7483
33.6697
29.8761
26.3865
23.2047
20.3251
17.7369
15.4232
13.3607
11.5241
9.89555
8.46595
7.2236
6.14037
5.1736
4.28778
3.47658
2.76166
2.16947
1.7002
1.30042
0.868565
0.307554
-0.521667
67.1716
63.6138
59.336
54.7949
50.3477
46.0651
41.9411
37.993
34.2527
30.745
27.4826
24.4697
21.7045
19.1804
16.8854
14.8049
12.9258
11.2377
9.72828
8.37726
7.15671
6.04169
5.02241
4.10496
3.29811
2.59391
1.95193
1.30231
0.576253
-0.330889
68.8576
65.6404
61.7572
57.6035
53.4954
49.4954
45.5962
41.8125
38.1749
34.7098
31.4343
28.3581
25.4861
22.8185
20.3514
18.0778
15.9897
14.0787
12.3348
10.7435
9.28596
7.94456
6.70874
5.57609
4.54535
3.60498
2.72435
1.85562
0.952809
-0.0561667
70.2779
67.3465
63.7991
59.9822
56.1781
52.4418
48.764
45.1563
41.6463
38.2599
35.0154
31.9258
28.9997
26.242
23.654
21.2342
18.979
16.883
14.9392
13.1377
11.4658
9.91073
8.46261
7.11516
5.86217
4.69124
3.57898
2.49255
1.40197
0.262638
71.4776
68.7876
65.5269
62.002
58.4672
54.9708
51.5021
48.0691
44.6962
41.4072
38.2208
35.1507
32.2077
29.3996
26.7313
24.2046
21.8195
19.5737
17.463
15.4811
13.6195
11.8689
10.2208
8.66774
7.20152
5.81022
4.47566
3.17474
1.88738
0.590146
72.4927
70.0076
66.9923
63.7205
60.4226
57.1417
53.8655
50.5991
47.3633
44.1799
41.0662
38.0364
35.1019
32.272
29.5537
26.9515
24.4675
22.1022
19.8539
17.719
15.6919
13.7662
11.9346
10.1898
8.52355
6.92473
5.3787
3.86828
2.37857
0.900889
73.3517
71.041
68.2365
65.184
62.0939
59.0048
55.9035
52.7921
49.6884
46.6116
43.5778
40.6003
37.6907
34.8591
32.1133
29.4596
26.9019
24.4424
22.0814
19.8175
17.6475
15.5668
13.5696
11.6493
9.79805
8.00581
6.26019
4.54716
2.85383
1.18053
74.0782
71.9163
69.293
66.4306
63.5221
60.6028
57.6585
54.6891
51.7094
48.7363
45.7842
42.8654
39.9911
37.1713
34.4145
31.7277
29.1159
26.5829
24.1304
21.7585
19.4657
17.2489
15.1039
13.0247
11.0041
9.03307
7.10047
5.19371
3.29997
1.4241
74.6916
72.6567
70.1892
67.4913
64.7413
61.9714
59.167
56.3261
53.4608
50.5858
47.7139
44.8562
42.023
39.2241
36.4679
33.7618
31.1117
28.5219
25.9954
23.5334
21.1358
18.8006
16.5246
14.3027
12.1284
9.99335
7.88703
5.7973
3.7105
1.63293
75.208
73.2814
70.9477
68.392
65.7798
63.1407
60.46
57.7341
54.9728
52.1888
49.3933
46.5962
43.8068
41.0343
38.2868
35.5718
32.8954
30.2625
27.6767
25.1401
22.6534
20.2158
17.8246
15.4756
13.163
10.8786
8.61236
6.35211
4.08306
1.81116
75.6413
73.8067
71.5877
69.1545
66.6614
64.1362
61.5641
58.9401
56.2721
53.571
50.8466
48.1076
45.3623
42.619
39.8856
37.169
34.4756
31.8105
29.1777
26.5798
24.0181
21.4924
19.0008
16.5396
14.1034
11.6844
9.27268
6.85575
4.41789
1.96372
76.0026
74.246
72.1248
69.7964
67.4057
64.9789
62.501
59.9663
57.3809
54.7542
52.0947
49.4098
46.707
43.9938
41.2774
38.5645
35.8611
33.1724
30.5026
27.8547
25.2302
22.6296
20.0512
17.492
14.9466
12.4077
9.86527
7.30657
4.71519
2.09398
76.3029
74.6118
72.5733
70.334
68.0304
65.6877
63.2908
60.8333
58.3199
55.7588
53.1572
50.5215
47.8583
45.1744
42.4762
39.7701
37.0618
34.3564
31.6579
28.9696
26.2933
23.6295
20.9771
18.3331
15.6927
13.0484
10.3904
7.70555
4.97712
2.20566
76.5484
74.9117
72.9423
70.7775
68.5472
66.2751
63.9468
61.5549
59.1032
56.5987
54.0475
51.4553
48.8279
46.1711
43.491
40.7934
38.0836
35.3664
32.646
29.9254
27.2067
24.4905
21.7758
19.06
16.3381
13.6029
10.8445
8.04977
5.20159
2.29834
76.7509
75.1584
73.2457
71.1422
68.9721
66.7584
64.4868
62.1495
59.7493
57.2923
54.7839
52.229
49.6326
47
44.3367
41.648
38.9388
36.2138
33.4768
30.731
27.9783
25.2194
22.4534
19.6778
16.8878
14.0761
11.2328
8.34454
5.39421
2.37713
76.9072
75.3496
73.4817
71.4269
69.3046
67.1373
64.911
62.6173
60.2585
57.8399
55.3663
52.8419
50.2711
47.6589
45.0101
42.3295
39.622
36.8918
34.1426
31.3774
28.5982
25.8056
22.9988
20.1753
17.3302
14.4564
11.5438
8.57902
5.54508
2.43501
77.0396
75.5076
73.6738
71.6559
69.5698
67.4376
65.2455
62.9851
60.6578
58.2685
55.8215
53.3206
50.7698
48.1735
45.5362
42.8624
40.1567
37.423
34.665
31.8856
29.0864
26.2684
23.4306
20.5704
17.683
14.7612
11.7948
8.77028
5.6704
2.48449
77.121
75.6052
73.7938
71.8009
69.7392
67.6305
65.4613
63.2231
60.917
58.5474
56.1184
53.6333
51.0961
48.5106
45.8812
43.2122
40.5079
37.7722
35.0085
32.2196
29.4073
26.5723
23.7136
20.8286
17.9126
14.9581
11.9547
8.88864
5.74264
2.50441
77.2101
75.6955
73.8963
71.9184
69.8704
67.7742
65.6172
63.3907
61.0956
58.7361
56.316
53.8388
51.3079
48.7273
46.1012
43.4338
40.7292
37.9913
35.2234
32.4284
29.6079
26.7627
23.8919
20.9928
18.0605
15.0876
12.0633
8.97299
5.79676
2.51078
)
;

boundaryField
{
    inlet
    {
        type            zeroGradient;
    }
    outlet
    {
        type            fixedValue;
        value           uniform 0;
    }
    flap
    {
        type            zeroGradient;
    }
    upperWall
    {
        type            zeroGradient;
    }
    lowerWall
    {
        type            zeroGradient;
    }
    frontAndBack
    {
        type            empty;
    }
}


// ************************************************************************* //
