/*--------------------------------*- C++ -*----------------------------------*\
| =========                 |                                                 |
| \\      /  F ield         | OpenFOAM: The Open Source CFD Toolbox           |
|  \\    /   O peration     | Version:  2006                                  |
|   \\  /    A nd           | Website:  www.openfoam.com                      |
|    \\/     M anipulation  |                                                 |
\*---------------------------------------------------------------------------*/
FoamFile
{
    version     2.0;
    format      ascii;
    class       surfaceScalarField;
    location    "9.5";
    object      phi;
}
// * * * * * * * * * * * * * * * * * * * * * * * * * * * * * * * * * * * * * //

dimensions      [0 3 -1 0 0 0 0];
oriented        oriented;


internalField   nonuniform List<scalar> 
5457
(
0.198418
0.0015824
0.19648
0.0019374
0.194192
0.00228814
0.191508
0.00268365
0.188427
0.00308129
0.18495
0.00347688
0.181072
0.00387871
0.176777
0.00429417
0.172049
0.0047284
0.166864
0.00518543
0.161195
0.00566874
0.155014
0.00618129
0.148288
0.00672525
0.140987
0.00730164
0.133077
0.00790982
0.12453
0.00854676
0.115324
0.0092062
0.105446
0.00987746
0.0949021
0.0105443
0.0837183
0.0111837
0.0719536
0.0117647
0.0597053
0.0122483
0.0471167
0.0125886
0.0343767
0.01274
0.021682
0.0126947
0.00903209
0.0126499
-0.0029196
0.0119517
-0.00847339
0.00555379
-0.00804342
-0.000429965
-0.00804342
0.199928
0.00165426
0.199176
0.00268988
0.197965
0.00349913
0.196331
0.0043169
0.194271
0.00514143
0.191781
0.00596706
0.188854
0.00680583
0.185477
0.0076712
0.181632
0.00857351
0.177296
0.00952105
0.172444
0.0105211
0.167045
0.0115799
0.161068
0.0127023
0.154479
0.0138909
0.147243
0.0151452
0.13933
0.0164602
0.130712
0.0178245
0.121371
0.0192179
0.111306
0.0206094
0.100536
0.0219538
0.0891115
0.0231893
0.0771238
0.024236
0.064718
0.0249945
0.0521107
0.0253472
0.0396508
0.0251546
0.0281015
0.0241992
0.0185911
0.021462
0.00879347
0.0153515
0.00118167
0.00718184
-0.00686176
0.199781
0.00187372
0.199087
0.00338376
0.197946
0.00464011
0.196409
0.00585359
0.194483
0.00706766
0.192164
0.00828622
0.189446
0.00952339
0.18632
0.0107968
0.182772
0.0121216
0.178783
0.0135101
0.174331
0.0149735
0.16939
0.0165212
0.163931
0.0181612
0.157923
0.0198984
0.151335
0.0217338
0.144133
0.0236623
0.136287
0.0256703
0.127772
0.0277322
0.118575
0.0298066
0.108697
0.0318319
0.0981651
0.0337214
0.0870427
0.0353584
0.075446
0.0365912
0.0635691
0.0372242
0.0517276
0.0369961
0.040393
0.0355338
0.0297353
0.0321198
0.0191634
0.0259233
0.00959602
0.0167492
0.00273426
0.199703
0.00217067
0.199008
0.00407911
0.197887
0.00576069
0.196376
0.00736458
0.194488
0.00895586
0.192222
0.0105523
0.189574
0.0121712
0.186538
0.013833
0.183103
0.0155562
0.179257
0.0173568
0.174981
0.0192487
0.170258
0.0212441
0.165066
0.0233531
0.159382
0.0255829
0.15318
0.0279358
0.146434
0.0304078
0.13912
0.032985
0.131212
0.0356398
0.122692
0.0383261
0.113551
0.0409731
0.103794
0.0434785
0.0934515
0.0457011
0.0825902
0.0474524
0.0713276
0.0484868
0.059836
0.0484877
0.0483126
0.0470572
0.0368074
0.043625
0.0251853
0.0375454
0.0133343
0.0286003
0.0160685
0.199667
0.00250328
0.198964
0.0047824
0.197863
0.00686206
0.196381
0.00884633
0.194532
0.0108047
0.192317
0.0127671
0.189733
0.0147551
0.186775
0.0167917
0.183433
0.0188981
0.179697
0.0210928
0.175554
0.0233919
0.170988
0.0258095
0.165984
0.0283572
0.160524
0.0310434
0.154588
0.0338717
0.148157
0.0368387
0.141211
0.0399312
0.133729
0.0431217
0.125692
0.0463633
0.117082
0.0495828
0.107888
0.0526723
0.098109
0.0554803
0.087759
0.0578025
0.0768731
0.0593727
0.0655034
0.0598574
0.0537033
0.0588574
0.0414501
0.0558782
0.0285849
0.0504105
0.0148509
0.0423343
0.0309194
0.199653
0.0028505
0.198949
0.0054865
0.197871
0.00794006
0.196426
0.0102906
0.194626
0.0126048
0.192473
0.0149207
0.189963
0.0172649
0.187092
0.0196627
0.183853
0.0221376
0.180235
0.0247102
0.176228
0.0273986
0.171819
0.0302184
0.166994
0.0331823
0.161738
0.0362997
0.156035
0.039575
0.149868
0.0430057
0.143219
0.0465798
0.136069
0.0502715
0.128397
0.054036
0.120177
0.0578029
0.111382
0.061467
0.101983
0.0648794
0.0919485
0.0678368
0.0812477
0.0700735
0.0698482
0.0712569
0.0577114
0.0709941
0.0447561
0.0688335
0.0308458
0.0643208
0.0158714
0.0573088
0.0467908
0.19965
0.00320046
0.198954
0.00618252
0.197904
0.00898973
0.196505
0.0116904
0.194762
0.0143471
0.19268
0.0170028
0.190256
0.0196887
0.187487
0.0224325
0.184364
0.0252598
0.180881
0.0281933
0.177027
0.0312528
0.17279
0.0344552
0.168158
0.0378147
0.163116
0.0413416
0.157649
0.0450416
0.151741
0.0489137
0.145373
0.0529478
0.138523
0.0571215
0.131165
0.0613948
0.123263
0.0657042
0.114776
0.0699542
0.105648
0.0740077
0.0958097
0.077675
0.085179
0.0807042
0.0736612
0.0827747
0.061155
0.0835004
0.0475498
0.0824387
0.0327546
0.0791159
0.0167807
0.0732826
0.0635716
0.199655
0.00354582
0.198974
0.00686266
0.197959
0.0100055
0.19661
0.0130391
0.194934
0.0160232
0.192933
0.0190035
0.190607
0.0220148
0.187952
0.0250878
0.184961
0.0282499
0.181629
0.0315256
0.177946
0.0349364
0.1739
0.0385009
0.16948
0.0422345
0.164672
0.0461494
0.159461
0.0502529
0.153828
0.0545464
0.147753
0.0590235
0.141207
0.0636667
0.134158
0.0684437
0.126561
0.0733016
0.118355
0.07816
0.109462
0.0829011
0.0997785
0.0873582
0.089179
0.0913037
0.0775168
0.0944368
0.0646396
0.0963776
0.0504107
0.0966676
0.0347631
0.0947635
0.0177871
0.0902586
0.0813587
0.199664
0.00388166
0.199006
0.00752049
0.19803
0.0109818
0.196739
0.0143306
0.195136
0.0176253
0.193227
0.0209133
0.191009
0.0242328
0.18848
0.0276166
0.185636
0.031094
0.18247
0.0346915
0.178974
0.038432
0.175139
0.042336
0.170953
0.0464207
0.166402
0.0507001
0.161471
0.0551843
0.156139
0.0598783
0.150382
0.0647804
0.144168
0.0698803
0.137456
0.0751559
0.130189
0.0805689
0.12229
0.0860586
0.113658
0.0915331
0.104159
0.0968575
0.0936241
0.101839
0.0818547
0.106206
0.0686397
0.109593
0.0537934
0.111514
0.03723
0.111327
0.0190798
0.108409
0.100438
0.199677
0.00420445
0.199047
0.00815076
0.198116
0.0119132
0.196887
0.0155589
0.195366
0.0191463
0.193556
0.022724
0.191456
0.0263327
0.189065
0.0300074
0.186379
0.0337794
0.183394
0.0376765
0.180103
0.0417235
0.176497
0.0459424
0.172565
0.0503526
0.168294
0.0549706
0.163669
0.0598096
0.158668
0.064879
0.153265
0.0701836
0.147423
0.0757219
0.141095
0.0814844
0.134213
0.0874506
0.126688
0.093584
0.118396
0.0998252
0.109173
0.10608
0.0988079
0.112204
0.0870403
0.117974
0.0735777
0.123055
0.0581373
0.126954
0.0405431
0.128921
0.0208964
0.128056
0.121335
0.199693
0.00451154
0.199095
0.00874916
0.198213
0.0127948
0.197053
0.0167187
0.19562
0.0205797
0.193916
0.0244279
0.191943
0.0283058
0.1897
0.0322504
0.187185
0.0362945
0.184394
0.0404675
0.181321
0.0447958
0.17796
0.0493031
0.174302
0.0540109
0.170335
0.0589382
0.166042
0.064102
0.161404
0.0695169
0.156393
0.0751945
0.150971
0.0811437
0.145087
0.0873693
0.138666
0.0938709
0.13161
0.10064
0.123779
0.107656
0.114984
0.114876
0.104969
0.122219
0.0934041
0.129539
0.0798825
0.136577
0.063953
0.142884
0.0452225
0.147652
0.0236044
0.149674
0.144939
0.199711
0.00480086
0.199148
0.00931219
0.19832
0.0136224
0.197234
0.017805
0.195894
0.0219199
0.194303
0.0260183
0.192465
0.0301444
0.190378
0.0343367
0.188043
0.0386294
0.185458
0.0430532
0.182618
0.047636
0.179518
0.052403
0.176151
0.0573778
0.172507
0.0625821
0.168572
0.0680365
0.164329
0.0737606
0.15975
0.0797737
0.154798
0.086095
0.149423
0.0927442
0.143552
0.0997421
0.137082
0.10711
0.129867
0.114871
0.121702
0.12304
0.112299
0.131622
0.101255
0.140583
0.0880254
0.149806
0.0719028
0.159006
0.0520684
0.167486
0.0278743
0.173868
0.172814
0.19973
0.00507079
0.199205
0.00983698
0.198435
0.0143925
0.197427
0.0188136
0.196184
0.023162
0.194713
0.0274896
0.193016
0.0318418
0.191094
0.0362586
0.188948
0.0407753
0.186577
0.0454237
0.183981
0.0502327
0.181155
0.0552291
0.178094
0.060438
0.174793
0.0658836
0.171239
0.0715899
0.167419
0.0775812
0.163309
0.0838836
0.158878
0.090526
0.15408
0.0975421
0.148849
0.104973
0.143091
0.112869
0.136668
0.121294
0.129377
0.130331
0.120924
0.140076
0.110861
0.150645
0.0985176
0.16215
0.0828733
0.174651
0.0624087
0.187951
0.0351058
0.201171
0.207919
0.199751
0.00532009
0.199266
0.0103212
0.198557
0.0151019
0.197629
0.0197412
0.19649
0.0243019
0.195142
0.0288369
0.193591
0.0333927
0.19184
0.0380101
0.18989
0.0427254
0.187742
0.047571
0.185398
0.0525769
0.182857
0.0577706
0.180116
0.0631787
0.177172
0.0688273
0.174019
0.074743
0.170647
0.0809539
0.167039
0.0874915
0.163172
0.0943925
0.159012
0.101702
0.154508
0.109477
0.149584
0.117793
0.14413
0.126749
0.137976
0.136484
0.130865
0.147188
0.12238
0.15913
0.111828
0.172702
0.0979787
0.1885
0.0784947
0.207435
0.0486285
0.231037
0.256548
0.199772
0.00554779
0.19933
0.0107631
0.198684
0.0157483
0.19784
0.0205848
0.196806
0.0253363
0.195586
0.0300566
0.194186
0.0347928
0.19261
0.0395864
0.190861
0.0444742
0.188943
0.0494891
0.186858
0.0546615
0.184609
0.0600195
0.182198
0.0655905
0.179623
0.0714016
0.176885
0.077481
0.17398
0.0838594
0.1709
0.0905717
0.167633
0.0976595
0.16416
0.105175
0.160452
0.113185
0.156465
0.12178
0.152133
0.131081
0.147355
0.141262
0.141972
0.15257
0.135721
0.165381
0.12813
0.180293
0.118259
0.198372
0.103855
0.221838
0.0776154
0.257277
0.334163
0.00386129
-0.00386129
0.00754045
-0.00367916
0.0105667
-0.00302626
0.0129164
-0.00234968
0.0146627
-0.00174628
0.0158843
-0.00122165
0.0166479
-0.000763567
0.0170094
-0.000361555
0.017032
-2.25261e-05
0.0167441
0.000287902
0.0162186
0.000525426
0.0155077
0.000710961
0.0146654
0.000842317
0.013747
0.000918406
0.0128069
0.000940053
0.0118951
0.000911833
0.0110528
0.000842256
0.0103096
0.000743188
0.00968061
0.000629012
0.00916534
0.000515272
0.00874986
0.000415476
0.00841276
0.000337108
0.00813325
0.000279511
0.00789679
0.000236451
0.00769533
0.000201463
0.00752438
0.000170952
0.00738001
0.000144374
0.00725694
0.000123066
0.00714925
0.000107691
8.61303e-05
0.00358795
-0.00744924
0.00703187
-0.00712308
0.00992919
-0.00592358
0.0122686
-0.00468905
0.0141231
-0.00360084
0.0155659
-0.00266446
0.016657
-0.00185466
0.0174419
-0.0011464
0.0179359
-0.000516515
0.018177
4.6717e-05
0.0181472
0.000555281
0.0179093
0.000948892
0.0175166
0.00123499
0.017025
0.00140995
0.01649
0.00147511
0.0159619
0.00143996
0.0154823
0.00132179
0.0150801
0.00114538
0.0147691
0.000940068
0.0145471
0.000737267
0.0143992
0.00056333
0.0143048
0.000431591
0.0142454
0.00033888
0.0142099
0.000271937
0.014193
0.000218374
0.0141919
0.000172043
0.0142035
0.000132796
0.0142227
0.000103843
0.0142422
8.81505e-05
8.8118e-05
0.00305821
-0.0105074
0.0059051
-0.00996997
0.00826406
-0.00828254
0.0101672
-0.00659215
0.0116904
-0.0051241
0.0128947
-0.00386871
0.0138276
-0.00278755
0.0145268
-0.00184561
0.0150257
-0.00101543
0.015348
-0.00027559
0.015511
0.000392295
0.0155167
0.000943171
0.0154044
0.00134729
0.0152178
0.00159657
0.014999
0.0016939
0.0147855
0.00165344
0.0146071
0.00150021
0.0144839
0.00126851
0.0144239
0.00100013
0.0144212
0.000739991
0.0144592
0.000525261
0.0145177
0.000373155
0.0145812
0.000275383
0.0146426
0.000210457
0.0147003
0.000160732
0.0147538
0.000118554
0.0148019
8.464e-05
0.0148415
6.42438e-05
0.0148665
6.31326e-05
9.18584e-05
0.00247644
-0.0129839
0.00461976
-0.0121133
0.00632271
-0.00998549
0.00768496
-0.0079544
0.00878188
-0.00622102
0.00965781
-0.00474464
0.0103453
-0.00347506
0.0108686
-0.00236888
0.0112481
-0.00139492
0.0115074
-0.000534907
0.0116631
0.000236603
0.0117091
0.000897116
0.0116806
0.00137581
0.0116169
0.00166031
0.0115489
0.00176192
0.0114998
0.00170252
0.0114851
0.00151485
0.011512
0.00124159
0.0115778
0.000934373
0.0116682
0.00064957
0.0117603
0.000433147
0.0118299
0.000303552
0.0118646
0.000240704
0.0118638
0.000211251
0.0118326
0.000191987
0.0117762
0.0001749
0.0116993
0.000161606
0.0116052
0.000158332
0.0114976
0.000170695
0.000196938
0.00180231
-0.0147862
0.00316321
-0.0134742
0.00414111
-0.0109634
0.00490298
-0.00871626
0.00551276
-0.00683081
0.00599918
-0.00523106
0.00638219
-0.00385806
0.00667511
-0.00266179
0.00688668
-0.00160649
0.00703194
-0.000680166
0.00711498
0.000153569
0.00711137
0.000900722
0.00708108
0.0014061
0.00705617
0.00168523
0.00705212
0.00176597
0.00707399
0.00168064
0.00711808
0.00147077
0.00717331
0.00118636
0.00722357
0.000884119
0.00724497
0.000628164
0.0072121
0.000466014
0.00710222
0.000413439
0.0069194
0.000423527
0.00668287
0.000447781
0.00641231
0.000462545
0.00612333
0.000463878
0.00582395
0.000460986
0.00551793
0.00046435
0.00521668
0.000471949
0.000435575
0.0010354
-0.0158216
0.0015289
-0.0139677
0.00173835
-0.0111728
0.00185392
-0.00883183
0.00191318
-0.00689006
0.00193957
-0.00525745
0.00194442
-0.00386292
0.00193633
-0.0026537
0.00192637
-0.00159653
0.00190874
-0.000662534
0.00183487
0.000227438
0.00175478
0.000980808
0.00169438
0.0014665
0.0016603
0.00171931
0.00163791
0.00178835
0.00159866
0.0017199
0.00150838
0.00156105
0.00133423
0.0013605
0.00105897
0.00115938
0.000696257
0.000990878
0.000280216
0.000882055
-0.000138491
0.000832146
-0.000539185
0.000824221
-0.00091573
0.000824326
-0.00126442
0.000811236
-0.00158765
0.000787109
-0.00189165
0.000764979
-0.00218318
0.00075588
-0.00245288
0.000741649
0.000663826
0.000104318
-0.0159259
-0.000292975
-0.0135704
-0.00087789
-0.0105879
-0.00146418
-0.00824554
-0.00203241
-0.00632183
-0.00255267
-0.00473719
-0.00301421
-0.00340138
-0.00341575
-0.00225215
-0.00378122
-0.00123106
-0.00415373
-0.000290018
-0.00443766
0.000511361
-0.00459071
0.00113386
-0.00470562
0.00158142
-0.00483364
0.00184733
-0.00500394
0.00195865
-0.00523575
0.00195172
-0.00553574
0.00186104
-0.00589622
0.00172098
-0.00630162
0.00156478
-0.00673272
0.00142199
-0.00716653
0.00131586
-0.00758402
0.00124964
-0.00796674
0.00120694
-0.00830571
0.00116329
-0.00859949
0.00110502
-0.00885131
0.00103894
-0.00906883
0.000982495
-0.00925729
0.000944335
-0.00941848
0.000902844
0.000841304
-0.000864144
-0.0150618
-0.00225564
-0.0121789
-0.00368472
-0.00915886
-0.00506947
-0.00686079
-0.00633619
-0.00505511
-0.00746397
-0.00360941
-0.00845071
-0.00241464
-0.00930319
-0.00139968
-0.0100357
-0.000498502
-0.0106011
0.000275377
-0.0109823
0.000892485
-0.0112434
0.00139499
-0.011451
0.00178906
-0.0116547
0.002051
-0.0118851
0.00218903
-0.0121546
0.00222123
-0.0124627
0.00216912
-0.0128012
0.00205952
-0.0131609
0.0019244
-0.0135335
0.00179461
-0.0139079
0.00169029
-0.0142696
0.00161135
-0.014602
0.00153931
-0.0148911
0.00145239
-0.0151304
0.00134432
-0.0153223
0.0012309
-0.0154761
0.00113621
-0.0156014
0.00106964
-0.0157144
0.0010159
0.000976574
-0.0019784
-0.0130834
-0.00438937
-0.00976792
-0.00677427
-0.00677396
-0.00898311
-0.00465195
-0.0109327
-0.0031055
-0.0126022
-0.00193993
-0.0140095
-0.00100733
-0.0151739
-0.000235254
-0.0160617
0.000389252
-0.0166824
0.000896096
-0.0171268
0.00133684
-0.0174614
0.00172959
-0.0177201
0.00204783
-0.0179452
0.00227608
-0.0181694
0.00241321
-0.0184108
0.00246266
-0.0186742
0.00243248
-0.0189563
0.00234165
-0.0192529
0.00222101
-0.0195613
0.00210296
-0.0198768
0.00200582
-0.0201892
0.00192379
-0.020482
0.00183207
-0.0207368
0.00170723
-0.0209416
0.0015491
-0.0210961
0.0013854
-0.0212109
0.00125103
-0.0213012
0.00115989
-0.0213878
0.00110252
0.00108131
-0.00329733
-0.00978603
-0.00688781
-0.00617743
-0.0102768
-0.00338495
-0.0132608
-0.00166799
-0.015786
-0.000580239
-0.0178472
0.000121226
-0.0194448
0.000590222
-0.0206162
0.000936167
-0.0214685
0.00124156
-0.0221154
0.00154298
-0.0226156
0.00183705
-0.0229918
0.00210586
-0.0232752
0.00233114
-0.0235041
0.00250503
-0.0237146
0.00262368
-0.0239299
0.00267803
-0.0241578
0.00266036
-0.024396
0.00257981
-0.0246421
0.00246711
-0.0248983
0.00235921
-0.0251672
0.00227472
-0.0254437
0.0022003
-0.0257114
0.00209971
-0.0259464
0.00194227
-0.0261295
0.00173216
-0.0262571
0.00151296
-0.0263428
0.00133677
-0.026408
0.00122509
-0.0264741
0.00116863
0.0011608
-0.00507223
-0.00471381
-0.0104614
-0.000788219
-0.0148953
0.00104889
-0.0183383
0.00177507
-0.0209147
0.00199612
-0.0228265
0.00203306
-0.0242744
0.0020381
-0.0254015
0.0020632
-0.0262801
0.00212017
-0.0269604
0.00222332
-0.0274834
0.00236004
-0.0278769
0.00249937
-0.0281676
0.00262188
-0.0283919
0.00272931
-0.0285898
0.00282157
-0.028789
0.00287716
-0.028996
0.00286742
-0.0292047
0.00278845
-0.0294116
0.00267402
-0.0296247
0.00257236
-0.0298562
0.00250615
-0.0301077
0.00245188
-0.0303625
0.00235452
-0.030589
0.00216879
-0.0307579
0.00190099
-0.0308614
0.00161649
-0.0309191
0.00139445
-0.0309609
0.00126693
-0.0310081
0.00121577
0.001218
-0.00793992
0.00322611
-0.0144677
0.00573953
-0.0191612
0.00574246
-0.0226182
0.00523199
-0.0252055
0.00458345
-0.0271506
0.00397817
-0.0286328
0.00352034
-0.0297684
0.00319874
-0.0306351
0.00298687
-0.0312987
0.00288699
-0.0318121
0.00287341
-0.0322017
0.00288891
-0.0324834
0.00290359
-0.0326902
0.00293613
-0.0328703
0.00300171
-0.0330581
0.00306492
-0.0332556
0.00306493
-0.0334455
0.00297833
-0.0336192
0.00284772
-0.0337918
0.00274504
-0.0339897
0.00270397
-0.0342243
0.00268649
-0.0344776
0.00260781
-0.0347064
0.00239759
-0.0348666
0.0020612
-0.0349447
0.00169459
-0.0349696
0.00141932
-0.0349854
0.00128278
-0.0350143
0.00124466
0.00125554
-0.0101285
0.0133547
-0.017894
0.013505
-0.0232504
0.0110989
-0.026932
0.00891355
-0.0295298
0.0071813
-0.0313781
0.00582644
-0.0327512
0.00489342
-0.0338035
0.00425107
-0.0345914
0.00377478
-0.0351843
0.00347993
-0.0356543
0.00334339
-0.036023
0.00325759
-0.0362803
0.00316089
-0.0364503
0.00310613
-0.0365991
0.00315049
-0.0367758
0.0032416
-0.036974
0.00326315
-0.0371543
0.00315864
-0.0372955
0.00298895
-0.0374229
0.00287241
-0.037585
0.00286608
-0.0378084
0.00290986
-0.0380723
0.00287171
-0.0383161
0.00264138
-0.0384734
0.00221856
-0.038521
0.00174222
-0.0385025
0.0014008
-0.0384863
0.00126661
-0.0384988
0.00125712
0.00127742
-0.0134115
0.0267662
-0.0230615
0.023155
-0.0284888
0.0165262
-0.0317663
0.012191
-0.0340663
0.0094813
-0.0355623
0.0073225
-0.036635
0.00596612
-0.0375134
0.00512942
-0.0381627
0.00442416
-0.0386264
0.0039436
-0.0390198
0.00373679
-0.0393624
0.00360018
-0.0395847
0.00338317
-0.0396883
0.00320977
-0.0397795
0.00324171
-0.0399422
0.00340426
-0.0401556
0.00347657
-0.0403383
0.00334134
-0.0404432
0.00309385
-0.0405107
0.00293984
-0.0406274
0.00298285
-0.0408435
0.00312593
-0.0411326
0.00316084
-0.0414079
0.00291668
-0.0415697
0.00238036
-0.0415777
0.00175021
-0.0414971
0.0013202
-0.0414384
0.00120788
-0.0414394
0.00125816
0.00129256
-0.0190822
0.0458484
-0.0307871
0.0348599
-0.0355831
0.0213221
-0.037238
0.0138459
-0.0388993
0.0111426
-0.039642
0.00806523
-0.0401284
0.00645246
-0.0408333
0.00583438
-0.0413632
0.00495402
-0.041618
0.00419842
-0.0418775
0.00399627
-0.0421972
0.00391987
-0.0423819
0.00356789
-0.0423772
0.00320505
-0.0423662
0.00323067
-0.0425133
0.00355136
-0.0427699
0.00373325
-0.0429762
0.00354756
-0.0430345
0.00315218
-0.0430106
0.002916
-0.0430597
0.00303191
-0.0432699
0.00333607
-0.0436024
0.00349337
-0.0439311
0.0032454
-0.0441072
0.00255649
-0.0440609
0.00170384
-0.0438867
0.00114608
-0.0437673
0.00108842
-0.0437682
0.00125904
0.00132207
0.207447
0.00576055
0.207034
0.0111757
0.206432
0.0163509
0.205647
0.0213692
0.204688
0.0262955
0.203561
0.0311841
0.202271
0.0360823
0.200825
0.0410322
0.199229
0.0460705
0.197488
0.0512305
0.195607
0.0565423
0.193592
0.0620344
0.191448
0.0677341
0.189181
0.0736687
0.186795
0.0798669
0.184295
0.08636
0.181682
0.0931838
0.17896
0.100381
0.176129
0.108007
0.173185
0.116129
0.170125
0.124839
0.166945
0.134262
0.163638
0.144569
0.160206
0.156002
0.15667
0.168917
0.153122
0.18384
0.149925
0.201569
0.148745
0.223017
0.160344
0.245679
0.258916
0.23559
0.21249
0.00595297
0.212118
0.0115486
0.211574
0.0168945
0.210868
0.0220751
0.210008
0.027156
0.209
0.0321915
0.207853
0.0372294
0.206574
0.0423114
0.20517
0.0474742
0.20365
0.0527506
0.202022
0.0581704
0.200295
0.0637614
0.198479
0.0695502
0.196584
0.0755635
0.194622
0.0818288
0.192606
0.0883761
0.19055
0.0952397
0.188472
0.10246
0.186393
0.110086
0.184341
0.118181
0.182356
0.126824
0.180499
0.136119
0.178869
0.146199
0.177637
0.157235
0.177122
0.169431
0.177977
0.182985
0.181614
0.197933
0.190626
0.214005
0.206017
0.230287
0.245866
0.219067
0.217658
0.0061229
0.217329
0.0118776
0.21685
0.0173731
0.21623
0.0226948
0.215478
0.0279083
0.214601
0.0330681
0.213609
0.0382216
0.212511
0.04341
0.211315
0.0486695
0.210034
0.0540321
0.208678
0.0595266
0.20726
0.0651794
0.205794
0.0710159
0.204297
0.0770606
0.202787
0.0833388
0.201286
0.0898772
0.19982
0.0967055
0.198422
0.103858
0.197133
0.111375
0.19601
0.119304
0.19513
0.127704
0.194606
0.136642
0.194609
0.146196
0.195401
0.156443
0.197392
0.167441
0.201191
0.179186
0.207568
0.191555
0.217187
0.204387
0.229775
0.217699
0.228918
0.246723
0.222951
0.00626835
0.22267
0.0121588
0.222262
0.0177813
0.221736
0.0232211
0.2211
0.0285438
0.220365
0.0338036
0.219539
0.0390471
0.218634
0.0443149
0.217661
0.0496421
0.216634
0.0550593
0.215567
0.0605939
0.214476
0.0662705
0.21338
0.0721119
0.2123
0.0781399
0.211263
0.0843761
0.210298
0.0908423
0.209442
0.0975618
0.20874
0.10456
0.208251
0.111863
0.208052
0.119503
0.208245
0.127511
0.20897
0.135917
0.210421
0.144746
0.21286
0.154004
0.216634
0.163666
0.222163
0.173657
0.229898
0.18382
0.240412
0.193873
0.254626
0.203486
0.21041
0.273135
0.228374
0.00638745
0.228144
0.0123888
0.227812
0.0181138
0.227385
0.0236473
0.226875
0.0290545
0.22629
0.0343887
0.225641
0.0396956
0.224942
0.0450145
0.224204
0.0503793
0.223445
0.0558188
0.222681
0.0613583
0.221931
0.06702
0.221219
0.0728237
0.220572
0.0787876
0.220019
0.0849283
0.2196
0.0912619
0.219358
0.0978037
0.219349
0.104568
0.219643
0.11157
0.220328
0.118819
0.221516
0.126323
0.223352
0.13408
0.226022
0.142076
0.229756
0.15027
0.234835
0.158588
0.241588
0.166904
0.250394
0.175014
0.261702
0.182565
0.275985
0.189202
0.193839
0.292556
0.233929
0.00647853
0.233754
0.0125643
0.233502
0.0183659
0.233182
0.0239676
0.232803
0.0294332
0.232376
0.0348152
0.231914
0.0401578
0.23143
0.045499
0.230938
0.0508706
0.230457
0.0562997
0.230007
0.0618089
0.229609
0.0674176
0.229291
0.0731422
0.229082
0.0789963
0.229019
0.0849916
0.229143
0.0911374
0.229506
0.0974407
0.230169
0.103906
0.231206
0.110533
0.232708
0.117316
0.234788
0.124243
0.237581
0.131287
0.241252
0.138405
0.245992
0.145529
0.252024
0.152557
0.259589
0.159339
0.26893
0.165672
0.280229
0.171267
0.293582
0.175849
0.178905
0.308516
0.23962
0.00654009
0.239502
0.0126823
0.239334
0.0185337
0.239125
0.0241766
0.238884
0.0296738
0.238623
0.0350761
0.238355
0.0404263
0.238094
0.0457603
0.237856
0.0511081
0.237661
0.0564943
0.237532
0.0619388
0.237491
0.0674578
0.23757
0.0730638
0.2378
0.0787661
0.238221
0.0845708
0.238878
0.0904806
0.239824
0.0964947
0.241122
0.102608
0.242846
0.108808
0.245085
0.115077
0.247942
0.121387
0.251535
0.127694
0.256001
0.133939
0.26149
0.140041
0.268158
0.145889
0.276156
0.151341
0.285604
0.156224
0.29655
0.160321
0.308983
0.163416
0.165242
0.322646
0.245448
0.00657087
0.24539
0.0127406
0.24531
0.0186135
0.245217
0.0242701
0.245119
0.0297713
0.245029
0.0351661
0.24496
0.0404953
0.244928
0.0457929
0.244949
0.0510865
0.245045
0.0563981
0.245239
0.0617449
0.245558
0.0671396
0.24603
0.0725908
0.246693
0.0781036
0.247585
0.0836787
0.248753
0.0893128
0.250249
0.0949981
0.252136
0.100721
0.254482
0.106462
0.257369
0.112191
0.260884
0.117871
0.265127
0.123451
0.270202
0.128864
0.276217
0.134026
0.283271
0.138834
0.291446
0.143166
0.300789
0.14688
0.311291
0.149819
0.322884
0.151823
0.15276
0.335366
0.251418
0.00656986
0.251422
0.012737
0.251432
0.0186027
0.251458
0.0242447
0.251507
0.0297219
0.251592
0.0350811
0.251726
0.0403611
0.251926
0.0455935
0.252209
0.0508034
0.252597
0.0560103
0.253113
0.0612283
0.253786
0.0664669
0.254646
0.0717312
0.255727
0.0770219
0.257071
0.0823352
0.258721
0.0876627
0.260728
0.0929909
0.263149
0.0983002
0.266046
0.103564
0.269488
0.108749
0.273549
0.113811
0.278303
0.118696
0.283828
0.123339
0.290192
0.127662
0.297452
0.131574
0.305644
0.134975
0.314768
0.137756
0.324779
0.139808
0.335579
0.141023
0.141343
0.346996
0.257532
0.00653629
0.257599
0.0126703
0.257702
0.0184994
0.257849
0.0240982
0.258048
0.0295233
0.25831
0.034819
0.258649
0.0400218
0.259081
0.045161
0.259626
0.0502592
0.260303
0.055333
0.261137
0.0603939
0.262156
0.0654483
0.263389
0.0704978
0.264872
0.0755396
0.266641
0.0805661
0.268739
0.0855649
0.271211
0.0905184
0.274108
0.095403
0.277484
0.100189
0.281393
0.10484
0.285893
0.109311
0.291039
0.11355
0.296881
0.117497
0.303459
0.121084
0.310797
0.124236
0.318898
0.126874
0.327735
0.12892
0.337243
0.1303
0.347318
0.130948
0.130844
0.357818
0.263794
0.00646971
0.263925
0.0125395
0.264122
0.0183023
0.264391
0.0238294
0.26474
0.0291744
0.265179
0.0343792
0.265723
0.0394779
0.266387
0.0444972
0.267189
0.0494571
0.26815
0.0543719
0.269294
0.0592503
0.270646
0.0640959
0.272236
0.0689077
0.274096
0.0736797
0.276261
0.0784015
0.278768
0.083058
0.281657
0.0876288
0.284972
0.0920886
0.288754
0.0964064
0.293048
0.100546
0.297895
0.104465
0.30333
0.108115
0.309383
0.111444
0.316071
0.114396
0.323396
0.116911
0.331339
0.118931
0.339857
0.120402
0.34888
0.121277
0.358309
0.121519
0.121127
0.368026
0.270207
0.00636994
0.270402
0.0123444
0.270693
0.0180113
0.271084
0.0234382
0.271583
0.0286756
0.272199
0.0337629
0.272946
0.0387315
0.273837
0.0436057
0.274891
0.0484031
0.276127
0.0531356
0.277568
0.0578094
0.279238
0.0624259
0.281164
0.0669816
0.283375
0.0714687
0.285902
0.0758747
0.288778
0.0801827
0.292035
0.0843713
0.295709
0.088415
0.299832
0.0922834
0.304435
0.0959424
0.309546
0.0993535
0.315186
0.102475
0.321367
0.105264
0.328088
0.107674
0.335337
0.109661
0.343083
0.111185
0.351276
0.112209
0.359845
0.112707
0.368703
0.112661
0.112082
0.377749
0.276774
0.00623708
0.277033
0.0120852
0.277417
0.0176269
0.27793
0.0229256
0.278577
0.0280287
0.279367
0.0329729
0.280311
0.0377869
0.281425
0.0424926
0.282722
0.0471055
0.284223
0.051635
0.285947
0.0560856
0.287916
0.0604566
0.290154
0.0647431
0.292688
0.0689355
0.295542
0.0730204
0.298744
0.0769804
0.302321
0.0807942
0.306299
0.0844372
0.310701
0.0878813
0.315548
0.0910956
0.320855
0.0940468
0.32663
0.0967002
0.332873
0.0990208
0.339572
0.100974
0.346705
0.102528
0.354234
0.103656
0.362108
0.104336
0.370261
0.104554
0.378614
0.104307
0.103611
0.387085
0.283498
0.00607152
0.283821
0.0117626
0.284297
0.0171503
0.284929
0.0222936
0.285721
0.0272367
0.286681
0.0320134
0.287818
0.03665
0.289144
0.0411659
0.290675
0.0455745
0.292427
0.0498836
0.294417
0.0540957
0.296664
0.0582089
0.29919
0.0622171
0.302016
0.06611
0.305162
0.069874
0.308651
0.0734919
0.312502
0.0769436
0.316732
0.0802063
0.321359
0.083255
0.326392
0.0860628
0.331836
0.0886021
0.337691
0.090845
0.343948
0.0927645
0.350586
0.0943356
0.357578
0.0955366
0.364884
0.0963507
0.372453
0.0967668
0.380226
0.0967812
0.388136
0.0963972
0.0956353
0.396111
0.290384
0.00587388
0.290769
0.0113781
0.291335
0.0165836
0.292084
0.0215453
0.293017
0.0263038
0.29414
0.0308901
0.295462
0.0353281
0.296993
0.039635
0.298745
0.0438223
0.300732
0.0478962
0.30297
0.051858
0.305474
0.0557047
0.308262
0.0594296
0.311349
0.0630225
0.314753
0.06647
0.318489
0.0697561
0.32257
0.0728622
0.327008
0.0757683
0.331811
0.0784526
0.336981
0.0808929
0.342516
0.0830668
0.348408
0.0849528
0.354641
0.0865311
0.361193
0.0877845
0.36803
0.0886995
0.375113
0.0892671
0.382396
0.0894836
0.389826
0.0893516
0.397344
0.0888792
0.0880877
0.404892
0.297435
0.00564505
0.29788
0.0109332
0.298534
0.0159296
0.299394
0.0206844
0.300463
0.025235
0.301744
0.0296097
0.303242
0.0338299
0.304966
0.0379107
0.306926
0.0418622
0.309134
0.045689
0.3116
0.0493916
0.314338
0.0529665
0.317361
0.0564068
0.320681
0.0597027
0.324309
0.0628417
0.328256
0.0658092
0.332529
0.0685891
0.337134
0.0711638
0.342071
0.0735155
0.347337
0.0756262
0.352926
0.0774785
0.358822
0.0790565
0.365006
0.0803466
0.371453
0.0813378
0.37813
0.0820228
0.384999
0.0823983
0.392016
0.0824659
0.399136
0.0822318
0.406308
0.0817071
0.0809123
0.413483
0.304654
0.00538608
0.305157
0.0104301
0.305895
0.0151913
0.306864
0.0197154
0.308063
0.0240364
0.309493
0.0281798
0.311158
0.0321648
0.313064
0.0360048
0.315218
0.0397081
0.317628
0.0432786
0.320304
0.046716
0.323254
0.0500167
0.326486
0.053174
0.33001
0.0561788
0.333832
0.0590198
0.337957
0.0616844
0.342387
0.0641587
0.347123
0.0664282
0.35216
0.0684785
0.357491
0.0702955
0.363102
0.0718666
0.368978
0.0731806
0.375096
0.0742287
0.381429
0.0750048
0.387946
0.0755063
0.39461
0.075734
0.401383
0.0756927
0.408224
0.0753909
0.41509
0.0748409
0.0740622
0.421941
0.312046
0.00509819
0.312605
0.00987129
0.313424
0.0143726
0.314496
0.0186434
0.315818
0.0227145
0.317389
0.0266088
0.31921
0.0303432
0.321286
0.0339294
0.323619
0.0373747
0.326216
0.0406819
0.329081
0.0438505
0.332221
0.046877
0.33564
0.0497552
0.339342
0.0524769
0.343329
0.0550325
0.347603
0.057411
0.35216
0.0596011
0.356997
0.0615911
0.362106
0.0633698
0.367475
0.0649269
0.373088
0.0662534
0.378927
0.0673421
0.384967
0.0681881
0.391183
0.068789
0.397544
0.0691456
0.404016
0.0692613
0.410566
0.0691429
0.417157
0.0688001
0.423752
0.0682455
0.067497
0.430318
0.319615
0.0047827
0.320227
0.00925925
0.321122
0.0134772
0.322292
0.0174737
0.32373
0.0212762
0.325434
0.0249051
0.327402
0.0283753
0.329634
0.0316969
0.332133
0.0348761
0.3349
0.0379152
0.337937
0.0408136
0.341246
0.0435679
0.344828
0.0461727
0.348684
0.0486209
0.352812
0.0509044
0.357209
0.0530143
0.361869
0.0549413
0.366783
0.0566766
0.371941
0.0582119
0.377328
0.0595397
0.382927
0.0606544
0.388717
0.0615518
0.394675
0.0622301
0.400775
0.0626895
0.406988
0.0629329
0.413283
0.0629656
0.419631
0.0627955
0.425998
0.0624326
0.432355
0.061889
0.0611812
0.43867
0.327365
0.00444098
0.328028
0.00859671
0.328995
0.0125094
0.330257
0.0162119
0.331805
0.0197287
0.333632
0.0230775
0.335736
0.0262715
0.338114
0.0293194
0.340763
0.0322263
0.343684
0.0349943
0.346875
0.0376225
0.350335
0.0401081
0.354062
0.0424464
0.358051
0.0446316
0.362298
0.046657
0.366797
0.0485155
0.371538