# vtk DataFile Version 2.0

ASCII

DATASET UNSTRUCTURED_GRID

POINTS 11 float 

1.5000000000000000e+00  0.0000000000000000e+00  0.0000000000000000e+00
1.5000000000000000e+00  1.0000000000000001e-01  0.0000000000000000e+00
1.5000000000000000e+00  2.0000000000000001e-01  0.0000000000000000e+00
1.5000000000000000e+00  2.9999999999999999e-01  0.0000000000000000e+00
1.5000000000000000e+00  4.0000000000000002e-01  0.0000000000000000e+00
1.5000000000000000e+00  5.0000000000000000e-01  0.0000000000000000e+00
1.5000000000000000e+00  5.9999999999999998e-01  0.0000000000000000e+00
1.5000000000000000e+00  6.9999999999999996e-01  0.0000000000000000e+00
1.5000000000000000e+00  8.0000000000000004e-01  0.0000000000000000e+00
1.5000000000000000e+00  9.0000000000000002e-01  0.0000000000000000e+00
1.5000000000000000e+00  1.0000000000000000e+00  0.0000000000000000e+00

CELLS 10 30

2 0 1 
2 1 2 
2 2 3 
2 3 4 
2 4 5 
2 5 6 
2 6 7 
2 7 8 
2 8 9 
2 9 10 

CELL_TYPES 10

3
3
3
3
3
3
3
3
3
3

POINT_DATA 11

VECTORS VertexNormals float

1.0000000000000000e+00 0.0000000000000000e+00 0
1.0000000000000000e+00 0.0000000000000000e+00 0
1.0000000000000000e+00 0.0000000000000000e+00 0
1.0000000000000000e+00 0.0000000000000000e+00 0
1.0000000000000000e+00 0.0000000000000000e+00 0
1.0000000000000000e+00 0.0000000000000000e+00 0
1.0000000000000000e+00 0.0000000000000000e+00 0
1.0000000000000000e+00 0.0000000000000000e+00 0
1.0000000000000000e+00 0.0000000000000000e+00 0
1.0000000000000000e+00 0.0000000000000000e+00 0
1.0000000000000000e+00 0.0000000000000000e+00 0

SCALARS Temperature float
LOOKUP_TABLE default
4.2900000000000000e+00
4.3200006543827376e+00
4.4100006174694881e+00
4.5600005484472428e+00
4.7700000636887641e+00
5.0399999832688360e+00
5.3699998544954681e+00
5.7599987532269790e+00
6.2099992115672302e+00
6.7199998240391663e+00
7.2900000000000000e+00

VECTORS Flux float
2.9999998728645734e+00 -1.6945562597243659e-09 0
2.9999917389396429e+00 -3.2058996440467540e-09 0
2.9999973242728593e+00 -4.3755355052079223e-09 0
2.9999939869004679e+00 -5.0891938842907879e-09 0
3.0000027031663050e+00 -5.2877180198170739e-09 0
3.0000000913967524e+00 -4.9688980736199367e-09 0
2.9999927779434636e+00 -4.1804358195185235e-09 0
3.0000179283121349e+00 -3.0109932055606873e-09 0
3.0000042742811739e+00 -1.5708573005736304e-09 0
2.9999978215424816e+00 -3.5508109039880736e-12 0
3.0000007232321684e+00 -2.7154710771637435e-12 0

