# vtk DataFile Version 2.0

ASCII

DATASET UNSTRUCTURED_GRID

POINTS 11 float 

1.5000000000000000e+00  0.0000000000000000e+00  0.0000000000000000e+00
1.5000000000000000e+00  1.0000000000000001e-01  0.0000000000000000e+00
1.5000000000000000e+00  2.0000000000000001e-01  0.0000000000000000e+00
1.5000000000000000e+00  2.9999999999999999e-01  0.0000000000000000e+00
1.5000000000000000e+00  4.0000000000000002e-01  0.0000000000000000e+00
1.5000000000000000e+00  5.0000000000000000e-01  0.0000000000000000e+00
1.5000000000000000e+00  5.9999999999999998e-01  0.0000000000000000e+00
1.5000000000000000e+00  6.9999999999999996e-01  0.0000000000000000e+00
1.5000000000000000e+00  8.0000000000000004e-01  0.0000000000000000e+00
1.5000000000000000e+00  9.0000000000000002e-01  0.0000000000000000e+00
1.5000000000000000e+00  1.0000000000000000e+00  0.0000000000000000e+00

CELLS 10 30

2 0 1 
2 1 2 
2 2 3 
2 3 4 
2 4 5 
2 5 6 
2 6 7 
2 7 8 
2 8 9 
2 9 10 

CELL_TYPES 10

3
3
3
3
3
3
3
3
3
3

POINT_DATA 11

VECTORS VertexNormals float

1.0000000000000000e+00 0.0000000000000000e+00 0
1.0000000000000000e+00 0.0000000000000000e+00 0
1.0000000000000000e+00 0.0000000000000000e+00 0
1.0000000000000000e+00 0.0000000000000000e+00 0
1.0000000000000000e+00 0.0000000000000000e+00 0
1.0000000000000000e+00 0.0000000000000000e+00 0
1.0000000000000000e+00 0.0000000000000000e+00 0
1.0000000000000000e+00 0.0000000000000000e+00 0
1.0000000000000000e+00 0.0000000000000000e+00 0
1.0000000000000000e+00 0.0000000000000000e+00 0
1.0000000000000000e+00 0.0000000000000000e+00 0

SCALARS Temperature float
LOOKUP_TABLE default
3.6400000000000001e+00
3.6700000395515442e+00
3.7600000278459476e+00
3.9099999161064489e+00
4.1199998783634664e+00
4.3900000040311520e+00
4.7199998818075128e+00
5.1099998651045047e+00
5.5600001328376951e+00
6.0699999337297372e+00
6.6399999999999997e+00

VECTORS Flux float
3.0000000528229473e+00 -1.5309190998220189e-09 0
2.9999995853133203e+00 -2.9072785806379000e-09 0
2.9999994672233550e+00 -3.9848927597344719e-09 0
3.0000012523670736e+00 -4.6588433405880233e-09 0
3.0000022032850624e+00 -4.8688087357163873e-09 0
2.9999984677059457e+00 -4.6027387857066054e-09 0
3.0000017094731906e+00 -3.8946541766250961e-09 0
3.0000032463533608e+00 -2.8189270127720837e-09 0
2.9999958413181687e+00 -1.4792507279856593e-09 0
3.0000021651065780e+00 -6.8570041138196850e-12 0
3.0000016724469512e+00 1.7580338226852448e-12 0

