# vtk DataFile Version 2.0

ASCII

DATASET UNSTRUCTURED_GRID

POINTS 11 float 

1.5000000000000000e+00  0.0000000000000000e+00  0.0000000000000000e+00
1.5000000000000000e+00  1.0000000000000001e-01  0.0000000000000000e+00
1.5000000000000000e+00  2.0000000000000001e-01  0.0000000000000000e+00
1.5000000000000000e+00  2.9999999999999999e-01  0.0000000000000000e+00
1.5000000000000000e+00  4.0000000000000002e-01  0.0000000000000000e+00
1.5000000000000000e+00  5.0000000000000000e-01  0.0000000000000000e+00
1.5000000000000000e+00  5.9999999999999998e-01  0.0000000000000000e+00
1.5000000000000000e+00  6.9999999999999996e-01  0.0000000000000000e+00
1.5000000000000000e+00  8.0000000000000004e-01  0.0000000000000000e+00
1.5000000000000000e+00  9.0000000000000002e-01  0.0000000000000000e+00
1.5000000000000000e+00  1.0000000000000000e+00  0.0000000000000000e+00

CELLS 10 30

2 0 1 
2 1 2 
2 2 3 
2 3 4 
2 4 5 
2 5 6 
2 6 7 
2 7 8 
2 8 9 
2 9 10 

CELL_TYPES 10

3
3
3
3
3
3
3
3
3
3

POINT_DATA 11

VECTORS VertexNormals float

1.0000000000000000e+00 0.0000000000000000e+00 0
1.0000000000000000e+00 0.0000000000000000e+00 0
1.0000000000000000e+00 0.0000000000000000e+00 0
1.0000000000000000e+00 0.0000000000000000e+00 0
1.0000000000000000e+00 0.0000000000000000e+00 0
1.0000000000000000e+00 0.0000000000000000e+00 0
1.0000000000000000e+00 0.0000000000000000e+00 0
1.0000000000000000e+00 0.0000000000000000e+00 0
1.0000000000000000e+00 0.0000000000000000e+00 0
1.0000000000000000e+00 0.0000000000000000e+00 0
1.0000000000000000e+00 0.0000000000000000e+00 0

SCALARS Temperature float
LOOKUP_TABLE default
3.6400000000000001e+00
3.6700000395515482e+00
3.7600000278459502e+00
3.9099999161064467e+00
4.1199998783634575e+00
4.3900000040311324e+00
4.7199998818074897e+00
5.1099998651044700e+00
5.5600001328376623e+00
6.0699999337297177e+00
6.6399999999999997e+00

VECTORS Flux float
3.0000000528230126e+00 -1.5309507984107797e-09 0
2.9999995853133430e+00 -2.9073157982649342e-09 0
2.9999994672234971e+00 -3.9849349026729164e-09 0
3.0000012523671442e+00 -4.6588965767216956e-09 0
3.0000022032851392e+00 -4.8688808137785697e-09 0
2.9999984677061091e+00 -4.6028432051675449e-09 0
3.0000017094731035e+00 -3.8947550983534366e-09 0
3.0000032463532516e+00 -2.8190172844576973e-09 0
2.9999958413181642e+00 -1.4792565284672821e-09 0
3.0000021651064737e+00 -7.0253210800871567e-12 0
3.0000016724468650e+00 1.7507479840861422e-12 0

