# vtk DataFile Version 2.0

ASCII

DATASET UNSTRUCTURED_GRID

POINTS 11 double 

1.5000000000000000e+00  0.0000000000000000e+00  0.0000000000000000e+00
1.5000000000000000e+00  1.0000000000000001e-01  0.0000000000000000e+00
1.5000000000000000e+00  2.0000000000000001e-01  0.0000000000000000e+00
1.5000000000000000e+00  2.9999999999999999e-01  0.0000000000000000e+00
1.5000000000000000e+00  4.0000000000000002e-01  0.0000000000000000e+00
1.5000000000000000e+00  5.0000000000000000e-01  0.0000000000000000e+00
1.5000000000000000e+00  5.9999999999999998e-01  0.0000000000000000e+00
1.5000000000000000e+00  6.9999999999999996e-01  0.0000000000000000e+00
1.5000000000000000e+00  8.0000000000000004e-01  0.0000000000000000e+00
1.5000000000000000e+00  9.0000000000000002e-01  0.0000000000000000e+00
1.5000000000000000e+00  1.0000000000000000e+00  0.0000000000000000e+00

CELLS 10 30

2 0 1 
2 1 2 
2 2 3 
2 3 4 
2 4 5 
2 5 6 
2 6 7 
2 7 8 
2 8 9 
2 9 10 

CELL_TYPES 10

3
3
3
3
3
3
3
3
3
3

POINT_DATA 11

VECTORS VertexNormals double

1.0000000000000000e+00 0.0000000000000000e+00 0
1.0000000000000000e+00 0.0000000000000000e+00 0
1.0000000000000000e+00 0.0000000000000000e+00 0
1.0000000000000000e+00 0.0000000000000000e+00 0
1.0000000000000000e+00 0.0000000000000000e+00 0
1.0000000000000000e+00 0.0000000000000000e+00 0
1.0000000000000000e+00 0.0000000000000000e+00 0
1.0000000000000000e+00 0.0000000000000000e+00 0
1.0000000000000000e+00 0.0000000000000000e+00 0
1.0000000000000000e+00 0.0000000000000000e+00 0
1.0000000000000000e+00 0.0000000000000000e+00 0

SCALARS Temperature double
LOOKUP_TABLE default
4.1600000000000001e+00
4.1899999652220430e+00
4.2799999135802231e+00
4.4299999154045029e+00
4.6400000245483204e+00
4.9099999287149441e+00
5.2400000326943053e+00
5.6300002449723969e+00
6.0800001960892596e+00
6.5900002344856432e+00
7.1600000000000010e+00

VECTORS Flux double
2.9999999759328801e+00 7.6922867294632020e-08 0
2.9999997129727660e+00 6.0000038245824683e-01 0
3.0000002999395252e+00 1.2000008355638065e+00 0
3.0000011472120320e+00 1.7999984852399964e+00 0
2.9999985392701856e+00 2.4000000264389905e+00 0
3.0000022477901021e+00 3.0000014451444934e+00 0
3.0000009927406182e+00 3.5999962889230863e+00 0
2.9999972466900551e+00 4.2000000635945263e+00 0
3.0000006018116081e+00 4.8000001475567204e+00 0
2.9999974468163577e+00 5.3999998517847416e+00 0
2.9999990767464872e+00 6.0000042326549972e+00 0

