# vtk DataFile Version 2.0

ASCII

DATASET UNSTRUCTURED_GRID

POINTS 11 float 

1.5000000000000000e+00  0.0000000000000000e+00  0.0000000000000000e+00
1.5000000000000000e+00  1.0000000000000001e-01  0.0000000000000000e+00
1.5000000000000000e+00  2.0000000000000001e-01  0.0000000000000000e+00
1.5000000000000000e+00  2.9999999999999999e-01  0.0000000000000000e+00
1.5000000000000000e+00  4.0000000000000002e-01  0.0000000000000000e+00
1.5000000000000000e+00  5.0000000000000000e-01  0.0000000000000000e+00
1.5000000000000000e+00  5.9999999999999998e-01  0.0000000000000000e+00
1.5000000000000000e+00  6.9999999999999996e-01  0.0000000000000000e+00
1.5000000000000000e+00  8.0000000000000004e-01  0.0000000000000000e+00
1.5000000000000000e+00  9.0000000000000002e-01  0.0000000000000000e+00
1.5000000000000000e+00  1.0000000000000000e+00  0.0000000000000000e+00

CELLS 10 30

2 0 1 
2 1 2 
2 2 3 
2 3 4 
2 4 5 
2 5 6 
2 6 7 
2 7 8 
2 8 9 
2 9 10 

CELL_TYPES 10

3
3
3
3
3
3
3
3
3
3

POINT_DATA 11

VECTORS VertexNormals float

1.0000000000000000e+00 0.0000000000000000e+00 0
1.0000000000000000e+00 0.0000000000000000e+00 0
1.0000000000000000e+00 0.0000000000000000e+00 0
1.0000000000000000e+00 0.0000000000000000e+00 0
1.0000000000000000e+00 0.0000000000000000e+00 0
1.0000000000000000e+00 0.0000000000000000e+00 0
1.0000000000000000e+00 0.0000000000000000e+00 0
1.0000000000000000e+00 0.0000000000000000e+00 0
1.0000000000000000e+00 0.0000000000000000e+00 0
1.0000000000000000e+00 0.0000000000000000e+00 0
1.0000000000000000e+00 0.0000000000000000e+00 0

SCALARS Temperature float
LOOKUP_TABLE default
4.5499999999999998e+00
4.5799999666501376e+00
4.6699999846989924e+00
4.8200001397741170e+00
5.0300001346214822e+00
5.2999998400517230e+00
5.6299999044882689e+00
6.0200000931270825e+00
6.4700000225582937e+00
6.9800000432748952e+00
7.5499999999999998e+00

VECTORS Flux float
2.9999999200536802e+00 -4.4036409651591845e-10 0
3.0000007061688878e+00 -7.9283938185948966e-10 0
3.0000014464056481e+00 -9.9612317092795347e-10 0
2.9999986582676401e+00 -1.0310869887932004e-09 0
2.9999973558985782e+00 -9.2231767677278522e-10 0
3.0000033392090497e+00 -7.2438557125627211e-10 0
3.0000010409742393e+00 -4.9973325376173504e-10 0
2.9999972313278973e+00 -2.9621770022722075e-10 0
3.0000005454455576e+00 -1.3261553313825836e-10 0
2.9999994309029527e+00 8.4551506421279842e-13 0
2.9999995257739167e+00 -1.5061519739734124e-12 0

