# vtk DataFile Version 2.0

ASCII

DATASET UNSTRUCTURED_GRID

POINTS 11 float 

1.5000000000000000e+00  0.0000000000000000e+00  0.0000000000000000e+00
1.5000000000000000e+00  1.0000000000000001e-01  0.0000000000000000e+00
1.5000000000000000e+00  2.0000000000000001e-01  0.0000000000000000e+00
1.5000000000000000e+00  2.9999999999999999e-01  0.0000000000000000e+00
1.5000000000000000e+00  4.0000000000000002e-01  0.0000000000000000e+00
1.5000000000000000e+00  5.0000000000000000e-01  0.0000000000000000e+00
1.5000000000000000e+00  5.9999999999999998e-01  0.0000000000000000e+00
1.5000000000000000e+00  6.9999999999999996e-01  0.0000000000000000e+00
1.5000000000000000e+00  8.0000000000000004e-01  0.0000000000000000e+00
1.5000000000000000e+00  9.0000000000000002e-01  0.0000000000000000e+00
1.5000000000000000e+00  1.0000000000000000e+00  0.0000000000000000e+00

CELLS 10 30

2 0 1 
2 1 2 
2 2 3 
2 3 4 
2 4 5 
2 5 6 
2 6 7 
2 7 8 
2 8 9 
2 9 10 

CELL_TYPES 10

3
3
3
3
3
3
3
3
3
3

POINT_DATA 11

VECTORS VertexNormals float

1.0000000000000000e+00 0.0000000000000000e+00 0
1.0000000000000000e+00 0.0000000000000000e+00 0
1.0000000000000000e+00 0.0000000000000000e+00 0
1.0000000000000000e+00 0.0000000000000000e+00 0
1.0000000000000000e+00 0.0000000000000000e+00 0
1.0000000000000000e+00 0.0000000000000000e+00 0
1.0000000000000000e+00 0.0000000000000000e+00 0
1.0000000000000000e+00 0.0000000000000000e+00 0
1.0000000000000000e+00 0.0000000000000000e+00 0
1.0000000000000000e+00 0.0000000000000000e+00 0
1.0000000000000000e+00 0.0000000000000000e+00 0

SCALARS Temperature float
LOOKUP_TABLE default
3.3799999999999999e+00
3.4100000657772016e+00
3.5000005349544812e+00
3.6500000340860366e+00
3.8599998172909467e+00
4.1299997327973301e+00
4.4599992638736943e+00
4.8499998910595981e+00
5.3000003547359595e+00
5.8100000480073168e+00
6.3799999999999999e+00

VECTORS Flux float
3.0000008750930744e+00 4.2534496011849256e-10 0
3.0000028514243220e+00 8.2007528279758272e-10 0
2.9999898587640468e+00 1.1487135759746452e-09 0
3.0000022036367877e+00 1.3780160014558879e-09 0
3.0000018483837136e+00 1.4791209120126246e-09 0
2.9999978724858898e+00 1.4336420964768685e-09 0
3.0000117721781185e+00 1.2390232151865481e-09 0
2.9999989925768582e+00 9.1109215482748982e-10 0
2.9999926180332546e+00 4.8336969192888657e-10 0
3.0000015508678510e+00 1.9988405462052305e-12 0
3.0000012465159847e+00 -1.3303160656397135e-12 0

