# vtk DataFile Version 2.0

ASCII

DATASET UNSTRUCTURED_GRID

POINTS 11 double 

1.5000000000000000e+00  0.0000000000000000e+00  0.0000000000000000e+00
1.5000000000000000e+00  1.0000000000000001e-01  0.0000000000000000e+00
1.5000000000000000e+00  2.0000000000000001e-01  0.0000000000000000e+00
1.5000000000000000e+00  2.9999999999999999e-01  0.0000000000000000e+00
1.5000000000000000e+00  4.0000000000000002e-01  0.0000000000000000e+00
1.5000000000000000e+00  5.0000000000000000e-01  0.0000000000000000e+00
1.5000000000000000e+00  5.9999999999999998e-01  0.0000000000000000e+00
1.5000000000000000e+00  6.9999999999999996e-01  0.0000000000000000e+00
1.5000000000000000e+00  8.0000000000000004e-01  0.0000000000000000e+00
1.5000000000000000e+00  9.0000000000000002e-01  0.0000000000000000e+00
1.5000000000000000e+00  1.0000000000000000e+00  0.0000000000000000e+00

CELLS 10 30

2 0 1 
2 1 2 
2 2 3 
2 3 4 
2 4 5 
2 5 6 
2 6 7 
2 7 8 
2 8 9 
2 9 10 

CELL_TYPES 10

3
3
3
3
3
3
3
3
3
3

POINT_DATA 11

VECTORS VertexNormals double

1.0000000000000000e+00 0.0000000000000000e+00 0
1.0000000000000000e+00 0.0000000000000000e+00 0
1.0000000000000000e+00 0.0000000000000000e+00 0
1.0000000000000000e+00 0.0000000000000000e+00 0
1.0000000000000000e+00 0.0000000000000000e+00 0
1.0000000000000000e+00 0.0000000000000000e+00 0
1.0000000000000000e+00 0.0000000000000000e+00 0
1.0000000000000000e+00 0.0000000000000000e+00 0
1.0000000000000000e+00 0.0000000000000000e+00 0
1.0000000000000000e+00 0.0000000000000000e+00 0
1.0000000000000000e+00 0.0000000000000000e+00 0

SCALARS Temperature double
LOOKUP_TABLE default
3.7700000000000000e+00
3.8000002244657765e+00
3.8900005369827544e+00
4.0400003095269836e+00
4.2499997813158421e+00
4.5199994756524591e+00
4.8499997304095999e+00
5.2400002993216646e+00
5.6900003394799112e+00
6.2000002963592591e+00
6.7699999999999987e+00

VECTORS Flux double
3.0000003865267568e+00 -2.4436447904237202e-07 0
2.9999996378892551e+00 5.9999556064801718e-01 0
2.9999934935756203e+00 1.1999985509150741e+00 0
2.9999964874009635e+00 1.8000058181521628e+00 0
3.0000025977292011e+00 2.4000050685165331e+00 0
3.0000064257451013e+00 3.0000010324109083e+00 0
3.0000036931413652e+00 3.5999929170925826e+00 0
2.9999945018807654e+00 4.1999968336989388e+00 0
2.9999980889033910e+00 4.8000013200466611e+00 0
2.9999967933343186e+00 5.4000004308518852e+00 0
2.9999990434256327e+00 6.0000046541622867e+00 0

