# vtk DataFile Version 2.0

ASCII

DATASET UNSTRUCTURED_GRID

POINTS 11 float 

1.5000000000000000e+00  0.0000000000000000e+00  0.0000000000000000e+00
1.5000000000000000e+00  1.0000000000000001e-01  0.0000000000000000e+00
1.5000000000000000e+00  2.0000000000000001e-01  0.0000000000000000e+00
1.5000000000000000e+00  2.9999999999999999e-01  0.0000000000000000e+00
1.5000000000000000e+00  4.0000000000000002e-01  0.0000000000000000e+00
1.5000000000000000e+00  5.0000000000000000e-01  0.0000000000000000e+00
1.5000000000000000e+00  5.9999999999999998e-01  0.0000000000000000e+00
1.5000000000000000e+00  6.9999999999999996e-01  0.0000000000000000e+00
1.5000000000000000e+00  8.0000000000000004e-01  0.0000000000000000e+00
1.5000000000000000e+00  9.0000000000000002e-01  0.0000000000000000e+00
1.5000000000000000e+00  1.0000000000000000e+00  0.0000000000000000e+00

CELLS 10 30

2 0 1 
2 1 2 
2 2 3 
2 3 4 
2 4 5 
2 5 6 
2 6 7 
2 7 8 
2 8 9 
2 9 10 

CELL_TYPES 10

3
3
3
3
3
3
3
3
3
3

POINT_DATA 11

VECTORS VertexNormals float

1.0000000000000000e+00 0.0000000000000000e+00 0
1.0000000000000000e+00 0.0000000000000000e+00 0
1.0000000000000000e+00 0.0000000000000000e+00 0
1.0000000000000000e+00 0.0000000000000000e+00 0
1.0000000000000000e+00 0.0000000000000000e+00 0
1.0000000000000000e+00 0.0000000000000000e+00 0
1.0000000000000000e+00 0.0000000000000000e+00 0
1.0000000000000000e+00 0.0000000000000000e+00 0
1.0000000000000000e+00 0.0000000000000000e+00 0
1.0000000000000000e+00 0.0000000000000000e+00 0
1.0000000000000000e+00 0.0000000000000000e+00 0

SCALARS Temperature float
LOOKUP_TABLE default
3.6400000000000001e+00
3.6700005045061816e+00
3.7600019524261223e+00
3.9100025328208323e+00
4.1200007666499463e+00
4.3900005629346657e+00
4.7200015846928061e+00
5.1100010415435788e+00
5.5600003517780046e+00
6.0699986716682037e+00
6.6399999999999979e+00

VECTORS Flux float
3.0000004602573442e+00 1.4220773630934164e-06 0
3.0000047682924800e+00 5.9998944172404878e-01 0
2.9999861743071903e+00 1.1999792552581710e+00 0
2.9999719122622315e+00 1.8000129985471669e+00 0
3.0000096913070009e+00 2.4000203726822207e+00 0
3.0000077631867312e+00 2.9999823219237305e+00 0
2.9999817625309175e+00 3.6000004459826460e+00 0
2.9999968584358525e+00 4.2000054570952443e+00 0
2.9999904489105975e+00 4.8000166077170077e+00 0
3.0000273491863840e+00 5.4000109990615943e+00 0
3.0000090730749411e+00 5.9999693161078769e+00 0

