# vtk DataFile Version 2.0

ASCII

DATASET UNSTRUCTURED_GRID

POINTS 21 float 

1.5000000000000000e+00  0.0000000000000000e+00  0.0000000000000000e+00
1.5000000000000000e+00  5.0000000000000003e-02  0.0000000000000000e+00
1.5000000000000000e+00  1.0000000000000001e-01  0.0000000000000000e+00
1.5000000000000000e+00  1.4999999999999999e-01  0.0000000000000000e+00
1.5000000000000000e+00  2.0000000000000001e-01  0.0000000000000000e+00
1.5000000000000000e+00  2.5000000000000000e-01  0.0000000000000000e+00
1.5000000000000000e+00  2.9999999999999999e-01  0.0000000000000000e+00
1.5000000000000000e+00  3.4999999999999998e-01  0.0000000000000000e+00
1.5000000000000000e+00  4.0000000000000002e-01  0.0000000000000000e+00
1.5000000000000000e+00  4.5000000000000001e-01  0.0000000000000000e+00
1.5000000000000000e+00  5.0000000000000000e-01  0.0000000000000000e+00
1.5000000000000000e+00  5.5000000000000004e-01  0.0000000000000000e+00
1.5000000000000000e+00  5.9999999999999998e-01  0.0000000000000000e+00
1.5000000000000000e+00  6.5000000000000002e-01  0.0000000000000000e+00
1.5000000000000000e+00  6.9999999999999996e-01  0.0000000000000000e+00
1.5000000000000000e+00  7.5000000000000000e-01  0.0000000000000000e+00
1.5000000000000000e+00  8.0000000000000004e-01  0.0000000000000000e+00
1.5000000000000000e+00  8.4999999999999998e-01  0.0000000000000000e+00
1.5000000000000000e+00  9.0000000000000002e-01  0.0000000000000000e+00
1.5000000000000000e+00  9.4999999999999996e-01  0.0000000000000000e+00
1.5000000000000000e+00  1.0000000000000000e+00  0.0000000000000000e+00

CELLS 20 60

2 0 1 
2 1 2 
2 2 3 
2 3 4 
2 4 5 
2 5 6 
2 6 7 
2 7 8 
2 8 9 
2 9 10 
2 10 11 
2 11 12 
2 12 13 
2 13 14 
2 14 15 
2 15 16 
2 16 17 
2 17 18 
2 18 19 
2 19 20 

CELL_TYPES 20

3
3
3
3
3
3
3
3
3
3
3
3
3
3
3
3
3
3
3
3

POINT_DATA 21

VECTORS VertexNormals float

1.0000000000000000e+00 0.0000000000000000e+00 0
1.0000000000000000e+00 0.0000000000000000e+00 0
1.0000000000000000e+00 0.0000000000000000e+00 0
1.0000000000000000e+00 0.0000000000000000e+00 0
1.0000000000000000e+00 0.0000000000000000e+00 0
1.0000000000000000e+00 0.0000000000000000e+00 0
1.0000000000000000e+00 0.0000000000000000e+00 0
1.0000000000000000e+00 0.0000000000000000e+00 0
1.0000000000000000e+00 0.0000000000000000e+00 0
1.0000000000000000e+00 0.0000000000000000e+00 0
1.0000000000000000e+00 0.0000000000000000e+00 0
1.0000000000000000e+00 0.0000000000000000e+00 0
1.0000000000000000e+00 0.0000000000000000e+00 0
1.0000000000000000e+00 0.0000000000000000e+00 0
1.0000000000000000e+00 0.0000000000000000e+00 0
1.0000000000000000e+00 0.0000000000000000e+00 0
1.0000000000000000e+00 0.0000000000000000e+00 0
1.0000000000000000e+00 0.0000000000000000e+00 0
1.0000000000000000e+00 0.0000000000000000e+00 0
1.0000000000000000e+00 0.0000000000000000e+00 0
1.0000000000000000e+00 0.0000000000000000e+00 0

SCALARS Temperature float
LOOKUP_TABLE default
4.1600000000000001e+00
4.1674994919210180e+00
4.1899990060144603e+00
4.2274986642394285e+00
4.2799986384437663e+00
4.3474991649118380e+00
4.4299998677253969e+00
4.5275004056393353e+00
4.6400007410050828e+00
4.7675007943992540e+00
4.9100007022647301e+00
5.0675005620247040e+00
5.2400003861351276e+00
5.4275001800814362e+00
5.6300000255019249e+00
5.8475000241986681e+00
6.0800002251127525e+00
6.3275007138679982e+00
6.5900010500405362e+00
6.8675007540721120e+00
7.1599999999999993e+00

VECTORS Flux float
2.9999988797194219e+00 8.9778456318929217e-06 0
3.0000039780755712e+00 3.0001085575960940e-01 0
3.0000090764317200e+00 6.0001273367358687e-01 0
3.0000136480173394e+00 9.0000285605811037e-01 0
3.0000182196029592e+00 1.1999929784426340e+00 0
3.0000077140036305e+00 1.4999882096945591e+00 0
2.9999972084043018e+00 1.7999834409464845e+00 0
2.9999932513900096e+00 2.0999911131626758e+00 0
2.9999892943757178e+00 2.3999987853788673e+00 0
2.9999918571242938e+00 2.7000005880865312e+00 0
2.9999944198728694e+00 3.0000023907941951e+00 0
2.9999960764017022e+00 3.3000031219715025e+00 0
2.9999977329305350e+00 3.6000038531488094e+00 0
3.0000007383708853e+00 3.9000040785123105e+00 0
3.0000037438112357e+00 4.2000043038758106e+00 0
3.0000040415855600e+00 4.4999963361702360e+00 0
3.0000043393598843e+00 4.7999883684646614e+00 0
2.9999933670275780e+00 5.0999930199522545e+00 0
2.9999823946952713e+00 5.3999976714398494e+00 0
2.9999888454343990e+00 5.7000087719320636e+00 0
2.9999952961735272e+00 6.0000198724242786e+00 0

