# vtk DataFile Version 2.0

ASCII

DATASET UNSTRUCTURED_GRID

POINTS 21 float 

1.0000000000000000e+00  0.0000000000000000e+00  0.0000000000000000e+00
1.0000000000000000e+00  5.0000000000000003e-02  0.0000000000000000e+00
1.0000000000000000e+00  1.0000000000000001e-01  0.0000000000000000e+00
1.0000000000000000e+00  1.4999999999999999e-01  0.0000000000000000e+00
1.0000000000000000e+00  2.0000000000000001e-01  0.0000000000000000e+00
1.0000000000000000e+00  2.5000000000000000e-01  0.0000000000000000e+00
1.0000000000000000e+00  2.9999999999999999e-01  0.0000000000000000e+00
1.0000000000000000e+00  3.4999999999999998e-01  0.0000000000000000e+00
1.0000000000000000e+00  4.0000000000000002e-01  0.0000000000000000e+00
1.0000000000000000e+00  4.5000000000000001e-01  0.0000000000000000e+00
1.0000000000000000e+00  5.0000000000000000e-01  0.0000000000000000e+00
1.0000000000000000e+00  5.5000000000000004e-01  0.0000000000000000e+00
1.0000000000000000e+00  5.9999999999999998e-01  0.0000000000000000e+00
1.0000000000000000e+00  6.5000000000000002e-01  0.0000000000000000e+00
1.0000000000000000e+00  6.9999999999999996e-01  0.0000000000000000e+00
1.0000000000000000e+00  7.5000000000000000e-01  0.0000000000000000e+00
1.0000000000000000e+00  8.0000000000000004e-01  0.0000000000000000e+00
1.0000000000000000e+00  8.4999999999999998e-01  0.0000000000000000e+00
1.0000000000000000e+00  9.0000000000000002e-01  0.0000000000000000e+00
1.0000000000000000e+00  9.4999999999999996e-01  0.0000000000000000e+00
1.0000000000000000e+00  1.0000000000000000e+00  0.0000000000000000e+00

CELLS 0 0


CELL_TYPES 0


POINT_DATA 21

VECTORS VertexNormals float

0.0000000000000000e+00 0.0000000000000000e+00 0
0.0000000000000000e+00 0.0000000000000000e+00 0
0.0000000000000000e+00 0.0000000000000000e+00 0
0.0000000000000000e+00 0.0000000000000000e+00 0
0.0000000000000000e+00 0.0000000000000000e+00 0
0.0000000000000000e+00 0.0000000000000000e+00 0
0.0000000000000000e+00 0.0000000000000000e+00 0
0.0000000000000000e+00 0.0000000000000000e+00 0
0.0000000000000000e+00 0.0000000000000000e+00 0
0.0000000000000000e+00 0.0000000000000000e+00 0
0.0000000000000000e+00 0.0000000000000000e+00 0
0.0000000000000000e+00 0.0000000000000000e+00 0
0.0000000000000000e+00 0.0000000000000000e+00 0
0.0000000000000000e+00 0.0000000000000000e+00 0
0.0000000000000000e+00 0.0000000000000000e+00 0
0.0000000000000000e+00 0.0000000000000000e+00 0
0.0000000000000000e+00 0.0000000000000000e+00 0
0.0000000000000000e+00 0.0000000000000000e+00 0
0.0000000000000000e+00 0.0000000000000000e+00 0
0.0000000000000000e+00 0.0000000000000000e+00 0
0.0000000000000000e+00 0.0000000000000000e+00 0

SCALARS Temperature float
LOOKUP_TABLE default
2.3900000000000001e+00
2.3974999984498604e+00
2.4199999975659181e+00
2.4574999977301446e+00
2.5099999984580830e+00
2.5774999990993912e+00
2.6599999994906351e+00
2.7574999996985698e+00
2.8699999998361485e+00
2.9975000000026144e+00
3.1400000002411921e+00
3.2975000005514050e+00
3.4700000008928722e+00
3.6575000012273629e+00
3.8600000015489471e+00
4.0775000018121146e+00
4.3100000018459745e+00
4.5575000015410065e+00
4.8200000010246393e+00
5.0975000004800961e+00
5.3899999999999997e+00

SCALARS Flux float
LOOKUP_TABLE default
0.0000000000000000e+00
0.0000000000000000e+00
0.0000000000000000e+00
0.0000000000000000e+00
0.0000000000000000e+00
0.0000000000000000e+00
0.0000000000000000e+00
0.0000000000000000e+00
0.0000000000000000e+00
0.0000000000000000e+00
0.0000000000000000e+00
0.0000000000000000e+00
0.0000000000000000e+00
0.0000000000000000e+00
0.0000000000000000e+00
0.0000000000000000e+00
0.0000000000000000e+00
0.0000000000000000e+00
0.0000000000000000e+00
0.0000000000000000e+00
0.0000000000000000e+00

