# vtk DataFile Version 2.0

ASCII

DATASET UNSTRUCTURED_GRID

POINTS 21 float 

1.0000000000000000e+00  0.0000000000000000e+00  0.0000000000000000e+00
1.0000000000000000e+00  5.0000000000000003e-02  0.0000000000000000e+00
1.0000000000000000e+00  1.0000000000000001e-01  0.0000000000000000e+00
1.0000000000000000e+00  1.4999999999999999e-01  0.0000000000000000e+00
1.0000000000000000e+00  2.0000000000000001e-01  0.0000000000000000e+00
1.0000000000000000e+00  2.5000000000000000e-01  0.0000000000000000e+00
1.0000000000000000e+00  2.9999999999999999e-01  0.0000000000000000e+00
1.0000000000000000e+00  3.4999999999999998e-01  0.0000000000000000e+00
1.0000000000000000e+00  4.0000000000000002e-01  0.0000000000000000e+00
1.0000000000000000e+00  4.5000000000000001e-01  0.0000000000000000e+00
1.0000000000000000e+00  5.0000000000000000e-01  0.0000000000000000e+00
1.0000000000000000e+00  5.5000000000000004e-01  0.0000000000000000e+00
1.0000000000000000e+00  5.9999999999999998e-01  0.0000000000000000e+00
1.0000000000000000e+00  6.5000000000000002e-01  0.0000000000000000e+00
1.0000000000000000e+00  6.9999999999999996e-01  0.0000000000000000e+00
1.0000000000000000e+00  7.5000000000000000e-01  0.0000000000000000e+00
1.0000000000000000e+00  8.0000000000000004e-01  0.0000000000000000e+00
1.0000000000000000e+00  8.4999999999999998e-01  0.0000000000000000e+00
1.0000000000000000e+00  9.0000000000000002e-01  0.0000000000000000e+00
1.0000000000000000e+00  9.4999999999999996e-01  0.0000000000000000e+00
1.0000000000000000e+00  1.0000000000000000e+00  0.0000000000000000e+00

CELLS 0 0


CELL_TYPES 0


POINT_DATA 21

VECTORS VertexNormals float

0.0000000000000000e+00 0.0000000000000000e+00 0
0.0000000000000000e+00 0.0000000000000000e+00 0
0.0000000000000000e+00 0.0000000000000000e+00 0
0.0000000000000000e+00 0.0000000000000000e+00 0
0.0000000000000000e+00 0.0000000000000000e+00 0
0.0000000000000000e+00 0.0000000000000000e+00 0
0.0000000000000000e+00 0.0000000000000000e+00 0
0.0000000000000000e+00 0.0000000000000000e+00 0
0.0000000000000000e+00 0.0000000000000000e+00 0
0.0000000000000000e+00 0.0000000000000000e+00 0
0.0000000000000000e+00 0.0000000000000000e+00 0
0.0000000000000000e+00 0.0000000000000000e+00 0
0.0000000000000000e+00 0.0000000000000000e+00 0
0.0000000000000000e+00 0.0000000000000000e+00 0
0.0000000000000000e+00 0.0000000000000000e+00 0
0.0000000000000000e+00 0.0000000000000000e+00 0
0.0000000000000000e+00 0.0000000000000000e+00 0
0.0000000000000000e+00 0.0000000000000000e+00 0
0.0000000000000000e+00 0.0000000000000000e+00 0
0.0000000000000000e+00 0.0000000000000000e+00 0
0.0000000000000000e+00 0.0000000000000000e+00 0

SCALARS Temperature float
LOOKUP_TABLE default
2.5200000000000000e+00
2.5274999999902690e+00
2.5499999999883931e+00
2.5874999999967105e+00
2.6400000000126593e+00
2.7075000000273470e+00
2.7900000000279919e+00
2.8875000000160536e+00
3.0000000000229652e+00
3.1275000000646713e+00
3.2700000000952469e+00
3.4275000000794185e+00
3.6000000000652612e+00
3.7875000000901031e+00
3.9900000000872389e+00
4.2075000000049272e+00
4.4399999999285900e+00
4.6874999999462164e+00
4.9500000000096485e+00
5.2275000000361462e+00
5.5199999999999996e+00

SCALARS Flux float
LOOKUP_TABLE default
0.0000000000000000e+00
0.0000000000000000e+00
0.0000000000000000e+00
0.0000000000000000e+00
0.0000000000000000e+00
0.0000000000000000e+00
0.0000000000000000e+00
0.0000000000000000e+00
0.0000000000000000e+00
0.0000000000000000e+00
0.0000000000000000e+00
0.0000000000000000e+00
0.0000000000000000e+00
0.0000000000000000e+00
0.0000000000000000e+00
0.0000000000000000e+00
0.0000000000000000e+00
0.0000000000000000e+00
0.0000000000000000e+00
0.0000000000000000e+00
0.0000000000000000e+00

