/*--------------------------------*- C++ -*----------------------------------*\
| =========                 |                                                 |
| \\      /  F ield         | OpenFOAM: The Open Source CFD Toolbox           |
|  \\    /   O peration     | Version:  2006                                  |
|   \\  /    A nd           | Website:  www.openfoam.com                      |
|    \\/     M anipulation  |                                                 |
\*---------------------------------------------------------------------------*/
FoamFile
{
    version     2.0;
    format      ascii;
    class       volVectorField;
    location    "1";
    object      flux;
}
// * * * * * * * * * * * * * * * * * * * * * * * * * * * * * * * * * * * * * //

dimensions      [0 1 -1 1 0 0 0];


internalField   nonuniform List<vector> 
512
(
(0.0130182 -26.4405 0)
(0.0370482 -26.3353 0)
(0.0557885 -26.1415 0)
(0.0677215 -25.8856 0)
(0.0730186 -25.5964 0)
(0.0729078 -25.2987 0)
(0.068983 -25.0112 0)
(0.0627072 -24.7457 0)
(0.0552652 -24.5089 0)
(0.0474835 -24.3034 0)
(0.0398864 -24.1291 0)
(0.0327705 -23.9845 0)
(0.0262691 -23.8672 0)
(0.0204021 -23.7747 0)
(0.0151139 -23.7043 0)
(0.0102999 -23.654 0)
(0.00582561 -23.6221 0)
(0.00154152 -23.6075 0)
(-0.00270549 -23.6097 0)
(-0.00706165 -23.6291 0)
(-0.0116528 -23.6661 0)
(-0.0165643 -23.7221 0)
(-0.0218104 -23.7985 0)
(-0.0272932 -23.8965 0)
(-0.0327497 -24.0168 0)
(-0.0376927 -24.1587 0)
(-0.0413628 -24.319 0)
(-0.0427352 -24.4908 0)
(-0.0406504 -24.6626 0)
(-0.0341438 -24.8182 0)
(-0.022974 -24.9381 0)
(-0.00812874 -25.0039 0)
(0.0395597 -26.466 0)
(0.112472 -26.3567 0)
(0.169075 -26.1561 0)
(0.204829 -25.8931 0)
(0.220417 -25.5976 0)
(0.219688 -25.2953 0)
(0.207544 -25.0047 0)
(0.188426 -24.7375 0)
(0.165892 -24.5 0)
(0.142413 -24.2945 0)
(0.119547 -24.1205 0)
(0.0981649 -23.9765 0)
(0.078655 -23.8599 0)
(0.0610672 -23.7679 0)
(0.0452279 -23.698 0)
(0.0308186 -23.6481 0)
(0.0174322 -23.6165 0)
(0.00461739 -23.602 0)
(-0.00808797 -23.6042 0)
(-0.0211258 -23.6233 0)
(-0.0348788 -23.6601 0)
(-0.0496104 -23.7157 0)
(-0.065374 -23.7918 0)
(-0.0818887 -23.8896 0)
(-0.0983808 -24.0102 0)
(-0.113401 -24.1529 0)
(-0.124668 -24.3149 0)
(-0.129076 -24.4896 0)
(-0.123063 -24.6655 0)
(-0.103603 -24.826 0)
(-0.0698465 -24.9505 0)
(-0.0247418 -25.0192 0)
(0.0676636 -26.518 0)
(0.191985 -26.4 0)
(0.287596 -26.1856 0)
(0.346997 -25.9078 0)
(0.371919 -25.5996 0)
(0.369357 -25.2879 0)
(0.347873 -24.9913 0)
(0.315033 -24.7209 0)
(0.276788 -24.4821 0)
(0.237218 -24.2765 0)
(0.198859 -24.1034 0)
(0.163112 -23.9605 0)
(0.130579 -23.8451 0)
(0.101312 -23.7544 0)
(0.0749984 -23.6856 0)
(0.0510928 -23.6364 0)
(0.0289047 -23.6053 0)
(0.00767195 -23.591 0)
(-0.0133838 -23.5931 0)
(-0.03501 -23.6119 0)
(-0.0578614 -23.6481 0)
(-0.082402 -23.703 0)
(-0.108755 -23.7783 0)
(-0.136498 -23.8758 0)
(-0.16439 -23.9967 0)
(-0.19006 -24.141 0)
(-0.209703 -24.3064 0)
(-0.218039 -24.4869 0)
(-0.208856 -24.6711 0)
(-0.176655 -24.8416 0)
(-0.11957 -24.9758 0)
(-0.0424551 -25.0506 0)
(0.09854 -26.5987 0)
(0.278688 -26.4666 0)
(0.415205 -26.23 0)
(0.49782 -25.9292 0)
(0.530328 -25.6016 0)
(0.523816 -25.2759 0)
(0.491081 -24.9705 0)
(0.443046 -24.6953 0)
(0.388068 -24.4548 0)
(0.331764 -24.2494 0)
(0.277557 -24.0775 0)
(0.227292 -23.9365 0)
(0.181718 -23.8231 0)
(0.140845 -23.7342 0)
(0.10419 -23.667 0)
(0.0709564 -23.6191 0)
(0.0401525 -23.5887 0)
(0.0106922 -23.5747 0)
(-0.0185312 -23.5767 0)
(-0.0485863 -23.5949 0)
(-0.0804239 -23.6301 0)
(-0.114746 -23.6839 0)
(-0.1518 -23.7581 0)
(-0.191084 -23.855 0)
(-0.230975 -23.9762 0)
(-0.268249 -24.1227 0)
(-0.297595 -24.293 0)
(-0.311415 -24.4821 0)
(-0.300437 -24.679 0)
(-0.255958 -24.8652 0)
(-0.174316 -25.0149 0)
(-0.0621198 -25.0995 0)
(0.133684 -26.7116 0)
(0.376313 -26.5586 0)
(0.556335 -26.2898 0)
(0.661224 -25.9564 0)
(0.698541 -25.6022 0)
(0.684913 -25.2579 0)
(0.638171 -24.9411 0)
(0.57287 -24.6601 0)
(0.499751 -24.4177 0)
(0.425849 -24.2128 0)
(0.355325 -24.0429 0)
(0.290346 -23.9044 0)
(0.231725 -23.7937 0)
(0.179361 -23.7074 0)
(0.132558 -23.6423 0)
(0.0902382 -23.5961 0)
(0.0510839 -23.5667 0)
(0.0136668 -23.5532 0)
(-0.023463 -23.5549 0)
(-0.0617148 -23.5723 0)
(-0.102368 -23.6062 0)
(-0.146417 -23.6584 0)
(-0.194301 -23.731 0)
(-0.245539 -23.8268 0)
(-0.298242 -23.9482 0)
(-0.348455 -24.0972 0)
(-0.389409 -24.2737 0)
(-0.411036 -24.4742 0)
(-0.400442 -24.6884 0)
(-0.344593 -24.8969 0)
(-0.236715 -25.0691 0)
(-0.0847904 -25.1686 0)
(0.175065 -26.862 0)
(0.489606 -26.6786 0)
(0.716304 -26.3649 0)
(0.841595 -25.9879 0)
(0.879549 -25.5996 0)
(0.854394 -25.2321 0)
(0.789976 -24.9017 0)
(0.704738 -24.6143 0)
(0.61172 -24.3702 0)
(0.519169 -24.1665 0)
(0.431776 -23.9993 0)
(0.351874 -23.8642 0)
(0.280223 -23.7571 0)
(0.216534 -23.6741 0)
(0.159845 -23.6118 0)
(0.108761 -23.5677 0)
(0.0616052 -23.5396 0)
(0.0165863 -23.5266 0)
(-0.028105 -23.5281 0)
(-0.0742406 -23.5444 0)
(-0.123469 -23.5766 0)
(-0.177139 -23.6266 0)
(-0.235983 -23.697 0)
(-0.299655 -23.791 0)
(-0.366167 -23.9121 0)
(-0.431023 -24.0636 0)
(-0.486109 -24.2473 0)
(-0.51877 -24.4617 0)
(-0.511819 -24.6982 0)
(-0.446284 -24.9367 0)
(-0.310129 -25.1404 0)
(-0.11186 -25.2614 0)
(0.225414 -27.0576 0)
(0.624879 -26.8304 0)
(0.901689 -26.4551 0)
(1.0439 -26.0214 0)
(1.07641 -25.5908 0)
(1.03382 -25.1962 0)
(0.947076 -24.8507 0)
(0.838661 -24.5567 0)
(0.723682 -24.3115 0)
(0.611296 -24.1099 0)
(0.506441 -23.9465 0)
(0.411414 -23.816 0)
(0.326798 -23.7134 0)
(0.252015 -23.6344 0)
(0.18578 -23.5756 0)
(0.126339 -23.534 0)
(0.0716214 -23.5075 0)
(0.0194437 -23.4951 0)
(-0.0323748 -23.4962 0)
(-0.085991 -23.5113 0)
(-0.143465 -23.5413 0)
(-0.206584 -23.5884 0)
(-0.276481 -23.6557 0)
(-0.353094 -23.7471 0)
(-0.434551 -23.8672 0)
(-0.51609 -24.0207 0)
(-0.588481 -24.2121 0)
(-0.636478 -24.4426 0)
(-0.63791 -24.7064 0)
(-0.565681 -24.9839 0)
(-0.399064 -25.2313 0)
(-0.145267 -25.3832 0)
(0.288696 -27.3093 0)
(0.790847 -27.0183 0)
(1.1208 -26.5592 0)
(1.27375 -26.0532 0)
(1.29213 -25.5722 0)
(1.22444 -25.147 0)
(1.1097 -24.7858 0)
(0.97435 -24.4859 0)
(0.835125 -24.2408 0)
(0.701657 -24.0427 0)
(0.578752 -23.8844 0)
(0.468443 -23.7595 0)
(0.370994 -23.6625 0)
(0.285427 -23.5885 0)
(0.210073 -23.5338 0)
(0.142783 -23.4952 0)
(0.0810365 -23.4707 0)
(0.0222343 -23.459 0)
(-0.0361827 -23.4596 0)
(-0.0967746 -23.4731 0)
(-0.162057 -23.5004 0)
(-0.234351 -23.544 0)
(-0.31533 -23.6072 0)
(-0.405365 -23.6949 0)
(-0.502969 -23.8126 0)
(-0.603511 -23.9672 0)
(-0.697028 -24.1659 0)
(-0.765905 -24.4139 0)
(-0.782489 -24.71 0)
(-0.708726 -25.0376 0)
(-0.509778 -25.3448 0)
(-0.187827 -25.5419 0)
(0.370903 -27.633 0)
(0.999912 -27.2475 0)
(1.38425 -26.6742 0)
(1.53741 -26.0779 0)
(1.52949 -25.5387 0)
(1.42702 -25.0809 0)
(1.27762 -24.7046 0)
(1.11115 -24.4003 0)
(0.945279 -24.1573 0)
(0.789515 -23.9644 0)
(0.648037 -23.8127 0)
(0.522364 -23.6949 0)
(0.412314 -23.6046 0)
(0.316365 -23.5365 0)
(0.232415 -23.4866 0)
(0.157893 -23.4516 0)
(0.0897549 -23.4292 0)
(0.0249553 -23.4184 0)
(-0.0394325 -23.4185 0)
(-0.106383 -23.43 0)
(-0.178905 -23.4542 0)
(-0.259968 -23.4932 0)
(-0.351949 -23.5512 0)
(-0.455791 -23.6338 0)
(-0.570716 -23.7475 0)
(-0.692766 -23.9014 0)
(-0.811825 -24.1062 0)
(-0.908491 -24.372 0)
(-0.949732 -24.7044 0)
(-0.883117 -25.095 0)
(-0.651229 -25.4847 0)
(-0.243785 -25.7486 0)
(0.481444 -28.0524 0)
(1.27022 -27.5229 0)
(1.70561 -26.7942 0)
(1.84151 -26.0874 0)
(1.79063 -25.484 0)
(1.64153 -24.9934 0)
(1.44998 -24.6042 0)
(1.24798 -24.2983 0)
(1.05308 -24.0601 0)
(0.873961 -23.8747 0)
(0.713511 -23.7313 0)
(0.572505 -23.6222 0)
(0.450218 -23.5398 0)
(0.344396 -23.4785 0)
(0.252477 -23.4344 0)
(0.171468 -23.4036 0)
(0.0976836 -23.3836 0)
(0.0276035 -23.3736 0)
(-0.0420254 -23.3732 0)
(-0.114596 -23.3825 0)
(-0.193629 -23.4028 0)
(-0.28288 -23.4363 0)
(-0.385642 -23.4877 0)
(-0.503503 -23.5636 0)
(-0.636754 -23.671 0)
(-0.782857 -23.8215 0)
(-0.932318 -24.0299 0)
(-1.06503 -24.3121 0)
(-1.14402 -24.6831 0)
(-1.09888 -25.1515 0)
(-0.83657 -25.6549 0)
(-0.319761 -26.0201 0)
(0.635657 -28.6035 0)
(1.62897 -27.8474 0)
(2.10196 -26.908 0)
(2.19251 -26.0704 0)
(2.07652 -25.4003 0)
(1.86691 -24.8796 0)
(1.62515 -24.4821 0)
(1.38323 -24.1784 0)
(1.15712 -23.9486 0)
(0.95392 -23.7733 0)
(0.774286 -23.6401 0)
(0.618108 -23.5415 0)
(0.484128 -23.4685 0)
(0.369054 -23.4151 0)
(0.269897 -23.3776 0)
(0.183304 -23.3515 0)
(0.104736 -23.3341 0)
(0.0301725 -23.3252 0)
(-0.0438653 -23.324 0)
(-0.12119 -23.3309 0)
(-0.205812 -23.3468 0)
(-0.302442 -23.3736 0)
(-0.415607 -23.4168 0)
(-0.547432 -23.4843 0)
(-0.699662 -23.5825 0)
(-0.872207 -23.7259 0)
(-1.05711 -23.9339 0)
(-1.23509 -24.2288 0)
(-1.36943 -24.6362 0)
(-1.369 -25.198 0)
(-1.08557 -25.8584 0)
(-0.426425 -26.3819 0)
(0.859498 -29.3429 0)
(2.11796 -28.2171 0)
(2.59408 -26.9954 0)
(2.59536 -26.0108 0)
(2.38602 -25.2783 0)
(2.1006 -24.7343 0)
(1.80059 -24.3357 0)
(1.51476 -24.0391 0)
(1.25565 -23.8224 0)
(1.02819 -23.6603 0)
(0.829375 -23.5393 0)
(0.658318 -23.4534 0)
(0.513446 -23.3912 0)
(0.389846 -23.3465 0)
(0.284269 -23.3168 0)
(0.193208 -23.2961 0)
(0.110842 -23.2813 0)
(0.032646 -23.2736 0)
(-0.0448648 -23.2717 0)
(-0.125959 -23.2758 0)
(-0.215006 -23.2868 0)
(-0.317903 -23.3057 0)
(-0.440958 -23.3387 0)
(-0.586333 -23.396 0)
(-0.757582 -23.4815 0)
(-0.958576 -23.613 0)
(-1.18375 -23.8151 0)
(-1.41618 -24.1162 0)
(-1.62862 -24.5497 0)
(-1.70996 -25.2187 0)
(-1.42856 -26.0952 0)
(-0.581542 -26.8737 0)
(1.19856 -30.3632 0)
(2.8027 -28.6104 0)
(3.20512 -27.0229 0)
(3.05108 -25.8874 0)
(2.71478 -25.1084 0)
(2.33823 -24.5516 0)
(1.97275 -24.1628 0)
(1.63986 -23.8787 0)
(1.34651 -23.6816 0)
(1.09551 -23.5359 0)
(0.877722 -23.4285 0)
(0.692153 -23.3582 0)
(0.537593 -23.3082 0)
(0.406254 -23.2729 0)
(0.295112 -23.2525 0)
(0.201015 -23.2379 0)
(0.115962 -23.2256 0)
(0.0349856 -23.2193 0)
(-0.0449499 -23.2167 0)
(-0.12874 -23.2177 0)
(-0.220756 -23.2237 0)
(-0.328361 -23.2329 0)
(-0.460788 -23.2532 0)
(-0.618844 -23.2995 0)
(-0.808167 -23.3678 0)
(-1.03902 -23.4813 0)
(-1.30869 -23.6704 0)
(-1.60238 -23.9694 0)
(-1.9207 -24.4031 0)
(-2.14174 -25.1866 0)
(-1.91304 -26.3554 0)
(-0.815695 -27.559 0)
(1.73588 -31.821 0)
(3.7881 -28.962 0)
(3.95558 -26.9365 0)
(3.5526 -25.674 0)
(3.05389 -24.8819 0)
(2.57339 -24.326 0)
(2.13707 -23.9627 0)
(1.75536 -23.6954 0)
(1.42704 -23.5268 0)
(1.15478 -23.4007 0)
(0.918228 -23.307 0)
(0.718422 -23.2565 0)
(0.556095 -23.2202 0)
(0.417744 -23.1942 0)
(0.301801 -23.1852 0)
(0.206646 -23.1776 0)
(0.120124 -23.1668 0)
(0.0371045 -23.1625 0)
(-0.0440521 -23.1592 0)
(-0.129465 -23.1568 0)
(-0.22263 -23.1582 0)
(-0.332654 -23.1559 0)
(-0.474275 -23.1597 0)
(-0.643626 -23.1961 0)
(-0.848479 -23.2412 0)
(-1.10988 -23.3293 0)
(-1.42778 -23.4967 0)
(-1.78255 -23.7875 0)
(-2.23723 -24.1677 0)
(-2.68613 -25.0569 0)
(-2.61477 -26.6058 0)
(-1.18335 -28.544 0)
(2.62806 -33.993 0)
(5.24493 -29.1046 0)
(4.84909 -26.6589 0)
(4.07837 -25.3423 0)
(3.38879 -24.5956 0)
(2.79786 -24.0513 0)
(2.28807 -23.7375 0)
(1.85783 -23.4863 0)
(1.49385 -23.3601 0)
(1.20539 -23.2561 0)
(0.94979 -23.1734 0)
(0.735532 -23.15 0)
(0.568783 -23.1283 0)
(0.423779 -23.1098 0)
(0.303411 -23.1162 0)
(0.210213 -23.1167 0)
(0.123478 -23.105 0)
(0.0388011 -23.1041 0)
(-0.0420691 -23.1 0)
(-0.128253 -23.0935 0)
(-0.22031 -23.0922 0)
(-0.329093 -23.0759 0)
(-0.480901 -23.0566 0)
(-0.65963 -23.0891 0)
(-0.874773 -23.1026 0)
(-1.16675 -23.1561 0)
(-1.5378 -23.2908 0)
(-1.9379 -23.5821 0)
(-2.55538 -23.8039 0)
(-3.36078 -24.7611 0)
(-3.65659 -26.7577 0)
(-1.78479 -30.0124 0)
(4.18008 -37.3868 0)
(7.45517 -28.6358 0)
(5.83672 -26.0983 0)
(4.58425 -24.8674 0)
(3.69942 -24.2577 0)
(3.00242 -23.718 0)
(2.41956 -23.4957 0)
(1.94408 -23.2449 0)
(1.54211 -23.1867 0)
(1.24808 -23.1051 0)
(0.971276 -23.0239 0)
(0.740985 -23.0418 0)
(0.576224 -23.0343 0)
(0.423808 -23.0178 0)
(0.298349 -23.0474 0)
(0.212261 -23.0575 0)
(0.126389 -23.0391 0)
(0.0395886 -23.0453 0)
(-0.0387384 -23.0401 0)
(-0.125575 -23.0276 0)
(-0.213834 -23.0287 0)
(-0.314823 -22.9954 0)
(-0.480874 -22.9392 0)
(-0.666636 -22.9856 0)
(-0.881986 -22.9526 0)
(-1.20399 -22.9614 0)
(-1.64074 -23.0445 0)
(-2.03909 -23.3928 0)
(-2.82674 -23.2551 0)
(-4.16305 -24.2043 0)
(-5.24045 -26.594 0)
(-2.8107 -32.2939 0)
)
;

boundaryField
{
    left
    {
        type            calculated;
        value           nonuniform List<vector> 
16
(
(0 -26.4405 0)
(0 -26.466 0)
(0 -26.518 0)
(0 -26.5987 0)
(0 -26.7116 0)
(0 -26.862 0)
(0 -27.0576 0)
(0 -27.3093 0)
(0 -27.633 0)
(0 -28.0524 0)
(0 -28.6035 0)
(0 -29.3429 0)
(0 -30.3632 0)
(0 -31.821 0)
(0 -33.993 0)
(0 -37.3868 0)
)
;
    }
    right
    {
        type            calculated;
        value           nonuniform List<vector> 
16
(
(0 -25.0039 0)
(0 -25.0192 0)
(0 -25.0506 0)
(0 -25.0995 0)
(0 -25.1686 0)
(0 -25.2614 0)
(0 -25.3832 0)
(0 -25.5419 0)
(0 -25.7486 0)
(0 -26.0201 0)
(0 -26.3819 0)
(0 -26.8737 0)
(0 -27.559 0)
(0 -28.544 0)
(0 -30.0124 0)
(0 -32.2939 0)
)
;
    }
    interface
    {
        type            calculated;
        value           nonuniform List<vector> 
32
(
(4.18008 -39.4716 0)
(7.45517 -28.1778 0)
(5.83672 -25.7356 0)
(4.58425 -24.5915 0)
(3.69942 -24.078 0)
(3.00242 -23.5351 0)
(2.41956 -23.3722 0)
(1.94408 -23.1149 0)
(1.54211 -23.0992 0)
(1.24808 -23.0284 0)
(0.971276 -22.9443 0)
(0.740985 -22.9878 0)
(0.576224 -22.9871 0)
(0.423808 -22.9696 0)
(0.298349 -23.0133 0)
(0.212261 -23.0287 0)
(0.126389 -23.0049 0)
(0.0395886 -23.0158 0)
(-0.0387384 -23.01 0)
(-0.125575 -22.9939 0)
(-0.213834 -22.9979 0)
(-0.314823 -22.9554 0)
(-0.480874 -22.876 0)
(-0.666636 -22.9359 0)
(-0.881986 -22.8748 0)
(-1.20399 -22.8586 0)
(-1.64074 -22.9097 0)
(-2.03909 -23.3096 0)
(-2.82674 -22.926 0)
(-4.16305 -23.8472 0)
(-5.24045 -26.3949 0)
(-2.8107 -33.6909 0)
)
;
    }
    bottom
    {
        type            calculated;
        value           nonuniform List<vector> 
32
(
(0.0130182 -26.4342 0)
(0.0370482 -26.33 0)
(0.0557885 -26.1378 0)
(0.0677215 -25.8837 0)
(0.0730186 -25.596 0)
(0.0729078 -25.2996 0)
(0.068983 -25.0128 0)
(0.0627072 -24.7477 0)
(0.0552652 -24.5111 0)
(0.0474835 -24.3056 0)
(0.0398864 -24.1312 0)
(0.0327705 -23.9865 0)
(0.0262691 -23.8691 0)
(0.0204021 -23.7764 0)
(0.0151139 -23.7059 0)
(0.0102999 -23.6555 0)
(0.00582561 -23.6235 0)
(0.00154152 -23.6088 0)
(-0.00270549 -23.6111 0)
(-0.00706165 -23.6305 0)
(-0.0116528 -23.6676 0)
(-0.0165643 -23.7237 0)
(-0.0218104 -23.8001 0)
(-0.0272932 -23.8982 0)
(-0.0327497 -24.0185 0)
(-0.0376927 -24.1602 0)
(-0.0413628 -24.32 0)
(-0.0427352 -24.4911 0)
(-0.0406504 -24.6619 0)
(-0.0341438 -24.8163 0)
(-0.022974 -24.9351 0)
(-0.00812874 -25.0001 0)
)
;
    }
    defaultFaces
    {
        type            empty;
    }
}


// ************************************************************************* //
