/*--------------------------------*- C++ -*----------------------------------*\
| =========                 |                                                 |
| \\      /  F ield         | OpenFOAM: The Open Source CFD Toolbox           |
|  \\    /   O peration     | Version:  2006                                  |
|   \\  /    A nd           | Website:  www.openfoam.com                      |
|    \\/     M anipulation  |                                                 |
\*---------------------------------------------------------------------------*/
FoamFile
{
    version     2.0;
    format      ascii;
    class       volScalarField;
    location    "9.9";
    object      p;
}
// * * * * * * * * * * * * * * * * * * * * * * * * * * * * * * * * * * * * * //

dimensions      [0 2 -2 0 0 0 0];


internalField   nonuniform List<scalar> 
2790
(
146.659
146.566
146.833
147.404
148.184
149.142
150.274
151.581
153.058
154.699
156.498
158.449
160.543
162.768
165.109
167.545
170.049
172.588
175.12
177.594
179.952
182.13
184.06
185.68
186.94
187.814
188.25
188.305
188.356
188.569
146.456
146.473
146.766
147.334
148.11
149.064
150.192
151.493
152.962
154.595
156.385
158.326
160.409
162.623
164.953
167.379
169.874
172.408
174.938
177.416
179.784
181.979
183.934
185.582
186.866
187.74
188.137
188.192
188.324
188.609
146.257
146.345
146.656
147.214
147.977
148.919
150.032
151.314
152.762
154.37
156.132
158.042
160.09
162.266
164.554
166.936
169.388
171.879
174.371
176.819
179.168
181.361
183.333
185.023
186.373
187.349
187.942
188.297
188.612
188.911
146.032
146.15
146.474
147.024
147.772
148.697
149.791
151.049
152.468
154.043
155.766
157.632
159.631
161.752
163.98
166.298
168.683
171.106
173.533
175.923
178.231
180.402
182.384
184.123
185.578
186.729
187.597
188.268
188.82
189.339
145.771
145.904
146.236
146.778
147.51
148.414
149.482
150.709
152.091
153.622
155.296
157.106
159.042
161.092
163.244
165.48
167.778
170.113
172.455
174.768
177.013
179.148
181.131
182.921
184.491
185.834
186.964
187.926
188.737
189.483
145.47
145.609
145.943
146.475
147.187
148.065
149.101
150.29
151.628
153.108
154.723
156.466
158.327
160.295
162.356
164.494
166.689
168.918
171.156
173.371
175.534
177.611
179.573
181.394
183.057
184.558
185.904
187.11
188.13
189.047
145.128
145.267
145.598
146.117
146.807
147.654
148.654
149.799
151.085
152.505
154.052
155.718
157.493
159.366
161.323
163.349
165.425
167.531
169.644
171.74
173.796
175.787
177.694
179.505
181.21
182.811
184.305
185.684
186.848
187.895
144.743
144.88
145.205
145.707
146.37
147.184
148.142
149.237
150.465
151.818
153.289
154.868
156.547
158.313
160.153
162.053
163.994
165.958
167.926
169.878
171.796
173.663
175.471
177.213
178.891
180.51
182.065
183.537
184.787
185.937
144.317
144.45
144.764
145.247
145.881
146.657
147.569
148.609
149.773
151.052
152.438
153.923
155.495
157.143
158.854
160.613
162.403
164.206
166.006
167.785
169.528
171.227
172.875
174.475
176.037
177.572
179.081
180.551
181.823
183.061
143.85
143.978
144.279
144.739
145.342
146.077
146.938
147.919
149.012
150.211
151.506
152.887
154.345
155.865
157.435
159.039
160.66
162.283
163.889
165.463
166.991
168.466
169.884
171.253
172.586
173.905
175.226
176.564
177.765
179.069
143.345
143.467
143.752
144.187
144.755
145.446
146.253
147.17
148.189
149.302
150.499
151.77
153.104
154.487
155.904
157.34
158.778
160.199
161.586
162.921
164.189
165.38
166.487
167.516
168.481
169.41
170.342
171.341
172.304
173.622
142.803
142.917
143.185
143.594
144.125
144.769
145.518
146.367
147.308
148.33
149.424
150.579
151.782
153.019
154.274
155.531
156.77
157.971
159.113
160.175
161.137
161.98
162.689
163.256
163.683
163.995
164.239
164.549
164.932
166.106
142.226
142.333
142.582
142.962
143.454
144.048
144.738
145.516
146.374
147.302
148.288
149.322
150.388
151.473
152.558
153.624
154.652
155.616
156.491
157.25
157.864
158.299
158.522
158.498
158.196
157.601
156.729
155.741
154.797
155.303
141.617
141.715
141.945
142.294
142.745
143.288
143.916
144.621
145.394
146.224
147.099
148.007
148.933
149.859
150.768
151.637
152.442
153.157
153.748
154.18
154.411
154.388
154.051
153.32
152.099
150.273
147.715
144.42
140.482
138.454
140.977
141.067
141.277
141.595
142.003
142.494
143.058
143.687
144.372
145.102
145.864
146.644
147.426
148.191
148.919
149.586
150.163
150.62
150.916
151.007
150.834
150.324
149.38
147.866
145.589
142.261
137.425
130.421
119.982
107.794
0.47024
0.450042
0.379832
0.283105
0.183665
0.0938841
0.0187047
-0.0402836
-0.0831448
-0.111099
-0.125222
-0.128322
-0.123297
-0.112823
-0.0993461
-0.0849498
-0.0711899
-0.059033
-0.0489116
-0.040843
-0.0345596
-0.0296362
-0.0256145
-0.0221066
-0.0188493
-0.0156953
-0.0125595
-0.00936116
-0.00599745
-0.0023542
0.420806
0.398124
0.332138
0.243011
0.151418
0.0682233
-0.00190247
-0.0571074
-0.0967234
-0.120913
-0.132539
-0.133749
-0.127067
-0.11514
-0.100465
-0.0851512
-0.0707567
-0.0582441
-0.0480105
-0.0400092
-0.0338935
-0.0291612
-0.0252985
-0.0218961
-0.0186998
-0.0155858
-0.012487
-0.00932811
-0.00599782
-0.00228146
0.364833
0.337848
0.27461
0.192711
0.109617
0.0340636
-0.0297972
-0.0800324
-0.115998
-0.137696
-0.146472
-0.14467
-0.135049
-0.120343
-0.103167
-0.0857451
-0.0697226
-0.0560919
-0.0452615
-0.0371561
-0.0313246
-0.0270872
-0.0237368
-0.0207382
-0.0178151
-0.014895
-0.0119621
-0.00896532
-0.00578035
-0.00219239
0.309036
0.277595
0.216258
0.140619
0.0655169
-0.00264977
-0.0602766
-0.105413
-0.137239
-0.155764
-0.161501
-0.15651
-0.143637
-0.125825
-0.105875
-0.0861245
-0.0682963
-0.0534549
-0.0420475
-0.033963
-0.0286011
-0.0250364
-0.022312
-0.0197574
-0.0171052
-0.0143745
-0.0116245
-0.0088192
-0.00584272
-0.00255047
0.266785
0.231143
0.171484
0.100458
0.031328
-0.0314716
-0.084551
-0.125918
-0.154584
-0.170348
-0.173783
-0.166419
-0.150784
-0.130294
-0.108014
-0.0863575
-0.0670891
-0.0513191
-0.0395198
-0.0315557
-0.0266808
-0.0237112
-0.0214659
-0.0191777
-0.0166367
-0.0139634
-0.0113051
-0.00862848
-0.00576334
-0.00262872
0.250142
0.209515
0.151087
0.0819492
0.0153994
-0.0453602
-0.0967683
-0.13679
-0.164342
-0.178944
-0.181162
-0.172301
-0.154919
-0.1329
-0.109346
-0.086687
-0.0666999
-0.0504857
-0.038485
-0.0305387
-0.0258555
-0.0231337
-0.0210975
-0.0189649
-0.0165265
-0.0139243
-0.0113199
-0.00868832
-0.00593774
-0.00273053
0.269947
0.221866
0.163022
0.0914316
0.0225144
-0.0405104
-0.0937978
-0.135238
-0.163667
-0.178753
-0.181635
-0.173447
-0.156
-0.133863
-0.110228
-0.0875412
-0.0675815
-0.0514418
-0.0395472
-0.0316828
-0.0269185
-0.0239407
-0.0216324
-0.0193096
-0.0167663
-0.0141141
-0.0114878
-0.00894645
-0.00641623
-0.00285963
0.332708
0.275625
0.208763
0.129062
0.0519079
-0.0177568
-0.07615
-0.121249
-0.152423
-0.17057
-0.176557
-0.170284
-0.154804
-0.134168
-0.111693
-0.0898757
-0.0704503
-0.0544677
-0.0423783
-0.0340723
-0.0288237
-0.0254894
-0.0229727
-0.0205155
-0.0178075
-0.0149161
-0.0120842
-0.00957217
-0.00716587
-0.00300621
0.441126
0.367191
0.282284
0.186658
0.0961609
0.0164111
-0.0493617
-0.0997842
-0.135775
-0.158712
-0.168013
-0.164727
-0.152124
-0.133895
-0.11333
-0.0929333
-0.0743825
-0.0586873
-0.0463736
-0.0375379
-0.0317602
-0.0281376
-0.0255542
-0.0230322
-0.0200448
-0.0166418
-0.0133067
-0.0105586
-0.00796038
-0.00314523
0.584169
0.479276
0.365697
0.247295
0.140889
0.0507425
-0.0227338
-0.0801125
-0.1212
-0.146884
-0.15872
-0.158414
-0.148713
-0.133053
-0.114721
-0.0961824
-0.078915
-0.0637334
-0.0512163
-0.0418126
-0.0355816
-0.0319231
-0.0296136
-0.0272376
-0.0238725
-0.0195846
-0.0152879
-0.0118631
-0.00870437
-0.00327018
0.734105
0.579955
0.435881
0.294444
0.170321
0.0690152
-0.0098181
-0.0688729
-0.111039
-0.138084
-0.151722
-0.153591
-0.146013
-0.132324
-0.116031
-0.099582
-0.0839852
-0.0695203
-0.0567135
-0.0465796
-0.0399633
-0.0366922
-0.0352754
-0.0334899
-0.0296991
-0.0240069
-0.0180774
-0.0134109
-0.00936231
-0.00337741
0.85975
0.650666
0.463463
0.301352
0.17021
0.0673534
-0.0115139
-0.0695745
-0.109888
-0.135687
-0.149432
-0.152197
-0.145368
-0.132325
-0.117361
-0.103122
-0.0897036
-0.0761894
-0.0628094
-0.0514982
-0.0444397
-0.0421435
-0.0426139
-0.0422161
-0.0380335
-0.030182
-0.0216377
-0.0150687
-0.00991083
-0.00346367
0.918532
0.633934
0.415635
0.245616
0.120185
0.0293559
-0.0384639
-0.0882256
-0.121245
-0.141716
-0.153371
-0.155828
-0.148051
-0.133481
-0.118522
-0.106672
-0.0963579
-0.0842017
-0.069629
-0.0561441
-0.0483001
-0.0477587
-0.0516595
-0.0539964
-0.0495971
-0.0384511
-0.0258142
-0.0165818
-0.0103149
-0.0035267
0.746859
0.369008
0.195729
0.0827168
-0.00192689
-0.0535173
-0.0929392
-0.126433
-0.146159
-0.15614
-0.163775
-0.165918
-0.155443
-0.135708
-0.118339
-0.109373
-0.10415
-0.0943235
-0.0774697
-0.0598742
-0.0504008
-0.0526787
-0.0623851
-0.0696634
-0.0654775
-0.0493015
-0.0302607
-0.0174481
-0.0105034
-0.00356614
0.11179
-0.347093
-0.306043
-0.216711
-0.212605
-0.175487
-0.162533
-0.183651
-0.189901
-0.180527
-0.180257
-0.183485
-0.168839
-0.138223
-0.114446
-0.110025
-0.114211
-0.10886
-0.0876877
-0.0621723
-0.0491866
-0.0556596
-0.0747081
-0.090416
-0.0873333
-0.0634864
-0.0343129
-0.0166969
-0.0103084
-0.00358431
140.298
140.379
140.567
140.852
141.217
141.652
142.15
142.701
143.297
143.923
144.568
145.216
145.85
146.45
146.992
147.451
147.795
147.987
147.98
147.72
147.134
146.126
144.562
142.249
138.889
133.986
126.622
114.887
92.7693
33.1433
139.571
139.642
139.808
140.058
140.377
140.755
141.184
141.655
142.157
142.677
143.201
143.713
144.195
144.625
144.978
145.224
145.33
145.254
144.943
144.333
143.34
141.85
139.704
136.672
132.395
126.29
117.324
103.767
84.2518
55.7867
138.801
138.863
139.005
139.219
139.491
139.81
140.168
140.556
140.962
141.374
141.775
142.15
142.478
142.736
142.899
142.934
142.804
142.465
141.859
140.916
139.545
137.625
134.991
131.415
126.568
119.998
111.111
99.2667
85.0072
68.3233
137.991
138.042
138.161
138.338
138.56
138.819
139.106
139.41
139.719
140.021
140.299
140.536
140.71
140.799
140.774
140.602
140.244
139.653
138.771
137.524
135.823
133.548
130.549
126.628
121.538
114.986
106.672
96.2622
83.6896
68.5105
137.141
137.182
137.276
137.416
137.589
137.787
138.001
138.221
138.433
138.625
138.78
138.88
138.904
138.827
138.62
138.25
137.677
136.853
135.721
134.21
132.235
129.688
126.441
122.337
117.195
110.815
102.995
93.4914
82.1345
69.1295
136.254
136.284
136.354
136.456
136.58
136.717
136.859
136.994
137.11
137.194
137.228
137.195
137.072
136.835
136.456
135.9
135.128
134.095
132.745
131.013
128.823
126.083
122.687
118.517
113.441
107.325
100.045
91.5002
81.6806
70.9976
135.333
135.353
135.398
135.462
135.537
135.613
135.683
135.734
135.756
135.734
135.651
135.489
135.226
134.839
134.298
133.571
132.621
131.405
129.872
127.964
125.615
122.751
119.29
115.144
110.226
104.455
97.7788
90.1836
81.7126
72.7015
134.381
134.39
134.411
134.438
134.463
134.48
134.479
134.45
134.379
134.255
134.059
133.774
133.38
132.852
132.163
131.283
130.177
128.805
127.123
125.082
122.627
119.7
116.239
112.185
107.484
102.097
96.0089
89.2394
81.8382
74.0779
133.401
133.4
133.397
133.387
133.365
133.323
133.254
133.145
132.987
132.764
132.461
132.062
131.545
130.888
130.066
129.051
127.812
126.312
124.516
122.381
119.865
116.923
113.513
109.596
105.144
100.141
94.5933
88.535
82.0196
75.2749
132.398
132.387
132.36
132.315
132.246
132.148
132.013
131.829
131.586
131.271
130.868
130.362
129.733
128.96
128.021
126.891
125.54
123.941
122.06
119.867
117.326
114.408
111.084
107.332
103.139
98.5057
93.4501
88.0113
82.2424
76.3287
131.376
131.355
131.306
131.226
131.113
130.961
130.762
130.507
130.185
129.784
129.289
128.685
127.955
127.081
126.04
124.812
123.373
121.698
119.761
117.538
115.004
112.139
108.924
105.351
101.416
97.1307
92.5177
87.6163
82.4747
77.2415
130.34
130.31
130.239
130.126
129.971
129.768
129.51
129.188
128.792
128.311
127.732
127.04
126.222
125.258
124.133
122.826
121.318
119.589
117.619
115.391
112.887
110.094
107.004
103.614
99.9295
95.9653
91.7464
87.3092
82.6958
78.0255
129.295
129.257
129.165
129.021
128.826
128.575
128.262
127.878
127.414
126.861
126.206
125.437
124.541
123.502
122.306
120.937
119.378
117.615
115.633
113.419
110.963
108.256
105.297
102.089
98.6402
94.9687
91.0986
87.0624
82.8961
78.6958
128.248
128.201
128.09
127.918
127.685
127.389
127.025
126.584
126.059
125.441
124.719
123.883
122.92
121.819
120.566
119.15
117.558
115.777
113.799
111.614
109.216
106.604
103.778
100.745
97.516
94.1091
90.5467
86.8572
83.071
79.2661
127.204
127.15
127.021
126.821
126.554
126.218
125.807
125.315
124.735
124.059
123.278
122.384
121.366
120.214
118.918
117.469
115.856
114.072
112.109
109.964
107.634
105.119
102.424
99.5571
96.5307
93.3614
90.0698
86.6804
83.2188
79.7483
126.17
126.108
125.963
125.739
125.44
125.067
124.614
124.076
123.447
122.721
121.891
120.948
119.885
118.693
117.365
115.894
114.272
112.495
110.559
108.461
106.202
103.785
101.217
98.505
95.6629
92.7058
89.6522
86.5229
83.3395
80.1536
125.152
125.084
124.924
124.677
124.35
123.944
123.453
122.875
122.204
121.435
120.562
119.579
118.48
117.259
115.909
114.426
112.805
111.043
109.14
107.094
104.909
102.588
100.138
97.5703
94.8951
92.127
89.2823
86.3787
83.4344
80.4917
124.157
124.083
123.91
123.643
123.291
122.855
122.332
121.719
121.012
120.206
119.299
118.283
117.157
115.913
114.55
113.063
111.451
109.712
107.845
105.854
103.741
101.513
99.1752
96.7385
94.2135
91.6132
88.9516
86.244
83.5057
80.7716
123.192
123.114
122.929
122.644
122.27
121.808
121.257
120.614
119.876
119.04
118.104
117.064
115.917
114.66
113.29
111.806
110.208
108.495
106.668
104.732
102.69
100.549
98.3148
95.9974
93.607
91.155
88.6538
86.1164
83.5558
81.001
122.266
122.183
121.987
121.688
121.294
120.81
120.235
119.566
118.803
117.943
116.984
115.925
114.764
113.499
112.128
110.652
109.072
107.388
105.603
103.721
101.747
99.6863
97.5471
95.3374
93.0669
90.7457
88.3846
85.995
83.5878
81.1871
121.385
121.298
121.093
120.78
120.37
119.867
119.271
118.582
117.797
116.918
115.943
114.87
113.7
112.432
111.065
109.601
108.041
106.388
104.644
102.814
100.903
98.9173
96.8639
94.7507
92.5864
90.38
88.1411
85.8794
83.6045
81.3362
120.557
120.466
120.254
119.93
119.505
118.987
118.374
117.667
116.866
115.972
114.984
113.902
112.728
111.46
110.1
108.651
107.113
105.49
103.786
102.005
100.153
98.2352
96.259
94.2315
92.1605
90.0544
87.9215
85.7704
83.6091
81.4546
119.791
119.697
119.478
119.143
118.707
118.175
117.548
116.828
116.014
115.109
114.112
113.025
111.849
110.585
109.234
107.8
106.285
104.692
103.025
101.29
99.4912
97.6346
95.7269
93.7748
91.7854
89.7663
87.7248
85.6685
83.6045
81.547
119.094
118.997
118.772
118.429
117.983
117.44
116.802
116.07
115.247
114.334
113.331
112.242
111.066
109.808
108.468
107.05
105.556
103.992
102.36
100.666
98.9149
97.1124
95.2647
93.3782
91.4593
89.5149
87.5515
85.576
83.5947
81.6194
118.475
118.376
118.145
117.794
117.339
116.787
116.141
115.401
114.57
113.651
112.645
111.555
110.382
109.13
107.801
106.399
104.926
103.387
101.787
100.129
98.4202
96.6647
94.8688
93.0383
91.1793
89.2981
87.4006
85.4929
83.5808
81.674
117.943
117.841
117.605
117.247
116.785
116.226
115.572
114.826
113.99
113.067
112.06
110.971
109.802
108.557
107.239
105.851
104.397
102.881
101.307
99.6817
98.0083
96.2927
94.5404
92.7569
90.948
89.1193
87.2764
85.4248
83.5699
81.72
117.508
117.403
117.159
116.793
116.325
115.759
115.1
114.349
113.51
112.585
111.577
110.489
109.325
108.086
106.778
105.403
103.965
102.468
100.918
99.3184
97.6745
95.9915
94.2745
92.5289
90.7601
88.9733
87.1738
85.3667
83.5567
81.7509
117.182
117.071
116.818
116.446
115.972
115.403
114.739
113.985
113.143
112.217
111.209
110.123
108.962
107.73
106.429
105.065
103.64
102.16
100.627
99.0487
97.4281
95.7706
94.0813
92.3652
90.6276
88.8734
87.1075
85.3349
83.5603
81.7896
116.98
116.845
116.575
116.197
115.721
115.149
114.483
113.727
112.884
111.958
110.951
109.867
108.71
107.482
106.188
104.831
103.416
101.946
100.427
98.8623
97.2575
95.6171
93.9463
92.2499
90.5328
88.7999
87.056
85.3056
83.5532
81.8037
116.962
116.763
116.465
116.08
115.602
115.026
114.357
113.599
112.756
111.829
110.823
109.741
108.586
107.362
106.073
104.722
103.313
101.851
100.34
98.7852
97.1907
95.5615
93.9025
92.2184
90.5142
88.7946
87.0641
85.3274
83.5886
81.8521
-50.3455
-30.067
-11.0593
35.3871
27.8606
15.6565
50.7637
38.6297
27.3539
52.2055
41.7606
33.6879
56.5507
48.2435
41.4651
60.9417
54.0175
48.1114
64.223
58.3302
53.2709
66.8282
61.7947
57.4781
69.0254
64.6865
60.972
70.8808
67.097
63.8658
72.4416
69.1075
66.2675
73.7572
70.792
68.2713
74.8682
72.2084
69.9507
75.8069
73.4024
71.3635
76.5998
74.4105
72.5553
77.2689
75.2625
73.5627
77.8323
75.9822
74.4148
78.3055
76.5896
75.1352
78.7012
77.1009
75.7436
79.0307
77.5301
76.2561
79.3034
77.8889
76.6865
79.5281
78.1877
77.0465
79.7114
78.4344
77.3457
79.8614
78.6384
77.5939
79.9806
78.803
77.7956
80.0808
78.9406
77.9633
80.1533
79.043
78.0904
80.2267
79.1391
78.2039
80.2611
79.1899
78.2687
80.3304
79.2733
78.3585
-3.09852
-3.03482
-1.59375
-0.457741
-0.412651
-0.303931
-0.247392
-0.285104
-0.264566
-0.197071
-0.182136
-0.201888
-0.192082
-0.144332
-0.104309
-0.106309
-0.127241
-0.130121
-0.100884
-0.0604026
-0.0405431
-0.0537899
-0.0881649
-0.11825
-0.118227
-0.0826188
-0.0368777
-0.0124397
-0.00924733
-0.00358876
1.86804
-0.952525
0.654143
0.1214
-1.27382
-0.99607
-0.295824
-0.297298
-0.267132
-0.161539
-0.190638
-0.275865
-0.274643
-0.163353
-0.0647205
-0.0810897
-0.139499
-0.164175
-0.124632
-0.0561629
-0.0226367
-0.0465964
-0.105127
-0.158279
-0.16412
-0.109705
-0.0357894
-0.000738415
-0.00585148
-0.00360748
13.0606
4.7146
1.85967
-0.611698
-0.875123
0.831485
0.943104
-0.584188
-0.905521
-0.497834
-0.167114
-0.266103
-0.27019
-0.0697229
0.0354829
-0.054205
-0.189179
-0.250195
-0.17844
-0.0402743
0.0249353
-0.0186403
-0.115602
-0.206004
-0.225157
-0.145759
-0.0271163
0.0254859
0.00333575
-0.00373815
22.8911
12.9815
7.06826
3.30344
1.63479
1.18362
-0.14475
-0.822821
-0.2989
0.875042
0.655095
-0.456551
-0.814472
-0.513397
0.0452277
0.0518884
-0.190153
-0.306343
-0.185882
0.034332
0.106034
0.0144869
-0.143948
-0.292821
-0.3367
-0.223508
-0.00851805
0.0760686
0.0243696
-0.00426353
32.0887
22.2955
14.9599
9.67598
6.06051
3.59996
1.70929
0.739445
0.531483
0.463753
-0.0808661
-0.696701
-0.700101
0.494438
1.00081
0.210616
-0.371652
-0.664303
-0.557091
-0.0538228
0.210501
0.0893246
-0.14582
-0.36575
-0.433562
-0.236559
0.0419194
0.165162
0.0643677
-0.00594575
40.0898
31.1425
23.2411
16.805
11.8831
8.249
5.58629
3.7135
2.4482
1.51762
0.743831
0.157555
0.00622828
0.414969
0.404087
0.0669409
-0.413656
-0.662903
-0.275495
0.502066
0.604868
0.151889
-0.208681
-0.533966
-0.714715
-0.543406
0.0466916
0.292464
0.127172
-0.0111077
46.6216
38.7986
31.0074
24.1082
18.4834
14.032
10.5152
7.76284
5.67035
4.0973
2.88014
1.93907
1.34869
1.09177
0.834437
0.456965
-0.0268642
-0.288467
-0.108725
0.236005
0.36435
0.160644
-0.189497
-0.570436
-0.742744
-0.32769
0.413953
0.531633
0.204707
-0.0242249
51.9412
45.1962
37.9252
31.0864
25.201
20.2578
16.1198
12.7
9.93553
7.72637
5.94555
4.51951
3.45203
2.70716
2.1096
1.5008
0.909825
0.527876
0.452043
0.53955
0.549165
0.31844
-0.0618444
-0.421097
-0.546279
-0.256283
0.194688
0.401405
0.306937
-0.0631319
56.2807
50.4537
43.8587
37.3772
31.5553
26.4433
21.9755
18.1172
14.8396
12.0861
9.78275
7.87513
6.33591
5.11794
4.10835
3.20529
2.41724
1.8298
1.48553
1.29964
1.09621
0.757524
0.341635
-0.0120668
-0.157143
-0.0148573
0.265785
0.402085
0.262058
-0.303014
59.8223
54.7472
48.8364
42.8449
37.2873
32.2416
27.6785
23.5938
19.9893
16.8466
14.1299
11.8022
9.83154
8.17553
6.76573
5.5407
4.4879
3.63474
2.99201
2.50157
2.05222
1.56881
1.07668
0.663737
0.422597
0.390409
0.466707
0.441718
0.173401
-0.517999
62.7314
58.2665
52.9804
47.5071
42.3079
37.4664
32.9698
28.8296
25.0672
21.6884
18.6819
16.0277
13.7032
11.6789
9.91409
8.36895
7.02398
5.87996
4.93126
4.13764
3.43142
2.76214
2.13403
1.59545
1.20022
0.961362
0.804427
0.582402
0.172446
-0.592423
65.1412
61.1738
56.4315
51.449
46.6324
42.0606
37.7269
33.6484
29.8553
26.3662
23.1852
20.3068
17.7198
15.4075
13.3462
11.5106
9.88288
8.4542
7.21275
6.13007
5.16348
4.27786
3.46767
2.75525
2.16698
1.70149
1.30324
0.870553
0.308324
-0.521366
67.1518
63.5938
59.3159
54.7746
50.3272
46.0446
41.9208
37.9729
34.233
30.7259
27.4642
24.4521
21.6879
19.1649
16.871
14.7914
12.9132
11.2259
9.71738
8.36705
7.14703
6.03264
5.01453
4.09914
3.29514
2.59368
1.95316
1.30349
0.57684
-0.330569
68.8384
65.6211
61.7378
57.584
53.4759
49.4759
45.5768
41.7933
38.1561
34.6915
31.4165
28.3411
25.47
22.8033
20.3371
18.0644
15.9772
14.0671
12.324
10.7334
9.27663
7.93608
6.70146
5.57054
4.54194
3.60365
2.72436
1.85602
0.953098
-0.0559104
70.2593
67.3278
63.7803
59.9634
56.1594
52.4231
48.7455
45.138
41.6283
38.2423
34.9984
31.9094
28.984
26.2271
23.64
21.221
18.9666
16.8714
14.9285
13.1278
11.4567
9.90259
8.45563
7.10966
5.85838
4.6891
3.57806
2.49225
1.40191
0.262764
71.4595
68.7695
65.5087
61.9839
58.4491
54.9528
51.4843
48.0515
44.6788
41.3903
38.2043
35.1348
32.1925
29.3851
26.7174
24.1916
21.8072
19.5622
17.4524
15.4713
13.6106
11.861
10.214
8.66218
7.19738
5.80746
4.47402
3.17386
1.88697
0.590106
72.475
69.9899
66.9746
63.7028
60.405
57.1242
53.8482
50.5821
47.3466
44.1635
41.0503
38.0209
35.087
32.2577
29.5401
26.9386
24.4554
22.0909
19.8434
17.7092
15.6831
13.7583
11.9277
10.1842
8.51911
6.92149
5.37653
3.86693
2.37784
0.900677
73.3344
71.0238
68.2193
65.1668
62.0767
58.9878
55.8867
52.7755
49.6721
46.5956
43.5622
40.5852
37.6761
34.8451
32.1
29.4469
26.8899
24.4311
22.071
19.8079
17.6387
15.5589
13.5627
11.6435
9.79335
8.00221
6.25759
4.54543
2.85283
1.18016
74.0613
71.8994
69.2761
66.4138
63.5054
60.5862
57.6421
54.673
51.6935
48.7207
45.769
42.8506
39.9768
37.1575
34.4013
31.7151
29.1041
26.5718
24.12
21.7488
19.4569
17.241
15.0969
13.0187
10.9992
9.02918
7.09755
5.19168
3.29873
1.4236
74.675
72.6401
70.1726
67.4749
64.7249
61.9552
59.151
56.3103
53.4453
50.5706
47.699
44.8417
42.009
39.2106
36.4549
33.7495
31.1
28.5109
25.985
23.5239
21.127
18.7927
16.5176
14.2966
12.1233
9.98923
7.88385
5.79503
3.70908
1.63232
75.1916
73.265
70.9314
68.3758
65.7637
63.1248
60.4443
57.7186
54.9576
52.1739
49.3787
46.5819
43.793
41.0209
38.274
35.5596
32.8838
30.2515
27.6664
25.1306
22.6447
20.2078
17.8175
15.4695
13.1577
10.8743
8.609
6.34967
4.08151
1.81048
75.6251
73.7906
71.5717
69.1386
66.6456
64.1206
61.5486
58.9248
56.2571
53.5563
50.8323
48.0936
45.3487
42.6059
39.8729
37.1569
34.4641
31.7996
29.1674
26.5702
24.0093
21.4844
18.9936
16.5333
14.098
11.6799
9.26916
6.85317
4.41624
1.96299
75.9866
74.2301
72.109
69.7807
67.3901
64.9635
62.4858
59.9513
57.3661
54.7398
52.0805
49.396
46.6936
43.9808
41.2648
38.5525
35.8497
33.1616
30.4924
27.8452
25.2215
22.6216
20.044
17.4856
14.9412
12.4031
9.86164
7.30388
4.71346
2.0932
76.2871
74.5961
72.5577
70.3184
68.0151
65.6724
63.2758
60.8185
58.3054
55.7445
53.1432
50.5078
47.845
45.1615
42.4638
39.7582
37.0505
34.3456
31.6478
28.9601
26.2845
23.6214
20.9698
18.3267
15.6872
13.0438
10.3867
7.70279
4.97533
2.20486
76.5327
74.8961
72.9268
70.7621
68.5319
66.2601
63.9319
61.5403
59.0888
56.5845
54.0336
51.4418
48.8147
46.1584
43.4787
40.7816
38.0723
35.3557
32.6359
29.916
27.198
24.4825
21.7686
19.0535
16.3325
13.5982
10.8408
8.04694
5.19975
2.29752
76.7353
75.1429
73.2303
71.127
68.957
66.7435
64.4721
62.1349
59.735
57.2782
54.7701
52.2156
49.6195
46.9874
44.3245
41.6362
38.9276
36.2031
33.4668
30.7216
27.9695
25.2113
22.4462
19.6714
16.8822
14.0714
11.229
8.34167
5.39234
2.3763
76.8917
75.3342
73.4664
71.4117
69.2896
67.1225
64.8963
62.6029
60.2443
57.826
55.3526
52.8285
50.2582
47.6463
44.9979
42.3179
39.6108
36.8811
34.1325
31.368
28.5894
25.7975
22.9915
20.1688
17.3246
14.4516
11.5399
8.57612
5.54319
2.43417
77.0241
75.4923
73.6586
71.6408
69.5548
67.4228
65.2309
62.9707
60.6437
58.2546
55.8079
53.3074
50.7569
48.161
45.5241
42.8508
40.1456
37.4124
34.655
31.8761
29.0777
26.2603
23.4233
20.5638
17.6773
14.7564
11.7909
8.76735
5.6685
2.48364
77.1056
75.59
73.7786
71.7859
69.7243
67.6158
65.4468
63.2088
60.9029
58.5336
56.1048
53.6201
51.0832
48.4981
45.8691
43.2006
40.4968
37.7616
34.9985
32.2102
29.3986
26.5642
23.7063
20.8221
17.9069
14.9532
11.9508
8.8857
5.74073
2.50357
77.1948
75.6802
73.8811
71.9034
69.8555
67.7595
65.6027
63.3764
61.0815
58.7223
56.3025
53.8256
51.2951
48.7149
46.0892
43.4222
40.7181
37.9807
35.2134
32.419
29.5992
26.7547
23.8846
20.9863
18.0548
15.0828
12.0594
8.97004
5.79483
2.50993
)
;

boundaryField
{
    inlet
    {
        type            zeroGradient;
    }
    outlet
    {
        type            fixedValue;
        value           uniform 0;
    }
    flap
    {
        type            zeroGradient;
    }
    upperWall
    {
        type            zeroGradient;
    }
    lowerWall
    {
        type            zeroGradient;
    }
    frontAndBack
    {
        type            empty;
    }
}


// ************************************************************************* //
