/*--------------------------------*- C++ -*----------------------------------*\
| =========                 |                                                 |
| \\      /  F ield         | OpenFOAM: The Open Source CFD Toolbox           |
|  \\    /   O peration     | Version:  5.x                                   |
|   \\  /    A nd           | Web:      www.OpenFOAM.org                      |
|    \\/     M anipulation  |                                                 |
\*---------------------------------------------------------------------------*/
FoamFile
{
    version     2.0;
    format      ascii;
    class       volVectorField;
    location    "1";
    object      U;
}
// * * * * * * * * * * * * * * * * * * * * * * * * * * * * * * * * * * * * * //

dimensions      [0 1 -1 0 0 0 0];

internalField   nonuniform List<vector> 
12013
(
(0.100006 -1.46561e-06 0)
(0.100026 -2.37445e-06 0)
(0.100055 -2.6162e-06 0)
(0.100081 -2.06175e-06 0)
(0.100097 -7.40043e-07 0)
(0.100097 1.17498e-06 0)
(0.100076 3.38218e-06 0)
(0.100035 5.53254e-06 0)
(0.0999758 7.3278e-06 0)
(0.0999041 8.58852e-06 0)
(0.0998256 9.27041e-06 0)
(0.0997454 9.43998e-06 0)
(0.0996674 9.2241e-06 0)
(0.0995943 8.76188e-06 0)
(0.0995273 8.17221e-06 0)
(0.0994668 7.5375e-06 0)
(0.0994128 6.90453e-06 0)
(0.099365 6.28949e-06 0)
(0.0993229 5.69197e-06 0)
(0.0992863 5.10084e-06 0)
(0.099255 4.50333e-06 0)
(0.0992289 3.88701e-06 0)
(0.099208 3.24238e-06 0)
(0.0991924 2.56367e-06 0)
(0.0991821 1.84734e-06 0)
(0.0991772 1.09235e-06 0)
(0.0991777 2.99414e-07 0)
(0.0991837 -5.30003e-07 0)
(0.0991953 -1.39232e-06 0)
(0.0992123 -2.28479e-06 0)
(0.0992348 -3.20333e-06 0)
(0.0992627 -4.14325e-06 0)
(0.0992959 -5.09864e-06 0)
(0.0993343 -6.06383e-06 0)
(0.0993777 -7.03216e-06 0)
(0.0994259 -7.99585e-06 0)
(0.0994787 -8.94636e-06 0)
(0.0995359 -9.87403e-06 0)
(0.099597 -1.07693e-05 0)
(0.0996618 -1.16199e-05 0)
(0.0997298 -1.24139e-05 0)
(0.0998007 -1.31366e-05 0)
(0.0998739 -1.37726e-05 0)
(0.099949 -1.43041e-05 0)
(0.100025 -1.47119e-05 0)
(0.100102 -1.49742e-05 0)
(0.100179 -1.5066e-05 0)
(0.100255 -1.49595e-05 0)
(0.100329 -1.46226e-05 0)
(0.100401 -1.40194e-05 0)
(0.100469 -1.31079e-05 0)
(0.100532 -1.18403e-05 0)
(0.100589 -1.01606e-05 0)
(0.100639 -8.00371e-06 0)
(0.100679 -5.29409e-06 0)
(0.100709 -1.94102e-06 0)
(0.100726 2.16227e-06 0)
(0.100728 7.144e-06 0)
(0.100713 1.31576e-05 0)
(0.100678 2.03901e-05 0)
(0.100618 2.90707e-05 0)
(0.100531 3.94829e-05 0)
(0.100411 5.19807e-05 0)
(0.100254 6.70119e-05 0)
(0.100052 8.5149e-05 0)
(0.0997978 0.000107134 0)
(0.0994811 0.000133945 0)
(0.09909 0.000166888 0)
(0.0986089 0.000207743 0)
(0.0980181 0.000258979 0)
(0.0972918 0.000324097 0)
(0.0963956 0.000408174 0)
(0.0952828 0.000518747 0)
(0.0938885 0.000667289 0)
(0.0921204 0.000871713 0)
(0.0898447 0.0011607 0)
(0.0868622 0.00158133 0)
(0.0828556 0.00221504 0)
(0.0773268 0.00322728 0)
(0.0696761 0.00508225 0)
(0.061049 0.00987449 0)
(0.100005 -4.49357e-06 0)
(0.100026 -7.29995e-06 0)
(0.100055 -8.05208e-06 0)
(0.100081 -6.35778e-06 0)
(0.100098 -2.30812e-06 0)
(0.100098 3.56497e-06 0)
(0.100077 1.03391e-05 0)
(0.100037 1.69427e-05 0)
(0.0999779 2.2459e-05 0)
(0.0999066 2.63355e-05 0)
(0.0998283 2.84374e-05 0)
(0.0997482 2.89664e-05 0)
(0.0996703 2.83108e-05 0)
(0.0995971 2.68985e-05 0)
(0.0995301 2.50932e-05 0)
(0.0994695 2.31494e-05 0)
(0.0994154 2.1209e-05 0)
(0.0993673 1.93245e-05 0)
(0.099325 1.7493e-05 0)
(0.0992882 1.5682e-05 0)
(0.0992566 1.38511e-05 0)
(0.0992302 1.19629e-05 0)
(0.0992091 9.98901e-06 0)
(0.0991931 7.91098e-06 0)
(0.0991824 5.7183e-06 0)
(0.099177 3.4076e-06 0)
(0.0991771 9.81117e-07 0)
(0.0991826 -1.55581e-06 0)
(0.0991935 -4.19402e-06 0)
(0.0992099 -6.92367e-06 0)
(0.0992317 -9.73237e-06 0)
(0.0992588 -1.26056e-05 0)
(0.0992912 -1.55262e-05 0)
(0.0993287 -1.84754e-05 0)
(0.0993711 -2.14329e-05 0)
(0.0994182 -2.4375e-05 0)
(0.0994699 -2.72764e-05 0)
(0.0995258 -3.01074e-05 0)
(0.0995856 -3.28369e-05 0)
(0.0996491 -3.54293e-05 0)
(0.0997157 -3.78459e-05 0)
(0.099785 -4.00434e-05 0)
(0.0998567 -4.19737e-05 0)
(0.0999301 -4.35833e-05 0)
(0.100005 -4.48125e-05 0)
(0.10008 -4.55939e-05 0)
(0.100155 -4.58517e-05 0)
(0.100229 -4.55006e-05 0)
(0.100301 -4.44434e-05 0)
(0.10037 -4.25689e-05 0)
(0.100436 -3.97497e-05 0)
(0.100497 -3.58382e-05 0)
(0.100552 -3.0665e-05 0)
(0.100599 -2.40313e-05 0)
(0.100637 -1.57051e-05 0)
(0.100665 -5.41133e-06 0)
(0.10068 7.17604e-06 0)
(0.10068 2.2445e-05 0)
(0.100663 4.08624e-05 0)
(0.100626 6.2995e-05 0)
(0.100565 8.95359e-05 0)
(0.100477 0.000121341 0)
(0.100358 0.000159478 0)
(0.100201 0.00020529 0)
(0.100001 0.000260493 0)
(0.0997505 0.000327301 0)
(0.0994398 0.000408614 0)
(0.0990579 0.00050829 0)
(0.0985906 0.000631543 0)
(0.0980205 0.000785549 0)
(0.0973247 0.000980371 0)
(0.0964742 0.0012304 0)
(0.0954307 0.00155663 0)
(0.0941434 0.00199028 0)
(0.0925447 0.00257861 0)
(0.090545 0.00339395 0)
(0.0880272 0.00454714 0)
(0.0848368 0.00620616 0)
(0.0808003 0.00862116 0)
(0.0759693 0.0120914 0)
(0.0717495 0.016501 0)
(0.100005 -7.70094e-06 0)
(0.100026 -1.25898e-05 0)
(0.100055 -1.39164e-05 0)
(0.100081 -1.10362e-05 0)
(0.100098 -4.10267e-06 0)
(0.100099 5.97619e-06 0)
(0.10008 1.76185e-05 0)
(0.10004 2.8985e-05 0)
(0.0999824 3.84972e-05 0)
(0.099912 4.51995e-05 0)
(0.0998344 4.88548e-05 0)
(0.0997547 4.98046e-05 0)
(0.099677 4.87125e-05 0)
(0.099604 4.63127e-05 0)
(0.0995368 4.32307e-05 0)
(0.0994761 3.99049e-05 0)
(0.0994217 3.65801e-05 0)
(0.0993733 3.33501e-05 0)
(0.0993306 3.021e-05 0)
(0.0992934 2.71062e-05 0)
(0.0992614 2.39692e-05 0)
(0.0992345 2.07362e-05 0)
(0.0992127 1.73586e-05 0)
(0.0991961 1.38046e-05 0)
(0.0991847 1.00566e-05 0)
(0.0991786 6.10911e-06 0)
(0.0991778 1.96528e-06 0)
(0.0991823 -2.36486e-06 0)
(0.0991922 -6.86701e-06 0)
(0.0992073 -1.15228e-05 0)
(0.0992278 -1.63111e-05 0)
(0.0992535 -2.12064e-05 0)
(0.0992843 -2.61803e-05 0)
(0.0993201 -3.11999e-05 0)
(0.0993606 -3.62296e-05 0)
(0.0994058 -4.12295e-05 0)
(0.0994553 -4.61552e-05 0)
(0.0995089 -5.0957e-05 0)
(0.0995663 -5.55794e-05 0)
(0.0996271 -5.9963e-05 0)
(0.099691 -6.40402e-05 0)
(0.0997574 -6.77371e-05 0)
(0.0998259 -7.0971e-05 0)
(0.0998961 -7.36505e-05 0)
(0.0999672 -7.56724e-05 0)
(0.100039 -7.69218e-05 0)
(0.10011 -7.72693e-05 0)
(0.10018 -7.65683e-05 0)
(0.100248 -7.4653e-05 0)
(0.100314 -7.13334e-05 0)
(0.100375 -6.63922e-05 0)
(0.100432 -5.95788e-05 0)
(0.100482 -5.06038e-05 0)
(0.100525 -3.91304e-05 0)
(0.100559 -2.47635e-05 0)
(0.100582 -7.03867e-06 0)
(0.100593 1.45951e-05 0)
(0.100589 4.07908e-05 0)
(0.100568 7.23327e-05 0)
(0.100528 0.000110171 0)
(0.100464 0.000155462 0)
(0.100374 0.000209629 0)
(0.100254 0.000274438 0)
(0.100098 0.0003521 0)
(0.0999005 0.000445417 0)
(0.0996555 0.000557979 0)
(0.0993545 0.000694442 0)
(0.0989879 0.000860928 0)
(0.098544 0.00106559 0)
(0.0980084 0.00131947 0)
(0.0973637 0.0016377 0)
(0.0965888 0.00204133 0)
(0.0956578 0.00256002 0)
(0.0945402 0.00323595 0)
(0.0932012 0.00412922 0)
(0.0916052 0.00532464 0)
(0.0897246 0.00693781 0)
(0.0875576 0.00911392 0)
(0.0851737 0.0120037 0)
(0.0828539 0.0156365 0)
(0.0813596 0.0193928 0)
(0.100005 -1.1085e-05 0)
(0.100026 -1.82627e-05 0)
(0.100055 -2.02437e-05 0)
(0.100082 -1.61613e-05 0)
(0.1001 -6.21658e-06 0)
(0.100102 8.29242e-06 0)
(0.100084 2.50936e-05 0)
(0.100046 4.1537e-05 0)
(0.0999897 5.53402e-05 0)
(0.0999208 6.51125e-05 0)
(0.0998444 7.04961e-05 0)
(0.0997656 7.19696e-05 0)
(0.0996884 7.04817e-05 0)
(0.0996156 6.70866e-05 0)
(0.0995484 6.26876e-05 0)
(0.0994874 5.79196e-05 0)
(0.0994327 5.31417e-05 0)
(0.0993839 4.84935e-05 0)
(0.0993408 4.39732e-05 0)
(0.099303 3.95054e-05 0)
(0.0992704 3.49936e-05 0)
(0.0992429 3.03477e-05 0)
(0.0992204 2.54988e-05 0)
(0.099203 2.04014e-05 0)
(0.0991907 1.50307e-05 0)
(0.0991835 9.37859e-06 0)
(0.0991815 3.44977e-06 0)
(0.0991847 -2.74177e-06 0)
(0.099193 -9.17446e-06 0)
(0.0992066 -1.58225e-05 0)
(0.0992252 -2.26546e-05 0)
(0.0992489 -2.96338e-05 0)
(0.0992775 -3.67183e-05 0)
(0.0993109 -4.38618e-05 0)
(0.0993489 -5.10117e-05 0)
(0.0993912 -5.81109e-05 0)
(0.0994377 -6.50937e-05 0)
(0.0994881 -7.18893e-05 0)
(0.099542 -7.84176e-05 0)
(0.0995991 -8.45921e-05 0)
(0.099659 -9.03155e-05 0)
(0.0997213 -9.54809e-05 0)
(0.0997855 -9.99696e-05 0)
(0.099851 -0.00010365 0)
(0.0999173 -0.000106373 0)
(0.0999837 -0.000107973 0)
(0.10005 -0.000108265 0)
(0.100114 -0.00010704 0)
(0.100177 -0.000104058 0)
(0.100236 -9.90485e-05 0)
(0.100292 -9.17011e-05 0)
(0.100342 -8.16595e-05 0)
(0.100386 -6.85112e-05 0)
(0.100423 -5.17778e-05 0)
(0.100451 -3.09003e-05 0)
(0.100468 -5.22261e-06 0)
(0.100473 2.60293e-05 0)
(0.100463 6.37701e-05 0)
(0.100437 0.000109096 0)
(0.100392 0.000163325 0)
(0.100325 0.000228059 0)
(0.100232 0.000305252 0)
(0.100111 0.000397311 0)
(0.0999571 0.000507229 0)
(0.0997649 0.000638758 0)
(0.0995291 0.000796649 0)
(0.0992431 0.00098698 0)
(0.0988995 0.00121761 0)
(0.0984895 0.00149878 0)
(0.0980032 0.00184404 0)
(0.0974297 0.00227137 0)
(0.0967569 0.00280489 0)
(0.0959728 0.00347698 0)
(0.0950671 0.00433095 0)
(0.0940348 0.00542386 0)
(0.092883 0.00682793 0)
(0.0916429 0.00862687 0)
(0.0903875 0.0108982 0)
(0.0892576 0.0136645 0)
(0.0884909 0.0167715 0)
(0.0883889 0.0196124 0)
(0.100005 -1.46662e-05 0)
(0.100026 -2.4346e-05 0)
(0.100054 -2.70889e-05 0)
(0.100082 -2.18247e-05 0)
(0.100101 -8.78239e-06 0)
(0.100105 1.03441e-05 0)
(0.100089 3.2571e-05 0)
(0.100053 5.4403e-05 0)
(0.1 7.28124e-05 0)
(0.0999334 8.59372e-05 0)
(0.0998588 9.32738e-05 0)
(0.0997814 9.54267e-05 0)
(0.0997051 9.36308e-05 0)
(0.0996327 8.92705e-05 0)
(0.0995655 8.35408e-05 0)
(0.0995044 7.72876e-05 0)
(0.0994493 7.09959e-05 0)
(0.0994001 6.48608e-05 0)
(0.0993564 5.88886e-05 0)
(0.0993181 5.29865e-05 0)
(0.0992848 4.70317e-05 0)
(0.0992565 4.09082e-05 0)
(0.0992332 3.45263e-05 0)
(0.0992148 2.78265e-05 0)
(0.0992014 2.0776e-05 0)
(0.099193 1.33649e-05 0)
(0.0991896 5.59934e-06 0)
(0.0991912 -2.50227e-06 0)
(0.0991978 -1.09115e-05 0)
(0.0992094 -1.95937e-05 0)
(0.0992258 -2.85064e-05 0)
(0.0992471 -3.76014e-05 0)
(0.099273 -4.68225e-05 0)
(0.0993034 -5.61077e-05 0)
(0.0993382 -6.53879e-05 0)
(0.0993771 -7.45854e-05 0)
(0.0994198 -8.3614e-05 0)
(0.0994661 -9.2379e-05 0)
(0.0995157 -0.000100775 0)
(0.0995682 -0.000108687 0)
(0.0996232 -0.000115985 0)
(0.0996803 -0.000122529 0)
(0.0997389 -0.000128162 0)
(0.0997987 -0.000132708 0)
(0.0998589 -0.000135973 0)
(0.099919 -0.000137738 0)
(0.0999783 -0.000137761 0)
(0.100036 -0.000135765 0)
(0.100091 -0.000131438 0)
(0.100144 -0.000124425 0)
(0.100192 -0.000114323 0)
(0.100235 -0.000100667 0)
(0.100271 -8.29229e-05 0)
(0.1003 -6.0471e-05 0)
(0.10032 -3.25913e-05 0)
(0.10033 1.5585e-06 0)
(0.100328 4.29644e-05 0)
(0.100312 9.27896e-05 0)
(0.10028 0.00015242 0)
(0.10023 0.000223512 0)
(0.100159 0.00030806 0)
(0.100065 0.00040848 0)
(0.0999443 0.000527719 0)
(0.0997939 0.000669396 0)
(0.0996096 0.00083799 0)
(0.0993873 0.00103908 0)
(0.0991223 0.00127969 0)
(0.0988096 0.00156865 0)
(0.098444 0.00191725 0)
(0.0980202 0.00233985 0)
(0.0975337 0.00285487 0)
(0.0969812 0.00348581 0)
(0.0963629 0.00426247 0)
(0.0956842 0.00522184 0)
(0.0949603 0.00640814 0)
(0.0942223 0.00787011 0)
(0.0935247 0.00965224 0)
(0.0929542 0.0117739 0)
(0.092634 0.014187 0)
(0.0927078 0.0167035 0)
(0.0932651 0.0188983 0)
(0.100005 -1.84619e-05 0)
(0.100025 -3.08699e-05 0)
(0.100054 -3.45154e-05 0)
(0.100083 -2.81341e-05 0)
(0.100103 -1.19611e-05 0)
(0.100109 1.19201e-05 0)
(0.100096 3.9805e-05 0)
(0.100064 6.73271e-05 0)
(0.100014 9.06774e-05 0)
(0.09995 0.00010748 0)
(0.099878 0.000117053 0)
(0.0998025 0.000120103 0)
(0.0997275 0.000118145 0)
(0.0996557 0.000112896 0)
(0.0995888 0.000105856 0)
(0.0995276 9.80958e-05 0)
(0.0994722 9.02411e-05 0)
(0.0994226 8.25551e-05 0)
(0.0993783 7.50602e-05 0)
(0.0993394 6.76539e-05 0)
(0.0993054 6.0189e-05 0)
(0.0992764 5.25257e-05 0)
(0.0992522 4.45542e-05 0)
(0.0992328 3.62011e-05 0)
(0.0992182 2.74262e-05 0)
(0.0992085 1.82167e-05 0)
(0.0992035 8.58e-06 0)
(0.0992034 -1.45987e-06 0)
(0.099208 -1.18677e-05 0)
(0.0992173 -2.25992e-05 0)
(0.0992312 -3.36004e-05 0)
(0.0992497 -4.48099e-05 0)
(0.0992725 -5.61575e-05 0)
(0.0992995 -6.75639e-05 0)
(0.0993306 -7.89415e-05 0)
(0.0993655 -9.01921e-05 0)
(0.0994039 -0.000101207 0)
(0.0994455 -0.000111867 0)
(0.0994901 -0.000122038 0)
(0.0995372 -0.000131576 0)
(0.0995865 -0.000140319 0)
(0.0996375 -0.000148089 0)
(0.0996898 -0.000154689 0)
(0.0997428 -0.000159901 0)
(0.0997959 -0.000163482 0)
(0.0998487 -0.000165159 0)
(0.0999003 -0.00016463 0)
(0.0999501 -0.000161552 0)
(0.0999974 -0.000155538 0)
(0.100041 -0.000146152 0)
(0.100081 -0.000132896 0)
(0.100115 -0.0001152 0)
(0.100143 -9.24105e-05 0)
(0.100163 -6.37751e-05 0)
(0.100175 -2.84207e-05 0)
(0.100177 1.46663e-05 0)
(0.100167 6.66632e-05 0)
(0.100144 0.000128956 0)
(0.100106 0.00020318 0)
(0.100051 0.000291274 0)
(0.0999778 0.000395551 0)
(0.0998832 0.000518778 0)
(0.0997652 0.000664291 0)
(0.0996211 0.000836124 0)
(0.0994485 0.00103919 0)
(0.0992444 0.00127947 0)
(0.0990063 0.00156433 0)
(0.0987318 0.0019028 0)
(0.0984189 0.00230599 0)
(0.0980669 0.00278756 0)
(0.0976767 0.00336417 0)
(0.0972521 0.00405592 0)
(0.0968015 0.00488659 0)
(0.0963401 0.00588311 0)
(0.0958927 0.00707393 0)
(0.0954977 0.00848466 0)
(0.0952098 0.0101292 0)
(0.0951013 0.0119935 0)
(0.0952554 0.01401 0)
(0.0957436 0.0160245 0)
(0.0965732 0.0177742 0)
(0.100005 -2.24872e-05 0)
(0.100025 -3.78661e-05 0)
(0.100054 -4.25924e-05 0)
(0.100084 -3.52113e-05 0)
(0.100106 -1.59394e-05 0)
(0.100114 1.27701e-05 0)
(0.100105 4.64983e-05 0)
(0.100076 7.99949e-05 0)
(0.10003 0.000108635 0)
(0.0999705 0.000129488 0)
(0.0999018 0.000141643 0)
(0.0998288 0.000145881 0)
(0.0997555 0.000143973 0)
(0.0996848 0.000137969 0)
(0.0996184 0.000129679 0)
(0.0995572 0.000120417 0)
(0.0995016 0.000110965 0)
(0.0994516 0.00010167 0)
(0.0994069 9.25851e-05 0)
(0.0993673 8.36041e-05 0)
(0.0993327 7.45629e-05 0)
(0.0993029 6.53007e-05 0)
(0.0992778 5.56888e-05 0)
(0.0992575 4.56407e-05 0)
(0.0992417 3.51085e-05 0)
(0.0992305 2.40763e-05 0)
(0.099224 1.25538e-05 0)
(0.099222 5.69598e-07 0)
(0.0992244 -1.18334e-05 0)
(0.0992313 -2.46003e-05 0)
(0.0992425 -3.76661e-05 0)
(0.0992579 -5.09545e-05 0)
(0.0992774 -6.43798e-05 0)
(0.0993007 -7.78452e-05 0)
(0.0993277 -9.12432e-05 0)
(0.0993581 -0.000104454 0)
(0.0993917 -0.000117345 0)
(0.0994282 -0.00012977 0)
(0.0994671 -0.000141569 0)
(0.0995083 -0.000152564 0)
(0.0995513 -0.000162559 0)
(0.0995956 -0.00017134 0)
(0.0996407 -0.000178669 0)
(0.0996863 -0.000184283 0)
(0.0997317 -0.000187889 0)
(0.0997763 -0.000189162 0)
(0.0998195 -0.000187738 0)
(0.0998606 -0.00018321 0)
(0.0998989 -0.000175118 0)
(0.0999337 -0.000162945 0)
(0.099964 -0.000146104 0)
(0.099989 -0.000123926 0)
(0.100008 -9.56489e-05 0)
(0.100019 -6.03959e-05 0)
(0.100022 -1.71596e-05 0)
(0.100015 3.52195e-05 0)
(0.099998 9.8081e-05 0)
(0.0999684 0.00017299 0)
(0.0999251 0.000261775 0)
(0.0998667 0.000366581 0)
(0.0997917 0.000489931 0)
(0.0996984 0.000634807 0)
(0.0995853 0.000804743 0)
(0.0994507 0.00100394 0)
(0.0992934 0.00123738 0)
(0.099112 0.00151104 0)
(0.0989058 0.00183201 0)
(0.0986748 0.00220872 0)
(0.09842 0.00265114 0)
(0.098144 0.00317096 0)
(0.0978518 0.00378167 0)
(0.0975518 0.00449846 0)
(0.0972566 0.00533777 0)
(0.0969852 0.00631614 0)
(0.096764 0.00744801 0)
(0.0966284 0.00874163 0)
(0.0966227 0.0101925 0)
(0.0967973 0.0117736 0)
(0.0972009 0.0134228 0)
(0.0978629 0.0150316 0)
(0.0987653 0.016446 0)
(0.100005 -2.6756e-05 0)
(0.100025 -4.53677e-05 0)
(0.100054 -5.1393e-05 0)
(0.100084 -4.31867e-05 0)
(0.100108 -2.09211e-05 0)
(0.10012 1.26163e-05 0)
(0.100114 5.23145e-05 0)
(0.100091 9.20414e-05 0)
(0.10005 0.000126331 0)
(0.0999945 0.000151646 0)
(0.0999298 0.000166799 0)
(0.09986 0.000172591 0)
(0.0997889 0.000171021 0)
(0.0997196 0.000164457 0)
(0.0996539 0.000155027 0)
(0.0995931 0.0001443 0)
(0.0995374 0.000133237 0)
(0.0994871 0.000122286 0)
(0.099442 0.000111546 0)
(0.0994019 0.000100922 0)
(0.0993667 9.02402e-05 0)
(0.0993363 7.93234e-05 0)
(0.0993104 6.80268e-05 0)
(0.099289 5.62514e-05 0)
(0.099272 4.39418e-05 0)
(0.0992595 3.10799e-05 0)
(0.0992512 1.76768e-05 0)
(0.0992473 3.76592e-06 0)
(0.0992475 -1.06018e-05 0)
(0.0992519 -2.536e-05 0)
(0.0992602 -4.04321e-05 0)
(0.0992724 -5.57266e-05 0)
(0.0992883 -7.11409e-05 0)
(0.0993076 -8.65595e-05 0)
(0.0993303 -0.000101854 0)
(0.0993559 -0.000116883 0)
(0.0993843 -0.000131488 0)
(0.0994152 -0.000145496 0)
(0.0994482 -0.000158716 0)
(0.099483 -0.000170939 0)
(0.0995191 -0.000181936 0)
(0.0995562 -0.000191453 0)
(0.0995938 -0.000199211 0)
(0.0996314 -0.000204902 0)
(0.0996685 -0.000208185 0)
(0.0997044 -0.000208683 0)
(0.0997387 -0.000205972 0)
(0.0997707 -0.000199583 0)
(0.0997996 -0.000188988 0)
(0.0998249 -0.000173595 0)
(0.0998456 -0.000152734 0)
(0.0998611 -0.000125648 0)
(0.0998705 -9.14802e-05 0)
(0.0998728 -4.92501e-05 0)
(0.0998671 2.15868e-06 0)
(0.0998525 6.40165e-05 0)
(0.099828 0.000137786 0)
(0.0997924 0.000225154 0)
(0.0997449 0.000328069 0)
(0.0996842 0.000448783 0)
(0.0996095 0.00058991 0)
(0.0995197 0.000754481 0)
(0.099414 0.000946022 0)
(0.0992919 0.00116863 0)
(0.0991531 0.00142705 0)
(0.0989979 0.00172678 0)
(0.098827 0.00207416 0)
(0.0986423 0.0024764 0)
(0.0984471 0.00294165 0)
(0.0982462 0.00347893 0)
(0.0980469 0.00409796 0)
(0.0978594 0.00480872 0)
(0.0976976 0.00562079 0)
(0.09758 0.00654202 0)
(0.0975298 0.00757666 0)
(0.0975749 0.00872241 0)
(0.0977466 0.00996642 0)
(0.0980764 0.0112804 0)
(0.0985895 0.012616 0)
(0.0992945 0.0139022 0)
(0.100171 0.0150512 0)
(0.100004 -3.12809e-05 0)
(0.100025 -5.3406e-05 0)
(0.100054 -6.09881e-05 0)
(0.100085 -5.21906e-05 0)
(0.100111 -2.71131e-05 0)
(0.100126 1.11698e-05 0)
(0.100125 5.68973e-05 0)
(0.100106 0.000103072 0)
(0.100071 0.000143367 0)
(0.100021 0.000173595 0)
(0.0999612 0.000192223 0)
(0.0998951 0.000200012 0)
(0.0998268 0.000199144 0)
(0.0997593 0.000192287 0)
(0.0996947 0.00018188 0)
(0.0996344 0.000169765 0)
(0.0995789 0.0001571 0)
(0.0995285 0.00014446 0)
(0.0994832 0.00013201 0)
(0.0994427 0.00011968 0)
(0.099407 0.000107297 0)
(0.0993759 9.46756e-05 0)
(0.0993492 8.16577e-05 0)
(0.0993269 6.81339e-05 0)
(0.0993088 5.40422e-05 0)
(0.0992948 3.93616e-05 0)
(0.0992849 2.41046e-05 0)
(0.099279 8.31054e-06 0)
(0.099277 -7.96177e-06 0)
(0.0992787 -2.46357e-05 0)
(0.0992841 -4.16198e-05 0)
(0.0992929 -5.88081e-05 0)
(0.099305 -7.60805e-05 0)
(0.0993202 -9.3302e-05 0)
(0.0993382 -0.000110322 0)
(0.0993589 -0.000126976 0)
(0.0993819 -0.00014308 0)
(0.0994069 -0.000158432 0)
(0.0994337 -0.000172814 0)
(0.0994617 -0.000185981 0)
(0.0994907 -0.000197671 0)
(0.0995203 -0.000207592 0)
(0.09955 -0.000215424 0)
(0.0995793 -0.000220817 0)
(0.0996077 -0.000223381 0)
(0.0996347 -0.000222689 0)
(0.0996598 -0.000218265 0)
(0.0996824 -0.00020958 0)
(0.0997018 -0.000196044 0)
(0.0997175 -0.000177001 0)
(0.0997287 -0.000151711 0)
(0.0997347 -0.000119344 0)
(0.0997349 -7.8966e-05 0)
(0.0997285 -2.95207e-05 0)
(0.0997147 3.01809e-05 0)
(0.0996928 0.000101482 0)
(0.0996622 0.000185914 0)
(0.0996219 0.000285219 0)
(0.0995715 0.000401377 0)
(0.0995102 0.000536643 0)
(0.0994377 0.000693584 0)
(0.0993536 0.000875119 0)
(0.0992578 0.00108456 0)
(0.0991507 0.00132566 0)
(0.099033 0.00160263 0)
(0.098906 0.00192018 0)
(0.0987718 0.00228351 0)
(0.0986335 0.00269827 0)
(0.0984957 0.00317048 0)
(0.0983642 0.00370632 0)
(0.0982472 0.00431183 0)
(0.0981549 0.00499244 0)
(0.0981001 0.00575225 0)
(0.0980984 0.00659298 0)
(0.0981678 0.00751265 0)
(0.0983282 0.00850386 0)
(0.0985998 0.00955176 0)
(0.0990002 0.0106321 0)
(0.0995409 0.0117102 0)
(0.100222 0.0127415 0)
(0.101025 0.0136761 0)
(0.100004 -3.60721e-05 0)
(0.100025 -6.20065e-05 0)
(0.100054 -7.14388e-05 0)
(0.100086 -6.23399e-05 0)
(0.100114 -3.47067e-05 0)
(0.100132 8.15732e-06 0)
(0.100135 5.98995e-05 0)
(0.100122 0.00011269 0)
(0.100093 0.000159336 0)
(0.100049 0.000194949 0)
(0.0999945 0.000217579 0)
(0.0999327 0.000227878 0)
(0.0998677 0.000228153 0)
(0.0998025 0.000221335 0)
(0.0997395 0.000210174 0)
(0.09968 0.000196792 0)
(0.0996249 0.000182568 0)
(0.0995746 0.000168228 0)
(0.0995292 0.000154026 0)
(0.0994885 0.000139936 0)
(0.0994524 0.000125802 0)
(0.0994208 0.000111435 0)
(0.0993934 9.66708e-05 0)
(0.0993701 8.13918e-05 0)
(0.0993509 6.55303e-05 0)
(0.0993355 4.90628e-05 0)
(0.099324 3.20042e-05 0)
(0.0993161 1.4398e-05 0)
(0.0993117 -3.68768e-06 0)
(0.0993107 -2.21655e-05 0)
(0.099313 -4.09303e-05 0)
(0.0993183 -5.98598e-05 0)
(0.0993265 -7.88158e-05 0)
(0.0993374 -9.76427e-05 0)
(0.0993507 -0.000116169 0)
(0.0993662 -0.000134205 0)
(0.0993836 -0.000151541 0)
(0.0994025 -0.000167948 0)
(0.0994228 -0.000183176 0)
(0.0994439 -0.00019695 0)
(0.0994656 -0.000208973 0)
(0.0994874 -0.000218916 0)
(0.099509 -0.000226422 0)
(0.0995298 -0.000231097 0)
(0.0995495 -0.000232512 0)
(0.0995675 -0.00023019 0)
(0.0995834 -0.000223609 0)
(0.0995966 -0.000212191 0)
(0.0996066 -0.000195293 0)
(0.0996128 -0.000172206 0)
(0.0996147 -0.000142136 0)
(0.0996117 -0.000104203 0)
(0.0996032 -5.74214e-05 0)
(0.0995888 -6.91096e-07 0)
(0.0995677 6.72069e-05 0)
(0.0995397 0.000147645 0)
(0.099504 0.000242161 0)
(0.0994605 0.000352477 0)
(0.0994088 0.000480516 0)
(0.0993488 0.000628426 0)
(0.0992804 0.000798599 0)
(0.099204 0.000993689 0)
(0.0991201 0.00121663 0)
(0.0990297 0.00147062 0)
(0.0989344 0.00175914 0)
(0.0988361 0.00208592 0)
(0.0987379 0.00245485 0)
(0.0986434 0.0028699 0)
(0.0985576 0.003335 0)
(0.0984867 0.00385372 0)
(0.0984383 0.00442906 0)
(0.0984214 0.00506293 0)
(0.0984467 0.00575564 0)
(0.0985261 0.00650523 0)
(0.0986724 0.00730665 0)
(0.0988985 0.00815095 0)
(0.0992163 0.00902448 0)
(0.0996349 0.00990844 0)
(0.100158 0.010779 0)
(0.100783 0.0116086 0)
(0.101497 0.0123689 0)
(0.100004 -4.11363e-05 0)
(0.100024 -7.11867e-05 0)
(0.100054 -8.27897e-05 0)
(0.100086 -7.37236e-05 0)
(0.100116 -4.38551e-05 0)
(0.100137 3.34991e-06 0)
(0.100145 6.10187e-05 0)
(0.100138 0.000120537 0)
(0.100115 0.00017385 0)
(0.100077 0.000215321 0)
(0.100028 0.000242516 0)
(0.0999711 0.00025589 0)
(0.0999099 0.00025781 0)
(0.0998475 0.000251432 0)
(0.0997863 0.000239797 0)
(0.0997281 0.000225319 0)
(0.0996738 0.000209618 0)
(0.0996238 0.000193596 0)
(0.0995785 0.000177624 0)
(0.0995377 0.00016174 0)
(0.0995013 0.000145819 0)
(0.0994692 0.000129681 0)
(0.0994412 0.000113163 0)
(0.099417 9.61416e-05 0)
(0.0993967 7.85444e-05 0)
(0.0993799 6.0347e-05 0)
(0.0993666 4.15661e-05 0)
(0.0993567 2.22505e-05 0)
(0.0993499 2.47652e-06 0)
(0.0993461 -1.76571e-05 0)
(0.0993452 -3.80302e-05 0)
(0.0993469 -5.85052e-05 0)
(0.0993511 -7.89247e-05 0)
(0.0993575 -9.91132e-05 0)
(0.0993659 -0.000118877 0)
(0.0993761 -0.000138002 0)
(0.0993877 -0.000156253 0)
(0.0994004 -0.000173374 0)
(0.099414 -0.000189085 0)
(0.0994281 -0.000203081 0)
(0.0994423 -0.000215031 0)
(0.0994563 -0.000224575 0)
(0.0994697 -0.000231318 0)
(0.0994821 -0.000234831 0)
(0.099493 -0.000234644 0)
(0.0995021 -0.000230246 0)
(0.0995089 -0.000221072 0)
(0.0995129 -0.000206505 0)
(0.0995138 -0.000185866 0)
(0.099511 -0.000158407 0)
(0.0995041 -0.000123303 0)
(0.0994927 -7.96454e-05 0)
(0.0994764 -2.64292e-05 0)
(0.0994548 3.74459e-05 0)
(0.0994275 0.000113195 0)
(0.0993944 0.000202163 0)
(0.0993553 0.000305832 0)
(0.09931 0.000425827 0)
(0.0992586 0.000563929 0)
(0.0992014 0.000722081 0)
(0.0991389 0.000902392 0)
(0.0990717 0.00110713 0)
(0.0990009 0.00133872 0)
(0.0989281 0.00159971 0)
(0.0988551 0.00189273 0)
(0.0987846 0.00222045 0)
(0.0987196 0.00258548 0)
(0.0986642 0.00299024 0)
(0.0986231 0.00343678 0)
(0.098602 0.00392664 0)
(0.0986073 0.00446051 0)
(0.0986464 0.00503794 0)
(0.0987273 0.00565702 0)
(0.0988586 0.00631397 0)
(0.0990486 0.00700277 0)
(0.0993051 0.00771487 0)
(0.0996346 0.00843902 0)
(0.100041 0.00916136 0)
(0.100524 0.00986593 0)
(0.101081 0.0105357 0)
(0.101702 0.0111543 0)
(0.100004 -4.64756e-05 0)
(0.100024 -8.09521e-05 0)
(0.100053 -9.50612e-05 0)
(0.100086 -8.63914e-05 0)
(0.100117 -5.46533e-05 0)
(0.100142 -3.40779e-06 0)
(0.100154 6.00328e-05 0)
(0.100152 0.000126331 0)
(0.100135 0.00018658 0)
(0.100104 0.000234366 0)
(0.10006 0.000266692 0)
(0.100008 0.000283736 0)
(0.0999513 0.00028785 0)
(0.0998921 0.000282365 0)
(0.0998333 0.000270594 0)
(0.0997766 0.000255243 0)
(0.0997234 0.000238193 0)
(0.0996741 0.000220547 0)
(0.099629 0.000202819 0)
(0.0995883 0.000185135 0)
(0.0995517 0.000167417 0)
(0.0995192 0.000149508 0)
(0.0994905 0.000131252 0)
(0.0994655 0.000112525 0)
(0.099444 9.32531e-05 0)
(0.0994258 7.34124e-05 0)
(0.0994107 5.30208e-05 0)
(0.0993986 3.21334e-05 0)
(0.0993893 1.08343e-05 0)
(0.0993826 -1.07662e-05 0)
(0.0993783 -3.25329e-05 0)
(0.0993763 -5.43132e-05 0)
(0.0993764 -7.59308e-05 0)
(0.0993782 -9.71897e-05 0)
(0.0993816 -0.000117873 0)
(0.0993862 -0.000137747 0)
(0.0993919 -0.000156549 0)
(0.0993983 -0.000173996 0)
(0.0994051 -0.000189783 0)
(0.0994121 -0.000203575 0)
(0.0994188 -0.000215012 0)
(0.099425 -0.000223704 0)
(0.0994302 -0.000229226 0)
(0.0994342 -0.000231119 0)
(0.0994365 -0.000228881 0)
(0.0994369 -0.000221971 0)
(0.0994349 -0.000209798 0)
(0.0994301 -0.000191717 0)
(0.0994223 -0.000167028 0)
(0.0994111 -0.000134967 0)
(0.0993961 -9.47003e-05 0)
(0.0993771 -4.53185e-05 0)
(0.0993539 1.4164e-05 0)
(0.0993262 8.48135e-05 0)
(0.099294 0.000167797 0)
(0.0992571 0.00026438 0)
(0.0992158 0.000375924 0)
(0.0991702 0.000503893 0)
(0.0991206 0.000649855 0)
(0.0990676 0.000815468 0)
(0.0990121 0.00100248 0)
(0.098955 0.00121269 0)
(0.0988978 0.00144797 0)
(0.0988423 0.00171015 0)
(0.0987905 0.00200103 0)
(0.0987452 0.00232228 0)
(0.0987095 0.00267534 0)
(0.0986871 0.00306134 0)
(0.0986821 0.00348091 0)
(0.0986993 0.00393407 0)
(0.0987439 0.00442001 0)
(0.0988215 0.00493695 0)
(0.0989376 0.0054819 0)
(0.0990979 0.00605052 0)
(0.0993075 0.00663701 0)
(0.0995708 0.00723405 0)
(0.0998906 0.00783291 0)
(0.100268 0.00842368 0)
(0.100703 0.00899574 0)
(0.10119 0.00953848 0)
(0.101724 0.0100423 0)
(0.100004 -5.20864e-05 0)
(0.100023 -9.1294e-05 0)
(0.100053 -0.000108244 0)
(0.100086 -0.000100343 0)
(0.100118 -6.71226e-05 0)
(0.100145 -1.21759e-05 0)
(0.100161 5.68283e-05 0)
(0.100164 0.000129895 0)
(0.100153 0.000197294 0)
(0.100127 0.000251805 0)
(0.10009 0.000289806 0)
(0.100043 0.000311115 0)
(0.09999 0.000317995 0)
(0.0999343 0.000313895 0)
(0.0998781 0.000302373 0)
(0.0998235 0.000286425 0)
(0.0997716 0.000268204 0)
(0.0997232 0.000249042 0)
(0.0996786 0.000229616 0)
(0.0996381 0.000210165 0)
(0.0996014 0.000190676 0)
(0.0995685 0.000171029 0)
(0.0995392 0.000151083 0)
(0.0995132 0.00013072 0)
(0.0994905 0.00010987 0)
(0.0994707 8.85071e-05 0)
(0.0994537 6.66542e-05 0)
(0.0994393 4.43715e-05 0)
(0.0994273 2.1752e-05 0)
(0.0994176 -1.08271e-06 0)
(0.0994099 -2.39863e-05 0)
(0.099404 -4.6785e-05 0)
(0.0993996 -6.92874e-05 0)
(0.0993967 -9.12777e-05 0)
(0.0993949 -0.000112518 0)
(0.0993939 -0.000132753 0)
(0.0993936 -0.000151697 0)
(0.0993936 -0.000169044 0)
(0.0993936 -0.000184462 0)
(0.0993933 -0.000197594 0)
(0.0993926 -0.000208054 0)
(0.0993909 -0.000215427 0)
(0.0993882 -0.000219263 0)
(0.0993839 -0.000219082 0)
(0.0993779 -0.000214362 0)
(0.0993699 -0.000204541 0)
(0.0993595 -0.000189015 0)
(0.0993465 -0.000167129 0)
(0.0993306 -0.000138182 0)
(0.0993116 -0.000101413 0)
(0.0992894 -5.60058e-05 0)
(0.0992637 -1.08461e-06 0)
(0.0992346 6.42812e-05 0)
(0.099202 0.000141096 0)
(0.0991659 0.000230432 0)
(0.0991266 0.000333423 0)
(0.0990844 0.000451263 0)
(0.0990396 0.000585204 0)
(0.0989929 0.000736543 0)
(0.0989451 0.000906606 0)
(0.0988972 0.00109674 0)
(0.0988505 0.00130826 0)
(0.0988065 0.00154244 0)
(0.098767 0.00180047 0)
(0.0987342 0.00208337 0)
(0.0987107 0.00239196 0)
(0.0986992 0.00272675 0)
(0.0987029 0.00308786 0)
(0.0987253 0.00347495 0)
(0.0987701 0.00388707 0)
(0.0988412 0.00432259 0)
(0.0989424 0.0047791 0)
(0.0990775 0.00525333 0)
(0.09925 0.00574111 0)
(0.0994626 0.00623739 0)
(0.0997176 0.00673629 0)
(0.100016 0.00723126 0)
(0.100357 0.00771534 0)
(0.100741 0.00818143 0)
(0.101162 0.00862283 0)
(0.101617 0.00903378 0)
(0.100003 -5.79588e-05 0)
(0.100023 -0.000102188 0)
(0.100051 -0.0001223 0)
(0.100085 -0.000115524 0)
(0.100118 -8.12056e-05 0)
(0.100146 -2.29105e-05 0)
(0.100165 5.14139e-05 0)
(0.100173 0.000131184 0)
(0.100166 0.000205879 0)
(0.100146 0.000267462 0)
(0.100114 0.00031163 0)
(0.100072 0.00033777 0)
(0.100024 0.000347982 0)
(0.0999722 0.000345777 0)
(0.0999191 0.000334927 0)
(0.0998666 0.000318706 0)
(0.0998164 0.000299549 0)
(0.0997691 0.000279031 0)
(0.0997252 0.000258019 0)
(0.0996849 0.000236883 0)
(0.0996482 0.000215696 0)
(0.0996149 0.000194388 0)
(0.0995849 0.000172843 0)
(0.0995579 0.000150956 0)
(0.0995338 0.000128662 0)
(0.0995123 0.000105941 0)
(0.0994932 8.28188e-05 0)
(0.0994764 5.93613e-05 0)
(0.0994616 3.56704e-05 0)
(0.0994486 1.1879e-05 0)
(0.0994372 -1.18533e-05 0)
(0.0994272 -3.53382e-05 0)
(0.0994184 -5.83666e-05 0)
(0.0994105 -8.07063e-05 0)
(0.0994034 -0.000102102 0)
(0.0993967 -0.000122268 0)
(0.0993902 -0.000140906 0)
(0.0993837 -0.000157691 0)
(0.0993769 -0.000172269 0)
(0.0993695 -0.000184263 0)
(0.0993613 -0.000193269 0)
(0.099352 -0.000198853 0)
(0.0993414 -0.000200551 0)
(0.0993293 -0.000197867 0)
(0.0993153 -0.000190272 0)
(0.0992992 -0.000177199 0)
(0.099281 -0.000158044 0)
(0.0992603 -0.000132161 0)
(0.099237 -9.88653e-05 0)
(0.0992111 -5.74266e-05 0)
(0.0991825 -7.07195e-06 0)
(0.0991511 5.30058e-05 0)
(0.0991172 0.000123666 0)
(0.0990807 0.00020581 0)
(0.0990419 0.000300374 0)
(0.0990012 0.000408326 0)
(0.0989591 0.000530657 0)
(0.0989162 0.00066837 0)
(0.0988731 0.000822464 0)
(0.0988309 0.000993917 0)
(0.0987907 0.00118366 0)
(0.0987539 0.00139255 0)
(0.0987218 0.00162134 0)
(0.0986965 0.00187061 0)
(0.0986797 0.00214076 0)
(0.0986738 0.00243193 0)
(0.098681 0.00274396 0)
(0.0987041 0.0030763 0)
(0.0987457 0.00342798 0)
(0.0988085 0.00379756 0)
(0.0988953 0.00418304 0)
(0.0990085 0.0045819 0)
(0.0991505 0.00499103 0)
(0.0993233 0.00540677 0)
(0.0995283 0.00582498 0)
(0.0997662 0.00624111 0)
(0.100037 0.00665036 0)
(0.10034 0.00704783 0)
(0.100674 0.00742878 0)
(0.101035 0.00778887 0)
(0.101421 0.00812457 0)