/*--------------------------------*- C++ -*----------------------------------*\
| =========                 |                                                 |
| \\      /  F ield         | OpenFOAM: The Open Source CFD Toolbox           |
|  \\    /   O peration     | Version:  4.1                                   |
|   \\  /    A nd           | Web:      www.OpenFOAM.org                      |
|    \\/     M anipulation  |                                                 |
\*---------------------------------------------------------------------------*/
FoamFile
{
    version     2.0;
    format      ascii;
    class       volVectorField;
    location    "3.6";
    object      Force;
}
// * * * * * * * * * * * * * * * * * * * * * * * * * * * * * * * * * * * * * //

dimensions      [1 1 -2 0 0 0 0];

internalField   uniform (0 0 0);

boundaryField
{
    inlet
    {
        type            calculated;
        value           uniform (0 0 0);
    }
    outlet
    {
        type            calculated;
        value           uniform (0 0 0);
    }
    flap
    {
        type            calculated;
        value           nonuniform List<vector> 
33
(
(3.82037 -0.209132 -6.03818e-39)
(3.77532 -0.424923 1.82073e-18)
(3.73063 -0.603512 -4.87291e-18)
(3.67692 -0.707956 6.62681e-18)
(3.62494 -0.748044 -1.70231e-18)
(3.57741 -0.755344 -1.45463e-18)
(3.5246 -0.740375 1.65094e-18)
(3.46952 -0.714481 1.17043e-20)
(3.40337 -0.697583 1.66014e-18)
(3.30692 -0.682361 2.82362e-18)
(3.18245 -0.646126 -4.31431e-18)
(3.02666 -0.590059 1.6257e-18)
(2.81507 -0.525203 -1.60652e-18)
(2.48035 -0.453825 2.76601e-22)
(1.88846 -0.344615 4.06728e-18)
(0.141864 0.748517 1.25711e-18)
(0.09142 0.486037 5.94783e-22)
(0.0364309 0.202854 7.90088e-19)
(0.0630326 -0.00386689 -1.99038e-23)
(0.0640926 -0.00795116 2.08016e-23)
(0.0650006 -0.011273 -3.91457e-22)
(0.0658265 -0.0133409 5.87747e-39)
(0.0658551 -0.0140816 3.16667e-18)
(0.0647658 -0.0141423 1.74048e-18)
(0.062694 -0.0135651 1.66581e-18)
(0.0595354 -0.0126702 1.66529e-18)
(0.0555689 -0.0118283 2.93874e-39)
(0.0526204 -0.0111915 -3.2729e-18)
(0.0514327 -0.0106309 -1.68251e-18)
(0.0504393 -0.00977467 -6.82412e-20)
(0.0502025 -0.0091417 6.80153e-20)
(0.0533704 -0.00934504 -2.93874e-39)
(0.0622172 -0.0110988 -5.04277e-23)
)
;
    }
    upperWall
    {
        type            calculated;
        value           uniform (0 0 0);
    }
    lowerWall
    {
        type            calculated;
        value           uniform (0 0 0);
    }
    frontAndBack
    {
        type            empty;
    }
}


// ************************************************************************* //
