/*--------------------------------*- C++ -*----------------------------------*\
| =========                 |                                                 |
| \\      /  F ield         | OpenFOAM: The Open Source CFD Toolbox           |
|  \\    /   O peration     | Version:  5.x                                   |
|   \\  /    A nd           | Web:      www.OpenFOAM.org                      |
|    \\/     M anipulation  |                                                 |
\*---------------------------------------------------------------------------*/
FoamFile
{
    version     2.0;
    format      ascii;
    class       surfaceScalarField;
    location    "2.5";
    object      meshPhi;
}
// * * * * * * * * * * * * * * * * * * * * * * * * * * * * * * * * * * * * * //

dimensions      [0 3 -1 0 0 0 0];

internalField   nonuniform List<scalar> 
5457
(
-0.000121943
-1.28577e-06
-0.000223991
-3.63608e-06
-0.000301786
-5.63501e-06
-0.000358314
-7.37582e-06
-0.000396588
-8.98583e-06
-0.000418816
-1.05874e-05
-0.000426275
-1.22343e-05
-0.000420968
-1.36279e-05
-0.000406974
-1.46108e-05
-0.000387191
-1.56308e-05
-0.000362429
-1.69464e-05
-0.00033354
-1.8467e-05
-0.000301085
-2.0086e-05
-0.000264508
-2.14754e-05
-0.000224422
-2.2492e-05
-0.000182935
-2.35096e-05
-0.00014134
-2.47469e-05
-0.000100414
-2.61061e-05
-6.07037e-05
-2.74937e-05
-2.26315e-05
-2.88353e-05
1.341e-05
-3.00551e-05
4.68534e-05
-3.10635e-05
7.61536e-05
-3.17488e-05
9.91425e-05
-3.19522e-05
0.0001151
-3.13946e-05
0.000124234
-2.95008e-05
0.000125249
-2.54374e-05
0.000116417
-1.8798e-05
0.000102671
-1.02405e-05
1.41523e-05
-0.000122434
-2.56256e-06
-0.000224929
-7.24672e-06
-0.00030309
-1.12279e-05
-0.000359971
-1.46865e-05
-0.000398705
-1.78734e-05
-0.000421599
-2.10525e-05
-0.000429474
-2.44379e-05
-0.000423782
-2.72898e-05
-0.000409568
-2.91171e-05
-0.000390152
-3.10491e-05
-0.000365721
-3.36767e-05
-0.000337282
-3.67512e-05
-0.000305888
-4.0163e-05
-0.000269873
-4.30461e-05
-0.000229494
-4.49109e-05
-0.000187944
-4.68201e-05
-0.000146457
-4.93302e-05
-0.0001057
-5.21086e-05
-6.61819e-05
-5.49661e-05
-2.82656e-05
-5.77807e-05
7.83689e-06
-6.04361e-05
4.20084e-05
-6.28036e-05
7.33371e-05
-6.48003e-05
9.98567e-05
-6.6289e-05
0.000120592
-6.67596e-05
0.000136104
-6.55447e-05
0.000147085
-6.22144e-05
0.00015308
-5.70077e-05
0.000148422
-5.29653e-05
-1.76617e-05
-0.000123355
-3.83563e-06
-0.000226667
-1.08403e-05
-0.000305484
-1.67772e-05
-0.000362994
-2.1914e-05
-0.000402572
-2.66154e-05
-0.000426898
-3.12966e-05
-0.000435784
-3.66529e-05
-0.000429029
-4.11586e-05
-0.000414226
-4.34933e-05
-0.000395754
-4.61069e-05
-0.000371932
-5.00614e-05
-0.000344151
-5.46588e-05
-0.000315414
-6.02633e-05
-0.000280755
-6.49535e-05
-0.000239292
-6.71763e-05
-0.000197634
-6.96511e-05
-0.000156423
-7.356e-05
-0.000116038
-7.78645e-05
-7.69443e-05
-8.23189e-05
-3.94833e-05
-8.68101e-05
-3.68478e-06
-9.12398e-05
3.08786e-05
-9.55569e-05
6.42293e-05
-9.98398e-05
9.4946e-05
-0.000104102
0.00012196
-0.000108116
0.000145039
-0.000112225
0.000164363
-0.000117725
0.000179564
-0.000126328
0.00017299
-0.000142417
-0.000149456
-0.000124634
-5.11015e-06
-0.000229102
-1.44313e-05
-0.000308888
-2.23079e-05
-0.000367286
-2.90903e-05
-0.000407984
-3.52248e-05
-0.000434797
-4.11902e-05
-0.000444184
-4.73859e-05
-0.000434908
-5.25328e-05
-0.000420443
-5.623e-05
-0.000404107
-6.06093e-05
-0.000381048
-6.60168e-05
-0.000353153
-7.18447e-05
-0.000326052
-7.82751e-05
-0.000294276
-8.36026e-05
-0.000253638
-8.7297e-05
-0.000212137
-9.18714e-05
-0.000171609
-9.76737e-05
-0.000131958
-0.000103694
-9.37095e-05
-0.000109939
-5.73205e-05
-0.000116398
-2.26544e-05
-0.000123025
1.09187e-05
-0.000129957
4.42145e-05
-0.000137491
7.61678e-05
-0.000145909
0.000104951
-0.000155813
0.000128619
-0.000168852
0.000141406
-0.000188107
0.000134478
-0.000217206
8.55398e-05
-0.000260303
-0.000280831
-0.000126256
-6.37921e-06
-0.000232228
-1.80136e-05
-0.000313353
-2.78357e-05
-0.000372875
-3.62526e-05
-0.000414645
-4.3744e-05
-0.00044324
-5.06368e-05
-0.000451301
-5.62435e-05
-0.000441
-6.12241e-05
-0.000429785
-6.7692e-05
-0.00041588
-7.4933e-05
-0.000393685
-8.17056e-05
-0.000365057
-8.82437e-05
-0.00033466
-9.3699e-05
-0.000305775
-9.87807e-05
-0.000271503
-0.000105898
-0.000231918
-0.000114166
-0.000192871
-0.000122042
-0.000154534
-0.000129889
-0.000117833
-0.000138118
-8.36663e-05
-0.000146874
-5.19021e-05
-0.0001562
-2.18144e-05
-0.000166353
8.46317e-06
-0.000177716
3.67786e-05
-0.000191117
5.76279e-05
-0.000208237
6.69744e-05
-0.000231286
5.31338e-05
-0.000263633
-1.22573e-05
-0.000309083
-0.00016142
-0.000367736
-0.000410779
-0.000128252
-7.63686e-06
-0.000236123
-2.15721e-05
-0.00031894
-3.3338e-05
-0.000379744
-4.33783e-05
-0.000422315
-5.22017e-05
-0.000450372
-6.00375e-05
-0.000457949
-6.62602e-05
-0.000451673
-7.23992e-05
-0.00044457
-8.07457e-05
-0.000431778
-8.95816e-05
-0.000410778
-9.74826e-05
-0.00038285
-0.000104831
-0.000349326
-0.000110892
-0.000321064
-0.000117374
-0.000293164
-0.00012675
-0.000257519
-0.000137029
-0.000221007
-0.000146635
-0.000184836
-0.000156369
-0.000150574
-0.000166752
-0.00012012
-0.000178088
-9.42929e-05
-0.000190569
-7.27457e-05
-0.000204435
-4.98864e-05
-0.000219908
-2.9857e-05
-0.000238304
-2.56797e-05
-0.000262286
-4.73884e-05
-0.000294184
-0.000108973
-0.00033579
-0.000255981
-0.000387864
-0.00053507
-0.000439982
-0.000409396
-0.000130631
-8.87982e-06
-0.000240843
-2.50956e-05
-0.000325693
-3.87945e-05
-0.000387895
-5.04422e-05
-0.000431251
-6.0605e-05
-0.000458853
-6.96501e-05
-0.000469178
-7.76852e-05
-0.00046856
-8.57414e-05
-0.000463726
-9.49063e-05
-0.000451797
-0.000104379
-0.000432607
-0.00011339
-0.000407237
-0.00012202
-0.000376512
-0.000130228
-0.000348605
-0.000138945
-0.000321847
-0.000149191
-0.000289978
-0.000160244
-0.000256959
-0.000171461
-0.000224069
-0.000183128
-0.000193121
-0.000195691
-0.000167425
-0.000209657
-0.000150436
-0.000225417
-0.000147261
-0.000243366
-0.000138352
-0.000262981
-0.000128722
-0.000285183
-0.000148774
-0.000314001
-0.00021475
-0.000352171
-0.000345673
-0.000398991
-0.000584017
-0.000452083
-0.000952564
-0.000493845
-0.000423349
-0.00013328
-1.01064e-05
-0.00024623
-2.85826e-05
-0.000333418
-4.42066e-05
-0.00039714
-5.74496e-05
-0.000441612
-6.89604e-05
-0.000470499
-7.93073e-05
-0.000484923
-8.89546e-05
-0.000488752
-9.86243e-05
-0.00048577
-0.000108836
-0.000475683
-0.000119217
-0.000458969
-0.0001294
-0.000436899
-0.000139437
-0.000411213
-0.000149477
-0.000385361
-0.000160013
-0.00035893
-0.000171458
-0.000330296
-0.00018364
-0.000301526
-0.000196417
-0.000273386
-0.000209923
-0.000247188
-0.00022457
-0.000225812
-0.00024092
-0.000214891
-0.000259605
-0.000229244
-0.000280364
-0.000244026
-0.00030194
-0.000259909
-0.000326833
-0.000319805
-0.000359799
-0.000444603
-0.000401711
-0.000658741
-0.000450803
-0.000979639
-0.000505546
-0.00135882
-0.000556507
-0.000497647
-0.000135931
-1.13049e-05
-0.000251723
-3.19911e-05
-0.000341472
-4.95082e-05
-0.00040718
-6.43608e-05
-0.00045355
-7.72967e-05
-0.000484939
-8.90432e-05
-0.000503375
-0.000100214
-0.000511223
-0.000111339
-0.000510943
-0.00012269
-0.000503496
-0.000134129
-0.000489928
-0.000145543
-0.00047144
-0.000156989
-0.000449835
-0.000168595
-0.000427164
-0.000180658
-0.000403531
-0.00019344
-0.000378976
-0.000207004
-0.00035527
-0.000221386
-0.000333589
-0.0002367
-0.000314847
-0.000253206
-0.00029857
-0.00027122
-0.000289
-0.000291342
-0.000302086
-0.00031276
-0.000349128
-0.000335499
-0.000424324
-0.000363621
-0.000545394
-0.000399421
-0.000741652
-0.000441031
-0.00103317
-0.000488743
-0.0014037
-0.000546502
-0.00174687
-0.000621684
-0.000581587
-0.000138341
-1.24547e-05
-0.000256874
-3.52699e-05
-0.000349581
-5.46496e-05
-0.000418296
-7.11607e-05
-0.000467655
-8.56182e-05
-0.000502288
-9.88122e-05
-0.000524608
-0.000111408
-0.000536284
-0.000123856
-0.000539197
-0.000136352
-0.00053498
-0.000148904
-0.000525175
-0.000161554
-0.000510629
-0.000174337
-0.000492907
-0.000187344
-0.000474301
-0.000200879
-0.000455557
-0.000215225
-0.000436589
-0.0002304
-0.000419004
-0.000246447
-0.000405185
-0.000263564
-0.000396499
-0.000281758
-0.000390682
-0.000301024
-0.000390578
-0.000321919
-0.000407087
-0.00034465
-0.000487389
-0.000370264
-0.000628837
-0.000400794
-0.000816348
-0.000436072
-0.00107755
-0.000474772
-0.00141866
-0.000520448
-0.00179905
-0.00058456
-0.00211304
-0.000685439
-0.00060115
-0.000140506
-1.35482e-05
-0.000261989
-3.84241e-05
-0.00035846
-5.96788e-05
-0.000431196
-7.78983e-05
-0.000484126
-9.38808e-05
-0.000522101
-0.00010844
-0.000548178
-0.000122342
-0.000563739
-0.000136047
-0.000570261
-0.000149714
-0.000569716
-0.000163432
-0.000564016
-0.000177308
-0.000554011
-0.000191391
-0.000541117
-0.00020584
-0.000527714
-0.000220963
-0.000515269
-0.000236949
-0.000503685
-0.000253774
-0.00049421
-0.000271559
-0.000489598
-0.00029057
-0.000492111
-0.000310611
-0.000503155
-0.000331588
-0.000527935
-0.000354459
-0.000578107
-0.000380253
-0.000691437
-0.000409242
-0.000873333
-0.000441987
-0.00110785
-0.000478802
-0.00140554
-0.000521619
-0.00175752
-0.000577729
-0.0021258
-0.000663946
-0.00246875
-0.000792403
-0.000681625
-0.000142424
-1.45774e-05
-0.000267402
-4.14454e-05
-0.000368631
-6.45973e-05
-0.000445965
-8.45541e-05
-0.000502317
-0.000102009
-0.000543591
-0.000117843
-0.00057383
-0.000133023
-0.000593714
-0.000148018
-0.000604363
-0.000162912
-0.000607876
-0.000177829
-0.000606413
-0.000192913
-0.000601498
-0.000208291
-0.00059473
-0.000224212
-0.000587916
-0.000240952
-0.000582774
-0.000258611
-0.000580607
-0.000277232
-0.000582079
-0.000296865
-0.000588563
-0.00031769
-0.000603914
-0.000339823
-0.000636319
-0.000363511
-0.000693276
-0.0003897
-0.000785604
-0.000419385
-0.000931783
-0.000453087
-0.00113747
-0.000491891
-0.00139384
-0.000538554
-0.00169633
-0.000599991
-0.00203062
-0.000687859
-0.00239891
-0.000816956
-0.00286826
-0.000970901
-0.000873592
-0.000143846
-1.55278e-05
-0.000272935
-4.43104e-05
-0.000379989
-6.93958e-05
-0.000462262
-9.11256e-05
-0.000521668
-0.000110009
-0.000566617
-0.000127087
-0.00060195
-0.000143589
-0.000626679
-0.000159899
-0.000641828
-0.00017598
-0.000649556
-0.000192005
-0.00065255
-0.000208247
-0.00065336
-0.000224978
-0.000653589
-0.000242453
-0.000654802
-0.00026089
-0.000658286
-0.000280328
-0.000666543
-0.000300803
-0.000680596
-0.000322309
-0.000701147
-0.000345035
-0.000733815
-0.000369675
-0.000790474
-0.000396971
-0.000878621
-0.000427612
-0.00100347
-0.000462431
-0.00117605
-0.000503069
-0.00139845
-0.000552439
-0.00166175
-0.000616483
-0.001955
-0.000705242
-0.00227951
-0.000831074
-0.002711
-0.00099453
-0.00338843
-0.00114541
-0.00102903
-0.000144293
-1.63741e-05
-0.000278216
-4.69798e-05
-0.000392529
-7.40759e-05
-0.000480259
-9.76779e-05
-0.000542282
-0.000117951
-0.000591381
-0.000136171
-0.000632716
-0.000153974
-0.00066251
-0.000171562
-0.000682409
-0.000188747
-0.00069456
-0.000205834
-0.000702536
-0.000223278
-0.00071014
-0.000241494
-0.000718066
-0.000260595
-0.000728012
-0.000280673
-0.00074126
-0.000301848
-0.000760259
-0.000324226
-0.000787462
-0.00034789
-0.000825266
-0.000373107
-0.000879946
-0.000400798
-0.000961364
-0.000432009
-0.00107608
-0.000467591
-0.00122648
-0.000508751
-0.00141754
-0.000558051
-0.0016504
-0.000620469
-0.00191815
-0.000703252
-0.00221647
-0.000814925
-0.00258418
-0.000961585
-0.00316714
-0.00112051
-0.00404463
-0.00123514
-0.000835911
-0.000142954
-1.70617e-05
-0.000282694
-4.93573e-05
-0.000406564
-7.86092e-05
-0.000500832
-0.000104308
-0.000564211
-0.000125912
-0.000617282
-0.000145001
-0.000665723
-0.000164048
-0.00070091
-0.000182995
-0.000726514
-0.000201379
-0.000743703
-0.000219613
-0.000756867
-0.00023822
-0.000771818
-0.000257824
-0.000787997
-0.000278483
-0.000807219
-0.000300211
-0.000831457
-0.00032326
-0.000862689
-0.000347751
-0.000904079
-0.000373812
-0.000960426
-0.00040191
-0.00103775
-0.000433023
-0.00114196
-0.000468282
-0.0012783
-0.000508993
-0.00144873
-0.000556876
-0.00165436
-0.000615321
-0.00189715
-0.000690089
-0.00217993
-0.000787275
-0.00252482
-0.000910495
-0.00299402
-0.00105877
-0.00371521
-0.00120682
-0.00457368
-0.00134186
-0.000363771
9.86487e-07
-9.99681e-05
-0.000349236
-6.31282e-06
-0.00110131
7.31794e-05
-0.00209417
0.000152056
-0.00304296
0.000182182
-0.00380407
0.000170099
-0.00436258
0.000148967
-0.0047506
0.000131508
-0.00498438
0.00011919
-0.00509686
0.000107697
-0.00512356
9.60684e-05
-0.00509318
8.49413e-05
-0.00502398
7.52747e-05
-0.00492315
6.59095e-05
-0.00479327
5.66727e-05
-0.00463627
4.89666e-05
-0.00445312
4.22252e-05
-0.00424351
3.61923e-05
-0.00400767
3.11536e-05
-0.00374674
2.68333e-05
-0.00346184
2.30884e-05
-0.00315411
1.98121e-05
-0.00282469
1.69141e-05
-0.00247473
1.43144e-05
-0.00210532
1.19399e-05
-0.0017175
9.72276e-06
-0.00131222
7.59861e-06
-0.000890545
5.5058e-06
-0.000452338
3.3807e-06
1.15808e-06
-1.24009e-05
-0.000102352
-0.000462693
4.3687e-05
-0.00125236
0.000160581
-0.00220961
0.0002634
-0.00312667
0.000304858
-0.00389237
0.000294827
-0.00445302
0.000270814
-0.00482986
0.000246902
-0.00504639
0.000224691
-0.00514229
0.000202338
-0.00515777
0.000180321
-0.00512196
0.000160256
-0.00504898
0.000141953
-0.00494436
0.000124289
-0.00481155
0.000107901
-0.00465195
9.35329e-05
-0.00446609
8.08073e-05
-0.00425414
6.97009e-05
-0.00401649
6.01983e-05
-0.00375407
5.19807e-05
-0.00346793
4.48211e-05
-0.00315915
3.85326e-05
-0.00282887
3.29512e-05
-0.0024782
2.79283e-05
-0.00210818
2.33268e-05
-0.00171982
1.90178e-05
-0.00131402
1.48782e-05
-0.000891821
1.07895e-05
-0.000453021
6.62918e-06
2.27161e-06
-0.000110871
7.14365e-05
-0.000688265
0.000151705
-0.00148486
0.00024703
-0.00238361
0.00031667
-0.00328613
0.000359804
-0.00405743
0.000373383
-0.00461059
0.000362182
-0.00495855
0.000339195
-0.00514052
0.000309943
-0.00520989
0.000278826
-0.00521083
0.000249235
-0.00516684
0.000222287
-0.00508749
0.000197075
-0.00497776
0.000173384
-0.00484046
0.000151597
-0.0046767
0.000131946
-0.00448697
0.000114561
-0.00427164
9.93819e-05
-0.00403119
8.61713e-05
-0.00376642
7.46428e-05
-0.0034783
6.45355e-05
-0.00316784
5.56131e-05
-0.00283614
4.76585e-05
-0.00248427
4.04707e-05
-0.00211324
3.38607e-05
-0.00172397
2.76481e-05
-0.00131727
2.16586e-05
-0.000894103
1.57235e-05
-0.000454222
9.6682e-06
3.31432e-06
-0.000357042
0.000251489
-0.000998915
0.000256607
-0.00175799
0.000312414
-0.00262598
0.000353004
-0.003537
0.000399176
-0.00429382
0.000431209
-0.00481052
0.000431081
-0.00510619
0.000408393
-0.00524358
0.000374557
-0.00528669
0.000338233
-0.00527326
0.000303401
-0.00521965
0.000271132
-0.00513317
0.000241332
-0.00501763
0.000213498
-0.00487508
0.000187622
-0.00470657
0.000164184
-0.00451255
0.000143344
-0.00429341
0.000124945
-0.00404969
0.000108761
-0.00378211
9.45253e-05
-0.00349156
8.19647e-05
-0.00317902
7.08157e-05
-0.00284554
6.08274e-05
-0.00249217
5.17615e-05
-0.00211987
4.33897e-05
-0.00172946
3.54897e-05
-0.00132161
2.78434e-05
-0.000897168
2.0238e-05
-0.000455829
1.24551e-05
4.27159e-06
-0.000723557
0.000334778
-0.00135045
0.000296037
-0.00209141
0.000335421
-0.00298226
0.00038533
-0.00388674
0.000445747
-0.00458819
0.000483624
-0.00502731
0.000483619
-0.00525435
0.000457797
-0.00535051
0.000421441
-0.00537119
0.000382798
-0.00534231
0.000344526
-0.00527817
0.000308522
-0.00518409
0.000275582
-0.00506211
0.000244867
-0.0049139
0.000216337
-0.00474025
0.000190364
-0.00454157
0.000167027
-0.00431829
0.00014623
-0.00407093
0.000127783
-0.00380017
0.000111438
-0.00350684
9.69246e-05
-0.00319188
8.39694e-05
-0.00285634
7.23027e-05
-0.00250127
6.16635e-05
-0.00212757
5.17967e-05
-0.00173593
4.24476e-05
-0.0013268
3.33597e-05
-0.000900874
2.42817e-05
-0.000457779
1.49589e-05
5.13285e-06
-0.00112757
0.000238513
-0.00171451
0.000279191
-0.00250098
0.000333697
-0.00344456
0.000418303
-0.00430815
0.000496836
-0.00490545
0.000532733
-0.00523864
0.000524622
-0.00539933
0.000492722
-0.00546149
0.000453685
-0.0054609
0.000413684
-0.00541641
0.000374153
-0.00534111
0.000336171
-0.0052387
0.000300874
-0.00510989
0.000268312
-0.0049556
0.000238205
-0.00477643
0.000210621
-0.00457279
0.000185639
-0.00434511
0.000163205
-0.00409386
0.000143162
-0.00381966
0.000125283
-0.00352329
0.000109309
-0.00320567
9.49661e-05
-0.00286785
8.19792e-05
-0.00251095
7.00791e-05
-0.00213587
5.89971e-05
-0.00174309
4.84541e-05
-0.00133273
3.81581e-05
-0.000905187
2.78214e-05
-0.000460069
1.71604e-05
5.89175e-06
-0.00153429
0.000214157
-0.00212329
0.000278371
-0.00301143
0.000364464
-0.0039871
0.000478051
-0.00475467
0.000555211
-0.00521142
0.000575766
-0.00544161
0.000555273
-0.00554476
0.000516337
-0.00557325
0.000473565
-0.00555151
0.000432186
-0.00549361
0.000392564
-0.00540742
0.000354317
-0.00529599
0.000318085
-0.00515966
0.000284567
-0.00499879
0.000253626
-0.00481379
0.000225201
-0.00460501
0.000199322
-0.00437278
0.00017594
-0.0041175
0.000154916
-0.00383972
0.000136046
-0.00354013
0.00011908
-0.00321963
0.000103754
-0.00287935
8.97976e-05
-0.00252056
7.69468e-05
-0.0021443
6.49353e-05
-0.00175076
5.34687e-05
-0.00133939
4.22144e-05
-0.000910191
3.08444e-05
-0.000462766
1.90534e-05
6.54641e-06
-0.00197287
0.000274384
-0.00264507
0.000327825
-0.00363553
0.000449524
-0.00457
0.000562803
-0.00518276
0.000613694
-0.0054886
0.000607902
-0.00563445
0.000572305
-0.00568543
0.000527519
-0.00568069
0.000482459
-0.0056399
0.000440391
-0.00557077
0.000400986
-0.00547479
0.000363358
-0.0053541
0.000327521
-0.00520975
0.000294007
-0.005042
0.00026297
-0.00485105
0.000234398
-0.00463707
0.000208286
-0.00440027
0.000184576
-0.00414094
0.000163136
-0.00385951
0.000143775
-0.00355659
0.000126258
-0.00323304
0.000110332
-0.00289009
9.57378e-05
-0.00252936
8.22332e-05
-0.00215235
6.95787e-05
-0.00175885
5.74758e-05
-0.00134701
4.55321e-05
-0.000916146
3.3361e-05
-0.000466027
2.06462e-05
7.0999e-06
-0.00247719
0.000291645
-0.00330338
0.000411361
-0.00431711
0.000561966
-0.00510575
0.000642397
-0.00554323
0.000653608
-0.0057257
0.000623096
-0.0058023
0.000574978
-0.00581111
0.000526167
-0.00578103
0.000481082
-0.00572539
0.000439537
-0.00564582
0.000400917
-0.00554045
0.000364399
-0.0054108
0.000329681
-0.00525845
0.000297004
-0.00508383
0.000266597
-0.00488698
0.000238526
-0.0046679
0.000212785
-0.00442664
0.000189308
-0.00416335
0.000167964
-0.00387832
0.000148573
-0.00357201
0.000130913
-0.00324522
0.00011474
-0.00289925
9.9813e-05
-0.00253636
8.59238e-05
-0.00215938
7.29067e-05
-0.00176757
6.04846e-05
-0.00135623
4.81496e-05
-0.000923562
3.54101e-05
-0.000470117
2.19627e-05
7.56009e-06
-0.00306961
0.000278545
-0.00405142
0.000537442
-0.0049623
0.000673486
-0.00551681
0.000696385
-0.00579434
0.000664363
-0.00590999
0.000615271
-0.00593788
0.000562951
-0.00591973
0.000514096
-0.00587342
0.000470138
-0.00580726
0.000429887
-0.00571843
0.000392846
-0.00560314
0.00035819
-0.00546443
0.00032523
-0.00530422
0.000294028
-0.00512293
0.000264888
-0.00492042
0.000237916
-0.00469649
0.000213101
-0.00445102
0.000190367
-0.00418398
0.000169587
-0.0038955
0.000150586
-0.00358587
0.000133155
-0.00325562
0.000117059
-0.00290598
0.000102067
-0.00254004
8.80078e-05
-0.00216433
7.48893e-05
-0.00177762
6.25295e-05
-0.00136835
5.01574e-05
-0.000933231
3.70649e-05
-0.000475381
2.30387e-05
7.93762e-06
-0.00375816
0.000482119
-0.00479995
0.000699599
-0.00551034
0.000758814
-0.00583689
0.000720485
-0.0059846
0.000654953
-0.00605508
0.000593078
-0.00605362
0.000539697
-0.00601717
0.000492338
-0.00595745
0.000449719
-0.00588511
0.000411289
-0.00578954
0.000376955
-0.0056622
0.000345311
-0.0055136
0.000314786
-0.00534564
0.000285555
-0.00515807
0.000258242
-0.00495035
0.000232921
-0.00472199
0.000209543
-0.00447267
0.000188018
-0.00420223
0.000168222
-0.0039106
0.000149992
-0.00359781
0.000133132
-0.00326395
0.000117411
-0.00290955
0.000102581
-0.00253774
8.84589e-05
-0.0021652
7.54492e-05
-0.00179102
6.36881e-05
-0.00138586
5.17374e-05
-0.000945754
3.84193e-05
-0.000481877
2.38859e-05
8.23106e-06
-0.00454939
0.000697022
-0.00547371
0.00083064
-0.00595221
0.000796972
-0.00612437
0.000713261
-0.00618024
0.000630083
-0.0061941
0.000561997
-0.00616484
0.000506662
-0.00610815
0.000459958
-0.00603019
0.000418962
-0.00594915
0.000383284
-0.00585152
0.000353759
-0.00571519
0.000326879
-0.00555594
0.000299119
-0.0053809
0.000272038
-0.00518788
0.000247072
-0.00497565
0.000223921
-0.00474347
0.000202446
-0.00449085
0.000182546
-0.0042175
0.000164107
-0.0039232
0.000146988
-0.00360769
0.000131009
-0.00327045
0.000115945
-0.00291018
0.000101497
-0.00252434
8.71937e-05
-0.00215632
7.41182e-05
-0.00181241
6.36649e-05
-0.00141324
5.30345e-05
-0.00095947
3.95234e-05
-0.000488294
2.43826e-05
8.39177e-06
-0.00541454
0.000850371
-0.00605551
0.000881434
-0.00631947
0.000793304
-0.00638433
0.000678064
-0.00637449
0.000583087
-0.00633475
0.000511759
-0.00627276
0.000457546
-0.00619203
0.000414678
-0.00609229
0.000378673
-0.00599049
0.000348424
-0.00588782
0.000324036
-0.00575272
0.000301356
-0.00558751
0.000277271
-0.00540779
0.000253664
-0.00521076
0.000231782
-0.00499507
0.000211323
-0.00475989
0.00019217
-0.00450468
0.000174253
-0.00422908
0.000157492
-0.00393278
0.000141777
-0.00361538
0.000126959
-0.00327597
0.000112841
-0.00291197
9.91436e-05
-0.00251534
8.53912e-05
-0.00214811
7.2579e-05
-0.00182504
6.23205e-05
-0.00142994
5.2131e-05
-0.000966252
3.9054e-05
-0.000491316
2.41579e-05
8.32635e-06
-0.00623935
0.000832763
-0.00660218
0.000895617
-0.00667364
0.000735741
-0.00662952
0.000589159
-0.0065504
0.000493699
-0.00646175
0.000431177
-0.00636704
0.000388082
-0.00626381
0.000355717
-0.00614816
0.000329298
-0.00602465
0.000306993
-0.00590615
0.00028762
-0.00577174
0.000268921
-0.00560739
0.000249838
-0.00542568
0.000231013
-0.00522612
0.000212896
-0.00500799
0.000195584
-0.00477064
0.000179109
-0.00451357
0.000163478
-0.00423643
0.000148665
-0.0039389
0.000134604
-0.00362064
0.000121189
-0.00328099
0.000108274
-0.00291845
9.56778e-05
-0.00252996
8.32464e-05
-0.00215736
7.13167e-05
-0.00181125
6.03789e-05
-0.00141321
4.94737e-05
-0.000959897
3.71265e-05
-0.000488758
2.32411e-05
8.03866e-06
-0.00748367
0.00162932
-0.00728069
0.000435507
-0.00704062
0.000413135
-0.00684951
0.000369015
-0.00669455
0.000338374
-0.00656222
0.000316198
-0.00644072
0.000298981
-0.00632037
0.000284224
-0.00619502
0.000270648
-0.00606174
0.000257777
-0.0059275
0.000245253
-0.00578428
0.000232387
-0.00561946
0.000218841
-0.00543614
0.000204888
-0.0052347
0.000190877
-0.00501478
0.000177045
-0.00477589
0.000163543
-0.00451758
0.000150458
-0.00423951
0.000137828
-0.00394143
0.000125639
-0.00362316
0.000113834
-0.00328456
0.000102321
-0.00292581
9.09889e-05
-0.00254945
7.97684e-05
-0.00217096
6.87559e-05
-0.00179293
5.80177e-05
-0.00138727
4.70588e-05
-0.000946934
3.51574e-05
-0.000482688
2.20484e-05
7.63472e-06
-0.000143652
-1.74938e-05
-0.000296338
-5.1279e-05
-0.000438953
-8.29544e-05
-0.000543146
-0.000110618
-0.000606788
-0.000132927
-0.000667715
-0.000152985
-0.000728406
-0.000173914
-0.000771441
-0.000194551
-0.000806036
-0.000214307
-0.000828947
-0.000233582
-0.000846573
-0.000252919
-0.000870512
-0.000273736
-0.000897428
-0.000296164
-0.000928938
-0.000319797
-0.000966945
-0.000344835
-0.00101383
-0.000371481
-0.00107311
-0.000399998
-0.00115098
-0.00043106
-0.00125268
-0.000465653
-0.00138212
-0.000505019
-0.00154369
-0.000550733
-0.00173885
-0.000604863
-0.00196861
-0.000671149
-0.00223853
-0.000754505
-0.00257604
-0.000859422
-0.00302362
-0.000984578
-0.00362902
-0.00112
-0.00446451
-0.00124248
-0.00535897
-0.00135178
-0.00134978
-0.00483443
-0.000135866
-1.74359e-05
-0.000302815
-5.23977e-05
-0.000464717
-8.64331e-05
-0.000575343
-0.000115493
-0.000642032
-0.000138892
-0.000715691
-0.000161147
-0.000789357
-0.000184286
-0.000839691
-0.000206365
-0.000879601
-0.000226909
-0.000905827
-0.000246355
-0.000930901
-0.000266392
-0.000967841
-0.00028907
-0.00100785
-0.000313645
-0.0010533
-0.000339235
-0.00110588
-0.000366215
-0.0011691
-0.000394978
-0.00124701
-0.000425932
-0.00134558
-0.000459833
-0.00146897
-0.000497677
-0.00162094
-0.0005408
-0.00180507
-0.0005907
-0.00202314
-0.000649529
-0.0022786
-0.000720128
-0.00258475
-0.000806057
-0.00299351
-0.000909607
-0.00353195
-0.00102483
-0.00423235
-0.00112771
-0.00512033
-0.00118663
-0.00603021
-0.00120177
-0.00112038
-0.00673153
-0.000132822
-1.82124e-05
-0.000312434
-5.47387e-05
-0.000485717
-8.99387e-05
-0.000603971
-0.000120058
-0.000686414
-0.000145569
-0.000775808
-0.000170335
-0.000855233
-0.000194647
-0.000906208
-0.000216523
-0.000945155
-0.000236909
-0.000979919
-0.000257519
-0.00102341
-0.000279811
-0.00107647
-0.000304556
-0.00113104
-0.000330826
-0.00119125
-0.000358148
-0.00125954
-0.000386935
-0.00134
-0.000417661
-0.001437
-0.000450843
-0.00155587
-0.000487245
-0.00170015
-0.000527809
-0.00187363
-0.000573719
-0.00208055
-0.000626454
-0.002326
-0.000687441
-0.00261956
-0.000757271
-0.00297233
-0.000838154
-0.00343837
-0.000929448
-0.00403486
-0.00101847
-0.00477335
-0.00107829
-0.00560008
-0.00109154
-0.00632437
-0.00107851
-0.000996472
-0.00679934
-0.000149139
-1.99049e-05
-0.000333934
-5.84278e-05
-0.000508605
-9.41077e-05
-0.000638303
-0.000125282
-0.000739515
-0.000152603
-0.000839315
-0.000178563
-0.000916243
-0.000203045
-0.000966339
-0.000224966
-0.00101306
-0.000246501
-0.00106636
-0.000269515
-0.00113051
-0.000294063
-0.00119736
-0.000320098
-0.0012668
-0.000347508
-0.00134223
-0.000376236
-0.00142694
-0.00040653
-0.00152503
-0.00043888
-0.00164079
-0.00047384
-0.00177893
-0.000512154
-0.00194258
-0.000554523
-0.00213603
-0.000601965
-0.00236694
-0.000655676
-0.00264928
-0.000716251
-0.00298773
-0.00078256
-0.0033759
-0.000852598
-0.00387804
-0.000921813
-0.00451063
-0.000977077
-0.00522371
-0.001002
-0.00592889
-0.000996023
-0.00651299
-0.000973637
-0.000887763
-0.00691162
-0.000171649
-2.11144e-05
-0.000360528
-6.13368e-05
-0.000537292
-9.79495e-05
-0.000679465
-0.00013029
-0.000794428
-0.000158999
-0.000898572
-0.00018565
-0.000976833
-0.000210597
-0.00103891
-0.000234088
-0.00110501
-0.000257692
-0.00117492
-0.000282175
-0.00125144
-0.000307712
-0.00133059
-0.000334717
-0.00141481
-0.000363219
-0.00150563
-0.000393063
-0.00160696
-0.000424496
-0.00172267
-0.000457978
-0.00185641
-0.000494082
-0.0020122
-0.000533431
-0.00219345
-0.000576487
-0.0024066
-0.000623919
-0.00266261
-0.000676145
-0.00298395
-0.000733305
-0.0033533
-0.000793787
-0.00376587
-0.000850338
-0.00429919
-0.000894572
-0.00493142
-0.000921257
-0.00557104
-0.000926284
-0.00615705
-0.000912583
-0.00664044
-0.000884541
-0.0007989
-0.0069779
-0.000186761
-2.19085e-05
-0.000384699
-6.35749e-05
-0.000569831
-0.000101454
-0.000724268
-0.000135048
-0.000851536
-0.000164975
-0.000961982
-0.000192545
-0.0010518
-0.000218525
-0.00113234
-0.000243477
-0.0012146
-0.000268379
-0.00129653
-0.000293869
-0.00138323
-0.000320319
-0.00147541
-0.000348182
-0.00157388
-0.000377509
-0.00168007
-0.000408148
-0.00179815
-0.000440315
-0.00193135
-0.000474377
-0.00208237
-0.000510794
-0.00225408
-0.000550067
-0.00245208
-0.000592613
-0.00268583
-0.000638264
-0.00296869
-0.00068661
-0.0033186
-0.000736807
-0.00370832
-0.000786182
-0.00415145
-0.000827455
-0.00469273
-0.000853162
-0.00527465
-0.000862886
-0.00582784
-0.000858059
-0.00632201
-0.000839976
-0.00673444
-0.000807981
-0.000726913
-0.00702556
-0.000197012
-2.24544e-05
-0.000407875
-6.53834e-05
-0.000606107
-0.000104662
-0.000773398
-0.000139508
-0.000913314
-0.000170524
-0.00103462
-0.000199054
-0.00113982
-0.000226038
-0.0012362
-0.000252128
-0.00133096
-0.000278079
-0.00142593
-0.000304469
-0.00152508
-0.000331691
-0.00163026
-0.000360152
-0.00174242
-0.000389954
-0.00186383
-0.000421048
-0.00199859
-0.000453545
-0.00214951
-0.000487623
-0.00231759
-0.000523335
-0.00250354
-0.000561248
-0.00271757
-0.000601904
-0.00297476
-0.000644324
-0.00328761
-0.000687132
-0.00365871
-0.000728258
-0.00406789
-0.00076457
-0.00452618
-0.000791617
-0.00503543
-0.00080574
-0.0055468
-0.000807144
-0.00602408
-0.000797229
-0.00644947
-0.00077606
-0.00680795
-0.000742204
-0.000668168
-0.00706356
-0.000203075
-2.266e-05
-0.000430304
-6.6578e-05
-0.000645809
-0.000107396
-0.000827176
-0.000143554
-0.000980508
-0.0001756
-0.00111463
-0.000205029
-0.00123451
-0.000232882
-0.00134589
-0.000259859
-0.00145447
-0.000286637
-0.00156337
-0.000313725
-0.00167562
-0.000341456
-0.00179343
-0.000370209
-0.00191872
-0.000400173
-0.00205471
-0.000431352
-0.00220594
-0.000463783
-0.00237575
-0.000497395
-0.00256294
-0.000531449
-0.00276078
-0.000566558
-0.00298919
-0.000603967
-0.00327411
-0.00064218
-0.00361431
-0.000678448
-0.00399856
-0.000710393
-0.00441366
-0.000735919
-0.00485691
-0.000752663
-0.00531621
-0.000759117
-0.0057641
-0.000755464
-0.0061806
-0.000742396
-0.00655329
-0.000719333
-0.00686853
-0.000685634
-0.000619317
-0.00709544
-0.000199164
-2.21352e-05
-0.000449401
-6.66086e-05
-0.000689215
-0.000109518
-0.000886009
-0.000147197
-0.00105324
-0.000180118
-0.00120079
-0.00021027
-0.00133504
-0.000238813
-0.00146133
-0.000266492
-0.00158468
-0.000293895
-0.00170815
-0.000321429
-0.00183383
-0.000349354
-0.00196366
-0.000378042
-0.0021009
-0.000407804
-0.00225029
-0.000438668
-0.00241776
-0.000470681
-0.00261014
-0.000503754
-0.00281494
-0.000536562
-0.00301688
-0.000568318
-0.00326314
-0.000600541
-0.00357914
-0.000632932
-0.00393579
-0.000662184
-0.00431972
-0.000686096
-0.00472201
-0.000703505
-0.00513475
-0.000713169
-0.00554636
-0.000714474
-0.00594197
-0.000707597
-0.00630981
-0.00069254
-0.00663983
-0.000668614
-0.00691971
-0.000636504
-0.000577683
-0.00712306
-0.00020315
-2.28299e-05
-0.000476502
-6.84467e-05
-0.000738738
-0.000112162
-0.000950281
-0.000150468
-0.00113095
-0.000183938
-0.00129196
-0.00021462
-0.00144065
-0.000243683
-0.00158216
-0.000271868
-0.00172091
-0.000299695
-0.00185975
-0.000327465
-0.00199924
-0.000355207
-0.00213933
-0.000383301
-0.00228632
-0.000412366
-0.00244808
-0.000442494
-0.00263048
-0.000473586
-0.00284317
-0.000505578
-0.00305731
-0.000537501
-0.00326751
-0.000566766
-0.00354217
-0.000593223
-0.00388075