/*--------------------------------*- C++ -*----------------------------------*\
| =========                 |                                                 |
| \\      /  F ield         | OpenFOAM: The Open Source CFD Toolbox           |
|  \\    /   O peration     | Version:  4.1                                   |
|   \\  /    A nd           | Web:      www.OpenFOAM.org                      |
|    \\/     M anipulation  |                                                 |
\*---------------------------------------------------------------------------*/
FoamFile
{
    version     2.0;
    format      ascii;
    class       pointVectorField;
    location    "2.5";
    object      pointDisplacement;
}
// * * * * * * * * * * * * * * * * * * * * * * * * * * * * * * * * * * * * * //

dimensions      [0 1 0 0 0 0 0];

internalField   nonuniform List<vector> 
5828
(
(0 0 0)
(0.0258977 0 0)
(0.0487264 0 0)
(0.0678106 0 0)
(0.0835331 0 0)
(0.0962671 0 0)
(0.106338 0 0)
(0.11403 0 0)
(0.119593 0 0)
(0.123244 0 0)
(0.125176 0 0)
(0.125562 0 0)
(0.124555 0 0)
(0.122292 0 0)
(0.118898 0 0)
(0.114487 0 0)
(0.109164 0 0)
(0.10303 0 0)
(0.0961807 0 0)
(0.0887104 0 0)
(0.0807136 0 0)
(0.0722878 0 0)
(0.0635367 0 0)
(0.0545744 0 0)
(0.0455298 0 0)
(0.0365577 0 0)
(0.027872 0 0)
(0.0197844 0 0)
(0.0127819 0 0)
(0.00783468 0 0)
(-2.06085e-15 0 0)
(0 0 0)
(0.0259179 0.000114155 0)
(0.0487696 0.000219405 0)
(0.0678758 0.000315396 0)
(0.0836205 0.000405318 0)
(0.0963779 0.000491841 0)
(0.106474 0.000577008 0)
(0.114194 0.000662479 0)
(0.119786 0.000749628 0)
(0.123469 0.000839452 0)
(0.125437 0.000932854 0)
(0.125862 0.00103087 0)
(0.124898 0.00113471 0)
(0.122683 0.00124509 0)
(0.119343 0.00136305 0)
(0.114992 0.00149005 0)
(0.109736 0.00162707 0)
(0.103678 0.00177523 0)
(0.0969133 0.00193579 0)
(0.0895392 0.0021102 0)
(0.081652 0.00230014 0)
(0.0733521 0.0025076 0)
(0.0647471 0.00273514 0)
(0.0559582 0.00298613 0)
(0.0471231 0.00326417 0)
(0.0384011 0.00357359 0)
(0.0300099 0.00392296 0)
(0.0222772 0.00432739 0)
(0.0157534 0.00482072 0)
(0.0114843 0.00541362 0)
(0.00511816 0.00596547 0)
(0 0 0)
(0.0259893 0.000228112 0)
(0.0489091 0.000438472 0)
(0.068079 0.000630333 0)
(0.0838882 0.000810036 0)
(0.0967145 0.000982955 0)
(0.106884 0.00115315 0)
(0.114684 0.00132396 0)
(0.120364 0.00149817 0)
(0.124143 0.00167773 0)
(0.126218 0.00186435 0)
(0.12676 0.00205999 0)
(0.125924 0.00226591 0)
(0.123852 0.00248465 0)
(0.120672 0.00271958 0)
(0.1165 0.00297267 0)
(0.111445 0.00324568 0)
(0.105612 0.0035408 0)
(0.0991007 0.00386061 0)
(0.092013 0.00420803 0)
(0.0844512 0.00458636 0)
(0.0765229 0.00499965 0)
(0.0683457 0.00545311 0)
(0.0600605 0.00595501 0)
(0.0518325 0.00651407 0)
(0.0438524 0.00713905 0)
(0.0363709 0.00784108 0)
(0.0297361 0.00863964 0)
(0.024563 0.00957808 0)
(0.0221161 0.0106703 0)
(0.0171836 0.0115677 0)
(0 0 0)
(0.0261079 0.000341441 0)
(0.0491407 0.000656079 0)
(0.0684154 0.000942864 0)
(0.0843308 0.00121153 0)
(0.097271 0.00147004 0)
(0.107563 0.00172439 0)
(0.115495 0.00197956 0)
(0.12132 0.00223993 0)
(0.125258 0.0025082 0)
(0.127507 0.0027868 0)
(0.128244 0.00307886 0)
(0.127625 0.00338639 0)
(0.125792 0.00371275 0)
(0.122877 0.004063 0)
(0.119002 0.00444045 0)
(0.114281 0.00484739 0)
(0.108821 0.00528707 0)
(0.10273 0.00576348 0)
(0.0961187 0.006281 0)
(0.0890982 0.00684454 0)
(0.081789 0.00746007 0)
(0.0743224 0.00813581 0)
(0.0668585 0.00888289 0)
(0.0595996 0.00971289 0)
(0.0527981 0.0106402 0)
(0.0467907 0.0116837 0)
(0.0420079 0.0128646 0)
(0.0390498 0.0142016 0)
(0.0393437 0.0156943 0)
(0.0364386 0.016808 0)
(0 0 0)
(0.0262676 0.000453697 0)
(0.0494536 0.000871337 0)
(0.0688778 0.00125181 0)
(0.0849453 0.00160837 0)
(0.0980445 0.0019513 0)
(0.108506 0.00228854 0)
(0.116622 0.00262658 0)
(0.122647 0.00297089 0)
(0.126803 0.00332537 0)
(0.129294 0.00369381 0)
(0.1303 0.00408034 0)
(0.129983 0.00448825 0)
(0.128485 0.00492157 0)
(0.125942 0.00538573 0)
(0.122482 0.00588497 0)
(0.118224 0.00642255 0)
(0.113283 0.00700288 0)
(0.107777 0.00763155 0)
(0.101827 0.00831457 0)
(0.0955578 0.00905815 0)
(0.0891055 0.00987003 0)
(0.082631 0.0107622 0)
(0.0763206 0.0117454 0)
(0.0704071 0.0128314 0)
(0.0651983 0.0140391 0)
(0.0611274 0.0153927 0)
(0.0588235 0.0169171 0)
(0.0589954 0.0186179 0)
(0.062944 0.0204359 0)
(0.0624785 0.0217242 0)
(0 0 0)
(0.0264671 0.000564206 0)
(0.0498457 0.00108349 0)
(0.0694638 0.00155658 0)
(0.0857284 0.00199984 0)
(0.0990307 0.00242591 0)
(0.109708 0.0028446 0)
(0.118058 0.00326378 0)
(0.124335 0.00368943 0)
(0.128768 0.0041274 0)
(0.131568 0.00458341 0)
(0.132918 0.00506198 0)
(0.132982 0.00556752 0)
(0.131913 0.00610555 0)
(0.129847 0.00668109 0)
(0.126916 0.00729823 0)
(0.123249 0.00796181 0)
(0.118967 0.00867717 0)
(0.114202 0.00945195 0)
(0.109095 0.010294 0)
(0.103786 0.0112104 0)
(0.0984262 0.0122106 0)
(0.0932053 0.0133079 0)
(0.0883519 0.0145133 0)
(0.0841628 0.015842 0)
(0.0810076 0.0173136 0)
(0.0793691 0.0189459 0)
(0.0800602 0.0207644 0)
(0.084112 0.0227774 0)
(0.0925252 0.0248481 0)
(0.0948122 0.0262221 0)
(0 0 0)
(0.0267097 0.000672368 0)
(0.0503224 0.00129133 0)
(0.0701725 0.00185525 0)
(0.0866727 0.00238332 0)
(0.10022 0.00289057 0)
(0.111157 0.00338865 0)
(0.119787 0.00388678 0)
(0.12637 0.00439209 0)
(0.131141 0.00491185 0)
(0.134315 0.00545287 0)
(0.136078 0.00602038 0)
(0.136602 0.00661977 0)
(0.136042 0.00725701 0)
(0.134544 0.0079379 0)
(0.132251 0.00866755 0)
(0.129299 0.00945155 0)
(0.125821 0.0102966 0)
(0.121957 0.0112115 0)
(0.117868 0.0122049 0)
(0.113718 0.013285 0)
(0.109687 0.0144634 0)
(0.105989 0.0157522 0)
(0.102896 0.0171641 0)
(0.100768 0.018717 0)
(0.100074 0.0204283 0)
(0.101404 0.0223127 0)
(0.10563 0.0243823 0)
(0.114107 0.0266347 0)
(0.127608 0.0288814 0)
(0.132912 0.0303695 0)
(0 0 0)
(0.026993 0.000777769 0)
(0.0508785 0.00149376 0)
(0.0709968 0.00214597 0)
(0.0877692 0.00275637 0)
(0.101599 0.00334229 0)
(0.112839 0.00391715 0)
(0.121794 0.0044916 0)
(0.128734 0.00507431 0)
(0.133899 0.00567328 0)
(0.137506 0.00629589 0)
(0.139749 0.00694844 0)
(0.140805 0.007637 0)
(0.140837 0.00836813 0)
(0.140001 0.00914878 0)
(0.138447 0.00998483 0)
(0.136325 0.0108828 0)
(0.133788 0.0118515 0)
(0.130978 0.0128983 0)
(0.128073 0.0140323 0)
(0.125273 0.0152647 0)
(0.122789 0.0166074 0)
(0.12087 0.0180727 0)
(0.119856 0.0196756 0)
(0.120145 0.0214302 0)
(0.122271 0.0233493 0)
(0.127029 0.0254486 0)
(0.135351 0.027722 0)
(0.148761 0.0301392 0)
(0.167779 0.0324715 0)
(0.176397 0.0340686 0)
(0 0 0)
(0.027315 0.00088026 0)
(0.0515105 0.00169053 0)
(0.0719324 0.00242842 0)
(0.0890126 0.00311859 0)
(0.103164 0.00378056 0)
(0.114746 0.0044295 0)
(0.124071 0.00507741 0)
(0.131415 0.00573417 0)
(0.137023 0.00640859 0)
(0.141119 0.00710876 0)
(0.143904 0.00784188 0)
(0.145561 0.00861476 0)
(0.146268 0.00943539 0)
(0.146185 0.0103104 0)
(0.145463 0.0112451 0)
(0.144275 0.0122486 0)
(0.142793 0.0133303 0)
(0.141178 0.0144978 0)
(0.139622 0.0157612 0)
(0.138353 0.017132 0)
(0.13763 0.0186232 0)
(0.137744 0.0202478 0)
(0.139078 0.0220192 0)
(0.142125 0.0239482 0)
(0.147501 0.0260444 0)
(0.156114 0.0283135 0)
(0.169078 0.0307342 0)
(0.187877 0.0332302 0)
(0.212511 0.0355205 0)
(0.224534 0.0370935 0)
(0 0 0)
(0.0276739 0.000979697 0)
(0.0522146 0.00188138 0)
(0.072974 0.00270224 0)
(0.0903964 0.0034695 0)
(0.104905 0.00420478 0)
(0.116867 0.0049249 0)
(0.126604 0.00564316 0)
(0.134395 0.00637042 0)
(0.140495 0.00711621 0)
(0.145132 0.00788947 0)
(0.148516 0.0086981 0)
(0.150836 0.00954936 0)
(0.152281 0.0104521 0)
(0.153025 0.0114132 0)
(0.15323 0.0124388 0)
(0.153078 0.0135388 0)
(0.15276 0.0147223 0)
(0.152465 0.0159983 0)
(0.152411 0.0173776 0)
(0.152848 0.0188714 0)
(0.154082 0.0204931 0)
(0.156465 0.0222549 0)
(0.160416 0.0241668 0)
(0.166516 0.0262382 0)
(0.175555 0.0284757 0)
(0.188464 0.030865 0)
(0.206534 0.0333635 0)
(0.230969 0.0358343 0)
(0.261015 0.0379493 0)
(0.276234 0.0393573 0)
(0 0 0)
(0.0280661 0.00107545 0)
(0.0529838 0.00206509 0)
(0.0741113 0.00296565 0)
(0.0919063 0.0038068 0)
(0.106803 0.00461208 0)
(0.119181 0.00539996 0)
(0.129366 0.00618493 0)
(0.137645 0.00697859 0)
(0.144276 0.00779109 0)
(0.149501 0.00863236 0)
(0.153536 0.00951094 0)
(0.156579 0.0104345 0)
(0.158827 0.0114123 0)
(0.160466 0.0124513 0)
(0.161681 0.0135595 0)
(0.162657 0.0147457 0)
(0.163599 0.0160185 0)
(0.164737 0.0173889 0)
(0.166312 0.0188678 0)
(0.168612 0.020466 0)
(0.171972 0.0221952 0)
(0.176809 0.0240664 0)
(0.183632 0.0260881 0)
(0.193098 0.0282662 0)
(0.2061 0.0305973 0)
(0.223663 0.0330486 0)
(0.247108 0.0355453 0)
(0.277189 0.0378923 0)
(0.312334 0.039741 0)
(0.330512 0.0409466 0)
(0 0 0)
(0.0284875 0.00116693 0)
(0.0538103 0.00224053 0)
(0.0753329 0.00321704 0)
(0.0935274 0.00412838 0)
(0.108841 0.00499987 0)
(0.121664 0.00585166 0)
(0.13233 0.00669929 0)
(0.141131 0.00755493 0)
(0.148335 0.0084297 0)
(0.154193 0.00933422 0)
(0.158927 0.0102772 0)
(0.162748 0.0112671 0)
(0.165858 0.0123126 0)
(0.168448 0.0134205 0)
(0.17073 0.0145999 0)
(0.172908 0.0158597 0)
(0.175201 0.0172086 0)
(0.177864 0.0186578 0)
(0.181173 0.0202173 0)
(0.185451 0.021897 0)
(0.191075 0.023707 0)
(0.198537 0.0256572 0)
(0.208434 0.0277533 0)
(0.221519 0.0299949 0)
(0.238716 0.0323641 0)
(0.261186 0.0348132 0)
(0.290074 0.0372324 0)
(0.32561 0.0393876 0)
(0.365416 0.0409299 0)
(0.386411 0.0419152 0)
(0 0 0)
(0.028935 0.00125384 0)
(0.0546879 0.00240714 0)
(0.0766302 0.00345565 0)
(0.0952482 0.00443331 0)
(0.111006 0.00536743 0)
(0.124305 0.00627955 0)
(0.135483 0.00718577 0)
(0.144838 0.00809905 0)
(0.152655 0.00903175 0)
(0.159183 0.00999412 0)
(0.164651 0.0109947 0)
(0.169283 0.0120427 0)
(0.173292 0.0131463 0)
(0.176887 0.0143134 0)
(0.180289 0.015553 0)
(0.183731 0.016874 0)
(0.187441 0.0182843 0)
(0.191695 0.0197937 0)
(0.196817 0.0214124 0)
(0.20316 0.0231482 0)
(0.211155 0.0250098 0)
(0.221357 0.0270044 0)
(0.234451 0.0291324 0)
(0.251267 0.0313846 0)
(0.272808 0.0337326 0)
(0.300278 0.0361139 0)
(0.33447 0.0383914 0)
(0.375122 0.0403222 0)
(0.419084 0.0415462 0)
(0.443176 0.0425436 0)
(0 0 0)
(0.0294063 0.0013361 0)
(0.0556125 0.00256479 0)
(0.0779974 0.00368129 0)
(0.0970646 0.00472157 0)
(0.113294 0.0057149 0)
(0.127094 0.00668346 0)
(0.138807 0.0076437 0)
(0.148744 0.00860984 0)
(0.157196 0.00959453 0)
(0.164416 0.0106077 0)
(0.170645 0.0116584 0)
(0.176119 0.0127561 0)
(0.181064 0.0139095 0)
(0.185707 0.0151265 0)
(0.190272 0.0164147 0)
(0.195005 0.0177822 0)
(0.20017 0.0192364 0)
(0.206065 0.0207869 0)
(0.213042 0.0224419 0)
(0.221497 0.0242062 0)
(0.231917 0.0260862 0)
(0.244896 0.028084 0)
(0.26119 0.0301935 0)
(0.281711 0.032396 0)
(0.307551 0.034653 0)
(0.339763 0.0368859 0)
(0.378841 0.0389486 0)
(0.424086 0.0406138 0)
(0.47174 0.0414471 0)
(0.50068 0.0430553 0)
(0 0 0)
(0.0298987 0.00141364 0)
(0.056579 0.00271333 0)
(0.0794273 0.00389373 0)
(0.0989663 0.00499273 0)
(0.115687 0.00604096 0)
(0.130003 0.00706108 0)
(0.142267 0.0080703 0)
(0.152805 0.00908389 0)
(0.161909 0.0101143 0)
(0.169843 0.0111717 0)
(0.176861 0.0122661 0)
(0.18321 0.0134066 0)
(0.189117 0.0146008 0)
(0.194819 0.0158559 0)
(0.200562 0.0171793 0)
(0.206606 0.0185783 0)
(0.213243 0.0200595 0)
(0.220791 0.0216306 0)
(0.229625 0.0232968 0)
(0.240178 0.0250596 0)
(0.252983 0.0269207 0)
(0.268683 0.0288756 0)
(0.28805 0.0309088 0)
(0.312064 0.0329892 0)
(0.341779 0.03506 0)
(0.378021 0.0370204 0)
(0.421104 0.0387111 0)
(0.469906 0.0399044 0)
(0.520593 0.0399759 0)
(0.558836 0.0434255 0)
(0 0 0)
(0.0304118 0.00148664 0)
(0.0575871 0.00285315 0)
(0.0809185 0.00409348 0)
(0.100947 0.00524715 0)
(0.118178 0.00634594 0)
(0.133029 0.0074132 0)
(0.145868 0.00846712 0)
(0.157032 0.00952359 0)
(0.166814 0.0105947 0)
(0.17549 0.011691 0)
(0.183321 0.0128223 0)
(0.190557 0.0139967 0)
(0.197441 0.0152215 0)
(0.204218 0.0165035 0)
(0.211153 0.0178496 0)
(0.218522 0.0192653 0)
(0.226629 0.0207553 0)
(0.235816 0.0223248 0)
(0.246472 0.0239752 0)
(0.259054 0.0257038 0)
(0.274139 0.0275055 0)
(0.292375 0.0293655 0)
(0.314539 0.0312551 0)
(0.34156 0.0331224 0)
(0.374273 0.034875 0)
(0.413267 0.0363555 0)
(0.458486 0.0372864 0)
(0.508 0.0371523 0)
(0.557205 0.0346522 0)
(0.617241 0.0435393 0)
(0 0 0)
(0.0258977 0 0)
(0.0487264 0 0)
(0.0678106 0 0)
(0.0835331 0 0)
(0.0962671 0 0)
(0.106338 0 0)
(0.11403 0 0)
(0.119593 0 0)
(0.123244 0 0)
(0.125176 0 0)
(0.125562 0 0)
(0.124555 0 0)
(0.122292 0 0)
(0.118898 0 0)
(0.114487 0 0)
(0.109164 0 0)
(0.10303 0 0)
(0.0961807 0 0)
(0.0887104 0 0)
(0.0807136 0 0)
(0.0722878 0 0)
(0.0635367 0 0)
(0.0545744 0 0)
(0.0455298 0 0)
(0.0365577 0 0)
(0.027872 0 0)
(0.0197844 0 0)
(0.0127819 0 0)
(0.00783468 0 0)
(2.77556e-17 0 0)
(0 0 0)
(0.0259179 0.000114155 0)
(0.0487696 0.000219405 0)
(0.0678758 0.000315396 0)
(0.0836205 0.000405318 0)
(0.0963779 0.000491841 0)
(0.106474 0.000577008 0)
(0.114194 0.000662479 0)
(0.119786 0.000749628 0)
(0.123469 0.000839452 0)
(0.125437 0.000932854 0)
(0.125862 0.00103087 0)
(0.124898 0.00113471 0)
(0.122683 0.00124509 0)
(0.119343 0.00136305 0)
(0.114992 0.00149005 0)
(0.109736 0.00162707 0)
(0.103678 0.00177523 0)
(0.0969133 0.00193579 0)
(0.0895392 0.0021102 0)
(0.081652 0.00230014 0)
(0.0733521 0.0025076 0)
(0.0647471 0.00273514 0)
(0.0559582 0.00298613 0)
(0.0471231 0.00326417 0)
(0.0384011 0.00357359 0)
(0.0300099 0.00392296 0)
(0.0222772 0.00432739 0)
(0.0157534 0.00482072 0)
(0.0114843 0.00541362 0)
(0.00511816 0.00596547 0)
(0 0 0)
(0.0259893 0.000228112 0)
(0.0489091 0.000438472 0)
(0.068079 0.000630333 0)
(0.0838882 0.000810036 0)
(0.0967145 0.000982955 0)
(0.106884 0.00115315 0)
(0.114684 0.00132396 0)
(0.120364 0.00149817 0)
(0.124143 0.00167773 0)
(0.126218 0.00186435 0)
(0.12676 0.00205999 0)
(0.125924 0.00226591 0)
(0.123852 0.00248465 0)
(0.120672 0.00271958 0)
(0.1165 0.00297267 0)
(0.111445 0.00324568 0)
(0.105612 0.0035408 0)
(0.0991007 0.00386061 0)
(0.092013 0.00420803 0)
(0.0844512 0.00458636 0)
(0.0765229 0.00499965 0)
(0.0683457 0.00545311 0)
(0.0600605 0.00595501 0)
(0.0518325 0.00651407 0)
(0.0438524 0.00713905 0)
(0.0363709 0.00784108 0)
(0.0297361 0.00863964 0)
(0.024563 0.00957808 0)
(0.0221161 0.0106703 0)
(0.0171836 0.0115677 0)
(0 0 0)
(0.0261079 0.000341441 0)
(0.0491407 0.000656079 0)
(0.0684154 0.000942864 0)
(0.0843308 0.00121153 0)
(0.097271 0.00147004 0)
(0.107563 0.00172439 0)
(0.115495 0.00197956 0)
(0.12132 0.00223993 0)
(0.125258 0.0025082 0)
(0.127507 0.0027868 0)
(0.128244 0.00307886 0)
(0.127625 0.00338639 0)
(0.125792 0.00371275 0)
(0.122877 0.004063 0)
(0.119002 0.00444045 0)
(0.114281 0.00484739 0)
(0.108821 0.00528707 0)
(0.10273 0.00576348 0)
(0.0961187 0.006281 0)
(0.0890982 0.00684454 0)
(0.081789 0.00746007 0)
(0.0743224 0.00813581 0)
(0.0668585 0.00888289 0)
(0.0595996 0.00971289 0)
(0.0527981 0.0106402 0)
(0.0467907 0.0116837 0)
(0.0420079 0.0128646 0)
(0.0390498 0.0142016 0)
(0.0393437 0.0156943 0)
(0.0364386 0.016808 0)
(0 0 0)
(0.0262676 0.000453697 0)
(0.0494536 0.000871337 0)
(0.0688778 0.00125181 0)
(0.0849453 0.00160837 0)
(0.0980445 0.0019513 0)
(0.108506 0.00228854 0)
(0.116622 0.00262658 0)
(0.122647 0.00297089 0)
(0.126803 0.00332537 0)
(0.129294 0.00369381 0)
(0.1303 0.00408034 0)
(0.129983 0.00448825 0)
(0.128485 0.00492157 0)
(0.125942 0.00538573 0)
(0.122482 0.00588497 0)
(0.118224 0.00642255 0)
(0.113283 0.00700288 0)
(0.107777 0.00763155 0)
(0.101827 0.00831457 0)
(0.0955578 0.00905815 0)
(0.0891055 0.00987003 0)
(0.082631 0.0107622 0)
(0.0763206 0.0117454 0)
(0.0704071 0.0128314 0)
(0.0651983 0.0140391 0)
(0.0611274 0.0153927 0)
(0.0588235 0.0169171 0)
(0.0589954 0.0186179 0)
(0.062944 0.0204359 0)
(0.0624785 0.0217242 0)
(0 0 0)
(0.0264671 0.000564206 0)
(0.0498457 0.00108349 0)
(0.0694638 0.00155658 0)
(0.0857284 0.00199984 0)
(0.0990307 0.00242591 0)
(0.109708 0.0028446 0)
(0.118058 0.00326378 0)
(0.124335 0.00368943 0)
(0.128768 0.0041274 0)
(0.131568 0.00458341 0)
(0.132918 0.00506198 0)
(0.132982 0.00556752 0)
(0.131913 0.00610555 0)
(0.129847 0.00668109 0)
(0.126916 0.00729823 0)
(0.123249 0.00796181 0)
(0.118967 0.00867717 0)
(0.114202 0.00945195 0)
(0.109095 0.010294 0)
(0.103786 0.0112104 0)
(0.0984262 0.0122106 0)
(0.0932053 0.0133079 0)
(0.0883519 0.0145133 0)
(0.0841628 0.015842 0)
(0.0810076 0.0173136 0)
(0.0793691 0.0189459 0)
(0.0800602 0.0207644 0)
(0.084112 0.0227774 0)
(0.0925252 0.0248481 0)
(0.0948122 0.0262221 0)
(0 0 0)
(0.0267097 0.000672368 0)
(0.0503224 0.00129133 0)
(0.0701725 0.00185525 0)
(0.0866727 0.00238332 0)
(0.10022 0.00289057 0)
(0.111157 0.00338865 0)
(0.119787 0.00388678 0)
(0.12637 0.00439209 0)
(0.131141 0.00491185 0)
(0.134315 0.00545287 0)
(0.136078 0.00602038 0)
(0.136602 0.00661977 0)
(0.136042 0.00725701 0)
(0.134544 0.0079379 0)
(0.132251 0.00866755 0)
(0.129299 0.00945155 0)
(0.125821 0.0102966 0)
(0.121957 0.0112115 0)
(0.117868 0.0122049 0)
(0.113718 0.013285 0)
(0.109687 0.0144634 0)
(0.105989 0.0157522 0)
(0.102896 0.0171641 0)
(0.100768 0.018717 0)
(0.100074 0.0204283 0)
(0.101404 0.0223127 0)
(0.10563 0.0243823 0)
(0.114107 0.0266347 0)
(0.127608 0.0288814 0)
(0.132912 0.0303695 0)
(0 0 0)
(0.026993 0.000777769 0)
(0.0508785 0.00149376 0)
(0.0709968 0.00214597 0)
(0.0877692 0.00275637 0)
(0.101599 0.00334229 0)
(0.112839 0.00391715 0)
(0.121794 0.0044916 0)
(0.128734 0.00507431 0)
(0.133899 0.00567328 0)
(0.137506 0.00629589 0)
(0.139749 0.00694844 0)
(0.140805 0.007637 0)
(0.140837 0.00836813 0)
(0.140001 0.00914878 0)
(0.138447 0.00998483 0)
(0.136325 0.0108828 0)
(0.133788 0.0118515 0)
(0.130978 0.0128983 0)
(0.128073 0.0140323 0)
(0.125273 0.0152647 0)
(0.122789 0.0166074 0)
(0.12087 0.0180727 0)
(0.119856 0.0196756 0)
(0.120145 0.0214302 0)
(0.122271 0.0233493 0)
(0.127029 0.0254486 0)
(0.135351 0.027722 0)
(0.148761 0.0301392 0)
(0.167779 0.0324715 0)
(0.176397 0.0340686 0)
(0 0 0)
(0.027315 0.00088026 0)
(0.0515105 0.00169053 0)
(0.0719324 0.00242842 0)
(0.0890126 0.00311859 0)
(0.103164 0.00378056 0)
(0.114746 0.0044295 0)
(0.124071 0.00507741 0)
(0.131415 0.00573417 0)
(0.137023 0.00640859 0)
(0.141119 0.00710876 0)
(0.143904 0.00784188 0)
(0.145561 0.00861476 0)
(0.146268 0.00943539 0)
(0.146185 0.0103104 0)
(0.145463 0.0112451 0)
(0.144275 0.0122486 0)
(0.142793 0.0133303 0)
(0.141178 0.0144978 0)
(0.139622 0.0157612 0)
(0.138353 0.017132 0)
(0.13763 0.0186232 0)
(0.137744 0.0202478 0)
(0.139078 0.0220192 0)
(0.142125 0.0239482 0)
(0.147501 0.0260444 0)
(0.156114 0.0283135 0)
(0.169078 0.0307342 0)
(0.187877 0.0332302 0)
(0.212511 0.0355205 0)
(0.224534 0.0370935 0)
(0 0 0)
(0.0276739 0.000979697 0)
(0.0522146 0.00188138 0)
(0.072974 0.00270224 0)
(0.0903964 0.0034695 0)
(0.104905 0.00420478 0)
(0.116867 0.0049249 0)
(0.126604 0.00564316 0)
(0.134395 0.00637042 0)
(0.140495 0.00711621 0)
(0.145132 0.00788947 0)
(0.148516 0.0086981 0)
(0.150836 0.00954936 0)
(0.152281 0.0104521 0)
(0.153025 0.0114132 0)
(0.15323 0.0124388 0)
(0.153078 0.0135388 0)
(0.15276 0.0147223 0)
(0.152465 0.0159983 0)
(0.152411 0.0173776 0)
(0.152848 0.0188714 0)
(0.154082 0.0204931 0)
(0.156465 0.0222549 0)
(0.160416 0.0241668 0)
(0.166516 0.0262382 0)
(0.175555 0.0284757 0)
(0.188464 0.030865 0)
(0.206534 0.0333635 0)
(0.230969 0.0358343 0)
(0.261015 0.0379493 0)
(0.276234 0.0393573 0)
(0 0 0)
(0.0280661 0.00107545 0)
(0.0529838 0.00206509 0)
(0.0741113 0.00296565 0)
(0.0919063 0.0038068 0)
(0.106803 0.00461208 0)
(0.119181 0.00539996 0)
(0.129366 0.00618493 0)
(0.137645 0.00697859 0)
(0.144276 0.00779109 0)
(0.149501 0.00863236 0)
(0.153536 0.00951094 0)
(0.156579 0.0104345 0)
(0.158827 0.0114123 0)
(0.160466 0.0124513 0)
(0.161681 0.0135595 0)
(0.162657 0.0147457 0)
(0.163599 0.0160185 0)
(0.164737 0.0173889 0)
(0.166312 0.0188678 0)
(0.168612 0.020466 0)
(0.171972 0.0221952 0)
(0.176809 0.0240664 0)
(0.183632 0.0260881 0)
(0.193098 0.0282662 0)
(0.2061 0.0305973 0)
(0.223663 0.0330486 0)
(0.247108 0.0355453 0)
(0.277189 0.0378923 0)
(0.312334 0.039741 0)
(0.330512 0.0409466 0)
(0 0 0)
(0.0284875 0.00116693 0)
(0.0538103 0.00224053 0)
(0.0753329 0.00321704 0)
(0.0935274 0.00412838 0)
(0.108841 0.00499987 0)
(0.121664 0.00585166 0)
(0.13233 0.00669929 0)
(0.141131 0.00755493 0)
(0.148335 0.0084297 0)
(0.154193 0.00933422 0)
(0.158927 0.0102772 0)
(0.162748 0.0112671 0)
(0.165858 0.0123126 0)
(0.168448 0.0134205 0)
(0.17073 0.0145999 0)
(0.172908 0.0158597 0)
(0.175201 0.0172086 0)
(0.177864 0.0186578 0)
(0.181173 0.0202173 0)
(0.185451 0.021897 0)
(0.191075 0.023707 0)
(0.198537 0.0256572 0)
(0.208434 0.0277533 0)
(0.221519 0.0299949 0)
(0.238716 0.0323641 0)
(0.261186 0.0348132 0)
(0.290074 0.0372324 0)
(0.32561 0.0393876 0)
(0.365416 0.0409299 0)
(0.386411 0.0419152 0)
(0 0 0)
(0.028935 0.00125384 0)
(0.0546879 0.00240714 0)
(0.0766302 0.00345565 0)
(0.0952482 0.00443331 0)
(0.111006 0.00536743 0)
(0.124305 0.00627955 0)
(0.135483 0.00718577 0)
(0.144838 0.00809905 0)
(0.152655 0.00903175 0)
(0.159183 0.00999412 0)
(0.164651 0.0109947 0)
(0.169283 0.0120427 0)
(0.173292 0.0131463 0)
(0.176887 0.0143134 0)
(0.180289 0.015553 0)
(0.183731 0.016874 0)
(0.187441 0.0182843 0)
(0.191695 0.0197937 0)
(0.196817 0.0214124 0)
(0.20316 0.0231482 0)
(0.211155 0.0250098 0)
(0.221357 0.0270044 0)
(0.234451 0.0291324 0)
(0.251267 0.0313846 0)
(0.272808 0.0337326 0)
(0.300278 0.0361139 0)
(0.33447 0.0383914 0)
(0.375122 0.0403222 0)
(0.419084 0.0415462 0)
(0.443176 0.0425436 0)
(0 0 0)
(0.0294063 0.0013361 0)
(0.0556125 0.00256479 0)
(0.0779974 0.00368129 0)
(0.0970646 0.00472157 0)
(0.113294 0.0057149 0)
(0.127094 0.00668346 0)
(0.138807 0.0076437 0)
(0.148744 0.00860984 0)
(0.157196 0.00959453 0)
(0.164416 0.0106077 0)
(0.170645 0.0116584 0)
(0.176119 0.0127561 0)
(0.181064 0.0139095 0)
(0.185707 0.0151265 0)
(0.190272 0.0164147 0)
(0.195005 0.0177822 0)
(0.20017 0.0192364 0)
(0.206065 0.0207869 0)
(0.213042 0.0224419 0)
(0.221497 0.0242062 0)
(0.231917 0.0260862 0)
(0.244896 0.028084 0)
(0.26119 0.0301935 0)
(0.281711 0.032396 0)
(0.307551 0.034653 0)
(0.339763 0.0368859 0)
(0.378841 0.0389486 0)
(0.424086 0.0406138 0)
(0.47174 0.0414471 0)
(0.50068 0.0430553 0)
(0 0 0)
(0.0298987 0.00141364 0)
(0.056579 0.00271333 0)
(0.0794273 0.00389373 0)
(0.0989663 0.00499273 0)
(0.115687 0.00604096 0)
(0.130003 0.00706108 0)
(0.142267 0.0080703 0)
(0.152805 0.00908389 0)
(0.161909 0.0101143 0)
(0.169843 0.0111717 0)
(0.176861 0.0122661 0)
(0.18321 0.0134066 0)
(0.189117 0.0146008 0)
(0.194819 0.0158559 0)
(0.200562 0.0171793 0)
(0.206606 0.0185783 0)
(0.213243 0.0200595 0)
(0.220791 0.0216306 0)
(0.229625 0.0232968 0)
(0.240178 0.0250596 0)
(0.252983 0.0269207 0)
(0.268683 0.0288756 0)
(0.28805 0.0309088 0)
(0.312064 0.0329892 0)
(0.341779 0.03506 0)
(0.378021 0.0370204 0)
(0.421104 0.0387111 0)
(0.469906 0.0399044 0)
(0.520593 0.0399759 0)
(0.558836 0.0434255 0)
(0 0 0)
(0.0304118 0.00148664 0)
(0.0575871 0.00285315 0)
(0.0809185 0.00409348 0)
(0.100947 0.00524715 0)
(0.118178 0.00634594 0)
(0.133029 0.0074132 0)
(0.145868 0.00846712 0)
(0.157032 0.00952359 0)
(0.166814 0.0105947 0)
(0.17549 0.011691 0)
(0.183321 0.0128223 0)
(0.190557 0.0139967 0)
(0.197441 0.0152215 0)
(0.204218 0.0165035 0)
(0.211153 0.0178496 0)
(0.218522 0.0192653 0)
(0.226629 0.0207553 0)
(0.235816 0.0223248 0)
(0.246472 0.0239752 0)
(0.259054 0.0257038 0)
(0.274139 0.0275055 0)
(0.292375 0.0293655 0)
(0.314539 0.0312551 0)
(0.34156 0.0331224 0)
(0.374273 0.034875 0)
(0.413267 0.0363555 0)
(0.458486 0.0372864 0)
(0.508 0.0371523 0)
(0.557205 0.0346522 0)
(0.617241 0.0435393 0)
(0 0 0)
(0.0165435 0 0)
(0.0376451 0 0)
(0.0763975 0 0)
(0.131274 0 0)
(0.193321 0 0)
(0.251348 0 0)
(0.299148 0 0)
(0.335983 0 0)
(0.363316 0 0)
(0.382915 0 0)
(0.396278 0 0)
(0.404527 0 0)
(0.408446 0 0)
(0.408581 0 0)
(0.405319 0 0)
(0.398927 0 0)
(0.38957 0 0)
(0.377329 0 0)
(0.362231 0 0)
(0.344282 0 0)
(0.323464 0 0)
(0.299742 0 0)
(0.273073 0 0)
(0.243403 0 0)
(0.21068 0 0)
(0.174848 0 0)
(0.135853 0 0)
(0.0936536 0 0)
(0.0481452 0 0)
(0 0 0)
(0.00510921 -0.00602713 0)
(0.0208332 -0.00600455 0)
(0.0427767 -0.00663146 0)
(0.082074 -0.00707332 0)
(0.13694 -0.00725236 0)
(0.198373 -0.0071114 0)
(0.255511 -0.0066895 0)
(0.30249 -0.00613418 0)
(0.338647 -0.0055529 0)
(0.365435 -0.00498805 0)
(0.384606 -0.00446034 0)
(0.397641 -0.0039796 0)
(0.405633 -0.00355026 0)
(0.409345 -0.00316213 0)
(0.409316 -0.00280787 0)
(0.405929 -0.00249052 0)
(0.399438 -0.00220443 0)
(0.390001 -0.00194722 0)
(0.377693 -0.00171917 0)
(0.362541 -0.00151555 0)
(0.344548 -0.00133257 0)
(0.323693 -0.00116683 0)
(0.299939 -0.00101526 0)
(0.273242 -0.000874999 0)
(0.243549 -0.000743413 0)
(0.210803 -0.000618001 0)
(0.17495 -0.000496351 0)
(0.135935 -0.000376079 0)
(0.0937134 -0.000254778 0)
(0.0481784 -0.000129712 0)
(0 0 0)
(0.0171888 -0.0116768 0)
(0.0334149 -0.0118083 0)
(0.0578442 -0.0129688 0)
(0.0988548 -0.0137236 0)
(0.153774 -0.0139569 0)
(0.213397 -0.0135948 0)
(0.267898 -0.0127659 0)
(0.312388 -0.0117193 0)
(0.346485 -0.0106248 0)
(0.371641 -0.0095627 0)
(0.389553 -0.0085719 0)
(0.401617 -0.00766902 0)
(0.40884 -0.00685202 0)
(0.411943 -0.00610937 0)
(0.41144 -0.00543606 0)
(0.407684 -0.00482881 0)
(0.400903 -0.00428148 0)
(0.391231 -0.00379123 0)
(0.37873 -0.00335371 0)
(0.363422 -0.00296152 0)
(0.3453 -0.00260791 0)
(0.324336 -0.00228667 0)
(0.300491 -0.00199206 0)
(0.273715 -0.00171872 0)
(0.243951 -0.00146165 0)
(0.211143 -0.00121609 0)
(0.17523 -0.000977408 0)
(0.136155 -0.000741019 0)
(0.0938718 -0.000502254 0)
(0.0482644 -0.000255796 0)
(0 0 0)
(0.0364391 -0.0169289 0)
(0.0536074 -0.0172399 0)
(0.0816752 -0.018788 0)
(0.125018 -0.0197128 0)
(0.179642 -0.0198503 0)
(0.236411 -0.0192006 0)
(0.286993 -0.0179988 0)
(0.327724 -0.0165406 0)
(0.358672 -0.0150263 0)
(0.38134 -0.0135616 0)
(0.397318 -0.0121955 0)
(0.407854 -0.0109414 0)
(0.413866 -0.00979549 0)
(0.416023 -0.00875235 0)
(0.41478 -0.00780564 0)
(0.410444 -0.00694898 0)
(0.403204 -0.00617763 0)
(0.393161 -0.00548548 0)
(0.380359 -0.0048642 0)
(0.364803 -0.0043047 0)
(0.346475 -0.00379812 0)
(0.325339 -0.00333613 0)
(0.301348 -0.00291085 0)
(0.274446 -0.00251494 0)
(0.244572 -0.00214139 0)
(0.211663 -0.00178352 0)
(0.175657 -0.00143476 0)
(0.136489 -0.00108857 0)
(0.0941088 -0.000738254 0)
(0.0483913 -0.000376138 0)
(0 0 0)
(0.0624823 -0.0218396 0)
(0.0808325 -0.022251 0)
(0.113088 -0.0239901 0)
(0.158755 -0.0249213 0)
(0.212443 -0.0248574 0)
(0.265469 -0.0239032 0)
(0.311171 -0.0223703 0)
(0.347234 -0.0205764 0)
(0.374279 -0.0187355 0)
(0.393841 -0.0169617 0)
(0.407344 -0.0153006 0)
(0.41591 -0.0137639 0)
(0.420379 -0.0123543 0)
(0.421325 -0.0110672 0)
(0.419133 -0.0098956 0)
(0.41405 -0.00883459 0)
(0.406214 -0.00787733 0)
(0.395687 -0.0070146 0)
(0.382489 -0.00623635 0)
(0.366607 -0.00553213 0)
(0.348009 -0.00489163 0)
(0.326646 -0.00430495 0)
(0.302462 -0.00376269 0)
(0.275393 -0.00325589 0)
(0.245373 -0.00277601 0)
(0.212332 -0.00231474 0)
(0.176202 -0.00186392 0)
(0.136913 -0.00141529 0)
(0.0944063 -0.000960404 0)
(0.0485489 -0.000489512 0)
(0 0 0)
(0.0948104 -0.0263646 0)
(0.114505 -0.0268246 0)
(0.15094 -0.0285511 0)
(0.198417 -0.0293192 0)
(0.250307 -0.0289766 0)
(0.298721 -0.0277169 0)
(0.338815 -0.0258963 0)
(0.369646 -0.0238402 0)
(0.392322 -0.0217587 0)
(0.408337 -0.019757 0)
(0.418987 -0.0178746 0)
(0.425302 -0.0161262 0)
(0.428004 -0.0145167 0)
(0.42756 -0.0130418 0)
(0.424278 -0.0116969 0)
(0.418327 -0.0104759 0)
(0.40979 -0.00936969 0)
(0.398693 -0.00836811 0)
(0.385025 -0.00746011 0)
(0.368754 -0.0066344 0)
(0.349831 -0.00587975 0)
(0.328195 -0.00518528 0)
(0.303779 -0.00454052 0)
(0.27651 -0.00393538 0)
(0.246314 -0.00336012 0)
(0.213115 -0.00280521 0)
(0.176836 -0.00226115 0)
(0.137403 -0.00171829 0)
(0.0947476 -0.00116673 0)
(0.0487283 -0.000594893 0)
(0 0 0)
(0.132931 -0.0305532 0)
(0.15397 -0.0309126 0)
(0.194122 -0.0324482 0)
(0.242494 -0.0329212 0)
(0.2915 -0.0322431 0)
(0.334459 -0.0306822 0)
(0.368455 -0.0286188 0)
(0.393749 -0.0263671 0)
(0.411768 -0.0241168 0)
(0.423975 -0.0219576 0)
(0.431601 -0.0199256 0)
(0.435535 -0.0180331 0)
(0.43636 -0.016284 0)
(0.434443 -0.0146772 0)
(0.429989 -0.0132079 0)
(0.423094 -0.0118685 0)
(0.413786 -0.0106495 0)
(0.402055 -0.00954023 0)
(0.387863 -0.00852942 0)
(0.371157 -0.0076054 0)
(0.351868 -0.00675658 0)
(0.329924 -0.00597154 0)
(0.305246 -0.0052392 0)
(0.277751 -0.00454875 0)
(0.247356 -0.00388963 0)
(0.213978 -0.00325138 0)
(0.177533 -0.00262352 0)
(0.137937 -0.00199531 0)
(0.0951175 -0.00135563 0)
(0.0489213 -0.000691461 0)
(0 0 0)
(0.176426 -0.034275 0)
(0.19847 -0.0344336 0)
(0.241479 -0.0356438 0)
(0.289506 -0.0357373 0)
(0.334405 -0.0346956 0)
(0.371154 -0.0328487 0)
(0.398747 -0.030588 0)
(0.418352 -0.0281997 0)
(0.431604 -0.0258434 0)
(0.439978 -0.0235925 0)
(0.444585 -0.0214755 0)
(0.446149 -0.0195002 0)
(0.445107 -0.0176691 0)
(0.441704 -0.0159818 0)
(0.436049 -0.0144326 0)
(0.428171 -0.0130139 0)
(0.418054 -0.0117163 0)
(0.405653 -0.0105294 0)
(0.390903 -0.00944178 0)
(0.37373 -0.00844212 0)
(0.354049 -0.0075188 0)
(0.331772 -0.00666033 0)
(0.30681 -0.00585538 0)
(0.27907 -0.00509283 0)
(0.248461 -0.00436162 0)
(0.214889 -0.0036507 0)
(0.178264 -0.00294889 0)
(0.138496 -0.00224464 0)
(0.0955016 -0.00152594 0)
(0.0491207 -0.000778592 0)
(0 0 0)
(0.224549 -0.0373471 0)
(0.247133 -0.0373067 0)
(0.291848 -0.0381175 0)
(0.338025 -0.0377904 0)
(0.377513 -0.0363764 0)
(0.40741 -0.0342671 0)
(0.428425 -0.0318541 0)
(0.442348 -0.0293854 0)
(0.450972 -0.0269845 0)
(0.455699 -0.0247028 0)
(0.457453 -0.0225574 0)
(0.456774 -0.0205532 0)
(0.453946 -0.0186909 0)
(0.449094 -0.0169684 0)
(0.44225 -0.01538 0)
(0.433388 -0.0139182 0)
(0.422454 -0.012574 0)
(0.409369 -0.0113375 0)
(0.394046 -0.0101979 0)
(0.37639 -0.00914423 0)
(0.356301 -0.0081654 0)
(0.333678 -0.00725018 0)
(0.30842 -0.00638738 0)
(0.280424 -0.00556584 0)
(0.249591 -0.00477435 0)
(0.215818 -0.00400154 0)
(0.179006 -0.00323582 0)
(0.139059 -0.00246512 0)
(0.0958869 -0.00167681 0)
(0.0493197 -0.000855853 0)
(0 0 0)
(0.276252 -0.0396871 0)
(0.299029 -0.0395042 0)
(0.344082 -0.0398907 0)
(0.386614 -0.0391154 0)
(0.419384 -0.0373266 0)
(0.441944 -0.0349865 0)
(0.456355 -0.0324714 0)
(0.464845 -0.0299794 0)
(0.469216 -0.0275902 0)
(0.470652 -0.0253301 0)