/*--------------------------------*- C++ -*----------------------------------*\
| =========                 |                                                 |
| \\      /  F ield         | OpenFOAM: The Open Source CFD Toolbox           |
|  \\    /   O peration     | Version:  5.x                                   |
|   \\  /    A nd           | Web:      www.OpenFOAM.org                      |
|    \\/     M anipulation  |                                                 |
\*---------------------------------------------------------------------------*/
FoamFile
{
    version     2.0;
    format      ascii;
    class       surfaceScalarField;
    location    "0.4";
    object      phi;
}
// * * * * * * * * * * * * * * * * * * * * * * * * * * * * * * * * * * * * * //

dimensions      [1 0 -1 0 0 0 0];

internalField   nonuniform List<scalar> 
23692
(
9.30407e-05
3.88764e-08
9.29326e-05
1.08041e-07
9.27581e-05
1.74508e-07
9.25511e-05
2.07109e-07
9.23475e-05
2.03584e-07
9.21666e-05
1.80864e-07
9.201e-05
1.56667e-07
9.18699e-05
1.4016e-07
9.17375e-05
1.3249e-07
9.16065e-05
1.31031e-07
9.14739e-05
1.32713e-07
9.13386e-05
1.35423e-07
9.12006e-05
1.38091e-07
9.10605e-05
1.40349e-07
9.09185e-05
1.42175e-07
9.07751e-05
1.43663e-07
9.06306e-05
1.44912e-07
9.0485e-05
1.46001e-07
9.03384e-05
1.46978e-07
9.01911e-05
1.47864e-07
9.00431e-05
1.48667e-07
8.98945e-05
1.49374e-07
8.97454e-05
1.49972e-07
8.9596e-05
1.50433e-07
8.94464e-05
1.50735e-07
8.92969e-05
1.50851e-07
8.91476e-05
1.50762e-07
8.89988e-05
1.50448e-07
8.88508e-05
1.49901e-07
8.87037e-05
1.49114e-07
8.85579e-05
1.48092e-07
8.84136e-05
1.46845e-07
8.8271e-05
1.45393e-07
8.81303e-05
1.43757e-07
8.79916e-05
1.41973e-07
8.78551e-05
1.40073e-07
8.77209e-05
1.38098e-07
8.75889e-05
1.36091e-07
8.74593e-05
1.34092e-07
8.73318e-05
1.32151e-07
8.72066e-05
1.30311e-07
8.70833e-05
1.2862e-07
8.69618e-05
1.2712e-07
8.68419e-05
1.25861e-07
8.67232e-05
1.24887e-07
8.66055e-05
1.24243e-07
8.64884e-05
1.23976e-07
8.63714e-05
1.24136e-07
8.6254e-05
1.24772e-07
8.61358e-05
1.25943e-07
8.60161e-05
1.2771e-07
8.58941e-05
1.30144e-07
8.57693e-05
1.33328e-07
8.56407e-05
1.37361e-07
8.55073e-05
1.42361e-07
8.5368e-05
1.4847e-07
8.52215e-05
1.55861e-07
8.50664e-05
1.64748e-07
8.49008e-05
1.75394e-07
8.47226e-05
1.88121e-07
8.45294e-05
2.03335e-07
8.43181e-05
2.21541e-07
8.40852e-05
2.43377e-07
8.38261e-05
2.69659e-07
8.35353e-05
3.01436e-07
8.3206e-05
3.40072e-07
8.28294e-05
3.87371e-07
8.23946e-05
4.45747e-07
8.18872e-05
5.1848e-07
8.12881e-05
6.10112e-07
8.05722e-05
7.27031e-07
7.97049e-05
8.784e-07
7.86385e-05
1.07759e-06
7.73051e-05
1.34451e-06
7.5607e-05
1.70927e-06
7.34e-05
2.21817e-06
7.04683e-05
2.9429e-06
6.64835e-05
3.99588e-06
6.09286e-05
5.566e-06
5.29338e-05
8.00591e-06
1.2251e-05
4.06937e-05
9.95597e-05
7.85419e-08
9.94463e-05
2.21461e-07
9.92618e-05
3.58946e-07
9.9042e-05
4.26942e-07
9.88251e-05
4.20493e-07
9.86318e-05
3.74208e-07
9.84639e-05
3.24578e-07
9.83136e-05
2.90565e-07
9.81715e-05
2.74642e-07
9.80311e-05
2.7148e-07
9.78891e-05
2.7481e-07
9.77444e-05
2.8028e-07
9.7597e-05
2.85698e-07
9.74472e-05
2.90299e-07
9.72956e-05
2.94027e-07
9.71425e-05
2.97066e-07
9.69881e-05
2.99625e-07
9.68327e-05
3.0186e-07
9.66763e-05
3.03867e-07
9.65191e-05
3.05693e-07
9.63611e-05
3.07341e-07
9.62025e-05
3.088e-07
9.60434e-05
3.10031e-07
9.58839e-05
3.10986e-07
9.57242e-05
3.11616e-07
9.55646e-05
3.11865e-07
9.54053e-05
3.11693e-07
9.52465e-05
3.11062e-07
9.50884e-05
3.09951e-07
9.49314e-05
3.0835e-07
9.47757e-05
3.06267e-07
9.46215e-05
3.03726e-07
9.44691e-05
3.00761e-07
9.43187e-05
2.97427e-07
9.41704e-05
2.93786e-07
9.40244e-05
2.89911e-07
9.38807e-05
2.85882e-07
9.37394e-05
2.81785e-07
9.36006e-05
2.77715e-07
9.3464e-05
2.73761e-07
9.33297e-05
2.70019e-07
9.31974e-05
2.66582e-07
9.3067e-05
2.63545e-07
9.29382e-05
2.61003e-07
9.28108e-05
2.59048e-07
9.26842e-05
2.57775e-07
9.25582e-05
2.57282e-07
9.24323e-05
2.57665e-07
9.2306e-05
2.59032e-07
9.21787e-05
2.61498e-07
9.20497e-05
2.65189e-07
9.19184e-05
2.70253e-07
9.1784e-05
2.76857e-07
9.16455e-05
2.85204e-07
9.15019e-05
2.95531e-07
9.13521e-05
3.08129e-07
9.11946e-05
3.23351e-07
9.1028e-05
3.41625e-07
9.08504e-05
3.63484e-07
9.06596e-05
3.89578e-07
9.0453e-05
4.2072e-07
9.02276e-05
4.5792e-07
8.99797e-05
5.02454e-07
8.97047e-05
5.55936e-07
8.93971e-05
6.20433e-07
8.90501e-05
6.9862e-07
8.86551e-05
7.94001e-07
8.82013e-05
9.11221e-07
8.7675e-05
1.05652e-06
8.70585e-05
1.23843e-06
8.63287e-05
1.46872e-06
8.54551e-05
1.76391e-06
8.43971e-05
2.1475e-06
8.31004e-05
2.65318e-06
8.14921e-05
3.32955e-06
7.94759e-05
4.24633e-06
7.69297e-05
5.50104e-06
7.37148e-05
7.2226e-06
6.97244e-05
9.56826e-06
6.5087e-05
1.26552e-05
1.60748e-05
6.12749e-05
0.000106536
1.18004e-07
0.00010642
3.37932e-07
0.000106229
5.50318e-07
0.000105998
6.57269e-07
0.000105769
6.49912e-07
0.000105563
5.80537e-07
0.000105382
5.04993e-07
0.00010522
4.52679e-07
0.000105067
4.27788e-07
0.000104916
4.22421e-07
0.000104764
4.27091e-07
0.000104609
4.35169e-07
0.000104452
4.43269e-07
0.000104292
4.50198e-07
0.000104131
4.55839e-07
0.000103968
4.60454e-07
0.000103803
4.64353e-07
0.000103638
4.6777e-07
0.000103471
4.7084e-07
0.000103304
4.73634e-07
0.000103136
4.76167e-07
0.000102967
4.78409e-07
0.000102798
4.80304e-07
0.000102628
4.81783e-07
0.000102458
4.8276e-07
0.000102289
4.83163e-07
0.000102119
4.8292e-07
0.00010195
4.8198e-07
0.000101782
4.80308e-07
0.000101615
4.77892e-07
0.000101449
4.74741e-07
0.000101285
4.70891e-07
0.000101122
4.664e-07
0.000100962
4.61346e-07
0.000100803
4.55826e-07
0.000100647
4.49951e-07
0.000100494
4.43849e-07
0.000100343
4.37649e-07
0.000100194
4.31493e-07
0.000100048
4.25522e-07
9.99036e-05
4.1988e-07
9.97615e-05
4.14714e-07
9.96214e-05
4.10167e-07
9.94828e-05
4.06383e-07
9.93455e-05
4.03507e-07
9.92091e-05
4.01685e-07
9.90731e-05
4.01062e-07
9.89371e-05
4.01792e-07
9.88006e-05
4.04035e-07
9.86629e-05
4.07968e-07
9.85235e-05
4.13784e-07
9.83814e-05
4.21707e-07
9.8236e-05
4.31992e-07
9.80862e-05
4.44944e-07
9.79311e-05
4.60924e-07
9.77693e-05
4.80369e-07
9.75996e-05
5.03808e-07
9.74204e-05
5.31887e-07
9.72296e-05
5.65394e-07
9.70253e-05
6.05302e-07
9.68048e-05
6.52809e-07
9.65651e-05
7.09406e-07
9.63025e-05
7.76952e-07
9.60127e-05
8.5779e-07
9.56904e-05
9.54891e-07
9.53293e-05
1.07206e-06
9.49215e-05
1.21422e-06
9.44574e-05
1.38779e-06
9.39253e-05
1.60126e-06
9.33104e-05
1.86595e-06
9.25947e-05
2.19711e-06
9.1756e-05
2.61542e-06
9.07672e-05
3.14907e-06
8.95968e-05
3.83637e-06
8.82104e-05
4.72873e-06
8.65766e-05
5.89285e-06
8.46816e-05
7.40885e-06
8.256e-05
9.35684e-06
8.03649e-05
1.17761e-05
7.84947e-05
1.4538e-05
1.69967e-05
7.75853e-05
0.000114003
1.56116e-07
0.000113886
4.54344e-07
0.000113692
7.44749e-07
0.000113454
8.95021e-07
0.000113214
8.90517e-07
0.000112994
8.00175e-07
0.0001128
6.99238e-07
0.000112624
6.2814e-07
0.000112459
5.93424e-07
0.000112296
5.85028e-07
0.000112133
5.90414e-07
0.000111968
6.0068e-07
0.0001118
6.11215e-07
0.00011163
6.20329e-07
0.000111458
6.27809e-07
0.000111285
6.3397e-07
0.000111111
6.39198e-07
0.000110935
6.43792e-07
0.000110759
6.47936e-07
0.000110581
6.51715e-07
0.000110403
6.55143e-07
0.000110224
6.58183e-07
0.000110045
6.60758e-07
0.000109865
6.62771e-07
0.000109685
6.64117e-07
0.000109505
6.64688e-07
0.000109326
6.64394e-07
0.000109147
6.63165e-07
0.000108968
6.60953e-07
0.000108791
6.5774e-07
0.000108615
6.53545e-07
0.00010844
6.48412e-07
0.000108268
6.42421e-07
0.000108097
6.35678e-07
0.000107929
6.28313e-07
0.000107763
6.20479e-07
0.000107599
6.12346e-07
0.000107437
6.0409e-07
0.000107278
5.95904e-07
0.000107122
5.87979e-07
0.000106967
5.80511e-07
0.000106815
5.73697e-07
0.000106664
5.67734e-07
0.000106515
5.62816e-07
0.000106367
5.5914e-07
0.00010622
5.56901e-07
0.000106073
5.56299e-07
0.000105926
5.57541e-07
0.000105778
5.60843e-07
0.000105629
5.66443e-07
0.000105478
5.74602e-07
0.000105324
5.85617e-07
0.000105167
5.9983e-07
0.000105005
6.17647e-07
0.000104837
6.39548e-07
0.000104662
6.66109e-07
0.00010448
6.98029e-07
0.000104287
7.3615e-07
0.000104083
7.81503e-07
0.000103865
8.35345e-07
0.000103631
8.99219e-07
0.000103378
9.75023e-07
0.000103103
1.06511e-06
0.000102801
1.17241e-06
0.000102468
1.30059e-06
0.000102099
1.45428e-06
0.000101687
1.63936e-06
0.000101225
1.86334e-06
0.000100704
2.13591e-06
0.000100114
2.4696e-06
9.94438e-05
2.8807e-06
9.86825e-05
3.39033e-06
9.78194e-05
4.02576e-06
9.6848e-05
4.82149e-06
9.57707e-05
5.81967e-06
9.46092e-05
7.06799e-06
9.34201e-05
8.61165e-06
9.23177e-05
1.04728e-05
9.15008e-05
1.26065e-05
9.12391e-05
1.48133e-05
1.65995e-05
9.16498e-05
0.000121994
1.91543e-07
0.000121881
5.67191e-07
0.000121688
9.3772e-07
0.000121446
1.13643e-06
0.000121196
1.14045e-06
0.000120964
1.03316e-06
0.000120754
9.08548e-07
0.000120564
8.18608e-07
0.000120384
7.73114e-07
0.000120209
7.6054e-07
0.000120034
7.65658e-07
0.000119857
7.77399e-07
0.000119679
7.89896e-07
0.000119498
8.00905e-07
0.000119316
8.1005e-07
0.000119133
8.17649e-07
0.000118949
8.24144e-07
0.000118763
8.29878e-07
0.000118576
8.35066e-07
0.000118389
8.39809e-07
0.000118201
8.44119e-07
0.000118012
8.47949e-07
0.000117823
8.51198e-07
0.000117633
8.5375e-07
0.000117443
8.55466e-07
0.000117254
8.56218e-07
0.000117064
8.55893e-07
0.000116875
8.544e-07
0.000116687
8.51683e-07
0.000116499
8.47722e-07
0.000116313
8.42535e-07
0.000116129
8.36186e-07
0.000115946
8.28768e-07
0.000115765
8.20419e-07
0.000115587
8.11303e-07
0.00011541
8.01611e-07
0.000115236
7.91555e-07
0.000115064
7.81364e-07
0.000114895
7.71273e-07
0.000114727
7.61528e-07
0.000114562
7.52375e-07
0.000114399
7.44063e-07
0.000114237
7.36839e-07
0.000114076
7.30952e-07
0.000113917
7.26646e-07
0.000113758
7.24171e-07
0.0001136
7.23775e-07
0.000113441
7.25721e-07
0.000113281
7.30279e-07
0.00011312
7.37745e-07
0.000112956
7.48446e-07
0.00011279
7.6275e-07
0.00011262
7.81082e-07
0.000112445
8.03938e-07
0.000112264
8.31908e-07
0.000112077
8.65694e-07
0.000111881
9.06139e-07
0.000111675
9.54261e-07
0.000111458
1.01129e-06
0.000111228
1.07871e-06
0.000110982
1.15835e-06
0.000110718
1.25239e-06
0.000110433
1.36355e-06
0.000110124
1.49512e-06
0.000109788
1.65119e-06
0.000109419
1.8368e-06
0.000109015
2.0582e-06
0.000108569
2.32317e-06
0.000108078
2.64143e-06
0.000107537
3.02506e-06
0.000106943
3.48905e-06
0.000106296
4.05181e-06
0.000105601
4.73546e-06
0.000104871
5.56556e-06
0.000104136
6.56958e-06
0.000103446
7.77261e-06
0.000102884
9.18793e-06
0.000102573
1.07992e-05
0.000102663
1.25305e-05
0.000103287
1.42041e-05
1.55035e-05
0.000104397
0.000130545
2.22976e-07
0.000130439
6.72921e-07
0.000130253
1.12449e-06
0.000130012
1.37733e-06
0.000129755
1.39734e-06
0.000129509
1.27907e-06
0.000129284
1.13384e-06
0.000129077
1.02555e-06
0.000128882
9.68319e-07
0.000128692
9.50137e-07
0.000128504
9.53663e-07
0.000128316
9.65864e-07
0.000128127
9.79621e-07
0.000127936
9.92069e-07
0.000127743
1.00259e-06
0.00012755
1.01144e-06
0.000127356
1.01907e-06
0.00012716
1.02586e-06
0.000126964
1.03202e-06
0.000126767
1.03767e-06
0.000126569
1.04282e-06
0.000126371
1.0474e-06
0.000126172
1.0513e-06
0.000125972
1.05437e-06
0.000125773
1.05645e-06
0.000125574
1.05738e-06
0.000125375
1.05704e-06
0.000125176
1.05532e-06
0.000124978
1.05215e-06
0.000124781
1.04751e-06
0.000124586
1.04142e-06
0.000124391
1.03396e-06
0.000124199
1.02524e-06
0.000124008
1.01542e-06
0.000123819
1.0047e-06
0.000123632
9.9332e-07
0.000123448
9.81521e-07
0.000123265
9.69579e-07
0.000123085
9.57781e-07
0.000122907
9.46417e-07
0.00012273
9.35786e-07
0.000122556
9.26186e-07
0.000122383
9.17915e-07
0.00012221
9.11269e-07
0.000122039
9.06546e-07
0.000121869
9.04039e-07
0.000121698
9.04053e-07
0.000121527
9.06895e-07
0.000121354
9.12891e-07
0.00012118
9.22391e-07
0.000121004
9.35779e-07
0.000120825
9.53489e-07
0.000120642
9.76015e-07
0.000120454
1.00393e-06
0.00012026
1.03793e-06
0.00012006
1.0788e-06
0.000119852
1.12751e-06
0.000119634
1.1852e-06
0.000119406
1.25325e-06
0.000119165
1.33329e-06
0.00011891
1.42732e-06
0.000118639
1.5377e-06
0.00011835
1.66728e-06
0.000118041
1.8195e-06
0.000117708
1.99851e-06
0.000117351
2.2093e-06
0.000116966
2.45789e-06
0.000116553
2.7515e-06
0.000116111
3.0988e-06
0.000115641
3.51005e-06
0.000115149
3.99726e-06
0.000114642
4.57412e-06
0.000114137
5.25561e-06
0.000113661
6.05691e-06
0.000113256
6.99106e-06
0.000112979
8.06463e-06
0.000112912
9.2702e-06
0.000113152
1.05747e-05
0.000113794
1.19042e-05
0.000114886
1.31283e-05
1.40601e-05
0.000116344
0.000139696
2.49337e-07
0.000139601
7.6843e-07
0.000139425
1.30065e-06
0.000139189
1.61352e-06
0.000138928
1.65846e-06
0.00013867
1.53695e-06
0.000138428
1.37547e-06
0.000138204
1.24999e-06
0.000137992
1.18019e-06
0.000137787
1.15481e-06
0.000137586
1.15514e-06
0.000137386
1.16652e-06
0.000137185
1.18062e-06
0.000136983
1.19389e-06
0.000136781
1.20537e-06
0.000136577
1.2152e-06
0.000136373
1.22378e-06
0.000136168
1.23147e-06
0.000135962
1.2385e-06
0.000135756
1.24497e-06
0.000135549
1.25088e-06
0.000135341
1.25614e-06
0.000135133
1.26063e-06
0.000134925
1.26418e-06
0.000134716
1.2666e-06
0.000134508
1.26772e-06
0.0001343
1.26738e-06
0.000134092
1.26547e-06
0.000133885
1.26191e-06
0.000133679
1.25668e-06
0.000133474
1.2498e-06
0.000133271
1.24137e-06
0.000133068
1.23152e-06
0.000132868
1.22042e-06
0.000132669
1.20832e-06
0.000132472
1.19547e-06
0.000132277
1.18217e-06
0.000132084
1.16873e-06
0.000131893
1.15549e-06
0.000131704
1.14277e-06
0.000131516
1.13092e-06
0.00013133
1.12029e-06
0.000131145
1.11123e-06
0.000130961
1.10407e-06
0.000130778
1.09916e-06
0.000130595
1.09684e-06
0.000130412
1.09746e-06
0.000130228
1.10137e-06
0.000130043
1.10893e-06
0.000129856
1.12056e-06
0.000129667
1.13668e-06
0.000129475
1.15778e-06
0.000129279
1.18441e-06
0.000129079
1.21721e-06
0.000128873
1.25691e-06
0.000128661
1.3044e-06
0.000128442
1.36071e-06
0.000128214
1.42705e-06
0.000127977
1.50487e-06
0.00012773
1.59587e-06
0.00012747
1.70206e-06
0.000127197
1.82583e-06
0.00012691
1.96998e-06
0.000126607
2.13781e-06
0.000126288
2.33317e-06
0.000125953
2.56057e-06
0.000125602
2.82525e-06
0.000125236
3.13323e-06
0.00012486
3.49134e-06
0.00012448
3.90717e-06
0.000124104
4.38891e-06
0.00012375
4.94496e-06
0.000123439
5.58318e-06
0.000123203
6.30958e-06
0.000123085
7.1262e-06
0.000123138
8.02784e-06
0.000123428
8.99731e-06
0.000124019
9.9995e-06
0.000124965
1.09753e-05
0.000126271
1.18388e-05
1.24847e-05
0.000127862
0.000149489
2.70009e-07
0.000149406
8.51507e-07
0.000149244
1.46274e-06
0.000149016
1.84129e-06
0.000148754
1.9209e-06
0.000148486
1.80518e-06
0.000148228
1.633e-06
0.000147986
1.49224e-06
0.000147757
1.40937e-06
0.000147537
1.37521e-06
0.000147321
1.37061e-06
0.000147108
1.3797e-06
0.000146896
1.39306e-06
0.000146684
1.40639e-06
0.000146471
1.41831e-06
0.000146258
1.42876e-06
0.000146044
1.43802e-06
0.00014583
1.44642e-06
0.000145615
1.45416e-06
0.0001454
1.46132e-06
0.000145184
1.46787e-06
0.000144967
1.47373e-06
0.000144751
1.47873e-06
0.000144534
1.4827e-06
0.000144317
1.48542e-06
0.0001441
1.48671e-06
0.000143883
1.48639e-06
0.000143667
1.48434e-06
0.000143451
1.48047e-06
0.000143237
1.47476e-06
0.000143023
1.46725e-06
0.00014281
1.45803e-06
0.000142599
1.44725e-06
0.000142389
1.43512e-06
0.00014218
1.4219e-06
0.000141974
1.40787e-06
0.000141769
1.39336e-06
0.000141565
1.37874e-06
0.000141363
1.36435e-06
0.000141163
1.35059e-06
0.000140964
1.33784e-06
0.000140766
1.32648e-06
0.00014057
1.3169e-06
0.000140374
1.30949e-06
0.000140178
1.30463e-06
0.000139982
1.30269e-06
0.000139787
1.30407e-06
0.00013959
1.30915e-06
0.000139393
1.31834e-06
0.000139193
1.33208e-06
0.000138992
1.35084e-06
0.000138787
1.37513e-06
0.00013858
1.40554e-06
0.000138368
1.44275e-06
0.000138151
1.48753e-06
0.00013793
1.54078e-06
0.000137702
1.60354e-06
0.000137467
1.67705e-06
0.000137225
1.76272e-06
0.000136974
1.86223e-06
0.000136715
1.97748e-06
0.000136446
2.1107e-06
0.000136168
2.26442e-06
0.000135881
2.44155e-06
0.000135586
2.64537e-06
0.000135284
2.87956e-06
0.000134978
3.14819e-06
0.000134673
3.45564e-06
0.000134375
3.80656e-06
0.000134094
4.20561e-06
0.000133844
4.65719e-06
0.000133641
5.16491e-06
0.000133511
5.73082e-06
0.000133484
6.35437e-06
0.000133598
7.03081e-06
0.000133894
7.74931e-06
0.000134418
8.49054e-06
0.000135211
9.2244e-06
0.000136295
9.90856e-06
0.000137662
1.04898e-05
1.09103e-05
0.000139254
0.000159967
2.84943e-07
0.000159898
9.21163e-07
0.000159752
1.60868e-06
0.000159535
2.0578e-06
0.000159274
2.18186e-06
0.000158998
2.08161e-06
0.000158726
1.90517e-06
0.000158466
1.75181e-06
0.00015822
1.65583e-06
0.000157984
1.61152e-06
0.000157754
1.60029e-06
0.000157529
1.60557e-06
0.000157305
1.61699e-06
0.000157082
1.62951e-06
0.000156859
1.64127e-06
0.000156637
1.65189e-06
0.000156414
1.66152e-06
0.000156191
1.67039e-06
0.000155967
1.67864e-06
0.000155743
1.68631e-06
0.000155518
1.69338e-06
0.000155294
1.69972e-06
0.000155069
1.70514e-06
0.000154844
1.70946e-06
0.000154619
1.71244e-06
0.000154394
1.71388e-06
0.000154169
1.71359e-06
0.000153945
1.71145e-06
0.000153721
1.70738e-06
0.000153498
1.70133e-06
0.000153276
1.69335e-06
0.000153054
1.68356e-06
0.000152834
1.6721e-06
0.000152615
1.65921e-06
0.000152397
1.64517e-06
0.000152181
1.63029e-06
0.000151966
1.61492e-06
0.000151752
1.59945e-06
0.00015154
1.58428e-06
0.000151329
1.56982e-06
0.000151118
1.55649e-06
0.000150909
1.54471e-06
0.000150701
1.5349e-06
0.000150493
1.52748e-06
0.000150285
1.52287e-06
0.000150077
1.52146e-06
0.000149869
1.52369e-06
0.00014966
1.52996e-06
0.00014945
1.54071e-06
0.000149239
1.55639e-06
0.000149026
1.57749e-06
0.00014881
1.60455e-06
0.000148592
1.63816e-06
0.00014837
1.67899e-06
0.000148145
1.72781e-06
0.000147916
1.7855e-06
0.000147682
1.85307e-06
0.000147444
1.93167e-06
0.0001472
2.02262e-06
0.000146952
2.12743e-06
0.000146699
2.24779e-06
0.000146441
2.38561e-06
0.00014618
2.543e-06
0.000145917
2.72226e-06
0.000145655
2.92591e-06
0.000145396
3.15656e-06
0.000145146
3.41694e-06
0.00014491
3.70971e-06
0.000144698
4.03732e-06
0.00014452
4.40179e-06
0.000144392
4.80431e-06
0.000144331
5.24486e-06
0.000144359
5.72157e-06
0.000144502
6.23001e-06
0.000144789
6.76235e-06
0.000145251
7.30641e-06
0.000145916
7.84483e-06
0.000146804
8.35458e-06
0.000147924
8.80737e-06
0.000149261
9.17153e-06
9.41604e-06
0.000150774
0.000171178
2.94635e-07
0.000171122
9.77694e-07
0.000170993
1.73791e-06
0.000170789
2.26135e-06
0.000170532
2.43885e-06
0.00017025
2.36369e-06
0.000169965
2.18992e-06
0.00016969
2.02732e-06
0.000169427
1.91881e-06
0.000169175
1.86341e-06
0.000168932
1.84407e-06
0.000168694
1.84408e-06
0.000168458
1.85237e-06
0.000168225
1.86317e-06
0.000167993
1.87409e-06
0.000167761
1.8844e-06
0.000167529
1.89402e-06
0.000167297
1.90307e-06
0.000167065
1.9116e-06
0.000166832
1.91961e-06
0.0001666
1.92703e-06
0.000166367
1.93371e-06
0.000166134
1.93946e-06
0.000165902
1.94404e-06
0.000165669
1.94723e-06
0.000165436
1.94882e-06
0.000165204
1.9486e-06
0.000164972
1.94644e-06
0.000164741
1.94225e-06
0.00016451
1.93602e-06
0.000164279
1.92777e-06
0.00016405
1.91763e-06
0.000163821
1.90578e-06
0.000163593
1.89243e-06
0.000163366
1.8779e-06
0.000163141
1.86251e-06
0.000162916
1.84665e-06
0.000162692
1.83071e-06
0.000162469
1.81511e-06
0.000162247
1.8003e-06
0.000162026
1.78671e-06
0.000161805
1.77481e-06
0.000161585
1.76502e-06
0.000161365
1.75779e-06
0.000161146
1.75357e-06
0.000160926
1.75277e-06
0.000160706
1.75583e-06
0.000160486
1.76317e-06
0.000160265
1.77525e-06
0.000160042
1.79251e-06
0.000159819
1.81544e-06
0.000159593
1.84457e-06
0.000159366
1.88047e-06
0.000159137
1.92377e-06
0.000158906
1.9752e-06
0.000158672
2.03555e-06
0.000158436
2.10574e-06
0.000158199
2.18678e-06
0.000157959
2.2798e-06
0.000157718
2.38606e-06
0.000157477
2.50692e-06
0.000157237
2.64387e-06
0.000157001
2.79845e-06
0.000156769
2.97228e-06
0.000156547
3.16699e-06
0.000156339
3.3841e-06
0.000156151
3.62502e-06
0.000155989
3.8908e-06
0.000155864
4.18207e-06
0.000155787
4.49871e-06
0.000155772
4.83967e-06
0.000155834
5.2026e-06
0.000155992
5.58349e-06
0.000156266
5.97631e-06
0.000156676
6.37264e-06
0.000157241
6.76139e-06
0.000157977
7.12875e-06
0.000158893
7.4584e-06
0.000159988
7.73231e-06
0.000161247
7.93225e-06
8.04193e-06
0.000162641
0.000183174
2.99993e-07
0.000183129
1.02245e-06
0.000183016
1.85127e-06
0.000182826
2.45142e-06
0.000182574
2.68998e-06
0.000182289
2.64881e-06
0.000181995
2.48468e-06
0.000181705
2.31674e-06
0.000181427
2.19696e-06
0.000181161
2.13007e-06
0.000180904
2.10149e-06
0.000180653
2.09497e-06
0.000180407
2.099e-06
0.000180163
2.10719e-06
0.000179921
2.11658e-06
0.00017968
2.12605e-06
0.000179439
2.13527e-06
0.000179199
2.14418e-06
0.000178958
2.15274e-06
0.000178718
2.16089e-06
0.000178478
2.16851e-06
0.000178238
2.1754e-06
0.000177998
2.18136e-06
0.000177757
2.18614e-06
0.000177517
2.18951e-06
0.000177277
2.19123e-06
0.000177038
2.19111e-06
0.000176798
2.18901e-06
0.000176559
2.18484e-06
0.000176321
2.17858e-06
0.000176082
2.17027e-06
0.000175845
2.16004e-06
0.000175608
2.14806e-06
0.000175371
2.13458e-06
0.000175136
2.1199e-06
0.000174901
2.10436e-06
0.000174666
2.08835e-06
0.000174433
2.07229e-06
0.000174199
2.05661e-06
0.000173967
2.04177e-06
0.000173735
2.02822e-06
0.000173504
2.01643e-06
0.000173272
2.00685e-06
0.000173042
1.99995e-06
0.000172811
1.99615e-06
0.00017258
1.99591e-06
0.000172349
1.99964e-06
0.000172118
2.00778e-06
0.000171887
2.02076e-06
0.000171655
2.03901e-06
0.000171422
2.063e-06
0.000171189
2.0932e-06
0.000170956
2.13015e-06
0.000170722
2.1744e-06
0.000170488
2.22657e-06
0.000170253
2.28736e-06
0.000170019
2.35751e-06
0.000169786
2.43784e-06
0.000169556
2.52922e-06
0.000169328
2.6326e-06
0.000169105
2.74894e-06
0.00016889
2.87922e-06
0.000168683
3.02441e-06
0.00016849
3.1854e-06
0.000168315
3.36294e-06
0.000168162
3.55759e-06
0.000168038
3.76958e-06
0.000167951
3.99872e-06
0.00016791
4.24424e-06
0.000167925
4.50464e-06
0.000168008
4.77752e-06
0.000168172
5.0594e-06
0.000168432
5.34551e-06
0.0001688
5.62975e-06
0.000169289
5.90454e-06
0.000169911
6.16092e-06
0.000170672
6.38875e-06
0.000171575
6.57712e-06
0.000172613
6.71504e-06
0.000173774
6.79235e-06
6.80086e-06
0.000175036
0.000196008
3.02116e-07
0.000195973
1.05747e-06
0.000195873
1.95063e-06
0.000195696
2.62852e-06
0.000195452
2.93399e-06
0.000195167
2.93452e-06
0.000194865
2.78666e-06
0.000194564
2.6176e-06
0.000194273
2.4884e-06
0.000193993
2.41023e-06
0.000193723
2.37177e-06
0.00019346
2.35776e-06
0.000193203
2.35658e-06
0.000192949
2.36132e-06
0.000192698
2.36851e-06
0.000192447
2.37662e-06
0.000192198
2.38502e-06
0.00019195
2.39348e-06
0.000191702
2.40182e-06
0.000191454
2.4099e-06
0.000191206
2.41754e-06
0.000190959
2.42452e-06
0.000190711
2.4306e-06
0.000190464
2.43552e-06
0.000190217
2.43903e-06
0.00018997
2.4409e-06
0.000189723
2.44094e-06
0.000189476
2.43898e-06
0.00018923
2.43496e-06
0.000188984
2.42885e-06
0.000188738
2.4207e-06
0.000188492
2.41063e-06
0.000188247
2.39881e-06
0.000188002
2.38549e-06
0.000187758
2.37098e-06
0.000187514
2.35562e-06
0.00018727
2.33979e-06
0.000187027
2.32393e-06
0.000186784
2.30846e-06
0.000186541
2.29385e-06
0.000186299
2.28055e-06
0.000186057
2.26904e-06
0.000185816
2.25977e-06
0.000185574
2.25318e-06
0.000185333
2.24973e-06
0.000185092
2.24984e-06
0.000184852
2.25391e-06
0.000184612
2.26237e-06
0.000184372
2.2756e-06
0.000184132
2.294e-06
0.000183893
2.31798e-06
0.000183655
2.34796e-06
0.000183418
2.38437e-06
0.000183182
2.42768e-06
0.000182949
2.47837e-06
0.000182717
2.53698e-06
0.00018249
2.60405e-06
0.000182267
2.68015e-06
0.00018205
2.76587e-06
0.000181841
2.8618e-06
0.000181642
2.96848e-06
0.000181455
3.08639e-06
0.000181285
3.21593e-06
0.000181134
3.35732e-06
0.000181008
3.51059e-06
0.000180912
3.67546e-06
0.000180852
3.85133e-06
0.000180835
4.03712e-06
0.000180871
4.23121e-06
0.000180966
4.43136e-06
0.000181132
4.63461e-06
0.000181376
4.8372e-06
0.00018171
5.03457e-06
0.000182141
5.22133e-06
0.000182677
5.39139e-06
0.000183322
5.53808e-06
0.000184079
5.65442e-06
0.000184945
5.7335e-06
0.000185914
5.76892e-06
0.000186973
5.75533e-06
5.68894e-06
0.000188108
0.000209739
3.02083e-07
0.000209712
1.08507e-06
0.000209624
2.0384e-06
0.000209459
2.79386e-06
0.000209222
3.17029e-06
0.000208938
3.21876e-06
0.000208632
3.09316e-06
0.000208322
2.92728e-06
0.00020802
2.79102e-06
0.000207728
2.70236e-06
0.000207446
2.65385e-06
0.000207172
2.63174e-06
0.000206904
2.62461e-06
0.000206641
2.6252e-06
0.00020638
2.62959e-06
0.000206122
2.63583e-06
0.000205864
2.64303e-06
0.000205608
2.65071e-06
0.000205352
2.65858e-06
0.000205097
2.6664e-06
0.000204842
2.67391e-06
0.000204587
2.68087e-06
0.000204333
2.687e-06
0.000204078
2.69202e-06
0.000203824
2.69567e-06
0.00020357
2.69772e-06
0.000203316
2.69797e-06
0.000203063
2.69627e-06
0.000202809
2.69255e-06
0.000202555
2.68676e-06
0.000202302
2.67897e-06
0.000202049
2.66929e-06
0.000201796
2.65789e-06
0.000201543
2.645e-06
0.00020129
2.63094e-06
0.000201037
2.61603e-06
0.000200784
2.60066e-06
0.000200532
2.58523e-06
0.000200279
2.57019e-06
0.000200027
2.55597e-06
0.000199775
2.54304e-06
0.000199524
2.53184e-06
0.000199273
2.52282e-06
0.000199022
2.51642e-06
0.000198772
2.51306e-06
0.000198523
2.51313e-06
0.000198274
2.51701e-06
0.000198027
2.52507e-06
0.00019778
2.53765e-06
0.000197536
2.5551e-06
0.000197293
2.57773e-06
0.000197052
2.60588e-06
0.000196815
2.63988e-06
0.000196581
2.68005e-06
0.000196352
2.72673e-06
0.000196128
2.78025e-06
0.000195911
2.84095e-06
0.000195703
2.90914e-06
0.000195504
2.98509e-06
0.000195318
3.06904e-06
0.000195147
3.16114e-06
0.000194994
3.26143e-06
0.000194862
3.36978e-06
0.000194756
3.48591e-06
0.00019468
3.60926e-06
0.00019464
3.73901e-06
0.00019464
3.87399e-06
0.000194688
4.01263e-06
0.00019479
4.15294e-06
0.000194952
4.29243e-06
0.000195183
4.42815e-06
0.000195487
4.55664e-06
0.000195871
4.674e-06
0.000196341
4.77593e-06
0.000196898
4.85788e-06
0.000197545
4.91523e-06
0.00019828
4.94346e-06
0.000199099
4.93845e-06
0.000199995
4.89674e-06
0.000200958
4.81577e-06
4.69412e-06
0.000201977
0.000224432
3.00839e-07
0.000224409
1.10746e-06
0.000224331
2.11716e-06
0.000224175
2.94909e-06
0.000223947
3.39889e-06
0.000223666
3.5e-06
0.000223357
3.4018e-06
0.000223041
3.24326e-06
0.00022273
3.10257e-06
0.000222428
3.00471e-06
0.000222135
2.94647e-06
0.000221851
2.91603e-06
0.000221574
2.90246e-06
0.000221301
2.89836e-06
0.000221032
2.89943e-06
0.000220765
2.90337e-06
0.0002205
2.90899e-06
0.000220236
2.91561e-06
0.000219972
2.92278e-06
0.00021971
2.93016e-06
0.000219448
2.93743e-06
0.000219186
2.94427e-06
0.000218925
2.95039e-06
0.000218664
2.95549e-06
0.000218402
2.9593e-06
0.000218142
2.96158e-06
0.000217881
2.96213e-06
0.00021762
2.9608e-06
0.000217359
2.95751e-06
0.000217098
2.95222e-06
0.000216837
2.94498e-06
0.000216577
2.93589e-06
0.000216316
2.92512e-06
0.000216054
2.9129e-06
0.000215793
2.89949e-06
0.000215532
2.88523e-06
0.000215271
2.87048e-06
0.00021501
2.85564e-06
0.000214749
2.84111e-06
0.000214488
2.82733e-06
0.000214227
2.81473e-06
0.000213968
2.80373e-06
0.000213708
2.79477e-06
0.00021345
2.78823e-06
0.000213192
2.7845e-06
0.000212936
2.78394e-06
0.000212682
2.78686e-06
0.000212429
2.79358e-06
0.000212179
2.80438e-06
0.000211932
2.8195e-06
0.000211688
2.83918e-06
0.000211449
2.86365e-06
0.000211215
2.89309e-06
0.000210986
2.9277e-06
0.000210766
2.96763e-06
0.000210553
3.01303e-06
0.000210351
3.064e-06
0.000210162
3.12061e-06
0.000209986
3.18284e-06
0.000209827
3.25062e-06
0.000209687
3.32374e-06
0.000209569
3.40189e-06
0.000209478
3.48457e-06
0.000209416
3.5711e-06
0.000209389
3.66059e-06
0.0002094
3.75186e-06
0.000209455
3.8435e-06
0.000209559
3.93376e-06
0.000209716
4.02061e-06
0.000209932
4.10171e-06
0.00021021
4.17443e-06
0.000210556
4.23588e-06
0.000210973
4.283e-06
0.000211461
4.31261e-06
0.000212023
4.32157e-06
0.000212656
4.30684e-06
0.000213359
4.26573e-06
0.000214127
4.19596e-06
0.000214953
4.0959e-06
0.000215829
3.96461e-06
3.80193e-06
0.000216746
0.000240153
2.99111e-07
0.000240133
1.12661e-06
0.000240061
2.18936e-06
0.000239914
3.09606e-06
0.000239693
3.62019e-06
0.000239416
3.77721e-06
0.000239107
3.71058e-06
0.000238787
3.56319e-06
0.000238469
3.42086e-06
0.000238159
3.31544e-06
0.000237857
3.24818e-06
0.000237564
3.20952e-06
0.000237278
3.1893e-06
0.000236996
3.18015e-06
0.000236719
3.17752e-06
0.000236444
3.17881e-06
0.000236171
3.18255e-06
0.0002359
3.18785e-06
0.000235629
3.19413e-06
0.00023536
3.20092e-06
0.000235091
3.20783e-06
0.000234823
3.2145e-06
0.000234555
3.22058e-06
0.000234287
3.22577e-06
0.000234019
3.22978e-06
0.000233751
3.23236e-06
0.000233484
3.2333e-06
0.000233216
3.23245e-06
0.000232948
3.22973e-06
0.00023268
3.22508e-06
0.000232412
3.21855e-06
0.000232144
3.21021e-06
0.000231875
3.20022e-06
0.000231606
3.18879e-06
0.000231337
3.17617e-06
0.000231068
3.16265e-06
0.000230799
3.14859e-06
0.00023053
3.13433e-06
0.000230261
3.12028e-06
0.000229993
3.10683e-06
0.000229725
3.09437e-06
0.000229458
3.08329e-06
0.000229192
3.07398e-06
0.000228928
3.06678e-06
0.000228665
3.06203e-06
0.000228404
3.06001e-06
0.000228146
3.061e-06
0.000227891
3.06521e-06
0.00022764
3.07284e-06
0.000227394
3.08405e-06
0.000227153
3.09897e-06
0.000226918
3.11769e-06
0.000226691
3.14028e-06
0.000226472
3.16678e-06
0.000226264
3.19718e-06
0.000226067
3.23144e-06
0.000225884
3.26944e-06
0.000225716
3.31104e-06
0.000225566
3.35598e-06
0.000225436
3.40393e-06
0.000225329
3.45443e-06
0.000225249
3.50691e-06
0.000225197
3.56064e-06
0.000225179
3.61471e-06
0.000225196
3.66803e-06
0.000225254
3.71935e-06
0.000225356
3.76719e-06
0.000225506
3.80988e-06
0.000225707
3.84558e-06
0.000225963
3.87228e-06
0.000226276
3.88783e-06
0.000226648
3.89003e-06
0.000227081
3.87662e-06
0.000227575
3.84544e-06
0.000228128
3.79442e-06
0.00022874
3.72176e-06
0.000229406
3.62599e-06
0.000230123
3.50607e-06
0.000230884
3.36146e-06
0.000231683
3.19213e-06
2.99856e-06
0.000232512
0.000256974
2.97425e-07
0.000256956
1.1441e-06
0.000256889
2.25716e-06
0.000256748
3.23653e-06
0.000256534
3.83487e-06
0.000256261
4.04975e-06
0.000255954
4.0179e-06
0.000255632
3.885e-06
0.000255309
3.74376e-06
0.000254992
3.63264e-06
0.000254683
3.55741e-06