/*--------------------------------*- C++ -*----------------------------------*\
| =========                 |                                                 |
| \\      /  F ield         | OpenFOAM: The Open Source CFD Toolbox           |
|  \\    /   O peration     | Version:  5.x                                   |
|   \\  /    A nd           | Web:      www.OpenFOAM.org                      |
|    \\/     M anipulation  |                                                 |
\*---------------------------------------------------------------------------*/
FoamFile
{
    version     2.0;
    format      ascii;
    class       surfaceVectorField;
    location    "1";
    object      Uf;
}
// * * * * * * * * * * * * * * * * * * * * * * * * * * * * * * * * * * * * * //

dimensions      [0 1 -1 0 0 0 0];

internalField   nonuniform List<vector> 
5457
(
(9.91162 0.0238189 -8.10993e-20)
(9.95933 0.0373569 0)
(9.81198 0.0298161 2.65311e-20)
(9.92197 0.0437439 -4.00407e-20)
(9.70025 0.0347853 1.22078e-19)
(9.85612 0.0511641 6.18677e-20)
(9.57374 0.040035 -2.35706e-20)
(9.76559 0.0603684 1.87966e-19)
(9.43263 0.0454939 -4.26917e-20)
(9.65792 0.0700933 -1.29242e-19)
(9.2773 0.0511825 0)
(9.5357 0.0802531 0)
(9.10773 0.0572213 9.82808e-20)
(9.39868 0.0910627 1.8215e-19)
(8.92359 0.0637331 -6.39163e-21)
(9.24616 0.102718 -9.02407e-20)
(8.72434 0.0708311 -1.50126e-19)
(9.0776 0.115393 -2.81559e-21)
(8.50928 0.0786263 -5.07235e-20)
(8.8925 0.129264 -1.0145e-19)
(8.27753 0.0872304 0)
(8.69019 0.144506 6.20036e-19)
(8.02815 0.0967615 0)
(8.46979 0.161292 3.38541e-21)
(7.76004 0.107341 0)
(8.23036 0.179812 -4.40508e-19)
(7.47206 0.119099 -1.28479e-19)
(7.97073 0.20024 0)
(7.16301 0.13219 2.82011e-19)
(7.68971 0.222769 -7.08874e-21)
(6.83156 0.146779 -7.35873e-19)
(7.38613 0.247634 5.23725e-19)
(6.47638 0.163029 -3.53426e-19)
(7.05862 0.275037 -2.41038e-18)
(6.09612 0.181091 7.14834e-19)
(6.70571 0.305133 1.9391e-18)
(5.68953 0.201097 0)
(6.32607 0.338032 1.99559e-18)
(5.25554 0.223134 -1.75049e-19)
(5.91844 0.373732 2.3703e-20)
(4.79337 0.247235 2.02539e-19)
(5.48166 0.412079 8.39349e-21)
(4.30269 0.273378 7.58781e-19)
(5.01484 0.452745 6.21391e-20)
(3.78367 0.301481 -3.92524e-20)
(4.51746 0.495197 -2.73713e-18)
(3.23718 0.331319 -2.25092e-18)
(3.98972 0.538638 -5.02606e-20)
(2.66489 0.362403 1.71245e-19)
(3.43239 0.58178 4.51496e-18)
(2.06962 0.393915 1.9287e-18)
(2.84675 0.622568 1.98894e-18)
(1.45572 0.423789 -5.7521e-18)
(2.23545 0.657923 -6.28718e-18)
(0.830053 0.430959 -5.75709e-18)
(1.60259 0.681775 -4.77013e-18)
(0.204848 0.0699946 5.79336e-18)
(0.92548 0.664992 1.6495e-17)
(0.359027 0.236277 -1.63848e-17)
(10.0005 0.0472508 4.03187e-20)
(9.98975 0.0371419 0)
(9.96759 0.0619176 -2.6179e-21)
(9.98064 0.0582278 3.96072e-20)
(9.9153 0.0749109 1.30298e-19)
(9.94657 0.0751349 1.21558e-19)
(9.84572 0.0889231 7.61237e-20)
(9.88798 0.0936018 -1.65623e-19)
(9.75896 0.103794 -8.40884e-20)
(9.81118 0.113234 -3.41652e-22)
(9.65531 0.119523 1.85564e-19)
(9.71897 0.13385 0)
(9.53492 0.136363 -1.13933e-20)
(9.61147 0.15577 -1.79659e-19)
(9.39762 0.1546 -8.50976e-20)
(9.48812 0.179379 1.83689e-19)
(9.24298 0.174501 4.41189e-20)
(9.34846 0.205035 8.84275e-22)
(9.07042 0.196327 5.8207e-19)
(9.1921 0.233093 -1.48217e-19)
(8.87917 0.220337 6.12716e-19)
(9.0185 0.263897 -3.99915e-19)
(8.66837 0.246806 -4.4484e-19)
(8.82693 0.297804 -2.1301e-19)
(8.43701 0.276013 -4.33042e-19)
(8.61654 0.335203 1.07926e-18)
(8.18395 0.308243 1.21328e-19)
(8.38628 0.376491 9.10221e-19)
(7.90795 0.343812 2.43618e-19)
(8.135 0.422078 -3.60347e-18)
(7.60768 0.383047 -1.1995e-18)
(7.86156 0.472432 1.80472e-18)
(7.28174 0.426227 -4.66773e-20)
(7.56468 0.528008 -3.56448e-18)
(6.92867 0.473561 3.22113e-18)
(7.24283 0.589177 9.31723e-19)
(6.54705 0.525151 1.9889e-18)
(6.89455 0.656225 6.58636e-20)
(6.13549 0.580929 2.07534e-19)
(6.51836 0.729264 4.53089e-18)
(5.69276 0.640595 -1.3098e-19)
(6.11272 0.808173 4.34596e-18)
(5.21786 0.703557 -3.4754e-18)
(5.67603 0.892478 -5.85472e-18)
(4.71019 0.768861 -2.71388e-18)
(5.20688 0.981247 -3.78149e-18)
(4.16974 0.834997 6.77645e-18)
(4.70428 1.073 5.85694e-18)
(3.59714 0.899468 6.31513e-18)
(4.16734 1.16529 1.32172e-18)
(2.99389 0.958094 -6.29464e-18)
(3.59483 1.25399 1.22461e-17)
(2.36333 1.00261 -5.30275e-18)
(2.98552 1.33197 -1.99679e-17)
(1.71295 1.01195 1.74036e-17)
(2.33835 1.38343 9.6689e-19)
(1.04167 0.942167 -6.43777e-18)
(1.6045 1.37642 1.65252e-17)
(1.00013 1.25508 -1.98837e-17)
(9.99322 0.051391 0)
(9.98744 0.0400083 -7.74095e-20)
(9.96373 0.0746431 1.65484e-19)
(9.97579 0.0711674 7.89682e-20)
(9.91493 0.0965653 -1.8008e-19)
(9.94273 0.0974792 3.23967e-19)
(9.85004 0.119887 -2.38909e-19)
(9.88696 0.124563 -8.29336e-19)
(9.76958 0.144692 8.37747e-20)
(9.81372 0.153197 8.54077e-20)
(9.67382 0.171036 -3.68615e-19)
(9.7259 0.18333 3.49951e-19)
(9.56294 0.199278 2.20837e-20)
(9.62384 0.215325 -1.80951e-19)
(9.43685 0.229861 2.66427e-19)
(9.50715 0.249735 -7.37104e-19)
(9.29523 0.263212 -1.94139e-19)
(9.3754 0.287095 6.60984e-19)
(9.1376 0.29975 -1.13477e-18)
(9.22832 0.327896 8.80807e-19)
(8.96339 0.339907 -1.22269e-18)
(9.0656 0.372629 -1.01467e-18)
(8.77186 0.384144 1.3335e-18)
(8.88667 0.421825 -1.24983e-18)
(8.56217 0.432957 2.42026e-18)
(8.69085 0.476063 3.45367e-18)
(8.33331 0.486849 -2.89086e-18)
(8.47735 0.535959 -2.62468e-18)
(8.08417 0.546368 -1.95345e-18)
(8.24524 0.602135 -1.90649e-18)
(7.81355 0.612094 -6.48229e-19)
(7.9936 0.675283 2.38965e-18)
(7.52013 0.684568 -2.51419e-18)
(7.72136 0.756137 -1.28822e-18)
(7.2024 0.764235 -2.23956e-18)
(7.4272 0.845372 -2.81389e-19)
(6.85879 0.851394 2.67632e-18)
(7.10978 0.943548 -6.68177e-18)
(6.48761 0.946119 8.67174e-18)
(6.76756 1.05105 8.85748e-18)
(6.08704 1.04814 -1.5236e-18)
(6.39878 1.16802 8.73133e-18)
(5.65516 1.15666 -6.13561e-18)
(6.00147 1.29417 -1.91509e-17)
(5.19015 1.27035 4.91835e-18)
(5.57324 1.42847 9.76434e-18)
(4.69008 1.38705 3.53394e-19)
(5.11187 1.56938 5.49774e-18)
(4.15266 1.50316 7.34712e-18)
(4.61426 1.71426 5.06303e-18)
(3.57475 1.61295 -1.62111e-18)
(4.07554 1.85854 2.4381e-18)
(2.95059 1.70749 -1.36598e-17)
(3.48883 1.99562 -3.73375e-17)
(2.26339 1.77392 0)
(2.84595 2.11642 2.47886e-17)
(1.46174 1.81981 2.1813e-18)
(2.09601 2.21925 -2.61402e-17)
(1.31506 2.34759 6.13893e-17)
(9.9889 0.0601006 4.56559e-21)
(9.98614 0.0447007 -7.74275e-20)
(9.9595 0.0932083 2.42443e-19)
(9.97258 0.0840827 -7.85728e-20)
(9.91146 0.124691 -3.48216e-19)
(9.93925 0.119485 7.78079e-22)
(9.84744 0.157146 -4.87256e-19)
(9.88434 0.155132 -1.67235e-19)
(9.76838 0.191193 3.56631e-19)
(9.81242 0.192494 3.38123e-19)
(9.67463 0.227125 5.27803e-19)
(9.72631 0.231809 3.50039e-19)
(9.5664 0.265457 -9.50379e-19)
(9.62643 0.273501 2.66077e-21)
(9.44368 0.306813 -3.17557e-19)
(9.51243 0.318272 -1.84231e-18)
(9.30626 0.351776 1.74012e-18)
(9.38401 0.366794 7.52533e-19)
(9.15387 0.400907 9.68189e-19)
(9.24104 0.419648 9.74671e-19)
(8.98615 0.454797 -1.04572e-18)
(9.08331 0.477441 -4.01022e-19)
(8.8026 0.514092 9.50284e-19)
(8.91049 0.540856 1.00865e-18)
(8.60262 0.579482 -1.69443e-18)
(8.72206 0.610634 2.39861e-19)
(8.38551 0.651681 -1.62883e-18)
(8.51745 0.687552 -5.89879e-20)
(8.15051 0.731456 2.50951e-18)
(8.29606 0.772403 3.39526e-20)
(7.89675 0.819648 1.6907e-18)
(8.05725 0.866082 -3.47319e-18)
(7.62324 0.917097 9.62751e-19)
(7.80029 0.969575 4.30566e-18)
(7.32882 1.02458 -4.82444e-18)
(7.52415 1.08383 -4.92486e-19)
(7.01215 1.14275 -2.68494e-19)
(7.22796 1.20976 -3.73521e-18)
(6.67161 1.27205 8.91517e-18)
(6.91037 1.34813 4.3521e-18)
(6.30533 1.41257 -9.28795e-18)
(6.56968 1.49949 5.11704e-18)
(5.91098 1.56376 -2.88015e-18)
(6.20415 1.66399 -1.36234e-17)
(5.48582 1.72448 1.0307e-17)
(5.81088 1.84097 1.04403e-17)
(5.02641 1.89292 1.02057e-17)
(5.38661 2.0294 0)
(4.52755 2.06585 1.5569e-19)
(4.92711 2.22767 1.01274e-17)
(3.98144 2.23866 -3.35421e-17)
(4.42515 2.43254 -1.11502e-17)
(3.376 2.40615 1.15378e-18)
(3.87036 2.64013 -2.23724e-17)
(2.68949 2.56224 -9.52585e-19)
(3.25184 2.84791 4.75297e-17)
(1.90665 2.73914 3.56136e-17)
(2.55084 3.04883 -5.1206e-17)
(1.6496 3.37079 5.92756e-17)
(9.98669 0.0693643 -1.60419e-19)
(9.98546 0.05033 0)
(9.95678 0.110811 -3.18586e-19)
(9.9708 0.0972322 -1.576e-19)
(9.90941 0.150719 1.78498e-19)
(9.93733 0.141208 -1.61148e-19)
(9.84634 0.191508 6.68049e-19)
(9.88328 0.185271 2.96162e-23)
(9.76866 0.234204 3.31769e-19)
(9.81282 0.231142 6.7474e-19)
(9.67677 0.279317 -1.81683e-19)
(9.72864 0.279379 0)
(9.57081 0.327478 -9.22915e-19)
(9.63101 0.330527 -1.78412e-19)
(9.45078 0.379421 -7.25832e-19)
(9.51961 0.385393 -3.71641e-19)
(9.31659 0.435821 -9.37808e-21)
(9.3943 0.444745 -4.41626e-21)
(9.16806 0.497317 -4.18765e-19)
(9.255 0.509236 -1.54151e-18)
(9.00496 0.564615 1.678e-18)
(9.10158 0.579569 1.1604e-18)
(8.82696 0.638498 2.85642e-19)
(8.93383 0.656568 2.44775e-18)
(8.63358 0.719787 1.87065e-18)
(8.75135 0.741123 -1.28076e-18)
(8.42436 0.809327 1.60808e-18)
(8.55373 0.834112 3.48232e-18)
(8.19881 0.908047 -6.00946e-18)
(8.34059 0.936444 1.74789e-18)
(7.95637 1.01699 -7.38022e-19)
(8.11147 1.0492 -7.34554e-18)
(7.69633 1.13724 2.77802e-18)
(7.86593 1.17358 3.79738e-18)
(7.41796 1.26985 5.5074e-19)
(7.60327 1.31074 -3.87511e-18)
(7.1203 1.41587 1.00664e-18)
(7.32285 1.46189 4.47329e-18)
(6.80202 1.57614 5.55651e-19)
(7.02378 1.62828 0)
(6.46151 1.75128 5.41249e-19)
(6.70462 1.81083 5.48953e-19)
(6.09654 1.94139 0)
(6.36399 2.01035 0)
(5.7038 2.14595 0)
(5.99918 2.22708 -1.11406e-18)
(5.27917 2.36407 0)
(5.60618 2.4607 -1.85035e-17)
(4.81654 2.594 -1.32399e-18)
(5.18073 2.71094 3.80157e-17)
(4.3063 2.83293 4.19822e-20)
(4.71572 2.9765 -3.9261e-17)
(3.73584 3.07879 2.40076e-17)
(4.2003 3.25492 1.89455e-17)
(3.08592 3.32398 -1.87175e-18)
(3.61924 3.54689 2.1477e-17)
(2.37981 3.60021 -2.42124e-17)
(3.01286 3.81137 -2.24201e-17)
(2.01953 4.271 4.67866e-17)
(9.98555 0.0790234 0)
(9.98505 0.0564408 0)
(9.95531 0.128331 -8.74751e-23)
(9.96991 0.110542 1.56734e-19)
(9.90874 0.176502 -3.36531e-19)
(9.93665 0.162585 -1.60177e-19)
(9.847 0.225663 1.9543e-20)
(9.88367 0.214811 -6.57857e-19)
(9.77112 0.277021 3.30224e-19)
(9.81498 0.268949 1.34305e-18)
(9.68148 0.331271 0)
(9.73309 0.325848 -1.02844e-18)
(9.57816 0.389147 3.6958e-19)
(9.63809 0.386219 0)
(9.46119 0.451458 3.56627e-19)
(9.52971 0.450922 3.6509e-19)
(9.33054 0.518949 -1.56361e-18)
(9.40794 0.520782 7.44977e-19)
(9.18613 0.592342 8.38955e-20)
(9.27275 0.596534 -4.56845e-18)
(9.0278 0.672459 1.95233e-18)
(9.12403 0.678965 1.16942e-18)
(8.8553 0.760226 8.19329e-19)
(8.96162 0.769033 3.91928e-19)
(8.66827 0.856578 4.08557e-19)
(8.78527 0.867761 2.04593e-18)
(8.4664 0.962457 3.59421e-18)
(8.5948 0.976098 -2.95648e-18)
(8.24937 1.07892 2.7391e-19)
(8.38983 1.09505 3.083e-18)
(8.0168 1.20722 -2.63982e-18)
(8.16997 1.22585 -7.31507e-20)
(7.76822 1.34861 -2.97533e-18)
(7.935 1.36989 9.70449e-21)
(7.50312 1.5044 1.65988e-19)
(7.68456 1.52852 -3.38844e-18)
(7.22086 1.67599 3.40812e-18)
(7.41796 1.7032 -4.26667e-18)
(6.92052 1.86466 0)
(7.13482 1.89558 7.87427e-18)
(6.60081 2.07153 0)
(6.83413 2.107 -1.01051e-18)
(6.2599 2.29759 -1.1275e-18)
(6.51449 2.33888 0)
(5.89454 2.54318 -1.98057e-17)
(6.17406 2.59267 -4.5352e-20)
(5.50044 2.80848 1.99225e-17)
(5.80903 2.86893 5.59584e-20)
(5.07213 3.09334 -2.0485e-19)
(5.41516 3.16827 2.03233e-17)
(4.60106 3.3961 -2.04312e-17)
(4.98673 3.49094 -3.92894e-17)
(4.07657 3.71536 1.6427e-17)
(4.51527 3.83424 3.75125e-17)
(3.4778 4.03651 1.35043e-18)
(3.97456 4.2025 -1.30717e-18)
(2.84753 4.37539 5.11163e-17)
(3.48 4.50597 -1.91579e-17)
(2.41071 5.06174 4.67977e-17)
(9.985 0.0888805 1.59591e-19)
(9.98477 0.0627855 7.67593e-19)
(9.95479 0.14569 -9.87303e-21)
(9.96963 0.123852 6.24958e-19)
(9.90921 0.201782 -4.91449e-19)
(9.93693 0.183538 -1.60151e-19)
(9.84908 0.259018 7.04244e-19)
(9.8853 0.24362 -3.28072e-19)
(9.77532 0.318716 -6.02503e-20)
(9.81863 0.305757 1.00682e-18)
(9.68827 0.381775 -1.00982e-18)
(9.73925 0.37105 -6.87483e-19)
(9.588 0.449033 1.99739e-21)
(9.64721 0.440371 6.9968e-19)
(9.47457 0.521353 7.60139e-19)
(9.5423 0.514598 -7.10225e-19)
(9.34801 0.599548 -2.35154e-18)
(9.42458 0.594613 1.11076e-18)
(9.20827 0.684423 -3.38703e-18)
(9.29406 0.681235 -3.03315e-18)
(9.05523 0.776896 -4.05042e-19)
(9.15064 0.775336 -3.9946e-19)
(8.88874 0.878002 1.6457e-18)
(8.99418 0.877958 -4.05927e-19)
(8.70866 0.988788 -1.39947e-18)
(8.82465 0.990206 4.4633e-18)
(8.51474 1.1103 -3.37777e-18)
(8.64205 1.11316 -6.66611e-18)
(8.30665 1.2437 2.68759e-18)
(8.44589 1.24798 -3.41352e-20)
(8.08412 1.39038 2.58372e-18)
(8.2358 1.39599 3.09523e-18)
(7.8469 1.5518 -4.50753e-19)
(8.01181 1.55871 -4.57624e-19)
(7.59463 1.72946 -7.83807e-18)
(7.77369 1.73769 -6.40478e-18)
(7.32686 1.92504 3.46096e-19)
(7.52084 1.93464 -3.10961e-19)
(7.04301 2.14028 6.76937e-18)
(7.25322 2.15149 1.46096e-17)
(6.74203 2.37679 -1.00155e-18)
(6.97021 2.39013 -1.66271e-17)
(6.42253 2.63635 1.0847e-18)
(6.67024 2.65244 8.94864e-18)
(6.08218 2.92044 1.98811e-17)
(6.35236 2.9408 1.0775e-18)
(5.71703 3.23006 5.93332e-19)
(6.01403 3.25694 1.76856e-17)
(5.32228 3.56608 -1.90414e-17)
(5.65104 3.60205 -3.48538e-17)
(4.89137 3.92721 1.86923e-17)
(5.25845 3.97701 1.59288e-17)
(4.41662 4.3114 1.99686e-17)
(4.83252 4.37764 1.99462e-17)
(3.87188 4.69637 -2.158e-17)
(4.32921 4.81504 3.57499e-17)
(3.30158 5.07477 -2.09343e-17)
(3.94551 5.1456 -5.62863e-17)
(2.8107 5.77297 -3.8514e-17)
(9.98484 0.0987626 1.23028e-18)
(9.98458 0.0691986 3.07806e-19)
(9.95501 0.16276 4.58763e-19)
(9.96977 0.137009 -6.21654e-19)
(9.91066 0.226425 0)
(9.938 0.203959 -3.17741e-19)
(9.8524 0.291442 0)
(9.88801 0.271579 -6.49793e-19)
(9.78097 0.359206 3.47856e-19)
(9.82357 0.341466 -1.78626e-21)
(9.69674 0.430787 1.04786e-18)
(9.7469 0.414875 6.7978e-19)
(9.59987 0.507113 -3.75626e-20)
(9.65814 0.492802 2.08858e-18)
(9.49045 0.589091 -3.28316e-19)
(9.5571 0.57618 -1.77166e-18)
(9.36852 0.677601 3.59256e-19)
(9.44392 0.665949 2.98534e-21)
(9.23406 0.773526 0)
(9.31865 0.762995 -1.48568e-18)
(9.08702 0.877855 -4.00343e-19)
(9.18121 0.868271 -8.84951e-21)
(8.92734 0.991693 2.48964e-18)
(9.0315 0.982868 3.77661e-19)
(8.755 1.11621 -9.76356e-19)
(8.86959 1.10795 2.83449e-18)
(8.5698 1.25262 -3.22212e-18)
(8.69551 1.2448 -3.71107e-18)
(8.37141 1.40219 4.18332e-19)
(8.50884 1.39476 4.2482e-19)
(8.15963 1.56639 0)
(8.30935 1.55918 -3.4027e-18)
(7.93436 1.74683 -6.49735e-18)
(8.09719 1.73965 1.04088e-17)
(7.69541 1.94524 1.20438e-18)
(7.87207 1.93796 -2.1468e-17)
(7.44251 2.16358 1.41587e-17)
(7.63371 2.15603 1.46588e-17)
(7.17534 2.40396 -9.15214e-18)
(7.38224 2.39608 2.67493e-19)
(6.89304 2.66846 -6.45188e-18)
(7.11727 2.66053 -8.17536e-18)
(6.5945 2.95947 8.89899e-18)
(6.83751 2.95172 8.0269e-18)
(6.27839 3.27956 -1.0518e-18)
(6.5423 3.27253 0)
(5.94189 3.63052 -1.80234e-17)
(6.2304 3.62583 1.36868e-17)
(5.58067 4.01355 2.1936e-19)
(5.8984 4.01349 -1.69702e-17)
(5.18918 4.42732 1.71848e-17)
(5.54114 4.43655 -1.46739e-17)
(4.76283 4.8689 3.56649e-17)
(5.16053 4.88814 3.29623e-17)
(4.26989 5.31041 2.21864e-18)
(4.68965 5.38982 1.99728e-17)
(3.74365 5.71818 -7.31653e-17)
(4.40702 5.74529 -3.45116e-17)
(3.21281 6.43129 -3.8554e-17)
(9.98493 0.108534 -1.56222e-18)
(9.98448 0.075576 -3.07691e-19)
(9.9558 0.17941 -1.39257e-18)
(9.97023 0.149875 -4.46876e-21)
(9.91294 0.250312 -9.7428e-19)
(9.93969 0.223723 -6.34529e-19)
(9.8568 0.322828 -6.39451e-19)
(9.89159 0.298578 3.17738e-19)
(9.78796 0.398384 3.42805e-19)
(9.82959 0.375953 6.56731e-19)
(9.70687 0.478163 1.74615e-18)
(9.75593 0.457165 1.01896e-21)
(9.61376 0.56318 2.86605e-19)
(9.67076 0.543326 3.4529e-18)
(9.50876 0.6544 -1.41019e-18)
(9.57397 0.635443 -1.75985e-18)
(9.39199 0.752764 -1.86778e-18)
(9.46579 0.734494 -1.80006e-18)
(9.26347 0.85923 -1.47118e-18)
(9.34638 0.84144 -2.63476e-20)
(9.12318 0.974855 7.7576e-19)
(9.21556 0.957318 -8.85842e-21)
(8.97109 1.10081 7.60396e-19)
(9.07329 1.08328 1.5377e-18)
(8.80714 1.23838 0)
(8.91969 1.22059 0)
(8.63126 1.38891 0)
(8.75472 1.37064 3.19257e-18)
(8.44332 1.55383 -3.45319e-18)
(8.57828 1.53488 2.02343e-20)
(8.24321 1.73465 7.19691e-18)
(8.39033 1.71478 -6.71116e-18)
(8.03087 1.93313 -4.9625e-18)
(8.19091 1.91204 9.59207e-18)
(7.80617 2.15122 -7.59506e-18)
(7.9798 2.12863 -2.19816e-17)
(7.56906 2.39112 5.91155e-19)
(7.75708 2.36669 1.41989e-17)
(7.3194 2.65534 1.16176e-18)
(7.52284 2.62869 -7.37289e-18)
(7.05677 2.94642 6.48214e-18)
(7.27688 2.91752 8.43054e-18)
(6.78029 3.26719 -9.55563e-19)
(7.01871 3.23604 -9.63558e-19)
(6.48902 3.62095 1.48383e-17)
(6.74761 3.5875 -1.47351e-17)
(6.18137 4.01037 1.47682e-17)
(6.46286 3.97556 1.5744e-17)
(5.85397 4.43697 -3.19298e-17)
(6.16248 4.40291 2.97159e-17)
(5.501 4.89918 8.79887e-19)
(5.84067 4.87112 -6.17444e-17)
(5.11957 5.39351 1.72216e-17)
(5.50484 5.36987 4.70665e-17)
(4.6737 5.88938 -1.6106e-17)
(5.06188 5.93406 -1.61001e-17)
(4.17789 6.32697 0)
(4.8675 6.32005 0)
(3.61737 7.06401 0)
(9.98523 0.118089 1.25558e-18)
(9.9845 0.08183 3.04973e-19)
(9.95704 0.195529 7.41191e-19)
(9.971 0.162338 3.88221e-21)
(9.91587 0.273339 6.76489e-19)
(9.94183 0.242746 -3.17006e-19)
(9.86202 0.353061 1.62087e-18)
(9.89576 0.324529 1.28936e-18)
(9.79605 0.436106 3.02875e-19)
(9.83644 0.409083 -1.3078e-18)
(9.71842 0.523734 1.76961e-18)
(9.76606 0.49776 9.97421e-19)
(9.6294 0.617034 1.31591e-18)
(9.68482 0.591775 2.0649e-18)
(9.52925 0.717022 -2.15057e-18)
(9.59272 0.692164 -1.397e-18)
(9.41817 0.824712 7.11679e-20)
(9.49007 0.799952 -2.86031e-18)
(9.29618 0.941153 1.438e-18)
(9.37701 0.916228 2.90557e-18)
(9.16324 1.06748 7.77232e-19)
(9.25331 1.04213 0)
(9.01931 1.20492 7.5392e-19)
(9.11902 1.17886 -2.25015e-18)
(8.86441 1.35484 3.24134e-18)
(8.97432 1.32773 3.82118e-18)
(8.69861 1.51868 3.17154e-18)
(8.81925 1.49018 6.32873e-18)
(8.52199 1.698 -3.32851e-18)
(8.65387 1.66774 -7.12851e-18)
(8.33449 1.89446 -4.11617e-18)
(8.47834 1.86211 -8.44829e-20)
(8.13606 2.10994 -7.81605e-18)
(8.29256 2.07513 -6.60726e-18)
(7.92678 2.34657 2.2815e-19)
(8.09657 2.30885 -2.59886e-19)
(7.70672 2.60678 6.02443e-18)
(7.89075 2.56561 6.99572e-18)
(7.4759 2.8934 3.63053e-20)
(7.67511 2.8482 8.23492e-19)
(7.23428 3.20953 9.01118e-19)
(7.44971 3.15983 9.08969e-19)
(6.98149 3.55845 -1.48415e-17)
(7.21469 3.50396 0)
(6.71677 3.94387 -1.38112e-17)
(6.96966 3.88429 -2.87743e-17)
(6.43909 4.36934 3.07339e-17)
(6.71393 4.30503 2.88391e-17)
(6.14619 4.83707 1.51414e-19)
(6.44667 4.76966 2.10094e-18)
(5.83158 5.34552 -1.5989e-17)
(6.16126 5.28129 -3.06165e-17)
(5.49194 5.8917 1.39885e-17)
(5.87055 5.82655 -2.60977e-19)
(5.08849 6.44526 0)
(5.45404 6.45504 2.69906e-17)
(4.61357 6.92637 0)
(5.33754 6.88505 0)
(4.03293 7.70954 0)
(9.98575 0.127339 -9.53405e-19)
(9.98466 0.0878644 3.03974e-19)
(9.95863 0.211047 -1.06119e-18)
(9.97204 0.174345 -6.22125e-19)
(9.91921 0.295435 3.27148e-19)
(9.94429 0.261 -6.26658e-19)
(9.86782 0.382034 -1.68918e-18)
(9.90041 0.349353 9.59466e-19)
(9.80498 0.472224 -5.71494e-19)
(9.84404 0.440731 -1.96779e-18)
(9.73111 0.567311 1.31179e-18)
(9.77719 0.536504 6.71408e-19)
(9.64662 0.668437 -7.08589e-19)
(9.70024 0.637921 6.79559e-19)
(9.55184 0.776672 -2.13127e-18)
(9.61331 0.746054 -2.07239e-18)
(9.44694 0.893132 6.80225e-20)
(9.51664 0.86204 -1.42316e-18)
(9.33192 1.01897 1.42167e-18)
(9.41024 0.987103 -2.13371e-18)
(9.20675 1.15537 -3.06351e-18)
(9.29406 1.12244 7.12386e-19)
(9.07153 1.30362 9.05526e-19)
(9.16827 1.26925 -6.51743e-20)
(8.92641 1.4651 6.94786e-18)
(9.03309 1.42887 -6.99415e-19)
(8.77155 1.64137 -4.15874e-18)
(8.88871 1.60282 6.19059e-18)
(8.60708 1.8341 -3.79747e-18)
(8.73519 1.79276 -1.33927e-17)
(8.43305 2.04511 -2.64942e-18)
(8.5728 2.00055 9.52612e-18)
(8.24954 2.2764 1.02464e-18)
(8.40163 2.22814 -4.98268e-18)
(8.05684 2.53026 6.59805e-18)
(8.22197 2.47763 6.6723e-18)
(7.85523 2.80937 1.72793e-18)
(8.03427 2.75161 0)
(7.64486 3.11683 1.70167e-18)
(7.83871 3.05318 8.88968e-19)
(7.42598 3.45621 0)
(7.63571 3.38584 0)
(7.1987 3.83136 -1.40467e-17)
(7.42572 3.7535 0)
(6.96275 4.24644 1.40328e-17)
(7.20888 4.16054 -1.40339e-17)
(6.71724 4.70588 1.58163e-19)
(6.98484 4.61181 1.49563e-17)
(6.46042 5.21312 -2.87087e-17)
(6.75334 5.11171 -1.49364e-17)
(6.1854 5.76764 -1.50282e-17)
(6.50668 5.66587 4.05592e-20)
(5.88699 6.36846 1.28397e-17)
(6.26361 6.25966 -1.43004e-17)
(5.52516 6.98798 2.69664e-17)
(5.87759 6.95694 5.13856e-17)
(5.07165 7.53596 0)
(5.83551 7.44976 -2.52421e-17)
(4.47695 8.39337 2.63189e-17)
(9.98641 0.136218 6.18316e-19)
(9.98487 0.093621 1.51778e-19)
(9.96051 0.225911 -1.87251e-19)
(9.97322 0.185838 -1.52563e-19)
(9.92299 0.316535 3.6465e-20)
(9.94707 0.278413 -1.93699e-21)
(9.87429 0.409643 6.26429e-19)
(9.90559 0.372949 1.00752e-21)
(9.8148 0.506598 -6.76674e-19)
(9.85234 0.470779 3.0677e-22)
(9.74502 0.608706 3.87179e-20)
(9.78926 0.573233 -6.64855e-19)
(9.66547 0.717156 -7.31069e-19)
(9.71698 0.681543 1.35162e-18)
(9.57645 0.833117 -1.35341e-18)
(9.63557 0.796895 -1.37657e-18)
(9.47802 0.957812 -3.63734e-18)
(9.54513 0.920593 -6.92925e-19)
(9.37025 1.09245 -2.80211e-18)
(9.44569 1.05389 -5.70491e-18)
(9.25333 1.23825 3.70238e-18)
(9.33747 1.19796 -1.81741e-20)
(9.12743 1.39651 -1.67875e-18)
(9.22075 1.35406 3.67301e-18)
(8.99275 1.56868 -1.37062e-18)
(9.09571 1.52358 -9.90079e-20)
(8.84952 1.75641 -3.29785e-18)
(8.96259 1.7081 6.81717e-18)
(8.69793 1.96148 2.1459e-19)
(8.82156 1.90939 -7.75697e-18)
(8.53823 2.18586 7.03845e-18)
(8.67306 2.12942 6.30888e-18)
(8.37074 2.43162 7.89127e-19)
(8.51753 2.3702 1.716e-20)
(8.19589 2.70118 0)
(8.35538 2.63393 6.28451e-18)
(8.01409 2.99749 -8.35175e-19)
(8.187 2.92343 -6.30605e-18)
(7.82582 3.32397 -8.24248e-19)
(8.01303 3.24207 5.50944e-18)
(7.63164 3.6845 0)
(7.83425 3.59358 -7.12291e-18)
(7.43204 4.08349 0)
(7.6514 3.9823 7.8356e-19)
(7.22733 4.52592 -1.31415e-17)
(7.46517 4.41329 1.24946e-17)
(7.01698 5.01717 -1.41187e-19)
(7.27595 4.8924 -2.55523e-17)
(6.79938 5.5625 1.38993e-17)
(7.08403 5.42528 1.23337e-17)
(6.56761 6.16396 8.32831e-19)
(6.88079 6.02083 8.28382e-20)
(6.31416 6.82459 2.43294e-17)
(6.69122 6.66602 2.27266e-17)
(5.99994 7.52185 -8.01763e-19)
(6.34768 7.43724 1.20841e-18)
(5.57821 8.17148 4.33959e-18)
(6.38599 8.01759 -3.66081e-18)
(4.97641 9.13778 3.58162e-18)
(9.98714 0.144672 -6.25285e-19)
(9.9851 0.0990743 1.2038e-18)
(9.9626 0.240053 3.57982e-20)
(9.97449 0.196747 -6.14399e-19)
(9.92717 0.336556 -3.72748e-20)
(9.9501 0.294901 6.25234e-19)
(9.8813 0.435792 -6.25672e-19)
(9.91114 0.395244 -1.2707e-18)
(9.82538 0.539099 3.0135e-22)
(9.86118 0.499132 6.44082e-19)
(9.75999 0.647754 6.83462e-19)
(9.80221 0.607799 -1.30956e-18)
(9.68567 0.763014 6.60545e-19)
(9.73495 0.722487 2.00036e-18)
(9.60264 0.886189 -7.04457e-19)
(9.65924 0.844566 -6.74697e-19)
(9.51095 1.01856 -2.83921e-18)
(9.57522 0.975459 -6.90898e-19)
(9.41087 1.16134 -2.83476e-18)
(9.48318 1.11634 -2.82066e-18)
(9.30273 1.31576 3.68366e-21)
(9.38339 1.26836 -7.32235e-19)
(9.18672 1.4832 5.20297e-18)
(9.27611 1.43292 -4.26509e-21)
(9.06301 1.66516 8.18929e-18)
(9.16173 1.61149 5.9009e-18)
(8.93194 1.86331 2.18065e-18)
(9.04036 1.80562 8.68013e-20)
(8.7939 2.07955 -1.49902e-18)
(8.91239 2.01712 3.69868e-18)
(8.64941 2.31593 -7.89929e-19)
(8.77856 2.24802 -6.74631e-18)
(8.499 2.57462 5.57675e-18)
(8.6396 2.5004 -6.84476e-18)
(8.34315 2.85817 -1.20861e-19)
(8.49592 2.77668 1.31374e-17)
(8.18253 3.16973 1.16164e-19)
(8.348 3.07978 -6.32496e-18)
(8.01796 3.51298 -8.48183e-19)
(8.19706 3.4132 6.36082e-18)
(7.85041 3.89211 -6.32785e-18)
(8.04419 3.78092 -6.38441e-18)
(7.68088 4.31204 1.3319e-17)
(7.89062 4.18766 2.85261e-20)
(7.51024 4.7787 1.40581e-19)
(7.73771 4.63909 1.32798e-17)
(7.33876 5.29872 -1.31902e-17)
(7.58674 5.14209 -8.75204e-19)
(7.16533 5.87978 -1.48008e-18)
(7.43917 5.7041 -1.83416e-19)
(6.984 6.528 2.19573e-17)
(7.28682 6.3376 -2.11551e-17)
(6.78528 7.25325 -6.37551e-19)
(7.16069 7.03468 3.33672e-17)
(6.5351 8.0416 -1.06328e-18)
(6.88273 7.88136 -3.23279e-17)
(6.16845 8.84361 -5.24543e-18)
(7.02025 8.58084 3.18416e-17)
(5.57416 9.96564 -4.60469e-18)
(9.98789 0.152666 1.18249e-18)
(9.98532 0.104212 2.62065e-21)
(9.96482 0.253412 0)
(9.97583 0.20703 -1.21472e-18)
(9.93159 0.355425 -6.45164e-19)
(9.95332 0.310415 -6.18272e-19)
(9.8887 0.460377 3.47722e-20)
(9.91701 0.416171 -3.6715e-21)
(9.83664 0.569576 -7.00898e-19)
(9.87053 0.525643 -6.31951e-19)
(9.77598 0.684289 6.41439e-20)
(9.81602 0.64002 -1.31047e-18)
(9.70712 0.805864 6.20682e-19)
(9.75397 0.760625 8.772e-21)
(9.63026 0.935719 -6.61523e-19)
(9.68407 0.888955 1.33262e-18)
(9.54569 1.07515 -7.04298e-19)
(9.60676 1.02642 2.04417e-18)
(9.45374 1.22534 -6.86036e-19)
(9.52255 1.17417 -2.06928e-18)
(9.35471 1.38757 -7.30162e-19)
(9.43147 1.33341 0)
(9.24891 1.56332 7.70434e-19)
(9.3339 1.50561 2.11115e-18)
(9.13663 1.75411 -2.28291e-18)
(9.23056 1.69228 2.18884e-18)
(9.01827 1.96158 1.64484e-18)
(9.12145 1.89496 -6.56674e-18)
(8.89446 2.18768 -1.66004e-18)
(9.00718 2.11543 1.17848e-17)
(8.76595 2.43451 -1.2816e-17)
(8.88875 2.35569 -1.18819e-17)
(8.63347 2.7044 8.84434e-19)
(8.76696 2.61799 -6.07592e-18)
(8.49761 3 6.79608e-18)
(8.64239 2.90493 6.11125e-18)
(8.35933 3.32456 0)
(8.51597 3.21943 5.89985e-18)
(8.21994 3.6819 7.68355e-19)
(8.38928 3.56498 -7.52547e-21)
(8.08087 4.07647 2.80345e-21)
(8.26381 3.9457 -4.34091e-18)
(7.9438 4.51363 -2.27156e-20)
(8.14147 4.36657 -1.2211e-17)
(7.81035 5.0001 1.22956e-17)
(8.02452 4.83369 1.06242e-17)
(7.68199 5.54383 1.21869e-17)
(7.91523 5.35473 2.24655e-17)
(7.55922 6.15532 -1.9801e-17)
(7.81717 5.9388 1.04449e-18)
(7.43914 6.84552 -9.91991e-18)
(7.72499 6.60136 -3.12858e-17)
(7.31234 7.63434 1.37693e-18)
(7.67565 7.34281 1.12018e-17)
(7.15773 8.52331 1.02941e-18)
(7.49944 8.25371 -9.12067e-18)
(6.89484 9.56369 2.9083e-17)
(7.77448 9.10524 1.01059e-17)
(6.32475 10.9199 3.61961e-17)
(9.98869 0.160172 -2.41772e-18)
(9.98555 0.109019 -9.65136e-20)
(9.96718 0.265941 -1.82161e-18)
(9.97727 0.216642 1.9433e-19)
(9.93629 0.373081 3.50951e-20)
(9.95675 0.324897 -9.21199e-19)
(9.89657 0.483303 -6.82007e-19)
(9.92322 0.435644 6.43414e-19)
(9.8486 0.597911 -1.25395e-18)
(9.88042 0.55021 -6.99322e-19)
(9.79283 0.718209 -1.34354e-18)
(9.83053 0.669822 0)
(9.72956 0.845622 7.42006e-19)
(9.77379 0.795909 -1.34639e-18)
(9.65911 0.981589 4.05179e-18)
(9.70995 0.929964 7.89209e-19)
(9.58194 1.12741 6.17687e-19)
(9.6397 1.07334 3.35417e-18)
(9.49838 1.28428 -1.35372e-18)
(9.56357 1.22727 -7.53104e-19)
(9.40872 1.45354 2.8724e-18)
(9.4815 1.39302 -2.6161e-18)
(9.31345 1.63668 3.53349e-18)
(9.39411 1.57198 5.52646e-18)
(9.21304 1.83525 -2.20223e-18)
(9.30218 1.76572 7.40989e-19)
(9.10799 2.05088 3.78477e-18)
(9.20589 1.97581 -2.94224e-18)
(8.99905 2.28547 1.31899e-18)
(9.106 2.20395 5.92235e-19)
(8.88706 2.54117 -5.07958e-18)
(9.00366 2.45214 2.10244e-19)
(8.77296 2.82038 -7.48776e-19)
(8.89956 2.72268 0)
(8.65779 3.12587 5.20802e-18)
(8.79477 3.01822 -7.57654e-19)
(8.54284 3.46089 5.87191e-18)
(8.69088 3.34166 6.70056e-18)
(8.42986 3.82916 -5.1371e-18)
(8.58958 3.69632 -7.6858e-21)
(8.32084 4.23529 -1.65915e-17)
(8.49293 4.08633 -5.88726e-18)
(8.21824 4.68489 -1.57376e-18)
(8.40354 4.51663 -1.10432e-17)
(8.1248 5.18501 2.07866e-17)
(8.32477 4.99343 1.01038e-17)
(8.04374 5.74447 1.1403e-17)
(8.26028 5.52443 1.10951e-17)
(7.97846 6.37569 -1.03391e-17)
(8.21646 6.11916 -1.16986e-19)
(7.93207 7.09367 -1.02415e-17)
(8.19316 6.7936 -1.10303e-17)
(7.90023 7.92865 6.05399e-19)
(8.2343 7.55577 8.78705e-19)
(7.88792 8.90956 0)
(8.20819 8.4893 0)
(7.82594 10.3985 1.74754e-17)
(8.76771 9.47989 -8.67723e-19)
(8.38831 12.0496 1.40976e-17)
(0.384922 -0.206001 4.34849e-18)
(0.153568 -0.305508 3.65779e-18)
(0.629502 -0.116124 1.29945e-19)
(0.367467 -0.176548 -9.38786e-22)
(0.806541 -0.0690533 1.35847e-18)
(0.508389 -0.115681 0)
(0.896506 -0.0322564 -6.66189e-20)
(0.548565 -0.054647 -5.53198e-18)
(0.875699 0.0105531 -1.56346e-18)
(0.485768 0.0126887 -1.47114e-18)
(0.734672 0.053366 -3.75143e-19)
(0.312963 0.0822716 5.07309e-18)
(0.485688 0.0883193 -7.4033e-19)
(0.037416 0.14622 6.33802e-19)
(0.156632 0.112988 6.71021e-19)
(-0.319256 0.197318 -1.9095e-18)
(-0.226178 0.129106 3.49786e-19)
(-0.727363 0.235427 3.13988e-18)
(-0.644159 0.138565 -6.58354e-20)
(-1.17148 0.263375 -6.5997e-19)
(-1.08154 0.142102 1.22269e-20)
(-1.63521 0.281362 5.85619e-19)
(-1.52517 0.140438 -4.37955e-19)
(-2.10602 0.290189 -5.66145e-19)
(-1.96352 0.134138 1.25417e-19)
(-2.57258 0.290411 1.84913e-20)
(-2.38618 0.123695 1.02245e-19)
(-3.02465 0.28249 -3.75818e-19)
(-2.78324 0.109547 1.02244e-19)
(-3.45271 0.266876 5.5508e-19)
(-3.14527 0.0920892 8.12713e-20)
(-3.84745 0.244029 0)
(-3.46321 0.0716631 4.88278e-20)
(-4.19994 0.214438 1.06941e-20)
(-3.72835 0.0485321 9.56935e-20)
(-4.50158 0.178579 1.18277e-19)
(-3.93241 0.0228022 9.57186e-20)
(-4.74412 0.136973 -1.52038e-19)
(-4.06769 -0.00590873 -3.48343e-20)
(-4.91926 0.0902416 7.25695e-20)
(-4.12553 -0.0390002 2.09783e-20)
(-5.01835 0.0378835 -2.40582e-20)
(-4.09373 -0.0789341 2.43541e-21)
(-5.03548 -0.0223323 4.03591e-20)
(-3.95941 -0.12719 -2.03596e-20)
(-4.96363 -0.0907123 -7.36401e-20)
(-3.70887 -0.184245 0)
(-4.78823 -0.167679 3.47523e-20)
(-3.33058 -0.252509 7.53638e-21)
(-4.50265 -0.251591 3.03139e-20)
(-2.81171 -0.340724 2.24701e-22)
(-4.09085 -0.343423 -4.70202e-21)
(-2.12408 -0.47312 -2.08501e-20)
(-3.52463 -0.453182 -2.8758e-20)
(-1.17884 -0.687663 -1.30592e-20)
(-2.80318 -0.620058 -9.70128e-21)
(0.221818 -0.865217 0)
(-2.05655 -0.915235 -1.38763e-20)
(-0.837991 -0.957906 0)
(0.115353 -0.327616 -6.50513e-19)
(0.0190355 -0.431201 5.02419e-19)
(0.227017 -0.203931 -1.31386e-19)
(0.0770421 -0.243112 -1.25963e-19)
(0.235484 -0.106131 -6.71252e-18)
(0.0629921 -0.110066 -1.42351e-17)
(0.129074 0.000651188 -7.03687e-18)
(-0.0610189 0.0217451 5.60703e-18)
(-0.0853006 0.108562 5.11962e-18)
(-0.284775 0.149051 -5.55128e-18)
(-0.391497 0.205791 6.08309e-18)
(-0.59923 0.268578 1.68372e-17)
(-0.769429 0.286426 -5.51144e-19)
(-0.987101 0.374176 -4.51942e-18)
(-1.20052 0.349491 6.04444e-19)
(-1.42826 0.460134 -2.11432e-18)
(-1.66781 0.396826 2.09863e-18)
(-1.90537 0.525612 6.30307e-18)
(-2.15537 0.42996 0)
(-2.40389 0.572142 -4.54508e-18)
(-2.65084 0.449768 0)
(-2.91176 0.600664 -4.5897e-19)