/*--------------------------------*- C++ -*----------------------------------*\
| =========                 |                                                 |
| \\      /  F ield         | OpenFOAM: The Open Source CFD Toolbox           |
|  \\    /   O peration     | Version:  5.x                                   |
|   \\  /    A nd           | Web:      www.OpenFOAM.org                      |
|    \\/     M anipulation  |                                                 |
\*---------------------------------------------------------------------------*/
FoamFile
{
    version     2.0;
    format      ascii;
    class       volVectorField;
    location    "0.6";
    object      U;
}
// * * * * * * * * * * * * * * * * * * * * * * * * * * * * * * * * * * * * * //

dimensions      [0 1 -1 0 0 0 0];

internalField   nonuniform List<vector> 
12013
(
(0.1 5.4919e-07 0)
(0.099988 2.8272e-06 0)
(0.0999422 6.72094e-06 0)
(0.0998516 1.12089e-05 0)
(0.0997187 1.49942e-05 0)
(0.0995581 1.72515e-05 0)
(0.0993874 1.79185e-05 0)
(0.0992206 1.74889e-05 0)
(0.0990645 1.66063e-05 0)
(0.0989201 1.57662e-05 0)
(0.098785 1.52162e-05 0)
(0.0986559 1.50015e-05 0)
(0.09853 1.50553e-05 0)
(0.0984054 1.52816e-05 0)
(0.098281 1.55945e-05 0)
(0.0981566 1.59371e-05 0)
(0.0980322 1.62774e-05 0)
(0.0979078 1.66e-05 0)
(0.0977838 1.69013e-05 0)
(0.0976603 1.71803e-05 0)
(0.0975377 1.74386e-05 0)
(0.0974159 1.76773e-05 0)
(0.0972953 1.78966e-05 0)
(0.097176 1.80955e-05 0)
(0.0970581 1.82718e-05 0)
(0.0969419 1.84235e-05 0)
(0.0968274 1.8548e-05 0)
(0.096715 1.86423e-05 0)
(0.0966047 1.87038e-05 0)
(0.0964967 1.87306e-05 0)
(0.0963913 1.87208e-05 0)
(0.0962887 1.86746e-05 0)
(0.0961889 1.85919e-05 0)
(0.0960922 1.8475e-05 0)
(0.0959987 1.83265e-05 0)
(0.0959085 1.81508e-05 0)
(0.0958216 1.79545e-05 0)
(0.095738 1.77445e-05 0)
(0.0956578 1.75293e-05 0)
(0.0955809 1.73199e-05 0)
(0.0955071 1.71274e-05 0)
(0.0954363 1.69657e-05 0)
(0.0953682 1.68495e-05 0)
(0.0953025 1.67955e-05 0)
(0.0952389 1.68217e-05 0)
(0.095177 1.69487e-05 0)
(0.0951162 1.71991e-05 0)
(0.0950561 1.75975e-05 0)
(0.0949959 1.81724e-05 0)
(0.0949349 1.89553e-05 0)
(0.0948724 1.99821e-05 0)
(0.0948074 2.12942e-05 0)
(0.094739 2.29386e-05 0)
(0.094666 2.49709e-05 0)
(0.0945871 2.74563e-05 0)
(0.0945008 3.0472e-05 0)
(0.0944056 3.41104e-05 0)
(0.0942996 3.84825e-05 0)
(0.0941806 4.37248e-05 0)
(0.0940461 5.00027e-05 0)
(0.0938932 5.75222e-05 0)
(0.0937184 6.65404e-05 0)
(0.0935177 7.73814e-05 0)
(0.0932863 9.04577e-05 0)
(0.0930181 0.000106302 0)
(0.0927059 0.00012561 0)
(0.0923408 0.000149302 0)
(0.0919115 0.000178615 0)
(0.0914036 0.000215241 0)
(0.0907987 0.000261535 0)
(0.0900725 0.000320842 0)
(0.0891925 0.000398011 0)
(0.0881143 0.00050023 0)
(0.0867763 0.000638399 0)
(0.0850909 0.000829448 0)
(0.0829312 0.00110028 0)
(0.0801094 0.00149467 0)
(0.0763283 0.00208757 0)
(0.0711251 0.00303004 0)
(0.0639528 0.00474421 0)
(0.0558822 0.00913073 0)
(0.100001 1.64484e-06 0)
(0.0999888 8.6127e-06 0)
(0.099944 2.05418e-05 0)
(0.0998545 3.43086e-05 0)
(0.0997228 4.59359e-05 0)
(0.0995632 5.28849e-05 0)
(0.0993932 5.49584e-05 0)
(0.0992268 5.36636e-05 0)
(0.0990708 5.09718e-05 0)
(0.0989264 4.84027e-05 0)
(0.0987912 4.67181e-05 0)
(0.0986621 4.6057e-05 0)
(0.0985361 4.62187e-05 0)
(0.0984115 4.69074e-05 0)
(0.0982872 4.78634e-05 0)
(0.0981628 4.89111e-05 0)
(0.0980385 4.99519e-05 0)
(0.0979143 5.09402e-05 0)
(0.0977904 5.18628e-05 0)
(0.0976671 5.27184e-05 0)
(0.0975446 5.35114e-05 0)
(0.097423 5.42448e-05 0)
(0.0973026 5.49187e-05 0)
(0.0971834 5.55299e-05 0)
(0.0970656 5.60734e-05 0)
(0.0969495 5.65419e-05 0)
(0.0968351 5.69274e-05 0)
(0.0967226 5.72209e-05 0)
(0.0966123 5.74142e-05 0)
(0.0965044 5.75017e-05 0)
(0.0963989 5.7479e-05 0)
(0.0962961 5.73446e-05 0)
(0.0961962 5.70999e-05 0)
(0.0960993 5.67499e-05 0)
(0.0960055 5.63045e-05 0)
(0.0959149 5.57778e-05 0)
(0.0958276 5.51879e-05 0)
(0.0957436 5.45567e-05 0)
(0.0956628 5.39115e-05 0)
(0.0955853 5.32844e-05 0)
(0.0955108 5.2711e-05 0)
(0.0954392 5.2232e-05 0)
(0.0953702 5.18936e-05 0)
(0.0953036 5.17469e-05 0)
(0.095239 5.18479e-05 0)
(0.095176 5.22581e-05 0)
(0.0951141 5.30466e-05 0)
(0.0950526 5.42904e-05 0)
(0.0949911 5.60759e-05 0)
(0.0949288 5.84993e-05 0)
(0.0948649 6.167e-05 0)
(0.0947985 6.57142e-05 0)
(0.0947286 7.07765e-05 0)
(0.094654 7.70258e-05 0)
(0.0945736 8.46604e-05 0)
(0.0944859 9.39157e-05 0)
(0.0943893 0.000105073 0)
(0.0942819 0.00011847 0)
(0.0941617 0.000134518 0)
(0.0940263 0.000153721 0)
(0.0938727 0.0001767 0)
(0.0936978 0.000204232 0)
(0.0934975 0.00023729 0)
(0.0932673 0.000277116 0)
(0.0930015 0.000325302 0)
(0.0926933 0.00038392 0)
(0.0923343 0.0004557 0)
(0.0919142 0.000544293 0)
(0.0914201 0.000654655 0)
(0.0908353 0.000793627 0)
(0.0901389 0.00097082 0)
(0.0893031 0.00119998 0)
(0.0882919 0.00150115 0)
(0.087057 0.00190401 0)
(0.0855343 0.00245326 0)
(0.0836389 0.00321685 0)
(0.0812603 0.00429783 0)
(0.0782535 0.00585038 0)
(0.0744575 0.00810045 0)
(0.0699271 0.0113094 0)
(0.0659686 0.0153346 0)
(0.100001 2.69138e-06 0)
(0.0999899 1.45742e-05 0)
(0.0999469 3.49819e-05 0)
(0.0998599 5.86067e-05 0)
(0.0997311 7.86316e-05 0)
(0.0995739 9.06783e-05 0)
(0.0994058 9.43719e-05 0)
(0.0992404 9.22638e-05 0)
(0.0990848 8.77212e-05 0)
(0.0989403 8.33506e-05 0)
(0.0988049 8.04672e-05 0)
(0.0986755 7.93209e-05 0)
(0.0985494 7.95794e-05 0)
(0.0984247 8.07398e-05 0)
(0.0983005 8.2362e-05 0)
(0.0981764 8.4146e-05 0)
(0.0980523 8.59224e-05 0)
(0.0979285 8.76134e-05 0)
(0.097805 8.91938e-05 0)
(0.0976821 9.06628e-05 0)
(0.09756 9.20267e-05 0)
(0.0974388 9.32902e-05 0)
(0.0973187 9.44536e-05 0)
(0.0971999 9.55113e-05 0)
(0.0970824 9.64548e-05 0)
(0.0969666 9.72719e-05 0)
(0.0968525 9.79484e-05 0)
(0.0967402 9.84697e-05 0)
(0.0966301 9.88222e-05 0)
(0.0965222 9.89956e-05 0)
(0.0964168 9.89832e-05 0)
(0.0963139 9.87821e-05 0)
(0.0962138 9.83955e-05 0)
(0.0961166 9.78324e-05 0)
(0.0960224 9.71096e-05 0)
(0.0959313 9.62512e-05 0)
(0.0958434 9.52876e-05 0)
(0.0957586 9.42576e-05 0)
(0.0956769 9.32085e-05 0)
(0.0955983 9.2194e-05 0)
(0.0955226 9.12756e-05 0)
(0.0954496 9.05239e-05 0)
(0.0953791 9.00171e-05 0)
(0.0953108 8.98424e-05 0)
(0.0952444 9.00965e-05 0)
(0.0951794 9.08848e-05 0)
(0.0951153 9.2325e-05 0)
(0.0950516 9.45492e-05 0)
(0.0949877 9.77043e-05 0)
(0.0949229 0.000101955 0)
(0.0948563 0.000107487 0)
(0.0947872 0.000114516 0)
(0.0947144 0.000123287 0)
(0.0946371 0.000134087 0)
(0.0945538 0.000147252 0)
(0.0944633 0.00016318 0)
(0.0943639 0.000182344 0)
(0.094254 0.000205315 0)
(0.0941316 0.00023278 0)
(0.0939942 0.000265583 0)
(0.0938393 0.000304761 0)
(0.0936638 0.000351599 0)
(0.093464 0.000407709 0)
(0.0932357 0.000475125 0)
(0.0929739 0.000556448 0)
(0.0926723 0.000655027 0)
(0.0923239 0.000775241 0)
(0.0919196 0.00092287 0)
(0.0914488 0.00110566 0)
(0.0908983 0.0013341 0)
(0.0902519 0.00162264 0)
(0.0894896 0.00199138 0)
(0.0885874 0.00246861 0)
(0.0875165 0.00309443 0)
(0.0862439 0.00392572 0)
(0.0847362 0.00504205 0)
(0.0829676 0.00655054 0)
(0.0809365 0.00858301 0)
(0.0787089 0.0112707 0)
(0.0765496 0.0146222 0)
(0.0751644 0.0180331 0)
(0.100001 3.64553e-06 0)
(0.0999912 2.05762e-05 0)
(0.099951 4.97954e-05 0)
(0.099868 8.37854e-05 0)
(0.0997438 0.000112774 0)
(0.0995909 0.000130413 0)
(0.0994259 0.000136072 0)
(0.0992623 0.000133334 0)
(0.0991074 0.000126996 0)
(0.0989628 0.000120803 0)
(0.098827 0.000116671 0)
(0.0986972 0.000114991 0)
(0.0985709 0.000115312 0)
(0.0984462 0.000116929 0)
(0.0983222 0.000119219 0)
(0.0981984 0.000121753 0)
(0.0980748 0.000124288 0)
(0.0979516 0.000126709 0)
(0.0978287 0.00012898 0)
(0.0977065 0.000131097 0)
(0.0975851 0.000133067 0)
(0.0974647 0.000134897 0)
(0.0973453 0.000136587 0)
(0.0972271 0.000138129 0)
(0.0971104 0.00013951 0)
(0.0969951 0.000140713 0)
(0.0968815 0.000141719 0)
(0.0967698 0.000142507 0)
(0.0966601 0.000143057 0)
(0.0965525 0.000143356 0)
(0.0964472 0.000143394 0)
(0.0963445 0.000143168 0)
(0.0962443 0.000142682 0)
(0.0961469 0.00014195 0)
(0.0960524 0.000140997 0)
(0.0959608 0.000139857 0)
(0.0958721 0.000138575 0)
(0.0957864 0.000137206 0)
(0.0957037 0.000135819 0)
(0.0956237 0.00013449 0)
(0.0955465 0.000133309 0)
(0.0954718 0.000132377 0)
(0.0953993 0.000131807 0)
(0.0953288 0.000131723 0)
(0.09526 0.000132264 0)
(0.0951924 0.000133582 0)
(0.0951255 0.000135846 0)
(0.0950587 0.000139244 0)
(0.0949916 0.000143986 0)
(0.0949234 0.000150308 0)
(0.0948533 0.000158476 0)
(0.0947805 0.000168794 0)
(0.0947041 0.000181612 0)
(0.094623 0.000197336 0)
(0.094536 0.00021644 0)
(0.0944419 0.000239486 0)
(0.0943391 0.000267137 0)
(0.0942261 0.00030019 0)
(0.0941009 0.000339607 0)
(0.0939615 0.000386553 0)
(0.0938054 0.00044246 0)
(0.0936298 0.000509088 0)
(0.0934317 0.00058863 0)
(0.0932072 0.000683832 0)
(0.092952 0.000798161 0)
(0.0926613 0.000936045 0)
(0.0923291 0.00110318 0)
(0.0919487 0.00130696 0)
(0.0915123 0.0015571 0)
(0.0910108 0.00186643 0)
(0.0904341 0.00225211 0)
(0.0897713 0.0027371 0)
(0.0890115 0.00335225 0)
(0.0881452 0.00413872 0)
(0.0871682 0.0051504 0)
(0.0860878 0.00645487 0)
(0.084934 0.008129 0)
(0.0837761 0.0102409 0)
(0.0827466 0.0128027 0)
(0.0820677 0.0156551 0)
(0.0820148 0.018215 0)
(0.100001 4.46559e-06 0)
(0.0999929 2.64426e-05 0)
(0.0999562 6.46551e-05 0)
(0.0998789 0.000109412 0)
(0.0997612 0.000147926 0)
(0.0996144 0.000171757 0)
(0.0994539 0.000179891 0)
(0.0992929 0.000176871 0)
(0.099139 0.000168917 0)
(0.0989944 0.000160952 0)
(0.0988582 0.000155543 0)
(0.0987279 0.000153269 0)
(0.0986012 0.000153591 0)
(0.0984766 0.000155617 0)
(0.0983529 0.000158546 0)
(0.0982297 0.00016182 0)
(0.0981069 0.000165117 0)
(0.0979845 0.000168285 0)
(0.0978627 0.000171268 0)
(0.0977415 0.00017406 0)
(0.0976212 0.000176668 0)
(0.0975018 0.000179099 0)
(0.0973835 0.00018135 0)
(0.0972664 0.000183414 0)
(0.0971507 0.000185273 0)
(0.0970364 0.000186904 0)
(0.0969238 0.000188282 0)
(0.0968129 0.000189381 0)
(0.0967039 0.000190179 0)
(0.0965969 0.000190655 0)
(0.0964922 0.000190798 0)
(0.0963898 0.000190605 0)
(0.0962899 0.000190083 0)
(0.0961925 0.000189252 0)
(0.0960978 0.000188144 0)
(0.0960058 0.000186804 0)
(0.0959165 0.000185292 0)
(0.0958299 0.000183682 0)
(0.095746 0.000182064 0)
(0.0956647 0.000180538 0)
(0.0955858 0.000179225 0)
(0.0955091 0.000178254 0)
(0.0954344 0.000177777 0)
(0.0953615 0.000177956 0)
(0.0952899 0.000178973 0)
(0.0952192 0.000181027 0)
(0.0951491 0.000184342 0)
(0.0950789 0.000189162 0)
(0.095008 0.000195762 0)
(0.0949359 0.00020445 0)
(0.0948618 0.000215571 0)
(0.0947849 0.000229521 0)
(0.0947043 0.000246752 0)
(0.094619 0.000267787 0)
(0.0945279 0.000293237 0)
(0.0944299 0.000323819 0)
(0.0943236 0.000360378 0)
(0.0942074 0.000403924 0)
(0.0940798 0.000455668 0)
(0.0939389 0.00051707 0)
(0.0937825 0.000589905 0)
(0.0936084 0.000676344 0)
(0.0934139 0.000779057 0)
(0.093196 0.000901355 0)
(0.0929515 0.00104736 0)
(0.0926766 0.00122226 0)
(0.0923673 0.00143258 0)
(0.0920192 0.00168664 0)
(0.0916277 0.00199506 0)
(0.0911884 0.00237144 0)
(0.0906973 0.00283325 0)
(0.0901519 0.00340282 0)
(0.0895528 0.00410845 0)
(0.0889059 0.00498519 0)
(0.0882263 0.00607465 0)
(0.0875441 0.00742205 0)
(0.0869118 0.00906733 0)
(0.0864119 0.0110245 0)
(0.0861601 0.013241 0)
(0.0862895 0.0155303 0)
(0.0868779 0.0174856 0)
(0.100001 5.09672e-06 0)
(0.0999948 3.19692e-05 0)
(0.0999626 7.91746e-05 0)
(0.0998922 0.000134966 0)
(0.0997828 0.000183551 0)
(0.0996438 0.000214279 0)
(0.0994893 0.000225579 0)
(0.0993319 0.000222819 0)
(0.0991796 0.00021358 0)
(0.0990352 0.00020398 0)
(0.0988985 0.000197297 0)
(0.0987677 0.000194359 0)
(0.0986408 0.000194589 0)
(0.0985162 0.000196941 0)
(0.098393 0.000200447 0)
(0.0982706 0.000204422 0)
(0.0981489 0.000208463 0)
(0.0980277 0.000212373 0)
(0.0979072 0.000216079 0)
(0.0977875 0.000219565 0)
(0.0976687 0.000222835 0)
(0.0975508 0.000225895 0)
(0.097434 0.000228742 0)
(0.0973184 0.000231363 0)
(0.0972041 0.000233738 0)
(0.0970912 0.00023584 0)
(0.0969799 0.000237639 0)
(0.0968703 0.000239102 0)
(0.0967625 0.000240202 0)
(0.0966566 0.000240917 0)
(0.0965527 0.000241235 0)
(0.096451 0.000241152 0)
(0.0963516 0.00024068 0)
(0.0962546 0.000239842 0)
(0.0961599 0.000238681 0)
(0.0960677 0.000237255 0)
(0.095978 0.000235638 0)
(0.0958907 0.000233923 0)
(0.0958058 0.000232222 0)
(0.0957231 0.000230662 0)
(0.0956426 0.000229392 0)
(0.095564 0.000228575 0)
(0.095487 0.000228397 0)
(0.0954115 0.000229062 0)
(0.095337 0.000230794 0)
(0.0952632 0.000233844 0)
(0.0951896 0.000238485 0)
(0.0951157 0.000245021 0)
(0.095041 0.000253791 0)
(0.0949648 0.000265173 0)
(0.0948865 0.000279591 0)
(0.0948054 0.000297529 0)
(0.0947205 0.000319538 0)
(0.094631 0.000346251 0)
(0.094536 0.000378405 0)
(0.0944343 0.000416859 0)
(0.0943248 0.000462622 0)
(0.0942062 0.00051689 0)
(0.094077 0.000581085 0)
(0.0939358 0.000656907 0)
(0.0937808 0.000746405 0)
(0.0936103 0.000852053 0)
(0.0934223 0.000976858 0)
(0.0932145 0.00112449 0)
(0.092985 0.00129944 0)
(0.0927313 0.00150725 0)
(0.0924514 0.00175472 0)
(0.0921433 0.0020503 0)
(0.0918056 0.00240441 0)
(0.091438 0.00282987 0)
(0.091042 0.00334242 0)
(0.0906215 0.00396106 0)
(0.0901853 0.0047082 0)
(0.0897484 0.00560922 0)
(0.0893353 0.00669061 0)
(0.088983 0.00797564 0)
(0.0887445 0.0094755 0)
(0.0886883 0.0111735 0)
(0.0888927 0.0130008 0)
(0.0894231 0.0148062 0)
(0.0902814 0.0163381 0)
(0.100002 5.47924e-06 0)
(0.0999969 3.69403e-05 0)
(0.0999697 9.29382e-05 0)
(0.0999075 0.000159874 0)
(0.0998079 0.000219037 0)
(0.0996783 0.000257464 0)
(0.0995312 0.000272812 0)
(0.0993784 0.000271056 0)
(0.0992283 0.00026103 0)
(0.0990844 0.000250036 0)
(0.0989475 0.000242122 0)
(0.0988163 0.000238448 0)
(0.0986892 0.000238469 0)
(0.0985649 0.000241027 0)
(0.0984424 0.00024501 0)
(0.0983211 0.000249614 0)
(0.0982007 0.000254354 0)
(0.0980811 0.000258986 0)
(0.0979624 0.000263409 0)
(0.0978445 0.000267595 0)
(0.0977275 0.000271542 0)
(0.0976115 0.000275254 0)
(0.0974967 0.000278724 0)
(0.097383 0.000281936 0)
(0.0972706 0.000284866 0)
(0.0971596 0.000287482 0)
(0.0970501 0.00028975 0)
(0.0969421 0.000291633 0)
(0.0968359 0.0002931 0)
(0.0967314 0.000294128 0)
(0.0966289 0.000294703 0)
(0.0965283 0.000294824 0)
(0.0964298 0.000294506 0)
(0.0963334 0.000293779 0)
(0.0962391 0.000292697 0)
(0.096147 0.000291328 0)
(0.0960571 0.000289765 0)
(0.0959694 0.00028812 0)
(0.0958836 0.000286526 0)
(0.0957998 0.000285137 0)
(0.0957178 0.000284131 0)
(0.0956373 0.000283705 0)
(0.0955582 0.00028408 0)
(0.0954802 0.0002855 0)
(0.0954029 0.000288234 0)
(0.0953259 0.000292578 0)
(0.095249 0.00029886 0)
(0.0951715 0.000307439 0)
(0.0950929 0.000318715 0)
(0.0950128 0.000333134 0)
(0.0949305 0.000351195 0)
(0.0948453 0.000373461 0)
(0.0947564 0.000400574 0)
(0.0946632 0.000433267 0)
(0.0945647 0.000472385 0)
(0.0944601 0.000518907 0)
(0.0943483 0.000573977 0)
(0.0942284 0.000638935 0)
(0.0940992 0.00071536 0)
(0.0939595 0.00080512 0)
(0.0938082 0.000910438 0)
(0.0936439 0.00103396 0)
(0.0934655 0.00117884 0)
(0.0932717 0.00134888 0)
(0.0930616 0.00154862 0)
(0.0928342 0.00178351 0)
(0.0925893 0.00206008 0)
(0.092327 0.00238613 0)
(0.0920489 0.00277093 0)
(0.0917578 0.00322538 0)
(0.0914589 0.00376207 0)
(0.0911605 0.00439521 0)
(0.0908755 0.00514013 0)
(0.0906224 0.00601216 0)
(0.0904271 0.00702436 0)
(0.090324 0.00818355 0)
(0.0903556 0.00948381 0)
(0.0905701 0.010897 0)
(0.091013 0.0123609 0)
(0.0917104 0.0137698 0)
(0.0926426 0.0149762 0)
(0.100002 5.55771e-06 0)
(0.099999 4.11523e-05 0)
(0.0999773 0.000105543 0)
(0.099924 0.00018356 0)
(0.0998353 0.000253748 0)
(0.0997163 0.000300749 0)
(0.0995777 0.00032119 0)
(0.0994307 0.000321382 0)
(0.0992835 0.000311237 0)
(0.0991408 0.000299205 0)
(0.0990039 0.000290161 0)
(0.0988726 0.00028569 0)
(0.0987457 0.000285364 0)
(0.0986219 0.000287975 0)
(0.0985003 0.000292301 0)
(0.0983804 0.000297432 0)
(0.0982617 0.000302802 0)
(0.098144 0.000308111 0)
(0.0980273 0.000313229 0)
(0.0979116 0.000318108 0)
(0.0977969 0.000322739 0)
(0.0976833 0.000327116 0)
(0.0975708 0.000331231 0)
(0.0974594 0.000335063 0)
(0.0973493 0.000338584 0)
(0.0972406 0.000341757 0)
(0.0971333 0.000344545 0)
(0.0970274 0.000346909 0)
(0.0969232 0.000348815 0)
(0.0968205 0.000350238 0)
(0.0967197 0.000351166 0)
(0.0966205 0.000351601 0)
(0.0965233 0.000351561 0)
(0.0964279 0.000351087 0)
(0.0963344 0.00035024 0)
(0.0962427 0.000349105 0)
(0.096153 0.000347788 0)
(0.096065 0.000346422 0)
(0.0959787 0.000345163 0)
(0.0958939 0.000344191 0)
(0.0958106 0.00034371 0)
(0.0957286 0.000343953 0)
(0.0956475 0.000345175 0)
(0.0955671 0.000347658 0)
(0.0954872 0.000351714 0)
(0.0954074 0.000357684 0)
(0.0953273 0.000365943 0)
(0.0952464 0.000376906 0)
(0.0951644 0.000391028 0)
(0.0950807 0.000408817 0)
(0.0949948 0.000430838 0)
(0.094906 0.000457724 0)
(0.0948139 0.000490191 0)
(0.0947176 0.000529056 0)
(0.0946167 0.000575246 0)
(0.0945102 0.000629833 0)
(0.0943975 0.000694051 0)
(0.0942778 0.000769332 0)
(0.0941504 0.000857343 0)
(0.0940144 0.000960032 0)
(0.0938692 0.00107968 0)
(0.0937141 0.00121894 0)
(0.0935486 0.00138095 0)
(0.0933725 0.00156935 0)
(0.0931857 0.00178844 0)
(0.0929887 0.00204317 0)
(0.0927827 0.0023393 0)
(0.0925697 0.00268344 0)
(0.0923532 0.00308304 0)
(0.0921381 0.00354639 0)
(0.0919317 0.0040824 0)
(0.0917443 0.00470023 0)
(0.0915896 0.00540855 0)
(0.0914855 0.00621432 0)
(0.0914547 0.00712086 0)
(0.0915243 0.00812499 0)
(0.0917244 0.00921318 0)
(0.0920851 0.0103568 0)
(0.0926297 0.0115078 0)
(0.0933654 0.0125971 0)
(0.0942706 0.0135405 0)
(0.100002 5.29187e-06 0)
(0.100001 4.44432e-05 0)
(0.0999848 0.000116649 0)
(0.0999406 0.000205516 0)
(0.0998632 0.000287085 0)
(0.0997557 0.000343561 0)
(0.0996267 0.000370263 0)
(0.0994862 0.000373512 0)
(0.0993429 0.000364076 0)
(0.0992021 0.00035148 0)
(0.099066 0.000341476 0)
(0.0989351 0.000336172 0)
(0.0988086 0.000335359 0)
(0.0986857 0.000337851 0)
(0.0985654 0.000342362 0)
(0.0984471 0.000347891 0)
(0.0983304 0.000353795 0)
(0.098215 0.000359719 0)
(0.0981007 0.000365492 0)
(0.0979876 0.000371046 0)
(0.0978755 0.000376355 0)
(0.0977645 0.000381405 0)
(0.0976547 0.000386181 0)
(0.0975461 0.000390657 0)
(0.0974387 0.000394802 0)
(0.0973325 0.000398576 0)
(0.0972277 0.000401939 0)
(0.0971243 0.000404848 0)
(0.0970224 0.000407271 0)
(0.096922 0.000409183 0)
(0.0968231 0.000410573 0)
(0.0967258 0.000411446 0)
(0.0966301 0.00041183 0)
(0.096536 0.000411772 0)
(0.0964435 0.000411344 0)
(0.0963526 0.000410644 0)
(0.0962632 0.000409797 0)
(0.0961752 0.000408953 0)
(0.0960886 0.00040829 0)
(0.0960033 0.000408013 0)
(0.095919 0.000408357 0)
(0.0958355 0.00040958 0)
(0.0957528 0.000411973 0)
(0.0956704 0.000415854 0)
(0.0955882 0.000421573 0)
(0.0955059 0.000429513 0)
(0.095423 0.000440094 0)
(0.0953392 0.000453776 0)
(0.0952542 0.000471064 0)
(0.0951675 0.000492517 0)
(0.0950786 0.000518753 0)
(0.0949872 0.000550462 0)
(0.0948926 0.000588417 0)
(0.0947944 0.000633487 0)
(0.0946921 0.000686657 0)
(0.0945852 0.000749046 0)
(0.0944732 0.000821933 0)
(0.0943556 0.000906779 0)
(0.094232 0.00100526 0)
(0.0941021 0.0011193 0)
(0.0939656 0.0012511 0)
(0.0938225 0.00140321 0)
(0.0936729 0.0015785 0)
(0.0935174 0.00178029 0)
(0.093357 0.00201231 0)
(0.093193 0.00227873 0)
(0.0930279 0.00258421 0)
(0.0928647 0.0029338 0)
(0.0927082 0.00333288 0)
(0.0925641 0.00378698 0)
(0.0924405 0.00430146 0)
(0.0923476 0.00488103 0)
(0.0922977 0.0055291 0)
(0.0923062 0.00624671 0)
(0.0923904 0.00703128 0)
(0.0925696 0.00787485 0)
(0.092863 0.00876223 0)
(0.0932875 0.00966916 0)
(0.0938536 0.0105613 0)
(0.0945602 0.0113952 0)
(0.09539 0.0121229 0)
(0.100002 4.66314e-06 0)
(0.100003 4.67156e-05 0)
(0.0999917 0.00012603 0)
(0.0999562 0.000225363 0)
(0.0998901 0.00031856 0)
(0.0997943 0.00038538 0)
(0.0996754 0.000419564 0)
(0.0995425 0.000427088 0)
(0.099404 0.000419314 0)
(0.099266 0.000406741 0)
(0.0991314 0.000396026 0)
(0.0990015 0.0003899 0)
(0.0988761 0.000388477 0)
(0.0987545 0.000390678 0)
(0.0986358 0.000395201 0)
(0.0985195 0.000400982 0)
(0.0984051 0.000407309 0)
(0.0982922 0.000413768 0)
(0.0981807 0.000420145 0)
(0.0980704 0.000426342 0)
(0.0979612 0.000432316 0)
(0.0978532 0.000438039 0)
(0.0977464 0.000443488 0)
(0.0976407 0.000448632 0)
(0.0975362 0.000453434 0)
(0.097433 0.000457854 0)
(0.097331 0.000461848 0)
(0.0972303 0.000465375 0)
(0.097131 0.000468402 0)
(0.0970329 0.000470905 0)
(0.0969363 0.000472879 0)
(0.096841 0.000474334 0)
(0.0967471 0.000475303 0)
(0.0966546 0.000475845 0)
(0.0965633 0.000476042 0)
(0.0964733 0.000476007 0)
(0.0963846 0.000475878 0)
(0.0962969 0.000475827 0)
(0.0962103 0.00047605 0)
(0.0961245 0.000476776 0)
(0.0960395 0.000478265 0)
(0.095955 0.000480803 0)
(0.0958709 0.00048471 0)
(0.0957869 0.000490337 0)
(0.0957028 0.000498066 0)
(0.0956184 0.000508318 0)
(0.0955333 0.000521547 0)
(0.0954472 0.000538252 0)
(0.0953598 0.000558977 0)
(0.0952708 0.000584318 0)
(0.0951799 0.000614932 0)
(0.0950867 0.000651543 0)
(0.0949908 0.000694955 0)
(0.0948919 0.000746065 0)
(0.0947897 0.000805874 0)
(0.0946839 0.000875506 0)
(0.0945743 0.000956224 0)
(0.0944607 0.00104945 0)
(0.0943431 0.00115679 0)
(0.0942214 0.00128004 0)
(0.094096 0.00142122 0)
(0.0939673 0.00158259 0)
(0.0938361 0.00176667 0)
(0.0937035 0.0019762 0)
(0.0935711 0.00221419 0)
(0.0934411 0.00248387 0)
(0.0933164 0.0027886 0)
(0.0932009 0.00313183 0)
(0.0930995 0.0035169 0)
(0.0930182 0.00394682 0)
(0.0929644 0.004424 0)
(0.0929471 0.00494979 0)
(0.0929764 0.00552396 0)
(0.0930639 0.00614404 0)
(0.093222 0.00680455 0)
(0.093463 0.00749621 0)
(0.0937981 0.00820519 0)
(0.0942357 0.00891271 0)
(0.0947793 0.00959524 0)
(0.0954251 0.0102259 0)
(0.0961603 0.010777 0)
(0.100002 3.67919e-06 0)
(0.100005 4.79534e-05 0)
(0.0999976 0.000133597 0)
(0.0999701 0.000242901 0)
(0.0999145 0.000347843 0)
(0.09983 0.000425785 0)
(0.0997214 0.000468642 0)
(0.0995967 0.000481693 0)
(0.0994641 0.000476612 0)
(0.0993298 0.000464743 0)
(0.0991978 0.000453652 0)
(0.0990697 0.000446779 0)
(0.098946 0.000444664 0)
(0.0988261 0.000446421 0)
(0.0987095 0.000450789 0)
(0.0985956 0.000456674 0)
(0.0984838 0.000463304 0)
(0.0983737 0.000470209 0)
(0.0982651 0.000477129 0)
(0.0981578 0.000483934 0)
(0.0980518 0.000490553 0)
(0.0979469 0.000496947 0)
(0.0978433 0.000503079 0)
(0.0977408 0.000508914 0)
(0.0976394 0.000514411 0)
(0.0975392 0.000519526 0)
(0.0974402 0.000524215 0)
(0.0973424 0.000528439 0)
(0.0972457 0.000532166 0)
(0.0971503 0.000535378 0)
(0.097056 0.000538072 0)
(0.0969629 0.000540266 0)
(0.0968709 0.000542003 0)
(0.0967801 0.000543348 0)
(0.0966902 0.000544397 0)
(0.0966013 0.000545276 0)
(0.0965134 0.000546138 0)
(0.0964262 0.000547169 0)
(0.0963397 0.000548587 0)
(0.0962538 0.000550641 0)
(0.0961683 0.00055361 0)
(0.0960831 0.000557806 0)
(0.095998 0.000563573 0)
(0.0959128 0.000571288 0)
(0.0958273 0.000581361 0)
(0.0957413 0.000594238 0)
(0.0956545 0.000610403 0)
(0.0955668 0.000630378 0)
(0.0954778 0.000654734 0)
(0.0953875 0.000684087 0)
(0.0952954 0.000719111 0)
(0.0952015 0.000760543 0)
(0.0951055 0.00080919 0)
(0.0950073 0.000865938 0)
(0.0949067 0.000931768 0)
(0.0948037 0.00100776 0)
(0.0946982 0.0010951 0)
(0.0945905 0.00119511 0)
(0.0944808 0.00130923 0)
(0.0943694 0.00143906 0)
(0.0942571 0.00158634 0)
(0.0941446 0.00175292 0)
(0.0940332 0.00194084 0)
(0.0939244 0.00215219 0)
(0.0938203 0.00238918 0)
(0.0937234 0.002654 0)
(0.0936369 0.00294879 0)
(0.0935647 0.00327547 0)
(0.0935114 0.00363563 0)
(0.0934825 0.00403031 0)
(0.0934843 0.00445972 0)
(0.0935238 0.00492298 0)
(0.0936089 0.00541775 0)
(0.0937475 0.00593987 0)
(0.0939476 0.00648304 0)
(0.0942166 0.00703848 0)
(0.0945601 0.00759484 0)
(0.0949818 0.00813831 0)
(0.0954816 0.0086531 0)
(0.0960551 0.00912252 0)
(0.096693 0.00953052 0)
(0.100002 2.3725e-06 0)
(0.100006 4.82206e-05 0)
(0.100002 0.000139412 0)
(0.0999815 0.000258122 0)
(0.0999353 0.000374801 0)
(0.0998614 0.000464495 0)
(0.099763 0.000517104 0)
(0.0996469 0.00053689 0)
(0.0995208 0.000535554 0)
(0.0993914 0.000525132 0)
(0.0992628 0.000514083 0)
(0.0991375 0.000506616 0)
(0.0990161 0.000503788 0)
(0.0988986 0.000504989 0)
(0.0987845 0.000509061 0)
(0.0986733 0.000514912 0)
(0.0985643 0.00052173 0)
(0.0984572 0.000528993 0)
(0.0983517 0.000536395 0)
(0.0982477 0.000543767 0)
(0.0981449 0.000551013 0)
(0.0980434 0.000558075 0)
(0.097943 0.000564905 0)
(0.0978437 0.00057146 0)
(0.0977456 0.000577694 0)
(0.0976485 0.000583562 0)
(0.0975525 0.000589021 0)
(0.0974576 0.000594034 0)
(0.0973637 0.000598572 0)
(0.0972709 0.000602622 0)
(0.097179 0.000606189 0)
(0.0970881 0.000609297 0)
(0.0969981 0.000611997 0)
(0.096909 0.000614367 0)
(0.0968206 0.000616512 0)
(0.0967329 0.000618569 0)
(0.0966458 0.000620706 0)
(0.0965593 0.000623123 0)
(0.0964732 0.000626054 0)
(0.0963873 0.000629763 0)
(0.0963017 0.000634548 0)
(0.096216 0.000640739 0)
(0.0961303 0.000648698 0)
(0.0960443 0.000658819 0)
(0.0959578 0.000671533 0)
(0.0958708 0.0006873 0)
(0.0957831 0.000706621 0)
(0.0956945 0.000730029 0)
(0.0956048 0.000758102 0)
(0.095514 0.000791459 0)
(0.0954219 0.00083077 0)
(0.0953285 0.000876754 0)
(0.0952337 0.000930192 0)
(0.0951375 0.000991926 0)
(0.09504 0.00106287 0)
(0.0949413 0.00114401 0)
(0.0948417 0.00123641 0)
(0.0947415 0.00134123 0)
(0.0946413 0.00145969 0)
(0.0945418 0.00159311 0)
(0.0944438 0.00174285 0)
(0.0943486 0.00191036 0)
(0.0942575 0.00209709 0)
(0.0941724 0.00230448 0)
(0.0940955 0.00253392 0)
(0.0940293 0.00278666 0)
(0.093977 0.00306372 0)
(0.093942 0.00336581 0)
(0.0939286 0.00369316 0)
(0.0939411 0.00404539 0)
(0.0939845 0.00442132 0)
(0.094064 0.00481881 0)
(0.0941851 0.00523456 0)
(0.0943528 0.00566397 0)
(0.094572 0.00610104 0)
(0.0948464 0.00653833 0)
(0.0951786 0.00696704 0)
(0.0955693 0.00737732 0)
(0.096017 0.00775868 0)
(0.0965177 0.00810066 0)
(0.0970645 0.00839372 0)
(0.100002 7.9234e-07 0)
(0.100006 4.76431e-05 0)
(0.100006 0.000143659 0)
(0.0999903 0.00027119 0)
(0.0999521 0.000399478 0)
(0.0998877 0.000501379 0)
(0.0997989 0.000564646 0)
(0.0996915 0.000592257 0)
(0.0995726 0.000595678 0)
(0.0994489 0.000587476 0)
(0.0993248 0.000576955 0)
(0.099203 0.000569127 0)
(0.0990848 0.00056564 0)
(0.0989702 0.000566234 0)
(0.098859 0.000569912 0)
(0.0987507 0.00057562 0)
(0.0986448 0.000582527 0)
(0.0985409 0.00059007 0)
(0.0984387 0.000597897 0)
(0.098338 0.000605803 0)
(0.0982386 0.000613664 0)
(0.0981404 0.000621399 0)
(0.0980433 0.000628948 0)
(0.0979473 0.00063626 0)
(0.0978524 0.000643286 0)
(0.0977584 0.000649978 0)
(0.0976654 0.000656294 0)
(0.0975734 0.000662202 0)
(0.0974822 0.000667677 0)
(0.0973919 0.000672712 0)
(0.0973025 0.000677319 0)
(0.0972137 0.000681532 0)
(0.0971257 0.000685409 0)
(0.0970382 0.000689037 0)
(0.0969513 0.000692532 0)
(0.0968649 0.000696042 0)
(0.0967788 0.000699744 0)
(0.096693 0.000703852 0)
(0.0966074 0.00070861 0)
(0.0965218 0.000714294 0)
(0.0964362 0.000721213 0)
(0.0963505 0.000729709 0)
(0.0962645 0.000740156 0)
(0.0961782 0.000752956 0)
(0.0960914 0.000768547 0)
(0.096004 0.000787395 0)
(0.095916 0.00081 0)
(0.0958273 0.000836892 0)
(0.0957379 0.000868638 0)
(0.0956476 0.000905838 0)
(0.0955566 0.000949131 0)
(0.0954649 0.000999195 0)
(0.0953725 0.00105675 0)
(0.0952797 0.00112256 0)
(0.0951866 0.00119744 0)
(0.0950937 0.00128223 0)
(0.0950013 0.00137784 0)
(0.09491 0.00148521 0)
(0.0948205 0.0016053 0)
(0.0947338 0.00173909 0)
(0.0946508 0.00188759 0)
(0.094573 0.00205176 0)
(0.0945019 0.0022325 0)
(0.0944392 0.00243063 0)
(0.0943872 0.00264681 0)
(0.0943482 0.00288149 0)
(0.094325 0.00313483 0)
(0.0943206 0.0034066 0)
(0.0943383 0.00369612 0)
(0.0943816 0.00400214 0)
(0.094454 0.00432273 0)
(0.0945592 0.00465522 0)
(0.0947006 0.00499613 0)
(0.0948812 0.00534112 0)
(0.0951036 0.005685 0)
(0.0953695 0.00602186 0)
(0.0956794 0.00634513 0)
(0.0960328 0.0066479 0)
(0.0964277 0.00692322 0)
(0.0968605 0.00716445 0)
(0.0973263 0.00736578 0)
(0.100002 -1.00419e-06 0)
(0.100007 4.63841e-05 0)
(0.100008 0.000146597 0)
(0.0999967 0.00028239 0)
(0.099965 0.000422071 0)
(0.0999087 0.000536447 0)
(0.0998288 0.00061107 0)
(0.0997299 0.000647427 0)
(0.0996187 0.000656528 0)
(0.0995013 0.000651309 0)
(0.0993824 0.000641847 0)
(0.0992651 0.000633967 0)
(0.0991506 0.000629955 0)
(0.0990396 0.000629961 0)
(0.0989317 0.000633199 0)
(0.0988267 0.000638695 0)
(0.0987241 0.000645622 0)
(0.0986235 0.000653386 0)
(0.0985247 0.000661599 0)
(0.0984273 0.000670018 0)
(0.0983313 0.00067849 0)
(0.0982364 0.000686915 0)
(0.0981426 0.000695219 0)
(0.0980499 0.00070334 0)
(0.0979581 0.000711226 0)
(0.0978671 0.000718828 0)
(0.0977771 0.000726107 0)
(0.0976878 0.000733033 0)
(0.0975993 0.000739589 0)
(0.0975115 0.000745773 0)
(0.0974242 0.000751604 0)
(0.0973376 0.000757126 0)
(0.0972514 0.000762403 0)
(0.0971656 0.000767533 0)
(0.0970802 0.000772638 0)
(0.096995 0.000777874 0)
(0.0969099 0.000783428 0)
(0.096825 0.00078952 0)
(0.09674 0.000796401 0)
(0.096655 0.000804353 0)
(0.0965697 0.000813691 0)
(0.0964843 0.00082476 0)
(0.0963985 0.000837935 0)
(0.0963123 0.000853618 0)
(0.0962257 0.000872241 0)
(0.0961387 0.000894262 0)
(0.0960513 0.000920165 0)
(0.0959633 0.00095046 0)
(0.095875 0.000985683 0)
(0.0957863 0.00102639 0)
(0.0956975 0.00107318 0)
(0.0956085 0.00112664 0)
(0.0955198 0.00118742 0)
(0.0954316 0.00125617 0)
(0.0953442 0.00133356 0)
(0.0952582 0.00142028 0)
(0.0951741 0.00151703 0)
(0.0950926 0.00162452 0)
(0.0950145 0.00174341 0)
(0.094941 0.00187438 0)
(0.094873 0.00201802 0)
(0.094812 0.00217486 0)
(0.0947594 0.00234533 0)
(0.0947171 0.00252968 0)
(0.0946869 0.002728 0)
(0.0946708 0.00294011 0)
(0.0946713 0.00316555 0)
(0.0946906 0.0034035 0)
(0.0947312 0.00365273 0)
(0.0947957 0.00391155 0)
(0.0948866 0.00417777 0)
(0.095006 0.00444868 0)
(0.095156 0.00472101 0)
(0.0953381 0.00499104 0)
(0.0955536 0.00525454 0)
(0.0958028 0.00550699 0)
(0.0960853 0.00574361 0)
(0.0964001 0.00595961 0)
(0.0967451 0.00615036 0)
(0.0971174 0.00631159 0)
(0.0975132 0.00643966 0)
(0.100002 -2.96081e-06 0)
(0.100007 4.46142e-05 0)
(0.100009 0.000148521 0)
(0.100001 0.000292073 0)
(0.0999743 0.000442867 0)
(0.0999249 0.000569819 0)
(0.099853 0.000656277 0)
(0.0997623 0.00070211 0)
(0.0996588 0.000717689 0)
(0.0995482 0.000716169 0)