# vtk DataFile Version 2.0

ASCII

DATASET UNSTRUCTURED_GRID

POINTS 161 double 

1.2479480269999999e-03  0.0000000000000000e+00  5.0000000000000001e-03
3.7564605215000000e-03  0.0000000000000000e+00  5.0000000000000001e-03
6.2903334464999997e-03  0.0000000000000000e+00  4.9999999999999992e-03
8.8498231919999990e-03  0.0000000000000000e+00  5.0000000000000001e-03
1.1435188734999999e-02  0.0000000000000000e+00  4.9999999999999992e-03
1.4046691670000000e-02  0.0000000000000000e+00  4.9999999999999992e-03
1.6684596245000002e-02  0.0000000000000000e+00  5.0000000000000001e-03
1.9349169374999999e-02  0.0000000000000000e+00  5.0000000000000001e-03
2.2040680665000000e-02  0.0000000000000000e+00  5.0000000000000001e-03
2.4759402454999999e-02  0.0000000000000000e+00  4.9999999999999992e-03
2.7505609845000001e-02  0.0000000000000000e+00  5.0000000000000001e-03
3.0279580699999996e-02  0.0000000000000000e+00  5.0000000000000001e-03
3.3081595700000001e-02  0.0000000000000000e+00  5.0000000000000001e-03
3.5911938369999993e-02  0.0000000000000000e+00  4.9999999999999992e-03
3.8770895094999994e-02  0.0000000000000000e+00  5.0000000000000001e-03
4.1658755154999998e-02  0.0000000000000000e+00  4.9999999999999992e-03
4.4575810750000000e-02  0.0000000000000000e+00  5.0000000000000001e-03
4.7522357044999998e-02  0.0000000000000000e+00  5.0000000000000001e-03
5.0498692184999999e-02  0.0000000000000000e+00  4.9999999999999992e-03
5.3505117320000004e-02  0.0000000000000000e+00  4.9999999999999992e-03
5.6541936659999993e-02  0.0000000000000000e+00  5.0000000000000001e-03
5.9609457479999996e-02  0.0000000000000000e+00  4.9999999999999992e-03
6.2707990165000005e-02  0.0000000000000000e+00  4.9999999999999992e-03
6.5837848234999996e-02  0.0000000000000000e+00  5.0000000000000001e-03
6.8999348379999978e-02  0.0000000000000000e+00  5.0000000000000001e-03
7.2192810504999996e-02  0.0000000000000000e+00  4.9999999999999992e-03
7.5418557725000002e-02  0.0000000000000000e+00  4.9999999999999992e-03
7.8676916435000008e-02  0.0000000000000000e+00  5.0000000000000010e-03
8.1968216339999983e-02  0.0000000000000000e+00  5.0000000000000001e-03
8.5292790459999962e-02  0.0000000000000000e+00  5.0000000000000001e-03
8.8650975185000008e-02  0.0000000000000000e+00  5.0000000000000001e-03
9.2043110309999995e-02  0.0000000000000000e+00  5.0000000000000001e-03
9.5469539069999998e-02  0.0000000000000000e+00  5.0000000000000001e-03
9.8930608189999991e-02  0.0000000000000000e+00  4.9999999999999992e-03
1.0242666780000000e-01  0.0000000000000000e+00  4.9999999999999992e-03
1.0595807169999999e-01  0.0000000000000000e+00  4.9999999999999992e-03
1.0952517724999997e-01  0.0000000000000000e+00  5.0000000000000001e-03
1.1312834530000000e-01  0.0000000000000000e+00  4.9999999999999992e-03
1.1676794050000000e-01  0.0000000000000000e+00  5.0000000000000001e-03
1.2044433110000001e-01  0.0000000000000000e+00  5.0000000000000001e-03
1.2415788905000000e-01  0.0000000000000000e+00  5.0000000000000001e-03
1.2790899014999998e-01  0.0000000000000000e+00  5.0000000000000001e-03
1.3169801394999997e-01  0.0000000000000000e+00  5.0000000000000001e-03
1.3552534380000000e-01  0.0000000000000000e+00  5.0000000000000001e-03
1.3939136699999999e-01  0.0000000000000000e+00  5.0000000000000001e-03
1.4329647475000001e-01  0.0000000000000000e+00  5.0000000000000001e-03
1.4724106214999996e-01  0.0000000000000000e+00  5.0000000000000001e-03
1.5122552829999997e-01  0.0000000000000000e+00  4.9999999999999992e-03
1.5525027640000003e-01  0.0000000000000000e+00  4.9999999999999992e-03
1.5931571375000000e-01  0.0000000000000000e+00  4.9999999999999992e-03
1.6342225165000002e-01  0.0000000000000000e+00  5.0000000000000010e-03
1.6757030560000000e-01  0.0000000000000000e+00  4.9999999999999992e-03
1.7176029530000000e-01  0.0000000000000000e+00  4.9999999999999992e-03
1.7599264475000001e-01  0.0000000000000000e+00  4.9999999999999992e-03
1.8026778220000000e-01  0.0000000000000000e+00  4.9999999999999992e-03
1.8458614019999994e-01  0.0000000000000000e+00  5.0000000000000001e-03
1.8894815575000001e-01  0.0000000000000000e+00  5.0000000000000001e-03
1.9335427015000001e-01  0.0000000000000000e+00  5.0000000000000001e-03
1.9780492925000001e-01  0.0000000000000000e+00  4.9999999999999992e-03
2.0230058345000002e-01  0.0000000000000000e+00  5.0000000000000010e-03
2.0684168754999993e-01  0.0000000000000000e+00  4.9999999999999992e-03
2.1142870104999997e-01  0.0000000000000000e+00  4.9999999999999992e-03
2.1606208815000003e-01  0.0000000000000000e+00  5.0000000000000001e-03
2.2074231760000002e-01  0.0000000000000000e+00  5.0000000000000001e-03
2.2546986299999994e-01  0.0000000000000000e+00  4.9999999999999992e-03
2.3024520270000004e-01  0.0000000000000000e+00  5.0000000000000001e-03
2.3506881985000000e-01  0.0000000000000000e+00  5.0000000000000001e-03
2.3994120254999993e-01  0.0000000000000000e+00  4.9999999999999992e-03
2.4486284384999990e-01  0.0000000000000000e+00  4.9999999999999992e-03
2.4983424175000005e-01  0.0000000000000000e+00  5.0000000000000001e-03
2.5485589919999996e-01  0.0000000000000000e+00  5.0000000000000001e-03
2.5992832430000001e-01  0.0000000000000000e+00  4.9999999999999992e-03
2.6505203035000002e-01  0.0000000000000000e+00  5.0000000000000001e-03
2.7022753579999997e-01  0.0000000000000000e+00  5.0000000000000001e-03
2.7545536430000001e-01  0.0000000000000000e+00  4.9999999999999992e-03
2.8073604484999992e-01  0.0000000000000000e+00  5.0000000000000001e-03
2.8607011175000002e-01  0.0000000000000000e+00  4.9999999999999992e-03
2.9145810469999994e-01  0.0000000000000000e+00  5.0000000000000001e-03
2.9690056895000000e-01  0.0000000000000000e+00  5.0000000000000001e-03
3.0239805514999996e-01  0.0000000000000000e+00  4.9999999999999992e-03
3.0795111949999993e-01  0.0000000000000000e+00  4.9999999999999992e-03
3.1356032394999994e-01  0.0000000000000000e+00  5.0000000000000001e-03
3.1922623605000000e-01  0.0000000000000000e+00  4.9999999999999992e-03
3.2494942910000002e-01  0.0000000000000000e+00  5.0000000000000001e-03
3.3073048220000001e-01  0.0000000000000000e+00  5.0000000000000001e-03
3.3656998029999996e-01  0.0000000000000000e+00  4.9999999999999992e-03
3.4246851424999997e-01  0.0000000000000000e+00  5.0000000000000001e-03
3.4842668089999995e-01  0.0000000000000000e+00  5.0000000000000001e-03
3.5444508315000006e-01  0.0000000000000000e+00  4.9999999999999992e-03
3.6052432989999994e-01  0.0000000000000000e+00  5.0000000000000001e-03
3.6666503630000002e-01  0.0000000000000000e+00  4.9999999999999992e-03
3.7286782369999999e-01  0.0000000000000000e+00  4.9999999999999992e-03
3.7913331969999992e-01  0.0000000000000000e+00  5.0000000000000001e-03
3.8546215830000008e-01  0.0000000000000000e+00  4.9999999999999992e-03
3.9185497990000001e-01  0.0000000000000000e+00  4.9999999999999992e-03
3.9831243129999994e-01  0.0000000000000000e+00  4.9999999999999992e-03
4.0483516590000013e-01  0.0000000000000000e+00  5.0000000000000010e-03
4.1142384369999990e-01  0.0000000000000000e+00  4.9999999999999992e-03
4.1807913139999997e-01  0.0000000000000000e+00  5.0000000000000010e-03
4.2480170239999998e-01  0.0000000000000000e+00  5.0000000000000001e-03
4.3159223684999998e-01  0.0000000000000000e+00  5.0000000000000001e-03
4.3845142189999992e-01  0.0000000000000000e+00  4.9999999999999992e-03
4.4537995159999999e-01  0.0000000000000000e+00  5.0000000000000001e-03
4.5237852700000003e-01  0.0000000000000000e+00  5.0000000000000001e-03
4.5944785624999995e-01  0.0000000000000000e+00  5.0000000000000001e-03
4.6658865464999993e-01  0.0000000000000000e+00  5.0000000000000001e-03
4.7380164474999997e-01  0.0000000000000000e+00  5.0000000000000001e-03
4.8108755635000006e-01  0.0000000000000000e+00  4.9999999999999992e-03
4.8844712664999995e-01  0.0000000000000000e+00  5.0000000000000001e-03
4.9588110034999994e-01  0.0000000000000000e+00  5.0000000000000001e-03
5.0339022965000002e-01  0.0000000000000000e+00  5.0000000000000001e-03
5.1097527440000001e-01  0.0000000000000000e+00  4.9999999999999992e-03
5.1863700204999996e-01  0.0000000000000000e+00  5.0000000000000001e-03
5.2637618779999995e-01  0.0000000000000000e+00  5.0000000000000001e-03
5.3419361479999994e-01  0.0000000000000000e+00  5.0000000000000010e-03
5.4209007399999998e-01  0.0000000000000000e+00  4.9999999999999992e-03
5.5006636440000001e-01  0.0000000000000000e+00  5.0000000000000001e-03
5.5812329314999998e-01  0.0000000000000000e+00  4.9999999999999992e-03
5.6626167540000005e-01  0.0000000000000000e+00  5.0000000000000001e-03
5.7448233464999987e-01  0.0000000000000000e+00  5.0000000000000001e-03
5.8278610269999997e-01  0.0000000000000000e+00  5.0000000000000001e-03
5.9117381974999994e-01  0.0000000000000000e+00  4.9999999999999992e-03
5.9964633455000005e-01  0.0000000000000000e+00  5.0000000000000001e-03
6.0820450429999984e-01  0.0000000000000000e+00  4.9999999999999992e-03
6.1684919500000002e-01  0.0000000000000000e+00  4.9999999999999992e-03
6.2558128135000002e-01  0.0000000000000000e+00  5.0000000000000001e-03
6.3440164690000012e-01  0.0000000000000000e+00  5.0000000000000001e-03
6.4331118414999999e-01  0.0000000000000000e+00  4.9999999999999992e-03
6.5231079454999996e-01  0.0000000000000000e+00  4.9999999999999992e-03
6.6140138874999999e-01  0.0000000000000000e+00  5.0000000000000001e-03
6.7058388659999979e-01  0.0000000000000000e+00  5.0000000000000001e-03
6.7985921719999998e-01  0.0000000000000000e+00  5.0000000000000001e-03
6.8922831899999992e-01  0.0000000000000000e+00  5.0000000000000001e-03
6.9869214010000003e-01  0.0000000000000000e+00  4.9999999999999992e-03
7.0825163804999991e-01  0.0000000000000000e+00  4.9999999999999992e-03
7.1790778009999989e-01  0.0000000000000000e+00  4.9999999999999992e-03
7.2766154334999988e-01  0.0000000000000000e+00  5.0000000000000001e-03
7.3751391469999994e-01  0.0000000000000000e+00  4.9999999999999992e-03
7.4746589105000005e-01  0.0000000000000000e+00  4.9999999999999992e-03
7.5751847935000005e-01  0.0000000000000000e+00  5.0000000000000001e-03
7.6767269679999994e-01  0.0000000000000000e+00  4.9999999999999992e-03
7.7792957084999992e-01  0.0000000000000000e+00  4.9999999999999992e-03
7.8829013929999980e-01  0.0000000000000000e+00  5.0000000000000001e-03
7.9875545049999985e-01  0.0000000000000000e+00  5.0000000000000001e-03
8.0932656339999998e-01  0.0000000000000000e+00  5.0000000000000001e-03
8.2000454754999985e-01  0.0000000000000000e+00  4.9999999999999992e-03
8.3079048344999995e-01  0.0000000000000000e+00  4.9999999999999992e-03
8.4168546245000009e-01  0.0000000000000000e+00  4.9999999999999992e-03
8.5269058694999988e-01  0.0000000000000000e+00  5.0000000000000001e-03
8.6380697049999999e-01  0.0000000000000000e+00  5.0000000000000001e-03
8.7503573785000011e-01  0.0000000000000000e+00  4.9999999999999992e-03
8.8637802525000009e-01  0.0000000000000000e+00  5.0000000000000001e-03
8.9783498034999998e-01  0.0000000000000000e+00  5.0000000000000001e-03
9.0940776235000009e-01  0.0000000000000000e+00  5.0000000000000001e-03
9.2109754224999996e-01  0.0000000000000000e+00  5.0000000000000001e-03
9.3290550294999997e-01  0.0000000000000000e+00  5.0000000000000001e-03
9.4483283914999983e-01  0.0000000000000000e+00  5.0000000000000001e-03
9.5688075770000014e-01  0.0000000000000000e+00  5.0000000000000001e-03
9.6905047764999985e-01  0.0000000000000000e+00  5.0000000000000001e-03
9.8134323040000015e-01  0.0000000000000000e+00  5.0000000000000010e-03
9.9376025984999972e-01  0.0000000000000000e+00  5.0000000000000001e-03

CELLS 0 0


CELL_TYPES 0


POINT_DATA 161

VECTORS VertexNormals double

0.0000000000000000e+00 0.0000000000000000e+00 0.0000000000000000e+00 
0.0000000000000000e+00 0.0000000000000000e+00 0.0000000000000000e+00 
0.0000000000000000e+00 0.0000000000000000e+00 0.0000000000000000e+00 
0.0000000000000000e+00 0.0000000000000000e+00 0.0000000000000000e+00 
0.0000000000000000e+00 0.0000000000000000e+00 0.0000000000000000e+00 
0.0000000000000000e+00 0.0000000000000000e+00 0.0000000000000000e+00 
0.0000000000000000e+00 0.0000000000000000e+00 0.0000000000000000e+00 
0.0000000000000000e+00 0.0000000000000000e+00 0.0000000000000000e+00 
0.0000000000000000e+00 0.0000000000000000e+00 0.0000000000000000e+00 
0.0000000000000000e+00 0.0000000000000000e+00 0.0000000000000000e+00 
0.0000000000000000e+00 0.0000000000000000e+00 0.0000000000000000e+00 
0.0000000000000000e+00 0.0000000000000000e+00 0.0000000000000000e+00 
0.0000000000000000e+00 0.0000000000000000e+00 0.0000000000000000e+00 
0.0000000000000000e+00 0.0000000000000000e+00 0.0000000000000000e+00 
0.0000000000000000e+00 0.0000000000000000e+00 0.0000000000000000e+00 
0.0000000000000000e+00 0.0000000000000000e+00 0.0000000000000000e+00 
0.0000000000000000e+00 0.0000000000000000e+00 0.0000000000000000e+00 
0.0000000000000000e+00 0.0000000000000000e+00 0.0000000000000000e+00 
0.0000000000000000e+00 0.0000000000000000e+00 0.0000000000000000e+00 
0.0000000000000000e+00 0.0000000000000000e+00 0.0000000000000000e+00 
0.0000000000000000e+00 0.0000000000000000e+00 0.0000000000000000e+00 
0.0000000000000000e+00 0.0000000000000000e+00 0.0000000000000000e+00 
0.0000000000000000e+00 0.0000000000000000e+00 0.0000000000000000e+00 
0.0000000000000000e+00 0.0000000000000000e+00 0.0000000000000000e+00 
0.0000000000000000e+00 0.0000000000000000e+00 0.0000000000000000e+00 
0.0000000000000000e+00 0.0000000000000000e+00 0.0000000000000000e+00 
0.0000000000000000e+00 0.0000000000000000e+00 0.0000000000000000e+00 
0.0000000000000000e+00 0.0000000000000000e+00 0.0000000000000000e+00 
0.0000000000000000e+00 0.0000000000000000e+00 0.0000000000000000e+00 
0.0000000000000000e+00 0.0000000000000000e+00 0.0000000000000000e+00 
0.0000000000000000e+00 0.0000000000000000e+00 0.0000000000000000e+00 
0.0000000000000000e+00 0.0000000000000000e+00 0.0000000000000000e+00 
0.0000000000000000e+00 0.0000000000000000e+00 0.0000000000000000e+00 
0.0000000000000000e+00 0.0000000000000000e+00 0.0000000000000000e+00 
0.0000000000000000e+00 0.0000000000000000e+00 0.0000000000000000e+00 
0.0000000000000000e+00 0.0000000000000000e+00 0.0000000000000000e+00 
0.0000000000000000e+00 0.0000000000000000e+00 0.0000000000000000e+00 
0.0000000000000000e+00 0.0000000000000000e+00 0.0000000000000000e+00 
0.0000000000000000e+00 0.0000000000000000e+00 0.0000000000000000e+00 
0.0000000000000000e+00 0.0000000000000000e+00 0.0000000000000000e+00 
0.0000000000000000e+00 0.0000000000000000e+00 0.0000000000000000e+00 
0.0000000000000000e+00 0.0000000000000000e+00 0.0000000000000000e+00 
0.0000000000000000e+00 0.0000000000000000e+00 0.0000000000000000e+00 
0.0000000000000000e+00 0.0000000000000000e+00 0.0000000000000000e+00 
0.0000000000000000e+00 0.0000000000000000e+00 0.0000000000000000e+00 
0.0000000000000000e+00 0.0000000000000000e+00 0.0000000000000000e+00 
0.0000000000000000e+00 0.0000000000000000e+00 0.0000000000000000e+00 
0.0000000000000000e+00 0.0000000000000000e+00 0.0000000000000000e+00 
0.0000000000000000e+00 0.0000000000000000e+00 0.0000000000000000e+00 
0.0000000000000000e+00 0.0000000000000000e+00 0.0000000000000000e+00 
0.0000000000000000e+00 0.0000000000000000e+00 0.0000000000000000e+00 
0.0000000000000000e+00 0.0000000000000000e+00 0.0000000000000000e+00 
0.0000000000000000e+00 0.0000000000000000e+00 0.0000000000000000e+00 
0.0000000000000000e+00 0.0000000000000000e+00 0.0000000000000000e+00 
0.0000000000000000e+00 0.0000000000000000e+00 0.0000000000000000e+00 
0.0000000000000000e+00 0.0000000000000000e+00 0.0000000000000000e+00 
0.0000000000000000e+00 0.0000000000000000e+00 0.0000000000000000e+00 
0.0000000000000000e+00 0.0000000000000000e+00 0.0000000000000000e+00 
0.0000000000000000e+00 0.0000000000000000e+00 0.0000000000000000e+00 
0.0000000000000000e+00 0.0000000000000000e+00 0.0000000000000000e+00 
0.0000000000000000e+00 0.0000000000000000e+00 0.0000000000000000e+00 
0.0000000000000000e+00 0.0000000000000000e+00 0.0000000000000000e+00 
0.0000000000000000e+00 0.0000000000000000e+00 0.0000000000000000e+00 
0.0000000000000000e+00 0.0000000000000000e+00 0.0000000000000000e+00 
0.0000000000000000e+00 0.0000000000000000e+00 0.0000000000000000e+00 
0.0000000000000000e+00 0.0000000000000000e+00 0.0000000000000000e+00 
0.0000000000000000e+00 0.0000000000000000e+00 0.0000000000000000e+00 
0.0000000000000000e+00 0.0000000000000000e+00 0.0000000000000000e+00 
0.0000000000000000e+00 0.0000000000000000e+00 0.0000000000000000e+00 
0.0000000000000000e+00 0.0000000000000000e+00 0.0000000000000000e+00 
0.0000000000000000e+00 0.0000000000000000e+00 0.0000000000000000e+00 
0.0000000000000000e+00 0.0000000000000000e+00 0.0000000000000000e+00 
0.0000000000000000e+00 0.0000000000000000e+00 0.0000000000000000e+00 
0.0000000000000000e+00 0.0000000000000000e+00 0.0000000000000000e+00 
0.0000000000000000e+00 0.0000000000000000e+00 0.0000000000000000e+00 
0.0000000000000000e+00 0.0000000000000000e+00 0.0000000000000000e+00 
0.0000000000000000e+00 0.0000000000000000e+00 0.0000000000000000e+00 
0.0000000000000000e+00 0.0000000000000000e+00 0.0000000000000000e+00 
0.0000000000000000e+00 0.0000000000000000e+00 0.0000000000000000e+00 
0.0000000000000000e+00 0.0000000000000000e+00 0.0000000000000000e+00 
0.0000000000000000e+00 0.0000000000000000e+00 0.0000000000000000e+00 
0.0000000000000000e+00 0.0000000000000000e+00 0.0000000000000000e+00 
0.0000000000000000e+00 0.0000000000000000e+00 0.0000000000000000e+00 
0.0000000000000000e+00 0.0000000000000000e+00 0.0000000000000000e+00 
0.0000000000000000e+00 0.0000000000000000e+00 0.0000000000000000e+00 
0.0000000000000000e+00 0.0000000000000000e+00 0.0000000000000000e+00 
0.0000000000000000e+00 0.0000000000000000e+00 0.0000000000000000e+00 
0.0000000000000000e+00 0.0000000000000000e+00 0.0000000000000000e+00 
0.0000000000000000e+00 0.0000000000000000e+00 0.0000000000000000e+00 
0.0000000000000000e+00 0.0000000000000000e+00 0.0000000000000000e+00 
0.0000000000000000e+00 0.0000000000000000e+00 0.0000000000000000e+00 
0.0000000000000000e+00 0.0000000000000000e+00 0.0000000000000000e+00 
0.0000000000000000e+00 0.0000000000000000e+00 0.0000000000000000e+00 
0.0000000000000000e+00 0.0000000000000000e+00 0.0000000000000000e+00 
0.0000000000000000e+00 0.0000000000000000e+00 0.0000000000000000e+00 
0.0000000000000000e+00 0.0000000000000000e+00 0.0000000000000000e+00 
0.0000000000000000e+00 0.0000000000000000e+00 0.0000000000000000e+00 
0.0000000000000000e+00 0.0000000000000000e+00 0.0000000000000000e+00 
0.0000000000000000e+00 0.0000000000000000e+00 0.0000000000000000e+00 
0.0000000000000000e+00 0.0000000000000000e+00 0.0000000000000000e+00 
0.0000000000000000e+00 0.0000000000000000e+00 0.0000000000000000e+00 
0.0000000000000000e+00 0.0000000000000000e+00 0.0000000000000000e+00 
0.0000000000000000e+00 0.0000000000000000e+00 0.0000000000000000e+00 
0.0000000000000000e+00 0.0000000000000000e+00 0.0000000000000000e+00 
0.0000000000000000e+00 0.0000000000000000e+00 0.0000000000000000e+00 
0.0000000000000000e+00 0.0000000000000000e+00 0.0000000000000000e+00 
0.0000000000000000e+00 0.0000000000000000e+00 0.0000000000000000e+00 
0.0000000000000000e+00 0.0000000000000000e+00 0.0000000000000000e+00 
0.0000000000000000e+00 0.0000000000000000e+00 0.0000000000000000e+00 
0.0000000000000000e+00 0.0000000000000000e+00 0.0000000000000000e+00 
0.0000000000000000e+00 0.0000000000000000e+00 0.0000000000000000e+00 
0.0000000000000000e+00 0.0000000000000000e+00 0.0000000000000000e+00 
0.0000000000000000e+00 0.0000000000000000e+00 0.0000000000000000e+00 
0.0000000000000000e+00 0.0000000000000000e+00 0.0000000000000000e+00 
0.0000000000000000e+00 0.0000000000000000e+00 0.0000000000000000e+00 
0.0000000000000000e+00 0.0000000000000000e+00 0.0000000000000000e+00 
0.0000000000000000e+00 0.0000000000000000e+00 0.0000000000000000e+00 
0.0000000000000000e+00 0.0000000000000000e+00 0.0000000000000000e+00 
0.0000000000000000e+00 0.0000000000000000e+00 0.0000000000000000e+00 
0.0000000000000000e+00 0.0000000000000000e+00 0.0000000000000000e+00 
0.0000000000000000e+00 0.0000000000000000e+00 0.0000000000000000e+00 
0.0000000000000000e+00 0.0000000000000000e+00 0.0000000000000000e+00 
0.0000000000000000e+00 0.0000000000000000e+00 0.0000000000000000e+00 
0.0000000000000000e+00 0.0000000000000000e+00 0.0000000000000000e+00 
0.0000000000000000e+00 0.0000000000000000e+00 0.0000000000000000e+00 
0.0000000000000000e+00 0.0000000000000000e+00 0.0000000000000000e+00 
0.0000000000000000e+00 0.0000000000000000e+00 0.0000000000000000e+00 
0.0000000000000000e+00 0.0000000000000000e+00 0.0000000000000000e+00 
0.0000000000000000e+00 0.0000000000000000e+00 0.0000000000000000e+00 
0.0000000000000000e+00 0.0000000000000000e+00 0.0000000000000000e+00 
0.0000000000000000e+00 0.0000000000000000e+00 0.0000000000000000e+00 
0.0000000000000000e+00 0.0000000000000000e+00 0.0000000000000000e+00 
0.0000000000000000e+00 0.0000000000000000e+00 0.0000000000000000e+00 
0.0000000000000000e+00 0.0000000000000000e+00 0.0000000000000000e+00 
0.0000000000000000e+00 0.0000000000000000e+00 0.0000000000000000e+00 
0.0000000000000000e+00 0.0000000000000000e+00 0.0000000000000000e+00 
0.0000000000000000e+00 0.0000000000000000e+00 0.0000000000000000e+00 
0.0000000000000000e+00 0.0000000000000000e+00 0.0000000000000000e+00 
0.0000000000000000e+00 0.0000000000000000e+00 0.0000000000000000e+00 
0.0000000000000000e+00 0.0000000000000000e+00 0.0000000000000000e+00 
0.0000000000000000e+00 0.0000000000000000e+00 0.0000000000000000e+00 
0.0000000000000000e+00 0.0000000000000000e+00 0.0000000000000000e+00 
0.0000000000000000e+00 0.0000000000000000e+00 0.0000000000000000e+00 
0.0000000000000000e+00 0.0000000000000000e+00 0.0000000000000000e+00 
0.0000000000000000e+00 0.0000000000000000e+00 0.0000000000000000e+00 
0.0000000000000000e+00 0.0000000000000000e+00 0.0000000000000000e+00 
0.0000000000000000e+00 0.0000000000000000e+00 0.0000000000000000e+00 
0.0000000000000000e+00 0.0000000000000000e+00 0.0000000000000000e+00 
0.0000000000000000e+00 0.0000000000000000e+00 0.0000000000000000e+00 
0.0000000000000000e+00 0.0000000000000000e+00 0.0000000000000000e+00 
0.0000000000000000e+00 0.0000000000000000e+00 0.0000000000000000e+00 
0.0000000000000000e+00 0.0000000000000000e+00 0.0000000000000000e+00 
0.0000000000000000e+00 0.0000000000000000e+00 0.0000000000000000e+00 
0.0000000000000000e+00 0.0000000000000000e+00 0.0000000000000000e+00 
0.0000000000000000e+00 0.0000000000000000e+00 0.0000000000000000e+00 
0.0000000000000000e+00 0.0000000000000000e+00 0.0000000000000000e+00 
0.0000000000000000e+00 0.0000000000000000e+00 0.0000000000000000e+00 
0.0000000000000000e+00 0.0000000000000000e+00 0.0000000000000000e+00 
0.0000000000000000e+00 0.0000000000000000e+00 0.0000000000000000e+00 
0.0000000000000000e+00 0.0000000000000000e+00 0.0000000000000000e+00 
0.0000000000000000e+00 0.0000000000000000e+00 0.0000000000000000e+00 

SCALARS Heat-Flux double
LOOKUP_TABLE default
4.0885729549205744e+03
4.0318051723635954e+03
3.9744634818004465e+03
3.9165420811106251e+03
3.8580351096296699e+03
3.7989366474589469e+03
3.7392407146509668e+03
3.6789412709038629e+03
3.6180322150409274e+03
3.5565073839922366e+03
3.4943605522289113e+03
3.4315854316499644e+03
3.3654699445505939e+03
3.2972380010540714e+03
3.2283162497103690e+03
3.1586977167573314e+03
3.0883753580394546e+03
3.0173420579230633e+03
2.9455906289347158e+03
2.8731138111584987e+03
2.7999042709101341e+03
2.7259546006164478e+03
2.6555787337917304e+03
2.6451554075672902e+03
2.6346267041459396e+03
2.6239915581521559e+03
2.6132488935201955e+03
2.6023976232609721e+03
2.5914366493621510e+03
2.5803648627714911e+03
2.5691811432136874e+03
2.5578843590738043e+03
2.5475168037213048e+03
2.5380906668465045e+03
2.5285692342302377e+03
2.5189515423068815e+03
2.5092366178152383e+03
2.4994234779891813e+03
2.4895111297133790e+03
2.4794985700679858e+03
2.4693847860562987e+03
2.4629851848662888e+03
2.4576368565449179e+03
2.4522344580083923e+03
2.4467774425703692e+03
2.4412652580395343e+03
2.4356973467195949e+03
2.4300731452681321e+03
2.4243920845554458e+03
2.4203400070037173e+03
2.4168024612811369e+03
2.4132291518742386e+03
2.4096197172356610e+03
2.4059737921138417e+03
2.4022910075960872e+03
2.3985709910655032e+03
2.3953329080565213e+03
2.3931180370002048e+03
2.3908807741587952e+03
2.3886208931246611e+03
2.3863381652783737e+03
2.3840323596379021e+03
2.3817032428586149e+03
2.3798016384991179e+03
2.3784955027942260e+03
2.3771761623844745e+03
2.3758434837842146e+03
2.3744973321401999e+03
2.3731375712315898e+03
2.3717640634699483e+03
2.3710834576718935e+03
2.3704203415498478e+03
2.3697505214895423e+03
2.3690739297142145e+03
2.3683904977673055e+03
2.3677001564928573e+03
2.3674366118560738e+03
2.3672171227617628e+03
2.3669954146860237e+03
2.3667714651971837e+03
2.3665452516374894e+03
2.3663758287021401e+03
2.3664607031437481e+03
2.3665464356446696e+03
2.3666330348797292e+03
2.3667205096113803e+03
2.3668088686904616e+03
2.3670422586980512e+03
2.3673179035470448e+03
2.3675963350946222e+03
2.3678775815148565e+03
2.3681616712657888e+03
2.3684881047561457e+03
2.3688384057470798e+03
2.3691922481947840e+03
2.3695496678996137e+03
2.3699107010272364e+03
2.3702805359506219e+03
2.3706555328737768e+03
2.3710343209223656e+03
2.3714169384199263e+03
2.3717951088543086e+03
2.3721249478796885e+03
2.3724581214950058e+03
2.3727946634123919e+03
2.3731346076843615e+03
2.3734022577327232e+03
2.3736398845991962e+03
2.3738799138124223e+03
2.3741223696604693e+03
2.3743089133379272e+03
2.3744257185615656e+03
2.3745437046567190e+03
2.3746628835610099e+03
2.3747192400593858e+03
2.3746690830946368e+03
2.3746184190556924e+03
2.3745672428156763e+03
2.3744324680328823e+03
2.3741986885736478e+03
2.3739625456628032e+03
2.3737240154067094e+03
2.3733369787225915e+03
2.3728815532273084e+03
2.3724215234944759e+03
2.3719426564731434e+03
2.3712580120900989e+03
2.3705664461227730e+03
2.3698678885998415e+03
2.3690316492350821e+03
2.3680860626545323e+03
2.3671309164308373e+03
2.3661336806372665e+03
2.3649815280473622e+03
2.3638177274846821e+03
2.3626421611934511e+03
2.3614129682771709e+03
2.3601673636622531e+03
2.3589091662975029e+03
2.3577496345435343e+03
2.3566163023804702e+03
2.3554715125125554e+03
2.3547613141690367e+03
2.3542564937173247e+03
2.3537465696560807e+03
2.3543843892063210e+03
2.3555211102706580e+03
2.3566693232991456e+03
2.3606626399650313e+03
2.3653572464631479e+03
2.3701339179247802e+03
2.3859062606670677e+03
2.4018380578652409e+03
2.4192495302558418e+03
2.4403864713130315e+03
2.4617371016462416e+03
2.6142677726763677e+03
2.8512275902508313e+03
3.0903624081529383e+03
3.3231126151304411e+03
3.5582158693249148e+03

