# vtk DataFile Version 2.0

ASCII

DATASET UNSTRUCTURED_GRID

POINTS 161 double 

1.2479480269999999e-03  0.0000000000000000e+00  5.0000000000000001e-03
3.7564605215000000e-03  0.0000000000000000e+00  5.0000000000000001e-03
6.2903334464999997e-03  0.0000000000000000e+00  4.9999999999999992e-03
8.8498231919999990e-03  0.0000000000000000e+00  5.0000000000000001e-03
1.1435188734999999e-02  0.0000000000000000e+00  4.9999999999999992e-03
1.4046691670000000e-02  0.0000000000000000e+00  4.9999999999999992e-03
1.6684596245000002e-02  0.0000000000000000e+00  5.0000000000000001e-03
1.9349169374999999e-02  0.0000000000000000e+00  5.0000000000000001e-03
2.2040680665000000e-02  0.0000000000000000e+00  5.0000000000000001e-03
2.4759402454999999e-02  0.0000000000000000e+00  4.9999999999999992e-03
2.7505609845000001e-02  0.0000000000000000e+00  5.0000000000000001e-03
3.0279580699999996e-02  0.0000000000000000e+00  5.0000000000000001e-03
3.3081595700000001e-02  0.0000000000000000e+00  5.0000000000000001e-03
3.5911938369999993e-02  0.0000000000000000e+00  4.9999999999999992e-03
3.8770895094999994e-02  0.0000000000000000e+00  5.0000000000000001e-03
4.1658755154999998e-02  0.0000000000000000e+00  4.9999999999999992e-03
4.4575810750000000e-02  0.0000000000000000e+00  5.0000000000000001e-03
4.7522357044999998e-02  0.0000000000000000e+00  5.0000000000000001e-03
5.0498692184999999e-02  0.0000000000000000e+00  4.9999999999999992e-03
5.3505117320000004e-02  0.0000000000000000e+00  4.9999999999999992e-03
5.6541936659999993e-02  0.0000000000000000e+00  5.0000000000000001e-03
5.9609457479999996e-02  0.0000000000000000e+00  4.9999999999999992e-03
6.2707990165000005e-02  0.0000000000000000e+00  4.9999999999999992e-03
6.5837848234999996e-02  0.0000000000000000e+00  5.0000000000000001e-03
6.8999348379999978e-02  0.0000000000000000e+00  5.0000000000000001e-03
7.2192810504999996e-02  0.0000000000000000e+00  4.9999999999999992e-03
7.5418557725000002e-02  0.0000000000000000e+00  4.9999999999999992e-03
7.8676916435000008e-02  0.0000000000000000e+00  5.0000000000000010e-03
8.1968216339999983e-02  0.0000000000000000e+00  5.0000000000000001e-03
8.5292790459999962e-02  0.0000000000000000e+00  5.0000000000000001e-03
8.8650975185000008e-02  0.0000000000000000e+00  5.0000000000000001e-03
9.2043110309999995e-02  0.0000000000000000e+00  5.0000000000000001e-03
9.5469539069999998e-02  0.0000000000000000e+00  5.0000000000000001e-03
9.8930608189999991e-02  0.0000000000000000e+00  4.9999999999999992e-03
1.0242666780000000e-01  0.0000000000000000e+00  4.9999999999999992e-03
1.0595807169999999e-01  0.0000000000000000e+00  4.9999999999999992e-03
1.0952517724999997e-01  0.0000000000000000e+00  5.0000000000000001e-03
1.1312834530000000e-01  0.0000000000000000e+00  4.9999999999999992e-03
1.1676794050000000e-01  0.0000000000000000e+00  5.0000000000000001e-03
1.2044433110000001e-01  0.0000000000000000e+00  5.0000000000000001e-03
1.2415788905000000e-01  0.0000000000000000e+00  5.0000000000000001e-03
1.2790899014999998e-01  0.0000000000000000e+00  5.0000000000000001e-03
1.3169801394999997e-01  0.0000000000000000e+00  5.0000000000000001e-03
1.3552534380000000e-01  0.0000000000000000e+00  5.0000000000000001e-03
1.3939136699999999e-01  0.0000000000000000e+00  5.0000000000000001e-03
1.4329647475000001e-01  0.0000000000000000e+00  5.0000000000000001e-03
1.4724106214999996e-01  0.0000000000000000e+00  5.0000000000000001e-03
1.5122552829999997e-01  0.0000000000000000e+00  4.9999999999999992e-03
1.5525027640000003e-01  0.0000000000000000e+00  4.9999999999999992e-03
1.5931571375000000e-01  0.0000000000000000e+00  4.9999999999999992e-03
1.6342225165000002e-01  0.0000000000000000e+00  5.0000000000000010e-03
1.6757030560000000e-01  0.0000000000000000e+00  4.9999999999999992e-03
1.7176029530000000e-01  0.0000000000000000e+00  4.9999999999999992e-03
1.7599264475000001e-01  0.0000000000000000e+00  4.9999999999999992e-03
1.8026778220000000e-01  0.0000000000000000e+00  4.9999999999999992e-03
1.8458614019999994e-01  0.0000000000000000e+00  5.0000000000000001e-03
1.8894815575000001e-01  0.0000000000000000e+00  5.0000000000000001e-03
1.9335427015000001e-01  0.0000000000000000e+00  5.0000000000000001e-03
1.9780492925000001e-01  0.0000000000000000e+00  4.9999999999999992e-03
2.0230058345000002e-01  0.0000000000000000e+00  5.0000000000000010e-03
2.0684168754999993e-01  0.0000000000000000e+00  4.9999999999999992e-03
2.1142870104999997e-01  0.0000000000000000e+00  4.9999999999999992e-03
2.1606208815000003e-01  0.0000000000000000e+00  5.0000000000000001e-03
2.2074231760000002e-01  0.0000000000000000e+00  5.0000000000000001e-03
2.2546986299999994e-01  0.0000000000000000e+00  4.9999999999999992e-03
2.3024520270000004e-01  0.0000000000000000e+00  5.0000000000000001e-03
2.3506881985000000e-01  0.0000000000000000e+00  5.0000000000000001e-03
2.3994120254999993e-01  0.0000000000000000e+00  4.9999999999999992e-03
2.4486284384999990e-01  0.0000000000000000e+00  4.9999999999999992e-03
2.4983424175000005e-01  0.0000000000000000e+00  5.0000000000000001e-03
2.5485589919999996e-01  0.0000000000000000e+00  5.0000000000000001e-03
2.5992832430000001e-01  0.0000000000000000e+00  4.9999999999999992e-03
2.6505203035000002e-01  0.0000000000000000e+00  5.0000000000000001e-03
2.7022753579999997e-01  0.0000000000000000e+00  5.0000000000000001e-03
2.7545536430000001e-01  0.0000000000000000e+00  4.9999999999999992e-03
2.8073604484999992e-01  0.0000000000000000e+00  5.0000000000000001e-03
2.8607011175000002e-01  0.0000000000000000e+00  4.9999999999999992e-03
2.9145810469999994e-01  0.0000000000000000e+00  5.0000000000000001e-03
2.9690056895000000e-01  0.0000000000000000e+00  5.0000000000000001e-03
3.0239805514999996e-01  0.0000000000000000e+00  4.9999999999999992e-03
3.0795111949999993e-01  0.0000000000000000e+00  4.9999999999999992e-03
3.1356032394999994e-01  0.0000000000000000e+00  5.0000000000000001e-03
3.1922623605000000e-01  0.0000000000000000e+00  4.9999999999999992e-03
3.2494942910000002e-01  0.0000000000000000e+00  5.0000000000000001e-03
3.3073048220000001e-01  0.0000000000000000e+00  5.0000000000000001e-03
3.3656998029999996e-01  0.0000000000000000e+00  4.9999999999999992e-03
3.4246851424999997e-01  0.0000000000000000e+00  5.0000000000000001e-03
3.4842668089999995e-01  0.0000000000000000e+00  5.0000000000000001e-03
3.5444508315000006e-01  0.0000000000000000e+00  4.9999999999999992e-03
3.6052432989999994e-01  0.0000000000000000e+00  5.0000000000000001e-03
3.6666503630000002e-01  0.0000000000000000e+00  4.9999999999999992e-03
3.7286782369999999e-01  0.0000000000000000e+00  4.9999999999999992e-03
3.7913331969999992e-01  0.0000000000000000e+00  5.0000000000000001e-03
3.8546215830000008e-01  0.0000000000000000e+00  4.9999999999999992e-03
3.9185497990000001e-01  0.0000000000000000e+00  4.9999999999999992e-03
3.9831243129999994e-01  0.0000000000000000e+00  4.9999999999999992e-03
4.0483516590000013e-01  0.0000000000000000e+00  5.0000000000000010e-03
4.1142384369999990e-01  0.0000000000000000e+00  4.9999999999999992e-03
4.1807913139999997e-01  0.0000000000000000e+00  5.0000000000000010e-03
4.2480170239999998e-01  0.0000000000000000e+00  5.0000000000000001e-03
4.3159223684999998e-01  0.0000000000000000e+00  5.0000000000000001e-03
4.3845142189999992e-01  0.0000000000000000e+00  4.9999999999999992e-03
4.4537995159999999e-01  0.0000000000000000e+00  5.0000000000000001e-03
4.5237852700000003e-01  0.0000000000000000e+00  5.0000000000000001e-03
4.5944785624999995e-01  0.0000000000000000e+00  5.0000000000000001e-03
4.6658865464999993e-01  0.0000000000000000e+00  5.0000000000000001e-03
4.7380164474999997e-01  0.0000000000000000e+00  5.0000000000000001e-03
4.8108755635000006e-01  0.0000000000000000e+00  4.9999999999999992e-03
4.8844712664999995e-01  0.0000000000000000e+00  5.0000000000000001e-03
4.9588110034999994e-01  0.0000000000000000e+00  5.0000000000000001e-03
5.0339022965000002e-01  0.0000000000000000e+00  5.0000000000000001e-03
5.1097527440000001e-01  0.0000000000000000e+00  4.9999999999999992e-03
5.1863700204999996e-01  0.0000000000000000e+00  5.0000000000000001e-03
5.2637618779999995e-01  0.0000000000000000e+00  5.0000000000000001e-03
5.3419361479999994e-01  0.0000000000000000e+00  5.0000000000000010e-03
5.4209007399999998e-01  0.0000000000000000e+00  4.9999999999999992e-03
5.5006636440000001e-01  0.0000000000000000e+00  5.0000000000000001e-03
5.5812329314999998e-01  0.0000000000000000e+00  4.9999999999999992e-03
5.6626167540000005e-01  0.0000000000000000e+00  5.0000000000000001e-03
5.7448233464999987e-01  0.0000000000000000e+00  5.0000000000000001e-03
5.8278610269999997e-01  0.0000000000000000e+00  5.0000000000000001e-03
5.9117381974999994e-01  0.0000000000000000e+00  4.9999999999999992e-03
5.9964633455000005e-01  0.0000000000000000e+00  5.0000000000000001e-03
6.0820450429999984e-01  0.0000000000000000e+00  4.9999999999999992e-03
6.1684919500000002e-01  0.0000000000000000e+00  4.9999999999999992e-03
6.2558128135000002e-01  0.0000000000000000e+00  5.0000000000000001e-03
6.3440164690000012e-01  0.0000000000000000e+00  5.0000000000000001e-03
6.4331118414999999e-01  0.0000000000000000e+00  4.9999999999999992e-03
6.5231079454999996e-01  0.0000000000000000e+00  4.9999999999999992e-03
6.6140138874999999e-01  0.0000000000000000e+00  5.0000000000000001e-03
6.7058388659999979e-01  0.0000000000000000e+00  5.0000000000000001e-03
6.7985921719999998e-01  0.0000000000000000e+00  5.0000000000000001e-03
6.8922831899999992e-01  0.0000000000000000e+00  5.0000000000000001e-03
6.9869214010000003e-01  0.0000000000000000e+00  4.9999999999999992e-03
7.0825163804999991e-01  0.0000000000000000e+00  4.9999999999999992e-03
7.1790778009999989e-01  0.0000000000000000e+00  4.9999999999999992e-03
7.2766154334999988e-01  0.0000000000000000e+00  5.0000000000000001e-03
7.3751391469999994e-01  0.0000000000000000e+00  4.9999999999999992e-03
7.4746589105000005e-01  0.0000000000000000e+00  4.9999999999999992e-03
7.5751847935000005e-01  0.0000000000000000e+00  5.0000000000000001e-03
7.6767269679999994e-01  0.0000000000000000e+00  4.9999999999999992e-03
7.7792957084999992e-01  0.0000000000000000e+00  4.9999999999999992e-03
7.8829013929999980e-01  0.0000000000000000e+00  5.0000000000000001e-03
7.9875545049999985e-01  0.0000000000000000e+00  5.0000000000000001e-03
8.0932656339999998e-01  0.0000000000000000e+00  5.0000000000000001e-03
8.2000454754999985e-01  0.0000000000000000e+00  4.9999999999999992e-03
8.3079048344999995e-01  0.0000000000000000e+00  4.9999999999999992e-03
8.4168546245000009e-01  0.0000000000000000e+00  4.9999999999999992e-03
8.5269058694999988e-01  0.0000000000000000e+00  5.0000000000000001e-03
8.6380697049999999e-01  0.0000000000000000e+00  5.0000000000000001e-03
8.7503573785000011e-01  0.0000000000000000e+00  4.9999999999999992e-03
8.8637802525000009e-01  0.0000000000000000e+00  5.0000000000000001e-03
8.9783498034999998e-01  0.0000000000000000e+00  5.0000000000000001e-03
9.0940776235000009e-01  0.0000000000000000e+00  5.0000000000000001e-03
9.2109754224999996e-01  0.0000000000000000e+00  5.0000000000000001e-03
9.3290550294999997e-01  0.0000000000000000e+00  5.0000000000000001e-03
9.4483283914999983e-01  0.0000000000000000e+00  5.0000000000000001e-03
9.5688075770000014e-01  0.0000000000000000e+00  5.0000000000000001e-03
9.6905047764999985e-01  0.0000000000000000e+00  5.0000000000000001e-03
9.8134323040000015e-01  0.0000000000000000e+00  5.0000000000000010e-03
9.9376025984999972e-01  0.0000000000000000e+00  5.0000000000000001e-03

CELLS 0 0


CELL_TYPES 0


POINT_DATA 161

VECTORS VertexNormals double

0.0000000000000000e+00 0.0000000000000000e+00 0.0000000000000000e+00 
0.0000000000000000e+00 0.0000000000000000e+00 0.0000000000000000e+00 
0.0000000000000000e+00 0.0000000000000000e+00 0.0000000000000000e+00 
0.0000000000000000e+00 0.0000000000000000e+00 0.0000000000000000e+00 
0.0000000000000000e+00 0.0000000000000000e+00 0.0000000000000000e+00 
0.0000000000000000e+00 0.0000000000000000e+00 0.0000000000000000e+00 
0.0000000000000000e+00 0.0000000000000000e+00 0.0000000000000000e+00 
0.0000000000000000e+00 0.0000000000000000e+00 0.0000000000000000e+00 
0.0000000000000000e+00 0.0000000000000000e+00 0.0000000000000000e+00 
0.0000000000000000e+00 0.0000000000000000e+00 0.0000000000000000e+00 
0.0000000000000000e+00 0.0000000000000000e+00 0.0000000000000000e+00 
0.0000000000000000e+00 0.0000000000000000e+00 0.0000000000000000e+00 
0.0000000000000000e+00 0.0000000000000000e+00 0.0000000000000000e+00 
0.0000000000000000e+00 0.0000000000000000e+00 0.0000000000000000e+00 
0.0000000000000000e+00 0.0000000000000000e+00 0.0000000000000000e+00 
0.0000000000000000e+00 0.0000000000000000e+00 0.0000000000000000e+00 
0.0000000000000000e+00 0.0000000000000000e+00 0.0000000000000000e+00 
0.0000000000000000e+00 0.0000000000000000e+00 0.0000000000000000e+00 
0.0000000000000000e+00 0.0000000000000000e+00 0.0000000000000000e+00 
0.0000000000000000e+00 0.0000000000000000e+00 0.0000000000000000e+00 
0.0000000000000000e+00 0.0000000000000000e+00 0.0000000000000000e+00 
0.0000000000000000e+00 0.0000000000000000e+00 0.0000000000000000e+00 
0.0000000000000000e+00 0.0000000000000000e+00 0.0000000000000000e+00 
0.0000000000000000e+00 0.0000000000000000e+00 0.0000000000000000e+00 
0.0000000000000000e+00 0.0000000000000000e+00 0.0000000000000000e+00 
0.0000000000000000e+00 0.0000000000000000e+00 0.0000000000000000e+00 
0.0000000000000000e+00 0.0000000000000000e+00 0.0000000000000000e+00 
0.0000000000000000e+00 0.0000000000000000e+00 0.0000000000000000e+00 
0.0000000000000000e+00 0.0000000000000000e+00 0.0000000000000000e+00 
0.0000000000000000e+00 0.0000000000000000e+00 0.0000000000000000e+00 
0.0000000000000000e+00 0.0000000000000000e+00 0.0000000000000000e+00 
0.0000000000000000e+00 0.0000000000000000e+00 0.0000000000000000e+00 
0.0000000000000000e+00 0.0000000000000000e+00 0.0000000000000000e+00 
0.0000000000000000e+00 0.0000000000000000e+00 0.0000000000000000e+00 
0.0000000000000000e+00 0.0000000000000000e+00 0.0000000000000000e+00 
0.0000000000000000e+00 0.0000000000000000e+00 0.0000000000000000e+00 
0.0000000000000000e+00 0.0000000000000000e+00 0.0000000000000000e+00 
0.0000000000000000e+00 0.0000000000000000e+00 0.0000000000000000e+00 
0.0000000000000000e+00 0.0000000000000000e+00 0.0000000000000000e+00 
0.0000000000000000e+00 0.0000000000000000e+00 0.0000000000000000e+00 
0.0000000000000000e+00 0.0000000000000000e+00 0.0000000000000000e+00 
0.0000000000000000e+00 0.0000000000000000e+00 0.0000000000000000e+00 
0.0000000000000000e+00 0.0000000000000000e+00 0.0000000000000000e+00 
0.0000000000000000e+00 0.0000000000000000e+00 0.0000000000000000e+00 
0.0000000000000000e+00 0.0000000000000000e+00 0.0000000000000000e+00 
0.0000000000000000e+00 0.0000000000000000e+00 0.0000000000000000e+00 
0.0000000000000000e+00 0.0000000000000000e+00 0.0000000000000000e+00 
0.0000000000000000e+00 0.0000000000000000e+00 0.0000000000000000e+00 
0.0000000000000000e+00 0.0000000000000000e+00 0.0000000000000000e+00 
0.0000000000000000e+00 0.0000000000000000e+00 0.0000000000000000e+00 
0.0000000000000000e+00 0.0000000000000000e+00 0.0000000000000000e+00 
0.0000000000000000e+00 0.0000000000000000e+00 0.0000000000000000e+00 
0.0000000000000000e+00 0.0000000000000000e+00 0.0000000000000000e+00 
0.0000000000000000e+00 0.0000000000000000e+00 0.0000000000000000e+00 
0.0000000000000000e+00 0.0000000000000000e+00 0.0000000000000000e+00 
0.0000000000000000e+00 0.0000000000000000e+00 0.0000000000000000e+00 
0.0000000000000000e+00 0.0000000000000000e+00 0.0000000000000000e+00 
0.0000000000000000e+00 0.0000000000000000e+00 0.0000000000000000e+00 
0.0000000000000000e+00 0.0000000000000000e+00 0.0000000000000000e+00 
0.0000000000000000e+00 0.0000000000000000e+00 0.0000000000000000e+00 
0.0000000000000000e+00 0.0000000000000000e+00 0.0000000000000000e+00 
0.0000000000000000e+00 0.0000000000000000e+00 0.0000000000000000e+00 
0.0000000000000000e+00 0.0000000000000000e+00 0.0000000000000000e+00 
0.0000000000000000e+00 0.0000000000000000e+00 0.0000000000000000e+00 
0.0000000000000000e+00 0.0000000000000000e+00 0.0000000000000000e+00 
0.0000000000000000e+00 0.0000000000000000e+00 0.0000000000000000e+00 
0.0000000000000000e+00 0.0000000000000000e+00 0.0000000000000000e+00 
0.0000000000000000e+00 0.0000000000000000e+00 0.0000000000000000e+00 
0.0000000000000000e+00 0.0000000000000000e+00 0.0000000000000000e+00 
0.0000000000000000e+00 0.0000000000000000e+00 0.0000000000000000e+00 
0.0000000000000000e+00 0.0000000000000000e+00 0.0000000000000000e+00 
0.0000000000000000e+00 0.0000000000000000e+00 0.0000000000000000e+00 
0.0000000000000000e+00 0.0000000000000000e+00 0.0000000000000000e+00 
0.0000000000000000e+00 0.0000000000000000e+00 0.0000000000000000e+00 
0.0000000000000000e+00 0.0000000000000000e+00 0.0000000000000000e+00 
0.0000000000000000e+00 0.0000000000000000e+00 0.0000000000000000e+00 
0.0000000000000000e+00 0.0000000000000000e+00 0.0000000000000000e+00 
0.0000000000000000e+00 0.0000000000000000e+00 0.0000000000000000e+00 
0.0000000000000000e+00 0.0000000000000000e+00 0.0000000000000000e+00 
0.0000000000000000e+00 0.0000000000000000e+00 0.0000000000000000e+00 
0.0000000000000000e+00 0.0000000000000000e+00 0.0000000000000000e+00 
0.0000000000000000e+00 0.0000000000000000e+00 0.0000000000000000e+00 
0.0000000000000000e+00 0.0000000000000000e+00 0.0000000000000000e+00 
0.0000000000000000e+00 0.0000000000000000e+00 0.0000000000000000e+00 
0.0000000000000000e+00 0.0000000000000000e+00 0.0000000000000000e+00 
0.0000000000000000e+00 0.0000000000000000e+00 0.0000000000000000e+00 
0.0000000000000000e+00 0.0000000000000000e+00 0.0000000000000000e+00 
0.0000000000000000e+00 0.0000000000000000e+00 0.0000000000000000e+00 
0.0000000000000000e+00 0.0000000000000000e+00 0.0000000000000000e+00 
0.0000000000000000e+00 0.0000000000000000e+00 0.0000000000000000e+00 
0.0000000000000000e+00 0.0000000000000000e+00 0.0000000000000000e+00 
0.0000000000000000e+00 0.0000000000000000e+00 0.0000000000000000e+00 
0.0000000000000000e+00 0.0000000000000000e+00 0.0000000000000000e+00 
0.0000000000000000e+00 0.0000000000000000e+00 0.0000000000000000e+00 
0.0000000000000000e+00 0.0000000000000000e+00 0.0000000000000000e+00 
0.0000000000000000e+00 0.0000000000000000e+00 0.0000000000000000e+00 
0.0000000000000000e+00 0.0000000000000000e+00 0.0000000000000000e+00 
0.0000000000000000e+00 0.0000000000000000e+00 0.0000000000000000e+00 
0.0000000000000000e+00 0.0000000000000000e+00 0.0000000000000000e+00 
0.0000000000000000e+00 0.0000000000000000e+00 0.0000000000000000e+00 
0.0000000000000000e+00 0.0000000000000000e+00 0.0000000000000000e+00 
0.0000000000000000e+00 0.0000000000000000e+00 0.0000000000000000e+00 
0.0000000000000000e+00 0.0000000000000000e+00 0.0000000000000000e+00 
0.0000000000000000e+00 0.0000000000000000e+00 0.0000000000000000e+00 
0.0000000000000000e+00 0.0000000000000000e+00 0.0000000000000000e+00 
0.0000000000000000e+00 0.0000000000000000e+00 0.0000000000000000e+00 
0.0000000000000000e+00 0.0000000000000000e+00 0.0000000000000000e+00 
0.0000000000000000e+00 0.0000000000000000e+00 0.0000000000000000e+00 
0.0000000000000000e+00 0.0000000000000000e+00 0.0000000000000000e+00 
0.0000000000000000e+00 0.0000000000000000e+00 0.0000000000000000e+00 
0.0000000000000000e+00 0.0000000000000000e+00 0.0000000000000000e+00 
0.0000000000000000e+00 0.0000000000000000e+00 0.0000000000000000e+00 
0.0000000000000000e+00 0.0000000000000000e+00 0.0000000000000000e+00 
0.0000000000000000e+00 0.0000000000000000e+00 0.0000000000000000e+00 
0.0000000000000000e+00 0.0000000000000000e+00 0.0000000000000000e+00 
0.0000000000000000e+00 0.0000000000000000e+00 0.0000000000000000e+00 
0.0000000000000000e+00 0.0000000000000000e+00 0.0000000000000000e+00 
0.0000000000000000e+00 0.0000000000000000e+00 0.0000000000000000e+00 
0.0000000000000000e+00 0.0000000000000000e+00 0.0000000000000000e+00 
0.0000000000000000e+00 0.0000000000000000e+00 0.0000000000000000e+00 
0.0000000000000000e+00 0.0000000000000000e+00 0.0000000000000000e+00 
0.0000000000000000e+00 0.0000000000000000e+00 0.0000000000000000e+00 
0.0000000000000000e+00 0.0000000000000000e+00 0.0000000000000000e+00 
0.0000000000000000e+00 0.0000000000000000e+00 0.0000000000000000e+00 
0.0000000000000000e+00 0.0000000000000000e+00 0.0000000000000000e+00 
0.0000000000000000e+00 0.0000000000000000e+00 0.0000000000000000e+00 
0.0000000000000000e+00 0.0000000000000000e+00 0.0000000000000000e+00 
0.0000000000000000e+00 0.0000000000000000e+00 0.0000000000000000e+00 
0.0000000000000000e+00 0.0000000000000000e+00 0.0000000000000000e+00 
0.0000000000000000e+00 0.0000000000000000e+00 0.0000000000000000e+00 
0.0000000000000000e+00 0.0000000000000000e+00 0.0000000000000000e+00 
0.0000000000000000e+00 0.0000000000000000e+00 0.0000000000000000e+00 
0.0000000000000000e+00 0.0000000000000000e+00 0.0000000000000000e+00 
0.0000000000000000e+00 0.0000000000000000e+00 0.0000000000000000e+00 
0.0000000000000000e+00 0.0000000000000000e+00 0.0000000000000000e+00 
0.0000000000000000e+00 0.0000000000000000e+00 0.0000000000000000e+00 
0.0000000000000000e+00 0.0000000000000000e+00 0.0000000000000000e+00 
0.0000000000000000e+00 0.0000000000000000e+00 0.0000000000000000e+00 
0.0000000000000000e+00 0.0000000000000000e+00 0.0000000000000000e+00 
0.0000000000000000e+00 0.0000000000000000e+00 0.0000000000000000e+00 
0.0000000000000000e+00 0.0000000000000000e+00 0.0000000000000000e+00 
0.0000000000000000e+00 0.0000000000000000e+00 0.0000000000000000e+00 
0.0000000000000000e+00 0.0000000000000000e+00 0.0000000000000000e+00 
0.0000000000000000e+00 0.0000000000000000e+00 0.0000000000000000e+00 
0.0000000000000000e+00 0.0000000000000000e+00 0.0000000000000000e+00 
0.0000000000000000e+00 0.0000000000000000e+00 0.0000000000000000e+00 
0.0000000000000000e+00 0.0000000000000000e+00 0.0000000000000000e+00 
0.0000000000000000e+00 0.0000000000000000e+00 0.0000000000000000e+00 
0.0000000000000000e+00 0.0000000000000000e+00 0.0000000000000000e+00 
0.0000000000000000e+00 0.0000000000000000e+00 0.0000000000000000e+00 
0.0000000000000000e+00 0.0000000000000000e+00 0.0000000000000000e+00 
0.0000000000000000e+00 0.0000000000000000e+00 0.0000000000000000e+00 
0.0000000000000000e+00 0.0000000000000000e+00 0.0000000000000000e+00 
0.0000000000000000e+00 0.0000000000000000e+00 0.0000000000000000e+00 
0.0000000000000000e+00 0.0000000000000000e+00 0.0000000000000000e+00 
0.0000000000000000e+00 0.0000000000000000e+00 0.0000000000000000e+00 
0.0000000000000000e+00 0.0000000000000000e+00 0.0000000000000000e+00 
0.0000000000000000e+00 0.0000000000000000e+00 0.0000000000000000e+00 
0.0000000000000000e+00 0.0000000000000000e+00 0.0000000000000000e+00 
0.0000000000000000e+00 0.0000000000000000e+00 0.0000000000000000e+00 
0.0000000000000000e+00 0.0000000000000000e+00 0.0000000000000000e+00 

SCALARS Heat-Flux double
LOOKUP_TABLE default
4.0853778208889580e+03
4.0278252129536831e+03
3.9696907626250249e+03
3.9109685875670630e+03
3.8516527460905363e+03
3.7917372364530875e+03
3.7312159960333165e+03
3.6700829010210373e+03
3.6083317658896140e+03
3.5459563423635109e+03
3.4829503188447279e+03
3.4193073202980895e+03
3.3521191150946961e+03
3.2826986782853737e+03
3.2125764182593607e+03
3.1417452397825173e+03
3.0701979760012109e+03
2.9979273873386019e+03
2.9249261611267461e+03
2.8511869109933964e+03
2.7767021755130099e+03
2.7014644180841201e+03
2.6298350479326109e+03
2.6188138392757428e+03
2.6076812089814985e+03
2.5964360305643722e+03
2.5850771662354418e+03
2.5736034666558826e+03
2.5620137708313255e+03
2.5503069060942457e+03
2.5384816879102996e+03
2.5265369197550713e+03
2.5155811811171966e+03
2.5056274440174998e+03
2.4955730772781235e+03
2.4854170634006996e+03
2.4751583746486040e+03
2.4647959732482732e+03
2.4543288104976727e+03
2.4437558273414738e+03
2.4330759540834711e+03
2.4261580095528475e+03
2.4203017325402639e+03
2.4143862500827163e+03
2.4084109635732266e+03
2.4023752683770158e+03
2.3962785538315052e+03
2.3901202030917548e+03
2.3838995929759058e+03
2.3793261256290111e+03
2.3752696974301862e+03
2.3711722597776502e+03
2.3670333980927585e+03
2.3628526935493373e+03
2.3586297231230733e+03
2.3543640595421234e+03
2.3505917125068900e+03
2.3478715234680153e+03
2.3451238340073000e+03
2.3423483660627066e+03
2.3395448388557861e+03
2.3367129687064612e+03
2.3338524690330341e+03
2.3314428882416014e+03
2.3296628594325884e+03
2.3278648349781174e+03
2.3260486329611795e+03
2.3242140696009769e+03
2.3223609592529242e+03
2.3204891144086491e+03
2.3193799494550299e+03
2.3182865212514366e+03
2.3171820387619873e+03
2.3160663902279407e+03
2.3149394627696229e+03
2.3138011423541002e+03
2.3131574712787269e+03
2.3125618086460081e+03
2.3119601240087586e+03
2.3113523564905727e+03
2.3107384446014753e+03
2.3101925071450446e+03
2.3099625102857422e+03
2.3097301882158886e+03
2.3094955174280276e+03
2.3092584741772325e+03
2.3090190344790790e+03
2.3089812210247997e+03
2.3089995026799133e+03
2.3090179691578633e+03
2.3090366223272431e+03
2.3090554640754813e+03
2.3091579781341511e+03
2.3093050281191472e+03
2.3094535647432876e+03
2.3096036030349082e+03
2.3097551581756993e+03
2.3099612165663075e+03
2.3101839900145192e+03
2.3104090156467705e+03
2.3106363162298267e+03
2.3108644810685687e+03
2.3110859601966977e+03
2.3113096784233421e+03
2.3115356583854032e+03
2.3117639229483411e+03
2.3119468584404390e+03
2.3121110559298213e+03
2.3122769134137625e+03
2.3124444476750455e+03
2.3125706210269618e+03
2.3126452326618164e+03
2.3127205986015861e+03
2.3127967264716622e+03
2.3128191432997564e+03
2.3127506698719503e+03
2.3126815041951522e+03
2.3126116392702370e+03
2.3124692252037348e+03
2.3122409372226766e+03
2.3120103413074744e+03
2.3117774141257491e+03
2.3114119030949678e+03
2.3109852229719208e+03
2.3105542292198311e+03
2.3101064873027176e+03
2.3094787150538368e+03
2.3088445961837942e+03
2.3082040665336522e+03
2.3074459375868096e+03
2.3065943101003968e+03
2.3057340728737122e+03
2.3048416551255664e+03
2.3038353455925258e+03
2.3028188625233165e+03
2.3017921030680550e+03
2.3007772615629092e+03
2.2997542889506462e+03
2.2987209743421849e+03
2.2978572843525822e+03
2.2970461693838524e+03
2.2962268542455558e+03
2.2959313989061893e+03
2.2958864751558631e+03
2.2958410972375641e+03
2.2970663588330199e+03
2.2988469489741651e+03
2.3006455404339376e+03
2.3054793648582613e+03
2.3110657908078192e+03
2.3167442596740580e+03
2.3337318234373893e+03
2.3508911272383903e+03
2.3696570741386627e+03
2.3924705517083703e+03
2.4155146679259415e+03
2.5701800369352259e+03
2.8095645407374818e+03
3.0511238452033958e+03
3.2853370011598900e+03
3.5219179943868985e+03

