# vtk DataFile Version 2.0

ASCII

DATASET UNSTRUCTURED_GRID

POINTS 161 float 

1.2479480269999999e-03  0.0000000000000000e+00  5.0000000000000001e-03
3.7564605215000000e-03  0.0000000000000000e+00  5.0000000000000001e-03
6.2903334464999997e-03  0.0000000000000000e+00  4.9999999999999992e-03
8.8498231919999990e-03  0.0000000000000000e+00  5.0000000000000001e-03
1.1435188734999999e-02  0.0000000000000000e+00  4.9999999999999992e-03
1.4046691670000000e-02  0.0000000000000000e+00  4.9999999999999992e-03
1.6684596245000002e-02  0.0000000000000000e+00  5.0000000000000001e-03
1.9349169374999999e-02  0.0000000000000000e+00  5.0000000000000001e-03
2.2040680665000000e-02  0.0000000000000000e+00  5.0000000000000001e-03
2.4759402454999999e-02  0.0000000000000000e+00  4.9999999999999992e-03
2.7505609845000001e-02  0.0000000000000000e+00  5.0000000000000001e-03
3.0279580699999996e-02  0.0000000000000000e+00  5.0000000000000001e-03
3.3081595700000001e-02  0.0000000000000000e+00  5.0000000000000001e-03
3.5911938369999993e-02  0.0000000000000000e+00  4.9999999999999992e-03
3.8770895094999994e-02  0.0000000000000000e+00  5.0000000000000001e-03
4.1658755154999998e-02  0.0000000000000000e+00  4.9999999999999992e-03
4.4575810750000000e-02  0.0000000000000000e+00  5.0000000000000001e-03
4.7522357044999998e-02  0.0000000000000000e+00  5.0000000000000001e-03
5.0498692184999999e-02  0.0000000000000000e+00  4.9999999999999992e-03
5.3505117320000004e-02  0.0000000000000000e+00  4.9999999999999992e-03
5.6541936659999993e-02  0.0000000000000000e+00  5.0000000000000001e-03
5.9609457479999996e-02  0.0000000000000000e+00  4.9999999999999992e-03
6.2707990165000005e-02  0.0000000000000000e+00  4.9999999999999992e-03
6.5837848234999996e-02  0.0000000000000000e+00  5.0000000000000001e-03
6.8999348379999978e-02  0.0000000000000000e+00  5.0000000000000001e-03
7.2192810504999996e-02  0.0000000000000000e+00  4.9999999999999992e-03
7.5418557725000002e-02  0.0000000000000000e+00  4.9999999999999992e-03
7.8676916435000008e-02  0.0000000000000000e+00  5.0000000000000010e-03
8.1968216339999983e-02  0.0000000000000000e+00  5.0000000000000001e-03
8.5292790459999962e-02  0.0000000000000000e+00  5.0000000000000001e-03
8.8650975185000008e-02  0.0000000000000000e+00  5.0000000000000001e-03
9.2043110309999995e-02  0.0000000000000000e+00  5.0000000000000001e-03
9.5469539069999998e-02  0.0000000000000000e+00  5.0000000000000001e-03
9.8930608189999991e-02  0.0000000000000000e+00  4.9999999999999992e-03
1.0242666780000000e-01  0.0000000000000000e+00  4.9999999999999992e-03
1.0595807169999999e-01  0.0000000000000000e+00  4.9999999999999992e-03
1.0952517724999997e-01  0.0000000000000000e+00  5.0000000000000001e-03
1.1312834530000000e-01  0.0000000000000000e+00  4.9999999999999992e-03
1.1676794050000000e-01  0.0000000000000000e+00  5.0000000000000001e-03
1.2044433110000001e-01  0.0000000000000000e+00  5.0000000000000001e-03
1.2415788905000000e-01  0.0000000000000000e+00  5.0000000000000001e-03
1.2790899014999998e-01  0.0000000000000000e+00  5.0000000000000001e-03
1.3169801394999997e-01  0.0000000000000000e+00  5.0000000000000001e-03
1.3552534380000000e-01  0.0000000000000000e+00  5.0000000000000001e-03
1.3939136699999999e-01  0.0000000000000000e+00  5.0000000000000001e-03
1.4329647475000001e-01  0.0000000000000000e+00  5.0000000000000001e-03
1.4724106214999996e-01  0.0000000000000000e+00  5.0000000000000001e-03
1.5122552829999997e-01  0.0000000000000000e+00  4.9999999999999992e-03
1.5525027640000003e-01  0.0000000000000000e+00  4.9999999999999992e-03
1.5931571375000000e-01  0.0000000000000000e+00  4.9999999999999992e-03
1.6342225165000002e-01  0.0000000000000000e+00  5.0000000000000010e-03
1.6757030560000000e-01  0.0000000000000000e+00  4.9999999999999992e-03
1.7176029530000000e-01  0.0000000000000000e+00  4.9999999999999992e-03
1.7599264475000001e-01  0.0000000000000000e+00  4.9999999999999992e-03
1.8026778220000000e-01  0.0000000000000000e+00  4.9999999999999992e-03
1.8458614019999994e-01  0.0000000000000000e+00  5.0000000000000001e-03
1.8894815575000001e-01  0.0000000000000000e+00  5.0000000000000001e-03
1.9335427015000001e-01  0.0000000000000000e+00  5.0000000000000001e-03
1.9780492925000001e-01  0.0000000000000000e+00  4.9999999999999992e-03
2.0230058345000002e-01  0.0000000000000000e+00  5.0000000000000010e-03
2.0684168754999993e-01  0.0000000000000000e+00  4.9999999999999992e-03
2.1142870104999997e-01  0.0000000000000000e+00  4.9999999999999992e-03
2.1606208815000003e-01  0.0000000000000000e+00  5.0000000000000001e-03
2.2074231760000002e-01  0.0000000000000000e+00  5.0000000000000001e-03
2.2546986299999994e-01  0.0000000000000000e+00  4.9999999999999992e-03
2.3024520270000004e-01  0.0000000000000000e+00  5.0000000000000001e-03
2.3506881985000000e-01  0.0000000000000000e+00  5.0000000000000001e-03
2.3994120254999993e-01  0.0000000000000000e+00  4.9999999999999992e-03
2.4486284384999990e-01  0.0000000000000000e+00  4.9999999999999992e-03
2.4983424175000005e-01  0.0000000000000000e+00  5.0000000000000001e-03
2.5485589919999996e-01  0.0000000000000000e+00  5.0000000000000001e-03
2.5992832430000001e-01  0.0000000000000000e+00  4.9999999999999992e-03
2.6505203035000002e-01  0.0000000000000000e+00  5.0000000000000001e-03
2.7022753579999997e-01  0.0000000000000000e+00  5.0000000000000001e-03
2.7545536430000001e-01  0.0000000000000000e+00  4.9999999999999992e-03
2.8073604484999992e-01  0.0000000000000000e+00  5.0000000000000001e-03
2.8607011175000002e-01  0.0000000000000000e+00  4.9999999999999992e-03
2.9145810469999994e-01  0.0000000000000000e+00  5.0000000000000001e-03
2.9690056895000000e-01  0.0000000000000000e+00  5.0000000000000001e-03
3.0239805514999996e-01  0.0000000000000000e+00  4.9999999999999992e-03
3.0795111949999993e-01  0.0000000000000000e+00  4.9999999999999992e-03
3.1356032394999994e-01  0.0000000000000000e+00  5.0000000000000001e-03
3.1922623605000000e-01  0.0000000000000000e+00  4.9999999999999992e-03
3.2494942910000002e-01  0.0000000000000000e+00  5.0000000000000001e-03
3.3073048220000001e-01  0.0000000000000000e+00  5.0000000000000001e-03
3.3656998029999996e-01  0.0000000000000000e+00  4.9999999999999992e-03
3.4246851424999997e-01  0.0000000000000000e+00  5.0000000000000001e-03
3.4842668089999995e-01  0.0000000000000000e+00  5.0000000000000001e-03
3.5444508315000006e-01  0.0000000000000000e+00  4.9999999999999992e-03
3.6052432989999994e-01  0.0000000000000000e+00  5.0000000000000001e-03
3.6666503630000002e-01  0.0000000000000000e+00  4.9999999999999992e-03
3.7286782369999999e-01  0.0000000000000000e+00  4.9999999999999992e-03
3.7913331969999992e-01  0.0000000000000000e+00  5.0000000000000001e-03
3.8546215830000008e-01  0.0000000000000000e+00  4.9999999999999992e-03
3.9185497990000001e-01  0.0000000000000000e+00  4.9999999999999992e-03
3.9831243129999994e-01  0.0000000000000000e+00  4.9999999999999992e-03
4.0483516590000013e-01  0.0000000000000000e+00  5.0000000000000010e-03
4.1142384369999990e-01  0.0000000000000000e+00  4.9999999999999992e-03
4.1807913139999997e-01  0.0000000000000000e+00  5.0000000000000010e-03
4.2480170239999998e-01  0.0000000000000000e+00  5.0000000000000001e-03
4.3159223684999998e-01  0.0000000000000000e+00  5.0000000000000001e-03
4.3845142189999992e-01  0.0000000000000000e+00  4.9999999999999992e-03
4.4537995159999999e-01  0.0000000000000000e+00  5.0000000000000001e-03
4.5237852700000003e-01  0.0000000000000000e+00  5.0000000000000001e-03
4.5944785624999995e-01  0.0000000000000000e+00  5.0000000000000001e-03
4.6658865464999993e-01  0.0000000000000000e+00  5.0000000000000001e-03
4.7380164474999997e-01  0.0000000000000000e+00  5.0000000000000001e-03
4.8108755635000006e-01  0.0000000000000000e+00  4.9999999999999992e-03
4.8844712664999995e-01  0.0000000000000000e+00  5.0000000000000001e-03
4.9588110034999994e-01  0.0000000000000000e+00  5.0000000000000001e-03
5.0339022965000002e-01  0.0000000000000000e+00  5.0000000000000001e-03
5.1097527440000001e-01  0.0000000000000000e+00  4.9999999999999992e-03
5.1863700204999996e-01  0.0000000000000000e+00  5.0000000000000001e-03
5.2637618779999995e-01  0.0000000000000000e+00  5.0000000000000001e-03
5.3419361479999994e-01  0.0000000000000000e+00  5.0000000000000010e-03
5.4209007399999998e-01  0.0000000000000000e+00  4.9999999999999992e-03
5.5006636440000001e-01  0.0000000000000000e+00  5.0000000000000001e-03
5.5812329314999998e-01  0.0000000000000000e+00  4.9999999999999992e-03
5.6626167540000005e-01  0.0000000000000000e+00  5.0000000000000001e-03
5.7448233464999987e-01  0.0000000000000000e+00  5.0000000000000001e-03
5.8278610269999997e-01  0.0000000000000000e+00  5.0000000000000001e-03
5.9117381974999994e-01  0.0000000000000000e+00  4.9999999999999992e-03
5.9964633455000005e-01  0.0000000000000000e+00  5.0000000000000001e-03
6.0820450429999984e-01  0.0000000000000000e+00  4.9999999999999992e-03
6.1684919500000002e-01  0.0000000000000000e+00  4.9999999999999992e-03
6.2558128135000002e-01  0.0000000000000000e+00  5.0000000000000001e-03
6.3440164690000012e-01  0.0000000000000000e+00  5.0000000000000001e-03
6.4331118414999999e-01  0.0000000000000000e+00  4.9999999999999992e-03
6.5231079454999996e-01  0.0000000000000000e+00  4.9999999999999992e-03
6.6140138874999999e-01  0.0000000000000000e+00  5.0000000000000001e-03
6.7058388659999979e-01  0.0000000000000000e+00  5.0000000000000001e-03
6.7985921719999998e-01  0.0000000000000000e+00  5.0000000000000001e-03
6.8922831899999992e-01  0.0000000000000000e+00  5.0000000000000001e-03
6.9869214010000003e-01  0.0000000000000000e+00  4.9999999999999992e-03
7.0825163804999991e-01  0.0000000000000000e+00  4.9999999999999992e-03
7.1790778009999989e-01  0.0000000000000000e+00  4.9999999999999992e-03
7.2766154334999988e-01  0.0000000000000000e+00  5.0000000000000001e-03
7.3751391469999994e-01  0.0000000000000000e+00  4.9999999999999992e-03
7.4746589105000005e-01  0.0000000000000000e+00  4.9999999999999992e-03
7.5751847935000005e-01  0.0000000000000000e+00  5.0000000000000001e-03
7.6767269679999994e-01  0.0000000000000000e+00  4.9999999999999992e-03
7.7792957084999992e-01  0.0000000000000000e+00  4.9999999999999992e-03
7.8829013929999980e-01  0.0000000000000000e+00  5.0000000000000001e-03
7.9875545049999985e-01  0.0000000000000000e+00  5.0000000000000001e-03
8.0932656339999998e-01  0.0000000000000000e+00  5.0000000000000001e-03
8.2000454754999985e-01  0.0000000000000000e+00  4.9999999999999992e-03
8.3079048344999995e-01  0.0000000000000000e+00  4.9999999999999992e-03
8.4168546245000009e-01  0.0000000000000000e+00  4.9999999999999992e-03
8.5269058694999988e-01  0.0000000000000000e+00  5.0000000000000001e-03
8.6380697049999999e-01  0.0000000000000000e+00  5.0000000000000001e-03
8.7503573785000011e-01  0.0000000000000000e+00  4.9999999999999992e-03
8.8637802525000009e-01  0.0000000000000000e+00  5.0000000000000001e-03
8.9783498034999998e-01  0.0000000000000000e+00  5.0000000000000001e-03
9.0940776235000009e-01  0.0000000000000000e+00  5.0000000000000001e-03
9.2109754224999996e-01  0.0000000000000000e+00  5.0000000000000001e-03
9.3290550294999997e-01  0.0000000000000000e+00  5.0000000000000001e-03
9.4483283914999983e-01  0.0000000000000000e+00  5.0000000000000001e-03
9.5688075770000014e-01  0.0000000000000000e+00  5.0000000000000001e-03
9.6905047764999985e-01  0.0000000000000000e+00  5.0000000000000001e-03
9.8134323040000015e-01  0.0000000000000000e+00  5.0000000000000010e-03
9.9376025984999972e-01  0.0000000000000000e+00  5.0000000000000001e-03

CELLS 0 0


CELL_TYPES 0


POINT_DATA 161

VECTORS VertexNormals float

0.0000000000000000e+00 0.0000000000000000e+00 0.0000000000000000e+00 
0.0000000000000000e+00 0.0000000000000000e+00 0.0000000000000000e+00 
0.0000000000000000e+00 0.0000000000000000e+00 0.0000000000000000e+00 
0.0000000000000000e+00 0.0000000000000000e+00 0.0000000000000000e+00 
0.0000000000000000e+00 0.0000000000000000e+00 0.0000000000000000e+00 
0.0000000000000000e+00 0.0000000000000000e+00 0.0000000000000000e+00 
0.0000000000000000e+00 0.0000000000000000e+00 0.0000000000000000e+00 
0.0000000000000000e+00 0.0000000000000000e+00 0.0000000000000000e+00 
0.0000000000000000e+00 0.0000000000000000e+00 0.0000000000000000e+00 
0.0000000000000000e+00 0.0000000000000000e+00 0.0000000000000000e+00 
0.0000000000000000e+00 0.0000000000000000e+00 0.0000000000000000e+00 
0.0000000000000000e+00 0.0000000000000000e+00 0.0000000000000000e+00 
0.0000000000000000e+00 0.0000000000000000e+00 0.0000000000000000e+00 
0.0000000000000000e+00 0.0000000000000000e+00 0.0000000000000000e+00 
0.0000000000000000e+00 0.0000000000000000e+00 0.0000000000000000e+00 
0.0000000000000000e+00 0.0000000000000000e+00 0.0000000000000000e+00 
0.0000000000000000e+00 0.0000000000000000e+00 0.0000000000000000e+00 
0.0000000000000000e+00 0.0000000000000000e+00 0.0000000000000000e+00 
0.0000000000000000e+00 0.0000000000000000e+00 0.0000000000000000e+00 
0.0000000000000000e+00 0.0000000000000000e+00 0.0000000000000000e+00 
0.0000000000000000e+00 0.0000000000000000e+00 0.0000000000000000e+00 
0.0000000000000000e+00 0.0000000000000000e+00 0.0000000000000000e+00 
0.0000000000000000e+00 0.0000000000000000e+00 0.0000000000000000e+00 
0.0000000000000000e+00 0.0000000000000000e+00 0.0000000000000000e+00 
0.0000000000000000e+00 0.0000000000000000e+00 0.0000000000000000e+00 
0.0000000000000000e+00 0.0000000000000000e+00 0.0000000000000000e+00 
0.0000000000000000e+00 0.0000000000000000e+00 0.0000000000000000e+00 
0.0000000000000000e+00 0.0000000000000000e+00 0.0000000000000000e+00 
0.0000000000000000e+00 0.0000000000000000e+00 0.0000000000000000e+00 
0.0000000000000000e+00 0.0000000000000000e+00 0.0000000000000000e+00 
0.0000000000000000e+00 0.0000000000000000e+00 0.0000000000000000e+00 
0.0000000000000000e+00 0.0000000000000000e+00 0.0000000000000000e+00 
0.0000000000000000e+00 0.0000000000000000e+00 0.0000000000000000e+00 
0.0000000000000000e+00 0.0000000000000000e+00 0.0000000000000000e+00 
0.0000000000000000e+00 0.0000000000000000e+00 0.0000000000000000e+00 
0.0000000000000000e+00 0.0000000000000000e+00 0.0000000000000000e+00 
0.0000000000000000e+00 0.0000000000000000e+00 0.0000000000000000e+00 
0.0000000000000000e+00 0.0000000000000000e+00 0.0000000000000000e+00 
0.0000000000000000e+00 0.0000000000000000e+00 0.0000000000000000e+00 
0.0000000000000000e+00 0.0000000000000000e+00 0.0000000000000000e+00 
0.0000000000000000e+00 0.0000000000000000e+00 0.0000000000000000e+00 
0.0000000000000000e+00 0.0000000000000000e+00 0.0000000000000000e+00 
0.0000000000000000e+00 0.0000000000000000e+00 0.0000000000000000e+00 
0.0000000000000000e+00 0.0000000000000000e+00 0.0000000000000000e+00 
0.0000000000000000e+00 0.0000000000000000e+00 0.0000000000000000e+00 
0.0000000000000000e+00 0.0000000000000000e+00 0.0000000000000000e+00 
0.0000000000000000e+00 0.0000000000000000e+00 0.0000000000000000e+00 
0.0000000000000000e+00 0.0000000000000000e+00 0.0000000000000000e+00 
0.0000000000000000e+00 0.0000000000000000e+00 0.0000000000000000e+00 
0.0000000000000000e+00 0.0000000000000000e+00 0.0000000000000000e+00 
0.0000000000000000e+00 0.0000000000000000e+00 0.0000000000000000e+00 
0.0000000000000000e+00 0.0000000000000000e+00 0.0000000000000000e+00 
0.0000000000000000e+00 0.0000000000000000e+00 0.0000000000000000e+00 
0.0000000000000000e+00 0.0000000000000000e+00 0.0000000000000000e+00 
0.0000000000000000e+00 0.0000000000000000e+00 0.0000000000000000e+00 
0.0000000000000000e+00 0.0000000000000000e+00 0.0000000000000000e+00 
0.0000000000000000e+00 0.0000000000000000e+00 0.0000000000000000e+00 
0.0000000000000000e+00 0.0000000000000000e+00 0.0000000000000000e+00 
0.0000000000000000e+00 0.0000000000000000e+00 0.0000000000000000e+00 
0.0000000000000000e+00 0.0000000000000000e+00 0.0000000000000000e+00 
0.0000000000000000e+00 0.0000000000000000e+00 0.0000000000000000e+00 
0.0000000000000000e+00 0.0000000000000000e+00 0.0000000000000000e+00 
0.0000000000000000e+00 0.0000000000000000e+00 0.0000000000000000e+00 
0.0000000000000000e+00 0.0000000000000000e+00 0.0000000000000000e+00 
0.0000000000000000e+00 0.0000000000000000e+00 0.0000000000000000e+00 
0.0000000000000000e+00 0.0000000000000000e+00 0.0000000000000000e+00 
0.0000000000000000e+00 0.0000000000000000e+00 0.0000000000000000e+00 
0.0000000000000000e+00 0.0000000000000000e+00 0.0000000000000000e+00 
0.0000000000000000e+00 0.0000000000000000e+00 0.0000000000000000e+00 
0.0000000000000000e+00 0.0000000000000000e+00 0.0000000000000000e+00 
0.0000000000000000e+00 0.0000000000000000e+00 0.0000000000000000e+00 
0.0000000000000000e+00 0.0000000000000000e+00 0.0000000000000000e+00 
0.0000000000000000e+00 0.0000000000000000e+00 0.0000000000000000e+00 
0.0000000000000000e+00 0.0000000000000000e+00 0.0000000000000000e+00 
0.0000000000000000e+00 0.0000000000000000e+00 0.0000000000000000e+00 
0.0000000000000000e+00 0.0000000000000000e+00 0.0000000000000000e+00 
0.0000000000000000e+00 0.0000000000000000e+00 0.0000000000000000e+00 
0.0000000000000000e+00 0.0000000000000000e+00 0.0000000000000000e+00 
0.0000000000000000e+00 0.0000000000000000e+00 0.0000000000000000e+00 
0.0000000000000000e+00 0.0000000000000000e+00 0.0000000000000000e+00 
0.0000000000000000e+00 0.0000000000000000e+00 0.0000000000000000e+00 
0.0000000000000000e+00 0.0000000000000000e+00 0.0000000000000000e+00 
0.0000000000000000e+00 0.0000000000000000e+00 0.0000000000000000e+00 
0.0000000000000000e+00 0.0000000000000000e+00 0.0000000000000000e+00 
0.0000000000000000e+00 0.0000000000000000e+00 0.0000000000000000e+00 
0.0000000000000000e+00 0.0000000000000000e+00 0.0000000000000000e+00 
0.0000000000000000e+00 0.0000000000000000e+00 0.0000000000000000e+00 
0.0000000000000000e+00 0.0000000000000000e+00 0.0000000000000000e+00 
0.0000000000000000e+00 0.0000000000000000e+00 0.0000000000000000e+00 
0.0000000000000000e+00 0.0000000000000000e+00 0.0000000000000000e+00 
0.0000000000000000e+00 0.0000000000000000e+00 0.0000000000000000e+00 
0.0000000000000000e+00 0.0000000000000000e+00 0.0000000000000000e+00 
0.0000000000000000e+00 0.0000000000000000e+00 0.0000000000000000e+00 
0.0000000000000000e+00 0.0000000000000000e+00 0.0000000000000000e+00 
0.0000000000000000e+00 0.0000000000000000e+00 0.0000000000000000e+00 
0.0000000000000000e+00 0.0000000000000000e+00 0.0000000000000000e+00 
0.0000000000000000e+00 0.0000000000000000e+00 0.0000000000000000e+00 
0.0000000000000000e+00 0.0000000000000000e+00 0.0000000000000000e+00 
0.0000000000000000e+00 0.0000000000000000e+00 0.0000000000000000e+00 
0.0000000000000000e+00 0.0000000000000000e+00 0.0000000000000000e+00 
0.0000000000000000e+00 0.0000000000000000e+00 0.0000000000000000e+00 
0.0000000000000000e+00 0.0000000000000000e+00 0.0000000000000000e+00 
0.0000000000000000e+00 0.0000000000000000e+00 0.0000000000000000e+00 
0.0000000000000000e+00 0.0000000000000000e+00 0.0000000000000000e+00 
0.0000000000000000e+00 0.0000000000000000e+00 0.0000000000000000e+00 
0.0000000000000000e+00 0.0000000000000000e+00 0.0000000000000000e+00 
0.0000000000000000e+00 0.0000000000000000e+00 0.0000000000000000e+00 
0.0000000000000000e+00 0.0000000000000000e+00 0.0000000000000000e+00 
0.0000000000000000e+00 0.0000000000000000e+00 0.0000000000000000e+00 
0.0000000000000000e+00 0.0000000000000000e+00 0.0000000000000000e+00 
0.0000000000000000e+00 0.0000000000000000e+00 0.0000000000000000e+00 
0.0000000000000000e+00 0.0000000000000000e+00 0.0000000000000000e+00 
0.0000000000000000e+00 0.0000000000000000e+00 0.0000000000000000e+00 
0.0000000000000000e+00 0.0000000000000000e+00 0.0000000000000000e+00 
0.0000000000000000e+00 0.0000000000000000e+00 0.0000000000000000e+00 
0.0000000000000000e+00 0.0000000000000000e+00 0.0000000000000000e+00 
0.0000000000000000e+00 0.0000000000000000e+00 0.0000000000000000e+00 
0.0000000000000000e+00 0.0000000000000000e+00 0.0000000000000000e+00 
0.0000000000000000e+00 0.0000000000000000e+00 0.0000000000000000e+00 
0.0000000000000000e+00 0.0000000000000000e+00 0.0000000000000000e+00 
0.0000000000000000e+00 0.0000000000000000e+00 0.0000000000000000e+00 
0.0000000000000000e+00 0.0000000000000000e+00 0.0000000000000000e+00 
0.0000000000000000e+00 0.0000000000000000e+00 0.0000000000000000e+00 
0.0000000000000000e+00 0.0000000000000000e+00 0.0000000000000000e+00 
0.0000000000000000e+00 0.0000000000000000e+00 0.0000000000000000e+00 
0.0000000000000000e+00 0.0000000000000000e+00 0.0000000000000000e+00 
0.0000000000000000e+00 0.0000000000000000e+00 0.0000000000000000e+00 
0.0000000000000000e+00 0.0000000000000000e+00 0.0000000000000000e+00 
0.0000000000000000e+00 0.0000000000000000e+00 0.0000000000000000e+00 
0.0000000000000000e+00 0.0000000000000000e+00 0.0000000000000000e+00 
0.0000000000000000e+00 0.0000000000000000e+00 0.0000000000000000e+00 
0.0000000000000000e+00 0.0000000000000000e+00 0.0000000000000000e+00 
0.0000000000000000e+00 0.0000000000000000e+00 0.0000000000000000e+00 
0.0000000000000000e+00 0.0000000000000000e+00 0.0000000000000000e+00 
0.0000000000000000e+00 0.0000000000000000e+00 0.0000000000000000e+00 
0.0000000000000000e+00 0.0000000000000000e+00 0.0000000000000000e+00 
0.0000000000000000e+00 0.0000000000000000e+00 0.0000000000000000e+00 
0.0000000000000000e+00 0.0000000000000000e+00 0.0000000000000000e+00 
0.0000000000000000e+00 0.0000000000000000e+00 0.0000000000000000e+00 
0.0000000000000000e+00 0.0000000000000000e+00 0.0000000000000000e+00 
0.0000000000000000e+00 0.0000000000000000e+00 0.0000000000000000e+00 
0.0000000000000000e+00 0.0000000000000000e+00 0.0000000000000000e+00 
0.0000000000000000e+00 0.0000000000000000e+00 0.0000000000000000e+00 
0.0000000000000000e+00 0.0000000000000000e+00 0.0000000000000000e+00 
0.0000000000000000e+00 0.0000000000000000e+00 0.0000000000000000e+00 
0.0000000000000000e+00 0.0000000000000000e+00 0.0000000000000000e+00 
0.0000000000000000e+00 0.0000000000000000e+00 0.0000000000000000e+00 
0.0000000000000000e+00 0.0000000000000000e+00 0.0000000000000000e+00 
0.0000000000000000e+00 0.0000000000000000e+00 0.0000000000000000e+00 
0.0000000000000000e+00 0.0000000000000000e+00 0.0000000000000000e+00 
0.0000000000000000e+00 0.0000000000000000e+00 0.0000000000000000e+00 
0.0000000000000000e+00 0.0000000000000000e+00 0.0000000000000000e+00 
0.0000000000000000e+00 0.0000000000000000e+00 0.0000000000000000e+00 
0.0000000000000000e+00 0.0000000000000000e+00 0.0000000000000000e+00 
0.0000000000000000e+00 0.0000000000000000e+00 0.0000000000000000e+00 
0.0000000000000000e+00 0.0000000000000000e+00 0.0000000000000000e+00 
0.0000000000000000e+00 0.0000000000000000e+00 0.0000000000000000e+00 
0.0000000000000000e+00 0.0000000000000000e+00 0.0000000000000000e+00 
0.0000000000000000e+00 0.0000000000000000e+00 0.0000000000000000e+00 
0.0000000000000000e+00 0.0000000000000000e+00 0.0000000000000000e+00 
0.0000000000000000e+00 0.0000000000000000e+00 0.0000000000000000e+00 

SCALARS Heat-Flux float
LOOKUP_TABLE default
4.0650369215671412e+03
4.0204205367973568e+03
3.9753530915973010e+03
3.9298300258163181e+03
3.8838467332913901e+03
3.8373985613046666e+03
3.7904808099431671e+03
3.7430887318586592e+03
3.6952175318586005e+03
3.6468623661057527e+03
3.5980183416735417e+03
3.5486805164571228e+03
3.4988311768016033e+03
3.4484710645454497e+03
3.3976018241765814e+03
3.3462183085538381e+03
3.2943153185806700e+03
3.2418876024044648e+03
3.1889298551496659e+03
3.1354367184729249e+03
3.0814027795845077e+03
3.0268225711593236e+03
2.9752758136227908e+03
2.9735375607088008e+03
2.9717817344966456e+03
2.9700081573182715e+03
2.9682166497228600e+03
2.9664070304379543e+03
2.9645791163528011e+03
2.9627327225155650e+03
2.9608676621027935e+03
2.9589837463999693e+03
2.9572654582456580e+03
2.9557149668434699e+03
2.9541488003848108e+03
2.9525668003741889e+03
2.9509688067212996e+03
2.9493546577723860e+03
2.9477241901713674e+03
2.9460772389494323e+03
2.9444136374802420e+03
2.9448789540019229e+03
2.9459764145159784e+03
2.9470849700718018e+03
2.9482047328477502e+03
2.9493358161517817e+03
2.9504783344214588e+03
2.9516324032529119e+03
2.9527981394298045e+03
2.9542869447973194e+03
2.9558933369416714e+03
2.9575159693005799e+03
2.9591550060519494e+03
2.9608106130557544e+03
2.9624829578344797e+03
2.9641722095926807e+03
2.9658546196289112e+03
2.9675054226783095e+03
2.9691729149281964e+03
2.9708572651262757e+03
2.9725586436687663e+03
2.9742772227127944e+03
2.9760131761764010e+03
2.9776328563253392e+03
2.9790865395511050e+03
2.9805549191502155e+03
2.9820381436875150e+03
2.9835363632499348e+03
2.9850497294464917e+03
2.9865783954082908e+03
2.9877716637294102e+03
2.9889648981145419e+03
2.9901701958010808e+03
2.9913876787489089e+03
2.9926174701411510e+03
2.9938596944194660e+03
2.9948138843664933e+03
2.9957453455101222e+03
2.9966862234996665e+03
2.9976366135299540e+03
2.9985966117552844e+03
2.9995149598875473e+03
3.0002200456990595e+03
3.0009322597512505e+03
3.0016516741093401e+03
3.0023783615665379e+03
3.0031123956502774e+03
3.0036842502701538e+03
3.0042149431403441e+03
3.0047510011790646e+03
3.0052924786292333e+03
3.0058394302804772e+03
3.0062787389410378e+03
3.0066635185516520e+03
3.0070521881893928e+03
3.0074447871782904e+03
3.0078413552436432e+03
3.0081377995774351e+03
3.0084084769161313e+03
3.0086818907352613e+03
3.0089580686972217e+03
3.0092222522565521e+03
3.0093963631068318e+03
3.0095722341741998e+03
3.0097498832541501e+03
3.0099293283218517e+03
3.0100466946358010e+03
3.0101376345617132e+03
3.0102294938669834e+03
3.0103222818466666e+03
3.0103788232313100e+03
3.0103903026648718e+03
3.0104018981526278e+03
3.0104136108677876e+03
3.0103930025781583e+03
3.0103179322365895e+03
3.0102421029529050e+03
3.0101655070536631e+03
3.0100420941958009e+03
3.0098633215530958e+03
3.0096827415638791e+03
3.0095003359565317e+03
3.0092266848936492e+03
3.0089108118468666e+03
3.0085917454027949e+03
3.0082580992916060e+03
3.0077602634506975e+03
3.0072573946133648e+03
3.0067494419003006e+03
3.0060972223573872e+03
3.0053309411989749e+03
3.0045569131302595e+03
3.0037119140046393e+03
3.0025763863662587e+03
3.0014293788291798e+03
3.0002707753367790e+03
2.9986590190091856e+03
2.9969888264889523e+03
2.9953017487417965e+03
2.9930932507911693e+03
2.9906907105115456e+03
2.9882638811502975e+03
2.9852335028924699e+03
2.9818966396647165e+03
2.9785260415775374e+03
2.9745116485010412e+03
2.9701962333179254e+03
2.9658371903723496e+03
2.9610318456772088e+03
2.9560840985311511e+03
2.9511006949517559e+03
2.9506111791953881e+03
2.9501167145566724e+03
2.9488028455352191e+03
2.9452834695870170e+03
2.9417285136134747e+03
3.0496746890271620e+03
3.2293038689497253e+03
3.4108946207003983e+03
3.6001293949245273e+03
3.7912772860675395e+03

