# vtk DataFile Version 2.0

ASCII

DATASET UNSTRUCTURED_GRID

POINTS 161 float 

1.2479480269999999e-03  0.0000000000000000e+00  5.0000000000000001e-03
3.7564605215000000e-03  0.0000000000000000e+00  5.0000000000000001e-03
6.2903334464999997e-03  0.0000000000000000e+00  4.9999999999999992e-03
8.8498231919999990e-03  0.0000000000000000e+00  5.0000000000000001e-03
1.1435188734999999e-02  0.0000000000000000e+00  4.9999999999999992e-03
1.4046691670000000e-02  0.0000000000000000e+00  4.9999999999999992e-03
1.6684596245000002e-02  0.0000000000000000e+00  5.0000000000000001e-03
1.9349169374999999e-02  0.0000000000000000e+00  5.0000000000000001e-03
2.2040680665000000e-02  0.0000000000000000e+00  5.0000000000000001e-03
2.4759402454999999e-02  0.0000000000000000e+00  4.9999999999999992e-03
2.7505609845000001e-02  0.0000000000000000e+00  5.0000000000000001e-03
3.0279580699999996e-02  0.0000000000000000e+00  5.0000000000000001e-03
3.3081595700000001e-02  0.0000000000000000e+00  5.0000000000000001e-03
3.5911938369999993e-02  0.0000000000000000e+00  4.9999999999999992e-03
3.8770895094999994e-02  0.0000000000000000e+00  5.0000000000000001e-03
4.1658755154999998e-02  0.0000000000000000e+00  4.9999999999999992e-03
4.4575810750000000e-02  0.0000000000000000e+00  5.0000000000000001e-03
4.7522357044999998e-02  0.0000000000000000e+00  5.0000000000000001e-03
5.0498692184999999e-02  0.0000000000000000e+00  4.9999999999999992e-03
5.3505117320000004e-02  0.0000000000000000e+00  4.9999999999999992e-03
5.6541936659999993e-02  0.0000000000000000e+00  5.0000000000000001e-03
5.9609457479999996e-02  0.0000000000000000e+00  4.9999999999999992e-03
6.2707990165000005e-02  0.0000000000000000e+00  4.9999999999999992e-03
6.5837848234999996e-02  0.0000000000000000e+00  5.0000000000000001e-03
6.8999348379999978e-02  0.0000000000000000e+00  5.0000000000000001e-03
7.2192810504999996e-02  0.0000000000000000e+00  4.9999999999999992e-03
7.5418557725000002e-02  0.0000000000000000e+00  4.9999999999999992e-03
7.8676916435000008e-02  0.0000000000000000e+00  5.0000000000000010e-03
8.1968216339999983e-02  0.0000000000000000e+00  5.0000000000000001e-03
8.5292790459999962e-02  0.0000000000000000e+00  5.0000000000000001e-03
8.8650975185000008e-02  0.0000000000000000e+00  5.0000000000000001e-03
9.2043110309999995e-02  0.0000000000000000e+00  5.0000000000000001e-03
9.5469539069999998e-02  0.0000000000000000e+00  5.0000000000000001e-03
9.8930608189999991e-02  0.0000000000000000e+00  4.9999999999999992e-03
1.0242666780000000e-01  0.0000000000000000e+00  4.9999999999999992e-03
1.0595807169999999e-01  0.0000000000000000e+00  4.9999999999999992e-03
1.0952517724999997e-01  0.0000000000000000e+00  5.0000000000000001e-03
1.1312834530000000e-01  0.0000000000000000e+00  4.9999999999999992e-03
1.1676794050000000e-01  0.0000000000000000e+00  5.0000000000000001e-03
1.2044433110000001e-01  0.0000000000000000e+00  5.0000000000000001e-03
1.2415788905000000e-01  0.0000000000000000e+00  5.0000000000000001e-03
1.2790899014999998e-01  0.0000000000000000e+00  5.0000000000000001e-03
1.3169801394999997e-01  0.0000000000000000e+00  5.0000000000000001e-03
1.3552534380000000e-01  0.0000000000000000e+00  5.0000000000000001e-03
1.3939136699999999e-01  0.0000000000000000e+00  5.0000000000000001e-03
1.4329647475000001e-01  0.0000000000000000e+00  5.0000000000000001e-03
1.4724106214999996e-01  0.0000000000000000e+00  5.0000000000000001e-03
1.5122552829999997e-01  0.0000000000000000e+00  4.9999999999999992e-03
1.5525027640000003e-01  0.0000000000000000e+00  4.9999999999999992e-03
1.5931571375000000e-01  0.0000000000000000e+00  4.9999999999999992e-03
1.6342225165000002e-01  0.0000000000000000e+00  5.0000000000000010e-03
1.6757030560000000e-01  0.0000000000000000e+00  4.9999999999999992e-03
1.7176029530000000e-01  0.0000000000000000e+00  4.9999999999999992e-03
1.7599264475000001e-01  0.0000000000000000e+00  4.9999999999999992e-03
1.8026778220000000e-01  0.0000000000000000e+00  4.9999999999999992e-03
1.8458614019999994e-01  0.0000000000000000e+00  5.0000000000000001e-03
1.8894815575000001e-01  0.0000000000000000e+00  5.0000000000000001e-03
1.9335427015000001e-01  0.0000000000000000e+00  5.0000000000000001e-03
1.9780492925000001e-01  0.0000000000000000e+00  4.9999999999999992e-03
2.0230058345000002e-01  0.0000000000000000e+00  5.0000000000000010e-03
2.0684168754999993e-01  0.0000000000000000e+00  4.9999999999999992e-03
2.1142870104999997e-01  0.0000000000000000e+00  4.9999999999999992e-03
2.1606208815000003e-01  0.0000000000000000e+00  5.0000000000000001e-03
2.2074231760000002e-01  0.0000000000000000e+00  5.0000000000000001e-03
2.2546986299999994e-01  0.0000000000000000e+00  4.9999999999999992e-03
2.3024520270000004e-01  0.0000000000000000e+00  5.0000000000000001e-03
2.3506881985000000e-01  0.0000000000000000e+00  5.0000000000000001e-03
2.3994120254999993e-01  0.0000000000000000e+00  4.9999999999999992e-03
2.4486284384999990e-01  0.0000000000000000e+00  4.9999999999999992e-03
2.4983424175000005e-01  0.0000000000000000e+00  5.0000000000000001e-03
2.5485589919999996e-01  0.0000000000000000e+00  5.0000000000000001e-03
2.5992832430000001e-01  0.0000000000000000e+00  4.9999999999999992e-03
2.6505203035000002e-01  0.0000000000000000e+00  5.0000000000000001e-03
2.7022753579999997e-01  0.0000000000000000e+00  5.0000000000000001e-03
2.7545536430000001e-01  0.0000000000000000e+00  4.9999999999999992e-03
2.8073604484999992e-01  0.0000000000000000e+00  5.0000000000000001e-03
2.8607011175000002e-01  0.0000000000000000e+00  4.9999999999999992e-03
2.9145810469999994e-01  0.0000000000000000e+00  5.0000000000000001e-03
2.9690056895000000e-01  0.0000000000000000e+00  5.0000000000000001e-03
3.0239805514999996e-01  0.0000000000000000e+00  4.9999999999999992e-03
3.0795111949999993e-01  0.0000000000000000e+00  4.9999999999999992e-03
3.1356032394999994e-01  0.0000000000000000e+00  5.0000000000000001e-03
3.1922623605000000e-01  0.0000000000000000e+00  4.9999999999999992e-03
3.2494942910000002e-01  0.0000000000000000e+00  5.0000000000000001e-03
3.3073048220000001e-01  0.0000000000000000e+00  5.0000000000000001e-03
3.3656998029999996e-01  0.0000000000000000e+00  4.9999999999999992e-03
3.4246851424999997e-01  0.0000000000000000e+00  5.0000000000000001e-03
3.4842668089999995e-01  0.0000000000000000e+00  5.0000000000000001e-03
3.5444508315000006e-01  0.0000000000000000e+00  4.9999999999999992e-03
3.6052432989999994e-01  0.0000000000000000e+00  5.0000000000000001e-03
3.6666503630000002e-01  0.0000000000000000e+00  4.9999999999999992e-03
3.7286782369999999e-01  0.0000000000000000e+00  4.9999999999999992e-03
3.7913331969999992e-01  0.0000000000000000e+00  5.0000000000000001e-03
3.8546215830000008e-01  0.0000000000000000e+00  4.9999999999999992e-03
3.9185497990000001e-01  0.0000000000000000e+00  4.9999999999999992e-03
3.9831243129999994e-01  0.0000000000000000e+00  4.9999999999999992e-03
4.0483516590000013e-01  0.0000000000000000e+00  5.0000000000000010e-03
4.1142384369999990e-01  0.0000000000000000e+00  4.9999999999999992e-03
4.1807913139999997e-01  0.0000000000000000e+00  5.0000000000000010e-03
4.2480170239999998e-01  0.0000000000000000e+00  5.0000000000000001e-03
4.3159223684999998e-01  0.0000000000000000e+00  5.0000000000000001e-03
4.3845142189999992e-01  0.0000000000000000e+00  4.9999999999999992e-03
4.4537995159999999e-01  0.0000000000000000e+00  5.0000000000000001e-03
4.5237852700000003e-01  0.0000000000000000e+00  5.0000000000000001e-03
4.5944785624999995e-01  0.0000000000000000e+00  5.0000000000000001e-03
4.6658865464999993e-01  0.0000000000000000e+00  5.0000000000000001e-03
4.7380164474999997e-01  0.0000000000000000e+00  5.0000000000000001e-03
4.8108755635000006e-01  0.0000000000000000e+00  4.9999999999999992e-03
4.8844712664999995e-01  0.0000000000000000e+00  5.0000000000000001e-03
4.9588110034999994e-01  0.0000000000000000e+00  5.0000000000000001e-03
5.0339022965000002e-01  0.0000000000000000e+00  5.0000000000000001e-03
5.1097527440000001e-01  0.0000000000000000e+00  4.9999999999999992e-03
5.1863700204999996e-01  0.0000000000000000e+00  5.0000000000000001e-03
5.2637618779999995e-01  0.0000000000000000e+00  5.0000000000000001e-03
5.3419361479999994e-01  0.0000000000000000e+00  5.0000000000000010e-03
5.4209007399999998e-01  0.0000000000000000e+00  4.9999999999999992e-03
5.5006636440000001e-01  0.0000000000000000e+00  5.0000000000000001e-03
5.5812329314999998e-01  0.0000000000000000e+00  4.9999999999999992e-03
5.6626167540000005e-01  0.0000000000000000e+00  5.0000000000000001e-03
5.7448233464999987e-01  0.0000000000000000e+00  5.0000000000000001e-03
5.8278610269999997e-01  0.0000000000000000e+00  5.0000000000000001e-03
5.9117381974999994e-01  0.0000000000000000e+00  4.9999999999999992e-03
5.9964633455000005e-01  0.0000000000000000e+00  5.0000000000000001e-03
6.0820450429999984e-01  0.0000000000000000e+00  4.9999999999999992e-03
6.1684919500000002e-01  0.0000000000000000e+00  4.9999999999999992e-03
6.2558128135000002e-01  0.0000000000000000e+00  5.0000000000000001e-03
6.3440164690000012e-01  0.0000000000000000e+00  5.0000000000000001e-03
6.4331118414999999e-01  0.0000000000000000e+00  4.9999999999999992e-03
6.5231079454999996e-01  0.0000000000000000e+00  4.9999999999999992e-03
6.6140138874999999e-01  0.0000000000000000e+00  5.0000000000000001e-03
6.7058388659999979e-01  0.0000000000000000e+00  5.0000000000000001e-03
6.7985921719999998e-01  0.0000000000000000e+00  5.0000000000000001e-03
6.8922831899999992e-01  0.0000000000000000e+00  5.0000000000000001e-03
6.9869214010000003e-01  0.0000000000000000e+00  4.9999999999999992e-03
7.0825163804999991e-01  0.0000000000000000e+00  4.9999999999999992e-03
7.1790778009999989e-01  0.0000000000000000e+00  4.9999999999999992e-03
7.2766154334999988e-01  0.0000000000000000e+00  5.0000000000000001e-03
7.3751391469999994e-01  0.0000000000000000e+00  4.9999999999999992e-03
7.4746589105000005e-01  0.0000000000000000e+00  4.9999999999999992e-03
7.5751847935000005e-01  0.0000000000000000e+00  5.0000000000000001e-03
7.6767269679999994e-01  0.0000000000000000e+00  4.9999999999999992e-03
7.7792957084999992e-01  0.0000000000000000e+00  4.9999999999999992e-03
7.8829013929999980e-01  0.0000000000000000e+00  5.0000000000000001e-03
7.9875545049999985e-01  0.0000000000000000e+00  5.0000000000000001e-03
8.0932656339999998e-01  0.0000000000000000e+00  5.0000000000000001e-03
8.2000454754999985e-01  0.0000000000000000e+00  4.9999999999999992e-03
8.3079048344999995e-01  0.0000000000000000e+00  4.9999999999999992e-03
8.4168546245000009e-01  0.0000000000000000e+00  4.9999999999999992e-03
8.5269058694999988e-01  0.0000000000000000e+00  5.0000000000000001e-03
8.6380697049999999e-01  0.0000000000000000e+00  5.0000000000000001e-03
8.7503573785000011e-01  0.0000000000000000e+00  4.9999999999999992e-03
8.8637802525000009e-01  0.0000000000000000e+00  5.0000000000000001e-03
8.9783498034999998e-01  0.0000000000000000e+00  5.0000000000000001e-03
9.0940776235000009e-01  0.0000000000000000e+00  5.0000000000000001e-03
9.2109754224999996e-01  0.0000000000000000e+00  5.0000000000000001e-03
9.3290550294999997e-01  0.0000000000000000e+00  5.0000000000000001e-03
9.4483283914999983e-01  0.0000000000000000e+00  5.0000000000000001e-03
9.5688075770000014e-01  0.0000000000000000e+00  5.0000000000000001e-03
9.6905047764999985e-01  0.0000000000000000e+00  5.0000000000000001e-03
9.8134323040000015e-01  0.0000000000000000e+00  5.0000000000000010e-03
9.9376025984999972e-01  0.0000000000000000e+00  5.0000000000000001e-03

CELLS 0 0


CELL_TYPES 0


POINT_DATA 161

VECTORS VertexNormals float

0.0000000000000000e+00 0.0000000000000000e+00 0.0000000000000000e+00 
0.0000000000000000e+00 0.0000000000000000e+00 0.0000000000000000e+00 
0.0000000000000000e+00 0.0000000000000000e+00 0.0000000000000000e+00 
0.0000000000000000e+00 0.0000000000000000e+00 0.0000000000000000e+00 
0.0000000000000000e+00 0.0000000000000000e+00 0.0000000000000000e+00 
0.0000000000000000e+00 0.0000000000000000e+00 0.0000000000000000e+00 
0.0000000000000000e+00 0.0000000000000000e+00 0.0000000000000000e+00 
0.0000000000000000e+00 0.0000000000000000e+00 0.0000000000000000e+00 
0.0000000000000000e+00 0.0000000000000000e+00 0.0000000000000000e+00 
0.0000000000000000e+00 0.0000000000000000e+00 0.0000000000000000e+00 
0.0000000000000000e+00 0.0000000000000000e+00 0.0000000000000000e+00 
0.0000000000000000e+00 0.0000000000000000e+00 0.0000000000000000e+00 
0.0000000000000000e+00 0.0000000000000000e+00 0.0000000000000000e+00 
0.0000000000000000e+00 0.0000000000000000e+00 0.0000000000000000e+00 
0.0000000000000000e+00 0.0000000000000000e+00 0.0000000000000000e+00 
0.0000000000000000e+00 0.0000000000000000e+00 0.0000000000000000e+00 
0.0000000000000000e+00 0.0000000000000000e+00 0.0000000000000000e+00 
0.0000000000000000e+00 0.0000000000000000e+00 0.0000000000000000e+00 
0.0000000000000000e+00 0.0000000000000000e+00 0.0000000000000000e+00 
0.0000000000000000e+00 0.0000000000000000e+00 0.0000000000000000e+00 
0.0000000000000000e+00 0.0000000000000000e+00 0.0000000000000000e+00 
0.0000000000000000e+00 0.0000000000000000e+00 0.0000000000000000e+00 
0.0000000000000000e+00 0.0000000000000000e+00 0.0000000000000000e+00 
0.0000000000000000e+00 0.0000000000000000e+00 0.0000000000000000e+00 
0.0000000000000000e+00 0.0000000000000000e+00 0.0000000000000000e+00 
0.0000000000000000e+00 0.0000000000000000e+00 0.0000000000000000e+00 
0.0000000000000000e+00 0.0000000000000000e+00 0.0000000000000000e+00 
0.0000000000000000e+00 0.0000000000000000e+00 0.0000000000000000e+00 
0.0000000000000000e+00 0.0000000000000000e+00 0.0000000000000000e+00 
0.0000000000000000e+00 0.0000000000000000e+00 0.0000000000000000e+00 
0.0000000000000000e+00 0.0000000000000000e+00 0.0000000000000000e+00 
0.0000000000000000e+00 0.0000000000000000e+00 0.0000000000000000e+00 
0.0000000000000000e+00 0.0000000000000000e+00 0.0000000000000000e+00 
0.0000000000000000e+00 0.0000000000000000e+00 0.0000000000000000e+00 
0.0000000000000000e+00 0.0000000000000000e+00 0.0000000000000000e+00 
0.0000000000000000e+00 0.0000000000000000e+00 0.0000000000000000e+00 
0.0000000000000000e+00 0.0000000000000000e+00 0.0000000000000000e+00 
0.0000000000000000e+00 0.0000000000000000e+00 0.0000000000000000e+00 
0.0000000000000000e+00 0.0000000000000000e+00 0.0000000000000000e+00 
0.0000000000000000e+00 0.0000000000000000e+00 0.0000000000000000e+00 
0.0000000000000000e+00 0.0000000000000000e+00 0.0000000000000000e+00 
0.0000000000000000e+00 0.0000000000000000e+00 0.0000000000000000e+00 
0.0000000000000000e+00 0.0000000000000000e+00 0.0000000000000000e+00 
0.0000000000000000e+00 0.0000000000000000e+00 0.0000000000000000e+00 
0.0000000000000000e+00 0.0000000000000000e+00 0.0000000000000000e+00 
0.0000000000000000e+00 0.0000000000000000e+00 0.0000000000000000e+00 
0.0000000000000000e+00 0.0000000000000000e+00 0.0000000000000000e+00 
0.0000000000000000e+00 0.0000000000000000e+00 0.0000000000000000e+00 
0.0000000000000000e+00 0.0000000000000000e+00 0.0000000000000000e+00 
0.0000000000000000e+00 0.0000000000000000e+00 0.0000000000000000e+00 
0.0000000000000000e+00 0.0000000000000000e+00 0.0000000000000000e+00 
0.0000000000000000e+00 0.0000000000000000e+00 0.0000000000000000e+00 
0.0000000000000000e+00 0.0000000000000000e+00 0.0000000000000000e+00 
0.0000000000000000e+00 0.0000000000000000e+00 0.0000000000000000e+00 
0.0000000000000000e+00 0.0000000000000000e+00 0.0000000000000000e+00 
0.0000000000000000e+00 0.0000000000000000e+00 0.0000000000000000e+00 
0.0000000000000000e+00 0.0000000000000000e+00 0.0000000000000000e+00 
0.0000000000000000e+00 0.0000000000000000e+00 0.0000000000000000e+00 
0.0000000000000000e+00 0.0000000000000000e+00 0.0000000000000000e+00 
0.0000000000000000e+00 0.0000000000000000e+00 0.0000000000000000e+00 
0.0000000000000000e+00 0.0000000000000000e+00 0.0000000000000000e+00 
0.0000000000000000e+00 0.0000000000000000e+00 0.0000000000000000e+00 
0.0000000000000000e+00 0.0000000000000000e+00 0.0000000000000000e+00 
0.0000000000000000e+00 0.0000000000000000e+00 0.0000000000000000e+00 
0.0000000000000000e+00 0.0000000000000000e+00 0.0000000000000000e+00 
0.0000000000000000e+00 0.0000000000000000e+00 0.0000000000000000e+00 
0.0000000000000000e+00 0.0000000000000000e+00 0.0000000000000000e+00 
0.0000000000000000e+00 0.0000000000000000e+00 0.0000000000000000e+00 
0.0000000000000000e+00 0.0000000000000000e+00 0.0000000000000000e+00 
0.0000000000000000e+00 0.0000000000000000e+00 0.0000000000000000e+00 
0.0000000000000000e+00 0.0000000000000000e+00 0.0000000000000000e+00 
0.0000000000000000e+00 0.0000000000000000e+00 0.0000000000000000e+00 
0.0000000000000000e+00 0.0000000000000000e+00 0.0000000000000000e+00 
0.0000000000000000e+00 0.0000000000000000e+00 0.0000000000000000e+00 
0.0000000000000000e+00 0.0000000000000000e+00 0.0000000000000000e+00 
0.0000000000000000e+00 0.0000000000000000e+00 0.0000000000000000e+00 
0.0000000000000000e+00 0.0000000000000000e+00 0.0000000000000000e+00 
0.0000000000000000e+00 0.0000000000000000e+00 0.0000000000000000e+00 
0.0000000000000000e+00 0.0000000000000000e+00 0.0000000000000000e+00 
0.0000000000000000e+00 0.0000000000000000e+00 0.0000000000000000e+00 
0.0000000000000000e+00 0.0000000000000000e+00 0.0000000000000000e+00 
0.0000000000000000e+00 0.0000000000000000e+00 0.0000000000000000e+00 
0.0000000000000000e+00 0.0000000000000000e+00 0.0000000000000000e+00 
0.0000000000000000e+00 0.0000000000000000e+00 0.0000000000000000e+00 
0.0000000000000000e+00 0.0000000000000000e+00 0.0000000000000000e+00 
0.0000000000000000e+00 0.0000000000000000e+00 0.0000000000000000e+00 
0.0000000000000000e+00 0.0000000000000000e+00 0.0000000000000000e+00 
0.0000000000000000e+00 0.0000000000000000e+00 0.0000000000000000e+00 
0.0000000000000000e+00 0.0000000000000000e+00 0.0000000000000000e+00 
0.0000000000000000e+00 0.0000000000000000e+00 0.0000000000000000e+00 
0.0000000000000000e+00 0.0000000000000000e+00 0.0000000000000000e+00 
0.0000000000000000e+00 0.0000000000000000e+00 0.0000000000000000e+00 
0.0000000000000000e+00 0.0000000000000000e+00 0.0000000000000000e+00 
0.0000000000000000e+00 0.0000000000000000e+00 0.0000000000000000e+00 
0.0000000000000000e+00 0.0000000000000000e+00 0.0000000000000000e+00 
0.0000000000000000e+00 0.0000000000000000e+00 0.0000000000000000e+00 
0.0000000000000000e+00 0.0000000000000000e+00 0.0000000000000000e+00 
0.0000000000000000e+00 0.0000000000000000e+00 0.0000000000000000e+00 
0.0000000000000000e+00 0.0000000000000000e+00 0.0000000000000000e+00 
0.0000000000000000e+00 0.0000000000000000e+00 0.0000000000000000e+00 
0.0000000000000000e+00 0.0000000000000000e+00 0.0000000000000000e+00 
0.0000000000000000e+00 0.0000000000000000e+00 0.0000000000000000e+00 
0.0000000000000000e+00 0.0000000000000000e+00 0.0000000000000000e+00 
0.0000000000000000e+00 0.0000000000000000e+00 0.0000000000000000e+00 
0.0000000000000000e+00 0.0000000000000000e+00 0.0000000000000000e+00 
0.0000000000000000e+00 0.0000000000000000e+00 0.0000000000000000e+00 
0.0000000000000000e+00 0.0000000000000000e+00 0.0000000000000000e+00 
0.0000000000000000e+00 0.0000000000000000e+00 0.0000000000000000e+00 
0.0000000000000000e+00 0.0000000000000000e+00 0.0000000000000000e+00 
0.0000000000000000e+00 0.0000000000000000e+00 0.0000000000000000e+00 
0.0000000000000000e+00 0.0000000000000000e+00 0.0000000000000000e+00 
0.0000000000000000e+00 0.0000000000000000e+00 0.0000000000000000e+00 
0.0000000000000000e+00 0.0000000000000000e+00 0.0000000000000000e+00 
0.0000000000000000e+00 0.0000000000000000e+00 0.0000000000000000e+00 
0.0000000000000000e+00 0.0000000000000000e+00 0.0000000000000000e+00 
0.0000000000000000e+00 0.0000000000000000e+00 0.0000000000000000e+00 
0.0000000000000000e+00 0.0000000000000000e+00 0.0000000000000000e+00 
0.0000000000000000e+00 0.0000000000000000e+00 0.0000000000000000e+00 
0.0000000000000000e+00 0.0000000000000000e+00 0.0000000000000000e+00 
0.0000000000000000e+00 0.0000000000000000e+00 0.0000000000000000e+00 
0.0000000000000000e+00 0.0000000000000000e+00 0.0000000000000000e+00 
0.0000000000000000e+00 0.0000000000000000e+00 0.0000000000000000e+00 
0.0000000000000000e+00 0.0000000000000000e+00 0.0000000000000000e+00 
0.0000000000000000e+00 0.0000000000000000e+00 0.0000000000000000e+00 
0.0000000000000000e+00 0.0000000000000000e+00 0.0000000000000000e+00 
0.0000000000000000e+00 0.0000000000000000e+00 0.0000000000000000e+00 
0.0000000000000000e+00 0.0000000000000000e+00 0.0000000000000000e+00 
0.0000000000000000e+00 0.0000000000000000e+00 0.0000000000000000e+00 
0.0000000000000000e+00 0.0000000000000000e+00 0.0000000000000000e+00 
0.0000000000000000e+00 0.0000000000000000e+00 0.0000000000000000e+00 
0.0000000000000000e+00 0.0000000000000000e+00 0.0000000000000000e+00 
0.0000000000000000e+00 0.0000000000000000e+00 0.0000000000000000e+00 
0.0000000000000000e+00 0.0000000000000000e+00 0.0000000000000000e+00 
0.0000000000000000e+00 0.0000000000000000e+00 0.0000000000000000e+00 
0.0000000000000000e+00 0.0000000000000000e+00 0.0000000000000000e+00 
0.0000000000000000e+00 0.0000000000000000e+00 0.0000000000000000e+00 
0.0000000000000000e+00 0.0000000000000000e+00 0.0000000000000000e+00 
0.0000000000000000e+00 0.0000000000000000e+00 0.0000000000000000e+00 
0.0000000000000000e+00 0.0000000000000000e+00 0.0000000000000000e+00 
0.0000000000000000e+00 0.0000000000000000e+00 0.0000000000000000e+00 
0.0000000000000000e+00 0.0000000000000000e+00 0.0000000000000000e+00 
0.0000000000000000e+00 0.0000000000000000e+00 0.0000000000000000e+00 
0.0000000000000000e+00 0.0000000000000000e+00 0.0000000000000000e+00 
0.0000000000000000e+00 0.0000000000000000e+00 0.0000000000000000e+00 
0.0000000000000000e+00 0.0000000000000000e+00 0.0000000000000000e+00 
0.0000000000000000e+00 0.0000000000000000e+00 0.0000000000000000e+00 
0.0000000000000000e+00 0.0000000000000000e+00 0.0000000000000000e+00 
0.0000000000000000e+00 0.0000000000000000e+00 0.0000000000000000e+00 
0.0000000000000000e+00 0.0000000000000000e+00 0.0000000000000000e+00 
0.0000000000000000e+00 0.0000000000000000e+00 0.0000000000000000e+00 
0.0000000000000000e+00 0.0000000000000000e+00 0.0000000000000000e+00 
0.0000000000000000e+00 0.0000000000000000e+00 0.0000000000000000e+00 
0.0000000000000000e+00 0.0000000000000000e+00 0.0000000000000000e+00 
0.0000000000000000e+00 0.0000000000000000e+00 0.0000000000000000e+00 
0.0000000000000000e+00 0.0000000000000000e+00 0.0000000000000000e+00 
0.0000000000000000e+00 0.0000000000000000e+00 0.0000000000000000e+00 
0.0000000000000000e+00 0.0000000000000000e+00 0.0000000000000000e+00 
0.0000000000000000e+00 0.0000000000000000e+00 0.0000000000000000e+00 
0.0000000000000000e+00 0.0000000000000000e+00 0.0000000000000000e+00 
0.0000000000000000e+00 0.0000000000000000e+00 0.0000000000000000e+00 
0.0000000000000000e+00 0.0000000000000000e+00 0.0000000000000000e+00 

SCALARS Heat-Flux float
LOOKUP_TABLE default
4.0953257733615173e+03
4.0438216511609548e+03
3.9917968352367657e+03
3.9392460614565498e+03
3.8861640125723015e+03
3.8325453175941939e+03
3.7783845510514329e+03
3.7236762327150682e+03
3.6684148271257836e+03
3.6125947426699558e+03
3.5562103310663606e+03
3.4992558872635241e+03
3.4401993938881978e+03
3.3797290360818424e+03
3.3186473381142814e+03
3.2569481195094613e+03
3.1946251374054327e+03
3.1316720855929298e+03
3.0680825941949056e+03
3.0038502291323862e+03
2.9389684909494053e+03
2.8734308147061793e+03
2.8112358841909972e+03
2.8046387783717864e+03
2.7979749774780871e+03
2.7912438072150626e+03
2.7844445865218477e+03
2.7775766274240018e+03
2.7706392349702778e+03
2.7636317072220772e+03
2.7565533351375298e+03
2.7494034024977122e+03
2.7429439165440003e+03
2.7371839009225014e+03
2.7313656530721673e+03
2.7254885841883697e+03
2.7195520995418174e+03
2.7135555985950550e+03
2.7074984744865560e+03
2.7013801143635615e+03
2.6951998992156641e+03
2.6922835022722838e+03
2.6903102718978257e+03
2.6883170926749635e+03
2.6863037629073860e+03
2.6842700788677575e+03
2.6822158347977197e+03
2.6801408228558098e+03
2.6780448330653885e+03
2.6771680308327977e+03
2.6766909384110013e+03
2.6762090227065951e+03
2.6757222349593594e+03
2.6752305259095074e+03
2.6747338458034906e+03
2.6742321443881924e+03
2.6740320749815805e+03
2.6744533466171233e+03
2.6748788772021444e+03
2.6753087097996977e+03
2.6757428878935252e+03
2.6761814554167377e+03
2.6766244567518197e+03
2.6772493956336393e+03
2.6781224895439691e+03
2.6790044102150700e+03
2.6798952468761909e+03
2.6807950896707557e+03
2.6817040296563687e+03
2.6826221588048097e+03
2.6836664874769508e+03
2.6847254054177729e+03
2.6857950287543204e+03
2.6868754657180584e+03
2.6879668256260034e+03
2.6890692189120359e+03
2.6901308440386783e+03
2.6911976106149291e+03
2.6922751619421542e+03
2.6933636070433236e+03
2.6944630560402552e+03
2.6955466638986768e+03
2.6965244128099544e+03
2.6975120465174500e+03
2.6985096649546590e+03
2.6995173690645902e+03
2.7005352608084008e+03
2.7014200160183327e+03
2.7022740172101521e+03
2.7031366521345417e+03
2.7040080080802527e+03
2.7048881732158084e+03
2.7056435181025558e+03
2.7063368231861459e+03
2.7070371374134311e+03
2.7077445316393892e+03
2.7084590774420094e+03
2.7090330249343046e+03
2.7095719429169067e+03
2.7101163092260012e+03
2.7106661789373557e+03
2.7111968670693705e+03
2.7115777426842888e+03
2.7119624688562812e+03
2.7123510845138203e+03
2.7127436289784273e+03
2.7130211797853240e+03
2.7132501240444749e+03
2.7134813828714423e+03
2.7137149796668382e+03
2.7138787700884086e+03
2.7139556507643811e+03
2.7140333086847058e+03
2.7141117517066714e+03
2.7141278676458928e+03
2.7140385804792290e+03
2.7139483906419518e+03
2.7138572890074247e+03
2.7136824032395016e+03
2.7134083635431207e+03
2.7131315533742459e+03
2.7128519447244030e+03
2.7124205875279376e+03
2.7119191458902915e+03
2.7114126348034374e+03
2.7108841980019815e+03
2.7101123943836042e+03
2.7093327880227744e+03
2.7085453000404073e+03
2.7075668102413438e+03
2.7064370442100408e+03
2.7052958565275439e+03
2.7040744126077761e+03
2.7025337461671693e+03
2.7009775039765150e+03
2.6994055285719728e+03
2.6974490032755639e+03
2.6954375043466571e+03
2.6934056696687530e+03
2.6910552378967936e+03
2.6885795683116567e+03
2.6860788703258986e+03
2.6834286039401991e+03
2.6806923323773472e+03
2.6779283977878067e+03
2.6754401279341541e+03
2.6730563862474191e+03
2.6706485455315856e+03
2.6696628131642715e+03
2.6690045028362065e+03
2.6683663364722324e+03
2.6762000707096968e+03
2.6841130020487453e+03
2.6925883977678627e+03
2.7024481857270348e+03
2.7124076537177225e+03
2.8472223021543687e+03
3.0623568809396979e+03
3.2796112174761861e+03
3.4968594970556142e+03
3.7163041031874191e+03

