# vtk DataFile Version 2.0

ASCII

DATASET UNSTRUCTURED_GRID

POINTS 161 float 

1.2479480269999999e-03  0.0000000000000000e+00  5.0000000000000001e-03
3.7564605215000000e-03  0.0000000000000000e+00  5.0000000000000001e-03
6.2903334464999997e-03  0.0000000000000000e+00  4.9999999999999992e-03
8.8498231919999990e-03  0.0000000000000000e+00  5.0000000000000001e-03
1.1435188734999999e-02  0.0000000000000000e+00  4.9999999999999992e-03
1.4046691670000000e-02  0.0000000000000000e+00  4.9999999999999992e-03
1.6684596245000002e-02  0.0000000000000000e+00  5.0000000000000001e-03
1.9349169374999999e-02  0.0000000000000000e+00  5.0000000000000001e-03
2.2040680665000000e-02  0.0000000000000000e+00  5.0000000000000001e-03
2.4759402454999999e-02  0.0000000000000000e+00  4.9999999999999992e-03
2.7505609845000001e-02  0.0000000000000000e+00  5.0000000000000001e-03
3.0279580699999996e-02  0.0000000000000000e+00  5.0000000000000001e-03
3.3081595700000001e-02  0.0000000000000000e+00  5.0000000000000001e-03
3.5911938369999993e-02  0.0000000000000000e+00  4.9999999999999992e-03
3.8770895094999994e-02  0.0000000000000000e+00  5.0000000000000001e-03
4.1658755154999998e-02  0.0000000000000000e+00  4.9999999999999992e-03
4.4575810750000000e-02  0.0000000000000000e+00  5.0000000000000001e-03
4.7522357044999998e-02  0.0000000000000000e+00  5.0000000000000001e-03
5.0498692184999999e-02  0.0000000000000000e+00  4.9999999999999992e-03
5.3505117320000004e-02  0.0000000000000000e+00  4.9999999999999992e-03
5.6541936659999993e-02  0.0000000000000000e+00  5.0000000000000001e-03
5.9609457479999996e-02  0.0000000000000000e+00  4.9999999999999992e-03
6.2707990165000005e-02  0.0000000000000000e+00  4.9999999999999992e-03
6.5837848234999996e-02  0.0000000000000000e+00  5.0000000000000001e-03
6.8999348379999978e-02  0.0000000000000000e+00  5.0000000000000001e-03
7.2192810504999996e-02  0.0000000000000000e+00  4.9999999999999992e-03
7.5418557725000002e-02  0.0000000000000000e+00  4.9999999999999992e-03
7.8676916435000008e-02  0.0000000000000000e+00  5.0000000000000010e-03
8.1968216339999983e-02  0.0000000000000000e+00  5.0000000000000001e-03
8.5292790459999962e-02  0.0000000000000000e+00  5.0000000000000001e-03
8.8650975185000008e-02  0.0000000000000000e+00  5.0000000000000001e-03
9.2043110309999995e-02  0.0000000000000000e+00  5.0000000000000001e-03
9.5469539069999998e-02  0.0000000000000000e+00  5.0000000000000001e-03
9.8930608189999991e-02  0.0000000000000000e+00  4.9999999999999992e-03
1.0242666780000000e-01  0.0000000000000000e+00  4.9999999999999992e-03
1.0595807169999999e-01  0.0000000000000000e+00  4.9999999999999992e-03
1.0952517724999997e-01  0.0000000000000000e+00  5.0000000000000001e-03
1.1312834530000000e-01  0.0000000000000000e+00  4.9999999999999992e-03
1.1676794050000000e-01  0.0000000000000000e+00  5.0000000000000001e-03
1.2044433110000001e-01  0.0000000000000000e+00  5.0000000000000001e-03
1.2415788905000000e-01  0.0000000000000000e+00  5.0000000000000001e-03
1.2790899014999998e-01  0.0000000000000000e+00  5.0000000000000001e-03
1.3169801394999997e-01  0.0000000000000000e+00  5.0000000000000001e-03
1.3552534380000000e-01  0.0000000000000000e+00  5.0000000000000001e-03
1.3939136699999999e-01  0.0000000000000000e+00  5.0000000000000001e-03
1.4329647475000001e-01  0.0000000000000000e+00  5.0000000000000001e-03
1.4724106214999996e-01  0.0000000000000000e+00  5.0000000000000001e-03
1.5122552829999997e-01  0.0000000000000000e+00  4.9999999999999992e-03
1.5525027640000003e-01  0.0000000000000000e+00  4.9999999999999992e-03
1.5931571375000000e-01  0.0000000000000000e+00  4.9999999999999992e-03
1.6342225165000002e-01  0.0000000000000000e+00  5.0000000000000010e-03
1.6757030560000000e-01  0.0000000000000000e+00  4.9999999999999992e-03
1.7176029530000000e-01  0.0000000000000000e+00  4.9999999999999992e-03
1.7599264475000001e-01  0.0000000000000000e+00  4.9999999999999992e-03
1.8026778220000000e-01  0.0000000000000000e+00  4.9999999999999992e-03
1.8458614019999994e-01  0.0000000000000000e+00  5.0000000000000001e-03
1.8894815575000001e-01  0.0000000000000000e+00  5.0000000000000001e-03
1.9335427015000001e-01  0.0000000000000000e+00  5.0000000000000001e-03
1.9780492925000001e-01  0.0000000000000000e+00  4.9999999999999992e-03
2.0230058345000002e-01  0.0000000000000000e+00  5.0000000000000010e-03
2.0684168754999993e-01  0.0000000000000000e+00  4.9999999999999992e-03
2.1142870104999997e-01  0.0000000000000000e+00  4.9999999999999992e-03
2.1606208815000003e-01  0.0000000000000000e+00  5.0000000000000001e-03
2.2074231760000002e-01  0.0000000000000000e+00  5.0000000000000001e-03
2.2546986299999994e-01  0.0000000000000000e+00  4.9999999999999992e-03
2.3024520270000004e-01  0.0000000000000000e+00  5.0000000000000001e-03
2.3506881985000000e-01  0.0000000000000000e+00  5.0000000000000001e-03
2.3994120254999993e-01  0.0000000000000000e+00  4.9999999999999992e-03
2.4486284384999990e-01  0.0000000000000000e+00  4.9999999999999992e-03
2.4983424175000005e-01  0.0000000000000000e+00  5.0000000000000001e-03
2.5485589919999996e-01  0.0000000000000000e+00  5.0000000000000001e-03
2.5992832430000001e-01  0.0000000000000000e+00  4.9999999999999992e-03
2.6505203035000002e-01  0.0000000000000000e+00  5.0000000000000001e-03
2.7022753579999997e-01  0.0000000000000000e+00  5.0000000000000001e-03
2.7545536430000001e-01  0.0000000000000000e+00  4.9999999999999992e-03
2.8073604484999992e-01  0.0000000000000000e+00  5.0000000000000001e-03
2.8607011175000002e-01  0.0000000000000000e+00  4.9999999999999992e-03
2.9145810469999994e-01  0.0000000000000000e+00  5.0000000000000001e-03
2.9690056895000000e-01  0.0000000000000000e+00  5.0000000000000001e-03
3.0239805514999996e-01  0.0000000000000000e+00  4.9999999999999992e-03
3.0795111949999993e-01  0.0000000000000000e+00  4.9999999999999992e-03
3.1356032394999994e-01  0.0000000000000000e+00  5.0000000000000001e-03
3.1922623605000000e-01  0.0000000000000000e+00  4.9999999999999992e-03
3.2494942910000002e-01  0.0000000000000000e+00  5.0000000000000001e-03
3.3073048220000001e-01  0.0000000000000000e+00  5.0000000000000001e-03
3.3656998029999996e-01  0.0000000000000000e+00  4.9999999999999992e-03
3.4246851424999997e-01  0.0000000000000000e+00  5.0000000000000001e-03
3.4842668089999995e-01  0.0000000000000000e+00  5.0000000000000001e-03
3.5444508315000006e-01  0.0000000000000000e+00  4.9999999999999992e-03
3.6052432989999994e-01  0.0000000000000000e+00  5.0000000000000001e-03
3.6666503630000002e-01  0.0000000000000000e+00  4.9999999999999992e-03
3.7286782369999999e-01  0.0000000000000000e+00  4.9999999999999992e-03
3.7913331969999992e-01  0.0000000000000000e+00  5.0000000000000001e-03
3.8546215830000008e-01  0.0000000000000000e+00  4.9999999999999992e-03
3.9185497990000001e-01  0.0000000000000000e+00  4.9999999999999992e-03
3.9831243129999994e-01  0.0000000000000000e+00  4.9999999999999992e-03
4.0483516590000013e-01  0.0000000000000000e+00  5.0000000000000010e-03
4.1142384369999990e-01  0.0000000000000000e+00  4.9999999999999992e-03
4.1807913139999997e-01  0.0000000000000000e+00  5.0000000000000010e-03
4.2480170239999998e-01  0.0000000000000000e+00  5.0000000000000001e-03
4.3159223684999998e-01  0.0000000000000000e+00  5.0000000000000001e-03
4.3845142189999992e-01  0.0000000000000000e+00  4.9999999999999992e-03
4.4537995159999999e-01  0.0000000000000000e+00  5.0000000000000001e-03
4.5237852700000003e-01  0.0000000000000000e+00  5.0000000000000001e-03
4.5944785624999995e-01  0.0000000000000000e+00  5.0000000000000001e-03
4.6658865464999993e-01  0.0000000000000000e+00  5.0000000000000001e-03
4.7380164474999997e-01  0.0000000000000000e+00  5.0000000000000001e-03
4.8108755635000006e-01  0.0000000000000000e+00  4.9999999999999992e-03
4.8844712664999995e-01  0.0000000000000000e+00  5.0000000000000001e-03
4.9588110034999994e-01  0.0000000000000000e+00  5.0000000000000001e-03
5.0339022965000002e-01  0.0000000000000000e+00  5.0000000000000001e-03
5.1097527440000001e-01  0.0000000000000000e+00  4.9999999999999992e-03
5.1863700204999996e-01  0.0000000000000000e+00  5.0000000000000001e-03
5.2637618779999995e-01  0.0000000000000000e+00  5.0000000000000001e-03
5.3419361479999994e-01  0.0000000000000000e+00  5.0000000000000010e-03
5.4209007399999998e-01  0.0000000000000000e+00  4.9999999999999992e-03
5.5006636440000001e-01  0.0000000000000000e+00  5.0000000000000001e-03
5.5812329314999998e-01  0.0000000000000000e+00  4.9999999999999992e-03
5.6626167540000005e-01  0.0000000000000000e+00  5.0000000000000001e-03
5.7448233464999987e-01  0.0000000000000000e+00  5.0000000000000001e-03
5.8278610269999997e-01  0.0000000000000000e+00  5.0000000000000001e-03
5.9117381974999994e-01  0.0000000000000000e+00  4.9999999999999992e-03
5.9964633455000005e-01  0.0000000000000000e+00  5.0000000000000001e-03
6.0820450429999984e-01  0.0000000000000000e+00  4.9999999999999992e-03
6.1684919500000002e-01  0.0000000000000000e+00  4.9999999999999992e-03
6.2558128135000002e-01  0.0000000000000000e+00  5.0000000000000001e-03
6.3440164690000012e-01  0.0000000000000000e+00  5.0000000000000001e-03
6.4331118414999999e-01  0.0000000000000000e+00  4.9999999999999992e-03
6.5231079454999996e-01  0.0000000000000000e+00  4.9999999999999992e-03
6.6140138874999999e-01  0.0000000000000000e+00  5.0000000000000001e-03
6.7058388659999979e-01  0.0000000000000000e+00  5.0000000000000001e-03
6.7985921719999998e-01  0.0000000000000000e+00  5.0000000000000001e-03
6.8922831899999992e-01  0.0000000000000000e+00  5.0000000000000001e-03
6.9869214010000003e-01  0.0000000000000000e+00  4.9999999999999992e-03
7.0825163804999991e-01  0.0000000000000000e+00  4.9999999999999992e-03
7.1790778009999989e-01  0.0000000000000000e+00  4.9999999999999992e-03
7.2766154334999988e-01  0.0000000000000000e+00  5.0000000000000001e-03
7.3751391469999994e-01  0.0000000000000000e+00  4.9999999999999992e-03
7.4746589105000005e-01  0.0000000000000000e+00  4.9999999999999992e-03
7.5751847935000005e-01  0.0000000000000000e+00  5.0000000000000001e-03
7.6767269679999994e-01  0.0000000000000000e+00  4.9999999999999992e-03
7.7792957084999992e-01  0.0000000000000000e+00  4.9999999999999992e-03
7.8829013929999980e-01  0.0000000000000000e+00  5.0000000000000001e-03
7.9875545049999985e-01  0.0000000000000000e+00  5.0000000000000001e-03
8.0932656339999998e-01  0.0000000000000000e+00  5.0000000000000001e-03
8.2000454754999985e-01  0.0000000000000000e+00  4.9999999999999992e-03
8.3079048344999995e-01  0.0000000000000000e+00  4.9999999999999992e-03
8.4168546245000009e-01  0.0000000000000000e+00  4.9999999999999992e-03
8.5269058694999988e-01  0.0000000000000000e+00  5.0000000000000001e-03
8.6380697049999999e-01  0.0000000000000000e+00  5.0000000000000001e-03
8.7503573785000011e-01  0.0000000000000000e+00  4.9999999999999992e-03
8.8637802525000009e-01  0.0000000000000000e+00  5.0000000000000001e-03
8.9783498034999998e-01  0.0000000000000000e+00  5.0000000000000001e-03
9.0940776235000009e-01  0.0000000000000000e+00  5.0000000000000001e-03
9.2109754224999996e-01  0.0000000000000000e+00  5.0000000000000001e-03
9.3290550294999997e-01  0.0000000000000000e+00  5.0000000000000001e-03
9.4483283914999983e-01  0.0000000000000000e+00  5.0000000000000001e-03
9.5688075770000014e-01  0.0000000000000000e+00  5.0000000000000001e-03
9.6905047764999985e-01  0.0000000000000000e+00  5.0000000000000001e-03
9.8134323040000015e-01  0.0000000000000000e+00  5.0000000000000010e-03
9.9376025984999972e-01  0.0000000000000000e+00  5.0000000000000001e-03

CELLS 0 0


CELL_TYPES 0


POINT_DATA 161

VECTORS VertexNormals float

0.0000000000000000e+00 0.0000000000000000e+00 0.0000000000000000e+00 
0.0000000000000000e+00 0.0000000000000000e+00 0.0000000000000000e+00 
0.0000000000000000e+00 0.0000000000000000e+00 0.0000000000000000e+00 
0.0000000000000000e+00 0.0000000000000000e+00 0.0000000000000000e+00 
0.0000000000000000e+00 0.0000000000000000e+00 0.0000000000000000e+00 
0.0000000000000000e+00 0.0000000000000000e+00 0.0000000000000000e+00 
0.0000000000000000e+00 0.0000000000000000e+00 0.0000000000000000e+00 
0.0000000000000000e+00 0.0000000000000000e+00 0.0000000000000000e+00 
0.0000000000000000e+00 0.0000000000000000e+00 0.0000000000000000e+00 
0.0000000000000000e+00 0.0000000000000000e+00 0.0000000000000000e+00 
0.0000000000000000e+00 0.0000000000000000e+00 0.0000000000000000e+00 
0.0000000000000000e+00 0.0000000000000000e+00 0.0000000000000000e+00 
0.0000000000000000e+00 0.0000000000000000e+00 0.0000000000000000e+00 
0.0000000000000000e+00 0.0000000000000000e+00 0.0000000000000000e+00 
0.0000000000000000e+00 0.0000000000000000e+00 0.0000000000000000e+00 
0.0000000000000000e+00 0.0000000000000000e+00 0.0000000000000000e+00 
0.0000000000000000e+00 0.0000000000000000e+00 0.0000000000000000e+00 
0.0000000000000000e+00 0.0000000000000000e+00 0.0000000000000000e+00 
0.0000000000000000e+00 0.0000000000000000e+00 0.0000000000000000e+00 
0.0000000000000000e+00 0.0000000000000000e+00 0.0000000000000000e+00 
0.0000000000000000e+00 0.0000000000000000e+00 0.0000000000000000e+00 
0.0000000000000000e+00 0.0000000000000000e+00 0.0000000000000000e+00 
0.0000000000000000e+00 0.0000000000000000e+00 0.0000000000000000e+00 
0.0000000000000000e+00 0.0000000000000000e+00 0.0000000000000000e+00 
0.0000000000000000e+00 0.0000000000000000e+00 0.0000000000000000e+00 
0.0000000000000000e+00 0.0000000000000000e+00 0.0000000000000000e+00 
0.0000000000000000e+00 0.0000000000000000e+00 0.0000000000000000e+00 
0.0000000000000000e+00 0.0000000000000000e+00 0.0000000000000000e+00 
0.0000000000000000e+00 0.0000000000000000e+00 0.0000000000000000e+00 
0.0000000000000000e+00 0.0000000000000000e+00 0.0000000000000000e+00 
0.0000000000000000e+00 0.0000000000000000e+00 0.0000000000000000e+00 
0.0000000000000000e+00 0.0000000000000000e+00 0.0000000000000000e+00 
0.0000000000000000e+00 0.0000000000000000e+00 0.0000000000000000e+00 
0.0000000000000000e+00 0.0000000000000000e+00 0.0000000000000000e+00 
0.0000000000000000e+00 0.0000000000000000e+00 0.0000000000000000e+00 
0.0000000000000000e+00 0.0000000000000000e+00 0.0000000000000000e+00 
0.0000000000000000e+00 0.0000000000000000e+00 0.0000000000000000e+00 
0.0000000000000000e+00 0.0000000000000000e+00 0.0000000000000000e+00 
0.0000000000000000e+00 0.0000000000000000e+00 0.0000000000000000e+00 
0.0000000000000000e+00 0.0000000000000000e+00 0.0000000000000000e+00 
0.0000000000000000e+00 0.0000000000000000e+00 0.0000000000000000e+00 
0.0000000000000000e+00 0.0000000000000000e+00 0.0000000000000000e+00 
0.0000000000000000e+00 0.0000000000000000e+00 0.0000000000000000e+00 
0.0000000000000000e+00 0.0000000000000000e+00 0.0000000000000000e+00 
0.0000000000000000e+00 0.0000000000000000e+00 0.0000000000000000e+00 
0.0000000000000000e+00 0.0000000000000000e+00 0.0000000000000000e+00 
0.0000000000000000e+00 0.0000000000000000e+00 0.0000000000000000e+00 
0.0000000000000000e+00 0.0000000000000000e+00 0.0000000000000000e+00 
0.0000000000000000e+00 0.0000000000000000e+00 0.0000000000000000e+00 
0.0000000000000000e+00 0.0000000000000000e+00 0.0000000000000000e+00 
0.0000000000000000e+00 0.0000000000000000e+00 0.0000000000000000e+00 
0.0000000000000000e+00 0.0000000000000000e+00 0.0000000000000000e+00 
0.0000000000000000e+00 0.0000000000000000e+00 0.0000000000000000e+00 
0.0000000000000000e+00 0.0000000000000000e+00 0.0000000000000000e+00 
0.0000000000000000e+00 0.0000000000000000e+00 0.0000000000000000e+00 
0.0000000000000000e+00 0.0000000000000000e+00 0.0000000000000000e+00 
0.0000000000000000e+00 0.0000000000000000e+00 0.0000000000000000e+00 
0.0000000000000000e+00 0.0000000000000000e+00 0.0000000000000000e+00 
0.0000000000000000e+00 0.0000000000000000e+00 0.0000000000000000e+00 
0.0000000000000000e+00 0.0000000000000000e+00 0.0000000000000000e+00 
0.0000000000000000e+00 0.0000000000000000e+00 0.0000000000000000e+00 
0.0000000000000000e+00 0.0000000000000000e+00 0.0000000000000000e+00 
0.0000000000000000e+00 0.0000000000000000e+00 0.0000000000000000e+00 
0.0000000000000000e+00 0.0000000000000000e+00 0.0000000000000000e+00 
0.0000000000000000e+00 0.0000000000000000e+00 0.0000000000000000e+00 
0.0000000000000000e+00 0.0000000000000000e+00 0.0000000000000000e+00 
0.0000000000000000e+00 0.0000000000000000e+00 0.0000000000000000e+00 
0.0000000000000000e+00 0.0000000000000000e+00 0.0000000000000000e+00 
0.0000000000000000e+00 0.0000000000000000e+00 0.0000000000000000e+00 
0.0000000000000000e+00 0.0000000000000000e+00 0.0000000000000000e+00 
0.0000000000000000e+00 0.0000000000000000e+00 0.0000000000000000e+00 
0.0000000000000000e+00 0.0000000000000000e+00 0.0000000000000000e+00 
0.0000000000000000e+00 0.0000000000000000e+00 0.0000000000000000e+00 
0.0000000000000000e+00 0.0000000000000000e+00 0.0000000000000000e+00 
0.0000000000000000e+00 0.0000000000000000e+00 0.0000000000000000e+00 
0.0000000000000000e+00 0.0000000000000000e+00 0.0000000000000000e+00 
0.0000000000000000e+00 0.0000000000000000e+00 0.0000000000000000e+00 
0.0000000000000000e+00 0.0000000000000000e+00 0.0000000000000000e+00 
0.0000000000000000e+00 0.0000000000000000e+00 0.0000000000000000e+00 
0.0000000000000000e+00 0.0000000000000000e+00 0.0000000000000000e+00 
0.0000000000000000e+00 0.0000000000000000e+00 0.0000000000000000e+00 
0.0000000000000000e+00 0.0000000000000000e+00 0.0000000000000000e+00 
0.0000000000000000e+00 0.0000000000000000e+00 0.0000000000000000e+00 
0.0000000000000000e+00 0.0000000000000000e+00 0.0000000000000000e+00 
0.0000000000000000e+00 0.0000000000000000e+00 0.0000000000000000e+00 
0.0000000000000000e+00 0.0000000000000000e+00 0.0000000000000000e+00 
0.0000000000000000e+00 0.0000000000000000e+00 0.0000000000000000e+00 
0.0000000000000000e+00 0.0000000000000000e+00 0.0000000000000000e+00 
0.0000000000000000e+00 0.0000000000000000e+00 0.0000000000000000e+00 
0.0000000000000000e+00 0.0000000000000000e+00 0.0000000000000000e+00 
0.0000000000000000e+00 0.0000000000000000e+00 0.0000000000000000e+00 
0.0000000000000000e+00 0.0000000000000000e+00 0.0000000000000000e+00 
0.0000000000000000e+00 0.0000000000000000e+00 0.0000000000000000e+00 
0.0000000000000000e+00 0.0000000000000000e+00 0.0000000000000000e+00 
0.0000000000000000e+00 0.0000000000000000e+00 0.0000000000000000e+00 
0.0000000000000000e+00 0.0000000000000000e+00 0.0000000000000000e+00 
0.0000000000000000e+00 0.0000000000000000e+00 0.0000000000000000e+00 
0.0000000000000000e+00 0.0000000000000000e+00 0.0000000000000000e+00 
0.0000000000000000e+00 0.0000000000000000e+00 0.0000000000000000e+00 
0.0000000000000000e+00 0.0000000000000000e+00 0.0000000000000000e+00 
0.0000000000000000e+00 0.0000000000000000e+00 0.0000000000000000e+00 
0.0000000000000000e+00 0.0000000000000000e+00 0.0000000000000000e+00 
0.0000000000000000e+00 0.0000000000000000e+00 0.0000000000000000e+00 
0.0000000000000000e+00 0.0000000000000000e+00 0.0000000000000000e+00 
0.0000000000000000e+00 0.0000000000000000e+00 0.0000000000000000e+00 
0.0000000000000000e+00 0.0000000000000000e+00 0.0000000000000000e+00 
0.0000000000000000e+00 0.0000000000000000e+00 0.0000000000000000e+00 
0.0000000000000000e+00 0.0000000000000000e+00 0.0000000000000000e+00 
0.0000000000000000e+00 0.0000000000000000e+00 0.0000000000000000e+00 
0.0000000000000000e+00 0.0000000000000000e+00 0.0000000000000000e+00 
0.0000000000000000e+00 0.0000000000000000e+00 0.0000000000000000e+00 
0.0000000000000000e+00 0.0000000000000000e+00 0.0000000000000000e+00 
0.0000000000000000e+00 0.0000000000000000e+00 0.0000000000000000e+00 
0.0000000000000000e+00 0.0000000000000000e+00 0.0000000000000000e+00 
0.0000000000000000e+00 0.0000000000000000e+00 0.0000000000000000e+00 
0.0000000000000000e+00 0.0000000000000000e+00 0.0000000000000000e+00 
0.0000000000000000e+00 0.0000000000000000e+00 0.0000000000000000e+00 
0.0000000000000000e+00 0.0000000000000000e+00 0.0000000000000000e+00 
0.0000000000000000e+00 0.0000000000000000e+00 0.0000000000000000e+00 
0.0000000000000000e+00 0.0000000000000000e+00 0.0000000000000000e+00 
0.0000000000000000e+00 0.0000000000000000e+00 0.0000000000000000e+00 
0.0000000000000000e+00 0.0000000000000000e+00 0.0000000000000000e+00 
0.0000000000000000e+00 0.0000000000000000e+00 0.0000000000000000e+00 
0.0000000000000000e+00 0.0000000000000000e+00 0.0000000000000000e+00 
0.0000000000000000e+00 0.0000000000000000e+00 0.0000000000000000e+00 
0.0000000000000000e+00 0.0000000000000000e+00 0.0000000000000000e+00 
0.0000000000000000e+00 0.0000000000000000e+00 0.0000000000000000e+00 
0.0000000000000000e+00 0.0000000000000000e+00 0.0000000000000000e+00 
0.0000000000000000e+00 0.0000000000000000e+00 0.0000000000000000e+00 
0.0000000000000000e+00 0.0000000000000000e+00 0.0000000000000000e+00 
0.0000000000000000e+00 0.0000000000000000e+00 0.0000000000000000e+00 
0.0000000000000000e+00 0.0000000000000000e+00 0.0000000000000000e+00 
0.0000000000000000e+00 0.0000000000000000e+00 0.0000000000000000e+00 
0.0000000000000000e+00 0.0000000000000000e+00 0.0000000000000000e+00 
0.0000000000000000e+00 0.0000000000000000e+00 0.0000000000000000e+00 
0.0000000000000000e+00 0.0000000000000000e+00 0.0000000000000000e+00 
0.0000000000000000e+00 0.0000000000000000e+00 0.0000000000000000e+00 
0.0000000000000000e+00 0.0000000000000000e+00 0.0000000000000000e+00 
0.0000000000000000e+00 0.0000000000000000e+00 0.0000000000000000e+00 
0.0000000000000000e+00 0.0000000000000000e+00 0.0000000000000000e+00 
0.0000000000000000e+00 0.0000000000000000e+00 0.0000000000000000e+00 
0.0000000000000000e+00 0.0000000000000000e+00 0.0000000000000000e+00 
0.0000000000000000e+00 0.0000000000000000e+00 0.0000000000000000e+00 
0.0000000000000000e+00 0.0000000000000000e+00 0.0000000000000000e+00 
0.0000000000000000e+00 0.0000000000000000e+00 0.0000000000000000e+00 
0.0000000000000000e+00 0.0000000000000000e+00 0.0000000000000000e+00 
0.0000000000000000e+00 0.0000000000000000e+00 0.0000000000000000e+00 
0.0000000000000000e+00 0.0000000000000000e+00 0.0000000000000000e+00 
0.0000000000000000e+00 0.0000000000000000e+00 0.0000000000000000e+00 
0.0000000000000000e+00 0.0000000000000000e+00 0.0000000000000000e+00 
0.0000000000000000e+00 0.0000000000000000e+00 0.0000000000000000e+00 
0.0000000000000000e+00 0.0000000000000000e+00 0.0000000000000000e+00 
0.0000000000000000e+00 0.0000000000000000e+00 0.0000000000000000e+00 
0.0000000000000000e+00 0.0000000000000000e+00 0.0000000000000000e+00 
0.0000000000000000e+00 0.0000000000000000e+00 0.0000000000000000e+00 
0.0000000000000000e+00 0.0000000000000000e+00 0.0000000000000000e+00 
0.0000000000000000e+00 0.0000000000000000e+00 0.0000000000000000e+00 
0.0000000000000000e+00 0.0000000000000000e+00 0.0000000000000000e+00 
0.0000000000000000e+00 0.0000000000000000e+00 0.0000000000000000e+00 
0.0000000000000000e+00 0.0000000000000000e+00 0.0000000000000000e+00 
0.0000000000000000e+00 0.0000000000000000e+00 0.0000000000000000e+00 

SCALARS Heat-Flux float
LOOKUP_TABLE default
4.0442692206115667e+03
4.0024582484376388e+03
3.9602245778493029e+03
3.9175639354314626e+03
3.8744720046498501e+03
3.8309444253426645e+03
3.7869767931205347e+03
3.7425646591414970e+03
3.6977035297276566e+03
3.6523888656151325e+03
3.6066160815373664e+03
3.5603805461417965e+03
3.5142642239005140e+03
3.4679956355671029e+03
3.4212592834023421e+03
3.3740504384462511e+03
3.3263643240045935e+03
3.2781961149132544e+03
3.2295409372930390e+03
3.1803938681409727e+03
3.1307499344312073e+03
3.0806041130332806e+03
3.0333557929443368e+03
3.0334216429516491e+03
3.0334881586859115e+03
3.0335553468777002e+03
3.0336232143251282e+03
3.0336917678953141e+03
3.0337610145250214e+03
3.0338309612207540e+03
3.0339016150599223e+03
3.0339729831915715e+03
3.0338883746792112e+03
3.0336457928236491e+03
3.0334007585299232e+03
3.0331532470006523e+03
3.0329032331889357e+03
3.0326506918032619e+03
3.0323955972857875e+03
3.0321379238263444e+03
3.0318776453554392e+03
3.0331919664603133e+03
3.0349807767380748e+03
3.0367876714247918e+03
3.0386128333660354e+03
3.0404564472485790e+03
3.0423186996003988e+03
3.0441997788378831e+03
3.0460998753130439e+03
3.0479645940341475e+03
3.0498301838200773e+03
3.0517146342425622e+03
3.0536181359702514e+03
3.0555408816252720e+03
3.0574830657605180e+03
3.0594448848823595e+03
3.0613076545916242e+03
3.0629476316653900e+03
3.0646041884917740e+03
3.0662774927118321e+03
3.0679677136043233e+03
3.0696750221973666e+03
3.0713995912684477e+03
3.0729518497565905e+03
3.0742612202132350e+03
3.0755838280772714e+03
3.0769198071649348e+03
3.0782692926634450e+03
3.0796324211310061e+03
3.0810093304968022e+03
3.0820164796740428e+03
3.0830205813607408e+03
3.0840348342645339e+03
3.0850593410141487e+03
3.0860942052676628e+03
3.0871395317422061e+03
3.0879098589099049e+03
3.0886572168051262e+03
3.0894121303071397e+03
3.0901746757955184e+03
3.0909449304196719e+03
3.0916782879171751e+03
3.0922254223624582e+03
3.0927780881997305e+03
3.0933363413503621e+03
3.0939002383006286e+03
3.0944698361065525e+03
3.0949060131933402e+03
3.0953080770230217e+03
3.0957142056146909e+03
3.0961244400638980e+03
3.0965388218803914e+03
3.0968684237449206e+03
3.0971549989588821e+03
3.0974444713776993e+03
3.0977368702890258e+03
3.0980322252793721e+03
3.0982507083690148e+03
3.0984493416417376e+03
3.0986499830473413e+03
3.0988526528855409e+03
3.0990462461557004e+03
3.0991720154117547e+03
3.0992990561634874e+03
3.0994273812655024e+03
3.0995570037021930e+03
3.0996404197286442e+03
3.0997041434571142e+03
3.0997685114161577e+03
3.0998335301190359e+03
3.0998716544868885e+03
3.0998763524748301e+03
3.0998810979582522e+03
3.0998858914172929e+03
3.0998664297214145e+03
3.0998061243883922e+03
3.0997452093837451e+03
3.0996836785432633e+03
3.0995861780620403e+03
3.0994461492073888e+03
3.0993047046961901e+03
3.0991618302166708e+03
3.0989477275843183e+03
3.0987006628309473e+03
3.0984511003148782e+03
3.0981899358741953e+03
3.0977975384007832e+03
3.0974011738865966e+03
3.0970008022282295e+03
3.0964827522883838e+03
3.0958716945544784e+03
3.0952544591801575e+03
3.0945774611952143e+03
3.0936546072788187e+03
3.0927224235415406e+03
3.0917808156630776e+03
3.0904358093411179e+03
3.0890396039449697e+03
3.0876292832629128e+03
3.0857230826197565e+03
3.0836336386004295e+03
3.0815230708243998e+03
3.0787703260514795e+03
3.0756939770326553e+03
3.0725865268884295e+03
3.0686397937229676e+03
3.0643080846643170e+03
3.0599325831162223e+03
3.0545178979439675e+03
3.0488163979882229e+03
3.0430664909511815e+03
3.0401796461431336e+03
3.0372636160532525e+03
3.0329145545905080e+03
3.0247434337509003e+03
3.0164897048890721e+03
3.1134203592770664e+03
3.2779548555914826e+03
3.4443715086431316e+03
3.6211990358863768e+03
3.7998142458400557e+03

