# vtk DataFile Version 2.0

ASCII

DATASET UNSTRUCTURED_GRID

POINTS 66 float 

0.0000000000000000e+00  0.0000000000000000e+00  0.0000000000000000e+00
0.0000000000000000e+00  0.0000000000000000e+00  1.0000000000000000e-02
3.1250000000000000e-02  0.0000000000000000e+00  1.0000000000000000e-02
3.1250000000000000e-02  0.0000000000000000e+00  0.0000000000000000e+00
6.2500000000000000e-02  0.0000000000000000e+00  1.0000000000000000e-02
6.2500000000000000e-02  0.0000000000000000e+00  0.0000000000000000e+00
9.3750000000000000e-02  0.0000000000000000e+00  1.0000000000000000e-02
9.3750000000000000e-02  0.0000000000000000e+00  0.0000000000000000e+00
1.2500000000000000e-01  0.0000000000000000e+00  1.0000000000000000e-02
1.2500000000000000e-01  0.0000000000000000e+00  0.0000000000000000e+00
1.5625000000000000e-01  0.0000000000000000e+00  1.0000000000000000e-02
1.5625000000000000e-01  0.0000000000000000e+00  0.0000000000000000e+00
1.8750000000000000e-01  0.0000000000000000e+00  1.0000000000000000e-02
1.8750000000000000e-01  0.0000000000000000e+00  0.0000000000000000e+00
2.1875000000000000e-01  0.0000000000000000e+00  1.0000000000000000e-02
2.1875000000000000e-01  0.0000000000000000e+00  0.0000000000000000e+00
2.5000000000000000e-01  0.0000000000000000e+00  1.0000000000000000e-02
2.5000000000000000e-01  0.0000000000000000e+00  0.0000000000000000e+00
2.8125000000000000e-01  0.0000000000000000e+00  1.0000000000000000e-02
2.8125000000000000e-01  0.0000000000000000e+00  0.0000000000000000e+00
3.1250000000000000e-01  0.0000000000000000e+00  1.0000000000000000e-02
3.1250000000000000e-01  0.0000000000000000e+00  0.0000000000000000e+00
3.4375000000000000e-01  0.0000000000000000e+00  1.0000000000000000e-02
3.4375000000000000e-01  0.0000000000000000e+00  0.0000000000000000e+00
3.7500000000000000e-01  0.0000000000000000e+00  1.0000000000000000e-02
3.7500000000000000e-01  0.0000000000000000e+00  0.0000000000000000e+00
4.0625000000000000e-01  0.0000000000000000e+00  1.0000000000000000e-02
4.0625000000000000e-01  0.0000000000000000e+00  0.0000000000000000e+00
4.3750000000000000e-01  0.0000000000000000e+00  1.0000000000000000e-02
4.3750000000000000e-01  0.0000000000000000e+00  0.0000000000000000e+00
4.6875000000000000e-01  0.0000000000000000e+00  1.0000000000000000e-02
4.6875000000000000e-01  0.0000000000000000e+00  0.0000000000000000e+00
5.0000000000000000e-01  0.0000000000000000e+00  1.0000000000000000e-02
5.0000000000000000e-01  0.0000000000000000e+00  0.0000000000000000e+00
5.3125000000000000e-01  0.0000000000000000e+00  1.0000000000000000e-02
5.3125000000000000e-01  0.0000000000000000e+00  0.0000000000000000e+00
5.6250000000000000e-01  0.0000000000000000e+00  1.0000000000000000e-02
5.6250000000000000e-01  0.0000000000000000e+00  0.0000000000000000e+00
5.9375000000000000e-01  0.0000000000000000e+00  1.0000000000000000e-02
5.9375000000000000e-01  0.0000000000000000e+00  0.0000000000000000e+00
6.2500000000000000e-01  0.0000000000000000e+00  1.0000000000000000e-02
6.2500000000000000e-01  0.0000000000000000e+00  0.0000000000000000e+00
6.5625000000000000e-01  0.0000000000000000e+00  1.0000000000000000e-02
6.5625000000000000e-01  0.0000000000000000e+00  0.0000000000000000e+00
6.8750000000000000e-01  0.0000000000000000e+00  1.0000000000000000e-02
6.8750000000000000e-01  0.0000000000000000e+00  0.0000000000000000e+00
7.1875000000000000e-01  0.0000000000000000e+00  1.0000000000000000e-02
7.1875000000000000e-01  0.0000000000000000e+00  0.0000000000000000e+00
7.5000000000000000e-01  0.0000000000000000e+00  1.0000000000000000e-02
7.5000000000000000e-01  0.0000000000000000e+00  0.0000000000000000e+00
7.8125000000000000e-01  0.0000000000000000e+00  1.0000000000000000e-02
7.8125000000000000e-01  0.0000000000000000e+00  0.0000000000000000e+00
8.1250000000000000e-01  0.0000000000000000e+00  1.0000000000000000e-02
8.1250000000000000e-01  0.0000000000000000e+00  0.0000000000000000e+00
8.4375000000000000e-01  0.0000000000000000e+00  1.0000000000000000e-02
8.4375000000000000e-01  0.0000000000000000e+00  0.0000000000000000e+00
8.7500000000000000e-01  0.0000000000000000e+00  1.0000000000000000e-02
8.7500000000000000e-01  0.0000000000000000e+00  0.0000000000000000e+00
9.0625000000000000e-01  0.0000000000000000e+00  1.0000000000000000e-02
9.0625000000000000e-01  0.0000000000000000e+00  0.0000000000000000e+00
9.3750000000000000e-01  0.0000000000000000e+00  1.0000000000000000e-02
9.3750000000000000e-01  0.0000000000000000e+00  0.0000000000000000e+00
9.6875000000000000e-01  0.0000000000000000e+00  1.0000000000000000e-02
9.6875000000000000e-01  0.0000000000000000e+00  0.0000000000000000e+00
1.0000000000000000e+00  0.0000000000000000e+00  1.0000000000000000e-02
1.0000000000000000e+00  0.0000000000000000e+00  0.0000000000000000e+00

CELLS 64 256

3 0 1 2 
3 2 3 0 
3 3 2 4 
3 4 5 3 
3 5 4 6 
3 6 7 5 
3 7 6 8 
3 8 9 7 
3 9 8 10 
3 10 11 9 
3 11 10 12 
3 12 13 11 
3 13 12 14 
3 14 15 13 
3 15 14 16 
3 16 17 15 
3 17 16 18 
3 18 19 17 
3 19 18 20 
3 20 21 19 
3 21 20 22 
3 22 23 21 
3 23 22 24 
3 24 25 23 
3 25 24 26 
3 26 27 25 
3 27 26 28 
3 28 29 27 
3 29 28 30 
3 30 31 29 
3 31 30 32 
3 32 33 31 
3 33 32 34 
3 34 35 33 
3 35 34 36 
3 36 37 35 
3 37 36 38 
3 38 39 37 
3 39 38 40 
3 40 41 39 
3 41 40 42 
3 42 43 41 
3 43 42 44 
3 44 45 43 
3 45 44 46 
3 46 47 45 
3 47 46 48 
3 48 49 47 
3 49 48 50 
3 50 51 49 
3 51 50 52 
3 52 53 51 
3 53 52 54 
3 54 55 53 
3 55 54 56 
3 56 57 55 
3 57 56 58 
3 58 59 57 
3 59 58 60 
3 60 61 59 
3 61 60 62 
3 62 63 61 
3 63 62 64 
3 64 65 63 

CELL_TYPES 64

5
5
5
5
5
5
5
5
5
5
5
5
5
5
5
5
5
5
5
5
5
5
5
5
5
5
5
5
5
5
5
5
5
5
5
5
5
5
5
5
5
5
5
5
5
5
5
5
5
5
5
5
5
5
5
5
5
5
5
5
5
5
5
5

POINT_DATA 66

VECTORS VertexNormals float

0.0000000000000000e+00 1.0000000000000000e+00 0.0000000000000000e+00 
0.0000000000000000e+00 1.0000000000000000e+00 0.0000000000000000e+00 
0.0000000000000000e+00 1.0000000000000000e+00 0.0000000000000000e+00 
0.0000000000000000e+00 1.0000000000000000e+00 0.0000000000000000e+00 
0.0000000000000000e+00 1.0000000000000000e+00 0.0000000000000000e+00 
0.0000000000000000e+00 1.0000000000000000e+00 0.0000000000000000e+00 
0.0000000000000000e+00 1.0000000000000000e+00 0.0000000000000000e+00 
0.0000000000000000e+00 1.0000000000000000e+00 0.0000000000000000e+00 
0.0000000000000000e+00 1.0000000000000000e+00 0.0000000000000000e+00 
0.0000000000000000e+00 1.0000000000000000e+00 0.0000000000000000e+00 
0.0000000000000000e+00 1.0000000000000000e+00 0.0000000000000000e+00 
0.0000000000000000e+00 1.0000000000000000e+00 0.0000000000000000e+00 
0.0000000000000000e+00 1.0000000000000000e+00 0.0000000000000000e+00 
0.0000000000000000e+00 1.0000000000000000e+00 0.0000000000000000e+00 
0.0000000000000000e+00 1.0000000000000000e+00 0.0000000000000000e+00 
0.0000000000000000e+00 1.0000000000000000e+00 0.0000000000000000e+00 
0.0000000000000000e+00 1.0000000000000000e+00 0.0000000000000000e+00 
0.0000000000000000e+00 1.0000000000000000e+00 0.0000000000000000e+00 
0.0000000000000000e+00 1.0000000000000000e+00 0.0000000000000000e+00 
0.0000000000000000e+00 1.0000000000000000e+00 0.0000000000000000e+00 
0.0000000000000000e+00 1.0000000000000000e+00 0.0000000000000000e+00 
0.0000000000000000e+00 1.0000000000000000e+00 0.0000000000000000e+00 
0.0000000000000000e+00 1.0000000000000000e+00 0.0000000000000000e+00 
0.0000000000000000e+00 1.0000000000000000e+00 0.0000000000000000e+00 
0.0000000000000000e+00 1.0000000000000000e+00 0.0000000000000000e+00 
0.0000000000000000e+00 1.0000000000000000e+00 0.0000000000000000e+00 
0.0000000000000000e+00 1.0000000000000000e+00 0.0000000000000000e+00 
0.0000000000000000e+00 1.0000000000000000e+00 0.0000000000000000e+00 
0.0000000000000000e+00 1.0000000000000000e+00 0.0000000000000000e+00 
0.0000000000000000e+00 1.0000000000000000e+00 0.0000000000000000e+00 
0.0000000000000000e+00 1.0000000000000000e+00 0.0000000000000000e+00 
0.0000000000000000e+00 1.0000000000000000e+00 0.0000000000000000e+00 
0.0000000000000000e+00 1.0000000000000000e+00 0.0000000000000000e+00 
0.0000000000000000e+00 1.0000000000000000e+00 0.0000000000000000e+00 
0.0000000000000000e+00 1.0000000000000000e+00 0.0000000000000000e+00 
0.0000000000000000e+00 1.0000000000000000e+00 0.0000000000000000e+00 
0.0000000000000000e+00 1.0000000000000000e+00 0.0000000000000000e+00 
0.0000000000000000e+00 1.0000000000000000e+00 0.0000000000000000e+00 
0.0000000000000000e+00 1.0000000000000000e+00 0.0000000000000000e+00 
0.0000000000000000e+00 1.0000000000000000e+00 0.0000000000000000e+00 
0.0000000000000000e+00 1.0000000000000000e+00 0.0000000000000000e+00 
0.0000000000000000e+00 1.0000000000000000e+00 0.0000000000000000e+00 
0.0000000000000000e+00 1.0000000000000000e+00 0.0000000000000000e+00 
0.0000000000000000e+00 1.0000000000000000e+00 0.0000000000000000e+00 
0.0000000000000000e+00 1.0000000000000000e+00 0.0000000000000000e+00 
0.0000000000000000e+00 1.0000000000000000e+00 0.0000000000000000e+00 
0.0000000000000000e+00 1.0000000000000000e+00 0.0000000000000000e+00 
0.0000000000000000e+00 1.0000000000000000e+00 0.0000000000000000e+00 
0.0000000000000000e+00 1.0000000000000000e+00 0.0000000000000000e+00 
0.0000000000000000e+00 1.0000000000000000e+00 0.0000000000000000e+00 
0.0000000000000000e+00 1.0000000000000000e+00 0.0000000000000000e+00 
0.0000000000000000e+00 1.0000000000000000e+00 0.0000000000000000e+00 
0.0000000000000000e+00 1.0000000000000000e+00 0.0000000000000000e+00 
0.0000000000000000e+00 1.0000000000000000e+00 0.0000000000000000e+00 
0.0000000000000000e+00 1.0000000000000000e+00 0.0000000000000000e+00 
0.0000000000000000e+00 1.0000000000000000e+00 0.0000000000000000e+00 
0.0000000000000000e+00 1.0000000000000000e+00 0.0000000000000000e+00 
0.0000000000000000e+00 1.0000000000000000e+00 0.0000000000000000e+00 
0.0000000000000000e+00 1.0000000000000000e+00 0.0000000000000000e+00 
0.0000000000000000e+00 1.0000000000000000e+00 0.0000000000000000e+00 
0.0000000000000000e+00 1.0000000000000000e+00 0.0000000000000000e+00 
0.0000000000000000e+00 1.0000000000000000e+00 0.0000000000000000e+00 
0.0000000000000000e+00 1.0000000000000000e+00 0.0000000000000000e+00 
0.0000000000000000e+00 1.0000000000000000e+00 0.0000000000000000e+00 
0.0000000000000000e+00 1.0000000000000000e+00 0.0000000000000000e+00 
0.0000000000000000e+00 1.0000000000000000e+00 0.0000000000000000e+00 

SCALARS Heat-Flux float
LOOKUP_TABLE default
4.1150400092708887e+03
4.1150400092708887e+03
3.4982278117913665e+03
3.4982278117913665e+03
2.8628755219171585e+03
2.8628755219171585e+03
2.8114848551264013e+03
2.8114848551264013e+03
2.7716319756444145e+03
2.7716319756444145e+03
2.7643356891159788e+03
2.7643356891159788e+03
2.7671030111399891e+03
2.7671030111399891e+03
2.7742991950439323e+03
2.7742991950439323e+03
2.7825549701046848e+03
2.7825549701046848e+03
2.7903107299600388e+03
2.7903107299600388e+03
2.7969074568638471e+03
2.7969074568638471e+03
2.8022163758538236e+03
2.8022163758538236e+03
2.8063176255134758e+03
2.8063176255134758e+03
2.8093355960558265e+03
2.8093355960558265e+03
2.8114728901004137e+03
2.8114728901004137e+03
2.8128684022554817e+03
2.8128684022554817e+03
2.8136262402025759e+03
2.8136262402025759e+03
2.8138207359534144e+03
2.8138207359534144e+03
2.8134533788412236e+03
2.8134533788412236e+03
2.8124946121752155e+03
2.8124946121752155e+03
2.8108379459132275e+03
2.8108379459132275e+03
2.8083444779520514e+03
2.8083444779520514e+03
2.8047731534195927e+03
2.8047731534195927e+03
2.7999015426084961e+03
2.7999015426084961e+03
2.7935221673880742e+03
2.7935221673880742e+03
2.7854664333030096e+03
2.7854664333030096e+03
2.7760553347587129e+03
2.7760553347587129e+03
2.7666124825795132e+03
2.7666124825795132e+03
2.7602622058078859e+03
2.7602622058078859e+03
2.7743319687440826e+03
2.7743319687440826e+03
2.7896931567345755e+03
2.7896931567345755e+03
3.3221931669988380e+03
3.3221931669988380e+03
3.8552740730643573e+03
3.8552740730643573e+03

