# vtk DataFile Version 2.0

ASCII

DATASET UNSTRUCTURED_GRID

POINTS 66 float 

0.0000000000000000e+00  0.0000000000000000e+00  0.0000000000000000e+00
0.0000000000000000e+00  0.0000000000000000e+00  1.0000000000000000e-02
3.1250000000000000e-02  0.0000000000000000e+00  1.0000000000000000e-02
3.1250000000000000e-02  0.0000000000000000e+00  0.0000000000000000e+00
6.2500000000000000e-02  0.0000000000000000e+00  1.0000000000000000e-02
6.2500000000000000e-02  0.0000000000000000e+00  0.0000000000000000e+00
9.3750000000000000e-02  0.0000000000000000e+00  1.0000000000000000e-02
9.3750000000000000e-02  0.0000000000000000e+00  0.0000000000000000e+00
1.2500000000000000e-01  0.0000000000000000e+00  1.0000000000000000e-02
1.2500000000000000e-01  0.0000000000000000e+00  0.0000000000000000e+00
1.5625000000000000e-01  0.0000000000000000e+00  1.0000000000000000e-02
1.5625000000000000e-01  0.0000000000000000e+00  0.0000000000000000e+00
1.8750000000000000e-01  0.0000000000000000e+00  1.0000000000000000e-02
1.8750000000000000e-01  0.0000000000000000e+00  0.0000000000000000e+00
2.1875000000000000e-01  0.0000000000000000e+00  1.0000000000000000e-02
2.1875000000000000e-01  0.0000000000000000e+00  0.0000000000000000e+00
2.5000000000000000e-01  0.0000000000000000e+00  1.0000000000000000e-02
2.5000000000000000e-01  0.0000000000000000e+00  0.0000000000000000e+00
2.8125000000000000e-01  0.0000000000000000e+00  1.0000000000000000e-02
2.8125000000000000e-01  0.0000000000000000e+00  0.0000000000000000e+00
3.1250000000000000e-01  0.0000000000000000e+00  1.0000000000000000e-02
3.1250000000000000e-01  0.0000000000000000e+00  0.0000000000000000e+00
3.4375000000000000e-01  0.0000000000000000e+00  1.0000000000000000e-02
3.4375000000000000e-01  0.0000000000000000e+00  0.0000000000000000e+00
3.7500000000000000e-01  0.0000000000000000e+00  1.0000000000000000e-02
3.7500000000000000e-01  0.0000000000000000e+00  0.0000000000000000e+00
4.0625000000000000e-01  0.0000000000000000e+00  1.0000000000000000e-02
4.0625000000000000e-01  0.0000000000000000e+00  0.0000000000000000e+00
4.3750000000000000e-01  0.0000000000000000e+00  1.0000000000000000e-02
4.3750000000000000e-01  0.0000000000000000e+00  0.0000000000000000e+00
4.6875000000000000e-01  0.0000000000000000e+00  1.0000000000000000e-02
4.6875000000000000e-01  0.0000000000000000e+00  0.0000000000000000e+00
5.0000000000000000e-01  0.0000000000000000e+00  1.0000000000000000e-02
5.0000000000000000e-01  0.0000000000000000e+00  0.0000000000000000e+00
5.3125000000000000e-01  0.0000000000000000e+00  1.0000000000000000e-02
5.3125000000000000e-01  0.0000000000000000e+00  0.0000000000000000e+00
5.6250000000000000e-01  0.0000000000000000e+00  1.0000000000000000e-02
5.6250000000000000e-01  0.0000000000000000e+00  0.0000000000000000e+00
5.9375000000000000e-01  0.0000000000000000e+00  1.0000000000000000e-02
5.9375000000000000e-01  0.0000000000000000e+00  0.0000000000000000e+00
6.2500000000000000e-01  0.0000000000000000e+00  1.0000000000000000e-02
6.2500000000000000e-01  0.0000000000000000e+00  0.0000000000000000e+00
6.5625000000000000e-01  0.0000000000000000e+00  1.0000000000000000e-02
6.5625000000000000e-01  0.0000000000000000e+00  0.0000000000000000e+00
6.8750000000000000e-01  0.0000000000000000e+00  1.0000000000000000e-02
6.8750000000000000e-01  0.0000000000000000e+00  0.0000000000000000e+00
7.1875000000000000e-01  0.0000000000000000e+00  1.0000000000000000e-02
7.1875000000000000e-01  0.0000000000000000e+00  0.0000000000000000e+00
7.5000000000000000e-01  0.0000000000000000e+00  1.0000000000000000e-02
7.5000000000000000e-01  0.0000000000000000e+00  0.0000000000000000e+00
7.8125000000000000e-01  0.0000000000000000e+00  1.0000000000000000e-02
7.8125000000000000e-01  0.0000000000000000e+00  0.0000000000000000e+00
8.1250000000000000e-01  0.0000000000000000e+00  1.0000000000000000e-02
8.1250000000000000e-01  0.0000000000000000e+00  0.0000000000000000e+00
8.4375000000000000e-01  0.0000000000000000e+00  1.0000000000000000e-02
8.4375000000000000e-01  0.0000000000000000e+00  0.0000000000000000e+00
8.7500000000000000e-01  0.0000000000000000e+00  1.0000000000000000e-02
8.7500000000000000e-01  0.0000000000000000e+00  0.0000000000000000e+00
9.0625000000000000e-01  0.0000000000000000e+00  1.0000000000000000e-02
9.0625000000000000e-01  0.0000000000000000e+00  0.0000000000000000e+00
9.3750000000000000e-01  0.0000000000000000e+00  1.0000000000000000e-02
9.3750000000000000e-01  0.0000000000000000e+00  0.0000000000000000e+00
9.6875000000000000e-01  0.0000000000000000e+00  1.0000000000000000e-02
9.6875000000000000e-01  0.0000000000000000e+00  0.0000000000000000e+00
1.0000000000000000e+00  0.0000000000000000e+00  1.0000000000000000e-02
1.0000000000000000e+00  0.0000000000000000e+00  0.0000000000000000e+00

CELLS 64 256

3 0 1 2 
3 2 3 0 
3 3 2 4 
3 4 5 3 
3 5 4 6 
3 6 7 5 
3 7 6 8 
3 8 9 7 
3 9 8 10 
3 10 11 9 
3 11 10 12 
3 12 13 11 
3 13 12 14 
3 14 15 13 
3 15 14 16 
3 16 17 15 
3 17 16 18 
3 18 19 17 
3 19 18 20 
3 20 21 19 
3 21 20 22 
3 22 23 21 
3 23 22 24 
3 24 25 23 
3 25 24 26 
3 26 27 25 
3 27 26 28 
3 28 29 27 
3 29 28 30 
3 30 31 29 
3 31 30 32 
3 32 33 31 
3 33 32 34 
3 34 35 33 
3 35 34 36 
3 36 37 35 
3 37 36 38 
3 38 39 37 
3 39 38 40 
3 40 41 39 
3 41 40 42 
3 42 43 41 
3 43 42 44 
3 44 45 43 
3 45 44 46 
3 46 47 45 
3 47 46 48 
3 48 49 47 
3 49 48 50 
3 50 51 49 
3 51 50 52 
3 52 53 51 
3 53 52 54 
3 54 55 53 
3 55 54 56 
3 56 57 55 
3 57 56 58 
3 58 59 57 
3 59 58 60 
3 60 61 59 
3 61 60 62 
3 62 63 61 
3 63 62 64 
3 64 65 63 

CELL_TYPES 64

5
5
5
5
5
5
5
5
5
5
5
5
5
5
5
5
5
5
5
5
5
5
5
5
5
5
5
5
5
5
5
5
5
5
5
5
5
5
5
5
5
5
5
5
5
5
5
5
5
5
5
5
5
5
5
5
5
5
5
5
5
5
5
5

POINT_DATA 66

VECTORS VertexNormals float

0.0000000000000000e+00 1.0000000000000000e+00 0.0000000000000000e+00 
0.0000000000000000e+00 1.0000000000000000e+00 0.0000000000000000e+00 
0.0000000000000000e+00 1.0000000000000000e+00 0.0000000000000000e+00 
0.0000000000000000e+00 1.0000000000000000e+00 0.0000000000000000e+00 
0.0000000000000000e+00 1.0000000000000000e+00 0.0000000000000000e+00 
0.0000000000000000e+00 1.0000000000000000e+00 0.0000000000000000e+00 
0.0000000000000000e+00 1.0000000000000000e+00 0.0000000000000000e+00 
0.0000000000000000e+00 1.0000000000000000e+00 0.0000000000000000e+00 
0.0000000000000000e+00 1.0000000000000000e+00 0.0000000000000000e+00 
0.0000000000000000e+00 1.0000000000000000e+00 0.0000000000000000e+00 
0.0000000000000000e+00 1.0000000000000000e+00 0.0000000000000000e+00 
0.0000000000000000e+00 1.0000000000000000e+00 0.0000000000000000e+00 
0.0000000000000000e+00 1.0000000000000000e+00 0.0000000000000000e+00 
0.0000000000000000e+00 1.0000000000000000e+00 0.0000000000000000e+00 
0.0000000000000000e+00 1.0000000000000000e+00 0.0000000000000000e+00 
0.0000000000000000e+00 1.0000000000000000e+00 0.0000000000000000e+00 
0.0000000000000000e+00 1.0000000000000000e+00 0.0000000000000000e+00 
0.0000000000000000e+00 1.0000000000000000e+00 0.0000000000000000e+00 
0.0000000000000000e+00 1.0000000000000000e+00 0.0000000000000000e+00 
0.0000000000000000e+00 1.0000000000000000e+00 0.0000000000000000e+00 
0.0000000000000000e+00 1.0000000000000000e+00 0.0000000000000000e+00 
0.0000000000000000e+00 1.0000000000000000e+00 0.0000000000000000e+00 
0.0000000000000000e+00 1.0000000000000000e+00 0.0000000000000000e+00 
0.0000000000000000e+00 1.0000000000000000e+00 0.0000000000000000e+00 
0.0000000000000000e+00 1.0000000000000000e+00 0.0000000000000000e+00 
0.0000000000000000e+00 1.0000000000000000e+00 0.0000000000000000e+00 
0.0000000000000000e+00 1.0000000000000000e+00 0.0000000000000000e+00 
0.0000000000000000e+00 1.0000000000000000e+00 0.0000000000000000e+00 
0.0000000000000000e+00 1.0000000000000000e+00 0.0000000000000000e+00 
0.0000000000000000e+00 1.0000000000000000e+00 0.0000000000000000e+00 
0.0000000000000000e+00 1.0000000000000000e+00 0.0000000000000000e+00 
0.0000000000000000e+00 1.0000000000000000e+00 0.0000000000000000e+00 
0.0000000000000000e+00 1.0000000000000000e+00 0.0000000000000000e+00 
0.0000000000000000e+00 1.0000000000000000e+00 0.0000000000000000e+00 
0.0000000000000000e+00 1.0000000000000000e+00 0.0000000000000000e+00 
0.0000000000000000e+00 1.0000000000000000e+00 0.0000000000000000e+00 
0.0000000000000000e+00 1.0000000000000000e+00 0.0000000000000000e+00 
0.0000000000000000e+00 1.0000000000000000e+00 0.0000000000000000e+00 
0.0000000000000000e+00 1.0000000000000000e+00 0.0000000000000000e+00 
0.0000000000000000e+00 1.0000000000000000e+00 0.0000000000000000e+00 
0.0000000000000000e+00 1.0000000000000000e+00 0.0000000000000000e+00 
0.0000000000000000e+00 1.0000000000000000e+00 0.0000000000000000e+00 
0.0000000000000000e+00 1.0000000000000000e+00 0.0000000000000000e+00 
0.0000000000000000e+00 1.0000000000000000e+00 0.0000000000000000e+00 
0.0000000000000000e+00 1.0000000000000000e+00 0.0000000000000000e+00 
0.0000000000000000e+00 1.0000000000000000e+00 0.0000000000000000e+00 
0.0000000000000000e+00 1.0000000000000000e+00 0.0000000000000000e+00 
0.0000000000000000e+00 1.0000000000000000e+00 0.0000000000000000e+00 
0.0000000000000000e+00 1.0000000000000000e+00 0.0000000000000000e+00 
0.0000000000000000e+00 1.0000000000000000e+00 0.0000000000000000e+00 
0.0000000000000000e+00 1.0000000000000000e+00 0.0000000000000000e+00 
0.0000000000000000e+00 1.0000000000000000e+00 0.0000000000000000e+00 
0.0000000000000000e+00 1.0000000000000000e+00 0.0000000000000000e+00 
0.0000000000000000e+00 1.0000000000000000e+00 0.0000000000000000e+00 
0.0000000000000000e+00 1.0000000000000000e+00 0.0000000000000000e+00 
0.0000000000000000e+00 1.0000000000000000e+00 0.0000000000000000e+00 
0.0000000000000000e+00 1.0000000000000000e+00 0.0000000000000000e+00 
0.0000000000000000e+00 1.0000000000000000e+00 0.0000000000000000e+00 
0.0000000000000000e+00 1.0000000000000000e+00 0.0000000000000000e+00 
0.0000000000000000e+00 1.0000000000000000e+00 0.0000000000000000e+00 
0.0000000000000000e+00 1.0000000000000000e+00 0.0000000000000000e+00 
0.0000000000000000e+00 1.0000000000000000e+00 0.0000000000000000e+00 
0.0000000000000000e+00 1.0000000000000000e+00 0.0000000000000000e+00 
0.0000000000000000e+00 1.0000000000000000e+00 0.0000000000000000e+00 
0.0000000000000000e+00 1.0000000000000000e+00 0.0000000000000000e+00 
0.0000000000000000e+00 1.0000000000000000e+00 0.0000000000000000e+00 

SCALARS Heat-Flux float
LOOKUP_TABLE default
4.0989255652697475e+03
4.0989255652697475e+03
3.5214710957978241e+03
3.5214710957978241e+03
2.9373720758107088e+03
2.9373720758107088e+03
2.9083090285745134e+03
2.9083090285745134e+03
2.8858812882968787e+03
2.8858812882968787e+03
2.8900867184507670e+03
2.8900867184507670e+03
2.8999193570205539e+03
2.8999193570205539e+03
2.9108393557438835e+03
2.9108393557438835e+03
2.9205547619141735e+03
2.9205547619141735e+03
2.9284114564838101e+03
2.9284114564838101e+03
2.9344227678433535e+03
2.9344227678433535e+03
2.9388814481735617e+03
2.9388814481735617e+03
2.9421122167386793e+03
2.9421122167386793e+03
2.9443763920509818e+03
2.9443763920509818e+03
2.9459124524284571e+03
2.9459124524284571e+03
2.9468749934065281e+03
2.9468749934065281e+03
2.9473652296190276e+03
2.9473652296190276e+03
2.9474445945164925e+03
2.9474445945164925e+03
2.9471133459603161e+03
2.9471133459603161e+03
2.9463339482597812e+03
2.9463339482597812e+03
2.9450070586313823e+03
2.9450070586313823e+03
2.9429888794413282e+03
2.9429888794413282e+03
2.9400328410440134e+03
2.9400328410440134e+03
2.9358473813234023e+03
2.9358473813234023e+03
2.9300651223587929e+03
2.9300651223587929e+03
2.9222358764014652e+03
2.9222358764014652e+03
2.9121341521462464e+03
2.9121341521462464e+03
2.9002406523144609e+03
2.9002406523144609e+03
2.8884378601276703e+03
2.8884378601276703e+03
2.8920139993999337e+03
2.8920139993999337e+03
2.8909593386557399e+03
2.8909593386557399e+03
3.3808669890313440e+03
3.3808669890313440e+03
3.8809403162784301e+03
3.8809403162784301e+03

