# vtk DataFile Version 2.0

ASCII

DATASET UNSTRUCTURED_GRID

POINTS 66 double 

0.0000000000000000e+00  0.0000000000000000e+00  0.0000000000000000e+00
0.0000000000000000e+00  0.0000000000000000e+00  1.0000000000000000e-02
3.1250000000000000e-02  0.0000000000000000e+00  1.0000000000000000e-02
3.1250000000000000e-02  0.0000000000000000e+00  0.0000000000000000e+00
6.2500000000000000e-02  0.0000000000000000e+00  1.0000000000000000e-02
6.2500000000000000e-02  0.0000000000000000e+00  0.0000000000000000e+00
9.3750000000000000e-02  0.0000000000000000e+00  1.0000000000000000e-02
9.3750000000000000e-02  0.0000000000000000e+00  0.0000000000000000e+00
1.2500000000000000e-01  0.0000000000000000e+00  1.0000000000000000e-02
1.2500000000000000e-01  0.0000000000000000e+00  0.0000000000000000e+00
1.5625000000000000e-01  0.0000000000000000e+00  1.0000000000000000e-02
1.5625000000000000e-01  0.0000000000000000e+00  0.0000000000000000e+00
1.8750000000000000e-01  0.0000000000000000e+00  1.0000000000000000e-02
1.8750000000000000e-01  0.0000000000000000e+00  0.0000000000000000e+00
2.1875000000000000e-01  0.0000000000000000e+00  1.0000000000000000e-02
2.1875000000000000e-01  0.0000000000000000e+00  0.0000000000000000e+00
2.5000000000000000e-01  0.0000000000000000e+00  1.0000000000000000e-02
2.5000000000000000e-01  0.0000000000000000e+00  0.0000000000000000e+00
2.8125000000000000e-01  0.0000000000000000e+00  1.0000000000000000e-02
2.8125000000000000e-01  0.0000000000000000e+00  0.0000000000000000e+00
3.1250000000000000e-01  0.0000000000000000e+00  1.0000000000000000e-02
3.1250000000000000e-01  0.0000000000000000e+00  0.0000000000000000e+00
3.4375000000000000e-01  0.0000000000000000e+00  1.0000000000000000e-02
3.4375000000000000e-01  0.0000000000000000e+00  0.0000000000000000e+00
3.7500000000000000e-01  0.0000000000000000e+00  1.0000000000000000e-02
3.7500000000000000e-01  0.0000000000000000e+00  0.0000000000000000e+00
4.0625000000000000e-01  0.0000000000000000e+00  1.0000000000000000e-02
4.0625000000000000e-01  0.0000000000000000e+00  0.0000000000000000e+00
4.3750000000000000e-01  0.0000000000000000e+00  1.0000000000000000e-02
4.3750000000000000e-01  0.0000000000000000e+00  0.0000000000000000e+00
4.6875000000000000e-01  0.0000000000000000e+00  1.0000000000000000e-02
4.6875000000000000e-01  0.0000000000000000e+00  0.0000000000000000e+00
5.0000000000000000e-01  0.0000000000000000e+00  1.0000000000000000e-02
5.0000000000000000e-01  0.0000000000000000e+00  0.0000000000000000e+00
5.3125000000000000e-01  0.0000000000000000e+00  1.0000000000000000e-02
5.3125000000000000e-01  0.0000000000000000e+00  0.0000000000000000e+00
5.6250000000000000e-01  0.0000000000000000e+00  1.0000000000000000e-02
5.6250000000000000e-01  0.0000000000000000e+00  0.0000000000000000e+00
5.9375000000000000e-01  0.0000000000000000e+00  1.0000000000000000e-02
5.9375000000000000e-01  0.0000000000000000e+00  0.0000000000000000e+00
6.2500000000000000e-01  0.0000000000000000e+00  1.0000000000000000e-02
6.2500000000000000e-01  0.0000000000000000e+00  0.0000000000000000e+00
6.5625000000000000e-01  0.0000000000000000e+00  1.0000000000000000e-02
6.5625000000000000e-01  0.0000000000000000e+00  0.0000000000000000e+00
6.8750000000000000e-01  0.0000000000000000e+00  1.0000000000000000e-02
6.8750000000000000e-01  0.0000000000000000e+00  0.0000000000000000e+00
7.1875000000000000e-01  0.0000000000000000e+00  1.0000000000000000e-02
7.1875000000000000e-01  0.0000000000000000e+00  0.0000000000000000e+00
7.5000000000000000e-01  0.0000000000000000e+00  1.0000000000000000e-02
7.5000000000000000e-01  0.0000000000000000e+00  0.0000000000000000e+00
7.8125000000000000e-01  0.0000000000000000e+00  1.0000000000000000e-02
7.8125000000000000e-01  0.0000000000000000e+00  0.0000000000000000e+00
8.1250000000000000e-01  0.0000000000000000e+00  1.0000000000000000e-02
8.1250000000000000e-01  0.0000000000000000e+00  0.0000000000000000e+00
8.4375000000000000e-01  0.0000000000000000e+00  1.0000000000000000e-02
8.4375000000000000e-01  0.0000000000000000e+00  0.0000000000000000e+00
8.7500000000000000e-01  0.0000000000000000e+00  1.0000000000000000e-02
8.7500000000000000e-01  0.0000000000000000e+00  0.0000000000000000e+00
9.0625000000000000e-01  0.0000000000000000e+00  1.0000000000000000e-02
9.0625000000000000e-01  0.0000000000000000e+00  0.0000000000000000e+00
9.3750000000000000e-01  0.0000000000000000e+00  1.0000000000000000e-02
9.3750000000000000e-01  0.0000000000000000e+00  0.0000000000000000e+00
9.6875000000000000e-01  0.0000000000000000e+00  1.0000000000000000e-02
9.6875000000000000e-01  0.0000000000000000e+00  0.0000000000000000e+00
1.0000000000000000e+00  0.0000000000000000e+00  1.0000000000000000e-02
1.0000000000000000e+00  0.0000000000000000e+00  0.0000000000000000e+00

CELLS 64 256

3 0 1 2 
3 2 3 0 
3 3 2 4 
3 4 5 3 
3 5 4 6 
3 6 7 5 
3 7 6 8 
3 8 9 7 
3 9 8 10 
3 10 11 9 
3 11 10 12 
3 12 13 11 
3 13 12 14 
3 14 15 13 
3 15 14 16 
3 16 17 15 
3 17 16 18 
3 18 19 17 
3 19 18 20 
3 20 21 19 
3 21 20 22 
3 22 23 21 
3 23 22 24 
3 24 25 23 
3 25 24 26 
3 26 27 25 
3 27 26 28 
3 28 29 27 
3 29 28 30 
3 30 31 29 
3 31 30 32 
3 32 33 31 
3 33 32 34 
3 34 35 33 
3 35 34 36 
3 36 37 35 
3 37 36 38 
3 38 39 37 
3 39 38 40 
3 40 41 39 
3 41 40 42 
3 42 43 41 
3 43 42 44 
3 44 45 43 
3 45 44 46 
3 46 47 45 
3 47 46 48 
3 48 49 47 
3 49 48 50 
3 50 51 49 
3 51 50 52 
3 52 53 51 
3 53 52 54 
3 54 55 53 
3 55 54 56 
3 56 57 55 
3 57 56 58 
3 58 59 57 
3 59 58 60 
3 60 61 59 
3 61 60 62 
3 62 63 61 
3 63 62 64 
3 64 65 63 

CELL_TYPES 64

5
5
5
5
5
5
5
5
5
5
5
5
5
5
5
5
5
5
5
5
5
5
5
5
5
5
5
5
5
5
5
5
5
5
5
5
5
5
5
5
5
5
5
5
5
5
5
5
5
5
5
5
5
5
5
5
5
5
5
5
5
5
5
5

POINT_DATA 66

VECTORS VertexNormals double

0.0000000000000000e+00 1.0000000000000000e+00 0.0000000000000000e+00 
0.0000000000000000e+00 1.0000000000000000e+00 0.0000000000000000e+00 
0.0000000000000000e+00 1.0000000000000000e+00 0.0000000000000000e+00 
0.0000000000000000e+00 1.0000000000000000e+00 0.0000000000000000e+00 
0.0000000000000000e+00 1.0000000000000000e+00 0.0000000000000000e+00 
0.0000000000000000e+00 1.0000000000000000e+00 0.0000000000000000e+00 
0.0000000000000000e+00 1.0000000000000000e+00 0.0000000000000000e+00 
0.0000000000000000e+00 1.0000000000000000e+00 0.0000000000000000e+00 
0.0000000000000000e+00 1.0000000000000000e+00 0.0000000000000000e+00 
0.0000000000000000e+00 1.0000000000000000e+00 0.0000000000000000e+00 
0.0000000000000000e+00 1.0000000000000000e+00 0.0000000000000000e+00 
0.0000000000000000e+00 1.0000000000000000e+00 0.0000000000000000e+00 
0.0000000000000000e+00 1.0000000000000000e+00 0.0000000000000000e+00 
0.0000000000000000e+00 1.0000000000000000e+00 0.0000000000000000e+00 
0.0000000000000000e+00 1.0000000000000000e+00 0.0000000000000000e+00 
0.0000000000000000e+00 1.0000000000000000e+00 0.0000000000000000e+00 
0.0000000000000000e+00 1.0000000000000000e+00 0.0000000000000000e+00 
0.0000000000000000e+00 1.0000000000000000e+00 0.0000000000000000e+00 
0.0000000000000000e+00 1.0000000000000000e+00 0.0000000000000000e+00 
0.0000000000000000e+00 1.0000000000000000e+00 0.0000000000000000e+00 
0.0000000000000000e+00 1.0000000000000000e+00 0.0000000000000000e+00 
0.0000000000000000e+00 1.0000000000000000e+00 0.0000000000000000e+00 
0.0000000000000000e+00 1.0000000000000000e+00 0.0000000000000000e+00 
0.0000000000000000e+00 1.0000000000000000e+00 0.0000000000000000e+00 
0.0000000000000000e+00 1.0000000000000000e+00 0.0000000000000000e+00 
0.0000000000000000e+00 1.0000000000000000e+00 0.0000000000000000e+00 
0.0000000000000000e+00 1.0000000000000000e+00 0.0000000000000000e+00 
0.0000000000000000e+00 1.0000000000000000e+00 0.0000000000000000e+00 
0.0000000000000000e+00 1.0000000000000000e+00 0.0000000000000000e+00 
0.0000000000000000e+00 1.0000000000000000e+00 0.0000000000000000e+00 
0.0000000000000000e+00 1.0000000000000000e+00 0.0000000000000000e+00 
0.0000000000000000e+00 1.0000000000000000e+00 0.0000000000000000e+00 
0.0000000000000000e+00 1.0000000000000000e+00 0.0000000000000000e+00 
0.0000000000000000e+00 1.0000000000000000e+00 0.0000000000000000e+00 
0.0000000000000000e+00 1.0000000000000000e+00 0.0000000000000000e+00 
0.0000000000000000e+00 1.0000000000000000e+00 0.0000000000000000e+00 
0.0000000000000000e+00 1.0000000000000000e+00 0.0000000000000000e+00 
0.0000000000000000e+00 1.0000000000000000e+00 0.0000000000000000e+00 
0.0000000000000000e+00 1.0000000000000000e+00 0.0000000000000000e+00 
0.0000000000000000e+00 1.0000000000000000e+00 0.0000000000000000e+00 
0.0000000000000000e+00 1.0000000000000000e+00 0.0000000000000000e+00 
0.0000000000000000e+00 1.0000000000000000e+00 0.0000000000000000e+00 
0.0000000000000000e+00 1.0000000000000000e+00 0.0000000000000000e+00 
0.0000000000000000e+00 1.0000000000000000e+00 0.0000000000000000e+00 
0.0000000000000000e+00 1.0000000000000000e+00 0.0000000000000000e+00 
0.0000000000000000e+00 1.0000000000000000e+00 0.0000000000000000e+00 
0.0000000000000000e+00 1.0000000000000000e+00 0.0000000000000000e+00 
0.0000000000000000e+00 1.0000000000000000e+00 0.0000000000000000e+00 
0.0000000000000000e+00 1.0000000000000000e+00 0.0000000000000000e+00 
0.0000000000000000e+00 1.0000000000000000e+00 0.0000000000000000e+00 
0.0000000000000000e+00 1.0000000000000000e+00 0.0000000000000000e+00 
0.0000000000000000e+00 1.0000000000000000e+00 0.0000000000000000e+00 
0.0000000000000000e+00 1.0000000000000000e+00 0.0000000000000000e+00 
0.0000000000000000e+00 1.0000000000000000e+00 0.0000000000000000e+00 
0.0000000000000000e+00 1.0000000000000000e+00 0.0000000000000000e+00 
0.0000000000000000e+00 1.0000000000000000e+00 0.0000000000000000e+00 
0.0000000000000000e+00 1.0000000000000000e+00 0.0000000000000000e+00 
0.0000000000000000e+00 1.0000000000000000e+00 0.0000000000000000e+00 
0.0000000000000000e+00 1.0000000000000000e+00 0.0000000000000000e+00 
0.0000000000000000e+00 1.0000000000000000e+00 0.0000000000000000e+00 
0.0000000000000000e+00 1.0000000000000000e+00 0.0000000000000000e+00 
0.0000000000000000e+00 1.0000000000000000e+00 0.0000000000000000e+00 
0.0000000000000000e+00 1.0000000000000000e+00 0.0000000000000000e+00 
0.0000000000000000e+00 1.0000000000000000e+00 0.0000000000000000e+00 
0.0000000000000000e+00 1.0000000000000000e+00 0.0000000000000000e+00 
0.0000000000000000e+00 1.0000000000000000e+00 0.0000000000000000e+00 

SCALARS Heat-Flux double
LOOKUP_TABLE default
4.1225216803330122e+03
4.1225216803330122e+03
3.4600833767857694e+03
3.4600833767857694e+03
2.7654085285408660e+03
2.7654085285408660e+03
2.6874790573787327e+03
2.6874790573787327e+03
2.6249555646572853e+03
2.6249555646572853e+03
2.6003402354373980e+03
2.6003402354373980e+03
2.5902378465067163e+03
2.5902378465067163e+03
2.5884666057278087e+03
2.5884666057278087e+03
2.5909542427045390e+03
2.5909542427045390e+03
2.5953900718934174e+03
2.5953900718934174e+03
2.6003862793189919e+03
2.6003862793189919e+03
2.6052266212282129e+03
2.6052266212282129e+03
2.6095228920326927e+03
2.6095228920326927e+03
2.6130310403310441e+03
2.6130310403310441e+03
2.6157588088532075e+03
2.6157588088532075e+03
2.6176946589082954e+03
2.6176946589082954e+03
2.6188597174430479e+03
2.6188597174430479e+03
2.6193029334819594e+03
2.6193029334819594e+03
2.6189998922229288e+03
2.6189998922229288e+03
2.6179421389450008e+03
2.6179421389450008e+03
2.6160387178064420e+03
2.6160387178064420e+03
2.6132108522255303e+03
2.6132108522255303e+03
2.6092999690194129e+03
2.6092999690194129e+03
2.6042742611483854e+03
2.6042742611483854e+03
2.5982380924120671e+03
2.5982380924120671e+03
2.5914385582826080e+03
2.5914385582826080e+03
2.5848575174226435e+03
2.5848575174226435e+03
2.5806801905673647e+03
2.5806801905673647e+03
2.5831821100913667e+03
2.5831821100913667e+03
2.6114915657588435e+03
2.6114915657588435e+03
2.6473491920729439e+03
2.6473491920729439e+03
3.2254718625448704e+03
3.2254718625448704e+03
3.7924276387471773e+03
3.7924276387471773e+03

