/*--------------------------------*- C++ -*----------------------------------*\
| =========                 |                                                 |
| \\      /  F ield         | OpenFOAM: The Open Source CFD Toolbox           |
|  \\    /   O peration     | Version:  5.x                                   |
|   \\  /    A nd           | Web:      www.OpenFOAM.org                      |
|    \\/     M anipulation  |                                                 |
\*---------------------------------------------------------------------------*/
FoamFile
{
    version     2.0;
    format      ascii;
    class       pointVectorField;
    location    "3.9";
    object      pointDisplacement;
}
// * * * * * * * * * * * * * * * * * * * * * * * * * * * * * * * * * * * * * //

dimensions      [0 1 0 0 0 0 0];

internalField   nonuniform List<vector> 
5828
(
(0 0 0)
(0.00901846 0 0)
(0.0171473 0 0)
(0.0241762 0 0)
(0.0301935 0 0)
(0.0352837 0 0)
(0.0395234 0 0)
(0.0429811 0 0)
(0.0457182 0 0)
(0.0477887 0 0)
(0.0492401 0 0)
(0.0501145 0 0)
(0.0504486 0 0)
(0.050275 0 0)
(0.0496225 0 0)
(0.0485166 0 0)
(0.0469809 0 0)
(0.0450381 0 0)
(0.0427114 0 0)
(0.0400239 0 0)
(0.0370003 0 0)
(0.0336702 0 0)
(0.03007 0 0)
(0.0262454 0 0)
(0.0222576 0 0)
(0.0181881 0 0)
(0.0141453 0 0)
(0.0102825 0 0)
(0.00683777 0 0)
(0.0042808 0 0)
(-4.54281e-16 0 0)
(0 0 0)
(0.00902299 1.82665e-05 0)
(0.017157 3.53859e-05 0)
(0.0241912 5.14211e-05 0)
(0.0302142 6.69073e-05 0)
(0.0353106 8.22973e-05 0)
(0.0395573 9.79873e-05 0)
(0.043023 0.000114343 0)
(0.0457691 0.000131718 0)
(0.0478501 0.000150465 0)
(0.0493137 0.000170939 0)
(0.050202 0.000193507 0)
(0.0505523 0.000218556 0)
(0.0503975 0.000246562 0)
(0.0497667 0.000277987 0)
(0.0486858 0.000313382 0)
(0.047179 0.000353491 0)
(0.0452695 0.000399186 0)
(0.0429816 0.000451571 0)
(0.0403391 0.000511502 0)
(0.0373676 0.000580108 0)
(0.0340979 0.000659264 0)
(0.030568 0.000751139 0)
(0.0268249 0.000858537 0)
(0.0229331 0.000986038 0)
(0.01898 0.00113954 0)
(0.0150827 0.00132593 0)
(0.0114085 0.00155303 0)
(0.00821268 0.00182367 0)
(0.00595945 0.00211241 0)
(0.00284327 0.00270524 0)
(0 0 0)
(0.00903775 3.64519e-05 0)
(0.0171866 7.06137e-05 0)
(0.0242363 0.000102608 0)
(0.0302758 0.0001335 0)
(0.0353906 0.000164188 0)
(0.0396578 0.00019546 0)
(0.0431471 0.000228043 0)
(0.0459203 0.000262636 0)
(0.0480325 0.00029994 0)
(0.0495322 0.000340661 0)
(0.0504623 0.00038552 0)
(0.0508607 0.000435257 0)
(0.0507618 0.00049085 0)
(0.0501958 0.000553168 0)
(0.0491897 0.000623226 0)
(0.0477691 0.000702508 0)
(0.0459583 0.000792626 0)
(0.0437839 0.000895452 0)
(0.041274 0.00101279 0)
(0.0384562 0.00114703 0)
(0.0353644 0.00130141 0)
(0.0320424 0.00147969 0)
(0.0285416 0.00168673 0)
(0.0249315 0.00192942 0)
(0.0213119 0.0022158 0)
(0.0178192 0.00255455 0)
(0.0146495 0.00295271 0)
(0.0120811 0.00340279 0)
(0.0105339 0.00384794 0)
(0.00849917 0.00454414 0)
(0 0 0)
(0.00906191 5.44612e-05 0)
(0.0172351 0.000105497 0)
(0.0243101 0.000153284 0)
(0.0303769 0.000199404 0)
(0.0355218 0.000245191 0)
(0.039823 0.000291812 0)
(0.043351 0.000340341 0)
(0.0461689 0.000391814 0)
(0.0483327 0.000447271 0)
(0.0498921 0.000507753 0)
(0.0508911 0.000574321 0)
(0.0513687 0.000647959 0)
(0.0513609 0.000729936 0)
(0.0509007 0.000821653 0)
(0.0500171 0.000924697 0)
(0.048738 0.00104107 0)
(0.04709 0.00117285 0)
(0.0451017 0.00132224 0)
(0.0428059 0.00149212 0)
(0.0402361 0.00168602 0)
(0.0374307 0.0019077 0)
(0.0344402 0.00216164 0)
(0.0313253 0.00245342 0)
(0.0281621 0.00278881 0)
(0.025059 0.0031734 0)
(0.0221646 0.00361189 0)
(0.0196925 0.004102 0)
(0.0179166 0.00461765 0)
(0.0171595 0.00507969 0)
(0.0160959 0.00566524 0)
(0 0 0)
(0.00909551 7.21879e-05 0)
(0.0173025 0.000139828 0)
(0.0244125 0.000203138 0)
(0.0305169 0.0002642 0)
(0.0357035 0.000324765 0)
(0.0400516 0.00038636 0)
(0.0436331 0.000450388 0)
(0.0465125 0.000518201 0)
(0.0487474 0.000591163 0)
(0.050389 0.000670632 0)
(0.051482 0.00075778 0)
(0.0520673 0.000853797 0)
(0.0521837 0.00096023 0)
(0.0518671 0.00107907 0)
(0.0511505 0.00121253 0)
(0.0500641 0.00136278 0)
(0.0486384 0.00153224 0)
(0.0469052 0.00172347 0)
(0.0449006 0.00193982 0)
(0.0426642 0.00218508 0)
(0.0402407 0.00246294 0)
(0.0376861 0.00277746 0)
(0.03507 0.00313288 0)
(0.0324781 0.00353202 0)
(0.0300226 0.00397569 0)
(0.0278484 0.00446082 0)
(0.0261582 0.00497237 0)
(0.0251866 0.00546875 0)
(0.0251365 0.00586774 0)
(0.0248029 0.00629485 0)
(0 0 0)
(0.00913828 8.95204e-05 0)
(0.0173881 0.000173385 0)
(0.0245424 0.000251841 0)
(0.0306945 0.000327443 0)
(0.0359335 0.000402337 0)
(0.0403407 0.000478387 0)
(0.0439895 0.000557293 0)
(0.0469463 0.000640695 0)
(0.0492705 0.000730265 0)
(0.0510142 0.000827467 0)
(0.0522231 0.000933451 0)
(0.0529426 0.00104991 0)
(0.0532151 0.00117885 0)
(0.0530788 0.00132246 0)
(0.05257 0.00148319 0)
(0.0517229 0.00166339 0)
(0.0505723 0.0018657 0)
(0.0491545 0.00209293 0)
(0.0475097 0.00234825 0)
(0.0456818 0.00263494 0)
(0.0437215 0.002956 0)
(0.0416893 0.003314 0)
(0.0396588 0.00371043 0)
(0.0377201 0.00414437 0)
(0.0359839 0.00461093 0)
(0.0345794 0.00509891 0)
(0.0336713 0.00558337 0)
(0.0334272 0.00601678 0)
(0.033937 0.00632962 0)
(0.0340658 0.0066048 0)
(0 0 0)
(0.00918978 0.000106346 0)
(0.017491 0.000205946 0)
(0.0246984 0.000299062 0)
(0.0309073 0.000388689 0)
(0.0362089 0.000477339 0)
(0.0406864 0.000567179 0)
(0.0444152 0.000660174 0)
(0.0474636 0.000758201 0)
(0.0498927 0.00086308 0)
(0.0517552 0.000976338 0)
(0.0531012 0.00109948 0)
(0.0539805 0.00123457 0)
(0.0544378 0.0013838 0)
(0.0545141 0.00154936 0)
(0.0542492 0.00173371 0)
(0.0536819 0.00193935 0)
(0.0528517 0.00216891 0)
(0.0517997 0.00242508 0)
(0.05057 0.00271059 0)
(0.0492113 0.00302783 0)
(0.0477778 0.00337852 0)
(0.0463326 0.00376311 0)
(0.0449491 0.00417991 0)
(0.043713 0.00462372 0)
(0.0427226 0.00508409 0)
(0.0420812 0.00554401 0)
(0.0419017 0.00597445 0)
(0.042276 0.00633189 0)
(0.0432072 0.00656698 0)
(0.0436417 0.00678743 0)
(0 0 0)
(0.00924939 0.000122556 0)
(0.01761 0.000237299 0)
(0.0248784 0.000344482 0)
(0.0311525 0.000447509 0)
(0.036526 0.000549223 0)
(0.0410839 0.000652061 0)
(0.0449037 0.000758204 0)
(0.0480558 0.000869693 0)
(0.0506026 0.000988377 0)
(0.0526001 0.00111604 0)
(0.0541032 0.00125467 0)
(0.0551641 0.00140632 0)
(0.0558298 0.00157306 0)
(0.056145 0.00175713 0)
(0.0561533 0.00196094 0)
(0.0558984 0.00218695 0)
(0.0554244 0.00243758 0)
(0.054777 0.00271515 0)
(0.0540045 0.00302166 0)
(0.0531589 0.00335842 0)
(0.0522968 0.00372557 0)
(0.0514803 0.00412126 0)
(0.050778 0.00454069 0)
(0.0502635 0.00497477 0)
(0.0500135 0.00540875 0)
(0.0500979 0.0058221 0)
(0.0505716 0.00618598 0)
(0.051455 0.00646559 0)
(0.0526939 0.0066319 0)
(0.0534518 0.00682472 0)
(0 0 0)
(0.00931634 0.000138048 0)
(0.0177435 0.000267239 0)
(0.02508 0.0003878 0)
(0.0314269 0.000503501 0)
(0.0368802 0.000617482 0)
(0.0415274 0.00073241 0)
(0.0454479 0.000850645 0)
(0.0487141 0.000974337 0)
(0.0513909 0.00110544 0)
(0.053538 0.00124591 0)
(0.0552131 0.0013979 0)
(0.0564719 0.00156351 0)
(0.0573646 0.0017447 0)
(0.0579387 0.00194356 0)
(0.058242 0.00216236 0)
(0.0583229 0.00240335 0)
(0.0582301 0.0026686 0)
(0.0580136 0.00295985 0)
(0.0577252 0.00327825 0)
(0.0574194 0.00362397 0)
(0.0571529 0.00399554 0)
(0.0569846 0.00438909 0)
(0.0569735 0.00479728 0)
(0.0571761 0.00520814 0)
(0.0576401 0.00560419 0)
(0.0583967 0.00596303 0)
(0.0594404 0.00625704 0)
(0.060726 0.00645901 0)
(0.0621612 0.00655617 0)
(0.0631672 0.00665615 0)
(0 0 0)
(0.00938973 0.000152725 0)
(0.0178896 0.000295579 0)
(0.0253004 0.000428737 0)
(0.0317264 0.000556298 0)
(0.0372664 0.000681654 0)
(0.0420102 0.000807668 0)
(0.0460395 0.000936841 0)
(0.0494289 0.00107142 0)
(0.0522462 0.00121348 0)
(0.0545541 0.001365 0)
(0.0564125 0.00152809 0)
(0.0578801 0.00170487 0)
(0.0590122 0.00189724 0)
(0.0598588 0.00210701 0)
(0.0604705 0.00233615 0)
(0.0609009 0.00258665 0)
(0.0612027 0.00286005 0)
(0.0614295 0.00315743 0)
(0.0616361 0.00347907 0)
(0.0618782 0.00382404 0)
(0.0622113 0.00418958 0)
(0.0626889 0.00457036 0)
(0.0633584 0.00495751 0)
(0.0642554 0.00533771 0)
(0.0653954 0.00569264 0)
(0.0667655 0.0059996 0)
(0.0683002 0.00623237 0)
(0.0698935 0.0063684 0)
(0.0714235 0.00640636 0)
(0.072423 0.00635962 0)
(0 0 0)
(0.00946848 0.000166501 0)
(0.0180462 0.00032215 0)
(0.0255364 0.000467048 0)
(0.0320467 0.000605573 0)
(0.0376788 0.000741336 0)
(0.042525 0.000877353 0)
(0.0466694 0.00101623 0)
(0.0501888 0.00116029 0)
(0.0531539 0.00131165 0)
(0.0556303 0.00147231 0)
(0.0576803 0.00164426 0)
(0.0593644 0.00182946 0)
(0.0607421 0.0020297 0)
(0.0618664 0.00224642 0)
(0.0627911 0.00248127 0)
(0.0635742 0.00273588 0)
(0.0642717 0.00301121 0)
(0.06494 0.00330762 0)
(0.0656357 0.00362455 0)
(0.0664148 0.00396019 0)
(0.0673307 0.00431091 0)
(0.0684308 0.00467071 0)
(0.0697505 0.00503048 0)
(0.0713048 0.00537749 0)
(0.0730782 0.00569501 0)
(0.0750135 0.00596273 0)
(0.0769898 0.00615747 0)
(0.0788447 0.00625988 0)
(0.080431 0.00627317 0)
(0.0812965 0.00617633 0)
(0 0 0)
(0.00955145 0.000179303 0)
(0.018211 0.000346809 0)
(0.0257845 0.000502523 0)
(0.0323831 0.000651059 0)
(0.0381114 0.000796199 0)
(0.0430642 0.00094108 0)
(0.047328 0.00108838 0)
(0.0509819 0.00124044 0)
(0.054099 0.00139938 0)
(0.0567478 0.00156717 0)
(0.0589932 0.00174566 0)
(0.0608976 0.00193663 0)
(0.0625215 0.00214149 0)
(0.0639209 0.00236128 0)
(0.0651545 0.00259742 0)
(0.0662835 0.00285108 0)
(0.0673657 0.00312256 0)
(0.0684591 0.00341153 0)
(0.0696214 0.0037167 0)
(0.070908 0.0040356 0)
(0.0723696 0.00436419 0)
(0.0740477 0.00469657 0)
(0.0759676 0.0050247 0)
(0.0781286 0.00533831 0)
(0.0804917 0.00562507 0)
(0.0829655 0.00587076 0)
(0.0853864 0.00605865 0)
(0.0875401 0.00617251 0)
(0.0892423 0.00620949 0)
(0.0900499 0.00614232 0)
(0 0 0)
(0.00963742 0.000191072 0)
(0.0183817 0.000369444 0)
(0.0260412 0.000535002 0)
(0.0327308 0.000692549 0)
(0.0385579 0.000846 0)
(0.0436199 0.000998573 0)
(0.0480054 0.00115298 0)
(0.0517959 0.00131155 0)
(0.0550665 0.00147635 0)
(0.0578882 0.00164926 0)
(0.060328 0.00183196 0)
(0.0624507 0.00202602 0)
(0.0643158 0.00223235 0)
(0.0659819 0.00245166 0)
(0.0675129 0.00268506 0)
(0.0689714 0.00293319 0)
(0.070416 0.0031957 0)
(0.0719053 0.00347158 0)
(0.0734964 0.00375894 0)
(0.0752434 0.00405485 0)
(0.0771938 0.00435517 0)
(0.0793846 0.00465462 0)
(0.0818344 0.00494701 0)
(0.0845343 0.0052258 0)
(0.0874352 0.00548505 0)
(0.0904327 0.00572001 0)
(0.0933452 0.00592492 0)
(0.0959185 0.00608887 0)
(0.0978976 0.00619268 0)
(0.0989011 0.00626694 0)
(0 0 0)
(0.00972513 0.000201763 0)
(0.0185558 0.000389969 0)
(0.0263028 0.000564365 0)
(0.0330847 0.000729896 0)
(0.0390118 0.000890572 0)
(0.044184 0.00104965 0)
(0.0486918 0.00120985 0)
(0.0526187 0.00137345 0)
(0.0560417 0.00154243 0)
(0.0590336 0.00171851 0)
(0.0616632 0.0019032 0)
(0.0639968 0.00209775 0)
(0.0660926 0.00230267 0)
(0.0680116 0.00251831 0)
(0.0698219 0.00274542 0)
(0.0715855 0.00298403 0)
(0.0733607 0.0032332 0)
(0.0752051 0.0034913 0)
(0.0771742 0.0037559 0)
(0.0793192 0.00402371 0)
(0.0816844 0.00429061 0)
(0.0843023 0.00455196 0)
(0.0871884 0.0048033 0)
(0.0903327 0.00504156 0)
(0.09369 0.00526688 0)
(0.0971687 0.00548481 0)
(0.100605 0.00570447 0)
(0.10374 0.00592846 0)
(0.106226 0.00612232 0)
(0.10803 0.00638069 0)
(0 0 0)
(0.00981336 0.000211345 0)
(0.0187308 0.000408327 0)
(0.0265656 0.000590534 0)
(0.03344 0.00076301 0)
(0.039467 0.000929822 0)
(0.0447487 0.00109424 0)
(0.0493776 0.00125894 0)
(0.0534387 0.00142614 0)
(0.0570106 0.00159768 0)
(0.0601672 0.00177511 0)
(0.0629788 0.00195972 0)
(0.0655111 0.00215238 0)
(0.0678219 0.00235324 0)
(0.0699759 0.00256247 0)
(0.072042 0.00278031 0)
(0.0740797 0.00300612 0)
(0.0761459 0.00323844 0)
(0.078296 0.0034751 0)
(0.080582 0.0037132 0)
(0.0830511 0.00394907 0)
(0.0857424 0.00417849 0)
(0.088684 0.00439706 0)
(0.0918882 0.00460101 0)
(0.0953464 0.00478854 0)
(0.0990232 0.00496202 0)
(0.102854 0.00513148 0)
(0.106718 0.00531792 0)
(0.110404 0.00555106 0)
(0.113554 0.0058236 0)
(0.117199 0.0063797 0)
(0 0 0)
(0.00990149 0.00021986 0)
(0.0189055 0.000424599 0)
(0.026828 0.000613628 0)
(0.0337944 0.000792051 0)
(0.0399206 0.000963954 0)
(0.0453105 0.00113259 0)
(0.0500584 0.00130057 0)
(0.0542504 0.00147 0)
(0.0579663 0.00164259 0)
(0.0612807 0.00181967 0)
(0.0642641 0.00200228 0)
(0.0669806 0.00219089 0)
(0.0694912 0.00238548 0)
(0.0718621 0.00258598 0)
(0.074158 0.00279199 0)
(0.0764358 0.00300231 0)
(0.0787502 0.00321501 0)
(0.0811526 0.00342747 0)
(0.08369 0.00363633 0)
(0.0864033 0.00383757 0)
(0.0893248 0.00402665 0)
(0.0924754 0.00419885 0)
(0.0958611 0.00434973 0)
(0.09947 0.00447582 0)
(0.103269 0.00457523 0)
(0.107202 0.00464788 0)
(0.111168 0.00469387 0)
(0.11501 0.00469997 0)
(0.118497 0.00458186 0)
(0.126285 0.00636975 0)
(0 0 0)
(0.00901846 0 0)
(0.0171473 0 0)
(0.0241762 0 0)
(0.0301935 0 0)
(0.0352837 0 0)
(0.0395234 0 0)
(0.0429811 0 0)
(0.0457182 0 0)
(0.0477887 0 0)
(0.0492401 0 0)
(0.0501145 0 0)
(0.0504486 0 0)
(0.050275 0 0)
(0.0496225 0 0)
(0.0485166 0 0)
(0.0469809 0 0)
(0.0450381 0 0)
(0.0427114 0 0)
(0.0400239 0 0)
(0.0370003 0 0)
(0.0336702 0 0)
(0.03007 0 0)
(0.0262454 0 0)
(0.0222576 0 0)
(0.0181881 0 0)
(0.0141453 0 0)
(0.0102825 0 0)
(0.00683777 0 0)
(0.0042808 0 0)
(2.55872e-17 0 0)
(0 0 0)
(0.00902299 1.82665e-05 0)
(0.017157 3.53859e-05 0)
(0.0241912 5.14211e-05 0)
(0.0302142 6.69073e-05 0)
(0.0353106 8.22973e-05 0)
(0.0395573 9.79873e-05 0)
(0.043023 0.000114343 0)
(0.0457691 0.000131718 0)
(0.0478501 0.000150465 0)
(0.0493137 0.000170939 0)
(0.050202 0.000193507 0)
(0.0505523 0.000218556 0)
(0.0503975 0.000246562 0)
(0.0497667 0.000277987 0)
(0.0486858 0.000313382 0)
(0.047179 0.000353491 0)
(0.0452695 0.000399186 0)
(0.0429816 0.000451571 0)
(0.0403391 0.000511502 0)
(0.0373676 0.000580108 0)
(0.0340979 0.000659264 0)
(0.030568 0.000751139 0)
(0.0268249 0.000858537 0)
(0.0229331 0.000986038 0)
(0.01898 0.00113954 0)
(0.0150827 0.00132593 0)
(0.0114085 0.00155303 0)
(0.00821268 0.00182367 0)
(0.00595945 0.00211241 0)
(0.00284327 0.00270524 0)
(0 0 0)
(0.00903775 3.64519e-05 0)
(0.0171866 7.06137e-05 0)
(0.0242363 0.000102608 0)
(0.0302758 0.0001335 0)
(0.0353906 0.000164188 0)
(0.0396578 0.00019546 0)
(0.0431471 0.000228043 0)
(0.0459203 0.000262636 0)
(0.0480325 0.00029994 0)
(0.0495322 0.000340661 0)
(0.0504623 0.00038552 0)
(0.0508607 0.000435257 0)
(0.0507618 0.00049085 0)
(0.0501958 0.000553168 0)
(0.0491897 0.000623226 0)
(0.0477691 0.000702508 0)
(0.0459583 0.000792626 0)
(0.0437839 0.000895452 0)
(0.041274 0.00101279 0)
(0.0384562 0.00114703 0)
(0.0353644 0.00130141 0)
(0.0320424 0.00147969 0)
(0.0285416 0.00168673 0)
(0.0249315 0.00192942 0)
(0.0213119 0.0022158 0)
(0.0178192 0.00255455 0)
(0.0146495 0.00295271 0)
(0.0120811 0.00340279 0)
(0.0105339 0.00384794 0)
(0.00849917 0.00454414 0)
(0 0 0)
(0.00906191 5.44612e-05 0)
(0.0172351 0.000105497 0)
(0.0243101 0.000153284 0)
(0.0303769 0.000199404 0)
(0.0355218 0.000245191 0)
(0.039823 0.000291812 0)
(0.043351 0.000340341 0)
(0.0461689 0.000391814 0)
(0.0483327 0.000447271 0)
(0.0498921 0.000507753 0)
(0.0508911 0.000574321 0)
(0.0513687 0.000647959 0)
(0.0513609 0.000729936 0)
(0.0509007 0.000821653 0)
(0.0500171 0.000924697 0)
(0.048738 0.00104107 0)
(0.04709 0.00117285 0)
(0.0451017 0.00132224 0)
(0.0428059 0.00149212 0)
(0.0402361 0.00168602 0)
(0.0374307 0.0019077 0)
(0.0344402 0.00216164 0)
(0.0313253 0.00245342 0)
(0.0281621 0.00278881 0)
(0.025059 0.0031734 0)
(0.0221646 0.00361189 0)
(0.0196925 0.004102 0)
(0.0179166 0.00461765 0)
(0.0171595 0.00507969 0)
(0.0160959 0.00566524 0)
(0 0 0)
(0.00909551 7.21879e-05 0)
(0.0173025 0.000139828 0)
(0.0244125 0.000203138 0)
(0.0305169 0.0002642 0)
(0.0357035 0.000324765 0)
(0.0400516 0.00038636 0)
(0.0436331 0.000450388 0)
(0.0465125 0.000518201 0)
(0.0487474 0.000591163 0)
(0.050389 0.000670632 0)
(0.051482 0.00075778 0)
(0.0520673 0.000853797 0)
(0.0521837 0.00096023 0)
(0.0518671 0.00107907 0)
(0.0511505 0.00121253 0)
(0.0500641 0.00136278 0)
(0.0486384 0.00153224 0)
(0.0469052 0.00172347 0)
(0.0449006 0.00193982 0)
(0.0426642 0.00218508 0)
(0.0402407 0.00246294 0)
(0.0376861 0.00277746 0)
(0.03507 0.00313288 0)
(0.0324781 0.00353202 0)
(0.0300226 0.00397569 0)
(0.0278484 0.00446082 0)
(0.0261582 0.00497237 0)
(0.0251866 0.00546875 0)
(0.0251365 0.00586774 0)
(0.0248029 0.00629485 0)
(0 0 0)
(0.00913828 8.95204e-05 0)
(0.0173881 0.000173385 0)
(0.0245424 0.000251841 0)
(0.0306945 0.000327443 0)
(0.0359335 0.000402337 0)
(0.0403407 0.000478387 0)
(0.0439895 0.000557293 0)
(0.0469463 0.000640695 0)
(0.0492705 0.000730265 0)
(0.0510142 0.000827467 0)
(0.0522231 0.000933451 0)
(0.0529426 0.00104991 0)
(0.0532151 0.00117885 0)
(0.0530788 0.00132246 0)
(0.05257 0.00148319 0)
(0.0517229 0.00166339 0)
(0.0505723 0.0018657 0)
(0.0491545 0.00209293 0)
(0.0475097 0.00234825 0)
(0.0456818 0.00263494 0)
(0.0437215 0.002956 0)
(0.0416893 0.003314 0)
(0.0396588 0.00371043 0)
(0.0377201 0.00414437 0)
(0.0359839 0.00461093 0)
(0.0345794 0.00509891 0)
(0.0336713 0.00558337 0)
(0.0334272 0.00601678 0)
(0.033937 0.00632962 0)
(0.0340658 0.0066048 0)
(0 0 0)
(0.00918978 0.000106346 0)
(0.017491 0.000205946 0)
(0.0246984 0.000299062 0)
(0.0309073 0.000388689 0)
(0.0362089 0.000477339 0)
(0.0406864 0.000567179 0)
(0.0444152 0.000660174 0)
(0.0474636 0.000758201 0)
(0.0498927 0.00086308 0)
(0.0517552 0.000976338 0)
(0.0531012 0.00109948 0)
(0.0539805 0.00123457 0)
(0.0544378 0.0013838 0)
(0.0545141 0.00154936 0)
(0.0542492 0.00173371 0)
(0.0536819 0.00193935 0)
(0.0528517 0.00216891 0)
(0.0517997 0.00242508 0)
(0.05057 0.00271059 0)
(0.0492113 0.00302783 0)
(0.0477778 0.00337852 0)
(0.0463326 0.00376311 0)
(0.0449491 0.00417991 0)
(0.043713 0.00462372 0)
(0.0427226 0.00508409 0)
(0.0420812 0.00554401 0)
(0.0419017 0.00597445 0)
(0.042276 0.00633189 0)
(0.0432072 0.00656698 0)
(0.0436417 0.00678743 0)
(0 0 0)
(0.00924939 0.000122556 0)
(0.01761 0.000237299 0)
(0.0248784 0.000344482 0)
(0.0311525 0.000447509 0)
(0.036526 0.000549223 0)
(0.0410839 0.000652061 0)
(0.0449037 0.000758204 0)
(0.0480558 0.000869693 0)
(0.0506026 0.000988377 0)
(0.0526001 0.00111604 0)
(0.0541032 0.00125467 0)
(0.0551641 0.00140632 0)
(0.0558298 0.00157306 0)
(0.056145 0.00175713 0)
(0.0561533 0.00196094 0)
(0.0558984 0.00218695 0)
(0.0554244 0.00243758 0)
(0.054777 0.00271515 0)
(0.0540045 0.00302166 0)
(0.0531589 0.00335842 0)
(0.0522968 0.00372557 0)
(0.0514803 0.00412126 0)
(0.050778 0.00454069 0)
(0.0502635 0.00497477 0)
(0.0500135 0.00540875 0)
(0.0500979 0.0058221 0)
(0.0505716 0.00618598 0)
(0.051455 0.00646559 0)
(0.0526939 0.0066319 0)
(0.0534518 0.00682472 0)
(0 0 0)
(0.00931634 0.000138048 0)
(0.0177435 0.000267239 0)
(0.02508 0.0003878 0)
(0.0314269 0.000503501 0)
(0.0368802 0.000617482 0)
(0.0415274 0.00073241 0)
(0.0454479 0.000850645 0)
(0.0487141 0.000974337 0)
(0.0513909 0.00110544 0)
(0.053538 0.00124591 0)
(0.0552131 0.0013979 0)
(0.0564719 0.00156351 0)
(0.0573646 0.0017447 0)
(0.0579387 0.00194356 0)
(0.058242 0.00216236 0)
(0.0583229 0.00240335 0)
(0.0582301 0.0026686 0)
(0.0580136 0.00295985 0)
(0.0577252 0.00327825 0)
(0.0574194 0.00362397 0)
(0.0571529 0.00399554 0)
(0.0569846 0.00438909 0)
(0.0569735 0.00479728 0)
(0.0571761 0.00520814 0)
(0.0576401 0.00560419 0)
(0.0583967 0.00596303 0)
(0.0594404 0.00625704 0)
(0.060726 0.00645901 0)
(0.0621612 0.00655617 0)
(0.0631672 0.00665615 0)
(0 0 0)
(0.00938973 0.000152725 0)
(0.0178896 0.000295579 0)
(0.0253004 0.000428737 0)
(0.0317264 0.000556298 0)
(0.0372664 0.000681654 0)
(0.0420102 0.000807668 0)
(0.0460395 0.000936841 0)
(0.0494289 0.00107142 0)
(0.0522462 0.00121348 0)
(0.0545541 0.001365 0)
(0.0564125 0.00152809 0)
(0.0578801 0.00170487 0)
(0.0590122 0.00189724 0)
(0.0598588 0.00210701 0)
(0.0604705 0.00233615 0)
(0.0609009 0.00258665 0)
(0.0612027 0.00286005 0)
(0.0614295 0.00315743 0)
(0.0616361 0.00347907 0)
(0.0618782 0.00382404 0)
(0.0622113 0.00418958 0)
(0.0626889 0.00457036 0)
(0.0633584 0.00495751 0)
(0.0642554 0.00533771 0)
(0.0653954 0.00569264 0)
(0.0667655 0.0059996 0)
(0.0683002 0.00623237 0)
(0.0698935 0.0063684 0)
(0.0714235 0.00640636 0)
(0.072423 0.00635962 0)
(0 0 0)
(0.00946848 0.000166501 0)
(0.0180462 0.00032215 0)
(0.0255364 0.000467048 0)
(0.0320467 0.000605573 0)
(0.0376788 0.000741336 0)
(0.042525 0.000877353 0)
(0.0466694 0.00101623 0)
(0.0501888 0.00116029 0)
(0.0531539 0.00131165 0)
(0.0556303 0.00147231 0)
(0.0576803 0.00164426 0)
(0.0593644 0.00182946 0)
(0.0607421 0.0020297 0)
(0.0618664 0.00224642 0)
(0.0627911 0.00248127 0)
(0.0635742 0.00273588 0)
(0.0642717 0.00301121 0)
(0.06494 0.00330762 0)
(0.0656357 0.00362455 0)
(0.0664148 0.00396019 0)
(0.0673307 0.00431091 0)
(0.0684308 0.00467071 0)
(0.0697505 0.00503048 0)
(0.0713048 0.00537749 0)
(0.0730782 0.00569501 0)
(0.0750135 0.00596273 0)
(0.0769898 0.00615747 0)
(0.0788447 0.00625988 0)
(0.080431 0.00627317 0)
(0.0812965 0.00617633 0)
(0 0 0)
(0.00955145 0.000179303 0)
(0.018211 0.000346809 0)
(0.0257845 0.000502523 0)
(0.0323831 0.000651059 0)
(0.0381114 0.000796199 0)
(0.0430642 0.00094108 0)
(0.047328 0.00108838 0)
(0.0509819 0.00124044 0)
(0.054099 0.00139938 0)
(0.0567478 0.00156717 0)
(0.0589932 0.00174566 0)
(0.0608976 0.00193663 0)
(0.0625215 0.00214149 0)
(0.0639209 0.00236128 0)
(0.0651545 0.00259742 0)
(0.0662835 0.00285108 0)
(0.0673657 0.00312256 0)
(0.0684591 0.00341153 0)
(0.0696214 0.0037167 0)
(0.070908 0.0040356 0)
(0.0723696 0.00436419 0)
(0.0740477 0.00469657 0)
(0.0759676 0.0050247 0)
(0.0781286 0.00533831 0)
(0.0804917 0.00562507 0)
(0.0829655 0.00587076 0)
(0.0853864 0.00605865 0)
(0.0875401 0.00617251 0)
(0.0892423 0.00620949 0)
(0.0900499 0.00614232 0)
(0 0 0)
(0.00963742 0.000191072 0)
(0.0183817 0.000369444 0)
(0.0260412 0.000535002 0)
(0.0327308 0.000692549 0)
(0.0385579 0.000846 0)
(0.0436199 0.000998573 0)
(0.0480054 0.00115298 0)
(0.0517959 0.00131155 0)
(0.0550665 0.00147635 0)
(0.0578882 0.00164926 0)
(0.060328 0.00183196 0)
(0.0624507 0.00202602 0)
(0.0643158 0.00223235 0)
(0.0659819 0.00245166 0)
(0.0675129 0.00268506 0)
(0.0689714 0.00293319 0)
(0.070416 0.0031957 0)
(0.0719053 0.00347158 0)
(0.0734964 0.00375894 0)
(0.0752434 0.00405485 0)
(0.0771938 0.00435517 0)
(0.0793846 0.00465462 0)
(0.0818344 0.00494701 0)
(0.0845343 0.0052258 0)
(0.0874352 0.00548505 0)
(0.0904327 0.00572001 0)
(0.0933452 0.00592492 0)
(0.0959185 0.00608887 0)
(0.0978976 0.00619268 0)
(0.0989011 0.00626694 0)
(0 0 0)
(0.00972513 0.000201763 0)
(0.0185558 0.000389969 0)
(0.0263028 0.000564365 0)
(0.0330847 0.000729896 0)
(0.0390118 0.000890572 0)
(0.044184 0.00104965 0)
(0.0486918 0.00120985 0)
(0.0526187 0.00137345 0)
(0.0560417 0.00154243 0)
(0.0590336 0.00171851 0)
(0.0616632 0.0019032 0)
(0.0639968 0.00209775 0)
(0.0660926 0.00230267 0)
(0.0680116 0.00251831 0)
(0.0698219 0.00274542 0)
(0.0715855 0.00298403 0)
(0.0733607 0.0032332 0)
(0.0752051 0.0034913 0)
(0.0771742 0.0037559 0)
(0.0793192 0.00402371 0)
(0.0816844 0.00429061 0)
(0.0843023 0.00455196 0)
(0.0871884 0.0048033 0)
(0.0903327 0.00504156 0)
(0.09369 0.00526688 0)
(0.0971687 0.00548481 0)
(0.100605 0.00570447 0)
(0.10374 0.00592846 0)
(0.106226 0.00612232 0)
(0.10803 0.00638069 0)
(0 0 0)
(0.00981336 0.000211345 0)
(0.0187308 0.000408327 0)
(0.0265656 0.000590534 0)
(0.03344 0.00076301 0)
(0.039467 0.000929822 0)
(0.0447487 0.00109424 0)
(0.0493776 0.00125894 0)
(0.0534387 0.00142614 0)
(0.0570106 0.00159768 0)
(0.0601672 0.00177511 0)
(0.0629788 0.00195972 0)
(0.0655111 0.00215238 0)
(0.0678219 0.00235324 0)
(0.0699759 0.00256247 0)
(0.072042 0.00278031 0)
(0.0740797 0.00300612 0)
(0.0761459 0.00323844 0)
(0.078296 0.0034751 0)
(0.080582 0.0037132 0)
(0.0830511 0.00394907 0)
(0.0857424 0.00417849 0)
(0.088684 0.00439706 0)
(0.0918882 0.00460101 0)
(0.0953464 0.00478854 0)
(0.0990232 0.00496202 0)
(0.102854 0.00513148 0)
(0.106718 0.00531792 0)
(0.110404 0.00555106 0)
(0.113554 0.0058236 0)
(0.117199 0.0063797 0)
(0 0 0)
(0.00990149 0.00021986 0)
(0.0189055 0.000424599 0)
(0.026828 0.000613628 0)
(0.0337944 0.000792051 0)
(0.0399206 0.000963954 0)
(0.0453105 0.00113259 0)
(0.0500584 0.00130057 0)
(0.0542504 0.00147 0)
(0.0579663 0.00164259 0)
(0.0612807 0.00181967 0)
(0.0642641 0.00200228 0)
(0.0669806 0.00219089 0)
(0.0694912 0.00238548 0)
(0.0718621 0.00258598 0)
(0.074158 0.00279199 0)
(0.0764358 0.00300231 0)
(0.0787502 0.00321501 0)
(0.0811526 0.00342747 0)
(0.08369 0.00363633 0)
(0.0864033 0.00383757 0)
(0.0893248 0.00402665 0)
(0.0924754 0.00419885 0)
(0.0958611 0.00434973 0)
(0.09947 0.00447582 0)
(0.103269 0.00457523 0)
(0.107202 0.00464788 0)
(0.111168 0.00469387 0)
(0.11501 0.00469997 0)
(0.118497 0.00458186 0)
(0.126285 0.00636975 0)
(8.45678e-18 0 0)
(0.00546458 0 0)
(0.00930781 0 0)
(0.0145008 0 0)
(0.0203696 0 0)
(0.0264428 0 0)
(0.0324018 0 0)
(0.0380396 0 0)
(0.0432325 0 0)
(0.0479117 0 0)
(0.0520358 0 0)
(0.0555828 0 0)
(0.0585425 0 0)
(0.0609131 0 0)
(0.0626963 0 0)
(0.063893 0 0)
(0.0645018 0 0)
(0.0645173 0 0)
(0.0639297 0 0)
(0.0627244 0 0)
(0.0608807 0 0)
(0.0583784 0 0)
(0.0551904 0 0)
(0.0512744 0 0)
(0.0465923 0 0)
(0.0411025 0 0)
(0.0347528 0 0)
(0.0274953 0 0)
(0.0192795 0 0)
(0.0100463 0 0)
(0 0 0)
(0.00288595 -0.00289804 0)
(0.00715597 -0.00233108 0)
(0.0108345 -0.00213989 0)
(0.0158321 -0.00189559 0)
(0.0215178 -0.00166033 0)
(0.0274274 -0.00145115 0)
(0.0332388 -0.00126913 0)
(0.038746 -0.00111179 0)
(0.0438278 -0.000975462 0)
(0.0484134 -0.00085729 0)
(0.0524582 -0.000754683 0)
(0.0559376 -0.000665441 0)
(0.0588396 -0.000587615 0)
(0.0611613 -0.000519494 0)
(0.0629035 -0.000459736 0)
(0.0640659 -0.000407173 0)
(0.0646459 -0.000360765 0)
(0.0646373 -0.00031946 0)
(0.0640296 -0.00028263 0)
(0.0628076 -0.000249721 0)
(0.0609502 -0.000219988 0)
(0.0584356 -0.000192837 0)
(0.055236 -0.000168256 0)
(0.0513114 -0.00014578 0)
(0.0466235 -0.000124513 0)
(0.0411283 -0.000104122 0)
(0.0347727 -8.42008e-05 0)
(0.0275095 -6.43245e-05 0)
(0.0192891 -4.39734e-05 0)
(0.0100511 -2.25639e-05 0)
(0 0 0)
(0.00851924 -0.00496117 0)
(0.0117881 -0.00427058 0)
(0.0151051 -0.0039666 0)
(0.0196183 -0.00356023 0)
(0.0248165 -0.00315253 0)
(0.0302676 -0.00277881 0)
(0.0356609 -0.00244513 0)
(0.0408023 -0.0021515 0)
(0.0455704 -0.00189502 0)
(0.0498867 -0.00167094 0)
(0.0537006 -0.00147498 0)
(0.056982 -0.0013033 0)
(0.0597153 -0.00115278 0)
(0.0618943 -0.0010207 0)
(0.063516 -0.000904534 0)
(0.0645769 -0.000802112 0)
(0.0650718 -0.000711538 0)
(0.0649923 -0.000630968 0)
(0.0643253 -0.000558988 0)
(0.0630534 -0.000494312 0)
(0.0611542 -0.00043576 0)
(0.0586034 -0.000382479 0)
(0.0553715 -0.000333944 0)
(0.0514211 -0.000289235 0)
(0.0467125 -0.000247104 0)
(0.0411992 -0.000206807 0)
(0.0348281 -0.0001674 0)
(0.0275511 -0.000127925 0)
(0.0193172 -8.74664e-05 0)
(0.0100655 -4.48863e-05 0)
(0 0 0)
(0.0161306 -0.00625211 0)
(0.018504 -0.00565932 0)
(0.0214265 -0.00533223 0)
(0.0253377 -0.00486664 0)
(0.0298702 -0.00437157 0)
(0.0346614 -0.00389775 0)
(0.0394457 -0.00346226 0)
(0.0440468 -0.00306984 0)
(0.0483404 -0.00272063 0)
(0.0522409 -0.00241114 0)
(0.0556932 -0.00213738 0)
(0.0586625 -0.00189531 0)
(0.0611287 -0.00168144 0)
(0.0630801 -0.00149261 0)
(0.0645085 -0.00132568 0)
(0.065406 -0.00117786 0)
(0.0657633 -0.00104671 0)
(0.0655688 -0.000930007 0)
(0.064806 -0.00082552 0)
(0.0634537 -0.000731166 0)
(0.061486 -0.000645379 0)
(0.0588759 -0.000567152 0)
(0.0555935 -0.00049561 0)
(0.051601 -0.000429364 0)
(0.0468564 -0.000366969 0)
(0.0413123 -0.000307223 0)
(0.0349168 -0.000248758 0)
(0.0276181 -0.000190158 0)
(0.0193626 -0.000130048 0)
(0.0100888 -6.67492e-05 0)
(0 0 0)
(0.0248223 -0.00697182 0)
(0.0265623 -0.00655679 0)
(0.0291103 -0.0062562 0)
(0.0324082 -0.00580273 0)
(0.0362126 -0.00529174 0)
(0.0402553 -0.00477945 0)
(0.0443294 -0.00429275 0)
(0.0482767 -0.0038419 0)
(0.0519786 -0.00343093 0)
(0.0553515 -0.00305981 0)
(0.0583388 -0.00272666 0)
(0.0609031 -0.00242874 0)
(0.0630194 -0.00216304 0)
(0.0646707 -0.00192647 0)
(0.0658429 -0.00171593 0)
(0.0665228 -0.00152844 0)
(0.0666962 -0.00136124 0)
(0.0663467 -0.00121186 0)
(0.0654539 -0.00107771 0)
(0.0639938 -0.00095645 0)
(0.0619352 -0.000845835 0)
(0.0592459 -0.000744381 0)
(0.0558958 -0.000651199 0)
(0.0518468 -0.000564601 0)
(0.0470541 -0.000482869 0)
(0.0414691 -0.000404403 0)
(0.0350389 -0.000327521 0)
(0.0277094 -0.000250455 0)
(0.0194244 -0.000171336 0)
(0.0101205 -8.79593e-05 0)
(0 0 0)
(0.0340634 -0.00737802 0)
(0.0354118 -0.00709527 0)
(0.0376193 -0.00683164 0)
(0.0403354 -0.00642126 0)
(0.0434253 -0.00593829 0)
(0.0467126 -0.00543361 0)
(0.0500359 -0.00493617 0)
(0.0532665 -0.00446105 0)
(0.0563032 -0.00401669 0)
(0.0590718 -0.00360706 0)
(0.0615194 -0.00323325 0)
(0.0636083 -0.00289456 0)
(0.0653105 -0.00258924 0)
(0.0666041 -0.00231492 0)
(0.0674696 -0.00206889 0)
(0.067888 -0.00184832 0)
(0.0678392 -0.00165043 0)
(0.0673012 -0.00147258 0)
(0.0662492 -0.00131213 0)
(0.064656 -0.00116679 0)
(0.0624863 -0.00103399 0)
(0.0597016 -0.000911686 0)
(0.0562694 -0.000798681 0)
(0.0521513 -0.000693242 0)
(0.0472999 -0.000593423 0)
(0.0416645 -0.00049733 0)
(0.0351909 -0.000402993 0)
(0.0278227 -0.000308312 0)
(0.0195007 -0.000210995 0)
(0.0101595 -0.000108346 0)
(0 0 0)
(0.0436319 -0.00763483 0)
(0.0446966 -0.00738157 0)
(0.0465816 -0.00714917 0)
(0.0487613 -0.00679125 0)
(0.0511815 -0.00635774 0)
(0.0537356 -0.00588777 0)
(0.0563039 -0.00540726 0)
(0.0587934 -0.00493346 0)
(0.0611272 -0.00447863 0)
(0.0632467 -0.00405047 0)
(0.0651072 -0.00365312 0)
(0.0666737 -0.00328818 0)
(0.0679173 -0.00295543 0)
(0.0688121 -0.00265356 0)
(0.0693337 -0.00238053 0)
(0.0694572 -0.00213392 0)
(0.0691568 -0.00191119 0)
(0.0684046 -0.00170974 0)
(0.0671706 -0.00152698 0)
(0.0654234 -0.00136064 0)
(0.0631246 -0.0012083 0)
(0.0602304 -0.00106757 0)
(0.0567045 -0.000936778 0)
(0.0525068 -0.0008142 0)
(0.0475875 -0.000697733 0)
(0.0418937 -0.000585266 0)
(0.0353692 -0.000474584 0)
(0.0279551 -0.000363293 0)
(0.0195899 -0.00024873 0)
(0.0102051 -0.000127759 0)
(0 0 0)
(0.053433 -0.00769776 0)
(0.054157 -0.00746698 0)
(0.0557236 -0.0072712 0)