/*--------------------------------*- C++ -*----------------------------------*\
| =========                 |                                                 |
| \\      /  F ield         | OpenFOAM: The Open Source CFD Toolbox           |
|  \\    /   O peration     | Version:  2006                                  |
|   \\  /    A nd           | Website:  www.openfoam.com                      |
|    \\/     M anipulation  |                                                 |
\*---------------------------------------------------------------------------*/
FoamFile
{
    version     2.0;
    format      ascii;
    class       volVectorField;
    location    "0.2";
    object      flux;
}
// * * * * * * * * * * * * * * * * * * * * * * * * * * * * * * * * * * * * * //

dimensions      [0 1 -1 1 0 0 0];


internalField   nonuniform List<vector> 
512
(
(0.00599591 -31.6262 0)
(0.0167353 -31.5776 0)
(0.0242549 -31.4907 0)
(0.0279094 -31.3816 0)
(0.0281482 -31.2657 0)
(0.0260033 -31.1552 0)
(0.0225636 -31.0569 0)
(0.0186713 -30.9744 0)
(0.0149141 -30.9076 0)
(0.0115659 -30.8552 0)
(0.00874277 -30.8153 0)
(0.00644831 -30.7855 0)
(0.00461806 -30.7639 0)
(0.00316 -30.7488 0)
(0.00197724 -30.7388 0)
(0.00097699 -30.733 0)
(7.21178e-05 -30.731 0)
(-0.000820409 -30.7325 0)
(-0.00178216 -30.7375 0)
(-0.00289543 -30.7467 0)
(-0.00424335 -30.7606 0)
(-0.00590547 -30.7805 0)
(-0.00794558 -30.8077 0)
(-0.0103873 -30.8438 0)
(-0.0131733 -30.8906 0)
(-0.0161077 -30.9492 0)
(-0.0187908 -31.0196 0)
(-0.0205777 -31.1 0)
(-0.0206224 -31.1852 0)
(-0.018089 -31.2663 0)
(-0.0125626 -31.3314 0)
(-0.00452074 -31.3681 0)
(0.0183044 -31.6347 0)
(0.0510189 -31.5835 0)
(0.0737537 -31.4925 0)
(0.0846063 -31.3794 0)
(0.0850689 -31.2604 0)
(0.0783589 -31.148 0)
(0.0678245 -31.0489 0)
(0.0560035 -30.9662 0)
(0.04465 -30.8997 0)
(0.0345763 -30.8478 0)
(0.0261074 -30.8084 0)
(0.0192382 -30.7791 0)
(0.0137676 -30.7578 0)
(0.00941535 -30.743 0)
(0.00588873 -30.7332 0)
(0.00290859 -30.7276 0)
(0.000213659 -30.7256 0)
(-0.00244464 -30.7271 0)
(-0.00531052 -30.732 0)
(-0.00863093 -30.741 0)
(-0.0126564 -30.7546 0)
(-0.0176288 -30.7742 0)
(-0.0237454 -30.801 0)
(-0.0310873 -30.8368 0)
(-0.0394968 -30.8833 0)
(-0.0484021 -30.9419 0)
(-0.056614 -31.0129 0)
(-0.0621862 -31.0947 0)
(-0.0625272 -31.1821 0)
(-0.0550262 -31.2663 0)
(-0.0383215 -31.3345 0)
(-0.0138129 -31.3732 0)
(0.0316019 -31.6524 0)
(0.0878239 -31.5956 0)
(0.126293 -31.4962 0)
(0.143975 -31.3748 0)
(0.143867 -31.2496 0)
(0.131751 -31.1334 0)
(0.113466 -31.0326 0)
(0.0932883 -30.9497 0)
(0.0741026 -30.8838 0)
(0.0572178 -30.8329 0)
(0.0431053 -30.7945 0)
(0.031706 -30.7661 0)
(0.022657 -30.7457 0)
(0.0154771 -30.7314 0)
(0.00967175 -30.7221 0)
(0.00477341 -30.7167 0)
(0.000347257 -30.7148 0)
(-0.00401912 -30.7162 0)
(-0.00873105 -30.721 0)
(-0.0142001 -30.7295 0)
(-0.0208476 -30.7427 0)
(-0.0290866 -30.7616 0)
(-0.0392663 -30.7876 0)
(-0.0515551 -30.8227 0)
(-0.0657385 -30.8687 0)
(-0.0809183 -30.9273 0)
(-0.0951493 -30.9994 0)
(-0.105154 -31.0837 0)
(-0.106438 -31.1758 0)
(-0.0942971 -31.2662 0)
(-0.0660461 -31.341 0)
(-0.0238867 -31.3841 0)
(0.0466843 -31.6807 0)
(0.129116 -31.6147 0)
(0.184152 -31.5017 0)
(0.20792 -31.3673 0)
(0.205804 -31.2326 0)
(0.18683 -31.1108 0)
(0.159678 -31.0077 0)
(0.130439 -30.9246 0)
(0.10305 -30.8597 0)
(0.0792245 -30.8104 0)
(0.0594799 -30.7736 0)
(0.0436308 -30.7467 0)
(0.0311111 -30.7274 0)
(0.0212168 -30.7141 0)
(0.0132419 -30.7054 0)
(0.00652787 -30.7004 0)
(0.000468017 -30.6986 0)
(-0.00551075 -30.6999 0)
(-0.011972 -30.7044 0)
(-0.0194915 -30.7124 0)
(-0.028666 -30.7248 0)
(-0.0400941 -30.7426 0)
(-0.0543059 -30.7675 0)
(-0.0716075 -30.8014 0)
(-0.0918013 -30.8464 0)
(-0.113752 -30.9049 0)
(-0.134827 -30.9784 0)
(-0.150386 -31.0666 0)
(-0.153779 -31.1657 0)
(-0.137649 -31.266 0)
(-0.0972741 -31.3514 0)
(-0.0353698 -31.4018 0)
(0.0645753 -31.7219 0)
(0.177335 -31.6419 0)
(0.250003 -31.5088 0)
(0.278532 -31.356 0)
(0.272146 -31.2083 0)
(0.244164 -31.0793 0)
(0.206554 -30.9736 0)
(0.167288 -30.8906 0)
(0.131215 -30.8274 0)
(0.100297 -30.7803 0)
(0.0749568 -30.7457 0)
(0.0547848 -30.7207 0)
(0.0389534 -30.7031 0)
(0.0265071 -30.6909 0)
(0.0165163 -30.6831 0)
(0.00812965 -30.6786 0)
(0.00057151 -30.677 0)
(-0.00688665 -30.6782 0)
(-0.0149618 -30.6823 0)
(-0.0243923 -30.6895 0)
(-0.0359558 -30.7008 0)
(-0.0504545 -30.7173 0)
(-0.0686377 -30.7406 0)
(-0.0910186 -30.7727 0)
(-0.117523 -30.8164 0)
(-0.146917 -30.8744 0)
(-0.176004 -30.9495 0)
(-0.198778 -31.0426 0)
(-0.206107 -31.1511 0)
(-0.187144 -31.2653 0)
(-0.133936 -31.3664 0)
(-0.0490799 -31.428 0)
(0.0866819 -31.7797 0)
(0.235694 -31.6787 0)
(0.327114 -31.5171 0)
(0.358143 -31.3396 0)
(0.344137 -31.1755 0)
(0.304184 -31.038 0)
(0.254037 -30.9296 0)
(0.203549 -30.8474 0)
(0.15824 -30.7866 0)
(0.120088 -30.7425 0)
(0.0892393 -30.7108 0)
(0.0649315 -30.6884 0)
(0.0460062 -30.6727 0)
(0.0312225 -30.6621 0)
(0.0194147 -30.6553 0)
(0.00953823 -30.6514 0)
(0.000653877 -30.6501 0)
(-0.00811443 -30.6511 0)
(-0.0176298 -30.6547 0)
(-0.0287894 -30.661 0)
(-0.0425563 -30.671 0)
(-0.0599557 -30.6857 0)
(-0.0820026 -30.7068 0)
(-0.109503 -30.7367 0)
(-0.142649 -30.7782 0)
(-0.180304 -30.8352 0)
(-0.218915 -30.9116 0)
(-0.251189 -31.0104 0)
(-0.265153 -31.1308 0)
(-0.245322 -31.2639 0)
(-0.178601 -31.3873 0)
(-0.066156 -31.4657 0)
(0.11504 -31.8592 0)
(0.308617 -31.7271 0)
(0.419602 -31.5258 0)
(0.449362 -31.3159 0)
(0.422931 -31.1319 0)
(0.367096 -30.9852 0)
(0.301854 -30.8748 0)
(0.238774 -30.7944 0)
(0.183665 -30.7373 0)
(0.138197 -30.6971 0)
(0.102004 -30.6691 0)
(0.0738253 -30.6498 0)
(0.0520916 -30.6366 0)
(0.0352407 -30.6277 0)
(0.0218605 -30.6221 0)
(0.0107155 -30.619 0)
(0.00071187 -30.6179 0)
(-0.00916275 -30.6188 0)
(-0.0199069 -30.6217 0)
(-0.0325699 -30.627 0)
(-0.0483018 -30.6354 0)
(-0.0683698 -30.6479 0)
(-0.0941035 -30.6664 0)
(-0.126703 -30.6931 0)
(-0.166802 -30.7317 0)
(-0.21363 -30.7868 0)
(-0.263608 -30.8639 0)
(-0.308379 -30.9686 0)
(-0.332841 -31.1033 0)
(-0.315396 -31.2608 0)
(-0.234843 -31.4156 0)
(-0.0882639 -31.5192 0)
(0.15273 -31.9684 0)
(0.402415 -31.7893 0)
(0.532729 -31.5329 0)
(0.55506 -31.282 0)
(0.509469 -31.0752 0)
(0.432765 -30.9194 0)
(0.349435 -30.8082 0)
(0.272309 -30.7314 0)
(0.206907 -30.6793 0)
(0.154158 -30.6443 0)
(0.112901 -30.6208 0)
(0.0812139 -30.6051 0)
(0.0570341 -30.5948 0)
(0.0384449 -30.588 0)
(0.0237821 -30.5838 0)
(0.0116264 -30.5815 0)
(0.000742854 -30.5807 0)
(-0.0100021 -30.5814 0)
(-0.0217276 -30.5836 0)
(-0.0356236 -30.5877 0)
(-0.0530244 -30.5942 0)
(-0.0754535 -30.6042 0)
(-0.104603 -30.6193 0)
(-0.142175 -30.6422 0)
(-0.189454 -30.6767 0)
(-0.246381 -30.7284 0)
(-0.309843 -30.8049 0)
(-0.370898 -30.9151 0)
(-0.411261 -31.066 0)
(-0.401491 -31.2545 0)
(-0.307794 -31.453 0)
(-0.117944 -31.5949 0)
(0.204594 -32.1192 0)
(0.526359 -31.8675 0)
(0.673252 -31.5352 0)
(0.678253 -31.2335 0)
(0.604264 -31.0017 0)
(0.500555 -30.8383 0)
(0.395824 -30.729 0)
(0.303254 -30.658 0)
(0.227248 -30.6127 0)
(0.167442 -30.5841 0)
(0.121557 -30.5661 0)
(0.0868426 -30.5548 0)
(0.0606642 -30.5476 0)
(0.0407266 -30.5432 0)
(0.0251149 -30.5405 0)
(0.0122402 -30.5391 0)
(0.000744791 -30.5387 0)
(-0.0106056 -30.5392 0)
(-0.0230314 -30.5406 0)
(-0.037846 -30.5433 0)
(-0.056558 -30.5476 0)
(-0.0809532 -30.5547 0)
(-0.113126 -30.566 0)
(-0.155388 -30.584 0)
(-0.209899 -30.6131 0)
(-0.277746 -30.6596 0)
(-0.356964 -30.7334 0)
(-0.438904 -30.8474 0)
(-0.502541 -31.0153 0)
(-0.508896 -31.242 0)
(-0.405036 -31.5009 0)
(-0.159227 -31.7025 0)
(0.278558 -32.3297 0)
(0.694421 -31.9627 0)
(0.849741 -31.5261 0)
(0.821795 -31.1639 0)
(0.707073 -30.9072 0)
(0.569127 -30.7396 0)
(0.439589 -30.6359 0)
(0.330434 -30.5738 0)
(0.243833 -30.5376 0)
(0.177462 -30.5169 0)
(0.127586 -30.5053 0)
(0.0904626 -30.4988 0)
(0.0628252 -30.4953 0)
(0.0419899 -30.4934 0)
(0.025804 -30.4924 0)
(0.0125313 -30.492 0)
(0.000716261 -30.4919 0)
(-0.0109507 -30.4922 0)
(-0.0237657 -30.4928 0)
(-0.0391425 -30.4939 0)
(-0.0587445 -30.496 0)
(-0.0846128 -30.4997 0)
(-0.119268 -30.5064 0)
(-0.165721 -30.5186 0)
(-0.227241 -30.5406 0)
(-0.306547 -30.5796 0)
(-0.40374 -30.6475 0)
(-0.511866 -30.762 0)
(-0.608555 -30.946 0)
(-0.644274 -31.2176 0)
(-0.538061 -31.5595 0)
(-0.218759 -31.8569 0)
(0.388074 -32.629 0)
(0.928148 -32.0724 0)
(1.07268 -31.4949 0)
(0.987734 -31.0642 0)
(0.816399 -30.7863 0)
(0.6362 -30.6208 0)
(0.478733 -30.528 0)
(0.352387 -30.4787 0)
(0.25568 -30.4541 0)
(0.183596 -30.4429 0)
(0.130605 -30.4386 0)
(0.0918429 -30.4376 0)
(0.0633809 -30.4379 0)
(0.0421563 -30.4388 0)
(0.0258069 -30.4396 0)
(0.0124808 -30.4402 0)
(0.00065652 -30.4405 0)
(-0.0110195 -30.4405 0)
(-0.0238887 -30.4402 0)
(-0.0394337 -30.4397 0)
(-0.0594422 -30.4392 0)
(-0.0861863 -30.4393 0)
(-0.122611 -30.4409 0)
(-0.172485 -30.4462 0)
(-0.240389 -30.4594 0)
(-0.331191 -30.4879 0)
(-0.448173 -30.5456 0)
(-0.588147 -30.6551 0)
(-0.730321 -30.8507 0)
(-0.815657 -31.1718 0)
(-0.724699 -31.6256 0)
(-0.307931 -32.0821 0)
(0.55684 -33.0646 0)
(1.26145 -32.1845 0)
(1.35383 -31.4235 0)
(1.1761 -30.9227 0)
(0.928797 -30.6332 0)
(0.698289 -30.4795 0)
(0.510646 -30.4047 0)
(0.367378 -30.3728 0)
(0.261717 -30.3626 0)
(0.185212 -30.3625 0)
(0.130254 -30.3664 0)
(0.0907851 -30.3712 0)
(0.0622248 -30.3758 0)
(0.0411707 -30.3794 0)
(0.0250967 -30.3821 0)
(0.0120779 -30.3837 0)
(0.000565538 -30.3844 0)
(-0.0108013 -30.3841 0)
(-0.0233728 -30.3829 0)
(-0.0386613 -30.3808 0)
(-0.0585361 -30.3776 0)
(-0.0854539 -30.3738 0)
(-0.122749 -30.3698 0)
(-0.17495 -30.3672 0)
(-0.248084 -30.3696 0)
(-0.349639 -30.3843 0)
(-0.487303 -30.4261 0)
(-0.664424 -30.5221 0)
(-0.866913 -30.7198 0)
(-1.03174 -31.0888 0)
(-0.99321 -31.6873 0)
(-0.44699 -32.4179 0)
(0.828119 -33.7178 0)
(1.74871 -32.2642 0)
(1.70362 -31.2837 0)
(1.38286 -30.7244 0)
(1.03799 -30.4422 0)
(0.75047 -30.3141 0)
(0.532088 -30.2662 0)
(0.37345 -30.2569 0)
(0.26083 -30.2639 0)
(0.181709 -30.2764 0)
(0.126225 -30.2892 0)
(0.0871395 -30.3003 0)
(0.0592904 -30.3091 0)
(0.039007 -30.3157 0)
(0.0236652 -30.3201 0)
(0.0113213 -30.3228 0)
(0.000443836 -30.3239 0)
(-0.0102932 -30.3234 0)
(-0.0222075 -30.3213 0)
(-0.0367946 -30.3174 0)
(-0.0559497 -30.3116 0)
(-0.0822425 -30.3037 0)
(-0.119318 -30.2936 0)
(-0.172398 -30.2823 0)
(-0.248962 -30.2721 0)
(-0.359438 -30.2694 0)
(-0.517074 -30.2885 0)
(-0.734996 -30.3595 0)
(-1.01365 -30.5419 0)
(-1.29944 -30.9446 0)
(-1.38923 -31.7125 0)
(-0.673191 -32.9332 0)
(1.28363 -34.7322 0)
(2.4785 -32.2229 0)
(2.12371 -31.0354 0)
(1.59684 -30.4532 0)
(1.13395 -30.2086 0)
(0.786266 -30.1245 0)
(0.539275 -30.1138 0)
(0.36853 -30.1324 0)
(0.251943 -30.1595 0)
(0.172566 -30.1858 0)
(0.11829 -30.2081 0)
(0.0808213 -30.2256 0)
(0.0545597 -30.2387 0)
(0.035672 -30.248 0)
(0.0215248 -30.2543 0)
(0.0102199 -30.2579 0)
(0.000292171 -30.2593 0)
(-0.00950191 -30.2586 0)
(-0.0204032 -30.2556 0)
(-0.033837 -30.2502 0)
(-0.0516574 -30.2417 0)
(-0.0764485 -30.2297 0)
(-0.112044 -30.2133 0)
(-0.164193 -30.1926 0)
(-0.241662 -30.1683 0)
(-0.357854 -30.1446 0)
(-0.532333 -30.1337 0)
(-0.791115 -30.1647 0)
(-1.15947 -30.305 0)
(-1.61706 -30.7054 0)
(-1.98754 -31.6214 0)
(-1.05734 -33.7514 0)
(2.08276 -36.3726 0)
(3.59711 -31.8487 0)
(2.58849 -30.6326 0)
(1.79628 -30.0936 0)
(1.20233 -29.9305 0)
(0.797866 -29.912 0)
(0.528129 -29.9493 0)
(0.350596 -30.0011 0)
(0.234129 -30.0505 0)
(0.157413 -30.0915 0)
(0.106337 -30.1234 0)
(0.0718304 -30.1472 0)
(0.0480741 -30.1645 0)
(0.0312113 -30.1765 0)
(0.0187111 -30.1844 0)
(0.00879376 -30.1889 0)
(0.000111473 -30.1907 0)
(-0.00844448 -30.1897 0)
(-0.0179932 -30.186 0)
(-0.0298308 -30.179 0)
(-0.0456965 -30.168 0)
(-0.0680607 -30.152 0)
(-0.100784 -30.1295 0)
(-0.149872 -30.0991 0)
(-0.224987 -30.0596 0)
(-0.342125 -30.012 0)
(-0.527121 -29.9636 0)
(-0.82066 -29.9381 0)
(-1.28398 -29.9987 0)
(-1.95765 -30.3333 0)
(-2.91223 -31.2237 0)
(-1.73818 -35.0997 0)
(3.54559 -39.1435 0)
(5.34848 -30.6451 0)
(3.00126 -30.0573 0)
(1.94794 -29.6359 0)
(1.22475 -29.6116 0)
(0.776857 -29.6808 0)
(0.494708 -29.7763 0)
(0.317938 -29.8656 0)
(0.206752 -29.9386 0)
(0.136107 -29.9946 0)
(0.0904187 -30.0359 0)
(0.0602718 -30.0658 0)
(0.0399465 -30.0868 0)
(0.0257138 -30.1012 0)
(0.0152851 -30.1106 0)
(0.00707648 -30.1159 0)
(-9.70426e-05 -30.1179 0)
(-0.00714867 -30.1168 0)
(-0.0150359 -30.1124 0)
(-0.0248613 -30.1041 0)
(-0.0381784 -30.0908 0)
(-0.0571815 -30.0713 0)
(-0.085572 -30.0428 0)
(-0.129249 -30.003 0)
(-0.198108 -29.9481 0)
(-0.309871 -29.8746 0)
(-0.49541 -29.783 0)
(-0.808661 -29.6852 0)
(-1.35707 -29.6194 0)
(-2.22953 -29.8183 0)
(-4.37072 -30.0764 0)
(-2.99536 -37.4151 0)
)
;

boundaryField
{
    left
    {
        type            calculated;
        value           nonuniform List<vector> 
16
(
(0 -31.6262 0)
(0 -31.6347 0)
(0 -31.6524 0)
(0 -31.6807 0)
(0 -31.7219 0)
(0 -31.7797 0)
(0 -31.8592 0)
(0 -31.9684 0)
(0 -32.1192 0)
(0 -32.3297 0)
(0 -32.629 0)
(0 -33.0646 0)
(0 -33.7178 0)
(0 -34.7322 0)
(0 -36.3726 0)
(0 -39.1435 0)
)
;
    }
    right
    {
        type            calculated;
        value           nonuniform List<vector> 
16
(
(0 -31.3681 0)
(0 -31.3732 0)
(0 -31.3841 0)
(0 -31.4018 0)
(0 -31.428 0)
(0 -31.4657 0)
(0 -31.5192 0)
(0 -31.5949 0)
(0 -31.7025 0)
(0 -31.8569 0)
(0 -32.0821 0)
(0 -32.4179 0)
(0 -32.9332 0)
(0 -33.7514 0)
(0 -35.0997 0)
(0 -37.4151 0)
)
;
    }
    interface
    {
        type            calculated;
        value           nonuniform List<vector> 
32
(
(3.54559 -40.8947 0)
(5.34848 -29.7492 0)
(3.00126 -29.7278 0)
(1.94794 -29.3819 0)
(1.22475 -29.443 0)
(0.776857 -29.5613 0)
(0.494708 -29.6882 0)
(0.317938 -29.7971 0)
(0.206752 -29.8823 0)
(0.136107 -29.9458 0)
(0.0904187 -29.9915 0)
(0.0602718 -30.0244 0)
(0.0399465 -30.0472 0)
(0.0257138 -30.0627 0)
(0.0152851 -30.0728 0)
(0.00707648 -30.0785 0)
(-9.70426e-05 -30.0806 0)
(-0.00714867 -30.0794 0)
(-0.0150359 -30.0747 0)
(-0.0248613 -30.0658 0)
(-0.0381784 -30.0514 0)
(-0.0571815 -30.0302 0)
(-0.085572 -29.9989 0)
(-0.129249 -29.9546 0)
(-0.198108 -29.892 0)
(-0.309871 -29.8053 0)
(-0.49541 -29.6909 0)
(-0.808661 -29.5534 0)
(-1.35707 -29.4116 0)
(-2.22953 -29.5272 0)
(-4.37072 -29.2381 0)
(-2.99536 -38.8867 0)
)
;
    }
    bottom
    {
        type            calculated;
        value           nonuniform List<vector> 
32
(
(0.00599591 -31.6241 0)
(0.0167353 -31.5762 0)
(0.0242549 -31.4902 0)
(0.0279094 -31.3821 0)
(0.0281482 -31.267 0)
(0.0260033 -31.1569 0)
(0.0225636 -31.0589 0)
(0.0186713 -30.9764 0)
(0.0149141 -30.9096 0)
(0.0115659 -30.8571 0)
(0.00874277 -30.817 0)
(0.00644831 -30.7872 0)
(0.00461806 -30.7655 0)
(0.00316 -30.7502 0)
(0.00197724 -30.7402 0)
(0.00097699 -30.7344 0)
(7.21178e-05 -30.7324 0)
(-0.000820409 -30.7338 0)
(-0.00178216 -30.7389 0)
(-0.00289543 -30.7481 0)
(-0.00424335 -30.7621 0)
(-0.00590547 -30.782 0)
(-0.00794558 -30.8093 0)
(-0.0103873 -30.8456 0)
(-0.0131733 -30.8924 0)
(-0.0161077 -30.951 0)
(-0.0187908 -31.0213 0)
(-0.0205777 -31.1013 0)
(-0.0206224 -31.1859 0)
(-0.018089 -31.2663 0)
(-0.0125626 -31.3306 0)
(-0.00452074 -31.3668 0)
)
;
    }
    defaultFaces
    {
        type            empty;
    }
}


// ************************************************************************* //
