/*--------------------------------*- C++ -*----------------------------------*\
| =========                 |                                                 |
| \\      /  F ield         | OpenFOAM: The Open Source CFD Toolbox           |
|  \\    /   O peration     | Version:  2006                                  |
|   \\  /    A nd           | Website:  www.openfoam.com                      |
|    \\/     M anipulation  |                                                 |
\*---------------------------------------------------------------------------*/
FoamFile
{
    version     2.0;
    format      ascii;
    class       surfaceScalarField;
    location    "6.2";
    object      phi;
}
// * * * * * * * * * * * * * * * * * * * * * * * * * * * * * * * * * * * * * //

dimensions      [0 3 -1 0 0 0 0];
oriented        oriented;


internalField   nonuniform List<scalar> 
5457
(
0.198418
0.00158236
0.19648
0.00193733
0.194192
0.00228803
0.191509
0.0026835
0.188428
0.00308111
0.184951
0.00347666
0.181073
0.00387846
0.176779
0.00429389
0.172051
0.00472809
0.166865
0.00518509
0.161197
0.00566837
0.155016
0.0061809
0.148291
0.00672484
0.14099
0.00730121
0.133081
0.00790938
0.124534
0.00854634
0.115329
0.0092058
0.105452
0.0098771
0.0949075
0.010544
0.083724
0.0111835
0.0719594
0.0117646
0.0597111
0.0122483
0.0471223
0.0125888
0.0343821
0.0127403
0.0216869
0.0126952
0.00903665
0.0126503
-0.00291682
0.0119535
-0.00847243
0.00555561
-0.00804314
-0.000429294
-0.00804314
0.199928
0.00165418
0.199176
0.00268973
0.197965
0.0034989
0.196332
0.00431661
0.194272
0.00514107
0.191782
0.00596663
0.188855
0.00680533
0.185478
0.00767064
0.181633
0.00857288
0.177298
0.00952037
0.172446
0.0105204
0.167048
0.0115791
0.161071
0.0127015
0.154482
0.01389
0.147248
0.0151444
0.139335
0.0164594
0.130717
0.0178236
0.121377
0.0192172
0.111312
0.0206088
0.100542
0.0219533
0.0891175
0.0231891
0.0771298
0.024236
0.0647238
0.0249948
0.0521162
0.0253479
0.0396558
0.0251556
0.0281056
0.0242004
0.0185949
0.0214641
0.00879702
0.0153535
0.00118339
0.00718433
-0.00685974
0.199781
0.0018736
0.199087
0.00338353
0.197946
0.00463978
0.196409
0.00585316
0.194483
0.00706712
0.192164
0.00828559
0.189447
0.00952266
0.186322
0.010796
0.182774
0.0121207
0.178785
0.0135091
0.174333
0.0149724
0.169392
0.01652
0.163934
0.0181599
0.157927
0.0198971
0.151338
0.0217325
0.144137
0.023661
0.136291
0.025669
0.127778
0.027731
0.118581
0.0298057
0.108703
0.0318312
0.0981709
0.033721
0.0870486
0.0353583
0.0754518
0.0365916
0.0635745
0.0372251
0.0517326
0.0369975
0.0403972
0.0355358
0.0297389
0.0321225
0.019166
0.0259265
0.00959757
0.0167527
0.00273782
0.199703
0.00217051
0.199008
0.00407881
0.197887
0.00576026
0.196376
0.007364
0.194488
0.00895516
0.192223
0.0105515
0.189575
0.0121703
0.186539
0.0138319
0.183105
0.015555
0.179258
0.0173555
0.174983
0.0192473
0.170261
0.0212426
0.165069
0.0233515
0.159385
0.0255812
0.153184
0.0279341
0.146439
0.0304061
0.139124
0.0329834
0.131217
0.0356383
0.122698
0.0383248
0.113557
0.0409721
0.1038
0.0434779
0.0934573
0.045701
0.0825959
0.0474529
0.0713331
0.048488
0.059841
0.0484896
0.0483169
0.0470599
0.0368109
0.0436285
0.0251878
0.0375496
0.0133355
0.028605
0.0160733
0.199667
0.00250308
0.198964
0.00478204
0.197863
0.00686152
0.196381
0.00884562
0.194533
0.0108039
0.192318
0.0127661
0.189734
0.014754
0.186776
0.0167904
0.183434
0.0188966
0.179699
0.0210911
0.175556
0.0233901
0.170991
0.0258076
0.165987
0.0283552
0.160527
0.0310414
0.154592
0.0338696
0.148161
0.0368366
0.141215
0.0399291
0.133734
0.0431198
0.125697
0.0463617
0.117088
0.0495815
0.107894
0.0526715
0.0981149
0.0554801
0.0877649
0.057803
0.0768787
0.0593741
0.0655086
0.0598597
0.0537078
0.0588607
0.0414537
0.0558825
0.0285875
0.0504158
0.0148522
0.0423403
0.0309255
0.199653
0.00285027
0.198949
0.00548606
0.197871
0.00793941
0.196427
0.0102897
0.194627
0.0126038
0.192473
0.0149195
0.189964
0.0172635
0.187093
0.0196611
0.183854
0.0221358
0.180237
0.0247082
0.17623
0.0273965
0.171822
0.0302161
0.166997
0.0331799
0.161741
0.0362972
0.156039
0.0395724
0.149872
0.0430032
0.143224
0.0465773
0.136074
0.0502692
0.128402
0.054034
0.120182
0.0578012
0.111388
0.0614659
0.101989
0.064879
0.0919547
0.0678373
0.0812537
0.0700751
0.0698538
0.0712597
0.0577164
0.0709982
0.0447601
0.0688388
0.0308487
0.0643272
0.0158729
0.0573161
0.0467984
0.19965
0.0032002
0.198954
0.00618201
0.197905
0.00898899
0.196505
0.0116894
0.194763
0.0143459
0.192681
0.0170014
0.190257
0.019687
0.187488
0.0224306
0.184366
0.0252577
0.180883
0.028191
0.177029
0.0312503
0.172793
0.0344526
0.168161
0.0378119
0.163119
0.0413387
0.157653
0.0450386
0.151746
0.0489106
0.145378
0.0529448
0.138529
0.0571187
0.13117
0.0613923
0.123269
0.0657022
0.114782
0.0699528
0.105654
0.074007
0.0958164
0.0776754
0.0851856
0.0807058
0.0736675
0.0827778
0.0611606
0.083505
0.0475544
0.082445
0.032758
0.0791237
0.0167825
0.0732916
0.063581
0.199655
0.00354553
0.198975
0.00686209
0.197959
0.0100047
0.19661
0.013038
0.194934
0.0160219
0.192934
0.0190019
0.190608
0.022013
0.187953
0.0250857
0.184963
0.0282476
0.181631
0.031523
0.177948
0.0349336
0.173902
0.0384978
0.169483
0.0422313
0.164676
0.046146
0.159465
0.0502494
0.153832
0.0545429
0.147757
0.0590201
0.141213
0.0636634
0.134164
0.0684407
0.126567
0.0732991
0.118362
0.0781581
0.109469
0.0829001
0.0997859
0.0873584
0.0891864
0.0913053
0.0775241
0.0944402
0.0646462
0.0963829
0.0504163
0.0966749
0.0347672
0.0947728
0.0177893
0.0902695
0.0813702
0.199664
0.00388134
0.199006
0.00751986
0.19803
0.0109809
0.196739
0.0143294
0.195137
0.0176239
0.193227
0.0209116
0.191009
0.0242308
0.188481
0.0276142
0.185637
0.0310914
0.182472
0.0346886
0.178976
0.0384289
0.175141
0.0423326
0.170956
0.0464171
0.166405
0.0506963
0.161474
0.0551804
0.156143
0.0598742
0.150387
0.0647763
0.144174
0.0698764
0.137462
0.0751523
0.130196
0.0805657
0.122298
0.0860561
0.113666
0.0915315
0.104167
0.0968572
0.0936327
0.10184
0.0818632
0.10621
0.0686477
0.109598
0.0538003
0.111522
0.0372352
0.111338
0.0190826
0.108422
0.100453
0.199677
0.0042041
0.199047
0.00815007
0.198116
0.0119122
0.196888
0.0155576
0.195367
0.0191447
0.193556
0.0227221
0.191456
0.0263305
0.189066
0.0300049
0.186381
0.0337766
0.183396
0.0376733
0.180105
0.04172
0.176499
0.0459386
0.172567
0.0503486
0.168297
0.0549663
0.163673
0.0598051
0.158673
0.0648744
0.15327
0.0701789
0.147429
0.0757173
0.141101
0.08148
0.13422
0.0874466
0.126696
0.0935806
0.118405
0.0998228
0.109183
0.106079
0.0988179
0.112205
0.0870506
0.117977
0.0735876
0.123061
0.0581462
0.126964
0.04055
0.128934
0.0209002
0.128072
0.121353
0.199693
0.00451116
0.199095
0.00874842
0.198213
0.0127937
0.197053
0.0167172
0.19562
0.020578
0.193916
0.0244258
0.191943
0.0283034
0.189701
0.0322477
0.187186
0.0362914
0.184395
0.0404641
0.181323
0.044792
0.177963
0.049299
0.174305
0.0540064
0.170338
0.0589335
0.166046
0.064097
0.161408
0.0695116
0.156398
0.0751892
0.150977
0.0811383
0.145093
0.087364
0.138674
0.0938659
0.131619
0.100636
0.123789
0.107652
0.114995
0.114874
0.104981
0.122218
0.0934165
0.129541
0.079895
0.136583
0.0639647
0.142894
0.045232
0.147667
0.0236099
0.149694
0.144963
0.199711
0.00480045
0.199148
0.0093114
0.19832
0.0136213
0.197234
0.0178035
0.195894
0.0219181
0.194304
0.0260161
0.192465
0.0301418
0.190379
0.0343337
0.188045
0.0386261
0.185459
0.0430495
0.182619
0.0476319
0.17952
0.0523986
0.176153
0.0573729
0.17251
0.0625768
0.168576
0.0680309
0.164333
0.0737547
0.159754
0.0797676
0.154804
0.0860888
0.14943
0.0927379
0.14356
0.099736
0.137091
0.107105
0.129877
0.114866
0.121714
0.123037
0.112312
0.13162
0.10127
0.140584
0.0880413
0.149811
0.0719185
0.159017
0.0520819
0.167503
0.0278827
0.173893
0.172846
0.19973
0.00507036
0.199205
0.00983615
0.198435
0.0143912
0.197427
0.018812
0.196185
0.02316
0.194714
0.0274872
0.193016
0.0318391
0.191095
0.0362555
0.188949
0.0407718
0.186579
0.0454198
0.183982
0.0502283
0.181157
0.0552243
0.178097
0.0604327
0.174796
0.0658779
0.171243
0.0715838
0.167423
0.0775747
0.163314
0.0838768
0.158884
0.0905189
0.154087
0.0975348
0.148857
0.104965
0.143101
0.112862
0.136679
0.121288
0.129391
0.130325
0.120939
0.140072
0.110879
0.150644
0.0985379
0.162153
0.0828948
0.17466
0.0624288
0.187969
0.0351196
0.201202
0.207965
0.199751
0.00531964
0.199267
0.0103204
0.198557
0.0151006
0.19763
0.0197395
0.19649
0.0242998
0.195143
0.0288344
0.193592
0.0333898
0.191841
0.0380068
0.189891
0.0427217
0.187744
0.0475669
0.1854
0.0525722
0.182859
0.0577654
0.180118
0.0631731
0.177175
0.0688212
0.174022
0.0747363
0.17065
0.0809467
0.167043
0.0874838
0.163178
0.0943844
0.159019
0.101693
0.154516
0.109468
0.149594
0.117784
0.144142
0.12674
0.137991
0.136476
0.130883
0.14718
0.122402
0.159125
0.111854
0.172701
0.0980082
0.188505
0.0785259
0.207452
0.0486537
0.231075
0.256619
0.199772
0.00554732
0.19933
0.0107622
0.198684
0.015747
0.197841
0.020583
0.196806
0.0253341
0.195587
0.030054
0.194187
0.0347898
0.192611
0.039583
0.190862
0.0444703
0.188944
0.0494847
0.18686
0.0546565
0.184611
0.060014
0.1822
0.0655845
0.179626
0.071395
0.176888
0.0774739
0.173983
0.0838516
0.170904
0.0905632
0.167638
0.0976504
0.164166
0.105165
0.16046
0.113175
0.156475
0.121769
0.152145
0.13107
0.14737
0.14125
0.141992
0.152559
0.135746
0.16537
0.128162
0.180285
0.118299
0.198369
0.103905
0.221846
0.077668
0.257311
0.334287
0.00372764
-0.00372764
0.00723765
-0.00351001
0.0100836
-0.00284591
0.0122584
-0.00217484
0.0138588
-0.00160042
0.0149937
-0.00113491
0.0157627
-0.000768969
0.0162526
-0.000489958
0.0165374
-0.000284798
0.0166779
-0.00014045
0.016723
-4.50636e-05
0.0167114
1.15128e-05
0.0166675
4.39447e-05
0.0166147
5.27828e-05
0.0165674
4.72861e-05
0.0165351
3.23559e-05
0.0165221
1.2995e-05
0.0165281
-6.04543e-06
0.0165466
-1.84323e-05
0.0165669
-2.03046e-05
0.0165778
-1.08905e-05
0.0165694
8.3155e-06
0.0165337
3.57369e-05
0.0164668
6.68612e-05
0.0163669
9.99095e-05
0.0162328
0.000134167
0.0160642
0.000168562
0.0158615
0.000202742
0.0156426
0.000218822
0.000168988
0.00345204
-0.00717968
0.00673766
-0.00679563
0.00946735
-0.00557561
0.0116388
-0.00434627
0.0133422
-0.00330383
0.0146731
-0.00246582
0.0157153
-0.00181111
0.016539
-0.00131371
0.017202
-0.000947755
0.0177495
-0.00068795
0.0182153
-0.000510881
0.0186232
-0.000396405
0.0189946
-0.000327482
0.0193422
-0.000294827
0.0196772
-0.0002877
0.0200064
-0.000296859
0.0203333
-0.000313842
0.0206586
-0.000331367
0.0209826
-0.000342457
0.0213037
-0.00034139
0.0216174
-0.000324537
0.0219159
-0.000290265
0.0221931
-0.000241417
0.0224454
-0.000185423
0.0226715
-0.000126226
0.0228689
-6.31835e-05
0.0230326
4.86541e-06
0.0231553
7.99853e-05
0.023251
0.000123157
0.000111435
0.00292117
-0.0101008
0.00561534
-0.0094898
0.00781632
-0.00777659
0.00955556
-0.00608551
0.0109218
-0.00467004
0.0119964
-0.00354046
0.0128483
-0.00266301
0.0135341
-0.00199947
0.0140996
-0.00151325
0.0145801
-0.0011685
0.015001
-0.000931737
0.01538
-0.000775419
0.0157305
-0.000677988
0.0160605
-0.000624857
0.0163765
-0.000603726
0.016683
-0.000603355
0.0169829
-0.000613714
0.0172775
-0.000626016
0.0175673
-0.000632256
0.0178516
-0.000625643
0.0181284
-0.000601335
0.0183953
-0.000557215
0.0186513
-0.000497359
0.0188975
-0.00043159
0.0191369
-0.000365631
0.0193714
-0.000297681
0.0195966
-0.000220424
0.0198133
-0.00013669
0.0200089
-7.23816e-05
-2.30985e-05
0.00233525
-0.0124361
0.00432703
-0.0114816
0.00588049
-0.00933005
0.00708403
-0.00728905
0.00802003
-0.00560605
0.00875051
-0.00427093
0.00932542
-0.00323792
0.00978459
-0.00245864
0.0101608
-0.0018895
0.0104785
-0.00148618
0.0107529
-0.00120606
0.010994
-0.00101657
0.0112082
-0.000892164
0.0113998
-0.000816477
0.0115725
-0.000776391
0.0117288
-0.000759677
0.0118707
-0.000755679
0.012
-0.000755306
0.012118
-0.000750263
0.0122257
-0.000733322
0.0123232
-0.000698799
0.012409
-0.000643053
0.0124828
-0.000571103
0.012549
-0.000497843
0.0126133
-0.000429956
0.0126802
-0.00036452
0.0127408
-0.000281013
0.0127881
-0.000184036
0.0128252
-0.000109481
-3.26552e-05
0.00165135
-0.0140874
0.00285607
-0.0126863
0.00369318
-0.0101672
0.00430638
-0.00790224
0.00476042
-0.00606008
0.00509497
-0.00460548
0.00533828
-0.00348123
0.00551176
-0.00263212
0.00563624
-0.00201399
0.00572579
-0.00157573
0.00578449
-0.00126476
0.00581562
-0.00104769
0.00581829
-0.000894838
0.00579429
-0.000792478
0.00574617
-0.000728264
0.00567611
-0.000689626
0.00558662
-0.000666181
0.00548101
-0.000649696
0.00536275
-0.000632003
0.00523466
-0.000605238
0.00509834
-0.000562481
0.0049517
-0.000496405
0.00479128
-0.000410684
0.00462509
-0.000331656
0.00445957
-0.000264439
0.0043023
-0.000207249
0.00413891
-0.000117619
0.0039136
4.12744e-05
0.00362519
0.000178928
0.000183492
0.000861608
-0.014949
0.00119042
-0.0130151
0.00126184
-0.0102386
0.00124743
-0.00788784
0.00116818
-0.00598083
0.00104732
-0.00448462
0.000894926
-0.00332883
0.000717055
-0.00245425
0.000522232
-0.00181917
0.000316068
-0.00136957
9.28414e-05
-0.00104153
-0.000159133
-0.000795721
-0.000431882
-0.000622089
-0.000723941
-0.000500418
-0.00103085
-0.000421359
-0.00134964
-0.000370833
-0.00167705
-0.000338772
-0.00201
-0.000316747
-0.00234631
-0.000295687
-0.0026858
-0.000265748
-0.00303144
-0.000216847
-0.0033903
-0.000137539
-0.00378262
-1.83672e-05
-0.00422922
0.000114945
-0.00470113
0.000207464
-0.00515204
0.000243663
-0.00554018
0.000270521
-0.00581487
0.000315962
-0.00599347
0.000357534
0.000324342
-0.000107942
-0.0148411
-0.000679788
-0.0124433
-0.0014024
-0.00951596
-0.00211727
-0.00717297
-0.002806
-0.0052921
-0.00345691
-0.00383371
-0.00407334
-0.00271239
-0.00466544
-0.00186216
-0.00523247
-0.00125214
-0.00577057
-0.000831458
-0.006286
-0.000526112
-0.00678298
-0.000298735
-0.00726988
-0.000135193
-0.00775487
-1.54322e-05
-0.0082408
6.45795e-05
-0.00872869
0.000117059
-0.00922102
0.000153555
-0.00972542
0.000187646
-0.0102486
0.00022752
-0.0107888
0.000274423
-0.0113305
0.000324832
-0.0118437
0.000375651
-0.0122854
0.00042334
-0.0126344
0.000463941
-0.0129178
0.000490879
-0.0131685
0.000494382
-0.0133913
0.000493331
-0.0135821
0.000506704
-0.0137346
0.000510118
0.000476633
-0.00112349
-0.0137176
-0.00273773
-0.010829
-0.00434393
-0.00790977
-0.00585812
-0.00565878
-0.00723036
-0.00391986
-0.00845023
-0.00261384
-0.00952953
-0.00163309
-0.010512
-0.00087969
-0.0114479
-0.000316252
-0.0123544
7.50283e-05
-0.0131922
0.000311729
-0.0139323
0.000441345
-0.0145872
0.000519689
-0.0151725
0.000569884
-0.0157083
0.000600351
-0.0162088
0.000617603
-0.016679
0.000623753
-0.0171164
0.000625096
-0.0175219
0.000632949
-0.0179032
0.000655742
-0.0182707
0.00069237
-0.0186275
0.000732462
-0.0189656
0.000761438
-0.01927
0.000768316
-0.019529
0.00074986
-0.0197474
0.000712816
-0.0199333
0.000679216
-0.0200893
0.000662679
-0.0202246
0.000645386
0.000620022
-0.00232017
-0.0113974
-0.00506719
-0.00808201
-0.00770724
-0.00526972
-0.0101195
-0.00324656
-0.0122676
-0.00177172
-0.0141407
-0.00074077
-0.015746
-2.77161e-05
-0.0170507
0.000424923
-0.0180624
0.00069545
-0.0188525
0.000865201
-0.0195112
0.000970417
-0.0201003
0.00103047
-0.0206374
0.0010567
-0.0211331
0.0010656
-0.0215992
0.00106651
-0.0220421
0.00106046
-0.0224627
0.00104436
-0.0228594
0.00102175
-0.0232323
0.00100592
-0.0235872
0.00101061
-0.0239322
0.00103738
-0.0242705
0.00107075
-0.0245943
0.00108524
-0.0248867
0.00106072
-0.0251323
0.000995462
-0.0253299
0.000910372
-0.0254886
0.000837912
-0.0256195
0.000793614
-0.0257394
0.000765289
0.000751045
-0.00376849
-0.00762895
-0.00780122
-0.00404928
-0.011551
-0.00151999
-0.0148034
5.86483e-06
-0.0173883
0.000813186
-0.0193729
0.00124383
-0.0208705
0.00146987
-0.0220302
0.00158467
-0.0229774
0.00164263
-0.0237731
0.00166095
-0.0244565
0.00165382
-0.0250527
0.00162663
-0.0255824
0.00158641
-0.0260636
0.00154685
-0.0265133
0.00151616
-0.0269415
0.0014887
-0.0273492
0.00145205
-0.0277318
0.00140437
-0.0280879
0.00136195
-0.0284243
0.001347
-0.0287526
0.0013657
-0.0290789
0.00139702
-0.0293953
0.00140171
-0.0296816
0.00134696
-0.0299171
0.00123105
-0.0300967
0.00108996
-0.0302319
0.000973113
-0.0303418
0.000903467
-0.0304468
0.000870275
0.000866287
-0.00584808
-0.00178087
-0.0113561
0.00145871
-0.0157142
0.00283817
-0.0189977
0.00328933
-0.0214971
0.00331259
-0.0234476
0.0031943
-0.0249907
0.00301299
-0.0262218
0.00281579
-0.0272098
0.00263057
-0.0280217
0.00247291
-0.0287093
0.00234142
-0.0293033
0.0022206
-0.0298227
0.00210584
-0.0302874
0.00201157
-0.03072
0.00194867
-0.0311349
0.00190361
-0.0315314
0.00184855
-0.0318993
0.00177233
-0.0322343
0.00169692
-0.0325466
0.00165929
-0.0328549
0.00167402
-0.0331705
0.00171258
-0.0334848
0.00171607
-0.0337709
0.00163308
-0.0339996
0.00145973
-0.0341609
0.00125126
-0.0342714
0.00108362
-0.0343599
0.000991945
-0.0344492
0.000959559
0.000964955
-0.00785956
0.00607868
-0.0142295
0.00782866
-0.018951
0.00755964
-0.0225068
0.00684513
-0.0252009
0.00600674
-0.0272306
0.00522397
-0.0287885
0.00457087
-0.0300068
0.00403416
-0.0309685
0.00359222
-0.031748
0.00325237
-0.0324075
0.00300091
-0.0329783
0.00279148
-0.0334712
0.0025987
-0.0339039
0.00244426
-0.0343073
0.00235208
-0.0347036
0.00229989
-0.0350885
0.00223346
-0.0354408
0.00212465
-0.0357492
0.00200533
-0.0360291
0.00193917
-0.0363116
0.00195654
-0.0366169
0.00201788
-0.0369354
0.00203456
-0.0372293
0.00192693
-0.0374549
0.00168534
-0.0375953
0.00139168
-0.0376754
0.00116371
-0.0377387
0.00105526
-0.0378112
0.00103208
0.00104702
-0.00963373
0.0157124
-0.0173347
0.0155296
-0.0226648
0.0128897
-0.0263548
0.0105352
-0.0290042
0.00865609
-0.0309149
0.00713469
-0.032346
0.006002
-0.0334597
0.00514785
-0.0343229
0.00445541
-0.0350108
0.00394023
-0.0356044
0.0035945
-0.0361334
0.00332051
-0.0365848
0.00305009
-0.0369662
0.0028257
-0.0373239
0.00270972
-0.0376956
0.00267159
-0.0380717
0.00260962
-0.0384104
0.00246333
-0.038686
0.00228095
-0.0389214
0.00217454
-0.0391691
0.00220419
-0.0394641
0.00231296
-0.0397951
0.00236556
-0.0401076
0.00223936
-0.0403353
0.00191313
-0.0404498
0.00150616
-0.0404885
0.00120241
-0.0405195
0.00108622
-0.0405752
0.00108782
0.00111413
-0.0128036
0.0285161
-0.0221896
0.0249156
-0.0275067
0.0182068
-0.030721
0.0137495
-0.0330261
0.0109613
-0.0345681
0.00867661
-0.0356816
0.00711555
-0.0365949
0.00606115
-0.0372964
0.00515687
-0.0378292
0.00447306
-0.038318
0.0040833
-0.0387977
0.00380021
-0.0392001
0.00345246
-0.0395058
0.00313139
-0.0397922
0.00299619
-0.0401327
0.00301209
-0.0405101
0.00298694
-0.0408435
0.00279681
-0.0410792
0.00251666
-0.041251
0.00234625
-0.0414489
0.00240214
-0.0417334
0.00259748
-0.0420889
0.002721
-0.0424356
0.00258605
-0.0426735
0.00215107
-0.0427539
0.00158653
-0.0427324
0.00118096
-0.0427191
0.00107287
-0.0427607
0.00112942
0.00117252
-0.0182533
0.0467694
-0.0296154
0.0362777
-0.0341906
0.022782
-0.0356728
0.0152317
-0.037319
0.0126075
-0.0381457
0.00950328
-0.0386732
0.00764301
-0.0393622
0.00675017
-0.0399143
0.00570896
-0.0402128
0.00477162
-0.0405338
0.00440428
-0.0409686
0.00423495
-0.0413288
0.00381273
-0.041529
0.00333154
-0.0417042
0.00317142
-0.0420091
0.00331703
-0.0424127
0.00339054
-0.0427622
0.00314624
-0.0429486
0.00270305
-0.0430229
0.00242057
-0.0431446
0.00252381
-0.0434168
0.00286969
-0.0438134
0.00311761
-0.0442168
0.00298949
-0.0444772
0.00241144
-0.0445112
0.00162052
-0.0443985
0.00106832
-0.0443207
0.000995045
-0.0443562
0.0011649
0.00123903
0.207447
0.00576007
0.207034
0.0111748
0.206432
0.0163495
0.205647
0.0213674
0.204688
0.0262933
0.203561
0.0311814
0.202271
0.0360792
0.200826
0.0410286
0.19923
0.0460665
0.197489
0.0512259
0.195608
0.0565372
0.193593
0.0620287
0.19145
0.0677278
0.189183
0.0736617
0.186798
0.0798592
0.184298
0.0863516
0.181686
0.0931746
0.178965
0.100371
0.176135
0.107996
0.173193
0.116117
0.170135
0.124826
0.166957
0.134248
0.163654
0.144554
0.160227
0.155986
0.156698
0.168899
0.15316
0.183822
0.149978
0.20155
0.148826
0.222998
0.160484
0.245653
0.258847
0.235925
0.21249
0.00595248
0.212118
0.0115476
0.211574
0.0168931
0.210868
0.0220733
0.210008
0.0271537
0.209
0.0321888
0.207853
0.0372262
0.206574
0.0423077
0.205171
0.0474699
0.203651
0.0527458
0.202023
0.0581651
0.200296
0.0637554
0.198481
0.0695436
0.196586
0.0755562
0.194625
0.0818207
0.192609
0.0883672
0.190554
0.0952297
0.188477
0.102449
0.186398
0.110074
0.184348
0.118167
0.182365
0.126809
0.180511
0.136102
0.178885
0.14618
0.177657
0.157214
0.17715
0.169407
0.178016
0.182956
0.181671
0.197896
0.190713
0.213956
0.206151
0.230215
0.245755
0.219242
0.217658
0.0061224
0.217329
0.0118766
0.21685
0.0173717
0.21623
0.0226929
0.215478
0.027906
0.214602
0.0330653
0.213609
0.0382183
0.212511
0.0434062
0.211316
0.0486652
0.210034
0.0540272
0.208678
0.0595211
0.20726
0.0651733
0.205795
0.0710091
0.204298
0.077053
0.202789
0.0833303
0.201288
0.0898677
0.199823
0.096695
0.198425
0.103846
0.197138
0.111362
0.196016
0.119289
0.195138
0.127687
0.194616
0.136623
0.194622
0.146174
0.195419
0.156417
0.197415
0.16741
0.201223
0.179148
0.207611
0.191508
0.217242
0.204325
0.22984
0.217618
0.22881
0.246784
0.222951
0.00626784
0.22267
0.0121578
0.222262
0.0177798
0.221736
0.0232192
0.2211
0.0285415
0.220365
0.0338008
0.219539
0.0390438
0.218634
0.0443111
0.217662
0.0496377
0.216635
0.0550544
0.215567
0.0605883
0.214476
0.0662642
0.213381
0.0721049
0.212301
0.0781321
0.211264
0.0843673
0.2103
0.0908325
0.209444
0.0975508
0.208743
0.104547
0.208255
0.11185
0.208057
0.119487
0.208251
0.127493
0.208978
0.135896
0.21043
0.144721
0.212872
0.153976
0.21665
0.163632
0.222183
0.173615
0.229921
0.183769
0.240438
0.193809
0.25465
0.203405
0.210308
0.273153
0.228374
0.00638694
0.228144
0.0123878
0.227812
0.0181123
0.227385
0.0236454
0.226875
0.0290522
0.22629
0.0343859
0.225641
0.0396923
0.224942
0.0450107
0.224205
0.0503749
0.223445
0.0558138
0.222681
0.0613527
0.221931
0.0670137
0.22122
0.0728166
0.220572
0.0787796
0.22002
0.0849194
0.219601
0.0912519
0.219359
0.0977925
0.219351
0.104556
0.219645
0.111555
0.22033
0.118802
0.221519
0.126304
0.223356
0.134059
0.226027
0.142051
0.229762
0.15024
0.234842
0.158553
0.241595
0.166862
0.250401
0.174963
0.261705
0.182504
0.275983
0.189128
0.19375
0.292541
0.233929
0.00647802
0.233754
0.0125633
0.233502
0.0183645
0.233182
0.0239656
0.232803
0.0294309
0.232376
0.0348124
0.231914
0.0401545
0.23143
0.0454951
0.230938
0.0508662
0.230457
0.0562947
0.230007
0.0618033
0.229609
0.0674113
0.229291
0.0731351
0.229082
0.0789884
0.229019
0.0849827
0.229143
0.0911274
0.229506
0.0974294
0.230169
0.103893
0.231206
0.110518
0.232708
0.1173
0.234788
0.124224
0.237581
0.131266
0.241252
0.13838
0.245992
0.1455
0.252022
0.152522
0.259585
0.159299
0.268923
0.165625
0.280215
0.171212
0.293558
0.175785
0.178832
0.308476
0.23962
0.00653959
0.239502
0.0126814
0.239334
0.0185322
0.239125
0.0241747
0.238884
0.0296715
0.238623
0.0350733
0.238355
0.040423
0.238093
0.0457566
0.237856
0.0511038
0.237661
0.0564894
0.237531
0.0619333
0.237491
0.0674516
0.237569
0.0730568
0.237799
0.0787583
0.23822
0.084562
0.238876
0.0904708
0.239822
0.0964837
0.24112
0.102595
0.242844
0.108794
0.245083
0.115061
0.247939
0.121368
0.251531
0.127673
0.255996
0.133915
0.261483
0.140013
0.268149
0.145857
0.276143
0.151305
0.285586
0.156183
0.296523
0.160274
0.308944
0.163364
0.165185
0.322591
0.245448
0.00657038
0.24539
0.0127396
0.24531
0.0186121
0.245217
0.0242682
0.245119
0.029769
0.245029
0.0351633
0.24496
0.0404921
0.244927
0.0457893
0.244949
0.0510823
0.245045
0.0563934
0.245238
0.0617396
0.245557
0.0671336
0.246029
0.0725841
0.246691
0.0780961
0.247583
0.0836703
0.248751
0.0893034
0.250247
0.0949876
0.252133
0.100709
0.254479
0.106448
0.257364
0.112176
0.260878
0.117854
0.265119
0.123432
0.270193
0.128842
0.276204
0.134001
0.283255
0.138807
0.291425
0.143135
0.300762
0.146846
0.311255
0.149781
0.322836
0.151782
0.152717
0.335304
0.251418
0.00656938
0.251422
0.0127361
0.251432
0.0186013
0.251458
0.024243
0.251507
0.0297197
0.251592
0.0350785
0.251726
0.040358
0.251925
0.0455899
0.252208
0.0507994
0.252596
0.0560057
0.253112
0.0612232
0.253785
0.0664612
0.254644
0.0717249
0.255725
0.0770148
0.257068
0.0823273
0.258718
0.0876539
0.260724
0.092981
0.263144
0.0982891
0.26604
0.103552
0.269481
0.108735
0.27354
0.113796
0.278292
0.118679
0.283814
0.12332
0.290175
0.127641
0.297431
0.13155
0.305617
0.134949
0.314734
0.137729
0.324736
0.139779
0.335526
0.140993
0.141313
0.34693
0.257532
0.00653583
0.257599
0.0126694
0.257702
0.0184981
0.257849
0.0240965
0.258047
0.0295212
0.258309
0.0348165
0.258648
0.0400189
0.259081
0.0451577
0.259625
0.0502554
0.260302
0.0553288
0.261136
0.0603891
0.262154
0.0654429
0.263387
0.0704918
0.264869
0.075533
0.266637
0.0805588
0.268734
0.0855568
0.271206
0.0905094
0.274102
0.095393
0.277476
0.100178
0.281384
0.104828
0.285882
0.109298
0.291025
0.113536
0.296864
0.117481
0.303438
0.121066
0.310772
0.124217
0.318867
0.126854
0.327697
0.128899
0.337197
0.130279
0.347263
0.130927
0.130824
0.357752
0.263794
0.00646928
0.263925
0.0125387
0.264122
0.0183011
0.264391
0.0238278
0.264739
0.0291724
0.265179
0.0343769
0.265723
0.0394752
0.266386
0.044494
0.267188
0.0494536
0.268149
0.054368
0.269292
0.0592459
0.270644
0.0640911
0.272234
0.0689023
0.274093
0.0736737
0.276257
0.078395
0.278763
0.0830508
0.281651
0.0876209
0.284964
0.0920799
0.288745
0.096397
0.293037
0.100536
0.297881
0.104454
0.303314
0.108103
0.309364
0.111431
0.316048
0.114382
0.323368
0.116897
0.331306
0.118917
0.339817
0.120387
0.348833
0.121263
0.358254
0.121506
0.121116
0.367961
0.270207
0.00636953
0.270402
0.0123436
0.270693
0.0180102
0.271084
0.0234367
0.271583
0.0286738
0.272199
0.0337608
0.272945
0.038729
0.273836
0.0436028
0.27489
0.0483999
0.276126
0.053132
0.277566
0.0578054
0.279236
0.0624215
0.281161
0.0669768
0.283371
0.0714635
0.285897
0.075869
0.288772
0.0801765
0.292028
0.0843647
0.2957
0.0884078
0.299821
0.0922757
0.304423
0.0959342
0.309532
0.0993448
0.315169
0.102466
0.321346
0.105254
0.328064
0.107664
0.335308
0.109652
0.343049
0.111176
0.351235
0.112201
0.359798
0.1127
0.368649
0.112655
0.112078
0.377687
0.276774
0.0062367
0.277033
0.0120845
0.277417
0.0176258
0.27793
0.0229242
0.278576
0.028027
0.279366
0.0329709
0.280311
0.0377846
0.281423
0.04249
0.282721
0.0471026
0.284221
0.0516318
0.285944
0.0560821
0.287913
0.0604528
0.290151
0.0647389
0.292683
0.068931
0.295537
0.0730156
0.298738
0.0769753
0.302313
0.0807889
0.30629
0.0844316
0.31069
0.0878754
0.315535
0.0910894
0.320839
0.0940405
0.326611
0.096694
0.332851
0.0990146
0.339547
0.100968
0.346676
0.102523
0.3542
0.103652
0.362068
0.104333
0.370216
0.104553
0.378563
0.104307
0.103614
0.387028
0.283498
0.00607117
0.283821
0.011762
0.284297
0.0171493
0.284929
0.0222924
0.285721
0.0272352
0.28668
0.0320117
0.287817
0.0366479
0.289143
0.0411636
0.290674
0.045572
0.292425
0.0498808
0.294414
0.0540927
0.296661
0.0582057
0.299187
0.0622136
0.302011
0.0661064
0.305157
0.0698702
0.308644
0.0734879
0.312493
0.0769395
0.316723
0.0802022
0.321347
0.0832508
0.326378
0.0860587
0.33182
0.0885982
0.337673
0.0908414
0.343926
0.0927614
0.350561
0.0943331
0.357549
0.0955351
0.364851
0.0963504
0.372415
0.096768
0.380184
0.0967842
0.388089
0.0964024
0.0956432
0.396059
0.290384
0.00587357
0.290768
0.0113775
0.291335
0.0165828
0.292083
0.0215442
0.293016
0.0263024
0.294139
0.0308886
0.295461
0.0353263
0.296991
0.039633
0.298743
0.0438202
0.30073
0.0478939
0.302967
0.0518555
0.305471
0.0557021
0.308258
0.0594269
0.311344
0.0630198
0.314747
0.0664672
0.318482
0.0697533
0.322562
0.0728595
0.326998
0.0757656
0.331799
0.0784502
0.336967
0.0808908
0.3425
0.0830651
0.34839
0.0849517
0.35462
0.0865307
0.361168
0.0877851
0.368002
0.0887013
0.375082
0.0892703
0.382362
0.0894885
0.389788
0.0893585
0.397302
0.0888884
0.0880994
0.404845
0.297435
0.00564478
0.297879
0.0109327
0.298533
0.0159288
0.299394
0.0206834
0.300463
0.0252339
0.301743
0.0296084
0.303241
0.0338284
0.304965
0.0379091
0.306925
0.0418604
0.309131
0.0456871
0.311597
0.0493896
0.314335
0.0529645
0.317357
0.0564048
0.320676
0.0597008
0.324303
0.0628399
0.328249
0.0658075
0.332521
0.0685876
0.337124
0.0711627
0.342059
0.0735147
0.347324
0.0756259
0.35291
0.0774788
0.358804
0.0790577
0.364987
0.0803487
0.371431
0.081341
0.378105
0.0820273
0.38497
0.0824044
0.391985
0.0824738
0.399102
0.0822418
0.406271
0.0817193
0.0809271
0.413443
0.304654
0.00538585
0.305157
0.0104297
0.305895
0.0151907
0.306864
0.0197146
0.308062
0.0240354
0.309492
0.0281787
0.311157
0.0321636
0.313062
0.0360035
0.315216
0.0397068
0.317626
0.0432772
0.320301
0.0467146
0.32325
0.0500153
0.326482
0.0531727
0.330005
0.0561776
0.333826
0.0590189
0.33795
0.0616838
0.342379
0.0641584
0.347114
0.0664283
0.352149
0.0684791
0.357478
0.0702969
0.363088
0.0718687
0.368962
0.0731836
0.375078
0.0742328
0.381409
0.0750102
0.387923
0.0755131
0.394585
0.0757424
0.401356
0.0757029
0.408195
0.0754032
0.415059
0.0748554
0.0740791
0.421907
0.312046
0.00509799
0.312605
0.00987091
0.313424
0.014372
0.314495
0.0186427
0.315817
0.0227137
0.317388
0.0266079
0.319209
0.0303422
0.321284
0.0339284
0.323618
0.0373737
0.326214
0.0406809
0.329079
0.0438496
0.332218
0.0468762
0.335636
0.0497546
0.339337
0.0524765
0.343324
0.0550324
0.347596
0.0574113
0.352153
0.0596018
0.356989
0.0615923
0.362096
0.0633717
0.367464
0.0649296
0.373075
0.0662569
0.378912
0.0673467
0.384951
0.0681938
0.391165
0.0687961
0.397524
0.0691541
0.403995
0.0692715
0.410543
0.0691549
0.417132
0.0688141
0.423726
0.0682615
0.0675152
0.43029
0.319615
0.00478254
0.320227
0.00925894
0.321122
0.0134768
0.322292
0.0174732
0.32373
0.0212756
0.325433
0.0249044
0.327401
0.0283746
0.329633
0.0316962
0.332131
0.0348755
0.334898
0.0379147
0.337934
0.0408132
0.341243
0.0435676
0.344825
0.0461726
0.34868
0.0486212
0.352807
0.050905
0.357203
0.0530154
0.361862
0.054943
0.366776
0.0566789
0.371932
0.0582148
0.377318
0.0595435
0.382916
0.0606592
0.388705
0.0615577
0.394662
0.0622371
0.40076
0.0626979
0.406972
0.0629427
0.413266
0.062977
0.419612
0.0628086
0.425979
0.0624475
0.432334
0.0619059
0.0612001
0.438649
0.327365
0.00444085
0.328027
0.00859647
0.328995
0.012509
0.330257
0.0162115
0.331804
0.0197282
0.333632
0.0230771
0.335735
0.026271
0.338112
0.029319