/*--------------------------------*- C++ -*----------------------------------*\
| =========                 |                                                 |
| \\      /  F ield         | OpenFOAM: The Open Source CFD Toolbox           |
|  \\    /   O peration     | Version:  2006                                  |
|   \\  /    A nd           | Website:  www.openfoam.com                      |
|    \\/     M anipulation  |                                                 |
\*---------------------------------------------------------------------------*/
FoamFile
{
    version     2.0;
    format      ascii;
    class       volVectorField;
    location    "6.2";
    object      U;
}
// * * * * * * * * * * * * * * * * * * * * * * * * * * * * * * * * * * * * * //

dimensions      [0 1 -1 0 0 0 0];


internalField   nonuniform List<vector> 
2790
(
(9.94399 0.0205231 0)
(9.87572 0.0295875 0)
(9.77521 0.0359892 0)
(9.64944 0.0425559 0)
(9.50409 0.0493851 0)
(9.34007 0.056428 0)
(9.15655 0.0638156 0)
(8.95263 0.0717114 0)
(8.72748 0.0802552 0)
(8.4801 0.0895737 0)
(8.20929 0.099794 0)
(7.91366 0.111046 0)
(7.5917 0.123462 0)
(7.24179 0.137167 0)
(6.86234 0.152276 0)
(6.4518 0.168874 0)
(6.00888 0.187002 0)
(5.53268 0.206625 0)
(5.02296 0.227596 0)
(4.48044 0.249618 0)
(3.90714 0.272183 0)
(3.30681 0.294532 0)
(2.68526 0.315626 0)
(2.0506 0.334294 0)
(1.41177 0.35061 0)
(0.798016 0.372889 0)
(0.110679 0.325049 0)
(-0.469564 -0.114866 0)
(-0.453781 -0.297148 0)
(-0.231163 -0.423856 0)
(9.9985 0.0407027 0)
(9.98146 0.0623823 0)
(9.93575 0.0791394 0)
(9.86417 0.0966238 0)
(9.77098 0.115123 0)
(9.65716 0.134487 0)
(9.52207 0.154974 0)
(9.36486 0.176942 0)
(9.18473 0.200707 0)
(8.98069 0.22655 0)
(8.75154 0.254745 0)
(8.4959 0.285562 0)
(8.21222 0.319253 0)
(7.89884 0.356027 0)
(7.55405 0.396026 0)
(7.1762 0.439271 0)
(6.76379 0.485602 0)
(6.31567 0.534598 0)
(5.83125 0.585473 0)
(5.31088 0.636966 0)
(4.75615 0.687216 0)
(4.1704 0.733658 0)
(3.55928 0.772963 0)
(2.93154 0.801101 0)
(2.29994 0.813755 0)
(1.69294 0.807258 0)
(1.10715 0.747252 0)
(0.658888 0.547928 0)
(0.186434 0.224607 0)
(-0.00819874 -0.453734 0)
(9.99559 0.0432065 0)
(9.97556 0.0752708 0)
(9.9318 0.103345 0)
(9.8649 0.132369 0)
(9.77779 0.163057 0)
(9.67155 0.195396 0)
(9.54589 0.22974 0)
(9.40015 0.266601 0)
(9.23366 0.306469 0)
(9.04565 0.349806 0)
(8.8351 0.397072 0)
(8.60083 0.448723 0)
(8.34146 0.505195 0)
(8.05552 0.566868 0)
(7.74139 0.634018 0)
(7.39746 0.706739 0)
(7.02212 0.784847 0)
(6.61396 0.867735 0)
(6.17194 0.954207 0)
(5.69564 1.04227 0)
(5.18563 1.1289 0)
(4.64395 1.2098 0)
(4.07479 1.27917 0)
(3.48536 1.32934 0)
(2.88684 1.3501 0)
(2.29946 1.32643 0)
(1.73184 1.22078 0)
(1.21625 0.973006 0)
(0.70114 0.570146 0)
(0.358037 -0.156564 0)
(9.99403 0.0494986 0)
(9.97181 0.093205 0)
(9.92788 0.13357 0)
(9.86225 0.174207 0)
(9.77694 0.216431 0)
(9.67299 0.260658 0)
(9.55032 0.307427 0)
(9.4085 0.357412 0)
(9.24704 0.411288 0)
(9.06535 0.469704 0)
(8.8627 0.533301 0)
(8.63821 0.602724 0)
(8.39086 0.678595 0)
(8.11953 0.761479 0)
(7.82301 0.851827 0)
(7.50002 0.949883 0)
(7.14925 1.05556 0)
(6.76945 1.16825 0)
(6.3595 1.28662 0)
(5.9186 1.40828 0)
(5.44653 1.52948 0)
(4.944 1.6447 0)
(4.41316 1.74615 0)
(3.85826 1.82323 0)
(3.28581 1.86137 0)
(2.70639 1.84033 0)
(2.12564 1.72601 0)
(1.55425 1.47786 0)
(0.957945 1.08369 0)
(0.509424 0.502321 0)
(9.99331 0.0572128 0)
(9.96994 0.110957 0)
(9.92593 0.162102 0)
(9.86146 0.213345 0)
(9.77799 0.266353 0)
(9.67636 0.32191 0)
(9.55655 0.380698 0)
(9.41823 0.443485 0)
(9.26098 0.511053 0)
(9.08434 0.584168 0)
(8.88772 0.663586 0)
(8.6704 0.750063 0)
(8.43161 0.844336 0)
(8.17047 0.947087 0)
(7.88609 1.05888 0)
(7.57749 1.18008 0)
(7.24367 1.31069 0)
(6.88361 1.45019 0)
(6.49629 1.59724 0)
(6.08073 1.74934 0)
(5.63615 1.90243 0)
(5.16211 2.05033 0)
(4.65876 2.18419 0)
(4.1272 2.29175 0)
(3.56939 2.35657 0)
(2.98887 2.35732 0)
(2.38682 2.26496 0)
(1.76638 2.04764 0)
(1.08998 1.6914 0)
(0.536649 1.15414 0)
(9.99302 0.0655376 0)
(9.96923 0.1287 0)
(9.92556 0.190111 0)
(9.86253 0.25184 0)
(9.78129 0.315574 0)
(9.68245 0.382314 0)
(9.56602 0.45287 0)
(9.43172 0.528097 0)
(9.27921 0.608876 0)
(9.10807 0.696081 0)
(8.91779 0.790577 0)
(8.70775 0.893223 0)
(8.4773 1.00486 0)
(8.22569 1.12626 0)
(7.95216 1.25809 0)
(7.6559 1.40082 0)
(7.33604 1.55455 0)
(6.99165 1.71888 0)
(6.62169 1.89257 0)
(6.22501 2.07324 0)
(5.80028 2.25686 0)
(5.34603 2.43722 0)
(4.86069 2.60521 0)
(4.34268 2.74823 0)
(3.79038 2.84955 0)
(3.20255 2.8882 0)
(2.57655 2.83823 0)
(1.91345 2.67161 0)
(1.17274 2.37399 0)
(0.549962 1.89439 0)
(9.99297 0.0740736 0)
(9.96927 0.146311 0)
(9.92637 0.21748 0)
(9.86509 0.289287 0)
(9.78643 0.36335 0)
(9.69085 0.440822 0)
(9.57836 0.522654 0)
(9.44872 0.609805 0)
(9.30166 0.70325 0)
(9.13679 0.80396 0)
(8.95366 0.912897 0)
(8.75172 1.03101 0)
(8.53035 1.15922 0)
(8.28889 1.2984 0)
(8.02661 1.4493 0)
(7.7427 1.61249 0)
(7.43631 1.7882 0)
(7.10641 1.97618 0)
(6.75181 2.17542 0)
(6.37101 2.38384 0)
(5.9621 2.59776 0)
(5.52263 2.8114 0)
(5.04951 3.01617 0)
(4.53898 3.19998 0)
(3.98663 3.34669 0)
(3.38788 3.43597 0)
(2.73722 3.4433 0)
(2.03621 3.34148 0)
(1.24173 3.11355 0)
(0.563505 2.69312 0)
(9.99306 0.0825866 0)
(9.96981 0.163603 0)
(9.92807 0.244046 0)
(9.86885 0.325474 0)
(9.79313 0.40944 0)
(9.70127 0.4972 0)
(9.59324 0.589832 0)
(9.46889 0.688389 0)
(9.32797 0.793933 0)
(9.17016 0.907524 0)
(8.99504 1.03021 0)
(8.80212 1.16303 0)
(8.59083 1.30701 0)
(8.36052 1.46309 0)
(8.11047 1.63215 0)
(7.83982 1.81488 0)
(7.54762 2.01168 0)
(7.23268 2.22253 0)
(6.89351 2.44675 0)
(6.52817 2.68271 0)
(6.13408 2.92738 0)
(5.70784 3.17579 0)
(5.24495 3.42039 0)
(4.73975 3.65021 0)
(4.18545 3.85025 0)
(3.57472 4.00089 0)
(2.89948 4.07789 0)
(2.16207 4.05236 0)
(1.31609 3.90166 0)
(0.583205 3.54011 0)
(9.99326 0.0909266 0)
(9.97072 0.180405 0)
(9.93046 0.269663 0)
(9.87362 0.360235 0)
(9.80118 0.45364 0)
(9.71344 0.551201 0)
(9.61039 0.654103 0)
(9.49189 0.763487 0)
(9.35777 0.880497 0)
(9.20775 1.00627 0)
(9.04147 1.14195 0)
(8.8585 1.28866 0)
(8.65829 1.44752 0)
(8.44024 1.61959 0)
(8.20359 1.80587 0)
(7.94748 2.00722 0)
(7.6708 2.22426 0)
(7.37218 2.45729 0)
(7.0498 2.70608 0)
(6.70127 2.9696 0)
(6.32334 3.24569 0)
(5.91163 3.53056 0)
(5.46034 3.8181 0)
(4.96197 4.09901 0)
(4.40736 4.35988 0)
(3.78634 4.5821 0)
(3.0875 4.74106 0)
(2.31264 4.80442 0)
(1.4106 4.74103 0)
(0.614285 4.44186 0)
(9.99352 0.0989902 0)
(9.97191 0.196575 0)
(9.93341 0.294189 0)
(9.87925 0.393409 0)
(9.81041 0.495747 0)
(9.72717 0.602579 0)
(9.62954 0.715172 0)
(9.51743 0.834751 0)
(9.3907 0.962534 0)
(9.24915 1.09974 0)
(9.09247 1.24758 0)
(8.9203 1.40729 0)
(8.73215 1.58006 0)
(8.52745 1.76711 0)
(8.30546 1.96956 0)
(8.06528 2.18849 0)
(7.80575 2.42481 0)
(7.52532 2.67919 0)
(7.22192 2.95195 0)
(6.89277 3.24285 0)
(6.53402 3.55083 0)
(6.14046 3.87353 0)
(5.70502 4.20674 0)
(5.21843 4.54342 0)
(4.66892 4.87246 0)
(4.04278 5.17697 0)
(3.32359 5.43229 0)
(2.50967 5.60192 0)
(1.54179 5.64341 0)
(0.664019 5.41793 0)
(9.99384 0.106702 0)
(9.9733 0.211996 0)
(9.9368 0.317496 0)
(9.88558 0.424847 0)
(9.82064 0.535579 0)
(9.74226 0.651109 0)
(9.65046 0.772775 0)
(9.54519 0.901873 0)
(9.4264 1.03969 0)
(9.29392 1.18751 0)
(9.14755 1.34662 0)
(8.98697 1.51834 0)
(8.81178 1.70399 0)
(8.62146 1.90487 0)
(8.41534 2.12231 0)
(8.19255 2.35761 0)
(7.95191 2.61198 0)
(7.69181 2.88657 0)
(7.41006 3.18232 0)
(7.10364 3.4999 0)
(6.76834 3.83952 0)
(6.39831 4.2006 0)
(5.98551 4.58124 0)
(5.51901 4.97738 0)
(4.98428 5.38136 0)
(4.36314 5.77958 0)
(3.63175 6.14912 0)
(2.77997 6.4506 0)
(1.73333 6.62839 0)
(0.744769 6.50293 0)
(9.9942 0.114003 0)
(9.97487 0.22657 0)
(9.94056 0.339466 0)
(9.89252 0.454414 0)
(9.83174 0.572972 0)
(9.75852 0.696596 0)
(9.6729 0.82668 0)
(9.5749 0.964578 0)
(9.4645 1.11164 0)
(9.34164 1.2692 0)
(9.20618 1.43864 0)
(9.05789 1.62133 0)
(8.89647 1.81868 0)
(8.7215 2.03216 0)
(8.53241 2.26324 0)
(8.3284 2.51345 0)
(8.10838 2.78437 0)
(7.87084 3.07759 0)
(7.61363 3.39476 0)
(7.33374 3.73754 0)
(7.02691 4.10751 0)
(6.68712 4.5061 0)
(6.30583 4.93419 0)
(5.87099 5.39153 0)
(5.36564 5.87542 0)
(4.76671 6.37829 0)
(4.04049 6.88322 0)
(3.16121 7.35342 0)
(2.02453 7.72303 0)
(0.88062 7.75682 0)
(9.99459 0.12085 0)
(9.97657 0.240219 0)
(9.94462 0.359999 0)
(9.89996 0.48199 0)
(9.84357 0.607783 0)
(9.77576 0.738868 0)
(9.69663 0.876681 0)
(9.60625 1.02263 0)
(9.50466 1.1781 0)
(9.39187 1.3445 0)
(9.26784 1.52324 0)
(9.13245 1.71577 0)
(8.98551 1.9236 0)
(8.82672 2.14829 0)
(8.65567 2.39148 0)
(8.47171 2.65494 0)
(8.27396 2.94055 0)
(8.06111 3.25038 0)
(7.83128 3.58673 0)
(7.5818 3.95224 0)
(7.30877 4.34991 0)
(7.00661 4.78325 0)
(6.66713 5.25621 0)
(6.27834 5.77307 0)
(5.82226 6.3378 0)
(5.27221 6.9525 0)
(4.58419 7.61367 0)
(3.70957 8.30084 0)
(2.48781 8.95798 0)
(1.12426 9.29277 0)
(9.99501 0.127207 0)
(9.97838 0.252878 0)
(9.94891 0.379012 0)
(9.9078 0.507475 0)
(9.85599 0.639893 0)
(9.79383 0.777785 0)
(9.72144 0.92262 0)
(9.63895 1.07584 0)
(9.54649 1.23887 0)
(9.44415 1.41315 0)
(9.33198 1.60014 0)
(9.20998 1.80134 0)
(9.07809 2.01832 0)
(8.93619 2.25275 0)
(8.78402 2.50639 0)
(8.62121 2.78119 0)
(8.44713 3.07931 0)
(8.26085 3.40323 0)
(8.06098 3.75582 0)
(7.84546 4.14058 0)
(7.61129 4.56178 0)
(7.35403 5.02483 0)
(7.06704 5.53668 0)
(6.74024 6.10632 0)
(6.35767 6.74543 0)
(5.89371 7.46909 0)
(5.30029 8.29644 0)
(4.50825 9.24795 0)
(3.26817 10.3415 0)
(1.60458 11.3583 0)
(9.99545 0.133047 0)
(9.98027 0.264497 0)
(9.95339 0.396432 0)
(9.91596 0.530775 0)
(9.86889 0.669183 0)
(9.81254 0.813194 0)
(9.74709 0.964301 0)
(9.67273 1.12397 0)
(9.58966 1.29366 0)
(9.49805 1.47482 0)
(9.39806 1.66893 0)
(9.28981 1.87755 0)
(9.17341 2.10228 0)
(9.04891 2.34483 0)
(8.91628 2.60709 0)
(8.77544 2.89112 0)
(8.62612 3.19929 0)
(8.46787 3.53435 0)
(8.29998 3.8996 0)
(8.1213 4.29915 0)
(7.93013 4.73821 0)
(7.7239 5.22362 0)
(7.49878 5.76461 0)
(7.24886 6.37399 0)
(6.96465 7.0702 0)
(6.6306 7.88105 0)
(6.21389 8.85197 0)
(5.66508 10.0659 0)
(4.68914 11.7307 0)
(2.68659 14.5906 0)
(0.117219 -0.115937 0)
(0.27457 -0.103899 0)
(0.432622 -0.0800958 0)
(0.562059 -0.0576282 0)
(0.658489 -0.0392296 0)
(0.726921 -0.0249112 0)
(0.773699 -0.0141016 0)
(0.804195 -0.00619537 0)
(0.822657 -0.000638684 0)
(0.832493 0.00306729 0)
(0.836457 0.00535565 0)
(0.836736 0.00655494 0)
(0.83497 0.0068801 0)
(0.832276 0.00670748 0)
(0.829562 0.00623923 0)
(0.827425 0.00560193 0)
(0.826212 0.00490015 0)
(0.826059 0.00426887 0)
(0.826753 0.00381886 0)
(0.827844 0.00361504 0)
(0.828756 0.00368932 0)
(0.828888 0.00397272 0)
(0.827907 0.0043344 0)
(0.82543 0.00471503 0)
(0.821289 0.00507046 0)
(0.815429 0.00537963 0)
(0.807838 0.00560177 0)
(0.798526 0.00573875 0)
(0.787854 0.00556706 0)
(0.775368 0.00424272 0)
(0.101375 -0.274292 0)
(0.256179 -0.253876 0)
(0.405342 -0.202808 0)
(0.530687 -0.153248 0)
(0.629041 -0.112282 0)
(0.704913 -0.0801693 0)
(0.763624 -0.0557114 0)
(0.809538 -0.0375885 0)
(0.84602 -0.0245768 0)
(0.875682 -0.0155681 0)
(0.900519 -0.00960117 0)
(0.921996 -0.00591328 0)
(0.941168 -0.00392137 0)
(0.958911 -0.00307264 0)
(0.975814 -0.00298869 0)
(0.992311 -0.00338222 0)
(1.00865 -0.00400144 0)
(1.02491 -0.00459158 0)
(1.04112 -0.00494481 0)
(1.05726 -0.00491892 0)
(1.07318 -0.0044361 0)
(1.08861 -0.00353404 0)
(1.10309 -0.0023322 0)
(1.11638 -0.000967045 0)
(1.12837 0.000464196 0)
(1.13897 0.00195736 0)
(1.1481 0.00357463 0)
(1.1552 0.00498161 0)
(1.16043 0.005706 0)
(1.16552 0.00474933 0)
(0.0811376 -0.434877 0)
(0.215863 -0.40219 0)
(0.336079 -0.323835 0)
(0.43683 -0.248294 0)
(0.515463 -0.186174 0)
(0.576472 -0.137577 0)
(0.624222 -0.100596 0)
(0.662144 -0.0731825 0)
(0.692901 -0.0534442 0)
(0.718567 -0.0396567 0)
(0.740695 -0.0303158 0)
(0.760387 -0.0242083 0)
(0.778409 -0.0203866 0)
(0.795264 -0.0182274 0)
(0.811294 -0.0172141 0)
(0.826759 -0.0169111 0)
(0.841841 -0.0169517 0)
(0.856647 -0.0170411 0)
(0.871224 -0.016932 0)
(0.885562 -0.0164344 0)
(0.899599 -0.0154409 0)
(0.913228 -0.0139279 0)
(0.926358 -0.0120124 0)
(0.938953 -0.00993846 0)
(0.951085 -0.0078601 0)
(0.962878 -0.00575522 0)
(0.974242 -0.00347398 0)
(0.985507 -0.00135201 0)
(0.995972 0.000182386 0)
(1.0067 0.000998943 0)
(0.0614476 -0.563627 0)
(0.170152 -0.513938 0)
(0.254491 -0.411062 0)
(0.325993 -0.314792 0)
(0.380036 -0.236812 0)
(0.421736 -0.176233 0)
(0.45422 -0.130344 0)
(0.479809 -0.0964315 0)
(0.500351 -0.0720811 0)
(0.517323 -0.0550714 0)
(0.531795 -0.0434488 0)
(0.544453 -0.0357029 0)
(0.555696 -0.0306854 0)
(0.56573 -0.0276333 0)
(0.574734 -0.0259403 0)
(0.582859 -0.0250935 0)
(0.590224 -0.0246757 0)
(0.59692 -0.0243555 0)
(0.603034 -0.0238587 0)
(0.608631 -0.0229748 0)
(0.613738 -0.0215695 0)
(0.618337 -0.0196003 0)
(0.62241 -0.0172442 0)
(0.625988 -0.0148624 0)
(0.629245 -0.012565 0)
(0.632376 -0.0102192 0)
(0.635486 -0.00767118 0)
(0.638509 -0.00546233 0)
(0.640529 -0.00421207 0)
(0.64272 -0.00253553 0)
(0.0409617 -0.661956 0)
(0.118135 -0.590873 0)
(0.160973 -0.467061 0)
(0.201167 -0.356321 0)
(0.227796 -0.268038 0)
(0.247786 -0.199935 0)
(0.262445 -0.14854 0)
(0.272935 -0.110608 0)
(0.280249 -0.0834187 0)
(0.285302 -0.0643823 0)
(0.288725 -0.0511809 0)
(0.29081 -0.0421708 0)
(0.291588 -0.0359585 0)
(0.290961 -0.0317981 0)
(0.289038 -0.0291083 0)
(0.285938 -0.0273569 0)
(0.28178 -0.0261249 0)
(0.276719 -0.0251006 0)
(0.270967 -0.0240299 0)
(0.264717 -0.022704 0)
(0.258074 -0.0209317 0)
(0.251035 -0.0186029 0)
(0.243594 -0.0159501 0)
(0.23573 -0.0136025 0)
(0.227517 -0.012023 0)
(0.21896 -0.0105954 0)
(0.210192 -0.00827954 0)
(0.203179 -0.00437301 0)
(0.190075 -0.000508348 0)
(0.172604 0.0013105 0)
(0.018945 -0.724359 0)
(0.058951 -0.62848 0)
(0.0562127 -0.487795 0)
(0.0633698 -0.368872 0)
(0.0600024 -0.274882 0)
(0.0557344 -0.202816 0)
(0.0494907 -0.148561 0)
(0.0415505 -0.108509 0)
(0.0321094 -0.0799801 0)
(0.0216863 -0.0601909 0)
(0.0106585 -0.0462354 0)
(-0.00116493 -0.036231 0)
(-0.0140789 -0.0292373 0)
(-0.0282493 -0.0243956 0)
(-0.0433646 -0.0212002 0)
(-0.0592499 -0.0191097 0)
(-0.0756998 -0.0177476 0)
(-0.0924658 -0.0168548 0)
(-0.109331 -0.0161652 0)
(-0.126232 -0.0153686 0)
(-0.143311 -0.0140388 0)
(-0.160876 -0.0117084 0)
(-0.179043 -0.00814923 0)
(-0.199265 -0.0040204 0)
(-0.222677 -0.000910055 0)
(-0.246747 0.000945295 0)
(-0.269121 0.00307522 0)
(-0.286345 0.00650638 0)
(-0.295103 0.00851068 0)
(-0.302523 0.00709682 0)
(-0.00633066 -0.743361 0)
(-0.00951121 -0.62044 0)
(-0.0590171 -0.46899 0)
(-0.0890647 -0.349049 0)
(-0.124795 -0.255078 0)
(-0.157283 -0.183935 0)
(-0.188173 -0.130743 0)
(-0.217791 -0.0918046 0)
(-0.246686 -0.0646839 0)
(-0.274679 -0.0463787 0)
(-0.301305 -0.0332046 0)
(-0.326612 -0.0231731 0)
(-0.35123 -0.0160477 0)
(-0.375436 -0.0111218 0)
(-0.399781 -0.00776346 0)
(-0.424311 -0.005623 0)
(-0.448823 -0.00421176 0)
(-0.473683 -0.00296274 0)
(-0.499322 -0.00151712 0)
(-0.525994 0.000222853 0)
(-0.553376 0.00223661 0)
(-0.580299 0.00458591 0)
(-0.604791 0.00732726 0)
(-0.624151 0.00985896 0)
(-0.639025 0.0111604 0)
(-0.652375 0.0110636 0)
(-0.664569 0.0105583 0)
(-0.675185 0.010502 0)
(-0.683549 0.0104641 0)
(-0.688573 0.00945168 0)
(-0.0382437 -0.71014 0)
(-0.0896464 -0.564022 0)
(-0.185351 -0.412536 0)
(-0.258864 -0.297259 0)
(-0.330332 -0.209391 0)
(-0.394154 -0.144285 0)
(-0.450771 -0.09621 0)
(-0.501396 -0.0601814 0)
(-0.548472 -0.0335873 0)
(-0.594725 -0.0153606 0)
(-0.640054 -0.00381388 0)
(-0.679278 0.00313547 0)
(-0.713876 0.00757842 0)
(-0.744749 0.0105147 0)
(-0.772576 0.012463 0)
(-0.798375 0.0135927 0)
(-0.822729 0.0142034 0)
(-0.845477 0.0146374 0)
(-0.866476 0.0151389 0)
(-0.885988 0.0157729 0)
(-0.904632 0.0164377 0)
(-0.922837 0.0169898 0)
(-0.940385 0.0173364 0)
(-0.956483 0.0174276 0)
(-0.970411 0.0171515 0)
(-0.982271 0.0164782 0)
(-0.992495 0.015768 0)
(-1.00134 0.0152854 0)
(-1.00844 0.0146119 0)
(-1.0122 0.0134692 0)
(-0.0777075 -0.621003 0)
(-0.180261 -0.457006 0)
(-0.329235 -0.311319 0)
(-0.451813 -0.206237 0)
(-0.56431 -0.129985 0)
(-0.663556 -0.0743733 0)
(-0.749858 -0.0347101 0)
(-0.823909 -0.00718353 0)
(-0.880904 0.0102699 0)
(-0.924883 0.0208368 0)
(-0.959684 0.0263473 0)
(-0.990887 0.0288983 0)
(-1.01897 0.0298753 0)
(-1.04469 0.0300117 0)
(-1.06869 0.0296641 0)
(-1.09142 0.0289992 0)
(-1.11304 0.0280108 0)
(-1.13347 0.0268886 0)
(-1.15264 0.0260554 0)
(-1.17074 0.0258647 0)
(-1.18822 0.0262814 0)
(-1.20541 0.0268431 0)
(-1.22214 0.0269149 0)
(-1.23763 0.026071 0)
(-1.25101 0.0243055 0)
(-1.26196 0.0220738 0)
(-1.2709 0.0201262 0)
(-1.27845 0.0188071 0)
(-1.28446 0.0177512 0)
(-1.28744 0.0168195 0)
(-0.12934 -0.471496 0)
(-0.289668 -0.29862 0)
(-0.4961 -0.168783 0)
(-0.6678 -0.0792537 0)
(-0.814586 -0.0189906 0)
(-0.926129 0.0143457 0)
(-1.01115 0.0329107 0)
(-1.07486 0.0423648 0)
(-1.127 0.0472927 0)
(-1.17017 0.0497024 0)
(-1.20682 0.05054 0)
(-1.23856 0.0500827 0)
(-1.2665 0.0487028 0)
(-1.29161 0.0470129 0)
(-1.31481 0.0453739 0)
(-1.33677 0.0437515 0)
(-1.35771 0.0418986 0)
(-1.37745 0.0398223 0)
(-1.3958 0.0379594 0)
(-1.41299 0.0368436 0)
(-1.42959 0.0365822 0)
(-1.44609 0.0366309 0)
(-1.46239 0.0360621 0)
(-1.4776 0.0341556 0)
(-1.49058 0.0309158 0)
(-1.50079 0.027159 0)
(-1.50863 0.0239861 0)
(-1.51503 0.021894 0)
(-1.5201 0.0205851 0)
(-1.52249 0.0198321 0)
(-0.204391 -0.267924 0)
(-0.443845 -0.0737011 0)
(-0.698575 0.0372779 0)
(-0.881746 0.080795 0)
(-1.01977 0.0941567 0)
(-1.12914 0.0972197 0)
(-1.21513 0.0955427 0)
(-1.28334 0.091766 0)
(-1.33796 0.0870233 0)
(-1.38239 0.082083 0)
(-1.41953 0.0773676 0)
(-1.45129 0.0727363 0)
(-1.47884 0.0681703 0)
(-1.50321 0.0641089 0)
(-1.52555 0.060871 0)
(-1.5468 0.0581488 0)
(-1.56716 0.0552787 0)
(-1.58623 0.0520251 0)
(-1.60362 0.0489522 0)
(-1.61961 0.0469291 0)
(-1.63509 0.0462318 0)
(-1.65088 0.0461002 0)
(-1.66695 0.0451298 0)
(-1.68218 0.0421949 0)
(-1.69498 0.0373052 0)
(-1.70448 0.0317555 0)
(-1.71118 0.0272188 0)
(-1.71639 0.0244428 0)
(-1.72052 0.0230343 0)
(-1.72243 0.0224624 0)
(-0.297306 0.116338 0)
(-0.574454 0.231805 0)
(-0.8503 0.245231 0)
(-1.0498 0.232138 0)
(-1.2018 0.209116 0)
(-1.3171 0.184524 0)
(-1.40502 0.162117 0)
(-1.47316 0.142884 0)
(-1.52666 0.126683 0)
(-1.56954 0.113655 0)
(-1.60519 0.103424 0)
(-1.6357 0.0947638 0)
(-1.66194 0.0869259 0)
(-1.68475 0.0803603 0)
(-1.70555 0.0756047 0)
(-1.7257 0.0720581 0)
(-1.74541 0.0683598 0)
(-1.76379 0.0638345 0)
(-1.78001 0.059276 0)
(-1.79439 0.0561833 0)
(-1.80838 0.0551901 0)
(-1.82336 0.0552427 0)
(-1.83944 0.0542148 0)
(-1.85508 0.0503483 0)
(-1.86796 0.0435843 0)
(-1.87674 0.0358611 0)
(-1.88205 0.0297504 0)
(-1.88583 0.0263928 0)
(-1.88895 0.025063 0)
(-1.89043 0.0246793 0)
(-0.36215 0.539512 0)
(-0.701892 0.563732 0)
(-1.0257 0.48306 0)
(-1.2406 0.400235 0)
(-1.39394 0.330176 0)
(-1.50454 0.271515 0)
(-1.58612 0.22606 0)
(-1.64843 0.191427 0)
(-1.69669 0.163943 0)
(-1.73474 0.142952 0)
(-1.7666 0.127752 0)
(-1.79456 0.115571 0)
(-1.81865 0.104381 0)
(-1.83896 0.0950026 0)
(-1.85731 0.0888258 0)
(-1.87588 0.0849853 0)
(-1.89495 0.0808963 0)
(-1.91278 0.0750508 0)
(-1.92764 0.0686219 0)
(-1.93988 0.0642395 0)
(-1.95182 0.0632176 0)
(-1.96582 0.0640576 0)
(-1.98221 0.0635118 0)
(-1.99881 0.0588577 0)
(-2.01217 0.0498659 0)
(-2.02012 0.0393765 0)
(-2.02359 0.031367 0)
(-2.02551 0.0276012 0)
(-2.0275 0.0266543 0)
(-2.0286 0.0264995 0)
(-0.483371 1.05647 0)
(-0.91475 0.967896 0)
(-1.27309 0.743951 0)
(-1.47172 0.563097 0)
(-1.60391 0.441674 0)
(-1.6958 0.346045 0)
(-1.7602 0.279494 0)
(-1.80993 0.234058 0)
(-1.849 0.197156 0)
(-1.87895 0.168044 0)
(-1.90466 0.148641 0)
(-1.92917 0.134185 0)
(-1.95069 0.119949 0)
(-1.9675 0.107536 0)
(-1.98209 0.100347 0)
(-1.99842 0.0973788 0)
(-2.01712 0.0937529 0)
(-2.03489 0.0864087 0)
(-2.0483 0.077211 0)
(-2.05758 0.0709036 0)
(-2.06659 0.0701147 0)
(-2.07929 0.0726133 0)
(-2.09643 0.0733378 0)
(-2.1148 0.0681011 0)
(-2.1292 0.0563385 0)
(-2.13618 0.0421437 0)
(-2.13701 0.0316947 0)
(-2.13635 0.0278191 0)
(-2.13707 0.0278182 0)
(-2.13788 0.0280043 0)
(-0.71722 2.06668 0)
(-1.2525 1.63759 0)
(-1.63376 1.03681 0)
(-1.76089 0.648456 0)
(-1.83395 0.513646 0)
(-1.89024 0.401865 0)
(-1.92256 0.324291 0)
(-1.95381 0.272974 0)
(-1.98335 0.223016 0)
(-2.00288 0.181626 0)
(-2.01908 0.161466 0)
(-2.0392 0.150438 0)
(-2.05842 0.1351 0)
(-2.07075 0.11843 0)
(-2.07966 0.109266 0)
(-2.09293 0.108179 0)
(-2.11213 0.105936 0)
(-2.13106 0.0966429 0)
(-2.14306 0.0832693 0)
(-2.14803 0.0742184 0)
(-2.15253 0.0744363 0)
(-2.16337 0.0803632 0)
(-2.18185 0.083826 0)
(-2.20315 0.0784796 0)
(-2.21943 0.0632315 0)
(-2.22517 0.0438973 0)
(-2.22208 0.0300982 0)
(-2.21771 0.0266256 0)
(-2.21698 0.0286294 0)
(-2.21774 0.0294391 0)
(9.9959 0.138442 0)
(9.98225 0.275231 0)
(9.95811 0.412513 0)
(9.92454 0.552258 0)
(9.88243 0.696142 0)
(9.83217 0.845719 0)
(9.774 1.00249 0)
(9.70817 1.16794 0)
(9.63494 1.34353 0)
(9.55461 1.53072 0)
(9.46743 1.731 0)
(9.37367 1.94593 0)
(9.2736 2.17712 0)
(9.16747 2.42634 0)
(9.05554 2.69548 0)
(8.93802 2.98668 0)
(8.8151 3.3024 0)
(8.68692 3.64553 0)
(8.55355 4.01958 0)
(8.41499 4.42894 0)
(8.27116 4.87923 0)
(8.12195 5.37793 0)
(7.9673 5.93521 0)
(7.80747 6.56542 0)
(7.64365 7.28964 0)
(7.4808 8.14046 0)
(7.33214 9.17182 0)
(7.28763 10.4773 0)
(7.74481 12.2016 0)
(7.92458 14.9198 0)
(9.99638 0.143401 0)
(9.98434 0.285085 0)
(9.96306 0.42724 0)
(9.93352 0.571867 0)
(9.89657 0.720655 0)
(9.85263 0.875165 0)
(9.80198 1.0369 0)
(9.74494 1.20734 0)
(9.68186 1.38795 0)
(9.61312 1.58017 0)
(9.5391 1.78548 0)
(9.46022 2.00543 0)
(9.37692 2.24161 0)
(9.28968 2.49575 0)
(9.19902 2.76975 0)
(9.10551 3.06572 0)
(9.00981 3.38607 0)
(8.91267 3.73367 0)
(8.815 4.11197 0)
(8.71798 4.52522 0)
(8.62322 4.97885 0)
(8.53307 5.47989 0)
(8.45126 6.03766 0)
(8.38402 6.66476 0)
(8.34254 7.37841 0)
(8.34885 8.20203 0)
(8.44176 9.1658 0)
(8.67715 10.303 0)
(9.3237 11.5585 0)
(9.8131 12.6484 0)
(9.99688 0.147838 0)
(9.98651 0.293896 0)
(9.96819 0.44039 0)
(9.94283 0.589335 0)
(9.91121 0.742427 0)
(9.87378 0.901217 0)
(9.83087 1.0672 0)
(9.78285 1.24184 0)
(9.73015 1.42656 0)
(9.67325 1.6228 0)
(9.61265 1.83199 0)
(9.54891 2.05563 0)
(9.48265 2.29526 0)
(9.41457 2.55255 0)
(9.34545 2.82929 0)
(9.27623 3.12749 0)
(9.208 3.44941 0)
(9.1421 3.79771 0)
(9.08021 4.17549 0)
(9.02456 4.58651 0)
(8.97815 5.03539 0)
(8.94527 5.5278 0)
(8.93219 6.07072 0)
(8.94845 6.67256 0)
(9.00853 7.34277 0)
(9.13455 8.09 0)
(9.35754 8.91617 0)
(9.687 9.81023 0)
(10.2529 10.7209 0)
(10.9407 11.4384 0)
(9.9974 0.151699 0)
(9.98874 0.301557 0)
(9.97347 0.451795 0)
(9.95239 0.604433 0)
(9.92623 0.761156 0)
(9.89545 0.923499 0)
(9.86042 1.09294 0)
(9.82158 1.27089 0)
(9.77944 1.45876 0)
(9.73454 1.65792 0)
(9.6875 1.86976 0)
(9.63901 2.09567 0)
(9.58986 2.33713 0)
(9.54096 2.59568 0)
(9.49333 2.87296 0)
(9.44823 3.17078 0)
(9.40713 3.49115 0)
(9.37186 3.83633 0)
(9.34472 4.2089 0)
(9.32869 4.61183 0)
(9.32768 5.04854 0)
(9.34701 5.52286 0)
(9.39392 6.03892 0)
(9.47832 6.6007 0)
(9.6134 7.21098 0)
(9.81602 7.86944 0)
(10.109 8.56901 0)
(10.5009 9.29506 0)
(11.0588 10.0374 0)
(11.8524 10.683 0)
(9.99792 0.154938 0)
(9.99101 0.307975 0)
(9.97884 0.461322 0)
(9.96212 0.616983 0)
(9.9415 0.776624 0)
(9.91746 0.941752 0)
(9.8904 1.1138 0)
(9.86082 1.29416 0)
(9.82929 1.48415 0)
(9.79642 1.68509 0)
(9.76294 1.89828 0)
(9.72965 2.12503 0)
(9.69749 2.36666 0)
(9.66752 2.62455 0)
(9.64099 2.90016 0)
(9.6194 3.19502 0)
(9.60452 3.51078 0)
(9.59853 3.84923 0)
(9.60412 4.21228 0)
(9.62468 4.60197 0)
(9.66454 5.02043 0)
(9.72921 5.46965 0)
(9.82578 5.95126 0)
(9.96321 6.46596 0)
(10.1526 7.01267 0)
(10.4069 7.58753 0)
(10.7436 8.18242 0)
(11.1743 8.78265 0)
(11.7219 9.37664 0)
(12.4757 9.88947 0)
(9.99845 0.157512 0)
(9.9933 0.313065 0)
(9.98427 0.468842 0)
(9.97194 0.626819 0)
(9.9569 0.788627 0)
(9.93962 0.955735 0)
(9.92055 1.12953 0)
(9.90022 1.31132 0)
(9.87925 1.50239 0)
(9.85833 1.70395 0)
(9.83826 1.9172 0)
(9.81993 2.14331 0)
(9.8044 2.38346 0)
(9.79285 2.63884 0)
(9.7867 2.91064 0)
(9.7876 3.20008 0)
(9.79752 3.50843 0)
(9.81882 3.83691 0)
(9.85437 4.18676 0)
(9.90766 4.5591 0)
(9.98298 4.95482 0)
(10.0856 5.37442 0)
(10.2217 5.81761 0)
(10.399 6.28296 0)
(10.6263 6.7672 0)
(10.9132 7.26457 0)
(11.271 7.76583 0)
(11.7078 8.25544 0)
(12.2242 8.71667 0)
(12.9007 9.108 0)
(9.99898 0.159381 0)
(9.9956 0.31675 0)
(9.98971 0.474244 0)
(9.98176 0.633793 0)
(9.97228 0.796986 0)
(9.96173 0.965237 0)
(9.95059 1.13987 0)
(9.93942 1.32214 0)
(9.92887 1.51321 0)
(9.91968 1.71422 0)
(9.91271 1.92623 0)
(9.90893 2.15027 0)
(9.90945 2.38734 0)
(9.91556 2.63841 0)
(9.92875 2.90441 0)
(9.95077 3.18622 0)
(9.98365 3.48467 0)
(10.0298 3.80047 0)
(10.092 4.1342 0)
(10.1737 4.48614 0)
(10.2788 4.8562 0)
(10.4119 5.24368 0)
(10.5784 5.647 0)
(10.784 6.06335 0)
(11.0354 6.48825 0)
(11.3388 6.91501 0)
(11.7005 7.33426 0)
(12.1245 7.73258 0)
(12.6048 8.09539 0)
(13.2107 8.40214 0)
(9.99951 0.160512 0)
(9.99789 0.318964 0)
(9.9951 0.477429 0)
(9.99151 0.63778 0)
(9.98753 0.80155 0)
(9.98362 0.970088 0)
(9.98027 1.14465 0)
(9.97806 1.32639 0)
(9.97767 1.51641 0)
(9.97988 1.7157 0)
(9.98556 1.92521 0)
(9.99573 2.14579 0)
(10.0115 2.37827 0)
(10.0343 2.62338 0)
(10.0656 2.88178 0)
(10.107 3.15401 0)
(10.1607 3.44049 0)
(10.2289 3.74147 0)
(10.3144 4.05692 0)
(10.42 4.38646 0)
(10.5493 4.72924 0)
(10.706 5.08373 0)
(10.8944 5.44755 0)
(11.1187 5.81716 0)
(11.3833 6.18768 0)
(11.6919 6.55253 0)
(12.0473 6.90343 0)
(12.4512 7.23005 0)
(12.8958 7.52123 0)
(13.4393 7.76564 0)
(10 0.160876 0)
(10.0001 0.319651 0)
(10.0004 0.478318 0)
(10.0011 0.63868 0)
(10.0025 0.8022 0)
(10.0051 0.970157 0)
(10.0093 1.14372 0)
(10.0158 1.32397 0)
(10.0252 1.51187 0)
(10.0384 1.70832 0)
(10.0561 1.91411 0)
(10.0795 2.12994 0)
(10.1096 2.35643 0)
(10.1479 2.59409 0)
(10.1957 2.84331 0)
(10.2547 3.10434 0)
(10.3269 3.37722 0)
(10.4143 3.66178 0)
(10.5193 3.95753 0)
(10.6445 4.26359 0)
(10.7927 4.57857 0)
(10.967 4.90046 0)
(11.1703 5.22646 0)
(11.4056 5.55285 0)
(11.6754 5.87489 0)
(11.9817 6.18672 0)
(12.3253 6.48145 0)
(12.706 6.75125 0)
(13.1159 6.98777 0)
(13.604 7.18413 0)
(10.0005 0.160453 0)
(10.0023 0.31877 0)
(10.0056 0.476852 0)
(10.0104 0.636417 0)
(10.017 0.798854 0)
(10.0259 0.965359 0)
(10.0374 1.13702 0)
(10.0523 1.3148 0)
(10.0711 1.49957 0)
(10.0946 1.6921 0)
(10.1237 1.89302 0)
(10.1594 2.1029 0)
(10.2028 2.32215 0)
(10.2551 2.55107 0)
(10.3178 2.78981 0)
(10.3924 3.03834 0)
(10.4806 3.2964 0)
(10.5843 3.5635 0)
(10.7054 3.83878 0)
(10.8461 4.12104 0)
(11.0086 4.40856 0)
(11.1951 4.69911 0)
(11.4076 4.98979 0)
(11.648 5.27702 0)
(11.9175 5.55651 0)
(12.2167 5.82328 0)
(12.5452 6.07178 0)
(12.9018 6.29612 0)
(13.2792 6.49023 0)
(13.7193 6.64996 0)
(10.001 0.159227 0)
(10.0044 0.316291 0)
(10.0106 0.47299 0)
(10.0194 0.630947 0)
(10.0311 0.791465 0)
(10.0459 0.955657 0)
(10.0644 1.12451 0)
(10.0872 1.29889 0)
(10.1148 1.47956 0)
(10.148 1.66715 0)
(10.1877 1.86217 0)
(10.2347 2.06501 0)
(10.2902 2.27593 0)
(10.3552 2.49502 0)
(10.4311 2.72223 0)
(10.5192 2.9573 0)
(10.621 3.19974 0)
(10.7381 3.44879 0)
(10.8721 3.7034 0)
(11.0246 3.96213 0)
(11.1973 4.22316 0)
(11.3915 4.48419 0)
(11.6087 4.74245 0)
(11.8498 4.99468 0)
(12.115 5.23716 0)
(12.4042 5.4658 0)
(12.7162 5.67625 0)
(13.0491 5.86416 0)
(13.3969 6.02528 0)
(13.7959 6.15709 0)
(10.0015 0.157191 0)
(10.0065 0.312201 0)
(10.0154 0.466714 0)
(10.028 0.622253 0)
(10.0445 0.780027 0)
(10.065 0.941058 0)
(10.0901 1.10624 0)
(10.1203 1.27633 0)
(10.1561 1.45198 0)
(10.1983 1.6337 0)
(10.2476 1.82187 0)
(10.3049 2.01673 0)
(10.3712 2.21839 0)
(10.4474 2.42678 0)
(10.5347 2.64167 0)
(10.6343 2.86263 0)
(10.7474 3.08899 0)
(10.8753 3.31984 0)
(11.0191 3.55399 0)
(11.1802 3.78993 0)
(11.3595 4.02581 0)
(11.558 4.25946 0)
(11.7764 4.48832 0)
(12.0149 4.70956 0)
(12.2733 4.92005 0)
(12.5508 5.11651 0)
(12.8459 5.29562 0)
(13.1566 5.45422 0)
(13.4776 5.58937 0)
(13.8412 5.69958 0)
(10.0019 0.154343 0)
(10.0084 0.306498 0)
(10.0199 0.458029 0)
(10.0361 0.610346 0)
(10.0571 0.764567 0)
(10.083 0.921619 0)
(10.1142 1.08229 0)
(10.1512 1.24726 0)
(10.1946 1.41704 0)
(10.245 1.59204 0)
(10.3031 1.77253 0)
(10.3695 1.95861 0)
(10.4453 2.15026 0)
(10.5313 2.34728 0)
(10.6283 2.54931 0)
(10.7374 2.75578 0)
(10.8596 2.96592 0)
(10.9957 3.17874 0)
(11.1468 3.39298 0)
(11.3136 3.60715 0)
(11.4967 3.8195 0)
(11.6967 4.02802 0)
(11.9137 4.23046 0)
(12.1474 4.42441 0)
(12.3973 4.60733 0)
(12.6623 4.77662 0)
(12.9409 4.92981 0)
(13.2309 5.06462 0)
(13.528 5.17906 0)
(13.8611 5.27228 0)
(10.0024 0.15069 0)
(10.0102 0.299197 0)
(10.0241 0.446956 0)
(10.0438 0.595269 0)
(10.0689 0.745151 0)
(10.0997 0.897437 0)
(10.1366 1.05282 0)
(10.1799 1.21187 0)
(10.2302 1.37502 0)
(10.2879 1.54256 0)
(10.3538 1.71464 0)
(10.4283 1.89128 0)
(10.5123 2.07233 0)
(10.6065 2.25751 0)
(10.7116 2.44635 0)
(10.8284 2.6382 0)
(10.9576 2.83223 0)
(11.0999 3.02743 0)
(11.2559 3.22255 0)
(11.426 3.41619 0)
(11.6107 3.60672 0)
(11.8099 3.79236 0)
(12.0235 3.97119 0)
(12.251 4.14119 0)
(12.4915 4.30034 0)
(12.7439 4.44665 0)
(13.0066 4.57826 0)
(13.2777 4.69358 0)
(13.5534 4.79127 0)
(13.8602 4.8709 0)
(10.0027 0.146244 0)
(10.0119 0.290321 0)
(10.0281 0.433541 0)
(10.0508 0.577086 0)
(10.0798 0.721876 0)
(10.1152 0.86865 0)
(10.1572 1.01801 0)
(10.2062 1.17043 0)
(10.2626 1.32625 0)
(10.3269 1.48567 0)
(10.3995 1.64875 0)
(10.481 1.81542 0)
(10.572 1.98546 0)
(10.673 2.15849 0)
(10.7846 2.33399 0)
(10.9074 2.51129 0)
(11.0418 2.68953 0)
(11.1884 2.86771 0)
(11.3474 3.04466 0)
(11.519 3.21908 0)
(11.7033 3.38952 0)
(11.9001 3.55444 0)
(12.1089 3.71223 0)
(12.3292 3.86125 0)
(12.5599 3.99989 0)
(12.7999 4.12665 0)
(13.0477 4.24018 0)
(13.3015 4.33936 0)
(13.5583 4.42332 0)
(13.842 4.4919 0)
(10.0031 0.141023 0)
(10.0134 0.279911 0)
(10.0317 0.417844 0)
(10.0573 0.555889 0)
(10.0898 0.694868 0)
(10.1293 0.835429 0)
(10.1759 0.978088 0)
(10.23 1.12323 0)
(10.2919 1.27111 0)
(10.3618 1.42186 0)
(10.4403 1.57545 0)
(10.5277 1.73175 0)
(10.6244 1.89048 0)
(10.7309 2.05122 0)
(10.8476 2.21341 0)
(10.9749 2.37637 0)
(11.113 2.53928 0)
(11.2622 2.70117 0)
(11.4225 2.86098 0)
(11.5941 3.01753 0)
(11.7766 3.16957 0)
(11.9697 3.31579 0)
(12.173 3.45485 0)
(12.3855 3.58546 0)