/*--------------------------------*- C++ -*----------------------------------*\
| =========                 |                                                 |
| \\      /  F ield         | OpenFOAM: The Open Source CFD Toolbox           |
|  \\    /   O peration     | Version:  2006                                  |
|   \\  /    A nd           | Website:  www.openfoam.com                      |
|    \\/     M anipulation  |                                                 |
\*---------------------------------------------------------------------------*/
FoamFile
{
    version     2.0;
    format      ascii;
    class       surfaceVectorField;
    location    "6.2";
    object      Uf;
}
// * * * * * * * * * * * * * * * * * * * * * * * * * * * * * * * * * * * * * //

dimensions      [0 1 -1 0 0 0 0];


internalField   nonuniform List<vector> 
5457
(
(9.92088 0.0251095 0)
(9.97125 0.0387456 0)
(9.82402 0.0328266 0)
(9.92859 0.0485848 0)
(9.70961 0.0393118 0)
(9.85548 0.0587677 0)
(9.57544 0.0460113 0)
(9.7568 0.0705928 0)
(9.42138 0.0529486 0)
(9.63754 0.0830128 0)
(9.24755 0.0601659 0)
(9.49862 0.0959359 0)
(9.05363 0.0678107 0)
(9.33931 0.109612 0)
(8.83893 0.0760343 0)
(9.15875 0.124288 0)
(8.60253 0.0849701 0)
(8.9561 0.140167 0)
(8.34327 0.0947449 0)
(8.73039 0.157433 0)
(8.05986 0.105487 0)
(8.48041 0.17627 0)
(7.75081 0.117328 0)
(8.20478 0.196858 0)
(7.41457 0.130396 0)
(7.90196 0.219363 0)
(7.04951 0.144812 0)
(7.57031 0.243925 0)
(6.65404 0.160674 0)
(7.20819 0.270635 0)
(6.22672 0.178046 0)
(6.814 0.299504 0)
(5.76643 0.196931 0)
(6.38634 0.330418 0)
(5.27258 0.217236 0)
(5.92417 0.363089 0)
(4.74538 0.238739 0)
(5.42711 0.396981 0)
(4.1862 0.261035 0)
(4.89566 0.431242 0)
(3.59797 0.283491 0)
(4.33164 0.464624 0)
(2.98555 0.305205 0)
(3.73861 0.495429 0)
(2.35612 0.325071 0)
(3.12227 0.521516 0)
(1.7191 0.34255 0)
(2.49107 0.54056 0)
(1.08435 0.361883 0)
(1.85586 0.551675 0)
(0.451832 0.348683 0)
(1.24548 0.563022 0)
(-0.145841 0.102463 0)
(0.608912 0.544879 0)
(-0.423621 -0.207096 0)
(0.0946625 0.259369 0)
(-0.402157 -0.361259 0)
(-0.133673 -0.0205268 0)
(-0.119681 -0.393888 0)
(9.99641 0.051672 0)
(9.99705 0.0405042 0)
(9.95879 0.0708609 0)
(9.97851 0.0674538 0)
(9.89824 0.087986 0)
(9.93377 0.089869 0)
(9.81659 0.105984 0)
(9.86453 0.113554 0)
(9.71359 0.124921 0)
(9.77438 0.138513 0)
(9.58909 0.144853 0)
(9.66436 0.164645 0)
(9.44275 0.166089 0)
(9.53398 0.192331 0)
(9.27391 0.188967 0)
(9.3825 0.22203 0)
(9.08167 0.213783 0)
(9.2092 0.254148 0)
(8.86491 0.240816 0)
(9.01317 0.289064 0)
(8.62231 0.270338 0)
(8.79332 0.327153 0)
(8.3524 0.302609 0)
(8.54837 0.368788 0)
(8.05357 0.33786 0)
(8.27684 0.414319 0)
(7.72412 0.376266 0)
(7.97718 0.46405 0)
(7.36238 0.417907 0)
(7.64772 0.518194 0)
(6.96673 0.462713 0)
(7.28683 0.576813 0)
(6.53583 0.510393 0)
(6.89296 0.639733 0)
(6.06883 0.56034 0)
(6.46481 0.706436 0)
(5.56559 0.611528 0)
(6.0016 0.775918 0)
(5.0271 0.662391 0)
(5.50326 0.846533 0)
(4.45587 0.710714 0)
(4.97089 0.915815 0)
(3.85649 0.753545 0)
(4.40718 0.980314 0)
(3.23619 0.7872 0)
(3.81703 1.03546 0)
(2.60581 0.807503 0)
(3.20845 1.07549 0)
(1.98279 0.810468 0)
(2.59339 1.09315 0)
(1.40528 0.776896 0)
(1.9962 1.07708 0)
(0.929747 0.646399 0)
(1.41949 0.978407 0)
(0.439851 0.384336 0)
(0.937569 0.716794 0)
(0.0591697 -0.118617 0)
(0.443787 0.343521 0)
(0.174919 -0.335935 0)
(9.98903 0.0594302 0)
(9.99481 0.0458769 0)
(9.95434 0.0894755 0)
(9.97368 0.0848532 0)
(9.8973 0.11803 0)
(9.92984 0.119172 0)
(9.82047 0.147897 0)
(9.86357 0.153974 0)
(9.72417 0.17942 0)
(9.77736 0.190406 0)
(9.60822 0.212774 0)
(9.67227 0.228635 0)
(9.47235 0.248391 0)
(9.5481 0.269127 0)
(9.31608 0.286773 0)
(9.40432 0.312495 0)
(9.13869 0.328396 0)
(9.24035 0.359324 0)
(8.93925 0.373721 0)
(9.0555 0.410173 0)
(8.71665 0.423206 0)
(8.8489 0.465598 0)
(8.46961 0.477297 0)
(8.61952 0.526153 0)
(8.19668 0.5364 0)
(8.36616 0.592374 0)
(7.89633 0.600844 0)
(8.08753 0.66474 0)
(7.56692 0.670813 0)
(7.7822 0.743621 0)
(7.20684 0.74626 0)
(7.44874 0.829193 0)
(6.81457 0.826787 0)
(7.08569 0.921324 0)
(6.38888 0.911488 0)
(6.69171 1.01941 0)
(5.92903 0.998764 0)
(6.26572 1.12218 0)
(5.43514 1.0861 0)
(5.80712 1.22743 0)
(4.90855 1.16983 0)
(5.31608 1.33175 0)
(4.35243 1.2449 0)
(4.79397 1.4302 0)
(3.77259 1.30455 0)
(4.24397 1.51588 0)
(3.17873 1.33984 0)
(3.67181 1.57943 0)
(2.58663 1.33812 0)
(3.08632 1.60775 0)
(2.01986 1.27297 0)
(2.50292 1.58158 0)
(1.48694 1.09541 0)
(1.92874 1.46425 0)
(0.958298 0.769169 0)
(1.38525 1.2104 0)
(0.479878 0.202449 0)
(0.829543 0.801036 0)
(0.433731 0.134077 0)
(9.98515 0.0716129 0)
(9.99367 0.0531471 0)
(9.95039 0.113629 0)
(9.97088 0.102289 0)
(9.89437 0.154131 0)
(9.92691 0.147952 0)
(9.81882 0.195571 0)
(9.86185 0.193719 0)
(9.72442 0.238809 0)
(9.77746 0.241275 0)
(9.61113 0.284322 0)
(9.67467 0.291161 0)
(9.47875 0.332718 0)
(9.55343 0.343953 0)
(9.32695 0.384672 0)
(9.41336 0.400369 0)
(9.15524 0.440845 0)
(9.25401 0.461137 0)
(8.96292 0.501883 0)
(9.07485 0.52696 0)
(8.74917 0.568428 0)
(8.87521 0.598535 0)
(8.51305 0.641113 0)
(8.65431 0.676562 0)
(8.25347 0.720532 0)
(8.41123 0.761722 0)
(7.96926 0.807192 0)
(8.145 0.854639 0)
(7.65918 0.901441 0)
(7.85455 0.955822 0)
(7.32193 1.00335 0)
(7.53876 1.06557 0)
(6.95621 1.11258 0)
(7.19646 1.18385 0)
(6.56085 1.22814 0)
(6.82653 1.31009 0)
(6.13489 1.34818 0)
(6.42789 1.44292 0)
(5.67784 1.4696 0)
(5.99966 1.57991 0)
(5.19 1.58778 0)
(5.54134 1.71709 0)
(4.67286 1.69603 0)
(5.05305 1.84855 0)
(4.1298 1.78515 0)
(4.53596 1.96584 0)
(3.56665 1.84253 0)
(3.99273 2.05731 0)
(2.99205 1.85072 0)
(3.4276 2.10714 0)
(2.41584 1.78249 0)
(2.84763 2.09448 0)
(1.84054 1.60045 0)
(2.25623 1.98873 0)
(1.25939 1.27842 0)
(1.66032 1.75304 0)
(0.666775 0.789533 0)
(1.02396 1.36776 0)
(0.523036 0.787142 0)
(9.98337 0.0844061 0)
(9.99316 0.0612904 0)
(9.94821 0.136835 0)
(9.96959 0.119925 0)
(9.89315 0.188029 0)
(9.92575 0.176237 0)
(9.81907 0.240166 0)
(9.862 0.232695 0)
(9.72663 0.294464 0)
(9.77964 0.291083 0)
(9.6159 0.351655 0)
(9.6794 0.35227 0)
(9.48672 0.412466 0)
(9.56128 0.416973 0)
(9.33879 0.477672 0)
(9.42497 0.486004 0)
(9.17171 0.548047 0)
(9.2701 0.5602 0)
(8.98493 0.624351 0)
(9.09621 0.640383 0)
(8.77779 0.707341 0)
(8.90275 0.727365 0)
(8.54954 0.797763 0)
(8.68908 0.821954 0)
(8.29936 0.896326 0)
(8.45445 0.924941 0)
(8.02635 1.00365 0)
(8.19808 1.03706 0)
(7.72958 1.12021 0)
(7.91913 1.15892 0)
(7.40806 1.24617 0)
(7.6167 1.29093 0)
(7.06077 1.38128 0)
(7.28986 1.43315 0)
(6.68669 1.52459 0)
(6.93763 1.58511 0)
(6.28485 1.6742 0)
(6.55899 1.74551 0)
(5.85438 1.8268 0)
(6.15287 1.91189 0)
(5.3947 1.97726 0)
(5.71821 2.08017 0)
(4.90575 2.11806 0)
(5.25407 2.2441 0)
(4.38824 2.23861 0)
(4.75973 2.39461 0)
(3.84394 2.32455 0)
(4.23494 2.5192 0)
(3.27543 2.35695 0)
(3.67988 2.60124 0)
(2.68539 2.31059 0)
(3.09571 2.6197 0)
(2.07269 2.155 0)
(2.48168 2.54731 0)
(1.42938 1.86739 0)
(1.83991 2.35371 0)
(0.742611 1.41956 0)
(1.13136 2.02451 0)
(0.543305 1.51448 0)
(9.98264 0.097496 0)
(9.99299 0.0697916 0)
(9.94744 0.159772 0)
(9.96925 0.137581 0)
(9.89354 0.221344 0)
(9.92597 0.203923 0)
(9.82134 0.284088 0)
(9.86381 0.270684 0)
(9.73134 0.349343 0)
(9.78386 0.339577 0)
(9.62367 0.418014 0)
(9.68665 0.411692 0)
(9.4982 0.490933 0)
(9.57219 0.487897 0)
(9.35466 0.568969 0)
(9.44022 0.569099 0)
(9.1927 0.652999 0)
(9.29044 0.656228 0)
(9.01184 0.743893 0)
(9.12243 0.750209 0)
(8.81152 0.842513 0)
(8.93572 0.851953 0)
(8.59109 0.949707 0)
(8.72974 0.962364 0)
(8.34986 1.06628 0)
(8.50383 1.08232 0)
(8.08707 1.19296 0)
(8.25729 1.21265 0)
(7.80193 1.33031 0)
(7.98938 1.35405 0)
(7.4936 1.4786 0)
(7.6993 1.50703 0)
(7.16119 1.6377 0)
(7.38617 1.67177 0)
(6.80372 1.80676 0)
(7.04903 1.84793 0)
(6.42011 1.98398 0)
(6.68675 2.03437 0)
(6.00912 2.16615 0)
(6.29801 2.22885 0)
(5.5694 2.34812 0)
(5.88119 2.4275 0)
(5.09945 2.52222 0)
(5.43433 2.62427 0)
(4.59773 2.67757 0)
(4.9551 2.81031 0)
(4.06269 2.7995 0)
(4.44083 2.97323 0)
(3.49269 2.86911 0)
(3.8885 3.09663 0)
(2.88582 2.86291 0)
(3.29522 3.1599 0)
(2.23801 2.75392 0)
(2.65689 3.1379 0)
(1.54243 2.52102 0)
(1.97483 3.00318 0)
(0.793645 2.13132 0)
(1.20723 2.74058 0)
(0.556734 2.29181 0)
(9.9825 0.110624 0)
(9.99302 0.0783599 0)
(9.94771 0.182321 0)
(9.96954 0.155034 0)
(9.89523 0.253813 0)
(9.92722 0.230881 0)
(9.82524 0.326761 0)
(9.86697 0.307503 0)
(9.73814 0.402549 0)
(9.78978 0.386516 0)
(9.63404 0.482227 0)
(9.69606 0.469141 0)
(9.51286 0.56675 0)
(9.5858 0.55639 0)
(9.37439 0.657086 0)
(9.45881 0.649263 0)
(9.21829 0.754207 0)
(9.31482 0.74878 0)
(9.04415 0.859079 0)
(9.15348 0.855956 0)
(8.85146 0.972659 0)
(8.97435 0.971796 0)
(8.63964 1.09588 0)
(8.77692 1.09729 0)
(8.40804 1.22964 0)
(8.56059 1.23342 0)
(8.15596 1.37475 0)
(8.32471 1.38108 0)
(7.88265 1.53187 0)
(8.06854 1.54109 0)
(7.58728 1.70139 0)
(7.79126 1.71406 0)
(7.2689 1.88331 0)
(7.49197 1.90032 0)
(6.92643 2.07699 0)
(7.16955 2.09972 0)
(6.55851 2.28087 0)
(6.82266 2.31141 0)
(6.16346 2.49207 0)
(6.44959 2.53351 0)
(5.73912 2.70586 0)
(6.04809 2.76267 0)
(5.28272 2.91501 0)
(5.61523 2.99349 0)
(4.79082 3.10917 0)
(5.14723 3.21787 0)
(4.25928 3.27421 0)
(4.63937 3.42429 0)
(3.68338 3.39186 0)
(4.08604 3.59715 0)
(3.05803 3.43968 0)
(3.4813 3.71654 0)
(2.37772 3.39178 0)
(2.81835 3.75812 0)
(1.6379 3.22616 0)
(2.09914 3.69397 0)
(0.839125 2.90083 0)
(1.27891 3.50446 0)
(0.573355 3.11368 0)
(9.98273 0.123579 0)
(9.99316 0.0868156 0)
(9.94873 0.204305 0)
(9.97027 0.172089 0)
(9.89794 0.285247 0)
(9.92927 0.25697 0)
(9.83051 0.367959 0)
(9.87124 0.342981 0)
(9.74671 0.453844 0)
(9.79716 0.431671 0)
(9.64669 0.544069 0)
(9.70735 0.524342 0)
(9.53039 0.639699 0)
(9.60181 0.622126 0)
(9.39763 0.741792 0)
(9.48039 0.726117 0)
(9.24814 0.851407 0)
(9.34287 0.837416 0)
(9.08154 0.9696 0)
(9.18895 0.957124 0)
(8.89738 1.09742 0)
(9.01826 1.08634 0)
(8.69511 1.23588 0)
(8.83031 1.22613 0)
(8.47414 1.38598 0)
(8.62456 1.37758 0)
(8.23378 1.54863 0)
(8.40038 1.54169 0)
(7.97324 1.72461 0)
(8.15703 1.71938 0)
(7.69162 1.91446 0)
(7.89365 1.91144 0)
(7.38786 2.11836 0)
(7.60921 2.11837 0)
(7.06063 2.33598 0)
(7.30243 2.34031 0)
(6.70821 2.56614 0)
(6.97166 2.57678 0)
(6.32836 2.80651 0)
(6.61472 2.82646 0)
(5.9181 3.05307 0)
(6.22871 3.08673 0)
(5.47345 3.29955 0)
(5.80974 3.3532 0)
(4.9893 3.53667 0)
(5.35264 3.61901 0)
(4.45932 3.75143 0)
(4.85086 3.87401 0)
(3.8762 3.92647 0)
(4.2964 4.10395 0)
(3.23231 4.03985 0)
(3.68053 4.28969 0)
(2.52081 4.06497 0)
(2.99349 4.40676 0)
(1.73836 3.97611 0)
(2.23736 4.42456 0)
(0.889464 3.71873 0)
(1.36334 4.31626 0)
(0.598745 3.98486 0)
(9.98321 0.136201 0)
(9.99339 0.0950383 0)
(9.95032 0.225567 0)
(9.97131 0.188585 0)
(9.90151 0.31549 0)
(9.93193 0.282043 0)
(9.83694 0.407496 0)
(9.87644 0.376952 0)
(9.75684 0.503003 0)
(9.8058 0.474831 0)
(9.66136 0.603267 0)
(9.72031 0.57704 0)
(9.55047 0.709449 0)
(9.61997 0.684804 0)
(9.42405 0.822691 0)
(9.50466 0.799305 0)
(9.28185 0.944136 0)
(9.37424 0.921724 0)
(9.12358 1.07492 0)
(9.22845 1.05324 0)
(8.94881 1.21618 0)
(9.06697 1.19503 0)
(8.75707 1.36904 0)
(8.8894 1.34827 0)
(8.54778 1.53458 0)
(8.69522 1.51412 0)
(8.32027 1.71384 0)
(8.48384 1.69371 0)
(8.07372 1.90775 0)
(8.25453 1.88811 0)
(7.80715 2.11704 0)
(8.00638 2.09827 0)
(7.51934 2.34217 0)
(7.73827 2.32498 0)
(7.20869 2.58317 0)
(7.44875 2.5687 0)
(6.87311 2.83941 0)
(7.13586 2.82947 0)
(6.50978 3.10929 0)
(6.79702 3.10666 0)
(6.11488 3.38983 0)
(6.42868 3.39864 0)
(5.68331 3.67605 0)
(6.02605 3.70233 0)
(5.20837 3.96023 0)
(5.58268 4.01251 0)
(4.68164 4.231 0)
(5.0902 4.32099 0)
(4.09316 4.47232 0)
(4.53814 4.6154 0)
(3.43239 4.66253 0)
(3.91456 4.87786 0)
(2.69002 4.77312 0)
(3.20554 5.08356 0)
(1.86176 4.77235 0)
(2.41115 5.19792 0)
(0.954131 4.58966 0)
(1.47619 5.18423 0)
(0.639152 4.91937 0)
(9.98386 0.148366 0)
(9.99368 0.102941 0)
(9.95235 0.245965 0)
(9.97261 0.20439 0)
(9.90579 0.344392 0)
(9.9351 0.305963 0)
(9.84438 0.44519 0)
(9.88241 0.409262 0)
(9.76834 0.549801 0)
(9.81552 0.515807 0)
(9.67781 0.659548 0)
(9.73472 0.627 0)
(9.57282 0.775676 0)
(9.64 0.744146 0)
(9.45329 0.899406 0)
(9.53131 0.868504 0)
(9.31903 1.03196 0)
(9.40855 1.00133 0)
(9.1698 1.17454 0)
(9.27153 1.14386 0)
(9.00525 1.32839 0)
(9.12001 1.29737 0)
(8.82494 1.49471 0)
(8.95363 1.46312 0)
(8.62837 1.6747 0)
(8.77196 1.64236 0)
(8.41487 1.86954 0)
(8.57445 1.83636 0)
(8.18363 2.08033 0)
(8.3604 2.04635 0)
(7.93363 2.30806 0)
(8.12892 2.2735 0)
(7.6635 2.55352 0)
(7.87883 2.51889 0)
(7.37145 2.8172 0)
(7.60856 2.78341 0)
(7.05506 3.09914 0)
(7.31599 3.06771 0)
(6.71102 3.39868 0)
(6.99821 3.37199 0)
(6.33479 3.71411 0)
(6.65118 3.69581 0)
(5.92023 4.04213 0)
(6.26938 4.0377 0)
(5.45913 4.37709 0)
(5.84527 4.39456 0)
(4.9409 4.70991 0)
(5.36872 4.76076 0)
(4.35253 5.02654 0)
(4.8266 5.12676 0)
(3.67938 5.30616 0)
(4.20296 5.47706 0)
(2.90731 5.51812 0)
(3.47767 5.78743 0)
(2.0275 5.62291 0)
(2.64482 6.01942 0)
(1.04501 5.52933 0)
(1.63756 6.12379 0)
(0.704394 5.94289 0)
(9.98465 0.159978 0)
(9.99402 0.11046 0)
(9.95473 0.265376 0)
(9.97409 0.219395 0)
(9.91065 0.371813 0)
(9.93868 0.328605 0)
(9.85267 0.480875 0)
(9.88905 0.439767 0)
(9.78101 0.594034 0)
(9.82619 0.554423 0)
(9.69582 0.712669 0)
(9.75039 0.674013 0)
(9.59717 0.838095 0)
(9.66168 0.799904 0)
(9.48504 0.971603 0)
(9.56004 0.933422 0)
(9.35929 1.11448 0)
(9.44545 1.07588 0)
(9.21975 1.26802 0)
(9.31778 1.2286 0)
(9.06615 1.43351 0)
(9.17686 1.3929 0)
(8.89813 1.61227 0)
(9.02243 1.57014 0)
(8.71524 1.80563 0)
(8.85413 1.76168 0)
(8.51688 2.01489 0)
(8.67148 1.9689 0)
(8.30228 2.24137 0)
(8.47388 2.19321 0)
(8.07042 2.48631 0)
(8.26047 2.43601 0)
(7.81991 2.75091 0)
(8.03014 2.69872 0)
(7.54885 3.03621 0)
(7.78132 2.9827 0)
(7.25465 3.34301 0)
(7.51185 3.28924 0)
(6.93368 3.67174 0)
(7.21869 3.61953 0)
(6.58093 4.02222 0)
(6.89763 3.97444 0)
(6.18944 4.39319 0)
(6.54271 4.3544 0)
(5.74973 4.78168 0)
(6.14567 4.75888 0)
(5.24904 5.18178 0)
(5.695 5.18563 0)
(4.67082 5.58285 0)
(5.17496 5.62929 0)
(3.99475 5.96656 0)
(4.56492 6.07885 0)
(3.19824 6.30166 0)
(3.83612 6.51358 0)
(2.2616 6.54056 0)
(2.97059 6.89397 0)
(1.18049 6.56491 0)
(1.87893 7.15766 0)
(0.812694 7.09911 0)
(9.98554 0.170959 0)
(9.9944 0.117544 0)
(9.95739 0.283692 0)
(9.97572 0.233514 0)
(9.91601 0.397627 0)
(9.94259 0.349861 0)
(9.8617 0.514401 0)
(9.89624 0.468341 0)
(9.79469 0.635523 0)
(9.83765 0.590528 0)
(9.71518 0.762415 0)
(9.76714 0.717896 0)
(9.62326 0.896453 0)
(9.68477 0.85186 0)
(9.51896 1.03899 0)
(9.59057 0.993803 0)
(9.40223 1.19136 0)
(9.48458 1.14509 0)
(9.27296 1.35493 0)
(9.36676 1.3071 0)
(9.13096 1.53107 0)
(9.23701 1.48122 0)
(8.97599 1.72118 0)
(9.09517 1.66886 0)
(8.80766 1.92669 0)
(8.94099 1.87149 0)
(8.62549 2.14908 0)
(8.77411 2.09062 0)
(8.4288 2.38984 0)
(8.59404 2.32781 0)
(8.21664 2.65053 0)
(8.40005 2.58471 0)
(7.98772 2.93273 0)
(8.19117 2.86305 0)
(7.7402 3.23807 0)
(7.96597 3.16468 0)
(7.4715 3.5682 0)
(7.72246 3.49157 0)
(7.178 3.92474 0)
(7.45777 3.84588 0)
(6.85455 4.30919 0)
(7.16784 4.22993 0)
(6.49387 4.7227 0)
(6.84686 4.64618 0)
(6.08571 5.16559 0)
(6.48648 5.09706 0)
(5.61561 5.63637 0)
(6.07467 5.58455 0)
(5.0635 6.12986 0)
(5.59395 6.10914 0)
(4.40207 6.63377 0)
(5.01946 6.66761 0)
(3.59593 7.12113 0)
(4.31234 7.24852 0)
(2.6041 7.54043 0)
(3.43539 7.82006 0)
(1.39413 7.74013 0)
(2.25617 8.31475 0)
(1.00244 8.46458 0)
(9.9865 0.181248 0)
(9.9948 0.124153 0)
(9.96027 0.300825 0)
(9.97747 0.246674 0)
(9.92177 0.421723 0)
(9.94676 0.369637 0)
(9.87134 0.545638 0)
(9.90388 0.494874 0)
(9.80924 0.674109 0)
(9.84978 0.62399 0)
(9.73569 0.808598 0)
(9.7848 0.75849 0)
(9.65082 0.950527 0)
(9.70904 0.899829 0)
(9.55473 1.10129 0)
(9.6226 1.04943 0)
(9.44745 1.26229 0)
(9.52557 1.2087 0)
(9.32893 1.43494 0)
(9.41801 1.37907 0)
(9.19911 1.62065 0)
(9.29991 1.56196 0)
(9.05783 1.82093 0)
(9.17122 1.75886 0)
(8.90484 2.03729 0)
(9.0318 1.9713 0)
(8.73978 2.27134 0)
(8.88145 2.20091 0)
(8.56214 2.52479 0)
(8.71984 2.44938 0)
(8.37114 2.79945 0)
(8.54646 2.71858 0)
(8.16568 3.09731 0)
(8.36054 3.01054 0)
(7.94418 3.42056 0)
(8.16098 3.32753 0)
(7.70434 3.77167 0)
(7.94613 3.67217 0)
(7.44287 4.15345 0)
(7.71363 4.04753 0)
(7.15503 4.56917 0)
(7.46003 4.45728 0)
(6.83395 5.02256 0)
(7.18032 4.90593 0)
(6.46955 5.51773 0)
(6.86709 5.39898 0)
(6.04697 6.05881 0)
(6.50929 5.94315 0)
(5.54396 6.64882 0)
(6.08997 6.54631 0)
(4.9269 7.28703 0)
(5.58296 7.21688 0)
(4.14474 7.96136 0)
(4.94224 7.96158 0)
(3.12144 8.63334 0)
(4.10891 8.77554 0)
(1.75598 9.12737 0)
(2.87799 9.62055 0)
(1.36442 10.1845 0)
(9.98754 0.190794 0)
(9.99523 0.130257 0)
(9.96333 0.316699 0)
(9.97932 0.258817 0)
(9.92786 0.444011 0)
(9.95115 0.387858 0)
(9.88148 0.574475 0)
(9.91188 0.519272 0)
(9.82449 0.709663 0)
(9.86244 0.654698 0)
(9.75713 0.851068 0)
(9.80318 0.795665 0)
(9.6796 1.00015 0)
(9.73426 0.943656 0)
(9.59203 1.15833 0)
(9.65584 1.10012 0)
(9.49453 1.32705 0)
(9.56807 1.26651 0)
(9.38718 1.50776 0)
(9.4711 1.44426 0)
(9.26999 1.70194 0)
(9.36502 1.63485 0)
(9.14293 1.91113 0)
(9.2499 1.83979 0)
(9.00591 2.13693 0)
(9.12575 2.06069 0)
(8.85875 2.38108 0)
(8.99255 2.29924 0)
(8.70112 2.64543 0)
(8.85015 2.55725 0)
(8.53252 2.93203 0)
(8.69832 2.83675 0)
(8.35217 3.24321 0)
(8.53662 3.14001 0)
(8.15889 3.58163 0)
(8.36436 3.46963 0)
(7.95096 3.9505 0)
(8.18048 3.82874 0)
(7.72581 4.35369 0)
(7.98338 4.22116 0)
(7.47971 4.79607 0)
(7.77071 4.65167 0)
(7.20708 5.28381 0)
(7.53897 5.12647 0)
(6.89954 5.8249 0)
(7.28291 5.65379 0)
(6.54413 6.4297 0)
(6.99455 6.24474 0)
(6.12009 7.11159 0)
(6.66116 6.91485 0)
(5.59268 7.88771 0)
(6.26215 7.68634 0)
(4.90041 8.77788 0)
(5.75709 8.5927 0)
(3.9263 9.80127 0)
(5.08666 9.68509 0)
(2.43269 10.856 0)
(3.97866 11.0489 0)
(2.14558 12.5671 0)
(9.98862 0.199557 0)
(9.99567 0.135832 0)
(9.96652 0.331253 0)
(9.98124 0.269898 0)
(9.9342 0.464406 0)
(9.95571 0.404461 0)
(9.89203 0.600806 0)
(9.92017 0.541461 0)
(9.84031 0.742049 0)
(9.87553 0.682565 0)
(9.77933 0.88965 0)
(9.82217 0.829319 0)
(9.70933 1.04509 0)
(9.76029 0.983221 0)
(9.63053 1.20983 0)
(9.69012 1.14575 0)
(9.54309 1.38532 0)
(9.61187 1.31835 0)
(9.4472 1.57303 0)
(9.52579 1.50249 0)
(9.34298 1.77449 0)
(9.43209 1.69966 0)
(9.23055 1.99126 0)
(9.33095 1.91141 0)
(9.10998 2.225 0)
(9.22256 2.13935 0)
(8.98129 2.47753 0)
(9.10708 2.38523 0)
(8.84441 2.7508 0)
(8.9846 2.65092 0)
(8.69917 3.04705 0)
(8.8552 2.93855 0)
(8.5452 3.36882 0)
(8.71883 3.25053 0)
(8.3819 3.71916 0)
(8.57534 3.58969 0)
(8.20832 4.10177 0)
(8.42438 3.95945 0)
(8.02299 4.5213 0)
(8.26539 4.36408 0)
(7.82374 4.98381 0)
(8.09744 4.80906 0)
(7.60725 5.49734 0)
(7.91919 5.30161 0)
(7.36851 6.07294 0)
(7.72864 5.85159 0)
(7.09958 6.72625 0)
(7.52292 6.47295 0)
(6.7873 7.48047 0)
(7.29777 7.18626 0)
(6.4081 8.37231 0)
(7.04771 8.02388 0)
(5.91495 9.46618 0)
(6.76251 9.0423 0)
(5.19523 10.9082 0)
(6.46111 10.3571 0)
(3.8834 13.1777 0)
(6.18827 12.3034 0)
(5.25638 16.3707 0)
(0.186382 -0.10999 0)
(0.109297 -0.18255 0)
(0.361882 -0.0921395 0)
(0.265374 -0.167832 0)
(0.504178 -0.0689963 0)
(0.418982 -0.132864 0)
(0.61292 -0.0485389 0)
(0.546373 -0.0991363 0)
(0.692941 -0.032156 0)
(0.643765 -0.0712294 0)
(0.749686 -0.019571 0)
(0.715917 -0.0493181 0)
(0.788135 -0.0101957 0)
(0.768661 -0.0326268 0)
(0.812632 -0.00345023 0)
(0.806866 -0.0202975 0)
(0.826872 0.00119216 0)
(0.834339 -0.0115197 0)
(0.833895 0.0041978 0)
(0.854088 -0.00554683 0)
(0.836148 0.00594813 0)
(0.868488 -0.00173768 0)
(0.835572 0.00671558 0)
(0.879366 0.000433455 0)
(0.833375 0.00679482 0)
(0.888069 0.00161543 0)
(0.830736 0.00647615 0)
(0.895593 0.0018945 0)
(0.828372 0.00592439 0)
(0.902688 0.00165713 0)
(0.826754 0.00525523 0)
(0.909868 0.00110712 0)
(0.826104 0.00458828 0)
(0.917433 0.000434149 0)
(0.826407 0.00404655 0)
(0.925484 -0.000197201 0)
(0.827328 0.00371817 0)
(0.933936 -0.000587056 0)
(0.828343 0.00365174 0)
(0.942552 -0.000631415 0)
(0.828888 0.00382933 0)
(0.950967 -0.000330666 0)
(0.828472 0.0041514 0)
(0.958751 0.000246518 0)
(0.826685 0.00452244 0)
(0.965499 0.00103442 0)
(0.823342 0.00489062 0)
(0.970907 0.00188961 0)
(0.818347 0.0052232 0)
(0.97483 0.00275693 0)
(0.811638 0.00548937 0)
(0.977198 0.00361479 0)
(0.80321 0.00566944 0)
(0.977969 0.00443422 0)
(0.793073 0.00565393 0)
(0.976862 0.0052074 0)
(0.782132 0.0049128 0)
(0.97414 0.00548768 0)
(0.970446 0.00413785 0)
(0.172602 -0.264206 0)
(0.0912563 -0.351603 0)
(0.336883 -0.228647 0)
(0.236021 -0.324935 0)
(0.473368 -0.178324 0)
(0.370711 -0.260303 0)
(0.581939 -0.13301 0)
(0.483759 -0.198117 0)
(0.66711 -0.0964174 0)
(0.572252 -0.147043 0)
(0.733656 -0.0680865 0)
(0.640692 -0.107154 0)
(0.785763 -0.0467582 0)
(0.693923 -0.076844 0)
(0.82695 -0.0311604 0)
(0.735841 -0.0544233 0)
(0.860098 -0.0201263 0)
(0.769461 -0.0383354 0)
(0.887473 -0.0126203 0)
(0.797124 -0.0271695 0)
(0.910764 -0.00777926 0)
(0.820607 -0.0196999 0)
(0.93116 -0.00492923 0)
(0.841191 -0.0149246 0)
(0.949731 -0.00350207 0)
(0.859789 -0.0120384 0)
(0.967112 -0.00303116 0)
(0.877088 -0.010582 0)
(0.983861 -0.0031831 0)
(0.893554 -0.0100824 0)
(1.00032 -0.00368813 0)
(0.909535 -0.0101576 0)
(1.01666 -0.00429299 0)
(0.925248 -0.0104851 0)
(1.03293 -0.00476609 0)
(0.940778 -0.0108091 0)
(1.04913 -0.00493202 0)
(0.956171 -0.010907 0)
(1.06519 -0.0046804 0)
(0.971411 -0.0106163 0)
(1.08087 -0.00399046 0)
(0.986388 -0.00985383 0)
(1.0958 -0.0029403 0)
(1.00092 -0.00860508 0)
(1.10965 -0.00165778 0)
(1.01472 -0.00698791 0)
(1.12227 -0.000259977 0)
(1.02767 -0.00524038 0)
(1.13358 0.00120185 0)
(1.03973 -0.00348312 0)
(1.14344 0.00275633 0)
(1.05092 -0.00170232 0)
(1.15163 0.00426972 0)
(1.06117 0.000127991 0)
(1.15777 0.00533948 0)
(1.07035 0.00205441 0)
(1.16255 0.00523338 0)
(1.0782 0.00308857 0)
(1.08611 0.00272858 0)
(0.146058 -0.418729 0)
(0.0712926 -0.494658 0)
(0.280767 -0.363481 0)
(0.193008 -0.453758 0)
(0.390816 -0.286516 0)
(0.295285 -0.363057 0)
(0.477778 -0.217605 0)
(0.381412 -0.277398 0)
(0.546089 -0.162166 0)
(0.447749 -0.207848 0)
(0.59982 -0.119307 0)
(0.499104 -0.153853 0)
(0.642415 -0.0870531 0)
(0.539221 -0.112989 0)
(0.676703 -0.0634313 0)
(0.570977 -0.0828322 0)
(0.704978 -0.0466328 0)
(0.596626 -0.0612088 0)
(0.729005 -0.035042 0)
(0.617945 -0.0461479 0)
(0.750048 -0.0272985 0)
(0.636245 -0.0359283 0)
(0.768998 -0.0223203 0)
(0.65242 -0.0291944 0)
(0.786524 -0.0193199 0)
(0.667052 -0.0249233 0)
(0.803025 -0.0177268 0)
(0.680497 -0.0224276 0)
(0.818827 -0.0170644 0)
(0.693014 -0.0211574 0)
(0.834151 -0.0169312 0)
(0.704809 -0.020645 0)
(0.849145 -0.0169959 0)
(0.716032 -0.0205035 0)
(0.863877 -0.0169872 0)
(0.726783 -0.0204205 0)
(0.878367 -0.0166862 0)
(0.737129 -0.0201369 0)
(0.89258 -0.0159436 0)
(0.747097 -0.0194557 0)
(0.90642 -0.0146934 0)
(0.756668 -0.0182582 0)
(0.919767 -0.0129816 0)
(0.765782 -0.0165189 0)
(0.932564 -0.0109878 0)
(0.774384 -0.0143963 0)
(0.944873 -0.0089117 0)
(0.78247 -0.0121975 0)
(0.956843 -0.00682024 0)
(0.790165 -0.0100893 0)
(0.968568 -0.00462823 0)
(0.797627 -0.00802029 0)
(0.979832 -0.00242568 0)
(0.804864 -0.00579852 0)
(0.990666 -0.000593979 0)
(0.812008 -0.00351087 0)
(1.00044 0.000585786 0)
(0.818251 -0.00181521 0)
(0.824712 -0.000565589 0)
(0.116762 -0.53908 0)
(0.0512047 -0.609019 0)
(0.216352 -0.463115 0)
(0.144144 -0.548995 0)
(0.294025 -0.363503 0)
(0.207732 -0.435582 0)
(0.354201 -0.276268 0)
(0.26358 -0.332259 0)
(0.401002 -0.206885 0)
(0.303916 -0.249507 0)
(0.437525 -0.153563 0)
(0.334761 -0.185596 0)
(0.466271 -0.11359 0)
(0.358333 -0.137382 0)
(0.489229 -0.0844018 0)
(0.376372 -0.101854 0)
(0.508042 -0.0636779 0)
(0.3903 -0.0764279 0)
(0.523926 -0.0493295 0)
(0.401313 -0.0586941 0)
(0.537643 -0.0396221 0)
(0.41026 -0.0465065 0)
(0.5497 -0.0332241 0)
(0.417632 -0.0382736 0)
(0.560409 -0.0291776 0)
(0.423642 -0.0327965 0)
(0.56999 -0.0267969 0)
(0.428345 -0.0293053 0)
(0.578623 -0.025522 0)
(0.431886 -0.0272084 0)
(0.586439 -0.0248871 0)
(0.434399 -0.0259939 0)
(0.593537 -0.0245175 0)
(0.436002 -0.0252464 0)
(0.600002 -0.0241101 0)
(0.43682 -0.0246379 0)
(0.605902 -0.023422 0)
(0.437 -0.0238954 0)
(0.611286 -0.0222805 0)
(0.436674 -0.0228042 0)
(0.616159 -0.0205967 0)
(0.435906 -0.0212174 0)
(0.620451 -0.0184363 0)
(0.434686 -0.0190637 0)
(0.624138 -0.0160675 0)
(0.433002 -0.0165308 0)
(0.627451 -0.0137274 0)
(0.430859 -0.0140699 0)
(0.630667 -0.0114061 0)
(0.428381 -0.0118643 0)
(0.634009 -0.00896041 0)
(0.425668 -0.00982109 0)
(0.637039 -0.00657995 0)
(0.422839 -0.00739237 0)
(0.639406 -0.00484467 0)
(0.420844 -0.00472696 0)
(0.641261 -0.00338382 0)
(0.415302 -0.00274559 0)
(0.407662 -0.000799593 0)
(0.0825676 -0.626839 0)
(0.0299533 -0.689889 0)
(0.142804 -0.529707 0)
(0.0885432 -0.6066 0)
(0.184659 -0.412353 0)
(0.108593 -0.474664 0)
(0.215319 -0.312707 0)
(0.132268 -0.360211 0)
(0.238021 -0.234393 0)
(0.143899 -0.269715 0)
(0.254748 -0.174544 0)
(0.15176 -0.200134 0)
(0.266914 -0.129801 0)
(0.155968 -0.147706 0)
(0.275588 -0.0971759 0)
(0.157243 -0.109041 0)
(0.281812 -0.0740142 0)
(0.156179 -0.0814631 0)
(0.28629 -0.0578605 0)
(0.153494 -0.0622309 0)
(0.289224 -0.0467297 0)
(0.149692 -0.0487699 0)
(0.290781 -0.0391018 0)
(0.144823 -0.0394456 0)
(0.290915 -0.0339032 0)
(0.138755 -0.0328948 0)
(0.289715 -0.0304693 0)
(0.131356 -0.0284439 0)
(0.287308 -0.0282431 0)
(0.122836 -0.0255218 0)
(0.283806 -0.0267483 0)
(0.113344 -0.0235969 0)
(0.279331 -0.0256189 0)
(0.10304 -0.0222563 0)
(0.27405 -0.0245717 0)
(0.0921267 -0.0211929 0)
(0.268137 -0.0233748 0)
(0.0808181 -0.0201289 0)
(0.261733 -0.0218284 0)
(0.0692425 -0.0188212 0)
(0.254917 -0.0197812 0)
(0.0573816 -0.0170784 0)
(0.247585 -0.0172924 0)
(0.0450797 -0.0147162 0)
(0.239564 -0.0147903 0)
(0.0322752 -0.0118874 0)
(0.231255 -0.0128222 0)
(0.0182322 -0.00937319 0)
(0.222979 -0.0113177 0)
(0.00241956 -0.00729699 0)
(0.215115 -0.0094513 0)
(-0.0138934 -0.00558382 0)
(0.206945 -0.00634961 0)
(-0.0294642 -0.0030941 0)
(0.19568 -0.00246377 0)
(-0.0415831 0.00106013 0)
(0.181259 0.000390206 0)
(-0.052514 0.0044872 0)
(-0.0649593 0.00449297 0)
(0.0430804 -0.676992 0)
(0.00630718 -0.732084 0)
(0.0595211 -0.558978 0)
(0.0247199 -0.622322 0)
(0.0630921 -0.429044 0)
(-0.00140217 -0.477998 0)
(0.0623717 -0.322439 0)
(-0.0128475 -0.359554 0)
(0.0584092 -0.239279 0)
(-0.0323964 -0.266187 0)
(0.0523662 -0.176013 0)
(-0.0507743 -0.194882 0)
(0.0447463 -0.128775 0)
(-0.0693411 -0.14124 0)
(0.0358527 -0.0944151 0)
(-0.0881201 -0.101672 0)
(0.0261116 -0.0702038 0)
(-0.107288 -0.0735828 0)
(0.0158034 -0.0532965 0)
(-0.126497 -0.0540888 0)
(0.00464207 -0.041293 0)
(-0.145323 -0.0401622 0)
(-0.00795663 -0.032776 0)
(-0.163888 -0.0299588 0)
(-0.0215941 -0.0268454 0)
(-0.182654 -0.0228684 0)
(-0.0361971 -0.022817 0)
(-0.201843 -0.0179612 0)
(-0.0515423 -0.0201674 0)
(-0.221573 -0.0147664 0)
(-0.067482 -0.0184368 0)
(-0.241781 -0.0126888 0)
(-0.0838524 -0.0173065 0)
(-0.262261 -0.011318 0)
(-0.1005 -0.0165141 0)
(-0.283075 -0.0103322 0)
(-0.117316 -0.0157717 0)
(-0.304326 -0.00941746 0)
(-0.13429 -0.0147116 0)
(-0.326113 -0.00826402 0)
(-0.151572 -0.0128875 0)
(-0.348344 -0.00658406 0)
(-0.169515 -0.00995007 0)
(-0.370587 -0.00407743 0)
(-0.189131 -0.00610948 0)
(-0.391917 -0.000531645 0)
(-0.211461 -0.00248381 0)
(-0.411708 0.00324856 0)
(-0.235056 6.53414e-06 0)
(-0.430851 0.00572482 0)
(-0.257602 0.00199753 0)
(-0.449561 0.00656491 0)
(-0.277009 0.0047703 0)
(-0.466845 0.00711638 0)
(-0.290743 0.00749655 0)
(-0.480765 0.00811545 0)
(-0.299674 0.0078122 0)
(-0.489326 0.00896634 0)
(-0.495548 0.00794183 0)
(-0.00539709 -0.682635 0)
(-0.0222872 -0.726797 0)
(-0.0339894 -0.54562 0)
(-0.0495788 -0.594979 0)
(-0.07012 -0.409736 0)
(-0.122184 -0.444262 0)
(-0.105863 -0.302625 0)
(-0.173964 -0.326968 0)
(-0.1403 -0.219932 0)
(-0.227563 -0.235534 0)
(-0.172845 -0.157657 0)
(-0.275718 -0.166596 0)
(-0.203667 -0.111506 0)
(-0.319472 -0.115085 0)
(-0.233272 -0.0784063 0)
(-0.359593 -0.0771437 0)
(-0.261623 -0.0556407 0)
(-0.397579 -0.0506472 0)
(-0.288529 -0.0398704 0)
(-0.434702 -0.032837 0)
(-0.3143 -0.0282488 0)
(-0.470679 -0.0202872 0)
(-0.339149 -0.019653 0)
(-0.502945 -0.0112473 0)
(-0.363494 -0.0136142 0)
(-0.532553 -0.00496977 0)
(-0.387743 -0.00946271 0)
(-0.560093 -0.000553898 0)
(-0.41204 -0.00670602 0)
(-0.586179 0.00226317 0)
(-0.436435 -0.00492581 0)
(-0.611343 0.00400539 0)
(-0.461051 -0.00359471 0)
(-0.635776 0.00513011 0)
(-0.486271 -0.00224857 0)
(-0.65958 0.00612098 0)
(-0.512431 -0.000657532 0)
(-0.682899 0.00724636 0)
(-0.53944 0.0012177 0)
(-0.705991 0.00853377 0)
(-0.566524 0.00339723 0)
(-0.729004 0.00986279 0)
(-0.592183 0.0059402 0)
(-0.751568 0.0111364 0)
(-0.614269 0.00857798 0)
(-0.772588 0.0122537 0)
(-0.631718 0.0105019 0)
(-0.790317 0.0131118 0)
(-0.645889 0.0111126 0)
(-0.804718 0.0135454 0)
(-0.658425 0.010814 0)
(-0.817323 0.0133199 0)
(-0.669566 0.0105305 0)
(-0.828532 0.0129777 0)
(-0.679103 0.0104833 0)
(-0.838261 0.0130146 0)
(-0.686732 0.00996392 0)
(-0.845997 0.0127929 0)
(-0.850388 0.0116708 0)
(-0.0561747 -0.637954 0)
(-0.0579756 -0.671778 0)
(-0.136887 -0.489184 0)
(-0.134954 -0.517794 0)
(-0.217196 -0.355586 0)
(-0.257293 -0.369275 0)
(-0.292906 -0.25385 0)
(-0.355338 -0.257946 0)
(-0.361518 -0.177227 0)
(-0.447321 -0.17446 0)
(-0.422512 -0.120535 0)
(-0.528855 -0.113586 0)
(-0.476476 -0.078411 0)
(-0.600315 -0.0692908 0)
(-0.5256 -0.0470433 0)
(-0.662653 -0.036443 0)
(-0.572394 -0.0245828 0)
(-0.714688 -0.012792 0)
(-0.617718 -0.00965623 0)
(-0.759804 0.00296312 0)
(-0.65961 -0.000380728 0)
(-0.799869 0.0120204 0)
(-0.696614 0.0053304 0)
(-0.835083 0.0166166 0)
(-0.729358 0.00902901 0)
(-0.866424 0.0191041 0)
(-0.758624 0.0114772 0)
(-0.89472 0.0204545 0)
(-0.785413 0.0130211 0)
(-0.920632 0.0210391 0)
(-0.81044 0.0138944 0)
(-0.944899 0.0211325 0)
(-0.83395 0.0144178 0)
(-0.967885 0.0208389 0)
(-0.855822 0.0148851 0)
(-0.989473 0.0203905 0)
(-0.876094 0.0154521 0)
(-1.00956 0.020159 0)
(-0.89516 0.0161014 0)
(-1.02836 0.0203917 0)
(-0.913537 0.0167105 0)
(-1.04642 0.0210222 0)
(-0.931377 0.017161 0)
(-1.06412 0.0217143 0)
(-0.948282 0.0173815 0)
(-1.08126 0.0220401 0)
(-0.963501 0.0172912 0)
(-1.09706 0.021714 0)
(-0.97645 0.0168189 0)
(-1.11071 0.0206918 0)