/*--------------------------------*- C++ -*----------------------------------*\
| =========                 |                                                 |
| \\      /  F ield         | OpenFOAM: The Open Source CFD Toolbox           |
|  \\    /   O peration     | Version:  4.1                                   |
|   \\  /    A nd           | Web:      www.OpenFOAM.org                      |
|    \\/     M anipulation  |                                                 |
\*---------------------------------------------------------------------------*/
FoamFile
{
    version     2.0;
    format      ascii;
    class       volVectorField;
    location    "4.6";
    object      cellDisplacement;
}
// * * * * * * * * * * * * * * * * * * * * * * * * * * * * * * * * * * * * * //

dimensions      [0 1 0 0 0 0 0];

internalField   nonuniform List<vector> 
2790
(
(0.00853918 0 -1.65371e-05)
(0.0244157 0 -4.74692e-05)
(0.0380492 0 -7.45911e-05)
(0.0496314 0 -9.84913e-05)
(0.0593602 0 -0.000119609)
(0.0674129 0 -0.000138222)
(0.0739433 0 -0.000154636)
(0.0790886 0 -0.000168612)
(0.0829716 0 -0.000180223)
(0.0856959 0 -0.000189326)
(0.0873512 0 -0.00019565)
(0.0880162 0 -0.000198794)
(0.0877605 0 -0.000198289)
(0.086646 0 -0.000193545)
(0.0847277 0 -0.000183692)
(0.082057 0 -0.00016787)
(0.0786833 0 -0.000145034)
(0.0746604 0 -0.000114171)
(0.0700363 0 -7.32738e-05)
(0.0648614 0 -2.07998e-05)
(0.0591937 0 4.53087e-05)
(0.0530984 0 0.000127498)
(0.0466504 0 0.000228609)
(0.0399336 0 0.000351922)
(0.033071 0 0.000503087)
(0.0262146 0 0.000687587)
(0.0195687 0 0.000913431)
(0.0134388 0 0.00119038)
(0.008318 0 0.00152275)
(0.00530128 0 0.00186869)
(0.00855041 0 -4.96691e-05)
(0.0244473 0 -0.000142594)
(0.0381002 0 -0.00022409)
(0.0497035 0 -0.000295945)
(0.0594549 0 -0.000359479)
(0.0675331 0 -0.000415486)
(0.0740913 0 -0.000465052)
(0.0792673 0 -0.000507239)
(0.0831865 0 -0.000542412)
(0.0859525 0 -0.000570145)
(0.0876555 0 -0.000589634)
(0.0883749 0 -0.000599679)
(0.0881815 0 -0.000598907)
(0.087139 0 -0.000585648)
(0.0853026 0 -0.000557203)
(0.0827252 0 -0.000511109)
(0.0794548 0 -0.00044415)
(0.075549 0 -0.000352709)
(0.0710644 0 -0.000232917)
(0.0660476 0 -7.935e-05)
(0.0605624 0 0.000114018)
(0.0546804 0 0.000354256)
(0.0484887 0 0.000649564)
(0.0420721 0 0.00101065)
(0.0355579 0 0.00144924)
(0.0291293 0 0.00197828)
(0.0230095 0 0.00261389)
(0.0175592 0 0.00337041)
(0.0133972 0 0.00423449)
(0.0116268 0 0.00503991)
(0.00857413 0 -8.29469e-05)
(0.0245128 0 -0.000238199)
(0.0382048 0 -0.000374401)
(0.0498508 0 -0.000494618)
(0.0596472 0 -0.000601063)
(0.0677768 0 -0.000694856)
(0.0743893 0 -0.000776948)
(0.0796255 0 -0.000847763)
(0.0836164 0 -0.000907209)
(0.0864647 0 -0.000954521)
(0.0882619 0 -0.000988428)
(0.0890886 0 -0.00100691)
(0.0890179 0 -0.0010078)
(0.0881173 0 -0.000988803)
(0.0864423 0 -0.000944941)
(0.0840504 0 -0.000872747)
(0.0809945 0 -0.000767173)
(0.0773239 0 -0.000621688)
(0.0731079 0 -0.000431532)
(0.0684018 0 -0.000188001)
(0.0632735 0 0.000118189)
(0.0578022 0 0.000497659)
(0.0520831 0 0.000962724)
(0.0462405 0 0.00152718)
(0.040417 0 0.0022037)
(0.0348205 0 0.0030055)
(0.029705 0 0.00394258)
(0.0254326 0 0.00500989)
(0.0226906 0 0.00613616)
(0.0225528 0 0.00703644)
(0.00861123 0 -0.000116408)
(0.024612 0 -0.000333961)
(0.0383608 0 -0.000524976)
(0.0500712 0 -0.000693801)
(0.0599334 0 -0.000843607)
(0.0681307 0 -0.000975544)
(0.0748248 0 -0.00109079)
(0.0801576 0 -0.00119118)
(0.084256 0 -0.00127606)
(0.0872266 0 -0.00134446)
(0.0891637 0 -0.00139484)
(0.0901495 0 -0.00142422)
(0.0902598 0 -0.00142974)
(0.0895636 0 -0.00140764)
(0.0881255 0 -0.00135335)
(0.0860066 0 -0.0012619)
(0.0832673 0 -0.00112688)
(0.0799603 0 -0.000940359)
(0.0761469 0 -0.000693881)
(0.0719011 0 -0.000378037)
(0.0672989 0 1.80745e-05)
(0.0624285 0 0.000506509)
(0.0573894 0 0.00110086)
(0.0523428 0 0.00181338)
(0.0474619 0 0.00265394)
(0.0429893 0 0.00362615)
(0.0392191 0 0.00471931)
(0.0364943 0 0.00589425)
(0.0353678 0 0.00702396)
(0.0368686 0 0.00775695)
(0.00864695 0 -0.000149727)
(0.024729 0 -0.000429637)
(0.0385653 0 -0.000675766)
(0.0503629 0 -0.00089348)
(0.0603098 0 -0.00108608)
(0.0685974 0 -0.00125657)
(0.0754001 0 -0.00140681)
(0.0808576 0 -0.001538)
(0.0850966 0 -0.00164983)
(0.0882276 0 -0.00174128)
(0.0903483 0 -0.00181097)
(0.091542 0 -0.00185458)
(0.0918906 0 -0.00186909)
(0.0914642 0 -0.00184952)
(0.0903336 0 -0.00179155)
(0.0885696 0 -0.00168982)
(0.0862354 0 -0.00153646)
(0.0833975 0 -0.00132315)
(0.0801147 0 -0.00103911)
(0.0764683 0 -0.000674463)
(0.0725521 0 -0.000218722)
(0.0684719 0 0.00033897)
(0.0643343 0 0.00101151)
(0.0602898 0 0.00180747)
(0.056548 0 0.00272686)
(0.0533952 0 0.0037568)
(0.0511365 0 0.0048601)
(0.0501014 0 0.00596205)
(0.0506511 0 0.00691341)
(0.0536148 0 0.00735541)
(0.00869489 0 -0.000182941)
(0.0248772 0 -0.00052532)
(0.0388173 0 -0.000826661)
(0.0507123 0 -0.00109351)
(0.0607632 0 -0.00132935)
(0.0691719 0 -0.00153933)
(0.0761087 0 -0.00172541)
(0.081718 0 -0.0018888)
(0.0861289 0 -0.00202939)
(0.0894558 0 -0.00214609)
(0.0917951 0 -0.00223669)
(0.0932405 0 -0.00229833)
(0.0938796 0 -0.00232728)
(0.0937893 0 -0.00231874)
(0.0930444 0 -0.00226747)
(0.0917136 0 -0.0021664)
(0.089872 0 -0.00200816)
(0.0875918 0 -0.001784)
(0.084947 0 -0.00148402)
(0.0820179 0 -0.00109765)
(0.0789208 0 -0.000616519)
(0.0757748 0 -3.21328e-05)
(0.0727176 0 0.000661912)
(0.0698812 0 0.00146787)
(0.067471 0 0.00237773)
(0.0657607 0 0.00336126)
(0.0650937 0 0.00435188)
(0.065731 0 0.00525218)
(0.0678857 0 0.00591725)
(0.0720785 0 0.00603366)
(0.00875356 0 -0.000216137)
(0.0250535 0 -0.000620898)
(0.0391156 0 -0.000977514)
(0.0511264 0 -0.00129315)
(0.0612989 0 -0.00157338)
(0.069848 0 -0.00182367)
(0.0769417 0 -0.00204665)
(0.0827282 0 -0.00224379)
(0.0873393 0 -0.00241521)
(0.090892 0 -0.00255982)
(0.0934874 0 -0.00267493)
(0.0952289 0 -0.00275934)
(0.0962059 0 -0.00280871)
(0.0965028 0 -0.00281839)
(0.0962035 0 -0.00278342)
(0.0953742 0 -0.00269509)
(0.0941031 0 -0.00254732)
(0.0924715 0 -0.00233194)
(0.0905693 0 -0.00204078)
(0.0884861 0 -0.00166454)
(0.0863194 0 -0.00119429)
(0.0842276 0 -0.000628565)
(0.0823544 0 3.26842e-05)
(0.0808586 0 0.000781787)
(0.0799303 0 0.001599)
(0.0797671 0 0.00244456)
(0.0807113 0 0.00323119)
(0.0829424 0 0.0038511)
(0.0865341 0 0.0041802)
(0.0917065 0 0.00398069)
(0.00882213 0 -0.000249262)
(0.0252554 0 -0.000716246)
(0.0394455 0 -0.00112791)
(0.0515903 0 -0.00149275)
(0.0619095 0 -0.00181796)
(0.070618 0 -0.00210938)
(0.0778896 0 -0.00237042)
(0.0838764 0 -0.00260296)
(0.088714 0 -0.00280748)
(0.0925234 0 -0.00298323)
(0.0954136 0 -0.00312828)
(0.0974893 0 -0.0032407)
(0.0988464 0 -0.00331685)
(0.0995762 0 -0.00335249)
(0.0997659 0 -0.00334242)
(0.0994918 0 -0.00327903)
(0.0988557 0 -0.00315784)
(0.0979439 0 -0.00297111)
(0.0968624 0 -0.00271314)
(0.0957247 0 -0.00237896)
(0.0946182 0 -0.00196071)
(0.0936747 0 -0.00145773)
(0.0930862 0 -0.00088184)
(0.0930148 0 -0.000249863)
(0.093625 0 0.0004086)
(0.0950722 0 0.00104603)
(0.0976098 0 0.00156869)
(0.101319 0 0.00187225)
(0.106146 0 0.00186174)
(0.112059 0 0.00138356)
(0.00889984 0 -0.000282251)
(0.0254811 0 -0.000811225)
(0.0398172 0 -0.00127799)
(0.0521112 0 -0.0016923)
(0.0625885 0 -0.0020628)
(0.071473 0 -0.00239613)
(0.0789408 0 -0.00269639)
(0.0851483 0 -0.00296602)
(0.0902352 0 -0.00320598)
(0.0943271 0 -0.00341597)
(0.0975389 0 -0.00359468)
(0.0999792 0 -0.00374019)
(0.10175 0 -0.0038495)
(0.102951 0 -0.00391928)
(0.103677 0 -0.00394528)
(0.104021 0 -0.00392202)
(0.104075 0 -0.00384385)
(0.103935 0 -0.00370494)
(0.103729 0 -0.00350367)
(0.103581 0 -0.00323835)
(0.103611 0 -0.00290868)
(0.103924 0 -0.00251463)
(0.10468 0 -0.00206992)
(0.106087 0 -0.00160594)
(0.10827 0 -0.00115758)
(0.111336 0 -0.000774743)
(0.11542 0 -0.000545809)
(0.120485 0 -0.000559509)
(0.12636 0 -0.000878045)
(0.132811 0 -0.00157875)
(0.00898747 0 -0.000315224)
(0.0257286 0 -0.000905689)
(0.0402129 0 -0.00142707)
(0.0526707 0 -0.00189092)
(0.0633276 0 -0.00230739)
(0.0724029 0 -0.00268335)
(0.080083 0 -0.00302396)
(0.0865287 0 -0.00333231)
(0.091884 0 -0.00360995)
(0.0962793 0 -0.00385718)
(0.0998349 0 -0.00407332)
(0.102664 0 -0.00425684)
(0.104874 0 -0.00440543)
(0.106574 0 -0.00451722)
(0.107869 0 -0.0045894)
(0.108865 0 -0.00461891)
(0.109649 0 -0.00459988)
(0.110337 0 -0.00453008)
(0.11104 0 -0.00440726)
(0.111921 0 -0.00423774)
(0.113099 0 -0.00402451)
(0.11471 0 -0.00377647)
(0.116865 0 -0.00350555)
(0.119774 0 -0.00324982)
(0.123532 0 -0.00304778)
(0.128199 0 -0.00294601)
(0.133781 0 -0.00301733)
(0.14011 0 -0.00332598)
(0.1469 0 -0.00390156)
(0.153753 0 -0.00476385)
(0.0090688 0 -0.000347454)
(0.0259807 0 -0.000998873)
(0.0406398 0 -0.0015752)
(0.0532774 0 -0.00208947)
(0.0641238 0 -0.00255247)
(0.0734018 0 -0.00297185)
(0.0813084 0 -0.00335405)
(0.0880077 0 -0.00370285)
(0.0936481 0 -0.00402048)
(0.0983647 0 -0.00430796)
(0.102283 0 -0.00456532)
(0.105519 0 -0.00479172)
(0.108186 0 -0.00498517)
(0.110404 0 -0.00514619)
(0.112287 0 -0.00527352)
(0.113941 0 -0.00536499)
(0.115472 0 -0.00541849)
(0.117007 0 -0.00543495)
(0.118648 0 -0.00541237)
(0.120573 0 -0.00536219)
(0.122906 0 -0.00529207)
(0.125784 0 -0.0052153)
(0.129343 0 -0.00515067)
(0.133739 0 -0.00513335)
(0.139044 0 -0.00520098)
(0.145273 0 -0.00539228)
(0.152316 0 -0.00575705)
(0.159873 0 -0.0063291)
(0.167539 0 -0.00710758)
(0.174736 0 -0.0080767)
(0.00915726 0 -0.00037939)
(0.0262503 0 -0.00109147)
(0.0410958 0 -0.00172263)
(0.053926 0 -0.00228747)
(0.0649657 0 -0.00279628)
(0.0744533 0 -0.00325933)
(0.0825964 0 -0.00368396)
(0.0895601 0 -0.00407453)
(0.0954966 0 -0.00443401)
(0.100546 0 -0.00476424)
(0.104837 0 -0.00506613)
(0.108494 0 -0.00533984)
(0.111638 0 -0.00558542)
(0.114383 0 -0.0058019)
(0.116862 0 -0.00599248)
(0.119181 0 -0.00615602)
(0.121458 0 -0.00629322)
(0.123818 0 -0.00640715)
(0.126396 0 -0.00650222)
(0.129347 0 -0.00658996)
(0.132804 0 -0.00668287)
(0.136906 0 -0.00679845)
(0.141801 0 -0.00695976)
(0.147613 0 -0.00719945)
(0.154386 0 -0.00754991)
(0.162112 0 -0.00803866)
(0.170586 0 -0.00868733)
(0.179398 0 -0.00949544)
(0.188018 0 -0.0104319)
(0.195595 0 -0.0114633)
(0.00925151 0 -0.000411042)
(0.0265341 0 -0.00118316)
(0.0415765 0 -0.00186883)
(0.0545955 0 -0.00248299)
(0.0658311 0 -0.00303729)
(0.0755434 0 -0.00354462)
(0.0839311 0 -0.00401233)
(0.0911665 0 -0.00444572)
(0.0974059 0 -0.00484857)
(0.102794 0 -0.00522362)
(0.107465 0 -0.00557278)
(0.111547 0 -0.00589755)
(0.11517 0 -0.00619976)
(0.118448 0 -0.00647834)
(0.121521 0 -0.00673904)
(0.124496 0 -0.00698237)
(0.127499 0 -0.0072119)
(0.130661 0 -0.00743355)
(0.134129 0 -0.00765637)
(0.13805 0 -0.00789375)
(0.142555 0 -0.00816156)
(0.147787 0 -0.00848091)
(0.153897 0 -0.00887801)
(0.160986 0 -0.00938265)
(0.169083 0 -0.010021)
(0.178178 0 -0.0108095)
(0.188012 0 -0.011739)
(0.198128 0 -0.0127735)
(0.207905 0 -0.0138452)
(0.216021 0 -0.0149009)
(0.00935011 0 -0.00044228)
(0.0268275 0 -0.00127357)
(0.0420645 0 -0.00201274)
(0.0552785 0 -0.00267538)
(0.066724 0 -0.00327609)
(0.0766654 0 -0.00382799)
(0.0853034 0 -0.00433937)
(0.0928156 0 -0.00481652)
(0.0993616 0 -0.00526404)
(0.10509 0 -0.00568561)
(0.110141 0 -0.00608418)
(0.114645 0 -0.00646244)
(0.118733 0 -0.00682298)
(0.122539 0 -0.00716895)
(0.126189 0 -0.00750445)
(0.129795 0 -0.00783261)
(0.133486 0 -0.00815978)
(0.137398 0 -0.00849474)
(0.141687 0 -0.00885041)
(0.146488 0 -0.00924202)
(0.151926 0 -0.00968788)
(0.158139 0 -0.0102119)
(0.165281 0 -0.0108431)
(0.173429 0 -0.0116087)
(0.182603 0 -0.0125308)
(0.192817 0 -0.0136217)
(0.203781 0 -0.0148409)
(0.215122 0 -0.0161266)
(0.226214 0 -0.0173494)
(0.235261 0 -0.0184074)
(0.00945175 0 -0.000472975)
(0.027127 0 -0.00136236)
(0.0425557 0 -0.00215389)
(0.05597 0 -0.00286456)
(0.0676341 0 -0.00351168)
(0.0778074 0 -0.00410816)
(0.0866982 0 -0.00466347)
(0.0944883 0 -0.00518496)
(0.10134 0 -0.00567795)
(0.107407 0 -0.00614712)
(0.11283 0 -0.00659647)
(0.117748 0 -0.00702993)
(0.122289 0 -0.00745119)
(0.1266 0 -0.00786638)
(0.130796 0 -0.00827892)
(0.13499 0 -0.00869406)
(0.139315 0 -0.00912057)
(0.143907 0 -0.00956972)
(0.148921 0 -0.0100577)
(0.154481 0 -0.0106007)
(0.160697 0 -0.0112185)
(0.167699 0 -0.0119371)
(0.175626 0 -0.0127872)
(0.184529 0 -0.0137945)
(0.194409 0 -0.0149804)
(0.20526 0 -0.0163595)
(0.216833 0 -0.0178939)
(0.228838 0 -0.0195158)
(0.240782 0 -0.0210183)
(0.251311 0 -0.0221218)
(0.00658094 0 -0.00223051)
(0.0126049 0 -0.0023542)
(0.0231342 0 -0.00242032)
(0.0368404 0 -0.00247845)
(0.0521233 0 -0.00249859)
(0.0677627 0 -0.00248486)
(0.0827799 0 -0.00243212)
(0.0965523 0 -0.00236811)
(0.108773 0 -0.00227929)
(0.119278 0 -0.00217026)
(0.128033 0 -0.00205889)
(0.135072 0 -0.00193082)
(0.140474 0 -0.00180797)
(0.144334 0 -0.00168983)
(0.146721 0 -0.00156961)
(0.147698 0 -0.00144771)
(0.147312 0 -0.00133622)
(0.145588 0 -0.00122878)
(0.142533 0 -0.0011253)
(0.138146 0 -0.001028)
(0.132408 0 -0.000931564)
(0.125281 0 -0.000837625)
(0.116719 0 -0.000745583)
(0.106656 0 -0.000652986)
(0.095027 0 -0.000562019)
(0.0817728 0 -0.000469982)
(0.0668184 0 -0.000375387)
(0.0500839 0 -0.000276683)
(0.031486 0 -0.000171944)
(0.0108591 0 -5.92391e-05)
(0.0120191 0 -0.0065634)
(0.0180561 0 -0.00691477)
(0.0283908 0 -0.00715241)
(0.0416586 0 -0.00731081)
(0.0563799 0 -0.00736735)
(0.0714668 0 -0.00733654)
(0.08597 0 -0.00720188)
(0.0992657 0 -0.00699563)
(0.111049 0 -0.00673452)
(0.121184 0 -0.0064271)
(0.129609 0 -0.0060873)
(0.136372 0 -0.00572504)
(0.141556 0 -0.00536892)
(0.145222 0 -0.00501032)
(0.14745 0 -0.00465735)
(0.148299 0 -0.00430879)
(0.147809 0 -0.00398421)
(0.145998 0 -0.00366746)
(0.142869 0 -0.00336039)
(0.138421 0 -0.00306351)
(0.132636 0 -0.00277675)
(0.125469 0 -0.00249785)
(0.116878 0 -0.00222485)
(0.106788 0 -0.00195461)
(0.0951309 0 -0.00168329)
(0.081856 0 -0.001408)
(0.0668834 0 -0.00112481)
(0.0501331 0 -0.000829213)
(0.0315062 0 -0.000515101)
(0.010858 0 -0.00017712)
(0.0217723 0 -0.0105765)
(0.0280612 0 -0.0111672)
(0.0381037 0 -0.0116085)
(0.0505933 0 -0.0118737)
(0.0643924 0 -0.0119729)
(0.0785181 0 -0.0119304)
(0.0920457 0 -0.0117305)
(0.104437 0 -0.0113924)
(0.115438 0 -0.0109754)
(0.124849 0 -0.0104784)
(0.132647 0 -0.00992628)
(0.138904 0 -0.00935966)
(0.143646 0 -0.00878028)
(0.146941 0 -0.00819628)
(0.148868 0 -0.00762662)
(0.14947 0 -0.00707331)
(0.148775 0 -0.00654413)
(0.146796 0 -0.00602932)
(0.143531 0 -0.00552941)
(0.138968 0 -0.00504166)
(0.133085 0 -0.00457232)
(0.125837 0 -0.00411562)
(0.117175 0 -0.00366779)
(0.10703 0 -0.00322605)
(0.0953335 0 -0.00277995)
(0.0820198 0 -0.00232621)
(0.0670117 0 -0.00185893)
(0.0502347 0 -0.00137107)
(0.0315688 0 -0.000853011)
(0.0108742 0 -0.000293055)
(0.0349674 0 -0.01439)
(0.0415671 0 -0.0151754)
(0.0512344 0 -0.0157842)
(0.062828 0 -0.0161649)
(0.0754837 0 -0.016313)
(0.0883389 0 -0.0162516)
(0.100568 0 -0.0159796)
(0.111752 0 -0.0155302)
(0.121638 0 -0.0149638)
(0.130039 0 -0.0142872)
(0.136988 0 -0.0135485)
(0.142514 0 -0.0127868)
(0.146627 0 -0.0120019)
(0.14941 0 -0.0112191)
(0.150908 0 -0.0104512)
(0.151158 0 -0.00970823)
(0.150164 0 -0.00898043)
(0.147942 0 -0.0082794)
(0.144478 0 -0.00759987)
(0.139752 0 -0.00693962)
(0.133731 0 -0.00629905)
(0.126368 0 -0.00567384)
(0.117609 0 -0.00505906)
(0.107385 0 -0.00444923)
(0.0956239 0 -0.00383547)
(0.0822533 0 -0.00321076)
(0.0671919 0 -0.00256668)
(0.0503543 0 -0.00189327)
(0.0316359 0 -0.00117862)
(0.0108993 0 -0.000405043)
(0.0507618 0 -0.0181213)
(0.0576436 0 -0.0190375)
(0.066896 0 -0.0197641)
(0.0775507 0 -0.0202286)
(0.08894 0 -0.0204044)
(0.100334 0 -0.0203092)
(0.111054 0 -0.0199599)
(0.120785 0 -0.0193956)
(0.129312 0 -0.0186776)
(0.13651 0 -0.0178436)
(0.14241 0 -0.0169327)
(0.147026 0 -0.0159858)
(0.150378 0 -0.0150225)
(0.15252 0 -0.0140592)
(0.153483 0 -0.0131098)
(0.153287 0 -0.0121894)
(0.151924 0 -0.0112867)
(0.149397 0 -0.0104145)
(0.145682 0 -0.00956893)
(0.140748 0 -0.00874713)
(0.134553 0 -0.00794687)
(0.127045 0 -0.00716353)
(0.118164 0 -0.00639125)
(0.107838 0 -0.00562293)
(0.0959935 0 -0.00484941)
(0.0825494 0 -0.0040613)
(0.0674204 0 -0.00324779)
(0.0505149 0 -0.00239617)
(0.0317322 0 -0.00149131)
(0.0109333 0 -0.000512532)
(0.0684837 0 -0.0218293)
(0.0755564 0 -0.0228163)
(0.0843517 0 -0.0236041)
(0.094047 0 -0.0241041)
(0.104099 0 -0.0242689)
(0.113915 0 -0.0241123)
(0.122988 0 -0.0236681)
(0.131104 0 -0.0229809)
(0.138117 0 -0.022118)
(0.143963 0 -0.021133)
(0.148673 0 -0.0200636)
(0.152259 0 -0.0189522)
(0.15474 0 -0.0178268)
(0.156148 0 -0.0167013)
(0.156492 0 -0.0155889)
(0.155777 0 -0.0145038)
(0.153991 0 -0.0134481)
(0.151109 0 -0.0124223)
(0.1471 0 -0.0114255)
(0.141922 0 -0.0104549)
(0.135523 0 -0.00950718)
(0.127845 0 -0.00857701)
(0.118821 0 -0.00765764)
(0.108376 0 -0.00674083)
(0.0964302 0 -0.00581652)
(0.0828982 0 -0.00487349)
(0.0676895 0 -0.00389881)
(0.0507077 0 -0.00287728)
(0.031851 0 -0.00179088)
(0.0109752 0 -0.000615527)
(0.0875757 0 -0.0255099)
(0.0947274 0 -0.0265278)
(0.103018 0 -0.0273295)
(0.111724 0 -0.0278135)
(0.12038 0 -0.0279194)
(0.128538 0 -0.0276646)
(0.135872 0 -0.0271002)
(0.142274 0 -0.026278)
(0.147681 0 -0.0252716)
(0.152084 0 -0.0241427)
(0.155521 0 -0.0229282)
(0.158004 0 -0.0216712)
(0.159547 0 -0.0204023)
(0.160159 0 -0.019134)
(0.15983 0 -0.0178784)
(0.158548 0 -0.0166491)
(0.156295 0 -0.015456)
(0.153024 0 -0.0142933)
(0.148689 0 -0.0131606)
(0.143238 0 -0.0120551)
(0.136612 0 -0.0109728)
(0.128744 0 -0.00990772)
(0.11956 0 -0.00885242)
(0.108981 0 -0.00779762)
(0.0969206 0 -0.00673226)
(0.0832892 0 -0.00564357)
(0.067991 0 -0.00451674)
(0.050925 0 -0.00333434)
(0.0319856 0 -0.00207575)
(0.0110223 0 -0.000713484)
(0.107575 0 -0.0291444)
(0.114707 0 -0.0301707)
(0.122437 0 -0.030947)
(0.130095 0 -0.0313611)
(0.137279 0 -0.0313541)
(0.143707 0 -0.0309585)
(0.149241 0 -0.0302456)
(0.153877 0 -0.0292757)
(0.157638 0 -0.0281262)
(0.160565 0 -0.0268615)
(0.162696 0 -0.0255163)
(0.164047 0 -0.0241319)
(0.164624 0 -0.0227392)
(0.164413 0 -0.0213483)
(0.163385 0 -0.0199701)
(0.161508 0 -0.0186148)
(0.158765 0 -0.0173027)
(0.155081 0 -0.0160203)
(0.1504 0 -0.0147672)
(0.144659 0 -0.0135412)
(0.137789 0 -0.0123377)
(0.129717 0 -0.0111503)
(0.12036 0 -0.00997075)
(0.109635 0 -0.00878892)
(0.0974502 0 -0.00759281)
(0.0837106 0 -0.00636834)
(0.0683155 0 -0.00509901)
(0.051159 0 -0.00376542)
(0.0321307 0 -0.00234462)
(0.011073 0 -0.000805956)
(0.128129 0 -0.0327321)
(0.135163 0 -0.0337473)
(0.142246 0 -0.0344527)
(0.148738 0 -0.034734)
(0.154339 0 -0.0345532)
(0.15896 0 -0.033972)
(0.162653 0 -0.0330842)
(0.165516 0 -0.0319573)
(0.167642 0 -0.0306681)
(0.169109 0 -0.0292788)
(0.169952 0 -0.0278193)
(0.170182 0 -0.0263263)
(0.169802 0 -0.0248304)
(0.168772 0 -0.0233382)
(0.167049 0 -0.0218599)
(0.164575 0 -0.0204009)
(0.161326 0 -0.0189831)
(0.157223 0 -0.0175978)
(0.152186 0 -0.0162403)
(0.146145 0 -0.0149085)
(0.139022 0 -0.0135976)
(0.130736 0 -0.0123006)
(0.121199 0 -0.0110088)
(0.11032 0 -0.00971122)
(0.0980041 0 -0.00839509)
(0.0841504 0 -0.00704515)
(0.0686533 0 -0.00564347)
(0.051402 0 -0.0041689)
(0.0322809 0 -0.00259643)
(0.0111251 0 -0.000892561)
(0.149009 0 -0.036287)
(0.155858 0 -0.0372611)
(0.162128 0 -0.037828)
(0.167254 0 -0.037896)
(0.171113 0 -0.0374748)
(0.173847 0 -0.0366667)
(0.175689 0 -0.0355857)
(0.176816 0 -0.0343007)
(0.177366 0 -0.0328822)
(0.177439 0 -0.0313847)
(0.177057 0 -0.0298311)
(0.176214 0 -0.0282488)
(0.174922 0 -0.0266716)
(0.173106 0 -0.0250998)
(0.17071 0 -0.0235421)
(0.167665 0 -0.0220038)
(0.163913 0 -0.0204953)
(0.159389 0 -0.0190223)
(0.153998 0 -0.017576)
(0.147655 0 -0.0161533)
(0.140277 0 -0.0147488)
(0.131774 0 -0.0133553)
(0.122053 0 -0.0119634)
(0.111017 0 -0.0105617)
(0.0985668 0 -0.00913661)
(0.0845957 0 -0.00767185)
(0.0689941 0 -0.00614833)
(0.051646 0 -0.00454341)
(0.0324309 0 -0.00283028)
(0.0111767 0 -0.000972969)
(0.170091 0 -0.039823)
(0.176596 0 -0.0407007)
(0.181738 0 -0.0410218)
(0.185192 0 -0.0407758)
(0.187122 0 -0.0400496)
(0.187913 0 -0.0389871)
(0.187942 0 -0.037711)
(0.187425 0 -0.0362812)
(0.186513 0 -0.0347534)
(0.185305 0 -0.0331707)
(0.183806 0 -0.0315487)
(0.181988 0 -0.0299031)
(0.179839 0 -0.0282615)
(0.177293 0 -0.0266315)
(0.174269 0 -0.0250149)
(0.170687 0 -0.0234173)
(0.166467 0 -0.0218425)
(0.161537 0 -0.0202984)
(0.155799 0 -0.0187791)
(0.149162 0 -0.0172801)
(0.141531 0 -0.0157957)
(0.132812 0 -0.0143182)
(0.122907 0 -0.012838)
(0.111713 0 -0.0113432)
(0.0991266 0 -0.00981961)
(0.0850372 0 -0.00825025)
(0.0693302 0 -0.00661497)
(0.0518852 0 -0.00488989)
(0.0325768 0 -0.00304672)
(0.0112264 0 -0.00104737)
(0.191294 0 -0.0433361)
(0.197108 0 -0.044007)
(0.200589 0 -0.0439197)
(0.20198 0 -0.0432505)
(0.201823 0 -0.0421781)
(0.200687 0 -0.0408645)
(0.19902 0 -0.0394175)
(0.197026 0 -0.0378749)
(0.194817 0 -0.0362691)
(0.192487 0 -0.0346307)
(0.190015 0 -0.0329675)
(0.187356 0 -0.0312906)
(0.184455 0 -0.0296117)
(0.181254 0 -0.0279436)
(0.17766 0 -0.0262884)
(0.173584 0 -0.0246496)
(0.168936 0 -0.0230304)
(0.163627 0 -0.0214337)
(0.15756 0 -0.0198569)
(0.150638 0 -0.0182957)
(0.142762 0 -0.016744)
(0.133832 0 -0.0151944)
(0.123745 0 -0.0136369)
(0.112395 0 -0.0120594)
(0.0996736 0 -0.0104473)
(0.0854667 0 -0.00878288)
(0.0696555 0 -0.00704534)
(0.0521154 0 -0.00520974)
(0.0327163 0 -0.00324661)
(0.0112737 0 -0.00111607)
(0.21245 0 -0.0467719)
(0.216822 0 -0.0470056)
(0.217872 0 -0.0462979)
(0.216856 0 -0.0451356)
(0.214603 0 -0.0437383)
(0.211696 0 -0.0422273)
(0.208565 0 -0.0406676)
(0.20535 0 -0.0390665)
(0.2021 0 -0.0374308)
(0.198857 0 -0.0357741)
(0.195585 0 -0.0341011)
(0.192222 0 -0.0324178)
(0.188698 0 -0.0307316)
(0.184934 0 -0.0290499)
(0.18084 0 -0.0273765)
(0.176319 0 -0.0257143)
(0.171278 0 -0.0240658)
(0.165621 0 -0.0224325)
(0.159247 0 -0.0208126)
(0.152056 0 -0.0192021)
(0.143946 0 -0.0175954)
(0.134812 0 -0.0159849)
(0.124549 0 -0.0143606)
(0.113048 0 -0.0127105)
(0.100195 0 -0.0110194)
(0.085874 0 -0.00926946)
(0.069962 0 -0.00743911)
(0.0523307 0 -0.00550267)
(0.0328457 0 -0.00342971)
(0.0113174 0 -0.00117898)
(0.232787 0 -0.0498809)
(0.234415 0 -0.049259)
(0.23229 0 -0.0477809)
(0.228862 0 -0.0462011)
(0.224848 0 -0.044616)
(0.220611 0 -0.0430354)
(0.216406 0 -0.0414559)
(0.212301 0 -0.0398637)
(0.208297 0 -0.0382517)
(0.204376 0 -0.0366202)
(0.200487 0 -0.0349712)
(0.196562 0 -0.0333083)
(0.192523 0 -0.0316368)
(0.188287 0 -0.0299623)
(0.183762 0 -0.0282888)
(0.178852 0 -0.0266192)
(0.173459 0 -0.024956)
(0.167486 0 -0.0233)
(0.16083 0 -0.0216499)
(0.15339 0 -0.0200023)
(0.14506 0 -0.0183518)
(0.135735 0 -0.016691)
(0.125304 0 -0.0150101)
(0.113658 0 -0.0132969)
(0.10068 0 -0.0115363)
(0.0862498 0 -0.00971008)
(0.0702424 0 -0.00779625)
(0.0525257 0 -0.00576858)
(0.0329617 0 -0.00359596)
(0.0113562 0 -0.00123607)
(0.249088 0 -0.0516269)
(0.247424 0 -0.0498244)
(0.242623 0 -0.0479035)
(0.237486 0 -0.04627)
(0.23238 0 -0.0447629)
(0.227396 0 -0.0432881)
(0.22258 0 -0.041806)
(0.217935 0 -0.0402994)
(0.213436 0 -0.0387622)
(0.209044 0 -0.0371944)
(0.204704 0 -0.0355989)
(0.200349 0 -0.0339801)
(0.195902 0 -0.0323433)
(0.19128 0 -0.0306937)
(0.186394 0 -0.0290358)
(0.181149 0 -0.0273732)
(0.175448 0 -0.0257082)
(0.169194 0 -0.0240419)
(0.162285 0 -0.0223734)
(0.154617 0 -0.0206996)
(0.146085 0 -0.0190158)
(0.136581 0 -0.0173146)
(0.125995 0 -0.0155866)
(0.114213 0 -0.0138197)
(0.101117 0 -0.0119986)
(0.0865857 0 -0.0101051)
(0.0704901 0 -0.00811695)
(0.0526956 0 -0.00600757)
(0.0330613 0 -0.00374538)
(0.011389 0 -0.00128733)
(0.00955739 0 -0.000503576)
(0.0274353 0 -0.00145083)
(0.0430523 0 -0.00229432)
(0.0566767 0 -0.00305384)
(0.0685696 0 -0.00374739)
(0.0789783 0 -0.00438898)
(0.0881254 0 -0.00498891)
(0.0961969 0 -0.00555577)
(0.103356 0 -0.00609538)
(0.109758 0 -0.00661349)
(0.11555 0 -0.00711508)
(0.120872 0 -0.00760554)
(0.125852 0 -0.0080892)
(0.130648 0 -0.00857584)
(0.135357 0 -0.00906671)
(0.140095 0 -0.00956971)
(0.144996 0 -0.0100955)
(0.150188 0 -0.0106572)
(0.155828 0 -0.0112739)
(0.162012 0 -0.0119608)
(0.168835 0 -0.0127386)
(0.176406 0 -0.0136336)
(0.184836 0 -0.0146771)
(0.194127 0 -0.0158913)
(0.204235 0 -0.0172991)
(0.215084 0 -0.0189238)
(0.226403 0 -0.0207738)
(0.237748 0 -0.0228874)
(0.248376 0 -0.0254128)
(0.257683 0 -0.0290119)
(0.00966918 0 -0.000534444)
(0.0277553 0 -0.00153959)
(0.0435665 0 -0.00243539)
(0.0573967 0 -0.00324404)
(0.0695228 0 -0.0039846)
(0.0801781 0 -0.00467168)
(0.0895847 0 -0.00531696)
(0.097941 0 -0.00593042)
(0.105406 0 -0.0065177)
(0.112141 0 -0.00708596)
(0.118293 0 -0.00764085)
(0.124008 0 -0.00818978)
(0.12942 0 -0.00873903)
(0.134669 0 -0.0092966)
(0.139845 0 -0.00986513)
(0.145074 0 -0.0104547)
(0.150478 0 -0.011077)
(0.156178 0 -0.0117457)
(0.162326 0 -0.0124832)
(0.168977 0 -0.0133)
(0.17621 0 -0.0142173)
(0.184102 0 -0.0152601)
(0.192718 0 -0.0164566)
(0.20199 0 -0.0178204)
(0.211816 0 -0.0193723)
(0.222012 0 -0.021131)
(0.232217 0 -0.0231068)
(0.241917 0 -0.0253294)
(0.250574 0 -0.0279209)
(0.25747 0 -0.0310326)
(0.0097682 0 -0.000564243)
(0.0280671 0 -0.00162688)
(0.0440878 0 -0.00257501)
(0.0581244 0 -0.00343233)
(0.0704759 0 -0.00421987)
(0.0813765 0 -0.0049525)
(0.091054 0 -0.00564403)
(0.099688 0 -0.00630321)
(0.107449 0 -0.00693807)
(0.114506 0 -0.00755667)
(0.121013 0 -0.00816661)
(0.127107 0 -0.00877471)
(0.132918 0 -0.00938814)
(0.138563 0 -0.0100126)
(0.144152 0 -0.0106556)
(0.149802 0 -0.0113271)
(0.155622 0 -0.0120389)
(0.161734 0 -0.0128068)
(0.168241 0 -0.0136479)
(0.175177 0 -0.0145718)
(0.182606 0 -0.0155988)
(0.190565 0 -0.0167493)
(0.199047 0 -0.0180429)
(0.207943 0 -0.0194869)
(0.217107 0 -0.0210947)
(0.226299 0 -0.0228745)
(0.235168 0 -0.0248326)
(0.24332 0 -0.0269992)
(0.250232 0 -0.0293966)
(0.255394 0 -0.0320564)
(0.00986807 0 -0.000593363)
(0.0283647 0 -0.00171155)
(0.0445918 0 -0.00271091)
(0.0588472 0 -0.00361688)
(0.0714249 0 -0.00445097)
(0.0825694 0 -0.00522955)
(0.0925017 0 -0.0059663)
(0.101407 0 -0.0066709)
(0.109465 0 -0.00735372)
(0.116837 0 -0.00802285)
(0.123677 0 -0.0086868)
(0.130111 0 -0.0093511)
(0.136267 0 -0.0100238)
(0.142261 0 -0.0107119)
(0.148202 0 -0.0114239)
(0.154195 0 -0.0121697)
(0.16034 0 -0.0129611)
(0.166735 0 -0.0138125)
(0.173438 0 -0.0147344)
(0.18049 0 -0.0157397)
(0.18792 0 -0.0168434)
(0.195724 0 -0.0180598)
(0.203849 0 -0.0194003)
(0.212174 0 -0.0208705)
(0.220527 0 -0.0224743)
(0.228671 0 -0.0242133)
(0.236325 0 -0.0260937)
(0.24312 0 -0.0281068)
(0.24867 0 -0.0302338)
(0.252671 0 -0.0324946)
(0.00996576 0 -0.00062133)
(0.028657 0 -0.00179301)
(0.0450855 0 -0.00284213)
(0.059552 0 -0.0037951)
(0.0723498 0 -0.00467438)
(0.0837283 0 -0.00549742)
(0.0939071 0 -0.00627836)
(0.103076 0 -0.00702834)
(0.111412 0 -0.00775762)
(0.119074 0 -0.00847497)
(0.126209 0 -0.00918862)
(0.132944 0 -0.00990552)
(0.1394 0 -0.0106334)
(0.145689 0 -0.0113798)
(0.151912 0 -0.0121533)
(0.158163 0 -0.0129633)
(0.164527 0 -0.0138203)
(0.171076 0 -0.0147356)
(0.177854 0 -0.0157191)
(0.184885 0 -0.0167813)
(0.19217 0 -0.0179326)
(0.199677 0 -0.0191818)
(0.20733 0 -0.0205349)
(0.215005 0 -0.0219933)
(0.222531 0 -0.0235554)
(0.229712 0 -0.025221)
(0.236284 0 -0.0269762)
(0.241962 0 -0.0287965)
(0.246513 0 -0.0306694)
(0.249747 0 -0.0325829)
(0.0100588 0 -0.000647817)
(0.0289365 0 -0.00187026)
(0.0455566 0 -0.00296657)
(0.0602232 0 -0.0039642)
(0.0732304 0 -0.00488652)
(0.0848298 0 -0.00575186)
(0.0952403 0 -0.00657496)
(0.104654 0 -0.00736777)
(0.113243 0 -0.00814079)
(0.121166 0 -0.00890311)
(0.128561 0 -0.00966302)
(0.135555 0 -0.010428)
(0.142264 0 -0.0112057)
(0.148789 0 -0.0120037)
(0.155226 0 -0.01283)
(0.161655 0 -0.0136932)
(0.168146 0 -0.0146023)
(0.174753 0 -0.0155663)
(0.181504 0 -0.0165932)
(0.188409 0 -0.0176906)
(0.195449 0 -0.018865)
(0.202575 0 -0.0201209)
(0.209707 0 -0.0214602)
(0.216724 0 -0.0228819)
(0.223479 0 -0.0243806)
(0.229784 0 -0.0259446)
(0.23543 0 -0.0275527)
(0.240235 0 -0.0291872)
(0.244049 0 -0.0308302)
(0.24676 0 -0.0324562)
(0.010145 0 -0.000672483)
(0.0291963 0 -0.00194231)
(0.0459953 0 -0.00308275)
(0.0608489 0 -0.00412224)
(0.0740521 0 -0.00508498)
(0.0858568 0 -0.00599002)
(0.0964814 0 -0.00685263)
(0.106117 0 -0.00768532)
(0.114934 0 -0.00849881)
(0.123085 0 -0.00930237)
(0.130706 0 -0.0101043)
(0.137918 0 -0.0109123)
(0.144829 0 -0.0117337)
(0.151535 0 -0.0125758)
(0.15812 0 -0.0134458)
(0.164655 0 -0.0143514)
(0.171196 0 -0.0152997)
(0.177781 0 -0.0162977)
(0.184428 0 -0.0173514)
(0.191132 0 -0.0184655)
(0.197863 0 -0.0196435)
(0.204566 0 -0.0208857)
(0.211176 0 -0.0221951)
(0.217572 0 -0.0235637)
(0.223607 0 -0.0249789)
(0.229141 0 -0.0264269)
(0.234031 0 -0.0278913)
(0.238152 0 -0.0293542)
(0.24141 0 -0.0307956)
(0.243745 0 -0.0321886)
(0.010222 0 -0.000694977)
(0.0294302 0 -0.00200816)
(0.0463926 0 -0.00318914)
(0.0614178 0 -0.00426721)
(0.0748009 0 -0.00526726)
(0.0867933 0 -0.00620891)
(0.0976119 0 -0.00710786)
(0.107446 0 -0.00797701)
(0.116464 0 -0.0088272)
(0.124812 0 -0.0096678)
(0.132621 0 -0.010507)
(0.140008 0 -0.0113524)
(0.147075 0 -0.0122109)
(0.153908 0 -0.0130893)
(0.160584 0 -0.013994)
(0.167162 0 -0.0149312)
(0.173688 0 -0.0159067)
(0.180189 0 -0.0169254)
(0.186673 0 -0.0179914)
(0.193128 0 -0.0191069)
(0.19952 0 -0.0202735)
(0.205803 0 -0.0214909)
(0.2119 0 -0.0227552)
(0.217698 0 -0.0240538)
(0.223092 0 -0.0253766)
(0.227976 0 -0.0267104)
(0.232249 0 -0.0280398)
(0.235828 0 -0.029348)
(0.238656 0 -0.030616)
(0.240706 0 -0.0318202)
(0.0102877 0 -0.000714947)
(0.0296323 0 -0.00206681)
(0.0467398 0 -0.00328419)
(0.061919 0 -0.00439703)
(0.0754639 0 -0.00543078)
(0.0876243 0 -0.00640547)
(0.0986152 0 -0.00733713)
(0.108623 0 -0.00823883)
(0.117812 0 -0.00912153)
(0.126325 0 -0.0099945)
(0.134288 0 -0.0108658)
(0.14181 0 -0.0117425)
(0.148987 0 -0.0126314)
(0.1559 0 -0.0135383)
(0.162615 0 -0.0144687)
(0.169184 0 -0.0154275)
(0.175643 0 -0.0164191)
(0.182013 0 -0.0174467)
(0.188294 0 -0.0185127)
(0.194479 0 -0.0196191)
(0.200532 0 -0.0207644)
(0.206389 0 -0.021943)
(0.211987 0 -0.0231486)
(0.217245 0 -0.0243718)
(0.222082 0 -0.0256021)
(0.226418 0 -0.0268268)
(0.230185 0 -0.0280322)
(0.233328 0 -0.029203)
(0.235816 0 -0.0303229)
(0.237638 0 -0.0313728)