/*--------------------------------*- C++ -*----------------------------------*\
| =========                 |                                                 |
| \\      /  F ield         | OpenFOAM: The Open Source CFD Toolbox           |
|  \\    /   O peration     | Version:  5.x                                   |
|   \\  /    A nd           | Web:      www.OpenFOAM.org                      |
|    \\/     M anipulation  |                                                 |
\*---------------------------------------------------------------------------*/
FoamFile
{
    version     2.0;
    format      ascii;
    class       pointVectorField;
    location    "5";
    object      pointDisplacement;
}
// * * * * * * * * * * * * * * * * * * * * * * * * * * * * * * * * * * * * * //

dimensions      [0 1 0 0 0 0 0];

internalField   nonuniform List<vector> 
5828
(
(0 0 0)
(0.020919 0 0)
(0.0395181 0 0)
(0.0552715 0 0)
(0.06845 0 0)
(0.0793139 0 0)
(0.0880991 0 0)
(0.095012 0 0)
(0.100229 0 0)
(0.103904 0 0)
(0.106171 0 0)
(0.107151 0 0)
(0.106947 0 0)
(0.105653 0 0)
(0.103354 0 0)
(0.100125 0 0)
(0.0960405 0 0)
(0.0911726 0 0)
(0.0855918 0 0)
(0.0793639 0 0)
(0.0725609 0 0)
(0.0652648 0 0)
(0.0575665 0 0)
(0.0495665 0 0)
(0.0413923 0 0)
(0.0332128 0 0)
(0.0252453 0 0)
(0.0177983 0 0)
(0.0113493 0 0)
(0.0067917 0 0)
(1.08172e-09 0 0)
(0 0 0)
(0.0209333 0 -0.000156432)
(0.0395463 0 -0.000297375)
(0.0553143 0 -0.000420795)
(0.0685083 0 -0.000530046)
(0.0793879 0 -0.000626954)
(0.0881903 0 -0.000712611)
(0.0951229 0 -0.00078828)
(0.100362 0 -0.000854548)
(0.104061 0 -0.00091105)
(0.106357 0 -0.000957052)
(0.107368 0 -0.000991898)
(0.1072 0 -0.00101442)
(0.105947 0 -0.00102303)
(0.103693 0 -0.00101575)
(0.100517 0 -0.000990184)
(0.0964899 0 -0.000943432)
(0.0916869 0 -0.00087244)
(0.0861818 0 -0.000773313)
(0.0800413 0 -0.000641413)
(0.0733371 0 -0.000471912)
(0.0661551 0 -0.000259589)
(0.0585922 0 1.23891e-06)
(0.050751 0 0.000317223)
(0.042759 0 0.000695403)
(0.0347924 0 0.00114166)
(0.027077 0 0.00166039)
(0.0199278 0 0.0022526)
(0.013857 0 0.00290622)
(0.00980779 0 0.00354748)
(0.00408187 0 0.00441193)
(0 0 0)
(0.0209784 0 -0.000313388)
(0.0396343 0 -0.000595806)
(0.0554469 0 -0.000843156)
(0.0686872 0 -0.00106168)
(0.0796133 0 -0.00125547)
(0.0884667 0 -0.00142727)
(0.0954579 0 -0.00157927)
(0.100763 0 -0.00171281)
(0.104535 0 -0.00182704)
(0.106913 0 -0.00192041)
(0.108018 0 -0.00199184)
(0.107956 0 -0.00203904)
(0.106823 0 -0.00205892)
(0.104705 0 -0.00204767)
(0.101683 0 -0.00200063)
(0.0978313 0 -0.00191211)
(0.0932253 0 -0.00177546)
(0.087944 0 -0.00158407)
(0.0820597 0 -0.00133001)
(0.0756466 0 -0.00100317)
(0.0687986 0 -0.000593717)
(0.0616254 0 -9.1091e-05)
(0.0542434 0 0.000517068)
(0.0467922 0 0.00124261)
(0.0394673 0 0.00209418)
(0.0325184 0 0.00307587)
(0.0262681 0 0.00418301)
(0.0212615 0 0.00537916)
(0.0185883 0 0.00649932)
(0.0139138 0 0.00800425)
(0 0 0)
(0.0210547 0 -0.000470838)
(0.039782 0 -0.000895253)
(0.0556648 0 -0.00126704)
(0.0689791 0 -0.00159489)
(0.0799851 0 -0.00188579)
(0.0889262 0 -0.00214463)
(0.0960149 0 -0.00237398)
(0.101428 0 -0.00257543)
(0.10532 0 -0.00274839)
(0.107833 0 -0.00289127)
(0.109092 0 -0.00300224)
(0.109204 0 -0.00307794)
(0.108268 0 -0.00311394)
(0.106374 0 -0.0031049)
(0.103607 0 -0.0030443)
(0.100045 0 -0.00292414)
(0.0957677 0 -0.0027351)
(0.0908579 0 -0.00246779)
(0.0853981 0 -0.00211134)
(0.0794694 0 -0.00165192)
(0.0731714 0 -0.00107572)
(0.0666288 0 -0.000369048)
(0.0599805 0 0.000482857)
(0.0533914 0 0.00149326)
(0.0470941 0 0.00266904)
(0.041388 0 0.00400592)
(0.0366277 0 0.00548029)
(0.0333193 0 0.0070198)
(0.0326894 0 0.00835551)
(0.0296535 0 0.0102157)
(0 0 0)
(0.0211617 0 -0.000628086)
(0.0399871 0 -0.00119436)
(0.0559648 0 -0.00169064)
(0.0693803 0 -0.00212874)
(0.0804996 0 -0.00251824)
(0.0895638 0 -0.00286551)
(0.0967864 0 -0.0031737)
(0.102348 0 -0.00344424)
(0.106407 0 -0.00367773)
(0.109108 0 -0.00387349)
(0.11058 0 -0.00402843)
(0.110933 0 -0.0041383)
(0.110269 0 -0.00419751)
(0.108684 0 -0.00419973)
(0.106267 0 -0.00413712)
(0.103103 0 -0.0039999)
(0.0992786 0 -0.00377718)
(0.0948826 0 -0.00345711)
(0.0900072 0 -0.00302641)
(0.0847471 0 -0.00246971)
(0.079213 0 -0.00177126)
(0.0735448 0 -0.000916544)
(0.0679045 0 0.000107949)
(0.0624823 0 0.0013133)
(0.0575414 0 0.00269998)
(0.053449 0 0.0042445)
(0.0506666 0 0.00588478)
(0.0496875 0 0.0075056)
(0.0516682 0 0.00874112)
(0.0505653 0 0.0106458)
(0 0 0)
(0.0212987 0 -0.000784777)
(0.0402472 0 -0.00149227)
(0.0563458 0 -0.00211281)
(0.0698917 0 -0.00266185)
(0.0811536 0 -0.00315127)
(0.0903719 0 -0.00358836)
(0.0977625 0 -0.00397726)
(0.103512 0 -0.00432029)
(0.107784 0 -0.00461873)
(0.110726 0 -0.00487211)
(0.112468 0 -0.00507691)
(0.113126 0 -0.00522842)
(0.112806 0 -0.00532001)
(0.11161 0 -0.00534504)
(0.109635 0 -0.00529525)
(0.106972 0 -0.00515937)
(0.103717 0 -0.00492564)
(0.0999668 0 -0.00458114)
(0.0958248 0 -0.00411161)
(0.0914026 0 -0.00350179)
(0.0868271 0 -0.00273633)
(0.0822562 0 -0.00180267)
(0.0778806 0 -0.000692235)
(0.07393 0 0.000597025)
(0.0706822 0 0.00205319)
(0.0685275 0 0.00363179)
(0.0680581 0 0.00522049)
(0.0698804 0 0.00663664)
(0.0748806 0 0.00744389)
(0.0758512 0 0.00909097)
(0 0 0)
(0.0214562 0 -0.000940829)
(0.0405557 0 -0.00178931)
(0.0568041 0 -0.00253433)
(0.0705084 0 -0.00319464)
(0.0819406 0 -0.00378416)
(0.0913412 0 -0.0043118)
(0.0989328 0 -0.00478341)
(0.104909 0 -0.00520261)
(0.109436 0 -0.00557073)
(0.112665 0 -0.00588711)
(0.11473 0 -0.00614864)
(0.115753 0 -0.00635073)
(0.115847 0 -0.00648685)
(0.115119 0 -0.00654973)
(0.113672 0 -0.0065304)
(0.111606 0 -0.00641747)
(0.109028 0 -0.00619953)
(0.106046 0 -0.00586409)
(0.102775 0 -0.00539696)
(0.099349 0 -0.00478571)
(0.0959133 0 -0.00401792)
(0.092643 0 -0.00308509)
(0.0897572 0 -0.00198659)
(0.0875213 0 -0.000733857)
(0.0862682 0 0.000637145)
(0.0863942 0 0.00205787)
(0.0884973 0 0.00337684)
(0.0933217 0 0.00432349)
(0.101552 0 0.00441152)
(0.104667 0 0.0055506)
(0 0 0)
(0.0216335 0 -0.00109627)
(0.0409105 0 -0.00208585)
(0.0573358 0 -0.00295578)
(0.0712223 0 -0.00372793)
(0.0828489 0 -0.00441796)
(0.0924615 0 -0.00503735)
(0.100288 0 -0.00559429)
(0.106527 0 -0.00609296)
(0.111348 0 -0.00653516)
(0.114907 0 -0.00692052)
(0.117342 0 -0.0072464)
(0.118786 0 -0.00750903)
(0.119358 0 -0.00770334)
(0.11917 0 -0.00782084)
(0.11833 0 -0.0078516)
(0.116948 0 -0.0077855)
(0.115143 0 -0.00761314)
(0.113044 0 -0.00732444)
(0.110773 0 -0.00690661)
(0.108483 0 -0.00635046)
(0.106341 0 -0.00564911)
(0.104555 0 -0.00480347)
(0.103373 0 -0.00382464)
(0.10307 0 -0.00273696)
(0.104029 0 -0.00160206)
(0.106711 0 -0.000528661)
(0.111623 0 0.00030466)
(0.119539 0 0.000558156)
(0.131046 0 -0.000286417)
(0.136249 0 0.00018299)
(0 0 0)
(0.0218371 0 -0.00125087)
(0.0413123 0 -0.00238095)
(0.0579347 0 -0.00337558)
(0.0720244 0 -0.00425992)
(0.0838694 0 -0.00505214)
(0.0937238 0 -0.005766)
(0.101817 0 -0.0064113)
(0.108351 0 -0.00699324)
(0.113503 0 -0.00751447)
(0.117431 0 -0.00797535)
(0.120282 0 -0.00837365)
(0.122193 0 -0.00870696)
(0.123295 0 -0.0089715)
(0.123705 0 -0.00915908)
(0.12354 0 -0.00926094)
(0.122922 0 -0.00926867)
(0.121982 0 -0.00917497)
(0.120863 0 -0.00897284)
(0.119708 0 -0.00865413)
(0.118681 0 -0.00821388)
(0.117975 0 -0.00765282)
(0.117825 0 -0.00698254)
(0.118508 0 -0.00622877)
(0.120342 0 -0.0054378)
(0.123704 0 -0.00468928)
(0.129104 0 -0.00413199)
(0.137022 0 -0.00397855)
(0.14815 0 -0.00460419)
(0.162875 0 -0.0065151)
(0.170038 0 -0.00675505)
(0 0 0)
(0.0220647 0 -0.00140421)
(0.0417559 0 -0.00267346)
(0.0585934 0 -0.00379212)
(0.0729082 0 -0.00478886)
(0.0849954 0 -0.00568474)
(0.0951155 0 -0.00649534)
(0.103502 0 -0.00723172)
(0.11036 0 -0.00790063)
(0.115872 0 -0.00850589)
(0.120206 0 -0.00904902)
(0.123512 0 -0.00952924)
(0.125936 0 -0.00994484)
(0.127612 0 -0.0102923)
(0.128669 0 -0.0105661)
(0.129238 0 -0.0107605)
(0.129452 0 -0.0108694)
(0.129452 0 -0.010888)
(0.129393 0 -0.0108126)
(0.129441 0 -0.0106419)
(0.129779 0 -0.0103775)
(0.130634 0 -0.0100323)
(0.132255 0 -0.00962795)
(0.134926 0 -0.00920211)
(0.139041 0 -0.00883085)
(0.144995 0 -0.00861841)
(0.153261 0 -0.00873394)
(0.164343 0 -0.00942709)
(0.17877 0 -0.0110761)
(0.196575 0 -0.0141214)
(0.205662 0 -0.0150803)
(0 0 0)
(0.0223056 0 -0.0015558)
(0.0422327 0 -0.00296326)
(0.0593068 0 -0.00420574)
(0.0738671 0 -0.00531521)
(0.0862171 0 -0.0063156)
(0.0966241 0 -0.00722455)
(0.105326 0 -0.00805464)
(0.112533 0 -0.00881423)
(0.118434 0 -0.00950849)
(0.123204 0 -0.0101407)
(0.127002 0 -0.0107126)
(0.129977 0 -0.0112223)
(0.132265 0 -0.0116661)
(0.134012 0 -0.0120431)
(0.135361 0 -0.0123511)
(0.136456 0 -0.0125869)
(0.137452 0 -0.0127492)
(0.138512 0 -0.0128393)
(0.139833 0 -0.0128647)
(0.141617 0 -0.0128358)
(0.144106 0 -0.0127747)
(0.147581 0 -0.012719)
(0.152366 0 -0.0127258)
(0.158871 0 -0.0128892)
(0.167539 0 -0.013345)
(0.178809 0 -0.0142779)
(0.193183 0 -0.0159624)
(0.210932 0 -0.0187413)
(0.231653 0 -0.022949)
(0.242799 0 -0.0246905)
(0 0 0)
(0.0225573 0 -0.00170548)
(0.0427394 0 -0.00325039)
(0.0600699 0 -0.00461655)
(0.074894 0 -0.00583911)
(0.0875254 0 -0.00694498)
(0.0982385 0 -0.00795397)
(0.107276 0 -0.00888042)
(0.114854 0 -0.0097344)
(0.121167 0 -0.0105224)
(0.126397 0 -0.0112499)
(0.130712 0 -0.0119205)
(0.134262 0 -0.0125335)
(0.137195 0 -0.0130877)
(0.139667 0 -0.0135851)
(0.141832 0 -0.014027)
(0.143845 0 -0.014414)
(0.145873 0 -0.0147502)
(0.148097 0 -0.0150428)
(0.150732 0 -0.0153083)
(0.154007 0 -0.0155682)
(0.158171 0 -0.0158539)
(0.163536 0 -0.0162191)
(0.170496 0 -0.0167494)
(0.179451 0 -0.0175518)
(0.190863 0 -0.0187842)
(0.205199 0 -0.0206554)
(0.222926 0 -0.0234491)
(0.243985 0 -0.0274349)
(0.267496 0 -0.0328155)
(0.281067 0 -0.0354363)
(0 0 0)
(0.022825 0 -0.00185306)
(0.0432744 0 -0.00353376)
(0.0608741 0 -0.00502258)
(0.0759765 0 -0.00635797)
(0.0889045 0 -0.00756978)
(0.0999389 0 -0.00868002)
(0.109328 0 -0.00970498)
(0.117294 0 -0.0106566)
(0.12404 0 -0.0115437)
(0.129752 0 -0.0123731)
(0.1346 0 -0.0131491)
(0.138744 0 -0.0138743)
(0.142346 0 -0.0145516)
(0.145567 0 -0.0151851)
(0.148568 0 -0.0157788)
(0.151517 0 -0.0163388)
(0.154596 0 -0.0168752)
(0.158004 0 -0.0174032)
(0.161962 0 -0.0179457)
(0.166721 0 -0.0185362)
(0.172559 0 -0.0192215)
(0.179822 0 -0.020073)
(0.188923 0 -0.0211938)
(0.200292 0 -0.0227156)
(0.214407 0 -0.024815)
(0.231774 0 -0.027722)
(0.252788 0 -0.0317096)
(0.277064 0 -0.036946)
(0.303241 0 -0.0434901)
(0.320021 0 -0.0470914)
(0 0 0)
(0.0231054 0 -0.00199819)
(0.0438328 0 -0.00381263)
(0.0617123 0 -0.00542277)
(0.077105 0 -0.00687043)
(0.0903419 0 -0.00818833)
(0.10171 0 -0.00940077)
(0.111464 0 -0.010526)
(0.119834 0 -0.0115784)
(0.127029 0 -0.0125696)
(0.133237 0 -0.0135068)
(0.13863 0 -0.0143949)
(0.143381 0 -0.0152406)
(0.147662 0 -0.0160511)
(0.15164 0 -0.0168329)
(0.155483 0 -0.0175936)
(0.15937 0 -0.0183447)
(0.163495 0 -0.0191025)
(0.16807 0 -0.0198899)
(0.173328 0 -0.0207384)
(0.179537 0 -0.0216937)
(0.187001 0 -0.0228173)
(0.196096 0 -0.0242003)
(0.207223 0 -0.025957)
(0.220853 0 -0.0282457)
(0.237494 0 -0.0312679)
(0.257677 0 -0.0352735)
(0.281677 0 -0.0404992)
(0.308863 0 -0.0469997)
(0.337518 0 -0.0546995)
(0.35925 0 -0.0593621)
(0 0 0)
(0.0233961 0 -0.00214078)
(0.0444107 0 -0.00408688)
(0.0625793 0 -0.00581696)
(0.0782721 0 -0.00737623)
(0.0918282 0 -0.00880027)
(0.10354 0 -0.0101157)
(0.113669 0 -0.0113425)
(0.122452 0 -0.0124978)
(0.130103 0 -0.0135955)
(0.136811 0 -0.0146438)
(0.142756 0 -0.01565)
(0.148121 0 -0.0166243)
(0.153083 0 -0.0175767)
(0.157815 0 -0.0185166)
(0.162489 0 -0.0194557)
(0.167297 0 -0.0204113)
(0.172441 0 -0.0214055)
(0.178145 0 -0.0224697)
(0.184652 0 -0.0236445)
(0.192237 0 -0.0249849)
(0.201227 0 -0.0265692)
(0.211994 0 -0.0284999)
(0.224945 0 -0.0309094)
(0.24055 0 -0.0339735)
(0.259313 0 -0.0379141)
(0.281753 0 -0.0430046)
(0.307965 0 -0.0494437)
(0.337202 0 -0.0572099)
(0.36791 0 -0.0661875)
(0.398463 0 -0.0719208)
(0 0 0)
(0.0236962 0 -0.00228124)
(0.0450066 0 -0.00435732)
(0.0634729 0 -0.00620632)
(0.0794752 0 -0.00787683)
(0.0933603 0 -0.00940738)
(0.105426 0 -0.0108268)
(0.115939 0 -0.0121575)
(0.125145 0 -0.0134188)
(0.133259 0 -0.0146256)
(0.140473 0 -0.0157888)
(0.146978 0 -0.0169194)
(0.152961 0 -0.0180295)
(0.158601 0 -0.019131)
(0.164076 0 -0.0202374)
(0.169564 0 -0.0213639)
(0.175268 0 -0.0225346)
(0.181397 0 -0.0237777)
(0.188174 0 -0.0251299)
(0.195854 0 -0.0266418)
(0.204707 0 -0.0283761)
(0.21507 0 -0.0304243)
(0.227288 0 -0.0328961)
(0.241761 0 -0.035939)
(0.258903 0 -0.0397361)
(0.279151 0 -0.0445214)
(0.302862 0 -0.0505686)
(0.329825 0 -0.058077)
(0.35906 0 -0.0671659)
(0.388754 0 -0.0781365)
(0.437668 0 -0.0845992)
(0 0 0)
(0.020919 0 0)
(0.0395181 0 0)
(0.0552715 0 0)
(0.06845 0 0)
(0.0793139 0 0)
(0.0880991 0 0)
(0.095012 0 0)
(0.100229 0 0)
(0.103904 0 0)
(0.106171 0 0)
(0.107151 0 0)
(0.106947 0 0)
(0.105653 0 0)
(0.103354 0 0)
(0.100125 0 0)
(0.0960405 0 0)
(0.0911726 0 0)
(0.0855918 0 0)
(0.0793639 0 0)
(0.0725609 0 0)
(0.0652648 0 0)
(0.0575665 0 0)
(0.0495665 0 0)
(0.0413923 0 0)
(0.0332128 0 0)
(0.0252453 0 0)
(0.0177983 0 0)
(0.0113493 0 0)
(0.0067917 0 0)
(0 0 0)
(0 0 0)
(0.0209333 0 -0.000156432)
(0.0395463 0 -0.000297375)
(0.0553143 0 -0.000420795)
(0.0685083 0 -0.000530046)
(0.0793879 0 -0.000626954)
(0.0881903 0 -0.000712611)
(0.0951229 0 -0.00078828)
(0.100362 0 -0.000854548)
(0.104061 0 -0.00091105)
(0.106357 0 -0.000957052)
(0.107368 0 -0.000991898)
(0.1072 0 -0.00101442)
(0.105947 0 -0.00102303)
(0.103693 0 -0.00101575)
(0.100517 0 -0.000990184)
(0.0964899 0 -0.000943432)
(0.0916869 0 -0.00087244)
(0.0861818 0 -0.000773313)
(0.0800413 0 -0.000641413)
(0.0733371 0 -0.000471912)
(0.0661551 0 -0.000259589)
(0.0585922 0 1.23891e-06)
(0.050751 0 0.000317223)
(0.042759 0 0.000695403)
(0.0347924 0 0.00114166)
(0.027077 0 0.00166039)
(0.0199278 0 0.0022526)
(0.013857 0 0.00290622)
(0.00980779 0 0.00354748)
(0.00408187 0 0.00441193)
(0 0 0)
(0.0209784 0 -0.000313388)
(0.0396343 0 -0.000595806)
(0.0554469 0 -0.000843156)
(0.0686872 0 -0.00106168)
(0.0796133 0 -0.00125547)
(0.0884667 0 -0.00142727)
(0.0954579 0 -0.00157927)
(0.100763 0 -0.00171281)
(0.104535 0 -0.00182704)
(0.106913 0 -0.00192041)
(0.108018 0 -0.00199184)
(0.107956 0 -0.00203904)
(0.106823 0 -0.00205892)
(0.104705 0 -0.00204767)
(0.101683 0 -0.00200063)
(0.0978313 0 -0.00191211)
(0.0932253 0 -0.00177546)
(0.087944 0 -0.00158407)
(0.0820597 0 -0.00133001)
(0.0756466 0 -0.00100317)
(0.0687986 0 -0.000593717)
(0.0616254 0 -9.1091e-05)
(0.0542434 0 0.000517068)
(0.0467922 0 0.00124261)
(0.0394673 0 0.00209418)
(0.0325184 0 0.00307587)
(0.0262681 0 0.00418301)
(0.0212615 0 0.00537916)
(0.0185883 0 0.00649932)
(0.0139138 0 0.00800425)
(0 0 0)
(0.0210547 0 -0.000470838)
(0.039782 0 -0.000895253)
(0.0556648 0 -0.00126704)
(0.0689791 0 -0.00159489)
(0.0799851 0 -0.00188579)
(0.0889262 0 -0.00214463)
(0.0960149 0 -0.00237398)
(0.101428 0 -0.00257543)
(0.10532 0 -0.00274839)
(0.107833 0 -0.00289127)
(0.109092 0 -0.00300224)
(0.109204 0 -0.00307794)
(0.108268 0 -0.00311394)
(0.106374 0 -0.0031049)
(0.103607 0 -0.0030443)
(0.100045 0 -0.00292414)
(0.0957677 0 -0.0027351)
(0.0908579 0 -0.00246779)
(0.0853981 0 -0.00211134)
(0.0794694 0 -0.00165192)
(0.0731714 0 -0.00107572)
(0.0666288 0 -0.000369048)
(0.0599805 0 0.000482857)
(0.0533914 0 0.00149326)
(0.0470941 0 0.00266904)
(0.041388 0 0.00400592)
(0.0366277 0 0.00548029)
(0.0333193 0 0.0070198)
(0.0326894 0 0.00835551)
(0.0296535 0 0.0102157)
(0 0 0)
(0.0211617 0 -0.000628086)
(0.0399871 0 -0.00119436)
(0.0559648 0 -0.00169064)
(0.0693803 0 -0.00212874)
(0.0804996 0 -0.00251824)
(0.0895638 0 -0.00286551)
(0.0967864 0 -0.0031737)
(0.102348 0 -0.00344424)
(0.106407 0 -0.00367773)
(0.109108 0 -0.00387349)
(0.11058 0 -0.00402843)
(0.110933 0 -0.0041383)
(0.110269 0 -0.00419751)
(0.108684 0 -0.00419973)
(0.106267 0 -0.00413712)
(0.103103 0 -0.0039999)
(0.0992786 0 -0.00377718)
(0.0948826 0 -0.00345711)
(0.0900072 0 -0.00302641)
(0.0847471 0 -0.00246971)
(0.079213 0 -0.00177126)
(0.0735448 0 -0.000916544)
(0.0679045 0 0.000107949)
(0.0624823 0 0.0013133)
(0.0575414 0 0.00269998)
(0.053449 0 0.0042445)
(0.0506666 0 0.00588478)
(0.0496875 0 0.0075056)
(0.0516682 0 0.00874112)
(0.0505653 0 0.0106458)
(0 0 0)
(0.0212987 0 -0.000784777)
(0.0402472 0 -0.00149227)
(0.0563458 0 -0.00211281)
(0.0698917 0 -0.00266185)
(0.0811536 0 -0.00315127)
(0.0903719 0 -0.00358836)
(0.0977625 0 -0.00397726)
(0.103512 0 -0.00432029)
(0.107784 0 -0.00461873)
(0.110726 0 -0.00487211)
(0.112468 0 -0.00507691)
(0.113126 0 -0.00522842)
(0.112806 0 -0.00532001)
(0.11161 0 -0.00534504)
(0.109635 0 -0.00529525)
(0.106972 0 -0.00515937)
(0.103717 0 -0.00492564)
(0.0999668 0 -0.00458114)
(0.0958248 0 -0.00411161)
(0.0914026 0 -0.00350179)
(0.0868271 0 -0.00273633)
(0.0822562 0 -0.00180267)
(0.0778806 0 -0.000692235)
(0.07393 0 0.000597025)
(0.0706822 0 0.00205319)
(0.0685275 0 0.00363179)
(0.0680581 0 0.00522049)
(0.0698804 0 0.00663664)
(0.0748806 0 0.00744389)
(0.0758512 0 0.00909096)
(0 0 0)
(0.0214562 0 -0.000940829)
(0.0405557 0 -0.00178931)
(0.0568041 0 -0.00253433)
(0.0705084 0 -0.00319464)
(0.0819406 0 -0.00378416)
(0.0913412 0 -0.0043118)
(0.0989328 0 -0.00478341)
(0.104909 0 -0.00520261)
(0.109436 0 -0.00557073)
(0.112665 0 -0.00588711)
(0.11473 0 -0.00614864)
(0.115753 0 -0.00635073)
(0.115847 0 -0.00648685)
(0.115119 0 -0.00654973)
(0.113672 0 -0.0065304)
(0.111606 0 -0.00641747)
(0.109028 0 -0.00619953)
(0.106046 0 -0.00586409)
(0.102775 0 -0.00539696)
(0.099349 0 -0.00478571)
(0.0959133 0 -0.00401792)
(0.092643 0 -0.00308509)
(0.0897572 0 -0.00198659)
(0.0875213 0 -0.000733857)
(0.0862682 0 0.000637145)
(0.0863942 0 0.00205787)
(0.0884973 0 0.00337684)
(0.0933217 0 0.00432349)
(0.101552 0 0.00441152)
(0.104667 0 0.0055506)
(0 0 0)
(0.0216335 0 -0.00109627)
(0.0409105 0 -0.00208585)
(0.0573358 0 -0.00295578)
(0.0712223 0 -0.00372793)
(0.0828489 0 -0.00441796)
(0.0924615 0 -0.00503735)
(0.100288 0 -0.00559429)
(0.106527 0 -0.00609296)
(0.111348 0 -0.00653516)
(0.114907 0 -0.00692052)
(0.117342 0 -0.0072464)
(0.118786 0 -0.00750903)
(0.119358 0 -0.00770334)
(0.11917 0 -0.00782084)
(0.11833 0 -0.0078516)
(0.116948 0 -0.0077855)
(0.115143 0 -0.00761314)
(0.113044 0 -0.00732444)
(0.110773 0 -0.00690661)
(0.108483 0 -0.00635046)
(0.106341 0 -0.00564911)
(0.104555 0 -0.00480347)
(0.103373 0 -0.00382464)
(0.10307 0 -0.00273696)
(0.104029 0 -0.00160206)
(0.106711 0 -0.000528661)
(0.111623 0 0.00030466)
(0.119539 0 0.000558156)
(0.131046 0 -0.000286417)
(0.136249 0 0.000182989)
(0 0 0)
(0.0218371 0 -0.00125087)
(0.0413123 0 -0.00238095)
(0.0579347 0 -0.00337558)
(0.0720244 0 -0.00425992)
(0.0838694 0 -0.00505214)
(0.0937238 0 -0.005766)
(0.101817 0 -0.0064113)
(0.108351 0 -0.00699324)
(0.113503 0 -0.00751447)
(0.117431 0 -0.00797535)
(0.120282 0 -0.00837365)
(0.122193 0 -0.00870696)
(0.123295 0 -0.0089715)
(0.123705 0 -0.00915908)
(0.12354 0 -0.00926094)
(0.122922 0 -0.00926867)
(0.121982 0 -0.00917497)
(0.120863 0 -0.00897284)
(0.119708 0 -0.00865413)
(0.118681 0 -0.00821388)
(0.117975 0 -0.00765282)
(0.117825 0 -0.00698254)
(0.118508 0 -0.00622877)
(0.120342 0 -0.0054378)
(0.123704 0 -0.00468928)
(0.129104 0 -0.00413199)
(0.137022 0 -0.00397855)
(0.14815 0 -0.00460419)
(0.162875 0 -0.0065151)
(0.170038 0 -0.00675505)
(0 0 0)
(0.0220647 0 -0.00140421)
(0.0417559 0 -0.00267346)
(0.0585934 0 -0.00379212)
(0.0729082 0 -0.00478886)
(0.0849954 0 -0.00568474)
(0.0951155 0 -0.00649534)
(0.103502 0 -0.00723172)
(0.11036 0 -0.00790063)
(0.115872 0 -0.00850589)
(0.120206 0 -0.00904902)
(0.123512 0 -0.00952924)
(0.125936 0 -0.00994484)
(0.127612 0 -0.0102923)
(0.128669 0 -0.0105661)
(0.129238 0 -0.0107605)
(0.129452 0 -0.0108694)
(0.129452 0 -0.010888)
(0.129393 0 -0.0108126)
(0.129441 0 -0.0106419)
(0.129779 0 -0.0103775)
(0.130634 0 -0.0100323)
(0.132255 0 -0.00962795)
(0.134926 0 -0.00920211)
(0.139041 0 -0.00883085)
(0.144995 0 -0.00861841)
(0.153261 0 -0.00873394)
(0.164343 0 -0.00942709)
(0.17877 0 -0.0110761)
(0.196575 0 -0.0141214)
(0.205662 0 -0.0150803)
(0 0 0)
(0.0223056 0 -0.0015558)
(0.0422327 0 -0.00296326)
(0.0593068 0 -0.00420574)
(0.0738671 0 -0.00531521)
(0.0862171 0 -0.0063156)
(0.0966241 0 -0.00722455)
(0.105326 0 -0.00805464)
(0.112533 0 -0.00881423)
(0.118434 0 -0.00950849)
(0.123204 0 -0.0101407)
(0.127002 0 -0.0107126)
(0.129977 0 -0.0112223)
(0.132265 0 -0.0116661)
(0.134012 0 -0.0120431)
(0.135361 0 -0.0123511)
(0.136456 0 -0.0125869)
(0.137452 0 -0.0127492)
(0.138512 0 -0.0128393)
(0.139833 0 -0.0128647)
(0.141617 0 -0.0128358)
(0.144106 0 -0.0127747)
(0.147581 0 -0.012719)
(0.152366 0 -0.0127258)
(0.158871 0 -0.0128892)
(0.167539 0 -0.013345)
(0.178809 0 -0.0142779)
(0.193183 0 -0.0159624)
(0.210932 0 -0.0187413)
(0.231653 0 -0.022949)
(0.242799 0 -0.0246905)
(0 0 0)
(0.0225573 0 -0.00170548)
(0.0427394 0 -0.00325039)
(0.0600699 0 -0.00461655)
(0.074894 0 -0.00583911)
(0.0875254 0 -0.00694498)
(0.0982385 0 -0.00795397)
(0.107276 0 -0.00888042)
(0.114854 0 -0.0097344)
(0.121167 0 -0.0105224)
(0.126397 0 -0.0112499)
(0.130712 0 -0.0119205)
(0.134262 0 -0.0125335)
(0.137195 0 -0.0130877)
(0.139667 0 -0.0135851)
(0.141832 0 -0.014027)
(0.143845 0 -0.014414)
(0.145873 0 -0.0147502)
(0.148097 0 -0.0150428)
(0.150732 0 -0.0153083)
(0.154007 0 -0.0155682)
(0.158171 0 -0.0158539)
(0.163536 0 -0.0162191)
(0.170496 0 -0.0167494)
(0.179451 0 -0.0175518)
(0.190863 0 -0.0187842)
(0.205199 0 -0.0206554)
(0.222926 0 -0.0234491)
(0.243985 0 -0.0274349)
(0.267496 0 -0.0328155)
(0.281067 0 -0.0354363)
(0 0 0)
(0.022825 0 -0.00185306)
(0.0432744 0 -0.00353376)
(0.0608741 0 -0.00502258)
(0.0759765 0 -0.00635797)
(0.0889045 0 -0.00756978)
(0.0999389 0 -0.00868002)
(0.109328 0 -0.00970498)
(0.117294 0 -0.0106566)
(0.12404 0 -0.0115437)
(0.129752 0 -0.0123731)
(0.1346 0 -0.0131491)
(0.138744 0 -0.0138743)
(0.142346 0 -0.0145516)
(0.145567 0 -0.0151851)
(0.148568 0 -0.0157788)
(0.151517 0 -0.0163388)
(0.154596 0 -0.0168752)
(0.158004 0 -0.0174032)
(0.161962 0 -0.0179457)
(0.166721 0 -0.0185362)
(0.172559 0 -0.0192215)
(0.179822 0 -0.020073)
(0.188923 0 -0.0211938)
(0.200292 0 -0.0227156)
(0.214407 0 -0.024815)
(0.231774 0 -0.027722)
(0.252788 0 -0.0317096)
(0.277064 0 -0.036946)
(0.303241 0 -0.0434901)
(0.320021 0 -0.0470914)
(0 0 0)
(0.0231054 0 -0.00199819)
(0.0438328 0 -0.00381263)
(0.0617123 0 -0.00542277)
(0.077105 0 -0.00687043)
(0.0903419 0 -0.00818833)
(0.10171 0 -0.00940077)
(0.111464 0 -0.010526)
(0.119834 0 -0.0115784)
(0.127029 0 -0.0125696)
(0.133237 0 -0.0135068)
(0.13863 0 -0.0143949)
(0.143381 0 -0.0152406)
(0.147662 0 -0.0160511)
(0.15164 0 -0.0168329)
(0.155483 0 -0.0175936)
(0.15937 0 -0.0183447)
(0.163495 0 -0.0191025)
(0.16807 0 -0.0198899)
(0.173328 0 -0.0207384)
(0.179537 0 -0.0216937)
(0.187001 0 -0.0228173)
(0.196096 0 -0.0242003)
(0.207223 0 -0.025957)
(0.220853 0 -0.0282457)
(0.237494 0 -0.0312679)
(0.257677 0 -0.0352735)
(0.281677 0 -0.0404992)
(0.308863 0 -0.0469997)
(0.337518 0 -0.0546995)
(0.35925 0 -0.0593621)
(0 0 0)
(0.0233961 0 -0.00214078)
(0.0444107 0 -0.00408688)
(0.0625793 0 -0.00581696)
(0.0782721 0 -0.00737623)
(0.0918282 0 -0.00880027)
(0.10354 0 -0.0101157)
(0.113669 0 -0.0113425)
(0.122452 0 -0.0124978)
(0.130103 0 -0.0135955)
(0.136811 0 -0.0146438)
(0.142756 0 -0.01565)
(0.148121 0 -0.0166243)
(0.153083 0 -0.0175767)
(0.157815 0 -0.0185166)
(0.162489 0 -0.0194557)
(0.167297 0 -0.0204113)
(0.172441 0 -0.0214055)
(0.178145 0 -0.0224697)
(0.184652 0 -0.0236445)
(0.192237 0 -0.0249849)
(0.201227 0 -0.0265692)
(0.211994 0 -0.0284999)
(0.224945 0 -0.0309094)
(0.24055 0 -0.0339735)
(0.259313 0 -0.0379141)
(0.281753 0 -0.0430046)
(0.307965 0 -0.0494437)
(0.337202 0 -0.0572099)
(0.36791 0 -0.0661875)
(0.398463 0 -0.0719208)
(0 0 0)
(0.0236962 0 -0.00228124)
(0.0450066 0 -0.00435732)
(0.0634729 0 -0.00620632)
(0.0794752 0 -0.00787683)
(0.0933603 0 -0.00940738)
(0.105426 0 -0.0108268)
(0.115939 0 -0.0121575)
(0.125145 0 -0.0134188)
(0.133259 0 -0.0146256)
(0.140473 0 -0.0157888)
(0.146978 0 -0.0169194)
(0.152961 0 -0.0180295)
(0.158601 0 -0.019131)
(0.164076 0 -0.0202374)
(0.169564 0 -0.0213639)
(0.175268 0 -0.0225346)
(0.181397 0 -0.0237777)
(0.188174 0 -0.0251299)
(0.195854 0 -0.0266418)
(0.204707 0 -0.0283761)
(0.21507 0 -0.0304243)
(0.227288 0 -0.0328961)
(0.241761 0 -0.035939)
(0.258903 0 -0.0397361)
(0.279151 0 -0.0445214)
(0.302862 0 -0.0505686)
(0.329825 0 -0.058077)
(0.35906 0 -0.0671659)
(0.388754 0 -0.0781365)
(0.437668 0 -0.0845992)
(0 0 0)
(0.0109134 0 0)
(0.0238116 0 0)
(0.0462543 0 0)
(0.0769685 0 0)
(0.112272 0 0)
(0.147505 0 0)
(0.178975 0 0)
(0.205047 0 0)
(0.22558 0 0)
(0.241069 0 0)
(0.252252 0 0)
(0.25982 0 0)
(0.264306 0 0)
(0.266118 0 0)
(0.265546 0 0)
(0.262784 0 0)
(0.257955 0 0)
(0.251124 0 0)
(0.242318 0 0)
(0.231515 0 0)
(0.218672 0 0)
(0.203736 0 0)
(0.18664 0 0)
(0.167309 0 0)
(0.145657 0 0)
(0.121594 0 0)
(0.0950303 0 0)
(0.0658765 0 0)
(0.0340097 0 0)
(0 0 0)
(0.00351034 0 -0.00481876)
(0.0139463 0 -0.00550512)
(0.0272176 0 -0.00655721)
(0.0498884 0 -0.00789229)
(0.0805547 0 -0.00928352)
(0.115558 0 -0.0104935)
(0.150318 0 -0.0113333)
(0.181274 0 -0.0117504)
(0.206882 0 -0.0118258)
(0.227021 0 -0.0116273)
(0.242198 0 -0.011231)
(0.253141 0 -0.0107223)
(0.260525 0 -0.01014)
(0.264869 0 -0.00950551)
(0.266573 0 -0.00885049)
(0.265917 0 -0.00820106)
(0.263089 0 -0.00755698)
(0.258208 0 -0.00693504)
(0.251337 0 -0.00633799)
(0.242497 0 -0.00576519)
(0.231665 0 -0.00522385)
(0.218798 0 -0.00470505)
(0.203843 0 -0.00420289)
(0.186732 0 -0.00371163)
(0.167387 0 -0.0032253)
(0.145723 0 -0.00273743)
(0.12165 0 -0.00224089)
(0.0950764 0 -0.00172775)
(0.0659122 0 -0.00118898)
(0.0340324 0 -0.000613327)
(0 0 0)
(0.0121541 0 -0.00989311)
(0.0228894 0 -0.0113069)
(0.0372678 0 -0.0134285)
(0.0605531 0 -0.01603)
(0.0910749 0 -0.0186709)
(0.125196 0 -0.020911)
(0.158564 0 -0.0224201)
(0.188012 0 -0.0231347)
(0.212247 0 -0.0231949)
(0.231237 0 -0.0227474)
(0.245509 0 -0.0219492)
(0.255754 0 -0.0209441)
(0.262596 0 -0.0198035)
(0.266524 0 -0.0185811)
(0.267908 0 -0.0173224)
(0.267003 0 -0.0160605)
(0.263982 0 -0.0148175)
(0.258949 0 -0.0136133)
(0.251956 0 -0.0124556)
(0.243014 0 -0.0113504)
(0.232097 0 -0.0102967)
(0.219161 0 -0.00928306)
(0.204149 0 -0.00829926)
(0.18699 0 -0.00733462)
(0.167605 0 -0.0063777)
(0.145906 0 -0.00541601)
(0.121801 0 -0.00443573)
(0.095196 0 -0.00342134)
(0.0659995 0 -0.00235518)
(0.0340811 0 -0.00121514)
(0 0 0)
(0.0261485 0 -0.0155447)
(0.0373165 0 -0.0176676)
(0.0533044 0 -0.0208405)
(0.0773636 0 -0.0245812)
(0.10756 0 -0.0282681)
(0.140224 0 -0.0312664)
(0.171407 0 -0.0331897)
(0.198521 0 -0.0340128)
(0.220643 0 -0.0339406)
(0.237875 0 -0.0331988)
(0.250752 0 -0.0319994)
(0.259908 0 -0.0305142)
(0.265898 0 -0.0288446)
(0.269169 0 -0.0270791)
(0.270045 0 -0.0252691)
(0.268743 0 -0.0234472)
(0.265412 0 -0.0216621)
(0.260135 0 -0.0199353)
(0.252944 0 -0.0182734)
(0.243838 0 -0.0166821)
(0.232786 0 -0.0151545)
(0.21974 0 -0.0136788)
(0.204636 0 -0.0122418)
(0.1874 0 -0.0108286)
(0.167949 0 -0.00942325)
(0.146192 0 -0.00800771)
(0.122035 0 -0.00656204)
(0.0953805 0 -0.00506367)
(0.0661323 0 -0.0034869)
(0.0341539 0 -0.00179939)
(0 0 0)
(0.0449366 0 -0.0220304)
(0.0566381 0 -0.024767)
(0.074454 0 -0.0289348)
(0.0992842 0 -0.0336541)
(0.128869 0 -0.038133)
(0.159514 0 -0.0415886)
(0.187871 0 -0.0436576)
(0.212033 0 -0.044391)
(0.231492 0 -0.0440668)
(0.246508 0 -0.042981)
(0.257607 0 -0.0413703)
(0.265357 0 -0.0394204)
(0.270247 0 -0.0372556)
(0.272663 0 -0.0349832)
(0.272873 0 -0.0326667)
(0.271052 0 -0.0303485)
(0.267313 0 -0.028083)
(0.261709 0 -0.0258904)
(0.254253 0 -0.0237762)
(0.24493 0 -0.0217413)
(0.233699 0 -0.0197782)
(0.220504 0 -0.0178743)
(0.205276 0 -0.0160137)
(0.187936 0 -0.0141785)
(0.168396 0 -0.0123484)
(0.146563 0 -0.0105007)
(0.122336 0 -0.00860977)
(0.0956154 0 -0.00664673)
(0.0662993 0 -0.00457839)
(0.0342441 0 -0.00236297)
(0 0 0)
(0.0679827 0 -0.0294582)
(0.0801676 0 -0.0326939)
(0.0998468 0 -0.0377879)
(0.125293 0 -0.0432992)
(0.153814 0 -0.0482504)
(0.181889 0 -0.0518291)
(0.206923 0 -0.0537776)
(0.227709 0 -0.0542404)
(0.244143 0 -0.053555)
(0.256633 0 -0.052068)
(0.265686 0 -0.0500289)
(0.271809 0 -0.0476289)
(0.275424 0 -0.0450093)
(0.276842 0 -0.0422778)
(0.27627 0 -0.0395096)
(0.273836 0 -0.0367618)
(0.269609 0 -0.0340756)
(0.263611 0 -0.0314691)
(0.255835 0 -0.0289484)
(0.246247 0 -0.0265122)
(0.234798 0 -0.0241521)
(0.221422 0 -0.0218543)
(0.206043 0 -0.0196009)
(0.188576 0 -0.0173712)
(0.168927 0 -0.0151414)
(0.146999 0 -0.0128845)
(0.122688 0 -0.0105702)
(0.0958877 0 -0.0081635)
(0.0664909 0 -0.00562465)
(0.0343465 0 -0.00290322)
(0 0 0)
(0.0946349 0 -0.037825)
(0.107261 0 -0.0414867)
(0.128713 0 -0.0474233)
(0.154433 0 -0.0534923)
(0.181284 0 -0.0585482)
(0.206253 0 -0.061901)
(0.22757 0 -0.0634595)
(0.244713 0 -0.0634834)
(0.257931 0 -0.0623509)
(0.267723 0 -0.0604191)
(0.27458 0 -0.0579436)
(0.278953 0 -0.055115)
(0.281193 0 -0.0520835)
(0.281532 0 -0.0489543)
(0.280108 0 -0.0458019)
(0.276994 0 -0.0426832)
(0.272219 0 -0.0396303)
(0.265775 0 -0.0366602)
(0.257633 0 -0.0337787)
(0.247743 0 -0.0309832)
(0.236044 0 -0.0282643)
(0.22246 0 -0.025607)
(0.206907 0 -0.022992)
(0.189293 0 -0.0203961)
(0.16952 0 -0.0177925)
(0.147484 0 -0.0151506)
(0.123076 0 -0.0124358)
(0.0961851 0 -0.00960802)
(0.0666982 0 -0.00662141)
(0.0344562 0 -0.00341785)
(0 0 0)
(0.124236 0 -0.0470776)
(0.137318 0 -0.0511392)
(0.160289 0 -0.0577837)
(0.185723 0 -0.0641026)
(0.210228 0 -0.0688775)
(0.231594 0 -0.0716729)
(0.248912 0 -0.0726028)
(0.262285 0 -0.072044)
(0.272222 0 -0.0703948)
(0.279266 0 -0.0679926)
(0.283893 0 -0.0650898)
(0.286495 0 -0.061873)
(0.287338 0 -0.0584838)
(0.286567 0 -0.055019)
(0.284252 0 -0.0515453)
(0.280419 0 -0.0481102)
(0.275056 0 -0.0447425)
(0.26813 0 -0.0414575)
(0.25959 0 -0.0382599)
(0.249371 0 -0.0351463)
(0.237397 0 -0.0321062)
(0.223584 0 -0.0291238)
(0.20784 0 -0.0261783)
(0.190064 0 -0.0232447)
(0.170153 0 -0.0202938)
(0.147998 0 -0.017292)
(0.123485 0 -0.0142006)
(0.0964958 0 -0.0109754)
(0.0669126 0 -0.00756512)