/*--------------------------------*- C++ -*----------------------------------*\
| =========                 |                                                 |
| \\      /  F ield         | OpenFOAM: The Open Source CFD Toolbox           |
|  \\    /   O peration     | Version:  4.1                                   |
|   \\  /    A nd           | Web:      www.OpenFOAM.org                      |
|    \\/     M anipulation  |                                                 |
\*---------------------------------------------------------------------------*/
FoamFile
{
    version     2.0;
    format      ascii;
    class       volVectorField;
    location    "5";
    object      U;
}
// * * * * * * * * * * * * * * * * * * * * * * * * * * * * * * * * * * * * * //

dimensions      [0 1 -1 0 0 0 0];

internalField   nonuniform List<vector> 
2790
(
(9.93376 0 0.0191939)
(9.86847 1.01911e-20 0.02581)
(9.7774 -1.05055e-20 0.0299366)
(9.66724 -4.3561e-20 0.0343217)
(9.5446 8.96742e-20 0.0389271)
(9.41083 -4.67267e-20 0.0436625)
(9.26524 0 0.0486411)
(9.10708 0 0.054008)
(8.93564 0 0.0598753)
(8.75011 -1.09463e-19 0.0663512)
(8.54955 1.12815e-19 0.0735582)
(8.33285 0 0.0816246)
(8.09867 -2.57832e-19 0.0906919)
(7.84556 2.58371e-19 0.100922)
(7.57191 0 0.112494)
(7.27597 2.90436e-19 0.125601)
(6.95588 -3.01337e-19 0.140454)
(6.60967 -1.60616e-19 0.157283)
(6.23536 0 0.17634)
(5.83097 0 0.197865)
(5.39464 0 0.222064)
(4.92472 0 0.249104)
(4.42007 0 0.279083)
(3.88013 0 0.311963)
(3.30509 1.04921e-18 0.347517)
(2.69622 -1.10729e-18 0.385168)
(2.05627 -4.89611e-18 0.423418)
(1.38963 6.60079e-18 0.457681)
(0.704402 -1.43173e-18 0.461004)
(-0.000447262 -1.63969e-18 -0.0362614)
(9.99738 0 0.0362187)
(9.99168 -3.23505e-19 0.0510355)
(9.96234 0 0.0611889)
(9.91197 0 0.0723301)
(9.84614 2.65162e-22 0.0844301)
(9.76638 3.03882e-22 0.0972201)
(9.6723 -3.78352e-19 0.110911)
(9.56334 1.94563e-19 0.125828)
(9.43893 0 0.14224)
(9.29831 0 0.160411)
(9.14064 0 0.180633)
(8.96494 0 0.203215)
(8.76993 7.3984e-21 0.228503)
(8.55422 0 0.256883)
(8.31624 -6.44808e-20 0.288773)
(8.05427 -1.35056e-19 0.324614)
(7.7664 0 0.364859)
(7.45061 1.35405e-18 0.409965)
(7.10476 -9.3313e-19 0.460388)
(6.72669 0 0.516496)
(6.31416 2.83729e-18 0.578481)
(5.86493 -3.70044e-18 0.646311)
(5.37708 7.90667e-19 0.719625)
(4.84896 0 0.797531)
(4.27917 9.0431e-19 0.878389)
(3.66669 -9.68835e-19 0.959373)
(3.01073 2.07237e-18 1.03539)
(2.3098 -1.1185e-18 1.09628)
(1.53027 1.20064e-18 1.12352)
(0.867714 -1.56988e-17 1.01724)
(9.99466 -6.30806e-19 0.0349198)
(9.98651 3.22913e-19 0.0564534)
(9.95969 -4.14594e-19 0.0738455)
(9.91421 8.5237e-20 0.092386)
(9.85438 0 0.112472)
(9.7818 1.82231e-19 0.13389)
(9.6963 7.70504e-22 0.156895)
(9.59747 3.89393e-19 0.181944)
(9.48486 -5.99245e-19 0.209472)
(9.35777 -2.07407e-19 0.239914)
(9.21554 0 0.273737)
(9.05734 9.0023e-19 0.311453)
(8.88209 -9.23058e-19 0.353645)
(8.68856 7.54391e-21 0.400962)
(8.4754 2.03255e-18 0.454116)
(8.24107 -1.95574e-18 0.513873)
(7.98387 -2.49199e-18 0.581035)
(7.70191 -3.95931e-20 0.656432)
(7.39311 -3.4417e-19 0.740917)
(7.05528 2.50975e-18 0.835272)
(6.68596 -5.36965e-18 0.94003)
(6.28233 1.26082e-17 1.05541)
(5.8415 -6.60163e-18 1.18121)
(5.36027 -7.84241e-18 1.31645)
(4.83472 -8.38446e-18 1.4592)
(4.2598 1.39102e-17 1.60612)
(3.62796 -1.8664e-18 1.75175)
(2.9276 1.96818e-18 1.88752)
(2.10437 -1.69284e-17 2.00926)
(1.26309 5.16442e-17 2.12132)
(9.99282 1.25885e-18 0.0370425)
(9.98232 0 0.0667188)
(9.95529 3.30698e-19 0.0925388)
(9.91082 1.7044e-19 0.11871)
(9.85234 -1.74701e-19 0.146364)
(9.78146 0 0.175649)
(9.69816 0 0.206941)
(9.60219 -3.84167e-19 0.240833)
(9.49318 9.98087e-19 0.277936)
(9.37061 -6.12256e-19 0.318851)
(9.23404 8.56909e-19 0.364203)
(9.08282 -7.67059e-19 0.414694)
(8.9161 -5.7133e-20 0.471123)
(8.73297 -7.44287e-21 0.534368)
(8.53239 6.19219e-20 0.605405)
(8.31319 2.0756e-18 0.685299)
(8.07409 -1.8594e-18 0.775184)
(7.81363 4.23337e-18 0.876282)
(7.53009 -5.2134e-18 0.989897)
(7.22178 6.07414e-19 1.11736)
(6.88645 6.3489e-19 1.25981)
(6.52122 6.57889e-19 1.41809)
(6.12292 0 1.5927)
(5.68743 1.47287e-18 1.78345)
(5.20897 1.93675e-20 1.9893)
(4.67953 0 2.20849)
(4.08677 1.19374e-17 2.43859)
(3.41406 -4.64361e-17 2.6773)
(2.62697 3.17529e-17 2.91884)
(1.64575 -2.02634e-18 3.28787)
(9.99181 -6.27862e-19 0.0406743)
(9.9799 6.407e-19 0.0768932)
(9.95255 0 0.109805)
(9.9088 0 0.142721)
(9.85153 0 0.177256)
(9.78223 3.60101e-19 0.213902)
(9.70089 3.74238e-19 0.253129)
(9.60733 2.9939e-21 0.295622)
(9.50123 -7.91852e-19 0.342101)
(9.38215 8.09764e-19 0.393266)
(9.24979 1.48366e-18 0.449862)
(9.1036 -3.37727e-18 0.512729)
(8.94296 3.66707e-18 0.582825)
(8.76715 -1.85845e-18 0.661195)
(8.57536 0 0.749007)
(8.36678 0 0.847545)
(8.14045 -4.22255e-18 0.958195)
(7.89536 4.59485e-18 1.0825)
(7.63019 5.684e-19 1.22213)
(7.34381 -5.91819e-19 1.37894)
(7.03455 -1.83676e-18 1.55476)
(6.69975 -1.28429e-18 1.75116)
(6.33664 0 1.96972)
(5.94094 -1.25217e-17 2.21161)
(5.50629 1.31892e-18 2.47744)
(5.02419 1.19249e-17 2.76796)
(4.48149 -2.33816e-17 3.08419)
(3.85688 1.55428e-18 3.4317)
(3.18092 2.49504e-17 3.7715)
(2.08332 -2.38797e-17 4.39215)
(9.99126 0 0.0450587)
(9.9786 -6.39258e-19 0.087152)
(9.95118 1.6411e-19 0.126768)
(9.90827 -1.68111e-19 0.166465)
(9.85245 0 0.207945)
(9.78505 -7.15307e-19 0.251934)
(9.70598 7.31498e-19 0.299011)
(9.6151 -7.56301e-19 0.349927)
(9.51223 0 0.405493)
(9.39697 4.01734e-19 0.46651)
(9.26906 2.08168e-19 0.533828)
(9.12805 1.29951e-18 0.608409)
(8.9735 -1.76579e-18 0.691352)
(8.80487 0 0.783864)
(8.6215 3.83446e-18 0.887273)
(8.42284 5.68296e-20 1.00304)
(8.20816 -4.05775e-18 1.13276)
(7.97673 4.26908e-18 1.27825)
(7.72766 -3.81432e-18 1.4415)
(7.45999 -5.66046e-19 1.62475)
(7.17286 2.35964e-18 1.83053)
(6.8642 0 2.06123)
(6.53178 1.01901e-17 2.3195)
(6.17204 -9.09255e-18 2.60815)
(5.77909 1.33766e-18 2.92962)
(5.34542 0 3.287)
(4.8611 0 3.68301)
(4.2932 1.43018e-18 4.13301)
(3.77461 2.34437e-17 4.53218)
(2.57535 -5.30379e-17 5.36457)
(9.99106 -1.16569e-18 0.0498144)
(9.97806 -2.38556e-19 0.0974776)
(9.95088 -1.46657e-18 0.14341)
(9.90904 3.34371e-19 0.189643)
(9.85495 -3.45102e-19 0.237806)
(9.78973 3.52858e-19 0.288823)
(9.71325 -7.30928e-19 0.343408)
(9.62545 1.12186e-18 0.402372)
(9.52627 3.85242e-19 0.466609)
(9.41536 -1.54589e-21 0.537029)
(9.29251 0 0.614584)
(9.15731 4.23118e-19 0.700326)
(9.00942 1.54072e-18 0.795455)
(8.84849 -5.42662e-18 0.901303)
(8.6741 7.45912e-18 1.01935)
(8.48592 -3.82796e-18 1.15123)
(8.28332 4.0107e-18 1.29872)
(8.06563 -4.08811e-18 1.46382)
(7.83259 -9.10002e-18 1.64888)
(7.58325 9.28012e-18 1.85639)
(7.31719 -1.14096e-18 2.08941)
(7.03332 -8.24444e-18 2.35121)
(6.72965 1.92437e-17 2.64535)
(6.40418 -9.83937e-18 2.9762)
(6.05258 -1.27915e-18 3.34802)
(5.66823 0 3.76537)
(5.24775 -2.08737e-17 4.23019)
(4.73615 1.99998e-17 4.77199)
(4.39167 2.17573e-17 5.19713)
(3.10269 -2.33779e-17 6.19531)
(9.99102 8.04531e-20 0.0547119)
(9.97805 -1.34313e-18 0.107749)
(9.9514 1.62388e-18 0.159629)
(9.91087 -3.32399e-19 0.212091)
(9.85877 -2.8772e-21 0.266672)
(9.79603 7.00432e-19 0.324442)
(9.72256 -7.20565e-19 0.386238)
(9.63836 -7.45342e-19 0.452913)
(9.54337 -3.83989e-19 0.525429)
(9.43739 1.18583e-18 0.604799)
(9.32025 -1.61013e-18 0.692083)
(9.19158 -2.08856e-19 0.788424)
(9.05101 2.15249e-19 0.895064)
(8.89843 0 1.0134)
(8.7336 0 1.14504)
(8.55652 0 1.29185)
(8.36672 0 1.45581)
(8.16356 8.03679e-18 1.63904)
(7.94715 -8.17254e-18 1.84415)
(7.71693 -8.50963e-18 2.07397)
(7.47263 8.6444e-18 2.33192)
(7.21386 -1.12383e-18 2.62201)
(6.93923 0 2.94853)
(6.64792 1.14954e-18 3.31696)
(6.33791 0 3.73319)
(6.00348 -1.8441e-17 4.20296)
(5.64968 3.81031e-17 4.72457)
(5.18986 -1.92165e-17 5.34757)
(5.01704 1.68798e-17 5.77852)
(3.648 -1.93632e-17 6.90843)
(9.99098 1.23522e-18 0.0596228)
(9.97839 1.41825e-18 0.117842)
(9.95251 -1.44957e-18 0.175348)
(9.91345 0 0.233725)
(9.8635 -6.79722e-19 0.294437)
(9.80346 6.98865e-19 0.358652)
(9.73332 -7.14479e-19 0.427303)
(9.65308 -1.02684e-21 0.501295)
(9.56271 -7.59899e-19 0.581645)
(9.4621 3.1034e-18 0.669443)
(9.3512 -1.58727e-18 0.76587)
(9.2297 0 0.872175)
(9.09734 -3.81079e-18 0.989625)
(8.95407 3.4486e-18 1.11963)
(8.79972 -2.21855e-19 1.26388)
(8.63438 -3.57308e-18 1.42441)
(8.45806 7.51892e-18 1.60345)
(8.2704 -3.90596e-18 1.80328)
(8.07152 -1.23139e-19 2.02664)
(7.86138 7.91828e-18 2.27674)
(7.6399 -8.01751e-18 2.55733)
(7.40722 5.2489e-19 2.87293)
(7.16308 5.32936e-19 3.22854)
(6.90722 -1.85681e-17 3.63028)
(6.63942 1.72897e-17 4.08503)
(6.35506 -5.56868e-19 4.60019)
(6.06886 5.30771e-19 5.16816)
(5.65606 -2.04628e-18 5.86342)
(5.64376 -4.01411e-18 6.29271)
(4.20343 -3.39078e-17 7.53378)
(9.99102 0 0.0644652)
(9.97897 0 0.127648)
(9.9541 1.60545e-18 0.190489)
(9.91672 -3.28158e-19 0.254466)
(9.86912 0 0.321)
(9.81202 0 0.391323)
(9.74549 7.10971e-19 0.466442)
(9.66954 3.90482e-21 0.547325)
(9.58417 7.43897e-19 0.635037)
(9.48936 1.53747e-18 0.730727)
(9.38503 -3.14214e-18 0.835658)
(9.27114 1.60454e-18 0.951163)
(9.14779 4.15033e-19 1.07858)
(9.01473 -4.22517e-19 1.21938)
(8.87178 -3.06526e-18 1.37529)
(8.71912 3.21688e-18 1.54839)
(8.55705 -9.92183e-20 1.74106)
(8.38581 5.88279e-20 1.95585)
(8.2054 9.06711e-20 2.19561)
(8.0163 -7.61439e-18 2.46384)
(7.81883 1.56147e-17 2.76463)
(7.61362 -8.53135e-18 3.10283)
(7.40133 -1.67751e-17 3.48401)
(7.18235 1.63108e-17 3.9149)
(6.95801 2.58005e-19 4.40297)
(6.72384 -9.84191e-19 4.95734)
(6.50535 -5.00214e-19 5.56402)
(6.13722 1.91592e-18 6.32416)
(6.26964 -2.39384e-17 6.75538)
(4.76787 6.03312e-17 8.09436)
(9.9913 -1.52618e-19 0.0691592)
(9.97975 1.55681e-19 0.137084)
(9.9561 -1.59152e-18 0.204956)
(9.92069 3.25924e-19 0.274208)
(9.87569 -6.70084e-19 0.346233)
(9.82182 -6.83628e-19 0.422307)
(9.75921 -1.4078e-18 0.503491)
(9.68791 -9.60436e-21 0.590809)
(9.60799 1.46429e-18 0.685388)
(9.5194 0 0.788451)
(9.42198 0 0.901259)
(9.31603 3.97171e-18 1.02512)
(9.20198 -3.2299e-18 1.16153)
(9.07955 -2.50681e-18 1.31212)
(8.94865 -6.67865e-19 1.47863)
(8.80959 7.16395e-18 1.66311)
(8.66276 -2.97801e-18 1.86798)
(8.5088 0 2.09602)
(8.34787 2.89608e-20 2.35025)
(8.18082 2.60772e-19 2.63434)
(8.00862 7.57261e-18 2.95269)
(7.83238 7.63748e-18 3.31041)
(7.65317 -1.52646e-17 3.71348)
(7.47237 -9.35733e-19 4.16921)
(7.29321 0 4.68573)
(7.11001 2.72156e-18 5.27388)
(6.95915 1.03595e-17 5.91435)
(6.63734 -1.66822e-17 6.73238)
(6.89432 0 7.1816)
(5.34506 0 8.61258)
(9.99167 0 0.0736393)
(9.98068 -2.47152e-18 0.146093)
(9.95837 1.58541e-18 0.218678)
(9.92507 -3.2362e-19 0.292856)
(9.88281 6.59072e-19 0.37002)
(9.83237 6.82978e-19 0.451467)
(9.77389 1.39333e-18 0.538287)
(9.70748 -7.08533e-19 0.631549)
(9.63327 -1.45444e-18 0.732468)
(9.55119 0 0.842345)
(9.46129 0 0.962386)
(9.36392 -7.80801e-19 1.09383)
(9.2594 7.91504e-19 1.23828)
(9.14786 -4.07754e-19 1.39756)
(9.02953 4.35829e-21 1.57347)
(8.90475 4.19525e-19 1.76798)
(8.77392 -4.32268e-19 1.98352)
(8.63797 4.33e-19 2.22303)
(8.49748 7.09045e-18 2.48966)
(8.35356 -6.90984e-18 2.78718)
(8.20779 8.89041e-19 3.12019)
(8.06164 0 3.49405)
(7.91683 0 3.91512)
(7.77577 1.31827e-17 4.39114)
(7.64343 -1.38593e-17 4.93089)
(7.51286 -1.69177e-18 5.54748)
(7.43033 3.22327e-18 6.21924)
(7.16221 -8.31075e-18 7.08773)
(7.52226 -9.15282e-18 7.58514)
(5.94849 2.27699e-17 9.12175)
(9.99198 0 0.0778747)
(9.98172 2.77249e-18 0.154624)
(9.96088 9.41172e-19 0.231609)
(9.9298 0 0.310355)
(9.89043 -1.31809e-18 0.392288)
(9.8436 6.73786e-19 0.478715)
(9.78945 6.85854e-19 0.570732)
(9.72814 7.05067e-19 0.669447)
(9.65974 -7.1158e-19 0.776149)
(9.58442 -7.30783e-19 0.892172)
(9.50258 7.45833e-19 1.0187)
(9.41439 0 1.15698)
(9.31984 -1.55755e-18 1.30863)
(9.21951 0 1.47551)
(9.11405 -3.96896e-19 1.65948)
(9.00392 -4.12634e-19 1.86257)
(8.88958 0 2.08716)
(8.77215 -8.00776e-18 2.33622)
(8.65283 6.77793e-18 2.61302)
(8.53284 4.14156e-19 2.92131)
(8.41435 -7.68431e-18 3.26587)
(8.29933 6.79621e-18 3.65223)
(8.19033 1.64983e-18 4.08699)
(8.09087 5.41984e-20 4.57832)
(8.00668 0 5.13525)
(7.93104 0 5.77366)
(7.91862 1.07788e-17 6.4746)
(7.71993 -6.93048e-19 7.38401)
(8.16808 -1.182e-18 7.97224)
(6.61102 -9.31287e-18 9.66978)
(9.99228 -2.24672e-18 0.0818442)
(9.98289 -4.58586e-19 0.162613)
(9.96369 1.5542e-18 0.24368)
(9.93498 -1.27402e-18 0.326631)
(9.89869 -1.95494e-18 0.41294)
(9.85569 6.6501e-19 0.503937)
(9.80615 -1.35693e-18 0.600718)
(9.7501 -1.39257e-18 0.704416)
(9.68764 2.83417e-18 0.816335)
(9.61926 -7.15867e-19 0.937771)
(9.54559 -7.3904e-19 1.06996)
(9.46661 0 1.21426)
(9.38242 7.13643e-21 1.37224)
(9.29377 -7.71126e-19 1.54564)
(9.20144 9.11369e-21 1.73636)
(9.1062 7.91649e-19 1.94649)
(9.00875 0 2.17843)
(8.91025 8.18132e-19 2.43502)
(8.81245 7.33104e-18 2.71958)
(8.71694 -1.38564e-17 3.03584)
(8.6262 8.09209e-18 3.38853)
(8.54301 -1.27383e-17 3.78334)
(8.47093 9.453e-18 4.22691)
(8.41459 1.53942e-18 4.7277)
(8.38038 0 5.29479)
(8.36349 0 5.9461)
(8.42387 -9.43396e-18 6.67002)
(8.32046 7.95771e-19 7.60336)
(8.85785 1.30754e-18 8.3249)
(7.38983 9.83924e-18 10.3133)
(9.99255 4.77357e-18 0.0855293)
(9.98411 3.03747e-19 0.170012)
(9.96663 -3.20089e-19 0.254831)
(9.94038 1.26957e-18 0.341616)
(9.90726 1.94403e-18 0.431893)
(9.86822 -6.58861e-19 0.527033)
(9.82338 5.05357e-22 0.628149)
(9.77267 -6.39539e-21 0.736355)
(9.71641 -7.03134e-21 0.85291)
(9.65531 1.41099e-18 0.979082)
(9.58982 1.4446e-18 1.11617)
(9.52006 4.41825e-18 1.26563)
(9.44652 7.66906e-19 1.42897)
(9.36986 -5.2986e-18 1.60781)
(9.29099 6.14207e-18 1.80401)
(9.21073 -3.86991e-18 2.01967)
(9.13022 -4.69796e-18 2.2572)
(9.05092 1.5445e-18 2.5193)
(8.97468 5.47199e-18 2.80914)
(8.90377 0 3.13046)
(8.84087 -9.21608e-18 3.48774)
(8.78961 4.57659e-18 3.88652)
(8.75458 -1.30062e-17 4.33329)
(8.74158 1.13467e-17 4.83628)
(8.75884 2.58877e-18 5.40456)
(8.80516 -4.74009e-18 6.05611)
(8.94222 4.22329e-18 6.78754)
(8.9673 0 7.71156)
(9.61533 0 8.57212)
(8.36858 -7.92263e-19 11.1372)
(0.0892407 0 -0.0747662)
(0.261334 4.70786e-20 -0.0838074)
(0.451957 3.01794e-21 -0.0673506)
(0.626864 0 -0.0496025)
(0.775448 0 -0.0360683)
(0.899763 0 -0.0273323)
(1.00623 -1.52819e-20 -0.0223723)
(1.10062 3.33259e-20 -0.0198228)
(1.18765 -3.41245e-20 -0.0185847)
(1.27044 0 -0.0178959)
(1.34986 1.81404e-20 -0.0172631)
(1.42615 -3.62203e-20 -0.0163868)
(1.49902 -1.79284e-20 -0.0150675)
(1.56746 0 -0.0131966)
(1.63056 3.41226e-20 -0.0107145)
(1.68705 -8.14346e-21 -0.0076157)
(1.73558 7.99603e-21 -0.00406479)
(1.77516 -3.7208e-21 -0.000380773)
(1.80508 1.45482e-20 0.00302324)
(1.82562 3.46e-21 0.00575491)
(1.83776 0 0.00759506)
(1.84299 -1.16686e-20 0.00852218)
(1.84323 0 0.0086841)
(1.84035 1.10731e-21 0.00831948)
(1.83596 -1.09253e-21 0.00764438)
(1.83127 3.86772e-22 0.00677588)
(1.82723 -6.76931e-22 0.00572037)
(1.82463 2.91283e-22 0.00443188)
(1.82438 0 0.00286265)
(1.82911 0 0.00080867)
(0.0704563 2.09445e-19 -0.194182)
(0.245317 -1.74933e-19 -0.214269)
(0.439983 1.46646e-19 -0.178157)
(0.624264 -1.77097e-19 -0.139564)
(0.788894 0 -0.11029)
(0.933193 0 -0.0916669)
(1.06056 1.40332e-19 -0.0813392)
(1.17471 -1.28272e-19 -0.0762176)
(1.27948 -6.94018e-20 -0.0739404)
(1.37811 7.01508e-20 -0.0729255)
(1.47233 -3.5914e-20 -0.0721363)
(1.56321 1.77544e-20 -0.0709718)
(1.65141 -1.74725e-20 -0.0690444)
(1.73704 3.44559e-20 -0.0661144)
(1.81998 -3.3678e-20 -0.0620325)
(1.9 -4.83736e-20 -0.0566445)
(1.97665 3.66509e-22 -0.0499345)
(2.04906 4.51224e-22 -0.0420854)
(2.11621 2.79486e-22 -0.0335229)
(2.17709 0 -0.0248776)
(2.23079 0 -0.0168168)
(2.27694 2.84219e-20 -0.00995662)
(2.31591 5.31643e-21 -0.00469573)
(2.34863 0 -0.00110289)
(2.37629 -1.5812e-20 0.00101587)
(2.39994 0 0.00197352)
(2.42032 -1.1328e-21 0.00205744)
(2.43783 1.49755e-21 0.00144955)
(2.45278 -5.09182e-21 0.000209072)
(2.46797 9.33246e-23 -0.00179268)
(0.0345988 2.15897e-19 -0.321225)
(0.19526 -1.77327e-19 -0.342398)
(0.379091 0 -0.286979)
(0.549126 -2.06619e-19 -0.229027)
(0.701533 2.01291e-19 -0.185129)
(0.834556 2.98086e-19 -0.15708)
(0.950498 -2.12377e-19 -0.141281)
(1.05297 2.11783e-21 -0.133147)
(1.14596 0 -0.129282)
(1.2326 0 -0.127432)
(1.31479 1.08609e-19 -0.126147)
(1.39387 5.7442e-22 -0.124626)
(1.47079 7.16544e-20 -0.122357)
(1.54622 6.92422e-20 -0.118963)
(1.62039 -3.44049e-20 -0.114206)
(1.69339 0 -0.107889)
(1.76534 -6.32199e-20 -0.0998999)
(1.83591 0 -0.0903326)
(1.90464 0 -0.0795486)
(1.97099 -1.30258e-20 -0.0681182)
(2.03415 -3.72881e-20 -0.056745)
(2.09331 -6.88523e-20 -0.046214)
(2.14769 3.68158e-20 -0.0371731)
(2.1967 9.1958e-21 -0.029919)
(2.2399 -1.69248e-20 -0.024366)
(2.27689 -5.15967e-21 -0.0201811)
(2.30737 1.49131e-21 -0.0170023)
(2.33112 -1.57158e-20 -0.0146122)
(2.34825 4.45049e-21 -0.0129758)
(2.36094 -2.98002e-21 -0.0120587)
(-0.00588852 -9.6664e-20 -0.438896)
(0.137263 -3.05398e-19 -0.448011)
(0.314191 6.85553e-19 -0.37465)
(0.467927 -3.94113e-19 -0.300654)
(0.604326 -4.65512e-19 -0.245694)
(0.721193 4.72645e-19 -0.210954)
(0.820342 -3.24933e-20 -0.191358)
(0.905491 -2.15684e-21 -0.181155)
(0.980777 0 -0.176245)
(1.04951 0 -0.173929)
(1.11376 0 -0.17252)
(1.17512 -7.36205e-20 -0.171109)
(1.23469 1.07359e-21 -0.169125)
(1.29358 1.43089e-19 -0.166131)
(1.35255 -9.78562e-22 -0.161761)
(1.41186 -1.35507e-19 -0.155698)
(1.47172 -8.27575e-22 -0.147752)
(1.53193 -6.22031e-20 -0.137976)
(1.59216 0 -0.126705)
(1.65202 0 -0.114449)
(1.71089 5.10849e-20 -0.101814)
(1.76787 4.70075e-20 -0.0894538)
(1.82181 -4.26259e-20 -0.077907)
(1.87139 3.40303e-20 -0.0674168)
(1.91528 3.73981e-20 -0.0578991)
(1.9522 3.16314e-21 -0.049089)
(1.98106 -3.11752e-21 -0.0407873)
(2.00104 1.6923e-20 -0.0330513)
(2.01189 9.17629e-21 -0.0262291)
(2.01311 6.94795e-21 -0.0207272)
(-0.0492271 4.95225e-20 -0.548229)
(0.0732188 -4.18273e-19 -0.534459)
(0.247909 9.37554e-19 -0.44514)
(0.383658 -1.9029e-19 -0.357866)
(0.50145 -5.83364e-19 -0.294827)
(0.598171 5.34835e-19 -0.255506)
(0.676455 -5.27241e-19 -0.233019)
(0.740352 0 -0.220832)
(0.793965 -7.67051e-20 -0.214628)
(0.841029 -7.79778e-20 -0.211623)
(0.883961 0 -0.209998)
(0.924628 -1.53527e-19 -0.208765)
(0.964431 7.66875e-20 -0.207323)
(1.00463 -7.35187e-20 -0.20521)
(1.0462 0 -0.201908)
(1.08958 6.92354e-20 -0.196888)
(1.13489 6.66269e-20 -0.189834)
(1.18193 6.37225e-20 -0.180716)
(1.23034 0 -0.169808)
(1.27968 0 -0.15751)
(1.32923 1.29411e-20 -0.144238)
(1.37788 3.68545e-20 -0.130437)
(1.42418 3.44187e-20 -0.116492)
(1.46652 1.1151e-20 -0.102608)
(1.50323 4.05118e-21 -0.0887846)
(1.53274 -3.99531e-21 -0.0749316)
(1.55374 -2.58414e-21 -0.0610843)
(1.56526 2.55191e-21 -0.0475892)
(1.567 -1.05784e-20 -0.0351904)
(1.55579 -3.61721e-21 -0.0249588)
(-0.0929603 0 -0.647426)
(0.0054991 -1.03582e-19 -0.602462)
(0.180601 0 -0.499192)
(0.294636 2.31787e-19 -0.400078)
(0.391015 1.26417e-19 -0.330624)
(0.463124 -6.86574e-20 -0.287558)
(0.515967 -1.71693e-20 -0.262242)
(0.554714 3.94963e-20 -0.247867)
(0.583841 -2.43002e-19 -0.240288)
(0.607396 7.79817e-20 -0.236769)
(0.62813 3.22624e-19 -0.235349)
(0.648143 -1.61173e-19 -0.234914)
(0.669111 0 -0.23477)
(0.692215 -7.68841e-20 -0.234299)
(0.718214 7.57464e-20 -0.232733)
(0.747469 0 -0.229312)
(0.779882 0 -0.22359)
(0.8152 0 -0.215544)
(0.852995 0 -0.2055)
(0.892972 1.20452e-19 -0.193841)
(0.934717 -2.70184e-20 -0.18081)
(0.977186 -1.21423e-20 -0.166602)
(1.01878 -1.53005e-19 -0.151357)
(1.05753 3.29751e-20 -0.135132)
(1.09124 9.75927e-21 -0.117891)
(1.11772 -6.63825e-20 -0.0996252)
(1.13503 6.24119e-21 -0.0806055)
(1.14178 3.40544e-20 -0.0615826)
(1.13753 9.39563e-22 -0.0438021)
(1.11593 0 -0.0282951)
(-0.134788 0 -0.734692)
(-0.0632225 -2.33893e-19 -0.65276)
(0.111264 0 -0.536659)
(0.197459 0 -0.42554)
(0.268698 4.32977e-19 -0.349895)
(0.31123 -5.93525e-19 -0.302993)
(0.334375 6.49605e-19 -0.27502)
(0.345181 -7.02238e-19 -0.259271)
(0.349089 -8.65473e-20 -0.251649)
(0.35031 0 -0.249137)
(0.351647 1.70159e-19 -0.249495)
(0.355046 3.41304e-19 -0.251404)
(0.36186 -1.67287e-19 -0.254002)
(0.372913 1.6152e-19 -0.256468)
(0.388652 -3.18443e-19 -0.25781)
(0.409108 7.53668e-20 -0.257103)
(0.433983 -2.21924e-19 -0.253839)
(0.462963 0 -0.247983)
(0.495312 -1.33743e-19 -0.239906)
(0.530589 -1.2403e-19 -0.230016)
(0.568637 1.1716e-19 -0.21827)
(0.608241 0 -0.20442)
(0.647462 1.08784e-19 -0.188179)
(0.683778 -1.8675e-19 -0.169387)
(0.714472 7.74669e-20 -0.147988)
(0.736782 6.11515e-20 -0.124102)
(0.748143 -4.98386e-20 -0.0982697)
(0.746277 -3.90832e-20 -0.0716138)
(0.730149 0 -0.0459472)
(0.688295 0 -0.0220814)
(-0.173122 3.84077e-19 -0.809587)
(-0.13026 2.31942e-19 -0.685194)
(0.0375006 7.91871e-19 -0.553876)
(0.0884584 3.20193e-20 -0.428925)
(0.128248 -3.70714e-19 -0.346906)
(0.135189 0 -0.297097)
(0.125605 0 -0.269441)
(0.108657 3.55041e-19 -0.255842)
(0.0904537 -6.2386e-19 -0.251415)
(0.0744027 1.74362e-19 -0.25251)
(0.0623387 -1.78791e-19 -0.256654)
(0.0551661 -3.44836e-19 -0.262414)
(0.0533583 1.70663e-19 -0.268869)
(0.0572098 1.67703e-19 -0.275114)
(0.0668006 1.59592e-19 -0.280061)
(0.0818551 0 -0.28264)
(0.101621 3.01326e-19 -0.282209)
(0.125779 1.45893e-19 -0.278532)
(0.153408 1.37007e-19 -0.272209)
(0.184006 9.96036e-20 -0.263921)
(0.217662 -8.94242e-20 -0.253491)
(0.253462 0 -0.240038)
(0.289349 -1.21718e-20 -0.222655)
(0.322328 1.02931e-19 -0.200894)
(0.349208 -7.05537e-20 -0.174662)
(0.366893 -1.31759e-20 -0.144153)
(0.372535 1.83436e-22 -0.110015)
(0.363845 3.03887e-21 -0.0735752)
(0.340481 -2.79301e-22 -0.038279)
(0.286581 2.76601e-22 -0.00627842)
(-0.206609 1.4176e-19 -0.8712)
(-0.19202 -4.91663e-19 -0.694666)
(-0.0452895 -2.69256e-19 -0.540536)
(-0.0376288 0 -0.401886)
(-0.0428085 -7.47662e-19 -0.321622)
(-0.0744648 1.37927e-18 -0.273546)
(-0.113881 -7.94263e-19 -0.249602)
(-0.15315 -3.64131e-19 -0.241542)
(-0.187539 3.60055e-19 -0.243249)
(-0.215195 1.77338e-19 -0.250196)
(-0.235808 -1.9681e-21 -0.259676)
(-0.249664 -1.74958e-19 -0.270287)
(-0.256997 1.69879e-19 -0.28125)
(-0.257874 -3.25608e-19 -0.291688)
(-0.252449 1.60648e-19 -0.300338)
(-0.24134 7.59754e-20 -0.30587)
(-0.225728 -7.21428e-20 -0.307562)
(-0.206794 -1.4074e-19 -0.305697)
(-0.185009 0 -0.30129)
(-0.159842 -1.2693e-19 -0.29507)
(-0.130834 1.20743e-19 -0.286592)
(-0.0983606 1.12003e-19 -0.274254)
(-0.0644634 -1.02714e-19 -0.256316)
(-0.0323494 1.09373e-20 -0.231798)
(-0.00557542 -1.09062e-20 -0.200712)
(0.0128396 0 -0.163249)
(0.0196257 5.75348e-20 -0.120656)
(0.0120815 1.0966e-21 -0.0744581)
(-0.00889908 -1.09273e-21 -0.0284839)
(-0.05866 0 0.00714142)
(-0.232864 0 -0.913466)
(-0.24335 2.6048e-19 -0.665672)
(-0.149763 0 -0.492713)
(-0.193045 -8.16273e-20 -0.348921)
(-0.246978 7.05939e-19 -0.270628)
(-0.315601 -7.09902e-19 -0.229655)
(-0.381005 9.07922e-20 -0.215855)
(-0.437387 0 -0.218292)
(-0.482676 0 -0.22951)
(-0.517273 3.63113e-19 -0.244421)
(-0.542777 -3.55801e-19 -0.260364)
(-0.560628 -1.78307e-19 -0.276381)
(-0.571555 3.37327e-19 -0.292141)
(-0.575714 -3.26806e-19 -0.306925)
(-0.573246 1.59476e-19 -0.31933)
(-0.564862 0 -0.32776)
(-0.552008 -2.16647e-19 -0.331379)
(-0.53617 7.10978e-20 -0.33084)
(-0.517766 0 -0.327881)
(-0.495847 1.26534e-19 -0.323715)
(-0.469037 -1.16482e-19 -0.317682)
(-0.437116 -1.08021e-19 -0.307234)
(-0.402034 1.10923e-19 -0.289559)
(-0.367494 -1.18114e-20 -0.263095)
(-0.337474 0 -0.227911)
(-0.315362 -6.77426e-20 -0.184703)
(-0.304121 0 -0.134423)
(-0.306432 -4.01042e-20 -0.0793195)
(-0.323474 -1.32976e-21 -0.0257558)
(-0.344755 1.81333e-20 0.00932971)
(-0.247828 0 -0.917245)
(-0.292233 5.57278e-19 -0.591923)
(-0.278639 1.25274e-19 -0.405407)
(-0.38447 -5.7856e-19 -0.260554)
(-0.488184 -7.4674e-19 -0.19418)
(-0.588513 6.43508e-19 -0.169997)
(-0.672883 0 -0.173129)
(-0.739055 0 -0.190625)
(-0.78869 1.91612e-19 -0.213977)
(-0.824988 -3.67446e-19 -0.237926)
(-0.851499 3.5921e-19 -0.260345)
(-0.870619 1.71809e-19 -0.281455)
(-0.883088 0 -0.301869)
(-0.88864 0 -0.321113)
(-0.887051 -7.76939e-20 -0.337524)
(-0.879035 7.65324e-20 -0.349034)
(-0.866534 0 -0.354505)
(-0.851755 0 -0.355001)
(-0.835267 -1.32666e-19 -0.353414)
(-0.815191 -2.75961e-20 -0.351916)
(-0.788749 -8.64445e-20 -0.349622)
(-0.754893 0 -0.342551)
(-0.715891 0 -0.32614)
(-0.676428 7.63149e-20 -0.298075)
(-0.641303 9.04762e-20 -0.25867)
(-0.614089 1.25793e-19 -0.209274)
(-0.59743 0 -0.151501)
(-0.593489 4.00918e-20 -0.0886849)
(-0.601669 2.58405e-22 -0.0295189)
(-0.608313 -1.80858e-20 0.00998629)
(-0.250227 -1.15294e-18 -0.854492)
(-0.352052 -2.75857e-19 -0.462574)
(-0.44922 -8.11931e-20 -0.266601)
(-0.633171 0 -0.128933)
(-0.785299 9.82733e-20 -0.0925795)
(-0.897611 9.49714e-20 -0.102591)
(-0.980307 1.93234e-19 -0.130048)
(-1.04225 -1.85795e-19 -0.164125)
(-1.08898 1.96184e-19 -0.199885)
(-1.12204 -3.73568e-19 -0.232649)
(-1.14609 -1.86551e-19 -0.26057)
(-1.16418 0 -0.286046)
(-1.17635 0 -0.311062)
(-1.18141 0 -0.335065)
(-1.17864 -7.76616e-20 -0.355785)
(-1.16885 7.64803e-20 -0.37049)
(-1.15478 0 -0.377521)
(-1.13978 0 -0.378353)
(-1.12475 9.71188e-20 -0.377645)
(-1.10648 -8.97788e-20 -0.379242)
(-1.08007 1.40052e-19 -0.38212)
(-1.04314 -2.71315e-20 -0.380104)
(-0.998561 0 -0.365948)
(-0.952742 -1.67208e-19 -0.336385)
(-0.911536 -7.37428e-20 -0.292579)
(-0.878432 -5.92913e-20 -0.237113)
(-0.855627 -2.14752e-21 -0.172431)
(-0.84458 -4.27217e-22 -0.102622)
(-0.84331 -1.17211e-21 -0.0375139)
(-0.842754 2.53035e-22 0.00588272)
(-0.252132 6.38846e-20 -0.672091)
(-0.460794 -5.91153e-19 -0.24303)
(-0.733408 6.34718e-19 -0.0234807)
(-0.951394 0 0.025595)
(-1.10309 3.05067e-19 -0.00628758)
(-1.20757 -5.97789e-19 -0.0549038)
(-1.2805 1.94863e-19 -0.099531)
(-1.33329 -1.94201e-19 -0.142461)
(-1.37006 0 -0.190142)
(-1.39519 5.80263e-21 -0.230625)
(-1.41345 3.68466e-19 -0.261843)
(-1.42897 -1.84928e-19 -0.290347)
(-1.43972 3.49133e-19 -0.319983)
(-1.44283 1.3973e-21 -0.349131)
(-1.43711 -8.3378e-20 -0.374487)
(-1.42356 -1.51174e-19 -0.392571)
(-1.40603 1.44083e-19 -0.400759)
(-1.3899 6.89979e-20 -0.400617)
(-1.37691 0 -0.399545)
(-1.36181 0 -0.404473)
(-1.3361 2.70887e-20 -0.414554)
(-1.29515 -2.6882e-20 -0.420173)
(-1.2429 1.07625e-20 -0.409639)
(-1.18883 7.03046e-20 -0.378419)
(-1.1406 6.81778e-20 -0.329596)
(-1.10133 0 -0.267891)
(-1.07205 -8.92463e-20 -0.196717)
(-1.05357 0 -0.120306)
(-1.04379 1.06341e-22 -0.0487394)
(-1.03784 1.31939e-20 -0.0009939)
(-0.277202 4.49767e-19 -0.290019)
(-0.619447 4.88616e-19 0.0461156)
(-0.982228 -1.92e-19 0.178684)
(-1.24061 0 0.165783)
(-1.40175 0 0.0922741)
(-1.48874 -2.15765e-19 0.0184846)
(-1.54455 4.07944e-19 -0.0425973)
(-1.59106 0 -0.113912)
(-1.62066 2.02956e-19 -0.187967)
(-1.63176 -1.93595e-19 -0.234558)
(-1.64105 -3.88831e-19 -0.264691)
(-1.65396 -2.67278e-21 -0.293849)
(-1.663 -2.64084e-19 -0.32858)
(-1.6626 -7.9882e-20 -0.363635)
(-1.65212 7.89719e-20 -0.39413)
(-1.63303 7.76709e-20 -0.415924)
(-1.61022 0 -0.424744)
(-1.59228 -1.36054e-19 -0.421322)
(-1.58295 0 -0.417406)
(-1.57387 0 -0.425674)
(-1.55036 1.29979e-19 -0.446151)
(-1.50398 -1.34478e-20 -0.463552)
(-1.44084 0 -0.458462)
(-1.37607 7.60019e-20 -0.424694)
(-1.32014 -2.89736e-21 -0.369374)
(-1.27501 1.49967e-21 -0.300892)
(-1.23953 8.61814e-20 -0.223649)
(-1.21329 0 -0.141059)
(-1.19513 3.20461e-20 -0.0625805)
(-1.18416 -2.41076e-20 -0.00956258)
(-0.337594 6.86158e-19 -0.18559)
(-0.845193 -5.47138e-19 0.75266)
(-1.22934 -2.24281e-19 0.739838)
(-1.52845 3.94095e-19 0.550227)
(-1.67881 0 0.248678)
(-1.73531 0 -0.0111519)
(-1.78521 2.23255e-19 -0.105981)
(-1.83367 -2.20024e-19 -0.154071)
(-1.83803 0 -0.199433)
(-1.81528 0 -0.245644)
(-1.81277 5.94086e-19 -0.269871)
(-1.82587 -9.83358e-20 -0.295206)
(-1.83427 8.59989e-20 -0.33623)
(-1.82861 8.50025e-20 -0.379776)
(-1.81156 -1.69987e-19 -0.416514)
(-1.78561 -7.89478e-20 -0.441591)
(-1.75588 0 -0.45)
(-1.73554 -1.7418e-19 -0.4397)
(-1.7327 3.3826e-20 -0.428546)
(-1.73442 -1.53175e-20 -0.439909)
(-1.71582 -9.92148e-20 -0.476043)
(-1.66184 1.04726e-19 -0.511991)
(-1.58285 8.72848e-20 -0.514703)
(-1.50432 -7.46828e-20 -0.475987)
(-1.4409 -6.46383e-20 -0.411194)
(-1.39156 3.79411e-22 -0.334976)
(-1.35082 -7.00814e-20 -0.252476)
(-1.31645 4.97023e-22 -0.164657)
(-1.28928 -5.59962e-20 -0.0789133)
(-1.27274 1.06859e-20 -0.0192263)
(9.99283 -2.29121e-18 0.0889797)
(9.9854 0 0.176926)
(9.96975 -2.38059e-18 0.265235)
(9.94607 0 0.355559)
(9.91621 -6.19362e-19 0.449466)
(9.88126 6.2974e-19 0.5484)
(9.84126 0 0.653484)
(9.79621 1.30476e-18 0.765749)
(9.74663 7.7467e-21 0.886391)
(9.69322 -1.36204e-18 1.01673)
(9.6363 0 1.1581)
(9.57616 -1.31408e-20 1.31191)
(9.51367 1.40752e-18 1.47965)
(9.44949 -1.42315e-18 1.66286)
(9.3847 5.05851e-18 1.86338)
(9.32005 -8.73654e-18 2.08318)
(9.25699 -1.48022e-18 2.32454)
(9.19752 -1.47289e-18 2.59009)
(9.14357 5.83454e-18 2.88277)
(9.09786 0 3.20607)
(9.0635 2.84106e-18 3.56418)
(9.04483 -1.32705e-18 3.96214)
(9.04751 1.06309e-17 4.40585)
(9.07831 -1.27684e-17 4.90244)
(9.14781 -1.62582e-17 5.46004)
(9.26046 1.32305e-17 6.0934)
(9.47785 6.87727e-18 6.80332)
(9.66765 -6.71807e-18 7.65865)
(10.6271 -4.75568e-18 8.50914)
(11.5565 -1.13475e-18 11.3418)
(9.99313 0 0.0921882)
(9.98682 -2.82245e-19 0.183335)
(9.97319 8.64385e-19 0.274861)
(9.9523 -2.93212e-18 0.368426)
(9.92587 0 0.465633)
(9.89506 -1.21729e-18 0.567993)
(9.86006 0 0.676613)
(9.82099 1.25819e-18 0.792413)
(9.77823 -2.56097e-18 0.916561)
(9.73255 3.90701e-18 1.05045)
(9.68442 -2.64233e-18 1.19539)
(9.63418 -5.36755e-18 1.35269)
(9.5829 -1.37209e-18 1.52379)
(9.53136 4.11091e-18 1.7102)
(9.48069 5.50111e-18 1.91366)
(9.43187 -5.53674e-18 2.13604)
(9.38653 0 2.37936)
(9.34682 -5.52316e-18 2.64603)
(9.31515 6.86032e-18 2.93876)
(9.29433 0 3.26064)
(9.28797 -1.34308e-18 3.61532)
(9.30103 5.14567e-18 4.00701)
(9.33998 7.36354e-18 4.44049)
(9.41216 2.20501e-18 4.92089)
(9.52945 6.72838e-22 5.45375)
(9.70075 0 6.04688)
(9.98027 -3.49248e-18 6.69633)
(10.2747 2.77142e-18 7.41438)
(10.9485 4.53392e-18 8.10252)
(11.711 6.98624e-19 9.20607)
(9.99341 0 0.0951041)
(9.98826 0 0.189127)
(9.9768 0 0.283545)
(9.95882 1.18313e-20 0.380044)
(9.93584 -5.80838e-19 0.480226)
(9.90921 1.77484e-18 0.585601)
(9.87948 1.19756e-18 0.697252)
(9.84664 -2.44808e-18 0.816059)
(9.81083 3.72327e-18 0.943173)
(9.77305 -6.2861e-18 1.07997)
(9.73388 3.80872e-18 1.22771)
(9.69378 3.87086e-18 1.38763)
(9.65384 -3.88706e-18 1.56108)