/*--------------------------------*- C++ -*----------------------------------*\
| =========                 |                                                 |
| \\      /  F ield         | OpenFOAM: The Open Source CFD Toolbox           |
|  \\    /   O peration     | Version:  4.1                                   |
|   \\  /    A nd           | Web:      www.OpenFOAM.org                      |
|    \\/     M anipulation  |                                                 |
\*---------------------------------------------------------------------------*/
FoamFile
{
    version     2.0;
    format      ascii;
    class       volVectorField;
    location    "4.2";
    object      Force;
}
// * * * * * * * * * * * * * * * * * * * * * * * * * * * * * * * * * * * * * //

dimensions      [1 1 -2 0 0 0 0];

internalField   uniform (0 0 0);

boundaryField
{
    inlet
    {
        type            calculated;
        value           uniform (0 0 0);
    }
    outlet
    {
        type            calculated;
        value           uniform (0 0 0);
    }
    flap
    {
        type            calculated;
        value           nonuniform List<vector> 
33
(
(3.63714 -0.0477078 -1.34913e-21)
(3.63896 -0.11478 1.69895e-18)
(3.64845 -0.1891 1.70115e-18)
(3.64901 -0.272829 8.40084e-22)
(3.62601 -0.341047 4.11106e-18)
(3.58526 -0.386473 -7.43765e-21)
(3.53858 -0.411346 1.03409e-22)
(3.48578 -0.448456 4.65481e-18)
(3.39735 -0.501224 1.70109e-18)
(3.27829 -0.539928 1.71147e-18)
(3.13046 -0.566341 -1.69783e-18)
(2.94362 -0.575705 -3.94278e-18)
(2.69101 -0.556369 -1.95802e-18)
(2.34445 -0.493301 1.54766e-18)
(1.79939 -0.37982 1.20268e-21)
(0.128958 0.591355 -5.15587e-21)
(0.072519 0.337835 8.40075e-19)
(0.0232848 0.117321 3.37587e-22)
(-0.0281204 0.000370668 4.81348e-24)
(-0.0275999 0.000733063 2.7362e-26)
(-0.0270152 0.00122689 8.34983e-25)
(-0.0261841 0.00168924 -1.56939e-18)
(-0.0246106 0.00198583 -3.27103e-23)
(-0.0236139 0.00215909 1.59669e-18)
(-0.0240072 0.0023987 3.26236e-20)
(-0.0251605 0.0028861 1.59199e-18)
(-0.0266407 0.00364509 1.5933e-18)
(-0.0286222 0.00452899 3.87287e-20)
(-0.0300219 0.00532272 2.32009e-22)
(-0.0299917 0.00588569 1.63641e-18)
(-0.0296415 0.00635035 -1.96686e-23)
(-0.0277678 0.00631872 1.73368e-18)
(-0.0206847 0.0052335 5.19354e-23)
)
;
    }
    upperWall
    {
        type            calculated;
        value           uniform (0 0 0);
    }
    lowerWall
    {
        type            calculated;
        value           uniform (0 0 0);
    }
    frontAndBack
    {
        type            empty;
    }
}


// ************************************************************************* //
