/*--------------------------------*- C++ -*----------------------------------*\
| =========                 |                                                 |
| \\      /  F ield         | OpenFOAM: The Open Source CFD Toolbox           |
|  \\    /   O peration     | Version:  4.1                                   |
|   \\  /    A nd           | Web:      www.OpenFOAM.org                      |
|    \\/     M anipulation  |                                                 |
\*---------------------------------------------------------------------------*/
FoamFile
{
    version     2.0;
    format      ascii;
    class       surfaceScalarField;
    location    "4.2";
    object      phi;
}
// * * * * * * * * * * * * * * * * * * * * * * * * * * * * * * * * * * * * * //

dimensions      [0 3 -1 0 0 0 0];

internalField   nonuniform List<scalar> 
5457
(
0.198372
0.0015797
0.196427
0.00190226
0.194164
0.00222563
0.191535
0.0025949
0.188542
0.00296245
0.18519
0.00332429
0.181475
0.00368906
0.177387
0.00406415
0.17291
0.00445453
0.168024
0.00486408
0.162708
0.00529617
0.156936
0.00575376
0.150681
0.00623922
0.143913
0.00675412
0.136603
0.00729886
0.128723
0.00787218
0.120248
0.00847062
0.111161
0.00908787
0.101453
0.00971395
0.0911322
0.0103342
0.0802256
0.0109278
0.0687889
0.011467
0.0569114
0.0119165
0.0447257
0.0122334
0.0324133
0.0123685
0.020195
0.0122826
0.00825504
0.0120101
-0.0021866
0.0105112
-0.00508441
0.00294811
-0.00497901
0.199982
0.00154983
0.19928
0.00256105
0.19814
0.0033283
0.1966
0.00410107
0.19466
0.00487274
0.192319
0.00563736
0.189574
0.00640763
0.186417
0.00719722
0.182833
0.00801623
0.178803
0.00887271
0.174305
0.00977375
0.169315
0.0107256
0.163804
0.0117336
0.157742
0.0128015
0.151099
0.0139307
0.143843
0.0151199
0.135946
0.0163632
0.127384
0.0176491
0.118143
0.0189591
0.108223
0.0202652
0.0976426
0.0215267
0.0864488
0.0226881
0.0747243
0.0236766
0.0626023
0.024398
0.0502917
0.0247282
0.0381461
0.0244826
0.0269186
0.0232955
0.0174978
0.0199876
0.00695546
0.0135293
0.0020476
0.199833
0.0016686
0.199194
0.0031577
0.198123
0.00436144
0.196679
0.00551181
0.19487
0.00665143
0.192696
0.00778361
0.190155
0.00892329
0.187239
0.0100886
0.183939
0.0112943
0.180237
0.0125526
0.176116
0.0138743
0.171554
0.0152692
0.166525
0.0167456
0.161002
0.0183102
0.154954
0.0199667
0.148349
0.0217151
0.141157
0.0235496
0.133347
0.0254568
0.124893
0.0274134
0.115781
0.029383
0.10601
0.0313112
0.0955998
0.0331207
0.084599
0.0347069
0.0731003
0.0359306
0.0612625
0.0366024
0.0493328
0.0364498
0.0376092
0.0350562
0.0259404
0.0316887
0.0137503
0.0257384
0.0158456
0.199751
0.00187016
0.19911
0.00375629
0.198057
0.00537721
0.196634
0.00690138
0.194857
0.00839779
0.192729
0.00988421
0.190247
0.0113788
0.187409
0.0129028
0.184206
0.0144747
0.180626
0.0161104
0.176657
0.0178237
0.17228
0.0196271
0.167476
0.0215316
0.162224
0.0235463
0.1565
0.0256777
0.150277
0.0279276
0.143527
0.0302919
0.136221
0.0327579
0.128328
0.0353015
0.119825
0.0378835
0.110698
0.0404435
0.100941
0.0428937
0.0905574
0.0451126
0.0795749
0.0469365
0.0680489
0.0481492
0.0560452
0.0484701
0.043574
0.0475397
0.0304181
0.0448506
0.0160703
0.0400822
0.0319075
0.19971
0.00211292
0.199058
0.00436558
0.19802
0.00637758
0.196621
0.00826747
0.194877
0.0101121
0.19279
0.0119426
0.190361
0.0137818
0.187586
0.0156537
0.184458
0.01758
0.180968
0.0195792
0.177103
0.0216678
0.172849
0.0238608
0.168192
0.0261708
0.163112
0.028609
0.157591
0.0311839
0.151607
0.0338996
0.145136
0.0367539
0.138151
0.0397362
0.13062
0.042825
0.122512
0.0459831
0.113802
0.0491505
0.104463
0.0522389
0.0944644
0.0551247
0.0837718
0.0576427
0.0723449
0.0595814
0.0601273
0.0606814
0.0470189
0.0606371
0.032799
0.0590574
0.0171301
0.0557415
0.0489851
0.19969
0.00237566
0.199033
0.00498014
0.198014
0.00735952
0.196645
0.00960293
0.194941
0.0117863
0.192905
0.0139506
0.190537
0.0161241
0.187833
0.0183334
0.184787
0.020603
0.181391
0.022954
0.177632
0.0254052
0.1735
0.0279739
0.168976
0.0306745
0.164047
0.0335193
0.158695
0.0365191
0.152901
0.0396807
0.146641
0.0430038
0.139889
0.0464813
0.132612
0.0500966
0.124769
0.0538178
0.116319
0.0575909
0.107214
0.0613347
0.0973998
0.0649347
0.0868071
0.0682367
0.0753359
0.071047
0.0628579
0.0731363
0.0492267
0.0742409
0.0342491
0.0740191
0.0177646
0.072242
0.0667051
0.199682
0.00264643
0.199028
0.00559222
0.198031
0.00831924
0.196699
0.0109019
0.195043
0.0134129
0.193066
0.0158996
0.190769
0.0183955
0.188147
0.0209304
0.185197
0.0235312
0.181908
0.0262217
0.178269
0.0290227
0.174267
0.0319537
0.169889
0.0350311
0.165119
0.0382691
0.15994
0.0416804
0.15433
0.045275
0.148265
0.0490564
0.141716
0.0530217
0.134646
0.0571603
0.127007
0.0614477
0.118738
0.0658407
0.109775
0.0702723
0.100039
0.0746457
0.0894313
0.0788267
0.077831
0.0826346
0.0650844
0.0858593
0.0510189
0.0882765
0.035464
0.0895666
0.0183262
0.0894213
0.0850364
0.199682
0.00291797
0.199038
0.00619475
0.198068
0.00925217
0.196778
0.0121586
0.195177
0.0149845
0.193268
0.0177809
0.191051
0.0205863
0.188524
0.0234335
0.185681
0.026352
0.182513
0.0293682
0.179007
0.0325048
0.175153
0.0357826
0.17094
0.0392217
0.166349
0.0428394
0.161361
0.0466506
0.155952
0.050668
0.150093
0.0549005
0.14375
0.059351
0.136882
0.0640164
0.129431
0.0688826
0.121327
0.0739205
0.112487
0.0790815
0.102808
0.0842916
0.092161
0.089442
0.0804026
0.0943734
0.0673759
0.0988745
0.0529084
0.102732
0.0368165
0.105666
0.0190108
0.107274
0.104038
0.199686
0.00318547
0.199058
0.00678175
0.19812
0.0101534
0.196878
0.0133677
0.195339
0.0164939
0.193506
0.0195862
0.19138
0.0226871
0.188957
0.0258321
0.186234
0.0290532
0.1832
0.0323788
0.179845
0.0358339
0.176159
0.0394424
0.172132
0.0432273
0.167744
0.0472093
0.16297
0.0514062
0.157786
0.0558349
0.15216
0.0605099
0.146053
0.0654416
0.139416
0.0706363
0.132185
0.0760939
0.124277
0.0818034
0.115591
0.0877383
0.106002
0.0938508
0.0953551
0.100059
0.0834731
0.106235
0.0701664
0.112182
0.0552575
0.117655
0.0385456
0.122407
0.0199971
0.125882
0.124112
0.199694
0.00344557
0.199086
0.00734831
0.198185
0.0110181
0.196997
0.0145237
0.195526
0.0179349
0.193777
0.0213082
0.19175
0.024689
0.189443
0.0281154
0.186851
0.0316217
0.183967
0.0352385
0.180783
0.0389945
0.177285
0.0429163
0.173462
0.0470289
0.169297
0.0513559
0.164765
0.0559202
0.159839
0.0607435
0.154484
0.0658471
0.148658
0.07125
0.142307
0.0769692
0.135357
0.0830226
0.127716
0.0894211
0.119265
0.0961643
0.109853
0.103239
0.0992945
0.110598
0.0873691
0.11815
0.0738279
0.125732
0.0584296
0.133078
0.0409315
0.139948
0.021361
0.145528
0.145505
0.199704
0.00369577
0.199121
0.00789041
0.198262
0.0118418
0.197131
0.0156218
0.195736
0.0193015
0.194078
0.0229394
0.192159
0.0265828
0.189978
0.0302723
0.187531
0.0340452
0.184811
0.0379348
0.181812
0.0419723
0.178519
0.0461863
0.174921
0.050604
0.171005
0.0552532
0.166746
0.0601618
0.162115
0.0653569
0.157077
0.070867
0.151588
0.0767217
0.145588
0.082951
0.139001
0.0895902
0.131729
0.0966726
0.123638
0.104236
0.114549
0.112312
0.104237
0.1209
0.0924207
0.129965
0.0787617
0.139405
0.0628854
0.148981
0.0444456
0.158426
0.0234722
0.166553
0.168989
0.199717
0.00393419
0.199162
0.00840471
0.198347
0.0126208
0.19728
0.0166574
0.195965
0.0205876
0.194405
0.0244722
0.192603
0.02836
0.190558
0.0322939
0.188266
0.0363136
0.185723
0.0404555
0.18292
0.0447521
0.179848
0.0492335
0.176501
0.0539308
0.172861
0.0588758
0.168906
0.0640998
0.16461
0.0696359
0.159939
0.0755207
0.15485
0.0817946
0.149281
0.0885042
0.143157
0.0956979
0.136381
0.103434
0.128811
0.111793
0.120253
0.120863
0.110439
0.130712
0.0990221
0.141391
0.085534
0.152912
0.0693895
0.165151
0.049994
0.17784
0.0271557
0.189384
0.196112
0.19973
0.00415925
0.199207
0.00888835
0.198441
0.0133511
0.197441
0.0176258
0.196212
0.0217881
0.194758
0.0259005
0.19308
0.0300133
0.191178
0.0341717
0.189051
0.0384177
0.186695
0.0427894
0.184102
0.0473203
0.18127
0.0520428
0.178192
0.0569915
0.174851
0.0622007
0.171229
0.0677052
0.167305
0.0735438
0.16305
0.0797603
0.158425
0.086405
0.153378
0.0935384
0.147838
0.101227
0.141706
0.109557
0.134856
0.118638
0.127098
0.128621
0.118152
0.139665
0.107624
0.151934
0.0949239
0.165633
0.0792045
0.180893
0.0593448
0.197703
0.0343529
0.214323
0.230485
0.199746
0.00436959
0.199256
0.00933874
0.198542
0.0140295
0.197614
0.0185233
0.196475
0.0228985
0.195131
0.0272191
0.193583
0.0315365
0.191833
0.0358987
0.189879
0.0403491
0.18772
0.0449263
0.185352
0.0496653
0.182774
0.0546007
0.17998
0.059769
0.176958
0.0652065
0.173696
0.0709513
0.170179
0.0770464
0.166385
0.0835409
0.162285
0.0904928
0.157842
0.0979717
0.153
0.106062
0.147682
0.114872
0.14178
0.124542
0.135143
0.135265
0.127549
0.147273
0.118634
0.160868
0.107805
0.176483
0.0940651
0.194649
0.0756773
0.216083
0.049654
0.240278
0.280122
0.199762
0.00456383
0.199309
0.00975356
0.198651
0.014653
0.197796
0.0193468
0.196752
0.0239152
0.195522
0.0284235
0.194109
0.0329251
0.192516
0.0374698
0.190741
0.0421016
0.188787
0.046859
0.186653
0.0517786
0.184338
0.0568966
0.181841
0.0622502
0.179155
0.0678772
0.176274
0.0738177
0.173191
0.080117
0.169893
0.0868273
0.166366
0.0940105
0.16259
0.101741
0.158535
0.110113
0.154165
0.119243
0.149418
0.129296
0.144225
0.140469
0.138493
0.153022
0.132035
0.167346
0.124531
0.184007
0.115352
0.20384
0.102989
0.228437
0.0823954
0.260824
0.36237
0.00335612
-0.00341995
0.00717103
-0.00380809
0.0106559
-0.00349303
0.0135698
-0.00291426
0.0158629
-0.00227716
0.0175422
-0.00164767
0.0186299
-0.00104382
0.019168
-0.000484714
0.0192396
-1.1258e-05
0.0189201
0.000383605
0.0183263
0.000658385
0.0175562
0.000832088
0.0167034
0.000910369
0.0158512
0.000905601
0.0150684
0.000832597
0.0144114
0.000703379
0.0139284
0.000526176
0.0136623
0.000306943
0.0136598
4.24775e-05
0.0139459
-0.000246495
0.0144939
-0.000509301
0.0152381
-0.000706201
0.0160964
-0.000819451
0.0169951
-0.000859156
0.0178899
-0.000857076
0.0187663
-0.000841319
0.0196255
-0.000825088
0.0204765
-0.000812076
0.0213028
-0.000782475
-0.000683021
0.00364212
-0.00706026
0.00728841
-0.00743547
0.0105745
-0.00677376
0.0133883
-0.0057155
0.015713
-0.00457572
0.0175575
-0.00345381
0.0189355
-0.00237483
0.0198734
-0.0013678
0.0203975
-0.000473797
0.0205784
0.000267592
0.0204423
0.000859474
0.0200919
0.00124388
0.0196199
0.00143857
0.0191092
0.0014683
0.0186299
0.00136076
0.0182412
0.00113762
0.0179955
0.000813904
0.0179365
0.000405824
0.0180785
-6.00841e-05
0.018441
-0.000569551
0.019002
-0.00103183
0.0197079
-0.00137482
0.0204793
-0.00155219
0.0212471
-0.00158668
0.0219638
-0.00153605
0.0226091
-0.00145211
0.0231776
-0.00136127
0.0236879
-0.00128331
0.0241666
-0.0012142
-0.00108193
0.00323952
-0.0102782
0.00638109
-0.0105592
0.00910907
-0.00947924
0.0114189
-0.00799181
0.0133438
-0.00645696
0.0148976
-0.00495841
0.016082
-0.00350826
0.0169139
-0.00214308
0.0174423
-0.000938197
0.0176939
8.2344e-05
0.0176913
0.000928121
0.0175026
0.00149293
0.0172091
0.00178504
0.0168815
0.00184508
0.0165733
0.00171598
0.0163242
0.00143065
0.0161685
0.00100946
0.0161298
0.000482258
0.0162006
-9.25107e-05
0.0163781
-0.00070772
0.0166601
-0.00127589
0.0170186
-0.00169782
0.0174091
-0.00190423
0.0177866
-0.0019212
0.018105
-0.00181582
0.0183519
-0.00166556
0.0185263
-0.00150485
0.0186494
-0.0013676
0.0187632
-0.00127885
-0.00126152
0.00265522
-0.0129473
0.00509411
-0.012991
0.00710664
-0.0114518
0.00877009
-0.00959843
0.0101556
-0.00777997
0.0112833
-0.00602639
0.0121515
-0.00432259
0.0127623
-0.00269687
0.0131453
-0.00125901
0.0133496
-6.02218e-05
0.0133018
0.00103649
0.013093
0.00175531
0.0127966
0.0021277
0.0124741
0.00221201
0.0121556
0.00207934
0.0118455
0.00178275
0.011533
0.001358
0.0112011
0.000848133
0.0108356
0.000309373
0.0104078
-0.000239287
0.00992374
-0.000751574
0.00947443
-0.00121367
0.00916755
-0.00155969
0.00907416
-0.00178303
0.00916526
-0.00186723
0.009401
-0.00186809
0.00972282
-0.00179474
0.0100892
-0.00169587
0.0104737
-0.00161782
-0.00151269
0.00193233
-0.0148124
0.00351539
-0.0145561
0.0046758
-0.01255
0.00557186
-0.0104166
0.00628655
-0.00841783
0.00684717
-0.0065205
0.00726639
-0.00468162
0.00757071
-0.00294093
0.00783058
-0.00146246
0.00778653
3.49384e-05
0.00747814
0.00139028
0.00707577
0.00219691
0.00659305
0.00264732
0.00605341
0.00278932
0.00546118
0.00271341
0.00480763
0.00247664
0.00410434
0.00209537
0.00340036
0.00158422
0.0027729
0.000970586
0.00228867
0.000285315
0.00197856
-0.000398106
0.00183847
-0.00103625
0.00188749
-0.00157174
0.0020861
-0.00193947
0.00238818
-0.00213055
0.00272731
-0.00217332
0.00306299
-0.00209661
0.00332485
-0.00192041
0.00346087
-0.00171289
-0.00153875
0.00111109
-0.0157877
0.00169003
-0.0150839
0.00190201
-0.0126772
0.00191517
-0.0103383
0.00180175
-0.00822237
0.00160557
-0.00625649
0.00139807
-0.0044091
0.0011647
-0.00264432
0.00056856
-0.000812991
-7.41949e-05
0.000723189
-0.000443667
0.00179455
-0.000905249
0.00268801
-0.00140184
0.0031733
-0.00194991
0.0033664
-0.00252659
0.00332462
-0.00309407
0.00308026
-0.00360775
0.00264484
-0.00402251
0.00203431
-0.00430878
0.00128946
-0.00445324
0.000465503
-0.00444984
-0.00036108
-0.00434177
-0.00110572
-0.00415193
-0.0017241
-0.003897
-0.00215577
-0.00360541
-0.00238576
-0.00331896
-0.00242558
-0.00308151
-0.00229951
-0.00292595
-0.00203918
-0.00287558
-0.00172428
-0.00145695
0.000163671
-0.0158315
-0.000258083
-0.0145713
-0.00112824
-0.011706
-0.00208616
-0.00928721
-0.00316483
-0.00706793
-0.00429343
-0.00506653
-0.00539716
-0.00324754
-0.00642302
-0.00156351
-0.00724216
5.38863e-05
-0.00777838
0.00130252
-0.00824802
0.00229555
-0.0086263
0.00309189
-0.00899868
0.00357125
-0.00937076
0.00376134
-0.00971823
0.00369657
-0.01001
0.00340086
-0.0102173
0.00288848
-0.0103317
0.00218619
-0.0103549
0.00134439
-0.0102883
0.000429239
-0.0101373
-0.000477929
-0.00991258
-0.00129359
-0.00963821
-0.00196028
-0.00933598
-0.00242156
-0.00903248
-0.00265564
-0.00875608
-0.00266855
-0.00854184
-0.00247906
-0.0084252
-0.00211948
-0.0084356
-0.00167583
-0.00127964
-0.000968008
-0.0147662
-0.00246068
-0.0129646
-0.00423374
-0.00983109
-0.00615475
-0.00728548
-0.0080585
-0.00510456
-0.00982232
-0.00325468
-0.0113763
-0.00165035
-0.0126937
-0.000205732
-0.0136303
0.00102775
-0.0142924
0.00200132
-0.0147941
0.00282412
-0.015157
0.0034732
-0.0154331
0.00386966
-0.0156476
0.0039999
-0.0158068
0.00387702
-0.0158978
0.00351732
-0.0159109
0.00293626
-0.0158504
0.00216251
-0.0157219
0.00124687
-0.0155278
0.000260254
-0.0152685
-0.000711151
-0.0149466
-0.00158295
-0.0145879
-0.00228089
-0.0142275
-0.0027478
-0.013893
-0.0029606
-0.0136062
-0.00292334
-0.0133995
-0.0026511
-0.013311
-0.00217206
-0.0133718
-0.00157761
-0.00105418
-0.00185976
-0.0128514
-0.00449508
-0.0102354
-0.00726034
-0.00698897
-0.00998249
-0.00450817
-0.0124865
-0.00256244
-0.0146984
-0.0010115
-0.0165731
0.000252532
-0.0179799
0.0012277
-0.0189596
0.0020325
-0.019682
0.00274698
-0.0202066
0.00336901
-0.020566
0.00384791
-0.0207999
0.0041227
-0.0209369
0.00416258
-0.0210009
0.00396429
-0.0209935
0.00353607
-0.0209136
0.00288914
-0.020761
0.00204654
-0.0205354
0.00105555
-0.0202444
-5.84895e-06
-0.0198926
-0.00104355
-0.0194817
-0.00196617
-0.0190419
-0.00268188
-0.0186217
-0.00313587
-0.0182531
-0.0033057
-0.0179497
-0.00319634
-0.0177454
-0.00281974
-0.0176809
-0.00220087
-0.017782
-0.00143938
-0.000788031
-0.00289006
-0.00990872
-0.00663589
-0.00644294
-0.0104027
-0.00318861
-0.0139174
-0.000971104
-0.0169527
0.000489001
-0.019359
0.00140947
-0.0211369
0.00204487
-0.0224574
0.00256248
-0.0234613
0.00304979
-0.0242141
0.00350909
-0.0247519
0.00392026
-0.0251168
0.00422965
-0.0253504
0.00437362
-0.0254754
0.00430992
-0.0255136
0.00402536
-0.0254738
0.00352178
-0.0253575
0.00280298
-0.0251596
0.0018832
-0.0248742
0.000806642
-0.0245051
-0.000345444
-0.0240646
-0.00146309
-0.0235701
-0.00243401
-0.023053
-0.00315921
-0.0225695
-0.00358719
-0.0221591
-0.00369604
-0.0218334
-0.0034928
-0.0216306
-0.00298593
-0.0215968
-0.00219859
-0.0217451
-0.00125395
-0.000468168
-0.00427573
-0.0056494
-0.00961019
-0.00109645
-0.0144349
0.00163198
-0.0183028
0.00289139
-0.021216
0.00340068
-0.02341
0.00360499
-0.0250945
0.00373308
-0.0263939
0.00386667
-0.0273789
0.00403977
-0.028114
0.00424783
-0.0286481
0.00446287
-0.0290261
0.00462164
-0.0292817
0.00464421
-0.0294274
0.00447381
-0.0294757
0.00409407
-0.0294378
0.00350722
-0.0293166
0.00270873
-0.0291021
0.00169923
-0.0287803
0.000518279
-0.0283498
-0.000745499
-0.0278277
-0.00196026
-0.0272497
-0.00298468
-0.0266558
-0.00371679
-0.0261031
-0.0041072
-0.0256409
-0.00413515
-0.0252903
-0.00381447
-0.0250934
-0.00314745
-0.0250939
-0.00216201
-0.0252988
-0.00101174
-8.86514e-05
-0.0067681
0.00107681
-0.0133118
0.00544714
-0.018374
0.00667234
-0.0221744
0.00667248
-0.0250317
0.00624607
-0.0271649
0.00573107
-0.028751
0.00531552
-0.0299458
0.00505985
-0.0308476
0.00494134
-0.031523
0.00492459
-0.0320315
0.00497632
-0.0324208
0.00501997
-0.0327087
0.00494385
-0.0328892
0.00466911
-0.0329635
0.00418592
-0.0329459
0.00351033
-0.0328425
0.00262932
-0.0326352
0.00151901
-0.0322956
0.000207836
-0.0318131
-0.00119967
-0.0312116
-0.00253555
-0.0305427
-0.00362625
-0.0298643
-0.00436342
-0.02924
-0.0047004
-0.0287197
-0.00462854
-0.0283439
-0.00416085
-0.0281535
-0.00330428
-0.0281855
-0.00209454
-0.0284416
-0.00071811
0.000349893
-0.00903313
0.0100156
-0.0168168
0.0132238
-0.0224337
0.0122657
-0.026281
0.0104976
-0.0289517
0.00889998
-0.0308331
0.00759992
-0.0321707
0.00664424
-0.0331686
0.00605184
-0.0339323
0.0057014
-0.0345108
0.00550136
-0.0349676
0.0054348
-0.0353609
0.00541846
-0.0356911
0.00528251
-0.0359181
0.00490776
-0.0360253
0.00430802
-0.0360382
0.00354117
-0.0359732
0.00258552
-0.0357995
0.00136936
-0.0354567
-0.000108951
-0.0349217
-0.00170829
-0.034233
-0.00319818
-0.0334624
-0.00436978
-0.0326877
-0.00510858
-0.0319825
-0.00537608
-0.0314064
-0.00517646
-0.0310085
-0.00452906
-0.0308304
-0.00344979
-0.0309026
-0.00198749
-0.0312162
-0.000367001
0.000859693
-0.0117461
0.0217007
-0.0217735
0.0232383
-0.0275839
0.0180572
-0.0308872
0.0137794
-0.0330156
0.0110088
-0.0344514
0.00901926
-0.0353655
0.00754536
-0.0360654
0.00674232
-0.0366515
0.00628081
-0.0371015
0.00594698
-0.037474
0.00580597
-0.0378664
0.00581304
-0.0382613
0.00568297
-0.0385534
0.00520889
-0.0386938
0.00446072
-0.0387362
0.00359906
-0.0387255
0.00259347
-0.0386095
0.00127479
-0.0382811
-0.000413762
-0.0376933
-0.00227143
-0.0368972
-0.00396893
-0.0360006
-0.00524002
-0.0351085
-0.00597262
-0.0343072
-0.0061488
-0.0336688
-0.00578647
-0.0332521
-0.00491593
-0.0330965
-0.00357351
-0.0332228
-0.00182671
-0.0336131
6.0525e-05
0.00146059
-0.0160411
0.0378194
-0.02916
0.036314
-0.0345291
0.0234003
-0.0362124
0.0154396
-0.0372553
0.0120305
-0.0380333
0.00977861
-0.0382394
0.00773591
-0.0385321
0.00702284
-0.0389773
0.00671675
-0.0393135
0.00627669
-0.0395467
0.00603566
-0.03993
0.00619624
-0.0404361
0.00619241
-0.040828
0.0056076
-0.0409903
0.00463319
-0.0410421
0.00366437
-0.0411057
0.00267354
-0.0410908
0.00127925
-0.0407974
-0.000685553
-0.0401401
-0.00290558
-0.0391995
-0.00488527
-0.0381416
-0.00627231
-0.0371078
-0.00697942
-0.0361948
-0.00703399
-0.035491
-0.00646176
-0.0350635
-0.00531378
-0.034949
-0.00365636
-0.0351531
-0.00158848
-0.0356486
0.000592889
0.00218407
0.207431
0.00474834
0.206999
0.0101453
0.206377
0.01524
0.205572
0.0201201
0.204591
0.0248673
0.203441
0.029548
0.202124
0.0342179
0.200643
0.0389276
0.199002
0.0437206
0.197203
0.0486359
0.195251
0.053711
0.193146
0.0589827
0.190891
0.0644883
0.188488
0.0702657
0.185937
0.0763555
0.183239
0.0828028
0.180397
0.0896599
0.177412
0.0969878
0.174289
0.10486
0.171033
0.113368
0.167656
0.122625
0.164177
0.132784
0.160648
0.144012
0.157155
0.156534
0.153834
0.170686
0.150966
0.186894
0.149126
0.20569
0.149804
0.227753
0.159752
0.250849
0.269155
0.252924
0.212468
0.00491796
0.21207
0.0105037
0.211498
0.0157757
0.210763
0.020824
0.20987
0.0257315
0.208826
0.0305656
0.207635
0.0353837
0.206304
0.0402359
0.204837
0.0451655
0.20324
0.0502117
0.20152
0.0554122
0.199681
0.0608033
0.197732
0.0664213
0.19568
0.0723029
0.193536
0.0784871
0.191311
0.0850167
0.189023
0.0919399
0.186693
0.0993122
0.184352
0.107199
0.182044
0.115677
0.179836
0.124839
0.177833
0.134797
0.176196
0.145663
0.175175
0.157572
0.175202
0.170677
0.177044
0.185066
0.182165
0.200575
0.193322
0.216588
0.21202
0.232125
0.249495
0.23165
0.21763
0.00507079
0.217268
0.0108248
0.216753
0.0162541
0.216095
0.0214506
0.215299
0.0264982
0.214373
0.0314648
0.213324
0.0364083
0.212158
0.0413783
0.210884
0.0464178
0.20951
0.0515656
0.208044
0.0568585
0.206499
0.0623315
0.204886
0.0680186
0.203221
0.0739541
0.201522
0.0801736
0.199814
0.0867147
0.198128
0.0936185
0.196505
0.10093
0.195001
0.108701
0.193694
0.116985
0.192695
0.125844
0.192163
0.135337
0.192323
0.145515
0.193504
0.156409
0.196187
0.16801
0.201061
0.180202
0.208963
0.192676
0.220575
0.204972
0.23538
0.217309
0.228848
0.256018
0.222917
0.00520491
0.222596
0.0111046
0.222145
0.0166694
0.221571
0.0219923
0.220882
0.0271579
0.220085
0.0322342
0.21919
0.0372785
0.218206
0.04234
0.217141
0.0474609
0.216007
0.052679
0.214818
0.0580294
0.213587
0.0635445
0.212335
0.0692557
0.211082
0.0751932
0.209857
0.0813874
0.208694
0.0878689
0.207636
0.0946693
0.206741
0.101821
0.206085
0.109356
0.205766
0.117306
0.205918
0.125696
0.206723
0.134539
0.208419
0.143831
0.211317
0.153528
0.215807
0.163534
0.222356
0.173659
0.231403
0.183633
0.243327
0.193046
0.258924
0.201707
0.20801
0.279761
0.228334
0.00531843
0.228058
0.0113392
0.227675
0.0170159
0.227193
0.0224419
0.226619
0.0277017
0.225963
0.032863
0.225235
0.0379823
0.224444
0.0431077
0.223603
0.0482802
0.222726
0.0535359
0.221829
0.0589075
0.220933
0.0644246
0.220059
0.0701144
0.219237
0.0760023
0.218501
0.0821121
0.217895
0.0884666
0.217471
0.0950862
0.2173
0.101989
0.217465
0.10919
0.218079
0.116694
0.219278
0.124499
0.221238
0.132583
0.224181
0.140898
0.228372
0.149354
0.234106
0.15781
0.241704
0.166064
0.251472
0.173866
0.263697
0.180822
0.278779
0.186623
0.19031
0.296479
0.233883
0.0054096
0.233656
0.0115252
0.233346
0.0172885
0.232963
0.0227926
0.232513
0.0281215
0.232007
0.0333419
0.231455
0.0385091
0.23087
0.0436696
0.230266
0.048863
0.229659
0.054123
0.229069
0.0594794
0.228519
0.0649582
0.228036
0.0705822
0.227655
0.076371
0.227415
0.0823416
0.227365
0.088508
0.227565
0.0948795
0.22809
0.10146
0.229029
0.108249
0.23049
0.115234
0.232605
0.122387
0.235535
0.129658
0.239472
0.136971
0.244623
0.144217
0.251193
0.151248
0.259383
0.157876
0.269372
0.16388
0.281237
0.168958
0.295
0.172861
0.174915
0.310397
0.239568
0.00547673
0.239392
0.0116592
0.239161
0.0174823
0.238883
0.0230382
0.238564
0.0284098
0.238216
0.0336624
0.23785
0.0388496
0.237481
0.0440161
0.237123
0.0491992
0.236796
0.0544301
0.236522
0.0597354
0.236327
0.065137
0.236242
0.0706531
0.236303
0.0762972
0.236555
0.0820791
0.23705
0.0880054
0.237849
0.0940741
0.239027
0.100279
0.24067
0.106605
0.242881
0.113023
0.245783
0.119488
0.249511
0.125934
0.254214
0.132276
0.260034
0.138406
0.267101
0.144186
0.27553
0.149451
0.285391
0.154022
0.296664
0.157686
0.309281
0.160245
0.161153
0.323045
0.245391
0.00551834
0.24527
0.0117382
0.245122
0.0175931
0.244953
0.0231735
0.244772
0.0285605
0.244589
0.0338177
0.244417
0.0389965
0.24427
0.0441395
0.244167
0.0492814
0.244127
0.0544507
0.244174
0.0596701
0.244337
0.0649578
0.244648
0.0703275
0.245147
0.0757863
0.245878
0.0813381
0.246892
0.0869828
0.248252
0.0927076
0.25003
0.098497
0.252306
0.104327
0.255174
0.110155
0.258735
0.115928
0.263093
0.121579
0.268351
0.127023
0.274605
0.132158
0.281933
0.136863
0.290384
0.141004
0.299968
0.14444
0.310632
0.147025
0.322267
0.148611
0.148768
0.334653
0.251356
0.00553312
0.251292
0.0117598
0.25123
0.0176174
0.251176
0.0231941
0.251137
0.0285686
0.251125
0.0338023
0.251151
0.0389443
0.251233
0.0440346
0.251388
0.0491053
0.251637
0.0541816
0.252007
0.0592826
0.252525
0.0644233
0.253225
0.0696132
0.254147
0.0748526
0.255334
0.0801402
0.25684
0.0854692
0.258721
0.09082
0.261042
0.0961706
0.263878
0.101489
0.267303
0.106729
0.271393
0.111838
0.276227
0.116747
0.281875
0.121379
0.288395
0.125642
0.295823
0.129437
0.30417
0.132659
0.313409
0.135204
0.323465
0.13697
0.334213
0.137864
0.137543
0.345439
0.257466
0.00552003
0.257461
0.011722
0.257488
0.0175525
0.257551
0.0230967
0.257659
0.0284306
0.25782
0.0336128
0.258049
0.0386898
0.258361
0.043699
0.258775
0.0486697
0.259313
0.0536238
0.260001
0.0585772
0.260867
0.0635415
0.261944
0.0685213
0.263272
0.0735124
0.264893
0.0785089
0.266855
0.0834979
0.269211
0.0884575
0.272015
0.0933611
0.275328
0.0981726
0.279208
0.102847
0.283715
0.107331
0.288902
0.111562
0.294811
0.115471
0.301472
0.118983
0.308893
0.122018
0.317058
0.124497
0.325917
0.126345
0.33539
0.127499
0.345353
0.127901
0.127277
0.355621
0.263723
0.00547826
0.263779
0.0116234
0.263897
0.0173965
0.26408
0.0228793
0.264336
0.0281443
0.264673
0.0332473
0.265105
0.0382319
0.265647
0.0431328
0.266319
0.0479762
0.267142
0.0527813
0.26814
0.0575609
0.269343
0.0623225
0.270784
0.0670665
0.272496
0.071787
0.27452
0.076474
0.276898
0.0811108
0.279674
0.0856739
0.282895
0.0901341
0.286609
0.0944551
0.290859
0.098594
0.295687
0.102502
0.301125
0.106123
0.307196
0.1094
0.313908
0.112272
0.321249
0.114678
0.329185
0.116561
0.337661
0.11787
0.346593
0.118567
0.355873
0.118622
0.11781
0.36534
0.270132
0.0054072
0.27025
0.011463
0.27046
0.0171483
0.270764
0.0225406
0.271168
0.0277088
0.271681
0.0327055
0.272315
0.0375713
0.273086
0.042338
0.274012
0.0470291
0.275112
0.0516608
0.276412
0.0562431
0.277938
0.0607802
0.279719
0.06527
0.281789
0.0697047
0.28418
0.0740713
0.28693
0.0783514
0.290075
0.0825209
0.293652
0.0865504
0.297697
0.0904054
0.30224
0.0940467
0.307308
0.097431
0.312917
0.100512
0.319075
0.103242
0.325772
0.105575
0.332985
0.107465
0.340674
0.108872
0.348778
0.109766
0.35722
0.110125
0.365904
0.109937
0.109017
0.374697
0.276695
0.00530652
0.276875
0.0112405
0.277177
0.0168077
0.277602
0.0220808
0.278155
0.0271249
0.278842
0.031989
0.279676
0.0367109
0.280671
0.0413194
0.281842
0.0458352
0.283211
0.0502722
0.284797
0.0546378
0.286627
0.0589336
0.288726
0.0631558
0.291123
0.0672949
0.293845
0.0713369
0.296924
0.0752625
0.300388
0.0790483
0.304265
0.0826665
0.308579
0.0860855
0.31335
0.089271
0.318591
0.092186
0.324307
0.0947931
0.330493
0.0970548
0.337131
0.0989359
0.344189
0.100405
0.351624
0.101437
0.359377
0.102012
0.367378
0.102124
0.375545
0.10177
0.100797
0.383765
0.283417
0.00517622
0.283658
0.0109563
0.284052
0.0163753
0.284597
0.0215012
0.285295
0.0263946
0.286154
0.0311012
0.287182
0.0356556
0.288393
0.0400838
0.289802
0.0444042
0.291425
0.0486282
0.293283
0.0527613
0.295396
0.0568034
0.297787
0.0607491
0.30048
0.0645884
0.303497
0.0683068
0.306863
0.0718857
0.310599
0.0753031
0.314724
0.0785338
0.319253
0.08155
0.324195
0.0843225
0.329556
0.0868211
0.335329
0.0890161
0.341501
0.0908793
0.348049
0.0923856
0.354938
0.0935141
0.362124
0.0942496
0.369551
0.0945838
0.377157
0.0945162
0.384873
0.094053
0.0930647
0.392604
0.2903
0.0050166
0.290602
0.0106111
0.291086
0.0158526
0.291748
0.020804
0.292589
0.0255215
0.293614
0.030047
0.29483
0.0344121
0.296249
0.0386403
0.297882
0.0427475
0.299746
0.0467434
0.301856
0.0506318
0.304231
0.0544113
0.306888
0.058076
0.309846
0.0616156
0.313124
0.0650162
0.316737
0.0682605
0.320702
0.0713285
0.325029
0.0741982
0.329725
0.076846
0.334793
0.0792479
0.340229
0.0813799
0.346021
0.0832194
0.35215
0.0847461
0.358589
0.0859429
0.365303
0.0867972
0.372249
0.0873015
0.379376
0.0874541
0.38663
0.08726
0.393952
0.0867294
0.0857525
0.401263
0.297348
0.0048282
0.29771
0.0102063
0.298282
0.0152421
0.299058
0.0199928
0.300036
0.0245101
0.301221
0.0288326
0.302617
0.0329885
0.304233
0.036999
0.306079
0.0408781
0.308167
0.0446336
0.31051
0.0482683
0.313124
0.0517801
0.31602
0.0551628
0.319214
0.0584066
0.322718
0.0614986
0.326543
0.0644232
0.330697
0.0671632
0.335186
0.0696997
0.34001
0.0720134
0.345165
0.0740852
0.350642
0.0758967
0.356424
0.0774315
0.362489
0.0786756
0.368809
0.0796185
0.375349
0.0802535
0.382068
0.0805788
0.388922
0.0805972
0.395862
0.0803169
0.402839
0.07975
0.0788033
0.409786
0.304566
0.00461182
0.304985
0.00974392
0.305642
0.0145466
0.306527
0.0190717
0.307638
0.0233663
0.308975
0.0274653
0.310541
0.0313941
0.312342
0.0351716
0.314387
0.0388098
0.316683
0.0423155
0.31924
0.0456904
0.322069
0.0489323
0.32518
0.0520351
0.328581
0.0549898
0.33228
0.0577849
0.336283
0.060407
0.340593
0.0628413
0.34521
0.0650726
0.350128
0.0670854
0.35534
0.068865
0.360831
0.0703979
0.366583
0.0716729
0.372572
0.072681
0.378768
0.0734167
0.385139
0.0738778
0.391647
0.0740662
0.398252
0.0739877
0.404913
0.0736521
0.411587
0.0730723
0.0721686
0.418219
0.311956
0.00436848
0.312431
0.00922617
0.313168
0.0137698
0.314158
0.0180457
0.315395
0.0220965
0.316876
0.0259533
0.318602
0.029639
0.320577
0.0331701
0.322805
0.0365572
0.325292
0.0398059
0.328044
0.0429176
0.331067
0.0458898
0.334367
0.0487171
0.337948
0.0513915
0.341815
0.0539031
0.345967
0.0562407
0.350404
0.0583923
0.355119
0.0603455
0.360105
0.0620887
0.36535
0.0636109
0.370836
0.0649029
0.376544
0.0659573
0.382449
0.0667694
0.388522
0.0673371
0.394732
0.0676616
0.401046
0.0677472
0.407427
0.0676012
0.41384
0.0672344
0.420248
0.0666595
0.0658083
0.426605
0.319523
0.00409935
0.320051
0.00865565
0.320866
0.0129156
0.321954
0.0169203
0.32331
0.0207076
0.324926
0.0243054
0.326802
0.0277337
0.328938
0.0310071
0.331335
0.0341349
0.333996
0.0371217
0.336923
0.0399686
0.340119
0.0426734
0.343586
0.0452314
0.347324
0.0476357
0.351333
0.0498782
0.355609
0.0519496
0.360147
0.0538406
0.364939
0.0555417
0.369971
0.0570442
0.375231
0.0583406
0.380699
0.0594249
0.386355
0.060293
0.392173
0.060943
0.398127
0.0613757
0.404187
0.0615942
0.410324
0.0616044
0.416504
0.0614146
0.422698
0.0610354
0.428873
0.0604791
0.0596873
0.43499
0.327272
0.00380573
0.327849
0.00803514
0.328737
0.0119883
0.329919
0.0157011
0.331385
0.0192071
0.333128
0.0225305
0.335143
0.025689
0.337427
0.0286952
0.339979
0.0315571
0.342797
0.0342788
0.345882
0.0368611
0.349232
0.0393022
0.352846
0.0415982
0.35672