/*--------------------------------*- C++ -*----------------------------------*\
| =========                 |                                                 |
| \\      /  F ield         | OpenFOAM: The Open Source CFD Toolbox           |
|  \\    /   O peration     | Version:  4.1                                   |
|   \\  /    A nd           | Web:      www.OpenFOAM.org                      |
|    \\/     M anipulation  |                                                 |
\*---------------------------------------------------------------------------*/
FoamFile
{
    version     2.0;
    format      ascii;
    class       volScalarField;
    location    "2.7";
    object      p;
}
// * * * * * * * * * * * * * * * * * * * * * * * * * * * * * * * * * * * * * //

dimensions      [0 2 -2 0 0 0 0];

internalField   nonuniform List<scalar> 
2790
(
121.419
121.36
121.65
122.191
122.885
123.706
124.651
125.72
126.911
128.217
129.634
131.159
132.792
134.53
136.367
138.299
140.318
142.414
144.575
146.783
149.016
151.249
153.446
155.569
157.571
159.398
160.993
162.294
163.24
163.779
121.248
121.297
121.606
122.143
122.834
123.652
124.594
125.659
126.844
128.143
129.552
131.069
132.693
134.42
136.246
138.167
140.174
142.258
144.407
146.605
148.831
151.06
153.259
155.391
157.41
159.267
160.906
162.273
163.326
164.082
121.091
121.212
121.538
122.064
122.745
123.554
124.485
125.536
126.705
127.986
129.374
130.867
132.464
134.16
135.951
137.832
139.795
141.831
143.927
146.069
148.236
150.405
152.546
154.625
156.6
158.427
160.056
161.436
162.495
163.151
120.922
121.079
121.418
121.936
122.606
123.403
124.32
125.354
126.501
127.757
129.117
130.578
132.137
133.79
135.532
137.357
139.257
141.222
143.239
145.294
147.366
149.433
151.467
153.434
155.294
157.003
158.505
159.722
160.526
160.491
120.733
120.91
121.259
121.772
122.429
123.211
124.109
125.121
126.241
127.465
128.789
130.208
131.719
133.317
134.998
136.752
138.573
140.448
142.364
144.307
146.255
148.185
150.068
151.871
153.55
155.05
156.294
157.153
157.493
156.282
120.52
120.707
121.064
121.57
122.212
122.974
123.85
124.834
125.922
127.108
128.388
129.757
131.212
132.746
134.353
136.024
137.751
139.52
141.318
143.127
144.926
146.688
148.384
149.973
151.405
152.609
153.481
153.823
153.618
151.084
120.281
120.474
120.833
121.331
121.956
122.696
123.545
124.497
125.547
126.689
127.919
129.231
130.621
132.081
133.604
135.181
136.801
138.45
140.113
141.769
143.395
144.963
146.436
147.767
148.895
149.729
150.144
149.864
149.119
145.333
120.017
120.212
120.569
121.057
121.663
122.377
123.195
124.111
125.119
126.212
127.385
128.633
129.95
131.327
132.757
134.228
135.729
137.245
138.756
140.242
141.675
143.022
144.241
145.275
146.049
146.455
146.358
145.395
144.148
139.267
119.725
119.921
120.274
120.749
121.333
122.02
122.803
123.679
124.64
125.679
126.789
127.966
129.203
130.49
131.817
133.173
134.544
135.912
137.258
138.557
139.776
140.878
141.812
142.513
142.892
142.824
142.182
140.501
138.789
132.996
119.408
119.604
119.949
120.409
120.97
121.626
122.372
123.203
124.113
125.093
126.136
127.236
128.387
129.576
130.792
132.023
133.252
134.462
135.629
136.724
137.71
138.543
139.165
139.5
139.446
138.864
137.647
135.219
133.039
126.447
119.066
119.26
119.597
120.04
120.576
121.198
121.903
122.687
123.542
124.459
125.428
126.447
127.505
128.59
129.688
130.785
131.864
132.904
133.879
134.755
135.491
136.033
136.316
136.253
135.73
134.59
132.757
129.533
126.814
119.428
118.7
118.891
119.218
119.642
120.151
120.737
121.398
122.133
122.93
123.778
124.672
125.605
126.565
127.54
128.512
129.468
130.388
131.249
132.021
132.665
133.133
133.365
133.285
132.793
131.765
130.017
127.495
123.375
119.924
111.503
118.311
118.499
118.815
119.218
119.698
120.246
120.862
121.545
122.28
123.057
123.871
124.714
125.573
126.432
127.273
128.082
128.836
129.51
130.069
130.47
130.656
130.56
130.097
129.15
127.575
125.156
121.827
116.624
112.018
101.621
117.901
118.086
118.389
118.77
119.218
119.728
120.298
120.925
121.596
122.3
123.032
123.781
124.534
125.273
125.979
126.636
127.22
127.7
128.04
128.189
128.083
127.649
126.788
125.363
123.202
120.037
115.732
109.152
102.64
88.2709
117.471
117.653
117.943
118.3
118.715
119.185
119.707
120.277
120.882
121.512
122.159
122.812
123.455
124.071
124.64
125.143
125.552
125.836
125.952
125.843
125.444
124.67
123.403
121.487
118.714
114.742
109.297
101.027
91.6114
69.5783
-0.627515
-0.602565
-0.571791
-0.566622
-0.597603
-0.647714
-0.691786
-0.717302
-0.725797
-0.717898
-0.69298
-0.65452
-0.606746
-0.554141
-0.499938
-0.443807
-0.382209
-0.316579
-0.252334
-0.193604
-0.143478
-0.100867
-0.0630386
-0.027218
0.00794769
0.0407921
0.0671096
0.0807272
0.0749104
0.0458885
-0.642594
-0.613417
-0.584439
-0.584791
-0.619305
-0.669266
-0.711297
-0.734213
-0.739441
-0.728666
-0.701927
-0.661231
-0.61068
-0.557866
-0.505886
-0.449477
-0.384862
-0.315561
-0.246133
-0.187226
-0.138237
-0.0976923
-0.0619231
-0.0269425
0.00911998
0.0439805
0.0728041
0.0883624
0.0823818
0.0477963
-0.666744
-0.625529
-0.598957
-0.608803
-0.650292
-0.70131
-0.741135
-0.76046
-0.760298
-0.744797
-0.715621
-0.671569
-0.614458
-0.556086
-0.5031
-0.449414
-0.386014
-0.315897
-0.2488
-0.188286
-0.139809
-0.0995701
-0.0647094
-0.0295982
0.00837853
0.0468115
0.0800594
0.0985641
0.0926273
0.0526894
-0.667906
-0.629785
-0.612662
-0.63633
-0.687058
-0.739538
-0.776592
-0.791016
-0.783714
-0.762699
-0.729892
-0.683063
-0.624674
-0.566295
-0.512899
-0.456215
-0.387285
-0.310147
-0.238227
-0.179411
-0.132621
-0.0958072
-0.062893
-0.0305393
0.00409352
0.04
0.0716682
0.0900137
0.0839004
0.0482052
-0.66834
-0.628213
-0.625054
-0.665367
-0.725376
-0.778114
-0.812079
-0.820298
-0.804846
-0.786001
-0.750901
-0.688583
-0.612143
-0.546572
-0.501001
-0.454571
-0.390128
-0.315363
-0.245532
-0.18822
-0.143279
-0.10707
-0.0738708
-0.0396069
-0.00580774
0.0282241
0.0575462
0.0741959
0.0682166
0.0316238
-0.653529
-0.618865
-0.635811
-0.693351
-0.7602
-0.808863
-0.841053
-0.844534
-0.806873
-0.765576
-0.740636
-0.695774
-0.625198
-0.555374
-0.49591
-0.440264
-0.378556
-0.31283
-0.251627
-0.200541
-0.159879
-0.126548
-0.0960594
-0.0652798
-0.0328162
7.07849e-05
0.0287971
0.0457114
0.0423455
0.0169905
-0.611622
-0.602247
-0.643664
-0.713914
-0.782818
-0.822599
-0.832869
-0.830718
-0.81669
-0.780584
-0.735048
-0.681249
-0.615876
-0.550085
-0.489132
-0.43083
-0.371744
-0.313432
-0.260845
-0.217328
-0.182759
-0.154314
-0.128171
-0.100835
-0.0707303
-0.0392812
-0.0107728
0.00771153
0.0105692
0.00320199
-0.553084
-0.582386
-0.644996
-0.717984
-0.777834
-0.818497
-0.838414
-0.834909
-0.813389
-0.777897
-0.73079
-0.673483
-0.608414
-0.5428
-0.480691
-0.422073
-0.366443
-0.315538
-0.2723
-0.238205
-0.212148
-0.191013
-0.171017
-0.148056
-0.120314
-0.0894644
-0.0597964
-0.0377105
-0.0250281
-0.0103801
-0.502713
-0.556529
-0.632974
-0.713002
-0.779493
-0.825381
-0.843402
-0.840666
-0.818556
-0.780888
-0.730672
-0.670102
-0.60317
-0.535777
-0.471942
-0.413396
-0.361379
-0.317877
-0.284713
-0.261863
-0.246861
-0.235584
-0.223544
-0.20604
-0.180855
-0.149762
-0.117297
-0.0890295
-0.0630633
-0.0241705
-0.471462
-0.533621
-0.624075
-0.720839
-0.798169
-0.84494
-0.864224
-0.860485
-0.836095
-0.794193
-0.737968
-0.671262
-0.59953
-0.528381
-0.462022
-0.403307
-0.35472
-0.318739
-0.296719
-0.287354
-0.286374
-0.287828
-0.28572
-0.274811
-0.252323
-0.219994
-0.182934
-0.145775
-0.103401
-0.0384326
-0.466083
-0.528204
-0.640091
-0.755282
-0.842303
-0.89176
-0.909736
-0.90185
-0.871192
-0.820672
-0.754055
-0.677103
-0.596873
-0.5194
-0.44906
-0.389281
-0.343527
-0.315203
-0.305883
-0.313082
-0.330051
-0.347929
-0.358296
-0.355077
-0.335148
-0.30042
-0.256825
-0.2081
-0.14646
-0.0534604
-0.464689
-0.543471
-0.700496
-0.842958
-0.935273
-0.979439
-0.988141
-0.969973
-0.927512
-0.8622
-0.778861
-0.686114
-0.593138
-0.506563
-0.430487
-0.368302
-0.32434
-0.303672
-0.309101
-0.337131
-0.377481
-0.416856
-0.443152
-0.44848
-0.430293
-0.391721
-0.339467
-0.276607
-0.192987
-0.0696348
-0.445532
-0.625505
-0.85958
-1.02167
-1.10029
-1.1185
-1.10336
-1.06676
-1.00643
-0.919103
-0.810752
-0.695102
-0.584783
-0.486593
-0.403176
-0.336964
-0.293127
-0.279631
-0.302291
-0.357051
-0.428505
-0.496515
-0.543185
-0.557878
-0.539717
-0.494926
-0.431599
-0.35224
-0.244103
-0.0874811
-0.533838
-0.920149
-1.21046
-1.34464
-1.35794
-1.30909
-1.24941
-1.19032
-1.11019
-0.993202
-0.847914
-0.699556
-0.566698
-0.454839
-0.362915
-0.29098
-0.24482
-0.237065
-0.27964
-0.369249
-0.483151
-0.590284
-0.663362
-0.687769
-0.665934
-0.610966
-0.533992
-0.4362
-0.301402
-0.107748
-0.980098
-1.6456
-1.87363
-1.86369
-1.72638
-1.54436
-1.41362
-1.34071
-1.24396
-1.08425
-0.881248
-0.686776
-0.528321
-0.404878
-0.306489
-0.228353
-0.176267
-0.170516
-0.234458
-0.368785
-0.541582
-0.703916
-0.811847
-0.844603
-0.811769
-0.740629
-0.647159
-0.529651
-0.367017
-0.13159
117.015
117.192
117.468
117.8
118.181
118.609
119.081
119.591
120.128
120.68
121.239
121.792
122.321
122.81
123.24
123.585
123.814
123.897
123.783
123.414
122.721
121.604
119.931
117.524
114.138
109.355
102.726
92.6003
78.7858
38.0085
116.526
116.7
116.96
117.266
117.611
117.994
118.413
118.862
119.327
119.798
120.265
120.713
121.126
121.486
121.771
121.951
121.998
121.876
121.533
120.908
119.926
118.476
116.414
113.557
109.633
104.199
96.752
85.761
71.385
55.0077
116.009
116.178
116.422
116.7
117.008
117.345
117.71
118.094
118.486
118.873
119.245
119.587
119.881
120.109
120.246
120.261
120.126
119.803
119.239
118.369
117.113
115.356
112.958
109.744
105.457
99.7386
92.2999
82.5465
71.2826
62.5659
115.464
115.629
115.855
116.106
116.375
116.664
116.973
117.291
117.608
117.909
118.185
118.419
118.595
118.69
118.678
118.531
118.219
117.703
116.929
115.832
114.33
112.312
109.658
106.22
101.793
96.1644
89.2384
80.8428
70.9523
60.6831
114.893
115.053
115.261
115.483
115.713
115.953
116.204
116.457
116.696
116.911
117.089
117.216
117.273
117.237
117.08
116.776
116.295
115.598
114.632
113.334
111.625
109.408
106.593
103.063
98.6759
93.3188
86.935
79.4078
70.5255
61.0514
114.296
114.451
114.641
114.834
115.024
115.214
115.408
115.593
115.755
115.883
115.964
115.985
115.926
115.761
115.466
115.014
114.374
113.511
112.376
110.91
109.04
106.691
103.8
100.278
96.031
90.9909
85.113
78.3537
70.6728
62.6785
113.675
113.827
113.997
114.16
114.31
114.452
114.587
114.704
114.789
114.831
114.817
114.734
114.562
114.275
113.85
113.259
112.474
111.464
110.187
108.589
106.606
104.185
101.283
97.8327
93.7712
89.0591
83.6798
77.648
70.9902
64.0791
113.032
113.18
113.332
113.464
113.575
113.669
113.744
113.793
113.803
113.761
113.656
113.472
113.191
112.788
112.244
111.527
110.612
109.479
108.089
106.392
104.339
101.894
99.0244
95.6823
91.829
87.4452
82.5383
77.1441
71.2981
65.2507
112.368
112.513
112.648
112.75
112.822
112.867
112.885
112.867
112.803
112.68
112.486
112.207
111.823
111.314
110.66
109.829
108.805
107.574
106.097
104.332
102.245
99.809
96.9995
93.7874
90.1518
86.0867
81.6125
76.7714
71.6032
66.2955
111.686
111.829
111.95
112.021
112.054
112.052
112.011
111.929
111.795
111.595
111.317
110.947
110.468
109.862
109.109
108.182
107.07
105.761
104.219
102.413
100.318
97.914
95.1846
92.115
88.6971
84.9344
80.8526
76.4927
71.8962
67.2073
110.99
111.131
111.239
111.28
111.274
111.225
111.129
110.986
110.785
110.512
110.155
109.702
109.136
108.443
107.604
106.597
105.416
104.046
102.46
100.634
98.5493
96.1942
93.5586
90.6372
87.4307
83.9495
80.2191
76.2761
72.1604
67.9851
110.283
110.42
110.518
110.532
110.487
110.392
110.245
110.044
109.779
109.437
109.008
108.478
107.835
107.066
106.153
105.083
103.847
102.432
100.818
98.9878
96.93
94.6359
92.1022
89.3298
86.3248
83.1007
79.6813
76.0989
72.3893
68.6427
109.569
109.701
109.791
109.779
109.696
109.559
109.364
109.109
108.783
108.378
107.882
107.285
106.574
105.738
104.766
103.644
102.365
100.919
99.2911
97.4714
95.4512
93.2263
90.7979
88.1711
85.3547
82.3628
79.2174
75.9467
72.582
69.1952
108.852
108.977
109.06
109.026
108.908
108.731
108.491
108.185
107.804
107.341
106.786
106.128
105.358
104.466
103.444
102.282
100.972
99.5062
97.8775
96.0785
94.1041
91.953
89.6298
87.1422
84.4996
81.716
78.8113
75.8102
72.7394
69.6565
108.135
108.257
108.33
108.274
108.127
107.913
107.631
107.278
106.848
106.333
105.724
105.012
104.191
103.254
102.192
100.999
99.6675
98.1933
96.573
94.8027
92.8793
90.8041
88.5837
86.2265
83.7423
81.1445
78.4512
75.6836
72.8641
70.0391
107.422
107.545
107.604
107.529
107.357
107.111
106.791
106.396
105.921
105.358
104.701
103.943
103.079
102.104
101.012
99.7969
98.4525
96.9777
95.3734
93.6374
91.7681
89.7686
87.6464
85.4099
83.069
80.6365
78.1287
75.5635
72.9595
70.3544
106.716
106.844
106.891
106.799
106.603
106.328
105.975
105.542
105.025
104.42
103.721
102.924
102.025
101.02
99.9058
98.6764
97.3258
95.8566
94.2741
92.5764
90.7622
88.8363
86.8061
84.6802
82.4684
80.1829
77.8377
75.4479
73.0293
70.6124
106.023
106.158
106.196
106.088
105.872
105.57
105.186
104.72
104.167
103.525
102.79
101.96
101.032
100.004
98.8737
97.6365
96.286
94.8281
93.2713
91.6134
89.8535
87.9975
86.0528
84.0277
81.932
79.7766
77.5736
75.3361
73.0772
70.8219
105.348
105.491
105.524
105.403
105.166
104.841
104.43
103.934
103.35
102.676
101.911
101.053
100.102
99.0572
97.9163
96.6756
95.3315
93.8907
92.3611
90.7421
89.0345
87.2439
85.3779
83.4444
81.4525
79.4119
77.3334
75.228
73.1069
70.9905
104.698
104.849
104.879
104.746
104.492
104.145
103.711
103.189
102.578
101.878
101.087
100.207
99.239
98.1818
97.0341
95.794
94.4609
93.0404
91.5386
89.9571
88.2987
86.569
84.7749
82.9238
81.0242
79.0847
77.1148
75.1241
73.1218
71.1251
104.078
104.237
104.266
104.123
103.853
103.488
103.035
102.491
101.857
101.135
100.322
99.4238
98.4435
97.3789
96.2283
94.9923
93.6722
92.2727
90.7986
89.2534
87.6412
85.9673
84.2381
82.4608
80.6428
78.792
76.9166
75.025
73.1253
71.2314
103.496
103.661
103.691
103.538
103.255
102.875
102.404
101.842
101.189
100.448
99.6192
98.7076
97.7186
96.6498
95.4993
94.2697
92.9633
91.5844
90.1375
88.627
87.0575
85.4342
83.7633
82.0513
80.305
78.5315
76.7382
74.9322
73.1205
71.315
102.956
103.127
103.157
102.997
102.703
102.311
101.825
101.246
100.577
99.8208
98.9815
98.0621
97.0666
95.9949
94.8467
93.6246
92.3321
90.9731
89.5523
88.0741
86.5436
84.9658
83.3465
81.6918
80.0081
78.3016
76.5789
74.8463
73.1101
71.3799
102.466
102.64
102.673
102.506
102.2
101.799
101.301
100.708
100.027
99.2604
98.4133
97.4884
96.4885
95.4154
94.2705
93.0569
91.778
90.438
89.0414
87.5928
86.0972
84.5596
82.9856
81.3808
79.751
78.1021
76.4397
74.7697
73.0975
71.4313
102.033
102.206
102.241
102.07
101.754
101.343
100.836
100.233
99.5426
98.7693
97.9159
96.9864
95.984
94.9112
93.7706
92.5654
91.2995
89.9769
88.6022
87.1799
85.7149
84.2124
82.6773
81.1152
79.5313
77.9311
76.3196
74.7022
73.0836
71.4707
101.663
101.833
101.867
101.693
101.371
100.951
100.436
99.8268
99.1301
98.3508
97.493
96.5607
95.5573
94.486
93.3501
92.1531
90.899
89.5919
88.2363
86.8368
85.3981
83.9252
82.4231
80.8967
79.3512
77.7913
76.2221
74.6481
73.0738
71.5052
101.362
101.531
101.556
101.378
101.053
100.625
100.104
99.4898
98.7884
98.0048
97.1439
96.2099
95.2066
94.1375
93.0063
91.8168
90.573
89.2791
87.9396
86.5591
85.1421
83.6936
82.2181
80.7207
79.2059
77.6784
76.1428
74.6033
73.064
71.5299
101.141
101.304
101.319
101.136
100.809
100.377
99.8511
99.2333
98.5284
97.742
96.8791
95.9443
94.9416
93.8747
92.7476
91.5643
90.3289
89.0457
87.719
86.3535
84.9536
83.5241
82.0695
80.5945
79.1036
77.6012
76.0916
74.5788
73.0669
71.5602
101.005
101.149
101.148
100.961
100.634
100.2
99.6707
99.0508
98.3442
97.5566
96.6932
95.7585
94.7568
93.6921
92.5684
91.3899
90.1607
88.885
87.5674
86.2123
84.8242
83.4076
81.9671
80.5072
79.0322
77.5464
76.0538
74.5585
73.0642
71.5743
101.015
101.097
101.069
100.878
100.55
100.113
99.5818
98.9599
98.2522
97.4639
96.6002
95.6659
94.6652
93.6022
92.4811
91.306
90.081
88.8105
87.4989
86.1506
84.77
83.3616
81.93
80.4794
79.0143
77.5386
76.0565
74.5717
73.0878
71.6078
-80.8915
-39.4871
-12.7994
36.2009
29.113
17.6301
47.966
35.26
24.8638
46.5563
37.3966
30.8942
50.734
43.7977
38.3258
54.564
48.8208
44.0392
57.2481
52.4229
48.3777
59.4309
55.3504
51.9221
61.2829
57.7772
54.8284
62.8308
59.7744
57.2042
64.1206
61.4249
59.1588
65.1974
62.7958
60.7768
66.0967
63.9379
62.122
66.8476
64.8912
63.2445
67.4742
65.6883
64.1837
67.9964
66.3551
64.971
68.431
66.9131
65.6315
68.7918
67.3797
66.1859
69.0905
67.7694
66.6508
69.3371
68.0943
67.0403
69.5398
68.3644
67.3659
69.7062
68.5888
67.6378
69.8419
68.7742
67.8638
69.9537
68.9282
68.0522
70.0435
69.0535
68.2063
70.1202
69.1596
68.3358
70.1775
69.2404
68.4358
70.2348
69.3156
68.5247
70.2655
69.3592
68.5788
70.3165
69.4227
68.6481
-2.17701
-4.46961
-3.6632
-3.08037
-2.43021
-1.78613
-1.47794
-1.46019
-1.38355
-1.18598
-0.910068
-0.653101
-0.468869
-0.338673
-0.233562
-0.143448
-0.0759688
-0.0634526
-0.149416
-0.343822
-0.602564
-0.84769
-1.00477
-1.04182
-0.98257
-0.886053
-0.773474
-0.635696
-0.446012
-0.161577
2.61162
-2.27685
-2.16402
-1.90968
-1.46313
-1.08696
-1.37918
-1.82754
-1.84687
-1.54337
-1.03283
-0.562696
-0.340795
-0.222065
-0.115808
-0.0174611
0.0624798
0.0896686
-0.0166355
-0.294522
-0.681518
-1.05224
-1.27807
-1.30299
-1.18137
-1.04552
-0.914937
-0.758345
-0.548008
-0.20241
12.7977
4.82777
1.95308
0.372638
-0.609685
-1.20173
-1.55696
-1.71463
-1.62358
-1.19328
-0.466496
-0.129387
-0.181709
-0.151109
-0.0386643
0.0769808
0.188311
0.295436
0.214048
-0.172932
-0.741211
-1.29274
-1.61475
-1.59767
-1.39102
-1.22319
-1.09038
-0.936883
-0.692711
-0.261229
22.43
13.9085
8.64114
5.16218
2.74251
1.12922
0.13366
-0.467322
-0.74996
-0.704271
-0.435376
-0.216746
0.0244809
0.206516
0.340198
0.427701
0.526774
0.713183
0.584766
0.00746514
-0.810101
-1.64817
-2.18535
-2.21789
-1.91342
-1.45936
-1.20849
-1.09452
-0.856045
-0.342978
30.9921
22.9327
16.5111
11.6677
8.0968
5.50368
3.64003
2.31138
1.42697
0.932263
0.729153
0.688018
0.726004
0.74211
0.748261
0.76442
0.80982
0.879282
0.7568
0.163277
-0.875398
-2.00159
-2.64564
-2.42938
-1.64672
-1.18308
-1.29601
-1.39078
-1.1597
-0.501832
37.8881
30.8461
24.2278
18.6659
14.2869
10.8861
8.24696
6.22192
4.71866
3.65919
2.94917
2.47431
2.13064
1.85522
1.63555
1.46461
1.3225
1.15823
0.82286
0.130279
-0.884002
-1.88832
-2.44014
-2.36992
-2.0043
-1.82764
-1.95385
-1.95589
-1.49782
-0.692648
43.3508
37.3626
31.0789
25.3624
20.5922
16.6825
13.4788
10.878
8.80615
7.19089
5.94944
4.98925
4.22689
3.60342
3.0812
2.62953
2.21115
1.76728
1.19774
0.414519
-0.528822
-1.40867
-1.96478
-2.11133
-2.02173
-1.95408
-1.96553
-1.83723
-1.40197
-0.78913
47.73
42.606
36.872
31.3626
26.5427
22.4107
18.8699
15.8593
13.335
11.2455
9.52805
8.11338
6.93483
5.9354
5.06916
4.29682
3.57748
2.86067
2.08519
1.21189
0.282286
-0.568874
-1.18621
-1.50846
-1.62015
-1.66447
-1.68413
-1.58354
-1.28229
-0.879202
51.2454
46.8034
41.6587
36.5276
31.8682
27.7253
24.0446
20.7978
17.9677
15.526
13.4307
11.632
10.0786
8.72238
7.52055
6.43456
5.42658
4.45703
3.48805
2.50116
1.52411
0.636239
-0.0706217
-0.555165
-0.855727
-1.04604
-1.15644
-1.15436
-1.01603
-0.839002
54.0856
50.1854
45.5861
40.8809
36.485
32.4632
28.7868
25.4475
22.4472
19.7765
17.4104
15.3156
13.4559
11.7947
10.297
8.9298
7.66136
6.46181
5.30658
4.18585
3.11669
2.14419
1.32074
0.673466
0.188137
-0.17211
-0.43121
-0.589434
-0.653822
-0.712577
56.4058
52.9414
48.8159
44.522
40.4248
36.5924
33.0095
29.6784
26.6132
23.8177
21.2786
18.9749
16.884
14.9812
13.2401
11.6349
10.1412
8.73682
7.40514
6.13974
4.94984
3.85999
2.89938
2.08525
1.41322
0.863569
0.416709
0.0595399
-0.225843
-0.514064
58.3188
55.2102
51.4874
47.5662
43.7654
40.1487
36.7063
33.4459
30.3895
27.5484
24.9142
22.4753
20.2217
18.1384
16.2072
14.4092
12.7268
11.1441
9.64921
8.23725
6.9123
5.68703
4.57711
3.59255
2.73179
1.98298
1.33043
0.758147
0.246319
-0.266116
59.9066
57.0928
53.7113
50.1184
46.5942
43.1954
39.9139
36.7598
33.7602
30.9274
28.2536
25.7357
23.375
21.1642
19.0905
17.1412
15.3044
13.5691
11.9268
10.3733
8.90997
7.54254
6.27882
5.12378
4.07601
3.12729
2.26502
1.47404
0.736045
0.0032491
61.2311
58.6645
55.5731
52.2665
48.9927
45.802
42.6865
39.6579
36.7429
33.9496
31.2722
28.7173
26.2936
23.9976
21.8206
19.7551
17.7938
15.9296
14.1565
12.4711
10.8731
9.36453
7.94866
6.62717
5.39799
4.25458
3.18655
2.18064
1.22095
0.271731
62.34
59.9827
57.1389
54.0814
51.0318
48.0346
45.0823
42.1854
39.365
36.6265
33.971
31.4118
28.9592
26.6103
24.3603
22.2068
20.1462
18.174
16.2864
14.4807
12.7558
11.112
9.54992
8.06914
6.66699
5.33767
4.07231
2.85949
1.68548
0.524567
63.2711
61.0918
58.4608
55.6202
52.77
49.9499
47.1519
44.3825
41.6573
38.9836
36.3693
33.8297
31.3721
28.9933
26.6933
24.4745
22.3355
20.2738
18.2871
16.3734
14.5317
12.7613
11.0614
9.43053
7.86553
6.36097
4.90902
3.49964
2.12065
0.754252
64.054
62.027
59.5793
56.9277
54.2538
51.5932
48.9366
46.2867
43.6563
41.0557
38.4954
35.9885
33.5398
31.1475
28.8162
26.5509
24.3513
22.2161
20.1444
18.1351
16.1875
14.3004
12.4727
10.7021
8.98531
7.3171
5.69033
4.09593
2.52279
0.958988
64.7129
62.8165
60.5269
58.0396
55.5209
53.0025
50.4739
47.9356
45.3991
42.8756
40.3737
37.9041
35.4727
33.0809
30.7344
28.4381
26.1926
23.9977
21.8538
19.7608
17.7182
15.7251
13.7801
11.8807
10.0236
8.20371
6.41436
4.64717
2.89174
1.14043
65.2673
63.4829
61.3299
58.9856
56.6031
54.211
51.798
49.3631
46.9162
44.4669
42.0228
39.5946
37.1888
34.8079
32.4575
30.1424
27.8631
25.6205
23.4159
21.2502
19.1235
17.0351
14.9835
12.9666
10.9807
9.02116
7.08163
5.15422
3.22906
1.30159
65.7334
64.0452
62.01
59.7899
57.5265
55.2461
52.9369
50.596
48.2312
45.851
43.466
41.0847
38.7086
36.3422
33.9951
31.6713
29.3691
27.0888
24.8337
22.6056
20.4051
18.2319
16.0846
13.9611
11.8581
9.771
7.69374
5.61885
3.53691
1.44556
66.1246
64.5187
62.585
60.4724
58.3128
56.1303
53.9129
51.6565
49.3668
47.0536
44.7284
42.3932
40.0451
37.6951
35.3581
33.0347
30.7178
28.4081
26.1113
23.8301
21.5656
19.3177
17.0853
14.8664
12.6577
10.4549
8.25228
6.04268
3.81707
1.57459
66.4524
64.9168
63.0703
61.0505
58.9808
56.8838
54.7471
52.5661
50.3459
48.0966
45.8256
43.53
41.2104
38.8825
36.5605
34.2416
31.9162
29.5849
27.2541
24.9281
22.6086
20.2956
17.9883
15.6845
13.3814
11.0748
8.75904
6.42741
4.07123
1.69049
66.726
65.2501
63.4781
61.538
59.546
57.5232
55.4574
53.3433
51.1854
48.9918
46.7663
44.508
42.2229
39.9219
37.6127
35.2975
32.9701
30.625
28.2671
25.9035
23.537
21.1679
18.7951
16.4168
14.0302
11.6312
9.21445
6.77338
4.29967
1.79369
66.9543
65.5287
63.8201
61.9479
60.0224
58.0634
56.059
54.003
51.8986
49.7512
47.565
45.3465
43.1007
40.825
38.5246
36.2124
33.8859
31.533
29.1553
26.7612
24.3551
21.9379
19.5088
17.0659
14.6064
12.1263
9.62044
7.0824
4.50409
1.88557
67.1421
65.7584
64.1028
62.2878
60.4182
58.5132
56.5607
54.554
52.4949
50.3868
48.2371
46.0587
43.8495
41.5958
39.3037
36.9921
34.6649
32.3101
29.9202
27.5017
25.0625
22.6049
20.1279
17.6298
15.1077
12.5575
9.97429
7.35169
4.68188
1.9644
67.2983
65.9487
64.3368
62.5688
60.7455
58.8851
56.9757
55.0101
52.9892
50.916
48.8003
46.6566
44.4767
42.242
39.9589
37.6477
35.3195
32.9647
30.5679
28.1315
25.6657
23.1746
20.658
18.1138
15.5391
12.9298
10.2809
7.58614
4.83769
2.03366
67.4206
66.098
64.5206
62.7901
61.0035
59.1789
57.3043
55.3722
53.3832
51.34
49.2529
47.1355
44.9771
42.7581
40.4854
38.1776
35.8461
33.4886
31.0896
28.642
26.1552
23.6372
21.0886
18.5071
15.8896
13.232
10.5292
7.77493
4.96167
2.08665
67.5243
66.2215
64.6705
62.9685
61.21
59.4128
57.565
55.6594
53.6961
51.6774
49.6126
47.5132
45.3688
43.1621
40.9002
38.5974
36.2634
33.9028
31.5022
29.0471
26.5454
24.008
21.4353
18.8251
16.1746
13.4795
10.7346
7.93336
5.06808
2.13348
67.5905
66.2999
64.7662
63.0838
61.3444
59.5656
57.7361
55.8488
53.9039
51.9043
49.8559
47.7644
45.6237
43.4252
41.1734
38.8775
36.5452
34.1804
31.773
29.3126
26.8039
24.2544
21.6653
19.0355
16.3621
13.641
10.8665
8.03216
5.13042
2.15574
67.6588
66.3677
64.8433
63.173
61.4447
59.6762
57.8568
55.9796
54.0456
52.0587
50.0208
47.9297
45.7856
43.5917
41.3483
39.0582
36.7277
34.3583
31.9445
29.4816
26.9703
24.4142
21.8159
19.1752
16.4893
13.7536
10.9621
8.10754
5.18023
2.167
)
;

boundaryField
{
    inlet
    {
        type            zeroGradient;
    }
    outlet
    {
        type            fixedValue;
        value           uniform 0;
    }
    flap
    {
        type            zeroGradient;
    }
    upperWall
    {
        type            zeroGradient;
    }
    lowerWall
    {
        type            zeroGradient;
    }
    frontAndBack
    {
        type            empty;
    }
}


// ************************************************************************* //
