/*--------------------------------*- C++ -*----------------------------------*\
| =========                 |                                                 |
| \\      /  F ield         | OpenFOAM: The Open Source CFD Toolbox           |
|  \\    /   O peration     | Version:  5.x                                   |
|   \\  /    A nd           | Web:      www.OpenFOAM.org                      |
|    \\/     M anipulation  |                                                 |
\*---------------------------------------------------------------------------*/
FoamFile
{
    version     2.0;
    format      ascii;
    class       pointVectorField;
    location    "2.7";
    object      pointDisplacement;
}
// * * * * * * * * * * * * * * * * * * * * * * * * * * * * * * * * * * * * * //

dimensions      [0 1 0 0 0 0 0];

internalField   nonuniform List<vector> 
5828
(
(0 0 0)
(0.0251003 0 0)
(0.0472692 0 0)
(0.0658639 0 0)
(0.0812497 0 0)
(0.0937804 0 0)
(0.103765 0 0)
(0.111471 0 0)
(0.117133 0 0)
(0.120953 0 0)
(0.123115 0 0)
(0.123782 0 0)
(0.123094 0 0)
(0.121178 0 0)
(0.118147 0 0)
(0.114107 0 0)
(0.109153 0 0)
(0.103377 0 0)
(0.0968689 0 0)
(0.0897162 0 0)
(0.0820063 0 0)
(0.0738293 0 0)
(0.0652809 0 0)
(0.0564668 0 0)
(0.0475082 0 0)
(0.0385505 0 0)
(0.0297872 0 0)
(0.0215198 0 0)
(0.0142469 0 0)
(0.00904019 0 0)
(-2.10595e-15 0 0)
(0 0 0)
(0.025118 9.17708e-05 0)
(0.0473072 0.000176504 0)
(0.0659218 0.000254068 0)
(0.081328 0.000327122 0)
(0.0938801 0.000397842 0)
(0.103888 0.000467918 0)
(0.11162 0.00053875 0)
(0.11731 0.000611683 0)
(0.121159 0.000687697 0)
(0.123355 0.000767774 0)
(0.124059 0.000853098 0)
(0.123414 0.000944649 0)
(0.121546 0.00104345 0)
(0.118568 0.00115061 0)
(0.114588 0.00126734 0)
(0.109701 0.00139503 0)
(0.104001 0.00153533 0)
(0.0975789 0.00169031 0)
(0.0905243 0.00186232 0)
(0.0829275 0.00205397 0)
(0.0748818 0.0022685 0)
(0.066488 0.00251013 0)
(0.0578592 0.0027845 0)
(0.0491291 0.00309934 0)
(0.0404583 0.00346454 0)
(0.032052 0.00389476 0)
(0.0242305 0.0044159 0)
(0.0175673 0.00507102 0)
(0.0132516 0.00587356 0)
(0.00657404 0.00695064 0)
(0 0 0)
(0.0251808 0.000183407 0)
(0.0474303 0.000352776 0)
(0.0661028 0.000507823 0)
(0.081568 0.000653849 0)
(0.0941832 0.000795214 0)
(0.104259 0.000935286 0)
(0.112066 0.00107677 0)
(0.117836 0.00122168 0)
(0.121776 0.00137262 0)
(0.124074 0.00153224 0)
(0.124891 0.0017023 0)
(0.124373 0.00188471 0)
(0.122646 0.00208149 0)
(0.119828 0.00229482 0)
(0.116026 0.00252709 0)
(0.111341 0.00278098 0)
(0.105867 0.00305965 0)
(0.0997006 0.00336729 0)
(0.0929385 0.00370859 0)
(0.0856777 0.00408847 0)
(0.0780208 0.00451311 0)
(0.070081 0.00499059 0)
(0.0619891 0.00553177 0)
(0.0539139 0.00615293 0)
(0.0460659 0.00687316 0)
(0.0387088 0.00771415 0)
(0.0322136 0.00870313 0)
(0.0272288 0.00988079 0)
(0.0251763 0.0112376 0)
(0.0207683 0.0126799 0)
(0 0 0)
(0.0252852 0.00027429 0)
(0.0476347 0.000527618 0)
(0.0664024 0.00075949 0)
(0.0819649 0.000977798 0)
(0.0946843 0.00118911 0)
(0.104872 0.00139843 0)
(0.112801 0.00160979 0)
(0.118707 0.00182632 0)
(0.122799 0.00205185 0)
(0.125265 0.0022901 0)
(0.126271 0.00254375 0)
(0.125962 0.00281564 0)
(0.124471 0.00310878 0)
(0.121917 0.00342634 0)
(0.118412 0.00377182 0)
(0.114061 0.00414904 0)
(0.108962 0.00456221 0)
(0.103219 0.00501788 0)
(0.0969419 0.0055232 0)
(0.0902386 0.00608461 0)
(0.0832262 0.00671062 0)
(0.076038 0.00741222 0)
(0.068828 0.00820429 0)
(0.0617986 0.00910656 0)
(0.0552264 0.0101407 0)
(0.0494941 0.0113322 0)
(0.0450974 0.0127005 0)
(0.0426852 0.0142488 0)
(0.0436984 0.0159022 0)
(0.0417867 0.0173741 0)
(0 0 0)
(0.0254303 0.000364053 0)
(0.0479189 0.000700092 0)
(0.0668177 0.00100746 0)
(0.0825145 0.00129681 0)
(0.0953785 0.00157681 0)
(0.105723 0.00185407 0)
(0.113822 0.00213396 0)
(0.119916 0.00242106 0)
(0.124218 0.00271995 0)
(0.126917 0.003035 0)
(0.128182 0.00337006 0)
(0.128164 0.00372893 0)
(0.126998 0.00411552 0)
(0.12481 0.00453395 0)
(0.121716 0.00498876 0)
(0.11783 0.00548495 0)
(0.113258 0.00602825 0)
(0.108106 0.00662645 0)
(0.1025 0.00728789 0)
(0.0965676 0.0080207 0)
(0.0904444 0.00883506 0)
(0.0842891 0.00974389 0)
(0.0782995 0.0107646 0)
(0.0727148 0.0119134 0)
(0.0678542 0.0132077 0)
(0.0641965 0.014669 0)
(0.062432 0.0163056 0)
(0.0633118 0.0180872 0)
(0.0679405 0.0198548 0)
(0.0685729 0.0212853 0)
(0 0 0)
(0.0256098 0.000452453 0)
(0.0482717 0.000869716 0)
(0.0673411 0.00125117 0)
(0.0832131 0.00161029 0)
(0.0962621 0.00195761 0)
(0.106805 0.00230133 0)
(0.115121 0.00264814 0)
(0.121455 0.00300382 0)
(0.126023 0.00337378 0)
(0.129017 0.00376311 0)
(0.130612 0.00417669 0)
(0.130963 0.00461923 0)
(0.13021 0.00509542 0)
(0.128485 0.00561025 0)
(0.125912 0.00616921 0)
(0.122615 0.00677872 0)
(0.118713 0.00744644 0)
(0.114316 0.00817917 0)
(0.109563 0.00898568 0)
(0.104608 0.00987658 0)
(0.0996083 0.0108623 0)
(0.0947514 0.0119566 0)
(0.090277 0.0131754 0)
(0.0864876 0.014531 0)
(0.0837743 0.016035 0)
(0.0826386 0.0176922 0)
(0.0838746 0.0194897 0)
(0.0884234 0.0213724 0)
(0.0969507 0.0231293 0)
(0.100166 0.024429 0)
(0 0 0)
(0.0258223 0.000538927 0)
(0.0486906 0.00103584 0)
(0.0679696 0.00149008 0)
(0.0840567 0.00191755 0)
(0.0973298 0.00233067 0)
(0.108114 0.00273917 0)
(0.116693 0.00315104 0)
(0.123315 0.0035731 0)
(0.128203 0.00401156 0)
(0.131553 0.00447223 0)
(0.133544 0.00496094 0)
(0.134339 0.00548327 0)
(0.134083 0.0060445 0)
(0.132915 0.00665032 0)
(0.130967 0.00730685 0)
(0.128373 0.00802199 0)
(0.125271 0.00880421 0)
(0.121784 0.00966027 0)
(0.118059 0.0105998 0)
(0.114276 0.0116334 0)
(0.110622 0.0127709 0)
(0.107322 0.014026 0)
(0.104649 0.0154097 0)
(0.102944 0.0169286 0)
(0.102707 0.0185881 0)
(0.1045 0.0203752 0)
(0.109061 0.0222485 0)
(0.117408 0.0241279 0)
(0.12986 0.0257986 0)
(0.135447 0.0269187 0)
(0 0 0)
(0.0260706 0.000622998 0)
(0.0491806 0.00119749 0)
(0.0687015 0.00172261 0)
(0.0850368 0.00221643 0)
(0.0985701 0.00269325 0)
(0.109634 0.00316431 0)
(0.118517 0.00363876 0)
(0.125475 0.00412438 0)
(0.130733 0.0046281 0)
(0.134493 0.00515632 0)
(0.136943 0.00571593 0)
(0.13825 0.00631334 0)
(0.138569 0.00695414 0)
(0.138048 0.00764465 0)
(0.136828 0.00839192 0)
(0.135051 0.00920436 0)
(0.132871 0.0100901 0)
(0.130434 0.0110575 0)
(0.127904 0.012116 0)
(0.125478 0.0132743 0)
(0.123374 0.0145423 0)
(0.121855 0.0159311 0)
(0.121249 0.0174467 0)
(0.121937 0.0190897 0)
(0.124433 0.0208531 0)
(0.129404 0.0227091 0)
(0.137531 0.0245951 0)
(0.149745 0.0264138 0)
(0.166003 0.027967 0)
(0.173721 0.0289566 0)
(0 0 0)
(0.0263524 0.000704321 0)
(0.0497362 0.00135378 0)
(0.0695293 0.00194726 0)
(0.0861435 0.00250494 0)
(0.0999702 0.0030429 0)
(0.111349 0.00357378 0)
(0.120576 0.00410783 0)
(0.127911 0.00465368 0)
(0.133585 0.00521897 0)
(0.13781 0.00581101 0)
(0.140779 0.0064374 0)
(0.142666 0.00710461 0)
(0.143631 0.00781872 0)
(0.143836 0.00858702 0)
(0.143439 0.00941757 0)
(0.142585 0.0103177 0)
(0.141441 0.0112954 0)
(0.140182 0.0123602 0)
(0.138991 0.0135209 0)
(0.138086 0.0147845 0)
(0.137729 0.0161605 0)
(0.138207 0.0176557 0)
(0.139882 0.0192711 0)
(0.143216 0.0210012 0)
(0.148691 0.0228246 0)
(0.157003 0.0247007 0)
(0.168843 0.0265585 0)
(0.184951 0.0282909 0)
(0.204819 0.0297149 0)
(0.214477 0.0305875 0)
(0 0 0)
(0.0266657 0.000782755 0)
(0.0503537 0.00150446 0)
(0.0704482 0.00216369 0)
(0.087371 0.00278265 0)
(0.101522 0.00337905 0)
(0.113251 0.00396688 0)
(0.122858 0.0045574 0)
(0.130609 0.00516001 0)
(0.136745 0.00578307 0)
(0.141486 0.00643517 0)
(0.14503 0.00712366 0)
(0.147553 0.00785456 0)
(0.149227 0.00863479 0)
(0.150228 0.00947269 0)
(0.150729 0.0103764 0)
(0.150889 0.0113527 0)
(0.150886 0.0124099 0)
(0.15092 0.0135573 0)
(0.151197 0.0148021 0)
(0.15196 0.0161509 0)
(0.153504 0.017611 0)
(0.156169 0.0191855 0)
(0.160329 0.0208694 0)
(0.166472 0.0226497 0)
(0.175143 0.0244978 0)
(0.186976 0.0263633 0)
(0.202615 0.0281693 0)
(0.222566 0.029802 0)
(0.245782 0.0310863 0)
(0.257219 0.0318793 0)
(0 0 0)
(0.0270083 0.000858169 0)
(0.0510292 0.00164929 0)
(0.0714528 0.00237158 0)
(0.088712 0.00304911 0)
(0.103217 0.0037011 0)
(0.115326 0.00434286 0)
(0.125348 0.00498653 0)
(0.133553 0.00564211 0)
(0.140188 0.00631859 0)
(0.145485 0.00702525 0)
(0.149645 0.00776946 0)
(0.152854 0.00855724 0)
(0.155295 0.00939632 0)
(0.157158 0.0102954 0)
(0.158624 0.0112617 0)
(0.159873 0.0123024 0)
(0.161099 0.0134255 0)
(0.162521 0.014639 0)
(0.164368 0.015949 0)
(0.166924 0.0173615 0)
(0.170504 0.0188806 0)
(0.175474 0.0205052 0)
(0.182271 0.0222264 0)
(0.191377 0.0240251 0)
(0.2034 0.025869 0)
(0.218892 0.0277005 0)
(0.238398 0.0294387 0)
(0.262078 0.0309608 0)
(0.288348 0.0320874 0)
(0.301565 0.0328322 0)
(0 0 0)
(0.0273766 0.000930077 0)
(0.0517553 0.00178733 0)
(0.0725323 0.00256958 0)
(0.0901521 0.00330257 0)
(0.105036 0.0040069 0)
(0.117554 0.00469915 0)
(0.128019 0.00539231 0)
(0.136709 0.00609671 0)
(0.143879 0.00682207 0)
(0.149767 0.00757784 0)
(0.154582 0.00837135 0)
(0.15852 0.00920923 0)
(0.161779 0.0100997 0)
(0.164556 0.0110507 0)
(0.167043 0.0120687 0)
(0.169439 0.0131608 0)
(0.171957 0.0143346 0)
(0.174839 0.0155966 0)
(0.178341 0.0169522 0)
(0.182764 0.0184052 0)
(0.18847 0.0199565 0)
(0.19584 0.0216012 0)
(0.205344 0.0233274 0)
(0.217515 0.0251131 0)
(0.23295 0.0269223 0)
(0.252144 0.0286949 0)
(0.275543 0.0303482 0)
(0.302804 0.031746 0)
(0.331848 0.0326922 0)
(0.347046 0.0333808 0)
(0 0 0)
(0.0277666 0.00099803 0)
(0.0525246 0.00191774 0)
(0.0736763 0.00275649 0)
(0.0916768 0.00354153 0)
(0.106963 0.0042949 0)
(0.119916 0.00503432 0)
(0.130852 0.00577316 0)
(0.140054 0.00652215 0)
(0.147791 0.00729203 0)
(0.154305 0.00809171 0)
(0.159804 0.00892802 0)
(0.164504 0.00980857 0)
(0.168617 0.0107416 0)
(0.172346 0.0117344 0)
(0.175891 0.0127924 0)
(0.179478 0.0139225 0)
(0.183338 0.0151316 0)
(0.187724 0.0164243 0)
(0.192923 0.0178039 0)
(0.199252 0.019272 0)
(0.207101 0.0208268 0)
(0.216902 0.0224598 0)
(0.229132 0.024156 0)
(0.244371 0.0258917 0)
(0.263179 0.0276277 0)
(0.28603 0.0293068 0)
(0.313218 0.0308462 0)
(0.343837 0.0321037 0)
(0.375368 0.0328573 0)
(0.392958 0.0335651 0)
(0 0 0)
(0.0281757 0.00106194 0)
(0.0533327 0.00204038 0)
(0.0748789 0.00293217 0)
(0.0932822 0.00376595 0)
(0.108993 0.00456522 0)
(0.122402 0.00534828 0)
(0.13383 0.00612862 0)
(0.143565 0.00691764 0)
(0.151889 0.00772651 0)
(0.159046 0.00856374 0)
(0.165257 0.00943631 0)
(0.170748 0.0103523 0)
(0.175741 0.0113193 0)
(0.180444 0.0123433 0)
(0.185075 0.0134296 0)
(0.189876 0.0145842 0)
(0.195094 0.0158122 0)
(0.20099 0.0171158 0)
(0.207872 0.0184964 0)
(0.216104 0.0199536 0)
(0.226077 0.0214815 0)
(0.238243 0.023068 0)
(0.253126 0.0246946 0)
(0.271305 0.0263338 0)
(0.293312 0.0279437 0)
(0.319633 0.0294698 0)
(0.350263 0.0308357 0)
(0.383802 0.0319152 0)
(0.417542 0.0324455 0)
(0.438956 0.033627 0)
(0 0 0)
(0.028601 0.00112174 0)
(0.0541748 0.00215514 0)
(0.0761334 0.00309645 0)
(0.0949584 0.00397553 0)
(0.111111 0.00481685 0)
(0.124989 0.00563925 0)
(0.13692 0.00645664 0)
(0.147206 0.00728099 0)
(0.156133 0.00812347 0)
(0.16395 0.00899233 0)
(0.170892 0.00989493 0)
(0.177192 0.0108389 0)
(0.183075 0.0118306 0)
(0.188763 0.0128754 0)
(0.194488 0.013978 0)
(0.200498 0.0151427 0)
(0.207052 0.0163722 0)
(0.214431 0.0176668 0)
(0.222962 0.0190259 0)
(0.233025 0.0204458 0)
(0.245025 0.021915 0)
(0.259414 0.0234169 0)
(0.276738 0.0249275 0)
(0.297544 0.0264113 0)
(0.322338 0.0278191 0)
(0.351552 0.029087 0)
(0.384766 0.030138 0)
(0.420318 0.0308778 0)
(0.455911 0.0309635 0)
(0.484955 0.0336379 0)
(0 0 0)
(0.0290412 0.00117754 0)
(0.0550497 0.0022623 0)
(0.0774386 0.00324974 0)
(0.0966998 0.00417061 0)
(0.113309 0.0050503 0)
(0.127675 0.00590839 0)
(0.14013 0.00675903 0)
(0.150988 0.00761456 0)
(0.160536 0.0084857 0)
(0.169028 0.0093804 0)
(0.176715 0.0103063 0)
(0.183833 0.0112702 0)
(0.190613 0.0122775 0)
(0.197285 0.0133327 0)
(0.204096 0.0144392 0)
(0.211294 0.0155994 0)
(0.219157 0.0168136 0)
(0.227978 0.01808 0)
(0.238092 0.0193946 0)
(0.249869 0.0207489 0)
(0.263713 0.0221261 0)
(0.280089 0.0235022 0)
(0.299495 0.0248437 0)
(0.322396 0.0261004 0)
(0.349227 0.0272002 0)
(0.380108 0.0280369 0)
(0.414175 0.0284457 0)
(0.449628 0.0281188 0)
(0.484233 0.0261853 0)
(0.531024 0.033671 0)
(0 0 0)
(0.0251003 0 0)
(0.0472692 0 0)
(0.0658639 0 0)
(0.0812497 0 0)
(0.0937804 0 0)
(0.103765 0 0)
(0.111471 0 0)
(0.117133 0 0)
(0.120953 0 0)
(0.123115 0 0)
(0.123782 0 0)
(0.123094 0 0)
(0.121178 0 0)
(0.118147 0 0)
(0.114107 0 0)
(0.109153 0 0)
(0.103377 0 0)
(0.0968689 0 0)
(0.0897162 0 0)
(0.0820063 0 0)
(0.0738293 0 0)
(0.0652809 0 0)
(0.0564668 0 0)
(0.0475082 0 0)
(0.0385505 0 0)
(0.0297872 0 0)
(0.0215198 0 0)
(0.0142469 0 0)
(0.00904019 0 0)
(-1.04083e-16 0 0)
(0 0 0)
(0.025118 9.17708e-05 0)
(0.0473072 0.000176504 0)
(0.0659218 0.000254068 0)
(0.081328 0.000327122 0)
(0.0938801 0.000397842 0)
(0.103888 0.000467918 0)
(0.11162 0.00053875 0)
(0.11731 0.000611683 0)
(0.121159 0.000687697 0)
(0.123355 0.000767774 0)
(0.124059 0.000853098 0)
(0.123414 0.000944649 0)
(0.121546 0.00104345 0)
(0.118568 0.00115061 0)
(0.114588 0.00126734 0)
(0.109701 0.00139503 0)
(0.104001 0.00153533 0)
(0.0975789 0.00169031 0)
(0.0905243 0.00186232 0)
(0.0829275 0.00205397 0)
(0.0748818 0.0022685 0)
(0.066488 0.00251013 0)
(0.0578592 0.0027845 0)
(0.0491291 0.00309934 0)
(0.0404583 0.00346454 0)
(0.032052 0.00389476 0)
(0.0242305 0.0044159 0)
(0.0175673 0.00507102 0)
(0.0132516 0.00587356 0)
(0.00657404 0.00695064 0)
(0 0 0)
(0.0251808 0.000183407 0)
(0.0474303 0.000352776 0)
(0.0661028 0.000507823 0)
(0.081568 0.000653849 0)
(0.0941832 0.000795214 0)
(0.104259 0.000935286 0)
(0.112066 0.00107677 0)
(0.117836 0.00122168 0)
(0.121776 0.00137262 0)
(0.124074 0.00153224 0)
(0.124891 0.0017023 0)
(0.124373 0.00188471 0)
(0.122646 0.00208149 0)
(0.119828 0.00229482 0)
(0.116026 0.00252709 0)
(0.111341 0.00278098 0)
(0.105867 0.00305965 0)
(0.0997006 0.00336729 0)
(0.0929385 0.00370859 0)
(0.0856777 0.00408847 0)
(0.0780208 0.00451311 0)
(0.070081 0.00499059 0)
(0.0619891 0.00553177 0)
(0.0539139 0.00615293 0)
(0.0460659 0.00687316 0)
(0.0387088 0.00771415 0)
(0.0322136 0.00870313 0)
(0.0272288 0.00988079 0)
(0.0251763 0.0112376 0)
(0.0207683 0.0126799 0)
(0 0 0)
(0.0252852 0.00027429 0)
(0.0476347 0.000527618 0)
(0.0664024 0.00075949 0)
(0.0819649 0.000977798 0)
(0.0946843 0.00118911 0)
(0.104872 0.00139843 0)
(0.112801 0.00160979 0)
(0.118707 0.00182632 0)
(0.122799 0.00205185 0)
(0.125265 0.0022901 0)
(0.126271 0.00254375 0)
(0.125962 0.00281564 0)
(0.124471 0.00310878 0)
(0.121917 0.00342634 0)
(0.118412 0.00377182 0)
(0.114061 0.00414904 0)
(0.108962 0.00456221 0)
(0.103219 0.00501788 0)
(0.0969419 0.0055232 0)
(0.0902386 0.00608461 0)
(0.0832262 0.00671062 0)
(0.076038 0.00741222 0)
(0.068828 0.00820429 0)
(0.0617986 0.00910656 0)
(0.0552264 0.0101407 0)
(0.0494941 0.0113322 0)
(0.0450974 0.0127005 0)
(0.0426852 0.0142488 0)
(0.0436984 0.0159022 0)
(0.0417867 0.0173741 0)
(0 0 0)
(0.0254303 0.000364053 0)
(0.0479189 0.000700092 0)
(0.0668177 0.00100746 0)
(0.0825145 0.00129681 0)
(0.0953785 0.00157681 0)
(0.105723 0.00185407 0)
(0.113822 0.00213396 0)
(0.119916 0.00242106 0)
(0.124218 0.00271995 0)
(0.126917 0.003035 0)
(0.128182 0.00337006 0)
(0.128164 0.00372893 0)
(0.126998 0.00411552 0)
(0.12481 0.00453395 0)
(0.121716 0.00498876 0)
(0.11783 0.00548495 0)
(0.113258 0.00602825 0)
(0.108106 0.00662645 0)
(0.1025 0.00728789 0)
(0.0965676 0.0080207 0)
(0.0904444 0.00883506 0)
(0.0842891 0.00974389 0)
(0.0782995 0.0107646 0)
(0.0727148 0.0119134 0)
(0.0678542 0.0132077 0)
(0.0641965 0.014669 0)
(0.062432 0.0163056 0)
(0.0633118 0.0180872 0)
(0.0679405 0.0198548 0)
(0.0685729 0.0212853 0)
(0 0 0)
(0.0256098 0.000452453 0)
(0.0482717 0.000869716 0)
(0.0673411 0.00125117 0)
(0.0832131 0.00161029 0)
(0.0962621 0.00195761 0)
(0.106805 0.00230133 0)
(0.115121 0.00264814 0)
(0.121455 0.00300382 0)
(0.126023 0.00337378 0)
(0.129017 0.00376311 0)
(0.130612 0.00417669 0)
(0.130963 0.00461923 0)
(0.13021 0.00509542 0)
(0.128485 0.00561025 0)
(0.125912 0.00616921 0)
(0.122615 0.00677872 0)
(0.118713 0.00744644 0)
(0.114316 0.00817917 0)
(0.109563 0.00898568 0)
(0.104608 0.00987658 0)
(0.0996083 0.0108623 0)
(0.0947514 0.0119566 0)
(0.090277 0.0131754 0)
(0.0864876 0.014531 0)
(0.0837743 0.016035 0)
(0.0826386 0.0176922 0)
(0.0838746 0.0194897 0)
(0.0884234 0.0213724 0)
(0.0969507 0.0231293 0)
(0.100166 0.024429 0)
(0 0 0)
(0.0258223 0.000538927 0)
(0.0486906 0.00103584 0)
(0.0679696 0.00149008 0)
(0.0840567 0.00191755 0)
(0.0973298 0.00233067 0)
(0.108114 0.00273917 0)
(0.116693 0.00315104 0)
(0.123315 0.0035731 0)
(0.128203 0.00401156 0)
(0.131553 0.00447223 0)
(0.133544 0.00496094 0)
(0.134339 0.00548327 0)
(0.134083 0.0060445 0)
(0.132915 0.00665032 0)
(0.130967 0.00730685 0)
(0.128373 0.00802199 0)
(0.125271 0.00880421 0)
(0.121784 0.00966027 0)
(0.118059 0.0105998 0)
(0.114276 0.0116334 0)
(0.110622 0.0127709 0)
(0.107322 0.014026 0)
(0.104649 0.0154097 0)
(0.102944 0.0169286 0)
(0.102707 0.0185881 0)
(0.1045 0.0203752 0)
(0.109061 0.0222485 0)
(0.117408 0.0241279 0)
(0.12986 0.0257986 0)
(0.135447 0.0269187 0)
(0 0 0)
(0.0260706 0.000622998 0)
(0.0491806 0.00119749 0)
(0.0687015 0.00172261 0)
(0.0850368 0.00221643 0)
(0.0985701 0.00269325 0)
(0.109634 0.00316431 0)
(0.118517 0.00363876 0)
(0.125475 0.00412438 0)
(0.130733 0.0046281 0)
(0.134493 0.00515632 0)
(0.136943 0.00571593 0)
(0.13825 0.00631334 0)
(0.138569 0.00695414 0)
(0.138048 0.00764465 0)
(0.136828 0.00839192 0)
(0.135051 0.00920436 0)
(0.132871 0.0100901 0)
(0.130434 0.0110575 0)
(0.127904 0.012116 0)
(0.125478 0.0132743 0)
(0.123374 0.0145423 0)
(0.121855 0.0159311 0)
(0.121249 0.0174467 0)
(0.121937 0.0190897 0)
(0.124433 0.0208531 0)
(0.129404 0.0227091 0)
(0.137531 0.0245951 0)
(0.149745 0.0264138 0)
(0.166003 0.027967 0)
(0.173721 0.0289566 0)
(0 0 0)
(0.0263524 0.000704321 0)
(0.0497362 0.00135378 0)
(0.0695293 0.00194726 0)
(0.0861435 0.00250494 0)
(0.0999702 0.0030429 0)
(0.111349 0.00357378 0)
(0.120576 0.00410783 0)
(0.127911 0.00465368 0)
(0.133585 0.00521897 0)
(0.13781 0.00581101 0)
(0.140779 0.0064374 0)
(0.142666 0.00710461 0)
(0.143631 0.00781872 0)
(0.143836 0.00858702 0)
(0.143439 0.00941757 0)
(0.142585 0.0103177 0)
(0.141441 0.0112954 0)
(0.140182 0.0123602 0)
(0.138991 0.0135209 0)
(0.138086 0.0147845 0)
(0.137729 0.0161605 0)
(0.138207 0.0176557 0)
(0.139882 0.0192711 0)
(0.143216 0.0210012 0)
(0.148691 0.0228246 0)
(0.157003 0.0247007 0)
(0.168843 0.0265585 0)
(0.184951 0.0282909 0)
(0.204819 0.0297149 0)
(0.214477 0.0305875 0)
(0 0 0)
(0.0266657 0.000782755 0)
(0.0503537 0.00150446 0)
(0.0704482 0.00216369 0)
(0.087371 0.00278265 0)
(0.101522 0.00337905 0)
(0.113251 0.00396688 0)
(0.122858 0.0045574 0)
(0.130609 0.00516001 0)
(0.136745 0.00578307 0)
(0.141486 0.00643517 0)
(0.14503 0.00712366 0)
(0.147553 0.00785456 0)
(0.149227 0.00863479 0)
(0.150228 0.00947269 0)
(0.150729 0.0103764 0)
(0.150889 0.0113527 0)
(0.150886 0.0124099 0)
(0.15092 0.0135573 0)
(0.151197 0.0148021 0)
(0.15196 0.0161509 0)
(0.153504 0.017611 0)
(0.156169 0.0191855 0)
(0.160329 0.0208694 0)
(0.166472 0.0226497 0)
(0.175143 0.0244978 0)
(0.186976 0.0263633 0)
(0.202615 0.0281693 0)
(0.222566 0.029802 0)
(0.245782 0.0310863 0)
(0.257219 0.0318793 0)
(0 0 0)
(0.0270083 0.000858169 0)
(0.0510292 0.00164929 0)
(0.0714528 0.00237158 0)
(0.088712 0.00304911 0)
(0.103217 0.0037011 0)
(0.115326 0.00434286 0)
(0.125348 0.00498653 0)
(0.133553 0.00564211 0)
(0.140188 0.00631859 0)
(0.145485 0.00702525 0)
(0.149645 0.00776946 0)
(0.152854 0.00855724 0)
(0.155295 0.00939632 0)
(0.157158 0.0102954 0)
(0.158624 0.0112617 0)
(0.159873 0.0123024 0)
(0.161099 0.0134255 0)
(0.162521 0.014639 0)
(0.164368 0.015949 0)
(0.166924 0.0173615 0)
(0.170504 0.0188806 0)
(0.175474 0.0205052 0)
(0.182271 0.0222264 0)
(0.191377 0.0240251 0)
(0.2034 0.025869 0)
(0.218892 0.0277005 0)
(0.238398 0.0294387 0)
(0.262078 0.0309608 0)
(0.288348 0.0320874 0)
(0.301565 0.0328322 0)
(0 0 0)
(0.0273766 0.000930077 0)
(0.0517553 0.00178733 0)
(0.0725323 0.00256958 0)
(0.0901521 0.00330257 0)
(0.105036 0.0040069 0)
(0.117554 0.00469915 0)
(0.128019 0.00539231 0)
(0.136709 0.00609671 0)
(0.143879 0.00682207 0)
(0.149767 0.00757784 0)
(0.154582 0.00837135 0)
(0.15852 0.00920923 0)
(0.161779 0.0100997 0)
(0.164556 0.0110507 0)
(0.167043 0.0120687 0)
(0.169439 0.0131608 0)
(0.171957 0.0143346 0)
(0.174839 0.0155966 0)
(0.178341 0.0169522 0)
(0.182764 0.0184052 0)
(0.18847 0.0199565 0)
(0.19584 0.0216012 0)
(0.205344 0.0233274 0)
(0.217515 0.0251131 0)
(0.23295 0.0269223 0)
(0.252144 0.0286949 0)
(0.275543 0.0303482 0)
(0.302804 0.031746 0)
(0.331848 0.0326922 0)
(0.347046 0.0333808 0)
(0 0 0)
(0.0277666 0.00099803 0)
(0.0525246 0.00191774 0)
(0.0736763 0.00275649 0)
(0.0916768 0.00354153 0)
(0.106963 0.0042949 0)
(0.119916 0.00503432 0)
(0.130852 0.00577316 0)
(0.140054 0.00652215 0)
(0.147791 0.00729203 0)
(0.154305 0.00809171 0)
(0.159804 0.00892802 0)
(0.164504 0.00980857 0)
(0.168617 0.0107416 0)
(0.172346 0.0117344 0)
(0.175891 0.0127924 0)
(0.179478 0.0139225 0)
(0.183338 0.0151316 0)
(0.187724 0.0164243 0)
(0.192923 0.0178039 0)
(0.199252 0.019272 0)
(0.207101 0.0208268 0)
(0.216902 0.0224598 0)
(0.229132 0.024156 0)
(0.244371 0.0258917 0)
(0.263179 0.0276277 0)
(0.28603 0.0293068 0)
(0.313218 0.0308462 0)
(0.343837 0.0321037 0)
(0.375368 0.0328573 0)
(0.392958 0.0335651 0)
(0 0 0)
(0.0281757 0.00106194 0)
(0.0533327 0.00204038 0)
(0.0748789 0.00293217 0)
(0.0932822 0.00376595 0)
(0.108993 0.00456522 0)
(0.122402 0.00534828 0)
(0.13383 0.00612862 0)
(0.143565 0.00691764 0)
(0.151889 0.00772651 0)
(0.159046 0.00856374 0)
(0.165257 0.00943631 0)
(0.170748 0.0103523 0)
(0.175741 0.0113193 0)
(0.180444 0.0123433 0)
(0.185075 0.0134296 0)
(0.189876 0.0145842 0)
(0.195094 0.0158122 0)
(0.20099 0.0171158 0)
(0.207872 0.0184964 0)
(0.216104 0.0199536 0)
(0.226077 0.0214815 0)
(0.238243 0.023068 0)
(0.253126 0.0246946 0)
(0.271305 0.0263338 0)
(0.293312 0.0279437 0)
(0.319633 0.0294698 0)
(0.350263 0.0308357 0)
(0.383802 0.0319152 0)
(0.417542 0.0324455 0)
(0.438956 0.033627 0)
(0 0 0)
(0.028601 0.00112174 0)
(0.0541748 0.00215514 0)
(0.0761334 0.00309645 0)
(0.0949584 0.00397553 0)
(0.111111 0.00481685 0)
(0.124989 0.00563925 0)
(0.13692 0.00645664 0)
(0.147206 0.00728099 0)
(0.156133 0.00812347 0)
(0.16395 0.00899233 0)
(0.170892 0.00989493 0)
(0.177192 0.0108389 0)
(0.183075 0.0118306 0)
(0.188763 0.0128754 0)
(0.194488 0.013978 0)
(0.200498 0.0151427 0)
(0.207052 0.0163722 0)
(0.214431 0.0176668 0)
(0.222962 0.0190259 0)
(0.233025 0.0204458 0)
(0.245025 0.021915 0)
(0.259414 0.0234169 0)
(0.276738 0.0249275 0)
(0.297544 0.0264113 0)
(0.322338 0.0278191 0)
(0.351552 0.029087 0)
(0.384766 0.030138 0)
(0.420318 0.0308778 0)
(0.455911 0.0309635 0)
(0.484955 0.0336379 0)
(0 0 0)
(0.0290412 0.00117754 0)
(0.0550497 0.0022623 0)
(0.0774386 0.00324974 0)
(0.0966998 0.00417061 0)
(0.113309 0.0050503 0)
(0.127675 0.00590839 0)
(0.14013 0.00675903 0)
(0.150988 0.00761456 0)
(0.160536 0.0084857 0)
(0.169028 0.0093804 0)
(0.176715 0.0103063 0)
(0.183833 0.0112702 0)
(0.190613 0.0122775 0)
(0.197285 0.0133327 0)
(0.204096 0.0144392 0)
(0.211294 0.0155994 0)
(0.219157 0.0168136 0)
(0.227978 0.01808 0)
(0.238092 0.0193946 0)
(0.249869 0.0207489 0)
(0.263713 0.0221261 0)
(0.280089 0.0235022 0)
(0.299495 0.0248437 0)
(0.322396 0.0261004 0)
(0.349227 0.0272002 0)
(0.380108 0.0280369 0)
(0.414175 0.0284457 0)
(0.449628 0.0281188 0)
(0.484233 0.0261853 0)
(0.531024 0.033671 0)
(-3.53884e-16 0 0)
(0.0189741 0 0)
(0.0390582 0 0)
(0.0715104 0 0)
(0.113389 0 0)
(0.158988 0 0)
(0.20242 0 0)
(0.24 0 0)
(0.270636 0 0)
(0.294682 0 0)
(0.312857 0 0)
(0.325941 0 0)
(0.334691 0 0)
(0.339699 0 0)
(0.341385 0 0)
(0.340053 0 0)
(0.335922 0 0)
(0.329133 0 0)
(0.31977 0 0)
(0.307875 0 0)
(0.293459 0 0)
(0.276507 0 0)
(0.256958 0 0)
(0.234743 0 0)
(0.209806 0 0)
(0.182083 0 0)
(0.151507 0 0)
(0.118013 0 0)
(0.0815436 0 0)
(0.0419958 0 0)
(0 0 0)
(0.0066305 -0.00714688 0)
(0.0235909 -0.00651501 0)
(0.0440784 -0.00682921 0)
(0.0765578 -0.00680011 0)
(0.11814 -0.00655372 0)
(0.163201 -0.00614918 0)
(0.206003 -0.00564999 0)
(0.242976 -0.00512241 0)
(0.273074 -0.0046133 0)
(0.296658 -0.00413457 0)
(0.31445 -0.00369444 0)
(0.327225 -0.00329593 0)
(0.335729 -0.00293893 0)
(0.340542 -0.00261838 0)
(0.342073 -0.00232875 0)
(0.340619 -0.00207155 0)
(0.336391 -0.00184176 0)
(0.329525 -0.00163518 0)
(0.320102 -0.00144903 0)
(0.308158 -0.00127982 0)
(0.293704 -0.00112644 0)
(0.276716 -0.000986536 0)
(0.257134 -0.000859224 0)
(0.234894 -0.000741451 0)
(0.209935 -0.000630821 0)
(0.182191 -0.000525171 0)
(0.151597 -0.000422439 0)
(0.118084 -0.000320581 0)
(0.0815955 -0.000217516 0)
(0.0420246 -0.000110881 0)
(0 0 0)
(0.0208248 -0.0130538 0)
(0.0368137 -0.012432 0)
(0.0585207 -0.0129644 0)
(0.0912302 -0.0128926 0)
(0.132096 -0.0124291 0)
(0.175661 -0.0116816 0)
(0.216617 -0.0107669 0)
(0.251766 -0.00979577 0)
(0.280238 -0.00884553 0)
(0.302443 -0.00794624 0)
(0.319098 -0.00711457 0)
(0.330962 -0.00635854 0)
(0.338748 -0.00568004 0)
(0.34299 -0.00506979 0)
(0.344068 -0.00451968 0)
(0.342257 -0.00402745 0)
(0.337745 -0.00358535 0)
(0.330654 -0.00318736 0)
(0.321055 -0.00282744 0)
(0.30897 -0.00250087 0)
(0.294397 -0.00220429 0)
(0.277304 -0.00193437 0)
(0.257631 -0.00168712 0)
(0.235315 -0.00145757 0)
(0.210291 -0.00124134 0)
(0.18249 -0.00103433 0)
(0.151842 -0.00083262 0)
(0.118277 -0.000632256 0)
(0.0817341 -0.000429208 0)
(0.0420998 -0.000218871 0)
(0 0 0)
(0.0418338 -0.0179289 0)
(0.0572694 -0.0174655 0)
(0.0807191 -0.0181103 0)
(0.113813 -0.0180089 0)
(0.15362 -0.0173797 0)
(0.194962 -0.0163754 0)
(0.233123 -0.015146 0)
(0.265457 -0.0138313 0)
(0.291413 -0.0125306 0)
(0.311483 -0.0112918 0)
(0.326375 -0.0101384 0)
(0.336829 -0.00908559 0)
(0.3435 -0.00813719 0)
(0.34685 -0.00728078 0)
(0.347218 -0.00650781 0)
(0.344844 -0.00581164 0)
(0.339883 -0.00518292 0)
(0.332438 -0.00461538 0)
(0.322556 -0.00410143 0)
(0.310243 -0.00363566 0)
(0.295476 -0.00321179 0)
(0.278216 -0.00282469 0)
(0.258403 -0.00246797 0)
(0.235969 -0.00213536 0)
(0.210843 -0.00182091 0)
(0.182951 -0.00151894 0)
(0.152218 -0.00122386 0)
(0.118571 -0.00093007 0)
(0.0819424 -0.000631769 0)
(0.0422113 -0.0003223 0)
(0 0 0)
(0.0686248 -0.0220039 0)
(0.0837611 -0.021633 0)
(0.109124 -0.0222967 0)
(0.142615 -0.0221743 0)
(0.181033 -0.0214265 0)
(0.21957 -0.0202353 0)
(0.254192 -0.0187725 0)
(0.282962 -0.017199 0)
(0.305737 -0.0156332 0)
(0.323109 -0.0141363 0)
(0.335773 -0.0127354 0)
(0.344443 -0.0114512 0)
(0.349683 -0.0102861 0)
(0.351883 -0.0092295 0)
(0.351337 -0.00827206 0)
(0.348233 -0.00740487 0)
(0.342692 -0.00661893 0)
(0.334782 -0.00590689 0)
(0.324525 -0.00526174 0)
(0.311904 -0.00467575 0)
(0.296881 -0.00414085 0)
(0.279405 -0.00364969 0)
(0.259409 -0.00319479 0)
(0.236819 -0.00276872 0)
(0.211558 -0.00236433 0)
(0.183545 -0.00197462 0)
(0.152701 -0.00159263 0)
(0.118945 -0.00121132 0)
(0.0822054 -0.000823335 0)
(0.0423508 -0.000420204 0)
(0 0 0)
(0.100205 -0.0252916 0)
(0.115186 -0.0250236 0)
(0.142355 -0.025645 0)
(0.176079 -0.025487 0)
(0.212745 -0.0246435 0)
(0.247939 -0.023306 0)
(0.278445 -0.0216692 0)
(0.303141 -0.0199086 0)
(0.322299 -0.018153 0)
(0.336591 -0.0164712 0)
(0.346728 -0.0148948 0)
(0.353362 -0.0134421 0)
(0.356944 -0.0121129 0)
(0.357814 -0.0109015 0)
(0.356204 -0.00979885 0)
(0.352252 -0.00879581 0)
(0.346034 -0.00788433 0)
(0.337577 -0.00705568 0)
(0.326872 -0.0063023 0)
(0.313882 -0.00561501 0)
(0.298553 -0.00498486 0)
(0.280818 -0.00440336 0)
(0.260603 -0.00386209 0)
(0.237826 -0.0033528 0)
(0.212401 -0.00286737 0)
(0.184244 -0.00239779 0)
(0.153265 -0.00193599 0)
(0.119381 -0.00147372 0)
(0.0825088 -0.00100234 0)
(0.0425104 -0.000511771 0)
(0 0 0)
(0.135489 -0.0278967 0)
(0.150555 -0.0277555 0)
(0.179292 -0.0282969 0)
(0.212914 -0.0280702 0)
(0.24733 -0.0271223 0)
(0.278625 -0.0256539 0)
(0.304572 -0.0238822 0)
(0.324891 -0.0219927 0)
(0.340192 -0.0201131 0)
(0.351205 -0.0183108 0)
(0.358659 -0.0166204 0)
(0.363106 -0.0150554 0)
(0.364914 -0.0136147 0)
(0.364358 -0.0122937 0)
(0.361602 -0.0110853 0)
(0.356731 -0.00998221 0)
(0.349772 -0.00897599 0)
(0.34071 -0.00805757 0)
(0.329506 -0.00721818 0)
(0.316102 -0.0064485 0)
(0.300427 -0.00573925 0)
(0.282402 -0.00508135 0)
(0.261939 -0.00446585 0)
(0.23895 -0.0038839 0)
(0.21334 -0.00332675 0)
(0.185018 -0.00278562 0)
(0.153888 -0.0022516 0)
(0.119858 -0.00171547 0)
(0.0828395 -0.00116751 0)
(0.0426832 -0.000596341 0)
(0 0 0)
(0.173748 -0.0300617 0)
(0.18906 -0.0299505 0)
(0.219024 -0.0303757 0)
(0.25199 -0.0300293 0)
(0.283472 -0.0289445 0)
(0.310307 -0.0273451 0)
(0.331395 -0.0254666 0)
(0.347196 -0.0234934 0)
(0.358552 -0.021545 0)
(0.36626 -0.0196817 0)
(0.371004 -0.0179312 0)
(0.373227 -0.0163035 0)
(0.373243 -0.0147988 0)
(0.371246 -0.0134119 0)
(0.367326 -0.0121367 0)
(0.361509 -0.0109672 0)
(0.353774 -0.00989498 0)
(0.344072 -0.00891133 0)
(0.332337 -0.00800732 0)
(0.318489 -0.00717376 0)
(0.302441 -0.00640139 0)
(0.284101 -0.00568098 0)
(0.263371 -0.00500339 0)
(0.240151 -0.0043595 0)
(0.214341 -0.00374014 0)
(0.18584 -0.00313604 0)
(0.154547 -0.0025377 0)
(0.12036 -0.00193515 0)
(0.0831851 -0.00131788 0)
(0.0428628 -0.000673401 0)
(0 0 0)
(0.214525 -0.0317934 0)
(0.230041 -0.0316955 0)
(0.260719 -0.0319583 0)
(0.292212 -0.0314296 0)
(0.319932 -0.0301683 0)
(0.341789 -0.0284343 0)
(0.357861 -0.0264746 0)
(0.369144 -0.0244591 0)
(0.376624 -0.0224898 0)
(0.38113 -0.0206153 0)
(0.383248 -0.0188537 0)
(0.383338 -0.0172097 0)
(0.381636 -0.0156826 0)
(0.378245 -0.0142682 0)
(0.373184 -0.0129614 0)
(0.366425 -0.0117559 0)
(0.357909 -0.0106443 0)
(0.347555 -0.00961862 0)
(0.335274 -0.00867025 0)
(0.320968 -0.00779049 0)
(0.304532 -0.00697043 0)
(0.285863 -0.00620106 0)
(0.264852 -0.00547334 0)
(0.241391 -0.0047781 0)
(0.215371 -0.00410606 0)
(0.186683 -0.00344768 0)
(0.155219 -0.00279308 0)
(0.12087 -0.0021318 0)
(0.0835342 -0.00145273 0)
(0.0430432 -0.000742584 0)
(0 0 0)
(0.25724 -0.0331933 0)
(0.272923 -0.0330403 0)
(0.303565 -0.0330815 0)
(0.33248 -0.0323034 0)
(0.355515 -0.0308294 0)