# vtk DataFile Version 2.0

ASCII

DATASET UNSTRUCTURED_GRID

POINTS 58 float 

5.0000000000000003e-02  0.0000000000000000e+00  1.0000000000000000e+00
-5.0000000000000003e-02  0.0000000000000000e+00  1.0000000000000000e+00
-5.0000000000000003e-02  2.9999999999999999e-01  1.0000000000000000e+00
5.0000000000000003e-02  2.9999999999999999e-01  1.0000000000000000e+00
5.0000000000000003e-02  0.0000000000000000e+00  8.0000000000000004e-01
-5.0000000000000003e-02  0.0000000000000000e+00  8.0000000000000004e-01
-5.0000000000000003e-02  2.9999999999999999e-01  8.0000000000000004e-01
5.0000000000000003e-02  2.9999999999999999e-01  8.0000000000000004e-01
0.0000000000000000e+00  0.0000000000000000e+00  1.0000000000000000e+00
-5.0000000000000003e-02  1.4999999999999999e-01  1.0000000000000000e+00
0.0000000000000000e+00  2.9999999999999999e-01  1.0000000000000000e+00
5.0000000000000003e-02  1.4999999999999999e-01  1.0000000000000000e+00
5.0000000000000003e-02  0.0000000000000000e+00  9.0000000000000002e-01
-5.0000000000000003e-02  0.0000000000000000e+00  9.0000000000000002e-01
-5.0000000000000003e-02  2.9999999999999999e-01  9.0000000000000002e-01
5.0000000000000003e-02  2.9999999999999999e-01  9.0000000000000002e-01
-5.0000000000000003e-02  1.4999999999999999e-01  8.0000000000000004e-01
5.0000000000000003e-02  1.4999999999999999e-01  8.0000000000000004e-01
5.0000000000000003e-02  0.0000000000000000e+00  5.9999999999999998e-01
-5.0000000000000003e-02  0.0000000000000000e+00  5.9999999999999998e-01
-5.0000000000000003e-02  2.9999999999999999e-01  5.9999999999999998e-01
5.0000000000000003e-02  2.9999999999999999e-01  5.9999999999999998e-01
5.0000000000000003e-02  0.0000000000000000e+00  6.9999999999999996e-01
-5.0000000000000003e-02  0.0000000000000000e+00  6.9999999999999996e-01
-5.0000000000000003e-02  2.9999999999999999e-01  6.9999999999999996e-01
5.0000000000000003e-02  2.9999999999999999e-01  6.9999999999999996e-01
-5.0000000000000003e-02  1.4999999999999999e-01  5.9999999999999998e-01
5.0000000000000003e-02  1.4999999999999999e-01  5.9999999999999998e-01
5.0000000000000003e-02  0.0000000000000000e+00  4.0000000000000002e-01
-5.0000000000000003e-02  0.0000000000000000e+00  4.0000000000000002e-01
-5.0000000000000003e-02  2.9999999999999999e-01  4.0000000000000002e-01
5.0000000000000003e-02  2.9999999999999999e-01  4.0000000000000002e-01
5.0000000000000003e-02  0.0000000000000000e+00  5.0000000000000000e-01
-5.0000000000000003e-02  0.0000000000000000e+00  5.0000000000000000e-01
-5.0000000000000003e-02  2.9999999999999999e-01  5.0000000000000000e-01
5.0000000000000003e-02  2.9999999999999999e-01  5.0000000000000000e-01
-5.0000000000000003e-02  1.4999999999999999e-01  4.0000000000000002e-01
5.0000000000000003e-02  1.4999999999999999e-01  4.0000000000000002e-01
5.0000000000000003e-02  0.0000000000000000e+00  2.0000000000000001e-01
-5.0000000000000003e-02  0.0000000000000000e+00  2.0000000000000001e-01
-5.0000000000000003e-02  2.9999999999999999e-01  2.0000000000000001e-01
5.0000000000000003e-02  2.9999999999999999e-01  2.0000000000000001e-01
5.0000000000000003e-02  0.0000000000000000e+00  2.9999999999999999e-01
-5.0000000000000003e-02  0.0000000000000000e+00  2.9999999999999999e-01
-5.0000000000000003e-02  2.9999999999999999e-01  2.9999999999999999e-01
5.0000000000000003e-02  2.9999999999999999e-01  2.9999999999999999e-01
-5.0000000000000003e-02  1.4999999999999999e-01  2.0000000000000001e-01
5.0000000000000003e-02  1.4999999999999999e-01  2.0000000000000001e-01
5.0000000000000003e-02  0.0000000000000000e+00  0.0000000000000000e+00
-5.0000000000000003e-02  0.0000000000000000e+00  0.0000000000000000e+00
-5.0000000000000003e-02  2.9999999999999999e-01  0.0000000000000000e+00
5.0000000000000003e-02  2.9999999999999999e-01  0.0000000000000000e+00
5.0000000000000003e-02  0.0000000000000000e+00  1.0000000000000001e-01
-5.0000000000000003e-02  0.0000000000000000e+00  1.0000000000000001e-01
-5.0000000000000003e-02  2.9999999999999999e-01  1.0000000000000001e-01
5.0000000000000003e-02  2.9999999999999999e-01  1.0000000000000001e-01
-5.0000000000000003e-02  1.4999999999999999e-01  0.0000000000000000e+00
5.0000000000000003e-02  1.4999999999999999e-01  0.0000000000000000e+00

CELLS 0 0


CELL_TYPES 0


POINT_DATA 58

VECTORS VertexNormals float

0.0000000000000000e+00 0.0000000000000000e+00 0.0000000000000000e+00 
0.0000000000000000e+00 0.0000000000000000e+00 0.0000000000000000e+00 
0.0000000000000000e+00 0.0000000000000000e+00 0.0000000000000000e+00 
0.0000000000000000e+00 0.0000000000000000e+00 0.0000000000000000e+00 
0.0000000000000000e+00 0.0000000000000000e+00 0.0000000000000000e+00 
0.0000000000000000e+00 0.0000000000000000e+00 0.0000000000000000e+00 
0.0000000000000000e+00 0.0000000000000000e+00 0.0000000000000000e+00 
0.0000000000000000e+00 0.0000000000000000e+00 0.0000000000000000e+00 
0.0000000000000000e+00 0.0000000000000000e+00 0.0000000000000000e+00 
0.0000000000000000e+00 0.0000000000000000e+00 0.0000000000000000e+00 
0.0000000000000000e+00 0.0000000000000000e+00 0.0000000000000000e+00 
0.0000000000000000e+00 0.0000000000000000e+00 0.0000000000000000e+00 
0.0000000000000000e+00 0.0000000000000000e+00 0.0000000000000000e+00 
0.0000000000000000e+00 0.0000000000000000e+00 0.0000000000000000e+00 
0.0000000000000000e+00 0.0000000000000000e+00 0.0000000000000000e+00 
0.0000000000000000e+00 0.0000000000000000e+00 0.0000000000000000e+00 
0.0000000000000000e+00 0.0000000000000000e+00 0.0000000000000000e+00 
0.0000000000000000e+00 0.0000000000000000e+00 0.0000000000000000e+00 
0.0000000000000000e+00 0.0000000000000000e+00 0.0000000000000000e+00 
0.0000000000000000e+00 0.0000000000000000e+00 0.0000000000000000e+00 
0.0000000000000000e+00 0.0000000000000000e+00 0.0000000000000000e+00 
0.0000000000000000e+00 0.0000000000000000e+00 0.0000000000000000e+00 
0.0000000000000000e+00 0.0000000000000000e+00 0.0000000000000000e+00 
0.0000000000000000e+00 0.0000000000000000e+00 0.0000000000000000e+00 
0.0000000000000000e+00 0.0000000000000000e+00 0.0000000000000000e+00 
0.0000000000000000e+00 0.0000000000000000e+00 0.0000000000000000e+00 
0.0000000000000000e+00 0.0000000000000000e+00 0.0000000000000000e+00 
0.0000000000000000e+00 0.0000000000000000e+00 0.0000000000000000e+00 
0.0000000000000000e+00 0.0000000000000000e+00 0.0000000000000000e+00 
0.0000000000000000e+00 0.0000000000000000e+00 0.0000000000000000e+00 
0.0000000000000000e+00 0.0000000000000000e+00 0.0000000000000000e+00 
0.0000000000000000e+00 0.0000000000000000e+00 0.0000000000000000e+00 
0.0000000000000000e+00 0.0000000000000000e+00 0.0000000000000000e+00 
0.0000000000000000e+00 0.0000000000000000e+00 0.0000000000000000e+00 
0.0000000000000000e+00 0.0000000000000000e+00 0.0000000000000000e+00 
0.0000000000000000e+00 0.0000000000000000e+00 0.0000000000000000e+00 
0.0000000000000000e+00 0.0000000000000000e+00 0.0000000000000000e+00 
0.0000000000000000e+00 0.0000000000000000e+00 0.0000000000000000e+00 
0.0000000000000000e+00 0.0000000000000000e+00 0.0000000000000000e+00 
0.0000000000000000e+00 0.0000000000000000e+00 0.0000000000000000e+00 
0.0000000000000000e+00 0.0000000000000000e+00 0.0000000000000000e+00 
0.0000000000000000e+00 0.0000000000000000e+00 0.0000000000000000e+00 
0.0000000000000000e+00 0.0000000000000000e+00 0.0000000000000000e+00 
0.0000000000000000e+00 0.0000000000000000e+00 0.0000000000000000e+00 
0.0000000000000000e+00 0.0000000000000000e+00 0.0000000000000000e+00 
0.0000000000000000e+00 0.0000000000000000e+00 0.0000000000000000e+00 
0.0000000000000000e+00 0.0000000000000000e+00 0.0000000000000000e+00 
0.0000000000000000e+00 0.0000000000000000e+00 0.0000000000000000e+00 
0.0000000000000000e+00 0.0000000000000000e+00 0.0000000000000000e+00 
0.0000000000000000e+00 0.0000000000000000e+00 0.0000000000000000e+00 
0.0000000000000000e+00 0.0000000000000000e+00 0.0000000000000000e+00 
0.0000000000000000e+00 0.0000000000000000e+00 0.0000000000000000e+00 
0.0000000000000000e+00 0.0000000000000000e+00 0.0000000000000000e+00 
0.0000000000000000e+00 0.0000000000000000e+00 0.0000000000000000e+00 
0.0000000000000000e+00 0.0000000000000000e+00 0.0000000000000000e+00 
0.0000000000000000e+00 0.0000000000000000e+00 0.0000000000000000e+00 
0.0000000000000000e+00 0.0000000000000000e+00 0.0000000000000000e+00 
0.0000000000000000e+00 0.0000000000000000e+00 0.0000000000000000e+00 

VECTORS DisplacementDeltas0 float
0.0000000000000000e+00 0.0000000000000000e+00 0.0000000000000000e+00 
-2.0915584154355238e-02 0.0000000000000000e+00 -7.3462074539039635e-02 
-2.4767400159500491e-02 0.0000000000000000e+00 -7.2666450336586030e-02 
-2.5122547823282201e-02 0.0000000000000000e+00 -7.1756454627372013e-02 
-1.8996030683752926e-02 0.0000000000000000e+00 -7.2853948887160513e-02 
-2.1704142630511847e-02 0.0000000000000000e+00 -7.5935212756040371e-02 
-2.2312331715863776e-02 0.0000000000000000e+00 -7.5720233004477444e-02 
-1.9506551300937897e-02 0.0000000000000000e+00 -7.2049800276929366e-02 
-2.1870721958487160e-02 0.0000000000000000e+00 -7.3845069549836051e-02 
-2.4431003809787799e-02 0.0000000000000000e+00 -7.3942582650868172e-02 
-2.4880301201454957e-02 0.0000000000000000e+00 -7.2246877255750297e-02 
-2.3899063656697167e-02 0.0000000000000000e+00 -7.2545736225650415e-02 
-2.1745408925169615e-02 0.0000000000000000e+00 -7.3674049941119812e-02 
-2.2504673836701822e-02 0.0000000000000000e+00 -7.4363556666948383e-02 
-2.3989151712744072e-02 0.0000000000000000e+00 -7.3674475867824718e-02 
-2.2983133566875702e-02 0.0000000000000000e+00 -7.2057748502343477e-02 
-2.0947722924714668e-02 0.0000000000000000e+00 -7.6134347064156060e-02 
-1.9323623773441545e-02 0.0000000000000000e+00 -7.3113684145192315e-02 
-2.5834845654156835e-03 0.0000000000000000e+00 -7.3605907152414191e-02 
-3.5360615605855017e-03 0.0000000000000000e+00 -8.3005455942899958e-02 
-3.0305272159131535e-03 0.0000000000000000e+00 -8.3611881534528060e-02 
-2.6885610730180143e-03 0.0000000000000000e+00 -7.3848615154386038e-02 
-1.2985672170348239e-02 0.0000000000000000e+00 -7.2901660575022398e-02 
-1.5761003327113943e-02 0.0000000000000000e+00 -7.9109535088143890e-02 
-1.5763962040093116e-02 0.0000000000000000e+00 -7.9669391779804200e-02 
-1.2643700273657493e-02 0.0000000000000000e+00 -7.2747865285486935e-02 
-4.2296156670623419e-03 0.0000000000000000e+00 -8.3263013470958852e-02 
-1.6759248517819736e-04 0.0000000000000000e+00 -7.3155923869550943e-02 
3.6759055618360806e-02 0.0000000000000000e+00 -5.3870336418413128e-02 
3.2732355291591214e-02 0.0000000000000000e+00 -7.4203797605866900e-02 
3.2882434483415102e-02 0.0000000000000000e+00 -7.4302246570153788e-02 
3.6762190225073654e-02 0.0000000000000000e+00 -5.3998650695201114e-02 
1.6440406809226316e-02 0.0000000000000000e+00 -6.7541873994062501e-02 
1.4003178932227661e-02 0.0000000000000000e+00 -8.3597107789337377e-02 
1.4308973835308436e-02 0.0000000000000000e+00 -8.3927127998289025e-02 
1.6688627667790890e-02 0.0000000000000000e+00 -6.7874611581381639e-02 
3.1384698798007482e-02 0.0000000000000000e+00 -7.5508650666213303e-02 
2.5658886720998461e-02 0.0000000000000000e+00 -6.0426944905997509e-02 
1.3962022726909107e-02 0.0000000000000000e+00 -1.0459094966471159e-02 
3.3896448869164986e-02 0.0000000000000000e+00 -2.1488913333814297e-02 
3.3958062830356579e-02 0.0000000000000000e+00 -2.1417332312387821e-02 
1.4002106453488844e-02 0.0000000000000000e+00 -1.0472073250586805e-02 
2.6661869260711277e-02 0.0000000000000000e+00 -3.7551457313098897e-02 
4.1524373142757587e-02 0.0000000000000000e+00 -5.0878744892343265e-02 
4.1660178490630861e-02 0.0000000000000000e+00 -5.0878003425147464e-02 
2.6710466416845061e-02 0.0000000000000000e+00 -3.7546114989977869e-02 
3.5607969214077322e-02 0.0000000000000000e+00 -2.3459576745750332e-02 
1.8175274663888068e-02 0.0000000000000000e+00 -2.1875090174694863e-02 
0.0000000000000000e+00 0.0000000000000000e+00 0.0000000000000000e+00 
0.0000000000000000e+00 0.0000000000000000e+00 0.0000000000000000e+00 
0.0000000000000000e+00 0.0000000000000000e+00 0.0000000000000000e+00 
0.0000000000000000e+00 0.0000000000000000e+00 0.0000000000000000e+00 
6.3308002886492045e-03 0.0000000000000000e+00 -6.2758688113521699e-03 
1.8233298351406701e-02 0.0000000000000000e+00 -3.0933350595322862e-03 
1.8318066343687132e-02 0.0000000000000000e+00 -3.0593321268558241e-03 
6.4134313856832968e-03 0.0000000000000000e+00 -6.2383820123097494e-03 
0.0000000000000000e+00 0.0000000000000000e+00 0.0000000000000000e+00 
0.0000000000000000e+00 0.0000000000000000e+00 0.0000000000000000e+00 

VECTORS Forces0 float
6.6424366441123750e+00 -1.5492346371425194e+00 1.1900222228472708e-01 
5.2195367841250089e+01 6.6612363751782651e+00 1.4098032024519830e+01 
1.7442279098368736e+01 8.7673444093550508e+00 1.5432934583232335e+01 
1.0802059944478899e+01 -3.3827956651772069e+00 -1.1559873152566458e-02 
-3.4501244097072927e+00 -5.7740808686190381e-01 -1.1152969664723478e+00 
-2.6583724755375663e+01 -9.4287049873526416e-02 1.1397694504347598e+01 
-2.6888304669676867e+01 -1.0342835790464555e-01 1.1955721759533290e+01 
-8.5190724463463274e-01 6.6170840889894906e+00 1.0561836159223517e+01 
0.0000000000000000e+00 0.0000000000000000e+00 0.0000000000000000e+00 
0.0000000000000000e+00 0.0000000000000000e+00 0.0000000000000000e+00 
0.0000000000000000e+00 0.0000000000000000e+00 0.0000000000000000e+00 
0.0000000000000000e+00 0.0000000000000000e+00 0.0000000000000000e+00 
0.0000000000000000e+00 0.0000000000000000e+00 0.0000000000000000e+00 
0.0000000000000000e+00 0.0000000000000000e+00 0.0000000000000000e+00 
0.0000000000000000e+00 0.0000000000000000e+00 0.0000000000000000e+00 
0.0000000000000000e+00 0.0000000000000000e+00 0.0000000000000000e+00 
0.0000000000000000e+00 0.0000000000000000e+00 0.0000000000000000e+00 
0.0000000000000000e+00 0.0000000000000000e+00 0.0000000000000000e+00 
-1.3007002378861042e+01 7.5218383886213436e-02 -5.1680657964025345e+00 
-2.9077201576489099e+01 1.7525077726191282e-01 4.2722911567030399e+00 
-2.5948693737491912e+01 1.5604118018239393e-01 3.7859621272033057e+00 
-1.1548296160127046e+01 7.1853391324555191e-02 -5.8517562485025376e+00 
0.0000000000000000e+00 0.0000000000000000e+00 0.0000000000000000e+00 
0.0000000000000000e+00 0.0000000000000000e+00 0.0000000000000000e+00 
0.0000000000000000e+00 0.0000000000000000e+00 0.0000000000000000e+00 
0.0000000000000000e+00 0.0000000000000000e+00 0.0000000000000000e+00 
0.0000000000000000e+00 0.0000000000000000e+00 0.0000000000000000e+00 
0.0000000000000000e+00 0.0000000000000000e+00 0.0000000000000000e+00 
1.3313939466328611e+02 -2.8092830599468027e-01 1.0155130119682330e+02 
6.0491355217487470e+00 -2.1484009562786240e-02 4.5654140900568079e+00 
6.7409383893728041e+00 -2.4174627038938468e-02 5.2034104979714266e+00 
1.3129436775041580e+02 -2.7796098689702248e-01 1.0085519385503218e+02 
0.0000000000000000e+00 0.0000000000000000e+00 0.0000000000000000e+00 
0.0000000000000000e+00 0.0000000000000000e+00 0.0000000000000000e+00 
0.0000000000000000e+00 0.0000000000000000e+00 0.0000000000000000e+00 
0.0000000000000000e+00 0.0000000000000000e+00 0.0000000000000000e+00 
0.0000000000000000e+00 0.0000000000000000e+00 0.0000000000000000e+00 
0.0000000000000000e+00 0.0000000000000000e+00 0.0000000000000000e+00 
-3.5049259868578453e+01 -8.3964751549913064e-02 1.7216596572251186e+02 
-1.3019364716099779e+00 -3.0610148975352331e-03 5.0939479644227861e+00 
-1.2132905489485324e+00 -2.7921468066635148e-03 4.6504780390824552e+00 
-3.5022161667200379e+01 -8.3987869029174295e-02 1.7231400992601644e+02 
0.0000000000000000e+00 0.0000000000000000e+00 0.0000000000000000e+00 
0.0000000000000000e+00 0.0000000000000000e+00 0.0000000000000000e+00 
0.0000000000000000e+00 0.0000000000000000e+00 0.0000000000000000e+00 
0.0000000000000000e+00 0.0000000000000000e+00 0.0000000000000000e+00 
0.0000000000000000e+00 0.0000000000000000e+00 0.0000000000000000e+00 
0.0000000000000000e+00 0.0000000000000000e+00 0.0000000000000000e+00 
-6.5267934509816314e+01 -8.8382478335683520e-03 7.7839295418566508e+01 
3.2755219343999391e+00 4.2131685338474951e-04 -4.3407665461651472e+00 
3.2641938462954796e+00 4.1979988318139986e-04 -4.3259519109079818e+00 
-6.3992708470054744e+01 -8.6447545024928556e-03 7.6488393990317576e+01 
0.0000000000000000e+00 0.0000000000000000e+00 0.0000000000000000e+00 
0.0000000000000000e+00 0.0000000000000000e+00 0.0000000000000000e+00 
0.0000000000000000e+00 0.0000000000000000e+00 0.0000000000000000e+00 
0.0000000000000000e+00 0.0000000000000000e+00 0.0000000000000000e+00 
0.0000000000000000e+00 0.0000000000000000e+00 0.0000000000000000e+00 
0.0000000000000000e+00 0.0000000000000000e+00 0.0000000000000000e+00 

