# vtk DataFile Version 2.0

ASCII

DATASET UNSTRUCTURED_GRID

POINTS 58 float 

5.0000000000000003e-02  0.0000000000000000e+00  1.0000000000000000e+00
-5.0000000000000003e-02  0.0000000000000000e+00  1.0000000000000000e+00
-5.0000000000000003e-02  2.9999999999999999e-01  1.0000000000000000e+00
5.0000000000000003e-02  2.9999999999999999e-01  1.0000000000000000e+00
5.0000000000000003e-02  0.0000000000000000e+00  8.0000000000000004e-01
-5.0000000000000003e-02  0.0000000000000000e+00  8.0000000000000004e-01
-5.0000000000000003e-02  2.9999999999999999e-01  8.0000000000000004e-01
5.0000000000000003e-02  2.9999999999999999e-01  8.0000000000000004e-01
0.0000000000000000e+00  0.0000000000000000e+00  1.0000000000000000e+00
-5.0000000000000003e-02  1.4999999999999999e-01  1.0000000000000000e+00
0.0000000000000000e+00  2.9999999999999999e-01  1.0000000000000000e+00
5.0000000000000003e-02  1.4999999999999999e-01  1.0000000000000000e+00
5.0000000000000003e-02  0.0000000000000000e+00  9.0000000000000002e-01
-5.0000000000000003e-02  0.0000000000000000e+00  9.0000000000000002e-01
-5.0000000000000003e-02  2.9999999999999999e-01  9.0000000000000002e-01
5.0000000000000003e-02  2.9999999999999999e-01  9.0000000000000002e-01
-5.0000000000000003e-02  1.4999999999999999e-01  8.0000000000000004e-01
5.0000000000000003e-02  1.4999999999999999e-01  8.0000000000000004e-01
5.0000000000000003e-02  0.0000000000000000e+00  5.9999999999999998e-01
-5.0000000000000003e-02  0.0000000000000000e+00  5.9999999999999998e-01
-5.0000000000000003e-02  2.9999999999999999e-01  5.9999999999999998e-01
5.0000000000000003e-02  2.9999999999999999e-01  5.9999999999999998e-01
5.0000000000000003e-02  0.0000000000000000e+00  6.9999999999999996e-01
-5.0000000000000003e-02  0.0000000000000000e+00  6.9999999999999996e-01
-5.0000000000000003e-02  2.9999999999999999e-01  6.9999999999999996e-01
5.0000000000000003e-02  2.9999999999999999e-01  6.9999999999999996e-01
-5.0000000000000003e-02  1.4999999999999999e-01  5.9999999999999998e-01
5.0000000000000003e-02  1.4999999999999999e-01  5.9999999999999998e-01
5.0000000000000003e-02  0.0000000000000000e+00  4.0000000000000002e-01
-5.0000000000000003e-02  0.0000000000000000e+00  4.0000000000000002e-01
-5.0000000000000003e-02  2.9999999999999999e-01  4.0000000000000002e-01
5.0000000000000003e-02  2.9999999999999999e-01  4.0000000000000002e-01
5.0000000000000003e-02  0.0000000000000000e+00  5.0000000000000000e-01
-5.0000000000000003e-02  0.0000000000000000e+00  5.0000000000000000e-01
-5.0000000000000003e-02  2.9999999999999999e-01  5.0000000000000000e-01
5.0000000000000003e-02  2.9999999999999999e-01  5.0000000000000000e-01
-5.0000000000000003e-02  1.4999999999999999e-01  4.0000000000000002e-01
5.0000000000000003e-02  1.4999999999999999e-01  4.0000000000000002e-01
5.0000000000000003e-02  0.0000000000000000e+00  2.0000000000000001e-01
-5.0000000000000003e-02  0.0000000000000000e+00  2.0000000000000001e-01
-5.0000000000000003e-02  2.9999999999999999e-01  2.0000000000000001e-01
5.0000000000000003e-02  2.9999999999999999e-01  2.0000000000000001e-01
5.0000000000000003e-02  0.0000000000000000e+00  2.9999999999999999e-01
-5.0000000000000003e-02  0.0000000000000000e+00  2.9999999999999999e-01
-5.0000000000000003e-02  2.9999999999999999e-01  2.9999999999999999e-01
5.0000000000000003e-02  2.9999999999999999e-01  2.9999999999999999e-01
-5.0000000000000003e-02  1.4999999999999999e-01  2.0000000000000001e-01
5.0000000000000003e-02  1.4999999999999999e-01  2.0000000000000001e-01
5.0000000000000003e-02  0.0000000000000000e+00  0.0000000000000000e+00
-5.0000000000000003e-02  0.0000000000000000e+00  0.0000000000000000e+00
-5.0000000000000003e-02  2.9999999999999999e-01  0.0000000000000000e+00
5.0000000000000003e-02  2.9999999999999999e-01  0.0000000000000000e+00
5.0000000000000003e-02  0.0000000000000000e+00  1.0000000000000001e-01
-5.0000000000000003e-02  0.0000000000000000e+00  1.0000000000000001e-01
-5.0000000000000003e-02  2.9999999999999999e-01  1.0000000000000001e-01
5.0000000000000003e-02  2.9999999999999999e-01  1.0000000000000001e-01
-5.0000000000000003e-02  1.4999999999999999e-01  0.0000000000000000e+00
5.0000000000000003e-02  1.4999999999999999e-01  0.0000000000000000e+00

CELLS 0 0


CELL_TYPES 0


POINT_DATA 58

VECTORS VertexNormals float

0.0000000000000000e+00 0.0000000000000000e+00 0.0000000000000000e+00 
0.0000000000000000e+00 0.0000000000000000e+00 0.0000000000000000e+00 
0.0000000000000000e+00 0.0000000000000000e+00 0.0000000000000000e+00 
0.0000000000000000e+00 0.0000000000000000e+00 0.0000000000000000e+00 
0.0000000000000000e+00 0.0000000000000000e+00 0.0000000000000000e+00 
0.0000000000000000e+00 0.0000000000000000e+00 0.0000000000000000e+00 
0.0000000000000000e+00 0.0000000000000000e+00 0.0000000000000000e+00 
0.0000000000000000e+00 0.0000000000000000e+00 0.0000000000000000e+00 
0.0000000000000000e+00 0.0000000000000000e+00 0.0000000000000000e+00 
0.0000000000000000e+00 0.0000000000000000e+00 0.0000000000000000e+00 
0.0000000000000000e+00 0.0000000000000000e+00 0.0000000000000000e+00 
0.0000000000000000e+00 0.0000000000000000e+00 0.0000000000000000e+00 
0.0000000000000000e+00 0.0000000000000000e+00 0.0000000000000000e+00 
0.0000000000000000e+00 0.0000000000000000e+00 0.0000000000000000e+00 
0.0000000000000000e+00 0.0000000000000000e+00 0.0000000000000000e+00 
0.0000000000000000e+00 0.0000000000000000e+00 0.0000000000000000e+00 
0.0000000000000000e+00 0.0000000000000000e+00 0.0000000000000000e+00 
0.0000000000000000e+00 0.0000000000000000e+00 0.0000000000000000e+00 
0.0000000000000000e+00 0.0000000000000000e+00 0.0000000000000000e+00 
0.0000000000000000e+00 0.0000000000000000e+00 0.0000000000000000e+00 
0.0000000000000000e+00 0.0000000000000000e+00 0.0000000000000000e+00 
0.0000000000000000e+00 0.0000000000000000e+00 0.0000000000000000e+00 
0.0000000000000000e+00 0.0000000000000000e+00 0.0000000000000000e+00 
0.0000000000000000e+00 0.0000000000000000e+00 0.0000000000000000e+00 
0.0000000000000000e+00 0.0000000000000000e+00 0.0000000000000000e+00 
0.0000000000000000e+00 0.0000000000000000e+00 0.0000000000000000e+00 
0.0000000000000000e+00 0.0000000000000000e+00 0.0000000000000000e+00 
0.0000000000000000e+00 0.0000000000000000e+00 0.0000000000000000e+00 
0.0000000000000000e+00 0.0000000000000000e+00 0.0000000000000000e+00 
0.0000000000000000e+00 0.0000000000000000e+00 0.0000000000000000e+00 
0.0000000000000000e+00 0.0000000000000000e+00 0.0000000000000000e+00 
0.0000000000000000e+00 0.0000000000000000e+00 0.0000000000000000e+00 
0.0000000000000000e+00 0.0000000000000000e+00 0.0000000000000000e+00 
0.0000000000000000e+00 0.0000000000000000e+00 0.0000000000000000e+00 
0.0000000000000000e+00 0.0000000000000000e+00 0.0000000000000000e+00 
0.0000000000000000e+00 0.0000000000000000e+00 0.0000000000000000e+00 
0.0000000000000000e+00 0.0000000000000000e+00 0.0000000000000000e+00 
0.0000000000000000e+00 0.0000000000000000e+00 0.0000000000000000e+00 
0.0000000000000000e+00 0.0000000000000000e+00 0.0000000000000000e+00 
0.0000000000000000e+00 0.0000000000000000e+00 0.0000000000000000e+00 
0.0000000000000000e+00 0.0000000000000000e+00 0.0000000000000000e+00 
0.0000000000000000e+00 0.0000000000000000e+00 0.0000000000000000e+00 
0.0000000000000000e+00 0.0000000000000000e+00 0.0000000000000000e+00 
0.0000000000000000e+00 0.0000000000000000e+00 0.0000000000000000e+00 
0.0000000000000000e+00 0.0000000000000000e+00 0.0000000000000000e+00 
0.0000000000000000e+00 0.0000000000000000e+00 0.0000000000000000e+00 
0.0000000000000000e+00 0.0000000000000000e+00 0.0000000000000000e+00 
0.0000000000000000e+00 0.0000000000000000e+00 0.0000000000000000e+00 
0.0000000000000000e+00 0.0000000000000000e+00 0.0000000000000000e+00 
0.0000000000000000e+00 0.0000000000000000e+00 0.0000000000000000e+00 
0.0000000000000000e+00 0.0000000000000000e+00 0.0000000000000000e+00 
0.0000000000000000e+00 0.0000000000000000e+00 0.0000000000000000e+00 
0.0000000000000000e+00 0.0000000000000000e+00 0.0000000000000000e+00 
0.0000000000000000e+00 0.0000000000000000e+00 0.0000000000000000e+00 
0.0000000000000000e+00 0.0000000000000000e+00 0.0000000000000000e+00 
0.0000000000000000e+00 0.0000000000000000e+00 0.0000000000000000e+00 
0.0000000000000000e+00 0.0000000000000000e+00 0.0000000000000000e+00 
0.0000000000000000e+00 0.0000000000000000e+00 0.0000000000000000e+00 

VECTORS DisplacementDeltas0 float
1.1778524996855318e-319 0.0000000000000000e+00 0.0000000000000000e+00 
3.7008420024314398e-02 0.0000000000000000e+00 -1.8317720638167893e-02 
3.6616665624831901e-02 0.0000000000000000e+00 -1.7882875859288428e-02 
2.8247391030513339e-02 0.0000000000000000e+00 -2.4914652322443675e-02 
1.3394344737363666e-02 0.0000000000000000e+00 -9.8703641468040684e-03 
2.0553383033208840e-02 0.0000000000000000e+00 -2.6148966552528453e-03 
1.9973542688056754e-02 0.0000000000000000e+00 -1.8734429000534401e-03 
1.3343983555137832e-02 0.0000000000000000e+00 -9.2189134119357533e-03 
3.2986035861440832e-02 0.0000000000000000e+00 -2.2075442962530244e-02 
3.7049650312415583e-02 0.0000000000000000e+00 -1.8423912852166123e-02 
3.2457192517764216e-02 0.0000000000000000e+00 -2.1533452495454533e-02 
2.9266199870883886e-02 0.0000000000000000e+00 -2.5880868591178295e-02 
2.1153301843058525e-02 0.0000000000000000e+00 -1.8051916033247663e-02 
2.9234942298506150e-02 0.0000000000000000e+00 -1.0784265108319592e-02 
2.8958450781839118e-02 0.0000000000000000e+00 -9.6032619627240620e-03 
2.0831813148068652e-02 0.0000000000000000e+00 -1.6865838796218714e-02 
2.0657284974614963e-02 0.0000000000000000e+00 -2.5314904827250066e-03 
1.3610356591077288e-02 0.0000000000000000e+00 -9.4717287550687597e-03 
2.0918411788320218e-03 0.0000000000000000e+00 -1.2425945832220588e-03 
3.8030243822870435e-03 0.0000000000000000e+00 3.4446788006076250e-03 
3.7183171344447145e-03 0.0000000000000000e+00 3.2618404448794044e-03 
2.2134982549670045e-03 0.0000000000000000e+00 -1.1493948891888061e-03 
7.1774120307763530e-03 0.0000000000000000e+00 -4.2573221987210527e-03 
1.1295549246144537e-02 0.0000000000000000e+00 2.5239597102768730e-03 
1.1006893547875509e-02 0.0000000000000000e+00 2.5775735305121894e-03 
7.1748925808542054e-03 0.0000000000000000e+00 -4.0003974787722199e-03 
3.7021875622586416e-03 0.0000000000000000e+00 3.5440112330499336e-03 
2.2009350098928532e-03 0.0000000000000000e+00 -9.4094328166614317e-04 
-1.2155083259975021e-03 0.0000000000000000e+00 6.9303748499397865e-04 
-1.0312499340842936e-03 0.0000000000000000e+00 9.2696894754972967e-04 
-9.6408157987011491e-04 0.0000000000000000e+00 9.6825149835311100e-04 
-1.1735143870539855e-03 0.0000000000000000e+00 5.2431290150385126e-04 
-3.0063943955944777e-04 0.0000000000000000e+00 7.3696191314118783e-05 
6.7105531829804617e-05 0.0000000000000000e+00 2.1145857313517409e-03 
4.5474569602393239e-05 0.0000000000000000e+00 2.1690387681925515e-03 
-3.5226964374718999e-04 0.0000000000000000e+00 7.4243856350437597e-05 
-7.9522274137560083e-04 0.0000000000000000e+00 1.1128241291567850e-03 
-1.1233606902244129e-03 0.0000000000000000e+00 5.4112017317495134e-04 
-6.7746272039142120e-04 0.0000000000000000e+00 5.8626543352266014e-04 
-5.8402968680556187e-04 0.0000000000000000e+00 2.7464306337117032e-04 
-6.7264462483893907e-04 0.0000000000000000e+00 1.9975348234967593e-04 
-7.8682934666908489e-04 0.0000000000000000e+00 6.7119800044701213e-04 
-9.8400794522251773e-04 0.0000000000000000e+00 7.0849872388209923e-04 
-9.4532966695596242e-04 0.0000000000000000e+00 4.1684708116113833e-04 
-9.3487337215005331e-04 0.0000000000000000e+00 3.9321924478721176e-04 
-9.3882063274268609e-04 0.0000000000000000e+00 7.0228184481196747e-04 
-4.8784133213154832e-04 0.0000000000000000e+00 -3.7327061122515662e-06 
-5.8698254916645103e-04 0.0000000000000000e+00 4.5649278732243790e-04 
0.0000000000000000e+00 0.0000000000000000e+00 0.0000000000000000e+00 
0.0000000000000000e+00 0.0000000000000000e+00 0.0000000000000000e+00 
0.0000000000000000e+00 0.0000000000000000e+00 0.0000000000000000e+00 
0.0000000000000000e+00 0.0000000000000000e+00 0.0000000000000000e+00 
-3.2361207353520118e-04 0.0000000000000000e+00 2.6696003006729116e-04 
-2.4657958558514236e-04 0.0000000000000000e+00 7.1030563281541882e-05 
-1.9579993727003239e-04 0.0000000000000000e+00 7.7040968656998967e-05 
-2.6865520103916949e-04 0.0000000000000000e+00 2.6470282117388032e-04 
0.0000000000000000e+00 0.0000000000000000e+00 0.0000000000000000e+00 
0.0000000000000000e+00 0.0000000000000000e+00 0.0000000000000000e+00 

VECTORS Forces0 float
4.3038483623062209e+00 -3.5987827438215265e+00 -2.1170446079851342e+00 
1.0758068273276313e+00 6.9411853140026222e-02 -2.1712183730284504e-01 
-1.3252658378938187e+00 -1.9582997023099233e-01 2.3870977167068612e+00 
-6.0470216517928921e-01 3.1429474839124316e-01 1.1309321273355705e-01 
-9.1459067276797212e-01 9.7966184365102682e-02 1.1545245047414740e-01 
-4.9248961838232344e+00 -1.0216036593703627e-01 4.0074661200247270e+00 
-2.8750246164743345e+00 -5.8380235660406531e-02 2.2718658198092143e+00 
-1.2255921202691271e+00 1.5272698343142119e-01 6.8846010972939231e-01 
0.0000000000000000e+00 0.0000000000000000e+00 0.0000000000000000e+00 
0.0000000000000000e+00 0.0000000000000000e+00 0.0000000000000000e+00 
0.0000000000000000e+00 0.0000000000000000e+00 0.0000000000000000e+00 
0.0000000000000000e+00 0.0000000000000000e+00 0.0000000000000000e+00 
0.0000000000000000e+00 0.0000000000000000e+00 0.0000000000000000e+00 
0.0000000000000000e+00 0.0000000000000000e+00 0.0000000000000000e+00 
0.0000000000000000e+00 0.0000000000000000e+00 0.0000000000000000e+00 
0.0000000000000000e+00 0.0000000000000000e+00 0.0000000000000000e+00 
0.0000000000000000e+00 0.0000000000000000e+00 0.0000000000000000e+00 
0.0000000000000000e+00 0.0000000000000000e+00 0.0000000000000000e+00 
1.5430706096019686e-01 3.1468329557600482e-04 -8.1151033672842071e-02 
4.2664353051208677e+00 1.0717233821455573e-02 -1.4568919965040736e+00 
3.9538766656126940e+00 9.9429773765415327e-03 -1.3184025825180359e+00 
8.9256331301555858e-01 1.4792191034439465e-03 -3.0584006787982415e-01 
0.0000000000000000e+00 0.0000000000000000e+00 0.0000000000000000e+00 
0.0000000000000000e+00 0.0000000000000000e+00 0.0000000000000000e+00 
0.0000000000000000e+00 0.0000000000000000e+00 0.0000000000000000e+00 
0.0000000000000000e+00 0.0000000000000000e+00 0.0000000000000000e+00 
0.0000000000000000e+00 0.0000000000000000e+00 0.0000000000000000e+00 
0.0000000000000000e+00 0.0000000000000000e+00 0.0000000000000000e+00 
9.4121881368719240e-01 -2.6051329600016712e-04 -3.6147787107589362e-02 
1.5375451578745778e+00 -5.3398179141265528e-05 -7.1393931489876702e-02 
1.4750674120355631e+00 -5.4170341896538707e-05 -6.9110198368692560e-02 
7.9566972928377988e-01 -2.3027081072377972e-04 -3.1561773180917657e-02 
0.0000000000000000e+00 0.0000000000000000e+00 0.0000000000000000e+00 
0.0000000000000000e+00 0.0000000000000000e+00 0.0000000000000000e+00 
0.0000000000000000e+00 0.0000000000000000e+00 0.0000000000000000e+00 
0.0000000000000000e+00 0.0000000000000000e+00 0.0000000000000000e+00 
0.0000000000000000e+00 0.0000000000000000e+00 0.0000000000000000e+00 
0.0000000000000000e+00 0.0000000000000000e+00 0.0000000000000000e+00 
2.3422501427594863e-01 2.9991221971136463e-05 1.6485176597093006e-04 
2.4771175252538109e+00 3.0293524748087867e-04 -9.7636316978795736e-03 
2.5124703591356541e+00 3.0236331251440530e-04 -1.0003538344362583e-02 
2.8627704009390775e-01 2.6782090275299892e-05 -6.7392856372698118e-05 
0.0000000000000000e+00 0.0000000000000000e+00 0.0000000000000000e+00 
0.0000000000000000e+00 0.0000000000000000e+00 0.0000000000000000e+00 
0.0000000000000000e+00 0.0000000000000000e+00 0.0000000000000000e+00 
0.0000000000000000e+00 0.0000000000000000e+00 0.0000000000000000e+00 
0.0000000000000000e+00 0.0000000000000000e+00 0.0000000000000000e+00 
0.0000000000000000e+00 0.0000000000000000e+00 0.0000000000000000e+00 
3.5163248586992235e-01 8.5915767322126797e-06 -4.7196727859411735e-03 
1.0138898408828756e+00 4.1584389135412743e-05 -1.6504194844503106e-02 
1.0052296149208861e+00 4.1674339237339725e-05 -1.6213856956607021e-02 
3.3385917655543823e-01 8.7686354142349950e-06 -4.3931863726502495e-03 
0.0000000000000000e+00 0.0000000000000000e+00 0.0000000000000000e+00 
0.0000000000000000e+00 0.0000000000000000e+00 0.0000000000000000e+00 
0.0000000000000000e+00 0.0000000000000000e+00 0.0000000000000000e+00 
0.0000000000000000e+00 0.0000000000000000e+00 0.0000000000000000e+00 
0.0000000000000000e+00 0.0000000000000000e+00 0.0000000000000000e+00 
0.0000000000000000e+00 0.0000000000000000e+00 0.0000000000000000e+00 

