# vtk DataFile Version 2.0

ASCII

DATASET UNSTRUCTURED_GRID

POINTS 58 double 

5.0000000000000003e-02  0.0000000000000000e+00  1.0000000000000000e+00
-5.0000000000000003e-02  0.0000000000000000e+00  1.0000000000000000e+00
-5.0000000000000003e-02  2.9999999999999999e-01  1.0000000000000000e+00
5.0000000000000003e-02  2.9999999999999999e-01  1.0000000000000000e+00
5.0000000000000003e-02  0.0000000000000000e+00  8.0000000000000004e-01
-5.0000000000000003e-02  0.0000000000000000e+00  8.0000000000000004e-01
-5.0000000000000003e-02  2.9999999999999999e-01  8.0000000000000004e-01
5.0000000000000003e-02  2.9999999999999999e-01  8.0000000000000004e-01
0.0000000000000000e+00  0.0000000000000000e+00  1.0000000000000000e+00
-5.0000000000000003e-02  1.4999999999999999e-01  1.0000000000000000e+00
0.0000000000000000e+00  2.9999999999999999e-01  1.0000000000000000e+00
5.0000000000000003e-02  1.4999999999999999e-01  1.0000000000000000e+00
5.0000000000000003e-02  0.0000000000000000e+00  9.0000000000000002e-01
-5.0000000000000003e-02  0.0000000000000000e+00  9.0000000000000002e-01
-5.0000000000000003e-02  2.9999999999999999e-01  9.0000000000000002e-01
5.0000000000000003e-02  2.9999999999999999e-01  9.0000000000000002e-01
-5.0000000000000003e-02  1.4999999999999999e-01  8.0000000000000004e-01
5.0000000000000003e-02  1.4999999999999999e-01  8.0000000000000004e-01
5.0000000000000003e-02  0.0000000000000000e+00  5.9999999999999998e-01
-5.0000000000000003e-02  0.0000000000000000e+00  5.9999999999999998e-01
-5.0000000000000003e-02  2.9999999999999999e-01  5.9999999999999998e-01
5.0000000000000003e-02  2.9999999999999999e-01  5.9999999999999998e-01
5.0000000000000003e-02  0.0000000000000000e+00  6.9999999999999996e-01
-5.0000000000000003e-02  0.0000000000000000e+00  6.9999999999999996e-01
-5.0000000000000003e-02  2.9999999999999999e-01  6.9999999999999996e-01
5.0000000000000003e-02  2.9999999999999999e-01  6.9999999999999996e-01
-5.0000000000000003e-02  1.4999999999999999e-01  5.9999999999999998e-01
5.0000000000000003e-02  1.4999999999999999e-01  5.9999999999999998e-01
5.0000000000000003e-02  0.0000000000000000e+00  4.0000000000000002e-01
-5.0000000000000003e-02  0.0000000000000000e+00  4.0000000000000002e-01
-5.0000000000000003e-02  2.9999999999999999e-01  4.0000000000000002e-01
5.0000000000000003e-02  2.9999999999999999e-01  4.0000000000000002e-01
5.0000000000000003e-02  0.0000000000000000e+00  5.0000000000000000e-01
-5.0000000000000003e-02  0.0000000000000000e+00  5.0000000000000000e-01
-5.0000000000000003e-02  2.9999999999999999e-01  5.0000000000000000e-01
5.0000000000000003e-02  2.9999999999999999e-01  5.0000000000000000e-01
-5.0000000000000003e-02  1.4999999999999999e-01  4.0000000000000002e-01
5.0000000000000003e-02  1.4999999999999999e-01  4.0000000000000002e-01
5.0000000000000003e-02  0.0000000000000000e+00  2.0000000000000001e-01
-5.0000000000000003e-02  0.0000000000000000e+00  2.0000000000000001e-01
-5.0000000000000003e-02  2.9999999999999999e-01  2.0000000000000001e-01
5.0000000000000003e-02  2.9999999999999999e-01  2.0000000000000001e-01
5.0000000000000003e-02  0.0000000000000000e+00  2.9999999999999999e-01
-5.0000000000000003e-02  0.0000000000000000e+00  2.9999999999999999e-01
-5.0000000000000003e-02  2.9999999999999999e-01  2.9999999999999999e-01
5.0000000000000003e-02  2.9999999999999999e-01  2.9999999999999999e-01
-5.0000000000000003e-02  1.4999999999999999e-01  2.0000000000000001e-01
5.0000000000000003e-02  1.4999999999999999e-01  2.0000000000000001e-01
5.0000000000000003e-02  0.0000000000000000e+00  0.0000000000000000e+00
-5.0000000000000003e-02  0.0000000000000000e+00  0.0000000000000000e+00
-5.0000000000000003e-02  2.9999999999999999e-01  0.0000000000000000e+00
5.0000000000000003e-02  2.9999999999999999e-01  0.0000000000000000e+00
5.0000000000000003e-02  0.0000000000000000e+00  1.0000000000000001e-01
-5.0000000000000003e-02  0.0000000000000000e+00  1.0000000000000001e-01
-5.0000000000000003e-02  2.9999999999999999e-01  1.0000000000000001e-01
5.0000000000000003e-02  2.9999999999999999e-01  1.0000000000000001e-01
-5.0000000000000003e-02  1.4999999999999999e-01  0.0000000000000000e+00
5.0000000000000003e-02  1.4999999999999999e-01  0.0000000000000000e+00

CELLS 0 0


CELL_TYPES 0


POINT_DATA 58

VECTORS VertexNormals double

0.0000000000000000e+00 0.0000000000000000e+00 0.0000000000000000e+00 
0.0000000000000000e+00 0.0000000000000000e+00 0.0000000000000000e+00 
0.0000000000000000e+00 0.0000000000000000e+00 0.0000000000000000e+00 
0.0000000000000000e+00 0.0000000000000000e+00 0.0000000000000000e+00 
0.0000000000000000e+00 0.0000000000000000e+00 0.0000000000000000e+00 
0.0000000000000000e+00 0.0000000000000000e+00 0.0000000000000000e+00 
0.0000000000000000e+00 0.0000000000000000e+00 0.0000000000000000e+00 
0.0000000000000000e+00 0.0000000000000000e+00 0.0000000000000000e+00 
0.0000000000000000e+00 0.0000000000000000e+00 0.0000000000000000e+00 
0.0000000000000000e+00 0.0000000000000000e+00 0.0000000000000000e+00 
0.0000000000000000e+00 0.0000000000000000e+00 0.0000000000000000e+00 
0.0000000000000000e+00 0.0000000000000000e+00 0.0000000000000000e+00 
0.0000000000000000e+00 0.0000000000000000e+00 0.0000000000000000e+00 
0.0000000000000000e+00 0.0000000000000000e+00 0.0000000000000000e+00 
0.0000000000000000e+00 0.0000000000000000e+00 0.0000000000000000e+00 
0.0000000000000000e+00 0.0000000000000000e+00 0.0000000000000000e+00 
0.0000000000000000e+00 0.0000000000000000e+00 0.0000000000000000e+00 
0.0000000000000000e+00 0.0000000000000000e+00 0.0000000000000000e+00 
0.0000000000000000e+00 0.0000000000000000e+00 0.0000000000000000e+00 
0.0000000000000000e+00 0.0000000000000000e+00 0.0000000000000000e+00 
0.0000000000000000e+00 0.0000000000000000e+00 0.0000000000000000e+00 
0.0000000000000000e+00 0.0000000000000000e+00 0.0000000000000000e+00 
0.0000000000000000e+00 0.0000000000000000e+00 0.0000000000000000e+00 
0.0000000000000000e+00 0.0000000000000000e+00 0.0000000000000000e+00 
0.0000000000000000e+00 0.0000000000000000e+00 0.0000000000000000e+00 
0.0000000000000000e+00 0.0000000000000000e+00 0.0000000000000000e+00 
0.0000000000000000e+00 0.0000000000000000e+00 0.0000000000000000e+00 
0.0000000000000000e+00 0.0000000000000000e+00 0.0000000000000000e+00 
0.0000000000000000e+00 0.0000000000000000e+00 0.0000000000000000e+00 
0.0000000000000000e+00 0.0000000000000000e+00 0.0000000000000000e+00 
0.0000000000000000e+00 0.0000000000000000e+00 0.0000000000000000e+00 
0.0000000000000000e+00 0.0000000000000000e+00 0.0000000000000000e+00 
0.0000000000000000e+00 0.0000000000000000e+00 0.0000000000000000e+00 
0.0000000000000000e+00 0.0000000000000000e+00 0.0000000000000000e+00 
0.0000000000000000e+00 0.0000000000000000e+00 0.0000000000000000e+00 
0.0000000000000000e+00 0.0000000000000000e+00 0.0000000000000000e+00 
0.0000000000000000e+00 0.0000000000000000e+00 0.0000000000000000e+00 
0.0000000000000000e+00 0.0000000000000000e+00 0.0000000000000000e+00 
0.0000000000000000e+00 0.0000000000000000e+00 0.0000000000000000e+00 
0.0000000000000000e+00 0.0000000000000000e+00 0.0000000000000000e+00 
0.0000000000000000e+00 0.0000000000000000e+00 0.0000000000000000e+00 
0.0000000000000000e+00 0.0000000000000000e+00 0.0000000000000000e+00 
0.0000000000000000e+00 0.0000000000000000e+00 0.0000000000000000e+00 
0.0000000000000000e+00 0.0000000000000000e+00 0.0000000000000000e+00 
0.0000000000000000e+00 0.0000000000000000e+00 0.0000000000000000e+00 
0.0000000000000000e+00 0.0000000000000000e+00 0.0000000000000000e+00 
0.0000000000000000e+00 0.0000000000000000e+00 0.0000000000000000e+00 
0.0000000000000000e+00 0.0000000000000000e+00 0.0000000000000000e+00 
0.0000000000000000e+00 0.0000000000000000e+00 0.0000000000000000e+00 
0.0000000000000000e+00 0.0000000000000000e+00 0.0000000000000000e+00 
0.0000000000000000e+00 0.0000000000000000e+00 0.0000000000000000e+00 
0.0000000000000000e+00 0.0000000000000000e+00 0.0000000000000000e+00 
0.0000000000000000e+00 0.0000000000000000e+00 0.0000000000000000e+00 
0.0000000000000000e+00 0.0000000000000000e+00 0.0000000000000000e+00 
0.0000000000000000e+00 0.0000000000000000e+00 0.0000000000000000e+00 
0.0000000000000000e+00 0.0000000000000000e+00 0.0000000000000000e+00 
0.0000000000000000e+00 0.0000000000000000e+00 0.0000000000000000e+00 
0.0000000000000000e+00 0.0000000000000000e+00 0.0000000000000000e+00 

VECTORS DisplacementDeltas0 double
-1.2886813053606402e-318 0.0000000000000000e+00 0.0000000000000000e+00 
-3.0504065660345303e-02 0.0000000000000000e+00 -7.0740322465272842e-02 
-3.0089160118615343e-02 0.0000000000000000e+00 -7.0804683345177089e-02 
-2.9214378256249951e-02 0.0000000000000000e+00 -6.4229967821785472e-02 
-1.3553922574920219e-02 0.0000000000000000e+00 -6.8418707233612208e-02 
-1.4441242956015121e-02 0.0000000000000000e+00 -7.6029232371976951e-02 
-1.4886561706040802e-02 0.0000000000000000e+00 -7.6189946411501897e-02 
-1.3140283006092379e-02 0.0000000000000000e+00 -6.7789767346616514e-02 
-3.0237480861405153e-02 0.0000000000000000e+00 -6.6972383259371382e-02 
-3.0641471141743593e-02 0.0000000000000000e+00 -7.1146898428054439e-02 
-2.9607909919663472e-02 0.0000000000000000e+00 -6.7461175174233334e-02 
-2.8922113472366368e-02 0.0000000000000000e+00 -6.3450006566174166e-02 
-2.1079079765193548e-02 0.0000000000000000e+00 -6.5828933305607629e-02 
-2.2878041128903154e-02 0.0000000000000000e+00 -7.3222139971414690e-02 
-2.3102330400158855e-02 0.0000000000000000e+00 -7.3024923199564884e-02 
-2.1876962242272896e-02 0.0000000000000000e+00 -6.6134329046824036e-02 
-1.4334664357188998e-02 0.0000000000000000e+00 -7.6021244084388928e-02 
-1.3353743739075330e-02 0.0000000000000000e+00 -6.8270523754234536e-02 
9.9156819154375964e-03 0.0000000000000000e+00 -6.6009614857774845e-02 
1.4941728610922494e-02 0.0000000000000000e+00 -7.8180749539046454e-02 
1.5326500964496892e-02 0.0000000000000000e+00 -7.8110900788528184e-02 
1.0100142856535849e-02 0.0000000000000000e+00 -6.5837427813479593e-02 
-2.6205966478737852e-03 0.0000000000000000e+00 -6.8679692831593558e-02 
-2.3962341581088564e-03 0.0000000000000000e+00 -7.9164154841161710e-02 
-2.0670830697960274e-03 0.0000000000000000e+00 -7.9135443827741792e-02 
-2.3839040880264117e-03 0.0000000000000000e+00 -6.8036404124253880e-02 
1.4914490088237170e-02 0.0000000000000000e+00 -7.8218353963213999e-02 
9.4911886517638211e-03 0.0000000000000000e+00 -6.5744890620472007e-02 
2.9597011497270308e-02 0.0000000000000000e+00 -4.3052742436321789e-02 
4.6399607280762714e-02 0.0000000000000000e+00 -4.3548110252366629e-02 
4.6349925972461278e-02 0.0000000000000000e+00 -4.3287161493282669e-02 
2.9718776690402467e-02 0.0000000000000000e+00 -4.2923766739916297e-02 
2.1272072908899334e-02 0.0000000000000000e+00 -5.6201608920061583e-02 
3.4769118622234502e-02 0.0000000000000000e+00 -6.6737645886799396e-02 
3.4965507192858625e-02 0.0000000000000000e+00 -6.6473133002241322e-02 
2.1404852223880111e-02 0.0000000000000000e+00 -5.6015265309766582e-02 
4.5962471688643147e-02 0.0000000000000000e+00 -4.3920918240617723e-02 
2.9271546320357847e-02 0.0000000000000000e+00 -4.4028265974628181e-02 
2.2629777963740830e-02 0.0000000000000000e+00 -1.9123467862007224e-02 
2.8800185118388739e-02 0.0000000000000000e+00 -7.7679376537487035e-03 
2.8681768167009028e-02 0.0000000000000000e+00 -7.8025681813817319e-03 
2.2489568749772846e-02 0.0000000000000000e+00 -1.9064988697760250e-02 
2.9215711793446376e-02 0.0000000000000000e+00 -3.0448488394953486e-02 
4.1452504123639149e-02 0.0000000000000000e+00 -2.1694423145404762e-02 
4.1444740932149074e-02 0.0000000000000000e+00 -2.1618158934421920e-02 
2.9166626900705692e-02 0.0000000000000000e+00 -3.0345883124645288e-02 
2.9208654543794059e-02 0.0000000000000000e+00 -7.9730376685785004e-03 
2.2917799044384023e-02 0.0000000000000000e+00 -1.9630153676179332e-02 
0.0000000000000000e+00 0.0000000000000000e+00 0.0000000000000000e+00 
0.0000000000000000e+00 0.0000000000000000e+00 0.0000000000000000e+00 
0.0000000000000000e+00 0.0000000000000000e+00 0.0000000000000000e+00 
0.0000000000000000e+00 0.0000000000000000e+00 0.0000000000000000e+00 
1.0606271005316041e-02 0.0000000000000000e+00 -1.0334899251493135e-02 
1.2125894351114035e-02 0.0000000000000000e+00 2.4527798655154046e-05 
1.2060923331170342e-02 0.0000000000000000e+00 -6.7394185010050817e-06 
1.0611437947715340e-02 0.0000000000000000e+00 -1.0355233120565238e-02 
0.0000000000000000e+00 0.0000000000000000e+00 0.0000000000000000e+00 
0.0000000000000000e+00 0.0000000000000000e+00 0.0000000000000000e+00 

VECTORS Forces0 double
9.1550018240162190e-01 2.7766933211125083e-03 2.0097329824904317e-01 
2.3805984797799159e+01 2.4438329972694666e+00 1.0133068025186571e+01 
5.6592793710197924e+00 4.0161710477476120e+00 9.0586693378616783e+00 
5.8262498757265133e+00 -2.4944306563667273e-01 1.0784879940772958e+00 
1.4145965716670017e+00 2.8149794980196602e-01 6.2458780452704676e-01 
-1.6435993543647907e+01 1.3022916266283852e-01 2.0462536824042759e+00 
-1.2488122585159992e+01 1.0510596130610325e-01 1.2878908181326254e+00 
-2.1136713148230406e+00 2.3941900754489933e+00 3.2592805358467953e+00 
0.0000000000000000e+00 0.0000000000000000e+00 0.0000000000000000e+00 
0.0000000000000000e+00 0.0000000000000000e+00 0.0000000000000000e+00 
0.0000000000000000e+00 0.0000000000000000e+00 0.0000000000000000e+00 
0.0000000000000000e+00 0.0000000000000000e+00 0.0000000000000000e+00 
0.0000000000000000e+00 0.0000000000000000e+00 0.0000000000000000e+00 
0.0000000000000000e+00 0.0000000000000000e+00 0.0000000000000000e+00 
0.0000000000000000e+00 0.0000000000000000e+00 0.0000000000000000e+00 
0.0000000000000000e+00 0.0000000000000000e+00 0.0000000000000000e+00 
0.0000000000000000e+00 0.0000000000000000e+00 0.0000000000000000e+00 
0.0000000000000000e+00 0.0000000000000000e+00 0.0000000000000000e+00 
2.1749501227061998e+01 -7.9442900639507347e-02 6.0922114233050797e+00 
-5.5012806054164498e+00 3.5703605256802676e-02 -2.7159838141878905e+00 
-3.1050846506821159e+00 2.1401241118650528e-02 -1.8242193665650730e+00 
2.4631533816285597e+01 -9.0405358266543334e-02 7.0190333484342151e+00 
0.0000000000000000e+00 0.0000000000000000e+00 0.0000000000000000e+00 
0.0000000000000000e+00 0.0000000000000000e+00 0.0000000000000000e+00 
0.0000000000000000e+00 0.0000000000000000e+00 0.0000000000000000e+00 
0.0000000000000000e+00 0.0000000000000000e+00 0.0000000000000000e+00 
0.0000000000000000e+00 0.0000000000000000e+00 0.0000000000000000e+00 
0.0000000000000000e+00 0.0000000000000000e+00 0.0000000000000000e+00 
3.0380691395282478e+00 -2.7144875118041926e-02 2.0754231627191619e+01 
1.6659953242906995e+00 -1.6908166192015156e-02 9.4329703326249668e+00 
1.6211856983535002e+00 -1.6933439606417151e-02 9.4687456504019991e+00 
2.8359697362911955e+00 -2.6336391968238386e-02 2.0227430486717022e+01 
0.0000000000000000e+00 0.0000000000000000e+00 0.0000000000000000e+00 
0.0000000000000000e+00 0.0000000000000000e+00 0.0000000000000000e+00 
0.0000000000000000e+00 0.0000000000000000e+00 0.0000000000000000e+00 
0.0000000000000000e+00 0.0000000000000000e+00 0.0000000000000000e+00 
0.0000000000000000e+00 0.0000000000000000e+00 0.0000000000000000e+00 
0.0000000000000000e+00 0.0000000000000000e+00 0.0000000000000000e+00 
-1.6675961541909260e+01 -2.2583758964145025e-03 1.3114012314796907e+01 
1.6245062673010446e+00 6.5647704086755233e-04 -1.6409587253168145e+00 
1.9294493955249590e+00 7.4898573463814640e-04 -1.9279374375387934e+00 
-1.7026172936254746e+01 -2.2562047592593697e-03 1.3352052637547164e+01 
0.0000000000000000e+00 0.0000000000000000e+00 0.0000000000000000e+00 
0.0000000000000000e+00 0.0000000000000000e+00 0.0000000000000000e+00 
0.0000000000000000e+00 0.0000000000000000e+00 0.0000000000000000e+00 
0.0000000000000000e+00 0.0000000000000000e+00 0.0000000000000000e+00 
0.0000000000000000e+00 0.0000000000000000e+00 0.0000000000000000e+00 
0.0000000000000000e+00 0.0000000000000000e+00 0.0000000000000000e+00 
-1.1029626905845266e+01 -1.7486487831539711e-04 3.7459799396310500e+00 
2.9066813626320727e+00 1.1380352260151055e-04 -1.0991523804105205e+00 
2.8703437997627383e+00 1.1170657148110008e-04 -1.0837781772121082e+00 
-1.1079478203460408e+01 -1.7447896294020489e-04 3.7613580269578928e+00 
0.0000000000000000e+00 0.0000000000000000e+00 0.0000000000000000e+00 
0.0000000000000000e+00 0.0000000000000000e+00 0.0000000000000000e+00 
0.0000000000000000e+00 0.0000000000000000e+00 0.0000000000000000e+00 
0.0000000000000000e+00 0.0000000000000000e+00 0.0000000000000000e+00 
0.0000000000000000e+00 0.0000000000000000e+00 0.0000000000000000e+00 
0.0000000000000000e+00 0.0000000000000000e+00 0.0000000000000000e+00 

