# vtk DataFile Version 2.0

ASCII

DATASET UNSTRUCTURED_GRID

POINTS 58 double 

5.0000000000000003e-02  0.0000000000000000e+00  1.0000000000000000e+00
-5.0000000000000003e-02  0.0000000000000000e+00  1.0000000000000000e+00
-5.0000000000000003e-02  2.9999999999999999e-01  1.0000000000000000e+00
5.0000000000000003e-02  2.9999999999999999e-01  1.0000000000000000e+00
5.0000000000000003e-02  0.0000000000000000e+00  8.0000000000000004e-01
-5.0000000000000003e-02  0.0000000000000000e+00  8.0000000000000004e-01
-5.0000000000000003e-02  2.9999999999999999e-01  8.0000000000000004e-01
5.0000000000000003e-02  2.9999999999999999e-01  8.0000000000000004e-01
0.0000000000000000e+00  0.0000000000000000e+00  1.0000000000000000e+00
-5.0000000000000003e-02  1.4999999999999999e-01  1.0000000000000000e+00
0.0000000000000000e+00  2.9999999999999999e-01  1.0000000000000000e+00
5.0000000000000003e-02  1.4999999999999999e-01  1.0000000000000000e+00
5.0000000000000003e-02  0.0000000000000000e+00  9.0000000000000002e-01
-5.0000000000000003e-02  0.0000000000000000e+00  9.0000000000000002e-01
-5.0000000000000003e-02  2.9999999999999999e-01  9.0000000000000002e-01
5.0000000000000003e-02  2.9999999999999999e-01  9.0000000000000002e-01
-5.0000000000000003e-02  1.4999999999999999e-01  8.0000000000000004e-01
5.0000000000000003e-02  1.4999999999999999e-01  8.0000000000000004e-01
5.0000000000000003e-02  0.0000000000000000e+00  5.9999999999999998e-01
-5.0000000000000003e-02  0.0000000000000000e+00  5.9999999999999998e-01
-5.0000000000000003e-02  2.9999999999999999e-01  5.9999999999999998e-01
5.0000000000000003e-02  2.9999999999999999e-01  5.9999999999999998e-01
5.0000000000000003e-02  0.0000000000000000e+00  6.9999999999999996e-01
-5.0000000000000003e-02  0.0000000000000000e+00  6.9999999999999996e-01
-5.0000000000000003e-02  2.9999999999999999e-01  6.9999999999999996e-01
5.0000000000000003e-02  2.9999999999999999e-01  6.9999999999999996e-01
-5.0000000000000003e-02  1.4999999999999999e-01  5.9999999999999998e-01
5.0000000000000003e-02  1.4999999999999999e-01  5.9999999999999998e-01
5.0000000000000003e-02  0.0000000000000000e+00  4.0000000000000002e-01
-5.0000000000000003e-02  0.0000000000000000e+00  4.0000000000000002e-01
-5.0000000000000003e-02  2.9999999999999999e-01  4.0000000000000002e-01
5.0000000000000003e-02  2.9999999999999999e-01  4.0000000000000002e-01
5.0000000000000003e-02  0.0000000000000000e+00  5.0000000000000000e-01
-5.0000000000000003e-02  0.0000000000000000e+00  5.0000000000000000e-01
-5.0000000000000003e-02  2.9999999999999999e-01  5.0000000000000000e-01
5.0000000000000003e-02  2.9999999999999999e-01  5.0000000000000000e-01
-5.0000000000000003e-02  1.4999999999999999e-01  4.0000000000000002e-01
5.0000000000000003e-02  1.4999999999999999e-01  4.0000000000000002e-01
5.0000000000000003e-02  0.0000000000000000e+00  2.0000000000000001e-01
-5.0000000000000003e-02  0.0000000000000000e+00  2.0000000000000001e-01
-5.0000000000000003e-02  2.9999999999999999e-01  2.0000000000000001e-01
5.0000000000000003e-02  2.9999999999999999e-01  2.0000000000000001e-01
5.0000000000000003e-02  0.0000000000000000e+00  2.9999999999999999e-01
-5.0000000000000003e-02  0.0000000000000000e+00  2.9999999999999999e-01
-5.0000000000000003e-02  2.9999999999999999e-01  2.9999999999999999e-01
5.0000000000000003e-02  2.9999999999999999e-01  2.9999999999999999e-01
-5.0000000000000003e-02  1.4999999999999999e-01  2.0000000000000001e-01
5.0000000000000003e-02  1.4999999999999999e-01  2.0000000000000001e-01
5.0000000000000003e-02  0.0000000000000000e+00  0.0000000000000000e+00
-5.0000000000000003e-02  0.0000000000000000e+00  0.0000000000000000e+00
-5.0000000000000003e-02  2.9999999999999999e-01  0.0000000000000000e+00
5.0000000000000003e-02  2.9999999999999999e-01  0.0000000000000000e+00
5.0000000000000003e-02  0.0000000000000000e+00  1.0000000000000001e-01
-5.0000000000000003e-02  0.0000000000000000e+00  1.0000000000000001e-01
-5.0000000000000003e-02  2.9999999999999999e-01  1.0000000000000001e-01
5.0000000000000003e-02  2.9999999999999999e-01  1.0000000000000001e-01
-5.0000000000000003e-02  1.4999999999999999e-01  0.0000000000000000e+00
5.0000000000000003e-02  1.4999999999999999e-01  0.0000000000000000e+00

CELLS 0 0


CELL_TYPES 0


POINT_DATA 58

VECTORS VertexNormals double

0.0000000000000000e+00 0.0000000000000000e+00 0.0000000000000000e+00 
0.0000000000000000e+00 0.0000000000000000e+00 0.0000000000000000e+00 
0.0000000000000000e+00 0.0000000000000000e+00 0.0000000000000000e+00 
0.0000000000000000e+00 0.0000000000000000e+00 0.0000000000000000e+00 
0.0000000000000000e+00 0.0000000000000000e+00 0.0000000000000000e+00 
0.0000000000000000e+00 0.0000000000000000e+00 0.0000000000000000e+00 
0.0000000000000000e+00 0.0000000000000000e+00 0.0000000000000000e+00 
0.0000000000000000e+00 0.0000000000000000e+00 0.0000000000000000e+00 
0.0000000000000000e+00 0.0000000000000000e+00 0.0000000000000000e+00 
0.0000000000000000e+00 0.0000000000000000e+00 0.0000000000000000e+00 
0.0000000000000000e+00 0.0000000000000000e+00 0.0000000000000000e+00 
0.0000000000000000e+00 0.0000000000000000e+00 0.0000000000000000e+00 
0.0000000000000000e+00 0.0000000000000000e+00 0.0000000000000000e+00 
0.0000000000000000e+00 0.0000000000000000e+00 0.0000000000000000e+00 
0.0000000000000000e+00 0.0000000000000000e+00 0.0000000000000000e+00 
0.0000000000000000e+00 0.0000000000000000e+00 0.0000000000000000e+00 
0.0000000000000000e+00 0.0000000000000000e+00 0.0000000000000000e+00 
0.0000000000000000e+00 0.0000000000000000e+00 0.0000000000000000e+00 
0.0000000000000000e+00 0.0000000000000000e+00 0.0000000000000000e+00 
0.0000000000000000e+00 0.0000000000000000e+00 0.0000000000000000e+00 
0.0000000000000000e+00 0.0000000000000000e+00 0.0000000000000000e+00 
0.0000000000000000e+00 0.0000000000000000e+00 0.0000000000000000e+00 
0.0000000000000000e+00 0.0000000000000000e+00 0.0000000000000000e+00 
0.0000000000000000e+00 0.0000000000000000e+00 0.0000000000000000e+00 
0.0000000000000000e+00 0.0000000000000000e+00 0.0000000000000000e+00 
0.0000000000000000e+00 0.0000000000000000e+00 0.0000000000000000e+00 
0.0000000000000000e+00 0.0000000000000000e+00 0.0000000000000000e+00 
0.0000000000000000e+00 0.0000000000000000e+00 0.0000000000000000e+00 
0.0000000000000000e+00 0.0000000000000000e+00 0.0000000000000000e+00 
0.0000000000000000e+00 0.0000000000000000e+00 0.0000000000000000e+00 
0.0000000000000000e+00 0.0000000000000000e+00 0.0000000000000000e+00 
0.0000000000000000e+00 0.0000000000000000e+00 0.0000000000000000e+00 
0.0000000000000000e+00 0.0000000000000000e+00 0.0000000000000000e+00 
0.0000000000000000e+00 0.0000000000000000e+00 0.0000000000000000e+00 
0.0000000000000000e+00 0.0000000000000000e+00 0.0000000000000000e+00 
0.0000000000000000e+00 0.0000000000000000e+00 0.0000000000000000e+00 
0.0000000000000000e+00 0.0000000000000000e+00 0.0000000000000000e+00 
0.0000000000000000e+00 0.0000000000000000e+00 0.0000000000000000e+00 
0.0000000000000000e+00 0.0000000000000000e+00 0.0000000000000000e+00 
0.0000000000000000e+00 0.0000000000000000e+00 0.0000000000000000e+00 
0.0000000000000000e+00 0.0000000000000000e+00 0.0000000000000000e+00 
0.0000000000000000e+00 0.0000000000000000e+00 0.0000000000000000e+00 
0.0000000000000000e+00 0.0000000000000000e+00 0.0000000000000000e+00 
0.0000000000000000e+00 0.0000000000000000e+00 0.0000000000000000e+00 
0.0000000000000000e+00 0.0000000000000000e+00 0.0000000000000000e+00 
0.0000000000000000e+00 0.0000000000000000e+00 0.0000000000000000e+00 
0.0000000000000000e+00 0.0000000000000000e+00 0.0000000000000000e+00 
0.0000000000000000e+00 0.0000000000000000e+00 0.0000000000000000e+00 
0.0000000000000000e+00 0.0000000000000000e+00 0.0000000000000000e+00 
0.0000000000000000e+00 0.0000000000000000e+00 0.0000000000000000e+00 
0.0000000000000000e+00 0.0000000000000000e+00 0.0000000000000000e+00 
0.0000000000000000e+00 0.0000000000000000e+00 0.0000000000000000e+00 
0.0000000000000000e+00 0.0000000000000000e+00 0.0000000000000000e+00 
0.0000000000000000e+00 0.0000000000000000e+00 0.0000000000000000e+00 
0.0000000000000000e+00 0.0000000000000000e+00 0.0000000000000000e+00 
0.0000000000000000e+00 0.0000000000000000e+00 0.0000000000000000e+00 
0.0000000000000000e+00 0.0000000000000000e+00 0.0000000000000000e+00 
0.0000000000000000e+00 0.0000000000000000e+00 0.0000000000000000e+00 

VECTORS DisplacementDeltas0 double
2.8995329370614404e-318 0.0000000000000000e+00 0.0000000000000000e+00 
-7.6462164867465710e-03 0.0000000000000000e+00 -8.1350678809210430e-02 
-8.4818394369504668e-03 0.0000000000000000e+00 -8.2168497467914464e-02 
-1.4567599624905253e-02 0.0000000000000000e+00 -7.0524564536502965e-02 
1.0696244218157264e-02 0.0000000000000000e+00 -5.5176035600698517e-02 
1.8042788056319897e-02 0.0000000000000000e+00 -6.5934013732327379e-02 
1.9277119839872792e-02 0.0000000000000000e+00 -6.7037069819795431e-02 
1.1151681403960473e-02 0.0000000000000000e+00 -5.6083276489253264e-02 
-1.1397127601221968e-02 0.0000000000000000e+00 -7.5574014769623554e-02 
-8.7649541564495115e-03 0.0000000000000000e+00 -8.1533497049113390e-02 
-1.1629050892331960e-02 0.0000000000000000e+00 -7.6283930804052852e-02 
-1.5210712498638146e-02 0.0000000000000000e+00 -6.9749366418090986e-02 
-2.1660933696930063e-03 0.0000000000000000e+00 -6.2604103117330917e-02 
4.1820753413249201e-03 0.0000000000000000e+00 -7.4150714064829149e-02 
4.4710031574232145e-03 0.0000000000000000e+00 -7.5867046398844173e-02 
-1.9338010158600760e-03 0.0000000000000000e+00 -6.4096035285644226e-02 
1.8861543382528156e-02 0.0000000000000000e+00 -6.6273480530621320e-02 
1.1024109298733542e-02 0.0000000000000000e+00 -5.5357679456393666e-02 
2.6356706270645174e-02 0.0000000000000000e+00 -2.7678406630448564e-02 
4.1859401296245380e-02 0.0000000000000000e+00 -2.9635011959818460e-02 
4.2000978730798805e-02 0.0000000000000000e+00 -2.9380903106988526e-02 
2.6402301607068843e-02 0.0000000000000000e+00 -2.7629720865839452e-02 
2.0989071307563417e-02 0.0000000000000000e+00 -4.2969506475412117e-02 
3.3474261843992104e-02 0.0000000000000000e+00 -5.1700937116857838e-02 
3.4392300146902866e-02 0.0000000000000000e+00 -5.1820654845784617e-02 
2.1173673433794601e-02 0.0000000000000000e+00 -4.3404504367467983e-02 
4.1673850716067801e-02 0.0000000000000000e+00 -2.9547328426955229e-02 
2.6385189041025062e-02 0.0000000000000000e+00 -2.7895570687356867e-02 
1.3945325986312165e-02 0.0000000000000000e+00 -2.7933727344580748e-03 
2.1452794953535848e-02 0.0000000000000000e+00 6.9100545078346620e-03 
2.1486973506342641e-02 0.0000000000000000e+00 6.8817208425282911e-03 
1.4016314897232034e-02 0.0000000000000000e+00 -2.8085665767008210e-03 
2.2746054126976875e-02 0.0000000000000000e+00 -1.3745131480797071e-02 
3.6377067196240648e-02 0.0000000000000000e+00 -7.2831087287022894e-03 
3.6329466323209936e-02 0.0000000000000000e+00 -7.2183210047275133e-03 
2.2712910220704138e-02 0.0000000000000000e+00 -1.3630055251892011e-02 
2.1828572134413395e-02 0.0000000000000000e+00 6.7197088988697681e-03 
1.4319733251615497e-02 0.0000000000000000e+00 -2.6542814825777951e-03 
-2.5396486506876082e-03 0.0000000000000000e+00 3.2706770714343632e-03 
-1.1589975960756295e-03 0.0000000000000000e+00 6.4446848776279989e-03 
-1.0874879025872144e-03 0.0000000000000000e+00 6.4915346085794223e-03 
-2.5424028417339404e-03 0.0000000000000000e+00 3.2106494462381119e-03 
4.3240774361391343e-03 0.0000000000000000e+00 1.8997592280222235e-03 
6.9602415644747046e-03 0.0000000000000000e+00 9.7515031156889028e-03 
6.9677126078489639e-03 0.0000000000000000e+00 9.8381412820353880e-03 
4.3391425063908431e-03 0.0000000000000000e+00 1.9185330941386223e-03 
-1.2234554139533725e-03 0.0000000000000000e+00 6.7981047629677507e-03 
-2.5669539395326447e-03 0.0000000000000000e+00 3.2932441992344092e-03 
0.0000000000000000e+00 0.0000000000000000e+00 0.0000000000000000e+00 
0.0000000000000000e+00 0.0000000000000000e+00 0.0000000000000000e+00 
0.0000000000000000e+00 0.0000000000000000e+00 0.0000000000000000e+00 
0.0000000000000000e+00 0.0000000000000000e+00 0.0000000000000000e+00 
-3.2360167309964821e-03 0.0000000000000000e+00 2.3964832404699135e-03 
-1.6764353324562019e-03 0.0000000000000000e+00 2.3450197116363929e-03 
-1.6843243626155427e-03 0.0000000000000000e+00 2.2871020580716170e-03 
-3.2382089838518722e-03 0.0000000000000000e+00 2.4532677695353819e-03 
0.0000000000000000e+00 0.0000000000000000e+00 0.0000000000000000e+00 
0.0000000000000000e+00 0.0000000000000000e+00 0.0000000000000000e+00 

VECTORS Forces0 double
-1.0905160355408243e+00 -1.4116623137722559e+00 -1.1721093767941420e+00 
1.5369051786321055e+01 3.0802929402213977e+00 1.2129360496458300e+01 
-4.2604408729602194e-01 8.0793838749098845e-01 9.2820486220484510e-01 
3.3403480632708709e+00 4.5119153413097450e+00 3.8877699175420926e+00 
3.3509464818663659e+00 -4.9507814589242194e-03 8.9454290067744247e-01 
-3.5081517525428469e+00 1.3966600250180769e-01 -3.8123097513442943e+00 
3.2020617977968597e+00 -9.7386042194753303e-02 2.3182899856715951e+00 
4.6703235594932559e+00 -3.7834476006602047e-01 6.3159579978033147e+00 
0.0000000000000000e+00 0.0000000000000000e+00 0.0000000000000000e+00 
0.0000000000000000e+00 0.0000000000000000e+00 0.0000000000000000e+00 
0.0000000000000000e+00 0.0000000000000000e+00 0.0000000000000000e+00 
0.0000000000000000e+00 0.0000000000000000e+00 0.0000000000000000e+00 
0.0000000000000000e+00 0.0000000000000000e+00 0.0000000000000000e+00 
0.0000000000000000e+00 0.0000000000000000e+00 0.0000000000000000e+00 
0.0000000000000000e+00 0.0000000000000000e+00 0.0000000000000000e+00 
0.0000000000000000e+00 0.0000000000000000e+00 0.0000000000000000e+00 
0.0000000000000000e+00 0.0000000000000000e+00 0.0000000000000000e+00 
0.0000000000000000e+00 0.0000000000000000e+00 0.0000000000000000e+00 
9.2015207583470715e-01 -3.0946168338292453e-02 5.7894539440682244e+00 
9.6425548226987834e-01 -5.2879700309203546e-02 7.5121019596998897e+00 
8.7960100940013575e-01 -5.7159558227644833e-02 8.1422958873007651e+00 
4.6397288330228770e-02 -7.7291333489015760e-03 1.5307988533762991e+00 
0.0000000000000000e+00 0.0000000000000000e+00 0.0000000000000000e+00 
0.0000000000000000e+00 0.0000000000000000e+00 0.0000000000000000e+00 
0.0000000000000000e+00 0.0000000000000000e+00 0.0000000000000000e+00 
0.0000000000000000e+00 0.0000000000000000e+00 0.0000000000000000e+00 
0.0000000000000000e+00 0.0000000000000000e+00 0.0000000000000000e+00 
0.0000000000000000e+00 0.0000000000000000e+00 0.0000000000000000e+00 
-1.8092118158728185e+00 1.6291408537166710e-03 1.3159842101476134e+00 
2.6918271168425743e+00 -2.5790647178500404e-04 -2.8324586033006414e+00 
3.4634481090800495e+00 -2.8884343817992073e-04 -3.4904297702054512e+00 
-1.8245709037462920e+00 1.6368499095084617e-03 1.3208935800178530e+00 
0.0000000000000000e+00 0.0000000000000000e+00 0.0000000000000000e+00 
0.0000000000000000e+00 0.0000000000000000e+00 0.0000000000000000e+00 
0.0000000000000000e+00 0.0000000000000000e+00 0.0000000000000000e+00 
0.0000000000000000e+00 0.0000000000000000e+00 0.0000000000000000e+00 
0.0000000000000000e+00 0.0000000000000000e+00 0.0000000000000000e+00 
0.0000000000000000e+00 0.0000000000000000e+00 0.0000000000000000e+00 
-2.9233575597348991e+00 2.8938775658881807e-04 1.2809727309122432e-01 
5.7881171854848752e+00 -7.4664719149236366e-04 -6.1575829964652773e-01 
5.8310510946684566e+00 -7.4857230224359720e-04 -6.2013478153026025e-01 
-2.8521770428998283e+00 2.8241293562584612e-04 1.2582528367727194e-01 
0.0000000000000000e+00 0.0000000000000000e+00 0.0000000000000000e+00 
0.0000000000000000e+00 0.0000000000000000e+00 0.0000000000000000e+00 
0.0000000000000000e+00 0.0000000000000000e+00 0.0000000000000000e+00 
0.0000000000000000e+00 0.0000000000000000e+00 0.0000000000000000e+00 
0.0000000000000000e+00 0.0000000000000000e+00 0.0000000000000000e+00 
0.0000000000000000e+00 0.0000000000000000e+00 0.0000000000000000e+00 
-1.9373072476637052e+00 3.6480972924812055e-06 -2.0814069307036426e-01 
1.4102051033260037e+00 -4.2294934966715484e-05 9.5744725487337201e-02 
1.3750819699980095e+00 -4.1603467115189053e-05 9.3228191206732064e-02 
-1.9354388921914272e+00 3.6110669853485693e-06 -2.0806779219134786e-01 
0.0000000000000000e+00 0.0000000000000000e+00 0.0000000000000000e+00 
0.0000000000000000e+00 0.0000000000000000e+00 0.0000000000000000e+00 
0.0000000000000000e+00 0.0000000000000000e+00 0.0000000000000000e+00 
0.0000000000000000e+00 0.0000000000000000e+00 0.0000000000000000e+00 
0.0000000000000000e+00 0.0000000000000000e+00 0.0000000000000000e+00 
0.0000000000000000e+00 0.0000000000000000e+00 0.0000000000000000e+00 

