# vtk DataFile Version 2.0

ASCII

DATASET UNSTRUCTURED_GRID

POINTS 58 float 

5.0000000000000003e-02  0.0000000000000000e+00  1.0000000000000000e+00
-5.0000000000000003e-02  0.0000000000000000e+00  1.0000000000000000e+00
-5.0000000000000003e-02  2.9999999999999999e-01  1.0000000000000000e+00
5.0000000000000003e-02  2.9999999999999999e-01  1.0000000000000000e+00
5.0000000000000003e-02  0.0000000000000000e+00  8.0000000000000004e-01
-5.0000000000000003e-02  0.0000000000000000e+00  8.0000000000000004e-01
-5.0000000000000003e-02  2.9999999999999999e-01  8.0000000000000004e-01
5.0000000000000003e-02  2.9999999999999999e-01  8.0000000000000004e-01
0.0000000000000000e+00  0.0000000000000000e+00  1.0000000000000000e+00
-5.0000000000000003e-02  1.4999999999999999e-01  1.0000000000000000e+00
0.0000000000000000e+00  2.9999999999999999e-01  1.0000000000000000e+00
5.0000000000000003e-02  1.4999999999999999e-01  1.0000000000000000e+00
5.0000000000000003e-02  0.0000000000000000e+00  9.0000000000000002e-01
-5.0000000000000003e-02  0.0000000000000000e+00  9.0000000000000002e-01
-5.0000000000000003e-02  2.9999999999999999e-01  9.0000000000000002e-01
5.0000000000000003e-02  2.9999999999999999e-01  9.0000000000000002e-01
-5.0000000000000003e-02  1.4999999999999999e-01  8.0000000000000004e-01
5.0000000000000003e-02  1.4999999999999999e-01  8.0000000000000004e-01
5.0000000000000003e-02  0.0000000000000000e+00  5.9999999999999998e-01
-5.0000000000000003e-02  0.0000000000000000e+00  5.9999999999999998e-01
-5.0000000000000003e-02  2.9999999999999999e-01  5.9999999999999998e-01
5.0000000000000003e-02  2.9999999999999999e-01  5.9999999999999998e-01
5.0000000000000003e-02  0.0000000000000000e+00  6.9999999999999996e-01
-5.0000000000000003e-02  0.0000000000000000e+00  6.9999999999999996e-01
-5.0000000000000003e-02  2.9999999999999999e-01  6.9999999999999996e-01
5.0000000000000003e-02  2.9999999999999999e-01  6.9999999999999996e-01
-5.0000000000000003e-02  1.4999999999999999e-01  5.9999999999999998e-01
5.0000000000000003e-02  1.4999999999999999e-01  5.9999999999999998e-01
5.0000000000000003e-02  0.0000000000000000e+00  4.0000000000000002e-01
-5.0000000000000003e-02  0.0000000000000000e+00  4.0000000000000002e-01
-5.0000000000000003e-02  2.9999999999999999e-01  4.0000000000000002e-01
5.0000000000000003e-02  2.9999999999999999e-01  4.0000000000000002e-01
5.0000000000000003e-02  0.0000000000000000e+00  5.0000000000000000e-01
-5.0000000000000003e-02  0.0000000000000000e+00  5.0000000000000000e-01
-5.0000000000000003e-02  2.9999999999999999e-01  5.0000000000000000e-01
5.0000000000000003e-02  2.9999999999999999e-01  5.0000000000000000e-01
-5.0000000000000003e-02  1.4999999999999999e-01  4.0000000000000002e-01
5.0000000000000003e-02  1.4999999999999999e-01  4.0000000000000002e-01
5.0000000000000003e-02  0.0000000000000000e+00  2.0000000000000001e-01
-5.0000000000000003e-02  0.0000000000000000e+00  2.0000000000000001e-01
-5.0000000000000003e-02  2.9999999999999999e-01  2.0000000000000001e-01
5.0000000000000003e-02  2.9999999999999999e-01  2.0000000000000001e-01
5.0000000000000003e-02  0.0000000000000000e+00  2.9999999999999999e-01
-5.0000000000000003e-02  0.0000000000000000e+00  2.9999999999999999e-01
-5.0000000000000003e-02  2.9999999999999999e-01  2.9999999999999999e-01
5.0000000000000003e-02  2.9999999999999999e-01  2.9999999999999999e-01
-5.0000000000000003e-02  1.4999999999999999e-01  2.0000000000000001e-01
5.0000000000000003e-02  1.4999999999999999e-01  2.0000000000000001e-01
5.0000000000000003e-02  0.0000000000000000e+00  0.0000000000000000e+00
-5.0000000000000003e-02  0.0000000000000000e+00  0.0000000000000000e+00
-5.0000000000000003e-02  2.9999999999999999e-01  0.0000000000000000e+00
5.0000000000000003e-02  2.9999999999999999e-01  0.0000000000000000e+00
5.0000000000000003e-02  0.0000000000000000e+00  1.0000000000000001e-01
-5.0000000000000003e-02  0.0000000000000000e+00  1.0000000000000001e-01
-5.0000000000000003e-02  2.9999999999999999e-01  1.0000000000000001e-01
5.0000000000000003e-02  2.9999999999999999e-01  1.0000000000000001e-01
-5.0000000000000003e-02  1.4999999999999999e-01  0.0000000000000000e+00
5.0000000000000003e-02  1.4999999999999999e-01  0.0000000000000000e+00

CELLS 0 0


CELL_TYPES 0


POINT_DATA 58

VECTORS VertexNormals float

0.0000000000000000e+00 0.0000000000000000e+00 0.0000000000000000e+00 
0.0000000000000000e+00 0.0000000000000000e+00 0.0000000000000000e+00 
0.0000000000000000e+00 0.0000000000000000e+00 0.0000000000000000e+00 
0.0000000000000000e+00 0.0000000000000000e+00 0.0000000000000000e+00 
0.0000000000000000e+00 0.0000000000000000e+00 0.0000000000000000e+00 
0.0000000000000000e+00 0.0000000000000000e+00 0.0000000000000000e+00 
0.0000000000000000e+00 0.0000000000000000e+00 0.0000000000000000e+00 
0.0000000000000000e+00 0.0000000000000000e+00 0.0000000000000000e+00 
0.0000000000000000e+00 0.0000000000000000e+00 0.0000000000000000e+00 
0.0000000000000000e+00 0.0000000000000000e+00 0.0000000000000000e+00 
0.0000000000000000e+00 0.0000000000000000e+00 0.0000000000000000e+00 
0.0000000000000000e+00 0.0000000000000000e+00 0.0000000000000000e+00 
0.0000000000000000e+00 0.0000000000000000e+00 0.0000000000000000e+00 
0.0000000000000000e+00 0.0000000000000000e+00 0.0000000000000000e+00 
0.0000000000000000e+00 0.0000000000000000e+00 0.0000000000000000e+00 
0.0000000000000000e+00 0.0000000000000000e+00 0.0000000000000000e+00 
0.0000000000000000e+00 0.0000000000000000e+00 0.0000000000000000e+00 
0.0000000000000000e+00 0.0000000000000000e+00 0.0000000000000000e+00 
0.0000000000000000e+00 0.0000000000000000e+00 0.0000000000000000e+00 
0.0000000000000000e+00 0.0000000000000000e+00 0.0000000000000000e+00 
0.0000000000000000e+00 0.0000000000000000e+00 0.0000000000000000e+00 
0.0000000000000000e+00 0.0000000000000000e+00 0.0000000000000000e+00 
0.0000000000000000e+00 0.0000000000000000e+00 0.0000000000000000e+00 
0.0000000000000000e+00 0.0000000000000000e+00 0.0000000000000000e+00 
0.0000000000000000e+00 0.0000000000000000e+00 0.0000000000000000e+00 
0.0000000000000000e+00 0.0000000000000000e+00 0.0000000000000000e+00 
0.0000000000000000e+00 0.0000000000000000e+00 0.0000000000000000e+00 
0.0000000000000000e+00 0.0000000000000000e+00 0.0000000000000000e+00 
0.0000000000000000e+00 0.0000000000000000e+00 0.0000000000000000e+00 
0.0000000000000000e+00 0.0000000000000000e+00 0.0000000000000000e+00 
0.0000000000000000e+00 0.0000000000000000e+00 0.0000000000000000e+00 
0.0000000000000000e+00 0.0000000000000000e+00 0.0000000000000000e+00 
0.0000000000000000e+00 0.0000000000000000e+00 0.0000000000000000e+00 
0.0000000000000000e+00 0.0000000000000000e+00 0.0000000000000000e+00 
0.0000000000000000e+00 0.0000000000000000e+00 0.0000000000000000e+00 
0.0000000000000000e+00 0.0000000000000000e+00 0.0000000000000000e+00 
0.0000000000000000e+00 0.0000000000000000e+00 0.0000000000000000e+00 
0.0000000000000000e+00 0.0000000000000000e+00 0.0000000000000000e+00 
0.0000000000000000e+00 0.0000000000000000e+00 0.0000000000000000e+00 
0.0000000000000000e+00 0.0000000000000000e+00 0.0000000000000000e+00 
0.0000000000000000e+00 0.0000000000000000e+00 0.0000000000000000e+00 
0.0000000000000000e+00 0.0000000000000000e+00 0.0000000000000000e+00 
0.0000000000000000e+00 0.0000000000000000e+00 0.0000000000000000e+00 
0.0000000000000000e+00 0.0000000000000000e+00 0.0000000000000000e+00 
0.0000000000000000e+00 0.0000000000000000e+00 0.0000000000000000e+00 
0.0000000000000000e+00 0.0000000000000000e+00 0.0000000000000000e+00 
0.0000000000000000e+00 0.0000000000000000e+00 0.0000000000000000e+00 
0.0000000000000000e+00 0.0000000000000000e+00 0.0000000000000000e+00 
0.0000000000000000e+00 0.0000000000000000e+00 0.0000000000000000e+00 
0.0000000000000000e+00 0.0000000000000000e+00 0.0000000000000000e+00 
0.0000000000000000e+00 0.0000000000000000e+00 0.0000000000000000e+00 
0.0000000000000000e+00 0.0000000000000000e+00 0.0000000000000000e+00 
0.0000000000000000e+00 0.0000000000000000e+00 0.0000000000000000e+00 
0.0000000000000000e+00 0.0000000000000000e+00 0.0000000000000000e+00 
0.0000000000000000e+00 0.0000000000000000e+00 0.0000000000000000e+00 
0.0000000000000000e+00 0.0000000000000000e+00 0.0000000000000000e+00 
0.0000000000000000e+00 0.0000000000000000e+00 0.0000000000000000e+00 
0.0000000000000000e+00 0.0000000000000000e+00 0.0000000000000000e+00 

VECTORS DisplacementDeltas0 float
-3.2862084741226336e-318 0.0000000000000000e+00 0.0000000000000000e+00 
3.0323692530592559e-03 0.0000000000000000e+00 9.7556183015975627e-04 
3.3996583624656350e-03 0.0000000000000000e+00 9.0283489424743991e-04 
1.2021005752295131e-03 0.0000000000000000e+00 -8.6059228928065778e-04 
1.0033274713611886e-03 0.0000000000000000e+00 1.8638545120699862e-04 
2.6506477268280551e-04 0.0000000000000000e+00 1.3815364091166566e-04 
2.3335072277996371e-04 0.0000000000000000e+00 8.0792715875688286e-05 
9.7792319845959653e-04 0.0000000000000000e+00 1.8829984977411220e-04 
2.1619744252301303e-03 0.0000000000000000e+00 -5.0943508926900422e-05 
1.8590351545766204e-03 0.0000000000000000e+00 2.4414991140313665e-04 
2.1891792316526600e-03 0.0000000000000000e+00 4.8864150588748094e-06 
2.4223032919719729e-03 0.0000000000000000e+00 -3.6272408440823125e-04 
1.2245796712077963e-03 0.0000000000000000e+00 -2.2259357320445763e-04 
1.7291500873613411e-03 0.0000000000000000e+00 4.9412471280059489e-04 
1.7006245887608773e-03 0.0000000000000000e+00 4.1844158461687073e-04 
1.1347302520100203e-03 0.0000000000000000e+00 -8.4411199740541275e-05 
8.0289009811959308e-04 0.0000000000000000e+00 3.6698131275754409e-04 
4.0543524162226711e-04 0.0000000000000000e+00 -1.3263761509284987e-04 
1.1888099158185815e-04 0.0000000000000000e+00 -3.6858214301422790e-06 
5.5889117332832462e-04 0.0000000000000000e+00 1.5072983275001434e-04 
5.8087993721672325e-04 0.0000000000000000e+00 1.4892224465425262e-04 
8.9959043785825223e-05 0.0000000000000000e+00 4.6818051951444684e-05 
3.7800118721086995e-04 0.0000000000000000e+00 7.7989902365019703e-05 
1.2243753667197431e-04 0.0000000000000000e+00 2.1282732774459455e-05 
6.8307097787471976e-05 0.0000000000000000e+00 1.1068334255485613e-04 
3.4434575465015831e-04 0.0000000000000000e+00 6.6365220107629774e-05 
2.2769381070140884e-04 0.0000000000000000e+00 2.4022409228176660e-04 
2.7643478480558862e-04 0.0000000000000000e+00 2.7207184259709944e-04 
3.4991509568196643e-04 0.0000000000000000e+00 1.0523939323774455e-04 
5.2546220877664742e-04 0.0000000000000000e+00 2.4839799448499327e-05 
5.0117250607675692e-04 0.0000000000000000e+00 3.2294180551493481e-05 
3.2881481741261191e-04 0.0000000000000000e+00 9.7593450156845568e-05 
7.9502621612376223e-05 0.0000000000000000e+00 7.3295861712097818e-05 
3.4772311280390313e-04 0.0000000000000000e+00 5.1896357266691213e-05 
3.7403893565506161e-04 0.0000000000000000e+00 3.1204088966626460e-05 
1.0976219348479021e-04 0.0000000000000000e+00 5.5559968472454774e-05 
4.2053836956726587e-04 0.0000000000000000e+00 -3.0724252096742691e-05 
3.6054050732616314e-04 0.0000000000000000e+00 -3.0298312436220654e-05 
4.5823282004354819e-04 0.0000000000000000e+00 -1.5402347589597797e-05 
4.6691048740853651e-04 0.0000000000000000e+00 2.0426796889728864e-05 
4.6593759077476259e-04 0.0000000000000000e+00 2.2271483442827963e-05 
4.5875126736451646e-04 0.0000000000000000e+00 -1.8079866671746645e-05 
3.0986969143024297e-04 0.0000000000000000e+00 2.3983583702752108e-05 
3.3862297308064868e-04 0.0000000000000000e+00 3.6928782197037240e-05 
3.4004848956423672e-04 0.0000000000000000e+00 3.2869463267750509e-05 
3.1038811643286529e-04 0.0000000000000000e+00 2.6106055193780343e-05 
2.8160870087801625e-04 0.0000000000000000e+00 2.0949684764613287e-05 
2.6676867741427573e-04 0.0000000000000000e+00 6.0174097623194668e-06 
0.0000000000000000e+00 0.0000000000000000e+00 0.0000000000000000e+00 
0.0000000000000000e+00 0.0000000000000000e+00 0.0000000000000000e+00 
0.0000000000000000e+00 0.0000000000000000e+00 0.0000000000000000e+00 
0.0000000000000000e+00 0.0000000000000000e+00 0.0000000000000000e+00 
1.5578421190061623e-04 0.0000000000000000e+00 -8.9369658544485549e-05 
1.5807033878609107e-04 0.0000000000000000e+00 7.9882742009273637e-05 
1.5805623215905739e-04 0.0000000000000000e+00 7.9710402792624539e-05 
1.5564611903892646e-04 0.0000000000000000e+00 -8.9099407114185905e-05 
0.0000000000000000e+00 0.0000000000000000e+00 0.0000000000000000e+00 
0.0000000000000000e+00 0.0000000000000000e+00 0.0000000000000000e+00 

VECTORS Forces0 float
7.0039063563876924e+00 -1.2305837008476289e-01 3.2658343153230174e+00 
-2.6628219539017894e-02 -2.3011182673870383e-04 1.3088982544837896e-02 
-1.8076982209399819e-01 -3.1086172325400470e-04 9.2667724893772577e-02 
6.8574421472151670e+00 -1.2018723613991815e-01 3.1940118142997163e+00 
-1.8699832518894020e+00 4.0701181297776523e-03 4.6588382851853799e-03 
4.9840642018345083e+00 4.0145456829252411e-03 -8.1964608539013717e-02 
5.1089288302723048e+00 4.1155922508753044e-03 -8.2836303991978597e-02 
-1.9471423229368097e+00 4.1448052330424175e-03 2.1928787930580229e-02 
0.0000000000000000e+00 0.0000000000000000e+00 0.0000000000000000e+00 
0.0000000000000000e+00 0.0000000000000000e+00 0.0000000000000000e+00 
0.0000000000000000e+00 0.0000000000000000e+00 0.0000000000000000e+00 
0.0000000000000000e+00 0.0000000000000000e+00 0.0000000000000000e+00 
0.0000000000000000e+00 0.0000000000000000e+00 0.0000000000000000e+00 
0.0000000000000000e+00 0.0000000000000000e+00 0.0000000000000000e+00 
0.0000000000000000e+00 0.0000000000000000e+00 0.0000000000000000e+00 
0.0000000000000000e+00 0.0000000000000000e+00 0.0000000000000000e+00 
0.0000000000000000e+00 0.0000000000000000e+00 0.0000000000000000e+00 
0.0000000000000000e+00 0.0000000000000000e+00 0.0000000000000000e+00 
1.5176709539636632e+00 1.0380265846121527e-04 -2.8788172886130845e-03 
1.8359451277156928e+00 -6.2281826603085590e-05 -3.9235176268976341e-03 
1.8093485154902573e+00 -6.2638761831195004e-05 -3.1801817814752003e-03 
1.5185417478358936e+00 1.0363788808228871e-04 -2.2725297653474457e-03 
0.0000000000000000e+00 0.0000000000000000e+00 0.0000000000000000e+00 
0.0000000000000000e+00 0.0000000000000000e+00 0.0000000000000000e+00 
0.0000000000000000e+00 0.0000000000000000e+00 0.0000000000000000e+00 
0.0000000000000000e+00 0.0000000000000000e+00 0.0000000000000000e+00 
0.0000000000000000e+00 0.0000000000000000e+00 0.0000000000000000e+00 
0.0000000000000000e+00 0.0000000000000000e+00 0.0000000000000000e+00 
7.5048010386267361e-01 3.9803314599244074e-05 5.3891748833572329e-04 
2.2738744020138473e+00 8.2568923449317705e-05 7.9456594000398470e-04 
2.2730515187434035e+00 8.2606554850250057e-05 5.7877988565964694e-04 
7.4927866290222878e-01 3.9767330560813437e-05 5.0838675961381488e-04 
0.0000000000000000e+00 0.0000000000000000e+00 0.0000000000000000e+00 
0.0000000000000000e+00 0.0000000000000000e+00 0.0000000000000000e+00 
0.0000000000000000e+00 0.0000000000000000e+00 0.0000000000000000e+00 
0.0000000000000000e+00 0.0000000000000000e+00 0.0000000000000000e+00 
0.0000000000000000e+00 0.0000000000000000e+00 0.0000000000000000e+00 
0.0000000000000000e+00 0.0000000000000000e+00 0.0000000000000000e+00 
3.6623170877081301e-01 7.0959374906147311e-06 -1.0442134260405110e-03 
3.3562030278697259e+00 6.0131901277182772e-05 -1.0217883084943169e-02 
3.3520075742489808e+00 6.0100276165131132e-05 -1.0101706149530230e-02 
3.6752764334825083e-01 7.0831963784775127e-06 -1.0284992828900083e-03 
0.0000000000000000e+00 0.0000000000000000e+00 0.0000000000000000e+00 
0.0000000000000000e+00 0.0000000000000000e+00 0.0000000000000000e+00 
0.0000000000000000e+00 0.0000000000000000e+00 0.0000000000000000e+00 
0.0000000000000000e+00 0.0000000000000000e+00 0.0000000000000000e+00 
0.0000000000000000e+00 0.0000000000000000e+00 0.0000000000000000e+00 
0.0000000000000000e+00 0.0000000000000000e+00 0.0000000000000000e+00 
3.6025204013440087e-01 5.3264195091455165e-07 -2.1299889882152052e-03 
1.4142517626922284e+00 3.4586267055600976e-06 -9.7911404651850695e-03 
1.4145694119344361e+00 3.4586091529592118e-06 -9.7817731550233385e-03 
3.6290252044555349e-01 5.3508284684363168e-07 -2.1372351621384992e-03 
0.0000000000000000e+00 0.0000000000000000e+00 0.0000000000000000e+00 
0.0000000000000000e+00 0.0000000000000000e+00 0.0000000000000000e+00 
0.0000000000000000e+00 0.0000000000000000e+00 0.0000000000000000e+00 
0.0000000000000000e+00 0.0000000000000000e+00 0.0000000000000000e+00 
0.0000000000000000e+00 0.0000000000000000e+00 0.0000000000000000e+00 
0.0000000000000000e+00 0.0000000000000000e+00 0.0000000000000000e+00 

