# vtk DataFile Version 2.0

ASCII

DATASET UNSTRUCTURED_GRID

POINTS 58 float 

5.0000000000000003e-02  0.0000000000000000e+00  1.0000000000000000e+00
-5.0000000000000003e-02  0.0000000000000000e+00  1.0000000000000000e+00
-5.0000000000000003e-02  2.9999999999999999e-01  1.0000000000000000e+00
5.0000000000000003e-02  2.9999999999999999e-01  1.0000000000000000e+00
5.0000000000000003e-02  0.0000000000000000e+00  8.0000000000000004e-01
-5.0000000000000003e-02  0.0000000000000000e+00  8.0000000000000004e-01
-5.0000000000000003e-02  2.9999999999999999e-01  8.0000000000000004e-01
5.0000000000000003e-02  2.9999999999999999e-01  8.0000000000000004e-01
0.0000000000000000e+00  0.0000000000000000e+00  1.0000000000000000e+00
-5.0000000000000003e-02  1.4999999999999999e-01  1.0000000000000000e+00
0.0000000000000000e+00  2.9999999999999999e-01  1.0000000000000000e+00
5.0000000000000003e-02  1.4999999999999999e-01  1.0000000000000000e+00
5.0000000000000003e-02  0.0000000000000000e+00  9.0000000000000002e-01
-5.0000000000000003e-02  0.0000000000000000e+00  9.0000000000000002e-01
-5.0000000000000003e-02  2.9999999999999999e-01  9.0000000000000002e-01
5.0000000000000003e-02  2.9999999999999999e-01  9.0000000000000002e-01
-5.0000000000000003e-02  1.4999999999999999e-01  8.0000000000000004e-01
5.0000000000000003e-02  1.4999999999999999e-01  8.0000000000000004e-01
5.0000000000000003e-02  0.0000000000000000e+00  5.9999999999999998e-01
-5.0000000000000003e-02  0.0000000000000000e+00  5.9999999999999998e-01
-5.0000000000000003e-02  2.9999999999999999e-01  5.9999999999999998e-01
5.0000000000000003e-02  2.9999999999999999e-01  5.9999999999999998e-01
5.0000000000000003e-02  0.0000000000000000e+00  6.9999999999999996e-01
-5.0000000000000003e-02  0.0000000000000000e+00  6.9999999999999996e-01
-5.0000000000000003e-02  2.9999999999999999e-01  6.9999999999999996e-01
5.0000000000000003e-02  2.9999999999999999e-01  6.9999999999999996e-01
-5.0000000000000003e-02  1.4999999999999999e-01  5.9999999999999998e-01
5.0000000000000003e-02  1.4999999999999999e-01  5.9999999999999998e-01
5.0000000000000003e-02  0.0000000000000000e+00  4.0000000000000002e-01
-5.0000000000000003e-02  0.0000000000000000e+00  4.0000000000000002e-01
-5.0000000000000003e-02  2.9999999999999999e-01  4.0000000000000002e-01
5.0000000000000003e-02  2.9999999999999999e-01  4.0000000000000002e-01
5.0000000000000003e-02  0.0000000000000000e+00  5.0000000000000000e-01
-5.0000000000000003e-02  0.0000000000000000e+00  5.0000000000000000e-01
-5.0000000000000003e-02  2.9999999999999999e-01  5.0000000000000000e-01
5.0000000000000003e-02  2.9999999999999999e-01  5.0000000000000000e-01
-5.0000000000000003e-02  1.4999999999999999e-01  4.0000000000000002e-01
5.0000000000000003e-02  1.4999999999999999e-01  4.0000000000000002e-01
5.0000000000000003e-02  0.0000000000000000e+00  2.0000000000000001e-01
-5.0000000000000003e-02  0.0000000000000000e+00  2.0000000000000001e-01
-5.0000000000000003e-02  2.9999999999999999e-01  2.0000000000000001e-01
5.0000000000000003e-02  2.9999999999999999e-01  2.0000000000000001e-01
5.0000000000000003e-02  0.0000000000000000e+00  2.9999999999999999e-01
-5.0000000000000003e-02  0.0000000000000000e+00  2.9999999999999999e-01
-5.0000000000000003e-02  2.9999999999999999e-01  2.9999999999999999e-01
5.0000000000000003e-02  2.9999999999999999e-01  2.9999999999999999e-01
-5.0000000000000003e-02  1.4999999999999999e-01  2.0000000000000001e-01
5.0000000000000003e-02  1.4999999999999999e-01  2.0000000000000001e-01
5.0000000000000003e-02  0.0000000000000000e+00  0.0000000000000000e+00
-5.0000000000000003e-02  0.0000000000000000e+00  0.0000000000000000e+00
-5.0000000000000003e-02  2.9999999999999999e-01  0.0000000000000000e+00
5.0000000000000003e-02  2.9999999999999999e-01  0.0000000000000000e+00
5.0000000000000003e-02  0.0000000000000000e+00  1.0000000000000001e-01
-5.0000000000000003e-02  0.0000000000000000e+00  1.0000000000000001e-01
-5.0000000000000003e-02  2.9999999999999999e-01  1.0000000000000001e-01
5.0000000000000003e-02  2.9999999999999999e-01  1.0000000000000001e-01
-5.0000000000000003e-02  1.4999999999999999e-01  0.0000000000000000e+00
5.0000000000000003e-02  1.4999999999999999e-01  0.0000000000000000e+00

CELLS 0 0


CELL_TYPES 0


POINT_DATA 58

VECTORS VertexNormals float

0.0000000000000000e+00 0.0000000000000000e+00 0.0000000000000000e+00 
0.0000000000000000e+00 0.0000000000000000e+00 0.0000000000000000e+00 
0.0000000000000000e+00 0.0000000000000000e+00 0.0000000000000000e+00 
0.0000000000000000e+00 0.0000000000000000e+00 0.0000000000000000e+00 
0.0000000000000000e+00 0.0000000000000000e+00 0.0000000000000000e+00 
0.0000000000000000e+00 0.0000000000000000e+00 0.0000000000000000e+00 
0.0000000000000000e+00 0.0000000000000000e+00 0.0000000000000000e+00 
0.0000000000000000e+00 0.0000000000000000e+00 0.0000000000000000e+00 
0.0000000000000000e+00 0.0000000000000000e+00 0.0000000000000000e+00 
0.0000000000000000e+00 0.0000000000000000e+00 0.0000000000000000e+00 
0.0000000000000000e+00 0.0000000000000000e+00 0.0000000000000000e+00 
0.0000000000000000e+00 0.0000000000000000e+00 0.0000000000000000e+00 
0.0000000000000000e+00 0.0000000000000000e+00 0.0000000000000000e+00 
0.0000000000000000e+00 0.0000000000000000e+00 0.0000000000000000e+00 
0.0000000000000000e+00 0.0000000000000000e+00 0.0000000000000000e+00 
0.0000000000000000e+00 0.0000000000000000e+00 0.0000000000000000e+00 
0.0000000000000000e+00 0.0000000000000000e+00 0.0000000000000000e+00 
0.0000000000000000e+00 0.0000000000000000e+00 0.0000000000000000e+00 
0.0000000000000000e+00 0.0000000000000000e+00 0.0000000000000000e+00 
0.0000000000000000e+00 0.0000000000000000e+00 0.0000000000000000e+00 
0.0000000000000000e+00 0.0000000000000000e+00 0.0000000000000000e+00 
0.0000000000000000e+00 0.0000000000000000e+00 0.0000000000000000e+00 
0.0000000000000000e+00 0.0000000000000000e+00 0.0000000000000000e+00 
0.0000000000000000e+00 0.0000000000000000e+00 0.0000000000000000e+00 
0.0000000000000000e+00 0.0000000000000000e+00 0.0000000000000000e+00 
0.0000000000000000e+00 0.0000000000000000e+00 0.0000000000000000e+00 
0.0000000000000000e+00 0.0000000000000000e+00 0.0000000000000000e+00 
0.0000000000000000e+00 0.0000000000000000e+00 0.0000000000000000e+00 
0.0000000000000000e+00 0.0000000000000000e+00 0.0000000000000000e+00 
0.0000000000000000e+00 0.0000000000000000e+00 0.0000000000000000e+00 
0.0000000000000000e+00 0.0000000000000000e+00 0.0000000000000000e+00 
0.0000000000000000e+00 0.0000000000000000e+00 0.0000000000000000e+00 
0.0000000000000000e+00 0.0000000000000000e+00 0.0000000000000000e+00 
0.0000000000000000e+00 0.0000000000000000e+00 0.0000000000000000e+00 
0.0000000000000000e+00 0.0000000000000000e+00 0.0000000000000000e+00 
0.0000000000000000e+00 0.0000000000000000e+00 0.0000000000000000e+00 
0.0000000000000000e+00 0.0000000000000000e+00 0.0000000000000000e+00 
0.0000000000000000e+00 0.0000000000000000e+00 0.0000000000000000e+00 
0.0000000000000000e+00 0.0000000000000000e+00 0.0000000000000000e+00 
0.0000000000000000e+00 0.0000000000000000e+00 0.0000000000000000e+00 
0.0000000000000000e+00 0.0000000000000000e+00 0.0000000000000000e+00 
0.0000000000000000e+00 0.0000000000000000e+00 0.0000000000000000e+00 
0.0000000000000000e+00 0.0000000000000000e+00 0.0000000000000000e+00 
0.0000000000000000e+00 0.0000000000000000e+00 0.0000000000000000e+00 
0.0000000000000000e+00 0.0000000000000000e+00 0.0000000000000000e+00 
0.0000000000000000e+00 0.0000000000000000e+00 0.0000000000000000e+00 
0.0000000000000000e+00 0.0000000000000000e+00 0.0000000000000000e+00 
0.0000000000000000e+00 0.0000000000000000e+00 0.0000000000000000e+00 
0.0000000000000000e+00 0.0000000000000000e+00 0.0000000000000000e+00 
0.0000000000000000e+00 0.0000000000000000e+00 0.0000000000000000e+00 
0.0000000000000000e+00 0.0000000000000000e+00 0.0000000000000000e+00 
0.0000000000000000e+00 0.0000000000000000e+00 0.0000000000000000e+00 
0.0000000000000000e+00 0.0000000000000000e+00 0.0000000000000000e+00 
0.0000000000000000e+00 0.0000000000000000e+00 0.0000000000000000e+00 
0.0000000000000000e+00 0.0000000000000000e+00 0.0000000000000000e+00 
0.0000000000000000e+00 0.0000000000000000e+00 0.0000000000000000e+00 
0.0000000000000000e+00 0.0000000000000000e+00 0.0000000000000000e+00 
0.0000000000000000e+00 0.0000000000000000e+00 0.0000000000000000e+00 

VECTORS DisplacementDeltas0 float
-1.7348028209294522e-318 0.0000000000000000e+00 0.0000000000000000e+00 
8.9612964608565774e-03 0.0000000000000000e+00 3.8873292312129179e-05 
9.1292057579559199e-03 0.0000000000000000e+00 6.2068459603562432e-05 
8.0875940246688018e-03 0.0000000000000000e+00 -2.2498116846855669e-03 
3.6013146707014393e-03 0.0000000000000000e+00 -1.9916045412685639e-03 
3.6551254544683540e-03 0.0000000000000000e+00 1.0908547861837752e-03 
3.4158745249006275e-03 0.0000000000000000e+00 1.1708182569651702e-03 
3.4037131416076250e-03 0.0000000000000000e+00 -1.9826959756370469e-03 
8.7482749238448603e-03 0.0000000000000000e+00 -1.1305714276625279e-03 
9.3009680603940020e-03 0.0000000000000000e+00 4.9053008268484365e-04 
8.6744436480423771e-03 0.0000000000000000e+00 -1.2414227673249454e-03 
9.3658786168901859e-03 0.0000000000000000e+00 -2.7252168096792415e-03 
5.9321263435680796e-03 0.0000000000000000e+00 -2.1840106925115174e-03 
6.6484301681701777e-03 0.0000000000000000e+00 4.6898794669112580e-04 
6.3695169861696359e-03 0.0000000000000000e+00 8.2980272160022720e-04 
5.4820942923739843e-03 0.0000000000000000e+00 -2.1092971782980998e-03 
3.9786553671282837e-03 0.0000000000000000e+00 1.0012697769651484e-03 
3.5387096351945880e-03 0.0000000000000000e+00 -1.4973155016721361e-03 
4.4375595047123156e-04 0.0000000000000000e+00 -2.5009409021511746e-04 
6.7487202233827421e-04 0.0000000000000000e+00 1.3394929801905324e-04 
6.6282503758309562e-04 0.0000000000000000e+00 1.2280412458339976e-04 
4.0978880990757993e-04 0.0000000000000000e+00 -1.4063701212256444e-04 
1.4402284824179051e-03 0.0000000000000000e+00 -9.3693173270311065e-04 
1.4649567997282122e-03 0.0000000000000000e+00 7.8818824177349684e-04 
1.4581827569200155e-03 0.0000000000000000e+00 6.1682732524470283e-04 
1.4722521063635324e-03 0.0000000000000000e+00 -7.7756255811600890e-04 
6.2871142959404556e-04 0.0000000000000000e+00 2.4738032589318435e-04 
5.2345076400830124e-04 0.0000000000000000e+00 -2.1878216887286870e-04 
-9.0386017536114079e-05 0.0000000000000000e+00 1.6035291363935097e-04 
1.6836287960386937e-04 0.0000000000000000e+00 9.9886864592220692e-05 
2.7540130085206916e-04 0.0000000000000000e+00 4.4406541662923317e-05 
-3.1625205971495905e-05 0.0000000000000000e+00 1.2074257110194413e-04 
9.5439362852244676e-05 0.0000000000000000e+00 -1.1600302626366360e-05 
1.4657688481572355e-04 0.0000000000000000e+00 9.0164847444728174e-05 
1.0198537116756692e-04 0.0000000000000000e+00 1.3877140922530139e-04 
4.8077458646182984e-05 0.0000000000000000e+00 -4.8572026553620449e-05 
4.1626262555492853e-04 0.0000000000000000e+00 -5.6591167432729913e-05 
3.2885364949598135e-04 0.0000000000000000e+00 3.4731973266041900e-05 
1.6122866848798721e-04 0.0000000000000000e+00 -1.6836330211368432e-04 
2.2469423600263768e-04 0.0000000000000000e+00 -2.5695737587508706e-05 
1.8097402010021574e-04 0.0000000000000000e+00 -3.2420722503132915e-05 
8.3180897614000245e-05 0.0000000000000000e+00 -1.5463293523857829e-04 
1.3655502220301114e-04 0.0000000000000000e+00 -1.0640393756949158e-05 
2.4805371455996982e-04 0.0000000000000000e+00 -5.4658706370526921e-05 
2.3346333656737526e-04 0.0000000000000000e+00 -7.8019916150778639e-05 
1.5726086524144056e-04 0.0000000000000000e+00 -5.2963942349094022e-05 
4.2296838460833121e-04 0.0000000000000000e+00 4.1183545959463106e-05 
3.8418151772746630e-04 0.0000000000000000e+00 -1.6482281185805476e-04 
0.0000000000000000e+00 0.0000000000000000e+00 0.0000000000000000e+00 
0.0000000000000000e+00 0.0000000000000000e+00 0.0000000000000000e+00 
0.0000000000000000e+00 0.0000000000000000e+00 0.0000000000000000e+00 
0.0000000000000000e+00 0.0000000000000000e+00 0.0000000000000000e+00 
-1.8587429740057968e-05 0.0000000000000000e+00 -1.9220949825714525e-04 
-9.5084598470676282e-06 0.0000000000000000e+00 -1.1895292448162306e-05 
2.3455358628098489e-05 0.0000000000000000e+00 -7.0362616049749437e-05 
1.6101895638753944e-05 0.0000000000000000e+00 -2.1731276667482036e-04 
0.0000000000000000e+00 0.0000000000000000e+00 0.0000000000000000e+00 
0.0000000000000000e+00 0.0000000000000000e+00 0.0000000000000000e+00 

VECTORS Forces0 float
7.2805255006625700e+00 -9.1391572092602513e-01 2.1949471540709906e+00 
-2.7698940015922519e-01 -6.8358612016984133e-04 1.3515603505556706e-01 
-1.1093005545752108e+00 -3.4012145426286608e-03 7.1728681226605429e-01 
6.0741983874669954e+00 -7.6714782303518958e-01 1.8130683869984086e+00 
-2.1047055065804288e+00 4.0396543348872355e-02 5.1011755544203875e-02 
2.2211227701407856e+00 8.6189784570703948e-03 -2.9985253143675705e-01 
2.7455481308427121e+00 1.0495785679178138e-02 -3.6261614109904500e-01 
-1.9938140233013149e+00 3.8560702380631598e-02 1.8312019604826330e-01 
0.0000000000000000e+00 0.0000000000000000e+00 0.0000000000000000e+00 
0.0000000000000000e+00 0.0000000000000000e+00 0.0000000000000000e+00 
0.0000000000000000e+00 0.0000000000000000e+00 0.0000000000000000e+00 
0.0000000000000000e+00 0.0000000000000000e+00 0.0000000000000000e+00 
0.0000000000000000e+00 0.0000000000000000e+00 0.0000000000000000e+00 
0.0000000000000000e+00 0.0000000000000000e+00 0.0000000000000000e+00 
0.0000000000000000e+00 0.0000000000000000e+00 0.0000000000000000e+00 
0.0000000000000000e+00 0.0000000000000000e+00 0.0000000000000000e+00 
0.0000000000000000e+00 0.0000000000000000e+00 0.0000000000000000e+00 
0.0000000000000000e+00 0.0000000000000000e+00 0.0000000000000000e+00 
1.3685066671443702e+00 9.9689604388925935e-04 -5.5488447746607918e-02 
2.1340733021218283e+00 1.4181679662190639e-03 -8.6056316898648233e-02 
2.0881939090441728e+00 1.3904498241874052e-03 -8.0558110846819589e-02 
1.4717366643732306e+00 1.0626414656916151e-03 -5.6535478566999080e-02 
0.0000000000000000e+00 0.0000000000000000e+00 0.0000000000000000e+00 
0.0000000000000000e+00 0.0000000000000000e+00 0.0000000000000000e+00 
0.0000000000000000e+00 0.0000000000000000e+00 0.0000000000000000e+00 
0.0000000000000000e+00 0.0000000000000000e+00 0.0000000000000000e+00 
0.0000000000000000e+00 0.0000000000000000e+00 0.0000000000000000e+00 
0.0000000000000000e+00 0.0000000000000000e+00 0.0000000000000000e+00 
1.0123997026378480e+00 -1.2689303670365058e-04 -5.4364073587875438e-04 
1.8400266715534519e+00 -2.1078705680889351e-04 2.2945360595730485e-05 
1.8051513069665677e+00 -2.0907975236145296e-04 7.9905902753495670e-05 
9.5422797337431531e-01 -1.2152795928033380e-04 -5.0385711610759340e-04 
0.0000000000000000e+00 0.0000000000000000e+00 0.0000000000000000e+00 
0.0000000000000000e+00 0.0000000000000000e+00 0.0000000000000000e+00 
0.0000000000000000e+00 0.0000000000000000e+00 0.0000000000000000e+00 
0.0000000000000000e+00 0.0000000000000000e+00 0.0000000000000000e+00 
0.0000000000000000e+00 0.0000000000000000e+00 0.0000000000000000e+00 
0.0000000000000000e+00 0.0000000000000000e+00 0.0000000000000000e+00 
5.3259533270693604e-01 5.6032155857029216e-05 -5.7439583486110623e-03 
3.0881172288490726e+00 2.3738070908887535e-05 -3.6571903860302124e-02 
3.1118370986400246e+00 2.3096387343622519e-05 -3.7094034812881600e-02 
5.5348759397207670e-01 5.5169604796147360e-05 -6.0319372483921057e-03 
0.0000000000000000e+00 0.0000000000000000e+00 0.0000000000000000e+00 
0.0000000000000000e+00 0.0000000000000000e+00 0.0000000000000000e+00 
0.0000000000000000e+00 0.0000000000000000e+00 0.0000000000000000e+00 
0.0000000000000000e+00 0.0000000000000000e+00 0.0000000000000000e+00 
0.0000000000000000e+00 0.0000000000000000e+00 0.0000000000000000e+00 
0.0000000000000000e+00 0.0000000000000000e+00 0.0000000000000000e+00 
4.8854314918382452e-01 1.7241374234082596e-05 -8.1382964516516724e-03 
1.3485492142258748e+00 1.3583304056507603e-05 -2.4233099364015905e-02 
1.3436209012254592e+00 1.3616350278023653e-05 -2.4106709879240067e-02 
4.8058735607629216e-01 1.7253323380641735e-05 -7.9554800497696372e-03 
0.0000000000000000e+00 0.0000000000000000e+00 0.0000000000000000e+00 
0.0000000000000000e+00 0.0000000000000000e+00 0.0000000000000000e+00 
0.0000000000000000e+00 0.0000000000000000e+00 0.0000000000000000e+00 
0.0000000000000000e+00 0.0000000000000000e+00 0.0000000000000000e+00 
0.0000000000000000e+00 0.0000000000000000e+00 0.0000000000000000e+00 
0.0000000000000000e+00 0.0000000000000000e+00 0.0000000000000000e+00 

