# vtk DataFile Version 2.0

ASCII

DATASET UNSTRUCTURED_GRID

POINTS 58 double 

5.0000000000000003e-02  0.0000000000000000e+00  1.0000000000000000e+00
-5.0000000000000003e-02  0.0000000000000000e+00  1.0000000000000000e+00
-5.0000000000000003e-02  2.9999999999999999e-01  1.0000000000000000e+00
5.0000000000000003e-02  2.9999999999999999e-01  1.0000000000000000e+00
5.0000000000000003e-02  0.0000000000000000e+00  8.0000000000000004e-01
-5.0000000000000003e-02  0.0000000000000000e+00  8.0000000000000004e-01
-5.0000000000000003e-02  2.9999999999999999e-01  8.0000000000000004e-01
5.0000000000000003e-02  2.9999999999999999e-01  8.0000000000000004e-01
0.0000000000000000e+00  0.0000000000000000e+00  1.0000000000000000e+00
-5.0000000000000003e-02  1.4999999999999999e-01  1.0000000000000000e+00
0.0000000000000000e+00  2.9999999999999999e-01  1.0000000000000000e+00
5.0000000000000003e-02  1.4999999999999999e-01  1.0000000000000000e+00
5.0000000000000003e-02  0.0000000000000000e+00  9.0000000000000002e-01
-5.0000000000000003e-02  0.0000000000000000e+00  9.0000000000000002e-01
-5.0000000000000003e-02  2.9999999999999999e-01  9.0000000000000002e-01
5.0000000000000003e-02  2.9999999999999999e-01  9.0000000000000002e-01
-5.0000000000000003e-02  1.4999999999999999e-01  8.0000000000000004e-01
5.0000000000000003e-02  1.4999999999999999e-01  8.0000000000000004e-01
5.0000000000000003e-02  0.0000000000000000e+00  5.9999999999999998e-01
-5.0000000000000003e-02  0.0000000000000000e+00  5.9999999999999998e-01
-5.0000000000000003e-02  2.9999999999999999e-01  5.9999999999999998e-01
5.0000000000000003e-02  2.9999999999999999e-01  5.9999999999999998e-01
5.0000000000000003e-02  0.0000000000000000e+00  6.9999999999999996e-01
-5.0000000000000003e-02  0.0000000000000000e+00  6.9999999999999996e-01
-5.0000000000000003e-02  2.9999999999999999e-01  6.9999999999999996e-01
5.0000000000000003e-02  2.9999999999999999e-01  6.9999999999999996e-01
-5.0000000000000003e-02  1.4999999999999999e-01  5.9999999999999998e-01
5.0000000000000003e-02  1.4999999999999999e-01  5.9999999999999998e-01
5.0000000000000003e-02  0.0000000000000000e+00  4.0000000000000002e-01
-5.0000000000000003e-02  0.0000000000000000e+00  4.0000000000000002e-01
-5.0000000000000003e-02  2.9999999999999999e-01  4.0000000000000002e-01
5.0000000000000003e-02  2.9999999999999999e-01  4.0000000000000002e-01
5.0000000000000003e-02  0.0000000000000000e+00  5.0000000000000000e-01
-5.0000000000000003e-02  0.0000000000000000e+00  5.0000000000000000e-01
-5.0000000000000003e-02  2.9999999999999999e-01  5.0000000000000000e-01
5.0000000000000003e-02  2.9999999999999999e-01  5.0000000000000000e-01
-5.0000000000000003e-02  1.4999999999999999e-01  4.0000000000000002e-01
5.0000000000000003e-02  1.4999999999999999e-01  4.0000000000000002e-01
5.0000000000000003e-02  0.0000000000000000e+00  2.0000000000000001e-01
-5.0000000000000003e-02  0.0000000000000000e+00  2.0000000000000001e-01
-5.0000000000000003e-02  2.9999999999999999e-01  2.0000000000000001e-01
5.0000000000000003e-02  2.9999999999999999e-01  2.0000000000000001e-01
5.0000000000000003e-02  0.0000000000000000e+00  2.9999999999999999e-01
-5.0000000000000003e-02  0.0000000000000000e+00  2.9999999999999999e-01
-5.0000000000000003e-02  2.9999999999999999e-01  2.9999999999999999e-01
5.0000000000000003e-02  2.9999999999999999e-01  2.9999999999999999e-01
-5.0000000000000003e-02  1.4999999999999999e-01  2.0000000000000001e-01
5.0000000000000003e-02  1.4999999999999999e-01  2.0000000000000001e-01
5.0000000000000003e-02  0.0000000000000000e+00  0.0000000000000000e+00
-5.0000000000000003e-02  0.0000000000000000e+00  0.0000000000000000e+00
-5.0000000000000003e-02  2.9999999999999999e-01  0.0000000000000000e+00
5.0000000000000003e-02  2.9999999999999999e-01  0.0000000000000000e+00
5.0000000000000003e-02  0.0000000000000000e+00  1.0000000000000001e-01
-5.0000000000000003e-02  0.0000000000000000e+00  1.0000000000000001e-01
-5.0000000000000003e-02  2.9999999999999999e-01  1.0000000000000001e-01
5.0000000000000003e-02  2.9999999999999999e-01  1.0000000000000001e-01
-5.0000000000000003e-02  1.4999999999999999e-01  0.0000000000000000e+00
5.0000000000000003e-02  1.4999999999999999e-01  0.0000000000000000e+00

CELLS 0 0


CELL_TYPES 0


POINT_DATA 58

VECTORS VertexNormals double

0.0000000000000000e+00 0.0000000000000000e+00 0.0000000000000000e+00 
0.0000000000000000e+00 0.0000000000000000e+00 0.0000000000000000e+00 
0.0000000000000000e+00 0.0000000000000000e+00 0.0000000000000000e+00 
0.0000000000000000e+00 0.0000000000000000e+00 0.0000000000000000e+00 
0.0000000000000000e+00 0.0000000000000000e+00 0.0000000000000000e+00 
0.0000000000000000e+00 0.0000000000000000e+00 0.0000000000000000e+00 
0.0000000000000000e+00 0.0000000000000000e+00 0.0000000000000000e+00 
0.0000000000000000e+00 0.0000000000000000e+00 0.0000000000000000e+00 
0.0000000000000000e+00 0.0000000000000000e+00 0.0000000000000000e+00 
0.0000000000000000e+00 0.0000000000000000e+00 0.0000000000000000e+00 
0.0000000000000000e+00 0.0000000000000000e+00 0.0000000000000000e+00 
0.0000000000000000e+00 0.0000000000000000e+00 0.0000000000000000e+00 
0.0000000000000000e+00 0.0000000000000000e+00 0.0000000000000000e+00 
0.0000000000000000e+00 0.0000000000000000e+00 0.0000000000000000e+00 
0.0000000000000000e+00 0.0000000000000000e+00 0.0000000000000000e+00 
0.0000000000000000e+00 0.0000000000000000e+00 0.0000000000000000e+00 
0.0000000000000000e+00 0.0000000000000000e+00 0.0000000000000000e+00 
0.0000000000000000e+00 0.0000000000000000e+00 0.0000000000000000e+00 
0.0000000000000000e+00 0.0000000000000000e+00 0.0000000000000000e+00 
0.0000000000000000e+00 0.0000000000000000e+00 0.0000000000000000e+00 
0.0000000000000000e+00 0.0000000000000000e+00 0.0000000000000000e+00 
0.0000000000000000e+00 0.0000000000000000e+00 0.0000000000000000e+00 
0.0000000000000000e+00 0.0000000000000000e+00 0.0000000000000000e+00 
0.0000000000000000e+00 0.0000000000000000e+00 0.0000000000000000e+00 
0.0000000000000000e+00 0.0000000000000000e+00 0.0000000000000000e+00 
0.0000000000000000e+00 0.0000000000000000e+00 0.0000000000000000e+00 
0.0000000000000000e+00 0.0000000000000000e+00 0.0000000000000000e+00 
0.0000000000000000e+00 0.0000000000000000e+00 0.0000000000000000e+00 
0.0000000000000000e+00 0.0000000000000000e+00 0.0000000000000000e+00 
0.0000000000000000e+00 0.0000000000000000e+00 0.0000000000000000e+00 
0.0000000000000000e+00 0.0000000000000000e+00 0.0000000000000000e+00 
0.0000000000000000e+00 0.0000000000000000e+00 0.0000000000000000e+00 
0.0000000000000000e+00 0.0000000000000000e+00 0.0000000000000000e+00 
0.0000000000000000e+00 0.0000000000000000e+00 0.0000000000000000e+00 
0.0000000000000000e+00 0.0000000000000000e+00 0.0000000000000000e+00 
0.0000000000000000e+00 0.0000000000000000e+00 0.0000000000000000e+00 
0.0000000000000000e+00 0.0000000000000000e+00 0.0000000000000000e+00 
0.0000000000000000e+00 0.0000000000000000e+00 0.0000000000000000e+00 
0.0000000000000000e+00 0.0000000000000000e+00 0.0000000000000000e+00 
0.0000000000000000e+00 0.0000000000000000e+00 0.0000000000000000e+00 
0.0000000000000000e+00 0.0000000000000000e+00 0.0000000000000000e+00 
0.0000000000000000e+00 0.0000000000000000e+00 0.0000000000000000e+00 
0.0000000000000000e+00 0.0000000000000000e+00 0.0000000000000000e+00 
0.0000000000000000e+00 0.0000000000000000e+00 0.0000000000000000e+00 
0.0000000000000000e+00 0.0000000000000000e+00 0.0000000000000000e+00 
0.0000000000000000e+00 0.0000000000000000e+00 0.0000000000000000e+00 
0.0000000000000000e+00 0.0000000000000000e+00 0.0000000000000000e+00 
0.0000000000000000e+00 0.0000000000000000e+00 0.0000000000000000e+00 
0.0000000000000000e+00 0.0000000000000000e+00 0.0000000000000000e+00 
0.0000000000000000e+00 0.0000000000000000e+00 0.0000000000000000e+00 
0.0000000000000000e+00 0.0000000000000000e+00 0.0000000000000000e+00 
0.0000000000000000e+00 0.0000000000000000e+00 0.0000000000000000e+00 
0.0000000000000000e+00 0.0000000000000000e+00 0.0000000000000000e+00 
0.0000000000000000e+00 0.0000000000000000e+00 0.0000000000000000e+00 
0.0000000000000000e+00 0.0000000000000000e+00 0.0000000000000000e+00 
0.0000000000000000e+00 0.0000000000000000e+00 0.0000000000000000e+00 
0.0000000000000000e+00 0.0000000000000000e+00 0.0000000000000000e+00 
0.0000000000000000e+00 0.0000000000000000e+00 0.0000000000000000e+00 

VECTORS DisplacementDeltas0 double
6.0651498683471426e-319 0.0000000000000000e+00 0.0000000000000000e+00 
1.6031255622576932e-02 0.0000000000000000e+00 -1.8622466183444049e-03 
1.6097942487789594e-02 0.0000000000000000e+00 -1.4447354741483069e-03 
1.5140076134580974e-02 0.0000000000000000e+00 -5.9155668137255797e-03 
6.1266901629335544e-03 0.0000000000000000e+00 -3.2326132924873413e-03 
7.6020214515404253e-03 0.0000000000000000e+00 1.0685943205631806e-03 
7.3499499496005229e-03 0.0000000000000000e+00 1.3965337319142329e-03 
5.9302427300967873e-03 0.0000000000000000e+00 -2.9755973869694612e-03 
1.5808529515344408e-02 0.0000000000000000e+00 -3.6244466645100550e-03 
1.6643749698169213e-02 0.0000000000000000e+00 -1.4539819994218647e-03 
1.5683133176670905e-02 0.0000000000000000e+00 -3.5252820163320119e-03 
1.5061663236211355e-02 0.0000000000000000e+00 -6.2362082614764568e-03 
1.0823908449472026e-02 0.0000000000000000e+00 -4.6967207719653134e-03 
1.2104510989459073e-02 0.0000000000000000e+00 -1.3979675592299670e-04 
1.1656929771717780e-02 0.0000000000000000e+00 1.8415272036399104e-04 
1.0365876148793446e-02 0.0000000000000000e+00 -4.4941925053386782e-03 
7.2326456959649604e-03 0.0000000000000000e+00 1.1970619864681118e-03 
6.0055210307496908e-03 0.0000000000000000e+00 -2.9250302397609150e-03 
1.1463550876280686e-03 0.0000000000000000e+00 -6.6772771499368894e-04 
1.1534214446452069e-03 0.0000000000000000e+00 8.0832219049026429e-04 
1.0736963445133992e-03 0.0000000000000000e+00 6.7502623110817883e-04 
1.1262795040782852e-03 0.0000000000000000e+00 -4.6580621649878161e-04 
2.7809752709088316e-03 0.0000000000000000e+00 -1.5852980941849205e-03 
3.2503938289603152e-03 0.0000000000000000e+00 1.3679172088003635e-03 
3.2231149771061738e-03 0.0000000000000000e+00 1.3093540620399422e-03 
2.8042142242412308e-03 0.0000000000000000e+00 -1.4826259449932605e-03 
1.0817963309446073e-03 0.0000000000000000e+00 4.6755092946600390e-04 
9.0538135357945675e-04 0.0000000000000000e+00 -6.0925909563353811e-04 
9.8945022322931286e-05 0.0000000000000000e+00 3.4721403963336830e-05 
2.6223215361492660e-05 0.0000000000000000e+00 -5.9608625936091047e-05 
1.7083791583566259e-05 0.0000000000000000e+00 4.8859889280456552e-05 
1.1445321133702517e-04 0.0000000000000000e+00 -5.7828745727944947e-05 
1.2981745385021864e-04 0.0000000000000000e+00 -2.6859873898404355e-04 
1.1350277755494439e-04 0.0000000000000000e+00 2.0548043276530066e-04 
1.4897366695332259e-04 0.0000000000000000e+00 2.5507286820028712e-04 
1.3936378415778752e-04 0.0000000000000000e+00 -2.5276783351611311e-04 
-5.0047580201495901e-05 0.0000000000000000e+00 -2.0707818509886649e-05 
-8.2764963702987998e-06 0.0000000000000000e+00 -1.8151616136640787e-04 
1.7958118786247173e-04 0.0000000000000000e+00 -1.0927641923717162e-04 
2.0864445774260816e-05 0.0000000000000000e+00 -1.5179599236692543e-04 
7.3431092729082329e-05 0.0000000000000000e+00 -8.9992953115247969e-05 
2.2407418499339549e-04 0.0000000000000000e+00 -1.0637158266867900e-05 
5.9965603651297716e-05 0.0000000000000000e+00 -1.0388681387292329e-04 
5.8981671006995678e-05 0.0000000000000000e+00 -1.6184287660085244e-04 
2.6195060008114487e-05 0.0000000000000000e+00 -1.4284704840296375e-04 
4.8714404923356179e-05 0.0000000000000000e+00 -2.6658831979464761e-05 
1.0680487543343674e-04 0.0000000000000000e+00 -1.2910831541072202e-05 
2.2017419830836762e-04 0.0000000000000000e+00 1.1115598426471361e-04 
0.0000000000000000e+00 0.0000000000000000e+00 0.0000000000000000e+00 
0.0000000000000000e+00 0.0000000000000000e+00 0.0000000000000000e+00 
0.0000000000000000e+00 0.0000000000000000e+00 0.0000000000000000e+00 
0.0000000000000000e+00 0.0000000000000000e+00 0.0000000000000000e+00 
1.8818449110876172e-04 0.0000000000000000e+00 -4.3496471470422834e-05 
1.8752434026063076e-04 0.0000000000000000e+00 1.9672244012107108e-05 
1.9758628635069947e-04 0.0000000000000000e+00 4.0131217847244312e-05 
1.5749013126155906e-04 0.0000000000000000e+00 -6.4470243203057530e-05 
0.0000000000000000e+00 0.0000000000000000e+00 0.0000000000000000e+00 
0.0000000000000000e+00 0.0000000000000000e+00 0.0000000000000000e+00 

VECTORS Forces0 double
8.1565096193697428e+00 -2.0134605889210810e+00 1.1417769021204847e+00 
-1.7287987097882754e-01 -1.5103971672652964e-03 7.7581672829093992e-02 
-1.4455846512166985e+00 -1.5691209525969585e-02 1.1631088195254917e+00 
5.3622162381415741e+00 -1.3447623305257861e+00 7.0986791808865191e-01 
-1.1383430041402598e+00 4.8737302582784137e-02 5.9397123981344412e-02 
4.0011807575453728e-01 4.3582047719888150e-03 -1.8393460675368301e-01 
1.1260534496803027e+00 9.1420281737032445e-03 -3.6639226017284210e-01 
-1.3810382462785853e+00 5.7297369929246118e-02 2.6271795293680872e-01 
0.0000000000000000e+00 0.0000000000000000e+00 0.0000000000000000e+00 
0.0000000000000000e+00 0.0000000000000000e+00 0.0000000000000000e+00 
0.0000000000000000e+00 0.0000000000000000e+00 0.0000000000000000e+00 
0.0000000000000000e+00 0.0000000000000000e+00 0.0000000000000000e+00 
0.0000000000000000e+00 0.0000000000000000e+00 0.0000000000000000e+00 
0.0000000000000000e+00 0.0000000000000000e+00 0.0000000000000000e+00 
0.0000000000000000e+00 0.0000000000000000e+00 0.0000000000000000e+00 
0.0000000000000000e+00 0.0000000000000000e+00 0.0000000000000000e+00 
0.0000000000000000e+00 0.0000000000000000e+00 0.0000000000000000e+00 
0.0000000000000000e+00 0.0000000000000000e+00 0.0000000000000000e+00 
2.1611566296696112e+00 1.8184824773327390e-03 -1.8287120216213004e-01 
2.7950359785076753e+00 2.7396457715510207e-03 -2.7187887193257759e-01 
2.6863237510115261e+00 2.6403617185243745e-03 -2.5407189831634525e-01 
2.2468272983810498e+00 1.9013948554003337e-03 -1.8587322671230702e-01 
0.0000000000000000e+00 0.0000000000000000e+00 0.0000000000000000e+00 
0.0000000000000000e+00 0.0000000000000000e+00 0.0000000000000000e+00 
0.0000000000000000e+00 0.0000000000000000e+00 0.0000000000000000e+00 
0.0000000000000000e+00 0.0000000000000000e+00 0.0000000000000000e+00 
0.0000000000000000e+00 0.0000000000000000e+00 0.0000000000000000e+00 
0.0000000000000000e+00 0.0000000000000000e+00 0.0000000000000000e+00 
1.8275410589829235e+00 1.2299084700144041e-04 -7.3790279273368365e-03 
1.9508460588363734e+00 1.8350800003833623e-04 -1.0253539221374990e-02 
1.9380863815687470e+00 1.8452745655276259e-04 -1.0183119229741206e-02 
1.7628796320655815e+00 1.1970374806305992e-04 -7.2137132527985565e-03 
0.0000000000000000e+00 0.0000000000000000e+00 0.0000000000000000e+00 
0.0000000000000000e+00 0.0000000000000000e+00 0.0000000000000000e+00 
0.0000000000000000e+00 0.0000000000000000e+00 0.0000000000000000e+00 
0.0000000000000000e+00 0.0000000000000000e+00 0.0000000000000000e+00 
0.0000000000000000e+00 0.0000000000000000e+00 0.0000000000000000e+00 
0.0000000000000000e+00 0.0000000000000000e+00 0.0000000000000000e+00 
1.1058312305689502e+00 -5.1420237855970704e-05 -1.3647255226281839e-02 
3.0643206899466691e+00 -4.6671080876275561e-04 -4.0341924956112829e-02 
3.0439069213379897e+00 -4.6427135357530688e-04 -3.9843864045442531e-02 
1.1030493166965309e+00 -5.0036473591562783e-05 -1.3555871057764665e-02 
0.0000000000000000e+00 0.0000000000000000e+00 0.0000000000000000e+00 
0.0000000000000000e+00 0.0000000000000000e+00 0.0000000000000000e+00 
0.0000000000000000e+00 0.0000000000000000e+00 0.0000000000000000e+00 
0.0000000000000000e+00 0.0000000000000000e+00 0.0000000000000000e+00 
0.0000000000000000e+00 0.0000000000000000e+00 0.0000000000000000e+00 
0.0000000000000000e+00 0.0000000000000000e+00 0.0000000000000000e+00 
6.9884347656453205e-01 -2.2548863631821285e-05 -1.5464600251558283e-02 
1.1830776533558267e+00 -7.1974388031358495e-05 -2.7538249705886648e-02 
1.1826103699036568e+00 -7.2193205996688638e-05 -2.7750318634900285e-02 
7.0231906862002080e-01 -2.2644820112364621e-05 -1.5610645944778670e-02 
0.0000000000000000e+00 0.0000000000000000e+00 0.0000000000000000e+00 
0.0000000000000000e+00 0.0000000000000000e+00 0.0000000000000000e+00 
0.0000000000000000e+00 0.0000000000000000e+00 0.0000000000000000e+00 
0.0000000000000000e+00 0.0000000000000000e+00 0.0000000000000000e+00 
0.0000000000000000e+00 0.0000000000000000e+00 0.0000000000000000e+00 
0.0000000000000000e+00 0.0000000000000000e+00 0.0000000000000000e+00 

