/*--------------------------------*- C++ -*----------------------------------*\
| =========                 |                                                 |
| \\      /  F ield         | OpenFOAM: The Open Source CFD Toolbox           |
|  \\    /   O peration     | Version:  5.x                                   |
|   \\  /    A nd           | Web:      www.OpenFOAM.org                      |
|    \\/     M anipulation  |                                                 |
\*---------------------------------------------------------------------------*/
FoamFile
{
    version     2.0;
    format      ascii;
    class       volScalarField;
    location    "0.8";
    object      p;
}
// * * * * * * * * * * * * * * * * * * * * * * * * * * * * * * * * * * * * * //

dimensions      [0 2 -2 0 0 0 0];

internalField   nonuniform List<scalar> 
2790
(
148.118
147.774
147.771
148.097
148.638
149.342
150.198
151.203
152.354
153.646
155.072
156.628
158.307
160.104
162.01
164.013
166.101
168.255
170.453
172.669
174.869
177.013
179.054
180.941
182.62
184.036
185.14
185.893
186.277
186.393
147.944
147.707
147.724
148.048
148.585
149.287
150.139
151.14
152.285
153.57
154.989
156.536
158.206
159.993
161.888
163.881
165.957
168.101
170.291
172.5
174.696
176.841
178.889
180.79
182.489
183.93
185.059
185.834
186.242
186.57
147.785
147.62
147.653
147.967
148.494
149.185
150.026
151.013
152.142
153.408
154.805
156.327
157.969
159.724
161.583
163.535
165.568
167.664
169.803
171.96
174.105
176.201
178.206
180.075
181.758
183.206
184.38
185.268
185.896
186.513
147.615
147.485
147.53
147.835
148.35
149.03
149.856
150.824
151.932
153.173
154.541
156.029
157.632
159.342
161.15
163.045
165.014
167.039
169.1
171.173
173.231
175.239
177.158
178.949
180.57
181.98
183.153
184.08
184.739
185.194
147.426
147.313
147.368
147.667
148.169
148.833
149.639
150.583
151.664
152.873
154.203
155.648
157.201
158.854
160.598
162.421
164.31
166.246
168.208
170.173
172.115
174.003
175.8
177.47
178.975
180.277
181.34
182.128
182.542
182.361
147.213
147.108
147.168
147.459
147.946
148.59
149.372
150.288
151.335
152.505
153.79
155.184
156.679
158.266
159.935
161.674
163.468
165.299
167.145
168.982
170.786
172.525
174.164
175.667
176.993
178.097
178.922
179.385
179.367
178.153
146.975
146.872
146.932
147.214
147.684
148.304
149.057
149.941
150.95
152.075
153.308
154.644
156.072
157.584
159.168
160.811
162.498
164.21
165.924
167.616
169.259
170.822
172.269
173.559
174.643
175.463
175.936
175.928
175.398
172.944
146.711
146.606
146.662
146.932
147.382
147.976
148.698
149.544
150.509
151.584
152.76
154.029
155.383
156.811
158.302
159.84
161.407
162.987
164.555
166.085
167.548
168.91
170.131
171.163
171.949
172.412
172.447
171.864
170.812
167.091
146.42
146.311
146.36
146.617
147.044
147.608
148.295
149.1
150.017
151.036
152.148
153.346
154.618
155.955
157.343
158.765
160.203
161.639
163.047
164.399
165.662
166.799
167.763
168.498
168.935
168.981
168.52
167.291
165.74
160.853
146.104
145.989
146.028
146.268
146.67
147.203
147.851
148.611
149.475
150.433
151.477
152.597
153.782
155.021
156.298
157.595
158.893
160.175
161.411
162.569
163.614
164.501
165.179
165.582
165.626
165.204
164.204
162.282
160.247
154.351
145.763
145.64
145.668
145.889
146.263
146.761
147.368
148.08
148.887
149.781
150.752
151.788
152.88
154.014
155.173
156.337
157.488
158.606
159.657
160.607
161.416
162.033
162.398
162.436
162.05
161.113
159.527
156.859
154.297
147.457
145.397
145.267
145.28
145.48
145.825
146.286
146.849
147.509
148.257
149.082
149.975
150.925
151.918
152.941
153.975
155
155.998
156.941
157.797
158.527
159.085
159.414
159.445
159.088
158.234
156.737
154.502
150.996
147.736
139.739
145.008
144.871
144.867
145.043
145.357
145.779
146.297
146.902
147.587
148.341
149.153
150.011
150.902
151.809
152.713
153.594
154.431
155.193
155.846
156.346
156.641
156.668
156.347
155.573
154.22
152.114
149.142
144.653
140.33
130.568
144.599
144.451
144.429
144.58
144.862
145.244
145.713
146.262
146.882
147.561
148.29
149.054
149.837
150.624
151.395
152.129
152.799
153.376
153.819
154.083
154.109
153.826
153.142
151.939
150.067
147.312
143.507
137.846
131.878
119.167
144.169
144.011
143.97
144.095
144.343
144.682
145.102
145.593
146.144
146.747
147.39
148.057
148.73
149.394
150.03
150.613
151.116
151.504
151.736
151.761
151.517
150.924
149.881
148.254
145.869
142.462
137.778
130.813
122.488
104.116
88.3338
88.0238
87.0603
85.2435
82.3803
78.3726
73.2276
67.0402
59.9663
52.198
43.9454
35.4226
26.8368
18.3943
10.3113
2.81341
-3.87892
-9.55572
-14.0094
-17.0464
-18.5306
-18.3889
-16.5843
-13.198
-8.44869
-2.62939
3.91779
10.2754
13.7347
9.61579
88.6648
88.2411
87.2189
85.3177
82.3592
78.2591
73.0335
66.7807
59.6548
51.8451
43.5572
35.0002
26.3799
17.9034
9.78441
2.24543
-4.4918
-10.2152
-14.7252
-17.8506
-19.4541
-19.4425
-17.7994
-14.6201
-10.1405
-4.70237
1.33193
7.35918
11.2801
7.12819
89.0142
88.4094
87.1824
85.0667
81.9042
77.6276
72.2655
65.9199
58.7389
50.9014
42.6024
34.0391
25.4083
16.9155
8.77299
1.19837
-5.58585
-11.3633
-15.9361
-19.1367
-20.8361
-20.9579
-19.4606
-16.4562
-12.1964
-7.06668
-1.44453
4.26396
8.30155
4.97802
89.2708
88.4091
86.8841
84.4527
80.9991
76.4797
70.9348
64.4653
57.2091
49.3295
41.0059
32.4215
23.762
15.2283
7.03366
-0.605805
-7.46958
-13.3373
-18.0101
-21.3248
-23.1591
-23.4218
-22.0858
-19.2592
-15.1939
-10.2783
-4.87863
0.653477
4.79535
3.07156
89.3083
88.1087
86.2277
83.42
79.6265
74.8338
69.0912
62.4935
55.1651
47.2527
38.9165
30.3249
21.6531
13.0929
4.85652
-2.83835
-9.77473
-15.7321
-20.5074
-23.9357
-25.8933
-26.3099
-25.1382
-22.4756
-18.5717
-13.7925
-8.48788
-3.02319
1.33436
1.41902
89.0404
87.4004
85.1241
81.9147
77.772
72.7085
66.7785
60.0648
52.6737
44.7334
36.3859
27.7839
19.0942
10.5008
2.21071
-5.55526
-12.5778
-18.6361
-23.5193
-27.0533
-29.1174
-29.6452
-28.5952
-26.0387
-22.2169
-17.4654
-12.1237
-6.58542
-1.85831
-0.00507506
88.3837
86.2055
83.5254
79.9234
75.4591
70.1563
64.0675
57.262
49.827
41.8705
33.5177
24.9091
16.2048
7.58389
-0.753347
-8.58692
-15.6921
-21.8464
-26.8323
-30.461
-32.6067
-33.2206
-32.2548
-29.7508
-25.9389
-21.1254
-15.6417
-9.90266
-4.69378
-1.22398
87.2578
84.4772
81.4292
77.4791
72.7514
67.2638
61.0593
54.1924
46.735
38.7769
30.4282
21.8195
13.1046
4.45927
-3.91996
-11.8166
-19.0019
-25.2479
-30.3294
-34.0401
-36.2414
-36.899
-35.9682
-33.4592
-29.5903
-24.643
-18.9386
-12.8996
-7.14704
-2.25646
85.5977
82.2082
78.8807
74.6603
69.7487
64.1436
57.8748
50.9818
43.5232
35.577
27.2414
18.6397
9.91953
1.25413
-7.16055
-15.1103
-22.3658
-28.6934
-33.8591
-37.6393
-39.8757
-40.5356
-39.5892
-37.0227
-33.0423
-27.9117
-21.9375
-15.5359
-9.2192
-3.11762
83.3697
79.4471
75.9788
71.5898
66.5855
60.9328
54.6502
47.7648
40.3251
32.4012
24.0851
15.4952
6.77595
-1.90213
-10.3435
-18.3348
-25.6471
-32.0435
-37.2817
-41.1223
-43.3806
-44.0007
-42.9845
-40.3178
-36.1859
-30.8436
-24.5808
-17.7921
-10.9216
-3.81988
80.6154
76.3202
72.8827
68.4333
63.4279
57.7908
51.5352
44.6813
37.2723
29.3752
21.0807
12.5058
3.7935
-4.88765
-13.3439
-21.3639
-28.7194
-35.1706
-40.4705
-44.3667
-46.6407
-47.1735
-46.0335
-43.2438
-38.9338
-33.3692
-26.8256
-19.6604
-12.2699
-4.37267
77.503
73.0427
69.8153
65.396
60.4676
54.8891
48.6814
41.8651
34.485
26.6121
18.3382
9.78119
1.08251
-7.59111
-16.0481
-24.0826
-31.4672
-37.9587
-43.307
-47.2473
-49.5194
-49.9615
-48.6808
-45.7339
-41.2275
-35.442
-28.6435
-21.1415
-13.2822
-4.78221
74.2767
69.9419
67.0337
62.7113
57.9031
52.3899
46.223
39.4294
32.0638
24.2068
15.9516
7.4162
-1.26098
-9.91507
-18.3552
-26.3883
-33.7877
-40.3046
-45.6881
-49.6634
-51.9313
-52.2884
-50.8642
-47.7458
-43.0389
-37.0443
-30.0267
-22.2465
-13.9835
-5.05359
71.2294
67.2968
64.7623
60.6222
55.8972
50.4053
44.2318
37.4295
30.0641
22.2189
13.9899
5.48928
-3.14704
-11.7571
-20.1699
-28.188
-35.5869
-42.1078
-47.5091
-51.5101
-53.7897
-54.0923
-52.5269
-49.2374
-44.3549
-38.1842
-30.9917
-23.0012
-14.4118
-5.19957
68.4847
65.4802
63.3779
59.4031
54.5936
49.0117
42.7605
35.9092
28.5251
20.6874
12.4886
4.03525
-4.54337
-13.0954
-21.4609
-29.4319
-36.7833
-43.2732
-48.6525
-52.6423
-54.9173
-55.182
-53.5675
-50.1345
-45.1554
-38.8742
-31.5651
-23.4376
-14.6159
-5.26152
143.713
143.543
143.482
143.578
143.79
144.086
144.453
144.883
145.365
145.889
146.442
147.006
147.566
148.105
148.601
149.028
149.36
149.556
149.573
149.359
148.846
147.948
146.556
144.527
141.667
137.68
132.219
124.123
113.128
81.5728
143.224
143.041
142.959
143.025
143.199
143.448
143.76
144.126
144.535
144.976
145.435
145.892
146.335
146.745
147.097
147.366
147.523
147.524
147.326
146.875
146.1
144.912
143.201
140.822
137.589
133.221
127.41
119.272
109.679
99.7929
142.705
142.509
142.404
142.439
142.573
142.773
143.028
143.329
143.662
144.017
144.377
144.726
145.05
145.328
145.534
145.643
145.624
145.433
145.025
144.348
143.326
141.875
139.893
137.25
133.792
129.331
123.764
116.884
109.801
104.969
142.158
141.948
141.819
141.822
141.913
142.063
142.259
142.492
142.748
143.014
143.274
143.512
143.716
143.861
143.921
143.872
143.679
143.3
142.694
141.803
140.558
138.884
136.69
133.874
130.331
125.96
120.757
114.677
107.884
100.907
141.583
141.359
141.205
141.173
141.222
141.32
141.456
141.619
141.796
141.972
142.13
142.257
142.34
142.353
142.268
142.063
141.703
141.147
140.354
139.269
137.831
135.976
133.63
130.716
127.167
122.919
117.959
112.231
105.673
98.7478
140.981
140.743
140.563
140.496
140.502
140.546
140.62
140.712
140.81
140.894
140.95
140.967
140.931
140.813
140.586
140.231
139.712
138.99
138.026
136.771
135.174
133.178
130.729
127.77
124.254
120.14
115.411
110.063
104.117
97.978
140.353
140.1
139.894
139.793
139.753
139.744
139.754
139.776
139.793
139.785
139.74
139.649
139.495
139.248
138.887
138.389
137.72
136.846
135.73
134.331
132.605
130.507
127.993
125.027
121.576
117.616
113.145
108.188
102.779
97.1659
139.702
139.434
139.202
139.064
138.98
138.916
138.863
138.813
138.749
138.65
138.507
138.31
138.041
137.671
137.181
136.548
135.743
134.732
133.485
131.966
130.14
127.97
125.424
122.48
119.116
115.32
111.099
106.48
101.483
96.2857
139.03
138.747
138.487
138.313
138.184
138.067
137.951
137.829
137.683
137.496
137.258
136.958
136.576
136.09
135.479
134.723
133.794
132.664
131.305
129.69
127.789
125.573
123.02
120.118
116.853
113.221
109.234
104.913
100.28
95.4776
138.338
138.04
137.753
137.543
137.369
137.199
137.022
136.827
136.601
136.329
135.999
135.599
135.111
134.516
133.794
132.926
131.887
130.653
129.201
127.51
125.556
123.316
120.777
117.93
114.771
111.301
107.532
103.486
99.1824
94.7405
137.63
137.317
137.003
136.757
136.539
136.317
136.078
135.813
135.51
135.155
134.736
134.242
133.655
132.958
132.135
131.166
130.032
128.71
127.183
125.434
123.445
121.199
118.687
115.906
112.857
109.544
105.98
102.184
98.1759
94.0537
136.909
136.581
136.241
135.959
135.698
135.424
135.125
134.793
134.415
133.981
133.478
132.895
132.216
131.427
130.512
129.454
128.238
126.844
125.257
123.465
121.456
119.217
116.744
114.037
111.098
107.936
104.562
100.994
97.2494
93.412
136.178
135.836
135.469
135.153
134.849
134.525
134.169
133.771
133.323
132.814
132.232
131.565
130.802
129.93
128.933
127.798
126.512
125.059
123.426
121.605
119.588
117.368
114.941
112.311
109.482
106.463
103.265
99.9043
96.3966
92.8138
135.441
135.085
134.693
134.342
133.997
133.626
133.215
132.755
132.239
131.66
131.004
130.261
129.422
128.475
127.407
126.206
124.861
123.36
121.693
119.856
117.842
115.647
113.273
110.721
107.998
105.113
102.078
98.9059
95.6117
92.2567
134.702
134.333
133.917
133.533
133.147
132.73
132.268
131.751
131.171
130.526
129.803
128.99
128.082
127.07
125.939
124.681
123.288
121.75
120.06
118.216
116.213
114.051
111.731
109.257
106.637
103.878
100.992
97.9913
94.8891
91.7381
133.964
133.583
133.145
132.729
132.304
131.844
131.335
130.764
130.124
129.418
128.634
127.759
126.79
125.719
124.534
123.229
121.797
120.232
118.528
116.685
114.7
112.574
110.31
107.912
105.389
102.747
99.9981
97.1533
94.2241
91.2556
133.234
132.841
132.382
131.936
131.475
130.974
130.42
129.799
129.106
128.343
127.503
126.573
125.55
124.428
123.198
121.854
120.392
118.807
117.097
115.261
113.298
111.21
109.002
106.678
104.246
101.713
99.0899
96.3861
93.6122
90.8072
132.515
132.113
131.633
131.16
130.667
130.127
129.529
128.862
128.121
127.308
126.417
125.438
124.369
123.203
121.935
120.56
119.076
117.478
115.767
113.942
112.004
109.956
107.803
105.549
103.203
100.77
98.2608
95.6844
93.05
90.391
131.814
131.402
130.904
130.407
129.884
129.308
128.668
127.958
127.175
126.318
125.381
124.361
123.251
122.048
120.749
119.35
117.849
116.244
114.536
112.726
110.815
108.807
106.707
104.52
102.252
99.9114
97.5058
95.0439
92.5344
90.0055
131.135
130.715
130.201
129.681
129.131
128.522
127.845
127.096
126.275
125.378
124.403
123.345
122.201
120.968
119.643
118.225
116.713
115.106
113.404
111.611
109.728
107.76
105.71
103.584
101.39
99.1324
96.8204
94.4614
92.063
89.6498
130.486
130.059
129.53
128.99
128.414
127.775
127.065
126.282
125.427
124.495
123.486
122.396
121.223
119.965
118.62
117.189
115.669
114.063
112.371
110.596
108.741
106.81
104.807
102.739
100.611
98.4293
96.2013
93.9339
91.6343
89.3232
129.873
129.44
128.897
128.339
127.74
127.074
126.335
125.522
124.636
123.675
122.636
121.519
120.322
119.044
117.684
116.242
114.719
113.116
111.435
109.679
107.851
105.956
103.997
101.981
99.9131
97.7992
95.6459
93.4597
91.2472
89.0261
129.302
128.864
128.309
127.734
127.115
126.426
125.661
124.822
123.909
122.922
121.859
120.719
119.503
118.208
116.836
115.388
113.864
112.266
110.597
108.859
107.057
105.195
103.276
101.307
99.2932
97.2395
95.1522
93.0374
90.901
88.7582
128.781
128.338
127.773
127.182
126.545
125.835
125.048
124.187
123.251
122.242
121.159
120.001
118.768
117.462
116.081
114.628
113.105
111.514
109.856
108.137
106.359
104.527
102.644
100.717
98.7505
96.7495
94.7197
92.6668
90.5964
88.5212
128.316
127.869
127.295
126.69
126.037
125.31
124.504
123.623
122.669
121.642
120.541
119.368
118.123
116.807
115.42
113.965
112.444
110.86
109.214
107.511
105.755
103.949
102.099
100.209
98.283
96.3274
94.3469
92.3469
90.3324
88.3143
127.916
127.466
126.882
126.265
125.597
124.856
124.035
123.138
122.168
121.127
120.013
118.828
117.574
116.25
114.86
113.404
111.886
110.308
108.673
106.986
105.248
103.466
101.643
99.7839
97.8934
95.9762
94.0374
92.0818
90.1143
88.1441
127.59
127.135
126.54
125.912
125.232
124.479
123.645
122.735
121.753
120.7
119.576
118.382
117.12
115.792
114.399
112.944
111.429
109.858
108.233
106.558
104.837
103.074
101.273
99.4399
97.5778
95.6917
93.7864
91.8664
89.9362
88.0037
127.348
126.885
126.279
125.64
124.953
124.19
123.347
122.427
121.436
120.374
119.242
118.042
116.776
115.444
114.05
112.596
111.084
109.519
107.902
106.238
104.53
102.783
101.001
99.1877
97.3483
95.487
93.6082
91.7166
89.8165
87.9147
127.206
126.715
126.091
125.445
124.752
123.984
123.134
122.209
121.212
120.145
119.009
117.805
116.536
115.203
113.808
112.355
110.847
109.285
107.674
106.017
104.319
102.582
100.812
99.0127
97.1881
95.3428
93.4811
91.6074
89.7257
87.8417
127.204
126.656
126.007
125.354
124.658
123.884
123.03
122.101
121.101
120.031
118.893
117.688
116.419
115.086
113.693
112.243
110.737
109.18
107.574
105.924
104.233
102.505
100.744
98.954
97.14
95.3059
93.4559
91.5942
89.7251
87.8532
8.20725
30.7493
49.0231
92.2839
91.0153
87.1619
98.0642
92.1701
87.3271
92.3857
87.1401
83.4915
91.9378
87.5261
83.942
92.1881
88.175
84.6546
91.8657
88.1615
84.8773
91.4174
88.0215
85.0091
91.0078
87.8861
85.1227
90.6155
87.7304
85.1884
90.2307
87.5549
85.2093
89.8583
87.3696
85.1984
89.5013
87.1807
85.1643
89.1607
86.9914
85.1131
88.8369
86.8043
85.0492
88.5299
86.6206
84.9757
88.2393
86.4414
84.8947
87.9649
86.2673
84.8083
87.7067
86.0991
84.718
87.4646
85.9377
84.6258
87.2392
85.7842
84.5332
87.0315
85.6403
84.4428
86.8421
85.5069
84.356
86.6734
85.3868
84.276
86.5242
85.2792
84.2023
86.4035
85.1934
84.1443
86.3016
85.12
84.0942
86.2458
85.0864
84.077
86.1921
85.0489
84.0531
86.2244
85.0951
84.1054
65.9481
65.1272
63.0378
59.0397
53.9703
48.1694
41.7706
34.8358
27.4203
19.5918
11.4329
3.04388
-5.45422
-13.9175
-22.1859
-30.0627
-37.3278
-43.7449
-49.0628
-53.0039
-55.2578
-55.5386
-53.8947
-50.4292
-45.4313
-39.1166
-31.7688
-23.5915
-14.6563
-5.31996
80.2533
70.9699
65.2463
59.8201
54.001
47.7945
41.1883
34.1593
26.7208
18.9192
10.8241
2.5268
-5.85942
-14.1973
-22.3285
-30.0663
-37.1993
-43.496
-48.7053
-52.553
-54.7503
-55.0481
-53.3547
-49.9777
-45.0944
-38.8768
-31.6067
-23.4983
-14.6573
-5.35785
80.3458
71.844
65.9891
60.2406
54.0384
47.5584
40.8206
33.7594
26.352
18.6261
10.6402
2.47749
-5.75503
-13.9261
-21.8814
-29.4412
-36.4016
-42.537
-47.601
-51.3295
-53.4567
-53.7663
-52.1553
-48.8878
-44.1842
-38.1782
-31.1051
-23.177
-14.519
-5.35746
78.1016
70.9534
65.2373
59.6084
53.5558
47.1681
40.4968
33.5191
26.2271
18.6475
10.8335
2.86259
-5.16364
-13.119
-20.8538
-28.1945
-34.9439
-40.8838
-45.7775
-49.3766
-51.4412
-51.785
-50.3244
-47.2281
-42.7532
-37.0633
-30.2994
-22.6537
-14.2624
-5.32168
78.5705
71.7028
65.4645
59.4182
53.2564
46.9077
40.3304
33.4811
26.3507
18.9643
11.3711
3.64224
-4.12751
-11.8187
-19.2881
-26.3691
-32.8729
-38.5909
-43.3
-46.7716
-48.7926
-49.205
-47.9477
-45.0828
-40.8978
-35.5912
-29.2254
-21.9478
-13.8939
-5.24029
79.6137
73.1219
66.5597
60.0837
53.6606
47.1953
40.6044
33.8276
26.838
19.6439
12.2824
4.81519
-2.67171
-10.0683
-17.241
-24.0333
-30.2675
-35.7485
-40.2697
-43.6241
-45.6248
-46.1353
-45.1013
-42.5541
-38.7303
-33.8323
-27.9185
-21.0711
-13.4108
-5.10092
80.3753
74.4351
67.9241
61.3031
54.7392
48.1719
41.5281
34.7654
27.8636
20.823
13.6677
6.44743
-0.763234
-7.86552
-14.7376
-21.2359
-27.1972
-32.443
-36.7859
-40.0416
-42.0466
-42.6827
-41.9008
-39.7316
-36.2951
-31.8095
-26.3834
-20.014
-12.7991
-4.89434
80.9846
75.5908
69.3562
62.8397
56.3159
49.7629
43.1277
36.3936
29.5617
22.6416
15.6565
8.64927
1.68504
-5.14878
-11.743
-17.9684
-23.6777
-28.7105
-32.9003
-36.0848
-38.1217
-38.9075
-38.395
-36.6009
-33.5919
-29.5612
-24.6192
-18.7547
-12.0387
-4.61879
81.4906
76.5928
70.7475
64.5048
58.1801
51.7793
45.2651
38.639
31.9215
25.1364
18.3147
11.5006
4.75543
-1.84118
-8.19089
-14.1777
-19.6705
-24.5267
-28.5996
-31.7474
-33.8461
-34.8042
-34.5752
-33.1631
-30.6141
-27.0424
-22.5745
-17.2509
-11.1052
-4.27737
81.8854
77.4297
72.0146
66.1426
60.1311
54.0005
47.7225
41.3076
34.7877
28.1976
21.5759
14.9712
8.44492
2.07298
-4.05382
-9.83038
-15.1392
-19.854
-23.8455
-26.9899
-29.1783
-30.3289
-30.3953
-29.3711
-27.2851
-24.1966
-20.2388
-15.4962
-9.99814
-3.88029
82.1868
78.1199
73.1288
67.6634
62.0263
56.2428
50.2878
44.1743
37.9377
31.6178
25.2573
18.9071
12.6292
6.49676
0.595192
-4.97899
-10.1196
-14.7138
-18.6474
-21.8111
-24.1086
-25.4657
-25.8364
-25.2069
-23.5924
-21.0274
-17.6301
-13.5145
-8.73953
-3.43777
82.4182
78.6913
74.0946
69.0315
63.7858
58.3831
52.799
47.0448
41.1546
35.1677
29.1271
23.0831
17.0955
11.2343
5.57916
0.218971
-4.74989
-9.22625
-13.1083
-16.2989
-18.7123
-20.2806
-20.959
-20.7294
-19.5989
-17.5953
-14.8098
-11.3708
-7.37835
-2.96154
82.596
79.1664
74.9264
70.2408
65.3747
60.3537
55.1536
49.7818
44.2689
38.6514
32.9693
27.2694
21.6077
16.0486
10.6654
5.5389
0.756009
-3.59266
-7.41634
-10.6286
-13.1527
-14.9267
-15.9082
-16.0777
-15.4396
-14.0216
-11.8845
-9.15807
-5.97523
-2.46347
82.7311
79.5619
75.6406
71.2991
66.786
62.1278
57.2998
52.3057
47.1722
41.9322
36.6209
31.2807
25.9617
20.7221
15.6273
10.7496
6.16624
1.95761
-1.79597
-5.01797
-7.63998
-9.60619
-10.8775
-11.4347
-11.2808
-10.4416
-8.96959
-6.97611
-4.59403
-1.95914
82.8313
79.8904
76.2522
72.22
68.0279
63.7032
59.2208
54.5819
49.8099
44.933
39.9823
34.995
30.0153
25.0941
20.2889
15.663
11.2841
7.22245
3.54832
0.328787
-2.3759
-4.51613
-6.0566
-6.97947
-7.28695
-7.00334
-6.17742
-4.89668
-3.27879
-1.46258
82.9024
80.1614
76.7739
73.0182
69.1146
65.0901
60.9207
56.606
52.1651
47.6232
43.0078
38.351
33.6908
29.0712
24.5421
20.1581
15.9776
12.0612
8.46965
5.26106
2.48781
0.193385
-1.59089
-2.84886
-3.58212
-3.81235
-3.58374
-2.96681
-2.05967
-0.987488
82.9487
80.3826
77.2167
73.7068
70.06
66.3031
62.4139
58.3889
54.2441
50.0032
45.6907
41.3331
36.9629
32.6182
28.3416
24.1798
20.1826
16.4021
12.89
9.69615
6.86569
4.4363
2.4354
0.877482
-0.238334
-0.93052
-1.23715
-1.21775
-0.952252
-0.544319
82.9742
80.5609
77.5905
74.2983
70.8788
67.3591
63.7174
59.9475
56.0645
52.0905
48.0459
43.9532
39.8402
35.7392
31.6868
27.7225
23.8889
20.23
16.7899
13.6111
10.732
8.18514
5.99435
4.17259
2.71973
1.62061
0.843435
0.338523
0.0391016
-0.139368
82.9821
80.7019
77.9033
74.8032
71.5845
68.2736
64.8482
61.3019
57.6489
53.9083
50.0976
46.2364
42.3481
38.4599
34.6028
30.8106
27.1194
23.5664
20.189
17.0233
14.1022
11.4535
9.09775
7.04666
5.30078
3.84803
2.66232
1.70267
0.913868
0.224472
82.9755
80.8106
78.1624
75.2309
72.1884
69.0596
65.8231
62.473
59.0206
55.482
51.8741
48.2139
44.5199
40.8153
37.1265
33.4822
29.9131
26.4506
23.1267
19.9718
17.014
14.2771
11.7791
9.53032
7.53202
5.77474
4.23732
2.88622
1.67599
0.545283
82.9575
80.8922
78.3749
75.5908
72.7013
69.7303
66.6584
63.4791
60.2001
56.8362
53.4039
49.9166
46.3894
42.842
39.297
35.7788
32.3135
28.9278
25.6487
22.5022
19.5124
16.6996
14.0796
11.6616
9.44727
7.42945
5.59109
3.90471
2.33283
0.823168
82.9315
80.9516
78.5477
75.8911
73.1337
70.2993
67.37
64.3375
61.2078
57.9948
54.7129
51.373
47.988
44.5745
41.1518
37.7406
34.3631
31.042
27.8003
24.6604
21.6428
18.7651
16.0411
13.4791
11.0811
8.8418
6.74744
4.77557
2.89518
1.0618
82.9002
80.9931
78.6865
76.1391
73.4949
70.778
67.9706
65.0636
62.0622
58.9784
55.8234
52.608
49.3436
46.0437
42.7244
39.4034
36.0996
32.8326
29.6221
26.4872
23.4457
20.5128
17.7008
15.0171
12.464
10.0376
7.72692
5.51353
3.37173
1.26383
82.867
81.0213
78.7975
76.3434
73.7957
71.1781
68.4733
65.6728
62.7807
59.8054
56.757
53.6465
50.4838
47.2794
44.0467
40.8009
37.5585
34.3364
31.1515
28.0204
24.9586
21.9794
19.0936
16.308
13.6252
11.0423
8.55054
6.13474
3.7735
1.43443
82.8326
81.0375
78.8831
76.5081
74.0423
71.5081
68.8891
66.1772
63.3755
60.4899
57.53
54.5071
51.429
48.3034
45.1419
41.958
38.7659
35.5804
32.4163
29.288
26.209
23.1913
20.2443
17.3744
14.5843
11.8719
9.23031
6.64694
4.10393
1.57364
82.8059
81.0517
78.9543
76.6445
74.2461
71.7807
69.2324
66.5929
63.8642
61.0516
58.1645
55.2128
52.2029
49.1411
46.0372
42.9033
39.7518
36.5958
33.4482
30.3219
27.2289
24.1797
21.183
18.2448
15.3675
12.5501
9.78689
7.06734
4.3763
1.68933
82.7822
81.0601
79.0075
76.7488
74.4032
71.9918
69.4992
66.9166
64.2455
61.4912
58.662
55.766
52.8091
49.797
46.7382
43.6431
40.5232
37.3899
34.255
31.1299
28.0254
24.9513
21.9153
18.923
15.9772
13.077
10.2179
7.39114
4.58386
1.77519
82.7818
81.0831
79.0649
76.8452
74.5392
72.1681
69.7171
67.1774
64.5499
61.8398
59.054
56.1996
53.282
50.3067
47.281
44.2145
41.1176
38.0007
34.8746
31.7497
28.636
25.5424
22.4764
19.4431
16.4452
13.4824
10.5508
7.6426
4.74672
1.84414
82.7732
81.089
79.0937
76.901
74.6219
72.2775
69.8541
67.3426
64.744
62.063
59.3057
56.4787
53.5871
50.6359
47.6321
44.5845
41.5027
38.3966
35.2763
32.1515
29.0317
25.9253
22.8393
19.7788
16.7463
13.7416
10.7611
7.79785
4.84192
1.87806
82.8242
81.1412
79.1591
76.9828
74.7193
72.3897
69.9809
67.4843
64.9006
62.2343
59.4911
56.6772
53.7977
50.8574
47.8629
44.8228
41.7464
38.6432
35.5231
32.3956
29.2698
26.154
23.055
19.9778
16.9248
13.8959
10.8871
7.89056
4.89377
1.87318
)
;

boundaryField
{
    inlet
    {
        type            zeroGradient;
    }
    outlet
    {
        type            fixedValue;
        value           uniform 0;
    }
    flap
    {
        type            zeroGradient;
    }
    upperWall
    {
        type            zeroGradient;
    }
    lowerWall
    {
        type            zeroGradient;
    }
    frontAndBack
    {
        type            empty;
    }
}


// ************************************************************************* //
