/*--------------------------------*- C++ -*----------------------------------*\
| =========                 |                                                 |
| \\      /  F ield         | OpenFOAM: The Open Source CFD Toolbox           |
|  \\    /   O peration     | Version:  2006                                  |
|   \\  /    A nd           | Website:  www.openfoam.com                      |
|    \\/     M anipulation  |                                                 |
\*---------------------------------------------------------------------------*/
FoamFile
{
    version     2.0;
    format      ascii;
    class       pointVectorField;
    location    "0.8";
    object      pointDisplacement;
}
// * * * * * * * * * * * * * * * * * * * * * * * * * * * * * * * * * * * * * //

dimensions      [0 1 0 0 0 0 0];


internalField   nonuniform List<vector> 
5828
(
(0 0 0)
(0.00272459 0 0)
(0.00526022 0 0)
(0.00771085 0 0)
(0.0101626 0 0)
(0.0126709 0 0)
(0.0152668 0 0)
(0.0179605 0 0)
(0.0207433 0 0)
(0.0235889 0 0)
(0.026454 0 0)
(0.0292793 0 0)
(0.0319916 0 0)
(0.0345056 0 0)
(0.0367268 0 0)
(0.0385557 0 0)
(0.0398933 0 0)
(0.0406456 0 0)
(0.0407286 0 0)
(0.0400743 0 0)
(0.0386381 0 0)
(0.0364035 0 0)
(0.0333874 0 0)
(0.0296461 0 0)
(0.025281 0 0)
(0.0204467 0 0)
(0.0153667 0 0)
(0.010351 0 0)
(0.00583392 0 0)
(0.00249544 0 0)
(0 0 0)
(0 0 0)
(0.00271178 0 1.4121e-07)
(0.0052379 0 3.439e-07)
(0.00768126 0 6.63126e-07)
(0.0101272 0 1.141e-06)
(0.0126312 0 1.81291e-06)
(0.0152247 0 2.71148e-06)
(0.0179179 0 3.87371e-06)
(0.0207029 0 5.35696e-06)
(0.0235541 0 7.26369e-06)
(0.0264287 0 9.77612e-06)
(0.0292683 0 1.32081e-05)
(0.0320006 0 1.80736e-05)
(0.0345412 0 2.51747e-05)
(0.0367965 0 3.57028e-05)
(0.0386676 0 5.12991e-05)
(0.0400566 0 7.41932e-05)
(0.0408707 0 0.000107309)
(0.0410261 0 0.000154264)
(0.0404557 0 0.000219374)
(0.039115 0 0.000307577)
(0.0369882 0 0.000424266)
(0.0340928 0 0.000575063)
(0.0304853 0 0.000765482)
(0.0262675 0 0.00100043)
(0.0215928 0 0.00128347)
(0.0166869 0 0.00161594)
(0.0118663 0 0.001991)
(0.00757609 0 0.00238145)
(0.00450518 0 0.00271395)
(0.00245548 0 0.00292288)
(0 0 0)
(0.00269839 0 2.54829e-07)
(0.00521533 0 6.30916e-07)
(0.00765282 0 1.23514e-06)
(0.0100955 0 2.14798e-06)
(0.0125997 0 3.43517e-06)
(0.0151974 0 5.15524e-06)
(0.0178994 0 7.37137e-06)
(0.0206997 0 1.01827e-05)
(0.0235745 0 1.37723e-05)
(0.0264829 0 1.84725e-05)
(0.0293689 0 2.48655e-05)
(0.0321625 0 3.39164e-05)
(0.0347819 0 4.71437e-05)
(0.0371355 0 6.68014e-05)
(0.0391268 0 9.60403e-05)
(0.0406619 0 0.000139173)
(0.0416508 0 0.000201832)
(0.0420114 0 0.000290994)
(0.041678 0 0.000415005)
(0.0406086 0 0.000583404)
(0.0387896 0 0.000806543)
(0.0362403 0 0.0010951)
(0.0330203 0 0.00145929)
(0.0292347 0 0.00190762)
(0.0250356 0 0.00244547)
(0.0206435 0 0.00307182)
(0.0163799 0 0.00377007)
(0.0127167 0 0.00449435)
(0.0103598 0 0.00513968)
(0.00861491 0 0.00556587)
(0 0 0)
(0.00269888 0 3.03726e-07)
(0.00521793 0 7.84468e-07)
(0.00765999 0 1.5917e-06)
(0.0101102 0 2.83413e-06)
(0.0126263 0 4.59568e-06)
(0.0152413 0 6.94367e-06)
(0.0179671 0 9.94537e-06)
(0.0208004 0 1.3712e-05)
(0.0237206 0 1.84638e-05)
(0.0266897 0 2.46223e-05)
(0.0296551 0 3.29542e-05)
(0.0325507 0 4.47583e-05)
(0.035298 0 6.21043e-05)
(0.0378094 0 8.80918e-05)
(0.0399944 0 0.000127155)
(0.0417642 0 0.000185388)
(0.0430326 0 0.000270717)
(0.0437212 0 0.000393006)
(0.0437669 0 0.000564098)
(0.0431319 0 0.000797558)
(0.041807 0 0.001108)
(0.0398146 0 0.00151036)
(0.0372192 0 0.00201882)
(0.0341338 0 0.00264475)
(0.0307197 0 0.0033942)
(0.0271885 0 0.00426207)
(0.0238421 0 0.00522385)
(0.0211588 0 0.00621548)
(0.0198838 0 0.00707746)
(0.0187771 0 0.00764419)
(0 0 0)
(0.002703 0 2.5188e-07)
(0.00522671 0 7.30438e-07)
(0.00767678 0 1.61236e-06)
(0.0101386 0 3.01809e-06)
(0.0126717 0 5.03016e-06)
(0.015311 0 7.69986e-06)
(0.018071 0 1.10675e-05)
(0.0209514 0 1.52113e-05)
(0.0239348 0 2.0326e-05)
(0.0269874 0 2.68363e-05)
(0.030062 0 3.55761e-05)
(0.0330965 0 4.80169e-05)
(0.036017 0 6.65513e-05)
(0.038744 0 9.48594e-05)
(0.041195 0 0.000138311)
(0.0432863 0 0.000204316)
(0.0449376 0 0.000302535)
(0.0460769 0 0.000445021)
(0.0466463 0 0.000646384)
(0.0466115 0 0.000923399)
(0.0459667 0 0.00129381)
(0.0447382 0 0.00177557)
(0.0429937 0 0.00238562)
(0.0408577 0 0.00313681)
(0.0385106 0 0.00403337)
(0.0361749 0 0.00506454)
(0.0341314 0 0.00619724)
(0.0328011 0 0.00734769)
(0.0329653 0 0.00829915)
(0.032688 0 0.00893644)
(0 0 0)
(0.00270914 0 6.89708e-08)
(0.00524094 0 4.0675e-07)
(0.00770233 0 1.19775e-06)
(0.0101793 0 2.55223e-06)
(0.0127336 0 4.52604e-06)
(0.0154036 0 7.12509e-06)
(0.0182077 0 1.03238e-05)
(0.021148 0 1.41101e-05)
(0.0242104 0 1.85753e-05)
(0.0273667 0 2.40415e-05)
(0.030576 0 3.12591e-05)
(0.0337818 0 4.16789e-05)
(0.0369182 0 5.77553e-05)
(0.0399152 0 8.3399e-05)
(0.0426977 0 0.000124452)
(0.0451892 0 0.000189088)
(0.0473188 0 0.000288027)
(0.049023 0 0.00043471)
(0.0502524 0 0.000645472)
(0.0509754 0 0.000939042)
(0.0511895 0 0.00133497)
(0.0509292 0 0.00185259)
(0.0502648 0 0.00250997)
(0.04932 0 0.00331994)
(0.0482935 0 0.00428242)
(0.0474392 0 0.00537773)
(0.0470407 0 0.00655906)
(0.0474292 0 0.00772679)
(0.0493437 0 0.00861582)
(0.0500723 0 0.0092247)
(0 0 0)
(0.00271702 0 -2.71088e-07)
(0.0052593 0 -2.40284e-07)
(0.00773433 0 2.61496e-07)
(0.0102302 0 1.30911e-06)
(0.0128108 0 2.9033e-06)
(0.0155178 0 4.97055e-06)
(0.0183739 0 7.3736e-06)
(0.0213843 0 9.95214e-06)
(0.0245385 0 1.26034e-05)
(0.0278155 0 1.54207e-05)
(0.0311811 0 1.89032e-05)
(0.0345873 0 2.42457e-05)
(0.037978 0 3.36776e-05)
(0.0412921 0 5.09422e-05)
(0.0444634 0 8.18013e-05)
(0.047427 0 0.000134486)
(0.0501227 0 0.000220041)
(0.0524945 0 0.000352428)
(0.0545012 0 0.000548449)
(0.0561187 0 0.000827408)
(0.0573557 0 0.00120918)
(0.0582574 0 0.00171267)
(0.0589015 0 0.00235429)
(0.0594037 0 0.00314465)
(0.0599512 0 0.0040794)
(0.0608291 0 0.0051259)
(0.0623493 0 0.00621647)
(0.0647776 0 0.00723903)
(0.0686749 0 0.00790288)
(0.070474 0 0.00837352)
(0 0 0)
(0.00272769 0 -7.88029e-07)
(0.00528128 0 -1.25122e-06)
(0.00777199 0 -1.26367e-06)
(0.0102903 0 -8.12289e-07)
(0.0129013 0 2.02022e-08)
(0.0156501 0 1.04304e-06)
(0.0185637 0 1.95637e-06)
(0.0216514 0 2.39144e-06)
(0.0249084 0 1.95532e-06)
(0.0283206 0 3.78961e-07)
(0.0318616 0 -2.26076e-06)
(0.0354928 0 -5.27343e-06)
(0.0391686 0 -6.97537e-06)
(0.0428378 0 -4.2162e-06)
(0.0464461 0 8.13973e-06)
(0.0499437 0 3.75485e-05)
(0.0532797 0 9.44903e-05)
(0.0564061 0 0.000192434)
(0.0592947 0 0.000347243)
(0.0619361 0 0.000577276)
(0.064349 0 0.000901484)
(0.0665816 0 0.001337)
(0.0687273 0 0.00189566)
(0.0709171 0 0.00258108)
(0.0733078 0 0.00338375)
(0.0761621 0 0.00426129)
(0.0798249 0 0.00512229)
(0.0845366 0 0.0058377)
(0.0905456 0 0.00612619)
(0.0933877 0 0.00637935)
(0 0 0)
(0.00273946 0 -1.49761e-06)
(0.00530675 0 -2.65865e-06)
(0.00781556 0 -3.42776e-06)
(0.0103586 0 -3.87841e-06)
(0.0130026 0 -4.20912e-06)
(0.0157965 0 -4.77039e-06)
(0.0187714 0 -6.07492e-06)
(0.0219421 0 -8.77608e-06)
(0.0253108 0 -1.36398e-05)
(0.0288697 0 -2.14146e-05)
(0.0326001 0 -3.26261e-05)
(0.0364742 0 -4.73222e-05)
(0.0404575 0 -6.47009e-05)
(0.0445104 0 -8.26534e-05)
(0.0485937 0 -9.73051e-05)
(0.0526713 0 -0.000102592)
(0.056702 0 -8.95595e-05)
(0.0606521 0 -4.64618e-05)
(0.0645134 0 4.02147e-05)
(0.0682952 0 0.000185887)
(0.0720197 0 0.000406899)
(0.0757398 0 0.000717036)
(0.0795581 0 0.00112328)
(0.0836243 0 0.00161943)
(0.088103 0 0.00218375)
(0.0931872 0 0.00276848)
(0.0991938 0 0.00326616)
(0.106331 0 0.00352981)
(0.114512 0 0.00331755)
(0.118404 0 0.00330533)
(0 0 0)
(0.00275218 0 -2.4117e-06)
(0.00533517 0 -4.48601e-06)
(0.00786314 0 -6.26451e-06)
(0.0104319 0 -7.93306e-06)
(0.013111 0 -9.84071e-06)
(0.0159527 0 -1.25382e-05)
(0.0189924 0 -1.6797e-05)
(0.0222505 0 -2.36251e-05)
(0.0257359 0 -3.42413e-05)
(0.0294478 0 -4.99844e-05)
(0.0333764 0 -7.2149e-05)
(0.0375047 0 -0.000101746)
(0.0418099 0 -0.000139162)
(0.0462656 0 -0.00018374)
(0.0508494 0 -0.000233555)
(0.0555365 0 -0.000284534)
(0.0602992 0 -0.00033014)
(0.0651274 0 -0.000361898)
(0.0700311 0 -0.00036962)
(0.0750304 0 -0.000341825)
(0.0801661 0 -0.000267799)
(0.0855139 0 -0.000140511)
(0.0911732 0 4.15499e-05)
(0.0972869 0 0.000264738)
(0.104043 0 0.00049126)
(0.111601 0 0.000662129)
(0.12016 0 0.000667355)
(0.129805 0 0.000356025)
(0.140162 0 -0.000456801)
(0.145112 0 -0.000792257)
(0 0 0)
(0.00276685 0 -3.53348e-06)
(0.00536601 0 -6.73654e-06)
(0.00791349 0 -9.77831e-06)
(0.0105086 0 -1.29898e-05)
(0.0132243 0 -1.68967e-05)
(0.0161156 0 -2.22795e-05)
(0.0192217 0 -3.02144e-05)
(0.022569 0 -4.21151e-05)
(0.0261729 0 -5.97316e-05)
(0.0300402 0 -8.50983e-05)
(0.0341704 0 -0.000120415)
(0.0385571 0 -0.000167852)
(0.0431892 0 -0.000229245)
(0.0480562 0 -0.000305839)
(0.053151 0 -0.000398009)
(0.0584605 0 -0.000504387)
(0.0639763 0 -0.000621868)
(0.0697159 0 -0.000746616)
(0.0757013 0 -0.000872878)
(0.0819668 0 -0.000994405)
(0.0885825 0 -0.00110769)
(0.0956483 0 -0.00121475)
(0.10328 0 -0.00132433)
(0.111608 0 -0.00145697)
(0.120821 0 -0.00166259)
(0.131072 0 -0.00201613)
(0.142386 0 -0.00261895)
(0.154627 0 -0.00360408)
(0.167121 0 -0.00507979)
(0.173041 0 -0.0057813)
(0 0 0)
(0.00278174 0 -4.86093e-06)
(0.00539792 0 -9.40783e-06)
(0.00796611 0 -1.39647e-05)
(0.0105884 0 -1.90358e-05)
(0.0133408 0 -2.5348e-05)
(0.0162815 0 -3.39382e-05)
(0.0194539 0 -4.62249e-05)
(0.0228896 0 -6.40713e-05)
(0.0266108 0 -8.98185e-05)
(0.0306318 0 -0.000126276)
(0.0349614 0 -0.000176656)
(0.0396038 0 -0.000244439)
(0.04456 0 -0.00033312)
(0.0498356 0 -0.000446242)
(0.0554355 0 -0.000586686)
(0.0613622 0 -0.000756375)
(0.0676326 0 -0.000956721)
(0.0742841 0 -0.0011889)
(0.0813541 0 -0.00145302)
(0.0889069 0 -0.00175092)
(0.0970382 0 -0.00208746)
(0.105864 0 -0.00247337)
(0.115532 0 -0.00293109)
(0.126203 0 -0.00349482)
(0.138041 0 -0.00422125)
(0.151167 0 -0.00519472)
(0.165447 0 -0.00650395)
(0.180452 0 -0.00823714)
(0.195062 0 -0.0103914)
(0.201833 0 -0.0114289)
(0 0 0)
(0.00279659 0 -6.39015e-06)
(0.00543059 0 -1.24936e-05)
(0.0080203 0 -1.88105e-05)
(0.0106698 0 -2.60396e-05)
(0.0134583 0 -3.51336e-05)
(0.0164471 0 -4.74117e-05)
(0.0196839 0 -6.46602e-05)
(0.0232053 0 -8.92236e-05)
(0.0270396 0 -0.000124073)
(0.0312087 0 -0.000172842)
(0.0357302 0 -0.000239823)
(0.0406181 0 -0.000329907)
(0.0458871 0 -0.000448468)
(0.051556 0 -0.00060135)
(0.057641 0 -0.00079422)
(0.0641644 0 -0.00103298)
(0.0711669 0 -0.00132408)
(0.0786984 0 -0.00167385)
(0.0868219 0 -0.00208962)
(0.0956337 0 -0.0025824)
(0.105257 0 -0.00316803)
(0.115832 0 -0.00386821)
(0.127538 0 -0.00471805)
(0.140587 0 -0.00577113)
(0.155142 0 -0.00709251)
(0.17129 0 -0.00877048)
(0.188799 0 -0.0108782)
(0.206877 0 -0.013429)
(0.22373 0 -0.0162597)
(0.231322 0 -0.0175789)
(0 0 0)
(0.0028123 0 -8.11314e-06)
(0.00546425 0 -1.59739e-05)
(0.00807531 0 -2.42796e-05)
(0.0107515 0 -3.39432e-05)
(0.0135748 0 -4.61611e-05)
(0.0166095 0 -6.25531e-05)
(0.0199072 0 -8.52903e-05)
(0.0235094 0 -0.000117215)
(0.0274499 0 -0.000161946)
(0.0317575 0 -0.000223958)
(0.0364585 0 -0.00030864)
(0.0415773 0 -0.000422384)
(0.0471396 0 -0.000572537)
(0.0531729 0 -0.00076706)
(0.0597095 0 -0.00101479)
(0.0667937 0 -0.00132585)
(0.0744777 0 -0.00171121)
(0.0828288 0 -0.00218339)
(0.0919388 0 -0.00275798)
(0.101927 0 -0.00345458)
(0.112948 0 -0.00430089)
(0.125176 0 -0.0053332)
(0.13882 0 -0.00660004)
(0.154142 0 -0.00817382)
(0.171358 0 -0.0101383)
(0.190587 0 -0.0125905)
(0.211574 0 -0.0155885)
(0.233219 0 -0.0190529)
(0.252783 0 -0.0225959)
(0.261405 0 -0.0241941)
(0 0 0)
(0.00282863 0 -1.00181e-05)
(0.0054986 0 -1.98225e-05)
(0.00813069 0 -3.03271e-05)
(0.0108327 0 -4.26744e-05)
(0.0136888 0 -5.83174e-05)
(0.0167663 0 -7.9187e-05)
(0.0201203 0 -0.000107847)
(0.0237965 0 -0.00014764)
(0.0278339 0 -0.000202827)
(0.032267 0 -0.000278704)
(0.0371309 0 -0.000381803)
(0.0424608 0 -0.000519974)
(0.0482885 0 -0.000702275)
(0.0546495 0 -0.000938911)
(0.0615947 0 -0.00124212)
(0.0691805 0 -0.00162562)
(0.0774709 0 -0.00210486)
(0.086556 0 -0.00269878)
(0.0965447 0 -0.00343056)
(0.107578 0 -0.00432937)
(0.119832 0 -0.00543307)
(0.133508 0 -0.00679153)
(0.148851 0 -0.00847049)
(0.166163 0 -0.0105597)
(0.185729 0 -0.0131666)
(0.207748 0 -0.0164064)
(0.232108 0 -0.0203461)
(0.25779 0 -0.0248448)
(0.281324 0 -0.0292459)
(0.291837 0 -0.0312208)
(0 0 0)
(0.00284562 0 -1.21095e-05)
(0.00553385 0 -2.40471e-05)
(0.00818665 0 -3.69609e-05)
(0.0109133 0 -5.22369e-05)
(0.0138001 0 -7.15944e-05)
(0.0169168 0 -9.72811e-05)
(0.0203218 0 -0.000132254)
(0.0240645 0 -0.000180351)
(0.0281884 0 -0.000246457)
(0.0327335 0 -0.000336667)
(0.0377427 0 -0.00045865)
(0.0432571 0 -0.000621487)
(0.049314 0 -0.000835732)
(0.0559616 0 -0.00111403)
(0.0632628 0 -0.00147146)
(0.0712812 0 -0.0019251)
(0.0800932 0 -0.00249504)
(0.089803 0 -0.00320553)
(0.100533 0 -0.00408605)
(0.112436 0 -0.00517452)
(0.125695 0 -0.00651719)
(0.140525 0 -0.00817475)
(0.157193 0 -0.0102281)
(0.175994 0 -0.0127784)
(0.197213 0 -0.0159479)
(0.221031 0 -0.0198638)
(0.247317 0 -0.0246138)
(0.274859 0 -0.0300633)
(0.299342 0 -0.0354472)
(0.322361 0 -0.0385105)
(0 0 0)
(0.00272459 0 0)
(0.00526022 0 0)
(0.00771085 0 0)
(0.0101626 0 0)
(0.0126709 0 0)
(0.0152668 0 0)
(0.0179605 0 0)
(0.0207433 0 0)
(0.0235889 0 0)
(0.026454 0 0)
(0.0292793 0 0)
(0.0319916 0 0)
(0.0345056 0 0)
(0.0367268 0 0)
(0.0385557 0 0)
(0.0398933 0 0)
(0.0406456 0 0)
(0.0407286 0 0)
(0.0400743 0 0)
(0.0386381 0 0)
(0.0364035 0 0)
(0.0333874 0 0)
(0.0296461 0 0)
(0.025281 0 0)
(0.0204467 0 0)
(0.0153667 0 0)
(0.010351 0 0)
(0.00583392 0 0)
(0.00249544 0 0)
(0 0 0)
(0 0 0)
(0.00271178 0 1.4121e-07)
(0.0052379 0 3.439e-07)
(0.00768126 0 6.63126e-07)
(0.0101272 0 1.141e-06)
(0.0126312 0 1.81291e-06)
(0.0152247 0 2.71148e-06)
(0.0179179 0 3.87371e-06)
(0.0207029 0 5.35696e-06)
(0.0235541 0 7.26369e-06)
(0.0264287 0 9.77612e-06)
(0.0292683 0 1.32081e-05)
(0.0320006 0 1.80736e-05)
(0.0345412 0 2.51747e-05)
(0.0367965 0 3.57028e-05)
(0.0386676 0 5.12991e-05)
(0.0400566 0 7.41932e-05)
(0.0408707 0 0.000107309)
(0.0410261 0 0.000154264)
(0.0404557 0 0.000219374)
(0.039115 0 0.000307577)
(0.0369882 0 0.000424266)
(0.0340928 0 0.000575063)
(0.0304853 0 0.000765482)
(0.0262675 0 0.00100043)
(0.0215928 0 0.00128347)
(0.0166869 0 0.00161594)
(0.0118663 0 0.001991)
(0.00757609 0 0.00238145)
(0.00450518 0 0.00271395)
(0.00245548 0 0.00292288)
(0 0 0)
(0.00269839 0 2.54829e-07)
(0.00521533 0 6.30916e-07)
(0.00765282 0 1.23514e-06)
(0.0100955 0 2.14798e-06)
(0.0125997 0 3.43517e-06)
(0.0151974 0 5.15524e-06)
(0.0178994 0 7.37137e-06)
(0.0206997 0 1.01827e-05)
(0.0235745 0 1.37723e-05)
(0.0264829 0 1.84725e-05)
(0.0293689 0 2.48655e-05)
(0.0321625 0 3.39164e-05)
(0.0347819 0 4.71437e-05)
(0.0371355 0 6.68014e-05)
(0.0391268 0 9.60403e-05)
(0.0406619 0 0.000139173)
(0.0416508 0 0.000201832)
(0.0420114 0 0.000290994)
(0.041678 0 0.000415005)
(0.0406086 0 0.000583404)
(0.0387896 0 0.000806543)
(0.0362403 0 0.0010951)
(0.0330203 0 0.00145929)
(0.0292347 0 0.00190762)
(0.0250356 0 0.00244547)
(0.0206435 0 0.00307182)
(0.0163799 0 0.00377007)
(0.0127167 0 0.00449435)
(0.0103598 0 0.00513968)
(0.00861491 0 0.00556587)
(0 0 0)
(0.00269888 0 3.03726e-07)
(0.00521793 0 7.84468e-07)
(0.00765999 0 1.5917e-06)
(0.0101102 0 2.83413e-06)
(0.0126263 0 4.59568e-06)
(0.0152413 0 6.94367e-06)
(0.0179671 0 9.94537e-06)
(0.0208004 0 1.3712e-05)
(0.0237206 0 1.84638e-05)
(0.0266897 0 2.46223e-05)
(0.0296551 0 3.29542e-05)
(0.0325507 0 4.47583e-05)
(0.035298 0 6.21043e-05)
(0.0378094 0 8.80918e-05)
(0.0399944 0 0.000127155)
(0.0417642 0 0.000185388)
(0.0430326 0 0.000270717)
(0.0437212 0 0.000393006)
(0.0437669 0 0.000564098)
(0.0431319 0 0.000797558)
(0.041807 0 0.001108)
(0.0398146 0 0.00151036)
(0.0372192 0 0.00201882)
(0.0341338 0 0.00264475)
(0.0307197 0 0.0033942)
(0.0271885 0 0.00426207)
(0.0238421 0 0.00522385)
(0.0211588 0 0.00621548)
(0.0198838 0 0.00707746)
(0.0187771 0 0.00764419)
(0 0 0)
(0.002703 0 2.5188e-07)
(0.00522671 0 7.30438e-07)
(0.00767678 0 1.61236e-06)
(0.0101386 0 3.01809e-06)
(0.0126717 0 5.03016e-06)
(0.015311 0 7.69986e-06)
(0.018071 0 1.10675e-05)
(0.0209514 0 1.52113e-05)
(0.0239348 0 2.0326e-05)
(0.0269874 0 2.68363e-05)
(0.030062 0 3.55761e-05)
(0.0330965 0 4.80169e-05)
(0.036017 0 6.65513e-05)
(0.038744 0 9.48594e-05)
(0.041195 0 0.000138311)
(0.0432863 0 0.000204316)
(0.0449376 0 0.000302535)
(0.0460769 0 0.000445021)
(0.0466463 0 0.000646384)
(0.0466115 0 0.000923399)
(0.0459667 0 0.00129381)
(0.0447382 0 0.00177557)
(0.0429937 0 0.00238562)
(0.0408577 0 0.00313681)
(0.0385106 0 0.00403337)
(0.0361749 0 0.00506454)
(0.0341314 0 0.00619724)
(0.0328011 0 0.00734769)
(0.0329653 0 0.00829915)
(0.032688 0 0.00893644)
(0 0 0)
(0.00270914 0 6.89708e-08)
(0.00524094 0 4.0675e-07)
(0.00770233 0 1.19775e-06)
(0.0101793 0 2.55223e-06)
(0.0127336 0 4.52604e-06)
(0.0154036 0 7.12509e-06)
(0.0182077 0 1.03238e-05)
(0.021148 0 1.41101e-05)
(0.0242104 0 1.85753e-05)
(0.0273667 0 2.40415e-05)
(0.030576 0 3.12591e-05)
(0.0337818 0 4.16789e-05)
(0.0369182 0 5.77553e-05)
(0.0399152 0 8.3399e-05)
(0.0426977 0 0.000124452)
(0.0451892 0 0.000189088)
(0.0473188 0 0.000288027)
(0.049023 0 0.00043471)
(0.0502524 0 0.000645472)
(0.0509754 0 0.000939042)
(0.0511895 0 0.00133497)
(0.0509292 0 0.00185259)
(0.0502648 0 0.00250997)
(0.04932 0 0.00331994)
(0.0482935 0 0.00428242)
(0.0474392 0 0.00537773)
(0.0470407 0 0.00655906)
(0.0474292 0 0.00772679)
(0.0493437 0 0.00861582)
(0.0500723 0 0.0092247)
(0 0 0)
(0.00271702 0 -2.71088e-07)
(0.0052593 0 -2.40284e-07)
(0.00773433 0 2.61496e-07)
(0.0102302 0 1.30911e-06)
(0.0128108 0 2.9033e-06)
(0.0155178 0 4.97055e-06)
(0.0183739 0 7.3736e-06)
(0.0213843 0 9.95214e-06)
(0.0245385 0 1.26034e-05)
(0.0278155 0 1.54207e-05)
(0.0311811 0 1.89032e-05)
(0.0345873 0 2.42457e-05)
(0.037978 0 3.36776e-05)
(0.0412921 0 5.09422e-05)
(0.0444634 0 8.18013e-05)
(0.047427 0 0.000134486)
(0.0501227 0 0.000220041)
(0.0524945 0 0.000352428)
(0.0545012 0 0.000548449)
(0.0561187 0 0.000827408)
(0.0573557 0 0.00120918)
(0.0582574 0 0.00171267)
(0.0589015 0 0.00235429)
(0.0594037 0 0.00314465)
(0.0599512 0 0.0040794)
(0.0608291 0 0.0051259)
(0.0623493 0 0.00621647)
(0.0647776 0 0.00723903)
(0.0686749 0 0.00790288)
(0.070474 0 0.00837352)
(0 0 0)
(0.00272769 0 -7.88029e-07)
(0.00528128 0 -1.25122e-06)
(0.00777199 0 -1.26367e-06)
(0.0102903 0 -8.12289e-07)
(0.0129013 0 2.02022e-08)
(0.0156501 0 1.04304e-06)
(0.0185637 0 1.95637e-06)
(0.0216514 0 2.39144e-06)
(0.0249084 0 1.95532e-06)
(0.0283206 0 3.78961e-07)
(0.0318616 0 -2.26076e-06)
(0.0354928 0 -5.27343e-06)
(0.0391686 0 -6.97537e-06)
(0.0428378 0 -4.2162e-06)
(0.0464461 0 8.13973e-06)
(0.0499437 0 3.75485e-05)
(0.0532797 0 9.44903e-05)
(0.0564061 0 0.000192434)
(0.0592947 0 0.000347243)
(0.0619361 0 0.000577276)
(0.064349 0 0.000901484)
(0.0665816 0 0.001337)
(0.0687273 0 0.00189566)
(0.0709171 0 0.00258108)
(0.0733078 0 0.00338375)
(0.0761621 0 0.00426129)
(0.0798249 0 0.00512229)
(0.0845366 0 0.0058377)
(0.0905456 0 0.00612619)
(0.0933877 0 0.00637935)
(0 0 0)
(0.00273946 0 -1.49761e-06)
(0.00530675 0 -2.65865e-06)
(0.00781556 0 -3.42776e-06)
(0.0103586 0 -3.87841e-06)
(0.0130026 0 -4.20912e-06)
(0.0157965 0 -4.77039e-06)
(0.0187714 0 -6.07492e-06)
(0.0219421 0 -8.77608e-06)
(0.0253108 0 -1.36398e-05)
(0.0288697 0 -2.14146e-05)
(0.0326001 0 -3.26261e-05)
(0.0364742 0 -4.73222e-05)
(0.0404575 0 -6.47009e-05)
(0.0445104 0 -8.26534e-05)
(0.0485937 0 -9.73051e-05)
(0.0526713 0 -0.000102592)
(0.056702 0 -8.95595e-05)
(0.0606521 0 -4.64618e-05)
(0.0645134 0 4.02147e-05)
(0.0682952 0 0.000185887)
(0.0720197 0 0.000406899)
(0.0757398 0 0.000717036)
(0.0795581 0 0.00112328)
(0.0836243 0 0.00161943)
(0.088103 0 0.00218375)
(0.0931872 0 0.00276848)
(0.0991938 0 0.00326616)
(0.106331 0 0.00352981)
(0.114512 0 0.00331755)
(0.118404 0 0.00330533)
(0 0 0)
(0.00275218 0 -2.4117e-06)
(0.00533517 0 -4.48601e-06)
(0.00786314 0 -6.26451e-06)
(0.0104319 0 -7.93306e-06)
(0.013111 0 -9.84071e-06)
(0.0159527 0 -1.25382e-05)
(0.0189924 0 -1.6797e-05)
(0.0222505 0 -2.36251e-05)
(0.0257359 0 -3.42413e-05)
(0.0294478 0 -4.99844e-05)
(0.0333764 0 -7.2149e-05)
(0.0375047 0 -0.000101746)
(0.0418099 0 -0.000139162)
(0.0462656 0 -0.00018374)
(0.0508494 0 -0.000233555)
(0.0555365 0 -0.000284534)
(0.0602992 0 -0.00033014)
(0.0651274 0 -0.000361898)
(0.0700311 0 -0.00036962)
(0.0750304 0 -0.000341825)
(0.0801661 0 -0.000267799)
(0.0855139 0 -0.000140511)
(0.0911732 0 4.15499e-05)
(0.0972869 0 0.000264738)
(0.104043 0 0.00049126)
(0.111601 0 0.000662129)
(0.12016 0 0.000667355)
(0.129805 0 0.000356025)
(0.140162 0 -0.000456801)
(0.145112 0 -0.000792257)
(0 0 0)
(0.00276685 0 -3.53348e-06)
(0.00536601 0 -6.73654e-06)
(0.00791349 0 -9.77831e-06)
(0.0105086 0 -1.29898e-05)
(0.0132243 0 -1.68967e-05)
(0.0161156 0 -2.22795e-05)
(0.0192217 0 -3.02144e-05)
(0.022569 0 -4.21151e-05)
(0.0261729 0 -5.97316e-05)
(0.0300402 0 -8.50983e-05)
(0.0341704 0 -0.000120415)
(0.0385571 0 -0.000167852)
(0.0431892 0 -0.000229245)
(0.0480562 0 -0.000305839)
(0.053151 0 -0.000398009)
(0.0584605 0 -0.000504387)
(0.0639763 0 -0.000621868)
(0.0697159 0 -0.000746616)
(0.0757013 0 -0.000872878)
(0.0819668 0 -0.000994405)
(0.0885825 0 -0.00110769)
(0.0956483 0 -0.00121475)
(0.10328 0 -0.00132433)
(0.111608 0 -0.00145697)
(0.120821 0 -0.00166259)
(0.131072 0 -0.00201613)
(0.142386 0 -0.00261895)
(0.154627 0 -0.00360408)
(0.167121 0 -0.00507979)
(0.173041 0 -0.0057813)
(0 0 0)
(0.00278174 0 -4.86093e-06)
(0.00539792 0 -9.40783e-06)
(0.00796611 0 -1.39647e-05)
(0.0105884 0 -1.90358e-05)
(0.0133408 0 -2.5348e-05)
(0.0162815 0 -3.39382e-05)
(0.0194539 0 -4.62249e-05)
(0.0228896 0 -6.40713e-05)
(0.0266108 0 -8.98185e-05)
(0.0306318 0 -0.000126276)
(0.0349614 0 -0.000176656)
(0.0396038 0 -0.000244439)
(0.04456 0 -0.00033312)
(0.0498356 0 -0.000446242)
(0.0554355 0 -0.000586686)
(0.0613622 0 -0.000756375)
(0.0676326 0 -0.000956721)
(0.0742841 0 -0.0011889)
(0.0813541 0 -0.00145302)
(0.0889069 0 -0.00175092)
(0.0970382 0 -0.00208746)
(0.105864 0 -0.00247337)
(0.115532 0 -0.00293109)
(0.126203 0 -0.00349482)
(0.138041 0 -0.00422125)
(0.151167 0 -0.00519472)
(0.165447 0 -0.00650395)
(0.180452 0 -0.00823714)
(0.195062 0 -0.0103914)
(0.201833 0 -0.0114289)
(0 0 0)
(0.00279659 0 -6.39015e-06)
(0.00543059 0 -1.24936e-05)
(0.0080203 0 -1.88105e-05)
(0.0106698 0 -2.60396e-05)
(0.0134583 0 -3.51336e-05)
(0.0164471 0 -4.74117e-05)
(0.0196839 0 -6.46602e-05)
(0.0232053 0 -8.92236e-05)
(0.0270396 0 -0.000124073)
(0.0312087 0 -0.000172842)
(0.0357302 0 -0.000239823)
(0.0406181 0 -0.000329907)
(0.0458871 0 -0.000448468)
(0.051556 0 -0.00060135)
(0.057641 0 -0.00079422)
(0.0641644 0 -0.00103298)
(0.0711669 0 -0.00132408)
(0.0786984 0 -0.00167385)
(0.0868219 0 -0.00208962)
(0.0956337 0 -0.0025824)
(0.105257 0 -0.00316803)
(0.115832 0 -0.00386821)
(0.127538 0 -0.00471805)
(0.140587 0 -0.00577113)
(0.155142 0 -0.00709251)
(0.17129 0 -0.00877048)
(0.188799 0 -0.0108782)
(0.206877 0 -0.013429)
(0.22373 0 -0.0162597)
(0.231322 0 -0.0175789)
(0 0 0)
(0.0028123 0 -8.11314e-06)
(0.00546425 0 -1.59739e-05)
(0.00807531 0 -2.42796e-05)
(0.0107515 0 -3.39432e-05)
(0.0135748 0 -4.61611e-05)
(0.0166095 0 -6.25531e-05)
(0.0199072 0 -8.52903e-05)
(0.0235094 0 -0.000117215)
(0.0274499 0 -0.000161946)
(0.0317575 0 -0.000223958)
(0.0364585 0 -0.00030864)
(0.0415773 0 -0.000422384)
(0.0471396 0 -0.000572537)
(0.0531729 0 -0.00076706)
(0.0597095 0 -0.00101479)
(0.0667937 0 -0.00132585)
(0.0744777 0 -0.00171121)
(0.0828288 0 -0.00218339)
(0.0919388 0 -0.00275798)
(0.101927 0 -0.00345458)
(0.112948 0 -0.00430089)
(0.125176 0 -0.0053332)
(0.13882 0 -0.00660004)
(0.154142 0 -0.00817382)
(0.171358 0 -0.0101383)
(0.190587 0 -0.0125905)
(0.211574 0 -0.0155885)
(0.233219 0 -0.0190529)
(0.252783 0 -0.0225959)
(0.261405 0 -0.0241941)
(0 0 0)
(0.00282863 0 -1.00181e-05)
(0.0054986 0 -1.98225e-05)
(0.00813069 0 -3.03271e-05)
(0.0108327 0 -4.26744e-05)
(0.0136888 0 -5.83174e-05)
(0.0167663 0 -7.9187e-05)
(0.0201203 0 -0.000107847)
(0.0237965 0 -0.00014764)
(0.0278339 0 -0.000202827)
(0.032267 0 -0.000278704)
(0.0371309 0 -0.000381803)
(0.0424608 0 -0.000519974)
(0.0482885 0 -0.000702275)
(0.0546495 0 -0.000938911)
(0.0615947 0 -0.00124212)
(0.0691805 0 -0.00162562)
(0.0774709 0 -0.00210486)
(0.086556 0 -0.00269878)
(0.0965447 0 -0.00343056)
(0.107578 0 -0.00432937)
(0.119832 0 -0.00543307)
(0.133508 0 -0.00679153)
(0.148851 0 -0.00847049)
(0.166163 0 -0.0105597)
(0.185729 0 -0.0131666)
(0.207748 0 -0.0164064)
(0.232108 0 -0.0203461)
(0.25779 0 -0.0248448)
(0.281324 0 -0.0292459)
(0.291837 0 -0.0312208)
(0 0 0)
(0.00284562 0 -1.21095e-05)
(0.00553385 0 -2.40471e-05)
(0.00818665 0 -3.69609e-05)
(0.0109133 0 -5.22369e-05)
(0.0138001 0 -7.15944e-05)
(0.0169168 0 -9.72811e-05)
(0.0203218 0 -0.000132254)
(0.0240645 0 -0.000180351)
(0.0281884 0 -0.000246457)
(0.0327335 0 -0.000336667)
(0.0377427 0 -0.00045865)
(0.0432571 0 -0.000621487)
(0.049314 0 -0.000835732)
(0.0559616 0 -0.00111403)
(0.0632628 0 -0.00147146)
(0.0712812 0 -0.0019251)
(0.0800932 0 -0.00249504)
(0.089803 0 -0.00320553)
(0.100533 0 -0.00408605)
(0.112436 0 -0.00517452)
(0.125695 0 -0.00651719)
(0.140525 0 -0.00817475)
(0.157193 0 -0.0102281)
(0.175994 0 -0.0127784)
(0.197213 0 -0.0159479)
(0.221031 0 -0.0198638)
(0.247317 0 -0.0246138)
(0.274859 0 -0.0300633)
(0.299342 0 -0.0354472)
(0.322361 0 -0.0385105)
(0 0 0)
(0.00314782 0 0)
(0.0093487 0 0)
(0.0191138 0 0)
(0.0310579 0 0)
(0.0435599 0 0)
(0.0552157 0 0)
(0.0650915 0 0)
(0.0727265 0 0)
(0.078007 0 0)
(0.0810415 0 0)
(0.0820603 0 0)
(0.0813509 0 0)
(0.0792126 0 0)
(0.0759293 0 0)
(0.0717585 0 0)
(0.0669459 0 0)
(0.0617157 0 0)
(0.0562436 0 0)
(0.0506661 0 0)
(0.0451135 0 0)
(0.0396963 0 0)
(0.0344807 0 0)
(0.0295116 0 0)
(0.0248163 0 0)
(0.0203899 0 0)
(0.0162011 0 0)
(0.0121897 0 0)
(0.00825133 0 0)
(0.00423957 0 0)
(0 0 0)
(0.00215926 0 -0.00297682)
(0.00516877 0 -0.00319998)
(0.0114884 0 -0.00358403)
(0.0213072 0 -0.00399236)
(0.0332044 0 -0.00435833)
(0.0455606 0 -0.0046193)
(0.0570084 0 -0.00474447)
(0.0666534 0 -0.00473226)
(0.0740569 0 -0.00459795)
(0.0791141 0 -0.00436575)
(0.0819423 0 -0.0040621)
(0.0827788 0 -0.00371041)
(0.0819097 0 -0.00333334)
(0.0796343 0 -0.00294983)
(0.0762405 0 -0.00257548)
(0.0719811 0 -0.00221461)
(0.0670939 0 -0.00187514)
(0.0618014 0 -0.00156656)
(0.0562817 0 -0.00129177)
(0.0506703 0 -0.00105151)
(0.0450937 0 -0.000845507)
(0.0396589 0 -0.000671659)
(0.034431 0 -0.000526853)
(0.0294559 0 -0.000408548)
(0.0247608 0 -0.000312306)
(0.0203381 0 -0.000234555)
(0.0161559 0 -0.000171727)
(0.0121538 0 -0.000120318)
(0.00822711 0 -7.70766e-05)
(0.00422898 0 -3.82491e-05)
(0 0 0)
(0.00781223 0 -0.00612974)
(0.0111215 0 -0.00653985)
(0.017876 0 -0.0072927)
(0.0279053 0 -0.00810968)
(0.0396861 0 -0.00881593)
(0.0516539 0 -0.0092974)
(0.0625497 0 -0.00950715)
(0.0715572 0 -0.00944711)
(0.078299 0 -0.0091505)
(0.0827118 0 -0.0086619)
(0.0849422 0 -0.00803571)
(0.0852479 0 -0.00732478)
(0.0839117 0 -0.00656445)
(0.0812306 0 -0.00579271)
(0.0774971 0 -0.00504506)
(0.0729617 0 -0.00433286)
(0.0678477 0 -0.00366656)
(0.0623664 0 -0.00306133)
(0.0566933 0 -0.00252443)
(0.0509607 0 -0.00205683)
(0.0452901 0 -0.00165587)
(0.0397831 0 -0.0013175)
(0.034502 0 -0.00103587)
(0.0294904 0 -0.000803542)
(0.0247705 0 -0.000614304)
(0.0203331 0 -0.000461495)
(0.0161452 0 -0.000337778)
(0.0121423 0 -0.000236591)
(0.00821856 0 -0.000151443)
(0.00422678 0 -7.50671e-05)
(0 0 0)
(0.0171704 0 -0.00958349)
(0.0208456 0 -0.0102043)
(0.0283283 0 -0.0113282)
(0.0386682 0 -0.0125015)
(0.050233 0 -0.0134664)
(0.0616067 0 -0.0140916)
(0.0716554 0 -0.0143176)
(0.0796653 0 -0.0141467)
(0.085362 0 -0.0136355)
(0.0887574 0 -0.0128557)
(0.0900443 0 -0.0118859)
(0.0895027 0 -0.0108031)
(0.0874263 0 -0.00966307)
(0.0841027 0 -0.00851267)
(0.0798173 0 -0.00739633)
(0.0748257 0 -0.00634223)
(0.0693366 0 -0.00536625)
(0.0635435 0 -0.0044825)
(0.0576118 0 -0.00369892)
(0.0516699 0 -0.00301663)
(0.0458313 0 -0.00243029)
(0.0401903 0 -0.00193478)
(0.0348075 0 -0.00152202)
(0.0297182 0 -0.00118113)
(0.0249368 0 -0.000903352)
(0.0204542 0 -0.000678707)
(0.0162335 0 -0.000496858)
(0.012204 0 -0.000348208)
(0.0082584 0 -0.000222942)
(0.00424767 0 -0.000110532)
(0 0 0)
(0.0300148 0 -0.0135)
(0.0341842 0 -0.0143135)
(0.0425324 0 -0.0157859)
(0.0531413 0 -0.0172424)
(0.0643417 0 -0.0183741)
(0.0748733 0 -0.0190417)
(0.0837344 0 -0.0191832)
(0.0903885 0 -0.0188218)
(0.0946862 0 -0.0180348)
(0.0967356 0 -0.0169239)
(0.0967814 0 -0.0155896)
(0.0951212 0 -0.0141229)
(0.092071 0 -0.0126035)
(0.0879129 0 -0.0110871)
(0.0829114 0 -0.00961882)
(0.0773183 0 -0.00823991)
(0.0713312 0 -0.00697163)
(0.0651249 0 -0.00582577)
(0.058851 0 -0.00480967)
(0.0526323 0 -0.00392399)
(0.0465725 0 -0.00316247)
(0.0407535 0 -0.0025183)
(0.0352321 0 -0.00198135)
(0.0300365 0 -0.00153879)
(0.0251722 0 -0.00117772)
(0.0206272 0 -0.000885268)
(0.0163585 0 -0.000648628)
(0.012291 0 -0.000455014)
(0.00831474 0 -0.000291549)
(0.00427671 0 -0.000144654)
(0 0 0)
(0.046183 0 -0.0179511)
(0.0508827 0 -0.0189403)
(0.0601159 0 -0.0207231)
(0.0708498 0 -0.0223719)
(0.081483 0 -0.0235646)
(0.0908713 0 -0.0241515)
(0.0982055 0 -0.0240905)
(0.103176 0 -0.0234449)
(0.105774 0 -0.0223173)
(0.10621 0 -0.0208347)
(0.10478 0 -0.0191153)
(0.101803 0 -0.0172626)
(0.0975972 0 -0.0153662)
(0.0924525 0 -0.0134955)
(0.0866122 0 -0.0116974)
(0.080308 0 -0.0100143)
(0.0737268 0 -0.00847067)
(0.0670293 0 -0.00707896)
(0.0603505 0 -0.00584575)
(0.0538024 0 -0.00477021)
(0.0474786 0 -0.00384632)
(0.0414474 0 -0.00306464)
(0.0357573 0 -0.00241251)
(0.0304311 0 -0.00187538)
(0.0254665 0 -0.00143678)
(0.0208437 0 -0.00108114)
(0.0165147 0 -0.00079303)
(0.0124001 0 -0.000556898)
(0.00838534 0 -0.000357172)
(0.00431277 0 -0.000177369)
(0 0 0)
(0.0653298 0 -0.0229259)
(0.0705611 0 -0.0240909)
(0.0806047 0 -0.0261431)
(0.0912613 0 -0.027887)
(0.101041 0 -0.0290095)
(0.10895 0 -0.0293784)
(0.114446 0 -0.0289982)
(0.117449 0 -0.027976)
(0.118106 0 -0.0264452)
(0.116726 0 -0.0245542)
(0.113654 0 -0.0224346)