/*--------------------------------*- C++ -*----------------------------------*\
| =========                 |                                                 |
| \\      /  F ield         | OpenFOAM: The Open Source CFD Toolbox           |
|  \\    /   O peration     | Version:  2006                                  |
|   \\  /    A nd           | Website:  www.openfoam.com                      |
|    \\/     M anipulation  |                                                 |
\*---------------------------------------------------------------------------*/
FoamFile
{
    version     2.0;
    format      ascii;
    class       volVectorField;
    location    "0.3";
    object      cellDisplacement;
}
// * * * * * * * * * * * * * * * * * * * * * * * * * * * * * * * * * * * * * //

dimensions      [0 1 0 0 0 0 0];


internalField   nonuniform List<vector> 
2790
(
(1.80606e-05 4.70895e-08 0)
(5.46203e-05 1.44223e-07 0)
(9.93111e-05 2.6823e-07 0)
(0.000160123 4.45351e-07 0)
(0.000245174 7.04805e-07 0)
(0.000363599 1.08232e-06 0)
(0.000525807 1.62239e-06 0)
(0.00074346 2.38021e-06 0)
(0.00102919 3.42369e-06 0)
(0.00139605 4.83614e-06 0)
(0.00185663 6.72044e-06 0)
(0.00242188 9.20574e-06 0)
(0.00309965 1.24586e-05 0)
(0.00389287 1.66999e-05 0)
(0.00479748 2.22297e-05 0)
(0.0058002 2.94611e-05 0)
(0.0068762 3.89623e-05 0)
(0.00798705 5.15054e-05 0)
(0.00907919 6.81203e-05 0)
(0.0100836 9.0152e-05 0)
(0.010917 0.000119317 0)
(0.0114853 0.000157724 0)
(0.0116905 0.000207907 0)
(0.0114414 0.000272938 0)
(0.0106671 0.000356349 0)
(0.00933605 0.000462402 0)
(0.00748123 0.000596353 0)
(0.00523715 0.000763221 0)
(0.00291017 0.000955409 0)
(0.00118574 0.00109598 0)
(1.70204e-05 1.38193e-07 0)
(5.17565e-05 4.23924e-07 0)
(9.45776e-05 7.89652e-07 0)
(0.000153057 1.31265e-06 0)
(0.000235141 2.07953e-06 0)
(0.000349833 3.19632e-06 0)
(0.00050745 4.79508e-06 0)
(0.000719628 7.03946e-06 0)
(0.000999061 1.01304e-05 0)
(0.00135897 1.43138e-05 0)
(0.00181229 1.98916e-05 0)
(0.00237053 2.72412e-05 0)
(0.00304236 3.68462e-05 0)
(0.00383186 4.93457e-05 0)
(0.00473654 6.56048e-05 0)
(0.00574523 8.68123e-05 0)
(0.00683578 0.000114603 0)
(0.00797308 0.000151196 0)
(0.00910755 0.000199545 0)
(0.0101749 0.00026349 0)
(0.0110974 0.000347921 0)
(0.011787 0.000458758 0)
(0.0121516 0.000602871 0)
(0.0121078 0.000788374 0)
(0.0115922 0.00102342 0)
(0.0105838 0.00131559 0)
(0.00912966 0.00166967 0)
(0.00738782 0.00208208 0)
(0.0056933 0.00252633 0)
(0.00467449 0.00291125 0)
(1.67153e-05 2.24683e-07 0)
(5.09717e-05 6.90639e-07 0)
(9.3275e-05 1.28839e-06 0)
(0.000151114 2.14365e-06 0)
(0.000232397 3.39815e-06 0)
(0.000346116 5.22542e-06 0)
(0.000502621 7.84118e-06 0)
(0.00071364 1.15119e-05 0)
(0.000992054 1.65634e-05 0)
(0.00135141 2.33911e-05 0)
(0.00180515 3.24773e-05 0)
(0.00236559 4.44181e-05 0)
(0.00304255 5.99706e-05 0)
(0.00384176 8.01267e-05 0)
(0.00476306 0.000106223 0)
(0.00579838 0.000140091 0)
(0.00692977 0.000184253 0)
(0.0081274 0.000242127 0)
(0.00934822 0.000318249 0)
(0.010536 0.000418481 0)
(0.0116232 0.000550326 0)
(0.0125329 0.000722755 0)
(0.0131828 0.000945456 0)
(0.0135057 0.00123043 0)
(0.0134494 0.00158766 0)
(0.0130063 0.00202387 0)
(0.0122293 0.00253614 0)
(0.0112667 0.00310094 0)
(0.0103947 0.00365273 0)
(0.0100487 0.00404959 0)
(1.64437e-05 3.07768e-07 0)
(5.02233e-05 9.47368e-07 0)
(9.20132e-05 1.76847e-06 0)
(0.000149233 2.94269e-06 0)
(0.00022976 4.66382e-06 0)
(0.0003426 7.16865e-06 0)
(0.000498167 1.07503e-05 0)
(0.000708343 1.57688e-05 0)
(0.000986285 2.26609e-05 0)
(0.00134601 3.19512e-05 0)
(0.00180169 4.42706e-05 0)
(0.00236674 6.03879e-05 0)
(0.00305258 8.12648e-05 0)
(0.00386721 0.000108145 0)
(0.00481364 0.000142693 0)
(0.00588811 0.000187181 0)
(0.00707844 0.00024474 0)
(0.00836214 0.000319619 0)
(0.00970486 0.000417426 0)
(0.0110611 0.000545259 0)
(0.0123778 0.000712464 0)
(0.0135896 0.000929293 0)
(0.0146364 0.00120827 0)
(0.0154627 0.00156236 0)
(0.0160264 0.0020012 0)
(0.0163325 0.00252871 0)
(0.0164176 0.00313218 0)
(0.0163789 0.0037691 0)
(0.0163697 0.00434386 0)
(0.016604 0.00469486 0)
(1.61923e-05 3.86872e-07 0)
(4.95063e-05 1.19189e-06 0)
(9.07908e-05 2.22517e-06 0)
(0.000147408 3.70102e-06 0)
(0.000227215 5.86129e-06 0)
(0.000339243 9.00028e-06 0)
(0.000494001 1.34802e-05 0)
(0.000703562 1.97425e-05 0)
(0.000981435 2.83165e-05 0)
(0.0013422 3.98289e-05 0)
(0.00180094 5.50194e-05 0)
(0.00237239 7.47697e-05 0)
(0.00306989 0.000100159 0)
(0.00390418 0.000132555 0)
(0.00488203 0.000173765 0)
(0.00600487 0.000226248 0)
(0.00726753 0.000293396 0)
(0.00865652 0.00037984 0)
(0.010145 0.000491307 0)
(0.0117023 0.000635606 0)
(0.013291 0.000822665 0)
(0.0148646 0.00106364 0)
(0.0163835 0.00137164 0)
(0.017801 0.00175816 0)
(0.0190923 0.00223339 0)
(0.0202584 0.00279776 0)
(0.021304 0.00343242 0)
(0.0222507 0.0040884 0)
(0.0230961 0.00466288 0)
(0.0238198 0.00499068 0)
(1.59554e-05 4.61472e-07 0)
(4.88177e-05 1.42233e-06 0)
(8.96065e-05 2.65451e-06 0)
(0.000145633 4.41129e-06 0)
(0.000224743 6.97773e-06 0)
(0.000335999 1.06988e-05 0)
(0.000490017 1.5996e-05 0)
(0.000699094 2.33775e-05 0)
(0.000977127 3.34443e-05 0)
(0.00133934 4.68939e-05 0)
(0.00180179 6.45292e-05 0)
(0.00238068 8.72781e-05 0)
(0.00309149 0.000116238 0)
(0.00394793 0.000152761 0)
(0.00496086 0.000198593 0)
(0.00613731 0.00025609 0)
(0.00747987 0.000328521 0)
(0.00898103 0.000420096 0)
(0.0106277 0.000536442 0)
(0.012406 0.000685279 0)
(0.0142906 0.000875823 0)
(0.0162564 0.00111898 0)
(0.0182768 0.00142642 0)
(0.0203251 0.00180853 0)
(0.0223886 0.00227401 0)
(0.0244486 0.00282095 0)
(0.0264765 0.00343039 0)
(0.0284158 0.0040586 0)
(0.0301142 0.00461547 0)
(0.0313206 0.00494231 0)
(1.57307e-05 5.31173e-07 0)
(4.81571e-05 1.63728e-06 0)
(8.84604e-05 3.0535e-06 0)
(0.000143905 5.06794e-06 0)
(0.000222324 8.00346e-06 0)
(0.000332815 1.22481e-05 0)
(0.000486105 1.82717e-05 0)
(0.000694717 2.66337e-05 0)
(0.00097295 3.79837e-05 0)
(0.00133668 5.30578e-05 0)
(0.00180299 7.26746e-05 0)
(0.00238959 9.77396e-05 0)
(0.00311411 0.000129271 0)
(0.0039933 0.000168461 0)
(0.00504214 0.000216794 0)
(0.00627299 0.000276226 0)
(0.00769471 0.000349429 0)
(0.0093104 0.000439979 0)
(0.0111219 0.000552901 0)
(0.0131216 0.000694395 0)
(0.0153018 0.000872329 0)
(0.0176569 0.00109619 0)
(0.0201743 0.00137547 0)
(0.0228405 0.00171818 0)
(0.0256495 0.00213 0)
(0.0285603 0.00260813 0)
(0.0315117 0.00313478 0)
(0.0343763 0.00367305 0)
(0.0368733 0.00414847 0)
(0.0385349 0.0044203 0)
(1.55181e-05 5.95734e-07 0)
(4.75262e-05 1.83587e-06 0)
(8.73549e-05 3.42024e-06 0)
(0.000142222 5.66739e-06 0)
(0.000219942 8.9322e-06 0)
(0.000329643 1.36379e-05 0)
(0.000482154 2.02912e-05 0)
(0.000690209 2.94868e-05 0)
(0.000968491 4.19008e-05 0)
(0.00133351 5.82758e-05 0)
(0.0018033 7.94011e-05 0)
(0.00239705 0.000106096 0)
(0.00313445 0.00013921 0)
(0.00403513 0.000179649 0)
(0.00511798 0.000228458 0)
(0.00640046 0.000286956 0)
(0.007898 0.000356936 0)
(0.00962311 0.000440881 0)
(0.011586 0.000542283 0)
(0.0137926 0.00066574 0)
(0.0162512 0.000817012 0)
(0.0189662 0.00100291 0)
(0.0219381 0.00123018 0)
(0.0251623 0.00150406 0)
(0.0286249 0.00182627 0)
(0.0322694 0.00219218 0)
(0.0360001 0.00258428 0)
(0.0396166 0.00296786 0)
(0.04272 0.00327831 0)
(0.0446524 0.00340921 0)
(1.53189e-05 6.55087e-07 0)
(4.69292e-05 2.01777e-06 0)
(8.62955e-05 3.75394e-06 0)
(0.000140584 6.208e-06 0)
(0.000217587 9.76107e-06 0)
(0.000326447 1.48634e-05 0)
(0.000478071 2.20477e-05 0)
(0.000685374 3.19286e-05 0)
(0.000963371 4.51875e-05 0)
(0.00132913 6.25449e-05 0)
(0.00180156 8.47218e-05 0)
(0.00240114 0.000112398 0)
(0.00314941 0.000146179 0)
(0.00406859 0.000186587 0)
(0.00518098 0.00023409 0)
(0.00650854 0.000289194 0)
(0.00807246 0.000352583 0)
(0.00989265 0.000425312 0)
(0.0119879 0.000509031 0)
(0.0143754 0.000606137 0)
(0.0170718 0.000719802 0)
(0.0200909 0.000853781 0)
(0.0234405 0.00101162 0)
(0.027117 0.00119539 0)
(0.031095 0.00140392 0)
(0.0353034 0.00163006 0)
(0.0396002 0.00185671 0)
(0.0437096 0.00205335 0)
(0.0471201 0.00217298 0)
(0.0490464 0.00216731 0)
(1.51354e-05 7.09337e-07 0)
(4.63729e-05 2.18325e-06 0)
(8.5292e-05 4.05493e-06 0)
(0.000139003 6.6902e-06 0)
(0.000215262 1.04906e-05 0)
(0.000323205 1.59259e-05 0)
(0.000473787 2.35441e-05 0)
(0.000680054 3.3966e-05 0)
(0.00095728 4.786e-05 0)
(0.00132298 6.59008e-05 0)
(0.00179678 8.87101e-05 0)
(0.00240021 0.000116789 0)
(0.00315635 0.000150448 0)
(0.00408952 0.000189759 0)
(0.0052248 0.000234535 0)
(0.00658778 0.000284362 0)
(0.00820412 0.000338696 0)
(0.0100993 0.000397005 0)
(0.0122985 0.000458952 0)
(0.0148259 0.000524551 0)
(0.0177043 0.000594226 0)
(0.0209523 0.000668664 0)
(0.0245797 0.000748279 0)
(0.028579 0.000832271 0)
(0.0329111 0.000917268 0)
(0.0374809 0.000995595 0)
(0.0421018 0.00105367 0)
(0.0464341 0.00107273 0)
(0.0498949 0.00103632 0)
(0.051679 0.000957455 0)
(1.49708e-05 7.58785e-07 0)
(4.58667e-05 2.33317e-06 0)
(8.43592e-05 4.32476e-06 0)
(0.000137495 7.11649e-06 0)
(0.00021298 1.1125e-05 0)
(0.00031992 1.6832e-05 0)
(0.000469274 2.47921e-05 0)
(0.000674155 3.56198e-05 0)
(0.000950003 4.99562e-05 0)
(0.00131464 6.8412e-05 0)
(0.0017882 9.14895e-05 0)
(0.002393 0.000119487 0)
(0.00315325 0.000152396 0)
(0.00409479 0.000189813 0)
(0.00524473 0.000230867 0)
(0.00663119 0.000274212 0)
(0.00828294 0.000318066 0)
(0.0102291 0.000360324 0)
(0.0124985 0.00039872 0)
(0.0151193 0.000431002 0)
(0.0181168 0.00045506 0)
(0.0215105 0.00046891 0)
(0.0253073 0.000470432 0)
(0.0294916 0.00045684 0)
(0.0340082 0.000423978 0)
(0.0387362 0.000365845 0)
(0.0434532 0.000275461 0)
(0.0477824 0.00014959 0)
(0.0511322 9.74339e-07 0)
(0.052769 -0.00011893 0)
(1.48296e-05 8.03926e-07 0)
(4.54235e-05 2.46904e-06 0)
(8.35184e-05 4.56618e-06 0)
(0.00013609 7.49141e-06 0)
(0.000210775 1.16714e-05 0)
(0.000316621 1.75939e-05 0)
(0.000464546 2.58115e-05 0)
(0.000667657 3.69232e-05 0)
(0.000941448 5.15316e-05 0)
(0.00130389 7.01726e-05 0)
(0.00177542 9.32185e-05 0)
(0.00237878 0.000120758 0)
(0.00313888 0.000152466 0)
(0.00408248 0.000187472 0)
(0.0052379 0.00022426 0)
(0.00663469 0.000260607 0)
(0.00830327 0.0002936 0)
(0.0102744 0.000319724 0)
(0.0125786 0.000335035 0)
(0.0152447 0.000335382 0)
(0.0182977 0.000316645 0)
(0.0217544 0.000274913 0)
(0.025616 0.000206532 0)
(0.0298566 0.000108034 0)
(0.0344048 -2.38844e-05 0)
(0.0391177 -0.000191786 0)
(0.0437483 -0.000395148 0)
(0.0479063 -0.000624634 0)
(0.0510263 -0.000852138 0)
(0.0524779 -0.00101404 0)
(1.47175e-05 8.45432e-07 0)
(4.506e-05 2.59288e-06 0)
(8.27973e-05 4.78295e-06 0)
(0.000134826 7.82123e-06 0)
(0.000208699 1.21401e-05 0)
(0.000313373 1.82277e-05 0)
(0.000459674 2.66281e-05 0)
(0.000660626 3.79178e-05 0)
(0.000931663 5.26536e-05 0)
(0.00129074 7.12914e-05 0)
(0.00175833 9.40734e-05 0)
(0.00235732 0.000120888 0)
(0.00311284 0.000151114 0)
(0.00405196 0.000183465 0)
(0.00520339 0.000215853 0)
(0.00659709 0.000245314 0)
(0.00826379 0.000267993 0)
(0.0102343 0.000279249 0)
(0.0125387 0.000273855 0)
(0.0152044 0.000246302 0)
(0.0182536 0.000191187 0)
(0.0216986 0.000103613 0)
(0.0255338 -2.04256e-05 0)
(0.0297237 -0.000183683 0)
(0.0341846 -0.00038714 0)
(0.0387606 -0.000628828 0)
(0.0431925 -0.000901084 0)
(0.0470874 -0.0011855 0)
(0.0499064 -0.00144627 0)
(0.0511185 -0.00161939 0)
(1.46414e-05 8.84133e-07 0)
(4.47967e-05 2.70724e-06 0)
(8.22313e-05 4.97974e-06 0)
(0.000133757 8.11366e-06 0)
(0.000206825 1.25433e-05 0)
(0.000310272 1.87527e-05 0)
(0.000454782 2.72723e-05 0)
(0.000653215 3.86507e-05 0)
(0.000920832 5.33956e-05 0)
(0.0012754 7.18832e-05 0)
(0.0017372 9.42329e-05 0)
(0.00232894 0.000120154 0)
(0.00307553 0.00014877 0)
(0.00400378 0.000178449 0)
(0.00514208 0.000206651 0)
(0.00651986 0.000229839 0)
(0.00816701 0.000243476 0)
(0.0101131 0.000242146 0)
(0.0123862 0.000219814 0)
(0.0150107 0.000170238 0)
(0.018005 8.75203e-05 0)
(0.0213759 -3.32611e-05 0)
(0.0251118 -0.00019536 0)
(0.0291709 -0.000399651 0)
(0.0334654 -0.000643814 0)
(0.0378394 -0.00092113 0)
(0.0420399 -0.0012184 0)
(0.0456801 -0.00151269 0)
(0.0482234 -0.00176698 0)
(0.0492031 -0.00192124 0)
(1.46097e-05 9.21007e-07 0)
(4.4658e-05 2.81505e-06 0)
(8.18635e-05 5.16196e-06 0)
(0.000132948 8.37759e-06 0)
(0.000205248 1.28951e-05 0)
(0.000307451 1.91905e-05 0)
(0.000450049 2.77769e-05 0)
(0.000645667 3.91718e-05 0)
(0.000909278 5.3833e-05 0)
(0.00125831 7.20607e-05 0)
(0.00171263 9.38654e-05 0)
(0.00229445 0.000118805 0)
(0.00302808 0.000145803 0)
(0.0039396 0.000172967 0)
(0.0050564 0.000197441 0)
(0.00640665 0.000215316 0)
(0.00801853 0.00022165 0)
(0.00991934 0.000210629 0)
(0.0121341 0.000175901 0)
(0.0146836 0.000111098 0)
(0.0175813 1.05432e-05 0)
(0.0208292 -0.000129901 0)
(0.0244112 -0.000311913 0)
(0.028284 -0.000533779 0)
(0.0323636 -0.000789479 0)
(0.0365112 -0.00106792 0)
(0.0405069 -0.00135245 0)
(0.0439993 -0.00162224 0)
(0.0464131 -0.00185806 0)
(0.0470705 -0.00203102 0)
(0.00121482 -0.00119785 0)
(0.00354407 -0.00110171 0)
(0.00664391 -0.000909716 0)
(0.00952762 -0.000721941 0)
(0.0117695 -0.000559627 0)
(0.0132388 -0.000424671 0)
(0.0139616 -0.000315341 0)
(0.0140377 -0.000228875 0)
(0.0135943 -0.0001618 0)
(0.0127639 -0.000110911 0)
(0.0116687 -7.31867e-05 0)
(0.010417 -4.60253e-05 0)
(0.00909847 -2.70573e-05 0)
(0.00778462 -1.42721e-05 0)
(0.00652979 -6.0373e-06 0)
(0.00537244 -1.05202e-06 0)
(0.00433664 1.69764e-06 0)
(0.00343443 2.97609e-06 0)
(0.00266823 3.34002e-06 0)
(0.00203309 3.18056e-06 0)
(0.00151883 2.76107e-06 0)
(0.00111196 2.2494e-06 0)
(0.000797345 1.74458e-06 0)
(0.000559545 1.2981e-06 0)
(0.000383771 9.30357e-07 0)
(0.000256536 6.42699e-07 0)
(0.000165959 4.25884e-07 0)
(0.000101773 2.65496e-07 0)
(5.50567e-05 1.44948e-07 0)
(1.76939e-05 4.66254e-08 0)
(0.00472951 -0.00322395 0)
(0.00654806 -0.00294526 0)
(0.00904536 -0.00249794 0)
(0.011389 -0.00202335 0)
(0.0131778 -0.00158773 0)
(0.0142785 -0.00121348 0)
(0.0147091 -0.000904983 0)
(0.0145584 -0.000658749 0)
(0.013941 -0.000466344 0)
(0.0129807 -0.000319761 0)
(0.0117906 -0.000210735 0)
(0.0104719 -0.000132175 0)
(0.00910817 -7.72924e-05 0)
(0.0077652 -4.03105e-05 0)
(0.00649334 -1.65329e-05 0)
(0.0053278 -2.19322e-06 0)
(0.00428991 5.65531e-06 0)
(0.00338958 9.23734e-06 0)
(0.00262764 1.01743e-05 0)
(0.00199795 9.60546e-06 0)
(0.00148951 8.29755e-06 0)
(0.00108828 6.73824e-06 0)
(0.000778792 5.21415e-06 0)
(0.000545425 3.8731e-06 0)
(0.00037334 2.77215e-06 0)
(0.000249084 1.91298e-06 0)
(0.000160866 1.26661e-06 0)
(9.85519e-05 7.89256e-07 0)
(5.33649e-05 4.31036e-07 0)
(1.72812e-05 1.39067e-07 0)
(0.0100841 -0.00456757 0)
(0.0115242 -0.00425755 0)
(0.0132948 -0.00368984 0)
(0.0148375 -0.00303807 0)
(0.0158898 -0.00241134 0)
(0.0163638 -0.00185726 0)
(0.0162853 -0.00139238 0)
(0.015726 -0.00101614 0)
(0.0147931 -0.000720538 0)
(0.0135934 -0.000494142 0)
(0.0122237 -0.000325246 0)
(0.0107709 -0.00020292 0)
(0.00931041 -0.000117407 0)
(0.007898 -5.98035e-05 0)
(0.00657758 -2.28855e-05 0)
(0.00537924 -7.82623e-07 0)
(0.00431981 1.11354e-05 0)
(0.00340577 1.6372e-05 0)
(0.00263545 1.74848e-05 0)
(0.00200092 1.62723e-05 0)
(0.00148991 1.39437e-05 0)
(0.00108748 1.12667e-05 0)
(0.000777587 8.68936e-06 0)
(0.000544227 6.43975e-06 0)
(0.000372335 4.60183e-06 0)
(0.000248329 3.17209e-06 0)
(0.000160355 2.09887e-06 0)
(9.82516e-05 1.30763e-06 0)
(5.3233e-05 7.14637e-07 0)
(1.72485e-05 2.31286e-07 0)
(0.01663 -0.00537884 0)
(0.0177109 -0.0050653 0)
(0.0187143 -0.00444876 0)
(0.0193318 -0.00370663 0)
(0.019484 -0.00297027 0)
(0.0191625 -0.0023041 0)
(0.0184197 -0.00173643 0)
(0.0173234 -0.00127142 0)
(0.015969 -0.00090241 0)
(0.0144441 -0.000618016 0)
(0.0128303 -0.000405233 0)
(0.0111962 -0.000250684 0)
(0.00960347 -0.000142461 0)
(0.0080948 -6.9595e-05 0)
(0.00670507 -2.30639e-05 0)
(0.00545965 4.45633e-06 0)
(0.00436878 1.89269e-05 0)
(0.00343428 2.48618e-05 0)
(0.00265106 2.55638e-05 0)
(0.00200874 2.33586e-05 0)
(0.00149324 1.98093e-05 0)
(0.00108843 1.59043e-05 0)
(0.000777398 1.2216e-05 0)
(0.00054361 9.02934e-06 0)
(0.000371657 6.44141e-06 0)
(0.000247753 4.43565e-06 0)
(0.000159937 2.93356e-06 0)
(9.79923e-05 1.82775e-06 0)
(5.31067e-05 9.99627e-07 0)
(1.72135e-05 3.24181e-07 0)
(0.0238344 -0.0057934 0)
(0.024533 -0.00544974 0)
(0.0247383 -0.00480292 0)
(0.0243802 -0.00402589 0)
(0.0235655 -0.0032473 0)
(0.0223732 -0.00253372 0)
(0.0208868 -0.00191752 0)
(0.0191898 -0.00140798 0)
(0.0173553 -0.000999464 0)
(0.0154556 -0.000682278 0)
(0.0135548 -0.000443727 0)
(0.0117071 -0.000270197 0)
(0.00995641 -0.000148657 0)
(0.00833421 -6.70778e-05 0)
(0.00686291 -1.54254e-05 0)
(0.00556086 1.45542e-05 0)
(0.00443162 2.96615e-05 0)
(0.00347181 3.50811e-05 0)
(0.00267242 3.46243e-05 0)
(0.00202013 3.09798e-05 0)
(0.00149876 2.59525e-05 0)
(0.00109068 2.06779e-05 0)
(0.00077798 1.58046e-05 0)
(0.000543443 1.16447e-05 0)
(0.000371238 8.29053e-06 0)
(0.000247327 5.70237e-06 0)
(0.000159603 3.76939e-06 0)
(9.7774e-05 2.34862e-06 0)
(5.29937e-05 1.2853e-06 0)
(1.71805e-05 4.17441e-07 0)
(0.0313139 -0.00581776 0)
(0.0315206 -0.00542422 0)
(0.0308733 -0.00476979 0)
(0.0295319 -0.00400952 0)
(0.0277564 -0.0032497 0)
(0.0256982 -0.00254803 0)
(0.0234652 -0.00193533 0)
(0.0211546 -0.00142283 0)
(0.0188261 -0.00100797 0)
(0.0165371 -0.000683443 0)
(0.0143357 -0.000438178 0)
(0.0122617 -0.000259517 0)
(0.0103413 -0.000134431 0)
(0.00859474 -5.10454e-05 0)
(0.00703666 8.38758e-07 0)
(0.00567332 3.00329e-05 0)
(0.0045021 4.36619e-05 0)
(0.00351439 4.72201e-05 0)
(0.00269703 4.47717e-05 0)
(0.00203356 3.91896e-05 0)
(0.00150554 3.23977e-05 0)
(0.0010937 2.5596e-05 0)
(0.000779027 1.94562e-05 0)
(0.000543558 1.42838e-05 0)
(0.000370995 1.01466e-05 0)
(0.00024701 6.96997e-06 0)
(0.000159335 4.6047e-06 0)
(9.75935e-05 2.86912e-06 0)
(5.28976e-05 1.57101e-06 0)
(1.71518e-05 5.10816e-07 0)
(0.0385208 -0.00533016 0)
(0.0381234 -0.00494577 0)
(0.0366201 -0.00435699 0)
(0.0343608 -0.00368186 0)
(0.0317079 -0.00300214 0)
(0.0288629 -0.00236636 0)
(0.0259486 -0.00180264 0)
(0.0230634 -0.00132392 0)
(0.0202666 -0.000932457 0)
(0.0176041 -0.000623903 0)
(0.0151108 -0.000389666 0)
(0.0128125 -0.000218898 0)
(0.0107255 -9.99433e-05 0)
(0.0088571 -2.17469e-05 0)
(0.00721189 2.5661e-05 0)
(0.00578709 5.08755e-05 0)
(0.00457364 6.09206e-05 0)
(0.00355774 6.12694e-05 0)
(0.00272217 5.59934e-05 0)
(0.00204736 4.79736e-05 0)
(0.00151257 3.91306e-05 0)
(0.0010969 3.06461e-05 0)
(0.000780204 2.31605e-05 0)
(0.000543776 1.69391e-05 0)
(0.000370833 1.20042e-05 0)
(0.000246758 8.23493e-06 0)
(0.000159117 5.4373e-06 0)
(9.7447e-05 3.388e-06 0)
(5.28201e-05 1.85606e-06 0)
(1.7129e-05 6.04077e-07 0)
(0.0446355 -0.00433088 0)
(0.0436928 -0.00406014 0)
(0.0414884 -0.00362612 0)
(0.0384877 -0.00310108 0)
(0.0351212 -0.00255215 0)
(0.0316267 -0.00202366 0)
(0.0281454 -0.00154393 0)
(0.0247723 -0.00112895 0)
(0.0215691 -0.000785107 0)
(0.0185771 -0.000511769 0)
(0.0158227 -0.000303505 0)
(0.0133218 -0.000151995 0)
(0.0110812 -4.75763e-05 0)
(0.00910047 1.94739e-05 0)
(0.0073744 5.82127e-05 0)
(0.00589252 7.65715e-05 0)
(0.00463979 8.11212e-05 0)
(0.00359768 7.70309e-05 0)
(0.00274518 6.81641e-05 0)
(0.00205986 5.72521e-05 0)
(0.00151884 4.61001e-05 0)
(0.00109968 3.57955e-05 0)
(0.000781179 2.68969e-05 0)
(0.000543916 1.95976e-05 0)
(0.000370663 1.38556e-05 0)
(0.000246531 9.49268e-06 0)
(0.000158934 6.26464e-06 0)
(9.73315e-05 3.90391e-06 0)
(5.27628e-05 2.1398e-06 0)
(1.71131e-05 6.97016e-07 0)
(0.0490319 -0.00308903 0)
(0.0477757 -0.00296738 0)
(0.0451453 -0.00271564 0)
(0.0416546 -0.00236465 0)
(0.0377894 -0.00196947 0)
(0.033822 -0.00157035 0)
(0.0299127 -0.00119552 0)
(0.0261641 -0.000863314 0)
(0.0226415 -0.000583528 0)
(0.0193854 -0.00035909 0)
(0.0164183 -0.000187823 0)
(0.0137504 -6.41855e-05 0)
(0.011382 1.92136e-05 0)
(0.0093064 7.03758e-05 0)
(0.00751151 9.70563e-05 0)
(0.00598095 0.000106211 0)
(0.00469477 0.000103693 0)
(0.0036304 9.41498e-05 0)
(0.00276363 8.10648e-05 0)
(0.00206955 6.68908e-05 0)
(0.00152344 5.32249e-05 0)
(0.00110152 4.09952e-05 0)
(0.000781652 3.06365e-05 0)
(0.000543822 2.22426e-05 0)
(0.000370409 1.56912e-05 0)
(0.000246297 1.07381e-05 0)
(0.000158777 7.08407e-06 0)
(9.72475e-05 4.41555e-06 0)
(5.2729e-05 2.42169e-06 0)
(1.71057e-05 7.89468e-07 0)
(0.0516665 -0.00188626 0)
(0.0503099 -0.00187285 0)
(0.0475036 -0.00177055 0)
(0.0437641 -0.00157681 0)
(0.0396164 -0.00132993 0)
(0.0353606 -0.00106177 0)
(0.0311754 -0.000797495 0)
(0.0271745 -0.000555615 0)
(0.0234303 -0.00034789 0)
(0.0199858 -0.000179903 0)
(0.0168639 -5.22512e-05 0)
(0.0140723 3.80291e-05 0)
(0.011608 9.6089e-05 0)
(0.00946038 0.000128092 0)
(0.00761301 0.000140325 0)
(0.00604534 0.000138597 0)
(0.00473379 0.00012788 0)
(0.00365273 0.000112155 0)
(0.00277547 9.44058e-05 0)
(0.00207516 7.67142e-05 0)
(0.00152559 6.04e-05 0)
(0.00110196 4.61839e-05 0)
(0.000781385 3.43439e-05 0)
(0.000543375 2.48544e-05 0)
(0.00037002 1.75005e-05 0)
(0.000246041 1.19657e-05 0)
(0.000158645 7.89306e-06 0)
(9.72013e-05 4.92186e-06 0)
(5.27245e-05 2.7013e-06 0)
(1.71092e-05 8.81327e-07 0)
(0.0527532 -0.000811188 0)
(0.0514315 -0.000874804 0)
(0.0486321 -0.000886753 0)
(0.0448407 -0.000820645 0)
(0.0405995 -0.000700679 0)
(0.0362243 -0.000549952 0)
(0.0319081 -0.000388961 0)
(0.027776 -0.000234605 0)
(0.0239085 -9.89419e-05 0)
(0.0203543 1.10589e-05 0)
(0.0171387 9.2911e-05 0)
(0.0142705 0.00014756 0)
(0.0117458 0.000178236 0)
(0.00955241 0.000189399 0)
(0.00767162 0.000185895 0)
(0.00608054 0.000172353 0)
(0.00475331 0.000152804 0)
(0.00366232 0.000130495 0)
(0.00277919 0.000107848 0)
(0.00207574 8.65174e-05 0)
(0.00152476 6.75041e-05 0)
(0.0011007 5.12911e-05 0)
(0.000780223 3.79795e-05 0)
(0.000542508 2.74113e-05 0)
(0.000369476 1.92724e-05 0)
(0.000245766 1.31702e-05 0)
(0.000158552 8.68921e-06 0)
(9.72065e-05 5.42195e-06 0)
(5.27593e-05 2.97841e-06 0)
(1.71272e-05 9.72548e-07 0)
(0.0524626 0.000100952 0)
(0.0513099 -3.32258e-05 0)
(0.0486729 -0.000131688 0)
(0.0449879 -0.000159715 0)
(0.0408051 -0.000136277 0)
(0.036451 -7.9123e-05 0)
(0.0321288 -4.44628e-06 0)
(0.0279734 7.35363e-05 0)
(0.0240736 0.000143915 0)
(0.0204843 0.000199697 0)
(0.0172352 0.000237602 0)
(0.0143375 0.00025735 0)
(0.0117888 0.000260784 0)
(0.00957701 0.000250989 0)
(0.00768314 0.000231558 0)
(0.00608347 0.000206031 0)
(0.00475119 0.000177534 0)
(0.00365772 0.000148584 0)
(0.00277387 0.000121028 0)
(0.00207074 9.60798e-05 0)
(0.00152062 7.44067e-05 0)
(0.0010976 5.62418e-05 0)
(0.000778111 4.15013e-05 0)
(0.000541217 2.98911e-05 0)
(0.000368801 2.09954e-05 0)
(0.000245501 1.43463e-05 0)
(0.000158527 9.47043e-06 0)
(9.72858e-05 5.9152e-06 0)
(5.2848e-05 3.25293e-06 0)
(1.7165e-05 1.06316e-06 0)
(0.0511009 0.000717958 0)
(0.0502204 0.000569195 0)
(0.0478506 0.000436379 0)
(0.0443764 0.000358628 0)
(0.0403544 0.000323328 0)
(0.0361216 0.000317472 0)
(0.0318891 0.000329135 0)
(0.0277982 0.000347618 0)
(0.0239435 0.000364422 0)
(0.0203852 0.000373831 0)
(0.0171573 0.000372891 0)
(0.0142744 0.000360987 0)
(0.0117365 0.00033922 0)
(0.00953317 0.000309749 0)
(0.00764648 0.000275207 0)
(0.00605318 0.000238234 0)
(0.00472669 0.000201162 0)
(0.00363845 0.000165842 0)
(0.00275921 0.000133586 0)
(0.00206003 0.000105184 0)
(0.00151315 8.09791e-05 0)
(0.00109268 6.09622e-05 0)
(0.000775105 4.4869e-05 0)
(0.000539572 3.22724e-05 0)
(0.000368058 2.26593e-05 0)
(0.000245305 1.54895e-05 0)
(0.000158614 1.02353e-05 0)
(9.74722e-05 6.40145e-06 0)
(5.30108e-05 3.52508e-06 0)
(1.72297e-05 1.15329e-06 0)
(0.0491901 0.00104353 0)
(0.0485674 0.000923374 0)
(0.0464616 0.000799605 0)
(0.0432212 0.000713711 0)
(0.0394004 0.000657456 0)
(0.0353433 0.000620545 0)
(0.0312627 0.000594687 0)
(0.0273002 0.000573137 0)
(0.0235514 0.00055075 0)
(0.0200786 0.000524141 0)
(0.0169188 0.000491666 0)
(0.0140897 0.000453191 0)
(0.011594 0.000409724 0)
(0.00942397 0.000362983 0)
(0.00756345 0.000314985 0)
(0.00599079 0.000267711 0)
(0.00468053 0.000222865 0)
(0.00360499 0.000181744 0)
(0.00273559 0.000145193 0)
(0.0020439 0.000113629 0)
(0.00150259 8.71038e-05 0)
(0.00108616 6.53859e-05 0)
(0.000771384 4.80465e-05 0)
(0.000537716 3.45372e-05 0)
(0.000367363 2.4256e-05 0)
(0.000245266 1.65971e-05 0)
(0.000158879 1.09834e-05 0)
(9.78099e-05 6.88121e-06 0)
(5.3274e-05 3.79546e-06 0)
(1.73305e-05 1.24319e-06 0)
(0.0470488 0.00121248 0)
(0.0467431 0.00107583 0)
(0.0447939 0.000972885 0)
(0.041722 0.00091032 0)
(0.0380876 0.000865387 0)
(0.0342233 0.000825716 0)
(0.0303295 0.000785798 0)
(0.0265382 0.000743032 0)
(0.0229397 0.000696139 0)
(0.0195947 0.000644703 0)
(0.0165408 0.000589046 0)
(0.0137978 0.000530133 0)
(0.0113713 0.000469409 0)
(0.00925599 0.000408585 0)
(0.00743848 0.000349404 0)
(0.00589926 0.000293442 0)
(0.00461474 0.000241965 0)
(0.00355877 0.00019585 0)
(0.00270401 0.000155574 0)
(0.00202307 0.000121249 0)
(0.00148948 9.26833e-05 0)
(0.00107842 6.94587e-05 0)
(0.000767245 5.10058e-05 0)
(0.000535871 3.66725e-05 0)
(0.000366881 2.57805e-05 0)
(0.000245502 1.7668e-05 0)
(0.000159406 1.17155e-05 0)
(9.8355e-05 7.35573e-06 0)
(5.367e-05 4.06506e-06 0)
(1.74787e-05 1.33328e-06 0)
(1.46333e-05 9.57901e-07 0)
(4.46724e-05 2.92168e-06 0)
(8.17385e-05 5.33893e-06 0)
(0.000132462 8.62739e-06 0)
(0.000204048 1.32163e-05 0)
(0.000305007 1.95708e-05 0)
(0.000445591 2.81831e-05 0)
(0.000638114 3.95372e-05 0)
(0.00089715 5.40405e-05 0)
(0.00123962 7.19229e-05 0)
(0.00168479 9.31005e-05 0)
(0.00225408 0.00011701 0)
(0.00297086 0.000142429 0)
(0.00385999 0.000167295 0)
(0.00494735 0.000188569 0)
(0.00625919 0.000202167 0)
(0.00782125 0.000203011 0)
(0.0096578 0.000185245 0)
(0.0117902 0.000142635 0)
(0.0142349 6.91984e-05 0)
(0.0170003 -3.99533e-05 0)
(0.0200834 -0.000187622 0)
(0.0234649 -0.000373473 0)
(0.0271019 -0.000592994 0)
(0.0309173 -0.000836507 0)
(0.0347958 -0.00108861 0)
(0.0385723 -0.00132754 0)
(0.0420032 -0.00152456 0)
(0.0447485 -0.00164926 0)
(0.0459985 -0.00166993 0)
(1.4669e-05 9.92841e-07 0)
(4.47184e-05 3.02171e-06 0)
(8.16442e-05 5.50157e-06 0)
(0.000131966 8.84953e-06 0)
(0.000202732 1.34883e-05 0)
(0.000302229 1.9869e-05 0)
(0.000440407 2.84607e-05 0)
(0.000629178 3.97126e-05 0)
(0.000882591 5.39843e-05 0)
(0.0012169 7.14436e-05 0)
(0.00165053 9.19317e-05 0)
(0.00220384 0.000114801 0)
(0.0028989 0.00013874 0)
(0.00375894 0.000161613 0)
(0.00480783 0.000180333 0)
(0.00606932 0.000190833 0)
(0.00756611 0.000188148 0)
(0.0093188 0.000166685 0)
(0.0113446 0.000120691 0)
(0.0136554 4.49357e-05 0)
(0.0162537 -6.43302e-05 0)
(0.0191313 -0.000208325 0)
(0.0222656 -0.000384708 0)
(0.0256154 -0.00058667 0)
(0.029104 -0.00080174 0)
(0.0326304 -0.00101201 0)
(0.0360746 -0.00119445 0)
(0.039269 -0.00131927 0)
(0.0419791 -0.00135302 0)
(0.0437709 -0.00125997 0)
(1.46864e-05 1.02381e-06 0)
(4.47046e-05 3.10925e-06 0)
(8.14204e-05 5.63988e-06 0)
(0.000131215 9.02951e-06 0)
(0.000200943 1.36916e-05 0)
(0.000298621 2.00611e-05 0)
(0.000433827 2.85824e-05 0)
(0.000617977 3.96704e-05 0)
(0.000864474 5.36417e-05 0)
(0.00118874 7.06141e-05 0)
(0.00160815 9.03765e-05 0)
(0.00214179 0.000112236 0)
(0.00281007 0.000134858 0)
(0.0036343 0.000156121 0)
(0.00463593 0.000173021 0)
(0.00583578 0.000181673 0)
(0.00725308 0.000177436 0)
(0.00890428 0.000155222 0)
(0.0108019 0.000110002 0)
(0.0129547 3.74825e-05 0)
(0.015358 -6.48472e-05 0)
(0.0179973 -0.000196665 0)
(0.0208451 -0.000353946 0)
(0.0238646 -0.000528666 0)
(0.0269849 -0.000707272 0)
(0.0301004 -0.000871043 0)
(0.0330911 -0.000998003 0)
(0.0358144 -0.00106267 0)
(0.0380964 -0.00103256 0)
(0.0395832 -0.000858586 0)
(1.46675e-05 1.04973e-06 0)
(4.45771e-05 3.18119e-06 0)
(8.09724e-05 5.74872e-06 0)
(0.000130065 9.16011e-06 0)
(0.000198475 1.38172e-05 0)
(0.000293898 2.01367e-05 0)
(0.000425474 2.85374e-05 0)
(0.000604031 3.94019e-05 0)
(0.000842208 5.30093e-05 0)
(0.00115446 6.94404e-05 0)
(0.00155693 8.84554e-05 0)
(0.00206719 0.000109355 0)
(0.00270383 0.000130836 0)
(0.0034859 0.000150876 0)
(0.0044322 0.000166661 0)
(0.0055604 0.000174621 0)
(0.00688599 0.000170589 0)
(0.00842096 0.000150142 0)
(0.0101719 0.000109142 0)
(0.0121453 4.42284e-05 0)
(0.0143337 -4.60064e-05 0)
(0.0167143 -0.000159967 0)
(0.019258 -0.000292737 0)
(0.0219198 -0.000435321 0)
(0.0246363 -0.000574641 0)
(0.0273136 -0.000693664 0)
(0.0298352 -0.000772924 0)
(0.0320573 -0.000790709 0)
(0.0338017 -0.000720956 0)
(0.0347717 -0.000531386 0)
(1.45929e-05 1.06948e-06 0)
(4.42797e-05 3.23437e-06 0)
(8.02018e-05 5.82284e-06 0)
(0.000128365 9.23391e-06 0)
(0.000195114 1.38555e-05 0)
(0.000287769 2.00843e-05 0)
(0.000414962 2.83132e-05 0)
(0.000586849 3.88943e-05 0)
(0.000815199 5.20757e-05 0)
(0.00111336 6.79137e-05 0)
(0.00149611 8.61617e-05 0)
(0.00197934 0.000106147 0)
(0.00257963 0.000126651 0)
(0.00331365 0.000145812 0)
(0.00419738 0.000161091 0)
(0.00524531 0.000169323 0)
(0.00646931 0.000166906 0)
(0.00787754 0.000150138 0)
(0.00947322 0.000115714 0)
(0.0112541 6.1355e-05 0)
(0.0132104 -1.33713e-05 0)
(0.015319 -0.000106287 0)
(0.0175471 -0.000212088 0)
(0.0198482 -0.000322029 0)
(0.0221595 -0.000424106 0)
(0.0243962 -0.000503621 0)
(0.0264513 -0.000544366 0)
(0.0281912 -0.000529361 0)
(0.0294529 -0.000441045 0)
(0.0300239 -0.000264139 0)
(1.44519e-05 1.08236e-06 0)
(4.37768e-05 3.26652e-06 0)
(7.9048e-05 5.85858e-06 0)
(0.000126029 9.24616e-06 0)
(0.000190748 1.3801e-05 0)
(0.000280102 1.98986e-05 0)
(0.000402153 2.79057e-05 0)
(0.000566311 3.8146e-05 0)
(0.000783388 5.08426e-05 0)
(0.00106553 6.60381e-05 0)
(0.00142603 8.34978e-05 0)
(0.00187901 0.000102604 0)
(0.00243891 0.000122256 0)
(0.00311995 0.000140803 0)
(0.00393532 0.000156029 0)
(0.00489635 0.000165231 0)
(0.00601152 0.000165406 0)
(0.00728538 0.000153578 0)
(0.00871754 0.000127256 0)
(0.0103015 8.49972e-05 0)
(0.0120235 2.70359e-05 0)
(0.0138593 -4.41137e-05 0)
(0.0157746 -0.000123295 0)
(0.0177235 -0.00020261 0)
(0.0196459 -0.000271722 0)
(0.0214656 -0.000318583 0)
(0.0230888 -0.000330511 0)
(0.024403 -0.000295342 0)
(0.0252793 -0.000202793 0)
(0.0255802 -4.76871e-05 0)
(1.42266e-05 1.087e-06 0)
(4.30198e-05 3.274e-06 0)
(7.74329e-05 5.85024e-06 0)
(0.000122949 9.18934e-06 0)
(0.000185245 1.3645e-05 0)
(0.000270747 1.95703e-05 0)
(0.000386901 2.73062e-05 0)
(0.000542315 3.71506e-05 0)