/*--------------------------------*- C++ -*----------------------------------*\
| =========                 |                                                 |
| \\      /  F ield         | OpenFOAM: The Open Source CFD Toolbox           |
|  \\    /   O peration     | Version:  2006                                  |
|   \\  /    A nd           | Website:  www.openfoam.com                      |
|    \\/     M anipulation  |                                                 |
\*---------------------------------------------------------------------------*/
FoamFile
{
    version     2.0;
    format      ascii;
    class       surfaceScalarField;
    location    "0.3";
    object      meshPhi;
}
// * * * * * * * * * * * * * * * * * * * * * * * * * * * * * * * * * * * * * //

dimensions      [0 3 -1 0 0 0 0];
oriented        oriented;


internalField   nonuniform List<scalar> 
5457
(
1.35123e-05
7.14988e-08
2.78677e-05
2.1466e-07
4.51286e-05
3.72196e-07
6.71503e-05
5.62799e-07
9.55803e-05
8.00118e-07
0.00013193
1.09273e-06
0.00017754
1.44389e-06
0.000233491
1.85086e-06
0.000300483
2.30459e-06
0.000378703
2.79063e-06
0.000467674
3.29176e-06
0.000566131
3.79295e-06
0.000671903
4.28849e-06
0.000781842
4.79053e-06
0.000891773
5.33704e-06
0.000996498
5.99578e-06
0.00108987
6.86029e-06
0.00116507
8.03946e-06
0.00121522
9.65458e-06
0.001234
1.18581e-05
0.00121599
1.48039e-05
0.00115743
1.85637e-05
0.00105841
2.32825e-05
0.000922909
2.92646e-05
0.000758954
3.67279e-05
0.000578901
4.56414e-05
0.00039893
5.55475e-05
0.000240371
6.54597e-05
0.000131533
7.43376e-05
9.02072e-05
1.32023e-05
1.41048e-07
2.72906e-05
4.238e-07
4.42861e-05
7.35598e-07
6.60182e-05
1.1134e-06
9.41349e-05
1.58427e-06
0.000130159
2.16526e-06
0.000175451
2.86273e-06
0.000231123
3.67083e-06
0.000297922
4.57072e-06
0.000376089
5.53206e-06
0.00046522
6.51818e-06
0.000564134
7.49581e-06
0.000670768
8.44946e-06
0.000782105
9.3991e-06
0.000894139
1.04175e-05
0.00100186
1.16399e-05
0.00109926
1.3256e-05
0.00117956
1.54815e-05
0.00123594
1.85442e-05
0.0012625
2.27707e-05
0.00125398
2.8547e-05
0.0012055
3.59372e-05
0.00111721
4.51744e-05
0.000992839
5.70733e-05
0.000839748
7.22802e-05
0.00066997
9.0906e-05
0.000498191
0.000111808
0.000345931
0.000131125
0.000246006
0.000142498
0.00013176
1.2959e-05
2.08331e-07
2.68398e-05
6.26351e-07
4.36302e-05
1.08796e-06
6.51441e-05
1.6476e-06
9.30347e-05
2.3451e-06
0.000128842
3.20535e-06
0.000173958
4.23699e-06
0.000229541
5.42977e-06
0.000296402
6.7531e-06
0.000374869
8.15788e-06
0.000464652
9.58382e-06
0.000564713
1.09738e-05
0.000673176
1.22959e-05
0.000787263
1.35705e-05
0.000903283
1.49002e-05
0.00101661
1.64892e-05
0.00112155
1.86329e-05
0.00121125
2.1656e-05
0.00127887
2.58351e-05
0.00131983
3.17046e-05
0.00132863
3.98765e-05
0.00129936
5.049e-05
0.00123331
6.4231e-05
0.00113129
8.23957e-05
0.00100031
0.000106261
0.000853325
0.000137191
0.000700453
0.000174957
0.000559262
0.000214852
0.000463128
0.000245369
0.00024211
1.28235e-05
2.73184e-07
2.65876e-05
8.21595e-07
4.3265e-05
1.42743e-06
6.46676e-05
2.16156e-06
9.24589e-05
3.07557e-06
0.000128202
4.201e-06
0.000173327
5.54724e-06
0.00022905
7.0976e-06
0.000296263
8.80677e-06
0.000375404
1.06027e-05
0.000466328
1.23958e-05
0.000568191
1.40978e-05
0.000679364
1.56504e-05
0.000797404
1.70648e-05
0.000919075
1.84645e-05
0.00104038
2.01247e-05
0.00115622
2.24704e-05
0.00125877
2.58372e-05
0.00134131
3.04828e-05
0.00140221
3.72959e-05
0.00143483
4.71984e-05
0.00143429
6.07519e-05
0.00140224
7.89066e-05
0.00133362
0.000102873
0.00123874
0.000135442
0.00113224
0.000180366
0.00101827
0.000239839
0.000907872
0.000312493
0.000827077
0.000385902
0.000434409
1.26966e-05
3.35065e-07
2.63472e-05
1.00779e-06
4.2916e-05
1.7507e-06
6.4216e-05
2.6498e-06
9.1925e-05
3.7671e-06
0.000127634
5.13935e-06
0.000172821
6.77477e-06
0.00022877
8.64767e-06
0.000296473
1.06945e-05
0.000376501
1.28153e-05
0.000468891
1.48844e-05
0.00057303
1.67729e-05
0.000687596
1.83852e-05
0.000810546
1.97084e-05
0.000939216
2.08721e-05
0.00107056
2.22176e-05
0.00119967
2.42324e-05
0.00131698
2.72019e-05
0.00141832
3.162e-05
0.00150485
3.88047e-05
0.00156816
4.98769e-05
0.00160513
6.57476e-05
0.00161365
8.72062e-05
0.00158932
0.000115486
0.00154906
0.000154864
0.001505
0.000210392
0.00146136
0.000285883
0.00143061
0.000383815
0.00143031
0.00049332
0.000588057
1.25767e-05
3.93515e-07
2.61175e-05
1.18346e-06
4.25813e-05
2.05499e-06
6.3785e-05
3.10772e-06
9.14224e-05
4.41261e-06
0.000127117
6.00986e-06
0.000172399
7.90446e-06
0.000228633
1.00589e-05
0.000296919
1.23876e-05
0.000377983
1.47575e-05
0.000472065
1.69993e-05
0.000578819
1.89339e-05
0.000697262
2.04153e-05
0.000825783
2.13892e-05
0.000962276
2.19647e-05
0.00110449
2.2492e-05
0.00124725
2.34752e-05
0.00138201
2.54459e-05
0.00150783
2.93165e-05
0.00162408
3.63758e-05
0.00172273
4.77409e-05
0.00180171
6.45631e-05
0.00185464
8.76968e-05
0.00188739
0.00011845
0.00191868
0.00016046
0.00195336
0.000217201
0.00200488
0.000290192
0.00209794
0.000378843
0.00224562
0.000470691
0.000571758
1.24632e-05
4.48169e-07
2.5898e-05
1.34745e-06
4.22597e-05
2.33807e-06
6.33699e-05
3.53166e-06
9.09401e-05
5.00642e-06
0.000126629
6.80423e-06
0.00017202
8.92466e-06
0.000228563
1.13156e-05
0.000297477
1.38658e-05
0.000379653
1.64036e-05
0.000475546
1.87094e-05
0.000585098
2.05444e-05
0.000707687
2.16993e-05
0.000842136
2.20623e-05
0.000986815
2.16991e-05
0.00113975
2.09262e-05
0.00129656
2.03095e-05
0.00145242
2.07023e-05
0.00160569
2.32725e-05
0.00175246
2.92659e-05
0.00188872
3.99728e-05
0.00201301
5.67432e-05
0.00211946
8.04405e-05
0.00222047
0.000111647
0.00232735
0.000151532
0.00243913
0.000199861
0.00257669
0.000251959
0.00277075
0.000297004
0.00302581
0.000317261
0.000289518
1.2356e-05
4.98746e-07
2.56889e-05
1.49884e-06
4.19504e-05
2.59824e-06
6.29669e-05
3.91875e-06
9.04675e-05
5.54414e-06
0.000126145
7.51613e-06
0.000171639
9.82675e-06
0.000228482
1.24068e-05
0.000298017
1.51158e-05
0.000381298
1.77395e-05
0.000479006
2.00017e-05
0.000591371
2.15957e-05
0.000718143
2.22385e-05
0.000858592
2.17481e-05
0.00101157
2.01355e-05
0.00117547
1.76926e-05
0.0013475
1.50415e-05
0.00152505
1.31677e-05
0.00170509
1.34214e-05
0.00188451
1.73601e-05
0.00206226
2.65715e-05
0.00223676
4.24704e-05
0.00240506
6.58162e-05
0.00257491
9.63143e-05
0.00274711
0.000132561
0.00291714
0.000170621
0.00309707
0.000201325
0.00330046
0.000209368
0.00351549
0.000180978
9.95313e-05
1.22557e-05
5.45074e-07
2.5491e-05
1.63709e-06
4.16533e-05
2.83438e-06
6.25729e-05
4.26716e-06
8.99948e-05
6.02303e-06
0.000125643
8.14174e-06
0.000171211
1.0606e-05
0.000228313
1.33273e-05
0.000298405
1.61337e-05
0.000382703
1.87649e-05
0.000482104
2.08841e-05
0.000597123
2.21105e-05
0.000727869
2.20804e-05
0.000874065
2.05328e-05
0.0010351
1.74156e-05
0.00121001
1.2993e-05
0.00139733
7.92789e-06
0.00159537
3.33031e-06
0.0018022
7.4797e-07
0.0020166
2.03692e-06
0.00223791
9.13065e-06
0.00246431
2.3676e-05
0.00269333
4.64475e-05
0.00292425
7.67011e-05
0.0031499
0.000111604
0.00335844
0.00014548
0.00353962
0.000169542
0.00367846
0.000174252
0.00375819
0.000157465
0.000133801
1.21632e-05
5.8714e-07
2.53057e-05
1.76211e-06
4.13694e-05
3.04632e-06
6.21864e-05
4.57656e-06
8.95143e-05
6.44258e-06
0.000125105
8.68067e-06
0.000170698
1.12627e-05
0.000227981
1.40795e-05
0.000298515
1.69263e-05
0.000383663
1.94954e-05
0.000484519
2.13872e-05
0.000601859
2.21448e-05
0.00073613
2.13196e-05
0.000887477
1.85671e-05
0.00105581
1.37679e-05
0.00124086
7.15571e-06
0.00144214
-5.7118e-07
0.00165915
-8.17758e-06
0.00189143
-1.38894e-05
0.00213873
-1.551e-05
0.00240061
-1.06826e-05
0.00267536
2.65466e-06
0.00295914
2.55788e-05
0.00324523
5.73724e-05
0.00351996
9.48458e-05
0.0037611
0.000132195
0.00393897
0.00016228
0.00402356
0.000179828
0.00401669
0.000184229
0.000197224
1.20801e-05
6.25099e-07
2.5136e-05
1.87436e-06
4.11017e-05
3.23481e-06
6.18086e-05
4.84807e-06
8.90228e-05
6.80458e-06
0.000124517
9.13586e-06
0.00017007
1.18019e-05
0.000227428
1.46726e-05
0.000298244
1.75099e-05
0.000384005
1.99596e-05
0.000485978
2.15603e-05
0.000605163
2.17798e-05
0.0007423
2.00854e-05
0.000897909
1.60491e-05
0.00107237
9.48338e-06
0.00126602
5.9008e-07
0.00147922
-9.90076e-06
0.00171245
-2.06313e-05
0.00196639
-2.95921e-05
0.00224177
-3.42219e-05
0.00253882
-3.16796e-05
0.00285609
-1.93432e-05
0.00318899
4.43731e-06
0.00352765
3.9437e-05
0.00385346
8.27996e-05
0.00413654
0.000128915
0.00433756
0.000170374
0.00442414
0.000199252
0.00441453
0.000206831
0.000185314
1.20087e-05
6.59243e-07
2.49859e-05
1.97471e-06
4.08556e-05
3.40133e-06
6.14449e-05
5.084e-06
8.85228e-05
7.11246e-06
0.000123875
9.51254e-06
0.000169309
1.2232e-05
0.000226616
1.51198e-05
0.000297519
1.79066e-05
0.000383606
2.01937e-05
0.000486278
2.14621e-05
0.000606721
2.11091e-05
0.000745912
1.85233e-05
0.000904672
1.31984e-05
0.00108377
4.88194e-06
0.00128405
-6.25559e-06
0.00150653
-1.94575e-05
0.00175252
-3.32541e-05
0.00202362
-4.54143e-05
0.00232153
-5.30259e-05
0.00264737
-5.27654e-05
0.00300049
-4.14164e-05
0.00337669
-1.6662e-05
0.00376562
2.19578e-05
0.00414741
7.22232e-05
0.00448975
0.000128948
0.0047492
0.000184279
0.00488648
0.000227612
0.00490661
0.000245324
0.000238049
1.1952e-05
6.89974e-07
2.48611e-05
2.06435e-06
4.06389e-05
3.54796e-06
6.11041e-05
5.28747e-06
8.80227e-05
7.37086e-06
0.000123185
9.81758e-06
0.000168413
1.25632e-05
0.000225528
1.5437e-05
0.0002963
1.81408e-05
0.000382388
2.02364e-05
0.000485293
2.11535e-05
0.000606332
2.02279e-05
0.000746658
1.67796e-05
0.000907318
1.02335e-05
0.00108937
2.80562e-07
0.00129403
-1.29379e-05
0.00152281
-2.86456e-05
0.00177765
-4.52821e-05
0.00206091
-6.0433e-05
0.00237515
-7.0895e-05
0.00272252
-7.29432e-05
0.00310364
-6.28709e-05
0.00351583
-3.78252e-05
0.00395077
3.18324e-06
0.00439136
5.84444e-05
0.00480861
0.00012334
0.00515994
0.000190745
0.00539488
0.00025095
0.00548201
0.000290483
0.000311884
1.19138e-05
7.17803e-07
2.47689e-05
2.14482e-06
4.04622e-05
3.67731e-06
6.07997e-05
5.46245e-06
8.75381e-05
7.5855e-06
0.000122463
1.00591e-05
0.000167396
1.28072e-05
0.000224172
1.56412e-05
0.000294584
1.8238e-05
0.00038033
2.01259e-05
0.000482972
2.06928e-05
0.00060391
1.9225e-05
0.000744405
1.49876e-05
0.000905647
7.35179e-06
0.00108888
-4.03696e-06
0.00129556
-1.90617e-05
0.00152752
-3.69359e-05
0.00178713
-5.60395e-05
0.00207729
-7.38361e-05
0.00240127
-8.6932e-05
0.00276218
-9.13505e-05
0.00316204
-8.31036e-05
0.00360034
-5.90889e-05
0.00407212
-1.81767e-05
0.00456573
3.79397e-05
0.00506015
0.000104738
0.00552112
0.000175789
0.0058966
0.000242975
0.00612005
0.000293162
0.000329514
1.18988e-05
7.43558e-07
2.47185e-05
2.21851e-06
4.03386e-05
3.79339e-06
6.05488e-05
5.6147e-06
8.70894e-05
7.76417e-06
0.000121731
1.02475e-05
0.000166283
1.29774e-05
0.000222572
1.575e-05
0.000292391
1.82213e-05
0.000377449
1.9894e-05
0.000479327
2.01248e-05
0.000599459
1.81647e-05
0.000739153
1.32415e-05
0.000899666
4.68993e-06
0.00108232
-7.87469e-06
0.00128869
-2.43539e-05
0.00152075
-4.39618e-05
0.00178111
-6.50564e-05
0.00207297
-8.50565e-05
0.00240005
-0.000100505
0.00276613
-0.00010736
0.00317437
-0.000101604
0.00362617
-8.02078e-05
0.00411968
-4.23053e-05
0.00464832
9.88216e-06
0.00519927
7.11103e-05
0.00574903
0.000134348
0.00625538
0.000191475
0.00663195
0.000228844
0.000259105
0.000164019
-0.000106307
0.000354757
-0.000115835
0.000623923
-0.000132699
0.000911712
-0.000140663
0.00117231
-0.000137696
0.00138151
-0.000126387
0.00153067
-0.000110906
0.00161855
-9.42428e-05
0.00164917
-7.76579e-05
0.00162991
-6.18927e-05
0.00156937
-4.77096e-05
0.001477
-3.5661e-05
0.00136066
-2.58476e-05
0.00122773
-1.80167e-05
0.00108598
-1.19284e-05
0.000942295
-7.36176e-06
0.000802131
-4.06979e-06
0.000669734
-1.79976e-06
0.000548297
-3.21003e-07
0.00043996
5.65531e-07
0.000345847
1.02623e-06
0.000266177
1.19592e-06
0.000200412
1.1801e-06
0.000147433
1.05782e-06
0.000105717
8.85212e-07
7.34911e-05
6.99102e-07
4.88467e-05
5.20659e-07
2.97926e-05
3.58596e-07
1.42364e-05
2.11726e-07
7.1125e-08
0.000289282
-0.000188487
0.000491681
-0.000231163
0.000762192
-0.000262737
0.00103978
-0.000274432
0.00128377
-0.000265875
0.00147456
-0.000242901
0.00160561
-0.000212627
0.00167703
-0.000180369
0.0016943
-0.000148752
0.00166416
-0.000118991
0.00159415
-9.20931e-05
0.00149433
-6.89904e-05
0.00137236
-5.00284e-05
0.00123474
-3.48455e-05
0.00108942
-2.30057e-05
0.000943303
-1.41251e-05
0.000801546
-7.73049e-06
0.000668178
-3.32829e-06
0.000546228
-4.68847e-07
0.000437706
1.23626e-06
0.000343634
2.11207e-06
0.00026415
2.42214e-06
0.000198651
2.37265e-06
0.000145971
2.11806e-06
0.000104556
1.76788e-06
7.26145e-05
1.39383e-06
4.823e-05
1.03693e-06
2.94122e-05
7.13767e-07
1.40691e-05
4.21435e-07
1.41622e-07
0.000533545
-0.000334514
0.000766557
-0.00037869
0.00103762
-0.000400254
0.00129166
-0.000399465
0.00150131
-0.00037828
0.00165666
-0.000342603
0.00175223
-0.000299228
0.00179086
-0.000253448
0.00178279
-0.000208877
0.00173273
-0.000167473
0.00164602
-0.000130202
0.00153287
-9.79414e-05
0.00140092
-7.11776e-05
0.0012545
-4.95802e-05
0.00110204
-3.2612e-05
0.000951001
-1.98566e-05
0.00080588
-1.06906e-05
0.000670258
-4.39542e-06
0.000546859
-3.23429e-07
0.00043747
2.08529e-06
0.000342939
3.30026e-06
0.00026327
3.70262e-06
0.000197758
3.59064e-06
0.000145164
3.18767e-06
0.000103885
2.65188e-06
7.20959e-05
2.08659e-06
4.78635e-05
1.5505e-06
2.91887e-05
1.06674e-06
1.39723e-05
6.29903e-07
2.11756e-07
0.000963815
-0.000558264
0.00121307
-0.000547974
0.00145724
-0.000530839
0.00166029
-0.000502784
0.00181176
-0.000464761
0.00191312
-0.000417688
0.00196048
-0.000365483
0.00195523
-0.000311119
0.00191023
-0.000257122
0.00183026
-0.000206379
0.00172009
-0.000160741
0.00158923
-0.00012125
0.00144382
-8.82953e-05
0.00128551
-6.14287e-05
0.00112308
-4.01752e-05
0.000965108
-2.41756e-05
0.000815102
-1.26965e-05
0.000676075
-4.83482e-06
0.00055036
2.21457e-07
0.000439445
3.17821e-06
0.000343952
4.6298e-06
0.000263707
5.05971e-06
0.000197876
4.84644e-06
0.000145128
4.2734e-06
0.00010379
3.54095e-06
7.19972e-05
2.77957e-06
4.77865e-05
2.06274e-06
2.91422e-05
1.41839e-06
1.39529e-05
8.37592e-07
2.81655e-07
0.00164655
-0.000711457
0.00184724
-0.000653802
0.00200815
-0.000601921
0.00212287
-0.000555988
0.00219099
-0.000510941
0.00221789
-0.000460746
0.00220687
-0.000406304
0.00215453
-0.000349336
0.00206624
-0.000291155
0.00194945
-0.000234867
0.0018105
-0.000183472
0.00165783
-0.00013862
0.00149475
-0.000100795
0.00132225
-6.97339e-05
0.00114885
-4.52055e-05
0.000982753
-2.6769e-05
0.00082684
-1.35389e-05
0.000683627
-4.50765e-06
0.000555029
1.25517e-06
0.000442191
4.57014e-06
0.000345462
6.13289e-06
0.00026446
6.51083e-06
0.000198194
6.14851e-06
0.000145214
5.37857e-06
0.000103771
4.43576e-06
7.19434e-05
3.47228e-06
4.77346e-05
2.57283e-06
2.91075e-05
1.76793e-06
1.39372e-05
1.04393e-06
3.51107e-07
0.00250747
-0.000679973
0.00258438
-0.00060576
0.00261824
-0.000567962
0.00262503
-0.000539723
0.00260165
-0.000509921
0.00254632
-0.00047071
0.0024684
-0.000422341
0.00236565
-0.000367649
0.00223365
-0.000309447
0.00207977
-0.000251457
0.00191076
-0.000197277
0.00173344
-0.000149145
0.00154958
-0.000108018
0.00136165
-7.41663e-05
0.00117729
-4.75165e-05
0.00100252
-2.74836e-05
0.000840126
-1.31069e-05
0.000692259
-3.33909e-06
0.00056043
2.82531e-06
0.000445422
6.28944e-06
0.00034729
7.82498e-06
0.000265418
8.06329e-06
0.000198642
7.49937e-06
0.000145385
6.5032e-06
0.000103806
5.33524e-06
7.19241e-05
4.16335e-06
4.77039e-05
3.07951e-06
2.90841e-05
2.11439e-06
1.39261e-05
1.24831e-06
4.19895e-07
0.00328601
-0.0003914
0.00324026
-0.000432286
0.00317058
-0.000458222
0.00309329
-0.000475514
0.0029982
-0.000475201
0.00287685
-0.000455191
0.00273655
-0.000418292
0.00258043
-0.000369453
0.0024046
-0.000313925
0.00221394
-0.000256729
0.00201417
-0.000202013
0.00181071
-0.000152587
0.00160563
-0.000109988
0.00140223
-7.48539e-05
0.00120661
-4.71571e-05
0.00102297
-2.63097e-05
0.000853921
-1.13816e-05
0.000701253
-1.31425e-06
0.000566081
4.94086e-06
0.000448823
8.34014e-06
0.000349232
9.70668e-06
0.000266456
9.71571e-06
0.000199146
8.89669e-06
0.000145596
7.64474e-06
0.000103872
6.23706e-06
7.19277e-05
4.8509e-06
4.76892e-05
3.58136e-06
2.90706e-05
2.45681e-06
1.39196e-05
1.45016e-06
4.87825e-07
0.00374352
-0.000200428
0.00367645
-0.000306077
0.00358673
-0.000372961
0.00347918
-0.000417831
0.00334607
-0.000436083
0.00318322
-0.000429499
0.00299639
-0.000402067
0.00279247
-0.000359454
0.00257444
-0.000307819
0.00234725
-0.00025286
0.00211629
-0.000199193
0.00188642
-0.000150067
0.00166061
-0.000107419
0.00144207
-7.21308e-05
0.00123506
-4.42764e-05
0.00104272
-2.33343e-05
0.000867213
-8.41521e-06
0.000709902
1.53412e-06
0.000571501
7.58011e-06
0.000452077
1.07072e-05
0.000351086
1.17673e-05
0.000267445
1.14604e-05
0.000199631
1.03349e-05
0.000145805
8.79924e-06
0.000103944
7.13843e-06
7.19426e-05
5.533e-06
4.76859e-05
4.07713e-06
2.90658e-05
2.79442e-06
1.39177e-05
1.64904e-06
5.54755e-07
0.00395625
-0.000282684
0.00394734
-0.000331877
0.00389365
-0.000371639
0.00379092
-0.000401255
0.00364135
-0.000413949
0.00345064
-0.000407499
0.00322863
-0.000382711
0.00298582
-0.000343354
0.00273061
-0.000294728
0.00247016
-0.000242219
0.00221049
-0.000190391
0.00195642
-0.000142588
0.00171147
-0.000100908
0.00147865
-6.63668e-05
0.00126089
-3.91272e-05
0.00106051
-1.87293e-05
0.000879086
-4.32258e-06
0.000717561
5.12936e-06
0.000576251
1.06921e-05
0.00045489
1.33571e-05
0.000352663
1.3985e-05
0.00026827
1.32832e-05
0.000200026
1.1805e-05
0.000145973
9.961e-06
0.000104004
8.03588e-06
7.19597e-05
6.20762e-06
4.76907e-05
4.56566e-06
2.90691e-05
3.12656e-06
1.39206e-05
1.84464e-06
6.20589e-07
0.0041919
-0.000455395
0.00421356
-0.000421781
0.00417652
-0.000416876
0.00407012
-0.000415413
0.00390186
-0.000409683
0.00368345
-0.000393752
0.00342902
-0.000365142
0.00315236
-0.000325219
0.0028649
-0.000277705
0.00257558
-0.000227018
0.00229112
-0.000177165
0.00201644
-0.000131223
0.00175509
-9.11956e-05
0.00150974
-5.80893e-05
0.00128257
-3.20877e-05
0.00107522
-1.27616e-05
0.000888757
7.106e-07
0.000723681
9.34426e-06
0.000579955
1.4191e-05
0.000457015
1.62327e-05
0.000353805
1.63225e-05
0.000268834
1.51604e-05
0.000200275
1.32923e-05
0.000146068
1.11211e-05
0.000104037
8.92416e-06
7.19734e-05
6.87177e-06
4.77026e-05
5.04536e-06
2.90814e-05
3.45247e-06
1.39291e-05
2.03662e-06
6.85226e-07
0.00455328
-0.000484267
0.00455144
-0.000481731
0.00448625
-0.000460413
0.00434687
-0.000438651
0.00414318
-0.000415382
0.00388902
-0.00038695
0.00360004
-0.000350825
0.0032912
-0.000307356
0.00297495
-0.000259041
0.00266077
-0.000209216
0.00235547
-0.000161077
0.00206384
-0.000117163
0.00178913
-7.91732e-05
0.00153359
-4.79592e-05
0.00129883
-2.36425e-05
0.00108597
-5.78108e-06
0.000895583
6.43653e-06
0.000727812
1.40065e-05
0.000582308
1.79592e-05
0.000458252
1.92557e-05
0.000354384
1.87287e-05
0.00026906
1.70594e-05
0.000200336
1.47763e-05
0.000146072
1.22673e-05
0.000104033
9.79611e-06
7.19822e-05
7.52147e-06
4.77231e-05
5.51411e-06
2.91048e-05
3.77109e-06
1.39448e-05
2.22452e-06
7.48543e-07
0.00498991
-0.000544302
0.00494909
-0.000535388
0.00482663
-0.000499861
0.00462713
-0.00046244
0.00436923
-0.000424423
0.00406893
-0.000383743
0.00374152
-0.000338922
0.00340096
-0.000290381
0.00305875
-0.000239999
0.00272356
-0.000190233
0.00240151
-0.000143444
0.00209674
-0.000101524
0.00181197
-6.57342e-05
0.00154894
-3.66687e-05
0.00130877
-1.4314e-05
0.00109207
1.82781e-06
0.000899088
1.25787e-05
0.000729626
1.89219e-05
0.000583087
2.18636e-05
0.000458456
2.23367e-05
0.000354314
2.11452e-05
0.000268901
1.8943e-05
0.000200186
1.62344e-05
0.000145974
1.33859e-05
0.000103994
1.0644e-05
7.199e-05
8.15249e-06
4.77573e-05
5.96977e-06
2.91437e-05
4.08144e-06
1.39702e-05
2.40794e-06
8.1044e-07
0.00550686
-0.00064132
0.00539822
-0.000574828
0.00518627
-0.000524233
0.0049017
-0.000476592
0.00457369
-0.000429124
0.00421911
-0.000379344
0.0038508
-0.000327094
0.0034797
-0.000273661
0.00311475
-0.000220949
0.00276264
-0.000170915
0.00242806
-0.000125254
0.00211412
-8.52474e-05
0.00182276
-5.1693e-05
0.00155512
-2.48796e-05
0.00131184
-4.61709e-06
0.00109316
9.67787e-06
0.000899002
1.88548e-05
0.000728934
2.38902e-05
0.000582172
2.57662e-05
0.000457554
2.53834e-05
0.000353556
2.35119e-05
0.000268338
2.07734e-05
0.000199822
1.76432e-05
0.00014578
1.44634e-05
0.000103929
1.14601e-05
7.2007e-05
8.76087e-06
4.7814e-05
6.41047e-06
2.92048e-05
4.38275e-06
1.4009e-05
2.58664e-06
8.70868e-07
0.00610243
-0.00056666
0.0058662
-0.000540951
0.00552958
-0.000508198
0.00514412
-0.000469132
0.00473986
-0.000422448
0.00433005
-0.000369375
0.00392286
-0.000312912
0.00352495
-0.000256212
0.00314177
-0.000201868
0.00277745
-0.000151785
0.00243485
-0.000107266
0.00211578
-6.91326e-05
0.0018213
-3.77814e-05
0.00155196
-1.32103e-05
0.00130794
4.95392e-06
0.00108914
1.73906e-05
0.000895264
2.49849e-05
0.000725702
2.87112e-05
0.000579547
2.95279e-05
0.000455546
2.8302e-05
0.000352119
2.57676e-05
0.000267391
2.25119e-05
0.000199265
1.89794e-05
0.000145512
1.54862e-05
0.000103857
1.22371e-05
7.20497e-05
9.34282e-06
4.79065e-05
6.8345e-06
2.92972e-05
4.67442e-06
1.40658e-05
2.76048e-06
9.29816e-07
0.00657347
-0.000427419
0.00621922
-0.000467113
0.00577475
-0.000465532
0.00530676
-0.000443516
0.0048411
-0.000403645
0.00438756
-0.00035196
0.00395068
-0.000294731
0.00353357
-0.000237044
0.00313869
-0.000182401
0.00276781
-0.00013294
0.00242205
-8.98377e-05
0.00210198
-5.36434e-05
0.00180785
-2.44694e-05
0.00153965
-2.08087e-06
0.00129719
1.40522e-05
0.00108011
2.46956e-05
0.00088794
3.07684e-05
0.000719981
3.32425e-05
0.000575254
3.30521e-05
0.000452474
3.10301e-05
0.000350044
2.78742e-05
0.000266095
2.4137e-05
0.000198549
2.02322e-05
0.0001452
1.64501e-05
0.000103804
1.29746e-05
7.21399e-05
9.89986e-06
4.80513e-05
7.24403e-06
2.94321e-05
4.95845e-06
1.41465e-05
2.93085e-06
9.87793e-07
1.23606e-05
7.67363e-07
2.56505e-05
2.28588e-06
4.18008e-05
3.89711e-06
6.26472e-05
5.74591e-06
8.9972e-05
7.90986e-06
0.000125586
1.03877e-05
0.000171343
1.30823e-05
0.000229109
1.57771e-05
0.000300724
1.81127e-05
0.000387939
1.95743e-05
0.000492379
1.94996e-05
0.000615521
1.71199e-05
0.000758715
1.1644e-05
0.000923256
2.38876e-06
0.00111051
-1.10462e-05
0.0013221
-2.85766e-05
0.00156009
-4.94318e-05
0.00182718
-7.19924e-05
0.00212679
-9.37186e-05
0.0024629
-0.000111228
0.00283965
-0.000120603
0.00326085
-0.000118029
0.00372908
-0.00010079
0.0042439
-6.8511e-05
0.00480059
-2.41419e-05
0.00538974
2.60913e-05
0.00599204
7.40607e-05
0.00657063
0.000111171
0.00703453
0.000124941
8.82398e-05
0.00742097
1.26704e-05
7.88217e-07
2.62601e-05
2.34415e-06
4.27195e-05
3.98443e-06
6.38995e-05
5.85132e-06
9.15908e-05
8.0181e-06
0.000127609
1.04772e-05
0.000173807
1.31238e-05
0.000232051
1.57323e-05
0.000304172
1.79348e-05
0.000391915
1.92086e-05
0.000496889
1.88856e-05
0.00062055
1.61938e-05
0.000764217
1.03408e-05
0.000929139
6.42981e-07
0.00111662
-1.33038e-05
0.00132818
-3.14291e-05
0.00156578
-5.29968e-05
0.00183201
-7.64583e-05
0.00213021
-9.94025e-05
0.00246421
-0.000118651
0.00283784
-0.000130573
0.00325469
-0.000131713
0.00371751
-0.00011977
0.00422585
-9.47965e-05
0.0047737
-6.01755e-05
0.00535014
-2.25937e-05
0.0059347
9.43226e-06
0.00648984
2.74787e-05
0.0069403
2.10036e-05
-3.05538e-05
0.00718925
1.29718e-05
8.05331e-07
2.68464e-05
2.39116e-06
4.35859e-05
4.05214e-06
6.50465e-05
5.92733e-06
9.30166e-05
8.08573e-06
0.000129303
1.05147e-05
0.000175741
1.31043e-05
0.000234174
1.56251e-05
0.000306404
1.77076e-05
0.000394135
1.88318e-05
0.000498927
1.83376e-05
0.000622175
1.5466e-05
0.000765114
9.44115e-06
0.000928885
-4.05133e-07
0.00111464
-1.44708e-05
0.00132371
-3.27007e-05
0.00155778
-5.44122e-05
0.00181905
-7.81676e-05
0.00211063
-0.000101758
0.00243594
-0.000122317
0.00279796
-0.000136606
0.00319923
-0.000141603
0.00364167
-0.000135409
0.00412394
-0.000118278
0.00463795
-9.34604e-05
0.0051691
-6.72293e-05
0.00569425
-4.76055e-05
0.00617666
-4.24766e-05
0.00655795
-6.02145e-05
-0.000105341
0.00674007
1.32481e-05
8.18189e-07
2.73758e-05
2.42549e-06
4.43463e-05
4.09826e-06
6.60109e-05
5.97177e-06
9.41431e-05
8.11114e-06
0.000130525
1.05002e-05
0.00017696
1.30268e-05
0.000235246
1.54627e-05
0.000307129
1.74449e-05
0.000394247
1.84666e-05
0.000498079
1.78889e-05
0.000619918
1.49818e-05
0.000760876
9.00231e-06
0.000921929
-6.87932e-07
0.00110402
-1.44718e-05
0.00130818
-3.23108e-05
0.00153571
-5.35918e-05
0.00178828
-7.70234e-05
0.00206839
-0.000100641
0.00237888
-0.000121936
0.00272169
-0.000138115
0.00309804
-0.000146624
0.00350815
-0.0001459
0.00394904
-0.000136191
0.00441145
-0.000120174
0.00487867
-0.000102994
0.00532597
-9.12971e-05
0.00571863
-9.1549e-05
0.00600705
-0.000109033
-0.000141048
0.00612321
1.34841e-05
8.26371e-07
2.78174e-05
2.44598e-06
4.49523e-05
4.12118e-06
6.67228e-05
5.98301e-06
9.48746e-05
8.09318e-06
0.00013115
1.04336e-05
0.000177301
1.28933e-05
0.000235061
1.52504e-05
0.000306098
1.71555e-05
0.000391956
1.81253e-05
0.000494006
1.75549e-05
0.000613407
1.47571e-05
0.000751111
9.0364e-06
0.000907892
-2.02956e-07
0.00108443
-1.33208e-05
0.00128141
-3.02947e-05
0.0014997
-5.05906e-05
0.00174041
-7.30845e-05
0.00200514
-9.60744e-05
0.00229572
-0.000117409
0.00261317
-0.000134743
0.00295749
-0.000145972
0.00332712
-0.000149797
0.00371733
-0.000146334
0.00411825
-0.000137543
0.00451332
-0.000127216
0.00487866
-0.000120244
0.00518273
-0.000121228
0.00538557
-0.000133089
-0.00015196
0.00544842
1.36652e-05
8.29414e-07
2.81414e-05
2.45141e-06
4.53577e-05
4.11917e-06
6.7118e-05
5.9593e-06
9.51261e-05
8.03067e-06
0.00013107
1.0315e-05
0.000176632
1.27056e-05
0.000233462
1.49917e-05
0.00030313
1.68446e-05
0.000387066
1.78132e-05
0.000486507
1.73369e-05
0.000602458
1.47834e-05
0.000735685
9.51631e-06
0.000886733
9.92586e-07
0.001056
-1.11175e-05
0.0012438
-2.68048e-05
0.00145054
-4.56146e-05
0.00167674
-6.65894e-05
0.00192311
-8.82887e-05
0.00219031
-0.000108909
0.00247839
-0.000126514
0.00278625
-0.000139375
0.00311099
-0.000146393
0.0034468
-0.000147519
0.00378362
-0.000144019
0.0041061
-0.000138431
0.00439321
-0.00013401
0.00461883
-0.000133719
0.00475344
-0.000139131
-0.000147377
0.00477845
1.37764e-05
8.26889e-07
2.83188e-05
2.44062e-06
4.55187e-05
4.09072e-06
6.71368e-05
5.89911e-06
9.48215e-05
7.92242e-06
0.000130192
1.01438e-05
0.000174846
1.24639e-05
0.000230334
1.46872e-05
0.00029811
1.65112e-05
0.000379474
1.75242e-05
0.000475514
1.72183e-05
0.000587066
1.50244e-05
0.000714698
1.03735e-05
0.000858722
2.78243e-06
0.00101924
-8.04301e-06
0.00119621
-2.21025e-05
0.00138957
-3.90154e-05
0.00159924
-5.79794e-05
0.00182514
-7.77957e-05
0.00206698
-9.6976e-05
0.00232381
-0.000113934
0.00259361
-0.000127248
0.00287264
-0.000135966
0.00315467
-0.000139883
0.00343015
-0.000139695
0.00368568
-0.00013694
0.00390411
-0.000133612
0.00406552
-0.000131503
0.00414968
-0.000131505
-0.00013207
0.00415037
1.38048e-05
8.18576e-07
2.8324e-05
2.41305e-06
4.53978e-05
4.03511e-06
6.67299e-05
5.80175e-06
9.39005e-05
7.76796e-06
0.000128446
9.9198e-06
0.000171868
1.21673e-05
0.000225603
1.43337e-05
0.000290978
1.61472e-05
0.00036915
1.72402e-05
0.00046105
1.71627e-05
0.00056734
1.54144e-05
0.000688391
1.14986e-05
0.000824287
4.99579e-06
0.000974855
-4.34883e-06
0.00113972
-1.6539e-05
0.00131839
-3.12594e-05
0.00151026
-4.78466e-05
0.00171457
-6.53154e-05
0.00193026
-8.24498e-05
0.00215564
-9.79554e-05
0.00238806
-0.000110659
0.00262338
-0.000119722
0.00285553
-0.000124821
0.00307603
-0.00012624
0.00327386
-0.000124813
0.00343587
-0.000121676
0.00354789
-0.000117877
0.00359689
-0.000113982
-0.000109494
0.00358366
1.37398e-05
8.04344e-07
2.81371e-05
2.36837e-06
4.49663e-05
3.95195e-06
6.58611e-05
5.66694e-06
9.23215e-05
7.56708e-06
0.000125791
9.64235e-06
0.00016766
1.1814e-05
0.000219245
1.39262e-05
0.000281735
1.57403e-05
0.00035614
1.69357e-05
0.000443231
1.71228e-05
0.000543501
1.58721e-05
0.000657133
1.27599e-05
0.000784003
7.43183e-06
0.000923698
-3.26318e-07
0.00107556
-1.05182e-05
0.00123873
-2.28843e-05
0.00141217
-3.6882e-05
0.00159461
-5.171e-05
0.00178447
-6.63826e-05
0.00197956
-7.9848e-05
0.0021769
-9.1136e-05
0.00237239
-9.95082e-05
0.00256048
-0.000104578
0.00273409
-0.000106366
0.00288463
-0.00010526
0.00300254
-0.000101872
0.0030783
-9.68141e-05
0.00310401
-9.04941e-05
-8.31128e-05
0.00308401
1.35734e-05
7.84192e-07
2.77431e-05
2.30663e-06
4.42038e-05
3.84142e-06
6.45072e-05
5.49504e-06
9.00622e-05
7.32018e-06
0.000122209
9.31141e-06
0.000162222
1.14021e-05
0.000211286
1.34585e-05
0.00027045
1.5276e-05
0.000340576
1.65816e-05
0.000422279
1.70457e-05
0.000515893
1.63078e-05
0.000621434
1.4016e-05
0.000738598
9.87797e-06
0.000866775
3.71973e-06
0.00100508
-4.45979e-06
0.00115239
-1.44483e-05
0.00130735
-2.58067e-05
0.00146837
-3.789e-05
0.0016335
-4.99066e-05
0.00180037
-6.10082e-05
0.00196593
-7.03978e-05
0.00212637
-7.74367e-05
0.00227695
-8.17267e-05
0.00241199
-8.31484e-05
0.00252511
-8.18397e-05
0.00260971
-7.81168e-05
0.00265971
-7.23573e-05
0.00267058
-6.48892e-05
-5.63078e-05
0.00264819
1.33009e-05
7.58262e-07
2.71337e-05
2.22825e-06
4.31008e-05
3.70427e-06
6.26609e-05
5.28713e-06
8.71231e-05
7.02844e-06
0.000117717
8.92759e-06
0.000155593
1.09303e-05
0.000201805
1.29249e-05
0.00025726
1.47402e-05
0.000322674
1.61488e-05
0.000398518
1.68787e-05
0.00048498
1.66343e-05
0.000581933
1.513e-05
0.000688932
1.21314e-05
0.000805219
7.50116e-06
0.000929752
1.24172e-06
0.00106123
-6.47466e-06
0.00119812
-1.5297e-05
0.00133863
-2.47133e-05
0.00148071
-3.40962e-05
0.00162192
-4.27704e-05
0.0017594
-5.00922e-05
0.00188979
-5.55259e-05
0.00200919
-5.87034e-05
0.00211327
-5.94528e-05
0.00219745
-5.77923e-05
0.00225736
-5.38887e-05
0.00228931
-4.79971e-05
0.00229093
-4.04012e-05
-3.18658e-05
0.00226842
1.2921e-05
7.26841e-07
2.63078e-05
2.13408e-06
4.16592e-05
3.54191e-06
6.03318e-05
5.04511e-06
8.35281e-05
6.69403e-06
0.000112361
8.49268e-06
0.000147859
1.03987e-05
0.000190938
1.23213e-05
0.00024237
1.41209e-05
0.000302732
1.56125e-05
0.000372363
1.65762e-05
0.000451325
1.67757e-05
0.000539377
1.59845e-05
0.00063597