/*--------------------------------*- C++ -*----------------------------------*\
| =========                 |                                                 |
| \\      /  F ield         | OpenFOAM: The Open Source CFD Toolbox           |
|  \\    /   O peration     | Version:  4.1                                   |
|   \\  /    A nd           | Web:      www.OpenFOAM.org                      |
|    \\/     M anipulation  |                                                 |
\*---------------------------------------------------------------------------*/
FoamFile
{
    version     2.0;
    format      ascii;
    class       volVectorField;
    location    "2.6";
    object      Force;
}
// * * * * * * * * * * * * * * * * * * * * * * * * * * * * * * * * * * * * * //

dimensions      [1 1 -2 0 0 0 0];

internalField   uniform (0 0 0);

boundaryField
{
    inlet
    {
        type            calculated;
        value           uniform (0 0 0);
    }
    outlet
    {
        type            calculated;
        value           uniform (0 0 0);
    }
    flap
    {
        type            calculated;
        value           nonuniform List<vector> 
33
(
(3.44022 -0.259438 -1.16496e-19)
(3.41885 -0.603856 3.99583e-18)
(3.36492 -0.940311 -8.41998e-18)
(3.27002 -1.21541 1.03208e-17)
(3.14337 -1.42172 3.0137e-21)
(2.99666 -1.56807 -2.07582e-18)
(2.84389 -1.66714 1.68492e-17)
(2.68515 -1.7259 1.40387e-17)
(2.5295 -1.736 1.54473e-17)
(2.38388 -1.70883 -1.25912e-17)
(2.2279 -1.65879 -2.08019e-18)
(2.03819 -1.57429 -1.08403e-17)
(1.81516 -1.43814 -9.70593e-18)
(1.5502 -1.24494 6.4056e-18)
(1.22375 -0.986023 -6.5969e-18)
(0.648324 0.793091 2.12636e-18)
(0.296336 0.366283 -1.41059e-37)
(0.105019 0.133411 0)
(0.033532 -0.00310026 -1.19224e-18)
(0.0337291 -0.00709574 1.25545e-18)
(0.0343109 -0.0112251 1.34317e-18)
(0.0354038 -0.0151038 -3.86775e-22)
(0.0361413 -0.018496 1.54565e-18)
(0.0363626 -0.0212342 2.07424e-19)
(0.0368321 -0.0238708 -3.05122e-24)
(0.0379649 -0.0265795 -1.81874e-18)
(0.0392374 -0.0288517 -1.88855e-18)
(0.0398262 -0.0303051 1.93266e-18)
(0.0395594 -0.0311805 2.19889e-18)
(0.0394139 -0.0318747 -2.04342e-18)
(0.03949 -0.0321126 -4.78829e-24)
(0.0414959 -0.0335275 2.17519e-18)
(0.0477833 -0.0375409 6.69144e-18)
)
;
    }
    upperWall
    {
        type            calculated;
        value           uniform (0 0 0);
    }
    lowerWall
    {
        type            calculated;
        value           uniform (0 0 0);
    }
    frontAndBack
    {
        type            empty;
    }
}


// ************************************************************************* //
