/*--------------------------------*- C++ -*----------------------------------*\
| =========                 |                                                 |
| \\      /  F ield         | OpenFOAM: The Open Source CFD Toolbox           |
|  \\    /   O peration     | Version:  2006                                  |
|   \\  /    A nd           | Website:  www.openfoam.com                      |
|    \\/     M anipulation  |                                                 |
\*---------------------------------------------------------------------------*/
FoamFile
{
    version     2.0;
    format      ascii;
    class       volVectorField;
    location    "0.9";
    object      cellDisplacement;
}
// * * * * * * * * * * * * * * * * * * * * * * * * * * * * * * * * * * * * * //

dimensions      [0 1 0 0 0 0 0];


internalField   nonuniform List<vector> 
2790
(
(0.00208803 3.83787e-06 0)
(0.00589581 1.10579e-05 0)
(0.00944332 1.8403e-05 0)
(0.0128553 2.6453e-05 0)
(0.0162133 3.56776e-05 0)
(0.0195672 4.65436e-05 0)
(0.0229375 5.94974e-05 0)
(0.0263204 7.49707e-05 0)
(0.0296906 9.34313e-05 0)
(0.0330037 0.00011537 0)
(0.0361977 0.000141319 0)
(0.0391952 0.000171861 0)
(0.0419091 0.000207213 0)
(0.0442467 0.000247944 0)
(0.0461106 0.00029448 0)
(0.047405 0.000347163 0)
(0.0480415 0.000406257 0)
(0.0479445 0.000471955 0)
(0.0470566 0.000544389 0)
(0.0453439 0.000623664 0)
(0.0427998 0.000709903 0)
(0.0394493 0.000803314 0)
(0.0353515 0.000904267 0)
(0.0306019 0.00101329 0)
(0.0253382 0.00113139 0)
(0.0197502 0.00126052 0)
(0.014098 0.00140382 0)
(0.00874409 0.00156204 0)
(0.0042094 0.001713 0)
(0.00140862 0.00175919 0)
(0.00207181 1.1442e-05 0)
(0.00585527 3.29792e-05 0)
(0.00938627 5.49021e-05 0)
(0.0127853 7.89383e-05 0)
(0.0161342 0.000106475 0)
(0.0194838 0.000138918 0)
(0.022855 0.000177604 0)
(0.0262447 0.000223811 0)
(0.0296292 0.000278939 0)
(0.0329651 0.000344449 0)
(0.0361927 0.000421924 0)
(0.0392351 0.000513271 0)
(0.0420063 0.000618864 0)
(0.0444169 0.000740577 0)
(0.0463707 0.000879661 0)
(0.0477736 0.00103712 0)
(0.0485383 0.00121373 0)
(0.0485904 0.00141002 0)
(0.0478737 0.0016263 0)
(0.0463553 0.00186275 0)
(0.0440297 0.00211949 0)
(0.0409234 0.00239678 0)
(0.0370984 0.00269512 0)
(0.0326532 0.00301464 0)
(0.0277279 0.00335545 0)
(0.0225141 0.00371758 0)
(0.0172783 0.00410144 0)
(0.0124155 0.00450703 0)
(0.00849158 0.00491664 0)
(0.00642827 0.00529572 0)
(0.0020711 1.89241e-05 0)
(0.00585685 5.45718e-05 0)
(0.00939312 9.0876e-05 0)
(0.0127996 0.000130709 0)
(0.016159 0.000176304 0)
(0.019525 0.000230035 0)
(0.022919 0.000294136 0)
(0.0263395 0.000370664 0)
(0.0297654 0.000461962 0)
(0.0331561 0.000570435 0)
(0.0364557 0.000698608 0)
(0.0395863 0.000848677 0)
(0.0424671 0.00102304 0)
(0.0450146 0.00122428 0)
(0.047135 0.0014543 0)
(0.0487372 0.00171478 0)
(0.0497376 0.00200698 0)
(0.0500649 0.00233176 0)
(0.0496657 0.00268959 0)
(0.0485102 0.00308069 0)
(0.0465962 0.00350513 0)
(0.0439531 0.00396313 0)
(0.0406519 0.00445599 0)
(0.0367983 0.00498361 0)
(0.0325425 0.00554595 0)
(0.0280823 0.00614219 0)
(0.02367 0.00676947 0)
(0.0196931 0.00742254 0)
(0.0168243 0.00810353 0)
(0.0159626 0.0087459 0)
(0.00207331 2.62855e-05 0)
(0.00586574 7.58287e-05 0)
(0.00941274 0.000126284 0)
(0.0128323 0.000181452 0)
(0.016209 0.000244673 0)
(0.0196015 0.000319192 0)
(0.0230311 0.00040815 0)
(0.0264984 0.000514215 0)
(0.0299865 0.000640721 0)
(0.0334582 0.000790972 0)
(0.03686 0.000968252 0)
(0.0401214 0.00117532 0)
(0.0431683 0.00141667 0)
(0.0459184 0.0016952 0)
(0.0482843 0.00201364 0)
(0.0501805 0.00237428 0)
(0.0515284 0.00277886 0)
(0.0522616 0.00322854 0)
(0.0523316 0.00372389 0)
(0.0517127 0.00426506 0)
(0.0504075 0.00485189 0)
(0.048445 0.00548376 0)
(0.0459141 0.00616469 0)
(0.042927 0.0068934 0)
(0.0396507 0.00767071 0)
(0.0363119 0.00849651 0)
(0.0331826 0.00936391 0)
(0.030582 0.0102585 0)
(0.0291657 0.011166 0)
(0.0300304 0.0120096 0)
(0.00207822 3.34511e-05 0)
(0.00588117 9.65161e-05 0)
(0.00943991 0.000160676 0)
(0.0128775 0.000230713 0)
(0.0162812 0.000311045 0)
(0.0197102 0.000405642 0)
(0.0231865 0.000518182 0)
(0.0267144 0.00065249 0)
(0.0302837 0.000812676 0)
(0.033861 0.00100288 0)
(0.0373976 0.00122727 0)
(0.0408312 0.00148995 0)
(0.0440925 0.00179564 0)
(0.0471058 0.00214843 0)
(0.049791 0.00255181 0)
(0.05207 0.00300874 0)
(0.0538713 0.00352145 0)
(0.0551354 0.0040914 0)
(0.0558204 0.00471926 0)
(0.055908 0.00540519 0)
(0.0554123 0.00614933 0)
(0.0543689 0.00695221 0)
(0.052854 0.00781305 0)
(0.0509976 0.00873042 0)
(0.0489818 0.00970618 0)
(0.0470805 0.0107432 0)
(0.0456043 0.0118327 0)
(0.0448922 0.0129538 0)
(0.0453762 0.0140567 0)
(0.0483791 0.0150562 0)
(0.00208547 4.03379e-05 0)
(0.00590261 0.000116397 0)
(0.00947751 0.000193722 0)
(0.0129385 0.000278185 0)
(0.0163742 0.000374919 0)
(0.0198444 0.000488623 0)
(0.0233776 0.000623639 0)
(0.0269828 0.000784975 0)
(0.0306512 0.000977201 0)
(0.0343567 0.00120536 0)
(0.0380572 0.0014745 0)
(0.0416981 0.00178968 0)
(0.0452179 0.00215621 0)
(0.0485498 0.00257933 0)
(0.051622 0.00306317 0)
(0.0543657 0.0036114 0)
(0.0567184 0.00422669 0)
(0.0586295 0.00491079 0)
(0.0600657 0.00566446 0)
(0.0610146 0.00648775 0)
(0.0615112 0.00738286 0)
(0.0616022 0.00834798 0)
(0.0613559 0.00937772 0)
(0.0609233 0.0104729 0)
(0.0604883 0.0116341 0)
(0.0603194 0.0128583 0)
(0.0608339 0.0141401 0)
(0.0624025 0.0154496 0)
(0.0653293 0.0167303 0)
(0.0707016 0.0178257 0)
(0.00209513 4.69399e-05 0)
(0.00592976 0.000135362 0)
(0.00952397 0.000225193 0)
(0.0130122 0.0003233 0)
(0.0164849 0.000435521 0)
(0.0200041 0.000567272 0)
(0.0236045 0.000723798 0)
(0.0272982 0.000910654 0)
(0.0310804 0.00113296 0)
(0.0349337 0.00139671 0)
(0.0388228 0.00170773 0)
(0.0427014 0.00207184 0)
(0.0465174 0.00249494 0)
(0.0502164 0.00298371 0)
(0.0537347 0.00354266 0)
(0.0570156 0.00417617 0)
(0.0600075 0.00488737 0)
(0.0626716 0.00567835 0)
(0.0649871 0.00654992 0)
(0.0669632 0.00750444 0)
(0.0686229 0.00853991 0)
(0.070025 0.00965208 0)
(0.0712674 0.0108381 0)
(0.072532 0.0120982 0)
(0.0740165 0.0134265 0)
(0.0759526 0.0148143 0)
(0.0787644 0.0162493 0)
(0.0829732 0.0176977 0)
(0.0887998 0.019096 0)
(0.0965983 0.020211 0)
(0.00210333 5.31442e-05 0)
(0.00595808 0.000153293 0)
(0.0095777 0.000255031 0)
(0.0130973 0.000366006 0)
(0.0166115 0.000492776 0)
(0.0201857 0.000641418 0)
(0.0238614 0.00081793 0)
(0.0276515 0.00102806 0)
(0.0315583 0.00127797 0)
(0.0355745 0.00157441 0)
(0.0396719 0.00192383 0)
(0.0438119 0.00233267 0)
(0.0479595 0.00280841 0)
(0.0520672 0.00335757 0)
(0.056081 0.00398527 0)
(0.059961 0.00469704 0)
(0.0636674 0.00549629 0)
(0.0671756 0.00638555 0)
(0.0704795 0.00736645 0)
(0.0736167 0.0084417 0)
(0.0765985 0.00960451 0)
(0.0795156 0.0108523 0)
(0.082483 0.0121818 0)
(0.0856672 0.0135864 0)
(0.089336 0.0150579 0)
(0.0937459 0.0165798 0)
(0.0991877 0.0181231 0)
(0.106295 0.0196447 0)
(0.115187 0.0210533 0)
(0.125449 0.0220908 0)
(0.00211353 5.89803e-05 0)
(0.00599099 0.000170188 0)
(0.0096381 0.000283092 0)
(0.0131922 0.000406087 0)
(0.0167516 0.000546374 0)
(0.0203852 0.000710609 0)
(0.024138 0.00090527 0)
(0.0280314 0.00113662 0)
(0.0320757 0.00141185 0)
(0.0362674 0.00173796 0)
(0.040589 0.00212217 0)
(0.0450148 0.00257184 0)
(0.0495184 0.00309502 0)
(0.0540599 0.00369779 0)
(0.0586057 0.00438689 0)
(0.0631337 0.00516895 0)
(0.0676146 0.00604714 0)
(0.0720414 0.0070243 0)
(0.0764392 0.00810445 0)
(0.0808336 0.00928613 0)
(0.0852695 0.0105635 0)
(0.0898787 0.0119346 0)
(0.0947864 0.0133906 0)
(0.100158 0.0149213 0)
(0.106244 0.0165104 0)
(0.113394 0.018132 0)
(0.12184 0.0197456 0)
(0.131981 0.0212774 0)
(0.1439 0.0226154 0)
(0.156544 0.0235189 0)
(0.002125 6.44096e-05 0)
(0.00602697 0.000185873 0)
(0.00970322 0.000309093 0)
(0.013294 0.000443131 0)
(0.0169009 0.000595751 0)
(0.0205969 0.00077412 0)
(0.0244316 0.000985202 0)
(0.0284344 0.00123594 0)
(0.0326213 0.00153377 0)
(0.036996 0.00188625 0)
(0.0415515 0.00230117 0)
(0.0462732 0.00278654 0)
(0.0511432 0.00335039 0)
(0.0561378 0.00399983 0)
(0.061248 0.00474333 0)
(0.0664603 0.00558713 0)
(0.0717586 0.00653418 0)
(0.0771597 0.00758891 0)
(0.0827206 0.00875536 0)
(0.0884609 0.0100282 0)
(0.0944873 0.0114069 0)
(0.100918 0.0128844 0)
(0.107908 0.0144478 0)
(0.115696 0.0160838 0)
(0.124462 0.0177664 0)
(0.134605 0.0194602 0)
(0.146325 0.0211045 0)
(0.159648 0.0225995 0)
(0.174559 0.0238244 0)
(0.189342 0.0245779 0)
(0.0021373 6.94319e-05 0)
(0.00606537 0.000200374 0)
(0.00977231 0.000333086 0)
(0.0134013 0.000477211 0)
(0.0170575 0.000640998 0)
(0.0208179 0.000832054 0)
(0.0247371 0.00105776 0)
(0.0288512 0.00132552 0)
(0.0331829 0.00164307 0)
(0.0377438 0.00201838 0)
(0.0425373 0.00245974 0)
(0.0475608 0.00297566 0)
(0.052807 0.00357441 0)
(0.0582699 0.00426408 0)
(0.0639551 0.00505336 0)
(0.0698629 0.00594821 0)
(0.0759991 0.00695231 0)
(0.0824148 0.00807222 0)
(0.0891661 0.00930956 0)
(0.0963117 0.01066 0)
(0.104005 0.0121225 0)
(0.112355 0.0136849 0)
(0.121568 0.0153361 0)
(0.131918 0.0170551 0)
(0.143651 0.0188105 0)
(0.15697 0.0205481 0)
(0.172135 0.0221889 0)
(0.188853 0.0236181 0)
(0.206715 0.0247053 0)
(0.223342 0.0253065 0)
(0.00215036 7.40437e-05 0)
(0.00610584 0.000213679 0)
(0.00984461 0.000355046 0)
(0.0135129 0.000508283 0)
(0.0172192 0.000682047 0)
(0.0210447 0.00088431 0)
(0.0250489 0.00112279 0)
(0.029274 0.0014052 0)
(0.0337498 0.00173955 0)
(0.0384954 0.00213405 0)
(0.0435252 0.00259736 0)
(0.0488496 0.00313856 0)
(0.0544702 0.00376583 0)
(0.0603951 0.00448747 0)
(0.0666523 0.00531317 0)
(0.0732599 0.00624932 0)
(0.0802414 0.00729956 0)
(0.0876697 0.00846999 0)
(0.095614 0.00976054 0)
(0.104194 0.0111709 0)
(0.113555 0.0126965 0)
(0.123883 0.0143238 0)
(0.135428 0.0160408 0)
(0.148428 0.0178206 0)
(0.16323 0.019621 0)
(0.179923 0.02138 0)
(0.198733 0.0230054 0)
(0.219058 0.0243716 0)
(0.239882 0.0253476 0)
(0.258107 0.0258408 0)
(0.00216374 7.82131e-05 0)
(0.00614729 0.0002257 0)
(0.00991832 0.00037483 0)
(0.0136258 0.000536142 0)
(0.0173817 0.000718622 0)
(0.0212712 0.000930531 0)
(0.0253588 0.00117984 0)
(0.0296922 0.00147448 0)
(0.0343079 0.00182262 0)
(0.0392311 0.00223246 0)
(0.0444928 0.00271353 0)
(0.0501117 0.00327478 0)
(0.0560969 0.00392413 0)
(0.0624759 0.00467061 0)
(0.0692887 0.00552347 0)
(0.076569 0.00648886 0)
(0.084365 0.00757114 0)
(0.0927759 0.00877651 0)
(0.101897 0.0101056 0)
(0.111881 0.0115552 0)
(0.122898 0.0131207 0)
(0.135171 0.0147899 0)
(0.148998 0.0165425 0)
(0.164646 0.0183524 0)
(0.182502 0.0201732 0)
(0.202735 0.0219399 0)
(0.225359 0.0235557 0)
(0.249577 0.024906 0)
(0.273646 0.0258741 0)
(0.293555 0.0263703 0)
(0.0021773 8.19662e-05 0)
(0.00618957 0.000236523 0)
(0.00999314 0.000392579 0)
(0.0137396 0.000560988 0)
(0.0175439 0.000750979 0)
(0.0214956 0.000971041 0)
(0.0256639 0.00122933 0)
(0.0301014 0.00153388 0)
(0.0348512 0.00189295 0)
(0.0399477 0.00231495 0)
(0.0454293 0.00280933 0)
(0.0513226 0.00338476 0)
(0.0576515 0.00404945 0)
(0.0644541 0.00481213 0)
(0.0717912 0.00568241 0)
(0.0797112 0.00666641 0)
(0.0882796 0.00776827 0)
(0.0976162 0.00899241 0)
(0.107847 0.0103402 0)
(0.119142 0.0118089 0)
(0.131716 0.0133886 0)
(0.145816 0.0150677 0)
(0.161762 0.0168244 0)
(0.179961 0.0186294 0)
(0.200707 0.0204352 0)
(0.22438 0.0221794 0)
(0.250798 0.0237823 0)
(0.279311 0.0251666 0)
(0.307442 0.0262521 0)
(0.329745 0.0268472 0)
(0.00219119 8.53295e-05 0)
(0.00623267 0.000246209 0)
(0.0100688 0.000408388 0)
(0.0138535 0.000582955 0)
(0.0177041 0.000779286 0)
(0.0217151 0.00100605 0)
(0.0259602 0.00127156 0)
(0.0304955 0.00158376 0)
(0.03537 0.0019509 0)
(0.0406238 0.0023812 0)
(0.0463079 0.00288437 0)
(0.0524579 0.00346898 0)
(0.0591031 0.00414259 0)
(0.0663006 0.00491447 0)
(0.0741203 0.005793 0)
(0.0826134 0.00678292 0)
(0.0918884 0.00789052 0)
(0.102067 0.00911897 0)
(0.113296 0.0104659 0)
(0.125766 0.0119288 0)
(0.139713 0.0134982 0)
(0.155426 0.0151546 0)
(0.173233 0.0168774 0)
(0.193582 0.0186303 0)
(0.216778 0.0203652 0)
(0.243274 0.022018 0)
(0.272924 0.0235275 0)
(0.305626 0.0248768 0)
(0.338806 0.0261434 0)
(0.366418 0.0270777 0)
(0.00139611 -0.00178276 0)
(0.00688071 -0.0019365 0)
(0.018006 -0.00196879 0)
(0.0333607 -0.00195637 0)
(0.0507405 -0.00190223 0)
(0.0679542 -0.00181486 0)
(0.0833263 -0.00170365 0)
(0.0958883 -0.00158503 0)
(0.105251 -0.00145975 0)
(0.111443 -0.00133141 0)
(0.114746 -0.00120718 0)
(0.115534 -0.00108251 0)
(0.114197 -0.000955103 0)
(0.111111 -0.000834868 0)
(0.106631 -0.000728146 0)
(0.101069 -0.000624946 0)
(0.094671 -0.000538325 0)
(0.0876838 -0.000455066 0)
(0.080333 -0.00038084 0)
(0.0727956 -0.000316608 0)
(0.0652224 -0.00025946 0)
(0.0577318 -0.000210871 0)
(0.0504136 -0.000168588 0)
(0.0433225 -0.000133309 0)
(0.0364785 -0.000103194 0)
(0.0298642 -7.83571e-05 0)
(0.0234112 -5.73031e-05 0)
(0.0170169 -3.92085e-05 0)
(0.0105229 -2.31855e-05 0)
(0.00368486 -7.86059e-06 0)
(0.00641211 -0.00534562 0)
(0.0123412 -0.00564934 0)
(0.0238471 -0.00580212 0)
(0.0392512 -0.00578295 0)
(0.056355 -0.00561989 0)
(0.0730999 -0.00536167 0)
(0.0878897 -0.00503126 0)
(0.0998169 -0.00466618 0)
(0.10854 -0.00428406 0)
(0.11415 -0.00388915 0)
(0.116942 -0.0035005 0)
(0.117284 -0.00312485 0)
(0.115567 -0.00276266 0)
(0.112157 -0.00242109 0)
(0.107406 -0.00210533 0)
(0.101609 -0.00181491 0)
(0.0950335 -0.00155653 0)
(0.0879034 -0.00131824 0)
(0.0804417 -0.00110722 0)
(0.0728167 -0.000919047 0)
(0.065181 -0.000755677 0)
(0.0576464 -0.000613102 0)
(0.0503022 -0.000491771 0)
(0.0431989 -0.000388161 0)
(0.0363547 -0.000301388 0)
(0.0297535 -0.000228403 0)
(0.023318 -0.000167095 0)
(0.0169493 -0.000114383 0)
(0.0104857 -6.77073e-05 0)
(0.00367924 -2.3113e-05 0)
(0.0159571 -0.00882597 0)
(0.0230207 -0.00927211 0)
(0.0353968 -0.00949302 0)
(0.0509138 -0.00941555 0)
(0.0676561 -0.00912603 0)
(0.0835951 -0.0086795 0)
(0.0973347 -0.00813577 0)
(0.108073 -0.00752259 0)
(0.115637 -0.0068901 0)
(0.120187 -0.00625511 0)
(0.122005 -0.00562397 0)
(0.121504 -0.00501806 0)
(0.119057 -0.00444065 0)
(0.115027 -0.0038976 0)
(0.10974 -0.00339134 0)
(0.103491 -0.00292764 0)
(0.0965385 -0.00250747 0)
(0.0891044 -0.00212708 0)
(0.0813897 -0.00178723 0)
(0.0735619 -0.00148593 0)
(0.0657595 -0.00122208 0)
(0.0580949 -0.00099308 0)
(0.0506449 -0.000796574 0)
(0.0434621 -0.000629727 0)
(0.036553 -0.000488811 0)
(0.029904 -0.000371008 0)
(0.0234333 -0.000271777 0)
(0.0170334 -0.000186424 0)
(0.0105368 -0.000110492 0)
(0.00369877 -3.78139e-05 0)
(0.0300248 -0.0121389 0)
(0.0387148 -0.012717 0)
(0.0520522 -0.0129282 0)
(0.0676142 -0.0127528 0)
(0.0837303 -0.0123177 0)
(0.0984472 -0.0116815 0)
(0.110637 -0.0109253 0)
(0.119726 -0.0100938 0)
(0.125657 -0.00923145 0)
(0.128704 -0.00837721 0)
(0.129171 -0.0075342 0)
(0.127497 -0.00672771 0)
(0.124019 -0.00595771 0)
(0.119123 -0.00523786 0)
(0.113096 -0.00456561 0)
(0.106214 -0.00394716 0)
(0.0987314 -0.00338343 0)
(0.0908601 -0.0028739 0)
(0.0827848 -0.00241742 0)
(0.0746637 -0.0020126 0)
(0.066622 -0.00165684 0)
(0.0587675 -0.00134815 0)
(0.0511634 -0.00108214 0)
(0.043863 -0.00085669 0)
(0.0368587 -0.000665979 0)
(0.0301305 -0.000506158 0)
(0.0236011 -0.000371329 0)
(0.0171527 -0.000255333 0)
(0.0106099 -0.000151574 0)
(0.00372595 -5.19676e-05 0)
(0.0483893 -0.015255 0)
(0.0589688 -0.015895 0)
(0.07313 -0.0160231 0)
(0.0886254 -0.0157273 0)
(0.1037 -0.0151192 0)
(0.116806 -0.0143084 0)
(0.127008 -0.0133571 0)
(0.134061 -0.0123372 0)
(0.137992 -0.0112819 0)
(0.139194 -0.0102358 0)
(0.138026 -0.0092144 0)
(0.134902 -0.00823388 0)
(0.130181 -0.00730268 0)
(0.124208 -0.00642821 0)
(0.117277 -0.0056147 0)
(0.109629 -0.00486364 0)
(0.101494 -0.00417479 0)
(0.0930812 -0.0035514 0)
(0.0845568 -0.00299138 0)
(0.0760706 -0.00249419 0)
(0.0677279 -0.00205566 0)
(0.0596361 -0.00167527 0)
(0.0518382 -0.001347 0)
(0.0443787 -0.00106799 0)
(0.0372519 -0.00083204 0)
(0.0304244 -0.000633448 0)
(0.0238168 -0.000465468 0)
(0.0173037 -0.000320641 0)
(0.0107022 -0.000190629 0)
(0.00375971 -6.54571e-05 0)
(0.0707225 -0.0181086 0)
(0.0830787 -0.0186978 0)
(0.097902 -0.018705 0)
(0.113036 -0.0182737 0)
(0.126696 -0.0175058 0)
(0.137789 -0.0165305 0)
(0.14567 -0.0154161 0)
(0.150332 -0.0142318 0)
(0.152011 -0.0130211 0)
(0.151129 -0.0118202 0)
(0.14811 -0.010652 0)
(0.143355 -0.00953017 0)
(0.137227 -0.00846561 0)
(0.130038 -0.00746366 0)
(0.122072 -0.00653056 0)
(0.113549 -0.00566672 0)
(0.10469 -0.0048744 0)
(0.0956603 -0.00415379 0)
(0.0866205 -0.00350407 0)
(0.077719 -0.00292692 0)
(0.0690325 -0.00241684 0)
(0.0606556 -0.00197299 0)
(0.0526323 -0.00158997 0)
(0.0449892 -0.00126304 0)
(0.0377169 -0.000985954 0)
(0.0307729 -0.000751991 0)
(0.0240721 -0.00055351 0)
(0.0174814 -0.000381913 0)
(0.0108104 -0.000227381 0)
(0.00379885 -7.81818e-05 0)
(0.0966295 -0.020588 0)
(0.110428 -0.0210616 0)
(0.125634 -0.0209369 0)
(0.139962 -0.0203653 0)
(0.151867 -0.0194623 0)
(0.160577 -0.0183466 0)
(0.165832 -0.0170968 0)
(0.167861 -0.0157801 0)
(0.167077 -0.0144449 0)
(0.163953 -0.0131239 0)
(0.158949 -0.0118415 0)
(0.152454 -0.01061 0)
(0.144826 -0.00944125 0)
(0.136335 -0.00833818 0)
(0.127277 -0.00731073 0)
(0.11781 -0.00635492 0)
(0.108159 -0.0054768 0)
(0.0984832 -0.0046775 0)
(0.0888964 -0.00395429 0)
(0.0795342 -0.00330937 0)
(0.0704752 -0.00273913 0)
(0.0617893 -0.00224083 0)
(0.0535162 -0.00180978 0)
(0.0456711 -0.00144063 0)
(0.0382374 -0.00112685 0)
(0.031164 -0.000861082 0)
(0.0243585 -0.000634915 0)
(0.0176803 -0.000438782 0)
(0.0109311 -0.000261599 0)
(0.0038422 -9.00577e-05 0)
(0.125475 -0.0225956 0)
(0.140392 -0.0229534 0)
(0.155605 -0.0227113 0)
(0.168674 -0.0220182 0)
(0.178387 -0.0209986 0)
(0.184353 -0.0197652 0)
(0.186715 -0.0184053 0)
(0.185931 -0.0169859 0)
(0.182561 -0.0155568 0)
(0.177116 -0.0141483 0)
(0.170078 -0.0127837 0)
(0.161798 -0.0114727 0)
(0.152656 -0.0102297 0)
(0.142848 -0.0090529 0)
(0.132652 -0.00795218 0)
(0.122254 -0.00692959 0)
(0.111794 -0.00598492 0)
(0.101437 -0.00512248 0)
(0.0912897 -0.00434138 0)
(0.0814538 -0.00364179 0)
(0.0720037 -0.00302149 0)
(0.0629954 -0.00247753 0)
(0.0544597 -0.00200551 0)
(0.0464018 -0.00159992 0)
(0.0387968 -0.00125408 0)
(0.0315854 -0.000960188 0)
(0.0246675 -0.00070927 0)
(0.0178948 -0.000490957 0)
(0.011061 -0.000293102 0)
(0.00388859 -0.000101018 0)
(0.156567 -0.0241433 0)
(0.172278 -0.0243863 0)
(0.187081 -0.0240516 0)
(0.19838 -0.0232577 0)
(0.20542 -0.0221348 0)
(0.208289 -0.0208012 0)
(0.207545 -0.0193534 0)
(0.203847 -0.017859 0)
(0.197857 -0.016366 0)
(0.190086 -0.0149004 0)
(0.181057 -0.0134857 0)
(0.171039 -0.0121254 0)
(0.160381 -0.0108321 0)
(0.149322 -0.00961043 0)
(0.138027 -0.00846105 0)
(0.126694 -0.00739008 0)
(0.115452 -0.00639909 0)
(0.104427 -0.00549066 0)
(0.0937178 -0.00466545 0)
(0.0834099 -0.00392352 0)
(0.0735674 -0.00326342 0)
(0.0642346 -0.00268247 0)
(0.0554331 -0.00217659 0)
(0.0471589 -0.0017404 0)
(0.0393787 -0.00136719 0)
(0.0320253 -0.00104894 0)
(0.0249908 -0.000776287 0)
(0.0181195 -0.00053823 0)
(0.011197 -0.000321758 0)
(0.00393693 -0.000111013 0)
(0.189365 -0.0252936 0)
(0.205501 -0.0254313 0)
(0.219362 -0.0250162 0)
(0.22825 -0.0241214 0)
(0.232082 -0.0228945 0)
(0.231535 -0.0214711 0)
(0.22755 -0.0199553 0)
(0.22093 -0.0184125 0)
(0.212397 -0.0168863 0)
(0.20241 -0.0153939 0)
(0.191449 -0.0139547 0)
(0.179835 -0.0125769 0)
(0.167776 -0.0112612 0)
(0.155516 -0.0100147 0)
(0.143208 -0.00884018 0)
(0.131001 -0.00774154 0)
(0.119013 -0.00672163 0)
(0.107351 -0.00578305 0)
(0.096103 -0.00492728 0)
(0.0853406 -0.00415486 0)
(0.075118 -0.003465 0)
(0.0654695 -0.00285554 0)
(0.056408 -0.00232286 0)
(0.047921 -0.00186186 0)
(0.0399674 -0.00146598 0)
(0.0324722 -0.00112716 0)
(0.0253206 -0.000835805 0)
(0.0183491 -0.000580477 0)
(0.011336 -0.000347485 0)
(0.00398615 -0.000120012 0)
(0.223345 -0.0260977 0)
(0.239556 -0.0261771 0)
(0.251697 -0.0256652 0)
(0.25733 -0.0246376 0)
(0.257399 -0.0232927 0)
(0.253199 -0.0217871 0)
(0.245965 -0.0202245 0)
(0.236538 -0.0186612 0)
(0.225613 -0.0171298 0)
(0.21365 -0.015644 0)
(0.200972 -0.0142105 0)
(0.187892 -0.012836 0)
(0.1746 -0.0115229 0)
(0.16127 -0.010275 0)
(0.148042 -0.00909551 0)
(0.13504 -0.00798798 0)
(0.122369 -0.00695577 0)
(0.110122 -0.00600187 0)
(0.098375 -0.0051285 0)
(0.0871899 -0.00433687 0)
(0.0766115 -0.00362692 0)
(0.0666662 -0.00299716 0)
(0.0573585 -0.00244453 0)
(0.0486687 -0.00196439 0)
(0.0405484 -0.00155047 0)
(0.0329159 -0.00119483 0)
(0.0256494 -0.00088779 0)
(0.0185788 -0.000617661 0)
(0.0114751 -0.000370253 0)
(0.0040353 -0.000127999 0)
(0.258106 -0.0266942 0)
(0.273894 -0.0267158 0)
(0.283063 -0.0260208 0)
(0.284407 -0.0248003 0)
(0.280263 -0.0233244 0)
(0.272377 -0.0217534 0)
(0.26206 -0.020173 0)
(0.250142 -0.0186229 0)
(0.237147 -0.0171169 0)
(0.22346 -0.0156618 0)
(0.209349 -0.0142605 0)
(0.195034 -0.0129152 0)
(0.180678 -0.0116273 0)
(0.166426 -0.0103992 0)
(0.152398 -0.0092338 0)
(0.138702 -0.00813475 0)
(0.12543 -0.00710574 0)
(0.112665 -0.00615035 0)
(0.100473 -0.00527154 0)
(0.0889088 -0.00447132 0)
(0.0780095 -0.00375044 0)
(0.0677943 -0.00310819 0)
(0.0582614 -0.0025422 0)
(0.0493844 -0.00204839 0)
(0.0411089 -0.00162091 0)
(0.033347 -0.00125209 0)
(0.0259708 -0.000932329 0)
(0.0188044 -0.000649828 0)
(0.011612 -0.000390081 0)
(0.00408354 -0.000134979 0)
(0.293537 -0.0272341 0)
(0.307623 -0.0270579 0)
(0.311847 -0.026018 0)
(0.307959 -0.0245534 0)
(0.299454 -0.022961 0)
(0.288268 -0.0213655 0)
(0.275365 -0.019807 0)
(0.261396 -0.0183016 0)
(0.246746 -0.0168526 0)
(0.231685 -0.0154583 0)
(0.216414 -0.0141163 0)
(0.201098 -0.0128251 0)
(0.185875 -0.0115846 0)
(0.170865 -0.0103963 0)
(0.156175 -0.0092629 0)
(0.141899 -0.00818831 0)
(0.128122 -0.00717678 0)
(0.114918 -0.0062326 0)
(0.102347 -0.00535958 0)
(0.0904568 -0.00456061 0)
(0.0792796 -0.00383737 0)
(0.0688289 -0.00318996 0)
(0.0590974 -0.00261682 0)
(0.0500537 -0.00211453 0)
(0.0416382 -0.00167777 0)
(0.0337577 -0.00129927 0)
(0.0262795 -0.000969633 0)
(0.0190222 -0.000677108 0)
(0.0117446 -0.000407039 0)
(0.00413017 -0.000140973 0)
(0.329716 -0.027697 0)
(0.338695 -0.0270067 0)
(0.335479 -0.025465 0)
(0.326377 -0.0237849 0)
(0.314206 -0.0221408 0)
(0.3004 -0.0205786 0)
(0.285585 -0.0190981 0)
(0.270124 -0.0176893 0)
(0.254263 -0.0163408 0)
(0.238187 -0.0150432 0)
(0.222048 -0.0137902 0)
(0.205978 -0.0125783 0)
(0.190093 -0.0114067 0)
(0.174501 -0.0102768 0)
(0.159296 -0.0091918 0)
(0.144566 -0.00815617 0)
(0.130389 -0.00717502 0)
(0.116834 -0.00625353 0)
(0.103958 -0.00539648 0)
(0.0918024 -0.00460776 0)
(0.0803966 -0.00388997 0)
(0.0697499 -0.00324419 0)
(0.0598512 -0.00266966 0)
(0.050665 -0.00216373 0)
(0.0421276 -0.00172172 0)
(0.0341421 -0.00133683 0)
(0.0265713 -0.00100002 0)
(0.0192296 -0.000699709 0)
(0.0118713 -0.000421245 0)
(0.00417468 -0.00014602 0)
(0.366406 -0.0279392 0)
(0.363252 -0.0259549 0)
(0.351897 -0.0239227 0)
(0.338566 -0.0222097 0)
(0.324015 -0.0206989 0)
(0.308628 -0.0193173 0)
(0.292646 -0.0180213 0)
(0.27626 -0.0167848 0)
(0.259632 -0.0155915 0)
(0.242899 -0.0144312 0)
(0.226188 -0.0132982 0)
(0.209612 -0.0121901 0)
(0.193277 -0.0111073 0)
(0.17728 -0.0100527 0)
(0.161714 -0.00903066 0)
(0.14666 -0.00804681 0)
(0.132194 -0.0071074 0)
(0.118382 -0.00621876 0)
(0.105278 -0.00538672 0)
(0.0929231 -0.00461625 0)
(0.0813423 -0.00391099 0)
(0.0705431 -0.00327294 0)
(0.0605117 -0.00270228 0)
(0.0512099 -0.00219716 0)
(0.0425713 -0.00175361 0)
(0.0344957 -0.0013654 0)
(0.0268432 -0.00102393 0)
(0.0194247 -0.000717914 0)
(0.011991 -0.00043286 0)
(0.00421674 -0.000150175 0)
(0.00220549 8.83607e-05 0)
(0.00627673 0.000254918 0)
(0.0101454 0.000422519 0)
(0.0139676 0.000602414 0)
(0.0178619 0.000804005 0)
(0.0219296 0.00103625 0)
(0.0262483 0.0013074 0)
(0.0308752 0.00162521 0)
(0.0358657 0.00199785 0)
(0.0412689 0.00243362 0)
(0.0471391 0.00294164 0)
(0.0535179 0.00352992 0)
(0.0604468 0.00420591 0)
(0.0680029 0.00497923 0)
(0.0762545 0.00585687 0)
(0.0852696 0.00684314 0)
(0.0951677 0.00794242 0)
(0.106083 0.00915726 0)
(0.118179 0.0104859 0)
(0.131653 0.0119188 0)
(0.146746 0.013447 0)
(0.163764 0.0150478 0)
(0.183039 0.016692 0)
(0.204927 0.0183382 0)
(0.229784 0.0199245 0)
(0.257807 0.0213705 0)
(0.288804 0.0225638 0)
(0.321931 0.0233183 0)
(0.353244 0.0232799 0)
(0.375201 0.0216896 0)
(0.0022191 9.10269e-05 0)
(0.0063188 0.000262564 0)
(0.0102184 0.000434836 0)
(0.0140761 0.00061919 0)
(0.0180146 0.000825167 0)
(0.0221341 0.00106151 0)
(0.0265154 0.00133632 0)
(0.0312247 0.00165753 0)
(0.0363182 0.00203286 0)
(0.0418495 0.00247021 0)
(0.0478828 0.00297858 0)
(0.0544665 0.0035656 0)
(0.0616505 0.00423836 0)
(0.0695175 0.00500516 0)
(0.0781303 0.00587104 0)
(0.0875905 0.00684153 0)
(0.0980168 0.00792006 0)
(0.109536 0.00910388 0)
(0.122323 0.0103918 0)
(0.136579 0.0117722 0)
(0.152541 0.0132293 0)
(0.170465 0.0147397 0)
(0.190626 0.0162605 0)
(0.213291 0.0177454 0)
(0.238655 0.0191131 0)
(0.266523 0.0202611 0)
(0.296275 0.0210325 0)
(0.325885 0.0212176 0)
(0.351691 0.0205431 0)
(0.369624 0.0185813 0)
(0.00223084 9.32504e-05 0)
(0.00635541 0.00026892 0)
(0.010282 0.000444964 0)
(0.0141704 0.000632737 0)
(0.0181458 0.000841776 0)
(0.0223068 0.00108047 0)
(0.0267416 0.0013571 0)
(0.0315208 0.00167938 0)
(0.0366997 0.00205443 0)
(0.0423418 0.00249021 0)
(0.0485105 0.00299465 0)
(0.0552521 0.00357415 0)
(0.0626402 0.00423654 0)
(0.0707548 0.00498902 0)
(0.0796649 0.00583516 0)
(0.0894633 0.00677764 0)
(0.100279 0.00781999 0)
(0.112243 0.00895812 0)
(0.125519 0.0101858 0)
(0.140288 0.0114921 0)
(0.156727 0.012851 0)
(0.175058 0.0142382 0)
(0.195466 0.0156049 0)
(0.218067 0.0168922 0)
(0.242775 0.0180112 0)
(0.269067 0.0188485 0)
(0.295824 0.0192547 0)
(0.321015 0.019058 0)
(0.342264 0.0179844 0)
(0.356902 0.0156304 0)
(0.00223964 9.49754e-05 0)
(0.00638357 0.000273832 0)
(0.0103313 0.000452658 0)
(0.0142433 0.00064271 0)
(0.0182476 0.000853486 0)
(0.0224452 0.00109327 0)
(0.026921 0.00136977 0)
(0.0317484 0.00169039 0)
(0.0369885 0.00206196 0)
(0.0427107 0.00249217 0)
(0.0489798 0.00298833 0)
(0.055847 0.00355607 0)
(0.063378 0.00420123 0)
(0.0716595 0.00493046 0)
(0.0807761 0.00574786 0)
(0.0908006 0.00665241 0)
(0.101864 0.00764555 0)
(0.114091 0.00872388 0)
(0.127598 0.00987386 0)
(0.142554 0.0110846 0)
(0.159094 0.0123277 0)
(0.177345 0.0135694 0)
(0.197373 0.0147631 0)
(0.219131 0.0158404 0)
(0.242302 0.0167202 0)
(0.266135 0.0172927 0)
(0.289513 0.0174373 0)
(0.31084 0.0170005 0)
(0.328375 0.0157724 0)
(0.340438 0.0135415 0)
(0.00224467 9.61711e-05 0)
(0.00640085 0.00027721 0)
(0.0103623 0.000457774 0)
(0.0142882 0.000648873 0)
(0.0183112 0.000860004 0)
(0.0225325 0.00109916 0)
(0.0270318 0.0013734 0)
(0.0318893 0.00169002 0)
(0.0371723 0.00205568 0)
(0.0429398 0.00247649 0)
(0.0492622 0.00295936 0)
(0.0562041 0.00351024 0)
(0.0638221 0.00413305 0)
(0.0721876 0.00483164 0)
(0.0813989 0.00561065 0)
(0.0915381 0.00646895 0)
(0.102677 0.00740141 0)
(0.11495 0.00840556 0)
(0.128453 0.00946675 0)
(0.143297 0.0105672 0)
(0.15957 0.0116822 0)
(0.177273 0.0127691 0)
(0.196391 0.0137848 0)
(0.216726 0.0146639 0)
(0.237824 0.0153337 0)
(0.25897 0.0157009 0)
(0.279171 0.0156642 0)
(0.2972 0.0151053 0)
(0.311764 0.0139002 0)
(0.321808 0.0119651 0)
(0.00224486 9.67927e-05 0)
(0.00640425 0.00027893 0)
(0.0103704 0.00046014 0)
(0.0143042 0.000651283 0)
(0.0183339 0.000861373 0)
(0.0225594 0.00109799 0)
(0.0270621 0.00136782 0)
(0.0319262 0.00167793 0)
(0.037224 0.00203482 0)
(0.0430085 0.00244342 0)
(0.0493386 0.00290888 0)
(0.056288 0.00343699 0)
(0.0639241 0.00403197 0)
(0.0722947 0.0046945 0)
(0.0814941 0.00542747 0)
(0.0916029 0.00623045 0)
(0.102664 0.00709478 0)
(0.114788 0.00801496 0)
(0.128056 0.00897867 0)
(0.142487 0.00996136 0)
(0.158134 0.01094 0)
(0.174946 0.0118759 0)
(0.192767 0.0127223 0)
(0.211343 0.0134254 0)
(0.230211 0.0139195 0)
(0.248721 0.0141303 0)
(0.266057 0.0139798 0)
(0.281252 0.013383 0)
(0.293431 0.0122881 0)
(0.301861 0.0106684 0)
(0.00223943 9.68248e-05 0)
(0.00639134 0.000278941 0)
(0.0103507 0.00045962 0)
(0.0142787 0.000649466 0)
(0.018301 0.000857074 0)
(0.0225165 0.00108962 0)
(0.0270081 0.00135347 0)
(0.0318505 0.00165457 0)
(0.0371244 0.00199939 0)
(0.0428887 0.00239267 0)
(0.0491881 0.00283783 0)
(0.0560838 0.00333879 0)
(0.0636552 0.00390011 0)
(0.0719559 0.00452224 0)
(0.0810277 0.00520316 0)
(0.0909639 0.00594336 0)
(0.101809 0.0067346 0)
(0.113591 0.00756525 0)
(0.126382 0.00842442 0)
(0.140184 0.00929009 0)
(0.154944 0.0101342 0)
(0.170577 0.0109245 0)
(0.186891 0.0116185 0)
(0.203591 0.0121683 0)
(0.22024 0.0125199 0)
(0.236271 0.012616 0)
(0.251056 0.0123983 0)
(0.263855 0.0118188 0)
(0.274054 0.0108612 0)
(0.281163 0.0095222 0)
(0.00222759 9.62511e-05 0)
(0.00635984 0.000277198 0)
(0.0102984 0.000456104 0)
(0.0142053 0.000643308 0)
(0.0182061 0.000847092 0)
(0.0223945 0.00107402 0)
(0.0268526 0.00133 0)
(0.0316501 0.00162019 0)
(0.0368663 0.00195032 0)
(0.0425641 0.00232501 0)
(0.048783 0.00274661 0)
(0.0555721 0.00321753 0)
(0.0630056 0.00374098 0)
(0.0711383 0.00431777 0)
(0.0799881 0.00494354 0)
(0.0896295 0.00561648 0)
(0.1001 0.00632992 0)
(0.111394 0.00707078 0)
(0.123532 0.00782527 0)
(0.136491 0.00857452 0)
(0.15019 0.00929239 0)
(0.1645 0.00994847 0)
(0.179213 0.0105065 0)
(0.194032 0.0109262 0)
(0.208569 0.0111648 0)
(0.222355 0.0111795 0)
(0.234864 0.0109287 0)
(0.245624 0.010395 0)
(0.254161 0.00956984 0)
(0.260149 0.00846427 0)
(0.00220867 9.50659e-05 0)
(0.00630837 0.000273713 0)
(0.0102167 0.000449897 0)
(0.0140858 0.000633137 0)
(0.0180423 0.000831428 0)
(0.0221848 0.00105127 0)
(0.0265872 0.00129771 0)
(0.0313175 0.00157539 0)
(0.0364395 0.00188852 0)
(0.0420214 0.00224152 0)
(0.0481132 0.00263707 0)
(0.0547465 0.00307577 0)
(0.0619688 0.00355845 0)
(0.0698394 0.00408598 0)
(0.0783845 0.00465486 0)
(0.0876228 0.00525936 0)
(0.0975804 0.00589316 0)
(0.108248 0.00654437 0)
(0.119606 0.00719859 0)
(0.1316 0.00783749 0)
(0.144131 0.00843798 0)
(0.157051 0.00897322 0)
(0.17015 0.00941289 0)
(0.183155 0.00972462 0)
(0.195731 0.00987571 0)
(0.207493 0.00983303 0)
(0.218047 0.00957462 0)
(0.227041 0.00909283 0)
(0.234157 0.00838633 0)
(0.239171 0.00746995 0)
(0.00218201 9.32737e-05 0)
(0.00623447 0.000268476 0)
(0.0100972 0.00044077 0)
(0.0139174 0.000619111 0)