/*--------------------------------*- C++ -*----------------------------------*\
| =========                 |                                                 |
| \\      /  F ield         | OpenFOAM: The Open Source CFD Toolbox           |
|  \\    /   O peration     | Version:  5.x                                   |
|   \\  /    A nd           | Web:      www.OpenFOAM.org                      |
|    \\/     M anipulation  |                                                 |
\*---------------------------------------------------------------------------*/
FoamFile
{
    version     2.0;
    format      ascii;
    class       surfaceScalarField;
    location    "0.9";
    object      phi;
}
// * * * * * * * * * * * * * * * * * * * * * * * * * * * * * * * * * * * * * //

dimensions      [0 3 -1 0 0 0 0];

internalField   nonuniform List<scalar> 
5457
(
0.198098
0.00153542
0.195992
0.00179161
0.193675
0.0020603
0.191082
0.00237737
0.188213
0.00268898
0.185079
0.00299094
0.181679
0.00329156
0.178
0.00359813
0.174028
0.00391528
0.169745
0.0042453
0.165134
0.00459369
0.160169
0.00496492
0.154823
0.00535923
0.149069
0.00577905
0.142875
0.00622711
0.136212
0.00670532
0.129046
0.00721467
0.121344
0.00775499
0.113077
0.00832454
0.104218
0.00891989
0.0947471
0.00953519
0.0846535
0.0101605
0.0739385
0.010782
0.0626226
0.0113805
0.0507519
0.0119291
0.0384183
0.0123931
0.0257598
0.0127183
0.0130345
0.0127648
0.00152514
0.011499
0.00160481
0.199846
0.00132079
0.199062
0.00226114
0.197929
0.00293892
0.19647
0.00362015
0.194685
0.00429151
0.192586
0.00494532
0.190174
0.00559449
0.187438
0.00625317
0.184365
0.0069308
0.18094
0.0076338
0.177147
0.00837113
0.172961
0.00915068
0.168356
0.00997627
0.163305
0.0108535
0.157776
0.0117882
0.151737
0.012785
0.145151
0.0138471
0.137982
0.0149756
0.130192
0.0161687
0.121747
0.0174214
0.112618
0.0187248
0.102778
0.0200624
0.0922128
0.0214092
0.080922
0.0227302
0.0689268
0.02397
0.0563121
0.0250458
0.0432568
0.0258108
0.030136
0.0258946
0.0171686
0.0244063
0.0187297
0.199692
0.00125575
0.198975
0.0026648
0.197913
0.0037519
0.196541
0.00477479
0.194872
0.00577288
0.192924
0.0067466
0.190696
0.00771262
0.188178
0.0086906
0.185355
0.00969364
0.18222
0.0107342
0.178754
0.0118216
0.174938
0.0129651
0.170748
0.0141759
0.166159
0.0154633
0.161141
0.0168361
0.155662
0.0183026
0.149682
0.01987
0.143162
0.0215433
0.136057
0.0233236
0.128319
0.0252073
0.119906
0.0271889
0.110769
0.0292545
0.100851
0.0313777
0.0901082
0.0335202
0.078486
0.0356218
0.0659457
0.0375869
0.0524609
0.0392834
0.037753
0.0405623
0.0205704
0.0414706
0.0392919
0.199599
0.00128048
0.198881
0.00307148
0.197833
0.00455403
0.196469
0.00591824
0.194814
0.00723392
0.192894
0.00851765
0.19071
0.0097906
0.188243
0.0110752
0.185487
0.0123883
0.182437
0.0137468
0.179077
0.0151625
0.175387
0.0166468
0.171354
0.018215
0.166956
0.0198793
0.162167
0.0216521
0.156957
0.023546
0.151294
0.0255724
0.145137
0.0277418
0.138445
0.0300621
0.131156
0.0325358
0.12322
0.0351634
0.114574
0.0379423
0.105121
0.040859
0.0947695
0.0438919
0.0833837
0.0470126
0.0707544
0.0501725
0.0566388
0.0533183
0.0405992
0.0564926
0.0217499
0.0601354
0.0609236
0.199551
0.00135402
0.198819
0.00349386
0.197772
0.00534825
0.196415
0.00704882
0.194776
0.00867622
0.19288
0.0102644
0.190726
0.0118388
0.188294
0.0134226
0.18558
0.0150379
0.182581
0.0167048
0.179279
0.0184393
0.175657
0.0202557
0.171704
0.0221697
0.167401
0.0241963
0.162723
0.0263517
0.157646
0.0286529
0.152136
0.0311151
0.146157
0.0337537
0.139674
0.0365869
0.132621
0.0396307
0.124916
0.0428936
0.116492
0.0463859
0.107233
0.050119
0.0970073
0.0541004
0.0856351
0.0583533
0.0727985
0.0629237
0.0581144
0.0678532
0.0411721
0.0732277
0.021755
0.07927
0.0825286
0.199524
0.00145565
0.198782
0.00392983
0.197734
0.00613458
0.196388
0.0081617
0.194773
0.0100946
0.192904
0.0119803
0.19078
0.013849
0.188385
0.0157264
0.185718
0.0176384
0.18277
0.0196094
0.179522
0.0216581
0.17596
0.0238006
0.172072
0.0260546
0.167839
0.0284374
0.163239
0.0309693
0.158243
0.0336718
0.152822
0.0365644
0.146932
0.0396681
0.14054
0.0430107
0.133587
0.0466222
0.125968
0.050526
0.117596
0.0547566
0.108337
0.0593577
0.0980166
0.0643645
0.0864462
0.0698392
0.0733127
0.0759288
0.0581607
0.0827949
0.0405007
0.0905694
0.0208871
0.0984738
0.103201
0.199509
0.00157436
0.198761
0.00437343
0.197715
0.00691114
0.196383
0.00925346
0.194796
0.0114846
0.192957
0.0136603
0.190867
0.0158163
0.188521
0.017982
0.18591
0.0201861
0.183018
0.0224558
0.179829
0.0248127
0.176328
0.0272758
0.172508
0.0298652
0.168348
0.0326011
0.163819
0.0355084
0.158895
0.0386129
0.153544
0.0419391
0.147718
0.0455179
0.141357
0.0493867
0.134409
0.0535836
0.126783
0.0581506
0.118369
0.0631515
0.109019
0.0686693
0.0984996
0.0747893
0.0865915
0.081603
0.0730626
0.089277
0.0574991
0.0980955
0.0393038
0.108368
0.0197402
0.117523
0.122731
0.199506
0.00170263
0.198747
0.004819
0.197706
0.00767388
0.196397
0.0103198
0.19484
0.012841
0.193038
0.015299
0.190994
0.0177358
0.188706
0.0201842
0.186156
0.0226749
0.183324
0.0252363
0.180197
0.0278938
0.176766
0.0306705
0.173024
0.0335901
0.168946
0.0366779
0.164495
0.0399618
0.159641
0.0434719
0.154355
0.0472391
0.148587
0.0513045
0.142255
0.0557172
0.135295
0.0605271
0.127618
0.0658049
0.119095
0.0716312
0.109583
0.0781128
0.0988421
0.0854051
0.0865881
0.0936651
0.0725911
0.10302
0.056634
0.113725
0.0381606
0.126393
0.0187306
0.136372
0.141195
0.199511
0.00183585
0.198739
0.00526298
0.197705
0.00842012
0.196424
0.0113571
0.194903
0.0141587
0.193146
0.0168901
0.191157
0.0195987
0.18893
0.0223213
0.186445
0.0250905
0.18368
0.0279365
0.180627
0.0308879
0.17728
0.0339725
0.173629
0.0372188
0.169644
0.0406566
0.165278
0.0443171
0.160504
0.0482348
0.155291
0.0524507
0.149581
0.0570157
0.143292
0.0619895
0.136347
0.0674406
0.128641
0.0734644
0.120025
0.0801775
0.110321
0.0877118
0.0993373
0.0962324
0.0867793
0.10599
0.0723274
0.117134
0.0559861
0.129654
0.0373557
0.144507
0.0179917
0.155101
0.158812
0.199512
0.001971
0.198737
0.00570021
0.197715
0.00914634
0.196464
0.0123617
0.194984
0.0154328
0.193276
0.0184279
0.191344
0.0213984
0.189181
0.0243849
0.186769
0.0274227
0.184087
0.0305452
0.181126
0.0337842
0.177877
0.0371715
0.174329
0.0407397
0.170444
0.0445222
0.166182
0.0485554
0.16151
0.0528805
0.156394
0.0575489
0.150765
0.0626224
0.144546
0.0681741
0.137643
0.0742986
0.129938
0.0811016
0.121285
0.0887315
0.111468
0.0973852
0.10027
0.107232
0.0874573
0.118524
0.0727004
0.131501
0.0560331
0.14583
0.0372149
0.162735
0.0178687
0.173796
0.176352
0.199502
0.00210617
0.198734
0.00612565
0.197733
0.00984895
0.196516
0.0133304
0.195079
0.0166591
0.193425
0.0199071
0.191553
0.023129
0.189462
0.0263689
0.187134
0.0296653
0.184546
0.0330547
0.181688
0.0365726
0.178551
0.0402543
0.175118
0.0441355
0.171352
0.0482544
0.167216
0.0526532
0.162685
0.0573817
0.157699
0.0625038
0.152179
0.0680883
0.146071
0.0742235
0.139269
0.0810303
0.131627
0.0886448
0.123003
0.0972245
0.113201
0.107004
0.101938
0.118243
0.089013
0.131121
0.0741569
0.145938
0.0572864
0.16216
0.0382824
0.181116
0.0187532
0.192733
0.194811
0.199489
0.00224037
0.198732
0.00653699
0.197758
0.010525
0.196578
0.0142596
0.19519
0.0178335
0.193591
0.0213223
0.191787
0.0247842
0.189779
0.0282666
0.187542
0.0318109
0.185056
0.0354557
0.182311
0.0392407
0.179299
0.0432053
0.175999
0.0473883
0.172373
0.0518323
0.168389
0.0565853
0.164029
0.061708
0.159215
0.067272
0.153867
0.07336
0.147921
0.0800794
0.141279
0.0875549
0.133827
0.0959599
0.125384
0.105501
0.115762
0.116401
0.104704
0.128997
0.0919465
0.143494
0.077238
0.16018
0.060426
0.178405
0.041415
0.199535
0.0214505
0.212223
0.216043
0.19948
0.00237186
0.198734
0.00693193
0.19779
0.011171
0.196652
0.0151454
0.195315
0.0189516
0.193777
0.0226688
0.192049
0.0263589
0.190127
0.0300716
0.187989
0.0338498
0.185616
0.0377364
0.182995
0.0417756
0.180122
0.0460088
0.176973
0.0504791
0.17351
0.0552332
0.169714
0.0603244
0.165546
0.0658253
0.160935
0.0718108
0.15583
0.0783736
0.150141
0.0856463
0.143762
0.093767
0.136637
0.10291
0.12859
0.11334
0.119407
0.125308
0.108891
0.139158
0.0967588
0.155183
0.0827694
0.173652
0.0666626
0.193936
0.0482501
0.217404
0.0277602
0.232335
0.243569
0.199473
0.00249931
0.19874
0.00730819
0.197828
0.0117838
0.196736
0.0159844
0.195454
0.0200098
0.193983
0.0239421
0.192333
0.0278461
0.190502
0.0317738
0.188474
0.0357715
0.186225
0.0398869
0.183739
0.0441648
0.181021
0.0486489
0.178038
0.0533892
0.17476
0.0584336
0.17118
0.0638403
0.167239
0.0696899
0.162877
0.076068
0.158065
0.0830707
0.152731
0.090832
0.146788
0.0995257
0.140149
0.109336
0.13271
0.120515
0.124309
0.133378
0.114819
0.148242
0.104066
0.16545
0.0918869
0.185287
0.0778951
0.207368
0.0620103
0.232798
0.042001
0.252016
0.285447
0.199468
0.00262131
0.19875
0.00766346
0.197874
0.0123608
0.196832
0.0167744
0.195607
0.0210054
0.194204
0.0251378
0.192636
0.0292398
0.190904
0.0333675
0.188995
0.0375715
0.186873
0.0419007
0.184529
0.0463994
0.181971
0.0511163
0.179161
0.0561048
0.176085
0.0614132
0.172733
0.0671107
0.169047
0.0732759
0.164991
0.0799965
0.160527
0.0873899
0.155613
0.0955756
0.150215
0.104726
0.144238
0.115062
0.137644
0.126792
0.130405
0.140241
0.122538
0.155667
0.1141
0.173386
0.105205
0.19365
0.0958619
0.216195
0.0867873
0.241444
0.0735143
0.264992
0.358892
0.00391991
-0.00414716
0.00226896
0.00135416
-0.00206503
0.00375772
-0.00874207
0.00590773
-0.0176434
0.00806861
-0.0283296
0.00995932
-0.0402128
0.0113878
-0.0527977
0.0122993
-0.0656854
0.0127562
-0.0785562
0.0128685
-0.0911406
0.0126944
-0.10323
0.0122599
-0.114656
0.0116119
-0.125213
0.0107744
-0.134703
0.00974402
-0.142952
0.00853011
-0.149793
0.00713482
-0.155039
0.0055555
-0.158515
0.00380576
-0.160041
0.00187407
-0.15933
-0.000315085
-0.156135
-0.00275022
-0.150148
-0.00551747
-0.14109
-0.0085595
-0.12867
-0.0118936
-0.112524
-0.0155856
-0.091925
-0.0199946
-0.0650735
-0.0262048
-0.0296402
-0.0347647
-0.0354705
-0.00284126
-0.00154147
-0.00704115
0.00520374
-0.0140714
0.0101793
-0.0236593
0.0147227
-0.0352664
0.0188534
-0.0482554
0.022247
-0.0620231
0.0246843
-0.0761738
0.0261615
-0.0903698
0.0268087
-0.104308
0.0268049
-0.11779
0.0262799
-0.130679
0.0252992
-0.142813
0.0239196
-0.15399
0.0221626
-0.16404
0.0200394
-0.172795
0.0175588
-0.180089
0.0147216
-0.185752
0.0115329
-0.189615
0.00800564
-0.191515
0.00413299
-0.191327
-0.000105784
-0.188867
-0.00477089
-0.184057
-0.00985961
-0.176768
-0.0153514
-0.166902
-0.0212331
-0.154383
-0.0275453
-0.139217
-0.0345579
-0.122081
-0.0426972
-0.10519
-0.0509868
-0.0574052
-0.00591543
0.0041276
-0.0134208
0.0122667
-0.0231067
0.0192053
-0.0348107
0.0256568
-0.0480137
0.0312865
-0.0620531
0.0356664
-0.0764326
0.0386499
-0.0908921
0.0403462
-0.105186
0.0409693
-0.119114
0.0407324
-0.132552
0.0398101
-0.145409
0.0382891
-0.157542
0.0362158
-0.168785
0.033607
-0.178987
0.0304709
-0.187988
0.0268172
-0.195624
0.0226453
-0.201737
0.0179601
-0.206167
0.0127751
-0.208799
0.00712979
-0.209434
0.000927543
-0.208161
-0.00561062
-0.204824
-0.012731
-0.199421
-0.0202589
-0.191985
-0.0281428
-0.182625
-0.0363455
-0.171684
-0.0448984
-0.159974
-0.053768
-0.147896
-0.0623961
-0.0703615
-0.00813245
0.0119265
-0.01825
0.0218349
-0.0301652
0.030417
-0.0434565
0.0381998
-0.0575471
0.0446916
-0.0718861
0.0494865
-0.0861579
0.0525842
-0.100254
0.054219
-0.114057
0.0546797
-0.127496
0.0541856
-0.140502
0.0529016
-0.153005
0.0509172
-0.164889
0.0482515
-0.176006
0.0449128
-0.186208
0.0408933
-0.195338
0.0361933
-0.203225
0.0308118
-0.209708
0.0247546
-0.214647
0.018052
-0.217894
0.0107422
-0.219416
0.00284582
-0.219092
-0.0055036
-0.217016
-0.0143444
-0.213195
-0.023586
-0.207725
-0.0330873
-0.200807
-0.0427033
-0.192846
-0.0522608
-0.184423
-0.0615544
-0.175799
-0.0703519
-0.078254
-0.00993674
0.0215355
-0.0222102
0.033476
-0.0358041
0.0433061
-0.0500805
0.0517812
-0.0644407
0.0584492
-0.0785046
0.0631139
-0.0921551
0.0659656
-0.10545
0.067355
-0.118414
0.0675919
-0.131052
0.0668704
-0.143363
0.0653075
-0.155297
0.062971
-0.166741
0.0598436
-0.17756
0.0559079
-0.187593
0.0511422
-0.196691
0.0455337
-0.204691
0.0390818
-0.211426
0.0317971
-0.216761
0.0237239
-0.220575
0.0149191
-0.22281
0.00547554
-0.223421
-0.00446547
-0.22247
-0.0148345
-0.220018
-0.0255458
-0.216196
-0.0363833
-0.211243
-0.0470954
-0.205534
-0.0573725
-0.199505
-0.066949
-0.193518
-0.0756711
-0.0830798
-0.0114982
0.0326982
-0.0254819
0.0467899
-0.0401807
0.0573438
-0.0547903
0.0657864
-0.0688088
0.0719622
-0.082078
0.0760304
-0.0947031
0.0783807
-0.106889
0.0794323
-0.118776
0.0794596
-0.130422
0.078587
-0.141879
0.0768705
-0.153106
0.0743173
-0.163982
0.0708702
-0.174387
0.0664862
-0.18416
0.0611248
-0.193148
0.0547635
-0.201203
0.047399
-0.208157
0.0390485
-0.213862
0.0297618
-0.218205
0.0196227
-0.221109
0.00877128
-0.222542
-0.00260709
-0.22258
-0.0143383
-0.221313
-0.0263215
-0.218887
-0.0382832
-0.215542
-0.0498802
-0.211604
-0.0607134
-0.207446
-0.0704743
-0.203467
-0.0789813
-0.0858459
-0.0128031
0.0452488
-0.0280338
0.0613459
-0.0432022
0.0719114
-0.057452
0.0795365
-0.0705138
0.0846321
-0.0825176
0.0877686
-0.0937936
0.0895026
-0.104663
0.0902332
-0.115333
0.0901346
-0.125903
0.0892306
-0.13643
0.0875039
-0.146867
0.0848798
-0.157104
0.0812631
-0.167027
0.0765887
-0.176491
0.0707939
-0.185336
0.0638464
-0.19341
0.0557346
-0.200553
0.0464819
-0.20661
0.0361461
-0.211462
0.0248317
-0.215012
0.0127118
-0.217213
1.60892e-05
-0.218142
-0.0129521
-0.21793
-0.0260436
-0.216714
-0.038974
-0.214717
-0.051317
-0.212225
-0.0626086
-0.209578
-0.0724891
-0.207161
-0.0807289
-0.0870909
-0.0138188
0.0588013
-0.0296844
0.0765706
-0.0445824
0.0862863
-0.0577393
0.0922926
-0.0692634
0.0958622
-0.0796191
0.0979317
-0.0893237
0.0991001
-0.0987627
0.0996352
-0.108166
0.099558
-0.117641
0.0987779
-0.127212
0.0971812
-0.136835
0.0946348
-0.146421
0.0910087
-0.155846
0.0862033
-0.164987
0.0801407
-0.173682
0.0727729
-0.18177
0.064084
-0.189096
0.0540966
-0.195501
0.0428746
-0.20085
0.0305352
-0.205025
0.0172737
-0.20796
0.00337188
-0.209724
-0.0107332
-0.210472
-0.0248061
-0.210328
-0.038594
-0.209491
-0.0515943
-0.208216
-0.0632882
-0.206816
-0.0732564
-0.205653
-0.0812225
-0.0871285
-0.0144493
0.073017
-0.0301906
0.0917684
-0.0439514
0.0996239
-0.0552483
0.103278
-0.0647246
0.105118
-0.0731617
0.106232
-0.0811837
0.107053
-0.0891726
0.107612
-0.0973259
0.107746
-0.105728
0.107257
-0.11438
0.105941
-0.123226
0.103616
-0.132184
0.100126
-0.141127
0.0953343
-0.149932
0.0891543
-0.158455
0.0815254
-0.166538
0.0724263
-0.174025
0.0618722
-0.180756
0.0499264
-0.186582
0.0367138
-0.191376
0.0224521
-0.195081
0.00749579
-0.197692
-0.00766971
-0.199346
-0.0226637
-0.200184
-0.0372333
-0.200383
-0.0508361
-0.200167
-0.0629088
-0.199827
-0.0729645
-0.199708
-0.0806725
-0.0861509
-0.0145775
0.0874663
-0.0292888
0.106065
-0.040858
0.110863
-0.0495189
0.111701
-0.0565585
0.111997
-0.06296
0.112543
-0.0693193
0.113377
-0.0759377
0.114242
-0.0829488
0.114808
-0.0903749
0.114766
-0.0981901
0.113867
-0.106315
0.111875
-0.114655
0.108624
-0.123102
0.103965
-0.131542
0.0978006
-0.13985
0.0900636
-0.147887
0.0807209
-0.155505
0.0697781
-0.162554
0.057293
-0.168884
0.0433944
-0.174358
0.0283089
-0.178853
0.0124075
-0.182289
-0.00378255
-0.18481
-0.0196566
-0.186584
-0.0349377
-0.187757
-0.049105
-0.188513
-0.0615585
-0.189111
-0.0717343
-0.189897
-0.0792177
-0.0842808
-0.0141078
0.1015
-0.026523
0.118172
-0.0346028
0.118687
-0.0399936
0.116918
-0.0444637
0.116364
-0.0489348
0.116968
-0.0538391
0.11828
-0.0593087
0.119744
-0.0653673
0.120928
-0.0719578
0.121443
-0.0790024
0.121022
-0.0864224
0.119428
-0.0941301
0.116488
-0.102042
0.112057
-0.110066
0.106029
-0.118099
0.0983252
-0.126026
0.0889042
-0.133724
0.0777618
-0.14106
0.064945
-0.147894
0.0505764
-0.15407
0.0348664
-0.159395
0.0181465
-0.163649
0.000921469
-0.166987
-0.0158344
-0.169695
-0.0317093
-0.171843
-0.0464001
-0.173556
-0.0592522
-0.175045
-0.0696154
-0.176658
-0.0769357
-0.0815795
-0.0126351
0.114148
-0.0208067
0.126099
-0.0241092
0.121804
-0.0261304
0.118831
-0.0283693
0.118555
-0.0313595
0.11995
-0.0351946
0.122137
-0.0398035
0.124398
-0.0450729
0.126264
-0.0509034
0.127362
-0.0572014
0.127429
-0.0639073
0.126265
-0.0709587
0.123693
-0.0782911
0.119567
-0.0858346
0.113774
-0.0935096
0.106228
-0.101232
0.0968813
-0.108913
0.0857264
-0.11644
0.0727868
-0.123682
0.0581638
-0.130454
0.0420179
-0.136505
0.0246092
-0.141625
0.00648918
-0.145885
-0.0110918
-0.14957
-0.0275055
-0.15275
-0.0426647
-0.155483
-0.0559264
-0.157896
-0.0665728
-0.160325
-0.0738389
-0.0780558
-0.00861941
0.122671
-0.00932159
0.126594
-0.0086174
0.120984
-0.00804922
0.118212
-0.00889863
0.119393
-0.0110127
0.122078
-0.0141239
0.12528
-0.0180303
0.128355
-0.0225789
0.130881
-0.0276686
0.132539
-0.0332203
0.133089
-0.0391999
0.132374
-0.0455632
0.130208
-0.0522624
0.126442
-0.0592503
0.120962
-0.0664688
0.113672
-0.073861
0.104526
-0.0813827
0.09353
-0.088936
0.0806523
-0.096393
0.0659646
-0.103577
0.0495788
-0.110262
0.0317046
-0.116317
0.0129887
-0.121542
-0.00538524
-0.126201
-0.0223304
-0.130479
-0.0378329
-0.134359
-0.0514555
-0.137831
-0.0624726
-0.141145
-0.0698581
-0.0736712
0.0034353
0.119167
0.00741253
0.122469
0.0115256
0.116808
0.0130588
0.116658
0.0127343
0.119719
0.0111503
0.123682
0.00867051
0.127795
0.00547926
0.131598
0.00167773
0.134752
-0.00268249
0.136987
-0.00752631
0.13804
-0.0127811
0.137757
-0.0184197
0.135997
-0.0244252
0.13262
-0.0307765
0.127511
-0.0374254
0.120545
-0.0443263
0.111678
-0.0515195
0.101003
-0.058923
0.0883659
-0.0664455
0.0738288
-0.0739568
0.0574645
-0.0812638
0.0394197
-0.0881383
0.0203062
-0.0941356
0.00109064
-0.0995958
-0.0163553
-0.10498
-0.0318964
-0.110138
-0.0457091
-0.114893
-0.0570902
-0.119271
-0.0648152
-0.0683422
0.0252506
0.0938119
0.0306481
0.11698
0.0342174
0.113203
0.0353577
0.115507
0.0351781
0.119905
0.0340877
0.124793
0.0322658
0.129654
0.0298097
0.134107
0.0267916
0.137839
0.023266
0.1406
0.0192655
0.142146
0.0148397
0.142309
0.010022
0.140963
0.00482601
0.137988
-0.00076502
0.133298
-0.0067576
0.126759
-0.0131104
0.11828
-0.0197306
0.107901
-0.0266856
0.0956288
-0.0339481
0.0814306
-0.0414854
0.0653737
-0.0492003
0.0475404
-0.056889
0.0284354
-0.0636375
0.00831536
-0.0698748
-0.00960536
-0.0762941
-0.0249274
-0.0827284
-0.0386879
-0.0890023
-0.0501917
-0.0947563
-0.0583977
-0.0619203
0.207102
0.0027433
0.206371
0.00801015
0.205499
0.0129204
0.204472
0.0175385
0.203266
0.0219664
0.201889
0.0262889
0.200358
0.0305782
0.198681
0.0348958
0.196836
0.0392958
0.194784
0.0438257
0.192527
0.0485298
0.190065
0.0534632
0.187372
0.0586776
0.184445
0.0642248
0.18127
0.0701806
0.177796
0.0766233
0.174005
0.0836328
0.169881
0.0913345
0.165397
0.0998532
0.160565
0.109322
0.155371
0.119962
0.149843
0.13196
0.144122
0.145546
0.138435
0.160884
0.133202
0.178111
0.129186
0.19715
0.127683
0.217223
0.131302
0.237451
0.142255
0.253781
0.262426
0.238701
0.212108
0.00286071
0.211374
0.0083387
0.210516
0.0134471
0.209526
0.0182563
0.208372
0.0228698
0.207051
0.0273704
0.205588
0.0318326
0.204001
0.0363253
0.202257
0.0409062
0.200317
0.0456187
0.198194
0.0505082
0.195887
0.0556333
0.193384
0.0610454
0.190674
0.066801
0.187752
0.0729688
0.18459
0.0796293
0.18117
0.0868661
0.177519
0.0947745
0.173654
0.103479
0.169604
0.113099
0.165448
0.123794
0.161325
0.135702
0.157541
0.148899
0.154542
0.163415
0.153107
0.17906
0.154552
0.195228
0.160744
0.210608
0.174445
0.223438
0.196378
0.231659
0.239932
0.218809
0.217233
0.00297265
0.216498
0.0086461
0.21566
0.0139372
0.214714
0.0189223
0.213617
0.0237067
0.212363
0.0283692
0.210987
0.0329881
0.209507
0.0376411
0.207875
0.0423839
0.206069
0.0472554
0.204107
0.0523072
0.201991
0.0575953
0.199719
0.0631695
0.197279
0.0690905
0.194661
0.075421
0.191868
0.0822288
0.188914
0.089599
0.185846
0.0976008
0.182726
0.106334
0.179615
0.11591
0.176675
0.126388
0.174164
0.137821
0.172482
0.150155
0.172212
0.163235
0.174199
0.176617
0.179459
0.189539
0.188628
0.201067
0.201612
0.210192
0.216397
0.216732
0.221443
0.234827
0.222481
0.00307722
0.221756
0.0089282
0.220952
0.0143872
0.220039
0.0195314
0.218994
0.0244653
0.217828
0.0292704
0.216563
0.0340316
0.215198
0.0388276
0.213692
0.0437082
0.212043
0.0487135
0.210271
0.0538992
0.208376
0.0593176
0.206365
0.0650137
0.204238
0.0710488
0.201982
0.0774814
0.199626
0.0843568
0.197222
0.0917526
0.194822
0.0997316
0.192527
0.108344
0.190467
0.117654
0.188846
0.127652
0.187979
0.138297
0.188275
0.149445
0.190272
0.160812
0.194529
0.171944
0.201412
0.182276
0.21086
0.191302
0.222557
0.198271
0.236355
0.202808
0.203996
0.25374
0.227859
0.0031735
0.227149
0.00918237
0.226379
0.0147911
0.225498
0.0200728
0.224517
0.025133
0.22346
0.0300642
0.222316
0.0349524
0.221071
0.0398673
0.219711
0.0448587
0.218247
0.0499703
0.21669
0.0552567
0.215048
0.0607665
0.213329
0.066542
0.211547
0.0726357
0.209714
0.0790936
0.207863
0.0859577
0.206059
0.0932839
0.20439
0.10111
0.202995
0.109446
0.202027
0.118299
0.201696
0.12762
0.202314
0.137295
0.204223
0.147139
0.207776
0.156866
0.213233
0.166115
0.220677
0.174503
0.230077
0.181631
0.241255
0.186895
0.253923
0.190015
0.190099
0.26775
0.233373
0.00326058
0.232679
0.00940605
0.231934
0.0151414
0.231098
0.020537
0.230199
0.0257027
0.229257
0.0307407
0.228242
0.0357336
0.227134
0.0407426
0.225941
0.0458165
0.224683
0.0510036
0.223367
0.0563549
0.222007
0.0619129
0.220616
0.067719
0.21922
0.0738099
0.217849
0.0802236
0.216542
0.0869999
0.21538
0.094158
0.214492
0.101702
0.214011
0.109628
0.214074
0.1179
0.214894
0.126433
0.216723
0.135092
0.219799
0.143692
0.224324
0.151986
0.230409
0.159705
0.238071
0.166552
0.247288
0.172171
0.257774
0.176226
0.269028
0.178635
0.178326
0.280723
0.239021
0.00333537
0.238351
0.00959303
0.237634
0.0154326
0.236854
0.02092
0.236044
0.0261694
0.235216
0.0312881
0.23434
0.0363588
0.23339
0.0414354
0.232387
0.0465628
0.231355
0.0517917
0.230305
0.057168
0.229254
0.062731
0.228225
0.068514
0.227247
0.0745452
0.226359
0.0808539
0.225626
0.087457
0.225139
0.09435
0.225024
0.101521
0.225392
0.108951
0.226374
0.116575
0.228154
0.124294
0.230909
0.131979
0.234798
0.139456
0.239946
0.146522
0.246393
0.152976
0.254119
0.158566
0.263031
0.163034
0.272824
0.166259
0.283127
0.168205
0.167678
0.293692
0.244805
0.00339625
0.244159
0.00973891
0.243479
0.0156583
0.242766
0.021214
0.242055
0.0265234
0.241344
0.0316964
0.240611
0.0368146
0.239839
0.0419277
0.239049
0.0470788
0.238265
0.0523142
0.237503
0.0576762
0.236782
0.0632014
0.236135
0.0689092
0.235596
0.074825
0.235216
0.0809616
0.235071
0.0873156
0.235247
0.0938765
0.235845
0.100621
0.23697
0.107509
0.238739
0.114467
0.24129
0.121397
0.244752
0.128176
0.249233
0.134655
0.254803
0.140676
0.261465
0.146068
0.269156
0.150634
0.277737
0.154241
0.286985
0.156845
0.296653
0.158411
0.157795
0.30645
0.250734
0.00344433
0.250095
0.00984076
0.24946
0.0158087
0.248832
0.0214081
0.248233
0.0267552
0.247647
0.0319561
0.247065
0.0370893
0.246487
0.0422066
0.245927
0.0473501
0.245407
0.0525564
0.244948
0.0578656
0.244576
0.0633063
0.244327
0.0688904
0.244242
0.0746359
0.244378
0.0805428
0.244802
0.0865991
0.24559
0.0927872
0.246831
0.0990722
0.248621
0.105403
0.251055
0.111704
0.254232
0.117886
0.258245
0.123841
0.263172
0.129444
0.269036
0.134568
0.275803
0.139069
0.283393
0.142819
0.291679
0.145759
0.3005
0.147867
0.30967
0.149118
0.148476
0.318902
0.256804
0.00347918
0.25617
0.00989501
0.255585
0.0158771
0.255054
0.0214932
0.254581
0.0268556
0.254129
0.0320586
0.253706
0.0371751
0.253331
0.0422632
0.253013
0.0473633
0.252772
0.0525046
0.252631
0.0577211
0.252622
0.0630342
0.252778
0.0684529
0.253145
0.0739845
0.253776
0.079622
0.254732
0.0853477
0.256082
0.0911351
0.257904
0.0969437
0.260276
0.102719
0.263275
0.10839
0.266959
0.113883
0.2714
0.119103
0.276659
0.123935
0.282719
0.128279
0.289524
0.132039
0.296996
0.13514
0.305027
0.137549
0.313495
0.139251
0.322258
0.140236
0.139584
0.331064
0.263021
0.00349721
0.262403
0.00989899
0.26187
0.0158633
0.261436
0.0214662
0.261092
0.0268159
0.260785
0.0319921
0.260533
0.0370616
0.260372
0.0420866
0.260308
0.0471075
0.260355
0.0521491
0.26054
0.0572371
0.260893
0.0623873
0.261449
0.0676053
0.262252
0.0728894
0.263352
0.0782277
0.264804
0.0835985
0.266669
0.0889706
0.269009
0.0943016
0.271888
0.0995374
0.275355
0.104622
0.279451
0.10949
0.284236
0.114045
0.289741
0.118193
0.295926
0.121874
0.302729
0.125026
0.31008
0.127601
0.317891
0.129573
0.326064
0.130938
0.33449
0.131696
0.131038
0.342953
0.269392
0.00349498
0.268796
0.00985062
0.268324
0.0157678
0.267982
0.0213257
0.267757
0.0266272
0.267607
0.0317436
0.267548
0.0367377
0.267611
0.0416701
0.267803
0.0465799
0.268142
0.0514894
0.268651
0.0564169
0.26936
0.0613735
0.270305
0.0663606
0.271526
0.0713714
0.273068
0.0763897
0.274978
0.0813917
0.277307
0.0863456
0.280106
0.0912088
0.283415
0.0959372
0.287268
0.100483
0.291712
0.104771
0.29678
0.108721
0.302462
0.112282
0.308716
0.115409
0.315493
0.118056
0.322728
0.120191
0.330348
0.121799
0.338271
0.122884
0.346411
0.123447
0.122785
0.354583
0.275918
0.00347131
0.275349
0.00974732
0.274943
0.0155862
0.274694
0.0210656
0.274588
0.0262833
0.274603
0.0313078
0.274747
0.036199
0.275037
0.0410112
0.275487
0.0457807
0.276115
0.050528
0.276944
0.0552666
0.278001
0.0600032
0.279319
0.064736
0.280936
0.0694548
0.28289
0.0741406
0.285219
0.078769
0.287963
0.0833107
0.291157
0.0877284
0.29483
0.0919837
0.29902
0.0960208
0.303757
0.0997742
0.309038
0.103199
0.314842
0.106258
0.321136
0.108914
0.327875
0.111134
0.335001
0.1129
0.342452
0.114205
0.350158
0.115054
0.35805
0.115452
0.114789
0.365968
0.282602
0.00342576
0.282064
0.00958622
0.281725
0.0153131
0.281573
0.0206809
0.281595
0.0257824
0.281777
0.0306847
0.282122
0.0354442
0.282641
0.0401091
0.283349
0.0447116
0.284262
0.0492703
0.285401
0.0537956
0.286792
0.0582907
0.288464
0.0627515
0.290452
0.0671664
0.292789
0.0715138
0.295496
0.0757732
0.298601
0.0799195
0.302137
0.0839134
0.306134
0.0877159
0.310615
0.0912798
0.315581
0.0945623
0.32102
0.097532
0.326913
0.100156
0.333228
0.102408
0.339922
0.104267
0.346946
0.105723
0.354245
0.106772
0.36176
0.107423
0.369431
0.107683
0.107022
0.377124
0.28945
0.00335751
0.288944
0.00936514
0.288675
0.0149454
0.288623
0.0201692
0.288777
0.0251241
0.289125
0.0298749
0.289668
0.0344746
0.290415
0.0389661
0.291377
0.0433775
0.292568
0.0477248
0.294007
0.0520165
0.295714
0.0562535
0.297715
0.0604293
0.300049
0.0645326
0.30274
0.0685456
0.305782
0.0724482
0.309205
0.0762107
0.313048
0.0797965
0.317327
0.0831759
0.322042
0.0863161
0.327186
0.0891845
0.332748
0.0917538
0.338706
0.0940006
0.345027
0.0959063
0.351674
0.0974583
0.358601
0.0986509
0.365761
0.0994858
0.373103
0.0999713
0.380578
0.100116
0.0994624
0.388067
0.296464
0.00326582
0.295993
0.00908277
0.295794
0.0144817
0.295845
0.0195299
0.296131
0.0243093
0.296643
0.0288802
0.297381
0.0332933
0.298351
0.0375876
0.299562
0.0417861
0.301022
0.0459025
0.302746
0.0499442
0.304753
0.0539105
0.307059
0.057795
0.309705
0.0615872
0.312712
0.0652709
0.316059
0.0688227
0.319773
0.0722129
0.323885
0.0754173
0.328395
0.0784137
0.333299
0.0811741
0.338588
0.0836734
0.344246
0.085891
0.350249
0.08781
0.356566
0.0894182
0.363163
0.0907085
0.369998
0.0916792
0.377031
0.0923341
0.384216
0.0926823
0.391512
0.0927324
0.0920919
0.398816
0.30365
0.0031503
0.303215
0.00873872
0.303087
0.0139218
0.303239
0.0187641
0.303656
0.02334
0.30433
0.0277042
0.305256
0.0319057
0.306443
0.035981
0.307897
0.0399473
0.309616
0.0438157
0.311609
0.0475959
0.313893
0.0512864
0.316485
0.0548775
0.319413
0.0583586
0.322696
0.0617146
0.326319
0.0649244
0.330292
0.0679661
0.334631
0.0708201
0.339335
0.0734667
0.344397
0.075885
0.349803
0.078056
0.355535
0.0799643
0.361568
0.0815986
0.367874
0.0829512
0.374419
0.0840187
0.381168
0.0848023
0.388082
0.0853072
0.395125
0.0855425
0.402258
0.0855172
0.084895
0.409392
0.311011
0.00301089
0.310615
0.0083336
0.310557
0.0132669
0.310808
0.0178736
0.311353
0.0222196
0.312181
0.0263524
0.313284
0.0303183
0.314683
0.0341527
0.31638
0.0378716
0.31834
0.0414831
0.320577
0.0449934
0.323118
0.0484008
0.325976
0.0516954
0.329166
0.0548671
0.332694
0.0579043
0.336556
0.0607901
0.340753
0.0635063
0.345288
0.0660364
0.350157
0.0683644
0.355349
0.0704748
0.36085
0.0723538
0.366638
0.0739905
0.372691
0.0753774
0.378979
0.0765103
0.385473
0.0773885
0.392139
0.078015
0.398945
0.0783956
0.405857
0.0785397
0.412841
0.0784558
0.0778576
0.41982
0.31855
0.00284758
0.318197
0.00786939
0.318208
0.0125201
0.318553
0.0168606
0.319225
0.0209498
0.320204
0.0248308
0.321473
0.0285433
0.323068
0.0321175
0.324989
0.0355746
0.327174
0.0389199
0.329639
0.0421516
0.332423
0.0452695
0.335525
0.0482684
0.33895
0.0511393
0.342699
0.0538709
0.34677
0.0564497
0.351159
0.0588614
0.355863
0.0610925
0.360871
0.0631307
0.366173
0.0649644
0.37175
0.066584
0.377582
0.0679821
0.383645
0.0691542
0.389912
0.0700985
0.396356
0.0708163
0.402945
0.0713115
0.409651
0.0715906
0.416443
0.0716623
0.423292
0.0715352
0.0709664
0.43013
0.32627
0.00265696
0.325973
0.00734803
0.326046
0.011689
0.326473
0.0157316
0.327267
0.0195361
0.328393
0.0231464
0.329831
0.0265908
0.331604
0.0298918
0.333711
0.033072
0.336107
0.0361375
0.338797
0.0390849
0.341803
0.0419146
0.345124
0.0446224
0.34876
0.0472005
0.352708
0.0496392
0.356964
0.0519278
0.36152
0.0540551
0.366368
0.0560108
0.371497
0.0577853
0.37689
0.0593705
0.382529
0.0607596
0.388395
0.0619482
0.394463
0.0629338
0.400708
0.0637167
0.407103
0.064299
0.413622
0.0646855
0.420237
0.0648827
0.426922
0.0648989
0.433648
0.0647421
0.064208
0.440357
0.334177
0.00243924
0.33393
0.00677069
0.334063
0.0107766
0.334568
0.0144949
0.335473
0.0179903
0.336739
0.0213072
0.338344
0.0244659
0.340286
0.0274827
0.342561
0.0303759
0.345151
0.0331534
0.348048
0.0358142
0.351256
0.0383572
0.354775
0.0407788
0.3586
0.0430727
0.362727
0.0452311
0.367146
0.0472456
0.371849
0.0491077
0.376823
0.0508096
0.382053
0.0523441
0.387524
0.0537057
0.393217
0.05489
0.39911
0.0558945
0.40518
0.0567185
0.411403
0.0573633
0.417755
0.057832
0.424211
0.0581293
0.430745
0.0582618
0.437333
0.0582372
0.44395
0.0580631