/*--------------------------------*- C++ -*----------------------------------*\
| =========                 |                                                 |
| \\      /  F ield         | OpenFOAM: The Open Source CFD Toolbox           |
|  \\    /   O peration     | Version:  2006                                  |
|   \\  /    A nd           | Website:  www.openfoam.com                      |
|    \\/     M anipulation  |                                                 |
\*---------------------------------------------------------------------------*/
FoamFile
{
    version     2.0;
    format      ascii;
    class       surfaceScalarField;
    location    "0.9";
    object      phi;
}
// * * * * * * * * * * * * * * * * * * * * * * * * * * * * * * * * * * * * * //

dimensions      [0 3 -1 0 0 0 0];
oriented        oriented;


internalField   nonuniform List<scalar> 
5457
(
0.198295
0.001458
0.196382
0.00169109
0.194253
0.00192708
0.191856
0.00221251
0.189188
0.0025005
0.186249
0.00278589
0.183035
0.00307612
0.179534
0.00337771
0.175731
0.00369526
0.171607
0.00403258
0.16714
0.0043927
0.162305
0.00477944
0.157072
0.00519595
0.151409
0.00564457
0.145281
0.00612777
0.138653
0.00664669
0.131487
0.00720131
0.123746
0.00778983
0.115397
0.00840825
0.106413
0.00904995
0.0967754
0.00970525
0.086479
0.0103607
0.075536
0.0109992
0.0639808
0.0115995
0.0518763
0.0121342
0.0393217
0.0125687
0.0264669
0.012853
0.0135878
0.0128613
0.00187133
0.0116768
0.0018677
0.199852
0.0013593
0.199152
0.00216831
0.198125
0.00275195
0.196804
0.00334981
0.195181
0.00395514
0.193253
0.00455984
0.191017
0.00517427
0.18846
0.00581036
0.185569
0.00647751
0.182325
0.00718357
0.178707
0.00793533
0.174689
0.0087402
0.170241
0.00960487
0.16533
0.0105351
0.15992
0.0115363
0.153971
0.0126119
0.147441
0.0137633
0.140289
0.0149886
0.132473
0.0162816
0.123955
0.0176313
0.114704
0.0190209
0.1047
0.0204265
0.0939338
0.0218168
0.0824188
0.0231516
0.0701965
0.024375
0.0573566
0.0254059
0.0440785
0.0261041
0.0307604
0.0261206
0.0177234
0.0246064
0.0194557
0.1997
0.00141233
0.199052
0.0025927
0.198082
0.00351938
0.196838
0.00440888
0.195323
0.00530072
0.193533
0.00619511
0.191465
0.00710352
0.189108
0.00804157
0.186452
0.00902272
0.183481
0.0100586
0.180178
0.0111605
0.176521
0.0123381
0.172482
0.0136016
0.168032
0.0149613
0.163136
0.0164259
0.157757
0.0180028
0.151852
0.0196966
0.145375
0.0215082
0.138275
0.0234332
0.130504
0.025461
0.122009
0.0275744
0.112743
0.0297473
0.102656
0.0319452
0.091709
0.0341218
0.0798674
0.0362136
0.0671071
0.0381301
0.0533937
0.0397448
0.0384849
0.0409143
0.0212208
0.0416973
0.0405894
0.199616
0.0015478
0.198961
0.00302385
0.198002
0.00427545
0.19677
0.00545506
0.195273
0.00662497
0.193513
0.00779899
0.191486
0.00899105
0.189182
0.010219
0.186591
0.0114992
0.183704
0.012847
0.180507
0.014277
0.176979
0.0158017
0.1731
0.0174343
0.168844
0.0191882
0.164183
0.0210758
0.159083
0.0231084
0.153506
0.0252951
0.147408
0.027641
0.140739
0.0301468
0.133441
0.0328077
0.125453
0.0356121
0.1167
0.038542
0.107099
0.0415726
0.096553
0.0446707
0.0849329
0.0478017
0.0720578
0.0509251
0.0576733
0.0539952
0.0413564
0.0570474
0.0223017
0.0605117
0.0627338
0.199573
0.00172507
0.198902
0.00347068
0.19795
0.0050233
0.19673
0.00648697
0.195251
0.00792861
0.193517
0.00937455
0.191526
0.0108428
0.189262
0.0123529
0.186719
0.0139238
0.18389
0.015574
0.18076
0.0173208
0.177313
0.0191801
0.173527
0.0211674
0.169381
0.0232986
0.164849
0.0255895
0.159899
0.0280555
0.154497
0.0307099
0.148601
0.0335631
0.142159
0.0366225
0.135111
0.039894
0.127378
0.0433789
0.118871
0.0470724
0.10948
0.0509689
0.0990651
0.0550637
0.0874309
0.0593705
0.0742885
0.0639396
0.0592542
0.0688234
0.0419232
0.0740975
0.0221718
0.079911
0.0847169
0.199549
0.0019239
0.198868
0.00392814
0.197924
0.00576138
0.196721
0.00749934
0.195267
0.00920582
0.193565
0.0109158
0.19161
0.0126521
0.189392
0.0144364
0.186904
0.0162903
0.184136
0.0182346
0.181075
0.0202899
0.177706
0.022475
0.174006
0.024808
0.169953
0.027307
0.165524
0.0299916
0.160685
0.0328817
0.155401
0.0359958
0.149629
0.0393499
0.143313
0.0429603
0.136383
0.0468459
0.128752
0.0510246
0.120316
0.0555113
0.110934
0.0603328
0.10042
0.0655229
0.0885554
0.0711299
0.0750284
0.07729
0.0594039
0.0841695
0.0412148
0.0918909
0.0211605
0.0994715
0.105577
0.199537
0.0021332
0.198851
0.00438909
0.197918
0.00648711
0.196736
0.0084881
0.195312
0.0104513
0.193645
0.0124168
0.191733
0.0144122
0.18957
0.0164621
0.187146
0.0185905
0.184449
0.0208205
0.181468
0.0231753
0.178185
0.0256775
0.174577
0.0283475
0.170624
0.0312064
0.166299
0.0342781
0.161568
0.0375886
0.156391
0.0411619
0.15072
0.0450219
0.144488
0.0491977
0.137615
0.0537209
0.130006
0.0586253
0.121542
0.063955
0.112057
0.0697715
0.101324
0.0761631
0.0890784
0.0832215
0.0750483
0.0910916
0.0588456
0.100033
0.039931
0.110326
0.0198084
0.11902
0.125133
0.199533
0.00234616
0.198846
0.00484751
0.197927
0.00719691
0.19677
0.00944905
0.19538
0.0116596
0.193755
0.0138716
0.191895
0.0161166
0.189795
0.0184227
0.187443
0.020816
0.184826
0.0233218
0.181935
0.0259663
0.178748
0.028775
0.175242
0.0317717
0.171402
0.0349816
0.167197
0.0384344
0.162584
0.0421629
0.157524
0.0461977
0.151957
0.0505731
0.145806
0.0553328
0.138983
0.0605217
0.131373
0.0662009
0.12283
0.072447
0.113177
0.079343
0.102177
0.0870273
0.0895152
0.0956758
0.074897
0.105418
0.0581117
0.116419
0.0387018
0.129201
0.0186015
0.138508
0.14352
0.199534
0.00255842
0.19885
0.00529865
0.197947
0.00788724
0.19682
0.0103783
0.19547
0.0128256
0.193894
0.0152739
0.192093
0.017758
0.190062
0.0203093
0.187788
0.0229561
0.185261
0.0257259
0.182468
0.0286481
0.179387
0.0317514
0.176001
0.0350636
0.172295
0.0386156
0.168225
0.0424431
0.163748
0.0465847
0.158824
0.0510807
0.15338
0.0559813
0.14733
0.0613417
0.140575
0.067226
0.132979
0.0737285
0.124382
0.080956
0.114562
0.0890376
0.103272
0.0981308
0.0901992
0.108483
0.074982
0.120266
0.0576213
0.13331
0.0378363
0.148391
0.0177246
0.15794
0.160925
0.199537
0.00276701
0.198862
0.00573802
0.197978
0.00855436
0.196884
0.0112721
0.195577
0.0139447
0.194057
0.0166181
0.19232
0.01933
0.190363
0.0221143
0.188175
0.0250018
0.185746
0.0280225
0.183062
0.0312087
0.180103
0.0345933
0.176856
0.0382091
0.173299
0.042092
0.169382
0.0462825
0.165064
0.0508276
0.160302
0.0557812
0.155016
0.0612081
0.149112
0.0671781
0.142468
0.0737869
0.134936
0.0811526
0.126353
0.0894132
0.116444
0.098774
0.104895
0.10943
0.0914351
0.12161
0.0757219
0.135543
0.0578009
0.150698
0.0375775
0.167973
0.0174101
0.17741
0.178038
0.19954
0.00296979
0.198877
0.0061619
0.198017
0.00919475
0.19696
0.012127
0.195701
0.0150127
0.19424
0.0178992
0.192573
0.0208265
0.190696
0.0238311
0.188603
0.0269458
0.186284
0.030203
0.18372
0.0336384
0.180895
0.0372891
0.177801
0.0411926
0.174409
0.04539
0.170665
0.049928
0.166533
0.0548623
0.16197
0.0602621
0.156889
0.0662049
0.151187
0.0727833
0.144735
0.0801236
0.137374
0.0883768
0.128886
0.0977314
0.118993
0.108431
0.107344
0.12076
0.0936455
0.134911
0.0775705
0.15113
0.0590998
0.168592
0.0383388
0.188102
0.0178751
0.197286
0.195694
0.199544
0.00316521
0.198896
0.00656775
0.198064
0.00980531
0.197046
0.0129397
0.195839
0.0160257
0.194441
0.0191123
0.192849
0.0222418
0.191059
0.0254525
0.189072
0.02878
0.186872
0.032259
0.184438
0.0359276
0.181758
0.0398261
0.178829
0.0439975
0.17562
0.0484895
0.172075
0.0533538
0.168163
0.0586553
0.163843
0.0644788
0.15902
0.0709176
0.153584
0.0780893
0.147413
0.0861453
0.140343
0.0952766
0.132112
0.105736
0.122442
0.117794
0.110991
0.131828
0.0973344
0.148103
0.0810792
0.166841
0.062153
0.18691
0.0407279
0.208943
0.0194444
0.218142
0.215056
0.199551
0.00335173
0.19892
0.00695313
0.198118
0.0103831
0.197142
0.0137069
0.19599
0.01698
0.19466
0.0202532
0.193147
0.0235709
0.191452
0.0269732
0.189577
0.0304979
0.187503
0.034182
0.185208
0.0380651
0.182686
0.0421909
0.179937
0.0466078
0.17693
0.05137
0.173611
0.0565344
0.169956
0.0621736
0.165922
0.0683879
0.161407
0.0752875
0.156319
0.0830096
0.150537
0.0917375
0.143898
0.101696
0.136167
0.113184
0.127033
0.126565
0.116151
0.142265
0.103018
0.160702
0.0871345
0.182116
0.0681226
0.205286
0.0458602
0.230656
0.0226191
0.241049
0.237563
0.199557
0.00352812
0.198946
0.00731597
0.198177
0.0109258
0.197246
0.0144256
0.196153
0.0178724
0.194894
0.0213183
0.193467
0.0248094
0.191871
0.0283874
0.190111
0.0320921
0.18817
0.0359628
0.186026
0.040041
0.183674
0.0443719
0.18112
0.0490087
0.178333
0.0540129
0.175266
0.059445
0.171901
0.0653854
0.168187
0.0719455
0.164042
0.0792507
0.159393
0.0874549
0.154132
0.096766
0.148109
0.107447
0.141135
0.119825
0.132929
0.134355
0.12319
0.1515
0.111468
0.171829
0.0972213
0.195706
0.0793955
0.222463
0.056993
0.252534
0.029404
0.26832
0.266864
0.199563
0.0036935
0.198975
0.00765471
0.198241
0.0114311
0.197359
0.0150933
0.196328
0.0187002
0.195143
0.0223045
0.193803
0.0259534
0.192311
0.0296902
0.19067
0.0335571
0.188869
0.0375955
0.186884
0.0418477
0.184714
0.0463598
0.182363
0.0511901
0.179804
0.0564043
0.177009
0.0620659
0.173956
0.0682637
0.170598
0.0751151
0.16688
0.0827545
0.162745
0.0913517
0.158117
0.101122
0.152888
0.112357
0.146924
0.125407
0.140093
0.140721
0.132236
0.158807
0.123201
0.180235
0.112859
0.205379
0.100751
0.233946
0.0877798
0.265035
0.0718005
0.284026
0.338563
0.00335194
-0.00337216
0.00101009
0.00210732
-0.00395108
0.00449137
-0.011017
0.00644236
-0.0199158
0.00822774
-0.030201
0.00967262
-0.0414029
0.0107125
-0.053131
0.0113813
-0.0650861
0.0117545
-0.0770516
0.0118952
-0.0888926
0.0118578
-0.100489
0.0116797
-0.1117
0.0113593
-0.122388
0.0108916
-0.132437
0.0102814
-0.14169
0.009505
-0.149927
0.0085533
-0.156961
0.00740676
-0.162594
0.00602788
-0.166585
0.00440918
-0.168688
0.00254577
-0.168511
0.000285622
-0.165741
-0.00228928
-0.159807
-0.00544958
-0.150246
-0.00907548
-0.13655
-0.0131875
-0.11809
-0.0179297
-0.0936945
-0.0238476
-0.0618927
-0.0312231
-0.0337221
-0.00324941
-0.000163854
-0.00798232
0.00656187
-0.0154423
0.0114573
-0.0251572
0.0155283
-0.0364903
0.0188928
-0.0488624
0.0214463
-0.0618092
0.0231867
-0.074999
0.0242335
-0.0881935
0.024749
-0.101232
0.0248604
-0.114019
0.0246509
-0.126452
0.0241793
-0.138414
0.0234573
-0.14979
0.0224681
-0.160459
0.0211908
-0.170283
0.0195954
-0.179069
0.0176557
-0.186623
0.0153247
-0.192755
0.0125544
-0.19724
0.00931339
-0.199801
0.00554986
-0.200288
0.00123443
-0.198302
-0.00379346
-0.193739
-0.00952682
-0.186336
-0.0159969
-0.175873
-0.0231438
-0.162289
-0.0309823
-0.145894
-0.0396957
-0.127577
-0.0489609
-0.0570717
-0.0060755
0.00583213
-0.0140412
0.0141617
-0.0239448
0.0208227
-0.03551
0.0264534
-0.0481983
0.0309244
-0.0614379
0.0341258
-0.0748524
0.0361756
-0.0882256
0.0373066
-0.101434
0.0377665
-0.114386
0.0377315
-0.127025
0.0372988
-0.139296
0.036518
-0.151114
0.0354024
-0.162384
0.0339252
-0.172992
0.0320419
-0.182817
0.0297039
-0.191699
0.0268613
-0.199459
0.0234484
-0.205912
0.0194017
-0.210843
0.0146658
-0.214042
0.00919307
-0.215263
0.002919
-0.2144
-0.00417344
-0.211265
-0.0121744
-0.205732
-0.0210461
-0.19773
-0.0306391
-0.187403
-0.0407773
-0.175207
-0.0513437
-0.161334
-0.0622526
-0.0727459
-0.00821199
0.0138264
-0.0186287
0.0240913
-0.0305156
0.0321201
-0.0433831
0.0386806
-0.0567169
0.0436406
-0.0700734
0.0469806
-0.0832407
0.0489799
-0.0961459
0.0499702
-0.108784
0.0502552
-0.121163
0.0500317
-0.133249
0.0493907
-0.145022
0.0483594
-0.156424
0.0469286
-0.167377
0.0450558
-0.177778
0.0426725
-0.187495
0.039707
-0.196384
0.036082
-0.204282
0.0317137
-0.211004
0.0265213
-0.216345
0.0204321
-0.220096
0.0133906
-0.222071
0.00536048
-0.222119
-0.00364267
-0.220166
-0.0136366
-0.216138
-0.0245808
-0.210048
-0.0362176
-0.202105
-0.0481882
-0.192697
-0.0601998
-0.182076
-0.0722881
-0.0835098
-0.00997954
0.0235598
-0.0224031
0.0359289
-0.0357395
0.0448274
-0.0493161
0.051647
-0.0626589
0.0564541
-0.0755735
0.0594658
-0.0880307
0.06112
-0.100088
0.061829
-0.11183
0.061895
-0.123346
0.0615008
-0.134644
0.0607063
-0.145715
0.0595097
-0.15652
0.057867
-0.166988
0.0557098
-0.177035
0.0529449
-0.186526
0.0494767
-0.19531
0.0452008
-0.203236
0.0400137
-0.21013
0.0338192
-0.215797
0.0265287
-0.220039
0.0180839
-0.222682
0.00847214
-0.223581
-0.00225868
-0.222681
-0.014041
-0.219956
-0.0268036
-0.215466
-0.0401906
-0.209428
-0.0536917
-0.202188
-0.0668832
-0.194167
-0.0797195
-0.0909766
-0.0115338
0.0348355
-0.0255147
0.049281
-0.0397237
0.0584071
-0.0533848
0.0647583
-0.0661867
0.0688294
-0.0782027
0.0711342
-0.0895918
0.0722382
-0.100525
0.0725951
-0.111166
0.0724592
-0.12164
0.0719559
-0.131993
0.0710977
-0.142232
0.0698421
-0.152325
0.0681057
-0.162204
0.0657917
-0.171798
0.0627776
-0.180989
0.0589432
-0.189623
0.0541653
-0.19754
0.0483107
-0.204579
0.0412667
-0.210548
0.0329322
-0.215251
0.0232435
-0.218507
0.0122031
-0.220168
-0.000108123
-0.2202
-0.0135094
-0.218619
-0.0278738
-0.215502
-0.0427859
-0.211051
-0.0576039
-0.205604
-0.0717679
-0.199683
-0.0850453
-0.0960754
-0.0128824
0.0474816
-0.0279201
0.063666
-0.0423499
0.0722461
-0.0554643
0.0773945
-0.0672346
0.0802428
-0.0779601
0.0815808
-0.0879867
0.082051
-0.0975916
0.0820674
-0.10699
0.0817992
-0.11632
0.0812873
-0.125646
0.0804773
-0.134984
0.0792858
-0.144307
0.0775847
-0.153549
0.0752436
-0.16264
0.0721248
-0.171478
0.0680687
-0.179919
0.0629374
-0.187801
0.0565732
-0.19496
0.0488389
-0.20121
0.0396227
-0.206354
0.0288503
-0.210199
0.016529
-0.212582
0.00277002
-0.213473
-0.0121114
-0.212936
-0.0278949
-0.211034
-0.0441589
-0.207958
-0.0601358
-0.204046
-0.0751132
-0.19985
-0.0886384
-0.0993435
-0.0139336
0.061077
-0.0294125
0.0784835
-0.0433774
0.0856759
-0.055313
0.0889184
-0.0655617
0.0901818
-0.0746651
0.0904528
-0.083122
0.0903382
-0.0912779
0.090122
-0.0993587
0.0898445
-0.107509
0.0894575
-0.115789
0.0888271
-0.124202
0.087817
-0.132739
0.0862866
-0.141332
0.0840502
-0.149904
0.08096
-0.158367
0.0768325
-0.166585
0.0714952
-0.174406
0.0647783
-0.181667
0.056518
-0.18818
0.0465818
-0.193741
0.0348808
-0.198147
0.0214221
-0.201254
0.00637908
-0.202997
-0.00985583
-0.203436
-0.0269327
-0.202647
-0.0444131
-0.200805
-0.0614278
-0.198239
-0.0771063
-0.195501
-0.0907673
-0.101102
-0.0144995
0.0752509
-0.0297149
0.0931119
-0.0424741
0.0979759
-0.0525879
0.098678
-0.060864
0.0981872
-0.068092
0.0974842
-0.0748721
0.0969735
-0.0815495
0.0967219
-0.0883176
0.0966062
-0.0952995
0.0964793
-0.102562
0.0961726
-0.110084
0.095468
-0.117841
0.0942169
-0.125788
0.0922159
-0.133837
0.0892748
-0.141906
0.0852085
-0.149877
0.0798146
-0.15761
0.0728999
-0.164947
0.0642778
-0.171704
0.0537907
-0.17768
0.0413324
-0.182671
0.026907
-0.186507
0.0107232
-0.189079
-0.00676335
-0.190454
-0.0250286
-0.190722
-0.0436046
-0.190036
-0.0615573
-0.188694
-0.0778683
-0.187232
-0.0916132
-0.101543
-0.014483
0.0895229
-0.0286188
0.106794
-0.0392806
0.108258
-0.0468949
0.105986
-0.0528224
0.103879
-0.0580267
0.102525
-0.0631177
0.101942
-0.0683719
0.101909
-0.073924
0.102173
-0.0798368
0.102454
-0.0861434
0.102575
-0.092837
0.102298
-0.0998569
0.101416
-0.10716
0.0997422
-0.11468
0.0970625
-0.122333
0.0931733
-0.130023
0.0878578
-0.137627
0.0808969
-0.144999
0.0720782
-0.151971
0.0612195
-0.158352
0.0481955
-0.163939
0.0329937
-0.168515
0.0158137
-0.171901
-0.00285142
-0.174178
-0.0222153
-0.175487
-0.0417488
-0.175942
-0.0605395
-0.175777
-0.0774471
-0.175488
-0.0912795
-0.100769
-0.0138304
0.103178
-0.025836
0.118464
-0.0332621
0.115363
-0.0377341
0.110192
-0.0411107
0.107058
-0.0443193
0.105607
-0.0478453
0.105383
-0.0518508
0.105858
-0.0563504
0.106681
-0.0613485
0.10752
-0.0668196
0.108147
-0.0727402
0.108357
-0.0790645
0.107922
-0.0857374
0.10664
-0.0927096
0.104305
-0.0999175
0.100696
-0.107282
0.0955791
-0.114701
0.0887129
-0.122049
0.0798581
-0.129176
0.0688093
-0.135918
0.0554236
-0.142075
0.0396571
-0.147397
0.0216561
-0.151568
0.00185167
-0.154688
-0.0185534
-0.15705
-0.0388341
-0.158691
-0.0583303
-0.159737
-0.0758079
-0.160597
-0.0897898
-0.0988245
-0.0124117
0.115484
-0.020668
0.126441
-0.0235075
0.117925
-0.0245137
0.11097
-0.0255039
0.107885
-0.0270769
0.107077
-0.029359
0.10761
-0.0323659
0.108827
-0.0360026
0.110317
-0.0402059
0.111782
-0.0449388
0.112979
-0.050149
0.113707
-0.0557986
0.113753
-0.0618448
0.112913
-0.0682537
0.110986
-0.0749807
0.10774
-0.0819667
0.102925
-0.0891342
0.0962803
-0.0963778
0.0875374
-0.103567
0.0764643
-0.110556
0.062904
-0.117143
0.0467552
-0.123037
0.0280758
-0.127977
0.00732916
-0.132003
-0.013981
-0.135437
-0.0348417
-0.138342
-0.0548511
-0.140719
-0.0728314
-0.142797
-0.0870751
-0.0956898
-0.00982764
0.125101
-0.0111292
0.127457
-0.00906299
0.115609
-0.00704725
0.108748
-0.00631197
0.106995
-0.0067852
0.107447
-0.00822027
0.108987
-0.0104617
0.11104
-0.0133776
0.113236
-0.0168795
0.115336
-0.0209213
0.117116
-0.0254615
0.118384
-0.0304609
0.118934
-0.0358737
0.118553
-0.0416905
0.117075
-0.0478864
0.114254
-0.0544233
0.109824
-0.0612529
0.103512
-0.0682944
0.0950173
-0.0754258
0.084065
-0.0825302
0.0705033
-0.0894022
0.054142
-0.0957711
0.0349746
-0.101375
0.0134741
-0.106233
-0.0085709
-0.110673
-0.0298388
-0.114887
-0.0500567
-0.118769
-0.0683455
-0.12224
-0.0829601
-0.0912807
-0.00370659
0.128665
0.00377422
0.119695
0.0106302
0.108508
0.0141867
0.104977
0.0156391
0.105372
0.015743
0.107222
0.0148835
0.109772
0.0132665
0.112623
0.0110033
0.115505
0.00817035
0.118218
0.00480841
0.12057
0.000941571
0.122387
-0.0034205
0.123476
-0.0082321
0.123591
-0.0134463
0.122562
-0.019047
0.120173
-0.0250321
0.116171
-0.0313912
0.110275
-0.0380771
0.102143
-0.0449638
0.0914232
-0.0520349
0.0780718
-0.0591165
0.0617413
-0.0659731
0.0423643
-0.0721994
0.0202455
-0.0776535
-0.00256124
-0.0828903
-0.0240346
-0.0883354
-0.0440274
-0.0938552
-0.0622159
-0.098991
-0.0771751
-0.085448
0.0194618
0.109073
0.0291474
0.109745
0.0350259
0.102365
0.037827
0.101937
0.0391368
0.103871
0.0394736
0.106748
0.039047
0.110112
0.0379618
0.113667
0.0362876
0.117182
0.0340779
0.120474
0.0313679
0.12337
0.0281872
0.125702
0.024557
0.127287
0.0204817
0.127893
0.0159959
0.127321
0.0111213
0.125367
0.00586504
0.121791
0.000205848
0.116338
-0.00589163
0.108682
-0.0123862
0.0983904
-0.0190714
0.0852558
-0.0259543
0.0691436
-0.0330861
0.0500314
-0.040438
0.028145
-0.0467026
0.00426194
-0.0523816
-0.0177847
-0.058847
-0.0369739
-0.0659505
-0.054498
-0.0730096
-0.0694615
-0.0779556
0.207215
0.00385309
0.206629
0.00798
0.205904
0.0119146
0.205042
0.0157305
0.204041
0.0194883
0.202892
0.0232409
0.201599
0.0270363
0.200166
0.0309194
0.198597
0.0349342
0.196885
0.0391242
0.195004
0.0435318
0.192959
0.0482037
0.190751
0.0532011
0.188366
0.058591
0.185793
0.0644437
0.183002
0.0708513
0.179962
0.0779282
0.176649
0.0858145
0.17303
0.0946881
0.169066
0.104765
0.164728
0.116323
0.159999
0.129698
0.154933
0.145269
0.149662
0.163483
0.14462
0.184623
0.140698
0.208633
0.139849
0.2342
0.146863
0.257617
0.164889
0.265799
0.25342
0.249991
0.212238
0.00400293
0.211664
0.00828383
0.210962
0.0123647
0.210136
0.0163213
0.209186
0.0202168
0.208102
0.0241048
0.206885
0.0280325
0.205541
0.0320457
0.204081
0.0361902
0.202495
0.0405112
0.200764
0.0450503
0.198893
0.0498556
0.196884
0.0549882
0.194737
0.0605133
0.192456
0.0665072
0.190016
0.0730621
0.187395
0.0802857
0.184599
0.0883163
0.18164
0.0973234
0.178536
0.107505
0.175345
0.119096
0.17219
0.132372
0.16931
0.1476
0.167192
0.16499
0.166779
0.184386
0.16977
0.204999
0.17892
0.224499
0.197502
0.238673
0.220977
0.242146
0.238619
0.235671
0.217383
0.0041417
0.216824
0.00856319
0.21615
0.0127769
0.215366
0.0168604
0.214473
0.020879
0.213463
0.0248874
0.212331
0.0289309
0.211093
0.0330561
0.209757
0.0373113
0.20831
0.0417403
0.206746
0.0463837
0.205075
0.0512917
0.203297
0.0565232
0.20142
0.0621408
0.199462
0.068219
0.197418
0.0748479
0.195276
0.0821294
0.193075
0.0901836
0.190877
0.0991588
0.188758
0.10922
0.186857
0.120544
0.185414
0.133307
0.184826
0.14762
0.185786
0.163416
0.189363
0.180177
0.196987
0.196769
0.209719
0.211257
0.226894
0.221148
0.244146
0.224686
0.221887
0.260707
0.222655
0.00426796
0.222112
0.00881488
0.221473
0.0131465
0.220739
0.0173423
0.219907
0.0214684
0.218975
0.0255793
0.217943
0.0297203
0.216824
0.0339387
0.215624
0.0382829
0.214333
0.0427946
0.212954
0.0475144
0.211502
0.0524917
0.209983
0.0577809
0.208408
0.0634428
0.206803
0.069548
0.205184
0.0761742
0.203571
0.083412
0.202027
0.0913636
0.200645
0.100145
0.199551
0.109879
0.198952
0.120663
0.19917
0.132563
0.200668
0.145549
0.204129
0.159347
0.210365
0.173333
0.22006
0.186506
0.233255
0.197585
0.249104
0.204944
0.266197
0.207342
0.203755
0.284115
0.228055
0.00438021
0.227533
0.00903601
0.226934
0.0134692
0.226255
0.0177609
0.225489
0.0219766
0.224644
0.0261709
0.223727
0.0303912
0.222737
0.0346834
0.221682
0.0390921
0.220564
0.0436585
0.21939
0.0484243
0.218176
0.0534358
0.216936
0.0587407
0.215689
0.0643954
0.214464
0.0704665
0.2133
0.0770123
0.212247
0.084109
0.211379
0.0918436
0.210819
0.100285
0.210735
0.109505
0.211364
0.119538
0.213041
0.13035
0.216209
0.141808
0.221391
0.153573
0.229062
0.165084
0.239476
0.175559
0.252529
0.184079
0.267551
0.189564
0.283419
0.191196
0.188193
0.298754
0.233587
0.00447686
0.233091
0.00922369
0.232534
0.0137409
0.231914
0.0181102
0.231224
0.0223964
0.230477
0.0266544
0.229682
0.0309335
0.228835
0.0352777
0.227936
0.0397266
0.227004
0.0443197
0.226052
0.0490981
0.225095
0.0541064
0.224151
0.0593864
0.223249
0.064983
0.222429
0.0709545
0.221737
0.0773507
0.221246
0.0842216
0.221053
0.091629
0.221288
0.0996104
0.222137
0.108183
0.223836
0.117332
0.226683
0.126964
0.231037
0.136893
0.237242
0.146799
0.24557
0.156208
0.256082
0.164544
0.268581
0.171144
0.282434
0.175354
0.296629
0.176711
0.174402
0.310192
0.239254
0.00455639
0.238787
0.00937416
0.238279
0.0139568
0.237723
0.0183849
0.237118
0.0227223
0.236475
0.0270236
0.235807
0.0313382
0.235112
0.0357097
0.234388
0.0401744
0.233655
0.0447662
0.232936
0.0495239
0.23225
0.0544915
0.231619
0.0597052
0.231075
0.0651948
0.230667
0.0710088
0.230453
0.0771912
0.230516
0.0837623
0.230966
0.0907563
0.231932
0.0981922
0.23359
0.106044
0.236156
0.114256
0.23987
0.122717
0.244987
0.131231
0.251734
0.139509
0.260245
0.147179
0.270492
0.153821
0.282214
0.159002
0.294888
0.162325
0.307796
0.163509
0.161772
0.320198
0.245059
0.00461756
0.244624
0.00948464
0.24417
0.0141125
0.243685
0.0185797
0.243173
0.0229481
0.242644
0.0272714
0.242107
0.0315981
0.24157
0.0359711
0.241034
0.0404244
0.240517
0.0449875
0.240038
0.0496938
0.239632
0.0545831
0.239329
0.059688
0.239148
0.0650291
0.239147
0.0706378
0.239404
0.0765446
0.239998
0.0827585
0.241034
0.0892883
0.242642
0.0961269
0.244972
0.103231
0.248201
0.110524
0.252515
0.117883
0.258093
0.125129
0.265066
0.132021
0.273477
0.138277
0.283256
0.14359
0.294165
0.14769
0.305791
0.15035
0.317616
0.151391
0.150142
0.32902
0.251009
0.00465914
0.250607
0.00955355
0.250208
0.0142039
0.249801
0.0186883
0.249391
0.0230667
0.248984
0.0273911
0.248587
0.031707
0.248211
0.0360551
0.247872
0.0404687
0.247584
0.0449758
0.247354
0.0496023
0.247231
0.0543791
0.247255
0.059336
0.247438
0.0644889
0.24784
0.0698515
0.248546
0.0754399
0.249631
0.081257
0.251189
0.0872929
0.253337
0.0935212
0.256204
0.0998876
0.259927
0.106309
0.264642
0.112667
0.270464
0.118805
0.277461
0.124535
0.285628
0.129646
0.294866
0.133926
0.304972
0.1372
0.315644
0.139343
0.326488
0.14026
0.139395
0.337014
0.257105
0.00467987
0.256739
0.00957855
0.256397
0.014228
0.256072
0.018706
0.255771
0.0230724
0.255496
0.0273765
0.255248
0.0316592
0.25504
0.0359574
0.254903
0.0403039
0.254849
0.0447265
0.254879
0.0492449
0.255039
0.0538804
0.255378
0.0586566
0.255919
0.0635851
0.256713
0.06867
0.257835
0.0739152
0.25936
0.0793137
0.261373
0.0848445
0.263971
0.0904708
0.267259
0.0961339
0.27134
0.101752
0.276306
0.107221
0.282225
0.112411
0.289123
0.117177
0.296969
0.121364
0.30566
0.124833
0.315024
0.127473
0.324831
0.129216
0.334801
0.130013
0.129428
0.344555
0.26335
0.00467841
0.263023
0.00955697
0.262743
0.014182
0.262505
0.0186304
0.262316
0.0229613
0.262178
0.0272219
0.262087
0.0314485
0.26206
0.0356736
0.262125
0.0399287
0.262301
0.0442395
0.262595
0.0486218
0.263042
0.05309
0.263688
0.0576599
0.264569
0.0623383
0.26573
0.0671233
0.267236
0.0720094
0.269153
0.0769816
0.271556
0.0820129
0.274523
0.0870622
0.278136
0.0920709
0.282468
0.0969656
0.287576
0.101658
0.293495
0.106045
0.300227
0.110014
0.307724
0.11346
0.315891
0.11629
0.324589
0.118436
0.333642
0.119861
0.342847
0.120546
0.120158
0.351918
0.269748
0.0046533
0.269464
0.00948661
0.269252
0.0140636
0.269105
0.0184595
0.269029
0.0227313
0.269029
0.026924
0.269102
0.0310706
0.269263
0.0352006
0.269535
0.0393419
0.269939
0.0435168
0.270492
0.0477385
0.271222
0.0520168
0.272169
0.05636
0.273371
0.0607702
0.274871
0.0652415
0.276724
0.069762
0.278986
0.0743121
0.28172
0.0788618
0.284985
0.0833706
0.288845
0.0877811
0.293347
0.0920319
0.298524
0.096055
0.304387
0.0997648
0.310921
0.103081
0.318074
0.10593
0.325764
0.108253
0.333879
0.110007
0.342283
0.111178
0.350826
0.11176
0.111508
0.359292
0.276302
0.00460344
0.276065
0.00936578
0.275924
0.0138706
0.275873
0.0181905
0.275914
0.02238
0.276052
0.0264811
0.276292
0.0305249
0.276643
0.0345381
0.277125
0.0385445
0.277758
0.0425625
0.278563
0.0466031
0.279567
0.0506724
0.280802
0.0547736
0.282305
0.0589043
0.284117
0.0630555
0.286281
0.0672123
0.288846
0.0713526
0.29186
0.0754458
0.295368
0.0794554
0.29941
0.0833303
0.304023
0.087015
0.309221
0.0904595
0.314997
0.0936031
0.321327
0.0963832
0.328162
0.0987501
0.335431
0.100666
0.343043
0.102107
0.350893
0.103072
0.35887
0.103562
0.103402
0.36681
0.283017
0.00452803
0.282829
0.00919322
0.282761
0.0136011
0.282809
0.0178215
0.282971
0.0219058
0.283252
0.025893
0.283657
0.0298122
0.284198
0.0336877
0.284888
0.0375395
0.285748
0.0413825
0.286799
0.045225
0.288064
0.0490707
0.289573
0.0529191
0.291359
0.0567646
0.293455
0.060596
0.295896
0.0643977
0.298723
0.0681457
0.301974
0.0718123
0.305678
0.0753657
0.309863
0.0787627
0.314546
0.081956
0.319732
0.0849068
0.325407
0.0875744
0.331543
0.0899117
0.338094
0.0918855
0.344999
0.0934729
0.352184
0.0946631
0.359567
0.095459
0.367064
0.0958669
0.095767
0.374551
0.289896
0.00442645
0.289759
0.00896806
0.289768
0.0132543
0.289916
0.0173517
0.290201
0.0213083
0.290626
0.0251604
0.291198
0.0289346
0.291925
0.0326529
0.292821
0.0363323
0.293903
0.0399843
0.29519
0.0436154
0.296706
0.0472269
0.298473
0.0508157
0.300523
0.0543752
0.302877
0.0578923
0.305564
0.061351
0.308618
0.0647301
0.312066
0.0680025
0.31593
0.0711414
0.320224
0.0741129
0.324953
0.0768806
0.330111
0.0794129
0.335685
0.0816787
0.341645
0.0836485
0.347949
0.0853003
0.354544
0.0866207
0.361369
0.087606
0.368363
0.0882624
0.375457
0.0885981
0.0885364
0.382559
0.296943
0.00429821
0.29686
0.00868983
0.296947
0.0128298
0.297196
0.0167809
0.297605
0.0205883
0.298175
0.0242849
0.298911
0.027895
0.299822
0.0314385
0.300919
0.0349295
0.302216
0.0383773
0.30373
0.0417864
0.305483
0.0451568
0.307491
0.0484833
0.309782
0.0517581
0.312376
0.0549701
0.315283
0.0581024
0.318533
0.0611358
0.32215
0.0640469
0.326145
0.0668131
0.330521
0.0694093
0.335278
0.0718063
0.340407
0.07398
0.345888
0.0759082
0.351694
0.077572
0.357786
0.0789578
0.36412
0.080059
0.370647
0.0808758
0.377316
0.081416
0.384075
0.0816885
0.081649
0.390852
0.304161
0.00414303
0.304133
0.00835843
0.3043
0.0123277
0.304651
0.0161102
0.305184
0.0197474
0.305898
0.0232693
0.306797
0.0266977
0.307887
0.0300503
0.309178
0.0333395
0.310681
0.0365721
0.31241
0.0397509
0.314387
0.0428754
0.316621
0.0459402
0.319129
0.048936
0.321938
0.051853
0.325047
0.0546765
0.328473
0.057388
0.332237
0.0599698
0.336341
0.0624031
0.340785
0.0646674
0.345563
0.0667416
0.350662
0.0686078
0.356062
0.0702507
0.361736
0.0716583
0.367651
0.0728231
0.373769
0.0737426
0.380049
0.0744196
0.386451
0.0748623
0.392931
0.0750798
0.075051
0.399437
0.311556
0.00396084
0.311584
0.00797418
0.311831
0.011749
0.312284
0.0153408
0.312939
0.018788
0.313795
0.0221172
0.314853
0.0253477
0.316118
0.0284952
0.317597
0.0315706
0.319297
0.0345795
0.321228
0.0375227
0.323412
0.0403986
0.325859
0.0432036
0.328569
0.0459285
0.331568
0.0485626
0.33486
0.0510946
0.338446
0.0535094
0.342338
0.0557913
0.346538
0.0579256
0.35104
0.0598967
0.355836
0.0616896
0.36091
0.0632913
0.366242
0.0646916
0.371808
0.0658834
0.377577
0.066863
0.383519
0.0676308
0.389598
0.068191
0.39578
0.0685516
0.402032
0.0687213
0.0686955
0.408312
0.31913
0.00375167
0.319216
0.00753788
0.319542
0.0110951
0.320096
0.0144752
0.320873
0.0177129
0.321868
0.0208325
0.323081
0.0238508
0.324515
0.026781
0.326174
0.0296323
0.328064
0.03241
0.33019
0.0351142
0.332566
0.0377422
0.335206
0.0402906
0.338109
0.0427524
0.341281
0.0451176
0.344734
0.0473762
0.348463
0.0495162
0.352471
0.051525
0.356756
0.053391
0.361311
0.0551027
0.366125
0.0566494
0.371181
0.0580224
0.37646
0.0592152
0.38194
0.0602238
0.387593
0.0610473
0.393392
0.0616877
0.399309
0.0621497
0.405313
0.062441
0.411378
0.0625696
0.0625419
0.417472
0.326887
0.00351534
0.327034
0.0070505
0.327438
0.0103684
0.32809
0.0135163
0.328985
0.016526
0.330117
0.0194196
0.331481
0.0222124
0.333077
0.0249148
0.334908
0.0275339
0.336979
0.0300744
0.339292
0.0325371
0.341852
0.0349191
0.34467
0.0372166
0.347746
0.0394241
0.351081
0.0415333
0.354678
0.0435353
0.358535
0.045421
0.362649
0.0471807
0.367013
0.0488053
0.371619
0.0502865
0.376454
0.051617
0.381501
0.0527912
0.386742
0.0538052
0.392156
0.0546573
0.397719
0.0553483
0.403406
0.0558808
0.409194
0.0562601
0.415057
0.056493
0.420971
0.0565869
0.0565545
0.426912
0.334831
0.00325225
0.335038
0.00651285
0.335521
0.00957055
0.33627
0.012467
0.337281
0.0152316
0.338543
0.0178846
0.340053
0.020439
0.341806
0.0229036
0.343802
0.025284
0.346043
0.0275837
0.34853
0.0298038
0.351264
0.0319419
0.354249
0.0339944
0.357484
0.0359565
0.360969
0.0378218
0.3647
0.0395831
0.368675
0.0412332
0.372887
0.0427648
0.377326
0.0441713
0.381983
0.0454467
0.386844
0.0465863
0.391892
0.0475865
0.39711
0.0484454
0.402477
0.0491629
0.407973
0.0497406
0.413575
0.0501816
0.419264
0.0504909
0.425015
0.0506748
0.43081
0.0507398
0.050702
0.436629