/*--------------------------------*- C++ -*----------------------------------*\
| =========                 |                                                 |
| \\      /  F ield         | OpenFOAM: The Open Source CFD Toolbox           |
|  \\    /   O peration     | Version:  4.1                                   |
|   \\  /    A nd           | Web:      www.OpenFOAM.org                      |
|    \\/     M anipulation  |                                                 |
\*---------------------------------------------------------------------------*/
FoamFile
{
    version     2.0;
    format      ascii;
    class       volVectorField;
    location    "0.6";
    object      cellDisplacement;
}
// * * * * * * * * * * * * * * * * * * * * * * * * * * * * * * * * * * * * * //

dimensions      [0 1 0 0 0 0 0];

internalField   nonuniform List<vector> 
2790
(
(0.00664043 8.50824e-06 0)
(0.0190134 2.47155e-05 0)
(0.0296891 3.96588e-05 0)
(0.0387973 5.38969e-05 0)
(0.0464746 6.78886e-05 0)
(0.0528453 8.20043e-05 0)
(0.0580208 9.65838e-05 0)
(0.0620991 0.000111922 0)
(0.0651671 0.000128255 0)
(0.0673017 0.000145867 0)
(0.0685706 0.000165047 0)
(0.0690328 0.000186072 0)
(0.0687407 0.000209089 0)
(0.0677421 0.00023439 0)
(0.0660809 0.00026225 0)
(0.0637987 0.000292929 0)
(0.0609363 0.000326676 0)
(0.0575357 0.000363728 0)
(0.0536414 0.000404306 0)
(0.0493028 0.000448613 0)
(0.0445765 0.000496838 0)
(0.0395286 0.000549162 0)
(0.034238 0.000605798 0)
(0.0288004 0.000667052 0)
(0.0233333 0.000733471 0)
(0.0179847 0.000806027 0)
(0.0129442 0.000886224 0)
(0.00846167 0.000975653 0)
(0.00488702 0.00107388 0)
(0.00284768 0.00117068 0)
(0.0066493 2.5486e-05 0)
(0.0190397 7.40341e-05 0)
(0.0297328 0.000118794 0)
(0.0388591 0.000161439 0)
(0.0465557 0.000203342 0)
(0.0529476 0.000245603 0)
(0.0581472 0.000289246 0)
(0.0622528 0.000335165 0)
(0.0653515 0.000384027 0)
(0.0675215 0.000436698 0)
(0.0688309 0.000494052 0)
(0.0693398 0.000556964 0)
(0.0691006 0.000625763 0)
(0.0681622 0.00070138 0)
(0.0665695 0.000784638 0)
(0.0643648 0.000876309 0)
(0.0615899 0.000977137 0)
(0.0582874 0.00108783 0)
(0.0545028 0.00120904 0)
(0.0502863 0.00134137 0)
(0.0456954 0.00148534 0)
(0.040797 0.00164145 0)
(0.0356711 0.00181017 0)
(0.0304144 0.00199214 0)
(0.0251459 0.00218841 0)
(0.0200171 0.00240093 0)
(0.0152268 0.00263278 0)
(0.0110446 0.00288666 0)
(0.00783989 0.00315738 0)
(0.0062155 0.00341006 0)
(0.00666796 4.2349e-05 0)
(0.0190946 0.000123019 0)
(0.0298231 0.000197384 0)
(0.0389861 0.000268224 0)
(0.0467216 0.000337823 0)
(0.053156 0.000407965 0)
(0.0584037 0.000480375 0)
(0.0625635 0.000556584 0)
(0.0657232 0.000637555 0)
(0.0679631 0.000724777 0)
(0.0693529 0.000819697 0)
(0.0699542 0.000924021 0)
(0.0698197 0.00103779 0)
(0.0690008 0.00116282 0)
(0.0675439 0.00130045 0)
(0.0654931 0.00145194 0)
(0.0628919 0.00161852 0)
(0.0597845 0.00180134 0)
(0.0562184 0.00200148 0)
(0.0522452 0.00221988 0)
(0.0479241 0.00245732 0)
(0.0433239 0.00271443 0)
(0.0385266 0.00299164 0)
(0.0336306 0.00328908 0)
(0.0287556 0.00360681 0)
(0.0240534 0.00394514 0)
(0.019729 0.00430536 0)
(0.0160818 0.00468893 0)
(0.0134916 0.0050811 0)
(0.0125029 0.00542871 0)
(0.00669613 5.90203e-05 0)
(0.0191771 0.000171442 0)
(0.0299582 0.000275052 0)
(0.0391761 0.000373726 0)
(0.0469695 0.000470662 0)
(0.0534667 0.000568223 0)
(0.0587863 0.000668876 0)
(0.0630267 0.00077492 0)
(0.0662766 0.000887262 0)
(0.0686204 0.00100816 0)
(0.0701291 0.00113949 0)
(0.0708637 0.00128274 0)
(0.070883 0.00143959 0)
(0.07024 0.00161205 0)
(0.0689831 0.00180178 0)
(0.0671587 0.00201047 0)
(0.064813 0.00223977 0)
(0.0619928 0.00249124 0)
(0.058748 0.00276633 0)
(0.0551328 0.00306624 0)
(0.0512086 0.00339191 0)
(0.0470469 0.00374396 0)
(0.0427343 0.00412257 0)
(0.0383725 0.00452687 0)
(0.034084 0.00495494 0)
(0.0300173 0.00540361 0)
(0.0263607 0.00586845 0)
(0.023413 0.00634131 0)
(0.021601 0.00680206 0)
(0.0213877 0.00718747 0)
(0.00673397 7.54203e-05 0)
(0.019287 0.00021907 0)
(0.0301372 0.000351404 0)
(0.039428 0.000477383 0)
(0.0472977 0.000601166 0)
(0.0538766 0.000725469 0)
(0.0592914 0.000853554 0)
(0.0636355 0.000987782 0)
(0.0670019 0.00113015 0)
(0.0694812 0.00128324 0)
(0.0711444 0.00144911 0)
(0.0720543 0.00162924 0)
(0.0722755 0.00182698 0)
(0.0718623 0.00204413 0)
(0.0708663 0.00228273 0)
(0.0693373 0.00254484 0)
(0.0673246 0.00283249 0)
(0.0648788 0.00314758 0)
(0.0620528 0.00349182 0)
(0.0589039 0.00386656 0)
(0.0554957 0.00427273 0)
(0.0519015 0.00471078 0)
(0.0482143 0.00518074 0)
(0.0445402 0.00568044 0)
(0.0410036 0.00620552 0)
(0.0377521 0.00674849 0)
(0.034959 0.00729702 0)
(0.0328574 0.00783012 0)
(0.0319131 0.00832263 0)
(0.0325221 0.00870737 0)
(0.00678182 9.1469e-05 0)
(0.0194241 0.000265668 0)
(0.0303583 0.000426033 0)
(0.03974 0.000578598 0)
(0.0477017 0.000727987 0)
(0.0543783 0.000877935 0)
(0.0599045 0.00103215 0)
(0.0643762 0.00119332 0)
(0.0678891 0.00136426 0)
(0.0705344 0.00154777 0)
(0.0723872 0.00174627 0)
(0.0735152 0.00196208 0)
(0.0739836 0.00219815 0)
(0.0738513 0.00245688 0)
(0.0731742 0.00274068 0)
(0.0720063 0.00305193 0)
(0.070401 0.00339293 0)
(0.0684129 0.00376586 0)
(0.0660996 0.00417259 0)
(0.0635217 0.00461448 0)
(0.0607445 0.00509216 0)
(0.0578372 0.00560542 0)
(0.0549059 0.00615488 0)
(0.0520582 0.00673643 0)
(0.049417 0.00734281 0)
(0.0471228 0.00796217 0)
(0.0453356 0.00857614 0)
(0.0442309 0.00915808 0)
(0.0441857 0.00966882 0)
(0.0456013 0.0100448 0)
(0.00684037 0.000107087 0)
(0.0195877 0.00031078 0)
(0.0306176 0.00049815 0)
(0.0400977 0.000676142 0)
(0.0481678 0.000850105 0)
(0.0549651 0.0010246 0)
(0.0606246 0.00120367 0)
(0.0652448 0.0013903 0)
(0.0689262 0.00158793 0)
(0.0717648 0.00179976 0)
(0.073838 0.0020285 0)
(0.0752178 0.00227687 0)
(0.0759724 0.00254782 0)
(0.0761652 0.0028441 0)
(0.075857 0.00316839 0)
(0.0751067 0.00352329 0)
(0.0739726 0.00391132 0)
(0.0725145 0.00433483 0)
(0.0707965 0.0047959 0)
(0.0688846 0.0052958 0)
(0.0668505 0.00583486 0)
(0.0647637 0.00641341 0)
(0.0627036 0.00702899 0)
(0.0608061 0.00767759 0)
(0.0591881 0.0083494 0)
(0.057977 0.00902919 0)
(0.0573075 0.00969514 0)
(0.0573157 0.0103192 0)
(0.0582232 0.0108557 0)
(0.0604481 0.0112441 0)
(0.00689718 0.000121948 0)
(0.0197643 0.000353949 0)
(0.0309115 0.000567333 0)
(0.0405068 0.000769638 0)
(0.0486997 0.000966984 0)
(0.0556299 0.00116462 0)
(0.0614359 0.00136685 0)
(0.0662237 0.00157702 0)
(0.0700988 0.00179943 0)
(0.0731554 0.00203718 0)
(0.0754761 0.00229329 0)
(0.0771375 0.00257073 0)
(0.0782118 0.00287256 0)
(0.0787674 0.00320169 0)
(0.0788703 0.00356099 0)
(0.0785854 0.00395316 0)
(0.077976 0.00438079 0)
(0.077107 0.00484635 0)
(0.076052 0.00535222 0)
(0.0748826 0.00589957 0)
(0.0736782 0.00648888 0)
(0.0725229 0.00711931 0)
(0.0714739 0.00778717 0)
(0.0706303 0.00848646 0)
(0.0701442 0.00920664 0)
(0.0701246 0.00992981 0)
(0.0706684 0.0106317 0)
(0.0718623 0.0112839 0)
(0.0738193 0.011845 0)
(0.076904 0.0122488 0)
(0.00696312 0.00013617 0)
(0.0199656 0.000395349 0)
(0.0312381 0.000633277 0)
(0.0409521 0.000858381 0)
(0.0492816 0.00107767 0)
(0.056365 0.00129717 0)
(0.0623346 0.00152097 0)
(0.0673101 0.00175336 0)
(0.0713977 0.00199842 0)
(0.0746941 0.00225957 0)
(0.0772866 0.00254005 0)
(0.0792562 0.00284298 0)
(0.0806797 0.00317145 0)
(0.0816309 0.00352848 0)
(0.0821815 0.00391695 0)
(0.0824027 0.00433956 0)
(0.0823636 0.00479873 0)
(0.0821299 0.00529675 0)
(0.081792 0.00583668 0)
(0.0814222 0.00641903 0)
(0.0811104 0.00704425 0)
(0.0809431 0.00771055 0)
(0.081002 0.0084136 0)
(0.0813414 0.00914587 0)
(0.0820699 0.00989552 0)
(0.0833329 0.0106424 0)
(0.0851702 0.0113589 0)
(0.0876118 0.0120136 0)
(0.0906853 0.012566 0)
(0.0946364 0.012938 0)
(0.00703619 0.000149659 0)
(0.020177 0.000434361 0)
(0.0315838 0.000695405 0)
(0.0414365 0.000942114 0)
(0.0499183 0.00118227 0)
(0.0571633 0.00142165 0)
(0.0633084 0.00166515 0)
(0.0684849 0.00191751 0)
(0.0727996 0.00218273 0)
(0.0763522 0.00246441 0)
(0.0792342 0.00276588 0)
(0.0815314 0.00309031 0)
(0.0833251 0.00344076 0)
(0.0846944 0.0038202 0)
(0.0857175 0.00423148 0)
(0.0864733 0.00467717 0)
(0.0870388 0.00515926 0)
(0.0874917 0.00568075 0)
(0.0879106 0.0062432 0)
(0.0883747 0.00684669 0)
(0.0889956 0.00749231 0)
(0.0898649 0.00817713 0)
(0.0910618 0.00889596 0)
(0.0926602 0.00964058 0)
(0.0946986 0.0103984 0)
(0.0973201 0.0111476 0)
(0.10051 0.0118543 0)
(0.104231 0.0124804 0)
(0.108417 0.0129763 0)
(0.113073 0.013253 0)
(0.0071161 0.000162356 0)
(0.020409 0.000471086 0)
(0.0319569 0.000753705 0)
(0.0419536 0.00102042 0)
(0.0505906 0.00127957 0)
(0.058007 0.00153707 0)
(0.0643438 0.00179846 0)
(0.0697327 0.00206849 0)
(0.0742859 0.00235124 0)
(0.0781068 0.00265039 0)
(0.0812912 0.00296927 0)
(0.0839292 0.00331099 0)
(0.0861068 0.0036785 0)
(0.0879079 0.0040746 0)
(0.0894166 0.00450201 0)
(0.0907222 0.00496322 0)
(0.0919077 0.00545997 0)
(0.0930638 0.00599433 0)
(0.0942602 0.00656608 0)
(0.0955952 0.00717689 0)
(0.0971607 0.00782658 0)
(0.099085 0.00851137 0)
(0.101441 0.00922513 0)
(0.104299 0.00995913 0)
(0.107712 0.0107028 0)
(0.111738 0.0114313 0)
(0.116312 0.0121067 0)
(0.121309 0.0126841 0)
(0.126527 0.0131011 0)
(0.131636 0.0132678 0)
(0.00720356 0.000174289 0)
(0.0206483 0.000505141 0)
(0.032341 0.000807601 0)
(0.0424962 0.00109288 0)
(0.0512996 0.00136943 0)
(0.0588983 0.00164372 0)
(0.0654335 0.00192098 0)
(0.071044 0.00220642 0)
(0.0758449 0.00250408 0)
(0.0799436 0.00281764 0)
(0.08344 0.00315038 0)
(0.086428 0.00350523 0)
(0.0889979 0.00388488 0)
(0.0912377 0.00429181 0)
(0.0932344 0.00472849 0)
(0.0950932 0.00519741 0)
(0.0968962 0.00569922 0)
(0.0987355 0.00623488 0)
(0.100701 0.0068043 0)
(0.102899 0.00740731 0)
(0.10541 0.00804352 0)
(0.108374 0.00870904 0)
(0.111865 0.00939564 0)
(0.11596 0.0100952 0)
(0.120719 0.0107991 0)
(0.126135 0.0114837 0)
(0.132085 0.0121135 0)
(0.138341 0.012645 0)
(0.144508 0.0130128 0)
(0.14992 0.0131262 0)
(0.00728737 0.000185163 0)
(0.0208924 0.000536395 0)
(0.0327432 0.000857374 0)
(0.0430615 0.00115958 0)
(0.0520403 0.00145193 0)
(0.0598238 0.0017408 0)
(0.0665594 0.00203169 0)
(0.0723966 0.00233014 0)
(0.0774493 0.00263996 0)
(0.0818295 0.00296481 0)
(0.0856404 0.00330778 0)
(0.0889799 0.00367157 0)
(0.0919419 0.00405848 0)
(0.0946179 0.00447043 0)
(0.0971068 0.00491022 0)
(0.0995117 0.00537939 0)
(0.101916 0.0058771 0)
(0.104419 0.00640359 0)
(0.107118 0.00695799 0)
(0.110119 0.00753864 0)
(0.113536 0.00814474 0)
(0.117475 0.00877056 0)
(0.122018 0.00940692 0)
(0.127249 0.0100462 0)
(0.133238 0.0106816 0)
(0.139938 0.0112956 0)
(0.147187 0.0118649 0)
(0.154685 0.012365 0)
(0.161849 0.0127479 0)
(0.167684 0.012894 0)
(0.00736718 0.000194955 0)
(0.0211403 0.000564982 0)
(0.0331589 0.000902843 0)
(0.0436427 0.00122026 0)
(0.0527953 0.00152643 0)
(0.0607634 0.0018276 0)
(0.0677067 0.00213012 0)
(0.0737737 0.00243925 0)
(0.0790782 0.00275846 0)
(0.083739 0.00309146 0)
(0.0878622 0.00344111 0)
(0.0915485 0.00380977 0)
(0.0948953 0.0041993 0)
(0.0979975 0.00461125 0)
(0.100974 0.00504831 0)
(0.103902 0.00551002 0)
(0.106876 0.005995 0)
(0.109999 0.00650241 0)
(0.113373 0.00703025 0)
(0.117108 0.00757545 0)
(0.121329 0.00813524 0)
(0.12612 0.00870219 0)
(0.131562 0.00926577 0)
(0.137741 0.00981754 0)
(0.14473 0.0103514 0)
(0.152472 0.0108567 0)
(0.160805 0.0113279 0)
(0.169441 0.0117775 0)
(0.177742 0.0122161 0)
(0.184376 0.0124861 0)
(0.00745459 0.00020399 0)
(0.0213893 0.000590791 0)
(0.0335742 0.000943724 0)
(0.0442335 0.00127475 0)
(0.0535565 0.00159279 0)
(0.0617132 0.00190461 0)
(0.0688724 0.00221696 0)
(0.075166 0.00253419 0)
(0.080719 0.00286005 0)
(0.0856572 0.00319824 0)
(0.0900868 0.0035512 0)
(0.0941111 0.00392089 0)
(0.0978297 0.0043086 0)
(0.10135 0.00471607 0)
(0.104779 0.00514426 0)
(0.108189 0.00559135 0)
(0.111684 0.00605587 0)
(0.115365 0.00653548 0)
(0.119334 0.00702678 0)
(0.123695 0.00752545 0)
(0.128588 0.00802541 0)
(0.134057 0.00851753 0)
(0.140182 0.00898919 0)
(0.147035 0.00942877 0)
(0.154679 0.00982631 0)
(0.163042 0.0101702 0)
(0.171979 0.0104575 0)
(0.181265 0.0107238 0)
(0.190448 0.0110918 0)
(0.198391 0.0115811 0)
(0.00349762 -0.00121652 0)
(0.00684677 -0.00122433 0)
(0.0130722 -0.00119263 0)
(0.0215708 -0.00114202 0)
(0.0315609 -0.00108022 0)
(0.0422545 -0.00100885 0)
(0.0529973 -0.00093169 0)
(0.0632841 -0.000854576 0)
(0.0727585 -0.000776892 0)
(0.0812166 -0.000702487 0)
(0.0885438 -0.0006324 0)
(0.0946925 -0.000567899 0)
(0.0996542 -0.000508436 0)
(0.10345 -0.000454185 0)
(0.106107 -0.000405119 0)
(0.107653 -0.000361152 0)
(0.108107 -0.000321081 0)
(0.107485 -0.000284336 0)
(0.105799 -0.00025178 0)
(0.103039 -0.000222407 0)
(0.0991906 -0.000195804 0)
(0.0942252 -0.000171422 0)
(0.0881044 -0.000148841 0)
(0.0807849 -0.000127851 0)
(0.0722165 -0.000107993 0)
(0.062342 -8.88903e-05 0)
(0.0510893 -7.02952e-05 0)
(0.0383865 -5.13018e-05 0)
(0.0241689 -3.16629e-05 0)
(0.00834079 -1.08182e-05 0)
(0.00680197 -0.0035757 0)
(0.0102122 -0.00359662 0)
(0.0164068 -0.00351268 0)
(0.024812 -0.0033724 0)
(0.0346335 -0.00319727 0)
(0.0450776 -0.0029891 0)
(0.0555377 -0.00276147 0)
(0.06552 -0.00252785 0)
(0.0746964 -0.00229843 0)
(0.082877 -0.00207774 0)
(0.0899522 -0.00187054 0)
(0.0958795 -0.00168081 0)
(0.100645 -0.00150544 0)
(0.104274 -0.00134543 0)
(0.10679 -0.00120064 0)
(0.10822 -0.00107127 0)
(0.108575 -0.000953057 0)
(0.10787 -0.000844438 0)
(0.106116 -0.000748559 0)
(0.1033 -0.00066173 0)
(0.0994061 -0.000583015 0)
(0.0944032 -0.00051072 0)
(0.08825 -0.000443608 0)
(0.0809028 -0.000381243 0)
(0.0723112 -0.000322144 0)
(0.0624114 -0.000265185 0)
(0.0511415 -0.000209216 0)
(0.0384294 -0.000152672 0)
(0.0241969 -9.42403e-05 0)
(0.00835095 -3.22043e-05 0)
(0.0130009 -0.00573021 0)
(0.0166367 -0.00577389 0)
(0.022847 -0.00566307 0)
(0.0311161 -0.00545935 0)
(0.0405773 -0.00517985 0)
(0.0505204 -0.00484695 0)
(0.0604194 -0.00448224 0)
(0.0698284 -0.00410516 0)
(0.0784535 -0.0037373 0)
(0.0861007 -0.00338178 0)
(0.0926952 -0.0030471 0)
(0.0981888 -0.00273806 0)
(0.102576 -0.00245469 0)
(0.105882 -0.00219604 0)
(0.108127 -0.00196137 0)
(0.109327 -0.00175068 0)
(0.109491 -0.00155936 0)
(0.108627 -0.00138447 0)
(0.10674 -0.00122806 0)
(0.103816 -0.0010867 0)
(0.0998328 -0.000958581 0)
(0.0947578 -0.00084048 0)
(0.0885405 -0.00073033 0)
(0.0811389 -0.00062821 0)
(0.072503 -0.000531133 0)
(0.0625676 -0.00043746 0)
(0.0512643 -0.000344889 0)
(0.0385179 -0.000251679 0)
(0.0242532 -0.000155395 0)
(0.00837102 -5.31144e-05 0)
(0.0218025 -0.0076387 0)
(0.0257647 -0.00770781 0)
(0.0320541 -0.00758954 0)
(0.0400787 -0.00733414 0)
(0.0489969 -0.00696464 0)
(0.0582584 -0.00652231 0)
(0.0673906 -0.00603928 0)
(0.0760117 -0.00554314 0)
(0.0838262 -0.00505163 0)
(0.0907089 -0.00457855 0)
(0.0966141 -0.00413275 0)
(0.101497 -0.00371902 0)
(0.105354 -0.00333924 0)
(0.108202 -0.00299217 0)
(0.110057 -0.00267618 0)
(0.110923 -0.00238947 0)
(0.110815 -0.0021315 0)
(0.109726 -0.00189713 0)
(0.10765 -0.0016854 0)
(0.104566 -0.00149304 0)
(0.100451 -0.00131763 0)
(0.0952741 -0.00115659 0)
(0.0889639 -0.00100632 0)
(0.0814803 -0.000865773 0)
(0.0727811 -0.000732441 0)
(0.0627924 -0.000603762 0)
(0.0514414 -0.000476285 0)
(0.0386464 -0.000347685 0)
(0.024335 -0.000214755 0)
(0.00840037 -7.34232e-05 0)
(0.0328759 -0.00930987 0)
(0.0372233 -0.00939927 0)
(0.0435934 -0.00927358 0)
(0.0512578 -0.00896549 0)
(0.0595364 -0.0085222 0)
(0.0679567 -0.00798832 0)
(0.0761457 -0.00740705 0)
(0.0837332 -0.00680755 0)
(0.0905224 -0.00621203 0)
(0.0964657 -0.00563933 0)
(0.101528 -0.00510104 0)
(0.105649 -0.00459988 0)
(0.108841 -0.00413881 0)
(0.11112 -0.00371625 0)
(0.112489 -0.00333057 0)
(0.112945 -0.00297897 0)
(0.112499 -0.00266267 0)
(0.111124 -0.00237475 0)
(0.108808 -0.00211301 0)
(0.105527 -0.00187477 0)
(0.101245 -0.00165614 0)
(0.0959288 -0.00145549 0)
(0.0895089 -0.00126907 0)
(0.0819275 -0.00109275 0)
(0.0731377 -0.000925017 0)
(0.0630792 -0.000762654 0)
(0.0516684 -0.000601866 0)
(0.0388099 -0.000439552 0)
(0.0244399 -0.000271644 0)
(0.00843877 -9.29008e-05 0)
(0.045924 -0.0108017 0)
(0.0506807 -0.0108807 0)
(0.0570687 -0.0107183 0)
(0.0642896 -0.0103517 0)
(0.0717962 -0.00983723 0)
(0.0792148 -0.0092233 0)
(0.0862613 -0.0085602 0)
(0.092634 -0.00787737 0)
(0.0982693 -0.00720194 0)
(0.103135 -0.00655096 0)
(0.107213 -0.00593905 0)
(0.110454 -0.00536798 0)
(0.112888 -0.00484119 0)
(0.114516 -0.00435745 0)
(0.11533 -0.00391473 0)
(0.115318 -0.00351026 0)
(0.114473 -0.00314387 0)
(0.112769 -0.00281032 0)
(0.110173 -0.00250493 0)
(0.106659 -0.00222623 0)
(0.102183 -0.00197018 0)
(0.0966982 -0.00173388 0)
(0.0901436 -0.00151405 0)
(0.082455 -0.00130583 0)
(0.0735729 -0.00110659 0)
(0.0634358 -0.000913002 0)
(0.051943 -0.000721147 0)
(0.039003 -0.000526934 0)
(0.0245668 -0.000325889 0)
(0.00848771 -0.00011158 0)
(0.0607892 -0.0121401 0)
(0.0658853 -0.0121588 0)
(0.0721469 -0.0119205 0)
(0.0787776 -0.0114815 0)
(0.0853506 -0.0108975 0)
(0.0915961 -0.0102155 0)
(0.0973265 -0.00948578 0)
(0.102381 -0.00874345 0)
(0.10675 -0.00801069 0)
(0.110436 -0.00730402 0)
(0.113436 -0.00663754 0)
(0.115738 -0.00601703 0)
(0.117355 -0.00544219 0)
(0.118277 -0.00491245 0)
(0.118488 -0.0044258 0)
(0.117962 -0.00397929 0)
(0.116673 -0.00357095 0)
(0.114605 -0.00319968 0)
(0.111705 -0.00285891 0)
(0.107933 -0.00254599 0)
(0.103239 -0.00225742 0)
(0.0975695 -0.00198983 0)
(0.0908609 -0.00173962 0)
(0.0830476 -0.00150256 0)
(0.0740564 -0.00127474 0)
(0.0638212 -0.00105305 0)
(0.0522399 -0.000833011 0)
(0.0392168 -0.000609179 0)
(0.0246921 -0.000376844 0)
(0.00852645 -0.000129018 0)
(0.0772734 -0.0132431 0)
(0.0825481 -0.0131752 0)
(0.0884474 -0.0128461 0)
(0.0942846 -0.0123351 0)
(0.0997436 -0.0116912 0)
(0.104661 -0.0109577 0)
(0.108956 -0.0101823 0)
(0.112604 -0.00940173 0)
(0.115642 -0.00863433 0)
(0.118097 -0.00789485 0)
(0.119982 -0.00719575 0)
(0.121315 -0.00654419 0)
(0.122086 -0.00593848 0)
(0.122277 -0.00537793 0)
(0.121859 -0.00486062 0)
(0.120797 -0.0043839 0)
(0.119048 -0.00394463 0)
(0.116587 -0.00354254 0)
(0.113361 -0.0031731 0)
(0.109313 -0.0028321 0)
(0.104386 -0.00251619 0)
(0.0985183 -0.00222189 0)
(0.0916433 -0.00194546 0)
(0.0836946 -0.00168297 0)
(0.074583 -0.00143004 0)
(0.0642279 -0.00118254 0)
(0.0525496 -0.000936355 0)
(0.0394468 -0.000685439 0)
(0.0248345 -0.000424264 0)
(0.00857477 -0.000145257 0)
(0.0949983 -0.0140015 0)
(0.100226 -0.0138559 0)
(0.105498 -0.0134593 0)
(0.110327 -0.0128975 0)
(0.114498 -0.0122136 0)
(0.11796 -0.0114496 0)
(0.120744 -0.0106513 0)
(0.122946 -0.00985461 0)
(0.124634 -0.00907529 0)
(0.125857 -0.00832542 0)
(0.12663 -0.0076145 0)
(0.127003 -0.00695037 0)
(0.126932 -0.00633042 0)
(0.126391 -0.00575368 0)
(0.125342 -0.00521852 0)
(0.12374 -0.00472271 0)
(0.121533 -0.00426374 0)
(0.118672 -0.00383951 0)
(0.115107 -0.00344783 0)
(0.110772 -0.00308469 0)
(0.105601 -0.00274662 0)
(0.0995254 -0.0024301 0)
(0.0924734 -0.00213139 0)
(0.0843696 -0.00184655 0)
(0.0751284 -0.00157148 0)
(0.0646612 -0.00130113 0)
(0.0528812 -0.00103105 0)
(0.0396904 -0.00075542 0)
(0.0249911 -0.000467953 0)
(0.00863125 -0.000160287 0)
(0.113433 -0.0143789 0)
(0.11837 -0.01419 0)
(0.122799 -0.0137654 0)
(0.126421 -0.0131775 0)
(0.129148 -0.0124731 0)
(0.131062 -0.0116991 0)
(0.132309 -0.0109005 0)
(0.133071 -0.0101102 0)
(0.133442 -0.00934132 0)
(0.133478 -0.00860288 0)
(0.133194 -0.00789998 0)
(0.132632 -0.00723962 0)
(0.13175 -0.00662117 0)
(0.130502 -0.00604193 0)
(0.12884 -0.00550084 0)
(0.126709 -0.00499631 0)
(0.124049 -0.00452642 0)
(0.120799 -0.00408921 0)
(0.116897 -0.00368251 0)
(0.112273 -0.00330321 0)
(0.106854 -0.00294811 0)
(0.100567 -0.00261384 0)
(0.0933327 -0.00229678 0)
(0.0850709 -0.00199301 0)
(0.0756934 -0.00169831 0)
(0.0651088 -0.00140784 0)
(0.0532246 -0.00111665 0)
(0.0399423 -0.000818862 0)
(0.0251604 -0.0005078 0)
(0.00869704 -0.000174142 0)
(0.132064 -0.0144493 0)
(0.136512 -0.0142507 0)
(0.139903 -0.0138125 0)
(0.142105 -0.0132024 0)
(0.143242 -0.0124866 0)
(0.143552 -0.0117191 0)
(0.143283 -0.0109419 0)
(0.142666 -0.0101806 0)
(0.1418 -0.00944398 0)
(0.140736 -0.00873657 0)
(0.139485 -0.00806064 0)
(0.138045 -0.00741997 0)
(0.13641 -0.0068163 0)
(0.134501 -0.0062468 0)
(0.132262 -0.00571058 0)
(0.12963 -0.00520677 0)
(0.126535 -0.00473414 0)
(0.122909 -0.00429121 0)
(0.11868 -0.00387613 0)
(0.113773 -0.00348645 0)
(0.108111 -0.00311939 0)
(0.101613 -0.00277185 0)
(0.0941974 -0.0024404 0)
(0.0857781 -0.00212124 0)
(0.0762638 -0.00181016 0)
(0.0655601 -0.00150243 0)
(0.0535707 -0.00119288 0)
(0.0401948 -0.000875545 0)
(0.0253176 -0.000543254 0)
(0.00875062 -0.000186377 0)
(0.150552 -0.0143635 0)
(0.154317 -0.0141372 0)
(0.156351 -0.013644 0)
(0.156869 -0.0129898 0)
(0.156293 -0.0122655 0)
(0.155009 -0.0115229 0)
(0.153304 -0.0107909 0)
(0.151435 -0.010082 0)
(0.149464 -0.00939869 0)
(0.147428 -0.00874043 0)
(0.145324 -0.00810746 0)
(0.143118 -0.0075008 0)
(0.140795 -0.00692314 0)
(0.13829 -0.00637405 0)
(0.135527 -0.00585207 0)
(0.132433 -0.0053573 0)
(0.128935 -0.00488933 0)
(0.124955 -0.00444728 0)
(0.120417 -0.00402984 0)
(0.11524 -0.00363516 0)
(0.109343 -0.00326091 0)
(0.102641 -0.00290435 0)
(0.0950485 -0.00256232 0)
(0.0864749 -0.00223121 0)
(0.0768262 -0.00190692 0)
(0.0660046 -0.00158479 0)
(0.0539103 -0.0012596 0)
(0.0404428 -0.000925393 0)
(0.0254606 -0.000574363 0)
(0.00878972 -0.000196892 0)
(0.168742 -0.0142059 0)
(0.171345 -0.0138647 0)
(0.171485 -0.0132377 0)
(0.170052 -0.0125221 0)
(0.167749 -0.0118095 0)
(0.165007 -0.0111235 0)
(0.162067 -0.0104662 0)
(0.15912 -0.0098349 0)
(0.156229 -0.0092249 0)
(0.153388 -0.00863126 0)
(0.150572 -0.00805369 0)
(0.147737 -0.00749332 0)
(0.144833 -0.00695213 0)
(0.141809 -0.00643134 0)
(0.138583 -0.00593132 0)
(0.135077 -0.00545273 0)
(0.131212 -0.00499587 0)
(0.126908 -0.00456058 0)
(0.122082 -0.00414615 0)
(0.116652 -0.0037513 0)
(0.110533 -0.00337422 0)
(0.103636 -0.00301256 0)
(0.0958727 -0.00266349 0)
(0.0871499 -0.00232365 0)
(0.0773706 -0.00198911 0)
(0.0664338 -0.00165531 0)
(0.0542348 -0.00131703 0)
(0.0406627 -0.000968135 0)
(0.0255843 -0.000601058 0)
(0.00883046 -0.000206065 0)
(0.186027 -0.0138996 0)
(0.186513 -0.0132856 0)
(0.18422 -0.0124802 0)
(0.180809 -0.0117542 0)
(0.177018 -0.0111191 0)
(0.173138 -0.0105415 0)
(0.169302 -0.00999537 0)
(0.165573 -0.00946609 0)
(0.161995 -0.00894433 0)
(0.158543 -0.00842692 0)
(0.155175 -0.00791417 0)
(0.151838 -0.00740806 0)
(0.148473 -0.0069113 0)
(0.145019 -0.00642627 0)
(0.141399 -0.00595479 0)
(0.137534 -0.00549839 0)
(0.133344 -0.0050582 0)
(0.128747 -0.00463476 0)
(0.123659 -0.00422801 0)
(0.117994 -0.00383727 0)
(0.111666 -0.00346124 0)
(0.104585 -0.00309803 0)
(0.0966595 -0.00274515 0)
(0.087794 -0.00239954 0)
(0.0778891 -0.00205747 0)
(0.0668411 -0.00171456 0)
(0.0545411 -0.00136564 0)
(0.0408727 -0.00100455 0)
(0.025705 -0.000623841 0)
(0.00887018 -0.000213904 0)
(0.199752 -0.0130932 0)
(0.197618 -0.0119971 0)
(0.193242 -0.0111823 0)
(0.188508 -0.0106381 0)
(0.18383 -0.0102036 0)
(0.179303 -0.00980272 0)
(0.17495 -0.00940396 0)
(0.170771 -0.00899604 0)
(0.166765 -0.00857563 0)
(0.162901 -0.00814352 0)
(0.159137 -0.00770266 0)
(0.155421 -0.0072569 0)
(0.151695 -0.0068103 0)
(0.147894 -0.00636655 0)
(0.143947 -0.00592871 0)
(0.139777 -0.00549933 0)
(0.135304 -0.00508033 0)
(0.130447 -0.00467299 0)
(0.125123 -0.0042779 0)
(0.119244 -0.00389498 0)
(0.112725 -0.00352344 0)
(0.105473 -0.00316185 0)
(0.0973955 -0.0028081 0)
(0.0883957 -0.00245944 0)
(0.0783721 -0.00211242 0)
(0.0672187 -0.00176283 0)
(0.0548236 -0.00140562 0)
(0.041067 -0.00103473 0)
(0.0258179 -0.000642843 0)
(0.00890738 -0.000220456 0)
(0.00753789 0.000212056 0)
(0.0216384 0.000614031 0)
(0.0339912 0.000980543 0)
(0.0448322 0.00132377 0)
(0.0543391 0.00165235 0)
(0.0626876 0.00197322 0)
(0.0700575 0.00229315 0)
(0.0765804 0.00261632 0)
(0.082389 0.0029467 0)
(0.0876043 0.00328732 0)
(0.0923365 0.0036404 0)
(0.0966915 0.0040075 0)
(0.100773 0.00438962 0)
(0.104688 0.00478748 0)
(0.108525 0.00520053 0)
(0.112377 0.0056269 0)
(0.11634 0.00606399 0)
(0.120512 0.00650805 0)
(0.124987 0.00695388 0)
(0.129871 0.00739642 0)
(0.135274 0.00782627 0)
(0.141219 0.00823134 0)
(0.147773 0.00859707 0)
(0.154977 0.00890659 0)
(0.162851 0.0091405 0)
(0.171262 0.00927467 0)
(0.180028 0.00926462 0)
(0.188851 0.00902724 0)
(0.197167 0.00836061 0)
(0.204493 0.00670499 0)
(0.0076157 0.000219056 0)
(0.0218863 0.000634627 0)
(0.034418 0.0010134 0)
(0.0454395 0.00136723 0)
(0.0551316 0.0017046 0)
(0.0636799 0.00203289 0)
(0.0712648 0.00235856 0)
(0.0780228 0.00268579 0)
(0.0840858 0.00301817 0)
(0.0895754 0.00335839 0)
(0.0946038 0.00370833 0)
(0.0992777 0.00406913 0)
(0.1037 0.00444124 0)
(0.107972 0.00482441 0)
(0.112186 0.00521731 0)
(0.116431 0.00561735 0)
(0.1208 0.00602088 0)
(0.125382 0.00642292 0)
(0.130263 0.00681676 0)
(0.135542 0.0071951 0)
(0.141265 0.00754789 0)
(0.147463 0.00786032 0)
(0.154168 0.00811565 0)
(0.161373 0.00829316 0)
(0.169019 0.00836643 0)
(0.176916 0.0083028 0)
(0.184823 0.00804559 0)
(0.192389 0.00750424 0)
(0.199167 0.0065253 0)
(0.204645 0.004891 0)
(0.00769794 0.000225175 0)
(0.0221391 0.000652465 0)
(0.0348449 0.00104156 0)
(0.0460384 0.00140395 0)
(0.0559172 0.00174845 0)
(0.0646701 0.00208248 0)
(0.0724686 0.00241189 0)
(0.0794562 0.00274086 0)
(0.0857654 0.00307268 0)
(0.0915181 0.0034097 0)
(0.0968267 0.00375339 0)
(0.101797 0.00410443 0)
(0.106531 0.00446267 0)
(0.111124 0.00482711 0)
(0.115667 0.00519567 0)
(0.120245 0.00556503 0)
(0.124942 0.00593065 0)
(0.129837 0.0062866 0)
(0.135004 0.00662528 0)
(0.140509 0.00693731 0)
(0.146371 0.00721186 0)
(0.152609 0.00743373 0)
(0.159214 0.0075851 0)
(0.166133 0.0076443 0)
(0.173256 0.00758426 0)
(0.18039 0.00736992 0)
(0.187288 0.00695125 0)
(0.193639 0.00625908 0)
(0.19905 0.00521286 0)
(0.203179 0.00369707 0)
(0.00778093 0.00023028 0)
(0.0223898 0.000667209 0)
(0.0352643 0.00106462 0)
(0.0466288 0.00143377 0)
(0.0566913 0.00178362 0)
(0.0656408 0.00212131 0)
(0.0736459 0.00245236 0)
(0.0808532 0.0027808 0)
(0.0873955 0.00310961 0)
(0.0933941 0.00344077 0)
(0.0989608 0.00377536 0)
(0.1042 0.00411358 0)
(0.109208 0.00445475 0)
(0.114079 0.00479722 0)
(0.118896 0.00513826 0)
(0.123738 0.00547394 0)
(0.12868 0.00579907 0)
(0.133787 0.00610707 0)
(0.139114 0.00638974 0)
(0.144699 0.0066372 0)
(0.150555 0.00683762 0)
(0.156671 0.00697635 0)
(0.163009 0.00703609 0)
(0.169489 0.00699646 0)
(0.175988 0.0068329 0)
(0.182327 0.00651364 0)
(0.188276 0.00600353 0)
(0.193562 0.00526427 0)
(0.197917 0.00425435 0)
(0.201121 0.00290683 0)
(0.00786189 0.000234277 0)
(0.0226325 0.00067867 0)
(0.0356693 0.00108235 0)
(0.0471997 0.00145635 0)
(0.0574379 0.00180955 0)
(0.0665734 0.00214884 0)
(0.074774 0.00247945 0)
(0.0821871 0.00280517 0)
(0.0889451 0.00312867 0)
(0.0951681 0.00345158 0)
(0.100966 0.00377459 0)
(0.10644 0.00409746 0)
(0.111683 0.00441904 0)
(0.116783 0.00473717 0)
(0.121817 0.00504862 0)
(0.126856 0.00534902 0)
(0.131964 0.00563276 0)
(0.137191 0.00589291 0)
(0.142575 0.00612111 0)
(0.148139 0.00630745 0)
(0.153876 0.00644029 0)
(0.159762 0.00650605 0)
(0.165739 0.00648894 0)
(0.171718 0.0063715 0)
(0.177591 0.00613201 0)
(0.183179 0.00574974 0)
(0.188278 0.00520451 0)
(0.192699 0.00447564 0)
(0.196272 0.00354009 0)
(0.198852 0.00237743 0)
(0.00793858 0.0002371 0)
(0.0228621 0.000686697 0)
(0.0360525 0.00109456 0)
(0.0477406 0.00147143 0)
(0.0581445 0.00182601 0)
(0.0674542 0.00216492 0)
(0.0758368 0.00249308 0)
(0.0834396 0.00281404 0)
(0.0903937 0.00313014 0)
(0.0968173 0.00344268 0)
(0.102818 0.003752 0)
(0.108492 0.00405748 0)
(0.11393 0.0043576 0)
(0.119212 0.0046498 0)
(0.124408 0.00493053 0)
(0.12958 0.00519516 0)
(0.134782 0.00543792 0)
(0.140051 0.00565187 0)
(0.145413 0.00582882 0)
(0.150874 0.00595941 0)
(0.156418 0.00603276 0)
(0.162009 0.00603716 0)
(0.167587 0.00595829 0)
(0.173067 0.00578223 0)
(0.178333 0.00549444 0)
(0.183229 0.00508407 0)
(0.187617 0.00453809 0)
(0.191362 0.00384625 0)
(0.194352 0.003002 0)
(0.1965 0.00200963 0)
(0.00800904 0.000238702 0)
(0.0230736 0.000691181 0)
(0.0364065 0.0011011 0)
(0.0482418 0.00147887 0)
(0.0587994 0.00183289 0)
(0.0682697 0.00216949 0)
(0.076819 0.00249333 0)
(0.0845934 0.00280764 0)
(0.0917225 0.00311449 0)
(0.0983218 0.00341486 0)
(0.104495 0.00370879 0)
(0.110336 0.00399537 0)
(0.115928 0.00427277 0)
(0.121346 0.00453821 0)
(0.126653 0.00478796 0)
(0.131902 0.00501734 0)
(0.137137 0.00522064 0)
(0.142385 0.00539124 0)
(0.147662 0.00552138 0)
(0.152963 0.00560283 0)
(0.158267 0.00562529 0)
(0.16354 0.00557898 0)
(0.168716 0.00545344 0)
(0.173701 0.00523862 0)
(0.1784 0.00492654 0)
(0.182703 0.00450954 0)
(0.186507 0.00398174 0)
(0.189719 0.00334073 0)
(0.192267 0.00258972 0)
(0.194105 0.00174249 0)
(0.00807152 0.000239055 0)
(0.0232622 0.000692057 0)
(0.0367245 0.00110191 0)
(0.048694 0.00147859 0)
(0.0593916 0.00183017 0)
(0.0690073 0.00216266 0)
(0.0777062 0.00248042 0)
(0.085633 0.00278642 0)
(0.0929148 0.00308242 0)
(0.099664 0.00336916 0)
(0.105981 0.00364641 0)
(0.111954 0.00391306 0)
(0.117662 0.00416711 0)
(0.123174 0.00440564 0)
(0.128545 0.00462492 0)
(0.133823 0.00482043 0)
(0.13904 0.00498665 0)
(0.144219 0.00511772 0)
(0.149365 0.00520599 0)
(0.154476 0.00524439 0)
(0.159526 0.005225 0)
(0.164462 0.00513965 0)
(0.169227 0.00498205 0)
(0.17375 0.00474512 0)
(0.177952 0.00442373 0)
(0.181754 0.00401436 0)
(0.185079 0.00351592 0)
(0.187867 0.00293093 0)
(0.190074 0.0022672 0)
(0.191675 0.00154041 0)
(0.00812447 0.000238149 0)
(0.0234237 0.000689304 0)
(0.0369997 0.00109697 0)
(0.0490886 0.00147063 0)
(0.0599109 0.00181796 0)
(0.0696553 0.00214464 0)
(0.0784853 0.00245472 0)
(0.0865442 0.00275095 0)
(0.0939563 0.00303481 0)
(0.10083 0.00330679 0)
(0.10726 0.00356648 0)
(0.113333 0.00381265 0)
(0.119123 0.00404329 0)
(0.124691 0.00425538 0)
(0.130086 0.00444532 0)
(0.135351 0.00460908 0)
(0.140511 0.00474105 0)
(0.145589 0.0048361 0)
(0.150586 0.00488819 0)
(0.155481 0.00489077 0)
(0.160248 0.00483876 0)
(0.164846 0.00472603 0)
(0.169227 0.00454777 0)
(0.173334 0.00429989 0)
(0.177105 0.00397992 0)
(0.180483 0.00358729 0)
(0.183415 0.00312389 0)
(0.185861 0.00259483 0)
(0.187796 0.0020094 0)
(0.189211 0.00138206 0)