/*--------------------------------*- C++ -*----------------------------------*\
| =========                 |                                                 |
| \\      /  F ield         | OpenFOAM: The Open Source CFD Toolbox           |
|  \\    /   O peration     | Version:  4.1                                   |
|   \\  /    A nd           | Web:      www.OpenFOAM.org                      |
|    \\/     M anipulation  |                                                 |
\*---------------------------------------------------------------------------*/
FoamFile
{
    version     2.0;
    format      ascii;
    class       volVectorField;
    location    "0.6";
    object      Force;
}
// * * * * * * * * * * * * * * * * * * * * * * * * * * * * * * * * * * * * * //

dimensions      [1 1 -2 0 0 0 0];

internalField   uniform (0 0 0);

boundaryField
{
    inlet
    {
        type            calculated;
        value           uniform (0 0 0);
    }
    outlet
    {
        type            calculated;
        value           uniform (0 0 0);
    }
    flap
    {
        type            calculated;
        value           nonuniform List<vector> 
33
(
(2.92465 -0.0906783 -9.51945e-19)
(2.91918 -0.214736 -3.54915e-18)
(2.90951 -0.332868 -1.76474e-18)
(2.88719 -0.434541 -8.41219e-22)
(2.84544 -0.512939 3.83345e-22)
(2.7855 -0.575102 1.94191e-18)
(2.70289 -0.6288 3.50937e-18)
(2.59173 -0.66833 -1.88079e-37)
(2.4633 -0.676832 -6.60977e-18)
(2.32585 -0.65556 -6.29619e-18)
(2.18002 -0.607176 1.67101e-18)
(2.00933 -0.549605 7.37051e-23)
(1.78826 -0.484178 -1.86298e-22)
(1.49003 -0.39672 4.03782e-18)
(1.04613 -0.272047 -1.32647e-18)
(0.191741 0.713873 -2.3761e-20)
(0.130224 0.488712 6.31243e-22)
(0.0832719 0.317722 -8.02554e-19)
(-0.15855 0.00534817 -2.20405e-39)
(-0.162831 0.0130444 4.84914e-22)
(-0.161855 0.0202928 -3.01863e-18)
(-0.152094 0.0251277 1.74564e-18)
(-0.131806 0.0263458 2.93809e-18)
(-0.100792 0.0235668 1.57751e-18)
(-0.0616453 0.017302 1.69242e-19)
(-0.0126201 0.00612361 1.63083e-18)
(0.0490737 -0.0105681 1.33062e-19)
(0.120874 -0.0307184 0)
(0.192941 -0.0500166 1.70853e-18)
(0.255652 -0.0660547 -6.87898e-19)
(0.305419 -0.0790529 2.55658e-18)
(0.3403 -0.0870481 -9.15164e-19)
(0.360766 -0.0910914 -9.70986e-19)
)
;
    }
    upperWall
    {
        type            calculated;
        value           uniform (0 0 0);
    }
    lowerWall
    {
        type            calculated;
        value           uniform (0 0 0);
    }
    frontAndBack
    {
        type            empty;
    }
}


// ************************************************************************* //
