/*--------------------------------*- C++ -*----------------------------------*\
| =========                 |                                                 |
| \\      /  F ield         | OpenFOAM: The Open Source CFD Toolbox           |
|  \\    /   O peration     | Version:  4.1                                   |
|   \\  /    A nd           | Web:      www.OpenFOAM.org                      |
|    \\/     M anipulation  |                                                 |
\*---------------------------------------------------------------------------*/
FoamFile
{
    version     2.0;
    format      ascii;
    class       volScalarField;
    location    "0.8";
    object      T;
}
// * * * * * * * * * * * * * * * * * * * * * * * * * * * * * * * * * * * * * //

dimensions      [0 0 0 1 0 0 0];

internalField   nonuniform List<scalar> 
12013
(
300
300
300.001
300.001
300.001
300.001
300.002
300.002
300.003
300.003
300.004
300.005
300.006
300.007
300.009
300.01
300.012
300.014
300.016
300.019
300.022
300.025
300.028
300.032
300.037
300.042
300.047
300.053
300.059
300.066
300.073
300.082
300.09
300.1
300.11
300.12
300.132
300.144
300.157
300.171
300.186
300.202
300.218
300.236
300.254
300.274
300.294
300.315
300.338
300.361
300.386
300.411
300.438
300.466
300.495
300.526
300.557
300.59
300.624
300.66
300.697
300.735
300.775
300.817
300.86
300.904
300.951
300.999
301.05
301.103
301.158
301.215
301.275
301.339
301.406
301.477
301.552
301.634
301.724
301.824
301.94
300
300
300.001
300.001
300.001
300.001
300.002
300.002
300.003
300.003
300.004
300.005
300.006
300.007
300.009
300.01
300.012
300.014
300.016
300.019
300.022
300.025
300.028
300.032
300.037
300.042
300.047
300.053
300.059
300.066
300.073
300.081
300.09
300.1
300.11
300.12
300.132
300.144
300.157
300.171
300.186
300.202
300.218
300.236
300.254
300.273
300.294
300.315
300.338
300.361
300.386
300.411
300.438
300.466
300.495
300.525
300.557
300.59
300.624
300.659
300.696
300.735
300.775
300.816
300.859
300.904
300.95
300.998
301.049
301.101
301.156
301.213
301.273
301.336
301.403
301.473
301.548
301.628
301.714
301.808
301.911
300
300
300.001
300.001
300.001
300.001
300.002
300.002
300.003
300.003
300.004
300.005
300.006
300.007
300.009
300.01
300.012
300.014
300.016
300.019
300.022
300.025
300.028
300.032
300.037
300.042
300.047
300.053
300.059
300.066
300.073
300.081
300.09
300.1
300.11
300.12
300.132
300.144
300.157
300.171
300.186
300.202
300.218
300.236
300.254
300.273
300.294
300.315
300.337
300.361
300.385
300.411
300.438
300.465
300.494
300.525
300.556
300.589
300.623
300.658
300.695
300.734
300.773
300.814
300.857
300.902
300.948
300.996
301.046
301.098
301.153
301.209
301.269
301.331
301.396
301.465
301.537
301.614
301.695
301.782
301.872
300
300
300.001
300.001
300.001
300.001
300.002
300.002
300.003
300.003
300.004
300.005
300.006
300.007
300.009
300.01
300.012
300.014
300.016
300.019
300.022
300.025
300.028
300.032
300.037
300.042
300.047
300.053
300.059
300.066
300.073
300.081
300.09
300.099
300.109
300.12
300.132
300.144
300.157
300.171
300.186
300.201
300.218
300.235
300.254
300.273
300.293
300.314
300.337
300.36
300.385
300.41
300.437
300.465
300.493
300.524
300.555
300.588
300.622
300.657
300.694
300.732
300.771
300.812
300.855
300.899
300.945
300.992
301.042
301.093
301.147
301.203
301.261
301.322
301.385
301.452
301.521
301.594
301.67
301.748
301.828
300
300
300
300.001
300.001
300.001
300.002
300.002
300.003
300.003
300.004
300.005
300.006
300.007
300.009
300.01
300.012
300.014
300.016
300.019
300.022
300.025
300.028
300.032
300.037
300.041
300.047
300.053
300.059
300.066
300.073
300.081
300.09
300.099
300.109
300.12
300.132
300.144
300.157
300.171
300.185
300.201
300.217
300.235
300.253
300.272
300.292
300.314
300.336
300.359
300.384
300.409
300.436
300.463
300.492
300.522
300.553
300.586
300.62
300.655
300.691
300.729
300.768
300.809
300.851
300.895
300.94
300.987
301.036
301.086
301.139
301.194
301.25
301.309
301.37
301.434
301.5
301.568
301.638
301.709
301.781
300
300
300
300.001
300.001
300.001
300.002
300.002
300.003
300.003
300.004
300.005
300.006
300.007
300.009
300.01
300.012
300.014
300.016
300.019
300.022
300.025
300.028
300.032
300.037
300.041
300.047
300.052
300.059
300.066
300.073
300.081
300.09
300.099
300.109
300.12
300.131
300.143
300.156
300.17
300.185
300.2
300.217
300.234
300.252
300.271
300.292
300.313
300.335
300.358
300.382
300.408
300.434
300.461
300.49
300.52
300.551
300.583
300.617
300.651
300.688
300.725
300.764
300.804
300.846
300.889
300.933
300.979
301.027
301.077
301.128
301.181
301.236
301.293
301.352
301.412
301.474
301.537
301.602
301.667
301.732
300
300
300
300.001
300.001
300.001
300.002
300.002
300.003
300.003
300.004
300.005
300.006
300.007
300.009
300.01
300.012
300.014
300.016
300.019
300.021
300.025
300.028
300.032
300.037
300.041
300.047
300.052
300.059
300.065
300.073
300.081
300.089
300.099
300.109
300.119
300.131
300.143
300.156
300.17
300.184
300.2
300.216
300.233
300.251
300.27
300.29
300.311
300.333
300.356
300.381
300.406
300.432
300.459
300.488
300.517
300.548
300.58
300.613
300.647
300.683
300.72
300.758
300.798
300.839
300.881
300.925
300.97
301.017
301.065
301.115
301.166
301.219
301.273
301.328
301.385
301.443
301.502
301.562
301.621
301.68
300
300
300
300.001
300.001
300.001
300.002
300.002
300.003
300.003
300.004
300.005
300.006
300.007
300.008
300.01
300.012
300.014
300.016
300.019
300.021
300.025
300.028
300.032
300.036
300.041
300.046
300.052
300.058
300.065
300.073
300.08
300.089
300.098
300.108
300.119
300.13
300.142
300.155
300.169
300.183
300.199
300.215
300.232
300.25
300.269
300.289
300.31
300.332
300.354
300.378
300.403
300.429
300.456
300.484
300.514
300.544
300.576
300.608
300.642
300.677
300.713
300.751
300.79
300.83
300.871
300.914
300.958
301.003
301.05
301.098
301.147
301.197
301.249
301.302
301.355
301.409
301.464
301.518
301.573
301.626
300
300
300
300.001
300.001
300.001
300.002
300.002
300.003
300.003
300.004
300.005
300.006
300.007
300.008
300.01
300.012
300.014
300.016
300.018
300.021
300.024
300.028
300.032
300.036
300.041
300.046
300.052
300.058
300.065
300.072
300.08
300.089
300.098
300.108
300.118
300.13
300.142
300.154
300.168
300.182
300.198
300.214
300.231
300.248
300.267
300.287
300.308
300.329
300.352
300.375
300.4
300.426
300.453
300.48
300.509
300.539
300.57
300.602
300.636
300.67
300.706
300.742
300.78
300.819
300.86
300.901
300.944
300.987
301.032
301.078
301.125
301.173
301.221
301.271
301.321
301.371
301.422
301.472
301.522
301.571
300
300
300
300.001
300.001
300.001
300.002
300.002
300.003
300.003
300.004
300.005
300.006
300.007
300.008
300.01
300.012
300.014
300.016
300.018
300.021
300.024
300.028
300.032
300.036
300.041
300.046
300.052
300.058
300.064
300.072
300.08
300.088
300.097
300.107
300.117
300.129
300.141
300.153
300.167
300.181
300.196
300.212
300.229
300.247
300.265
300.285
300.305
300.326
300.349
300.372
300.396
300.422
300.448
300.475
300.504
300.533
300.563
300.595
300.628
300.661
300.696
300.732
300.769
300.806
300.845
300.885
300.926
300.968
301.011
301.055
301.099
301.145
301.19
301.237
301.283
301.33
301.376
301.423
301.469
301.514
300
300
300
300.001
300.001
300.001
300.002
300.002
300.003
300.003
300.004
300.005
300.006
300.007
300.008
300.01
300.012
300.014
300.016
300.018
300.021
300.024
300.028
300.032
300.036
300.04
300.046
300.051
300.057
300.064
300.071
300.079
300.087
300.096
300.106
300.117
300.128
300.139
300.152
300.165
300.179
300.194
300.21
300.227
300.244
300.263
300.282
300.302
300.323
300.345
300.368
300.392
300.417
300.442
300.469
300.497
300.526
300.556
300.586
300.618
300.651
300.685
300.719
300.755
300.791
300.829
300.867
300.907
300.947
300.987
301.029
301.071
301.113
301.156
301.199
301.242
301.286
301.329
301.371
301.413
301.455
300
300
300
300.001
300.001
300.001
300.002
300.002
300.003
300.003
300.004
300.005
300.006
300.007
300.008
300.01
300.012
300.013
300.016
300.018
300.021
300.024
300.027
300.031
300.036
300.04
300.045
300.051
300.057
300.063
300.071
300.078
300.087
300.096
300.105
300.115
300.126
300.138
300.15
300.164
300.178
300.192
300.208
300.224
300.241
300.259
300.278
300.298
300.319
300.34
300.363
300.386
300.411
300.436
300.462
300.489
300.517
300.546
300.576
300.607
300.639
300.671
300.705
300.739
300.774
300.81
300.847
300.884
300.922
300.96
300.999
301.039
301.079
301.119
301.159
301.199
301.239
301.278
301.318
301.356
301.394
300
300
300
300.001
300.001
300.001
300.002
300.002
300.003
300.003
300.004
300.005
300.006
300.007
300.008
300.01
300.011
300.013
300.016
300.018
300.021
300.024
300.027
300.031
300.035
300.04
300.045
300.05
300.056
300.063
300.07
300.077
300.086
300.094
300.104
300.114
300.125
300.136
300.149
300.162
300.175
300.19
300.205
300.221
300.238
300.256
300.274
300.294
300.314
300.335
300.357
300.38
300.404
300.428
300.454
300.48
300.507
300.535
300.564
300.594
300.624
300.656
300.688
300.721
300.754
300.788
300.823
300.858
300.894
300.93
300.967
301.004
301.041
301.078
301.115
301.152
301.189
301.226
301.262
301.297
301.332
300
300
300
300.001
300.001
300.001
300.002
300.002
300.003
300.003
300.004
300.005
300.006
300.007
300.008
300.01
300.011
300.013
300.015
300.018
300.02
300.024
300.027
300.031
300.035
300.039
300.044
300.05
300.056
300.062
300.069
300.076
300.085
300.093
300.103
300.112
300.123
300.134
300.146
300.159
300.173
300.187
300.202
300.217
300.234
300.251
300.269
300.288
300.308
300.329
300.35
300.372
300.395
300.419
300.444
300.469
300.495
300.523
300.55
300.579
300.608
300.638
300.669
300.7
300.732
300.764
300.797
300.83
300.864
300.898
300.932
300.966
301.001
301.035
301.07
301.104
301.138
301.171
301.204
301.237
301.269
300
300
300
300.001
300.001
300.001
300.002
300.002
300.003
300.003
300.004
300.005
300.006
300.007
300.008
300.009
300.011
300.013
300.015
300.018
300.02
300.023
300.027
300.03
300.034
300.039
300.044
300.049
300.055
300.061
300.068
300.075
300.083
300.092
300.101
300.111
300.121
300.132
300.144
300.156
300.169
300.183
300.198
300.213
300.229
300.246
300.264
300.282
300.301
300.321
300.342
300.364
300.386
300.409
300.433
300.457
300.482
300.508
300.535
300.562
300.59
300.618
300.647
300.677
300.707
300.737
300.768
300.799
300.831
300.862
300.894
300.926
300.958
300.99
301.021
301.053
301.084
301.115
301.145
301.175
301.204
300
300
300
300.001
300.001
300.001
300.002
300.002
300.003
300.003
300.004
300.005
300.006
300.007
300.008
300.009
300.011
300.013
300.015
300.017
300.02
300.023
300.026
300.03
300.034
300.038
300.043
300.048
300.054
300.06
300.067
300.074
300.082
300.09
300.099
300.108
300.119
300.129
300.141
300.153
300.166
300.179
300.193
300.208
300.224
300.24
300.257
300.275
300.294
300.313
300.333
300.354
300.375
300.397
300.42
300.443
300.467
300.492
300.517
300.543
300.569
300.596
300.624
300.651
300.68
300.708
300.737
300.766
300.795
300.825
300.854
300.883
300.913
300.942
300.971
301
301.028
301.057
301.084
301.112
301.139
300
300
300
300.001
300.001
300.001
300.002
300.002
300.003
300.003
300.004
300.005
300.005
300.007
300.008
300.009
300.011
300.013
300.015
300.017
300.02
300.022
300.026
300.029
300.033
300.037
300.042
300.047
300.053
300.059
300.065
300.072
300.08
300.088
300.097
300.106
300.116
300.126
300.137
300.149
300.162
300.175
300.188
300.203
300.218
300.234
300.25
300.267
300.285
300.303
300.322
300.342
300.363
300.384
300.405
300.428
300.45
300.474
300.498
300.522
300.547
300.572
300.598
300.624
300.65
300.677
300.703
300.73
300.757
300.784
300.811
300.838
300.865
300.892
300.919
300.945
300.971
300.997
301.022
301.047
301.072
300
300
300
300.001
300.001
300.001
300.002
300.002
300.002
300.003
300.004
300.004
300.005
300.006
300.008
300.009
300.011
300.012
300.014
300.017
300.019
300.022
300.025
300.028
300.032
300.036
300.041
300.046
300.051
300.057
300.064
300.07
300.078
300.086
300.094
300.103
300.113
300.123
300.133
300.145
300.157
300.169
300.183
300.196
300.211
300.226
300.242
300.258
300.275
300.293
300.311
300.33
300.349
300.369
300.389
300.41
300.432
300.454
300.476
300.499
300.522
300.546
300.57
300.594
300.618
300.643
300.668
300.692
300.717
300.742
300.767
300.792
300.816
300.841
300.865
300.889
300.913
300.936
300.959
300.982
301.004
300
300
300
300.001
300.001
300.001
300.002
300.002
300.002
300.003
300.004
300.004
300.005
300.006
300.007
300.009
300.01
300.012
300.014
300.016
300.019
300.021
300.024
300.028
300.031
300.035
300.04
300.045
300.05
300.056
300.062
300.068
300.075
300.083
300.091
300.1
300.109
300.119
300.129
300.14
300.151
300.163
300.176
300.189
300.203
300.217
300.232
300.248
300.264
300.281
300.298
300.316
300.334
300.353
300.372
300.392
300.412
300.432
300.453
300.474
300.496
300.518
300.54
300.562
300.585
300.607
300.63
300.652
300.675
300.698
300.721
300.743
300.765
300.788
300.81
300.831
300.853
300.874
300.895
300.916
300.936
300
300
300
300.001
300.001
300.001
300.001
300.002
300.002
300.003
300.003
300.004
300.005
300.006
300.007
300.008
300.01
300.012
300.014
300.016
300.018
300.021
300.024
300.027
300.03
300.034
300.039
300.043
300.048
300.054
300.06
300.066
300.073
300.08
300.088
300.096
300.105
300.114
300.124
300.134
300.145
300.157
300.169
300.181
300.194
300.208
300.222
300.237
300.252
300.268
300.284
300.3
300.318
300.335
300.353
300.371
300.39
300.409
300.428
300.448
300.468
300.488
300.508
300.529
300.549
300.57
300.59
300.611
300.632
300.652
300.673
300.693
300.713
300.734
300.753
300.773
300.793
300.812
300.831
300.849
300.867
300
300
300
300.001
300.001
300.001
300.001
300.002
300.002
300.003
300.003
300.004
300.005
300.006
300.007
300.008
300.01
300.011
300.013
300.015
300.017
300.02
300.023
300.026
300.029
300.033
300.037
300.041
300.046
300.052
300.057
300.063
300.07
300.077
300.084
300.092
300.1
300.109
300.118
300.128
300.139
300.149
300.161
300.173
300.185
300.198
300.211
300.225
300.239
300.253
300.268
300.284
300.3
300.316
300.333
300.349
300.367
300.384
300.402
300.42
300.438
300.456
300.475
300.493
300.512
300.531
300.55
300.568
300.587
300.605
300.624
300.642
300.661
300.679
300.697
300.714
300.732
300.749
300.766
300.783
300.799
300
300
300
300.001
300.001
300.001
300.001
300.002
300.002
300.003
300.003
300.004
300.005
300.006
300.007
300.008
300.009
300.011
300.013
300.014
300.017
300.019
300.022
300.025
300.028
300.032
300.035
300.04
300.044
300.049
300.055
300.06
300.066
300.073
300.08
300.087
300.095
300.104
300.112
300.122
300.131
300.141
300.152
300.163
300.174
300.186
300.199
300.211
300.225
300.238
300.252
300.266
300.281
300.296
300.311
300.326
300.342
300.358
300.374
300.391
300.407
300.424
300.44
300.457
300.474
300.491
300.508
300.524
300.541
300.558
300.574
300.591
300.607
300.623
300.639
300.655
300.671
300.686
300.701
300.716
300.731
300
300
300
300.001
300.001
300.001
300.001
300.002
300.002
300.003
300.003
300.004
300.004
300.005
300.006
300.008
300.009
300.01
300.012
300.014
300.016
300.018
300.021
300.023
300.027
300.03
300.034
300.038
300.042
300.047
300.052
300.057
300.063
300.069
300.075
300.082
300.09
300.098
300.106
300.114
300.123
300.133
300.142
300.153
300.163
300.174
300.186
300.197
300.209
300.222
300.234
300.247
300.261
300.274
300.288
300.302
300.316
300.331
300.345
300.36
300.375
300.39
300.405
300.42
300.435
300.45
300.465
300.48
300.495
300.51
300.525
300.539
300.554
300.568
300.582
300.596
300.61
300.624
300.637
300.65
300.663
300
300
300
300.001
300.001
300.001
300.001
300.002
300.002
300.002
300.003
300.004
300.004
300.005
300.006
300.007
300.008
300.01
300.011
300.013
300.015
300.017
300.019
300.022
300.025
300.028
300.032
300.035
300.039
300.044
300.048
300.053
300.059
300.065
300.071
300.077
300.084
300.091
300.099
300.106
300.115
300.123
300.132
300.142
300.151
300.161
300.172
300.182
300.193
300.205
300.216
300.228
300.24
300.252
300.264
300.277
300.29
300.303
300.316
300.329
300.342
300.355
300.369
300.382
300.395
300.409
300.422
300.435
300.449
300.462
300.475
300.488
300.5
300.513
300.526
300.538
300.55
300.562
300.574
300.586
300.597
300
300
300
300
300.001
300.001
300.001
300.001
300.002
300.002
300.003
300.003
300.004
300.005
300.006
300.007
300.008
300.009
300.011
300.012
300.014
300.016
300.018
300.021
300.023
300.026
300.029
300.033
300.037
300.041
300.045
300.05
300.055
300.06
300.065
300.071
300.078
300.084
300.091
300.098
300.106
300.114
300.122
300.13
300.139
300.148
300.157
300.167
300.177
300.187
300.197
300.208
300.218
300.229
300.24
300.251
300.263
300.274
300.286
300.297
300.309
300.321
300.332
300.344
300.356
300.368
300.379
300.391
300.403
300.414
300.425
300.437
300.448
300.459
300.47
300.481
300.491
300.502
300.512
300.522
300.532
300
300
300
300
300.001
300.001
300.001
300.001
300.002
300.002
300.003
300.003
300.004
300.004
300.005
300.006
300.007
300.008
300.01
300.011
300.013
300.015
300.017
300.019
300.022
300.024
300.027
300.03
300.034
300.037
300.041
300.046
300.05
300.055
300.06
300.065
300.071
300.077
300.083
300.09
300.096
300.103
300.111
300.118
300.126
300.134
300.142
300.151
300.16
300.169
300.178
300.187
300.196
300.206
300.216
300.226
300.236
300.246
300.256
300.266
300.276
300.286
300.296
300.307
300.317
300.327
300.337
300.347
300.357
300.367
300.377
300.387
300.396
300.406
300.416
300.425
300.434
300.443
300.452
300.461
300.47
300
300
300
300
300.001
300.001
300.001
300.001
300.002
300.002
300.002
300.003
300.003
300.004
300.005
300.006
300.007
300.008
300.009
300.01
300.012
300.014
300.015
300.017
300.02
300.022
300.025
300.028
300.031
300.034
300.038
300.041
300.045
300.05
300.054
300.059
300.064
300.069
300.075
300.081
300.087
300.093
300.099
300.106
300.113
300.12
300.127
300.135
300.142
300.15
300.158
300.166
300.174
300.183
300.191
300.2
300.208
300.217
300.226
300.235
300.243
300.252
300.261
300.27
300.279
300.287
300.296
300.305
300.313
300.322
300.33
300.339
300.347
300.355
300.363
300.371
300.379
300.387
300.394
300.402
300.409
300
300
300
300
300.001
300.001
300.001
300.001
300.001
300.002
300.002
300.003
300.003
300.004
300.004
300.005
300.006
300.007
300.008
300.009
300.011
300.012
300.014
300.016
300.018
300.02
300.022
300.025
300.028
300.03
300.034
300.037
300.041
300.044
300.048
300.053
300.057
300.062
300.066
300.071
300.077
300.082
300.088
300.094
300.1
300.106
300.112
300.119
300.125
300.132
300.139
300.146
300.153
300.16
300.167
300.174
300.182
300.189
300.197
300.204
300.212
300.219
300.227
300.234
300.242
300.249
300.256
300.264
300.271
300.278
300.285
300.292
300.299
300.306
300.313
300.32
300.327
300.333
300.34
300.346
300.352
300
300
300
300
300
300.001
300.001
300.001
300.001
300.002
300.002
300.002
300.003
300.003
300.004
300.005
300.005
300.006
300.007
300.008
300.009
300.011
300.012
300.014
300.016
300.018
300.02
300.022
300.024
300.027
300.03
300.033
300.036
300.039
300.042
300.046
300.05
300.054
300.058
300.062
300.067
300.072
300.076
300.081
300.087
300.092
300.097
300.103
300.108
300.114
300.12
300.126
300.132
300.138
300.144
300.15
300.156
300.162
300.169
300.175
300.181
300.188
300.194
300.2
300.206
300.212
300.219
300.225
300.231
300.237
300.243
300.249
300.255
300.26
300.266
300.272
300.277
300.283
300.288
300.293
300.299
300
300
300
300
300
300.001
300.001
300.001
300.001
300.001
300.002
300.002
300.002
300.003
300.003
300.004
300.005
300.005
300.006
300.007
300.008
300.009
300.011
300.012
300.014
300.015
300.017
300.019
300.021
300.023
300.026
300.028
300.031
300.034
300.037
300.04
300.043
300.046
300.05
300.054
300.057
300.061
300.065
300.07
300.074
300.078
300.083
300.087
300.092
300.097
300.102
300.107
300.112
300.117
300.122
300.127
300.132
300.137
300.142
300.147
300.153
300.158
300.163
300.168
300.173
300.178
300.183
300.188
300.193
300.198
300.203
300.208
300.213
300.218
300.222
300.227
300.232
300.236
300.24
300.245
300.249
300
300
300
300
300
300
300.001
300.001
300.001
300.001
300.001
300.002
300.002
300.002
300.003
300.003
300.004
300.005
300.005
300.006
300.007
300.008
300.009
300.01
300.012
300.013
300.015
300.016
300.018
300.02
300.022
300.024
300.026
300.028
300.031
300.033
300.036
300.039
300.042
300.045
300.048
300.051
300.055
300.058
300.062
300.065
300.069
300.073
300.077
300.081
300.085
300.089
300.093
300.097
300.101
300.105
300.109
300.113
300.118
300.122
300.126
300.13
300.134
300.139
300.143
300.147
300.151
300.155
300.159
300.163
300.167
300.171
300.175
300.179
300.182
300.186
300.19
300.193
300.197
300.201
300.204
300
300
300
300
300
300
300
300.001
300.001
300.001
300.001
300.001
300.002
300.002
300.002
300.003
300.003
300.004
300.004
300.005
300.006
300.007
300.008
300.009
300.01
300.011
300.012
300.013
300.015
300.016
300.018
300.02
300.022
300.023
300.026
300.028
300.03
300.032
300.035
300.037
300.04
300.042
300.045
300.048
300.051
300.053
300.056
300.059
300.063
300.066
300.069
300.072
300.075
300.079
300.082
300.085
300.088
300.092
300.095
300.098
300.102
300.105
300.108
300.112
300.115
300.118
300.122
300.125
300.128
300.131
300.134
300.137
300.14
300.143
300.146
300.149
300.152
300.155
300.158
300.161
300.164
300
300
300
300
300
300
300
300
300.001
300.001
300.001
300.001
300.001
300.002
300.002
300.002
300.003
300.003
300.004
300.004
300.005
300.005
300.006
300.007
300.008
300.009
300.01
300.011
300.012
300.013
300.015
300.016
300.017
300.019
300.021
300.022
300.024
300.026
300.028
300.03
300.032
300.034
300.036
300.038
300.04
300.043
300.045
300.047
300.05
300.052
300.055
300.057
300.06
300.062
300.065
300.067
300.07
300.073
300.075
300.078
300.08
300.083
300.085
300.088
300.091
300.093
300.096
300.098
300.101
300.103
300.105
300.108
300.11
300.113
300.115
300.117
300.119
300.122
300.124
300.126
300.128
300
300
300
300
300
300
300
300
300
300.001
300.001
300.001
300.001
300.001
300.002
300.002
300.002
300.002
300.003
300.003
300.004
300.004
300.005
300.005
300.006
300.007
300.008
300.009
300.009
300.01
300.011
300.012
300.014
300.015
300.016
300.017
300.019
300.02
300.022
300.023
300.025
300.026
300.028
300.03
300.031
300.033
300.035
300.037
300.038
300.04
300.042
300.044
300.046
300.048
300.05
300.052
300.054
300.056
300.058
300.06
300.062
300.064
300.066
300.068
300.069
300.071
300.073
300.075
300.077
300.079
300.081
300.082
300.084
300.086
300.088
300.09
300.091
300.093
300.095
300.096
300.098
300
300
300
300
300
300
300
300
300
300
300.001
300.001
300.001
300.001
300.001
300.001
300.002
300.002
300.002
300.002
300.003
300.003
300.004
300.004
300.005
300.005
300.006
300.006
300.007
300.008
300.009
300.009
300.01
300.011
300.012
300.013
300.014
300.015
300.016
300.017
300.019
300.02
300.021
300.022
300.023
300.025
300.026
300.027
300.029
300.03
300.032
300.033
300.034
300.036
300.037
300.039
300.04
300.042
300.043
300.044
300.046
300.047
300.049
300.05
300.052
300.053
300.054
300.056
300.057
300.059
300.06
300.061
300.063
300.064
300.065
300.066
300.068
300.069
300.07
300.071
300.072
300
300
300
300
300
300
300
300
300
300
300
300
300.001
300.001
300.001
300.001
300.001
300.001
300.002
300.002
300.002
300.002
300.003
300.003
300.003
300.004
300.004
300.005
300.005
300.006
300.006
300.007
300.007
300.008
300.009
300.009
300.01
300.011
300.012
300.013
300.013
300.014
300.015
300.016
300.017
300.018
300.019
300.02
300.021
300.022
300.023
300.024
300.025
300.026
300.027
300.028
300.029
300.03
300.031
300.032
300.033
300.034
300.035
300.036
300.037
300.038
300.039
300.04
300.041
300.042
300.043
300.044
300.045
300.046
300.047
300.048
300.049
300.049
300.05
300.051
300.052
300
300
300
300
300
300
300
300
300
300
300
300
300
300
300
300.001
300.001
300.001
300.001
300.001
300.001
300.002
300.002
300.002
300.002
300.003
300.003
300.003
300.004
300.004
300.004
300.005
300.005
300.006
300.006
300.007
300.007
300.008
300.008
300.009
300.009
300.01
300.011
300.011
300.012
300.012
300.013
300.014
300.014
300.015
300.016
300.017
300.017
300.018
300.019
300.019
300.02
300.021
300.021
300.022
300.023
300.024
300.024
300.025
300.026
300.026
300.027
300.028
300.028
300.029
300.03
300.03
300.031
300.032
300.032
300.033
300.034
300.034
300.035
300.035
300.036
300
300
300
300
300
300
300
300
300
300
300
300
300
300
300
300
300
300
300.001
300.001
300.001
300.001
300.001
300.001
300.001
300.002
300.002
300.002
300.002
300.003
300.003
300.003
300.003
300.004
300.004
300.004
300.005
300.005
300.005
300.006
300.006
300.007
300.007
300.007
300.008
300.008
300.009
300.009
300.01
300.01
300.011
300.011
300.011
300.012
300.012
300.013
300.013
300.014
300.014
300.015
300.015
300.016
300.016
300.017
300.017
300.018
300.018
300.018
300.019
300.019
300.02
300.02
300.021
300.021
300.021
300.022
300.022
300.023
300.023
300.024
300.024
300
300
300
300
300
300
300
300
300
300
300
300
300
300
300
300
300
300
300
300
300
300
300.001
300.001
300.001
300.001
300.001
300.001
300.001
300.002
300.002
300.002
300.002
300.002
300.002
300.003
300.003
300.003
300.003
300.004
300.004
300.004
300.004
300.005
300.005
300.005
300.006
300.006
300.006
300.006
300.007
300.007
300.007
300.008
300.008
300.008
300.009
300.009
300.009
300.009
300.01
300.01
300.01
300.011
300.011
300.011
300.012
300.012
300.012
300.012
300.013
300.013
300.013
300.014
300.014
300.014
300.014
300.015
300.015
300.015
300.015
300
300
300
300
300
300
300
300
300
300
300
300
300
300
300
300
300
300
300
300
300
300
300
300
300
300
300.001
300.001
300.001
300.001
300.001
300.001
300.001
300.001
300.001
300.002
300.002
300.002
300.002
300.002
300.002
300.003
300.003
300.003
300.003
300.003
300.004
300.004
300.004
300.004
300.004
300.004
300.005
300.005
300.005
300.005
300.005
300.006
300.006
300.006
300.006
300.007
300.007
300.007
300.007
300.007
300.007
300.008
300.008
300.008
300.008
300.008
300.009
300.009
300.009
300.009
300.009
300.01
300.01
300.01
300.01
300
300
300
300
300
300
300
300
300
300
300
300
300
300
300
300
300
300
300
300
300
300
300
300
300
300
300
300
300
300.001
300.001
300.001
300.001
300.001
300.001
300.001
300.001
300.001
300.001
300.002
300.002
300.002
300.002
300.002
300.002
300.002
300.002
300.003
300.003
300.003
300.003
300.003
300.003
300.004
300.004
300.004
300.004
300.004
300.004
300.004
300.005
300.005
300.005
300.005
300.005
300.005
300.005
300.006
300.006
300.006
300.006
300.006
300.006
300.006
300.007
300.007
300.007
300.007
300.007
300.007
300.007
302.089
302.204
302.299
302.381
302.454
302.519
302.579
302.632
302.681
302.726
302.767
302.805
302.839
302.871
302.9
302.927
302.952
302.976
302.997
303.018
303.037
303.056
303.075
303.095
303.114
303.134
303.154
303.173
303.192
303.21
303.229
303.246
303.264
303.281
303.298
303.314
303.33
303.345
303.36
303.375
303.39
303.404
303.418
303.432
303.446
303.459
303.472
303.485
303.497
303.509
303.521
303.533
303.544
303.555
303.566
303.576
303.587
303.597
303.607
303.616
303.625
303.634
303.643
303.652
303.66
303.668
303.676
303.684
303.691
303.699
303.705
303.712
303.719
303.725
303.731
303.737
303.743
303.748
303.754
303.759
303.764
303.769
303.773
303.777
303.782
303.786
303.79
303.793
303.797
303.8
303.803
303.806
303.809
303.812
303.815
303.817
303.819
303.822
303.824
303.826
303.827
303.829
303.831
303.832
303.834
303.835
303.836
303.837
303.838
303.839
303.839
303.84
303.841
303.841
303.841
303.841
303.842
303.841
303.841
303.841
303.841
303.84
303.839
303.838
303.837
303.836
303.835
303.833
303.832
303.829
303.827
303.824
303.822
303.818
303.814
303.81
303.806
303.8
303.794
303.788
303.78
303.772
303.763
303.752
303.74
303.727
303.712
303.695
303.675
303.653
303.628
303.6
303.567
303.528
303.484
303.433
303.381
303.316
303.218
303.065
302.815
302.023
302.125
302.215
302.296
302.368
302.434
302.493
302.548
302.598
302.644
302.686
302.725
302.761
302.794
302.824
302.853
302.879
302.904
302.927
302.949
302.97
302.99
303.011
303.031
303.051
303.071
303.091
303.11
303.13
303.148
303.167
303.185
303.202
303.22
303.237
303.253
303.269
303.285
303.3
303.315
303.33
303.345
303.359
303.373
303.387
303.4
303.413
303.426
303.438
303.45
303.462
303.474
303.486
303.497
303.508
303.518
303.529
303.539
303.549
303.558
303.568
303.577
303.586
303.594
303.603
303.611
303.619
303.626
303.634
303.641
303.648
303.655
303.661
303.668
303.674
303.68
303.685
303.691
303.696
303.701
303.706
303.711
303.716
303.72
303.724
303.728
303.732
303.736
303.739
303.743
303.746
303.749
303.752
303.754
303.757
303.759
303.762
303.764
303.766
303.768
303.77
303.771
303.773
303.775
303.776
303.777
303.778
303.779
303.78
303.781
303.782
303.782
303.783
303.783
303.783
303.784
303.784
303.784
303.784
303.783
303.783
303.782
303.782
303.781
303.78
303.779
303.777
303.776
303.774
303.772
303.77
303.767
303.764
303.761
303.757
303.753
303.748
303.743
303.737
303.731
303.723
303.715
303.706
303.695
303.683
303.67
303.655
303.638
303.618
303.596
303.571
303.542
303.509
303.47
303.425
303.373
303.318
303.248
303.146
302.988
302.737
301.965
302.054
302.138
302.214
302.284
302.349
302.408
302.463
302.513
302.559
302.602
302.642
302.679
302.714
302.745
302.775
302.803
302.829
302.854
302.877
302.899
302.921
302.942
302.963
302.984
303.004
303.024
303.044
303.064
303.083
303.101
303.12
303.137
303.155
303.172
303.189
303.205
303.221
303.237
303.252
303.267
303.282
303.296
303.31
303.324
303.337
303.351
303.363
303.376
303.388
303.4
303.412
303.424
303.435
303.446
303.457
303.467
303.477
303.487
303.497
303.506
303.515
303.524
303.533
303.541
303.549
303.557
303.565
303.573
303.58
303.587
303.594
303.6
303.607
303.613
303.619
303.624
303.63
303.635
303.64
303.645
303.65
303.654
303.659
303.663
303.667
303.671
303.675
303.678
303.681
303.685
303.688
303.69
303.693
303.696
303.698
303.701
303.703
303.705
303.707
303.709
303.71
303.712
303.713
303.715
303.716
303.717
303.718
303.719
303.72
303.72
303.721
303.721
303.722
303.722
303.722
303.722
303.722
303.722
303.722
303.722
303.721
303.72
303.719
303.718
303.717
303.716
303.714
303.713
303.711
303.708
303.706
303.703
303.7
303.696
303.692
303.687
303.682
303.676
303.67
303.662
303.654
303.645
303.634
303.623
303.609
303.594
303.577
303.557
303.535
303.51
303.481
303.447
303.408
303.363
303.31
303.251
303.177
303.071
302.91
302.66
301.909
301.988
302.064
302.136
302.203
302.265
302.323
302.377