/*--------------------------------*- C++ -*----------------------------------*\
| =========                 |                                                 |
| \\      /  F ield         | OpenFOAM: The Open Source CFD Toolbox           |
|  \\    /   O peration     | Version:  2006                                  |
|   \\  /    A nd           | Website:  www.openfoam.com                      |
|    \\/     M anipulation  |                                                 |
\*---------------------------------------------------------------------------*/
FoamFile
{
    version     2.0;
    format      ascii;
    class       pointVectorField;
    location    "0.5";
    object      pointDisplacement;
}
// * * * * * * * * * * * * * * * * * * * * * * * * * * * * * * * * * * * * * //

dimensions      [0 1 0 0 0 0 0];


internalField   nonuniform List<vector> 
5828
(
(0 0 0)
(0.000497985 0 0)
(0.000989388 0 0)
(0.0015165 0 0)
(0.0021154 0 0)
(0.0028147 0 0)
(0.00363778 0 0)
(0.00460328 0 0)
(0.00572477 0 0)
(0.00701003 0 0)
(0.00845969 0 0)
(0.0100657 0 0)
(0.0118096 0 0)
(0.0136604 0 0)
(0.0155722 0 0)
(0.0174835 0 0)
(0.0193163 0 0)
(0.0209776 0 0)
(0.0223628 0 0)
(0.02336 0 0)
(0.0238567 0 0)
(0.0237506 0 0)
(0.0229611 0 0)
(0.0214416 0 0)
(0.0191938 0 0)
(0.0162824 0 0)
(0.0128489 0 0)
(0.0091304 0 0)
(0.0055018 0 0)
(0.00261482 0 0)
(5.45032e-17 0 0)
(0 0 0)
(0.000492384 1.1549e-06 0)
(0.000979194 2.29854e-06 0)
(0.0015021 3.53949e-06 0)
(0.00209674 4.99426e-06 0)
(0.00279165 6.79798e-06 0)
(0.00361031 9.12403e-06 0)
(0.00457147 1.22047e-05 0)
(0.00568894 1.63548e-05 0)
(0.00697086 2.19996e-05 0)
(0.00841837 2.97091e-05 0)
(0.010024 4.0217e-05 0)
(0.0117703 5.44651e-05 0)
(0.0136273 7.36411e-05 0)
(0.0155504 9.91892e-05 0)
(0.0174797 0.000132843 0)
(0.0193386 0.000176653 0)
(0.0210359 0.00023275 0)
(0.0224688 0.000303501 0)
(0.0235273 0.000391586 0)
(0.0241006 0.000499655 0)
(0.0240875 0.000630314 0)
(0.0234086 0.000786036 0)
(0.0220186 0.000969108 0)
(0.0199191 0.00118172 0)
(0.0171777 0.00142723 0)
(0.0139425 0.00170884 0)
(0.0104639 0.00202747 0)
(0.00713941 0.00237476 0)
(0.004631 0.0027024 0)
(0.00292682 0.00301373 0)
(0 0 0)
(0.000485458 2.28991e-06 0)
(0.00096671 4.55694e-06 0)
(0.00148461 7.01399e-06 0)
(0.00207431 9.88938e-06 0)
(0.00276443 1.34479e-05 0)
(0.00357865 1.80294e-05 0)
(0.00453614 2.40888e-05 0)
(0.00565128 3.22431e-05 0)
(0.00693315 4.33247e-05 0)
(0.00838408 5.84577e-05 0)
(0.0099981 7.90775e-05 0)
(0.01176 0.00010703 0)
(0.0136427 0.000144651 0)
(0.0156046 0.000194767 0)
(0.0175899 0.000260763 0)
(0.0195259 0.000346535 0)
(0.0213251 0.000456296 0)
(0.022891 0.000594786 0)
(0.0241191 0.000767109 0)
(0.0249032 0.000978274 0)
(0.0251471 0.00123308 0)
(0.0247761 0.00153582 0)
(0.0237499 0.00188993 0)
(0.0220737 0.00229809 0)
(0.0198172 0.0027623 0)
(0.0171363 0.00328089 0)
(0.0143037 0.00384614 0)
(0.0117404 0.00443469 0)
(0.0100758 0.00498123 0)
(0.00889306 0.00538006 0)
(0 0 0)
(0.000482959 3.3936e-06 0)
(0.000962383 6.7513e-06 0)
(0.00147883 1.03838e-05 0)
(0.00206748 1.46238e-05 0)
(0.00275719 1.98575e-05 0)
(0.00357212 2.65796e-05 0)
(0.00453207 3.54531e-05 0)
(0.00565222 4.73765e-05 0)
(0.00694309 6.35562e-05 0)
(0.00840867 8.56118e-05 0)
(0.0100449 0.000115643 0)
(0.0118401 0.000156358 0)
(0.0137711 0.000211147 0)
(0.0158008 0.000284093 0)
(0.0178787 0.000380042 0)
(0.019938 0.00050446 0)
(0.0218993 0.000663585 0)
(0.023674 0.000864331 0)
(0.0251657 0.00111372 0)
(0.0262765 0.00141865 0)
(0.0269186 0.00178542 0)
(0.0270252 0.00221922 0)
(0.0265642 0.0027235 0)
(0.0255495 0.00329953 0)
(0.0240512 0.00394365 0)
(0.0222194 0.00464523 0)
(0.0203209 0.00538334 0)
(0.018759 0.00611216 0)
(0.0180672 0.0067356 0)
(0.0175462 0.00715547 0)
(0 0 0)
(0.000480796 4.45536e-06 0)
(0.000958597 8.85902e-06 0)
(0.00147389 1.3611e-05 0)
(0.00206196 1.91392e-05 0)
(0.0027521 2.59394e-05 0)
(0.00356909 3.46469e-05 0)
(0.00453364 4.61125e-05 0)
(0.00566172 6.14706e-05 0)
(0.00696537 8.2256e-05 0)
(0.00845135 0.00011053 0)
(0.0101191 0.00014901 0)
(0.0119606 0.000201186 0)
(0.0139576 0.000271356 0)
(0.0160788 0.000364694 0)
(0.0182808 0.000487313 0)
(0.020506 0.000646151 0)
(0.0226853 0.000849096 0)
(0.0247397 0.00110464 0)
(0.026583 0.00142128 0)
(0.0281291 0.0018071 0)
(0.0293 0.00226897 0)
(0.0300375 0.00281165 0)
(0.0303165 0.00343685 0)
(0.0301567 0.00414169 0)
(0.0296294 0.00491519 0)
(0.0288719 0.00573659 0)
(0.0281048 0.00656884 0)
(0.0276675 0.00734566 0)
(0.0279664 0.00795551 0)
(0.0280726 0.00832774 0)
(0 0 0)
(0.000478904 5.46298e-06 0)
(0.000955291 1.08546e-05 0)
(0.00146968 1.66537e-05 0)
(0.0020576 2.33716e-05 0)
(0.00274883 3.15991e-05 0)
(0.00356902 4.20941e-05 0)
(0.0045395 5.58532e-05 0)
(0.00567734 7.42003e-05 0)
(0.00699696 9.89771e-05 0)
(0.00850859 0.000132651 0)
(0.0102158 0.000178452 0)
(0.0121148 0.000240512 0)
(0.0141927 0.000323902 0)
(0.0164255 0.000434699 0)
(0.0187788 0.000580089 0)
(0.0212064 0.000768271 0)
(0.0236503 0.00100829 0)
(0.0260435 0.00130967 0)
(0.0283124 0.00168184 0)
(0.0303848 0.00213347 0)
(0.0321939 0.00267093 0)
(0.0336882 0.00329711 0)
(0.0348465 0.0040102 0)
(0.035686 0.00480131 0)
(0.0362697 0.00565157 0)
(0.0367116 0.00652948 0)
(0.0371706 0.00738499 0)
(0.0378757 0.00813952 0)
(0.0390648 0.00867986 0)
(0.0397077 0.00899233 0)
(0 0 0)
(0.000477246 6.40546e-06 0)
(0.00095241 1.27151e-05 0)
(0.00146611 1.94747e-05 0)
(0.00205415 2.72648e-05 0)
(0.00274699 3.67545e-05 0)
(0.00357092 4.87924e-05 0)
(0.00454785 6.44848e-05 0)
(0.00569705 8.53387e-05 0)
(0.00703602 0.000113454 0)
(0.00857787 0.000151615 0)
(0.0103302 0.00020345 0)
(0.0122951 0.000273613 0)
(0.014465 0.00036776 0)
(0.016824 0.000492661 0)
(0.0193489 0.000656379 0)
(0.0220054 0.000867996 0)
(0.0247486 0.00113734 0)
(0.027525 0.0014745 0)
(0.0302769 0.00188946 0)
(0.0329474 0.0023909 0)
(0.0354785 0.00298361 0)
(0.0378236 0.00366757 0)
(0.0399616 0.00443653 0)
(0.0418991 0.00527487 0)
(0.0436754 0.00615523 0)
(0.0453608 0.00703658 0)
(0.0470447 0.00786173 0)
(0.048818 0.00854873 0)
(0.0507307 0.00899353 0)
(0.0517275 0.00920634 0)
(0 0 0)
(0.000475792 7.2735e-06 0)
(0.000949902 1.44215e-05 0)
(0.00146307 2.20434e-05 0)
(0.0020514 3.07734e-05 0)
(0.00274585 4.13373e-05 0)
(0.00357356 5.46462e-05 0)
(0.00455779 7.19029e-05 0)
(0.00572002 9.4765e-05 0)
(0.00708033 0.000125509 0)
(0.00865474 0.000167135 0)
(0.0104557 0.000223577 0)
(0.0124905 0.000299841 0)
(0.0147579 0.000401974 0)
(0.0172521 0.000537347 0)
(0.0199616 0.000714635 0)
(0.0228635 0.000943397 0)
(0.0259275 0.00123392 0)
(0.0291159 0.0015966 0)
(0.0323902 0.00204162 0)
(0.0357069 0.00257693 0)
(0.0390139 0.00320518 0)
(0.0422694 0.00392325 0)
(0.0454475 0.00472017 0)
(0.0485352 0.00557379 0)
(0.0515342 0.00644897 0)
(0.0544556 0.00729743 0)
(0.0573031 0.00805808 0)
(0.0600201 0.0086529 0)
(0.0624788 0.00899707 0)
(0.0637222 0.00915993 0)
(0 0 0)
(0.000474524 8.05984e-06 0)
(0.000947723 1.59591e-05 0)
(0.00146047 2.43368e-05 0)
(0.00204912 3.38654e-05 0)
(0.00274505 4.53062e-05 0)
(0.00357638 5.9615e-05 0)
(0.00456822 7.80619e-05 0)
(0.00574426 0.000102403 0)
(0.00712673 0.00013502 0)
(0.00873442 0.000179046 0)
(0.0105843 0.000238593 0)
(0.0126891 0.000318862 0)
(0.015056 0.000426231 0)
(0.0176904 0.000568512 0)
(0.0205899 0.000754607 0)
(0.0237432 0.000994234 0)
(0.0271361 0.00129792 0)
(0.0307502 0.00167629 0)
(0.0345648 0.00213923 0)
(0.0385456 0.00269324 0)
(0.042649 0.00333919 0)
(0.0468393 0.00407145 0)
(0.0510803 0.00487486 0)
(0.0553318 0.00572182 0)
(0.0595454 0.0065711 0)
(0.0636584 0.00736898 0)
(0.0675723 0.00805126 0)
(0.0710848 0.00854458 0)
(0.0739229 0.00878639 0)
(0.0753161 0.00885848 0)
(0 0 0)
(0.000473427 8.7596e-06 0)
(0.000945839 1.73183e-05 0)
(0.00145822 2.63409e-05 0)
(0.0020472 3.6523e-05 0)
(0.00274459 4.86446e-05 0)
(0.00357932 6.36836e-05 0)
(0.00457821 8.29421e-05 0)
(0.00576728 0.000108221 0)
(0.00717123 0.000141954 0)
(0.00881184 0.000187339 0)
(0.0107093 0.000248537 0)
(0.0128824 0.000330851 0)
(0.0153479 0.000440874 0)
(0.0181197 0.000586525 0)
(0.021205 0.000776739 0)
(0.0246063 0.00102134 0)
(0.0283254 0.00133085 0)
(0.0323613 0.00171574 0)
(0.0367061 0.0021851 0)
(0.0413378 0.00274425 0)
(0.0462276 0.0033931 0)
(0.051343 0.00412424 0)
(0.0566364 0.00491983 0)
(0.0620359 0.00574913 0)
(0.067436 0.00656768 0)
(0.0726857 0.00731918 0)
(0.0775688 0.0079375 0)
(0.0817391 0.0083522 0)
(0.0848162 0.00851723 0)
(0.0861936 0.00847663 0)
(0 0 0)
(0.000472501 9.37043e-06 0)
(0.000944234 1.84949e-05 0)
(0.00145628 2.80506e-05 0)
(0.0020455 3.87417e-05 0)
(0.00274414 5.13508e-05 0)
(0.00358194 6.6855e-05 0)
(0.00458716 8.65578e-05 0)
(0.0057875 0.00011225 0)
(0.00721037 0.000146366 0)
(0.00888171 0.00019213 0)
(0.0108247 0.000253667 0)
(0.0130622 0.000336229 0)
(0.0156192 0.000446424 0)
(0.0185186 0.000592106 0)
(0.021778 0.000782152 0)
(0.0254138 0.00102635 0)
(0.0294415 0.00133497 0)
(0.0338732 0.00171794 0)
(0.0387141 0.00218354 0)
(0.0439594 0.00273662 0)
(0.0495957 0.00337666 0)
(0.0555942 0.00409557 0)
(0.0618988 0.00487501 0)
(0.0684105 0.00568436 0)
(0.074968 0.00648 0)
(0.0813328 0.00720789 0)
(0.0871547 0.00780447 0)
(0.0919373 0.00820248 0)
(0.0952165 0.00836189 0)
(0.0964484 0.00832662 0)
(0 0 0)
(0.000471756 9.89252e-06 0)
(0.000942918 1.949e-05 0)
(0.00145462 2.94695e-05 0)
(0.00204392 4.05308e-05 0)
(0.00274347 5.34434e-05 0)
(0.0035837 6.91633e-05 0)
(0.00459402 8.89647e-05 0)
(0.00580373 0.000114595 0)
(0.00724244 0.000148437 0)
(0.00894006 0.000193678 0)
(0.0109232 0.000254348 0)
(0.0132178 0.000335532 0)
(0.0158558 0.000443706 0)
(0.0188686 0.000586556 0)
(0.0222836 0.000772737 0)
(0.0261285 0.00101174 0)
(0.0304302 0.0013134 0)
(0.0352138 0.00168712 0)
(0.0404991 0.00214066 0)
(0.0462983 0.00267859 0)
(0.0526114 0.00330047 0)
(0.0594181 0.00399879 0)
(0.0666623 0.00475692 0)
(0.0742308 0.00554755 0)
(0.0819247 0.00633234 0)
(0.0894351 0.00706407 0)
(0.0962773 0.00768567 0)
(0.101794 0.00813132 0)
(0.105403 0.00834951 0)
(0.106642 0.00839109 0)
(0 0 0)
(0.000471221 1.03283e-05 0)
(0.000941936 2.03092e-05 0)
(0.00145328 3.06089e-05 0)
(0.00204245 4.1911e-05 0)
(0.00274242 5.49589e-05 0)
(0.0035842 7.067e-05 0)
(0.00459814 9.02656e-05 0)
(0.00581484 0.00011542 0)
(0.00726579 0.000148424 0)
(0.00898389 0.000192357 0)
(0.0109993 0.000251114 0)
(0.0133414 0.000329557 0)
(0.0160469 0.00043389 0)
(0.019154 0.000571506 0)
(0.0226988 0.000750701 0)
(0.0267181 0.000980527 0)
(0.0312493 0.00127031 0)
(0.0363287 0.0016289 0)
(0.0419897 0.00206363 0)
(0.0482586 0.00257895 0)
(0.0551501 0.00317489 0)
(0.0626566 0.00384543 0)
(0.0707323 0.00457703 0)
(0.0792686 0.00534779 0)
(0.0880599 0.00612766 0)
(0.0967625 0.00687939 0)
(0.104805 0.00755373 0)
(0.111345 0.00808019 0)
(0.11555 0.00837608 0)
(0.116961 0.00848114 0)
(0 0 0)
(0.000470944 1.0682e-05 0)
(0.000941368 2.09623e-05 0)
(0.00145235 3.14865e-05 0)
(0.00204116 4.29128e-05 0)
(0.00274099 5.59477e-05 0)
(0.00358328 7.14571e-05 0)
(0.0045991 9.05913e-05 0)
(0.00582003 0.000114928 0)
(0.00727896 0.000146632 0)
(0.00901062 0.000188617 0)
(0.0110492 0.000244626 0)
(0.013428 0.000319268 0)
(0.0161847 0.000418333 0)
(0.0193634 0.000548829 0)
(0.0230077 0.000718626 0)
(0.0271611 0.000936217 0)
(0.0318693 0.00121033 0)
(0.0371777 0.00154925 0)
(0.0431301 0.00195986 0)
(0.049765 0.00244653 0)
(0.05711 0.00300987 0)
(0.0651725 0.00364552 0)
(0.0739248 0.00434329 0)
(0.0832804 0.00508695 0)
(0.0930603 0.00585503 0)
(0.102952 0.00662228 0)
(0.112378 0.00735091 0)
(0.120328 0.00796655 0)
(0.125546 0.00834432 0)
(0.12735 0.00847107 0)
(0 0 0)
(0.000470994 1.09594e-05 0)
(0.000941338 2.14619e-05 0)
(0.001452 3.2125e-05 0)
(0.00204023 4.3574e-05 0)
(0.00273934 5.64711e-05 0)
(0.00358104 7.16216e-05 0)
(0.00459685 9.0093e-05 0)
(0.00581904 0.000113351 0)
(0.00728142 0.000143411 0)
(0.0090198 0.000182987 0)
(0.0110718 0.000235624 0)
(0.0134734 0.00030567 0)
(0.0162634 0.00039846 0)
(0.0194893 0.000520523 0)
(0.0232 0.000679222 0)
(0.0274437 0.000882426 0)
(0.0322712 0.00113821 0)
(0.0377344 0.00145419 0)
(0.0438836 0.00183676 0)
(0.0507655 0.00229009 0)
(0.0584171 0.00281516 0)
(0.0668583 0.00340881 0)
(0.0760794 0.00406332 0)
(0.0860229 0.00476652 0)
(0.0965577 0.00550312 0)
(0.10745 0.00625729 0)
(0.118224 0.00700825 0)
(0.127919 0.00770581 0)
(0.134952 0.00822282 0)
(0.137595 0.00839687 0)
(0 0 0)
(0.000471471 1.11689e-05 0)
(0.000942017 2.18252e-05 0)
(0.00145245 3.25529e-05 0)
(0.00203993 4.39391e-05 0)
(0.00273776 5.65967e-05 0)
(0.00357774 7.1265e-05 0)
(0.00459161 8.89221e-05 0)
(0.00581201 0.000110913 0)
(0.00727323 0.000139092 0)
(0.00901172 0.000175958 0)
(0.0110662 0.000224792 0)
(0.0134753 0.000289658 0)
(0.01628 0.000375499 0)
(0.0195286 0.00048828 0)
(0.0232716 0.000634754 0)
(0.02756 0.000822131 0)
(0.0324474 0.00105776 0)
(0.0379878 0.00134854 0)
(0.0442345 0.00170021 0)
(0.0512366 0.00211655 0)
(0.0590344 0.00259845 0)
(0.0676528 0.00314319 0)
(0.0770904 0.00374396 0)
(0.0873061 0.0043898 0)
(0.0981998 0.00506619 0)
(0.109585 0.00575573 0)
(0.121085 0.00643445 0)
(0.131911 0.00704665 0)
(0.140285 0.00744197 0)
(0.147736 0.00839088 0)
(0 0 0)
(0.000497985 0 0)
(0.000989388 0 0)
(0.0015165 0 0)
(0.0021154 0 0)
(0.0028147 0 0)
(0.00363778 0 0)
(0.00460328 0 0)
(0.00572477 0 0)
(0.00701003 0 0)
(0.00845969 0 0)
(0.0100657 0 0)
(0.0118096 0 0)
(0.0136604 0 0)
(0.0155722 0 0)
(0.0174835 0 0)
(0.0193163 0 0)
(0.0209776 0 0)
(0.0223628 0 0)
(0.02336 0 0)
(0.0238567 0 0)
(0.0237506 0 0)
(0.0229611 0 0)
(0.0214416 0 0)
(0.0191938 0 0)
(0.0162824 0 0)
(0.0128489 0 0)
(0.0091304 0 0)
(0.0055018 0 0)
(0.00261482 0 0)
(5.45032e-17 0 0)
(0 0 0)
(0.000492384 1.1549e-06 0)
(0.000979194 2.29854e-06 0)
(0.0015021 3.53949e-06 0)
(0.00209674 4.99426e-06 0)
(0.00279165 6.79798e-06 0)
(0.00361031 9.12403e-06 0)
(0.00457147 1.22047e-05 0)
(0.00568894 1.63548e-05 0)
(0.00697086 2.19996e-05 0)
(0.00841837 2.97091e-05 0)
(0.010024 4.0217e-05 0)
(0.0117703 5.44651e-05 0)
(0.0136273 7.36411e-05 0)
(0.0155504 9.91892e-05 0)
(0.0174797 0.000132843 0)
(0.0193386 0.000176653 0)
(0.0210359 0.00023275 0)
(0.0224688 0.000303501 0)
(0.0235273 0.000391586 0)
(0.0241006 0.000499655 0)
(0.0240875 0.000630314 0)
(0.0234086 0.000786036 0)
(0.0220186 0.000969108 0)
(0.0199191 0.00118172 0)
(0.0171777 0.00142723 0)
(0.0139425 0.00170884 0)
(0.0104639 0.00202747 0)
(0.00713941 0.00237476 0)
(0.004631 0.0027024 0)
(0.00292682 0.00301373 0)
(0 0 0)
(0.000485458 2.28991e-06 0)
(0.00096671 4.55694e-06 0)
(0.00148461 7.01399e-06 0)
(0.00207431 9.88938e-06 0)
(0.00276443 1.34479e-05 0)
(0.00357865 1.80294e-05 0)
(0.00453614 2.40888e-05 0)
(0.00565128 3.22431e-05 0)
(0.00693315 4.33247e-05 0)
(0.00838408 5.84577e-05 0)
(0.0099981 7.90775e-05 0)
(0.01176 0.00010703 0)
(0.0136427 0.000144651 0)
(0.0156046 0.000194767 0)
(0.0175899 0.000260763 0)
(0.0195259 0.000346535 0)
(0.0213251 0.000456296 0)
(0.022891 0.000594786 0)
(0.0241191 0.000767109 0)
(0.0249032 0.000978274 0)
(0.0251471 0.00123308 0)
(0.0247761 0.00153582 0)
(0.0237499 0.00188993 0)
(0.0220737 0.00229809 0)
(0.0198172 0.0027623 0)
(0.0171363 0.00328089 0)
(0.0143037 0.00384614 0)
(0.0117404 0.00443469 0)
(0.0100758 0.00498123 0)
(0.00889306 0.00538006 0)
(0 0 0)
(0.000482959 3.3936e-06 0)
(0.000962383 6.7513e-06 0)
(0.00147883 1.03838e-05 0)
(0.00206748 1.46238e-05 0)
(0.00275719 1.98575e-05 0)
(0.00357212 2.65796e-05 0)
(0.00453207 3.54531e-05 0)
(0.00565222 4.73765e-05 0)
(0.00694309 6.35562e-05 0)
(0.00840867 8.56118e-05 0)
(0.0100449 0.000115643 0)
(0.0118401 0.000156358 0)
(0.0137711 0.000211147 0)
(0.0158008 0.000284093 0)
(0.0178787 0.000380042 0)
(0.019938 0.00050446 0)
(0.0218993 0.000663585 0)
(0.023674 0.000864331 0)
(0.0251657 0.00111372 0)
(0.0262765 0.00141865 0)
(0.0269186 0.00178542 0)
(0.0270252 0.00221922 0)
(0.0265642 0.0027235 0)
(0.0255495 0.00329953 0)
(0.0240512 0.00394365 0)
(0.0222194 0.00464523 0)
(0.0203209 0.00538334 0)
(0.018759 0.00611216 0)
(0.0180672 0.0067356 0)
(0.0175462 0.00715547 0)
(0 0 0)
(0.000480796 4.45536e-06 0)
(0.000958597 8.85902e-06 0)
(0.00147389 1.3611e-05 0)
(0.00206196 1.91392e-05 0)
(0.0027521 2.59394e-05 0)
(0.00356909 3.46469e-05 0)
(0.00453364 4.61125e-05 0)
(0.00566172 6.14706e-05 0)
(0.00696537 8.2256e-05 0)
(0.00845135 0.00011053 0)
(0.0101191 0.00014901 0)
(0.0119606 0.000201186 0)
(0.0139576 0.000271356 0)
(0.0160788 0.000364694 0)
(0.0182808 0.000487313 0)
(0.020506 0.000646151 0)
(0.0226853 0.000849096 0)
(0.0247397 0.00110464 0)
(0.026583 0.00142128 0)
(0.0281291 0.0018071 0)
(0.0293 0.00226897 0)
(0.0300375 0.00281165 0)
(0.0303165 0.00343685 0)
(0.0301567 0.00414169 0)
(0.0296294 0.00491519 0)
(0.0288719 0.00573659 0)
(0.0281048 0.00656884 0)
(0.0276675 0.00734566 0)
(0.0279664 0.00795551 0)
(0.0280726 0.00832774 0)
(0 0 0)
(0.000478904 5.46298e-06 0)
(0.000955291 1.08546e-05 0)
(0.00146968 1.66537e-05 0)
(0.0020576 2.33716e-05 0)
(0.00274883 3.15991e-05 0)
(0.00356902 4.20941e-05 0)
(0.0045395 5.58532e-05 0)
(0.00567734 7.42003e-05 0)
(0.00699696 9.89771e-05 0)
(0.00850859 0.000132651 0)
(0.0102158 0.000178452 0)
(0.0121148 0.000240512 0)
(0.0141927 0.000323902 0)
(0.0164255 0.000434699 0)
(0.0187788 0.000580089 0)
(0.0212064 0.000768271 0)
(0.0236503 0.00100829 0)
(0.0260435 0.00130967 0)
(0.0283124 0.00168184 0)
(0.0303848 0.00213347 0)
(0.0321939 0.00267093 0)
(0.0336882 0.00329711 0)
(0.0348465 0.0040102 0)
(0.035686 0.00480131 0)
(0.0362697 0.00565157 0)
(0.0367116 0.00652948 0)
(0.0371706 0.00738499 0)
(0.0378757 0.00813952 0)
(0.0390648 0.00867986 0)
(0.0397077 0.00899233 0)
(0 0 0)
(0.000477246 6.40546e-06 0)
(0.00095241 1.27151e-05 0)
(0.00146611 1.94747e-05 0)
(0.00205415 2.72648e-05 0)
(0.00274699 3.67545e-05 0)
(0.00357092 4.87924e-05 0)
(0.00454785 6.44848e-05 0)
(0.00569705 8.53387e-05 0)
(0.00703602 0.000113454 0)
(0.00857787 0.000151615 0)
(0.0103302 0.00020345 0)
(0.0122951 0.000273613 0)
(0.014465 0.00036776 0)
(0.016824 0.000492661 0)
(0.0193489 0.000656379 0)
(0.0220054 0.000867996 0)
(0.0247486 0.00113734 0)
(0.027525 0.0014745 0)
(0.0302769 0.00188946 0)
(0.0329474 0.0023909 0)
(0.0354785 0.00298361 0)
(0.0378236 0.00366757 0)
(0.0399616 0.00443653 0)
(0.0418991 0.00527487 0)
(0.0436754 0.00615523 0)
(0.0453608 0.00703658 0)
(0.0470447 0.00786173 0)
(0.048818 0.00854873 0)
(0.0507307 0.00899353 0)
(0.0517275 0.00920634 0)
(0 0 0)
(0.000475792 7.2735e-06 0)
(0.000949902 1.44215e-05 0)
(0.00146307 2.20434e-05 0)
(0.0020514 3.07734e-05 0)
(0.00274585 4.13373e-05 0)
(0.00357356 5.46462e-05 0)
(0.00455779 7.19029e-05 0)
(0.00572002 9.4765e-05 0)
(0.00708033 0.000125509 0)
(0.00865474 0.000167135 0)
(0.0104557 0.000223577 0)
(0.0124905 0.000299841 0)
(0.0147579 0.000401974 0)
(0.0172521 0.000537347 0)
(0.0199616 0.000714635 0)
(0.0228635 0.000943397 0)
(0.0259275 0.00123392 0)
(0.0291159 0.0015966 0)
(0.0323902 0.00204162 0)
(0.0357069 0.00257693 0)
(0.0390139 0.00320518 0)
(0.0422694 0.00392325 0)
(0.0454475 0.00472017 0)
(0.0485352 0.00557379 0)
(0.0515342 0.00644897 0)
(0.0544556 0.00729743 0)
(0.0573031 0.00805808 0)
(0.0600201 0.0086529 0)
(0.0624788 0.00899707 0)
(0.0637222 0.00915993 0)
(0 0 0)
(0.000474524 8.05984e-06 0)
(0.000947723 1.59591e-05 0)
(0.00146047 2.43368e-05 0)
(0.00204912 3.38654e-05 0)
(0.00274505 4.53062e-05 0)
(0.00357638 5.9615e-05 0)
(0.00456822 7.80619e-05 0)
(0.00574426 0.000102403 0)
(0.00712673 0.00013502 0)
(0.00873442 0.000179046 0)
(0.0105843 0.000238593 0)
(0.0126891 0.000318862 0)
(0.015056 0.000426231 0)
(0.0176904 0.000568512 0)
(0.0205899 0.000754607 0)
(0.0237432 0.000994234 0)
(0.0271361 0.00129792 0)
(0.0307502 0.00167629 0)
(0.0345648 0.00213923 0)
(0.0385456 0.00269324 0)
(0.042649 0.00333919 0)
(0.0468393 0.00407145 0)
(0.0510803 0.00487486 0)
(0.0553318 0.00572182 0)
(0.0595454 0.0065711 0)
(0.0636584 0.00736898 0)
(0.0675723 0.00805126 0)
(0.0710848 0.00854458 0)
(0.0739229 0.00878639 0)
(0.0753161 0.00885848 0)
(0 0 0)
(0.000473427 8.7596e-06 0)
(0.000945839 1.73183e-05 0)
(0.00145822 2.63409e-05 0)
(0.0020472 3.6523e-05 0)
(0.00274459 4.86446e-05 0)
(0.00357932 6.36836e-05 0)
(0.00457821 8.29421e-05 0)
(0.00576728 0.000108221 0)
(0.00717123 0.000141954 0)
(0.00881184 0.000187339 0)
(0.0107093 0.000248537 0)
(0.0128824 0.000330851 0)
(0.0153479 0.000440874 0)
(0.0181197 0.000586525 0)
(0.021205 0.000776739 0)
(0.0246063 0.00102134 0)
(0.0283254 0.00133085 0)
(0.0323613 0.00171574 0)
(0.0367061 0.0021851 0)
(0.0413378 0.00274425 0)
(0.0462276 0.0033931 0)
(0.051343 0.00412424 0)
(0.0566364 0.00491983 0)
(0.0620359 0.00574913 0)
(0.067436 0.00656768 0)
(0.0726857 0.00731918 0)
(0.0775688 0.0079375 0)
(0.0817391 0.0083522 0)
(0.0848162 0.00851723 0)
(0.0861936 0.00847663 0)
(0 0 0)
(0.000472501 9.37043e-06 0)
(0.000944234 1.84949e-05 0)
(0.00145628 2.80506e-05 0)
(0.0020455 3.87417e-05 0)
(0.00274414 5.13508e-05 0)
(0.00358194 6.6855e-05 0)
(0.00458716 8.65578e-05 0)
(0.0057875 0.00011225 0)
(0.00721037 0.000146366 0)
(0.00888171 0.00019213 0)
(0.0108247 0.000253667 0)
(0.0130622 0.000336229 0)
(0.0156192 0.000446424 0)
(0.0185186 0.000592106 0)
(0.021778 0.000782152 0)
(0.0254138 0.00102635 0)
(0.0294415 0.00133497 0)
(0.0338732 0.00171794 0)
(0.0387141 0.00218354 0)
(0.0439594 0.00273662 0)
(0.0495957 0.00337666 0)
(0.0555942 0.00409557 0)
(0.0618988 0.00487501 0)
(0.0684105 0.00568436 0)
(0.074968 0.00648 0)
(0.0813328 0.00720789 0)
(0.0871547 0.00780447 0)
(0.0919373 0.00820248 0)
(0.0952165 0.00836189 0)
(0.0964484 0.00832662 0)
(0 0 0)
(0.000471756 9.89252e-06 0)
(0.000942918 1.949e-05 0)
(0.00145462 2.94695e-05 0)
(0.00204392 4.05308e-05 0)
(0.00274347 5.34434e-05 0)
(0.0035837 6.91633e-05 0)
(0.00459402 8.89647e-05 0)
(0.00580373 0.000114595 0)
(0.00724244 0.000148437 0)
(0.00894006 0.000193678 0)
(0.0109232 0.000254348 0)
(0.0132178 0.000335532 0)
(0.0158558 0.000443706 0)
(0.0188686 0.000586556 0)
(0.0222836 0.000772737 0)
(0.0261285 0.00101174 0)
(0.0304302 0.0013134 0)
(0.0352138 0.00168712 0)
(0.0404991 0.00214066 0)
(0.0462983 0.00267859 0)
(0.0526114 0.00330047 0)
(0.0594181 0.00399879 0)
(0.0666623 0.00475692 0)
(0.0742308 0.00554755 0)
(0.0819247 0.00633234 0)
(0.0894351 0.00706407 0)
(0.0962773 0.00768567 0)
(0.101794 0.00813132 0)
(0.105403 0.00834951 0)
(0.106642 0.00839109 0)
(0 0 0)
(0.000471221 1.03283e-05 0)
(0.000941936 2.03092e-05 0)
(0.00145328 3.06089e-05 0)
(0.00204245 4.1911e-05 0)
(0.00274242 5.49589e-05 0)
(0.0035842 7.067e-05 0)
(0.00459814 9.02656e-05 0)
(0.00581484 0.00011542 0)
(0.00726579 0.000148424 0)
(0.00898389 0.000192357 0)
(0.0109993 0.000251114 0)
(0.0133414 0.000329557 0)
(0.0160469 0.00043389 0)
(0.019154 0.000571506 0)
(0.0226988 0.000750701 0)
(0.0267181 0.000980527 0)
(0.0312493 0.00127031 0)
(0.0363287 0.0016289 0)
(0.0419897 0.00206363 0)
(0.0482586 0.00257895 0)
(0.0551501 0.00317489 0)
(0.0626566 0.00384543 0)
(0.0707323 0.00457703 0)
(0.0792686 0.00534779 0)
(0.0880599 0.00612766 0)
(0.0967625 0.00687939 0)
(0.104805 0.00755373 0)
(0.111345 0.00808019 0)
(0.11555 0.00837608 0)
(0.116961 0.00848114 0)
(0 0 0)
(0.000470944 1.0682e-05 0)
(0.000941368 2.09623e-05 0)
(0.00145235 3.14865e-05 0)
(0.00204116 4.29128e-05 0)
(0.00274099 5.59477e-05 0)
(0.00358328 7.14571e-05 0)
(0.0045991 9.05913e-05 0)
(0.00582003 0.000114928 0)
(0.00727896 0.000146632 0)
(0.00901062 0.000188617 0)
(0.0110492 0.000244626 0)
(0.013428 0.000319268 0)
(0.0161847 0.000418333 0)
(0.0193634 0.000548829 0)
(0.0230077 0.000718626 0)
(0.0271611 0.000936217 0)
(0.0318693 0.00121033 0)
(0.0371777 0.00154925 0)
(0.0431301 0.00195986 0)
(0.049765 0.00244653 0)
(0.05711 0.00300987 0)
(0.0651725 0.00364552 0)
(0.0739248 0.00434329 0)
(0.0832804 0.00508695 0)
(0.0930603 0.00585503 0)
(0.102952 0.00662228 0)
(0.112378 0.00735091 0)
(0.120328 0.00796655 0)
(0.125546 0.00834432 0)
(0.12735 0.00847107 0)
(0 0 0)
(0.000470994 1.09594e-05 0)
(0.000941338 2.14619e-05 0)
(0.001452 3.2125e-05 0)
(0.00204023 4.3574e-05 0)
(0.00273934 5.64711e-05 0)
(0.00358104 7.16216e-05 0)
(0.00459685 9.0093e-05 0)
(0.00581904 0.000113351 0)
(0.00728142 0.000143411 0)
(0.0090198 0.000182987 0)
(0.0110718 0.000235624 0)
(0.0134734 0.00030567 0)
(0.0162634 0.00039846 0)
(0.0194893 0.000520523 0)
(0.0232 0.000679222 0)
(0.0274437 0.000882426 0)
(0.0322712 0.00113821 0)
(0.0377344 0.00145419 0)
(0.0438836 0.00183676 0)
(0.0507655 0.00229009 0)
(0.0584171 0.00281516 0)
(0.0668583 0.00340881 0)
(0.0760794 0.00406332 0)
(0.0860229 0.00476652 0)
(0.0965577 0.00550312 0)
(0.10745 0.00625729 0)
(0.118224 0.00700825 0)
(0.127919 0.00770581 0)
(0.134952 0.00822282 0)
(0.137595 0.00839687 0)
(0 0 0)
(0.000471471 1.11689e-05 0)
(0.000942017 2.18252e-05 0)
(0.00145245 3.25529e-05 0)
(0.00203993 4.39391e-05 0)
(0.00273776 5.65967e-05 0)
(0.00357774 7.1265e-05 0)
(0.00459161 8.89221e-05 0)
(0.00581201 0.000110913 0)
(0.00727323 0.000139092 0)
(0.00901172 0.000175958 0)
(0.0110662 0.000224792 0)
(0.0134753 0.000289658 0)
(0.01628 0.000375499 0)
(0.0195286 0.00048828 0)
(0.0232716 0.000634754 0)
(0.02756 0.000822131 0)
(0.0324474 0.00105776 0)
(0.0379878 0.00134854 0)
(0.0442345 0.00170021 0)
(0.0512366 0.00211655 0)
(0.0590344 0.00259845 0)
(0.0676528 0.00314319 0)
(0.0770904 0.00374396 0)
(0.0873061 0.0043898 0)
(0.0981998 0.00506619 0)
(0.109585 0.00575573 0)
(0.121085 0.00643445 0)
(0.131911 0.00704665 0)
(0.140285 0.00744197 0)
(0.147736 0.00839088 0)
(-1.98087e-17 0 0)
(0.00321914 0 0)
(0.00773765 0 0)
(0.0135045 0 0)
(0.0192884 0 0)
(0.0243177 0 0)
(0.0282192 0 0)
(0.030892 0 0)
(0.0323915 0 0)
(0.0328446 0 0)
(0.03241 0 0)
(0.0312554 0 0)
(0.0295438 0 0)
(0.0274268 0 0)
(0.0250415 0 0)
(0.0225126 0 0)
(0.0199462 0 0)
(0.0174222 0 0)
(0.0150032 0 0)
(0.0127391 0 0)
(0.0106648 0 0)
(0.008801 0 0)
(0.0071554 0 0)
(0.00572527 0 0)
(0.00449971 0 0)
(0.00346078 0 0)
(0.00258423 0 0)
(0.00183976 0 0)
(0.00119078 0 0)
(0.000593686 0 0)
(0 0 0)
(0.00290899 -0.00293253 0)
(0.00535138 -0.00270747 0)
(0.00966064 -0.00249482 0)
(0.0151616 -0.00217345 0)
(0.0206739 -0.00184235 0)
(0.0254433 -0.00153823 0)
(0.0291107 -0.00127175 0)
(0.0315852 -0.00104315 0)
(0.0329211 -0.00084967 0)
(0.0332404 -0.000687246 0)
(0.0326974 -0.000551589 0)
(0.031456 -0.000438832 0)
(0.0296761 -0.000345505 0)
(0.0275058 -0.00026859 0)
(0.0250807 -0.000205723 0)
(0.0225229 -0.000154849 0)
(0.0199353 -0.000114158 0)
(0.0173968 -8.21111e-05 0)
(0.0149691 -5.72878e-05 0)
(0.0127006 -3.84542e-05 0)
(0.0106252 -2.45363e-05 0)
(0.00876286 -1.45449e-05 0)
(0.00712023 -7.61732e-06 0)
(0.00569399 -3.04406e-06 0)
(0.0044728 -2.33127e-07 0)
(0.00343845 1.29685e-06 0)
(0.00256656 1.92472e-06 0)
(0.00182676 1.93562e-06 0)
(0.00118243 1.53349e-06 0)
(0.000589894 8.56546e-07 0)
(0 0 0)
(0.00885922 -0.00520956 0)
(0.011102 -0.00495161 0)
(0.0150051 -0.00459079 0)
(0.0198584 -0.00404658 0)
(0.0246514 -0.0034639 0)
(0.0287179 -0.00291303 0)
(0.031755 -0.00242137 0)
(0.0336929 -0.00199558 0)
(0.0345801 -0.00163214 0)
(0.0345286 -0.00132471 0)
(0.0336819 -0.00106625 0)
(0.0321952 -0.000850342 0)
(0.0302194 -0.000670887 0)
(0.0278944 -0.000522366 0)
(0.0253495 -0.000400454 0)
(0.0227005 -0.000301497 0)
(0.0200434 -0.000222311 0)
(0.0174541 -0.000159917 0)
(0.0149911 -0.000111532 0)
(0.0126984 -7.47793e-05 0)
(0.0106079 -4.76047e-05 0)
(0.00873789 -2.81027e-05 0)
(0.0070926 -1.45986e-05 0)
(0.00566665 -5.69388e-06 0)
(0.00444758 -2.33496e-07 0)
(0.0034165 2.72241e-06 0)
(0.00254871 3.91446e-06 0)
(0.00181349 3.89991e-06 0)
(0.00117399 3.0772e-06 0)
(0.000586178 1.71527e-06 0)
(0 0 0)
(0.017511 -0.00689934 0)
(0.019458 -0.00661186 0)
(0.0229106 -0.0061664 0)
(0.0269151 -0.00548692 0)
(0.0307057 -0.00474228 0)
(0.0337794 -0.0040249 0)
(0.0359189 -0.00337335 0)
(0.0370763 -0.00280018 0)
(0.037298 -0.00230438 0)
(0.0366873 -0.00188003 0)
(0.0353756 -0.00151961 0)
(0.0335076 -0.00121602 0)
(0.0312244 -0.000962148 0)
(0.0286542 -0.000750982 0)
(0.0259157 -0.000576854 0)
(0.023115 -0.000435019 0)
(0.0203406 -0.000321157 0)
(0.017663 -0.000231166 0)
(0.0151348 -0.00016123 0)
(0.0127937 -0.000107992 0)
(0.0106685 -6.85504e-05 0)
(0.00877509 -4.02334e-05 0)
(0.00711471 -2.06505e-05 0)
(0.00567929 -7.75849e-06 0)
(0.00445407 1.23974e-07 0)
(0.00341916 4.36016e-06 0)
(0.00254946 6.02475e-06 0)
(0.00181359 5.92903e-06 0)
(0.00117409 4.65314e-06 0)
(0.000586364 2.58723e-06 0)
(0 0 0)
(0.0280395 -0.00799253 0)
(0.0296524 -0.00769274 0)
(0.0325542 -0.00720383 0)
(0.0355843 -0.00646459 0)
(0.0382207 -0.00564279 0)
(0.0401442 -0.004839 0)
(0.0412202 -0.00409582 0)
(0.0414292 -0.0034296 0)
(0.0408263 -0.00284356 0)
(0.0395114 -0.00233462 0)
(0.0376065 -0.00189688 0)
(0.0352448 -0.00152403 0)
(0.0325594 -0.00120973 0)
(0.0296679 -0.000946915 0)
(0.0266745 -0.000729126 0)
(0.0236737 -0.000550941 0)
(0.0207443 -0.000407274 0)
(0.0179496 -0.000293346 0)
(0.0153346 -0.000204621 0)
(0.0129296 -0.00013692 0)
(0.0107581 -8.66259e-05 0)
(0.00883221 -5.04718e-05 0)
(0.00714977 -2.54696e-05 0)
(0.00570042 -9.04182e-06 0)
(0.00446648 9.60994e-07 0)
(0.00342577 6.28549e-06 0)
(0.00255263 8.30269e-06 0)
(0.00181513 8.05143e-06 0)
(0.00117492 6.27738e-06 0)
(0.000586804 3.47973e-06 0)
(0 0 0)
(0.0396608 -0.0085164 0)
(0.040919 -0.00824689 0)
(0.0431996 -0.00775749 0)
(0.045209 -0.00702204 0)
(0.0466483 -0.00619341 0)
(0.0473659 -0.005369 0)
(0.047301 -0.00459143 0)
(0.0464705 -0.00388023 0)
(0.044946 -0.00324306 0)
(0.042832 -0.00268088 0)
(0.0402469 -0.00219087 0)
(0.0373138 -0.00176852 0)
(0.0341567 -0.00140894 0)
(0.030884 -0.00110619 0)
(0.0275872 -0.000853924 0)
(0.0243478 -0.000646505 0)
(0.0212333 -0.000478513 0)
(0.0182971 -0.000344779 0)
(0.0155768 -0.000240356 0)
(0.0130956 -0.000160534 0)
(0.0108695 -0.000101112 0)
(0.00890472 -5.83327e-05 0)
(0.00719513 -2.87413e-05 0)
(0.00572796 -9.34039e-06 0)
(0.00448311 2.40452e-06 0)
(0.00343538 8.57071e-06 0)
(0.00255782 1.07859e-05 0)
(0.00181795 1.02851e-05 0)
(0.00117647 7.95764e-06 0)
(0.000587549 4.39536e-06 0)
(0 0 0)
(0.0516923 -0.00860987 0)
(0.0526207 -0.00838157 0)
(0.0542555 -0.00792387 0)
(0.055265 -0.00723952 0)
(0.0555361 -0.00645446 0)
(0.0550595 -0.00565611 0)
(0.0538403 -0.00488609 0)
(0.051936 -0.00416671 0)
(0.0494429 -0.00351001 0)
(0.0464772 -0.00292129 0)