/*--------------------------------*- C++ -*----------------------------------*\
| =========                 |                                                 |
| \\      /  F ield         | OpenFOAM: The Open Source CFD Toolbox           |
|  \\    /   O peration     | Version:  5.x                                   |
|   \\  /    A nd           | Web:      www.OpenFOAM.org                      |
|    \\/     M anipulation  |                                                 |
\*---------------------------------------------------------------------------*/
FoamFile
{
    version     2.0;
    format      ascii;
    class       volVectorField;
    location    "0.6";
    object      U;
}
// * * * * * * * * * * * * * * * * * * * * * * * * * * * * * * * * * * * * * //

dimensions      [0 1 -1 0 0 0 0];

internalField   nonuniform List<vector> 
12013
(
(0.1 5.49225e-07 0)
(0.099988 2.82712e-06 0)
(0.0999422 6.72102e-06 0)
(0.0998516 1.12091e-05 0)
(0.0997187 1.49944e-05 0)
(0.099558 1.72511e-05 0)
(0.0993874 1.79185e-05 0)
(0.0992206 1.74886e-05 0)
(0.0990645 1.66061e-05 0)
(0.0989201 1.57657e-05 0)
(0.098785 1.52161e-05 0)
(0.098656 1.50009e-05 0)
(0.09853 1.50551e-05 0)
(0.0984054 1.5281e-05 0)
(0.0982811 1.55942e-05 0)
(0.0981566 1.59369e-05 0)
(0.0980322 1.62772e-05 0)
(0.0979078 1.65999e-05 0)
(0.0977838 1.69011e-05 0)
(0.0976604 1.718e-05 0)
(0.0975377 1.74386e-05 0)
(0.097416 1.76775e-05 0)
(0.0972954 1.78969e-05 0)
(0.097176 1.80956e-05 0)
(0.0970582 1.82722e-05 0)
(0.0969419 1.84241e-05 0)
(0.0968275 1.85485e-05 0)
(0.096715 1.86429e-05 0)
(0.0966047 1.87042e-05 0)
(0.0964967 1.87309e-05 0)
(0.0963913 1.87212e-05 0)
(0.0962887 1.86749e-05 0)
(0.0961889 1.85924e-05 0)
(0.0960922 1.84754e-05 0)
(0.0959987 1.83267e-05 0)
(0.0959084 1.81512e-05 0)
(0.0958215 1.79548e-05 0)
(0.095738 1.77448e-05 0)
(0.0956578 1.75298e-05 0)
(0.0955809 1.73203e-05 0)
(0.0955071 1.71279e-05 0)
(0.0954363 1.69661e-05 0)
(0.0953682 1.68498e-05 0)
(0.0953025 1.67958e-05 0)
(0.0952389 1.68221e-05 0)
(0.095177 1.6949e-05 0)
(0.0951162 1.71993e-05 0)
(0.095056 1.75978e-05 0)
(0.0949958 1.81726e-05 0)
(0.0949349 1.89555e-05 0)
(0.0948724 1.99823e-05 0)
(0.0948074 2.12941e-05 0)
(0.094739 2.29388e-05 0)
(0.0946659 2.49709e-05 0)
(0.094587 2.74562e-05 0)
(0.0945008 3.04719e-05 0)
(0.0944056 3.41102e-05 0)
(0.0942996 3.84825e-05 0)
(0.0941806 4.37243e-05 0)
(0.0940461 5.00024e-05 0)
(0.0938931 5.7522e-05 0)
(0.0937184 6.65402e-05 0)
(0.0935177 7.73811e-05 0)
(0.0932862 9.04575e-05 0)
(0.093018 0.000106302 0)
(0.0927059 0.00012561 0)
(0.0923408 0.000149302 0)
(0.0919114 0.000178614 0)
(0.0914036 0.00021524 0)
(0.0907987 0.000261535 0)
(0.0900725 0.000320842 0)
(0.0891924 0.000398011 0)
(0.0881143 0.000500229 0)
(0.0867763 0.000638399 0)
(0.0850908 0.000829448 0)
(0.0829312 0.00110028 0)
(0.0801094 0.00149468 0)
(0.0763283 0.00208757 0)
(0.071125 0.00303004 0)
(0.0639528 0.00474421 0)
(0.0558821 0.00913073 0)
(0.100001 1.64469e-06 0)
(0.0999888 8.6128e-06 0)
(0.099944 2.05418e-05 0)
(0.0998545 3.43088e-05 0)
(0.0997228 4.59357e-05 0)
(0.0995632 5.28844e-05 0)
(0.0993932 5.49581e-05 0)
(0.0992268 5.36628e-05 0)
(0.0990708 5.0971e-05 0)
(0.0989264 4.8402e-05 0)
(0.0987912 4.67173e-05 0)
(0.0986621 4.60558e-05 0)
(0.0985361 4.6218e-05 0)
(0.0984115 4.69065e-05 0)
(0.0982872 4.78625e-05 0)
(0.0981628 4.89103e-05 0)
(0.0980385 4.99513e-05 0)
(0.0979143 5.09399e-05 0)
(0.0977904 5.18624e-05 0)
(0.0976671 5.27182e-05 0)
(0.0975446 5.35114e-05 0)
(0.097423 5.42452e-05 0)
(0.0973026 5.49191e-05 0)
(0.0971834 5.55304e-05 0)
(0.0970656 5.60743e-05 0)
(0.0969495 5.65431e-05 0)
(0.0968351 5.69287e-05 0)
(0.0967227 5.72221e-05 0)
(0.0966124 5.74156e-05 0)
(0.0965044 5.75029e-05 0)
(0.0963989 5.74801e-05 0)
(0.0962961 5.73458e-05 0)
(0.0961962 5.7101e-05 0)
(0.0960993 5.67507e-05 0)
(0.0960055 5.63053e-05 0)
(0.0959149 5.57785e-05 0)
(0.0958276 5.51887e-05 0)
(0.0957436 5.45577e-05 0)
(0.0956628 5.39126e-05 0)
(0.0955852 5.32854e-05 0)
(0.0955108 5.27119e-05 0)
(0.0954391 5.22329e-05 0)
(0.0953702 5.18945e-05 0)
(0.0953036 5.17479e-05 0)
(0.095239 5.18488e-05 0)
(0.095176 5.2259e-05 0)
(0.095114 5.30475e-05 0)
(0.0950526 5.42911e-05 0)
(0.0949911 5.60763e-05 0)
(0.0949288 5.84998e-05 0)
(0.0948649 6.16703e-05 0)
(0.0947985 6.57144e-05 0)
(0.0947285 7.07767e-05 0)
(0.094654 7.70258e-05 0)
(0.0945736 8.46602e-05 0)
(0.0944859 9.39155e-05 0)
(0.0943893 0.000105073 0)
(0.0942819 0.000118469 0)
(0.0941617 0.000134517 0)
(0.0940263 0.00015372 0)
(0.0938727 0.0001767 0)
(0.0936978 0.000204231 0)
(0.0934975 0.000237289 0)
(0.0932673 0.000277115 0)
(0.0930015 0.000325301 0)
(0.0926932 0.000383919 0)
(0.0923343 0.000455699 0)
(0.0919142 0.000544292 0)
(0.0914201 0.000654654 0)
(0.0908353 0.000793626 0)
(0.0901389 0.00097082 0)
(0.0893031 0.00119998 0)
(0.0882918 0.00150115 0)
(0.087057 0.00190401 0)
(0.0855343 0.00245326 0)
(0.0836389 0.00321685 0)
(0.0812603 0.00429783 0)
(0.0782534 0.00585038 0)
(0.0744575 0.00810045 0)
(0.0699271 0.0113094 0)
(0.0659686 0.0153346 0)
(0.100001 2.69153e-06 0)
(0.0999899 1.45747e-05 0)
(0.0999469 3.4982e-05 0)
(0.0998599 5.86067e-05 0)
(0.0997311 7.86313e-05 0)
(0.0995739 9.06779e-05 0)
(0.0994058 9.4371e-05 0)
(0.0992404 9.22628e-05 0)
(0.0990848 8.77199e-05 0)
(0.0989403 8.33494e-05 0)
(0.0988049 8.04657e-05 0)
(0.0986755 7.93198e-05 0)
(0.0985494 7.95779e-05 0)
(0.0984247 8.07384e-05 0)
(0.0983005 8.23607e-05 0)
(0.0981764 8.41447e-05 0)
(0.0980523 8.59212e-05 0)
(0.0979285 8.76124e-05 0)
(0.097805 8.91933e-05 0)
(0.0976821 9.06628e-05 0)
(0.09756 9.20269e-05 0)
(0.0974388 9.32908e-05 0)
(0.0973187 9.44543e-05 0)
(0.0971999 9.55123e-05 0)
(0.0970825 9.6456e-05 0)
(0.0969666 9.72736e-05 0)
(0.0968525 9.79504e-05 0)
(0.0967403 9.84716e-05 0)
(0.0966301 9.88243e-05 0)
(0.0965222 9.89978e-05 0)
(0.0964168 9.89853e-05 0)
(0.0963139 9.87843e-05 0)
(0.0962138 9.83974e-05 0)
(0.0961166 9.78339e-05 0)
(0.0960224 9.71109e-05 0)
(0.0959313 9.62522e-05 0)
(0.0958434 9.52889e-05 0)
(0.0957586 9.42591e-05 0)
(0.0956769 9.321e-05 0)
(0.0955983 9.21954e-05 0)
(0.0955226 9.12772e-05 0)
(0.0954496 9.05253e-05 0)
(0.0953791 9.00186e-05 0)
(0.0953108 8.98444e-05 0)
(0.0952444 9.00983e-05 0)
(0.0951794 9.08862e-05 0)
(0.0951153 9.23264e-05 0)
(0.0950516 9.45504e-05 0)
(0.0949877 9.77051e-05 0)
(0.0949229 0.000101955 0)
(0.0948563 0.000107488 0)
(0.0947871 0.000114516 0)
(0.0947144 0.000123287 0)
(0.094637 0.000134087 0)
(0.0945538 0.000147252 0)
(0.0944632 0.00016318 0)
(0.0943639 0.000182344 0)
(0.094254 0.000205313 0)
(0.0941316 0.000232779 0)
(0.0939942 0.000265582 0)
(0.0938393 0.000304759 0)
(0.0936638 0.000351597 0)
(0.093464 0.000407707 0)
(0.0932357 0.000475123 0)
(0.0929738 0.000556446 0)
(0.0926723 0.000655026 0)
(0.0923238 0.000775239 0)
(0.0919196 0.000922869 0)
(0.0914488 0.00110565 0)
(0.0908983 0.0013341 0)
(0.0902519 0.00162264 0)
(0.0894896 0.00199138 0)
(0.0885874 0.00246861 0)
(0.0875164 0.00309443 0)
(0.0862439 0.00392572 0)
(0.0847362 0.00504205 0)
(0.0829675 0.00655054 0)
(0.0809365 0.00858301 0)
(0.0787089 0.0112707 0)
(0.0765496 0.0146222 0)
(0.0751644 0.0180331 0)
(0.100001 3.6462e-06 0)
(0.0999912 2.05767e-05 0)
(0.099951 4.97959e-05 0)
(0.099868 8.37857e-05 0)
(0.0997438 0.000112773 0)
(0.0995909 0.000130413 0)
(0.0994259 0.000136071 0)
(0.0992623 0.000133333 0)
(0.0991074 0.000126994 0)
(0.0989628 0.000120801 0)
(0.098827 0.000116669 0)
(0.0986972 0.000114989 0)
(0.0985709 0.00011531 0)
(0.0984462 0.000116927 0)
(0.0983222 0.000119217 0)
(0.0981984 0.000121751 0)
(0.0980749 0.000124286 0)
(0.0979516 0.000126708 0)
(0.0978288 0.000128979 0)
(0.0977066 0.000131096 0)
(0.0975852 0.000133067 0)
(0.0974647 0.000134898 0)
(0.0973453 0.000136588 0)
(0.0972272 0.00013813 0)
(0.0971104 0.000139512 0)
(0.0969951 0.000140716 0)
(0.0968816 0.000141722 0)
(0.0967698 0.00014251 0)
(0.0966601 0.00014306 0)
(0.0965525 0.000143359 0)
(0.0964472 0.000143397 0)
(0.0963445 0.000143171 0)
(0.0962443 0.000142684 0)
(0.0961469 0.000141953 0)
(0.0960524 0.000140999 0)
(0.0959608 0.000139859 0)
(0.0958721 0.000138577 0)
(0.0957864 0.000137208 0)
(0.0957036 0.000135821 0)
(0.0956237 0.000134492 0)
(0.0955465 0.000133312 0)
(0.0954717 0.00013238 0)
(0.0953993 0.000131809 0)
(0.0953288 0.000131726 0)
(0.09526 0.000132267 0)
(0.0951923 0.000133584 0)
(0.0951254 0.000135848 0)
(0.0950587 0.000139246 0)
(0.0949916 0.000143988 0)
(0.0949234 0.000150309 0)
(0.0948533 0.000158477 0)
(0.0947805 0.000168794 0)
(0.0947041 0.000181612 0)
(0.094623 0.000197336 0)
(0.094536 0.00021644 0)
(0.0944418 0.000239485 0)
(0.0943391 0.000267136 0)
(0.094226 0.000300189 0)
(0.0941009 0.000339605 0)
(0.0939614 0.000386552 0)
(0.0938053 0.000442458 0)
(0.0936298 0.000509086 0)
(0.0934316 0.000588628 0)
(0.0932071 0.000683829 0)
(0.092952 0.000798159 0)
(0.0926613 0.000936043 0)
(0.0923291 0.00110318 0)
(0.0919487 0.00130696 0)
(0.0915123 0.00155709 0)
(0.0910107 0.00186643 0)
(0.0904341 0.00225211 0)
(0.0897713 0.0027371 0)
(0.0890114 0.00335225 0)
(0.0881451 0.00413872 0)
(0.0871682 0.0051504 0)
(0.0860878 0.00645486 0)
(0.084934 0.008129 0)
(0.0837761 0.0102409 0)
(0.0827466 0.0128027 0)
(0.0820677 0.0156551 0)
(0.0820147 0.018215 0)
(0.100001 4.46618e-06 0)
(0.0999929 2.64431e-05 0)
(0.0999562 6.46557e-05 0)
(0.0998789 0.000109413 0)
(0.0997612 0.000147926 0)
(0.0996143 0.000171756 0)
(0.0994539 0.000179889 0)
(0.0992929 0.000176869 0)
(0.099139 0.000168915 0)
(0.0989944 0.000160949 0)
(0.0988582 0.000155541 0)
(0.0987279 0.000153266 0)
(0.0986013 0.000153588 0)
(0.0984766 0.000155615 0)
(0.0983529 0.000158544 0)
(0.0982297 0.000161818 0)
(0.0981069 0.000165115 0)
(0.0979845 0.000168283 0)
(0.0978627 0.000171267 0)
(0.0977415 0.00017406 0)
(0.0976212 0.000176668 0)
(0.0975018 0.000179099 0)
(0.0973835 0.000181352 0)
(0.0972664 0.000183416 0)
(0.0971507 0.000185276 0)
(0.0970364 0.000186907 0)
(0.0969238 0.000188286 0)
(0.0968129 0.000189386 0)
(0.0967039 0.000190183 0)
(0.0965969 0.000190659 0)
(0.0964922 0.000190802 0)
(0.0963898 0.000190609 0)
(0.0962899 0.000190087 0)
(0.0961925 0.000189255 0)
(0.0960978 0.000188146 0)
(0.0960057 0.000186806 0)
(0.0959165 0.000185294 0)
(0.0958299 0.000183685 0)
(0.095746 0.000182066 0)
(0.0956647 0.000180542 0)
(0.0955858 0.000179227 0)
(0.0955091 0.000178257 0)
(0.0954344 0.00017778 0)
(0.0953615 0.000177959 0)
(0.0952899 0.000178976 0)
(0.0952192 0.00018103 0)
(0.095149 0.000184344 0)
(0.0950788 0.000189164 0)
(0.095008 0.000195764 0)
(0.0949359 0.000204451 0)
(0.0948618 0.000215572 0)
(0.0947849 0.000229522 0)
(0.0947043 0.000246752 0)
(0.094619 0.000267787 0)
(0.0945279 0.000293237 0)
(0.0944299 0.000323818 0)
(0.0943235 0.000360376 0)
(0.0942074 0.000403922 0)
(0.0940798 0.000455666 0)
(0.0939388 0.000517067 0)
(0.0937825 0.000589902 0)
(0.0936084 0.000676341 0)
(0.0934139 0.000779054 0)
(0.093196 0.000901351 0)
(0.0929515 0.00104736 0)
(0.0926766 0.00122225 0)
(0.0923673 0.00143257 0)
(0.0920192 0.00168664 0)
(0.0916277 0.00199505 0)
(0.0911884 0.00237144 0)
(0.0906973 0.00283324 0)
(0.0901519 0.00340282 0)
(0.0895528 0.00410845 0)
(0.0889059 0.00498519 0)
(0.0882262 0.00607465 0)
(0.0875441 0.00742205 0)
(0.0869117 0.00906733 0)
(0.0864119 0.0110245 0)
(0.08616 0.013241 0)
(0.0862895 0.0155303 0)
(0.0868779 0.0174856 0)
(0.100001 5.09724e-06 0)
(0.0999948 3.19698e-05 0)
(0.0999626 7.91752e-05 0)
(0.0998922 0.000134967 0)
(0.0997828 0.000183551 0)
(0.0996438 0.000214277 0)
(0.0994893 0.000225577 0)
(0.0993319 0.000222816 0)
(0.0991796 0.000213578 0)
(0.0990352 0.000203977 0)
(0.0988985 0.000197294 0)
(0.0987677 0.000194356 0)
(0.0986408 0.000194586 0)
(0.0985162 0.000196938 0)
(0.098393 0.000200444 0)
(0.0982707 0.000204419 0)
(0.0981489 0.00020846 0)
(0.0980278 0.000212372 0)
(0.0979073 0.000216078 0)
(0.0977875 0.000219564 0)
(0.0976687 0.000222835 0)
(0.0975508 0.000225896 0)
(0.097434 0.000228743 0)
(0.0973184 0.000231366 0)
(0.0972041 0.000233742 0)
(0.0970912 0.000235845 0)
(0.0969799 0.000237643 0)
(0.0968703 0.000239107 0)
(0.0967625 0.000240207 0)
(0.0966566 0.000240923 0)
(0.0965527 0.00024124 0)
(0.096451 0.000241157 0)
(0.0963516 0.000240684 0)
(0.0962546 0.000239846 0)
(0.0961599 0.000238685 0)
(0.0960677 0.000237258 0)
(0.095978 0.000235641 0)
(0.0958907 0.000233927 0)
(0.0958058 0.000232225 0)
(0.0957231 0.000230666 0)
(0.0956426 0.000229395 0)
(0.095564 0.000228579 0)
(0.095487 0.000228401 0)
(0.0954115 0.000229065 0)
(0.095337 0.000230798 0)
(0.0952632 0.000233848 0)
(0.0951896 0.000238488 0)
(0.0951157 0.000245024 0)
(0.095041 0.000253794 0)
(0.0949648 0.000265175 0)
(0.0948865 0.000279593 0)
(0.0948054 0.00029753 0)
(0.0947205 0.000319538 0)
(0.094631 0.000346251 0)
(0.094536 0.000378404 0)
(0.0944343 0.000416857 0)
(0.0943248 0.00046262 0)
(0.0942061 0.000516888 0)
(0.094077 0.000581082 0)
(0.0939358 0.000656904 0)
(0.0937808 0.000746402 0)
(0.0936103 0.000852049 0)
(0.0934222 0.000976854 0)
(0.0932145 0.00112448 0)
(0.092985 0.00129944 0)
(0.0927313 0.00150724 0)
(0.0924514 0.00175472 0)
(0.0921433 0.0020503 0)
(0.0918056 0.0024044 0)
(0.091438 0.00282987 0)
(0.0910419 0.00334242 0)
(0.0906215 0.00396105 0)
(0.0901853 0.0047082 0)
(0.0897484 0.00560922 0)
(0.0893352 0.00669061 0)
(0.088983 0.00797564 0)
(0.0887445 0.0094755 0)
(0.0886883 0.0111735 0)
(0.0888927 0.0130008 0)
(0.0894231 0.0148062 0)
(0.0902814 0.0163381 0)
(0.100002 5.48001e-06 0)
(0.0999969 3.69411e-05 0)
(0.0999697 9.29389e-05 0)
(0.0999075 0.000159874 0)
(0.0998079 0.000219037 0)
(0.0996783 0.000257463 0)
(0.0995312 0.00027281 0)
(0.0993784 0.000271053 0)
(0.0992283 0.000261027 0)
(0.0990844 0.000250033 0)
(0.0989475 0.000242118 0)
(0.0988163 0.000238445 0)
(0.0986893 0.000238466 0)
(0.098565 0.000241023 0)
(0.0984424 0.000245006 0)
(0.0983211 0.00024961 0)
(0.0982007 0.000254351 0)
(0.0980812 0.000258984 0)
(0.0979624 0.000263407 0)
(0.0978445 0.000267594 0)
(0.0977275 0.000271543 0)
(0.0976115 0.000275255 0)
(0.0974967 0.000278726 0)
(0.097383 0.000281939 0)
(0.0972706 0.00028487 0)
(0.0971596 0.000287487 0)
(0.0970501 0.000289755 0)
(0.0969421 0.000291639 0)
(0.0968359 0.000293106 0)
(0.0967314 0.000294134 0)
(0.0966289 0.000294709 0)
(0.0965283 0.00029483 0)
(0.0964298 0.00029451 0)
(0.0963334 0.000293784 0)
(0.0962391 0.000292701 0)
(0.096147 0.000291332 0)
(0.0960571 0.000289769 0)
(0.0959694 0.000288124 0)
(0.0958836 0.00028653 0)
(0.0957998 0.000285142 0)
(0.0957178 0.000284135 0)
(0.0956373 0.000283709 0)
(0.0955582 0.000284084 0)
(0.0954802 0.000285504 0)
(0.0954029 0.000288238 0)
(0.0953259 0.000292582 0)
(0.0952489 0.000298864 0)
(0.0951714 0.000307442 0)
(0.0950929 0.000318718 0)
(0.0950128 0.000333136 0)
(0.0949305 0.000351196 0)
(0.0948452 0.000373462 0)
(0.0947564 0.000400574 0)
(0.0946632 0.000433267 0)
(0.0945647 0.000472384 0)
(0.0944601 0.000518906 0)
(0.0943483 0.000573975 0)
(0.0942284 0.000638932 0)
(0.0940992 0.000715357 0)
(0.0939595 0.000805117 0)
(0.0938081 0.000910434 0)
(0.0936439 0.00103395 0)
(0.0934655 0.00117884 0)
(0.0932717 0.00134888 0)
(0.0930615 0.00154862 0)
(0.0928342 0.00178351 0)
(0.0925892 0.00206008 0)
(0.092327 0.00238613 0)
(0.0920489 0.00277093 0)
(0.0917578 0.00322537 0)
(0.0914588 0.00376206 0)
(0.0911605 0.0043952 0)
(0.0908755 0.00514013 0)
(0.0906224 0.00601215 0)
(0.0904271 0.00702435 0)
(0.0903239 0.00818355 0)
(0.0903555 0.00948381 0)
(0.0905701 0.010897 0)
(0.091013 0.0123609 0)
(0.0917104 0.0137698 0)
(0.0926426 0.0149762 0)
(0.100002 5.55907e-06 0)
(0.099999 4.11534e-05 0)
(0.0999773 0.000105544 0)
(0.099924 0.00018356 0)
(0.0998353 0.000253747 0)
(0.0997163 0.000300747 0)
(0.0995777 0.000321187 0)
(0.0994307 0.000321378 0)
(0.0992835 0.000311233 0)
(0.0991408 0.000299201 0)
(0.0990039 0.000290157 0)
(0.0988726 0.000285686 0)
(0.0987457 0.00028536 0)
(0.0986219 0.00028797 0)
(0.0985004 0.000292297 0)
(0.0983804 0.000297428 0)
(0.0982617 0.000302799 0)
(0.098144 0.000308108 0)
(0.0980273 0.000313227 0)
(0.0979116 0.000318107 0)
(0.0977969 0.000322739 0)
(0.0976833 0.000327118 0)
(0.0975708 0.000331234 0)
(0.0974594 0.000335067 0)
(0.0973494 0.000338588 0)
(0.0972406 0.000341763 0)
(0.0971333 0.000344552 0)
(0.0970274 0.000346916 0)
(0.0969232 0.000348822 0)
(0.0968205 0.000350245 0)
(0.0967197 0.000351173 0)
(0.0966205 0.000351607 0)
(0.0965233 0.000351567 0)
(0.0964279 0.000351092 0)
(0.0963344 0.000350245 0)
(0.0962427 0.00034911 0)
(0.0961529 0.000347793 0)
(0.096065 0.000346427 0)
(0.0959787 0.000345168 0)
(0.0958939 0.000344195 0)
(0.0958106 0.000343716 0)
(0.0957285 0.000343959 0)
(0.0956475 0.00034518 0)
(0.0955671 0.000347663 0)
(0.0954872 0.000351719 0)
(0.0954074 0.000357688 0)
(0.0953273 0.000365948 0)
(0.0952464 0.00037691 0)
(0.0951644 0.000391032 0)
(0.0950807 0.00040882 0)
(0.0949947 0.000430839 0)
(0.094906 0.000457725 0)
(0.0948139 0.000490192 0)
(0.0947176 0.000529055 0)
(0.0946166 0.000575245 0)
(0.0945102 0.000629831 0)
(0.0943975 0.000694048 0)
(0.0942778 0.000769329 0)
(0.0941504 0.00085734 0)
(0.0940144 0.000960028 0)
(0.0938692 0.00107967 0)
(0.0937141 0.00121893 0)
(0.0935486 0.00138094 0)
(0.0933724 0.00156935 0)
(0.0931856 0.00178843 0)
(0.0929887 0.00204316 0)
(0.0927827 0.0023393 0)
(0.0925697 0.00268343 0)
(0.0923532 0.00308303 0)
(0.0921381 0.00354638 0)
(0.0919317 0.00408239 0)
(0.0917443 0.00470022 0)
(0.0915895 0.00540855 0)
(0.0914855 0.00621432 0)
(0.0914547 0.00712086 0)
(0.0915243 0.00812499 0)
(0.0917244 0.00921317 0)
(0.0920851 0.0103568 0)
(0.0926297 0.0115078 0)
(0.0933654 0.0125971 0)
(0.0942706 0.0135405 0)
(0.100002 5.2933e-06 0)
(0.100001 4.44443e-05 0)
(0.0999848 0.00011665 0)
(0.0999405 0.000205516 0)
(0.0998632 0.000287084 0)
(0.0997557 0.00034356 0)
(0.0996267 0.00037026 0)
(0.0994862 0.000373509 0)
(0.0993429 0.000364072 0)
(0.0992021 0.000351476 0)
(0.099066 0.000341471 0)
(0.0989351 0.000336167 0)
(0.0988086 0.000335354 0)
(0.0986857 0.000337846 0)
(0.0985654 0.000342358 0)
(0.0984471 0.000347887 0)
(0.0983304 0.000353792 0)
(0.098215 0.000359716 0)
(0.0981007 0.00036549 0)
(0.0979876 0.000371045 0)
(0.0978755 0.000376355 0)
(0.0977646 0.000381407 0)
(0.0976547 0.000386184 0)
(0.0975461 0.000390662 0)
(0.0974387 0.000394808 0)
(0.0973325 0.000398583 0)
(0.0972277 0.000401946 0)
(0.0971243 0.000404856 0)
(0.0970224 0.000407279 0)
(0.096922 0.000409191 0)
(0.0968231 0.00041058 0)
(0.0967258 0.000411453 0)
(0.0966301 0.000411836 0)
(0.096536 0.000411777 0)
(0.0964435 0.000411349 0)
(0.0963526 0.000410649 0)
(0.0962632 0.000409802 0)
(0.0961752 0.000408958 0)
(0.0960886 0.000408295 0)
(0.0960033 0.000408019 0)
(0.095919 0.000408362 0)
(0.0958355 0.000409586 0)
(0.0957528 0.000411979 0)
(0.0956704 0.00041586 0)
(0.0955882 0.000421579 0)
(0.0955059 0.000429519 0)
(0.095423 0.000440099 0)
(0.0953392 0.00045378 0)
(0.0952542 0.000471068 0)
(0.0951675 0.00049252 0)
(0.0950786 0.000518755 0)
(0.0949871 0.000550463 0)
(0.0948926 0.000588417 0)
(0.0947944 0.000633486 0)
(0.0946921 0.000686655 0)
(0.0945852 0.000749044 0)
(0.0944732 0.00082193 0)
(0.0943556 0.000906775 0)
(0.094232 0.00100525 0)
(0.0941021 0.00111929 0)
(0.0939656 0.0012511 0)
(0.0938224 0.0014032 0)
(0.0936729 0.0015785 0)
(0.0935174 0.00178029 0)
(0.093357 0.0020123 0)
(0.093193 0.00227872 0)
(0.0930279 0.0025842 0)
(0.0928647 0.00293379 0)
(0.0927081 0.00333288 0)
(0.0925641 0.00378698 0)
(0.0924405 0.00430145 0)
(0.0923475 0.00488103 0)
(0.0922977 0.00552909 0)
(0.0923061 0.00624671 0)
(0.0923904 0.00703127 0)
(0.0925696 0.00787484 0)
(0.092863 0.00876223 0)
(0.0932875 0.00966916 0)
(0.0938536 0.0105613 0)
(0.0945602 0.0113952 0)
(0.09539 0.0121229 0)
(0.100002 4.66465e-06 0)
(0.100003 4.67169e-05 0)
(0.0999917 0.000126031 0)
(0.0999562 0.000225363 0)
(0.0998901 0.000318559 0)
(0.0997943 0.000385378 0)
(0.0996754 0.000419561 0)
(0.0995425 0.000427084 0)
(0.099404 0.000419309 0)
(0.099266 0.000406736 0)
(0.0991314 0.000396021 0)
(0.0990015 0.000389895 0)
(0.0988761 0.000388472 0)
(0.0987545 0.000390672 0)
(0.0986358 0.000395196 0)
(0.0985196 0.000400978 0)
(0.0984051 0.000407305 0)
(0.0982923 0.000413764 0)
(0.0981807 0.000420142 0)
(0.0980704 0.000426341 0)
(0.0979612 0.000432316 0)
(0.0978532 0.000438041 0)
(0.0977464 0.000443491 0)
(0.0976407 0.000448636 0)
(0.0975362 0.00045344 0)
(0.097433 0.000457861 0)
(0.097331 0.000461856 0)
(0.0972303 0.000465384 0)
(0.097131 0.00046841 0)
(0.0970329 0.000470914 0)
(0.0969363 0.000472887 0)
(0.096841 0.000474341 0)
(0.0967471 0.00047531 0)
(0.0966546 0.000475851 0)
(0.0965633 0.000476048 0)
(0.0964733 0.000476013 0)
(0.0963846 0.000475884 0)
(0.0962969 0.000475833 0)
(0.0962103 0.000476056 0)
(0.0961245 0.000476782 0)
(0.0960395 0.000478271 0)
(0.095955 0.000480809 0)
(0.0958709 0.000484716 0)
(0.0957869 0.000490343 0)
(0.0957028 0.000498072 0)
(0.0956184 0.000508323 0)
(0.0955332 0.000521552 0)
(0.0954472 0.000538256 0)
(0.0953598 0.00055898 0)
(0.0952708 0.000584321 0)
(0.0951799 0.000614934 0)
(0.0950866 0.000651544 0)
(0.0949907 0.000694955 0)
(0.0948919 0.000746064 0)
(0.0947897 0.000805872 0)
(0.0946839 0.000875503 0)
(0.0945743 0.000956221 0)
(0.0944607 0.00104945 0)
(0.0943431 0.00115678 0)
(0.0942214 0.00128003 0)
(0.094096 0.00142122 0)
(0.0939673 0.00158259 0)
(0.0938361 0.00176666 0)
(0.0937035 0.00197619 0)
(0.0935711 0.00221418 0)
(0.093441 0.00248386 0)
(0.0933164 0.00278859 0)
(0.0932009 0.00313182 0)
(0.0930995 0.00351689 0)
(0.0930182 0.00394681 0)
(0.0929644 0.00442399 0)
(0.0929471 0.00494978 0)
(0.0929764 0.00552395 0)
(0.0930639 0.00614403 0)
(0.093222 0.00680454 0)
(0.093463 0.0074962 0)
(0.0937981 0.00820519 0)
(0.0942357 0.00891271 0)
(0.0947793 0.00959524 0)
(0.0954251 0.0102258 0)
(0.0961603 0.010777 0)
(0.100002 3.68087e-06 0)
(0.100005 4.79548e-05 0)
(0.0999976 0.000133598 0)
(0.0999701 0.000242901 0)
(0.0999145 0.000347843 0)
(0.09983 0.000425783 0)
(0.0997214 0.000468638 0)
(0.0995967 0.000481689 0)
(0.0994641 0.000476607 0)
(0.0993298 0.000464737 0)
(0.0991978 0.000453647 0)
(0.0990697 0.000446774 0)
(0.098946 0.000444658 0)
(0.0988261 0.000446415 0)
(0.0987096 0.000450784 0)
(0.0985956 0.000456669 0)
(0.0984838 0.0004633 0)
(0.0983737 0.000470205 0)
(0.0982651 0.000477127 0)
(0.0981578 0.000483932 0)
(0.0980518 0.000490553 0)
(0.097947 0.000496948 0)
(0.0978433 0.000503083 0)
(0.0977408 0.000508919 0)
(0.0976394 0.000514417 0)
(0.0975392 0.000519534 0)
(0.0974402 0.000524224 0)
(0.0973424 0.000528448 0)
(0.0972457 0.000532176 0)
(0.0971503 0.000535387 0)
(0.097056 0.000538081 0)
(0.0969629 0.000540275 0)
(0.0968709 0.000542011 0)
(0.0967801 0.000543355 0)
(0.0966902 0.000544404 0)
(0.0966013 0.000545282 0)
(0.0965134 0.000546144 0)
(0.0964262 0.000547175 0)
(0.0963397 0.000548593 0)
(0.0962538 0.000550647 0)
(0.0961683 0.000553616 0)
(0.0960831 0.000557812 0)
(0.095998 0.00056358 0)
(0.0959128 0.000571295 0)
(0.0958273 0.000581368 0)
(0.0957412 0.000594244 0)
(0.0956545 0.000610408 0)
(0.0955668 0.000630383 0)
(0.0954778 0.000654737 0)
(0.0953875 0.000684089 0)
(0.0952954 0.000719113 0)
(0.0952015 0.000760544 0)
(0.0951055 0.00080919 0)
(0.0950073 0.000865938 0)
(0.0949067 0.000931766 0)
(0.0948037 0.00100775 0)
(0.0946982 0.00109509 0)
(0.0945905 0.0011951 0)
(0.0944808 0.00130923 0)
(0.0943694 0.00143906 0)
(0.0942571 0.00158633 0)
(0.0941446 0.00175292 0)
(0.0940332 0.00194083 0)
(0.0939244 0.00215218 0)
(0.0938203 0.00238917 0)
(0.0937234 0.00265399 0)
(0.0936369 0.00294878 0)
(0.0935647 0.00327546 0)
(0.0935113 0.00363563 0)
(0.0934824 0.00403031 0)
(0.0934843 0.00445972 0)
(0.0935238 0.00492298 0)
(0.0936089 0.00541774 0)
(0.0937475 0.00593987 0)
(0.0939476 0.00648303 0)
(0.0942166 0.00703847 0)
(0.0945601 0.00759484 0)
(0.0949818 0.0081383 0)
(0.0954816 0.00865309 0)
(0.0960551 0.00912251 0)
(0.096693 0.00953051 0)
(0.100002 2.37415e-06 0)
(0.100006 4.82218e-05 0)
(0.100002 0.000139414 0)
(0.0999815 0.000258123 0)
(0.0999353 0.0003748 0)
(0.0998614 0.000464492 0)
(0.099763 0.0005171 0)
(0.0996469 0.000536886 0)
(0.0995208 0.000535548 0)
(0.0993914 0.000525126 0)
(0.0992628 0.000514077 0)
(0.0991375 0.00050661 0)
(0.0990161 0.000503781 0)
(0.0988986 0.000504982 0)
(0.0987845 0.000509055 0)
(0.0986733 0.000514907 0)
(0.0985643 0.000521726 0)
(0.0984572 0.000528989 0)
(0.0983517 0.000536392 0)
(0.0982477 0.000543765 0)
(0.0981449 0.000551014 0)
(0.0980434 0.000558077 0)
(0.097943 0.000564909 0)
(0.0978437 0.000571465 0)
(0.0977456 0.000577701 0)
(0.0976485 0.00058357 0)
(0.0975525 0.00058903 0)
(0.0974576 0.000594043 0)
(0.0973637 0.000598581 0)
(0.0972709 0.000602632 0)
(0.097179 0.000606198 0)
(0.0970881 0.000609306 0)
(0.0969981 0.000612006 0)
(0.0969089 0.000614375 0)
(0.0968206 0.00061652 0)
(0.0967329 0.000618576 0)
(0.0966458 0.000620713 0)
(0.0965593 0.00062313 0)
(0.0964732 0.000626061 0)
(0.0963873 0.00062977 0)
(0.0963017 0.000634555 0)
(0.096216 0.000640746 0)
(0.0961303 0.000648704 0)
(0.0960443 0.000658826 0)
(0.0959578 0.000671539 0)
(0.0958708 0.000687306 0)
(0.0957831 0.000706626 0)
(0.0956945 0.000730033 0)
(0.0956048 0.000758105 0)
(0.095514 0.000791462 0)
(0.0954219 0.000830771 0)
(0.0953285 0.000876755 0)
(0.0952337 0.000930192 0)
(0.0951375 0.000991925 0)
(0.09504 0.00106287 0)
(0.0949413 0.00114401 0)
(0.0948417 0.00123641 0)
(0.0947415 0.00134123 0)
(0.0946413 0.00145969 0)
(0.0945418 0.0015931 0)
(0.0944438 0.00174285 0)
(0.0943486 0.00191035 0)
(0.0942575 0.00209708 0)
(0.0941724 0.00230447 0)
(0.0940955 0.00253391 0)
(0.0940293 0.00278665 0)
(0.093977 0.00306371 0)
(0.093942 0.0033658 0)
(0.0939286 0.00369315 0)
(0.0939411 0.00404538 0)
(0.0939845 0.00442131 0)
(0.094064 0.0048188 0)
(0.0941851 0.00523455 0)
(0.0943528 0.00566396 0)
(0.094572 0.00610104 0)
(0.0948464 0.00653832 0)
(0.0951786 0.00696703 0)
(0.0955693 0.00737731 0)
(0.096017 0.00775867 0)
(0.0965177 0.00810065 0)
(0.0970645 0.00839371 0)
(0.100002 7.94137e-07 0)
(0.100006 4.76446e-05 0)
(0.100006 0.00014366 0)
(0.0999903 0.00027119 0)
(0.0999521 0.000399478 0)
(0.0998877 0.000501376 0)
(0.0997989 0.000564643 0)
(0.0996915 0.000592252 0)
(0.0995726 0.000595672 0)
(0.0994489 0.00058747 0)
(0.0993248 0.000576948 0)
(0.099203 0.00056912 0)
(0.0990848 0.000565634 0)
(0.0989702 0.000566227 0)
(0.0988591 0.000569905 0)
(0.0987507 0.000575614 0)
(0.0986448 0.000582522 0)
(0.0985409 0.000590065 0)
(0.0984387 0.000597894 0)
(0.098338 0.000605802 0)
(0.0982386 0.000613664 0)
(0.0981404 0.000621401 0)
(0.0980433 0.000628952 0)
(0.0979473 0.000636266 0)
(0.0978524 0.000643293 0)
(0.0977584 0.000649986 0)
(0.0976654 0.000656303 0)
(0.0975734 0.000662211 0)
(0.0974822 0.000667687 0)
(0.0973919 0.000672722 0)
(0.0973025 0.000677329 0)
(0.0972137 0.000681541 0)
(0.0971257 0.000685418 0)
(0.0970382 0.000689045 0)
(0.0969513 0.00069254 0)
(0.0968649 0.000696049 0)
(0.0967788 0.000699752 0)
(0.096693 0.00070386 0)
(0.0966074 0.000708617 0)
(0.0965218 0.000714301 0)
(0.0964362 0.00072122 0)
(0.0963505 0.000729716 0)
(0.0962645 0.000740162 0)
(0.0961781 0.000752963 0)
(0.0960914 0.000768553 0)
(0.096004 0.000787401 0)
(0.095916 0.000810005 0)
(0.0958273 0.000836896 0)
(0.0957379 0.000868641 0)
(0.0956476 0.00090584 0)
(0.0955566 0.000949132 0)
(0.0954649 0.000999196 0)
(0.0953725 0.00105675 0)
(0.0952797 0.00112256 0)
(0.0951866 0.00119744 0)
(0.0950937 0.00128223 0)
(0.0950013 0.00137784 0)
(0.09491 0.0014852 0)
(0.0948205 0.00160529 0)
(0.0947338 0.00173909 0)
(0.0946508 0.00188758 0)
(0.094573 0.00205175 0)
(0.0945019 0.00223249 0)
(0.0944392 0.00243062 0)
(0.0943872 0.0026468 0)
(0.0943482 0.00288148 0)
(0.094325 0.00313482 0)
(0.0943206 0.00340659 0)
(0.0943383 0.00369611 0)
(0.0943816 0.00400213 0)
(0.094454 0.00432272 0)
(0.0945592 0.00465521 0)
(0.0947006 0.00499612 0)
(0.0948812 0.00534111 0)
(0.0951036 0.005685 0)
(0.0953695 0.00602185 0)
(0.0956794 0.00634512 0)
(0.0960328 0.00664789 0)
(0.0964277 0.00692321 0)
(0.0968605 0.00716444 0)
(0.0973263 0.00736577 0)
(0.100002 -1.00221e-06 0)
(0.100007 4.63859e-05 0)
(0.100008 0.000146599 0)
(0.0999967 0.000282391 0)
(0.099965 0.00042207 0)
(0.0999087 0.000536444 0)
(0.0998288 0.000611066 0)
(0.0997299 0.000647422 0)
(0.0996187 0.000656522 0)
(0.0995013 0.000651302 0)
(0.0993824 0.00064184 0)
(0.0992651 0.00063396 0)
(0.0991506 0.000629948 0)
(0.0990396 0.000629954 0)
(0.0989317 0.000633192 0)
(0.0988267 0.000638689 0)
(0.0987241 0.000645617 0)
(0.0986235 0.000653382 0)
(0.0985247 0.000661596 0)
(0.0984273 0.000670017 0)
(0.0983313 0.000678491 0)
(0.0982364 0.000686918 0)
(0.0981426 0.000695223 0)
(0.0980499 0.000703346 0)
(0.0979581 0.000711233 0)
(0.0978671 0.000718837 0)
(0.0977771 0.000726116 0)
(0.0976878 0.000733043 0)
(0.0975993 0.000739598 0)
(0.0975115 0.000745783 0)
(0.0974242 0.000751614 0)
(0.0973376 0.000757135 0)
(0.0972514 0.000762412 0)
(0.0971656 0.000767541 0)
(0.0970802 0.000772646 0)
(0.096995 0.000777882 0)
(0.0969099 0.000783436 0)
(0.096825 0.000789528 0)
(0.09674 0.000796408 0)
(0.096655 0.00080436 0)
(0.0965697 0.000813698 0)
(0.0964843 0.000824767 0)
(0.0963985 0.000837941 0)
(0.0963123 0.000853624 0)
(0.0962257 0.000872247 0)
(0.0961387 0.000894267 0)
(0.0960512 0.00092017 0)
(0.0959633 0.000950464 0)
(0.095875 0.000985686 0)
(0.0957863 0.0010264 0)
(0.0956975 0.00107318 0)
(0.0956085 0.00112664 0)
(0.0955198 0.00118742 0)
(0.0954316 0.00125617 0)
(0.0953442 0.00133355 0)
(0.0952582 0.00142028 0)
(0.0951741 0.00151703 0)
(0.0950926 0.00162451 0)
(0.0950145 0.00174341 0)
(0.094941 0.00187437 0)
(0.094873 0.00201801 0)
(0.094812 0.00217486 0)
(0.0947594 0.00234532 0)
(0.0947171 0.00252967 0)
(0.0946869 0.00272799 0)
(0.0946708 0.0029401 0)
(0.0946713 0.00316554 0)
(0.0946906 0.00340349 0)
(0.0947312 0.00365272 0)
(0.0947957 0.00391154 0)
(0.0948866 0.00417776 0)
(0.095006 0.00444867 0)
(0.095156 0.004721 0)
(0.0953381 0.00499103 0)
(0.0955536 0.00525453 0)
(0.0958028 0.00550698 0)
(0.0960853 0.0057436 0)
(0.0964001 0.0059596 0)
(0.0967451 0.00615034 0)
(0.0971174 0.00631157 0)
(0.0975132 0.00643965 0)
(0.100002 -2.95873e-06 0)
(0.100007 4.46159e-05 0)
(0.100009 0.000148523 0)
(0.100001 0.000292074 0)
(0.0999743 0.000442866 0)
(0.0999249 0.000569817 0)
(0.099853 0.000656273 0)
(0.0997623 0.000702105 0)
(0.0996588 0.000717683 0)
(0.0995482 0.000716161 0)