/*--------------------------------*- C++ -*----------------------------------*\
| =========                 |                                                 |
| \\      /  F ield         | OpenFOAM: The Open Source CFD Toolbox           |
|  \\    /   O peration     | Version:  5.x                                   |
|   \\  /    A nd           | Web:      www.OpenFOAM.org                      |
|    \\/     M anipulation  |                                                 |
\*---------------------------------------------------------------------------*/
FoamFile
{
    version     2.0;
    format      ascii;
    class       volScalarField;
    location    "4.1";
    object      p;
}
// * * * * * * * * * * * * * * * * * * * * * * * * * * * * * * * * * * * * * //

dimensions      [0 2 -2 0 0 0 0];

internalField   nonuniform List<scalar> 
2790
(
144.335
144.26
144.545
145.117
145.879
146.805
147.892
149.139
150.54
152.091
153.785
155.616
157.578
159.659
161.849
164.13
166.482
168.878
171.285
173.662
175.962
178.133
180.118
181.859
183.304
184.411
185.163
185.539
185.625
185.782
144.143
144.178
144.486
145.054
145.812
146.735
147.818
149.059
150.454
151.996
153.681
155.503
157.454
159.525
161.704
163.975
166.317
168.706
171.109
173.486
175.793
177.977
179.981
181.748
183.222
184.356
185.116
185.476
185.618
185.901
143.959
144.064
144.39
144.947
145.694
146.604
147.673
148.897
150.272
151.791
153.45
155.242
157.16
159.195
161.334
163.562
165.861
168.205
170.565
172.905
175.181
177.347
179.351
181.139
182.661
183.876
184.77
185.365
185.807
186.253
143.754
143.891
144.229
144.778
145.51
146.405
147.456
148.658
150.005
151.493
153.116
154.868
156.74
158.723
160.804
162.97
165.202
167.477
169.767
172.04
174.259
176.381
178.362
180.159
181.732
183.059
184.139
185.009
185.725
186.39
143.519
143.671
144.018
144.559
145.275
146.151
147.178
148.35
149.664
151.111
152.688
154.388
156.201
158.118
160.127
162.214
164.36
166.545
168.745
170.929
173.065
175.12
177.057
178.844
180.455
181.875
183.108
184.175
185.064
185.874
143.25
143.408
143.758
144.289
144.987
145.839
146.836
147.973
149.245
150.644
152.167
153.804
155.547
157.386
159.309
161.302
163.348
165.426
167.515
169.589
171.62
173.582
175.446
177.189
178.793
180.247
181.548
182.692
183.612
184.375
142.944
143.104
143.452
143.971
144.647
145.47
146.433
147.53
148.753
150.098
151.557
153.122
154.785
156.535
158.359
160.244
162.174
164.128
166.088
168.031
169.932
171.771
173.525
175.176
176.711
178.117
179.378
180.47
181.277
181.793
142.602
142.761
143.102
143.605
144.257
145.049
145.973
147.023
148.192
149.474
150.862
152.347
153.92
155.569
157.283
159.047
160.846
162.66
164.471
166.259
168.003
169.683
171.283
172.785
174.177
175.441
176.552
177.467
178.047
178.153
142.224
142.379
142.71
143.195
143.82
144.577
145.458
146.456
147.565
148.778
150.088
151.485
152.958
154.496
156.088
157.719
159.371
161.027
162.669
164.278
165.833
167.315
168.707
169.994
171.159
172.182
173.028
173.65
173.929
173.556
141.811
141.961
142.279
142.743
143.338
144.057
144.89
145.832
146.877
148.015
149.24
150.54
151.905
153.324
154.783
156.266
157.758
159.239
160.691
162.092
163.422
164.661
165.789
166.785
167.629
168.297
168.754
168.953
168.853
167.942
141.364
141.508
141.811
142.251
142.814
143.491
144.274
145.156
146.13
147.189
148.322
149.519
150.769
152.059
153.375
154.701
156.017
157.305
158.544
159.71
160.779
161.727
162.525
163.147
163.562
163.742
163.652
163.254
162.629
161.073
140.885
141.021
141.308
141.722
142.251
142.884
143.613
144.431
145.331
146.305
147.342
148.431
149.559
150.712
151.876
153.032
154.161
155.24
156.244
157.147
157.919
158.524
158.926
159.082
158.945
158.469
157.615
156.349
154.926
152.565
140.375
140.503
140.773
141.16
141.651
142.238
142.91
143.661
144.484
145.369
146.306
147.281
148.281
149.292
150.296
151.274
152.203
153.058
153.81
154.426
154.865
155.083
155.023
154.618
153.791
152.454
150.532
147.948
145.121
141.336
139.837
139.957
140.207
140.565
141.018
141.555
142.169
142.851
143.594
144.388
145.22
146.078
146.946
147.809
148.648
149.44
150.161
150.782
151.266
151.575
151.656
151.448
150.87
149.821
148.169
145.745
142.352
137.723
132.201
124.938
139.272
139.383
139.614
139.942
140.354
140.841
141.394
142.006
142.667
143.366
144.092
144.829
145.563
146.275
146.944
147.547
148.054
148.433
148.642
148.631
148.339
147.683
146.556
144.811
142.244
138.549
133.28
125.64
114.982
97.4565
5.80957
5.79901
5.72483
5.59636
5.43859
5.27507
5.12195
4.98849
4.87867
4.79181
4.72514
4.67289
4.62857
4.58565
4.53778
4.47892
4.40326
4.30518
4.17926
4.02044
3.82455
3.58795
3.30845
2.98622
2.62287
2.22058
1.78137
1.3086
0.80542
0.27683
5.81742
5.78064
5.69057
5.55669
5.40047
5.24138
5.0931
4.96417
4.85891
4.77782
4.71572
4.66741
4.62669
4.587
4.54199
4.48567
4.41229
4.31615
4.19166
4.03379
3.8388
3.60197
3.32134
2.9977
2.63298
2.2296
1.78889
1.31459
0.809072
0.27671
5.85687
5.76119
5.64751
5.50513
5.34911
5.19431
5.05162
4.92861
4.82931
4.75346
4.69764
4.65613
4.62217
4.58885
4.54969
4.49881
4.43053
4.33894
4.21793
4.06176
3.86681
3.62908
3.34633
3.02038
2.65324
2.24806
1.80448
1.32751
0.817841
0.278984
5.87308
5.73287
5.59876
5.44807
5.29202
5.14126
5.00427
4.88782
4.79585
4.72764
4.67883
4.64496
4.61901
4.5934
4.56154
4.51771
4.45623
4.37099
4.25573
4.1047
3.91112
3.67132
3.38653
3.05821
2.68771
2.27535
1.8249
1.34255
0.826108
0.280758
5.85654
5.69893
5.55325
5.39798
5.24299
5.09575
4.96323
4.85201
4.76551
4.7015
4.66036
4.63613
4.61918
4.60193
4.57821
4.54257
4.48906
4.41074
4.30074
4.15275
3.96101
3.72149
3.43642
3.10549
2.73043
2.31289
1.85741
1.36261
0.836688
0.282807
5.83575
5.67259
5.52368
5.36886
5.21619
5.07172
4.94136
4.83232
4.75363
4.69429
4.65384
4.63503
4.62446
4.61444
4.59879
4.57178
4.52691
4.45661
4.3535
4.21086
4.02279
3.78548
3.499
3.16387
2.78203
2.35602
1.88927
1.38414
0.847094
0.284917
5.82068
5.66627
5.52408
5.3719
5.22018
5.07642
4.94737
4.83951
4.75822
4.70008
4.66216
4.64366
4.63631
4.63212
4.62443
4.60677
4.57168
4.51092
4.41639
4.28061
4.09718
3.8619
3.57368
3.23326
2.84304
2.40639
1.92708
1.40858
0.858061
0.287539
5.8286
5.69865
5.56007
5.40569
5.2498
5.10206
4.97076
4.86182
4.77702
4.71445
4.67534
4.6572
4.65269
4.65445
4.65548
4.6484
4.62472
4.57534
4.4912
4.36374
4.18577
3.95237
3.66164
3.31441
2.91372
2.46397
1.9697
1.43531
0.870076
0.290592
5.89758
5.77055
5.62167
5.45481
5.28787
5.1318
4.99484
4.88112
4.79154
4.72761
4.68866
4.67153
4.67074
4.6797
4.69117
4.69681
4.68702
4.65153
4.58003
4.46264
4.29103
4.05932
3.76494
3.40889
2.99511
2.52927
2.01715
1.46453
0.883114
0.293845
6.00593
5.85724
5.68416
5.49645
5.31574
5.15199
5.00818
4.88961
4.7986
4.73469
4.69671
4.68217
4.68698
4.70545
4.7302
4.75188
4.7595
4.74129
4.68533
4.58012
4.41586
4.18555
3.88601
3.51854
3.0883
2.60263
2.06908
1.49543
0.896674
0.297276
6.10826
5.92325
5.72489
5.51646
5.31988
5.14652
5.00092
4.88237
4.79188
4.7296
4.69457
4.68488
4.69788
4.72911
4.77118
4.81346
4.84313
4.84653
4.80977
4.71938
4.56371
4.33441
4.02776
3.64557
3.19456
2.6844
2.12509
1.52718
0.909523
0.300102
6.16395
5.95875
5.72266
5.49102
5.28575
5.11132
4.96779
4.85269
4.76579
4.70775
4.67813
4.67576
4.6998
4.74781
4.8125
4.88137
4.939
4.96938
4.95636
4.88406
4.73855
4.50981
4.19359
3.79246
3.31524
2.77471
2.18436
1.55843
0.92025
0.301697
6.24331
5.93606
5.64323
5.39356
5.19267
5.03136
4.90123
4.79589
4.71626
4.66569
4.64417
4.65119
4.68888
4.75815
4.85222
4.95543
5.04835
5.11226
5.12857
5.07842
4.94502
4.71631
4.38743
3.96203
3.45172
2.87345
2.24554
1.58721
0.92707
0.301294
6.22637
5.70095
5.38608
5.18013
5.02319
4.89816
4.79883
4.71102
4.64101
4.60072
4.59029
4.60796
4.66052
4.75564
4.88779
5.03559
5.17274
5.27795
5.33039
5.30746
5.18862
4.95923
4.61381
4.15745
3.6054
2.9801
2.3065
1.61052
0.927332
0.297788
5.89935
5.00297
4.82028
4.81159
4.77053
4.71746
4.67772
4.61033
4.54075
4.50864
4.51428
4.54331
4.60906
4.73397
4.91592
5.12251
5.31437
5.4696
5.56643
5.57705
5.47583
5.24482
4.87795
4.38233
3.77769
3.09365
2.36406
1.62405
0.917171
0.289607
138.672
138.774
138.984
139.281
139.65
140.084
140.574
141.113
141.689
142.291
142.907
143.52
144.115
144.671
145.166
145.574
145.862
145.993
145.919
145.583
144.909
143.798
142.115
139.671
136.181
131.189
123.915
112.657
93.6809
40.4884
138.029
138.122
138.311
138.573
138.898
139.277
139.702
140.164
140.652
141.153
141.655
142.14
142.592
142.988
143.305
143.514
143.579
143.458
143.101
142.44
141.393
139.844
137.644
134.574
130.312
124.344
115.823
103.144
85.68
61.2662
137.349
137.432
137.598
137.826
138.104
138.427
138.784
139.167
139.564
139.963
140.348
140.704
141.01
141.245
141.383
141.392
141.236
140.869
140.236
139.268
137.874
135.938
133.305
129.766
125.027
118.69
110.27
99.1587
86.0695
71.8954
136.633
136.705
136.847
137.039
137.271
137.535
137.824
138.127
138.432
138.726
138.994
139.219
139.38
139.455
139.416
139.23
138.859
138.257
137.367
136.118
134.422
132.168
129.214
125.382
120.452
114.167
106.296
96.5548
84.9301
71.3312
135.881
135.943
136.061
136.216
136.4
136.605
136.824
137.046
137.259
137.449
137.6
137.695
137.713
137.631
137.42
137.047
136.474
135.654
134.531
133.038
131.093
128.597
125.429
121.451
116.503
110.417
103.036
94.1634
83.6458
71.8164
135.097
135.148
135.241
135.359
135.495
135.641
135.79
135.931
136.051
136.137
136.173
136.141
136.021
135.787
135.412
134.863
134.103
133.087
131.762
130.066
127.927
125.26
121.97
117.95
113.09
107.278
100.418
92.4364
83.3255
73.5369
134.282
134.322
134.39
134.471
134.558
134.645
134.725
134.785
134.815
134.799
134.723
134.568
134.314
133.936
133.408
132.698
131.77
130.582
129.087
127.23
124.949
122.175
118.836
114.856
110.16
104.686
98.3942
91.2842
83.3961
75.0693
133.439
133.468
133.512
133.555
133.594
133.623
133.634
133.616
133.556
133.442
133.258
132.986
132.605
132.093
131.424
130.569
129.493
128.16
126.527
124.548
122.172
119.347
116.019
112.136
107.655
102.547
96.8035
90.451
83.5344
76.3185
132.57
132.589
132.608
132.615
132.607
132.579
132.522
132.428
132.283
132.074
131.787
131.404
130.906
130.271
129.475
128.491
127.289
125.836
124.097
122.032
119.603
116.771
113.497
109.751
105.51
100.764
95.5252
89.8273
83.7205
77.4216
131.681
131.689
131.684
131.656
131.601
131.517
131.396
131.228
131.001
130.703
130.319
129.833
129.227
128.481
127.573
126.479
125.172
123.624
121.806
119.689
117.241
114.436
111.248
107.662
103.667
99.2698
94.4884
89.3621
83.9405
78.3978
130.774
130.772
130.743
130.68
130.581
130.444
130.261
130.023
129.718
129.336
128.862
128.282
127.579
126.734
125.729
124.542
123.15
121.531
119.661
117.517
115.078
112.325
109.245
105.829
102.08
98.0085
93.639
89.0094
84.165
79.2449
129.853
129.841
129.791
129.694
129.553
129.365
129.123
128.819
128.442
127.982
127.426
126.76
125.971
125.04
123.953
122.689
121.232
119.562
117.662
115.514
113.105
110.423
107.461
104.22
100.706
96.9358
92.9331
88.7335
84.3763
79.9735
128.924
128.903
128.831
128.703
128.522
128.285
127.989
127.623
127.18
126.648
126.018
125.277
124.411
123.407
122.251
120.928
119.422
117.72
115.807
113.674
111.31
108.71
105.873
102.804
99.5125
96.0158
92.338
88.5102
84.5664
80.5969
127.992
127.961
127.869
127.712
127.493
127.212
126.864
126.442
125.938
125.342
124.646
123.838
122.907
121.842
120.631
119.261
117.722
116.003
114.093
111.987
109.68
107.169
104.459
101.555
98.4693
95.22
91.8289
88.3231
84.7314
81.127
127.061
127.022
126.911
126.726
126.472
126.15
125.756
125.282
124.723
124.07
123.316
122.45
121.465
120.35
119.096
117.693
116.133
114.409
112.515
110.446
108.202
105.784
103.197
100.449
97.5533
94.5261
91.3874
88.1606
84.8699
81.5749
126.138
126.091
125.963
125.753
125.467
125.107
124.67
124.15
123.542
122.839
122.034
121.121
120.09
118.935
117.649
116.224
114.655
112.936
111.066
109.041
106.865
104.539
102.07
99.4681
96.7452
93.9164
90.9996
88.0148
84.9822
81.9508
125.228
125.174
125.03
124.797
124.482
124.088
123.613
123.053
122.402
121.655
120.808
119.853
118.786
117.601
116.292
114.854
113.284
111.58
109.739
107.764
105.655
103.42
101.063
98.596
96.0293
93.3771
90.6551
87.8803
85.0698
82.2639
124.338
124.278
124.12
123.865
123.524
123.1
122.592
121.995
121.307
120.524
119.641
118.653
117.558
116.35
115.026
113.584
112.02
110.335
108.529
106.604
104.564
102.415
100.163
97.8191
95.393
92.8975
90.3463
87.754
85.1349
82.5223
123.474
123.408
123.237
122.964
122.6
122.15
121.612
120.984
120.265
119.45
118.538
117.525
116.408
115.184
113.853
112.411
110.86
109.198
107.429
105.556
103.582
101.514
99.3591
97.1266
94.8264
92.4694
90.0678
87.6338
85.1799
82.7335
122.642
122.572
122.39
122.1
121.716
121.242
120.679
120.026
119.28
118.439
117.504
116.47
115.338
114.105
112.771
111.336
109.8
108.165
106.434
104.611
102.7
100.708
98.6415
96.5097
94.3215
92.0866
89.8156
87.5192
85.2078
82.9043
121.851
121.776
121.584
121.28
120.879
120.385
119.801
119.125
118.357
117.496
116.542
115.494
114.351
113.114
111.782
110.356
108.838
107.231
105.538
103.763
101.911
99.9887
98.0029
95.9613
93.8722
91.7445
89.5873
87.4099
85.2214
83.0408
121.107
121.028
120.827
120.511
120.094
119.584
118.982
118.287
117.502
116.625
115.657
114.598
113.449
112.211
110.884
109.471
107.973
106.393
104.737
103.007
101.21
99.3513
97.4375
95.4759
93.4741
91.4399
89.3815
87.3069
85.224
83.1488
120.417
120.335
120.127
119.8
119.37
118.845
118.228
117.519
116.719
115.83
114.852
113.787
112.635
111.398
110.079
108.679
107.201
105.649
104.027
102.34
100.592
98.7904
96.9406
95.0493
93.1236
91.1705
89.1972
87.2109
85.2183
83.2329
119.789
119.704
119.489
119.153
118.712
118.176
117.547
116.826
116.015
115.116
114.132
113.062
111.91
110.677
109.367
107.981
106.523
104.997
103.407
101.758
100.054
98.3031
96.5093
94.6792
92.8192
90.9358
89.0352
87.124
85.2081
83.299
119.231
119.143
118.922
118.578
118.128
117.582
116.943
116.212
115.393
114.488
113.499
112.427
111.277
110.049
108.747
107.375
105.936
104.434
102.872
101.257
99.5933
97.8857
96.1401
94.3624
92.5583
90.7337
88.8945
87.0463
85.1947
83.3489
118.752
118.661
118.433
118.081
117.623
117.07
116.423
115.686
114.861
113.951
112.959
111.887
110.739
109.517
108.225
106.866
105.444
103.962
102.426
100.841
99.2099
97.5394
95.8346
94.1007
92.3433
90.5677
88.7793
86.9833
85.1847
83.3916
118.36
118.265
118.03
117.67
117.205
116.644
115.992
115.249
114.42
113.507
112.513
111.443
110.298
109.081
107.798
106.45
105.042
103.579
102.064
100.503
98.8995
97.2594
95.5876
93.8891
92.169
90.4326
88.6846
86.9299
85.1731
83.4208
118.068
117.967
117.722
117.354
116.884
116.32
115.662
114.916
114.083
113.168
112.174
111.105
109.963
108.751
107.475
106.137
104.741
103.292
101.794
100.252
98.6709
97.0547
95.4086
93.7377
92.0469
90.3408
88.6242
86.9017
85.1778
83.4581
117.888
117.763
117.501
117.128
116.656
116.088
115.428
114.679
113.846
112.93
111.937
110.869
109.729
108.522
107.251
105.92
104.533
103.094
101.608
100.08
98.5129
96.9127
95.284
93.6314
91.9598
90.2736
88.5775
86.8757
85.1724
83.4724
117.883
117.689
117.399
117.021
116.546
115.975
115.313
114.562
113.727
112.812
111.819
110.752
109.615
108.411
107.144
105.818
104.438
103.006
101.528
100.008
98.4513
96.8617
95.2441
93.6033
91.9438
90.2701
88.5868
86.8978
85.2074
83.5195
-53.3011
-28.6598
-6.72387
41.7166
34.7442
23.1063
55.5521
43.5747
32.6315
55.8516
45.8841
38.3391
60.0226
52.1971
45.856
64.1377
57.6249
52.0842
67.1349
61.6031
56.8659
69.5312
64.8125
60.7739
71.5643
67.4951
64.0164
73.2825
69.7291
66.6979
74.7291
71.5927
68.9233
75.9496
73.1549
70.7807
76.9809
74.469
72.3377
77.8521
75.5765
73.6475
78.5877
76.5112
74.7522
79.2079
77.3007
75.6855
79.7295
77.967
76.4742
80.1668
78.5282
77.1401
80.5317
79
77.7016
80.835
79.3953
78.1739
81.0856
79.7253
78.57
81.2917
79.9997
78.9011
81.4598
80.2262
79.1759
81.5974
80.4136
79.4041
81.707
80.565
79.5898
81.7998
80.6923
79.7448
81.8673
80.7874
79.8628
81.9369
80.878
79.9694
81.9699
80.9261
80.0305
82.037
81.0068
80.1172
3.13995
2.01976
3.21204
4.32732
4.57733
4.53624
4.52823
4.46495
4.37541
4.36694
4.41984
4.46208
4.5295
4.68354
4.9315
5.21945
5.47859
5.69423
5.84691
5.90005
5.82082
5.58679
5.19181
4.6457
3.97376
3.21475
2.41475
1.62177
0.890778
0.274304
7.61933
3.97376
5.36792
5.53447
4.3093
3.77573
4.15667
4.44363
4.29345
4.27904
4.34511
4.3386
4.36341
4.54687
4.90235
5.31856
5.67464
5.96102
6.1857
6.29408
6.24299
6.00341
5.57082
4.95903
4.19963
3.34297
2.45207
1.59359
0.838557
0.247722
18.5718
10.2469
7.46456
5.1843
4.17204
4.669
5.57474
4.95111
3.74141
3.56997
3.99581
4.25156
4.24358
4.48231
4.93565
5.46439
5.91208
6.26437
6.58806
6.77053
6.7575
6.50799
6.02514
5.32899
4.45701
3.47319
2.46407
1.52377
0.746239
0.204252
28.2479
18.7315
12.934
9.02258
6.85499
5.93864
5.17904
4.07415
3.51071
4.17672
5.05713
4.56282
3.69063
3.63724
4.53168
5.65735
6.22448
6.67561
7.07382
7.35263
7.39116
7.11906
6.56673
5.76318
4.74766
3.59896
2.43548
1.3921
0.595962
0.135427
37.1045
27.779
20.6196
15.3127
11.5594
8.93358
6.95536
5.50799
4.72715
4.59819
4.30756
3.72383
3.36021
3.96916
5.40853
6.22624
6.41978
6.85657
7.47312
8.0451
8.16738
7.84706
7.20319
6.27114
5.07969
3.71988
2.35015
1.16798
0.360246
0.0291
44.6183
36.1844
28.5822
22.2902
17.3829
13.6431
10.8068
8.68422
7.14873
6.08382
5.23853
4.61809
4.33686
4.64184
5.31268
5.90223
6.65231
7.66281
8.68854
9.17065
9.10286
8.66182
7.91659
6.83659
5.43005
3.79511
2.14284
0.776125
-3.7589e-05
-0.135035
50.6975
43.3777
35.9633
29.3135
23.8076
19.3591
15.7796
12.9113
10.6548
8.94338
7.67248
6.7569
6.19833
6.0891
6.37796
6.90483
7.60231
8.40069
9.16477
9.65478
9.73245
9.34986
8.53044
7.28881
5.65258
3.73692
1.82141
0.305141
-0.386507
-0.379999
55.6338
49.3363
42.4624
35.9344
30.2571
25.4291
21.3378
17.9046
15.0834
12.8289
11.0657
9.72161
8.78813
8.30178
8.23275
8.45353
8.84186
9.32694
9.80847
10.1079
10.0592
9.58633
8.68415
7.35241
5.60782
3.57393
1.55751
-0.0178122
-0.75399
-0.712022
59.648
54.2032
47.9921
41.8472
36.289
31.3695
27.0345
23.259
20.0328
17.3331
15.1184
13.3505
12.0164
11.1148
10.6064
10.3978
10.3912
10.5054
10.632
10.6174
10.3196
9.66049
8.61548
7.18087
5.38827
3.3718
1.41654
-0.101222
-0.860137
-0.925329
62.9195
58.1675
52.6099
46.9528
41.6812
36.8714
32.5008
28.573
25.1021
22.0901
19.5239
17.3862
15.6635
14.3407
13.3819
12.7214
12.2793
11.9697
11.6888
11.3121
10.7233
9.84431
8.64012
7.11025
5.30211
3.35087
1.50196
0.0582347
-0.746019
-1.00076
65.608
61.4167
56.4463
51.2879
46.3742
41.7858
37.5143
33.576
29.9995
26.803
23.9909
21.5592
19.4996
17.7979
16.4257
15.3341
14.4573
13.718
13.027
12.2845
11.3954
10.289
8.92985
7.32101
5.51415
3.63076
1.86795
0.453826
-0.446418
-0.923765
67.8372
64.103
59.6391
54.9445
50.3995
46.0799
41.982
38.1257
34.5451
31.2662
28.3029
25.6601
23.336
21.3215
19.5955
18.1214
16.8477
15.7114
14.6397
13.5534
12.3763
11.0495
9.54207
7.85832
6.04529
4.2028
2.48085
1.04477
0.0112952
-0.697339
69.6983
66.3411
62.3078
58.0256
53.8296
49.7874
45.8955
42.1726
38.6527
35.3643
32.3258
29.5473
27.0322
24.776
22.7648
20.9721
19.3596
17.8785
16.4719
15.0783
13.6385
12.1058
10.455
8.68968
6.84809
5.00707
3.2764
1.77326
0.580429
-0.361324
71.2603
68.2174
64.5492
60.6268
56.7475
52.9708
49.2914
45.7249
42.3024
39.0521
35.9936
33.1396
30.4966
28.0644
25.8345
23.7892
21.9008
20.1332
18.4433
16.7848
15.1129
13.3916
11.6011
9.74344
7.84725
5.96868
4.1856
2.5795
1.20881
0.0335504
72.5764
69.7977
66.4397
62.829
59.2313
55.6991
52.2248
48.8202
45.5129
42.3289
39.2876
36.4022
33.6813
31.1275
28.7369
26.4982
24.3925
22.3938
20.4708
18.5892
16.7158
14.8238
12.8974
10.9373
8.96335
7.0148
5.14516
3.40995
1.84951
0.441172
73.6879
71.1326
68.0393
64.6978
61.3483
58.0367
54.7536
51.5072
48.3209
45.2184
42.2175
39.3315
36.5697
33.9368
31.4322
29.0495
26.7764
24.5949
22.4829
20.4157
18.3691
16.3232
14.2658
12.1961
10.1271
8.08464
6.1044
4.22293
2.46679
0.827155
74.6278
72.2621
69.3953
66.2867
63.1546
60.0401
56.9318
53.8346
50.7684
47.7538
44.8073
41.9412
39.1652
36.4849
33.9024
31.4147
29.0145
26.69
24.426
22.2051
20.01
17.8259
15.6435
13.4608
11.2855
9.13366
7.02777
4.99062
3.038
1.17099
75.4224
73.2185
70.546
67.6388
64.6968
61.757
58.8065
55.8475
52.8964
49.9711
47.0863
44.2534
41.4815
38.7773
36.144
33.5816
31.0861
28.6503
26.2643
23.9161
21.5935
19.2857
16.9853
14.6898
12.4026
10.133
7.89381
5.69784
3.5524
1.46471
76.0938
74.0278
71.5222
68.7893
66.0133
63.2275
60.4184
57.5856
54.7424
51.9043
49.0842
46.2923
43.5372
40.8257
38.162
35.5478
32.9817
30.4599
27.9761
25.5224
23.0903
20.6721
18.2617
15.8562
13.4564
11.0663
8.69199
6.33897
4.00806
1.70949
76.6599
74.7116
72.3494
69.7673
67.1357
64.4854
61.802
59.083
56.3394
53.5844
50.8289
48.0822
45.352
42.6449
39.9658
37.3172
34.6997
32.1116
29.5495
27.0084
24.4825
21.9662
19.4546
16.9445
14.4347
11.9258
9.41902
6.91457
4.4084
1.91162
77.136
75.288
73.049
70.597
68.0908
65.5588
62.9864
60.3693
57.7164
55.0387
52.3458
49.6455
46.945
44.2503
41.5664
38.8965
36.2423
33.6038
30.9793
28.3659
25.7598
23.157
20.5534
17.9457
15.3315
12.7087
10.0754
7.428
4.75892
2.07883
77.5351
75.7724
73.6388
71.2987
68.9009
66.4719
63.9967
61.47
58.8985
56.2917
53.6577
51.0032
48.3344
45.6571
42.9758
40.2942
37.6146
34.938
32.264
29.5912
26.9171
24.2387
21.5527
18.8558
16.1444
13.4152
10.6637
7.88384
5.06563
2.21845
77.8677
76.1772
74.1334
71.8892
69.5844
67.2442
64.8535
62.406
59.9068
57.3638
54.784
52.173
49.5363
46.8788
44.205
41.5186
38.8221
36.1172
33.4043
30.6829
27.9515
25.2078
22.449
19.6718
16.8721
14.0455
11.1859
8.28542
5.33272
2.33537
78.1443
76.5143
74.5465
72.3836
70.1581
67.8937
65.5757
63.1967
60.7606
58.2742
55.7431
53.1723
50.5662
47.9295
45.266
42.5794
39.8723
37.1467
34.4034
31.6427
28.8635
26.0642
23.2422
20.3942
17.5159
14.6019
11.6454
8.63726
5.56513
2.43433
78.3705
76.7908
74.8865
72.7917
70.6327
68.4322
66.1756
63.8549
61.473
59.0355
56.5472
54.0123
51.4345
48.8178
46.1659
43.482
40.7687
38.0282
35.2615
32.4692
29.6507
26.8047
23.9288
21.0197
18.0729
15.0825
12.041
8.93861
5.76244
2.51546
78.5578
77.0189
75.1667
73.128
71.0237
68.8759
66.6702
64.3981
62.0615
59.6653
57.2135
54.7096
52.1569
49.5586
46.9182
44.2385
41.5221
38.7711
35.9867
33.1696
30.3194
27.4351
24.5143
21.5538
18.549
15.4935
12.3795
9.19666
5.93172
2.58443
78.7028
77.1961
75.3851
73.3908
71.33
69.2243
67.0591
64.8259
62.5259
60.1631
57.7411
55.2628
52.731
50.1485
47.5183
44.8432
42.1255
39.3672
36.5696
33.7333
30.8584
27.9435
24.9867
21.9846
18.9323
15.8235
12.6499
9.4009
6.06321
2.63418
78.8269
77.3439
75.5643
73.6038
71.576
69.502
67.3678
65.1643
62.8922
60.5551
58.1562
55.6978
53.1824
50.6125
47.9908
45.3199
42.6019
39.8386
37.0315
34.1812
31.2876
28.3497
25.3653
22.3311
19.2421
16.0918
12.8716
9.57049
6.17492
2.67812
78.9035
77.4354
75.6764
73.7389
71.7333
69.6806
67.567
65.3834
63.13
60.8102
58.4267
55.9817
53.4775
50.9162
48.3004
45.6324
42.9144
40.1481
37.3348
34.4752
31.5691
28.6156
25.6126
22.5565
19.4425
16.2636
13.0111
9.6735
6.23722
2.6939
78.9893
77.5219
75.7744
73.8509
71.8581
69.8171
67.7147
65.5418
63.2985
60.9877
58.6123
56.1742
53.6755
51.1183
48.5051
45.838
43.1193
40.3505
37.5331
34.6676
31.754
28.7913
25.7774
22.7087
19.5804
16.3852
13.114
9.75425
6.28961
2.69979
)
;

boundaryField
{
    inlet
    {
        type            zeroGradient;
    }
    outlet
    {
        type            fixedValue;
        value           uniform 0;
    }
    flap
    {
        type            zeroGradient;
    }
    upperWall
    {
        type            zeroGradient;
    }
    lowerWall
    {
        type            zeroGradient;
    }
    frontAndBack
    {
        type            empty;
    }
}


// ************************************************************************* //
