/*--------------------------------*- C++ -*----------------------------------*\
| =========                 |                                                 |
| \\      /  F ield         | OpenFOAM: The Open Source CFD Toolbox           |
|  \\    /   O peration     | Version:  5.x                                   |
|   \\  /    A nd           | Web:      www.OpenFOAM.org                      |
|    \\/     M anipulation  |                                                 |
\*---------------------------------------------------------------------------*/
FoamFile
{
    version     2.0;
    format      ascii;
    class       volVectorField;
    location    "2.6";
    object      Force;
}
// * * * * * * * * * * * * * * * * * * * * * * * * * * * * * * * * * * * * * //

dimensions      [1 1 -2 0 0 0 0];

internalField   uniform (0 0 0);

boundaryField
{
    inlet
    {
        type            calculated;
        value           uniform (0 0 0);
    }
    outlet
    {
        type            calculated;
        value           uniform (0 0 0);
    }
    flap
    {
        type            calculated;
        value           nonuniform List<vector> 
33
(
(3.44022 -0.259438 -2.01542e-18)
(3.41885 -0.603856 -1.87025e-20)
(3.36492 -0.940311 -1.04588e-17)
(3.27002 -1.21541 1.0347e-17)
(3.14337 -1.42172 1.50685e-21)
(2.99666 -1.56807 1.5443e-17)
(2.84389 -1.66714 2.09998e-18)
(2.68515 -1.7259 -1.1608e-37)
(2.5295 -1.736 -3.76158e-37)
(2.38388 -1.70883 -2.58601e-20)
(2.2279 -1.65879 2.28262e-20)
(2.03819 -1.57429 -5.28138e-22)
(1.81516 -1.43814 1.17251e-17)
(1.5502 -1.24494 -1.07796e-21)
(1.22375 -0.986023 -6.58484e-18)
(0.648324 0.793091 1.76323e-18)
(0.296336 0.366283 -9.76305e-19)
(0.105019 0.133411 -2.84777e-21)
(0.033532 -0.00310026 1.19224e-18)
(0.0337292 -0.00709576 1.30546e-18)
(0.034311 -0.0112251 -1.24283e-18)
(0.0354039 -0.0151039 1.34203e-18)
(0.0361413 -0.018496 1.75337e-18)
(0.0363627 -0.0212343 -2.07422e-19)
(0.0368322 -0.0238709 -3.46096e-18)
(0.037965 -0.0265795 8.21821e-22)
(0.0392375 -0.0288518 -1.17549e-38)
(0.0398263 -0.0303051 -2.20526e-19)
(0.0395594 -0.0311806 1.75966e-18)
(0.039414 -0.0318747 -1.17549e-38)
(0.03949 -0.0321127 -2.14578e-18)
(0.041496 -0.0335275 -2.40121e-18)
(0.0477833 -0.037541 3.34476e-18)
)
;
    }
    upperWall
    {
        type            calculated;
        value           uniform (0 0 0);
    }
    lowerWall
    {
        type            calculated;
        value           uniform (0 0 0);
    }
    frontAndBack
    {
        type            empty;
    }
}


// ************************************************************************* //
