# vtk DataFile Version 2.0

ASCII

DATASET UNSTRUCTURED_GRID

POINTS 101 double 

0.0000000000000000e+00  0.0000000000000000e+00  0.0000000000000000e+00
1.0000000000000000e+00  0.0000000000000000e+00  0.0000000000000000e+00
2.0000000000000000e+00  0.0000000000000000e+00  0.0000000000000000e+00
3.0000000000000000e+00  0.0000000000000000e+00  0.0000000000000000e+00
4.0000000000000000e+00  0.0000000000000000e+00  0.0000000000000000e+00
5.0000000000000000e+00  0.0000000000000000e+00  0.0000000000000000e+00
6.0000000000000000e+00  0.0000000000000000e+00  0.0000000000000000e+00
7.0000000000000000e+00  0.0000000000000000e+00  0.0000000000000000e+00
8.0000000000000000e+00  0.0000000000000000e+00  0.0000000000000000e+00
9.0000000000000000e+00  0.0000000000000000e+00  0.0000000000000000e+00
1.0000000000000000e+01  0.0000000000000000e+00  0.0000000000000000e+00
1.1000000000000000e+01  0.0000000000000000e+00  0.0000000000000000e+00
1.2000000000000000e+01  0.0000000000000000e+00  0.0000000000000000e+00
1.3000000000000000e+01  0.0000000000000000e+00  0.0000000000000000e+00
1.4000000000000000e+01  0.0000000000000000e+00  0.0000000000000000e+00
1.5000000000000000e+01  0.0000000000000000e+00  0.0000000000000000e+00
1.6000000000000000e+01  0.0000000000000000e+00  0.0000000000000000e+00
1.7000000000000000e+01  0.0000000000000000e+00  0.0000000000000000e+00
1.8000000000000000e+01  0.0000000000000000e+00  0.0000000000000000e+00
1.9000000000000000e+01  0.0000000000000000e+00  0.0000000000000000e+00
2.0000000000000000e+01  0.0000000000000000e+00  0.0000000000000000e+00
2.1000000000000000e+01  0.0000000000000000e+00  0.0000000000000000e+00
2.2000000000000000e+01  0.0000000000000000e+00  0.0000000000000000e+00
2.3000000000000000e+01  0.0000000000000000e+00  0.0000000000000000e+00
2.4000000000000000e+01  0.0000000000000000e+00  0.0000000000000000e+00
2.5000000000000000e+01  0.0000000000000000e+00  0.0000000000000000e+00
2.6000000000000000e+01  0.0000000000000000e+00  0.0000000000000000e+00
2.7000000000000000e+01  0.0000000000000000e+00  0.0000000000000000e+00
2.8000000000000000e+01  0.0000000000000000e+00  0.0000000000000000e+00
2.9000000000000000e+01  0.0000000000000000e+00  0.0000000000000000e+00
3.0000000000000000e+01  0.0000000000000000e+00  0.0000000000000000e+00
3.1000000000000000e+01  0.0000000000000000e+00  0.0000000000000000e+00
3.2000000000000000e+01  0.0000000000000000e+00  0.0000000000000000e+00
3.3000000000000000e+01  0.0000000000000000e+00  0.0000000000000000e+00
3.4000000000000000e+01  0.0000000000000000e+00  0.0000000000000000e+00
3.5000000000000000e+01  0.0000000000000000e+00  0.0000000000000000e+00
3.6000000000000000e+01  0.0000000000000000e+00  0.0000000000000000e+00
3.7000000000000000e+01  0.0000000000000000e+00  0.0000000000000000e+00
3.8000000000000000e+01  0.0000000000000000e+00  0.0000000000000000e+00
3.9000000000000000e+01  0.0000000000000000e+00  0.0000000000000000e+00
4.0000000000000000e+01  0.0000000000000000e+00  0.0000000000000000e+00
4.1000000000000000e+01  0.0000000000000000e+00  0.0000000000000000e+00
4.2000000000000000e+01  0.0000000000000000e+00  0.0000000000000000e+00
4.3000000000000000e+01  0.0000000000000000e+00  0.0000000000000000e+00
4.4000000000000000e+01  0.0000000000000000e+00  0.0000000000000000e+00
4.5000000000000000e+01  0.0000000000000000e+00  0.0000000000000000e+00
4.6000000000000000e+01  0.0000000000000000e+00  0.0000000000000000e+00
4.7000000000000000e+01  0.0000000000000000e+00  0.0000000000000000e+00
4.8000000000000000e+01  0.0000000000000000e+00  0.0000000000000000e+00
4.9000000000000000e+01  0.0000000000000000e+00  0.0000000000000000e+00
5.0000000000000000e+01  0.0000000000000000e+00  0.0000000000000000e+00
5.1000000000000000e+01  0.0000000000000000e+00  0.0000000000000000e+00
5.2000000000000000e+01  0.0000000000000000e+00  0.0000000000000000e+00
5.3000000000000000e+01  0.0000000000000000e+00  0.0000000000000000e+00
5.4000000000000000e+01  0.0000000000000000e+00  0.0000000000000000e+00
5.5000000000000000e+01  0.0000000000000000e+00  0.0000000000000000e+00
5.6000000000000000e+01  0.0000000000000000e+00  0.0000000000000000e+00
5.7000000000000000e+01  0.0000000000000000e+00  0.0000000000000000e+00
5.8000000000000000e+01  0.0000000000000000e+00  0.0000000000000000e+00
5.9000000000000000e+01  0.0000000000000000e+00  0.0000000000000000e+00
6.0000000000000000e+01  0.0000000000000000e+00  0.0000000000000000e+00
6.1000000000000000e+01  0.0000000000000000e+00  0.0000000000000000e+00
6.2000000000000000e+01  0.0000000000000000e+00  0.0000000000000000e+00
6.3000000000000000e+01  0.0000000000000000e+00  0.0000000000000000e+00
6.4000000000000000e+01  0.0000000000000000e+00  0.0000000000000000e+00
6.5000000000000000e+01  0.0000000000000000e+00  0.0000000000000000e+00
6.6000000000000000e+01  0.0000000000000000e+00  0.0000000000000000e+00
6.7000000000000000e+01  0.0000000000000000e+00  0.0000000000000000e+00
6.8000000000000000e+01  0.0000000000000000e+00  0.0000000000000000e+00
6.9000000000000000e+01  0.0000000000000000e+00  0.0000000000000000e+00
7.0000000000000000e+01  0.0000000000000000e+00  0.0000000000000000e+00
7.1000000000000000e+01  0.0000000000000000e+00  0.0000000000000000e+00
7.2000000000000000e+01  0.0000000000000000e+00  0.0000000000000000e+00
7.3000000000000000e+01  0.0000000000000000e+00  0.0000000000000000e+00
7.4000000000000000e+01  0.0000000000000000e+00  0.0000000000000000e+00
7.5000000000000000e+01  0.0000000000000000e+00  0.0000000000000000e+00
7.6000000000000000e+01  0.0000000000000000e+00  0.0000000000000000e+00
7.7000000000000000e+01  0.0000000000000000e+00  0.0000000000000000e+00
7.8000000000000000e+01  0.0000000000000000e+00  0.0000000000000000e+00
7.9000000000000000e+01  0.0000000000000000e+00  0.0000000000000000e+00
8.0000000000000000e+01  0.0000000000000000e+00  0.0000000000000000e+00
8.1000000000000000e+01  0.0000000000000000e+00  0.0000000000000000e+00
8.2000000000000000e+01  0.0000000000000000e+00  0.0000000000000000e+00
8.3000000000000000e+01  0.0000000000000000e+00  0.0000000000000000e+00
8.4000000000000000e+01  0.0000000000000000e+00  0.0000000000000000e+00
8.5000000000000000e+01  0.0000000000000000e+00  0.0000000000000000e+00
8.6000000000000000e+01  0.0000000000000000e+00  0.0000000000000000e+00
8.7000000000000000e+01  0.0000000000000000e+00  0.0000000000000000e+00
8.8000000000000000e+01  0.0000000000000000e+00  0.0000000000000000e+00
8.9000000000000000e+01  0.0000000000000000e+00  0.0000000000000000e+00
9.0000000000000000e+01  0.0000000000000000e+00  0.0000000000000000e+00
9.1000000000000000e+01  0.0000000000000000e+00  0.0000000000000000e+00
9.2000000000000000e+01  0.0000000000000000e+00  0.0000000000000000e+00
9.3000000000000000e+01  0.0000000000000000e+00  0.0000000000000000e+00
9.4000000000000000e+01  0.0000000000000000e+00  0.0000000000000000e+00
9.5000000000000000e+01  0.0000000000000000e+00  0.0000000000000000e+00
9.6000000000000000e+01  0.0000000000000000e+00  0.0000000000000000e+00
9.7000000000000000e+01  0.0000000000000000e+00  0.0000000000000000e+00
9.8000000000000000e+01  0.0000000000000000e+00  0.0000000000000000e+00
9.9000000000000000e+01  0.0000000000000000e+00  0.0000000000000000e+00
1.0000000000000000e+02  0.0000000000000000e+00  0.0000000000000000e+00

CELLS 0 0


CELL_TYPES 0


POINT_DATA 101

VECTORS VertexNormals double

0.0000000000000000e+00 0.0000000000000000e+00 0
0.0000000000000000e+00 0.0000000000000000e+00 0
0.0000000000000000e+00 0.0000000000000000e+00 0
0.0000000000000000e+00 0.0000000000000000e+00 0
0.0000000000000000e+00 0.0000000000000000e+00 0
0.0000000000000000e+00 0.0000000000000000e+00 0
0.0000000000000000e+00 0.0000000000000000e+00 0
0.0000000000000000e+00 0.0000000000000000e+00 0
0.0000000000000000e+00 0.0000000000000000e+00 0
0.0000000000000000e+00 0.0000000000000000e+00 0
0.0000000000000000e+00 0.0000000000000000e+00 0
0.0000000000000000e+00 0.0000000000000000e+00 0
0.0000000000000000e+00 0.0000000000000000e+00 0
0.0000000000000000e+00 0.0000000000000000e+00 0
0.0000000000000000e+00 0.0000000000000000e+00 0
0.0000000000000000e+00 0.0000000000000000e+00 0
0.0000000000000000e+00 0.0000000000000000e+00 0
0.0000000000000000e+00 0.0000000000000000e+00 0
0.0000000000000000e+00 0.0000000000000000e+00 0
0.0000000000000000e+00 0.0000000000000000e+00 0
0.0000000000000000e+00 0.0000000000000000e+00 0
0.0000000000000000e+00 0.0000000000000000e+00 0
0.0000000000000000e+00 0.0000000000000000e+00 0
0.0000000000000000e+00 0.0000000000000000e+00 0
0.0000000000000000e+00 0.0000000000000000e+00 0
0.0000000000000000e+00 0.0000000000000000e+00 0
0.0000000000000000e+00 0.0000000000000000e+00 0
0.0000000000000000e+00 0.0000000000000000e+00 0
0.0000000000000000e+00 0.0000000000000000e+00 0
0.0000000000000000e+00 0.0000000000000000e+00 0
0.0000000000000000e+00 0.0000000000000000e+00 0
0.0000000000000000e+00 0.0000000000000000e+00 0
0.0000000000000000e+00 0.0000000000000000e+00 0
0.0000000000000000e+00 0.0000000000000000e+00 0
0.0000000000000000e+00 0.0000000000000000e+00 0
0.0000000000000000e+00 0.0000000000000000e+00 0
0.0000000000000000e+00 0.0000000000000000e+00 0
0.0000000000000000e+00 0.0000000000000000e+00 0
0.0000000000000000e+00 0.0000000000000000e+00 0
0.0000000000000000e+00 0.0000000000000000e+00 0
0.0000000000000000e+00 0.0000000000000000e+00 0
0.0000000000000000e+00 0.0000000000000000e+00 0
0.0000000000000000e+00 0.0000000000000000e+00 0
0.0000000000000000e+00 0.0000000000000000e+00 0
0.0000000000000000e+00 0.0000000000000000e+00 0
0.0000000000000000e+00 0.0000000000000000e+00 0
0.0000000000000000e+00 0.0000000000000000e+00 0
0.0000000000000000e+00 0.0000000000000000e+00 0
0.0000000000000000e+00 0.0000000000000000e+00 0
0.0000000000000000e+00 0.0000000000000000e+00 0
0.0000000000000000e+00 0.0000000000000000e+00 0
0.0000000000000000e+00 0.0000000000000000e+00 0
0.0000000000000000e+00 0.0000000000000000e+00 0
0.0000000000000000e+00 0.0000000000000000e+00 0
0.0000000000000000e+00 0.0000000000000000e+00 0
0.0000000000000000e+00 0.0000000000000000e+00 0
0.0000000000000000e+00 0.0000000000000000e+00 0
0.0000000000000000e+00 0.0000000000000000e+00 0
0.0000000000000000e+00 0.0000000000000000e+00 0
0.0000000000000000e+00 0.0000000000000000e+00 0
0.0000000000000000e+00 0.0000000000000000e+00 0
0.0000000000000000e+00 0.0000000000000000e+00 0
0.0000000000000000e+00 0.0000000000000000e+00 0
0.0000000000000000e+00 0.0000000000000000e+00 0
0.0000000000000000e+00 0.0000000000000000e+00 0
0.0000000000000000e+00 0.0000000000000000e+00 0
0.0000000000000000e+00 0.0000000000000000e+00 0
0.0000000000000000e+00 0.0000000000000000e+00 0
0.0000000000000000e+00 0.0000000000000000e+00 0
0.0000000000000000e+00 0.0000000000000000e+00 0
0.0000000000000000e+00 0.0000000000000000e+00 0
0.0000000000000000e+00 0.0000000000000000e+00 0
0.0000000000000000e+00 0.0000000000000000e+00 0
0.0000000000000000e+00 0.0000000000000000e+00 0
0.0000000000000000e+00 0.0000000000000000e+00 0
0.0000000000000000e+00 0.0000000000000000e+00 0
0.0000000000000000e+00 0.0000000000000000e+00 0
0.0000000000000000e+00 0.0000000000000000e+00 0
0.0000000000000000e+00 0.0000000000000000e+00 0
0.0000000000000000e+00 0.0000000000000000e+00 0
0.0000000000000000e+00 0.0000000000000000e+00 0
0.0000000000000000e+00 0.0000000000000000e+00 0
0.0000000000000000e+00 0.0000000000000000e+00 0
0.0000000000000000e+00 0.0000000000000000e+00 0
0.0000000000000000e+00 0.0000000000000000e+00 0
0.0000000000000000e+00 0.0000000000000000e+00 0
0.0000000000000000e+00 0.0000000000000000e+00 0
0.0000000000000000e+00 0.0000000000000000e+00 0
0.0000000000000000e+00 0.0000000000000000e+00 0
0.0000000000000000e+00 0.0000000000000000e+00 0
0.0000000000000000e+00 0.0000000000000000e+00 0
0.0000000000000000e+00 0.0000000000000000e+00 0
0.0000000000000000e+00 0.0000000000000000e+00 0
0.0000000000000000e+00 0.0000000000000000e+00 0
0.0000000000000000e+00 0.0000000000000000e+00 0
0.0000000000000000e+00 0.0000000000000000e+00 0
0.0000000000000000e+00 0.0000000000000000e+00 0
0.0000000000000000e+00 0.0000000000000000e+00 0
0.0000000000000000e+00 0.0000000000000000e+00 0
0.0000000000000000e+00 0.0000000000000000e+00 0
0.0000000000000000e+00 0.0000000000000000e+00 0

SCALARS CrossSectionLength double
LOOKUP_TABLE default
0.0000000000000000e+00
0.0000000000000000e+00
0.0000000000000000e+00
0.0000000000000000e+00
0.0000000000000000e+00
0.0000000000000000e+00
0.0000000000000000e+00
0.0000000000000000e+00
0.0000000000000000e+00
0.0000000000000000e+00
0.0000000000000000e+00
0.0000000000000000e+00
0.0000000000000000e+00
0.0000000000000000e+00
0.0000000000000000e+00
0.0000000000000000e+00
0.0000000000000000e+00
0.0000000000000000e+00
0.0000000000000000e+00
0.0000000000000000e+00
0.0000000000000000e+00
0.0000000000000000e+00
0.0000000000000000e+00
0.0000000000000000e+00
0.0000000000000000e+00
0.0000000000000000e+00
0.0000000000000000e+00
0.0000000000000000e+00
0.0000000000000000e+00
0.0000000000000000e+00
0.0000000000000000e+00
0.0000000000000000e+00
0.0000000000000000e+00
0.0000000000000000e+00
0.0000000000000000e+00
0.0000000000000000e+00
0.0000000000000000e+00
0.0000000000000000e+00
0.0000000000000000e+00
0.0000000000000000e+00
0.0000000000000000e+00
0.0000000000000000e+00
0.0000000000000000e+00
0.0000000000000000e+00
0.0000000000000000e+00
0.0000000000000000e+00
0.0000000000000000e+00
0.0000000000000000e+00
0.0000000000000000e+00
0.0000000000000000e+00
0.0000000000000000e+00
0.0000000000000000e+00
0.0000000000000000e+00
0.0000000000000000e+00
0.0000000000000000e+00
0.0000000000000000e+00
0.0000000000000000e+00
0.0000000000000000e+00
0.0000000000000000e+00
0.0000000000000000e+00
0.0000000000000000e+00
0.0000000000000000e+00
0.0000000000000000e+00
0.0000000000000000e+00
0.0000000000000000e+00
0.0000000000000000e+00
0.0000000000000000e+00
0.0000000000000000e+00
0.0000000000000000e+00
0.0000000000000000e+00
0.0000000000000000e+00
0.0000000000000000e+00
0.0000000000000000e+00
0.0000000000000000e+00
0.0000000000000000e+00
0.0000000000000000e+00
0.0000000000000000e+00
0.0000000000000000e+00
0.0000000000000000e+00
0.0000000000000000e+00
0.0000000000000000e+00
0.0000000000000000e+00
0.0000000000000000e+00
0.0000000000000000e+00
0.0000000000000000e+00
0.0000000000000000e+00
0.0000000000000000e+00
0.0000000000000000e+00
0.0000000000000000e+00
0.0000000000000000e+00
0.0000000000000000e+00
0.0000000000000000e+00
0.0000000000000000e+00
0.0000000000000000e+00
0.0000000000000000e+00
0.0000000000000000e+00
0.0000000000000000e+00
0.0000000000000000e+00
0.0000000000000000e+00
0.0000000000000000e+00
0.0000000000000000e+00

SCALARS Pressure double
LOOKUP_TABLE default
6.0178085590797452e-06
6.0053278754169887e-06
5.9928471917542314e-06
5.9803646005943603e-06
5.9678793148858315e-06
5.9553909866209716e-06
5.9428994613914486e-06
5.9304046722474073e-06
5.9179065906788470e-06
5.9054052042645208e-06
5.8929005069163684e-06
5.8803924948397702e-06
5.8678811649487574e-06
5.8553665142785436e-06
5.8428485397806207e-06
5.8303272382559012e-06
5.8178026063350633e-06
5.8052746404730684e-06
5.7927433369478317e-06
5.7802086918597973e-06
5.7676707011311683e-06
5.7551293605050798e-06
5.7425846655448129e-06
5.7300366116328930e-06
5.7174851939701668e-06
5.7049304075744223e-06
5.6923722472795782e-06
5.6798107077345294e-06
5.6672457834019886e-06
5.6546774685574284e-06
5.6421057572878948e-06
5.6295306434907873e-06
5.6169521208726275e-06
5.6043701829480201e-06
5.5917848230383614e-06
5.5791960342707148e-06
5.5666038095764821e-06
5.5540081416901577e-06
5.5414090231482242e-06
5.5288064462879016e-06
5.5162004032459179e-06
5.5035908859572285e-06
5.4909778861539754e-06
5.4783613953640054e-06
5.4657414049099047e-06
5.4531179059077283e-06
5.4404908892657948e-06
5.4278603456836240e-06
5.4152262656505901e-06
5.4025886394448572e-06
5.3899474571323213e-06
5.3773027085653456e-06
5.3646543833817475e-06
5.3520024710037963e-06
5.3393469606368959e-06
5.3266878412688046e-06
5.3140251016684290e-06
5.3013587303848712e-06
5.2886887157464661e-06
5.2760150458596582e-06
5.2633377086083290e-06
5.2506566916526830e-06
5.2379719824283614e-06
5.2252835681455883e-06
5.2125914357884304e-06
5.1998955721138637e-06
5.1871959636509659e-06
5.1744925967001524e-06
5.1617854573326014e-06
5.1490745313893688e-06
5.1363598044805675e-06
5.1236412619850290e-06
5.1109188890494098e-06
5.0981926705876973e-06
5.0854625912807755e-06
5.0727286355756270e-06
5.0599907876849053e-06
5.0472490315865053e-06
5.0345033510231213e-06
5.0217537295017104e-06
5.0090001502931714e-06
4.9962425964319212e-06
4.9834810507155534e-06
4.9707154957046642e-06
4.9579459137224374e-06
4.9451722868543184e-06
4.9323945969480135e-06
4.9196128256132321e-06
4.9068269542212047e-06
4.8940369639052364e-06
4.8812428355593141e-06
4.8684445498396447e-06
4.8556420871659986e-06
4.8428354277043294e-06
4.8300245514404852e-06
4.8172094379361074e-06
4.8043900670345884e-06
4.7915664170303302e-06
4.7787384689072043e-06
4.7659061978888500e-06
4.7530695863552531e-06

