# vtk DataFile Version 2.0

ASCII

DATASET UNSTRUCTURED_GRID

POINTS 101 double 

0.0000000000000000e+00  0.0000000000000000e+00  0.0000000000000000e+00
1.0000000000000000e+00  0.0000000000000000e+00  0.0000000000000000e+00
2.0000000000000000e+00  0.0000000000000000e+00  0.0000000000000000e+00
3.0000000000000000e+00  0.0000000000000000e+00  0.0000000000000000e+00
4.0000000000000000e+00  0.0000000000000000e+00  0.0000000000000000e+00
5.0000000000000000e+00  0.0000000000000000e+00  0.0000000000000000e+00
6.0000000000000000e+00  0.0000000000000000e+00  0.0000000000000000e+00
7.0000000000000000e+00  0.0000000000000000e+00  0.0000000000000000e+00
8.0000000000000000e+00  0.0000000000000000e+00  0.0000000000000000e+00
9.0000000000000000e+00  0.0000000000000000e+00  0.0000000000000000e+00
1.0000000000000000e+01  0.0000000000000000e+00  0.0000000000000000e+00
1.1000000000000000e+01  0.0000000000000000e+00  0.0000000000000000e+00
1.2000000000000000e+01  0.0000000000000000e+00  0.0000000000000000e+00
1.3000000000000000e+01  0.0000000000000000e+00  0.0000000000000000e+00
1.4000000000000000e+01  0.0000000000000000e+00  0.0000000000000000e+00
1.5000000000000000e+01  0.0000000000000000e+00  0.0000000000000000e+00
1.6000000000000000e+01  0.0000000000000000e+00  0.0000000000000000e+00
1.7000000000000000e+01  0.0000000000000000e+00  0.0000000000000000e+00
1.8000000000000000e+01  0.0000000000000000e+00  0.0000000000000000e+00
1.9000000000000000e+01  0.0000000000000000e+00  0.0000000000000000e+00
2.0000000000000000e+01  0.0000000000000000e+00  0.0000000000000000e+00
2.1000000000000000e+01  0.0000000000000000e+00  0.0000000000000000e+00
2.2000000000000000e+01  0.0000000000000000e+00  0.0000000000000000e+00
2.3000000000000000e+01  0.0000000000000000e+00  0.0000000000000000e+00
2.4000000000000000e+01  0.0000000000000000e+00  0.0000000000000000e+00
2.5000000000000000e+01  0.0000000000000000e+00  0.0000000000000000e+00
2.6000000000000000e+01  0.0000000000000000e+00  0.0000000000000000e+00
2.7000000000000000e+01  0.0000000000000000e+00  0.0000000000000000e+00
2.8000000000000000e+01  0.0000000000000000e+00  0.0000000000000000e+00
2.9000000000000000e+01  0.0000000000000000e+00  0.0000000000000000e+00
3.0000000000000000e+01  0.0000000000000000e+00  0.0000000000000000e+00
3.1000000000000000e+01  0.0000000000000000e+00  0.0000000000000000e+00
3.2000000000000000e+01  0.0000000000000000e+00  0.0000000000000000e+00
3.3000000000000000e+01  0.0000000000000000e+00  0.0000000000000000e+00
3.4000000000000000e+01  0.0000000000000000e+00  0.0000000000000000e+00
3.5000000000000000e+01  0.0000000000000000e+00  0.0000000000000000e+00
3.6000000000000000e+01  0.0000000000000000e+00  0.0000000000000000e+00
3.7000000000000000e+01  0.0000000000000000e+00  0.0000000000000000e+00
3.8000000000000000e+01  0.0000000000000000e+00  0.0000000000000000e+00
3.9000000000000000e+01  0.0000000000000000e+00  0.0000000000000000e+00
4.0000000000000000e+01  0.0000000000000000e+00  0.0000000000000000e+00
4.1000000000000000e+01  0.0000000000000000e+00  0.0000000000000000e+00
4.2000000000000000e+01  0.0000000000000000e+00  0.0000000000000000e+00
4.3000000000000000e+01  0.0000000000000000e+00  0.0000000000000000e+00
4.4000000000000000e+01  0.0000000000000000e+00  0.0000000000000000e+00
4.5000000000000000e+01  0.0000000000000000e+00  0.0000000000000000e+00
4.6000000000000000e+01  0.0000000000000000e+00  0.0000000000000000e+00
4.7000000000000000e+01  0.0000000000000000e+00  0.0000000000000000e+00
4.8000000000000000e+01  0.0000000000000000e+00  0.0000000000000000e+00
4.9000000000000000e+01  0.0000000000000000e+00  0.0000000000000000e+00
5.0000000000000000e+01  0.0000000000000000e+00  0.0000000000000000e+00
5.1000000000000000e+01  0.0000000000000000e+00  0.0000000000000000e+00
5.2000000000000000e+01  0.0000000000000000e+00  0.0000000000000000e+00
5.3000000000000000e+01  0.0000000000000000e+00  0.0000000000000000e+00
5.4000000000000000e+01  0.0000000000000000e+00  0.0000000000000000e+00
5.5000000000000000e+01  0.0000000000000000e+00  0.0000000000000000e+00
5.6000000000000000e+01  0.0000000000000000e+00  0.0000000000000000e+00
5.7000000000000000e+01  0.0000000000000000e+00  0.0000000000000000e+00
5.8000000000000000e+01  0.0000000000000000e+00  0.0000000000000000e+00
5.9000000000000000e+01  0.0000000000000000e+00  0.0000000000000000e+00
6.0000000000000000e+01  0.0000000000000000e+00  0.0000000000000000e+00
6.1000000000000000e+01  0.0000000000000000e+00  0.0000000000000000e+00
6.2000000000000000e+01  0.0000000000000000e+00  0.0000000000000000e+00
6.3000000000000000e+01  0.0000000000000000e+00  0.0000000000000000e+00
6.4000000000000000e+01  0.0000000000000000e+00  0.0000000000000000e+00
6.5000000000000000e+01  0.0000000000000000e+00  0.0000000000000000e+00
6.6000000000000000e+01  0.0000000000000000e+00  0.0000000000000000e+00
6.7000000000000000e+01  0.0000000000000000e+00  0.0000000000000000e+00
6.8000000000000000e+01  0.0000000000000000e+00  0.0000000000000000e+00
6.9000000000000000e+01  0.0000000000000000e+00  0.0000000000000000e+00
7.0000000000000000e+01  0.0000000000000000e+00  0.0000000000000000e+00
7.1000000000000000e+01  0.0000000000000000e+00  0.0000000000000000e+00
7.2000000000000000e+01  0.0000000000000000e+00  0.0000000000000000e+00
7.3000000000000000e+01  0.0000000000000000e+00  0.0000000000000000e+00
7.4000000000000000e+01  0.0000000000000000e+00  0.0000000000000000e+00
7.5000000000000000e+01  0.0000000000000000e+00  0.0000000000000000e+00
7.6000000000000000e+01  0.0000000000000000e+00  0.0000000000000000e+00
7.7000000000000000e+01  0.0000000000000000e+00  0.0000000000000000e+00
7.8000000000000000e+01  0.0000000000000000e+00  0.0000000000000000e+00
7.9000000000000000e+01  0.0000000000000000e+00  0.0000000000000000e+00
8.0000000000000000e+01  0.0000000000000000e+00  0.0000000000000000e+00
8.1000000000000000e+01  0.0000000000000000e+00  0.0000000000000000e+00
8.2000000000000000e+01  0.0000000000000000e+00  0.0000000000000000e+00
8.3000000000000000e+01  0.0000000000000000e+00  0.0000000000000000e+00
8.4000000000000000e+01  0.0000000000000000e+00  0.0000000000000000e+00
8.5000000000000000e+01  0.0000000000000000e+00  0.0000000000000000e+00
8.6000000000000000e+01  0.0000000000000000e+00  0.0000000000000000e+00
8.7000000000000000e+01  0.0000000000000000e+00  0.0000000000000000e+00
8.8000000000000000e+01  0.0000000000000000e+00  0.0000000000000000e+00
8.9000000000000000e+01  0.0000000000000000e+00  0.0000000000000000e+00
9.0000000000000000e+01  0.0000000000000000e+00  0.0000000000000000e+00
9.1000000000000000e+01  0.0000000000000000e+00  0.0000000000000000e+00
9.2000000000000000e+01  0.0000000000000000e+00  0.0000000000000000e+00
9.3000000000000000e+01  0.0000000000000000e+00  0.0000000000000000e+00
9.4000000000000000e+01  0.0000000000000000e+00  0.0000000000000000e+00
9.5000000000000000e+01  0.0000000000000000e+00  0.0000000000000000e+00
9.6000000000000000e+01  0.0000000000000000e+00  0.0000000000000000e+00
9.7000000000000000e+01  0.0000000000000000e+00  0.0000000000000000e+00
9.8000000000000000e+01  0.0000000000000000e+00  0.0000000000000000e+00
9.9000000000000000e+01  0.0000000000000000e+00  0.0000000000000000e+00
1.0000000000000000e+02  0.0000000000000000e+00  0.0000000000000000e+00

CELLS 0 0


CELL_TYPES 0


POINT_DATA 101

VECTORS VertexNormals double

0.0000000000000000e+00 0.0000000000000000e+00 0
0.0000000000000000e+00 0.0000000000000000e+00 0
0.0000000000000000e+00 0.0000000000000000e+00 0
0.0000000000000000e+00 0.0000000000000000e+00 0
0.0000000000000000e+00 0.0000000000000000e+00 0
0.0000000000000000e+00 0.0000000000000000e+00 0
0.0000000000000000e+00 0.0000000000000000e+00 0
0.0000000000000000e+00 0.0000000000000000e+00 0
0.0000000000000000e+00 0.0000000000000000e+00 0
0.0000000000000000e+00 0.0000000000000000e+00 0
0.0000000000000000e+00 0.0000000000000000e+00 0
0.0000000000000000e+00 0.0000000000000000e+00 0
0.0000000000000000e+00 0.0000000000000000e+00 0
0.0000000000000000e+00 0.0000000000000000e+00 0
0.0000000000000000e+00 0.0000000000000000e+00 0
0.0000000000000000e+00 0.0000000000000000e+00 0
0.0000000000000000e+00 0.0000000000000000e+00 0
0.0000000000000000e+00 0.0000000000000000e+00 0
0.0000000000000000e+00 0.0000000000000000e+00 0
0.0000000000000000e+00 0.0000000000000000e+00 0
0.0000000000000000e+00 0.0000000000000000e+00 0
0.0000000000000000e+00 0.0000000000000000e+00 0
0.0000000000000000e+00 0.0000000000000000e+00 0
0.0000000000000000e+00 0.0000000000000000e+00 0
0.0000000000000000e+00 0.0000000000000000e+00 0
0.0000000000000000e+00 0.0000000000000000e+00 0
0.0000000000000000e+00 0.0000000000000000e+00 0
0.0000000000000000e+00 0.0000000000000000e+00 0
0.0000000000000000e+00 0.0000000000000000e+00 0
0.0000000000000000e+00 0.0000000000000000e+00 0
0.0000000000000000e+00 0.0000000000000000e+00 0
0.0000000000000000e+00 0.0000000000000000e+00 0
0.0000000000000000e+00 0.0000000000000000e+00 0
0.0000000000000000e+00 0.0000000000000000e+00 0
0.0000000000000000e+00 0.0000000000000000e+00 0
0.0000000000000000e+00 0.0000000000000000e+00 0
0.0000000000000000e+00 0.0000000000000000e+00 0
0.0000000000000000e+00 0.0000000000000000e+00 0
0.0000000000000000e+00 0.0000000000000000e+00 0
0.0000000000000000e+00 0.0000000000000000e+00 0
0.0000000000000000e+00 0.0000000000000000e+00 0
0.0000000000000000e+00 0.0000000000000000e+00 0
0.0000000000000000e+00 0.0000000000000000e+00 0
0.0000000000000000e+00 0.0000000000000000e+00 0
0.0000000000000000e+00 0.0000000000000000e+00 0
0.0000000000000000e+00 0.0000000000000000e+00 0
0.0000000000000000e+00 0.0000000000000000e+00 0
0.0000000000000000e+00 0.0000000000000000e+00 0
0.0000000000000000e+00 0.0000000000000000e+00 0
0.0000000000000000e+00 0.0000000000000000e+00 0
0.0000000000000000e+00 0.0000000000000000e+00 0
0.0000000000000000e+00 0.0000000000000000e+00 0
0.0000000000000000e+00 0.0000000000000000e+00 0
0.0000000000000000e+00 0.0000000000000000e+00 0
0.0000000000000000e+00 0.0000000000000000e+00 0
0.0000000000000000e+00 0.0000000000000000e+00 0
0.0000000000000000e+00 0.0000000000000000e+00 0
0.0000000000000000e+00 0.0000000000000000e+00 0
0.0000000000000000e+00 0.0000000000000000e+00 0
0.0000000000000000e+00 0.0000000000000000e+00 0
0.0000000000000000e+00 0.0000000000000000e+00 0
0.0000000000000000e+00 0.0000000000000000e+00 0
0.0000000000000000e+00 0.0000000000000000e+00 0
0.0000000000000000e+00 0.0000000000000000e+00 0
0.0000000000000000e+00 0.0000000000000000e+00 0
0.0000000000000000e+00 0.0000000000000000e+00 0
0.0000000000000000e+00 0.0000000000000000e+00 0
0.0000000000000000e+00 0.0000000000000000e+00 0
0.0000000000000000e+00 0.0000000000000000e+00 0
0.0000000000000000e+00 0.0000000000000000e+00 0
0.0000000000000000e+00 0.0000000000000000e+00 0
0.0000000000000000e+00 0.0000000000000000e+00 0
0.0000000000000000e+00 0.0000000000000000e+00 0
0.0000000000000000e+00 0.0000000000000000e+00 0
0.0000000000000000e+00 0.0000000000000000e+00 0
0.0000000000000000e+00 0.0000000000000000e+00 0
0.0000000000000000e+00 0.0000000000000000e+00 0
0.0000000000000000e+00 0.0000000000000000e+00 0
0.0000000000000000e+00 0.0000000000000000e+00 0
0.0000000000000000e+00 0.0000000000000000e+00 0
0.0000000000000000e+00 0.0000000000000000e+00 0
0.0000000000000000e+00 0.0000000000000000e+00 0
0.0000000000000000e+00 0.0000000000000000e+00 0
0.0000000000000000e+00 0.0000000000000000e+00 0
0.0000000000000000e+00 0.0000000000000000e+00 0
0.0000000000000000e+00 0.0000000000000000e+00 0
0.0000000000000000e+00 0.0000000000000000e+00 0
0.0000000000000000e+00 0.0000000000000000e+00 0
0.0000000000000000e+00 0.0000000000000000e+00 0
0.0000000000000000e+00 0.0000000000000000e+00 0
0.0000000000000000e+00 0.0000000000000000e+00 0
0.0000000000000000e+00 0.0000000000000000e+00 0
0.0000000000000000e+00 0.0000000000000000e+00 0
0.0000000000000000e+00 0.0000000000000000e+00 0
0.0000000000000000e+00 0.0000000000000000e+00 0
0.0000000000000000e+00 0.0000000000000000e+00 0
0.0000000000000000e+00 0.0000000000000000e+00 0
0.0000000000000000e+00 0.0000000000000000e+00 0
0.0000000000000000e+00 0.0000000000000000e+00 0
0.0000000000000000e+00 0.0000000000000000e+00 0
0.0000000000000000e+00 0.0000000000000000e+00 0

SCALARS CrossSectionLength double
LOOKUP_TABLE default
1.0000844942406808e+00
1.0000845150458164e+00
1.0000845358509522e+00
1.0000845566564296e+00
1.0000845774623865e+00
1.0000845982688809e+00
1.0000846190759365e+00
1.0000846398835621e+00
1.0000846606917624e+00
1.0000846815005375e+00
1.0000847023098896e+00
1.0000847231198169e+00
1.0000847439303184e+00
1.0000847647413971e+00
1.0000847855530499e+00
1.0000848063652774e+00
1.0000848271780793e+00
1.0000848479914564e+00
1.0000848688054065e+00
1.0000848896199304e+00
1.0000849104350276e+00
1.0000849312506968e+00
1.0000849520669393e+00
1.0000849728837538e+00
1.0000849937011407e+00
1.0000850145190987e+00
1.0000850353376287e+00
1.0000850561567298e+00
1.0000850769764014e+00
1.0000850977966433e+00
1.0000851186174553e+00
1.0000851394388373e+00
1.0000851602607885e+00
1.0000851810833098e+00
1.0000852019063990e+00
1.0000852227300574e+00
1.0000852435542846e+00
1.0000852643790783e+00
1.0000852852044408e+00
1.0000853060303703e+00
1.0000853268568672e+00
1.0000853476839304e+00
1.0000853685115594e+00
1.0000853893397559e+00
1.0000854101685177e+00
1.0000854309978451e+00
1.0000854518277378e+00
1.0000854726581947e+00
1.0000854934892165e+00
1.0000855143208041e+00
1.0000855351529543e+00
1.0000855559856681e+00
1.0000855768189456e+00
1.0000855976527860e+00
1.0000856184871891e+00
1.0000856393221549e+00
1.0000856601576831e+00
1.0000856809937724e+00
1.0000857018304239e+00
1.0000857226676358e+00
1.0000857435054100e+00
1.0000857643437437e+00
1.0000857851826384e+00
1.0000858060220916e+00
1.0000858268621053e+00
1.0000858477026793e+00
1.0000858685438121e+00
1.0000858893855025e+00
1.0000859102277531e+00
1.0000859310705605e+00
1.0000859519139258e+00
1.0000859727578493e+00
1.0000859936023294e+00
1.0000860144473669e+00
1.0000860352929610e+00
1.0000860561391105e+00
1.0000860769858173e+00
1.0000860978330788e+00
1.0000861186808958e+00
1.0000861395292686e+00
1.0000861603781954e+00
1.0000861812276769e+00
1.0000862020777128e+00
1.0000862229283023e+00
1.0000862437794451e+00
1.0000862646311415e+00
1.0000862854833903e+00
1.0000863063361929e+00
1.0000863271895470e+00
1.0000863480434532e+00
1.0000863688979105e+00
1.0000863897529202e+00
1.0000864106084806e+00
1.0000864314645908e+00
1.0000864523212525e+00
1.0000864731784642e+00
1.0000864940362251e+00
1.0000865148945366e+00
1.0000865357533968e+00
1.0000865566128061e+00
1.0000865774727630e+00

SCALARS Pressure double
LOOKUP_TABLE default
8.6655824286428003e-05
8.6675064155731962e-05
8.6694304025035921e-05
8.6713544221204338e-05
8.6732784878441370e-05
8.6752026051701824e-05
8.6771267763362250e-05
8.6790510022415252e-05
8.6809752832359185e-05
8.6828996194437952e-05
8.6848240108971205e-05
8.6867484575900300e-05
8.6886729595011286e-05
8.6905975166026944e-05
8.6925221288644295e-05
8.6944467962549624e-05
8.6963715187425165e-05
8.6982962962951093e-05
8.7002211288806822e-05
8.7021460164671822e-05
8.7040709590225100e-05
8.7059959565145882e-05
8.7079210089113204e-05
8.7098461161806101e-05
8.7117712782903541e-05
8.7136964952084830e-05
8.7156217669028693e-05
8.7175470933414394e-05
8.7194724744920970e-05
8.7213979103227415e-05
8.7233234008012738e-05
8.7252489458955988e-05
8.7271745455736079e-05
8.7291001998032194e-05
8.7310259085523329e-05
8.7329516717888356e-05
8.7348774894806420e-05
8.7368033615956570e-05
8.7387292881017733e-05
8.7406552689668930e-05
8.7425813041589265e-05
8.7445073936457597e-05
8.7464335373952854e-05
8.7483597353754043e-05
8.7502859875540376e-05
8.7522122938990686e-05
8.7541386543783941e-05
8.7560650689599162e-05
8.7579915376115316e-05
8.7599180603011292e-05
8.7618446369966245e-05
8.7637712676658899e-05
8.7656979522768386e-05
8.7676246907973632e-05
8.7695514831953646e-05
8.7714783294387300e-05
8.7734052294953657e-05
8.7753321833331603e-05
8.7772591909199971e-05
8.7791862522237728e-05
8.7811133672123951e-05
8.7830405358537444e-05
8.7849677581157136e-05
8.7868950339662074e-05
8.7888223633731036e-05
8.7907497463043005e-05
8.7926771827276785e-05
8.7946046726111574e-05
8.7965322159226029e-05
8.7984598126299062e-05
8.8003874627009710e-05
8.8023151661036832e-05
8.8042429228059218e-05
8.8061707327755770e-05
8.8080985959805482e-05
8.8100265123887213e-05
8.8119544819679769e-05
8.8138825046862049e-05
8.8158105805112886e-05
8.8177387094111071e-05
8.8196668913535572e-05
8.8215951263065275e-05
8.8235234142379108e-05
8.8254517551155713e-05
8.8273801489073948e-05
8.8293085955812756e-05
8.8312370951050981e-05
8.8331656474467443e-05
8.8350942525741122e-05
8.8370229104550702e-05
8.8389516210574988e-05
8.8408803843493205e-05
8.8428092002982938e-05
8.8447380688726367e-05
8.8466669900393543e-05
8.8485959637685414e-05
8.8505249900225290e-05
8.8524540687830833e-05
8.8543831999833567e-05
8.8563123836779656e-05
8.8582416196185073e-05

