# vtk DataFile Version 2.0

ASCII

DATASET UNSTRUCTURED_GRID

POINTS 101 double 

0.0000000000000000e+00  0.0000000000000000e+00  0.0000000000000000e+00
1.0000000000000000e+00  0.0000000000000000e+00  0.0000000000000000e+00
2.0000000000000000e+00  0.0000000000000000e+00  0.0000000000000000e+00
3.0000000000000000e+00  0.0000000000000000e+00  0.0000000000000000e+00
4.0000000000000000e+00  0.0000000000000000e+00  0.0000000000000000e+00
5.0000000000000000e+00  0.0000000000000000e+00  0.0000000000000000e+00
6.0000000000000000e+00  0.0000000000000000e+00  0.0000000000000000e+00
7.0000000000000000e+00  0.0000000000000000e+00  0.0000000000000000e+00
8.0000000000000000e+00  0.0000000000000000e+00  0.0000000000000000e+00
9.0000000000000000e+00  0.0000000000000000e+00  0.0000000000000000e+00
1.0000000000000000e+01  0.0000000000000000e+00  0.0000000000000000e+00
1.1000000000000000e+01  0.0000000000000000e+00  0.0000000000000000e+00
1.2000000000000000e+01  0.0000000000000000e+00  0.0000000000000000e+00
1.3000000000000000e+01  0.0000000000000000e+00  0.0000000000000000e+00
1.4000000000000000e+01  0.0000000000000000e+00  0.0000000000000000e+00
1.5000000000000000e+01  0.0000000000000000e+00  0.0000000000000000e+00
1.6000000000000000e+01  0.0000000000000000e+00  0.0000000000000000e+00
1.7000000000000000e+01  0.0000000000000000e+00  0.0000000000000000e+00
1.8000000000000000e+01  0.0000000000000000e+00  0.0000000000000000e+00
1.9000000000000000e+01  0.0000000000000000e+00  0.0000000000000000e+00
2.0000000000000000e+01  0.0000000000000000e+00  0.0000000000000000e+00
2.1000000000000000e+01  0.0000000000000000e+00  0.0000000000000000e+00
2.2000000000000000e+01  0.0000000000000000e+00  0.0000000000000000e+00
2.3000000000000000e+01  0.0000000000000000e+00  0.0000000000000000e+00
2.4000000000000000e+01  0.0000000000000000e+00  0.0000000000000000e+00
2.5000000000000000e+01  0.0000000000000000e+00  0.0000000000000000e+00
2.6000000000000000e+01  0.0000000000000000e+00  0.0000000000000000e+00
2.7000000000000000e+01  0.0000000000000000e+00  0.0000000000000000e+00
2.8000000000000000e+01  0.0000000000000000e+00  0.0000000000000000e+00
2.9000000000000000e+01  0.0000000000000000e+00  0.0000000000000000e+00
3.0000000000000000e+01  0.0000000000000000e+00  0.0000000000000000e+00
3.1000000000000000e+01  0.0000000000000000e+00  0.0000000000000000e+00
3.2000000000000000e+01  0.0000000000000000e+00  0.0000000000000000e+00
3.3000000000000000e+01  0.0000000000000000e+00  0.0000000000000000e+00
3.4000000000000000e+01  0.0000000000000000e+00  0.0000000000000000e+00
3.5000000000000000e+01  0.0000000000000000e+00  0.0000000000000000e+00
3.6000000000000000e+01  0.0000000000000000e+00  0.0000000000000000e+00
3.7000000000000000e+01  0.0000000000000000e+00  0.0000000000000000e+00
3.8000000000000000e+01  0.0000000000000000e+00  0.0000000000000000e+00
3.9000000000000000e+01  0.0000000000000000e+00  0.0000000000000000e+00
4.0000000000000000e+01  0.0000000000000000e+00  0.0000000000000000e+00
4.1000000000000000e+01  0.0000000000000000e+00  0.0000000000000000e+00
4.2000000000000000e+01  0.0000000000000000e+00  0.0000000000000000e+00
4.3000000000000000e+01  0.0000000000000000e+00  0.0000000000000000e+00
4.4000000000000000e+01  0.0000000000000000e+00  0.0000000000000000e+00
4.5000000000000000e+01  0.0000000000000000e+00  0.0000000000000000e+00
4.6000000000000000e+01  0.0000000000000000e+00  0.0000000000000000e+00
4.7000000000000000e+01  0.0000000000000000e+00  0.0000000000000000e+00
4.8000000000000000e+01  0.0000000000000000e+00  0.0000000000000000e+00
4.9000000000000000e+01  0.0000000000000000e+00  0.0000000000000000e+00
5.0000000000000000e+01  0.0000000000000000e+00  0.0000000000000000e+00
5.1000000000000000e+01  0.0000000000000000e+00  0.0000000000000000e+00
5.2000000000000000e+01  0.0000000000000000e+00  0.0000000000000000e+00
5.3000000000000000e+01  0.0000000000000000e+00  0.0000000000000000e+00
5.4000000000000000e+01  0.0000000000000000e+00  0.0000000000000000e+00
5.5000000000000000e+01  0.0000000000000000e+00  0.0000000000000000e+00
5.6000000000000000e+01  0.0000000000000000e+00  0.0000000000000000e+00
5.7000000000000000e+01  0.0000000000000000e+00  0.0000000000000000e+00
5.8000000000000000e+01  0.0000000000000000e+00  0.0000000000000000e+00
5.9000000000000000e+01  0.0000000000000000e+00  0.0000000000000000e+00
6.0000000000000000e+01  0.0000000000000000e+00  0.0000000000000000e+00
6.1000000000000000e+01  0.0000000000000000e+00  0.0000000000000000e+00
6.2000000000000000e+01  0.0000000000000000e+00  0.0000000000000000e+00
6.3000000000000000e+01  0.0000000000000000e+00  0.0000000000000000e+00
6.4000000000000000e+01  0.0000000000000000e+00  0.0000000000000000e+00
6.5000000000000000e+01  0.0000000000000000e+00  0.0000000000000000e+00
6.6000000000000000e+01  0.0000000000000000e+00  0.0000000000000000e+00
6.7000000000000000e+01  0.0000000000000000e+00  0.0000000000000000e+00
6.8000000000000000e+01  0.0000000000000000e+00  0.0000000000000000e+00
6.9000000000000000e+01  0.0000000000000000e+00  0.0000000000000000e+00
7.0000000000000000e+01  0.0000000000000000e+00  0.0000000000000000e+00
7.1000000000000000e+01  0.0000000000000000e+00  0.0000000000000000e+00
7.2000000000000000e+01  0.0000000000000000e+00  0.0000000000000000e+00
7.3000000000000000e+01  0.0000000000000000e+00  0.0000000000000000e+00
7.4000000000000000e+01  0.0000000000000000e+00  0.0000000000000000e+00
7.5000000000000000e+01  0.0000000000000000e+00  0.0000000000000000e+00
7.6000000000000000e+01  0.0000000000000000e+00  0.0000000000000000e+00
7.7000000000000000e+01  0.0000000000000000e+00  0.0000000000000000e+00
7.8000000000000000e+01  0.0000000000000000e+00  0.0000000000000000e+00
7.9000000000000000e+01  0.0000000000000000e+00  0.0000000000000000e+00
8.0000000000000000e+01  0.0000000000000000e+00  0.0000000000000000e+00
8.1000000000000000e+01  0.0000000000000000e+00  0.0000000000000000e+00
8.2000000000000000e+01  0.0000000000000000e+00  0.0000000000000000e+00
8.3000000000000000e+01  0.0000000000000000e+00  0.0000000000000000e+00
8.4000000000000000e+01  0.0000000000000000e+00  0.0000000000000000e+00
8.5000000000000000e+01  0.0000000000000000e+00  0.0000000000000000e+00
8.6000000000000000e+01  0.0000000000000000e+00  0.0000000000000000e+00
8.7000000000000000e+01  0.0000000000000000e+00  0.0000000000000000e+00
8.8000000000000000e+01  0.0000000000000000e+00  0.0000000000000000e+00
8.9000000000000000e+01  0.0000000000000000e+00  0.0000000000000000e+00
9.0000000000000000e+01  0.0000000000000000e+00  0.0000000000000000e+00
9.1000000000000000e+01  0.0000000000000000e+00  0.0000000000000000e+00
9.2000000000000000e+01  0.0000000000000000e+00  0.0000000000000000e+00
9.3000000000000000e+01  0.0000000000000000e+00  0.0000000000000000e+00
9.4000000000000000e+01  0.0000000000000000e+00  0.0000000000000000e+00
9.5000000000000000e+01  0.0000000000000000e+00  0.0000000000000000e+00
9.6000000000000000e+01  0.0000000000000000e+00  0.0000000000000000e+00
9.7000000000000000e+01  0.0000000000000000e+00  0.0000000000000000e+00
9.8000000000000000e+01  0.0000000000000000e+00  0.0000000000000000e+00
9.9000000000000000e+01  0.0000000000000000e+00  0.0000000000000000e+00
1.0000000000000000e+02  0.0000000000000000e+00  0.0000000000000000e+00

CELLS 0 0


CELL_TYPES 0


POINT_DATA 101

VECTORS VertexNormals double

0.0000000000000000e+00 0.0000000000000000e+00 0
0.0000000000000000e+00 0.0000000000000000e+00 0
0.0000000000000000e+00 0.0000000000000000e+00 0
0.0000000000000000e+00 0.0000000000000000e+00 0
0.0000000000000000e+00 0.0000000000000000e+00 0
0.0000000000000000e+00 0.0000000000000000e+00 0
0.0000000000000000e+00 0.0000000000000000e+00 0
0.0000000000000000e+00 0.0000000000000000e+00 0
0.0000000000000000e+00 0.0000000000000000e+00 0
0.0000000000000000e+00 0.0000000000000000e+00 0
0.0000000000000000e+00 0.0000000000000000e+00 0
0.0000000000000000e+00 0.0000000000000000e+00 0
0.0000000000000000e+00 0.0000000000000000e+00 0
0.0000000000000000e+00 0.0000000000000000e+00 0
0.0000000000000000e+00 0.0000000000000000e+00 0
0.0000000000000000e+00 0.0000000000000000e+00 0
0.0000000000000000e+00 0.0000000000000000e+00 0
0.0000000000000000e+00 0.0000000000000000e+00 0
0.0000000000000000e+00 0.0000000000000000e+00 0
0.0000000000000000e+00 0.0000000000000000e+00 0
0.0000000000000000e+00 0.0000000000000000e+00 0
0.0000000000000000e+00 0.0000000000000000e+00 0
0.0000000000000000e+00 0.0000000000000000e+00 0
0.0000000000000000e+00 0.0000000000000000e+00 0
0.0000000000000000e+00 0.0000000000000000e+00 0
0.0000000000000000e+00 0.0000000000000000e+00 0
0.0000000000000000e+00 0.0000000000000000e+00 0
0.0000000000000000e+00 0.0000000000000000e+00 0
0.0000000000000000e+00 0.0000000000000000e+00 0
0.0000000000000000e+00 0.0000000000000000e+00 0
0.0000000000000000e+00 0.0000000000000000e+00 0
0.0000000000000000e+00 0.0000000000000000e+00 0
0.0000000000000000e+00 0.0000000000000000e+00 0
0.0000000000000000e+00 0.0000000000000000e+00 0
0.0000000000000000e+00 0.0000000000000000e+00 0
0.0000000000000000e+00 0.0000000000000000e+00 0
0.0000000000000000e+00 0.0000000000000000e+00 0
0.0000000000000000e+00 0.0000000000000000e+00 0
0.0000000000000000e+00 0.0000000000000000e+00 0
0.0000000000000000e+00 0.0000000000000000e+00 0
0.0000000000000000e+00 0.0000000000000000e+00 0
0.0000000000000000e+00 0.0000000000000000e+00 0
0.0000000000000000e+00 0.0000000000000000e+00 0
0.0000000000000000e+00 0.0000000000000000e+00 0
0.0000000000000000e+00 0.0000000000000000e+00 0
0.0000000000000000e+00 0.0000000000000000e+00 0
0.0000000000000000e+00 0.0000000000000000e+00 0
0.0000000000000000e+00 0.0000000000000000e+00 0
0.0000000000000000e+00 0.0000000000000000e+00 0
0.0000000000000000e+00 0.0000000000000000e+00 0
0.0000000000000000e+00 0.0000000000000000e+00 0
0.0000000000000000e+00 0.0000000000000000e+00 0
0.0000000000000000e+00 0.0000000000000000e+00 0
0.0000000000000000e+00 0.0000000000000000e+00 0
0.0000000000000000e+00 0.0000000000000000e+00 0
0.0000000000000000e+00 0.0000000000000000e+00 0
0.0000000000000000e+00 0.0000000000000000e+00 0
0.0000000000000000e+00 0.0000000000000000e+00 0
0.0000000000000000e+00 0.0000000000000000e+00 0
0.0000000000000000e+00 0.0000000000000000e+00 0
0.0000000000000000e+00 0.0000000000000000e+00 0
0.0000000000000000e+00 0.0000000000000000e+00 0
0.0000000000000000e+00 0.0000000000000000e+00 0
0.0000000000000000e+00 0.0000000000000000e+00 0
0.0000000000000000e+00 0.0000000000000000e+00 0
0.0000000000000000e+00 0.0000000000000000e+00 0
0.0000000000000000e+00 0.0000000000000000e+00 0
0.0000000000000000e+00 0.0000000000000000e+00 0
0.0000000000000000e+00 0.0000000000000000e+00 0
0.0000000000000000e+00 0.0000000000000000e+00 0
0.0000000000000000e+00 0.0000000000000000e+00 0
0.0000000000000000e+00 0.0000000000000000e+00 0
0.0000000000000000e+00 0.0000000000000000e+00 0
0.0000000000000000e+00 0.0000000000000000e+00 0
0.0000000000000000e+00 0.0000000000000000e+00 0
0.0000000000000000e+00 0.0000000000000000e+00 0
0.0000000000000000e+00 0.0000000000000000e+00 0
0.0000000000000000e+00 0.0000000000000000e+00 0
0.0000000000000000e+00 0.0000000000000000e+00 0
0.0000000000000000e+00 0.0000000000000000e+00 0
0.0000000000000000e+00 0.0000000000000000e+00 0
0.0000000000000000e+00 0.0000000000000000e+00 0
0.0000000000000000e+00 0.0000000000000000e+00 0
0.0000000000000000e+00 0.0000000000000000e+00 0
0.0000000000000000e+00 0.0000000000000000e+00 0
0.0000000000000000e+00 0.0000000000000000e+00 0
0.0000000000000000e+00 0.0000000000000000e+00 0
0.0000000000000000e+00 0.0000000000000000e+00 0
0.0000000000000000e+00 0.0000000000000000e+00 0
0.0000000000000000e+00 0.0000000000000000e+00 0
0.0000000000000000e+00 0.0000000000000000e+00 0
0.0000000000000000e+00 0.0000000000000000e+00 0
0.0000000000000000e+00 0.0000000000000000e+00 0
0.0000000000000000e+00 0.0000000000000000e+00 0
0.0000000000000000e+00 0.0000000000000000e+00 0
0.0000000000000000e+00 0.0000000000000000e+00 0
0.0000000000000000e+00 0.0000000000000000e+00 0
0.0000000000000000e+00 0.0000000000000000e+00 0
0.0000000000000000e+00 0.0000000000000000e+00 0
0.0000000000000000e+00 0.0000000000000000e+00 0
0.0000000000000000e+00 0.0000000000000000e+00 0

SCALARS CrossSectionLength double
LOOKUP_TABLE default
0.0000000000000000e+00
0.0000000000000000e+00
0.0000000000000000e+00
0.0000000000000000e+00
0.0000000000000000e+00
0.0000000000000000e+00
0.0000000000000000e+00
0.0000000000000000e+00
0.0000000000000000e+00
0.0000000000000000e+00
0.0000000000000000e+00
0.0000000000000000e+00
0.0000000000000000e+00
0.0000000000000000e+00
0.0000000000000000e+00
0.0000000000000000e+00
0.0000000000000000e+00
0.0000000000000000e+00
0.0000000000000000e+00
0.0000000000000000e+00
0.0000000000000000e+00
0.0000000000000000e+00
0.0000000000000000e+00
0.0000000000000000e+00
0.0000000000000000e+00
0.0000000000000000e+00
0.0000000000000000e+00
0.0000000000000000e+00
0.0000000000000000e+00
0.0000000000000000e+00
0.0000000000000000e+00
0.0000000000000000e+00
0.0000000000000000e+00
0.0000000000000000e+00
0.0000000000000000e+00
0.0000000000000000e+00
0.0000000000000000e+00
0.0000000000000000e+00
0.0000000000000000e+00
0.0000000000000000e+00
0.0000000000000000e+00
0.0000000000000000e+00
0.0000000000000000e+00
0.0000000000000000e+00
0.0000000000000000e+00
0.0000000000000000e+00
0.0000000000000000e+00
0.0000000000000000e+00
0.0000000000000000e+00
0.0000000000000000e+00
0.0000000000000000e+00
0.0000000000000000e+00
0.0000000000000000e+00
0.0000000000000000e+00
0.0000000000000000e+00
0.0000000000000000e+00
0.0000000000000000e+00
0.0000000000000000e+00
0.0000000000000000e+00
0.0000000000000000e+00
0.0000000000000000e+00
0.0000000000000000e+00
0.0000000000000000e+00
0.0000000000000000e+00
0.0000000000000000e+00
0.0000000000000000e+00
0.0000000000000000e+00
0.0000000000000000e+00
0.0000000000000000e+00
0.0000000000000000e+00
0.0000000000000000e+00
0.0000000000000000e+00
0.0000000000000000e+00
0.0000000000000000e+00
0.0000000000000000e+00
0.0000000000000000e+00
0.0000000000000000e+00
0.0000000000000000e+00
0.0000000000000000e+00
0.0000000000000000e+00
0.0000000000000000e+00
0.0000000000000000e+00
0.0000000000000000e+00
0.0000000000000000e+00
0.0000000000000000e+00
0.0000000000000000e+00
0.0000000000000000e+00
0.0000000000000000e+00
0.0000000000000000e+00
0.0000000000000000e+00
0.0000000000000000e+00
0.0000000000000000e+00
0.0000000000000000e+00
0.0000000000000000e+00
0.0000000000000000e+00
0.0000000000000000e+00
0.0000000000000000e+00
0.0000000000000000e+00
0.0000000000000000e+00
0.0000000000000000e+00
0.0000000000000000e+00

SCALARS Pressure double
LOOKUP_TABLE default
6.9512910177737775e-07
6.9215593406698309e-07
6.8918276635658855e-07
6.8620539939734219e-07
6.8322302654658186e-07
6.8023556493462771e-07
6.7724305880111971e-07
6.7424556284741532e-07
6.7124312630048227e-07
6.6823579395736867e-07
6.6522360828019594e-07
6.6220661057027037e-07
6.5918484148816927e-07
6.5615834126253028e-07
6.5312714976995597e-07
6.5009130656555770e-07
6.4705085089534434e-07
6.4400582170218294e-07
6.4095625762951141e-07
6.3790219702432318e-07
6.3484367793971591e-07
6.3178073813737809e-07
6.2871341509020834e-07
6.2564174598474824e-07
6.2256576772350494e-07
6.1948551692747793e-07
6.1640102993860098e-07
6.1331234282192806e-07
6.1021949136814717e-07
6.0712251109590817e-07
6.0402143725409030e-07
6.0091630482417957e-07
5.9780714852262590e-07
5.9469400280286584e-07
5.9157690185774647e-07
5.8845587962188799e-07
5.8533096977361280e-07
5.8220220573732944e-07
5.7906962068578679e-07
5.7593324754215971e-07
5.7279311898209920e-07
5.6964926743601107e-07
5.6650172509122948e-07
5.6335052389395515e-07
5.6019569555143698e-07
5.5703727153405027e-07
5.5387528307738855e-07
5.5070976118425838e-07
5.4754073662670730e-07
5.4436823994809299e-07
5.4119230146502429e-07
5.3801295126936171e-07
5.3483021923022777e-07
5.3164413499592602e-07
5.2845472799585303e-07
5.2526202744248766e-07
5.2206606233332215e-07
5.1886686145274428e-07
5.1566445337375541e-07
5.1245886646009341e-07
5.0925012886799614e-07
5.0603826854801837e-07
5.0282331324683181e-07
4.9960529050915550e-07
4.9638422767948748e-07
4.9316015190384903e-07
4.8993309013167469e-07
4.8670306911751963e-07
4.8347011542279313e-07
4.8023425541756970e-07
4.7699551528223348e-07
4.7375392100925653e-07
4.7050949840480131e-07
4.6726227309058377e-07
4.6401227050540101e-07
4.6075951590681949e-07
4.5750403437298882e-07
4.5424585080406452e-07
4.5098498992394219e-07
4.4772147628190437e-07
4.4445533425422605e-07
4.4118658804570929e-07
4.3791526169127763e-07
4.3464137905761392e-07
4.3136496384469579e-07
4.2808603958731919e-07
4.2480462965670428e-07
4.2152075726203073e-07
4.1823444545179216e-07
4.1494571711568212e-07
4.1165459498523659e-07
4.0836110163764466e-07
4.0506525949061177e-07
4.0176709082318173e-07
3.9846661772087094e-07
3.9516386223754958e-07
3.9185884595278947e-07
3.8855159115683331e-07
3.8524211787642042e-07
3.8193045062297296e-07
3.7861660628634130e-07

