# vtk DataFile Version 2.0

ASCII

DATASET UNSTRUCTURED_GRID

POINTS 101 float 

0.0000000000000000e+00  0.0000000000000000e+00  0.0000000000000000e+00
1.0000000000000000e+00  0.0000000000000000e+00  0.0000000000000000e+00
2.0000000000000000e+00  0.0000000000000000e+00  0.0000000000000000e+00
3.0000000000000000e+00  0.0000000000000000e+00  0.0000000000000000e+00
4.0000000000000000e+00  0.0000000000000000e+00  0.0000000000000000e+00
5.0000000000000000e+00  0.0000000000000000e+00  0.0000000000000000e+00
6.0000000000000000e+00  0.0000000000000000e+00  0.0000000000000000e+00
7.0000000000000000e+00  0.0000000000000000e+00  0.0000000000000000e+00
8.0000000000000000e+00  0.0000000000000000e+00  0.0000000000000000e+00
9.0000000000000000e+00  0.0000000000000000e+00  0.0000000000000000e+00
1.0000000000000000e+01  0.0000000000000000e+00  0.0000000000000000e+00
1.1000000000000000e+01  0.0000000000000000e+00  0.0000000000000000e+00
1.2000000000000000e+01  0.0000000000000000e+00  0.0000000000000000e+00
1.3000000000000000e+01  0.0000000000000000e+00  0.0000000000000000e+00
1.4000000000000000e+01  0.0000000000000000e+00  0.0000000000000000e+00
1.5000000000000000e+01  0.0000000000000000e+00  0.0000000000000000e+00
1.6000000000000000e+01  0.0000000000000000e+00  0.0000000000000000e+00
1.7000000000000000e+01  0.0000000000000000e+00  0.0000000000000000e+00
1.8000000000000000e+01  0.0000000000000000e+00  0.0000000000000000e+00
1.9000000000000000e+01  0.0000000000000000e+00  0.0000000000000000e+00
2.0000000000000000e+01  0.0000000000000000e+00  0.0000000000000000e+00
2.1000000000000000e+01  0.0000000000000000e+00  0.0000000000000000e+00
2.2000000000000000e+01  0.0000000000000000e+00  0.0000000000000000e+00
2.3000000000000000e+01  0.0000000000000000e+00  0.0000000000000000e+00
2.4000000000000000e+01  0.0000000000000000e+00  0.0000000000000000e+00
2.5000000000000000e+01  0.0000000000000000e+00  0.0000000000000000e+00
2.6000000000000000e+01  0.0000000000000000e+00  0.0000000000000000e+00
2.7000000000000000e+01  0.0000000000000000e+00  0.0000000000000000e+00
2.8000000000000000e+01  0.0000000000000000e+00  0.0000000000000000e+00
2.9000000000000000e+01  0.0000000000000000e+00  0.0000000000000000e+00
3.0000000000000000e+01  0.0000000000000000e+00  0.0000000000000000e+00
3.1000000000000000e+01  0.0000000000000000e+00  0.0000000000000000e+00
3.2000000000000000e+01  0.0000000000000000e+00  0.0000000000000000e+00
3.3000000000000000e+01  0.0000000000000000e+00  0.0000000000000000e+00
3.4000000000000000e+01  0.0000000000000000e+00  0.0000000000000000e+00
3.5000000000000000e+01  0.0000000000000000e+00  0.0000000000000000e+00
3.6000000000000000e+01  0.0000000000000000e+00  0.0000000000000000e+00
3.7000000000000000e+01  0.0000000000000000e+00  0.0000000000000000e+00
3.8000000000000000e+01  0.0000000000000000e+00  0.0000000000000000e+00
3.9000000000000000e+01  0.0000000000000000e+00  0.0000000000000000e+00
4.0000000000000000e+01  0.0000000000000000e+00  0.0000000000000000e+00
4.1000000000000000e+01  0.0000000000000000e+00  0.0000000000000000e+00
4.2000000000000000e+01  0.0000000000000000e+00  0.0000000000000000e+00
4.3000000000000000e+01  0.0000000000000000e+00  0.0000000000000000e+00
4.4000000000000000e+01  0.0000000000000000e+00  0.0000000000000000e+00
4.5000000000000000e+01  0.0000000000000000e+00  0.0000000000000000e+00
4.6000000000000000e+01  0.0000000000000000e+00  0.0000000000000000e+00
4.7000000000000000e+01  0.0000000000000000e+00  0.0000000000000000e+00
4.8000000000000000e+01  0.0000000000000000e+00  0.0000000000000000e+00
4.9000000000000000e+01  0.0000000000000000e+00  0.0000000000000000e+00
5.0000000000000000e+01  0.0000000000000000e+00  0.0000000000000000e+00
5.1000000000000000e+01  0.0000000000000000e+00  0.0000000000000000e+00
5.2000000000000000e+01  0.0000000000000000e+00  0.0000000000000000e+00
5.3000000000000000e+01  0.0000000000000000e+00  0.0000000000000000e+00
5.4000000000000000e+01  0.0000000000000000e+00  0.0000000000000000e+00
5.5000000000000000e+01  0.0000000000000000e+00  0.0000000000000000e+00
5.6000000000000000e+01  0.0000000000000000e+00  0.0000000000000000e+00
5.7000000000000000e+01  0.0000000000000000e+00  0.0000000000000000e+00
5.8000000000000000e+01  0.0000000000000000e+00  0.0000000000000000e+00
5.9000000000000000e+01  0.0000000000000000e+00  0.0000000000000000e+00
6.0000000000000000e+01  0.0000000000000000e+00  0.0000000000000000e+00
6.1000000000000000e+01  0.0000000000000000e+00  0.0000000000000000e+00
6.2000000000000000e+01  0.0000000000000000e+00  0.0000000000000000e+00
6.3000000000000000e+01  0.0000000000000000e+00  0.0000000000000000e+00
6.4000000000000000e+01  0.0000000000000000e+00  0.0000000000000000e+00
6.5000000000000000e+01  0.0000000000000000e+00  0.0000000000000000e+00
6.6000000000000000e+01  0.0000000000000000e+00  0.0000000000000000e+00
6.7000000000000000e+01  0.0000000000000000e+00  0.0000000000000000e+00
6.8000000000000000e+01  0.0000000000000000e+00  0.0000000000000000e+00
6.9000000000000000e+01  0.0000000000000000e+00  0.0000000000000000e+00
7.0000000000000000e+01  0.0000000000000000e+00  0.0000000000000000e+00
7.1000000000000000e+01  0.0000000000000000e+00  0.0000000000000000e+00
7.2000000000000000e+01  0.0000000000000000e+00  0.0000000000000000e+00
7.3000000000000000e+01  0.0000000000000000e+00  0.0000000000000000e+00
7.4000000000000000e+01  0.0000000000000000e+00  0.0000000000000000e+00
7.5000000000000000e+01  0.0000000000000000e+00  0.0000000000000000e+00
7.6000000000000000e+01  0.0000000000000000e+00  0.0000000000000000e+00
7.7000000000000000e+01  0.0000000000000000e+00  0.0000000000000000e+00
7.8000000000000000e+01  0.0000000000000000e+00  0.0000000000000000e+00
7.9000000000000000e+01  0.0000000000000000e+00  0.0000000000000000e+00
8.0000000000000000e+01  0.0000000000000000e+00  0.0000000000000000e+00
8.1000000000000000e+01  0.0000000000000000e+00  0.0000000000000000e+00
8.2000000000000000e+01  0.0000000000000000e+00  0.0000000000000000e+00
8.3000000000000000e+01  0.0000000000000000e+00  0.0000000000000000e+00
8.4000000000000000e+01  0.0000000000000000e+00  0.0000000000000000e+00
8.5000000000000000e+01  0.0000000000000000e+00  0.0000000000000000e+00
8.6000000000000000e+01  0.0000000000000000e+00  0.0000000000000000e+00
8.7000000000000000e+01  0.0000000000000000e+00  0.0000000000000000e+00
8.8000000000000000e+01  0.0000000000000000e+00  0.0000000000000000e+00
8.9000000000000000e+01  0.0000000000000000e+00  0.0000000000000000e+00
9.0000000000000000e+01  0.0000000000000000e+00  0.0000000000000000e+00
9.1000000000000000e+01  0.0000000000000000e+00  0.0000000000000000e+00
9.2000000000000000e+01  0.0000000000000000e+00  0.0000000000000000e+00
9.3000000000000000e+01  0.0000000000000000e+00  0.0000000000000000e+00
9.4000000000000000e+01  0.0000000000000000e+00  0.0000000000000000e+00
9.5000000000000000e+01  0.0000000000000000e+00  0.0000000000000000e+00
9.6000000000000000e+01  0.0000000000000000e+00  0.0000000000000000e+00
9.7000000000000000e+01  0.0000000000000000e+00  0.0000000000000000e+00
9.8000000000000000e+01  0.0000000000000000e+00  0.0000000000000000e+00
9.9000000000000000e+01  0.0000000000000000e+00  0.0000000000000000e+00
1.0000000000000000e+02  0.0000000000000000e+00  0.0000000000000000e+00

CELLS 0 0


CELL_TYPES 0


POINT_DATA 101

VECTORS VertexNormals float

0.0000000000000000e+00 0.0000000000000000e+00 0
0.0000000000000000e+00 0.0000000000000000e+00 0
0.0000000000000000e+00 0.0000000000000000e+00 0
0.0000000000000000e+00 0.0000000000000000e+00 0
0.0000000000000000e+00 0.0000000000000000e+00 0
0.0000000000000000e+00 0.0000000000000000e+00 0
0.0000000000000000e+00 0.0000000000000000e+00 0
0.0000000000000000e+00 0.0000000000000000e+00 0
0.0000000000000000e+00 0.0000000000000000e+00 0
0.0000000000000000e+00 0.0000000000000000e+00 0
0.0000000000000000e+00 0.0000000000000000e+00 0
0.0000000000000000e+00 0.0000000000000000e+00 0
0.0000000000000000e+00 0.0000000000000000e+00 0
0.0000000000000000e+00 0.0000000000000000e+00 0
0.0000000000000000e+00 0.0000000000000000e+00 0
0.0000000000000000e+00 0.0000000000000000e+00 0
0.0000000000000000e+00 0.0000000000000000e+00 0
0.0000000000000000e+00 0.0000000000000000e+00 0
0.0000000000000000e+00 0.0000000000000000e+00 0
0.0000000000000000e+00 0.0000000000000000e+00 0
0.0000000000000000e+00 0.0000000000000000e+00 0
0.0000000000000000e+00 0.0000000000000000e+00 0
0.0000000000000000e+00 0.0000000000000000e+00 0
0.0000000000000000e+00 0.0000000000000000e+00 0
0.0000000000000000e+00 0.0000000000000000e+00 0
0.0000000000000000e+00 0.0000000000000000e+00 0
0.0000000000000000e+00 0.0000000000000000e+00 0
0.0000000000000000e+00 0.0000000000000000e+00 0
0.0000000000000000e+00 0.0000000000000000e+00 0
0.0000000000000000e+00 0.0000000000000000e+00 0
0.0000000000000000e+00 0.0000000000000000e+00 0
0.0000000000000000e+00 0.0000000000000000e+00 0
0.0000000000000000e+00 0.0000000000000000e+00 0
0.0000000000000000e+00 0.0000000000000000e+00 0
0.0000000000000000e+00 0.0000000000000000e+00 0
0.0000000000000000e+00 0.0000000000000000e+00 0
0.0000000000000000e+00 0.0000000000000000e+00 0
0.0000000000000000e+00 0.0000000000000000e+00 0
0.0000000000000000e+00 0.0000000000000000e+00 0
0.0000000000000000e+00 0.0000000000000000e+00 0
0.0000000000000000e+00 0.0000000000000000e+00 0
0.0000000000000000e+00 0.0000000000000000e+00 0
0.0000000000000000e+00 0.0000000000000000e+00 0
0.0000000000000000e+00 0.0000000000000000e+00 0
0.0000000000000000e+00 0.0000000000000000e+00 0
0.0000000000000000e+00 0.0000000000000000e+00 0
0.0000000000000000e+00 0.0000000000000000e+00 0
0.0000000000000000e+00 0.0000000000000000e+00 0
0.0000000000000000e+00 0.0000000000000000e+00 0
0.0000000000000000e+00 0.0000000000000000e+00 0
0.0000000000000000e+00 0.0000000000000000e+00 0
0.0000000000000000e+00 0.0000000000000000e+00 0
0.0000000000000000e+00 0.0000000000000000e+00 0
0.0000000000000000e+00 0.0000000000000000e+00 0
0.0000000000000000e+00 0.0000000000000000e+00 0
0.0000000000000000e+00 0.0000000000000000e+00 0
0.0000000000000000e+00 0.0000000000000000e+00 0
0.0000000000000000e+00 0.0000000000000000e+00 0
0.0000000000000000e+00 0.0000000000000000e+00 0
0.0000000000000000e+00 0.0000000000000000e+00 0
0.0000000000000000e+00 0.0000000000000000e+00 0
0.0000000000000000e+00 0.0000000000000000e+00 0
0.0000000000000000e+00 0.0000000000000000e+00 0
0.0000000000000000e+00 0.0000000000000000e+00 0
0.0000000000000000e+00 0.0000000000000000e+00 0
0.0000000000000000e+00 0.0000000000000000e+00 0
0.0000000000000000e+00 0.0000000000000000e+00 0
0.0000000000000000e+00 0.0000000000000000e+00 0
0.0000000000000000e+00 0.0000000000000000e+00 0
0.0000000000000000e+00 0.0000000000000000e+00 0
0.0000000000000000e+00 0.0000000000000000e+00 0
0.0000000000000000e+00 0.0000000000000000e+00 0
0.0000000000000000e+00 0.0000000000000000e+00 0
0.0000000000000000e+00 0.0000000000000000e+00 0
0.0000000000000000e+00 0.0000000000000000e+00 0
0.0000000000000000e+00 0.0000000000000000e+00 0
0.0000000000000000e+00 0.0000000000000000e+00 0
0.0000000000000000e+00 0.0000000000000000e+00 0
0.0000000000000000e+00 0.0000000000000000e+00 0
0.0000000000000000e+00 0.0000000000000000e+00 0
0.0000000000000000e+00 0.0000000000000000e+00 0
0.0000000000000000e+00 0.0000000000000000e+00 0
0.0000000000000000e+00 0.0000000000000000e+00 0
0.0000000000000000e+00 0.0000000000000000e+00 0
0.0000000000000000e+00 0.0000000000000000e+00 0
0.0000000000000000e+00 0.0000000000000000e+00 0
0.0000000000000000e+00 0.0000000000000000e+00 0
0.0000000000000000e+00 0.0000000000000000e+00 0
0.0000000000000000e+00 0.0000000000000000e+00 0
0.0000000000000000e+00 0.0000000000000000e+00 0
0.0000000000000000e+00 0.0000000000000000e+00 0
0.0000000000000000e+00 0.0000000000000000e+00 0
0.0000000000000000e+00 0.0000000000000000e+00 0
0.0000000000000000e+00 0.0000000000000000e+00 0
0.0000000000000000e+00 0.0000000000000000e+00 0
0.0000000000000000e+00 0.0000000000000000e+00 0
0.0000000000000000e+00 0.0000000000000000e+00 0
0.0000000000000000e+00 0.0000000000000000e+00 0
0.0000000000000000e+00 0.0000000000000000e+00 0
0.0000000000000000e+00 0.0000000000000000e+00 0
0.0000000000000000e+00 0.0000000000000000e+00 0

SCALARS CrossSectionLength float
LOOKUP_TABLE default
1.0000988277282294e+00
1.0000988170449414e+00
1.0000988063616538e+00
1.0000987956783698e+00
1.0000987849950851e+00
1.0000987743117991e+00
1.0000987636285079e+00
1.0000987529452119e+00
1.0000987422619090e+00
1.0000987315785985e+00
1.0000987208952807e+00
1.0000987102119550e+00
1.0000986995286205e+00
1.0000986888452783e+00
1.0000986781619261e+00
1.0000986674785639e+00
1.0000986567951933e+00
1.0000986461118113e+00
1.0000986354284183e+00
1.0000986247450154e+00
1.0000986140616006e+00
1.0000986033781742e+00
1.0000985926947368e+00
1.0000985820112862e+00
1.0000985713278219e+00
1.0000985606443464e+00
1.0000985499608563e+00
1.0000985392773534e+00
1.0000985285938353e+00
1.0000985179103032e+00
1.0000985072267565e+00
1.0000984965431940e+00
1.0000984858596165e+00
1.0000984751760222e+00
1.0000984644924125e+00
1.0000984538087856e+00
1.0000984431251423e+00
1.0000984324414808e+00
1.0000984217578024e+00
1.0000984110741054e+00
1.0000984003903897e+00
1.0000983897066564e+00
1.0000983790229028e+00
1.0000983683391298e+00
1.0000983576553382e+00
1.0000983469715246e+00
1.0000983362876923e+00
1.0000983256038372e+00
1.0000983149199620e+00
1.0000983042360647e+00
1.0000982935521461e+00
1.0000982828682046e+00
1.0000982721842404e+00
1.0000982615002534e+00
1.0000982508162424e+00
1.0000982401322074e+00
1.0000982294481489e+00
1.0000982187640657e+00
1.0000982080799576e+00
1.0000981973958247e+00
1.0000981867116652e+00
1.0000981760274796e+00
1.0000981653432690e+00
1.0000981546590306e+00
1.0000981439747663e+00
1.0000981332904737e+00
1.0000981226061536e+00
1.0000981119218055e+00
1.0000981012374290e+00
1.0000980905530237e+00
1.0000980798685890e+00
1.0000980691841246e+00
1.0000980584996304e+00
1.0000980478151058e+00
1.0000980371305510e+00
1.0000980264459653e+00
1.0000980157613470e+00
1.0000980050766977e+00
1.0000979943920170e+00
1.0000979837073043e+00
1.0000979730225565e+00
1.0000979623377773e+00
1.0000979516529647e+00
1.0000979409681174e+00
1.0000979302832367e+00
1.0000979195983211e+00
1.0000979089133704e+00
1.0000978982283839e+00
1.0000978875433626e+00
1.0000978768583049e+00
1.0000978661732107e+00
1.0000978554880793e+00
1.0000978448029114e+00
1.0000978341177060e+00
1.0000978234324631e+00
1.0000978127471809e+00
1.0000978020618605e+00
1.0000977913765023e+00
1.0000977806911031e+00
1.0000977700056652e+00
1.0000977593201870e+00

SCALARS Pressure float
LOOKUP_TABLE default
9.8625596222980003e-05
9.8614968222321411e-05
9.8604340221662820e-05
9.8593716685568432e-05
9.8583098975064731e-05
9.8572487503444057e-05
9.8561882394989129e-05
9.8551283686043730e-05
9.8540691386285763e-05
9.8530105497350121e-05
9.8519526018465856e-05
9.8508952948151609e-05
9.8498386284720429e-05
9.8487826026428025e-05
9.8477272171514980e-05
9.8466724718218165e-05
9.8456183664774016e-05
9.8445649009419080e-05
9.8435120750389805e-05
9.8424598885923009e-05
9.8414083414255426e-05
9.8403574333623804e-05
9.8393071642264879e-05
9.8382575338415399e-05
9.8372085420311882e-05
9.8361601886191131e-05
9.8351124734289799e-05
9.8340653962844567e-05
9.8330189570092156e-05
9.8319731554269180e-05
9.8309279913612359e-05
9.8298834646358361e-05
9.8288395750743853e-05
9.8277963225005489e-05
9.8267537067379894e-05
9.8257117276103831e-05
9.8246703849413941e-05
9.8236296785546781e-05
9.8225896082738869e-05
9.8215501739226888e-05
9.8205113753247272e-05
9.8194732123036690e-05
9.8184356846831795e-05
9.8173987922869105e-05
9.8163625349385341e-05
9.8153269124616940e-05
9.8142919246800434e-05
9.8132575714172300e-05
9.8122238524969002e-05
9.8111907677427004e-05
9.8101583169782851e-05
9.8091265000272980e-05
9.8080953167133895e-05
9.8070647668602033e-05
9.8060348502913803e-05
9.8050055668305521e-05
9.8039769163013650e-05
9.8029488985274695e-05
9.8019215133325066e-05
9.8008947605401144e-05
9.7998686399739326e-05
9.7988431514575887e-05
9.7978182948147276e-05
9.7967940698689875e-05
9.7957704764439933e-05
9.7947475143633751e-05
9.7937251834507574e-05
9.7927034835297718e-05
9.7916824144240471e-05
9.7906619759572107e-05
9.7896421679528873e-05
9.7886229902346974e-05
9.7876044426262632e-05
9.7865865249512107e-05
9.7855692370331685e-05
9.7845525786957547e-05
9.7835365497625669e-05
9.7825211500572094e-05
9.7815063794033123e-05
9.7804922376244882e-05
9.7794787245443320e-05
9.7784658399864492e-05
9.7774535837744580e-05
9.7764419557319558e-05
9.7754309556825390e-05
9.7744205834498187e-05
9.7734108388573869e-05
9.7724017217288333e-05
9.7713932318877581e-05
9.7703853691577454e-05
9.7693781333624171e-05
9.7683715243252964e-05
9.7673655418701230e-05
9.7663601858201396e-05
9.7653554559997053e-05
9.7643513522306506e-05
9.7633478743403392e-05
9.7623450221444270e-05
9.7613427954820306e-05
9.7603411941500978e-05
9.7593402180029648e-05

