/*--------------------------------*- C++ -*----------------------------------*\
| =========                 |                                                 |
| \\      /  F ield         | OpenFOAM: The Open Source CFD Toolbox           |
|  \\    /   O peration     | Version:  2006                                  |
|   \\  /    A nd           | Website:  www.openfoam.com                      |
|    \\/     M anipulation  |                                                 |
\*---------------------------------------------------------------------------*/
FoamFile
{
    version     2.0;
    format      ascii;
    class       volScalarField;
    location    "6.5";
    object      p;
}
// * * * * * * * * * * * * * * * * * * * * * * * * * * * * * * * * * * * * * //

dimensions      [0 2 -2 0 0 0 0];


internalField   nonuniform List<scalar> 
2790
(
146.831
146.738
147.006
147.577
148.357
149.314
150.446
151.753
153.23
154.87
156.67
158.621
160.715
162.939
165.28
167.716
170.22
172.759
175.291
177.765
180.123
182.301
184.231
185.852
187.112
187.986
188.422
188.477
188.528
188.741
146.628
146.646
146.938
147.506
148.283
149.237
150.365
151.665
153.134
154.767
156.557
158.498
160.581
162.794
165.124
167.55
170.045
172.579
175.109
177.587
179.955
182.151
184.105
185.754
187.038
187.912
188.309
188.364
188.496
188.781
146.43
146.517
146.828
147.386
148.15
149.091
150.204
151.486
152.934
154.542
156.304
158.213
160.261
162.437
164.725
167.107
169.559
172.05
174.542
176.989
179.339
181.532
183.504
185.194
186.545
187.521
188.114
188.469
188.785
189.083
146.205
146.323
146.647
147.196
147.945
148.87
149.963
151.221
152.64
154.215
155.938
157.804
159.802
161.923
164.151
166.469
168.854
171.277
173.704
176.094
178.401
180.573
182.555
184.295
185.749
186.901
187.769
188.44
188.993
189.512
145.944
146.076
146.409
146.95
147.682
148.586
149.654
150.881
152.263
153.794
155.468
157.277
159.213
161.264
163.416
165.651
167.949
170.284
172.626
174.939
177.184
179.319
181.302
183.092
184.663
186.005
187.135
188.098
188.909
189.656
145.643
145.781
146.116
146.648
147.36
148.238
149.273
150.463
151.8
153.28
154.895
156.637
158.498
160.466
162.527
164.665
166.86
169.089
171.326
173.542
175.704
177.782
179.744
181.565
183.228
184.729
186.076
187.281
188.301
189.219
145.3
145.44
145.771
146.29
146.979
147.827
148.826
149.971
151.257
152.677
154.224
155.89
157.665
159.537
161.494
163.52
165.596
167.702
169.815
171.911
173.966
175.957
177.865
179.675
181.381
182.982
184.476
185.855
187.019
188.066
144.916
145.053
145.377
145.88
146.543
147.357
148.314
149.41
150.637
151.99
153.461
155.04
156.719
158.485
160.325
162.224
164.165
166.129
168.097
170.049
171.966
173.834
175.641
177.383
179.062
180.681
182.236
183.708
184.958
186.108
144.49
144.623
144.937
145.419
146.054
146.83
147.741
148.782
149.945
151.224
152.61
154.094
155.667
157.315
159.026
160.784
162.574
164.377
166.176
167.955
169.699
171.397
173.045
174.645
176.207
177.742
179.251
180.721
181.992
183.231
144.023
144.151
144.452
144.912
145.515
146.249
147.11
148.091
149.185
150.383
151.678
153.059
154.516
156.036
157.606
159.21
160.831
162.454
164.06
165.633
167.162
168.636
170.054
171.422
172.755
174.074
175.394
176.732
177.933
179.237
143.518
143.639
143.925
144.36
144.928
145.619
146.426
147.342
148.361
149.474
150.671
151.942
153.276
154.658
156.076
157.512
158.949
160.37
161.757
163.092
164.36
165.55
166.657
167.685
168.649
169.578
170.509
171.508
172.47
173.789
142.976
143.09
143.358
143.767
144.298
144.941
145.691
146.54
147.48
148.502
149.596
150.751
151.954
153.191
154.446
155.702
156.941
158.142
159.284
160.346
161.308
162.15
162.858
163.424
163.851
164.161
164.405
164.713
165.096
166.269
142.399
142.506
142.755
143.135
143.627
144.221
144.911
145.689
146.547
147.474
148.46
149.494
150.56
151.645
152.73
153.796
154.823
155.787
156.662
157.421
158.034
158.468
158.691
158.666
158.363
157.766
156.892
155.901
154.955
155.461
141.79
141.888
142.118
142.467
142.918
143.461
144.089
144.794
145.566
146.396
147.271
148.179
149.105
150.031
150.94
151.809
152.614
153.328
153.919
154.351
154.581
154.558
154.22
153.488
152.265
150.437
147.876
144.577
140.632
138.6
141.15
141.24
141.45
141.768
142.176
142.666
143.23
143.86
144.545
145.275
146.037
146.817
147.598
148.363
149.091
149.758
150.335
150.791
151.088
151.178
151.004
150.494
149.549
148.034
145.756
142.425
137.584
130.572
120.119
107.911
0.825106
0.805162
0.738499
0.64791
0.55576
0.472937
0.402771
0.345137
0.298533
0.260951
0.230275
0.205046
0.183852
0.165455
0.148921
0.133594
0.119034
0.104961
0.0912388
0.0778912
0.0650902
0.0530899
0.0421098
0.0322528
0.0235122
0.0158961
0.00955975
0.00475152
0.00158809
-0.000389964
0.779267
0.757148
0.694719
0.611468
0.526905
0.450622
0.385737
0.332283
0.288947
0.253932
0.225521
0.201933
0.181822
0.164152
0.148111
0.133102
0.118727
0.104728
0.0909873
0.0775548
0.0646495
0.0525808
0.0415946
0.0317751
0.0230638
0.0154391
0.00911372
0.00436226
0.00142745
0.000319656
0.728363
0.702217
0.642448
0.566105
0.489803
0.421202
0.3629
0.314924
0.276023
0.244473
0.218612
0.196966
0.178357
0.161811
0.146566
0.132111
0.118088
0.104252
0.0904986
0.0769137
0.0638038
0.0515869
0.0405624
0.0307843
0.0220744
0.0142804
0.00769407
0.00307493
0.000711161
0.000527034
0.679012
0.648606
0.590584
0.520117
0.451541
0.390377
0.338632
0.296218
0.261841
0.233793
0.210556
0.190942
0.173927
0.158563
0.144153
0.130285
0.116665
0.103067
0.0893855
0.0757264
0.0624909
0.050235
0.0393074
0.0297344
0.0212034
0.0134268
0.00680957
0.00218622
-0.000213562
-0.000577794
0.644167
0.6095
0.552876
0.486505
0.423524
0.367661
0.320627
0.282245
0.251139
0.225554
0.204127
0.185941
0.170097
0.155597
0.141803
0.128414
0.115161
0.101819
0.088259
0.0745777
0.0612752
0.0490575
0.0382521
0.0288055
0.0203564
0.0124699
0.00579833
0.00153843
-0.000135352
-0.00056328
0.635814
0.595733
0.53971
0.474428
0.413375
0.359233
0.313756
0.27677
0.246779
0.221905
0.200939
0.183206
0.167845
0.153693
0.140121
0.126912
0.113811
0.100587
0.0870596
0.0733035
0.0600293
0.0481703
0.0379207
0.0289996
0.020779
0.0129167
0.00578808
0.000796995
-0.00118174
-0.00100219
0.664932
0.61682
0.558491
0.489452
0.424657
0.367297
0.31932
0.280484
0.249131
0.223185
0.201321
0.183015
0.167537
0.15333
0.139632
0.126302
0.113174
0.100036
0.0866793
0.0730346
0.0594005
0.0467779
0.0361996
0.027426
0.0196067
0.0122855
0.00575701
0.000947631
-0.0014879
-0.00114396
0.737096
0.678838
0.610255
0.530956
0.456035
0.390361
0.336013
0.292586
0.258303
0.230411
0.206425
0.185506
0.167435
0.15191
0.137785
0.124241
0.111019
0.0979699
0.0849238
0.0717831
0.058715
0.0463462
0.0355491
0.0264301
0.0185606
0.0115235
0.00532527
0.000415353
-0.00235607
-0.00138665
0.851707
0.773536
0.685829
0.589788
0.500097
0.422853
0.35966
0.308767
0.267407
0.234392
0.208093
0.186406
0.167793
0.151515
0.136688
0.122647
0.109135
0.0960589
0.0832399
0.0704242
0.057559
0.0450763
0.0337773
0.0241895
0.0163405
0.00987161
0.00432727
-0.000405229
-0.00319514
-0.00160144
0.988189
0.877561
0.761302
0.645002
0.540264
0.449895
0.376226
0.31838
0.273465
0.237831
0.209195
0.18588
0.16646
0.149695
0.134409
0.119886
0.10603
0.0929986
0.0806676
0.0685003
0.0559805
0.0432108
0.0310657
0.0206809
0.0127491
0.00702655
0.00248276
-0.00162973
-0.0040237
-0.00179054
1.10918
0.963484
0.817946
0.677027
0.556511
0.45867
0.380483
0.319227
0.272037
0.235213
0.205793
0.182018
0.162647
0.146174
0.130942
0.116045
0.101741
0.0887632
0.0771828
0.0660139
0.0539644
0.0406299
0.0270942
0.0154347
0.00734085
0.00273473
-0.00023128
-0.00316165
-0.00478536
-0.00195085
1.20382
1.00669
0.829686
0.67211
0.542885
0.442116
0.364369
0.304851
0.259779
0.224837
0.196535
0.173544
0.155393
0.14042
0.126033
0.110855
0.0958235
0.0828656
0.0725362
0.0630782
0.0518345
0.0375682
0.0217533
0.00797799
-0.000464366
-0.00334935
-0.00381386
-0.00486429
-0.00543333
-0.00207534
1.21146
0.946597
0.747224
0.591402
0.473735
0.38703
0.321225
0.270865
0.233882
0.20542
0.180729
0.159628
0.14397
0.13227
0.119964
0.10447
0.0879415
0.0746919
0.0663699
0.0598921
0.0501569
0.0345037
0.0150417
-0.00224314
-0.0114204
-0.0116447
-0.0081704
-0.0064909
-0.0059143
-0.00215821
0.964542
0.635263
0.495851
0.405819
0.332705
0.286001
0.249381
0.216535
0.193897
0.177555
0.158912
0.139667
0.127527
0.121938
0.113909
0.0978373
0.0780193
0.0634858
0.0582422
0.0569143
0.0499644
0.0322997
0.00708442
-0.015963
-0.0266163
-0.0227375
-0.013051
-0.00756095
-0.00613286
-0.00219526
0.2726
-0.116833
-0.0236689
0.0991073
0.111668
0.146567
0.161486
0.144702
0.137008
0.141609
0.133397
0.114226
0.105592
0.110274
0.110149
0.09234
0.0652362
0.047054
0.0466224
0.0544219
0.0526825
0.0322245
-0.00187234
-0.0342001
-0.0476844
-0.0375345
-0.0179634
-0.00715761
-0.00589367
-0.00218527
140.471
140.552
140.74
141.025
141.39
141.825
142.323
142.874
143.469
144.096
144.741
145.389
146.023
146.622
147.165
147.623
147.967
148.159
148.152
147.892
147.305
146.296
144.732
142.418
139.056
134.15
126.781
115.035
92.8893
33.1601
139.744
139.815
139.981
140.231
140.55
140.928
141.357
141.828
142.33
142.85
143.374
143.886
144.368
144.797
145.15
145.397
145.503
145.426
145.115
144.506
143.512
142.022
139.876
136.842
132.564
126.457
117.488
103.924
84.3993
55.9331
138.975
139.036
139.179
139.392
139.664
139.983
140.341
140.729
141.135
141.547
141.948
142.323
142.651
142.909
143.072
143.107
142.977
142.638
142.031
141.088
139.717
137.798
135.164
131.587
126.741
120.17
111.284
99.4431
85.1938
68.5405
138.164
138.215
138.334
138.511
138.734
138.993
139.279
139.583
139.893
140.194
140.472
140.709
140.883
140.972
140.947
140.775
140.418
139.827
138.944
137.698
135.996
133.722
130.723
126.803
121.715
115.164
106.855
96.4521
83.8926
68.7351
137.314
137.355
137.449
137.589
137.763
137.961
138.175
138.394
138.607
138.799
138.954
139.054
139.078
139.001
138.794
138.424
137.851
137.027
135.895
134.385
132.41
129.864
126.617
122.515
117.375
110.998
103.184
93.6877
82.3424
69.3539
136.428
136.458
136.528
136.629
136.753
136.891
137.032
137.167
137.284
137.367
137.402
137.368
137.246
137.009
136.63
136.074
135.303
134.27
132.92
131.189
128.999
126.26
122.866
118.697
113.624
107.512
100.237
91.7001
81.8912
71.2228
135.507
135.526
135.571
135.636
135.71
135.787
135.856
135.908
135.93
135.908
135.825
135.663
135.4
135.013
134.472
133.746
132.796
131.58
130.047
128.14
125.792
122.93
119.47
115.326
110.411
104.645
97.9734
90.3855
81.9241
72.9251
134.554
134.564
134.584
134.611
134.637
134.654
134.653
134.623
134.553
134.428
134.233
133.948
133.554
133.026
132.337
131.458
130.352
128.981
127.3
125.259
122.805
119.879
116.42
112.369
107.671
102.288
96.2047
89.4417
82.0487
74.298
133.575
133.574
133.57
133.561
133.539
133.497
133.428
133.319
133.161
132.938
132.636
132.236
131.719
131.063
130.241
129.227
127.987
126.489
124.693
122.559
120.044
117.104
113.695
109.781
105.331
100.332
94.7893
88.7366
82.2279
75.4909
132.572
132.561
132.534
132.489
132.42
132.322
132.187
132.003
131.76
131.445
131.043
130.537
129.908
129.135
128.197
127.066
125.716
124.117
122.238
120.045
117.506
114.59
111.267
107.517
103.327
98.6971
93.6455
88.2115
82.4482
76.5406
131.55
131.529
131.48
131.4
131.287
131.135
130.936
130.681
130.359
129.958
129.463
128.86
128.13
127.256
126.216
124.988
123.55
121.875
119.939
117.717
115.184
112.32
109.108
105.536
101.604
97.3217
92.7121
87.8147
82.6776
77.4492
130.514
130.484
130.413
130.3
130.145
129.942
129.684
129.362
128.966
128.485
127.906
127.215
126.397
125.434
124.308
123.002
121.494
119.766
117.798
115.57
113.068
110.276
107.188
103.799
100.117
96.1554
91.9394
87.5055
82.8957
78.2291
129.47
129.431
129.339
129.196
129
128.749
128.436
128.052
127.589
127.035
126.381
125.612
124.716
123.678
122.482
121.113
119.555
117.793
115.812
113.599
111.143
108.438
105.48
102.273
98.827
95.1577
91.29
87.2565
83.093
78.8956
128.422
128.376
128.265
128.092
127.859
127.564
127.199
126.759
126.234
125.616
124.894
124.058
123.095
121.995
120.743
119.327
117.735
115.955
113.977
111.793
109.396
106.785
103.96
100.929
97.7019
94.2968
90.7364
87.049
83.265
79.4622
127.378
127.324
127.195
126.996
126.729
126.392
125.981
125.489
124.909
124.234
123.454
122.559
121.542
120.39
119.095
117.645
116.033
114.25
112.288
110.143
107.814
105.3
102.606
99.7406
96.7155
93.5476
90.2576
86.8698
83.4099
79.9411
126.344
126.282
126.137
125.913
125.615
125.241
124.789
124.251
123.622
122.897
122.066
121.123
120.06
118.869
117.542
116.071
114.45
112.673
110.737
108.64
106.382
103.966
101.398
98.6875
95.8465
92.8905
89.8381
86.7101
83.5279
80.3432
125.326
125.258
125.098
124.852
124.525
124.118
123.628
123.05
122.379
121.61
120.738
119.755
118.656
117.435
116.085
114.602
112.982
111.221
109.318
107.273
105.088
102.768
100.319
97.7518
95.0775
92.3103
89.4664
86.5638
83.6203
80.6784
124.331
124.258
124.084
123.818
123.466
123.03
122.507
121.894
121.187
120.382
119.474
118.459
117.332
116.089
114.726
113.24
111.628
109.889
108.023
106.032
103.92
101.692
99.3551
96.919
94.3946
91.7949
89.1339
86.427
83.6892
80.9555
123.367
123.288
123.103
122.819
122.445
121.983
121.432
120.789
120.051
119.216
118.28
117.24
116.093
114.835
113.466
111.983
110.384
108.672
106.846
104.91
102.869
100.727
98.4938
96.1769
93.7869
91.3353
88.8345
86.2975
83.7372
81.1825
122.441
122.357
122.162
121.862
121.469
120.985
120.409
119.741
118.978
118.118
117.16
116.101
114.939
113.674
112.304
110.829
109.248
107.565
105.78
103.898
101.924
99.8642
97.7252
95.5159
93.2456
90.9246
88.5637
86.1742
83.7671
81.3664
121.56
121.472
121.268
120.955
120.545
120.042
119.446
118.757
117.973
117.093
116.118
115.046
113.876
112.607
111.241
109.777
108.217
106.564
104.82
102.991
101.08
99.0944
97.0412
94.9282
92.7639
90.5576
88.3187
86.057
83.7819
81.5135
120.732
120.641
120.429
120.104
119.68
119.161
118.549
117.842
117.041
116.147
115.159
114.078
112.903
111.635
110.276
108.826
107.289
105.666
103.962
102.181
100.329
98.4116
96.4354
94.408
92.337
90.2308
88.0978
85.9465
83.785
81.6301
119.965
119.872
119.652
119.318
118.882
118.35
117.723
117.003
116.189
115.284
114.287
113.2
112.024
110.76
109.41
107.976
106.46
104.868
103.201
101.466
99.6669
97.8104
95.9026
93.9504
91.9609
89.9416
87.8999
85.8432
83.7789
81.7209
119.268
119.172
118.947
118.604
118.158
117.615
116.977
116.245
115.422
114.509
113.506
112.417
111.242
109.983
108.643
107.225
105.732
104.167
102.535
100.841
99.0901
97.2876
95.4398
93.553
91.6339
89.6892
87.7255
85.7496
83.7678
81.7919
118.649
118.55
118.32
117.969
117.514
116.962
116.315
115.576
114.745
113.826
112.82
111.73
110.557
109.305
107.977
106.574
105.101
103.562
101.962
100.304
98.5949
96.8393
95.0431
93.2124
91.3531
89.4715
87.5736
85.6654
83.7527
81.8454
118.118
118.016
117.779
117.422
116.959
116.4
115.747
115.001
114.165
113.242
112.235
111.146
109.977
108.732
107.414
106.025
104.571
103.055
101.482
99.8562
98.1826
96.4668
94.7142
92.9304
91.1212
89.292
87.4486
85.5965
83.741
81.8903
117.683
117.578
117.334
116.968
116.499
115.934
115.275
114.524
113.685
112.76
111.752
110.664
109.499
108.261
106.953
105.577
104.139
102.643
101.092
99.4926
97.8485
96.1652
94.4479
92.7019
90.9327
89.1455
87.3454
85.5376
83.727
81.9204
117.357
117.246
116.993
116.621
116.147
115.578
114.914
114.16
113.318
112.391
111.384
110.298
109.137
107.905
106.604
105.239
103.815
102.334
100.802
99.2227
97.6018
95.944
94.2543
92.5379
90.7998
89.045
87.2786
85.5054
83.73
81.9586
117.155
117.02
116.75
116.372
115.896
115.324
114.658
113.902
113.059
112.133
111.126
110.042
108.884
107.657
106.363
105.006
103.59
102.12
100.601
99.0361
97.4309
95.7903
94.1191
92.4222
90.7047
88.9713
87.2267
85.4757
83.7226
81.9723
117.137
116.938
116.64
116.255
115.776
115.201
114.532
113.774
112.93
112.004
110.998
109.916
108.761
107.537
106.247
104.896
103.487
102.025
100.514
98.9589
97.3641
95.7346
94.0751
92.3907
90.686
88.9658
87.2347
85.4973
83.7578
82.0204
-50.5705
-30.3213
-11.1618
35.559
28.1113
16.0719
51.025
38.9309
27.7128
52.4534
42.0267
33.9794
56.795
48.5038
41.7434
61.1842
54.2728
48.3792
64.4598
58.5767
53.5262
67.0584
62.0323
57.7222
69.2493
64.9161
61.2066
71.0988
67.3194
64.0919
72.654
69.3233
66.4862
73.9645
71.0019
68.4833
75.0708
72.413
70.1568
76.0052
73.6021
71.5643
76.7941
74.6058
72.7515
77.4595
75.4538
73.7546
78.0197
76.17
74.6029
78.4898
76.7742
75.32
78.8829
77.2826
75.9253
79.2099
77.7093
76.4352
79.4805
78.0658
76.8632
79.7032
78.3625
77.2211
79.8848
78.6075
77.5184
80.0333
78.81
77.765
80.1513
78.9732
77.9654
80.2504
79.1097
78.132
80.3221
79.2113
78.2583
80.3949
79.3068
78.371
80.4289
79.3571
78.4354
80.498
79.4403
78.525
-2.85067
-2.74579
-1.2772
-0.137215
-0.103866
-0.00853991
0.055857
0.0344418
0.0506875
0.110905
0.121841
0.0882956
0.0735315
0.0931926
0.110135
0.0898835
0.0490131
0.0231521
0.0306716
0.0547357
0.062335
0.0373191
-0.0110257
-0.0585668
-0.0775639
-0.0578895
-0.0221139
-0.00348654
-0.00469177
-0.00213159
2.30148
-0.622539
0.966909
0.436406
-0.898019
-0.660496
-0.0305571
0.0131122
0.0294982
0.130555
0.115026
0.0227276
-0.00550571
0.0649707
0.134676
0.107634
0.0349006
-0.0124065
0.00342784
0.0555991
0.0804749
0.0481434
-0.022277
-0.0935454
-0.122048
-0.0873896
-0.0239478
0.00716382
-0.00114488
-0.00206252
13.4477
5.07846
2.28283
-0.16124
-0.490782
0.921943
1.10601
-0.186893
-0.565932
-0.213698
0.133758
0.0323567
-0.0180223
0.116225
0.20648
0.128328
-0.0116829
-0.0986169
-0.0592593
0.0609438
0.127219
0.080357
-0.0250945
-0.133947
-0.181414
-0.128218
-0.0204343
0.0316426
0.00812655
-0.00207944
23.2198
13.3374
7.46352
3.69328
1.96083
1.4064
0.218157
-0.456442
-0.105218
1.06343
0.972771
-0.109883
-0.495541
-0.291577
0.178181
0.225276
-0.00953057
-0.158391
-0.0823446
0.131116
0.213244
0.119722
-0.0432627
-0.210802
-0.29214
-0.213026
-0.0111616
0.0803894
0.0293119
-0.00248973
32.3935
22.6233
15.3026
10.013
6.38134
3.91244
2.05183
1.05285
0.779433
0.781943
0.273533
-0.317247
-0.398989
0.499981
1.03583
0.453458
-0.145296
-0.484748
-0.44293
0.000140868
0.299524
0.198673
-0.0351087
-0.270357
-0.386771
-0.23758
0.0279216
0.169083
0.0703004
-0.00404925
40.375
31.4442
23.555
17.1237
12.2007
8.56079
5.8939
4.01637
2.74723
1.8437
1.07598
0.482965
0.256757
0.519042
0.524685
0.274208
-0.191431
-0.502875
-0.259221
0.551661
0.73963
0.267307
-0.0823257
-0.409697
-0.645158
-0.578735
-0.00710682
0.296965
0.134938
-0.00918686
46.8889
39.0791
31.3
24.4087
18.7855
14.3306
10.8129
8.06334
5.97064
4.39917
3.17938
2.22067
1.57972
1.25427
0.984071
0.64363
0.171606
-0.140648
-0.0365928
0.328809
0.459696
0.274206
-0.0549926
-0.436272
-0.694593
-0.416666
0.366853
0.565992
0.212383
-0.0223254
52.1939
45.459
38.1982
31.367
25.4854
20.5432
16.4068
12.9882
10.2214
8.00901
6.22228
4.77914
3.67724
2.8893
2.273
1.67752
1.0881
0.672298
0.554219
0.632943
0.644917
0.434655
0.0663539
-0.308598
-0.508784
-0.300923
0.168838
0.403756
0.308115
-0.063374
56.5214
50.7018
44.1149
37.6401
31.8228
26.7134
22.2471
18.3888
15.1089
12.3515
10.0406
8.11794
6.55402
5.30708
4.28053
3.37652
2.58275
1.97177
1.59805
1.39853
1.19865
0.870478
0.455262
0.0789008
-0.121386
-0.0332639
0.244001
0.397641
0.264848
-0.302229
60.0529
54.9832
49.0786
43.0927
37.5392
32.496
27.934
23.849
20.2422
17.0951
14.3706
12.0302
10.0415
8.36531
6.94041
5.70728
4.64501
3.77416
3.11045
2.60763
2.15676
1.6745
1.17619
0.741185
0.459985
0.388689
0.454356
0.439116
0.176642
-0.517259
62.9534
58.4924
53.2109
47.7419
42.546
37.7064
33.2105
29.0696
25.3048
21.9215
18.9077
16.2431
13.905
11.8655
10.0871
8.53134
7.17551
6.01716
5.05256
4.2472
3.53488
2.86089
2.2232
1.66493
1.23984
0.972044
0.802646
0.582807
0.175196
-0.592588
65.3557
61.3911
56.6521
51.6727
46.8584
42.288
37.9545
33.875
30.0793
26.5859
23.3985
20.5114
17.9135
15.589
13.5157
11.6691
10.0304
8.58923
7.33454
6.24042
5.26515
4.37149
3.55008
2.82027
2.20896
1.72127
1.31023
0.874488
0.311383
-0.52205
67.3597
63.8037
59.5281
54.9889
50.5431
46.2612
42.1371
38.1879
34.4454
30.9342
27.6668
24.6473
21.8741
19.3409
17.0364
14.9463
13.0574
11.3588
9.83847
8.47702
7.24707
6.12286
5.09291
4.16205
3.33953
2.62018
1.96721
1.31139
0.581177
-0.331131
69.0405
65.8246
61.9428
57.7903
53.6831
49.6832
45.7835
41.9985
38.3586
34.8902
31.6102
28.5283
25.6494
22.9739
20.4983
18.2159
16.1186
14.1979
12.444
10.8426
9.37542
8.02428
6.77779
5.63292
4.58875
3.63535
2.74412
1.86788
0.95931
-0.0557478
70.4563
67.5256
63.9791
60.1629
56.3592
52.6226
48.9441
45.3349
41.8226
38.4329
35.1844
32.0897
29.1574
26.3927
23.7972
21.3692
19.1054
17.0004
15.0472
13.2362
11.5547
9.9898
8.53126
7.1725
5.90757
4.72497
3.60248
2.50778
1.41029
0.264123
71.652
68.9624
65.7021
62.1774
58.6425
55.1457
51.6759
48.2413
44.866
41.5741
38.3838
35.309
32.3606
29.5462
26.8709
24.3368
21.9437
19.6895
17.57
15.579
13.708
11.9479
10.2897
8.72602
7.24884
5.84677
4.50228
3.19267
1.8976
0.592915
72.6634
70.1784
67.1632
63.8913
60.593
57.3113
54.034
50.7659
47.5278
44.3414
41.2242
38.19
35.2505
32.4149
29.6902
27.0811
24.5897
22.2166
19.9599
17.8163
15.7803
13.8453
12.004
10.2492
8.57268
6.96366
5.40795
3.88858
2.3906
0.904962
73.5192
71.2085
68.4038
65.3509
62.2601
59.1701
56.0674
52.9543
49.8482
46.7686
43.7313
40.7498
37.8356
34.9987
32.2471
29.5869
27.0223
24.5554
22.1866
19.9145
17.7358
15.6461
13.6397
11.7098
9.84879
8.04677
6.29162
4.56949
2.86748
1.18578
74.2429
72.0808
69.457
66.594
63.6847
60.7643
57.8185
54.8473
51.8653
48.8894
45.934
43.0114
40.1328
37.308
34.5458
31.8529
29.2347
26.6947
24.2347
21.8549
19.5539
17.3286
15.1746
13.0862
11.0562
9.07572
7.1337
5.21772
3.31498
1.43033
74.8538
72.8185
70.3504
67.6518
64.9008
62.1296
59.3237
56.4809
53.6133
50.7356
47.8605
44.9992
42.1619
39.3583
36.597
33.8852
31.2289
28.6326
26.099
23.6295
21.224
18.8806
16.5959
14.3651
12.1818
10.0374
7.92172
5.82268
3.72662
1.63991
75.368
73.4408
71.1064
68.5499
65.9365
63.2961
60.6139
57.886
55.1225
52.3358
49.5372
46.7366
43.9433
41.1663
38.414
35.6936
33.0113
30.3721
27.7795
25.2358
22.7416
20.2959
17.8964
15.5388
13.2172
10.9237
8.64822
6.37859
4.10006
1.8187
75.7993
73.9641
71.7443
69.3101
66.8158
64.2893
61.7154
59.0895
56.4192
53.7156
50.9882
48.2457
45.4966
42.7491
40.011
37.2893
34.5904
31.9192
29.2799
26.6751
24.1061
21.5726
19.073
16.6034
14.1584
11.7304
9.30946
6.88308
4.43556
1.97164
76.1589
74.4017
72.2795
69.9501
67.5581
65.1298
62.6503
60.1136
57.5259
54.8967
52.2342
49.546
46.8396
44.1223
41.4013
38.6835
35.9747
33.2803
30.6042
27.9496
25.3181
22.7099
20.1237
17.5562
15.0022
12.4544
9.90277
7.33456
4.73337
2.10216
76.4578
74.7659
72.7265
70.486
68.1812
65.8369
63.4383
60.9788
58.4632
55.8995
53.295
50.6561
47.9894
45.3015
42.5989
39.8881
37.1746
34.4635
31.759
29.0642
26.381
23.7099
21.0497
18.3977
15.7488
13.0957
10.4284
7.73405
4.99569
2.21403
76.702
75.0645
73.0941
70.9282
68.6965
66.4229
64.0928
61.699
59.245
56.7379
54.1839
51.5886
48.9576
46.297
43.6127
40.9104
38.1956
35.4729
32.7466
30.0197
27.2943
24.5709
21.8486
19.1248
16.3945
13.6506
10.883
8.07865
5.22045
2.30682
76.9035
75.3102
73.3964
71.2918
69.1202
66.905
64.6316
62.2923
59.8899
57.4304
54.9192
52.3612
49.7613
47.125
44.4575
41.7642
39.0501
36.3198
33.5771
30.825
28.0657
25.2998
22.5264
19.7429
16.9445
14.1241
11.2716
8.37372
5.41329
2.38568
77.0589
75.5005
73.6316
71.5755
69.4518
67.283
65.0548
62.7592
60.3982
57.9771
55.5006
52.9732
50.3991
47.7831
45.1302
42.4452
39.7328
36.9974
34.2425
31.4712
28.6855
25.886
23.0718
20.2405
17.3871
14.5046
11.5828
8.60842
5.56431
2.4436
77.1906
75.6579
73.823
71.8039
69.7163
67.5825
65.3887
63.1262
60.7968
58.405
55.9552
53.4513
50.8972
48.2972
45.6558
42.9777
40.2672
37.5283
34.7648
31.9793
29.1737
26.3488
23.5037
20.6357
17.7401
14.8096
11.8341
8.79987
5.68978
2.49313
77.2717
75.7551
73.9425
71.9484
69.8852
67.775
65.604
63.3638
61.0555
58.6834
56.2517
53.7636
51.223
48.6339
46.0005
43.3272
40.6182
37.8773
35.1081
32.3132
29.4945
26.6527
23.7867
20.894
17.9698
15.0066
11.994
8.91833
5.76208
2.51304
77.3606
75.8451
74.0448
72.0657
70.0162
67.9185
65.7597
63.5312
61.2339
58.8719
56.4492
53.9689
51.4348
48.8505
46.2205
43.5487
40.8394
38.0964
35.323
32.5221
29.6953
26.8433
23.9652
21.0584
18.1179
15.1363
12.1029
9.00286
5.81635
2.51948
)
;

boundaryField
{
    inlet
    {
        type            zeroGradient;
    }
    outlet
    {
        type            fixedValue;
        value           uniform 0;
    }
    flap
    {
        type            zeroGradient;
    }
    upperWall
    {
        type            zeroGradient;
    }
    lowerWall
    {
        type            zeroGradient;
    }
    frontAndBack
    {
        type            empty;
    }
}


// ************************************************************************* //
