/*--------------------------------*- C++ -*----------------------------------*\
| =========                 |                                                 |
| \\      /  F ield         | OpenFOAM: The Open Source CFD Toolbox           |
|  \\    /   O peration     | Version:  5.x                                   |
|   \\  /    A nd           | Web:      www.OpenFOAM.org                      |
|    \\/     M anipulation  |                                                 |
\*---------------------------------------------------------------------------*/
FoamFile
{
    version     2.0;
    format      ascii;
    class       volVectorField;
    location    "3.5";
    object      Force;
}
// * * * * * * * * * * * * * * * * * * * * * * * * * * * * * * * * * * * * * //

dimensions      [1 1 -2 0 0 0 0];

internalField   uniform (0 0 0);

boundaryField
{
    inlet
    {
        type            calculated;
        value           uniform (0 0 0);
    }
    outlet
    {
        type            calculated;
        value           uniform (0 0 0);
    }
    flap
    {
        type            calculated;
        value           nonuniform List<vector> 
33
(
(3.72146 -0.12981 -6.46348e-21)
(3.71771 -0.308916 6.01421e-18)
(3.70914 -0.491938 -2.35099e-38)
(3.68102 -0.651629 4.82459e-18)
(3.62821 -0.774479 1.35849e-20)
(3.56306 -0.850811 -1.748e-18)
(3.48794 -0.894128 1.72917e-18)
(3.40821 -0.903834 -2.22032e-20)
(3.32047 -0.895438 1.31655e-36)
(3.2205 -0.878463 -3.76158e-37)
(3.08782 -0.861154 1.70926e-18)
(2.91796 -0.818495 9.57665e-18)
(2.68714 -0.751903 1.64627e-18)
(2.34878 -0.649537 1.60131e-18)
(1.7971 -0.489802 -1.49136e-18)
(0.213029 0.763644 1.01688e-18)
(0.130441 0.470044 2.35232e-19)
(0.0482169 0.180779 2.5764e-21)
(0.00914094 -0.000342946 -1.89165e-23)
(0.00910787 -0.00085081 1.46278e-18)
(0.00972377 -0.00148077 1.10973e-22)
(0.0107213 -0.00219617 -3.05724e-18)
(0.0120527 -0.00294824 -1.57276e-18)
(0.0136452 -0.0036898 -3.75882e-20)
(0.015194 -0.00433834 -4.1689e-20)
(0.0160207 -0.00469058 1.66309e-18)
(0.0153822 -0.00453688 -4.21456e-20)
(0.0139888 -0.00415284 -5.87747e-39)
(0.0139911 -0.00413111 -1.68779e-18)
(0.0154905 -0.00439939 1.70377e-18)
(0.017595 -0.0047077 1.68054e-18)
(0.0213948 -0.00542925 -5.86304e-20)
(0.0305883 -0.00788852 1.97975e-18)
)
;
    }
    upperWall
    {
        type            calculated;
        value           uniform (0 0 0);
    }
    lowerWall
    {
        type            calculated;
        value           uniform (0 0 0);
    }
    frontAndBack
    {
        type            empty;
    }
}


// ************************************************************************* //
