/*--------------------------------*- C++ -*----------------------------------*\
| =========                 |                                                 |
| \\      /  F ield         | OpenFOAM: The Open Source CFD Toolbox           |
|  \\    /   O peration     | Version:  5.x                                   |
|   \\  /    A nd           | Web:      www.OpenFOAM.org                      |
|    \\/     M anipulation  |                                                 |
\*---------------------------------------------------------------------------*/
FoamFile
{
    version     2.0;
    format      ascii;
    class       surfaceScalarField;
    location    "0.6";
    object      phi;
}
// * * * * * * * * * * * * * * * * * * * * * * * * * * * * * * * * * * * * * //

dimensions      [1 0 -1 0 0 0 0];

internalField   nonuniform List<scalar> 
23692
(
1.16342e-05
7.26986e-10
1.16307e-05
3.54596e-09
1.16225e-05
8.21824e-09
1.1609e-05
1.34274e-08
1.15914e-05
1.76366e-08
1.15715e-05
1.99544e-08
1.15511e-05
2.04046e-08
1.15315e-05
1.96173e-08
1.15132e-05
1.83435e-08
1.14961e-05
1.71271e-08
1.14799e-05
1.62203e-08
1.14643e-05
1.56542e-08
1.1449e-05
1.53478e-08
1.14339e-05
1.51964e-08
1.14188e-05
1.51141e-08
1.14038e-05
1.50461e-08
1.1389e-05
1.49644e-08
1.13742e-05
1.48587e-08
1.13596e-05
1.47278e-08
1.13452e-05
1.45741e-08
1.13309e-05
1.44009e-08
1.13169e-05
1.42105e-08
1.13031e-05
1.4005e-08
1.12895e-05
1.3785e-08
1.12762e-05
1.35519e-08
1.12631e-05
1.33062e-08
1.12504e-05
1.30487e-08
1.12379e-05
1.27804e-08
1.12257e-05
1.25028e-08
1.12138e-05
1.22174e-08
1.12023e-05
1.19264e-08
1.11911e-05
1.16318e-08
1.11802e-05
1.13363e-08
1.11696e-05
1.10425e-08
1.11593e-05
1.0753e-08
1.11494e-05
1.04708e-08
1.11397e-05
1.0199e-08
1.11304e-05
9.94081e-09
1.11213e-05
9.69941e-09
1.11124e-05
9.47818e-09
1.11038e-05
9.28091e-09
1.10954e-05
9.11136e-09
1.10871e-05
8.97369e-09
1.1079e-05
8.87277e-09
1.10709e-05
8.81366e-09
1.10629e-05
8.80202e-09
1.10549e-05
8.84405e-09
1.10467e-05
8.94692e-09
1.10385e-05
9.11869e-09
1.103e-05
9.36859e-09
1.10212e-05
9.70694e-09
1.10119e-05
1.01456e-08
1.10022e-05
1.06985e-08
1.09917e-05
1.13815e-08
1.09805e-05
1.22134e-08
1.09682e-05
1.3216e-08
1.09548e-05
1.44155e-08
1.09399e-05
1.58429e-08
1.09234e-05
1.75353e-08
1.09049e-05
1.95382e-08
1.0884e-05
2.19069e-08
1.08603e-05
2.47096e-08
1.08333e-05
2.8032e-08
1.08024e-05
3.19815e-08
1.07667e-05
3.66957e-08
1.07254e-05
4.23522e-08
1.06773e-05
4.91841e-08
1.06208e-05
5.75017e-08
1.05542e-05
6.77242e-08
1.04748e-05
8.04291e-08
1.03794e-05
9.64252e-08
1.02636e-05
1.16868e-07
1.01212e-05
1.4344e-07
9.94356e-06
1.7864e-07
9.71834e-06
2.26253e-07
9.42726e-06
2.92097e-07
9.04308e-06
3.85208e-07
8.52428e-06
5.19807e-07
7.80539e-06
7.19897e-07
6.77588e-06
1.03051e-06
1.57131e-06
5.20555e-06
1.24492e-05
1.43599e-09
1.24455e-05
7.24382e-09
1.24369e-05
1.68792e-08
1.24226e-05
2.76466e-08
1.24039e-05
3.63703e-08
1.23827e-05
4.11974e-08
1.2361e-05
4.21663e-08
1.234e-05
4.05707e-08
1.23204e-05
3.79581e-08
1.23021e-05
3.54532e-08
1.22848e-05
3.35808e-08
1.22681e-05
3.24068e-08
1.22518e-05
3.17681e-08
1.22356e-05
3.14493e-08
1.22195e-05
3.12743e-08
1.22035e-05
3.11299e-08
1.21876e-05
3.09585e-08
1.21718e-05
3.07391e-08
1.21562e-05
3.04681e-08
1.21408e-05
3.01509e-08
1.21256e-05
2.97935e-08
1.21105e-05
2.94016e-08
1.20958e-05
2.89786e-08
1.20813e-05
2.85267e-08
1.2067e-05
2.80475e-08
1.20531e-05
2.75425e-08
1.20394e-05
2.70135e-08
1.2026e-05
2.64625e-08
1.2013e-05
2.58927e-08
1.20003e-05
2.53073e-08
1.19879e-05
2.47106e-08
1.19759e-05
2.41073e-08
1.19642e-05
2.3502e-08
1.19528e-05
2.29005e-08
1.19418e-05
2.23084e-08
1.19311e-05
2.17319e-08
1.19207e-05
2.11772e-08
1.19106e-05
2.06505e-08
1.19008e-05
2.0159e-08
1.18912e-05
1.97095e-08
1.18819e-05
1.93095e-08
1.18727e-05
1.89671e-08
1.18638e-05
1.86911e-08
1.1855e-05
1.8491e-08
1.18462e-05
1.83771e-08
1.18375e-05
1.83613e-08
1.18287e-05
1.84566e-08
1.18199e-05
1.86775e-08
1.18109e-05
1.90406e-08
1.18016e-05
1.95647e-08
1.1792e-05
2.02707e-08
1.17819e-05
2.11836e-08
1.17713e-05
2.23312e-08
1.176e-05
2.37462e-08
1.17477e-05
2.54668e-08
1.17344e-05
2.75375e-08
1.17199e-05
3.00113e-08
1.17039e-05
3.2951e-08
1.1686e-05
3.64321e-08
1.16661e-05
4.05459e-08
1.16437e-05
4.54036e-08
1.16184e-05
5.11424e-08
1.15896e-05
5.79325e-08
1.15567e-05
6.59876e-08
1.15189e-05
7.55795e-08
1.14753e-05
8.70566e-08
1.14248e-05
1.00873e-07
1.13658e-05
1.17625e-07
1.12965e-05
1.38114e-07
1.12146e-05
1.63425e-07
1.11171e-05
1.9505e-07
1.1e-05
2.35079e-07
1.08581e-05
2.86467e-07
1.06844e-05
3.53451e-07
1.04696e-05
4.42131e-07
1.02015e-05
5.6127e-07
9.86471e-06
7.23139e-07
9.44157e-06
9.44026e-07
8.91865e-06
1.2439e-06
8.31238e-06
1.63784e-06
2.07435e-06
7.81041e-06
1.33213e-05
2.10675e-09
1.33175e-05
1.10197e-08
1.33086e-05
2.58553e-08
1.32937e-05
4.24997e-08
1.3274e-05
5.60528e-08
1.32516e-05
6.36288e-08
1.32286e-05
6.525e-08
1.32063e-05
6.28852e-08
1.31854e-05
5.89114e-08
1.31658e-05
5.50671e-08
1.31472e-05
5.21733e-08
1.31293e-05
5.03434e-08
1.31118e-05
4.93354e-08
1.30945e-05
4.88227e-08
1.30773e-05
4.85346e-08
1.30603e-05
4.82988e-08
1.30433e-05
4.80258e-08
1.30265e-05
4.76811e-08
1.30098e-05
4.72598e-08
1.29934e-05
4.67686e-08
1.29771e-05
4.62172e-08
1.29611e-05
4.56134e-08
1.29454e-05
4.49625e-08
1.29299e-05
4.42678e-08
1.29146e-05
4.35318e-08
1.28997e-05
4.27568e-08
1.28851e-05
4.19457e-08
1.28708e-05
4.11016e-08
1.28568e-05
4.02291e-08
1.28432e-05
3.93336e-08
1.28299e-05
3.84215e-08
1.2817e-05
3.74999e-08
1.28044e-05
3.65766e-08
1.27922e-05
3.566e-08
1.27803e-05
3.47588e-08
1.27688e-05
3.38826e-08
1.27575e-05
3.30409e-08
1.27466e-05
3.22437e-08
1.27359e-05
3.15012e-08
1.27255e-05
3.08246e-08
1.27154e-05
3.02254e-08
1.27054e-05
2.97159e-08
1.26956e-05
2.93096e-08
1.26859e-05
2.90211e-08
1.26763e-05
2.88668e-08
1.26667e-05
2.88642e-08
1.2657e-05
2.90335e-08
1.26473e-05
2.93972e-08
1.26373e-05
2.99806e-08
1.26271e-05
3.08121e-08
1.26164e-05
3.19245e-08
1.26053e-05
3.33549e-08
1.25935e-05
3.51463e-08
1.2581e-05
3.73481e-08
1.25676e-05
4.00181e-08
1.2553e-05
4.32238e-08
1.25371e-05
4.70449e-08
1.25196e-05
5.15758e-08
1.25002e-05
5.69294e-08
1.24787e-05
6.32416e-08
1.24546e-05
7.06775e-08
1.24275e-05
7.9439e-08
1.23968e-05
8.97757e-08
1.2362e-05
1.01998e-07
1.23223e-05
1.16498e-07
1.22768e-05
1.33772e-07
1.22244e-05
1.54458e-07
1.21638e-05
1.79387e-07
1.20935e-05
2.09647e-07
1.20114e-05
2.46685e-07
1.19152e-05
2.92439e-07
1.1802e-05
3.49529e-07
1.16681e-05
4.2151e-07
1.15096e-05
5.13205e-07
1.13218e-05
6.31071e-07
1.11008e-05
7.83482e-07
1.08446e-05
9.80504e-07
1.05575e-05
1.23223e-06
1.02589e-05
1.54363e-06
9.9994e-06
1.89851e-06
2.215e-06
9.85987e-06
1.42545e-05
2.71285e-09
1.42508e-05
1.47768e-08
1.42416e-05
3.49738e-08
1.42264e-05
5.77656e-08
1.4206e-05
7.6469e-08
1.41825e-05
8.70898e-08
1.41582e-05
8.95793e-08
1.41346e-05
8.6564e-08
1.41123e-05
8.12629e-08
1.40913e-05
7.60581e-08
1.40714e-05
7.20939e-08
1.40523e-05
6.95536e-08
1.40336e-05
6.8126e-08
1.40151e-05
6.73775e-08
1.39967e-05
6.69452e-08
1.39786e-05
6.6594e-08
1.39605e-05
6.62001e-08
1.39426e-05
6.57155e-08
1.39249e-05
6.51314e-08
1.39073e-05
6.44555e-08
1.38901e-05
6.37e-08
1.3873e-05
6.28747e-08
1.38562e-05
6.19868e-08
1.38397e-05
6.10406e-08
1.38235e-05
6.00395e-08
1.38076e-05
5.89866e-08
1.3792e-05
5.78857e-08
1.37767e-05
5.67417e-08
1.37618e-05
5.55602e-08
1.37472e-05
5.43492e-08
1.37329e-05
5.31172e-08
1.37191e-05
5.18742e-08
1.37055e-05
5.06305e-08
1.36924e-05
4.93977e-08
1.36795e-05
4.81881e-08
1.3667e-05
4.70142e-08
1.36549e-05
4.58893e-08
1.3643e-05
4.4827e-08
1.36314e-05
4.38416e-08
1.362e-05
4.29478e-08
1.36089e-05
4.21614e-08
1.35979e-05
4.14995e-08
1.35871e-05
4.09802e-08
1.35764e-05
4.06238e-08
1.35658e-05
4.04519e-08
1.35551e-05
4.04891e-08
1.35444e-05
4.07623e-08
1.35335e-05
4.13021e-08
1.35224e-05
4.21428e-08
1.35109e-05
4.33229e-08
1.34991e-05
4.48864e-08
1.34866e-05
4.68832e-08
1.34736e-05
4.93708e-08
1.34596e-05
5.24155e-08
1.34447e-05
5.60941e-08
1.34286e-05
6.04964e-08
1.34112e-05
6.57274e-08
1.33921e-05
7.19111e-08
1.3371e-05
7.91954e-08
1.33477e-05
8.77568e-08
1.33219e-05
9.78082e-08
1.3293e-05
1.09608e-07
1.32605e-05
1.23473e-07
1.3224e-05
1.39793e-07
1.31827e-05
1.59052e-07
1.31359e-05
1.81856e-07
1.30827e-05
2.08973e-07
1.3022e-05
2.41375e-07
1.29526e-05
2.80312e-07
1.28732e-05
3.27391e-07
1.27822e-05
3.84691e-07
1.26781e-05
4.549e-07
1.25594e-05
5.41467e-07
1.24252e-05
6.48748e-07
1.22754e-05
7.82046e-07
1.21128e-05
9.4735e-07
1.19443e-05
1.15032e-06
1.1784e-05
1.39372e-06
1.16571e-05
1.67182e-06
1.15974e-05
1.95935e-06
2.19357e-06
1.16201e-05
1.52531e-05
3.22313e-09
1.52495e-05
1.83989e-08
1.52405e-05
4.40223e-08
1.52251e-05
7.31658e-08
1.52042e-05
9.73385e-08
1.518e-05
1.11362e-07
1.51545e-05
1.15033e-07
1.51295e-05
1.11582e-07
1.51058e-05
1.05059e-07
1.50834e-05
9.85107e-08
1.50621e-05
9.3439e-08
1.50415e-05
9.01256e-08
1.50215e-05
8.82134e-08
1.50018e-05
8.71719e-08
1.49823e-05
8.65492e-08
1.4963e-05
8.6047e-08
1.49438e-05
8.55066e-08
1.49248e-05
8.48622e-08
1.4906e-05
8.40999e-08
1.48874e-05
8.32271e-08
1.4869e-05
8.22573e-08
1.48509e-05
8.12019e-08
1.48331e-05
8.00691e-08
1.48155e-05
7.88646e-08
1.47983e-05
7.75924e-08
1.47813e-05
7.62566e-08
1.47647e-05
7.4862e-08
1.47484e-05
7.34148e-08
1.47325e-05
7.19228e-08
1.47169e-05
7.03959e-08
1.47017e-05
6.88451e-08
1.46868e-05
6.72829e-08
1.46723e-05
6.57231e-08
1.46581e-05
6.41802e-08
1.46443e-05
6.26698e-08
1.46308e-05
6.12082e-08
1.46175e-05
5.98119e-08
1.46046e-05
5.84985e-08
1.4592e-05
5.72859e-08
1.45795e-05
5.61933e-08
1.45673e-05
5.52407e-08
1.45553e-05
5.44497e-08
1.45433e-05
5.38436e-08
1.45315e-05
5.34476e-08
1.45196e-05
5.32899e-08
1.45077e-05
5.34011e-08
1.44958e-05
5.38156e-08
1.44836e-05
5.45718e-08
1.44711e-05
5.57128e-08
1.44583e-05
5.7287e-08
1.4445e-05
5.93494e-08
1.44311e-05
6.19624e-08
1.44165e-05
6.51975e-08
1.4401e-05
6.91365e-08
1.43845e-05
7.3874e-08
1.43667e-05
7.95198e-08
1.43475e-05
8.6202e-08
1.43267e-05
9.40707e-08
1.43039e-05
1.03303e-07
1.42789e-05
1.1411e-07
1.42513e-05
1.26741e-07
1.42207e-05
1.41499e-07
1.41868e-05
1.58749e-07
1.4149e-05
1.78931e-07
1.41069e-05
2.02588e-07
1.40597e-05
2.30382e-07
1.40069e-05
2.63135e-07
1.39478e-05
3.01859e-07
1.38817e-05
3.47813e-07
1.38079e-05
4.02559e-07
1.37259e-05
4.68023e-07
1.36356e-05
5.4656e-07
1.35375e-05
6.40989e-07
1.3433e-05
7.54557e-07
1.33257e-05
8.90737e-07
1.32217e-05
1.05269e-06
1.31313e-05
1.24206e-06
1.30696e-05
1.45676e-06
1.30556e-05
1.68711e-06
1.31057e-05
1.91052e-06
2.0866e-06
1.3214e-05
1.63217e-05
3.60082e-09
1.63183e-05
2.17593e-08
1.63096e-05
5.27611e-08
1.62944e-05
8.83785e-08
1.62734e-05
1.18328e-07
1.62486e-05
1.36174e-07
1.62222e-05
1.41444e-07
1.6196e-05
1.37879e-07
1.61707e-05
1.30322e-07
1.61468e-05
1.22495e-07
1.6124e-05
1.16294e-07
1.6102e-05
1.12142e-07
1.60807e-05
1.09666e-07
1.60597e-05
1.08257e-07
1.60389e-05
1.07382e-07
1.60184e-05
1.06681e-07
1.59981e-05
1.05959e-07
1.5978e-05
1.0513e-07
1.59581e-05
1.04171e-07
1.59384e-05
1.03087e-07
1.5919e-05
1.01892e-07
1.58998e-05
1.00598e-07
1.5881e-05
9.92145e-08
1.58624e-05
9.77466e-08
1.58441e-05
9.61997e-08
1.58261e-05
9.45788e-08
1.58085e-05
9.28901e-08
1.57912e-05
9.11408e-08
1.57742e-05
8.93413e-08
1.57576e-05
8.7503e-08
1.57413e-05
8.56401e-08
1.57254e-05
8.37679e-08
1.57098e-05
8.19028e-08
1.56946e-05
8.0063e-08
1.56797e-05
7.82671e-08
1.56651e-05
7.6535e-08
1.56508e-05
7.48871e-08
1.56367e-05
7.33444e-08
1.56229e-05
7.19289e-08
1.56093e-05
7.0664e-08
1.55959e-05
6.95741e-08
1.55826e-05
6.86851e-08
1.55695e-05
6.80257e-08
1.55563e-05
6.76266e-08
1.55431e-05
6.75212e-08
1.55299e-05
6.77469e-08
1.55165e-05
6.83452e-08
1.55029e-05
6.9362e-08
1.54889e-05
7.0849e-08
1.54745e-05
7.28637e-08
1.54597e-05
7.54717e-08
1.54442e-05
7.87465e-08
1.54279e-05
8.27721e-08
1.54107e-05
8.76444e-08
1.53924e-05
9.34733e-08
1.53729e-05
1.00385e-07
1.5352e-05
1.08527e-07
1.53294e-05
1.18069e-07
1.53049e-05
1.29211e-07
1.52782e-05
1.42186e-07
1.52491e-05
1.5727e-07
1.52173e-05
1.74789e-07
1.51823e-05
1.95131e-07
1.5144e-05
2.18758e-07
1.51018e-05
2.46224e-07
1.50554e-05
2.78191e-07
1.50046e-05
3.15453e-07
1.49489e-05
3.58959e-07
1.48884e-05
4.09843e-07
1.4823e-05
4.69441e-07
1.47531e-05
5.39315e-07
1.46799e-05
6.21235e-07
1.46052e-05
7.17137e-07
1.45323e-05
8.28973e-07
1.4466e-05
9.5842e-07
1.44138e-05
1.10632e-06
1.43856e-05
1.27174e-06
1.43933e-05
1.45047e-06
1.44488e-05
1.63307e-06
1.45578e-05
1.80289e-06
1.93597e-06
1.47098e-05
1.74651e-05
3.81008e-09
1.74622e-05
2.47286e-08
1.7454e-05
6.09445e-08
1.74393e-05
1.03064e-07
1.74186e-05
1.39075e-07
1.73936e-05
1.61213e-07
1.73664e-05
1.686e-07
1.7339e-05
1.65352e-07
1.73123e-05
1.57039e-07
1.72868e-05
1.48054e-07
1.72624e-05
1.40727e-07
1.7239e-05
1.35671e-07
1.72162e-05
1.32539e-07
1.71939e-05
1.30672e-07
1.71719e-05
1.29468e-07
1.71502e-05
1.2851e-07
1.71287e-05
1.27562e-07
1.71075e-05
1.26516e-07
1.70865e-05
1.25338e-07
1.70658e-05
1.24028e-07
1.70453e-05
1.22597e-07
1.70251e-05
1.21057e-07
1.70052e-05
1.19416e-07
1.69855e-05
1.17682e-07
1.69662e-05
1.1586e-07
1.69472e-05
1.13955e-07
1.69286e-05
1.11975e-07
1.69102e-05
1.0993e-07
1.68922e-05
1.07831e-07
1.68746e-05
1.05692e-07
1.68572e-05
1.0353e-07
1.68402e-05
1.01362e-07
1.68236e-05
9.92096e-08
1.68072e-05
9.70928e-08
1.67912e-05
9.50339e-08
1.67755e-05
9.30563e-08
1.676e-05
9.11837e-08
1.67447e-05
8.94413e-08
1.67297e-05
8.78547e-08
1.67149e-05
8.64515e-08
1.67002e-05
8.52601e-08
1.66855e-05
8.43114e-08
1.6671e-05
8.36385e-08
1.66564e-05
8.32773e-08
1.66418e-05
8.32674e-08
1.66271e-05
8.36517e-08
1.66122e-05
8.44784e-08
1.6597e-05
8.58007e-08
1.65814e-05
8.76776e-08
1.65654e-05
9.01755e-08
1.65488e-05
9.33683e-08
1.65316e-05
9.73397e-08
1.65136e-05
1.02184e-07
1.64946e-05
1.08008e-07
1.64746e-05
1.14933e-07
1.64533e-05
1.23099e-07
1.64307e-05
1.32664e-07
1.64064e-05
1.43811e-07
1.63804e-05
1.56752e-07
1.63523e-05
1.71731e-07
1.63221e-05
1.89032e-07
1.62894e-05
2.08984e-07
1.62541e-05
2.31971e-07
1.6216e-05
2.58441e-07
1.61749e-05
2.88914e-07
1.61307e-05
3.23992e-07
1.60833e-05
3.64375e-07
1.6033e-05
4.10862e-07
1.598e-05
4.64358e-07
1.59252e-05
5.25869e-07
1.58696e-05
5.96478e-07
1.58151e-05
6.77297e-07
1.57644e-05
7.69371e-07
1.57214e-05
8.73509e-07
1.56914e-05
9.90014e-07
1.5681e-05
1.11826e-06
1.56982e-05
1.25608e-06
1.57512e-05
1.39901e-06
1.58462e-05
1.5395e-06
1.59841e-05
1.6665e-06
1.76637e-06
1.61552e-05
1.86887e-05
3.82155e-09
1.86862e-05
2.71957e-08
1.86788e-05
6.83484e-08
1.8665e-05
1.16902e-07
1.86449e-05
1.59215e-07
1.862e-05
1.86149e-07
1.85924e-05
1.96252e-07
1.85639e-05
1.93855e-07
1.85358e-05
1.85151e-07
1.85087e-05
1.75188e-07
1.84827e-05
1.66769e-07
1.84577e-05
1.60753e-07
1.84335e-05
1.5687e-07
1.84098e-05
1.54444e-07
1.83866e-05
1.52822e-07
1.83637e-05
1.51535e-07
1.83411e-05
1.50309e-07
1.83188e-05
1.4901e-07
1.82967e-05
1.47587e-07
1.82749e-05
1.46033e-07
1.82534e-05
1.44354e-07
1.82322e-05
1.4256e-07
1.82112e-05
1.4066e-07
1.81906e-05
1.38659e-07
1.81703e-05
1.36563e-07
1.81502e-05
1.34379e-07
1.81305e-05
1.32116e-07
1.81112e-05
1.29785e-07
1.80921e-05
1.27399e-07
1.80734e-05
1.24975e-07
1.8055e-05
1.22532e-07
1.80369e-05
1.20092e-07
1.80191e-05
1.17676e-07
1.80017e-05
1.1531e-07
1.79845e-05
1.13018e-07
1.79675e-05
1.10826e-07
1.79508e-05
1.08764e-07
1.79343e-05
1.06858e-07
1.7918e-05
1.05139e-07
1.79018e-05
1.03637e-07
1.78857e-05
1.02386e-07
1.78697e-05
1.0142e-07
1.78537e-05
1.00778e-07
1.78376e-05
1.005e-07
1.78215e-05
1.0063e-07
1.78052e-05
1.01217e-07
1.77886e-05
1.02315e-07
1.77717e-05
1.03984e-07
1.77545e-05
1.06289e-07
1.77367e-05
1.09302e-07
1.77184e-05
1.13106e-07
1.76994e-05
1.17791e-07
1.76796e-05
1.23459e-07
1.76589e-05
1.30223e-07
1.76372e-05
1.38213e-07
1.76142e-05
1.47573e-07
1.759e-05
1.58468e-07
1.75643e-05
1.71084e-07
1.7537e-05
1.85633e-07
1.7508e-05
2.02355e-07
1.74772e-05
2.21524e-07
1.74443e-05
2.4345e-07
1.74095e-05
2.68486e-07
1.73726e-05
2.9703e-07
1.73336e-05
3.29531e-07
1.72928e-05
3.66487e-07
1.72504e-05
4.08449e-07
1.72069e-05
4.56012e-07
1.71632e-05
5.09805e-07
1.71202e-05
5.70463e-07
1.70798e-05
6.38591e-07
1.70441e-05
7.14697e-07
1.7016e-05
7.99096e-07
1.69994e-05
8.91767e-07
1.69989e-05
9.92159e-07
1.70199e-05
1.09893e-06
1.7068e-05
1.20966e-06
1.71481e-05
1.32049e-06
1.72632e-05
1.426e-06
1.74121e-05
1.51926e-06
1.59271e-06
1.75873e-05
1.9998e-05
3.61574e-09
1.99961e-05
2.90789e-08
1.99897e-05
7.47995e-08
1.99769e-05
1.29624e-07
1.99577e-05
1.78429e-07
1.99333e-05
2.10662e-07
1.99054e-05
2.24133e-07
1.98761e-05
2.23197e-07
1.98467e-05
2.14544e-07
1.98181e-05
2.03846e-07
1.97906e-05
1.94408e-07
1.9764e-05
1.87395e-07
1.97383e-05
1.82669e-07
1.97133e-05
1.79578e-07
1.96888e-05
1.77442e-07
1.96647e-05
1.7575e-07
1.9641e-05
1.74187e-07
1.96176e-05
1.72592e-07
1.95945e-05
1.70897e-07
1.95716e-05
1.6908e-07
1.95491e-05
1.67141e-07
1.95269e-05
1.65088e-07
1.95049e-05
1.62925e-07
1.94833e-05
1.60659e-07
1.9462e-05
1.58296e-07
1.94409e-05
1.55842e-07
1.94202e-05
1.53308e-07
1.93998e-05
1.50706e-07
1.93797e-05
1.48052e-07
1.93599e-05
1.45366e-07
1.93404e-05
1.42668e-07
1.93212e-05
1.39982e-07
1.93023e-05
1.37335e-07
1.92836e-05
1.34752e-07
1.92652e-05
1.32263e-07
1.9247e-05
1.29897e-07
1.9229e-05
1.27684e-07
1.92112e-05
1.25657e-07
1.91935e-05
1.23849e-07
1.91759e-05
1.22294e-07
1.91584e-05
1.21029e-07
1.91409e-05
1.20092e-07
1.91233e-05
1.19526e-07
1.91057e-05
1.19375e-07
1.90879e-05
1.19689e-07
1.907e-05
1.2052e-07
1.90517e-05
1.21928e-07
1.90332e-05
1.23975e-07
1.90142e-05
1.26734e-07
1.89947e-05
1.30281e-07
1.89746e-05
1.34701e-07
1.89538e-05
1.40091e-07
1.89323e-05
1.46555e-07
1.89099e-05
1.5421e-07
1.88866e-05
1.63186e-07
1.88622e-05
1.73628e-07
1.88366e-05
1.85695e-07
1.88098e-05
1.99569e-07
1.87817e-05
2.15447e-07
1.87522e-05
2.33552e-07
1.87214e-05
2.5413e-07
1.86891e-05
2.77451e-07
1.86556e-05
3.03814e-07
1.86208e-05
3.33541e-07
1.85852e-05
3.66981e-07
1.85489e-05
4.04499e-07
1.85127e-05
4.46471e-07
1.84772e-05
4.93273e-07
1.84436e-05
5.45252e-07
1.84131e-05
6.02703e-07
1.83877e-05
6.65824e-07
1.83695e-05
7.34655e-07
1.83614e-05
8.09006e-07
1.83666e-05
8.88361e-07
1.83887e-05
9.71764e-07
1.84317e-05
1.0577e-06
1.84992e-05
1.14396e-06
1.85938e-05
1.2276e-06
1.87166e-05
1.30493e-06
1.88658e-05
1.37179e-06
1.42402e-06
1.90362e-05
2.13989e-05
3.189e-09
2.13977e-05
3.03415e-08
2.13923e-05
8.01982e-08
2.13809e-05
1.41053e-07
2.13629e-05
1.9647e-07
2.13391e-05
2.34474e-07
2.13113e-05
2.51976e-07
2.12813e-05
2.53152e-07
2.12509e-05
2.45052e-07
2.12209e-05
2.33917e-07
2.11918e-05
2.23577e-07
2.11637e-05
2.15558e-07
2.11365e-05
2.09914e-07
2.11102e-05
2.06061e-07
2.10844e-05
2.03315e-07
2.10592e-05
2.01137e-07
2.10343e-05
1.99176e-07
2.10099e-05
1.97242e-07
2.09858e-05
1.95243e-07
2.09619e-05
1.93144e-07
2.09384e-05
1.90936e-07
2.09152e-05
1.88618e-07
2.08923e-05
1.86194e-07
2.08697e-05
1.83668e-07
2.08473e-05
1.81046e-07
2.08253e-05
1.78335e-07
2.08036e-05
1.75547e-07
2.07821e-05
1.72696e-07
2.0761e-05
1.698e-07
2.07401e-05
1.66879e-07
2.07195e-05
1.63957e-07
2.06991e-05
1.61061e-07
2.0679e-05
1.58219e-07
2.06592e-05
1.5546e-07
2.06395e-05
1.52816e-07
2.062e-05
1.50319e-07
2.06007e-05
1.48002e-07
2.05815e-05
1.45901e-07
2.05624e-05
1.44051e-07
2.05433e-05
1.4249e-07
2.05242e-05
1.41258e-07
2.05052e-05
1.40396e-07
2.0486e-05
1.39951e-07
2.04668e-05
1.3997e-07
2.04473e-05
1.40505e-07
2.04277e-05
1.41614e-07
2.04077e-05
1.43358e-07
2.03874e-05
1.45803e-07
2.03666e-05
1.49023e-07
2.03454e-05
1.53099e-07
2.03236e-05
1.58116e-07
2.03011e-05
1.6417e-07
2.0278e-05
1.71366e-07
2.02541e-05
1.79817e-07
2.02294e-05
1.89649e-07
2.02038e-05
2.00998e-07
2.01772e-05
2.14012e-07
2.01497e-05
2.28854e-07
2.01213e-05
2.45698e-07
2.0092e-05
2.64736e-07
2.00618e-05
2.8617e-07
2.00309e-05
3.10216e-07
1.99995e-05
3.37099e-07
1.99679e-05
3.67052e-07
1.99365e-05
4.00308e-07
1.99058e-05
4.3709e-07
1.98766e-05
4.77602e-07
1.98497e-05
5.22011e-07
1.98265e-05
5.70424e-07
1.98082e-05
6.22862e-07
1.97967e-05
6.79223e-07
1.97941e-05
7.39241e-07
1.98025e-05
8.02441e-07
1.98247e-05
8.68087e-07
1.98632e-05
9.35129e-07
1.99206e-05
1.00216e-06
1.99991e-05
1.06742e-06
2.00997e-05
1.12878e-06
2.02227e-05
1.18384e-06
2.03662e-05
1.23015e-06
1.26543e-06
2.05266e-05
2.2898e-05
2.55281e-09
2.28974e-05
3.09947e-08
2.2893e-05
8.45314e-08
2.2883e-05
1.51119e-07
2.28663e-05
2.13194e-07
2.28434e-05
2.57376e-07
2.28159e-05
2.79535e-07
2.27856e-05
2.83477e-07
2.27542e-05
2.76462e-07
2.2723e-05
2.65233e-07
2.26925e-05
2.54154e-07
2.2663e-05
2.4516e-07
2.26344e-05
2.3855e-07
2.26067e-05
2.33852e-07
2.25798e-05
2.30411e-07
2.25534e-05
2.27671e-07
2.25275e-05
2.25253e-07
2.2502e-05
2.22935e-07
2.24769e-05
2.20603e-07
2.24521e-05
2.18204e-07
2.24276e-05
2.15716e-07
2.24034e-05
2.13132e-07
2.23795e-05
2.10451e-07
2.23559e-05
2.07674e-07
2.23326e-05
2.04808e-07
2.23096e-05
2.01859e-07
2.22868e-05
1.9884e-07
2.22644e-05
1.95766e-07
2.22421e-05
1.92657e-07
2.22201e-05
1.89535e-07
2.21984e-05
1.86427e-07
2.21769e-05
1.83361e-07
2.21556e-05
1.80367e-07
2.21344e-05
1.77478e-07
2.21135e-05
1.74726e-07
2.20926e-05
1.72146e-07
2.20719e-05
1.69775e-07
2.20513e-05
1.67649e-07
2.20307e-05
1.65806e-07
2.20101e-05
1.64287e-07
2.19895e-05
1.63134e-07
2.19688e-05
1.62392e-07
2.1948e-05
1.62107e-07
2.1927e-05
1.62331e-07
2.19059e-05
1.63117e-07
2.18845e-05
1.64525e-07
2.18628e-05
1.66616e-07
2.18407e-05
1.69459e-07
2.18183e-05
1.73127e-07
2.17953e-05
1.77699e-07
2.17719e-05
1.83259e-07
2.17479e-05
1.89899e-07
2.17234e-05
1.97719e-07
2.16982e-05
2.06823e-07
2.16724e-05
2.17324e-07
2.16459e-05
2.29344e-07
2.16188e-05
2.43012e-07
2.15911e-05
2.58462e-07
2.15629e-05
2.75838e-07
2.15343e-05
2.95286e-07
2.15055e-05
3.16957e-07
2.14767e-05
3.41001e-07
2.14483e-05
3.67565e-07
2.14205e-05
3.96784e-07
2.13941e-05
4.28779e-07
2.13696e-05
4.6364e-07
2.13478e-05
5.01418e-07
2.13297e-05
5.42112e-07
2.13166e-05
5.85644e-07
2.13096e-05
6.31845e-07
2.13105e-05
6.80429e-07
2.13208e-05
7.30971e-07
2.13424e-05
7.82883e-07
2.13771e-05
8.35394e-07
2.14267e-05
8.8754e-07
2.14927e-05
9.38164e-07
2.15762e-05
9.85937e-07
2.16775e-05
1.0294e-06
2.17963e-05
1.06705e-06
2.1931e-05
1.09745e-06
1.11938e-06
2.2079e-05
2.4502e-05
1.73179e-09
2.4502e-05
3.10928e-08
2.44986e-05
8.78638e-08
2.44899e-05
1.59857e-07
2.44746e-05
2.28563e-07
2.44527e-05
2.79237e-07
2.44257e-05
3.06606e-07
2.43953e-05
3.13931e-07
2.43633e-05
3.08532e-07
2.4331e-05
2.97583e-07
2.42992e-05
2.85972e-07
2.42684e-05
2.76076e-07
2.42386e-05
2.68488e-07
2.42097e-05
2.62891e-07
2.41815e-05
2.58685e-07
2.4154e-05
2.55319e-07
2.41271e-05
2.5239e-07
2.41006e-05
2.49649e-07
2.40745e-05
2.46956e-07
2.40487e-05
2.44241e-07
2.40233e-05
2.41467e-07
2.39982e-05
2.38617e-07
2.39733e-05
2.35687e-07
2.39488e-05
2.32674e-07
2.39245e-05
2.29581e-07
2.39004e-05
2.26418e-07
2.38766e-05
2.23196e-07
2.38531e-05
2.19932e-07
2.38298e-05
2.16647e-07
2.38066e-05
2.13365e-07
2.37837e-05
2.10114e-07
2.3761e-05
2.06924e-07
2.37384e-05
2.03826e-07
2.3716e-05
2.00856e-07
2.36937e-05
1.98047e-07
2.36714e-05
1.95436e-07
2.36493e-05
1.9306e-07
2.36271e-05
1.90959e-07
2.3605e-05
1.89172e-07
2.35828e-05
1.87741e-07
2.35606e-05
1.86709e-07
2.35383e-05
1.86123e-07
2.35158e-05
1.86031e-07
2.34931e-05
1.86484e-07
2.34703e-05
1.87537e-07
2.34471e-05
1.89248e-07
2.34237e-05
1.91679e-07
2.34e-05
1.94896e-07
2.33759e-05
1.98969e-07
2.33514e-05
2.03973e-07
2.33265e-05
2.09987e-07
2.33012e-05
2.17094e-07
2.32754e-05
2.25382e-07
2.32492e-05
2.34944e-07
2.32226e-05
2.45875e-07
2.31957e-05
2.58274e-07
2.31685e-05
2.72244e-07
2.31411e-05
2.87886e-07
2.31137e-05
3.05303e-07
2.30865e-05
3.24593e-07
2.30597e-05
3.45851e-07
2.30337e-05
3.69158e-07
2.30088e-05
3.94583e-07
2.29855e-05
4.22172e-07
2.29645e-05
4.51945e-07
2.29464e-05
4.83882e-07
2.29321e-05
5.17917e-07
2.29225e-05
5.53925e-07
2.29186e-05
5.9171e-07
2.29216e-05
6.30996e-07
2.29328e-05
6.71409e-07
2.29535e-05
7.12475e-07
2.29849e-05
7.53608e-07
2.30284e-05
7.94112e-07
2.30849e-05
8.33187e-07
2.31552e-05
8.69946e-07
2.32398e-05
9.03442e-07
2.33387e-05
9.32713e-07
2.3451e-05
9.5683e-07
2.35756e-05
9.74971e-07
9.86494e-07
2.37105e-05
2.62184e-05
7.57618e-10
2.62188e-05
3.07203e-08
2.62163e-05
9.03218e-08
2.62088e-05
1.67389e-07
2.61948e-05
2.42634e-07
2.6174e-05
3.00016e-07
2.61476e-05
3.33043e-07
2.61173e-05
3.44294e-07
2.60849e-05
3.41017e-07
2.60518e-05
3.30732e-07
2.6019e-05
3.1883e-07
2.5987e-05
3.0815e-07
2.5956e-05
2.99614e-07
2.59259e-05
2.93095e-07
2.58967e-05
2.88082e-07
2.58681e-05
2.8404e-07
2.58402e-05
2.80557e-07
2.58127e-05
2.7736e-07
2.57856e-05
2.74285e-07
2.57589e-05
2.71241e-07
2.57326e-05
2.68178e-07
2.57065e-05
2.65069e-07
2.56807e-05
2.61902e-07
2.56551e-05
2.5867e-07
2.56298e-05
2.55377e-07
2.56048e-05
2.52029e-07
2.55799e-05
2.48638e-07
2.55553e-05
2.45222e-07
2.55309e-05
2.41803e-07
2.55066e-05
2.38406e-07
2.54825e-05
2.3506e-07
2.54585e-05
2.31795e-07
2.54346e-05
2.28646e-07
2.54108e-05
2.25646e-07
2.53871e-05
2.22832e-07
2.53634e-05
2.20242e-07
2.53397e-05
2.17912e-07
2.5316e-05
2.15884e-07
2.52923e-05
2.14197e-07
2.52685e-05
2.12894e-07
2.52446e-05
2.12019e-07
2.52206e-05
2.11618e-07
2.51965e-05
2.11738e-07
2.51721e-05
2.1243e-07
2.51475e-05
2.13747e-07
2.51227e-05
2.15746e-07
2.50977e-05
2.18484e-07
2.50724e-05
2.22023e-07
2.50468e-05
2.26428e-07
2.50209e-05
2.31765e-07
2.49947e-05
2.38104e-07
2.49682e-05
2.45516e-07
2.49416e-05
2.54074e-07
2.49147e-05
2.63853e-07
2.48877e-05
2.74925e-07
2.48608e-05
2.87363e-07
2.48339e-05
3.01239e-07
2.48073e-05
3.16617e-07
2.47813e-05
3.33558e-07
2.4756e-05
3.5211e-07
2.47318e-05
3.72312e-07
2.4709e-05
3.94182e-07
2.46881e-05
4.1772e-07
2.46697e-05
4.42898e-07
2.46543e-05
4.69655e-07
2.46426e-05
4.97892e-07
2.46353e-05
5.27462e-07
2.46334e-05
5.58168e-07
2.46376e-05
5.89754e-07
2.46491e-05
6.21899e-07
2.46686e-05
6.54218e-07
2.46971e-05
6.86257e-07
2.47355e-05
7.17499e-07
2.47845e-05
7.47368e-07
2.48448e-05
7.75247e-07
2.49165e-05
8.00492e-07
2.49998e-05
8.22457e-07
2.50942e-05
8.40526e-07
2.51992e-05
8.54145e-07
2.53135e-05
8.62855e-07
8.66331e-07
2.54359e-05
2.80549e-05
-3.34507e-10
2.80557e-05
2.99752e-08
2.80539e-05
9.20636e-08
2.80474e-05
1.73891e-07
2.80346e-05
2.55538e-07
2.80149e-05
3.19739e-07
2.79892e-05
3.58758e-07
2.79591e-05
3.74387e-07
2.79265e-05
3.73687e-07
2.78929e-05
3.64444e-07
2.78593e-05
3.52517e-07
2.78263e-05
3.41207e-07
2.77943e-05
3.31792e-07
2.77631e-05
3.24368e-07
2.77329e-05
3.1853e-07
2.77033e-05
3.13785e-07
2.76744e-05
3.0972e-07
2.76459e-05
3.06045e-07
2.76179e-05
3.02573e-07
2.75903e-05
2.99195e-07
2.7563e-05
2.95846e-07
2.75359e-05
2.92488e-07
2.75092e-05
2.891e-07
2.74826e-05
2.85675e-07
2.74563e-05
2.8221e-07
2.74302e-05
2.78712e-07
2.74043e-05
2.75193e-07
2.73786e-05
2.71669e-07
2.7353e-05
2.68163e-07
2.73275e-05
2.647e-07
2.73021e-05
2.6131e-07
2.72768e-05
2.58024e-07
2.72516e-05
2.54876e-07
2.72264e-05
2.51901e-07
2.72012e-05
2.49134e-07
2.7176e-05
2.46613e-07
2.71508e-05
2.44377e-07
2.71255e-05
2.42465e-07
2.71002e-05
2.40916e-07
2.70748e-05
2.39773e-07
2.70492e-05
2.39078e-07
2.70235e-05
2.38876e-07
2.69977e-05
2.39212e-07
2.69716e-05
2.40135e-07
2.69454e-05
2.41693e-07
2.69191e-05
2.43939e-07
2.68925e-05
2.46925e-07
2.68657e-05
2.50705e-07
2.68387e-05
2.55335e-07
2.68116e-05
2.6087e-07
2.67844e-05
2.67368e-07
2.67572e-05
2.74883e-07
2.67299e-05
2.83472e-07
2.67027e-05
2.93185e-07
2.66758e-05
3.04073e-07
2.66492e-05
3.16178e-07
2.66232e-05
3.2954e-07
2.65979e-05
3.44185e-07
2.65737e-05
3.60133e-07
2.65508e-05
3.77387e-07
2.65295e-05
3.95935e-07
2.65103e-05
4.15744e-07
2.64937e-05
4.36758e-07
2.64801e-05
4.58894e-07
2.64702e-05
4.82036e-07
2.64645e-05
5.06035e-07
2.64637e-05
5.30701e-07
2.64685e-05
5.55807e-07
2.64796e-05
5.8108e-07
2.64978e-05
6.06206e-07
2.65236e-05
6.30829e-07
2.65578e-05
6.54556e-07
2.66008e-05
6.76965e-07
2.6653e-05
6.97613e-07
2.67146e-05
7.16046e-07
2.67857e-05
7.31819e-07
2.68661e-05
7.44511e-07
2.69553e-05
7.53741e-07
2.70526e-05
7.59192e-07
2.71572e-05
7.6062e-07
7.57875e-07
2.7268e-05
3.002e-05
-1.51347e-09
3.0021e-05
2.89543e-08
3.00199e-05
9.32556e-08
3.00142e-05
1.79564e-07
3.00023e-05
2.67444e-07
2.99836e-05
3.3849e-07
2.99587e-05
3.83722e-07
2.9929e-05
4.0408e-07
2.98965e-05
4.06348e-07
2.98625e-05
3.98499e-07
2.98283e-05
3.86819e-07
2.97945e-05
3.75065e-07
2.97615e-05
3.64879e-07
2.97295e-05
3.56597e-07
2.96982e-05
3.4995e-07
2.96677e-05
3.44498e-07
2.96378e-05
3.3984e-07
2.96084e-05
3.35676e-07
2.95795e-05
3.31802e-07
2.95509e-05
3.28092e-07
2.95227e-05
3.24465e-07
2.94947e-05
3.20874e-07
2.9467e-05
3.17291e-07
2.94395e-05
3.13701e-07
2.94122e-05
3.101e-07
2.9385e-05
3.06493e-07
2.9358e-05
3.02888e-07
2.93311e-05
2.99304e-07
2.93043e-05
2.95762e-07
2.92775e-05
2.92287e-07
2.92508e-05
2.88907e-07
2.92242e-05
2.85653e-07
2.91976e-05
2.8256e-07
2.91709e-05
2.7966e-07
2.91443e-05
2.76989e-07
2.91175e-05
2.74584e-07
2.90908e-05
2.72482e-07
2.90639e-05
2.70721e-07
2.90369e-05
2.69338e-07
2.90099e-05
2.68375e-07
2.89827e-05
2.6787e-07
2.89553e-05
2.67865e-07
2.89279e-05
2.68403e-07
2.89002e-05
2.69526e-07
2.88725e-05
2.71278e-07
2.88446e-05
2.73704e-07
2.88167e-05
2.76849e-07
2.87886e-05
2.80757e-07
2.87606e-05
2.85471e-07
2.87325e-05
2.91036e-07
2.87046e-05
2.97491e-07
2.86768e-05
3.04875e-07
2.86493e-05
3.13222e-07
2.86222e-05
3.22562e-07
2.85957e-05
3.32917e-07
2.857e-05
3.44303e-07
2.85452e-05
3.56727e-07
2.85216e-05
3.70182e-07
2.84996e-05
3.8465e-07
2.84794e-05
4.00096e-07
2.84613e-05
4.1647e-07
2.84459e-05
4.33698e-07
2.84335e-05
4.51687e-07
2.84247e-05
4.70317e-07
2.84198e-05
4.89444e-07
2.84196e-05
5.08895e-07
2.84244e-05
5.28468e-07
2.84349e-05
5.47935e-07
2.84515e-05
5.67039e-07
2.84748e-05
5.855e-07
2.85052e-05
6.03015e-07
2.85431e-05
6.19269e-07
2.85887e-05
6.33937e-07
2.86423e-05
6.46694e-07
2.87037e-05
6.57225e-07
2.87728e-05
6.65237e-07
2.88494e-05
6.70466e-07
2.8933e-05
6.72691e-07
2.9023e-05
6.7174e-07
2.91187e-05
6.67499e-07
6.59912e-07
2.92191e-05
3.21227e-05
-2.75293e-09
3.2124e-05
2.77446e-08
3.21232e-05
9.40532e-08
3.21182e-05
1.84605e-07
3.21071e-05
2.78537e-07
3.20892e-05
3.56383e-07
3.2065e-05
4.07949e-07
3.20359e-05
4.33289e-07
3.20035e-05
4.38841e-07
3.19693e-05
4.32704e-07
3.19347e-05