/*--------------------------------*- C++ -*----------------------------------*\
| =========                 |                                                 |
| \\      /  F ield         | OpenFOAM: The Open Source CFD Toolbox           |
|  \\    /   O peration     | Version:  4.1                                   |
|   \\  /    A nd           | Web:      www.OpenFOAM.org                      |
|    \\/     M anipulation  |                                                 |
\*---------------------------------------------------------------------------*/
FoamFile
{
    version     2.0;
    format      ascii;
    class       pointVectorField;
    location    "2.1";
    object      pointDisplacement;
}
// * * * * * * * * * * * * * * * * * * * * * * * * * * * * * * * * * * * * * //

dimensions      [0 1 0 0 0 0 0];

internalField   nonuniform List<vector> 
5828
(
(0 0 0)
(0.0286773 0 0)
(0.0539043 0 0)
(0.0749323 0 0)
(0.0922029 0 0)
(0.106164 0 0)
(0.117203 0 0)
(0.125645 0 0)
(0.131769 0 0)
(0.135819 0 0)
(0.138012 0 0)
(0.138538 0 0)
(0.137565 0 0)
(0.13524 0 0)
(0.131699 0 0)
(0.127062 0 0)
(0.12144 0 0)
(0.114937 0 0)
(0.107652 0 0)
(0.0996816 0 0)
(0.0911271 0 0)
(0.0820871 0 0)
(0.0726637 0 0)
(0.0629663 0 0)
(0.0531168 0 0)
(0.0432606 0 0)
(0.0335901 0 0)
(0.0244117 0 0)
(0.0162776 0 0)
(0.0104907 0 0)
(-2.64719e-15 0 0)
(0 0 0)
(0.0286968 0.000110537 0)
(0.0539484 0.000212354 0)
(0.075001 0.000305419 0)
(0.092294 0.000393033 0)
(0.106279 0.000477898 0)
(0.117345 0.000562224 0)
(0.125815 0.000647788 0)
(0.131971 0.000736485 0)
(0.136056 0.000829133 0)
(0.138287 0.000926514 0)
(0.138855 0.00103029 0)
(0.137929 0.00114178 0)
(0.135658 0.00126236 0)
(0.132175 0.00139348 0)
(0.127604 0.00153668 0)
(0.122058 0.00169371 0)
(0.115641 0.00186645 0)
(0.108452 0.00205688 0)
(0.100591 0.00226939 0)
(0.0921629 0.00250888 0)
(0.0832719 0.00277939 0)
(0.0740266 0.00308703 0)
(0.0645466 0.00343971 0)
(0.0549698 0.00384772 0)
(0.0454653 0.0043254 0)
(0.0362526 0.00489377 0)
(0.027663 0.00558841 0)
(0.020323 0.00647548 0)
(0.0157563 0.00761142 0)
(0.0079622 0.00888997 0)
(0 0 0)
(0.0287673 0.000221051 0)
(0.0540865 0.000424644 0)
(0.0752059 0.000610328 0)
(0.092569 0.000785038 0)
(0.106628 0.000954535 0)
(0.117773 0.0011229 0)
(0.12633 0.00129358 0)
(0.132578 0.00146976 0)
(0.136764 0.00165364 0)
(0.139107 0.00184745 0)
(0.139801 0.00205403 0)
(0.139016 0.00227591 0)
(0.136901 0.0025158 0)
(0.133595 0.0027766 0)
(0.129222 0.0030614 0)
(0.123901 0.0033737 0)
(0.117741 0.00371748 0)
(0.110844 0.00409753 0)
(0.103312 0.00452123 0)
(0.0952628 0.00499661 0)
(0.0868147 0.00553228 0)
(0.0780945 0.00614083 0)
(0.069249 0.00683809 0)
(0.0604547 0.0076449 0)
(0.0519485 0.00859188 0)
(0.0440578 0.00972103 0)
(0.0372407 0.0110823 0)
(0.0322403 0.0127443 0)
(0.0309235 0.0147326 0)
(0.026043 0.0166901 0)
(0 0 0)
(0.0288846 0.00033078 0)
(0.0543135 0.00063543 0)
(0.0755418 0.000913382 0)
(0.0930231 0.00117499 0)
(0.107207 0.00142869 0)
(0.118483 0.00168055 0)
(0.12718 0.00193556 0)
(0.133582 0.00219759 0)
(0.137936 0.00247089 0)
(0.140468 0.00275979 0)
(0.141372 0.00306764 0)
(0.140819 0.00339808 0)
(0.138965 0.00375517 0)
(0.135952 0.00414324 0)
(0.131909 0.00456682 0)
(0.126959 0.00503115 0)
(0.12122 0.00554248 0)
(0.114807 0.00610939 0)
(0.107829 0.00674003 0)
(0.100414 0.00744336 0)
(0.0926995 0.00823304 0)
(0.0848478 0.00912835 0)
(0.0770503 0.010152 0)
(0.0695334 0.0113317 0)
(0.0626122 0.0127078 0)
(0.0567647 0.0143313 0)
(0.0527365 0.0162603 0)
(0.0515056 0.0185391 0)
(0.0549049 0.021056 0)
(0.0537553 0.0232803 0)
(0 0 0)
(0.0290479 0.000439013 0)
(0.0546324 0.000843357 0)
(0.0760147 0.00121258 0)
(0.0936574 0.00156016 0)
(0.108011 0.00189691 0)
(0.119467 0.00223099 0)
(0.128359 0.00256896 0)
(0.134975 0.002916 0)
(0.139567 0.00327787 0)
(0.142362 0.00366015 0)
(0.143558 0.0040671 0)
(0.143329 0.00450341 0)
(0.141838 0.00497455 0)
(0.139231 0.00548622 0)
(0.135645 0.00604418 0)
(0.131211 0.00665508 0)
(0.126052 0.00732676 0)
(0.1203 0.00807063 0)
(0.11409 0.00889687 0)
(0.107562 0.00981618 0)
(0.100876 0.010846 0)
(0.0942294 0.0120095 0)
(0.0878746 0.0133325 0)
(0.0821194 0.0148464 0)
(0.077383 0.0165918 0)
(0.0742642 0.0186127 0)
(0.0737689 0.020956 0)
(0.0773482 0.0236288 0)
(0.0865218 0.0263638 0)
(0.0895599 0.0285991 0)
(0 0 0)
(0.0292561 0.000545325 0)
(0.0550403 0.00104758 0)
(0.0766195 0.00150628 0)
(0.0944656 0.00193802 0)
(0.109034 0.00235599 0)
(0.120719 0.00277036 0)
(0.129858 0.00318932 0)
(0.136747 0.00361975 0)
(0.141641 0.00406832 0)
(0.144771 0.00454127 0)
(0.146337 0.00504409 0)
(0.146519 0.00558223 0)
(0.145487 0.00616282 0)
(0.143397 0.00679306 0)
(0.140394 0.00747945 0)
(0.136618 0.00822989 0)
(0.132205 0.00905402 0)
(0.127298 0.00996417 0)
(0.122056 0.0109723 0)
(0.116651 0.0120922 0)
(0.111274 0.0133433 0)
(0.106164 0.0147489 0)
(0.101632 0.0163344 0)
(0.0980784 0.0181315 0)
(0.0960565 0.0201742 0)
(0.0963475 0.0224917 0)
(0.100057 0.0250884 0)
(0.109019 0.0279083 0)
(0.1244 0.0305914 0)
(0.131585 0.0326363 0)
(0 0 0)
(0.0295073 0.000649303 0)
(0.0555334 0.00124728 0)
(0.0773507 0.00179336 0)
(0.0954412 0.00230713 0)
(0.110267 0.00280415 0)
(0.122227 0.00329652 0)
(0.131666 0.00379401 0)
(0.138882 0.00430491 0)
(0.14414 0.00483688 0)
(0.147671 0.005397 0)
(0.149684 0.00599175 0)
(0.150366 0.00662789 0)
(0.149892 0.00731354 0)
(0.148426 0.00805638 0)
(0.146125 0.00886401 0)
(0.143141 0.00974581 0)
(0.139633 0.0107135 0)
(0.135754 0.0117785 0)
(0.131678 0.0129526 0)
(0.127621 0.0142528 0)
(0.123818 0.0156999 0)
(0.120554 0.017315 0)
(0.118212 0.0191206 0)
(0.117291 0.0211424 0)
(0.118455 0.0234009 0)
(0.122679 0.0259002 0)
(0.131213 0.0285993 0)
(0.145904 0.0313661 0)
(0.167285 0.0337982 0)
(0.178203 0.0355499 0)
(0 0 0)
(0.0298002 0.000750788 0)
(0.056109 0.00144216 0)
(0.0782044 0.00207339 0)
(0.0965794 0.00266695 0)
(0.111704 0.00324072 0)
(0.123985 0.00380863 0)
(0.133773 0.00438195 0)
(0.141372 0.0049702 0)
(0.147051 0.00558201 0)
(0.151049 0.00622536 0)
(0.153582 0.0069078 0)
(0.154849 0.00763782 0)
(0.155028 0.00842317 0)
(0.154287 0.00927107 0)
(0.152799 0.0101909 0)
(0.15073 0.011193 0)
(0.148262 0.0122904 0)
(0.145577 0.0134944 0)
(0.142868 0.0148172 0)
(0.140383 0.0162771 0)
(0.13841 0.0178928 0)
(0.137287 0.0196816 0)
(0.137473 0.0216612 0)
(0.139577 0.0238472 0)
(0.14439 0.0262407 0)
(0.152974 0.028812 0)
(0.166755 0.0314805 0)
(0.187248 0.0340452 0)
(0.213978 0.0361087 0)
(0.227918 0.0374476 0)
(0 0 0)
(0.0301332 0.000849613 0)
(0.0567636 0.0016319 0)
(0.0791754 0.0023459 0)
(0.0978739 0.00301689 0)
(0.113339 0.00366494 0)
(0.125985 0.00430574 0)
(0.136169 0.00495189 0)
(0.144201 0.00561401 0)
(0.150358 0.00630169 0)
(0.154885 0.00702371 0)
(0.158004 0.00778847 0)
(0.159926 0.00860526 0)
(0.160837 0.00948186 0)
(0.160913 0.0104257 0)
(0.160344 0.0114476 0)
(0.159317 0.012559 0)
(0.158026 0.0137723 0)
(0.156686 0.0150991 0)
(0.155525 0.0165525 0)
(0.154823 0.0181483 0)
(0.154916 0.019902 0)
(0.156205 0.0218268 0)
(0.159245 0.0239341 0)
(0.164723 0.0262247 0)
(0.173542 0.0286778 0)
(0.186823 0.0312319 0)
(0.206001 0.0337665 0)
(0.232026 0.0360382 0)
(0.26331 0.0377045 0)
(0.279441 0.0386193 0)
(0 0 0)
(0.0305032 0.000945124 0)
(0.0574908 0.00181521 0)
(0.080254 0.00260904 0)
(0.099312 0.00335454 0)
(0.115155 0.00407384 0)
(0.128206 0.00478426 0)
(0.138829 0.00549963 0)
(0.14734 0.00623149 0)
(0.154025 0.00699039 0)
(0.159136 0.0077858 0)
(0.162902 0.00862639 0)
(0.165542 0.00952201 0)
(0.16726 0.0104813 0)
(0.168245 0.0115127 0)
(0.168698 0.0126273 0)
(0.168833 0.0138369 0)
(0.168851 0.0151518 0)
(0.168993 0.0165831 0)
(0.16954 0.0181449 0)
(0.170806 0.0198504 0)
(0.173183 0.0217106 0)
(0.177134 0.0237343 0)
(0.183291 0.0259235 0)
(0.192441 0.0282634 0)
(0.205531 0.0307111 0)
(0.223708 0.0331812 0)
(0.248202 0.0355218 0)
(0.279266 0.0374811 0)
(0.314352 0.0387979 0)
(0.332043 0.0394558 0)
(0 0 0)
(0.0309065 0.00103671 0)
(0.0582836 0.00199092 0)
(0.0814302 0.00286114 0)
(0.10088 0.00367771 0)
(0.117134 0.00446469 0)
(0.130626 0.00524099 0)
(0.141726 0.0060215 0)
(0.150757 0.00681844 0)
(0.158016 0.00764348 0)
(0.163763 0.00850668 0)
(0.168236 0.00941717 0)
(0.171664 0.0103852 0)
(0.174261 0.0114195 0)
(0.176237 0.0125294 0)
(0.177799 0.0137251 0)
(0.179181 0.0150176 0)
(0.180619 0.0164171 0)
(0.182376 0.0179346 0)
(0.184771 0.0195825 0)
(0.188165 0.0213705 0)
(0.193006 0.0233054 0)
(0.199838 0.0253902 0)
(0.209329 0.0276164 0)
(0.222349 0.0299553 0)
(0.23988 0.0323467 0)
(0.263048 0.034689 0)
(0.292642 0.0368141 0)
(0.328194 0.0384906 0)
(0.366443 0.0395342 0)
(0.385574 0.0401289 0)
(0 0 0)
(0.03134 0.00112406 0)
(0.0591363 0.00215846 0)
(0.0826953 0.00310136 0)
(0.102565 0.00398533 0)
(0.119261 0.00483618 0)
(0.133227 0.00567438 0)
(0.14484 0.00651582 0)
(0.154433 0.00737357 0)
(0.162312 0.00826009 0)
(0.168743 0.00918556 0)
(0.173978 0.0101599 0)
(0.178252 0.0111929 0)
(0.181786 0.0122928 0)
(0.18481 0.0134692 0)
(0.187552 0.0147324 0)
(0.190263 0.0160931 0)
(0.193217 0.0175612 0)
(0.196696 0.019145 0)
(0.201046 0.0208541 0)
(0.206687 0.0226958 0)
(0.214127 0.0246727 0)
(0.223971 0.0267803 0)
(0.236955 0.0290005 0)
(0.253965 0.0312927 0)
(0.275999 0.0335862 0)
(0.304093 0.0357711 0)
(0.338475 0.0376795 0)
(0.378028 0.0391181 0)
(0.418964 0.0399466 0)
(0.439819 0.0405222 0)
(0 0 0)
(0.0318007 0.00120689 0)
(0.0600426 0.00231729 0)
(0.0840406 0.00332896 0)
(0.104357 0.0042765 0)
(0.121523 0.00518756 0)
(0.135997 0.00608401 0)
(0.14816 0.00698232 0)
(0.158353 0.00789663 0)
(0.166891 0.0088394 0)
(0.174044 0.00982065 0)
(0.180076 0.0108509 0)
(0.185232 0.0119392 0)
(0.18975 0.0130944 0)
(0.193877 0.0143262 0)
(0.197868 0.0156449 0)
(0.201977 0.0170593 0)
(0.206504 0.0185768 0)
(0.211773 0.0202046 0)
(0.218166 0.02195 0)
(0.226144 0.0238169 0)
(0.236258 0.0258017 0)
(0.249175 0.0278926 0)
(0.265684 0.0300634 0)
(0.286677 0.032264 0)
(0.313168 0.0344194 0)
(0.345916 0.0364187 0)
(0.384652 0.0381118 0)
(0.427762 0.0393491 0)
(0.471074 0.0399805 0)
(0.494297 0.0406787 0)
(0 0 0)
(0.0322863 0.00128514 0)
(0.0609984 0.00246727 0)
(0.0854603 0.00354375 0)
(0.106252 0.00455116 0)
(0.123919 0.00551895 0)
(0.138927 0.00646961 0)
(0.151665 0.00742011 0)
(0.162485 0.00838533 0)
(0.171704 0.00937765 0)
(0.179604 0.0104073 0)
(0.186462 0.0114849 0)
(0.192537 0.0126201 0)
(0.198083 0.0138215 0)
(0.203363 0.0150982 0)
(0.208638 0.0164583 0)
(0.214181 0.017909 0)
(0.220321 0.0194571 0)
(0.227423 0.0211077 0)
(0.235902 0.0228643 0)
(0.246252 0.0247259 0)
(0.25905 0.0266829 0)
(0.275013 0.0287164 0)
(0.294937 0.0307916 0)
(0.319752 0.0328524 0)
(0.350407 0.0348204 0)
(0.387264 0.0365898 0)
(0.429749 0.0380412 0)
(0.47589 0.0390685 0)
(0.521388 0.0394353 0)
(0.548745 0.0406878 0)
(0 0 0)
(0.0327942 0.00135873 0)
(0.0619985 0.00260827 0)
(0.0869466 0.00374551 0)
(0.108238 0.00480893 0)
(0.126428 0.00582907 0)
(0.141987 0.0068289 0)
(0.155317 0.00782627 0)
(0.16678 0.00883629 0)
(0.176701 0.00987167 0)
(0.185378 0.0109433 0)
(0.193094 0.0120615 0)
(0.200124 0.0132356 0)
(0.206724 0.0144732 0)
(0.21317 0.0157819 0)
(0.219743 0.0171686 0)
(0.226743 0.0186398 0)
(0.234519 0.0202003 0)
(0.243451 0.0218512 0)
(0.253997 0.0235925 0)
(0.266668 0.0254175 0)
(0.282068 0.02731 0)
(0.300915 0.0292428 0)
(0.324003 0.0311729 0)
(0.35226 0.0330367 0)
(0.386382 0.0347471 0)
(0.426434 0.0361988 0)
(0.471676 0.0372883 0)
(0.519908 0.0379292 0)
(0.567322 0.0377004 0)
(0.603072 0.0406439 0)
(0 0 0)
(0.0333238 0.00142784 0)
(0.0630418 0.0027406 0)
(0.0884979 0.00393469 0)
(0.11031 0.00505014 0)
(0.129042 0.00611824 0)
(0.145171 0.00716262 0)
(0.159118 0.00820208 0)
(0.171251 0.00925212 0)
(0.181908 0.0103256 0)
(0.191394 0.0114333 0)
(0.199994 0.0125847 0)
(0.207993 0.0137882 0)
(0.215664 0.015051 0)
(0.223294 0.0163798 0)
(0.231184 0.0177797 0)
(0.239651 0.0192555 0)
(0.249051 0.0208085 0)
(0.259793 0.022437 0)
(0.272347 0.0241358 0)
(0.287229 0.0258916 0)
(0.30505 0.0276811 0)
(0.326493 0.0294674 0)
(0.352342 0.0311968 0)
(0.383333 0.0327918 0)
(0.419826 0.0341435 0)
(0.461653 0.0351106 0)
(0.507756 0.0354949 0)
(0.555567 0.0349356 0)
(0.601138 0.0323545 0)
(0.657322 0.0406339 0)
(0 0 0)
(0.0286773 0 0)
(0.0539043 0 0)
(0.0749323 0 0)
(0.0922029 0 0)
(0.106164 0 0)
(0.117203 0 0)
(0.125645 0 0)
(0.131769 0 0)
(0.135819 0 0)
(0.138012 0 0)
(0.138538 0 0)
(0.137565 0 0)
(0.13524 0 0)
(0.131699 0 0)
(0.127062 0 0)
(0.12144 0 0)
(0.114937 0 0)
(0.107652 0 0)
(0.0996816 0 0)
(0.0911271 0 0)
(0.0820871 0 0)
(0.0726637 0 0)
(0.0629663 0 0)
(0.0531168 0 0)
(0.0432606 0 0)
(0.0335901 0 0)
(0.0244117 0 0)
(0.0162776 0 0)
(0.0104907 0 0)
(-1.14492e-16 0 0)
(0 0 0)
(0.0286968 0.000110537 0)
(0.0539484 0.000212354 0)
(0.075001 0.000305419 0)
(0.092294 0.000393033 0)
(0.106279 0.000477898 0)
(0.117345 0.000562224 0)
(0.125815 0.000647788 0)
(0.131971 0.000736485 0)
(0.136056 0.000829133 0)
(0.138287 0.000926514 0)
(0.138855 0.00103029 0)
(0.137929 0.00114178 0)
(0.135658 0.00126236 0)
(0.132175 0.00139348 0)
(0.127604 0.00153668 0)
(0.122058 0.00169371 0)
(0.115641 0.00186645 0)
(0.108452 0.00205688 0)
(0.100591 0.00226939 0)
(0.0921629 0.00250888 0)
(0.0832719 0.00277939 0)
(0.0740266 0.00308703 0)
(0.0645466 0.00343971 0)
(0.0549698 0.00384772 0)
(0.0454653 0.0043254 0)
(0.0362526 0.00489377 0)
(0.027663 0.00558841 0)
(0.020323 0.00647548 0)
(0.0157563 0.00761142 0)
(0.0079622 0.00888997 0)
(0 0 0)
(0.0287673 0.000221051 0)
(0.0540865 0.000424644 0)
(0.0752059 0.000610328 0)
(0.092569 0.000785038 0)
(0.106628 0.000954535 0)
(0.117773 0.0011229 0)
(0.12633 0.00129358 0)
(0.132578 0.00146976 0)
(0.136764 0.00165364 0)
(0.139107 0.00184745 0)
(0.139801 0.00205403 0)
(0.139016 0.00227591 0)
(0.136901 0.0025158 0)
(0.133595 0.0027766 0)
(0.129222 0.0030614 0)
(0.123901 0.0033737 0)
(0.117741 0.00371748 0)
(0.110844 0.00409753 0)
(0.103312 0.00452123 0)
(0.0952628 0.00499661 0)
(0.0868147 0.00553228 0)
(0.0780945 0.00614083 0)
(0.069249 0.00683809 0)
(0.0604547 0.0076449 0)
(0.0519485 0.00859188 0)
(0.0440578 0.00972103 0)
(0.0372407 0.0110823 0)
(0.0322403 0.0127443 0)
(0.0309235 0.0147326 0)
(0.026043 0.0166901 0)
(0 0 0)
(0.0288846 0.00033078 0)
(0.0543135 0.00063543 0)
(0.0755418 0.000913382 0)
(0.0930231 0.00117499 0)
(0.107207 0.00142869 0)
(0.118483 0.00168055 0)
(0.12718 0.00193556 0)
(0.133582 0.00219759 0)
(0.137936 0.00247089 0)
(0.140468 0.00275979 0)
(0.141372 0.00306764 0)
(0.140819 0.00339808 0)
(0.138965 0.00375517 0)
(0.135952 0.00414324 0)
(0.131909 0.00456682 0)
(0.126959 0.00503115 0)
(0.12122 0.00554248 0)
(0.114807 0.00610939 0)
(0.107829 0.00674003 0)
(0.100414 0.00744336 0)
(0.0926995 0.00823304 0)
(0.0848478 0.00912835 0)
(0.0770503 0.010152 0)
(0.0695334 0.0113317 0)
(0.0626122 0.0127078 0)
(0.0567647 0.0143313 0)
(0.0527365 0.0162603 0)
(0.0515056 0.0185391 0)
(0.0549049 0.021056 0)
(0.0537553 0.0232803 0)
(0 0 0)
(0.0290479 0.000439013 0)
(0.0546324 0.000843357 0)
(0.0760147 0.00121258 0)
(0.0936574 0.00156016 0)
(0.108011 0.00189691 0)
(0.119467 0.00223099 0)
(0.128359 0.00256896 0)
(0.134975 0.002916 0)
(0.139567 0.00327787 0)
(0.142362 0.00366015 0)
(0.143558 0.0040671 0)
(0.143329 0.00450341 0)
(0.141838 0.00497455 0)
(0.139231 0.00548622 0)
(0.135645 0.00604418 0)
(0.131211 0.00665508 0)
(0.126052 0.00732676 0)
(0.1203 0.00807063 0)
(0.11409 0.00889687 0)
(0.107562 0.00981618 0)
(0.100876 0.010846 0)
(0.0942294 0.0120095 0)
(0.0878746 0.0133325 0)
(0.0821194 0.0148464 0)
(0.077383 0.0165918 0)
(0.0742642 0.0186127 0)
(0.0737689 0.020956 0)
(0.0773482 0.0236288 0)
(0.0865218 0.0263638 0)
(0.0895599 0.0285991 0)
(0 0 0)
(0.0292561 0.000545325 0)
(0.0550403 0.00104758 0)
(0.0766195 0.00150628 0)
(0.0944656 0.00193802 0)
(0.109034 0.00235599 0)
(0.120719 0.00277036 0)
(0.129858 0.00318932 0)
(0.136747 0.00361975 0)
(0.141641 0.00406832 0)
(0.144771 0.00454127 0)
(0.146337 0.00504409 0)
(0.146519 0.00558223 0)
(0.145487 0.00616282 0)
(0.143397 0.00679306 0)
(0.140394 0.00747945 0)
(0.136618 0.00822989 0)
(0.132205 0.00905402 0)
(0.127298 0.00996417 0)
(0.122056 0.0109723 0)
(0.116651 0.0120922 0)
(0.111274 0.0133433 0)
(0.106164 0.0147489 0)
(0.101632 0.0163344 0)
(0.0980784 0.0181315 0)
(0.0960565 0.0201742 0)
(0.0963475 0.0224917 0)
(0.100057 0.0250884 0)
(0.109019 0.0279083 0)
(0.1244 0.0305914 0)
(0.131585 0.0326363 0)
(0 0 0)
(0.0295073 0.000649303 0)
(0.0555334 0.00124728 0)
(0.0773507 0.00179336 0)
(0.0954412 0.00230713 0)
(0.110267 0.00280415 0)
(0.122227 0.00329652 0)
(0.131666 0.00379401 0)
(0.138882 0.00430491 0)
(0.14414 0.00483688 0)
(0.147671 0.005397 0)
(0.149684 0.00599175 0)
(0.150366 0.00662789 0)
(0.149892 0.00731354 0)
(0.148426 0.00805638 0)
(0.146125 0.00886401 0)
(0.143141 0.00974581 0)
(0.139633 0.0107135 0)
(0.135754 0.0117785 0)
(0.131678 0.0129526 0)
(0.127621 0.0142528 0)
(0.123818 0.0156999 0)
(0.120554 0.017315 0)
(0.118212 0.0191206 0)
(0.117291 0.0211424 0)
(0.118455 0.0234009 0)
(0.122679 0.0259002 0)
(0.131213 0.0285993 0)
(0.145904 0.0313661 0)
(0.167285 0.0337982 0)
(0.178203 0.0355499 0)
(0 0 0)
(0.0298002 0.000750788 0)
(0.056109 0.00144216 0)
(0.0782044 0.00207339 0)
(0.0965794 0.00266695 0)
(0.111704 0.00324072 0)
(0.123985 0.00380863 0)
(0.133773 0.00438195 0)
(0.141372 0.0049702 0)
(0.147051 0.00558201 0)
(0.151049 0.00622536 0)
(0.153582 0.0069078 0)
(0.154849 0.00763782 0)
(0.155028 0.00842317 0)
(0.154287 0.00927107 0)
(0.152799 0.0101909 0)
(0.15073 0.011193 0)
(0.148262 0.0122904 0)
(0.145577 0.0134944 0)
(0.142868 0.0148172 0)
(0.140383 0.0162771 0)
(0.13841 0.0178928 0)
(0.137287 0.0196816 0)
(0.137473 0.0216612 0)
(0.139577 0.0238472 0)
(0.14439 0.0262407 0)
(0.152974 0.028812 0)
(0.166755 0.0314805 0)
(0.187248 0.0340452 0)
(0.213978 0.0361087 0)
(0.227918 0.0374476 0)
(0 0 0)
(0.0301332 0.000849613 0)
(0.0567636 0.0016319 0)
(0.0791754 0.0023459 0)
(0.0978739 0.00301689 0)
(0.113339 0.00366494 0)
(0.125985 0.00430574 0)
(0.136169 0.00495189 0)
(0.144201 0.00561401 0)
(0.150358 0.00630169 0)
(0.154885 0.00702371 0)
(0.158004 0.00778847 0)
(0.159926 0.00860526 0)
(0.160837 0.00948186 0)
(0.160913 0.0104257 0)
(0.160344 0.0114476 0)
(0.159317 0.012559 0)
(0.158026 0.0137723 0)
(0.156686 0.0150991 0)
(0.155525 0.0165525 0)
(0.154823 0.0181483 0)
(0.154916 0.019902 0)
(0.156205 0.0218268 0)
(0.159245 0.0239341 0)
(0.164723 0.0262247 0)
(0.173542 0.0286778 0)
(0.186823 0.0312319 0)
(0.206001 0.0337665 0)
(0.232026 0.0360382 0)
(0.26331 0.0377045 0)
(0.279441 0.0386193 0)
(0 0 0)
(0.0305032 0.000945124 0)
(0.0574908 0.00181521 0)
(0.080254 0.00260904 0)
(0.099312 0.00335454 0)
(0.115155 0.00407384 0)
(0.128206 0.00478426 0)
(0.138829 0.00549963 0)
(0.14734 0.00623149 0)
(0.154025 0.00699039 0)
(0.159136 0.0077858 0)
(0.162902 0.00862639 0)
(0.165542 0.00952201 0)
(0.16726 0.0104813 0)
(0.168245 0.0115127 0)
(0.168698 0.0126273 0)
(0.168833 0.0138369 0)
(0.168851 0.0151518 0)
(0.168993 0.0165831 0)
(0.16954 0.0181449 0)
(0.170806 0.0198504 0)
(0.173183 0.0217106 0)
(0.177134 0.0237343 0)
(0.183291 0.0259235 0)
(0.192441 0.0282634 0)
(0.205531 0.0307111 0)
(0.223708 0.0331812 0)
(0.248202 0.0355218 0)
(0.279266 0.0374811 0)
(0.314352 0.0387979 0)
(0.332043 0.0394558 0)
(0 0 0)
(0.0309065 0.00103671 0)
(0.0582836 0.00199092 0)
(0.0814302 0.00286114 0)
(0.10088 0.00367771 0)
(0.117134 0.00446469 0)
(0.130626 0.00524099 0)
(0.141726 0.0060215 0)
(0.150757 0.00681844 0)
(0.158016 0.00764348 0)
(0.163763 0.00850668 0)
(0.168236 0.00941717 0)
(0.171664 0.0103852 0)
(0.174261 0.0114195 0)
(0.176237 0.0125294 0)
(0.177799 0.0137251 0)
(0.179181 0.0150176 0)
(0.180619 0.0164171 0)
(0.182376 0.0179346 0)
(0.184771 0.0195825 0)
(0.188165 0.0213705 0)
(0.193006 0.0233054 0)
(0.199838 0.0253902 0)
(0.209329 0.0276164 0)
(0.222349 0.0299553 0)
(0.23988 0.0323467 0)
(0.263048 0.034689 0)
(0.292642 0.0368141 0)
(0.328194 0.0384906 0)
(0.366443 0.0395342 0)
(0.385574 0.0401289 0)
(0 0 0)
(0.03134 0.00112406 0)
(0.0591363 0.00215846 0)
(0.0826953 0.00310136 0)
(0.102565 0.00398533 0)
(0.119261 0.00483618 0)
(0.133227 0.00567438 0)
(0.14484 0.00651582 0)
(0.154433 0.00737357 0)
(0.162312 0.00826009 0)
(0.168743 0.00918556 0)
(0.173978 0.0101599 0)
(0.178252 0.0111929 0)
(0.181786 0.0122928 0)
(0.18481 0.0134692 0)
(0.187552 0.0147324 0)
(0.190263 0.0160931 0)
(0.193217 0.0175612 0)
(0.196696 0.019145 0)
(0.201046 0.0208541 0)
(0.206687 0.0226958 0)
(0.214127 0.0246727 0)
(0.223971 0.0267803 0)
(0.236955 0.0290005 0)
(0.253965 0.0312927 0)
(0.275999 0.0335862 0)
(0.304093 0.0357711 0)
(0.338475 0.0376795 0)
(0.378028 0.0391181 0)
(0.418964 0.0399466 0)
(0.439819 0.0405222 0)
(0 0 0)
(0.0318007 0.00120689 0)
(0.0600426 0.00231729 0)
(0.0840406 0.00332896 0)
(0.104357 0.0042765 0)
(0.121523 0.00518756 0)
(0.135997 0.00608401 0)
(0.14816 0.00698232 0)
(0.158353 0.00789663 0)
(0.166891 0.0088394 0)
(0.174044 0.00982065 0)
(0.180076 0.0108509 0)
(0.185232 0.0119392 0)
(0.18975 0.0130944 0)
(0.193877 0.0143262 0)
(0.197868 0.0156449 0)
(0.201977 0.0170593 0)
(0.206504 0.0185768 0)
(0.211773 0.0202046 0)
(0.218166 0.02195 0)
(0.226144 0.0238169 0)
(0.236258 0.0258017 0)
(0.249175 0.0278926 0)
(0.265684 0.0300634 0)
(0.286677 0.032264 0)
(0.313168 0.0344194 0)
(0.345916 0.0364187 0)
(0.384652 0.0381118 0)
(0.427762 0.0393491 0)
(0.471074 0.0399805 0)
(0.494297 0.0406787 0)
(0 0 0)
(0.0322863 0.00128514 0)
(0.0609984 0.00246727 0)
(0.0854603 0.00354375 0)
(0.106252 0.00455116 0)
(0.123919 0.00551895 0)
(0.138927 0.00646961 0)
(0.151665 0.00742011 0)
(0.162485 0.00838533 0)
(0.171704 0.00937765 0)
(0.179604 0.0104073 0)
(0.186462 0.0114849 0)
(0.192537 0.0126201 0)
(0.198083 0.0138215 0)
(0.203363 0.0150982 0)
(0.208638 0.0164583 0)
(0.214181 0.017909 0)
(0.220321 0.0194571 0)
(0.227423 0.0211077 0)
(0.235902 0.0228643 0)
(0.246252 0.0247259 0)
(0.25905 0.0266829 0)
(0.275013 0.0287164 0)
(0.294937 0.0307916 0)
(0.319752 0.0328524 0)
(0.350407 0.0348204 0)
(0.387264 0.0365898 0)
(0.429749 0.0380412 0)
(0.47589 0.0390685 0)
(0.521388 0.0394353 0)
(0.548745 0.0406878 0)
(0 0 0)
(0.0327942 0.00135873 0)
(0.0619985 0.00260827 0)
(0.0869466 0.00374551 0)
(0.108238 0.00480893 0)
(0.126428 0.00582907 0)
(0.141987 0.0068289 0)
(0.155317 0.00782627 0)
(0.16678 0.00883629 0)
(0.176701 0.00987167 0)
(0.185378 0.0109433 0)
(0.193094 0.0120615 0)
(0.200124 0.0132356 0)
(0.206724 0.0144732 0)
(0.21317 0.0157819 0)
(0.219743 0.0171686 0)
(0.226743 0.0186398 0)
(0.234519 0.0202003 0)
(0.243451 0.0218512 0)
(0.253997 0.0235925 0)
(0.266668 0.0254175 0)
(0.282068 0.02731 0)
(0.300915 0.0292428 0)
(0.324003 0.0311729 0)
(0.35226 0.0330367 0)
(0.386382 0.0347471 0)
(0.426434 0.0361988 0)
(0.471676 0.0372883 0)
(0.519908 0.0379292 0)
(0.567322 0.0377004 0)
(0.603072 0.0406439 0)
(0 0 0)
(0.0333238 0.00142784 0)
(0.0630418 0.0027406 0)
(0.0884979 0.00393469 0)
(0.11031 0.00505014 0)
(0.129042 0.00611824 0)
(0.145171 0.00716262 0)
(0.159118 0.00820208 0)
(0.171251 0.00925212 0)
(0.181908 0.0103256 0)
(0.191394 0.0114333 0)
(0.199994 0.0125847 0)
(0.207993 0.0137882 0)
(0.215664 0.015051 0)
(0.223294 0.0163798 0)
(0.231184 0.0177797 0)
(0.239651 0.0192555 0)
(0.249051 0.0208085 0)
(0.259793 0.022437 0)
(0.272347 0.0241358 0)
(0.287229 0.0258916 0)
(0.30505 0.0276811 0)
(0.326493 0.0294674 0)
(0.352342 0.0311968 0)
(0.383333 0.0327918 0)
(0.419826 0.0341435 0)
(0.461653 0.0351106 0)
(0.507756 0.0354949 0)
(0.555567 0.0349356 0)
(0.601138 0.0323545 0)
(0.657322 0.0406339 0)
(-2.04697e-16 0 0)
(0.0282682 0 0)
(0.0615751 0 0)
(0.114456 0 0)
(0.178447 0 0)
(0.242052 0 0)
(0.297533 0 0)
(0.342299 0 0)
(0.37681 0 0)
(0.402466 0 0)
(0.42079 0 0)
(0.433087 0 0)
(0.44032 0 0)
(0.443183 0 0)
(0.442186 0 0)
(0.437681 0 0)
(0.429913 0 0)
(0.419044 0 0)
(0.405164 0 0)
(0.388332 0 0)
(0.368543 0 0)
(0.34576 0 0)
(0.319958 0 0)
(0.291096 0 0)
(0.25913 0 0)
(0.22401 0 0)
(0.185685 0 0)
(0.144106 0 0)
(0.0992384 0 0)
(0.0509743 0 0)
(0 0 0)
(0.00797533 -0.0090027 0)
(0.0342077 -0.00857685 0)
(0.0682154 -0.0093998 0)
(0.120864 -0.00937027 0)
(0.184066 -0.00877634 0)
(0.246756 -0.00794018 0)
(0.301409 -0.00707474 0)
(0.345467 -0.0062874 0)
(0.37937 -0.0055812 0)
(0.404528 -0.00494664 0)
(0.422463 -0.00438738 0)
(0.43445 -0.00389976 0)
(0.441429 -0.00346752 0)
(0.444091 -0.00308334 0)
(0.442933 -0.00274254 0)
(0.438301 -0.00243726 0)
(0.430435 -0.00216352 0)
(0.419489 -0.0019165 0)
(0.40555 -0.00169407 0)
(0.388661 -0.00149398 0)
(0.368822 -0.00131532 0)
(0.346 -0.00115352 0)
(0.320164 -0.00100525 0)
(0.291275 -0.000867652 0)
(0.259283 -0.000738124 0)
(0.22414 -0.000614251 0)
(0.185793 -0.000493719 0)
(0.144193 -0.000374255 0)
(0.0993018 -0.000253576 0)
(0.0510097 -0.000129092 0)
(0 0 0)
(0.0260534 -0.0168741 0)
(0.0514149 -0.0163799 0)
(0.0874432 -0.0176069 0)
(0.139769 -0.0174673 0)
(0.200928 -0.0164076 0)
(0.260945 -0.0149371 0)
(0.313026 -0.0133971 0)
(0.354863 -0.011956 0)
(0.386913 -0.0106469 0)
(0.41059 -0.00947089 0)
(0.427362 -0.00842977 0)
(0.438415 -0.00750972 0)
(0.444648 -0.00669122 0)
(0.446718 -0.00596087 0)
(0.44509 -0.00530745 0)
(0.44009 -0.00472305 0)
(0.431935 -0.00419783 0)
(0.420761 -0.0037247 0)
(0.406636 -0.00329987 0)
(0.389588 -0.00291742 0)
(0.36961 -0.00257299 0)
(0.346675 -0.00225972 0)
(0.320744 -0.00197174 0)
(0.291772 -0.00170371 0)
(0.259709 -0.00145077 0)
(0.224499 -0.00120832 0)
(0.18609 -0.000971914 0)
(0.144428 -0.000737187 0)
(0.0994703 -0.000499724 0)
(0.0511012 -0.000254488 0)
(0 0 0)
(0.0537547 -0.023568 0)
(0.0782539 -0.0230145 0)
(0.116748 -0.0242303 0)
(0.168559 -0.0239031 0)
(0.226842 -0.0225265 0)
(0.282952 -0.0206541 0)
(0.331126 -0.0186649 0)
(0.369526 -0.0167546 0)
(0.398731 -0.0149935 0)
(0.420122 -0.0134013 0)
(0.435057 -0.0119756 0)
(0.444638 -0.0107005 0)
(0.449703 -0.00956051 0)
(0.450847 -0.00853807 0)
(0.448487 -0.0076191 0)
(0.442909 -0.00679362 0)
(0.434297 -0.00605037 0)
(0.422755 -0.00538179 0)
(0.408328 -0.00478037 0)
(0.391028 -0.00423743 0)
(0.370839 -0.00374511 0)
(0.347727 -0.00329518 0)
(0.321645 -0.00287984 0)
(0.292543 -0.00249189 0)
(0.260365 -0.00212455 0)
(0.225051 -0.00177137 0)
(0.186543 -0.0014261 0)
(0.144782 -0.00108248 0)
(0.0997221 -0.000734221 0)
(0.051236 -0.000374052 0)
(0 0 0)
(0.0895476 -0.0290093 0)
(0.113108 -0.0283897 0)
(0.153747 -0.029345 0)
(0.204717 -0.0288117 0)
(0.259567 -0.0272412 0)
(0.310949 -0.0251423 0)
(0.354286 -0.022881 0)
(0.388385 -0.0206679 0)
(0.413997 -0.0185985 0)
(0.432447 -0.0167044 0)
(0.445009 -0.0149882 0)
(0.452709 -0.0134418 0)
(0.456274 -0.0120483 0)
(0.456224 -0.0107904 0)
(0.452919 -0.00965538 0)
(0.446593 -0.00863126 0)
(0.437384 -0.00770791 0)
(0.425356 -0.00687551 0)
(0.410533 -0.0061236 0)
(0.392903 -0.00544187 0)
(0.372438 -0.00482049 0)
(0.349092 -0.00424984 0)
(0.322813 -0.00372074 0)
(0.293539 -0.00322451 0)
(0.261209 -0.00275289 0)
(0.225757 -0.00229792 0)
(0.187119 -0.0018518 0)
(0.145231 -0.00140672 0)
(0.100037 -0.000954709 0)
(0.051403 -0.000486567 0)
(0 0 0)
(0.131592 -0.0331202 0)
(0.154249 -0.0325077 0)
(0.196345 -0.0331176 0)
(0.246062 -0.0324125 0)
(0.297041 -0.0307407 0)
(0.343141 -0.0285317 0)
(0.381048 -0.0261248 0)
(0.410271 -0.0237365 0)
(0.431736 -0.021473 0)
(0.446782 -0.0193766 0)
(0.456627 -0.017461 0)
(0.462153 -0.0157211 0)
(0.463981 -0.0141413 0)
(0.462552 -0.012706 0)
(0.458153 -0.0114042 0)
(0.450956 -0.0102261 0)
(0.441044 -0.0091605 0)
(0.428444 -0.00819557 0)
(0.413147 -0.00731979 0)
(0.395125 -0.00652184 0)
(0.37433 -0.00579082 0)
(0.350707 -0.00511612 0)
(0.324189 -0.00448761 0)
(0.29471 -0.00389553 0)
(0.262198 -0.00333053 0)
(0.226581 -0.00278348 0)
(0.187789 -0.00224537 0)
(0.145748 -0.00170707 0)
(0.100398 -0.00115924 0)
(0.0515925 -0.000591023 0)
(0 0 0)
(0.178179 -0.0360727 0)
(0.200027 -0.0354897 0)
(0.242851 -0.0357866 0)
(0.290832 -0.0349577 0)
(0.337499 -0.0332346 0)
(0.377907 -0.0309764 0)
(0.409999 -0.0285014 0)
(0.433949 -0.026025 0)
(0.450939 -0.0236558 0)
(0.462356 -0.0214436 0)
(0.469284 -0.0194073 0)
(0.472461 -0.0175425 0)
(0.472427 -0.0158386 0)
(0.469527 -0.0142827 0)
(0.463954 -0.0128645 0)
(0.45581 -0.0115753 0)
(0.445125 -0.0104033 0)
(0.431889 -0.00933655 0)
(0.416066 -0.00836326 0)
(0.397604 -0.00747174 0)
(0.37644 -0.00665061 0)
(0.352502 -0.00588878 0)
(0.325717 -0.00517553 0)
(0.296006 -0.00450048 0)
(0.263289 -0.0038535 0)
(0.227487 -0.00322465 0)
(0.18852 -0.00260397 0)
(0.146311 -0.00198132 0)
(0.100788 -0.00134628 0)
(0.0517959 -0.000686626 0)
(0 0 0)
(0.22788 -0.0380377 0)
(0.249007 -0.0375351 0)
(0.291939 -0.0376006 0)
(0.337607 -0.0366754 0)
(0.379438 -0.0349058 0)
(0.413771 -0.032616 0)
(0.43975 -0.0301137 0)
(0.458217 -0.0276067 0)
(0.470661 -0.0252022 0)
(0.478403 -0.022946 0)
(0.482354 -0.020855 0)
(0.483166 -0.0189279 0)
(0.481263 -0.0171564 0)
(0.476872 -0.0155309 0)
(0.470097 -0.0140423 0)
(0.460969 -0.012681 0)
(0.449474 -0.0114365 0)
(0.435565 -0.0102974 0)
(0.419181 -0.009252 0)
(0.400249 -0.00828897 0)
(0.378688 -0.00739692 0)
(0.354414 -0.00656472 0)
(0.32734 -0.00578144 0)
(0.297378 -0.00503642 0)
(0.264441 -0.0043191 0)
(0.228439 -0.003619 0)
(0.189287 -0.00292554 0)
(0.146897 -0.00222785 0)
(0.101191 -0.0015147 0)
(0.0520055 -0.000772782 0)
(0 0 0)
(0.279398 -0.0392167 0)
(0.300077 -0.0388804 0)
(0.342573 -0.0387754 0)
(0.385186 -0.0377404 0)
(0.421507 -0.0358918 0)
(0.449332 -0.0335599 0)
(0.469005 -0.0310518 0)
(0.48203 -0.0285581 0)
(0.490041 -0.026172 0)
(0.494208 -0.0239302 0)
(0.495311 -0.0218423 0)
(0.493878 -0.0199071 0)
(0.49018 -0.0181181 0)
(0.484336 -0.0164678 0)
(0.47637 -0.0149482 0)
(0.466259 -0.0135505 0)
(0.453944 -0.0122647 0)
(0.43935 -0.0110806 0)
(0.422391 -0.00998715 0)
(0.402974 -0.00897365 0)
(0.381002 -0.00802915 0)
(0.356378 -0.00714282 0)
(0.329003 -0.00630393 0)
(0.298781 -0.00550179 0)
(0.265614 -0.00472574 0)
(0.229405 -0.00396506 0)
(0.190061 -0.00320879 0)
(0.147486 -0.0024456 0)
(0.101595 -0.00166373 0)
(0.0522142 -0.000849093 0)
(0 0 0)
(0.331998 -0.0399677 0)
(0.352499 -0.0397512 0)
(0.393915 -0.0394707 0)
(0.432419 -0.0382629 0)
(0.462368 -0.0362783 0)
(0.483279 -0.0338881 0)
(0.496657 -0.0313925 0)
(0.504497 -0.0289508 0)
(0.508352 -0.0266287 0)
(0.50923 -0.0244478 0)
(0.507759 -0.0224101 0)
(0.504272 -0.0205119 0)