/*--------------------------------*- C++ -*----------------------------------*\
| =========                 |                                                 |
| \\      /  F ield         | OpenFOAM: The Open Source CFD Toolbox           |
|  \\    /   O peration     | Version:  4.1                                   |
|   \\  /    A nd           | Web:      www.OpenFOAM.org                      |
|    \\/     M anipulation  |                                                 |
\*---------------------------------------------------------------------------*/
FoamFile
{
    version     2.0;
    format      ascii;
    class       surfaceVectorField;
    location    "2.8";
    object      Uf;
}
// * * * * * * * * * * * * * * * * * * * * * * * * * * * * * * * * * * * * * //

dimensions      [0 1 -1 0 0 0 0];

internalField   nonuniform List<vector> 
5457
(
(9.90833 0.0243343 0)
(9.97164 0.0381579 0)
(9.80522 0.0303695 -5.48002e-20)
(9.92424 0.0446661 2.58609e-20)
(9.69026 0.0353046 -5.25198e-20)
(9.84966 0.0520752 -8.02832e-20)
(9.56093 0.0404766 2.94034e-20)
(9.75558 0.0611881 5.462e-20)
(9.41765 0.0457991 -2.00712e-21)
(9.64657 0.070721 1.41704e-19)
(9.26103 0.0512853 -9.22549e-20)
(9.5234 0.0805602 8.73932e-20)
(9.09124 0.0570638 4.22489e-21)
(9.38585 0.09094 -3.02997e-19)
(8.90806 0.0632625 1.30404e-19)
(9.23372 0.102081 6.33314e-20)
(8.71105 0.0699901 -6.04329e-21)
(9.06677 0.114156 2.03642e-21)
(8.49962 0.0773513 -1.43941e-19)
(8.88462 0.127328 -1.3698e-19)
(8.27299 0.0854582 8.00208e-20)
(8.68664 0.141768 -4.39303e-21)
(8.03028 0.0944329 1.47154e-19)
(8.47205 0.157662 2.93934e-19)
(7.77044 0.104408 -8.38097e-20)
(8.23993 0.175213 -1.49926e-19)
(7.49231 0.115526 2.73155e-19)
(7.98923 0.194635 6.25415e-19)
(7.19464 0.127942 -2.47135e-20)
(7.71875 0.216151 -1.37181e-19)
(6.87608 0.14182 3.7056e-20)
(7.4272 0.239987 4.96447e-19)
(6.53519 0.157335 -4.41654e-19)
(7.11319 0.266373 -5.0202e-19)
(6.17054 0.174663 -4.71624e-19)
(6.77525 0.295521 -8.07166e-19)
(5.78069 0.193976 1.23837e-18)
(6.41186 0.327611 -1.17005e-18)
(5.36427 0.215436 9.11843e-19)
(6.02151 0.362764 3.81303e-18)
(4.92011 0.239171 -1.02107e-18)
(5.60278 0.401003 -3.48369e-18)
(4.44731 0.265266 -1.0048e-18)
(5.15435 0.442202 2.67942e-18)
(3.94537 0.293727 0)
(4.67515 0.48602 -1.94798e-18)
(3.4144 0.324424 0)
(4.16436 0.53182 0)
(2.85533 0.356803 2.79183e-18)
(3.62187 0.5785 0)
(2.27045 0.389288 -3.25879e-18)
(3.0478 0.62385 2.76448e-18)
(1.66451 0.41724 -2.71188e-18)
(2.44248 0.663464 -7.22658e-18)
(1.04798 0.423678 2.36882e-18)
(1.80703 0.687422 1.55025e-17)
(0.440712 0.310876 7.36811e-18)
(1.12025 0.671849 1.36695e-18)
(0.541638 0.506991 -7.45631e-18)
(9.99966 0.0484726 2.63502e-20)
(10.0029 0.0383224 -2.52401e-20)
(9.96471 0.0632762 -1.90606e-21)
(9.98453 0.0598279 5.16235e-20)
(9.91027 0.0761847 2.96626e-20)
(9.94244 0.0767681 -2.3853e-19)
(9.83875 0.0899722 1.68709e-19)
(9.88086 0.0950639 5.50035e-20)
(9.75054 0.104458 2.30027e-19)
(9.80321 0.114302 -4.49589e-19)
(9.6462 0.119635 -1.30975e-19)
(9.71047 0.134288 3.4813e-19)
(9.526 0.135784 -2.36891e-19)
(9.60271 0.155385 -3.606e-19)
(9.3899 0.153199 -6.6199e-20)
(9.47987 0.178004 3.71455e-19)
(9.23763 0.172139 -1.3148e-19)
(9.34183 0.202491 1.94714e-19)
(9.06872 0.192852 5.00137e-21)
(9.18831 0.22917 -6.14035e-20)
(8.88253 0.21561 2.14893e-19)
(9.01881 0.258391 -4.75231e-19)
(8.67827 0.240705 -1.09977e-20)
(8.83268 0.290538 -1.39649e-19)
(8.45498 0.268451 5.72897e-19)
(8.62911 0.326026 1.44553e-19)
(8.21155 0.299177 2.01965e-19)
(8.40714 0.3653 2.09305e-18)
(7.94677 0.333224 3.94738e-19)
(8.16569 0.408823 -3.10135e-19)
(7.65927 0.37094 -5.93194e-20)
(7.90354 0.457079 -6.25206e-19)
(7.34761 0.412665 -8.72775e-19)
(7.61936 0.510564 -7.14635e-19)
(7.01024 0.45871 -1.51147e-18)
(7.31167 0.569764 -1.45336e-18)
(6.64555 0.509324 1.48362e-18)
(6.97888 0.635119 2.67177e-18)
(6.25191 0.564647 -6.95094e-19)
(6.61932 0.70698 -3.41013e-18)
(5.82774 0.624653 3.0834e-19)
(6.23122 0.785541 -3.54769e-18)
(5.37155 0.689071 1.67291e-18)
(5.81274 0.870753 7.15485e-18)
(4.88198 0.757299 -1.9234e-18)
(5.36198 0.962212 -1.95053e-18)
(4.35787 0.828296 0)
(4.87684 1.05902 0)
(3.79826 0.900181 0)
(4.35517 1.15964 0)
(3.20186 0.969481 -1.27819e-18)
(3.79398 1.26133 -1.06857e-18)
(2.56569 1.03042 1.1064e-17)
(3.18793 1.35937 9.98385e-19)
(1.88013 1.07484 1.46161e-17)
(2.52899 1.44686 1.11202e-17)
(1.10331 1.08628 -1.36361e-17)
(1.7765 1.52212 2.13243e-17)
(1.04226 1.56699 -3.59839e-17)
(9.99234 0.0530384 1.492e-21)
(10.0006 0.041515 1.25624e-19)
(9.96104 0.0765795 -1.91241e-19)
(9.97972 0.0733823 7.71646e-20)
(9.9102 0.0984065 -2.07062e-19)
(9.9387 0.099789 3.16757e-19)
(9.84351 0.121367 -5.73664e-19)
(9.88008 0.126611 -2.16576e-19)
(9.76179 0.145537 -3.15639e-19)
(9.80616 0.154631 -4.50619e-19)
(9.66545 0.170995 1.04713e-19)
(9.71793 0.183845 2.31115e-19)
(9.55475 0.198131 2.61752e-19)
(9.61568 0.21468 -6.2013e-22)
(9.42974 0.227385 6.29115e-19)
(9.49947 0.247684 -1.20856e-19)
(9.29024 0.259166 2.60095e-19)
(9.36927 0.283354 7.63617e-19)
(9.13591 0.293886 -5.49221e-19)
(9.22489 0.322171 5.5078e-21)
(8.9662 0.331995 -8.23952e-19)
(9.06599 0.364645 8.14389e-19)
(8.78047 0.373982 2.08483e-20)
(8.89206 0.411334 -1.30763e-19)
(8.5779 0.420379 1.69869e-18)
(8.70247 0.462847 -1.29459e-18)
(8.35755 0.471753 1.54015e-18)
(8.49649 0.519843 9.34753e-19)
(8.11833 0.528695 -1.33556e-18)
(8.27325 0.58302 1.74462e-19)
(7.85903 0.591823 -1.28276e-18)
(8.03175 0.653113 -1.48383e-18)
(7.57829 0.661766 -1.30729e-18)
(7.77088 0.730906 2.88812e-18)
(7.27459 0.739134 2.79675e-18)
(7.48939 0.817204 -1.41604e-18)
(6.94626 0.824471 -2.31661e-18)
(7.18583 0.91279 1.63041e-18)
(6.59147 0.918189 -6.27124e-18)
(6.85858 1.01837 -5.94087e-18)
(6.2082 1.02048 3.45612e-18)
(6.50579 1.13452 2.35734e-18)
(5.79424 1.13122 3.40788e-18)
(6.12533 1.26159 -6.56282e-19)
(5.34704 1.24982 0)
(5.71461 1.39955 -6.96019e-18)
(4.86352 1.37518 0)
(5.27041 1.54796 1.44575e-17)
(4.33964 1.50562 -1.07868e-18)
(4.78854 1.70594 -8.45894e-18)
(3.76906 1.63856 1.21799e-18)
(4.263 1.87218 -7.8926e-20)
(3.14069 1.77126 1.06545e-18)
(3.68417 2.0453 1.57752e-17)
(2.43359 1.90362 1.76794e-17)
(3.03906 2.22565 -1.84234e-17)
(1.61309 2.05967 -2.72514e-18)
(2.29889 2.41897 3.70898e-17)
(1.43734 2.69593 -4.22057e-17)
(9.98795 0.0622395 2.00404e-19)
(9.99926 0.0465386 6.51634e-23)
(9.95679 0.0958123 5.90358e-19)
(9.97648 0.0868894 1.02944e-19)
(9.9068 0.127187 2.96066e-19)
(9.93521 0.12244 2.12814e-19)
(9.8411 0.159124 -9.82998e-20)
(9.87762 0.157709 -3.67879e-22)
(9.76092 0.192288 1.09757e-19)
(9.80519 0.194234 3.35425e-19)
(9.66667 0.227033 1.2126e-19)
(9.71875 0.232358 5.09334e-22)
(9.55867 0.263898 -3.85573e-19)
(9.61874 0.272579 1.18975e-19)
(9.43704 0.303473 3.00104e-20)
(9.50534 0.315536 -4.93021e-19)
(9.30176 0.346327 4.95172e-19)
(9.37857 0.361855 5.04478e-19)
(9.15261 0.393035 1.3839e-18)
(9.23835 0.412151 -1.04156e-18)
(8.98923 0.444214 1.49141e-18)
(9.08446 0.46707 2.42385e-18)
(8.81118 0.500532 -1.46677e-18)
(8.91654 0.527313 1.53214e-19)
(8.6179 0.562719 -2.0214e-18)
(8.73416 0.593641 -1.53387e-19)
(8.4087 0.63156 -4.44674e-19)
(8.53679 0.66689 -1.3314e-18)
(8.1828 0.707886 -1.06085e-21)
(8.32383 0.747956 -2.77451e-18)
(7.93932 0.792588 2.76034e-18)
(8.09456 0.837788 5.0787e-18)
(7.67724 0.886607 2.71288e-18)
(7.84817 0.937428 4.31284e-19)
(7.39538 0.990905 -2.53656e-18)
(7.58377 1.04799 2.10667e-18)
(7.09234 1.10642 -2.11122e-18)
(7.30025 1.17059 -4.64637e-18)
(6.76648 1.23402 2.81665e-18)
(6.99628 1.30637 -3.49953e-19)
(6.41584 1.37441 -1.79809e-18)
(6.67027 1.45642 9.31714e-18)
(6.03796 1.52807 -1.11218e-17)
(6.32017 1.6217 -9.62484e-18)
(5.62968 1.69515 7.73667e-18)
(5.94328 1.80301 -6.97985e-18)
(5.1867 1.87544 5.81064e-18)
(5.53594 2.00096 2.22168e-17)
(4.70298 2.06857 -7.42596e-18)
(5.09306 2.21603 -1.46449e-17)
(4.1694 2.27455 1.45372e-17)
(4.60737 2.44905 1.57245e-17)
(3.57219 2.49517 -3.58112e-18)
(4.06823 2.70193 -1.4797e-17)
(2.88907 2.73028 2.46313e-19)
(3.45922 2.98051 -1.79012e-18)
(2.127 3.01088 -5.23156e-18)
(2.79808 3.26212 1.80184e-17)
(1.84213 3.72025 -2.16146e-17)
(9.98565 0.0719741 -9.54929e-20)
(9.9986 0.0525196 -1.00731e-19)
(9.95406 0.114017 -2.72348e-19)
(9.9747 0.100597 3.06758e-19)
(9.90486 0.153766 -8.81497e-20)
(9.93336 0.144755 -2.11298e-19)
(9.84027 0.193858 4.40282e-19)
(9.87683 0.188311 6.15598e-22)
(9.7616 0.235421 2.19551e-19)
(9.80602 0.233133 6.67506e-19)
(9.66931 0.279051 4.99583e-22)
(9.72153 0.27992 -9.08949e-19)
(9.5637 0.325375 0)
(9.62386 0.32927 0)
(9.44494 0.375071 0)
(9.51326 0.381892 0)
(9.31304 0.428817 -1.06066e-18)
(9.38979 0.43852 -9.98859e-19)
(9.16787 0.487305 5.97857e-20)
(9.25343 0.499892 -2.22285e-20)
(9.0092 0.551269 1.04568e-18)
(9.10402 0.566769 1.86238e-18)
(8.8367 0.621501 1.46199e-18)
(8.94131 0.639971 -2.45309e-18)
(8.64997 0.698869 5.1805e-19)
(8.76497 0.72038 2.93236e-19)
(8.44855 0.78432 -3.68642e-18)
(8.57464 0.808979 -9.08203e-19)
(8.23188 0.878867 2.43332e-18)
(8.36992 0.906828 -3.8845e-19)
(7.99934 0.983609 2.67736e-18)
(8.1503 1.01505 5.08527e-18)
(7.75023 1.09975 -1.52237e-19)
(7.91514 1.1349 -2.88567e-20)
(7.48375 1.22854 -1.01888e-19)
(7.6639 1.26775 9.91785e-20)
(7.19887 1.37131 -2.8233e-18)
(7.3958 1.41504 -2.80103e-18)
(6.89427 1.52941 6.28459e-18)
(7.10985 1.57834 -2.11255e-20)
(6.56831 1.70417 1.25677e-18)
(6.80479 1.75926 1.75237e-18)
(6.21873 1.89687 -5.44917e-18)
(6.4789 1.95952 1.26303e-18)
(5.84239 2.10875 7.79549e-18)
(6.12977 2.18089 0)
(5.4348 2.34108 1.47174e-18)
(5.75398 2.42527 -6.83458e-18)
(4.98961 2.59528 8.65808e-18)
(5.34668 2.69484 5.38328e-18)
(4.4978 2.87329 -1.35647e-17)
(4.901 2.99217 2.83492e-18)
(3.94757 3.1795 -1.32581e-17)
(4.40821 3.31995 -1.46684e-17)
(3.3149 3.50693 1.57985e-17)
(3.84391 3.68904 1.56164e-17)
(2.64023 3.87129 0)
(3.29874 4.02303 0)
(2.26781 4.60051 -3.15214e-17)
(9.98447 0.0820896 3.09336e-19)
(9.99828 0.058993 -4.98542e-20)
(9.95267 0.132087 3.56785e-19)
(9.97388 0.114411 4.58397e-19)
(9.90446 0.180048 -1.18081e-19)
(9.93286 0.166645 -2.08956e-19)
(9.84135 0.228354 2.41344e-19)
(9.87761 0.218253 -2.22834e-21)
(9.76453 0.278355 -4.92229e-19)
(9.80867 0.271169 8.84434e-19)
(9.67455 0.330825 -8.92176e-19)
(9.72649 0.326366 -2.29482e-19)
(9.57172 0.386471 0)
(9.63157 0.384566 2.3557e-19)
(9.45621 0.446051 -1.01742e-18)
(9.52421 0.446553 -4.76301e-19)
(9.32809 0.510348 5.73164e-20)
(9.40453 0.513157 -1.10602e-20)
(9.18728 0.580168 1.81445e-18)
(9.27251 0.585222 1.24482e-20)
(9.0336 0.656358 -1.71184e-18)
(9.12807 0.663617 5.38272e-19)
(8.86682 0.739826 -3.5775e-18)
(8.97103 0.749266 -2.18619e-18)
(8.68663 0.831559 -1.1543e-18)
(8.80115 0.843163 -3.3721e-18)
(8.49274 0.932648 2.4011e-18)
(8.61813 0.946394 -5.29086e-20)
(8.28475 1.04427 2.3522e-18)
(8.42178 1.06017 4.73033e-18)
(8.06219 1.16771 2.29769e-18)
(8.2117 1.1858 0)
(7.82456 1.30438 2.27224e-19)
(7.98736 1.3247 2.26555e-18)
(7.57136 1.45582 -2.64562e-18)
(7.74847 1.47845 3.21046e-18)
(7.30186 1.62369 4.22358e-20)
(7.49449 1.6488 -6.63461e-18)
(7.01508 1.80984 -4.53936e-18)
(7.22471 1.83771 -4.11015e-18)
(6.70972 2.01623 1.74019e-18)
(6.93818 2.04734 -5.25941e-18)
(6.38393 2.24502 6.72951e-18)
(6.63359 2.28012 1.18386e-17)
(6.03505 2.49854 -1.47123e-17)
(6.30901 2.53878 -1.19446e-17)
(5.65919 2.77947 -2.91487e-18)
(5.96165 2.82639 -1.75854e-18)
(5.25084 3.09092 -4.15009e-19)
(5.58756 3.14658 2.71988e-17)
(4.8024 3.43554 1.74868e-18)
(5.18095 3.50324 -3.88625e-17)
(4.30613 3.81718 1.40623e-17)
(4.7371 3.89715 2.50927e-17)
(3.73407 4.21912 0)
(4.21631 4.34518 0)
(3.13626 4.62707 -3.30493e-17)
(3.79249 4.70689 2.53851e-17)
(2.69909 5.34958 -5.91638e-17)
(9.98396 0.0923763 1.08721e-19)
(9.9982 0.06568 1.98134e-19)
(9.9523 0.149935 -1.21722e-19)
(9.97373 0.128179 -1.01954e-19)
(9.90525 0.205757 -8.87852e-20)
(9.93335 0.188038 -3.13875e-19)
(9.84389 0.262007 6.58915e-19)
(9.87959 0.24741 2.14043e-19)
(9.76926 0.32014 1.12556e-18)
(9.81281 0.30818 2.23365e-19)
(9.68198 0.381092 9.07627e-19)
(9.7333 0.371505 6.83548e-19)
(9.58238 0.445676 -2.54057e-19)
(9.64156 0.438238 5.65213e-21)
(9.47065 0.514742 5.38825e-19)
(9.53792 0.509247 -4.7658e-19)
(9.34688 0.589173 -5.52056e-20)
(9.42256 0.585449 1.1561e-20)
(9.21105 0.669877 -1.25585e-18)
(9.2955 0.667785 9.91977e-19)
(9.06303 0.757804 1.78692e-20)
(9.15669 0.757221 -1.02639e-18)
(8.90266 0.853966 -1.99919e-18)
(9.00603 0.854781 2.39505e-18)
(8.72972 0.959451 -2.21756e-18)
(8.84336 0.961565 -4.39275e-18)
(8.54401 1.07547 2.35201e-18)
(8.66846 1.07874 -2.56313e-20)
(8.34527 1.20337 2.30537e-18)
(8.48118 1.20766 2.34267e-18)
(8.13314 1.34458 0)
(8.28129 1.34984 0)
(7.90724 1.50068 5.2648e-18)
(8.06844 1.5068 -4.28716e-18)
(7.66728 1.67347 -9.05003e-19)
(7.84239 1.68032 1.0794e-17)
(7.41275 1.86496 -1.07698e-17)
(7.6028 1.87246 -5.31549e-18)
(7.14296 2.07744 -4.85047e-18)
(7.3492 2.08556 -6.1564e-18)
(6.85693 2.31346 5.01983e-18)
(7.0809 2.32226 -7.48739e-19)
(6.55329 2.57599 -7.05507e-18)
(6.79696 2.58565 5.0541e-18)
(6.22997 2.8684 1.06811e-18)
(6.49598 2.87933 -6.9021e-19)
(5.88407 3.19447 2.85389e-17)
(6.17591 3.20739 1.54113e-18)
(5.51146 3.55831 -1.1177e-17)
(5.83386 3.5743 1.41986e-17)
(5.10581 3.96243 -1.60157e-17)
(5.4648 3.98476 -2.69955e-17)
(4.66307 4.40823 1.13314e-17)
(5.06921 4.43586 3.59969e-17)
(4.15046 4.86971 2.50758e-17)
(4.58562 4.9527 -4.75525e-17)
(3.60254 5.29263 -5.9733e-18)
(4.26614 5.33256 4.94486e-17)
(3.11824 5.99167 -3.20773e-18)
(9.98389 0.102655 -1.83779e-20)
(9.99828 0.0723999 2.95433e-22)
(9.95268 0.167442 -2.9867e-19)
(9.97407 0.141764 -2.03735e-19)
(9.90697 0.230767 0)
(9.93459 0.208859 -6.19995e-19)
(9.84761 0.294666 -2.21497e-19)
(9.88257 0.275663 -8.48548e-19)
(9.77554 0.360646 -2.09981e-19)
(9.81823 0.343998 1.08734e-18)
(9.69135 0.429769 -2.31647e-19)
(9.74175 0.415137 -8.86232e-19)
(9.59543 0.502955 -2.25864e-19)
(9.65359 0.490054 -2.31706e-19)
(9.48799 0.581141 -9.95354e-19)
(9.55415 0.569702 -9.41309e-19)
(9.36915 0.665298 1.07593e-18)
(9.44363 0.655081 4.60208e-19)
(9.23893 0.756426 1.18828e-18)
(9.32211 0.747221 2.00262e-18)
(9.09728 0.855567 1.40831e-18)
(9.18959 0.847176 -1.27218e-18)
(8.9441 0.963835 -1.07648e-19)
(9.04602 0.95606 4.73728e-18)
(8.77925 1.08242 -2.13166e-18)
(8.89134 1.07507 -3.76003e-18)
(8.60257 1.21263 0)
(8.72544 1.2055 5.45951e-19)
(8.41388 1.35596 0)
(8.54808 1.3488 2.25995e-18)
(8.21304 1.51401 -4.35117e-18)
(8.35927 1.5066 -6.93034e-18)
(7.99979 1.68852 1.43872e-18)
(8.15891 1.68064 3.97735e-18)
(7.77388 1.88153 6.18758e-18)
(7.94669 1.87288 1.83346e-19)
(7.535 2.09539 -6.94775e-19)
(7.72244 2.08567 6.46881e-19)
(7.2827 2.33279 -1.99292e-18)
(7.48589 2.3217 -6.84877e-19)
(7.01629 2.59687 -6.7468e-19)
(7.23658 2.58411 -1.10478e-17)
(6.73484 2.89126 1.1403e-17)
(6.97391 2.87658 1.046e-17)
(6.43695 3.22018 -1.68805e-19)
(6.69698 3.2034 1.13698e-17)
(6.12048 3.5883 -1.29206e-17)
(6.40434 3.56952 6.20469e-19)
(5.78265 4.0001 -1.47492e-18)
(6.09401 3.97998 -1.2253e-17)
(5.41771 4.45744 2.46377e-17)
(5.76084 4.44003 2.15212e-17)
(5.02309 4.9594 -2.19621e-17)
(5.41081 4.94227 3.57505e-18)
(4.56086 5.47425 -2.48631e-17)
(4.95668 5.52289 -4.64998e-17)
(4.02936 5.90641 4.84389e-17)
(4.71619 5.92945 2.33778e-17)
(3.51816 6.59573 2.47757e-17)
(9.9841 0.112789 -1.88962e-19)
(9.99848 0.0790331 4.91296e-19)
(9.95364 0.184505 -5.33936e-19)
(9.97475 0.155041 -9.99911e-20)
(9.90947 0.254982 -1.47365e-18)
(9.93645 0.229015 4.08632e-19)
(9.85239 0.326208 4.99275e-19)
(9.88641 0.302897 4.16299e-19)
(9.78319 0.399716 3.72968e-19)
(9.82477 0.37847 4.42014e-19)
(9.70248 0.476666 -8.74219e-19)
(9.75165 0.457078 -6.21602e-21)
(9.61066 0.558073 -9.60299e-19)
(9.66747 0.539798 -4.55083e-19)
(9.50799 0.644957 5.39528e-19)
(9.57267 0.627666 -9.42007e-19)
(9.39462 0.738376 1.41426e-18)
(9.46748 0.721762 4.89006e-19)
(9.27062 0.839414 -5.14095e-19)
(9.35205 0.823198 -1.95665e-18)
(9.13599 0.949196 2.15551e-18)
(9.22643 0.933105 3.49022e-18)
(8.99074 1.06892 9.50608e-19)
(9.09064 1.05268 -2.50157e-18)
(8.83479 1.19989 -1.01546e-18)
(8.94468 1.18321 4.87023e-19)
(8.66801 1.34352 2.83326e-18)
(8.78856 1.32612 8.65198e-21)
(8.49034 1.5014 -4.80293e-18)
(8.6221 1.48295 -2.694e-18)
(8.30179 1.67531 1.54518e-18)
(8.44539 1.65542 -2.47543e-18)
(8.10224 1.86719 2.68456e-18)
(8.25851 1.84548 9.44185e-18)
(7.8915 2.07933 -5.37347e-18)
(8.06123 2.05537 -4.85969e-18)
(7.66942 2.31438 6.43891e-19)
(7.85353 2.28766 -4.7932e-18)
(7.43573 2.57543 -9.84012e-18)
(7.63529 2.5454 5.47441e-18)
(7.19004 2.86618 2.22664e-19)
(7.4063 2.8322 -5.26796e-19)
(6.93178 3.19089 1.04446e-17)
(7.16625 3.15232 5.79602e-19)
(6.66011 3.55442 1.21514e-17)
(6.91465 3.51072 -1.00546e-17)
(6.37352 3.96213 1.38791e-18)
(6.65052 3.91303 2.09529e-17)
(6.06978 4.41893 1.05764e-17)
(6.37251 4.36488 -1.08543e-17)
(5.74298 4.9261 6.0816e-19)
(6.07437 4.87246 2.16746e-17)
(5.3895 5.48183 -2.03798e-17)
(5.76737 5.42439 -2.27142e-17)
(4.96665 6.05389 6.74607e-19)
(5.33729 6.0703 2.02075e-17)
(4.43231 6.51162 -2.28999e-19)
(5.15612 6.52307 -3.86175e-17)
(3.91035 7.22393 2.18449e-17)
(9.98452 0.122671 5.69424e-19)
(9.99876 0.0854954 1.65658e-21)
(9.95506 0.201022 8.53775e-19)
(9.97571 0.167902 -2.01707e-19)
(9.91266 0.278299 2.29974e-18)
(9.93881 0.24841 6.19485e-19)
(9.85807 0.356501 3.59688e-19)
(9.89098 0.329002 4.28575e-19)
(9.79205 0.437185 5.38565e-20)
(9.83231 0.411454 -8.63742e-19)
(9.71517 0.521584 4.05104e-19)
(9.76285 0.497157 4.42221e-19)
(9.62786 0.610795 -4.45529e-19)
(9.68301 0.587269 4.40429e-19)
(9.53041 0.705921 -9.67643e-19)
(9.59324 0.682904 4.63216e-19)
(9.42301 0.808092 -2.92568e-18)
(9.49386 0.78522 -1.41673e-18)
(9.30578 0.918467 2.13815e-18)
(9.38503 0.895395 -1.47953e-18)
(9.17882 1.03825 -1.26292e-18)
(9.26688 1.01463 4.49358e-18)
(9.04216 1.16872 -2.92358e-18)
(9.13949 1.1442 -4.61666e-18)
(8.89583 1.31129 1.50702e-18)
(9.00294 1.28549 4.14521e-18)
(8.73985 1.46748 -5.5631e-18)
(8.85734 1.44003 -2.629e-18)
(8.5742 1.63899 -3.64424e-19)
(8.70268 1.60945 -4.43028e-18)
(8.39897 1.82773 5.58256e-18)
(8.53908 1.79558 4.48017e-18)
(8.21418 2.03588 1.72515e-18)
(8.36669 2.00058 5.90866e-19)
(8.0198 2.26599 -4.27221e-18)
(8.1855 2.22691 1.49687e-20)
(7.81582 2.52099 1.24331e-19)
(7.99563 2.47743 -4.23965e-18)
(7.6022 2.80441 1.47856e-17)
(7.79716 2.75555 1.41819e-17)
(7.3788 3.12042 -1.37449e-19)
(7.59014 3.06533 5.71879e-19)
(7.14539 3.47391 -2.00419e-17)
(7.37457 3.41157 -1.94331e-17)
(6.90151 3.87047 -1.30455e-18)
(7.15031 3.79996 8.75218e-18)
(6.64611 4.3161 8.8387e-18)
(6.91672 4.23693 8.82437e-18)
(6.37695 4.81666 0)
(6.67292 4.72897 -8.13233e-18)
(6.08708 5.37382 -1.19083e-18)
(6.4109 5.28403 0)
(5.76998 5.98685 1.75373e-17)
(6.14697 5.8887 -7.98415e-20)
(5.3797 6.62671 -1.86317e-17)
(5.74051 6.60672 3.54628e-17)
(4.8428 7.13788 -1.14511e-17)
(5.60966 7.12785 -5.53657e-17)
(4.3169 7.90549 2.50587e-18)
(9.98508 0.132216 -7.73749e-19)
(9.9991 0.091724 -7.88904e-19)
(9.95685 0.216895 -4.18891e-19)
(9.97688 0.180254 -7.95564e-19)
(9.91641 0.300614 -1.25662e-18)
(9.94159 0.266949 -8.16617e-19)
(9.86456 0.38542 -8.21065e-19)
(9.89619 0.353873 4.10846e-19)
(9.80198 0.472896 -4.50354e-19)
(9.84073 0.442817 -8.4852e-19)
(9.72925 0.56433 4.77344e-19)
(9.77521 0.535209 -5.89783e-21)
(9.64682 0.660895 1.35036e-18)
(9.70004 0.63227 9.26508e-21)
(9.555 0.763764 -1.80694e-20)
(9.61568 0.735188 9.18473e-19)
(9.45404 0.874135 2.95877e-20)
(9.52252 0.845186 -9.28211e-19)
(9.34412 0.993234 9.72665e-19)
(9.42077 0.963503 4.6562e-21)
(9.22539 1.12233 9.97638e-19)
(9.3106 1.09141 9.75499e-19)
(9.09796 1.26281 2.58865e-18)
(9.19218 1.23024 5.04752e-19)
(8.96196 1.41615 -8.87844e-20)
(9.06567 1.38148 1.5577e-18)
(8.81752 1.58398 -1.51846e-18)
(8.93128 1.54672 -6.21395e-18)
(8.66479 1.7681 5.31663e-19)
(8.78917 1.7277 4.70146e-18)
(8.50385 1.97057 -5.6628e-19)
(8.63958 1.9264 0)
(8.33492 2.19377 -1.12975e-18)
(8.48273 2.14513 -5.60653e-19)
(8.15814 2.44052 1.15992e-20)
(8.31878 2.38656 -2.81343e-20)
(7.97369 2.71409 9.98066e-18)
(8.14809 2.65387 4.99087e-18)
(7.78179 3.01837 -1.28377e-19)
(7.97098 2.95079 4.92883e-18)
(7.5826 3.35806 -1.88538e-17)
(7.78783 3.28184 -9.40104e-18)
(7.37627 3.73863 9.4513e-18)
(7.59902 3.65239 -1.84192e-17)
(7.16261 4.16658 1.89677e-17)
(7.40478 4.06889 2.78285e-17)
(6.94085 4.64896 -8.11431e-18)
(7.20481 4.53884 -5.42219e-21)
(6.70864 5.19328 -8.22236e-18)
(6.99871 5.0701 -7.66891e-19)
(6.45767 5.80345 1.12033e-18)
(6.77667 5.67375 -8.33767e-18)
(6.17724 6.48181 1.75738e-17)
(6.55991 6.33729 1.13247e-18)
(5.81992 7.20363 -5.68588e-19)
(6.18363 7.13742 3.22828e-17)
(5.29031 7.80216 -3.64731e-17)
(6.10413 7.75122 -3.31168e-17)
(4.76344 8.65823 -1.90129e-17)
(9.98577 0.141353 -8.10835e-19)
(9.9995 0.0976695 -7.78427e-19)
(9.95893 0.232035 -1.194e-18)
(9.97823 0.192018 7.88952e-19)
(9.92067 0.321828 8.76656e-19)
(9.94472 0.284545 8.07791e-19)
(9.87176 0.412845 3.58953e-19)
(9.90195 0.37741 4.23361e-19)
(9.81288 0.506701 -3.88105e-19)
(9.84993 0.472436 -4.26462e-19)
(9.7446 0.604732 -4.73823e-19)
(9.78861 0.571082 4.36489e-19)
(9.66737 0.708171 -4.07415e-19)
(9.7184 0.674625 -8.86419e-19)
(9.58157 0.818257 -2.32475e-20)
(9.63979 0.784314 2.61523e-21)
(9.48748 0.93625 -9.3816e-19)
(9.55322 0.901426 1.36556e-18)
(9.38532 1.06343 2.21793e-20)
(9.45896 1.02726 1.39844e-18)
(9.27533 1.20114 4.75182e-19)
(9.35723 1.16314 -4.56171e-19)
(9.15769 1.35082 -5.12896e-19)
(9.24828 1.31047 -1.9324e-18)
(9.03264 1.51402 -4.67876e-18)
(9.13237 1.47078 -5.061e-19)
(8.90044 1.69246 1.47504e-19)
(9.00984 1.64572 -8.65277e-18)
(8.76136 1.88805 4.11828e-18)
(8.88097 1.83715 8.23111e-18)
(8.61568 2.10304 0)
(8.74619 2.04718 -5.13207e-19)
(8.46371 2.33997 5.48437e-19)
(8.60586 2.27829 0)
(8.3058 2.60188 5.00014e-18)
(8.4603 2.53333 4.2389e-18)
(8.14236 2.89236 -7.06887e-20)
(8.31014 2.81576 -3.30767e-19)
(7.97399 3.21568 -4.42801e-18)
(8.15606 3.12957 -4.45432e-18)
(7.80123 3.57703 -8.95834e-18)
(7.99881 3.47971 -8.487e-18)
(7.62465 3.98266 -8.81665e-20)
(7.83937 3.87222 -9.99722e-18)
(7.44451 4.44003 8.91377e-18)
(7.67841 4.31438 1.8238e-17)
(7.26018 4.95781 7.39461e-18)
(7.51625 4.81507 0)
(7.06948 5.54616 -8.01296e-19)
(7.35296 5.38398 1.52644e-17)
(6.86333 6.21343 -8.41955e-18)
(7.17791 6.03695 -1.5993e-17)
(6.62669 6.96752 1.57172e-17)
(7.0172 6.76598 -1.41881e-17)
(6.31166 7.78954 9.56614e-20)
(6.68741 7.65946 2.94659e-17)
(5.80425 8.52222 -1.46031e-17)
(6.67353 8.39774 -1.55326e-17)
(5.28453 9.52143 0)
(9.98655 0.150024 8.51458e-19)
(9.99995 0.103292 -9.89314e-20)
(9.96128 0.246368 2.79246e-18)
(9.97973 0.203128 3.0576e-19)
(9.92535 0.341855 3.46571e-19)
(9.94816 0.301118 6.11738e-19)
(9.87959 0.438677 -3.79215e-19)
(9.9082 0.39952 -1.23612e-18)
(9.82464 0.538485 4.1481e-19)
(9.85981 0.500202 5.33968e-21)
(9.76107 0.642655 0)
(9.80293 0.604652 0)
(9.68935 0.752472 -4.60718e-19)
(9.73793 0.714192 8.72718e-19)
(9.60988 0.869223 1.4147e-18)
(9.66535 0.830113 -2.67238e-18)
(9.52301 0.99422 3.7052e-18)
(9.58569 0.953741 4.09175e-18)
(9.42903 1.1288 8.92577e-19)
(9.49928 1.08643 4.99473e-19)
(9.32822 1.27436 -2.88767e-18)
(9.40639 1.22955 -3.80997e-21)
(9.22088 1.43238 -1.90713e-18)
(9.30736 1.38455 -2.40934e-18)
(9.10736 1.60448 -4.58796e-18)
(9.20258 1.55299 0)
(8.98804 1.79243 -3.62046e-19)
(9.0925 1.73659 -4.04104e-18)
(8.86336 1.99829 3.49997e-18)
(8.97755 1.93727 4.06843e-18)
(8.73377 2.22444 -5.08814e-19)
(8.85829 2.15728 4.01135e-18)
(8.59975 2.47357 3.7315e-18)
(8.73526 2.39926 -4.0347e-18)
(8.46191 2.74892 -1.12881e-18)
(8.60911 2.66621 8.28288e-18)
(8.32101 3.05433 -4.75034e-18)
(8.48083 2.96173 -8.84886e-18)
(8.17803 3.39442 -8.52939e-18)
(8.35139 3.29007 -5.03318e-19)
(8.0341 3.77488 -9.54173e-18)
(8.22214 3.65656 -8.52243e-18)
(7.89034 4.2028 8.29723e-18)
(8.09478 4.06789 -7.95919e-18)
(7.7477 4.68684 9.40316e-18)
(7.97072 4.53221 1.66726e-17)
(7.606 5.23758 7.7695e-18)
(7.85142 5.06004 -7.48254e-18)
(7.46363 5.86881 3.05789e-19)
(7.73769 5.66334 1.51209e-17)
(7.31258 6.59546 -2.18044e-17)
(7.62012 6.3634 -7.6358e-18)
(7.13501 7.43551 -2.96178e-19)
(7.53016 7.16109 -1.42082e-17)
(6.88467 8.38229 1.37381e-17)
(7.27752 8.15673 1.38825e-17)
(6.43302 9.33082 2.02842e-19)
(7.37054 9.06262 2.16503e-19)
(5.93755 10.5799 -1.0569e-17)
(9.98742 0.158179 -6.37583e-19)
(10.0004 0.108557 7.77131e-19)
(9.96384 0.259822 -1.87e-18)
(9.98137 0.213525 -1.37614e-18)
(9.93042 0.360609 -1.00921e-18)
(9.95188 0.316598 -1.40112e-18)
(9.88796 0.462813 -8.27388e-19)
(9.91488 0.420127 -4.07996e-19)
(9.83713 0.568123 -4.09934e-19)
(9.87029 0.526026 -1.93542e-21)
(9.77849 0.677946 8.88666e-19)
(9.81803 0.635811 4.21901e-19)
(9.71251 0.793605 -1.40026e-18)
(9.75846 0.750835 8.73473e-19)
(9.63967 0.916427 1.15887e-19)
(9.69217 0.87242 -2.22142e-18)
(9.56035 1.04777 8.28111e-19)
(9.61971 1.00193 2.70851e-18)
(9.47491 1.18904 -4.05965e-19)
(9.54145 1.14079 -1.83324e-18)
(9.38369 1.34164 4.4248e-19)
(9.45774 1.29038 2.32256e-18)
(9.2871 1.50709 -4.68083e-19)
(9.36901 1.45218 -1.86969e-18)
(9.18563 1.68704 4.98957e-19)
(9.2758 1.62776 0)
(9.07981 1.88336 4.87166e-19)
(9.17864 1.81887 -3.34763e-18)
(8.97017 2.09817 4.57796e-18)
(9.07819 2.02756 3.86025e-18)
(8.85733 2.33393 4.14791e-19)
(8.97503 2.25613 7.9578e-18)
(8.7421 2.59352 6.08624e-19)
(8.87 2.50728 -1.23646e-17)
(8.62545 2.88031 4.60229e-19)
(8.76416 2.78413 8.01436e-18)
(8.5085 3.19826 -4.56411e-18)
(8.65893 3.09039 -3.59512e-18)
(8.39273 3.55228 -5.0331e-19)
(8.55561 3.43042 4.66367e-19)
(8.27995 3.94854 -6.93368e-18)
(8.45626 3.80984 0)
(8.17218 4.39489 3.25698e-19)
(8.36349 4.23577 -6.94889e-18)
(8.07138 4.90128 -1.13215e-19)
(8.27984 4.71721 1.41056e-17)
(7.9786 5.48027 -3.07812e-19)
(8.20843 5.26621 -8.05916e-18)
(7.89391 6.14951 7.34232e-18)
(8.15225 5.89686 5.6663e-19)
(7.81322 6.93177 0)
(8.10595 6.63505 0)
(7.72028 7.8606 1.94418e-19)
(8.10743 7.49371 2.18211e-20)
(7.57933 8.95306 1.90146e-19)
(7.98011 8.58451 1.91941e-19)
(7.26942 10.241 -1.11247e-17)
(8.26204 9.69296 -4.74049e-18)
(6.79325 11.8834 -8.44418e-21)
(9.98837 0.165778 -1.81627e-21)
(10.0009 0.113435 9.84447e-20)
(9.9666 0.27235 -9.07323e-19)
(9.98313 0.223161 -9.37148e-20)
(9.93581 0.37804 -7.79676e-19)
(9.95582 0.330932 -4.3371e-19)
(9.8968 0.485197 4.25775e-19)
(9.9219 0.439171 3.86278e-19)
(9.85026 0.595547 8.38276e-19)
(9.88126 0.549831 3.50776e-20)
(9.79674 0.710527 4.1462e-19)
(9.8338 0.664462 3.24531e-20)
(9.73675 0.831487 0)
(9.77988 0.784446 0)
(9.67079 0.959786 4.52156e-19)
(9.72013 0.911124 0)
(9.59928 1.09683 -2.40734e-20)
(9.65512 1.0459 4.50846e-19)
(9.52264 1.24405 9.57659e-19)
(9.58528 1.19023 1.23436e-18)
(9.44132 1.40287 -4.81972e-20)
(9.51108 1.34552 1.42092e-18)
(9.35586 1.57481 -1.37794e-18)
(9.43304 1.51321 -3.15985e-18)
(9.26685 1.76155 -3.89062e-18)
(9.35186 1.6949 3.52833e-18)
(9.17497 1.96502 1.03101e-19)
(9.26808 1.89238 -7.90989e-18)
(9.08086 2.18741 7.28534e-18)
(9.18259 2.10779 3.94091e-18)
(8.98538 2.43121 -5.00189e-18)
(9.09618 2.34342 7.99653e-18)
(8.88969 2.69934 -4.82169e-18)
(9.01001 2.60193 -8.48425e-18)
(8.79516 2.99528 3.89963e-18)
(8.92545 2.88648 -1.00782e-19)
(8.70337 3.32304 1.46042e-18)
(8.84442 3.20086 4.42535e-20)
(8.61632 3.68762 9.71738e-19)
(8.76867 3.54941 7.60621e-18)
(8.53666 4.09551 0)
(8.70112 3.93774 -6.54076e-18)
(8.46762 4.55502 6.77543e-18)
(8.64516 4.37305 0)
(8.41256 5.07708 6.28463e-18)
(8.60498 4.86492 1.30093e-17)
(8.37514 5.67576 -7.2436e-18)
(8.58593 5.42586 -6.47235e-18)
(8.35907 6.3715 -6.76373e-18)
(8.595 6.0709 -6.85611e-18)
(8.36769 7.19337 2.17358e-20)
(8.63402 6.82741 0)
(8.39423 8.19097 2.15489e-20)
(8.75013 7.71799 2.02436e-21)
(8.43258 9.42264 -4.76018e-18)
(8.81473 8.85601 5.15359e-19)
(8.40908 11.3421 7.13633e-18)
(9.50669 10.1512 -5.03998e-18)
(9.31652 13.4256 9.44121e-18)
(-0.00672635 -0.0155376 1.22854e-20)
(-0.0349875 0.00242575 0)
(0.0976222 -0.0463338 5.29951e-21)
(0.0278504 -0.0720989 1.41635e-20)
(0.274613 -0.0580422 -1.13245e-20)
(0.182209 -0.105467 -1.09329e-20)
(0.461252 -0.0518737 0)
(0.360476 -0.102054 0)
(0.61807 -0.0391316 2.91824e-21)
(0.532553 -0.0834807 0)
(0.731993 -0.0261784 3.51578e-21)
(0.67098 -0.0615083 -7.73637e-21)
(0.806161 -0.0155288 -5.27688e-22)
(0.768706 -0.0414554 -8.43452e-21)
(0.850386 -0.00780805 0)
(0.832014 -0.0257495 1.4519e-20)
(0.87476 -0.00248199 0)
(0.870583 -0.0147378 1.60438e-20)
(0.885767 0.00137616 1.80845e-21)
(0.893004 -0.00683585 -1.65727e-20)
(0.887006 0.0040639 -1.75346e-21)
(0.904587 -0.000707903 -3.67375e-21)
(0.882419 0.00537868 2.03527e-22)
(0.908028 0.00311836 -1.06753e-20)
(0.876721 0.0058363 3.5166e-21)
(0.907045 0.00390639 1.57499e-20)
(0.871712 0.00658043 -7.415e-22)
(0.905663 0.00348612 -3.68729e-21)
(0.865536 0.00797775 -1.381e-21)
(0.904845 0.0043184 -3.15729e-21)
(0.855972 0.00901937 -6.40941e-22)
(0.902513 0.00667879 -2.35504e-21)
(0.84473 0.0083116 0)
(0.89663 0.00785364 2.32597e-21)
(0.836355 0.0050466 1.50426e-22)
(0.888886 0.00586934 9.60777e-22)
(0.834252 0.000285708 -3.0827e-23)
(0.883279 0.00151306 -4.32304e-22)
(0.841624 -0.00416456 -1.50377e-22)
(0.883607 -0.0050644 -1.50181e-22)
(0.8574 -0.00735802 0)
(0.891285 -0.0108903 0)
(0.878637 -0.00878466 0)
(0.905573 -0.0146628 0)
(0.901585 -0.00880677 0)
(0.924303 -0.0158295 0)
(0.923921 -0.00852811 -1.77011e-22)
(0.944901 -0.0153904 -3.21189e-22)
(0.946291 -0.00920619 -3.63906e-22)
(0.965273 -0.0153934 -7.50344e-24)
(0.972045 -0.0116425 -1.8687e-22)
(0.985877 -0.0177009 -3.9407e-22)
(1.00581 -0.0158728 -2.31575e-22)
(1.00946 -0.0231954 3.80421e-22)
(1.05135 -0.0210326 -1.67139e-22)
(1.03921 -0.0312528 -8.2599e-23)
(1.10927 -0.0252773 6.96744e-23)
(1.07773 -0.0397018 -2.36692e-22)
(1.14044 -0.044371 4.57574e-23)
(-0.0026311 -0.0538753 1.47684e-21)
(-0.0287898 -0.00692244 -5.66899e-20)
(0.0985034 -0.136678 1.61723e-21)
(0.0306903 -0.15279 8.98529e-20)
(0.261905 -0.159982 0)
(0.158878 -0.206767 -3.34848e-20)
(0.439705 -0.145192 0)
(0.314841 -0.199728 4.9966e-21)
(0.595589 -0.11515 -1.10625e-20)
(0.467954 -0.165842 -5.45508e-21)
(0.714779 -0.0834374 -2.32383e-20)
(0.592741 -0.125213 -1.38008e-20)
(0.797899 -0.0562589 5.1084e-21)
(0.682416 -0.0875921 -8.19897e-21)
(0.852773 -0.0358659 3.06199e-20)
(0.741506 -0.0577891 1.7051e-20)
(0.88893 -0.0214564 -9.55757e-22)