/*--------------------------------*- C++ -*----------------------------------*\
| =========                 |                                                 |
| \\      /  F ield         | OpenFOAM: The Open Source CFD Toolbox           |
|  \\    /   O peration     | Version:  5.x                                   |
|   \\  /    A nd           | Web:      www.OpenFOAM.org                      |
|    \\/     M anipulation  |                                                 |
\*---------------------------------------------------------------------------*/
FoamFile
{
    version     2.0;
    format      ascii;
    class       volVectorField;
    location    "4.2";
    object      cellDisplacement;
}
// * * * * * * * * * * * * * * * * * * * * * * * * * * * * * * * * * * * * * //

dimensions      [0 1 0 0 0 0 0];

internalField   nonuniform List<vector> 
2790
(
(0.00397543 6.51292e-06 0)
(0.0114055 1.89196e-05 0)
(0.0178571 3.03254e-05 0)
(0.0233964 4.10969e-05 0)
(0.0280926 5.15364e-05 0)
(0.0320102 6.1893e-05 0)
(0.0352082 7.23783e-05 0)
(0.0377397 8.31775e-05 0)
(0.0396527 9.44571e-05 0)
(0.0409896 0.00010637 0)
(0.0417884 0.000119057 0)
(0.0420828 0.000132648 0)
(0.0419028 0.00014726 0)
(0.0412757 0.000162995 0)
(0.040227 0.000179934 0)
(0.038781 0.000198134 0)
(0.0369624 0.00021762 0)
(0.0347975 0.000238384 0)
(0.0323153 0.000260375 0)
(0.0295494 0.000283487 0)
(0.0265397 0.000307576 0)
(0.0233345 0.000332489 0)
(0.019993 0.00035807 0)
(0.0165869 0.000384158 0)
(0.013203 0.000410549 0)
(0.00994591 0.000436912 0)
(0.00694248 0.000462619 0)
(0.00434985 0.000486498 0)
(0.0023696 0.000506798 0)
(0.00128974 0.000522012 0)
(0.00398114 1.95041e-05 0)
(0.0114224 5.66574e-05 0)
(0.0178851 9.08112e-05 0)
(0.0234359 0.000123062 0)
(0.0281444 0.000154314 0)
(0.0320754 0.000185311 0)
(0.0352883 0.000216686 0)
(0.0378368 0.000248992 0)
(0.0397691 0.000282726 0)
(0.0411281 0.000318345 0)
(0.0419521 0.000356271 0)
(0.0422753 0.000396893 0)
(0.0421281 0.000440559 0)
(0.0415384 0.000487576 0)
(0.0405319 0.000538189 0)
(0.0391335 0.000592572 0)
(0.0373681 0.000650799 0)
(0.0352619 0.000712854 0)
(0.0328444 0.000778584 0)
(0.0301488 0.000847671 0)
(0.0272143 0.000919653 0)
(0.0240886 0.000994044 0)
(0.02083 0.00107035 0)
(0.01751 0.00114809 0)
(0.0142145 0.00122665 0)
(0.0110478 0.00130518 0)
(0.00813586 0.00138209 0)
(0.00563469 0.00145425 0)
(0.00374447 0.00151619 0)
(0.00274846 0.00156087 0)
(0.0039928 3.23897e-05 0)
(0.011457 9.40865e-05 0)
(0.0179421 0.000150795 0)
(0.023516 0.000204332 0)
(0.0282491 0.000256193 0)
(0.0322071 0.00030761 0)
(0.0354501 0.00035963 0)
(0.0380325 0.000413166 0)
(0.0400032 0.000469041 0)
(0.041406 0.000528007 0)
(0.0422801 0.000590765 0)
(0.0426605 0.000657957 0)
(0.0425784 0.000730165 0)
(0.0420627 0.000807898 0)
(0.0411399 0.000891569 0)
(0.0398356 0.000981474 0)
(0.0381752 0.00107774 0)
(0.0361856 0.00118035 0)
(0.0338961 0.00128909 0)
(0.0313401 0.0014034 0)
(0.0285552 0.00152242 0)
(0.0255876 0.00164526 0)
(0.0224938 0.00177099 0)
(0.0193443 0.00189874 0)
(0.0162238 0.00202748 0)
(0.0132352 0.00215608 0)
(0.0105024 0.00228281 0)
(0.00817661 0.00240422 0)
(0.00644718 0.00251304 0)
(0.00558029 0.00259542 0)
(0.00401016 4.5099e-05 0)
(0.0115083 0.000131 0)
(0.0180269 0.000209943 0)
(0.0236351 0.000284444 0)
(0.0284048 0.000356576 0)
(0.0324029 0.000428048 0)
(0.0356904 0.000500306 0)
(0.038323 0.000574614 0)
(0.0403507 0.000652108 0)
(0.0418184 0.000733826 0)
(0.0427666 0.000820741 0)
(0.0432314 0.000913743 0)
(0.0432457 0.00101364 0)
(0.0428393 0.00112115 0)
(0.0420402 0.00123684 0)
(0.0408752 0.00136118 0)
(0.0393703 0.00149428 0)
(0.0375531 0.00163622 0)
(0.0354537 0.00178674 0)
(0.0331057 0.00194512 0)
(0.0305439 0.00210981 0)
(0.027812 0.00227949 0)
(0.0249632 0.00245258 0)
(0.0220669 0.00262778 0)
(0.0192049 0.00280323 0)
(0.0164785 0.00297748 0)
(0.01401 0.00314911 0)
(0.0119466 0.00331619 0)
(0.0104692 0.00347364 0)
(0.00982545 0.00360381 0)
(0.00403302 5.75644e-05 0)
(0.011576 0.000167202 0)
(0.0181385 0.000267934 0)
(0.0237919 0.000362955 0)
(0.0286097 0.000454894 0)
(0.0326602 0.000545915 0)
(0.0360063 0.000637853 0)
(0.0387046 0.000732302 0)
(0.0408069 0.000830697 0)
(0.0423595 0.000934345 0)
(0.0434045 0.00104448 0)
(0.0439798 0.00116224 0)
(0.0441198 0.00128864 0)
(0.0438563 0.00142462 0)
(0.0432186 0.0015709 0)
(0.0422361 0.00172815 0)
(0.0409346 0.00189641 0)
(0.0393431 0.00207592 0)
(0.0374924 0.00226646 0)
(0.0354196 0.0024675 0)
(0.0331529 0.0026761 0)
(0.030734 0.00289073 0)
(0.0282075 0.00310856 0)
(0.0256451 0.00332823 0)
(0.0231207 0.00354591 0)
(0.0207349 0.0037591 0)
(0.0186078 0.00396539 0)
(0.0168858 0.00416305 0)
(0.0157469 0.00434921 0)
(0.0154157 0.00450712 0)
(0.00406111 6.97197e-05 0)
(0.0116591 0.000202498 0)
(0.0182757 0.000324456 0)
(0.0239845 0.000439433 0)
(0.0288612 0.000550588 0)
(0.0329762 0.000660519 0)
(0.0363937 0.000771428 0)
(0.0391725 0.000885219 0)
(0.0413658 0.00100361 0)
(0.0430218 0.00112814 0)
(0.0441847 0.00126031 0)
(0.0448946 0.0014015 0)
(0.0451874 0.00155287 0)
(0.0450978 0.00171565 0)
(0.0446562 0.0018906 0)
(0.0438965 0.00207891 0)
(0.042843 0.00228007 0)
(0.0415266 0.00249478 0)
(0.0399772 0.00272284 0)
(0.0382318 0.00296276 0)
(0.0363267 0.0032127 0)
(0.0342976 0.00347034 0)
(0.0321836 0.00373248 0)
(0.0300359 0.00399439 0)
(0.0279217 0.00424994 0)
(0.0259448 0.00449542 0)
(0.0242197 0.00472447 0)
(0.022887 0.00493107 0)
(0.0221192 0.00510945 0)
(0.022112 0.00524898 0)
(0.00409413 8.14992e-05 0)
(0.0117568 0.000236697 0)
(0.0184369 0.000379199 0)
(0.0242108 0.00051345 0)
(0.0291566 0.000643107 0)
(0.0333467 0.000771176 0)
(0.0368478 0.000900202 0)
(0.0397204 0.00103237 0)
(0.0420197 0.00116966 0)
(0.0437959 0.00131381 0)
(0.0450958 0.00146658 0)
(0.0459618 0.00162958 0)
(0.0464316 0.00180404 0)
(0.046544 0.00199162 0)
(0.0463279 0.00219273 0)
(0.0458193 0.00240839 0)
(0.0450509 0.00263922 0)
(0.0440528 0.00288587 0)
(0.0428561 0.00314784 0)
(0.0414919 0.00342348 0)
(0.0400046 0.00371222 0)
(0.0384269 0.00401085 0)
(0.0367997 0.00431542 0)
(0.0351551 0.00461805 0)
(0.0335453 0.00491194 0)
(0.0320368 0.00518746 0)
(0.0307577 0.00543497 0)
(0.0298317 0.00564158 0)
(0.0294119 0.00579542 0)
(0.0296726 0.00589447 0)
(0.00413167 9.28401e-05 0)
(0.0118679 0.000269615 0)
(0.0186203 0.000431866 0)
(0.0244681 0.000584599 0)
(0.029492 0.000731926 0)
(0.0337674 0.000877236 0)
(0.0373628 0.00102339 0)
(0.0403411 0.00117282 0)
(0.0427597 0.00132776 0)
(0.0446707 0.00149003 0)
(0.046124 0.00166171 0)
(0.0471655 0.00184469 0)
(0.0478321 0.00203992 0)
(0.048164 0.00224884 0)
(0.0481984 0.00247264 0)
(0.0479691 0.00271229 0)
(0.0475171 0.00296944 0)
(0.0468734 0.00324429 0)
(0.0460709 0.0035366 0)
(0.0451438 0.00384543 0)
(0.0441299 0.00416948 0)
(0.0430625 0.00450568 0)
(0.0419755 0.00484925 0)
(0.0409013 0.00519277 0)
(0.0398826 0.0055272 0)
(0.0389406 0.00583906 0)
(0.0381532 0.00611382 0)
(0.0376568 0.00633652 0)
(0.0375735 0.00649325 0)
(0.0380664 0.00658862 0)
(0.00417328 0.000103684 0)
(0.0119911 0.000301084 0)
(0.0188237 0.000482186 0)
(0.0247534 0.000652508 0)
(0.0298637 0.000816569 0)
(0.0342329 0.000978105 0)
(0.0379322 0.00114029 0)
(0.0410264 0.0013057 0)
(0.0435761 0.00147693 0)
(0.0456337 0.00165563 0)
(0.0472539 0.00184425 0)
(0.048481 0.00204427 0)
(0.0493592 0.00225724 0)
(0.0499286 0.0024845 0)
(0.0502347 0.00272814 0)
(0.050314 0.00298913 0)
(0.0502061 0.00326872 0)
(0.049947 0.00356751 0)
(0.0495725 0.00388563 0)
(0.0491187 0.00422263 0)
(0.0486229 0.00457737 0)
(0.0481179 0.00494716 0)
(0.0476337 0.00532744 0)
(0.047196 0.00571118 0)
(0.0468278 0.00608854 0)
(0.0465478 0.00644613 0)
(0.0463607 0.00676636 0)
(0.0463603 0.00703312 0)
(0.0466838 0.00723479 0)
(0.0474835 0.00737418 0)
(0.00421846 0.000113978 0)
(0.0121249 0.00033095 0)
(0.0190449 0.000529916 0)
(0.0250637 0.000716847 0)
(0.0302671 0.000896613 0)
(0.0347377 0.00107326 0)
(0.0385489 0.00125029 0)
(0.0417675 0.00143026 0)
(0.0444539 0.00161568 0)
(0.0466659 0.00180875 0)
(0.0484611 0.00201188 0)
(0.0498851 0.00222648 0)
(0.0509896 0.00245483 0)
(0.0518157 0.00269812 0)
(0.0524096 0.0029582 0)
(0.0528132 0.00323638 0)
(0.0530684 0.0035339 0)
(0.0532149 0.00385162 0)
(0.0532916 0.00419 0)
(0.0533369 0.00454915 0)
(0.053392 0.00492859 0)
(0.0534897 0.00532638 0)
(0.0536595 0.00573906 0)
(0.0539216 0.00616086 0)
(0.0542851 0.00658309 0)
(0.0547463 0.00699331 0)
(0.0552924 0.00737527 0)
(0.0559243 0.00770883 0)
(0.0567917 0.00797837 0)
(0.0580315 0.00817091 0)
(0.00426663 0.000123676 0)
(0.0122678 0.000359076 0)
(0.0192814 0.000574841 0)
(0.0253956 0.000777336 0)
(0.0306976 0.000971699 0)
(0.0352756 0.00116222 0)
(0.0392023 0.00135237 0)
(0.042547 0.00154505 0)
(0.0453768 0.00174289 0)
(0.0477523 0.0019485 0)
(0.0497309 0.00216404 0)
(0.0513641 0.00239135 0)
(0.0527049 0.00263241 0)
(0.0537954 0.0028883 0)
(0.0546862 0.00316101 0)
(0.0554233 0.00345196 0)
(0.0560516 0.00376241 0)
(0.0566147 0.00409335 0)
(0.0571548 0.0044455 0)
(0.0577103 0.00481945 0)
(0.058334 0.00521586 0)
(0.0590576 0.00563365 0)
(0.0599163 0.00607116 0)
(0.0609298 0.00652483 0)
(0.0621001 0.00698878 0)
(0.0634087 0.00745359 0)
(0.0648151 0.00790479 0)
(0.0662661 0.00832059 0)
(0.0678459 0.00866874 0)
(0.0696474 0.00890598 0)
(0.00431719 0.000132734 0)
(0.0124178 0.000385339 0)
(0.0195308 0.000616774 0)
(0.025746 0.000833736 0)
(0.0311479 0.00104118 0)
(0.0358323 0.00124398 0)
(0.0398789 0.0014458 0)
(0.0433587 0.00164984 0)
(0.0463401 0.00185885 0)
(0.0488834 0.002075 0)
(0.0510504 0.00230075 0)
(0.0528962 0.00253808 0)
(0.0544708 0.00278835 0)
(0.0558258 0.00305313 0)
(0.0570143 0.00333441 0)
(0.0580845 0.00363345 0)
(0.0590849 0.00395142 0)
(0.0600634 0.00428934 0)
(0.0610669 0.00464795 0)
(0.0621436 0.00502883 0)
(0.0633374 0.00543268 0)
(0.0646856 0.00585942 0)
(0.0662427 0.0063098 0)
(0.0680341 0.00678271 0)
(0.0700637 0.00727621 0)
(0.0723111 0.00778606 0)
(0.0747234 0.00830258 0)
(0.0772124 0.00880589 0)
(0.0796929 0.00924204 0)
(0.0821606 0.00952171 0)
(0.00436946 0.000141116 0)
(0.012573 0.000409625 0)
(0.0197901 0.000655538 0)
(0.0261033 0.000885393 0)
(0.0316057 0.00110449 0)
(0.0364058 0.00131849 0)
(0.0405786 0.00153093 0)
(0.044196 0.00174476 0)
(0.0473275 0.00196271 0)
(0.0500385 0.00218723 0)
(0.0523942 0.00242079 0)
(0.0544496 0.00266509 0)
(0.056256 0.00292143 0)
(0.0578734 0.00319179 0)
(0.0593536 0.00347754 0)
(0.0607484 0.00377986 0)
(0.0621095 0.00409978 0)
(0.0634891 0.00443824 0)
(0.06494 0.0047961 0)
(0.0665182 0.00517452 0)
(0.0682605 0.00557376 0)
(0.0702231 0.00599575 0)
(0.0724523 0.00644236 0)
(0.0750059 0.00691399 0)
(0.0778959 0.00741244 0)
(0.0811177 0.00793977 0)
(0.0846294 0.00849532 0)
(0.0883278 0.00906764 0)
(0.0919423 0.00959402 0)
(0.0951968 0.00992415 0)
(0.00442274 0.000148789 0)
(0.0127306 0.000431819 0)
(0.0200501 0.000690778 0)
(0.0264636 0.000932168 0)
(0.0320728 0.00116193 0)
(0.0369922 0.00138586 0)
(0.0412902 0.0016072 0)
(0.0450401 0.00182879 0)
(0.0483211 0.00205379 0)
(0.0512015 0.00228481 0)
(0.0537438 0.00252386 0)
(0.056006 0.00277262 0)
(0.0580441 0.00303245 0)
(0.0599163 0.00330487 0)
(0.0616774 0.00359104 0)
(0.0633819 0.00389191 0)
(0.0650842 0.00420822 0)
(0.0668391 0.00454058 0)
(0.0687024 0.00488947 0)
(0.0707301 0.00525536 0)
(0.0729741 0.00563847 0)
(0.0754944 0.00603961 0)
(0.0783358 0.00646122 0)
(0.0815763 0.00690405 0)
(0.0852407 0.00736972 0)
(0.0893538 0.00786398 0)
(0.0939071 0.0083956 0)
(0.0988205 0.00897433 0)
(0.103746 0.00957019 0)
(0.108005 0.0099885 0)
(0.00447643 0.00015573 0)
(0.0128887 0.000451854 0)
(0.0203086 0.000722433 0)
(0.0268238 0.000974122 0)
(0.0325428 0.00121331 0)
(0.0375794 0.00144565 0)
(0.0420005 0.00167418 0)
(0.0458849 0.0019021 0)
(0.0493171 0.00213268 0)
(0.0523639 0.0023682 0)
(0.0550887 0.00261056 0)
(0.0575517 0.00286127 0)
(0.0598113 0.00312161 0)
(0.0619255 0.00339271 0)
(0.0639508 0.00367544 0)
(0.0659431 0.00397035 0)
(0.0679581 0.00427776 0)
(0.0700519 0.0045977 0)
(0.0722809 0.00492995 0)
(0.0747021 0.00527399 0)
(0.0773712 0.00562898 0)
(0.080346 0.00599389 0)
(0.0836923 0.00636917 0)
(0.0874667 0.00675264 0)
(0.0917061 0.00714089 0)
(0.0964533 0.00753338 0)
(0.101725 0.00793385 0)
(0.107484 0.00836434 0)
(0.113439 0.00888986 0)
(0.118914 0.00945872 0)
(0.00143046 -0.000531705 0)
(0.00281279 -0.000538727 0)
(0.0054952 -0.000536419 0)
(0.00924317 -0.00052642 0)
(0.0137867 -0.000510858 0)
(0.0188462 -0.000491028 0)
(0.0241519 -0.000467646 0)
(0.0294625 -0.000441348 0)
(0.0345783 -0.000412847 0)
(0.0393476 -0.000383022 0)
(0.0436628 -0.000352774 0)
(0.0474531 -0.000322904 0)
(0.0506755 -0.00029409 0)
(0.0533056 -0.000266773 0)
(0.0553305 -0.000241193 0)
(0.0567444 -0.000217469 0)
(0.0575435 -0.000195611 0)
(0.0577234 -0.000175537 0)
(0.0572773 -0.000157094 0)
(0.0561947 -0.000140112 0)
(0.054461 -0.000124421 0)
(0.0520568 -0.000109848 0)
(0.0489575 -9.61702e-05 0)
(0.0451333 -8.3195e-05 0)
(0.0405508 -7.07468e-05 0)
(0.0351711 -5.85573e-05 0)
(0.0289502 -4.63925e-05 0)
(0.0218418 -3.39921e-05 0)
(0.0137989 -2.10518e-05 0)
(0.00477221 -7.21454e-06 0)
(0.0028822 -0.00159785 0)
(0.00428999 -0.00161351 0)
(0.00697657 -0.00160264 0)
(0.0107047 -0.00157107 0)
(0.015205 -0.00152428 0)
(0.0201992 -0.00146521 0)
(0.0254192 -0.00139552 0)
(0.0306277 -0.00131702 0)
(0.0356303 -0.00123186 0)
(0.040282 -0.00114274 0)
(0.0444811 -0.00105243 0)
(0.0481613 -0.000963282 0)
(0.051283 -0.000877381 0)
(0.0538227 -0.000795991 0)
(0.0557678 -0.000719786 0)
(0.0571123 -0.000649119 0)
(0.0578518 -0.000584012 0)
(0.057981 -0.000524214 0)
(0.0574917 -0.000469252 0)
(0.0563725 -0.000418616 0)
(0.0546079 -0.000371807 0)
(0.0521779 -0.000328334 0)
(0.0490567 -0.0002875 0)
(0.0452137 -0.000248739 0)
(0.0406153 -0.000211565 0)
(0.0352223 -0.000175131 0)
(0.0289896 -0.00013876 0)
(0.0218697 -0.000101678 0)
(0.0138143 -6.29685e-05 0)
(0.00477639 -2.15844e-05 0)
(0.00571864 -0.00266356 0)
(0.00720712 -0.00267399 0)
(0.00990911 -0.0026457 0)
(0.0135978 -0.00259019 0)
(0.0180117 -0.00251305 0)
(0.0228755 -0.00241633 0)
(0.027924 -0.00230161 0)
(0.0329287 -0.00217204 0)
(0.0377053 -0.00203112 0)
(0.0421234 -0.00188373 0)
(0.0460931 -0.00173462 0)
(0.0495562 -0.00158756 0)
(0.05248 -0.00144619 0)
(0.0548422 -0.00131241 0)
(0.0566306 -0.00118717 0)
(0.057839 -0.00107105 0)
(0.0584616 -0.000964077 0)
(0.0584909 -0.000865817 0)
(0.0579167 -0.000775418 0)
(0.0567255 -0.000692046 0)
(0.0548999 -0.000614896 0)
(0.0524188 -0.000543259 0)
(0.0492545 -0.000475852 0)
(0.0453739 -0.00041178 0)
(0.0407441 -0.000350398 0)
(0.0353249 -0.000290112 0)
(0.0290684 -0.000229899 0)
(0.0219259 -0.000168484 0)
(0.0138443 -0.000104329 0)
(0.00478368 -3.57025e-05 0)
(0.00996443 -0.00368692 0)
(0.0115373 -0.00368523 0)
(0.0142389 -0.0036393 0)
(0.0178613 -0.0035641 0)
(0.0221459 -0.0034612 0)
(0.0268151 -0.00333021 0)
(0.0316052 -0.0031723 0)
(0.0363053 -0.0029934 0)
(0.0407432 -0.00279793 0)
(0.0448147 -0.00259389 0)
(0.0484465 -0.00238814 0)
(0.0515906 -0.0021853 0)
(0.0542263 -0.00199123 0)
(0.0563303 -0.00180789 0)
(0.0578904 -0.0016362 0)
(0.0589008 -0.00147709 0)
(0.0593532 -0.00133051 0)
(0.0592375 -0.00119588 0)
(0.0585396 -0.00107181 0)
(0.0572433 -0.000957185 0)
(0.0553282 -0.000850931 0)
(0.0527727 -0.000752385 0)
(0.0495457 -0.000659342 0)
(0.0456091 -0.000570684 0)
(0.0409322 -0.0004853 0)
(0.0354753 -0.000401779 0)
(0.0291838 -0.000318388 0)
(0.0220092 -0.000233345 0)
(0.0139001 -0.000144551 0)
(0.00480581 -4.94737e-05 0)
(0.0155279 -0.0045999 0)
(0.0171695 -0.00460022 0)
(0.019858 -0.0045562 0)
(0.0233966 -0.00447588 0)
(0.0275162 -0.00435565 0)
(0.0319299 -0.00419478 0)
(0.0363704 -0.00399468 0)
(0.0406471 -0.00376486 0)
(0.0446333 -0.00351602 0)
(0.0482536 -0.00325779 0)
(0.0514506 -0.00299918 0)
(0.0541954 -0.00274623 0)
(0.0564648 -0.00250364 0)
(0.0582392 -0.0022748 0)
(0.0595067 -0.00206011 0)
(0.0602647 -0.00186139 0)
(0.0605 -0.00167829 0)
(0.0601994 -0.00151021 0)
(0.0593431 -0.00135485 0)
(0.0579122 -0.001211 0)
(0.0558813 -0.00107722 0)
(0.0532276 -0.000952343 0)
(0.0499211 -0.000834849 0)
(0.0459185 -0.000722849 0)
(0.0411833 -0.000614583 0)
(0.0356732 -0.000508794 0)
(0.0293359 -0.000403228 0)
(0.0221193 -0.000295561 0)
(0.0139705 -0.000183138 0)
(0.0048315 -6.27255e-05 0)
(0.0221959 -0.00537212 0)
(0.0239207 -0.00540678 0)
(0.0266247 -0.00539314 0)
(0.0300857 -0.00532257 0)
(0.0340139 -0.00519048 0)
(0.0380809 -0.00499778 0)
(0.0420609 -0.00475449 0)
(0.0458084 -0.0044737 0)
(0.049249 -0.00417264 0)
(0.0523267 -0.00386339 0)
(0.0550082 -0.00355602 0)
(0.0572781 -0.00325819 0)
(0.0591109 -0.00297294 0)
(0.0604978 -0.00270428 0)
(0.0614282 -0.00245278 0)
(0.0618894 -0.00221875 0)
(0.061868 -0.00200287 0)
(0.0613432 -0.00180348 0)
(0.060298 -0.00161937 0)
(0.0587079 -0.0014487 0)
(0.0565444 -0.00128974 0)
(0.0537765 -0.00114052 0)
(0.0503723 -0.00100018 0)
(0.046289 -0.000866446 0)
(0.0414845 -0.000737256 0)
(0.0359126 -0.000610648 0)
(0.0295203 -0.000484149 0)
(0.0222528 -0.000355004 0)
(0.0140543 -0.000220047 0)
(0.00486104 -7.53965e-05 0)
(0.0297353 -0.00606722 0)
(0.0316378 -0.00615619 0)
(0.034428 -0.00618047 0)
(0.0378243 -0.00611663 0)
(0.0414946 -0.00596443 0)
(0.0451112 -0.00573217 0)
(0.0485314 -0.00544075 0)
(0.051663 -0.00511016 0)
(0.0544655 -0.00475951 0)
(0.0569187 -0.00440345 0)
(0.0590106 -0.00405259 0)
(0.0607356 -0.00371429 0)
(0.062079 -0.00339215 0)
(0.0630359 -0.00308963 0)
(0.0635895 -0.00280708 0)
(0.0637179 -0.00254312 0)
(0.0634056 -0.00229831 0)
(0.0626311 -0.00207144 0)
(0.0613749 -0.0018617 0)
(0.0596075 -0.00166723 0)
(0.0572948 -0.00148587 0)
(0.0544013 -0.00131561 0)
(0.0508885 -0.00115476 0)
(0.0467129 -0.00100121 0)
(0.0418292 -0.000852691 0)
(0.0361872 -0.000706771 0)
(0.0297321 -0.000560697 0)
(0.022406 -0.000411335 0)
(0.0141496 -0.000255067 0)
(0.00489415 -8.74216e-05 0)
(0.0381279 -0.00681376 0)
(0.0403092 -0.00692737 0)
(0.0432293 -0.0069564 0)
(0.0465351 -0.00687156 0)
(0.0498253 -0.00667507 0)
(0.0528835 -0.00639051 0)
(0.0556307 -0.00604474 0)
(0.0580417 -0.00566302 0)
(0.0601227 -0.00526603 0)
(0.0618853 -0.00486888 0)
(0.0633326 -0.00448136 0)
(0.0644724 -0.00411038 0)
(0.065287 -0.003758 0)
(0.0657707 -0.00342688 0)
(0.0659106 -0.00311785 0)
(0.0656837 -0.00282947 0)
(0.0650633 -0.00256087 0)
(0.0640283 -0.00231182 0)
(0.0625486 -0.00208081 0)
(0.0605922 -0.00186629 0)
(0.0581188 -0.00166566 0)
(0.0550886 -0.00147686 0)
(0.0514578 -0.00129782 0)
(0.0471807 -0.00112645 0)
(0.0422098 -0.000960338 0)
(0.0364911 -0.000796685 0)
(0.0299666 -0.000632482 0)
(0.0225755 -0.000464263 0)
(0.0142545 -0.000288013 0)
(0.00493035 -9.87404e-05 0)
(0.0475561 -0.00764707 0)
(0.0500299 -0.00774013 0)
(0.05302 -0.00772364 0)
(0.0560937 -0.00757613 0)
(0.0588461 -0.00730871 0)
(0.0611956 -0.00695616 0)
(0.0631461 -0.00655074 0)
(0.0647421 -0.00611926 0)
(0.0660367 -0.00568162 0)
(0.0670668 -0.00525157 0)
(0.0678346 -0.0048358 0)
(0.0683531 -0.00443978 0)
(0.0686197 -0.00406573 0)
(0.0686178 -0.00371355 0)
(0.0683362 -0.0033845 0)
(0.0677457 -0.00307744 0)
(0.0668144 -0.00279122 0)
(0.0655106 -0.00252483 0)
(0.0637981 -0.00227665 0)
(0.0616411 -0.00204519 0)
(0.0589992 -0.00182839 0)
(0.0558249 -0.00162372 0)
(0.0520686 -0.00142875 0)
(0.0476827 -0.0012416 0)
(0.0426188 -0.00105975 0)
(0.0368181 -0.000880003 0)
(0.0302193 -0.000699189 0)
(0.0227582 -0.000513548 0)
(0.0143672 -0.000318732 0)
(0.00496909 -0.000109301 0)
(0.058137 -0.00848694 0)
(0.0608422 -0.00853945 0)
(0.0637238 -0.00843949 0)
(0.066306 -0.00819212 0)
(0.068313 -0.00783279 0)
(0.0697843 -0.00740379 0)
(0.0708218 -0.00693979 0)
(0.0715313 -0.00646526 0)
(0.0720041 -0.00599655 0)
(0.0722671 -0.00554355 0)
(0.0723474 -0.00511084 0)
(0.0722479 -0.00469964 0)
(0.0719748 -0.00431207 0)
(0.0715036 -0.00394771 0)
(0.0708095 -0.00360636 0)
(0.0698594 -0.00328704 0)
(0.0686167 -0.00298853 0)
(0.067043 -0.00270957 0)
(0.0650971 -0.00244859 0)
(0.0627362 -0.00220377 0)
(0.059919 -0.00197365 0)
(0.0565971 -0.00175587 0)
(0.0527131 -0.00154772 0)
(0.0482117 -0.00134673 0)
(0.0430486 -0.00115061 0)
(0.0371625 -0.00095642 0)
(0.0304857 -0.00076057 0)
(0.0229511 -0.000558996 0)
(0.014486 -0.000347103 0)
(0.00500987 -0.000119062 0)
(0.0698117 -0.00926345 0)
(0.0726311 -0.00925313 0)
(0.0751243 -0.00903797 0)
(0.076877 -0.00866604 0)
(0.0778849 -0.00820569 0)
(0.0783205 -0.00770411 0)
(0.0783634 -0.00719278 0)
(0.0781536 -0.00668912 0)
(0.077794 -0.00620418 0)
(0.0773062 -0.00574216 0)
(0.0767273 -0.00530376 0)
(0.0760519 -0.00488882 0)
(0.0752678 -0.00449737 0)
(0.0743479 -0.00412874 0)
(0.0732592 -0.0037822 0)
(0.0719633 -0.00345676 0)
(0.0704186 -0.00315125 0)
(0.0685815 -0.0028644 0)
(0.0664065 -0.00259473 0)
(0.0638468 -0.00234062 0)
(0.0608553 -0.00210042 0)
(0.0573807 -0.00187202 0)
(0.053368 -0.00165317 0)
(0.0487608 -0.00144104 0)
(0.0434999 -0.00123291 0)
(0.0375185 -0.00102571 0)
(0.0307617 -0.000816458 0)
(0.0231529 -0.000600673 0)
(0.01461 -0.000373156 0)
(0.00505249 -0.000128036 0)
(0.0824722 -0.00992715 0)
(0.0851048 -0.00980825 0)
(0.0867554 -0.0094413 0)
(0.0873233 -0.00893509 0)
(0.0871178 -0.00838335 0)
(0.0864249 -0.0078301 0)
(0.0854606 -0.00729523 0)
(0.0843615 -0.00678505 0)
(0.0832108 -0.0063026 0)
(0.0820439 -0.00584759 0)
(0.0808657 -0.00541682 0)
(0.0796634 -0.00500889 0)
(0.078413 -0.00462283 0)
(0.0770806 -0.00425775 0)
(0.0756269 -0.00391282 0)
(0.0740086 -0.00358714 0)
(0.0721797 -0.00327972 0)
(0.0700926 -0.00298945 0)
(0.0676981 -0.00271506 0)
(0.0649461 -0.00245509 0)
(0.0617853 -0.00220793 0)
(0.0581619 -0.00197168 0)
(0.0540194 -0.00174415 0)
(0.0492996 -0.00152281 0)
(0.0439454 -0.00130515 0)
(0.0378767 -0.00108729 0)
(0.0310306 -0.000866132 0)
(0.0233496 -0.000637884 0)
(0.0147381 -0.000396751 0)
(0.00509707 -0.000136184 0)
(0.0958272 -0.0103901 0)
(0.0977066 -0.0101085 0)
(0.0979327 -0.00955759 0)
(0.0970157 -0.00893229 0)
(0.0954983 -0.00832762 0)
(0.0937028 -0.00776426 0)
(0.0918169 -0.00724181 0)
(0.0899355 -0.00675387 0)
(0.0881019 -0.00629611 0)
(0.0863476 -0.00586438 0)
(0.0846538 -0.00545415 0)
(0.0829951 -0.00506356 0)
(0.0813376 -0.0046915 0)
(0.0796413 -0.00433721 0)
(0.0778621 -0.00400012 0)
(0.0759528 -0.00367961 0)
(0.0738644 -0.00337502 0)
(0.0715463 -0.00308551 0)
(0.0689468 -0.00281008 0)
(0.0660132 -0.00254751 0)
(0.0626916 -0.00229636 0)
(0.0589258 -0.00205492 0)
(0.0546576 -0.00182114 0)
(0.0498273 -0.00159267 0)
(0.0443753 -0.001367 0)
(0.038221 -0.0011405 0)
(0.0312931 -0.000909427 0)
(0.0235336 -0.000670147 0)
(0.0148567 -0.000417255 0)
(0.00514309 -0.000143426 0)
(0.109118 -0.0105394 0)
(0.109376 -0.0100009 0)
(0.107692 -0.00926865 0)
(0.105196 -0.00859763 0)
(0.10249 -0.00801873 0)
(0.0997867 -0.00750713 0)
(0.0971788 -0.00704104 0)
(0.0946996 -0.00660607 0)
(0.0923494 -0.0061943 0)
(0.0901358 -0.00580082 0)
(0.0880309 -0.0054227 0)
(0.0860003 -0.00505866 0)
(0.0840043 -0.00470817 0)
(0.0819993 -0.00437107 0)
(0.0799387 -0.00404732 0)
(0.0777736 -0.00373681 0)
(0.0754534 -0.00343928 0)
(0.072926 -0.0031543 0)
(0.0701384 -0.00288119 0)
(0.0670361 -0.00261903 0)
(0.0635634 -0.00236662 0)
(0.0596628 -0.00212244 0)
(0.0552745 -0.00188464 0)
(0.0503369 -0.00165102 0)
(0.0447855 -0.00141902 0)
(0.0385461 -0.00118543 0)
(0.0315441 -0.000946356 0)
(0.0237106 -0.000697842 0)
(0.0149639 -0.000434686 0)
(0.00518025 -0.000149492 0)
(0.120133 -0.0100973 0)
(0.118174 -0.00917051 0)
(0.114768 -0.00843042 0)
(0.111194 -0.00789795 0)
(0.107754 -0.0074659 0)
(0.104508 -0.00707874 0)
(0.10146 -0.0067124 0)
(0.0986027 -0.00635701 0)
(0.0959167 -0.00600889 0)
(0.0933854 -0.00566681 0)
(0.0909797 -0.00533064 0)
(0.0886643 -0.0050009 0)
(0.0863995 -0.00467837 0)
(0.0841416 -0.0043639 0)
(0.0818444 -0.00405822 0)
(0.0794593 -0.00376185 0)
(0.0769357 -0.00347508 0)
(0.0742216 -0.00319794 0)
(0.0712634 -0.00293014 0)
(0.0680061 -0.00267108 0)
(0.0643931 -0.00241984 0)
(0.0603661 -0.00217516 0)
(0.0558641 -0.00193538 0)
(0.050824 -0.00169847 0)
(0.0451792 -0.00146196 0)
(0.0388567 -0.00122277 0)
(0.0317813 -0.000977205 0)
(0.0238769 -0.000721093 0)
(0.0150574 -0.000449178 0)
(0.00520788 -0.000154396 0)
(0.00453084 0.000162019 0)
(0.0130484 0.00046996 0)
(0.020566 0.000750843 0)
(0.0271857 0.00101181 0)
(0.033019 0.00125936 0)
(0.0381723 0.0014988 0)
(0.0427176 0.00173324 0)
(0.0467394 0.00196615 0)
(0.0503221 0.00220065 0)
(0.0535331 0.00243881 0)
(0.0564368 0.00268235 0)
(0.0590947 0.00293261 0)
(0.0615662 0.00319064 0)
(0.0639096 0.00345721 0)
(0.0661817 0.00373277 0)
(0.0684385 0.00401743 0)
(0.0707355 0.0043109 0)
(0.0731278 0.00461248 0)
(0.0756706 0.00492098 0)
(0.0784185 0.00523462 0)
(0.0814254 0.00555082 0)
(0.0847444 0.00586596 0)
(0.0884404 0.00617622 0)
(0.0925369 0.00647471 0)
(0.0970617 0.00674821 0)
(0.102034 0.00697725 0)
(0.107428 0.00712428 0)
(0.113125 0.00710764 0)
(0.118806 0.0067394 0)
(0.124213 0.0055474 0)
(0.0045856 0.000167626 0)
(0.0132092 0.000486081 0)
(0.0208281 0.00077615 0)
(0.0275541 0.0010453 0)
(0.0334997 0.00129993 0)
(0.0387676 0.00154506 0)
(0.0434395 0.0017842 0)
(0.0476018 0.0020208 0)
(0.0513342 0.00225756 0)
(0.0547064 0.00249646 0)
(0.0577838 0.00273904 0)
(0.0606287 0.0029864 0)
(0.0633006 0.00323931 0)
(0.0658574 0.00349815 0)
(0.0683549 0.00376292 0)
(0.0708479 0.00403317 0)
(0.0733896 0.00430794 0)
(0.076032 0.00458571 0)
(0.078826 0.00486421 0)
(0.08182 0.00514026 0)
(0.08506 0.00540942 0)
(0.088588 0.00566556 0)
(0.0924419 0.00590009 0)
(0.0966181 0.0061011 0)
(0.101114 0.00624811 0)
(0.105892 0.00630972 0)
(0.110849 0.00623402 0)
(0.115797 0.00593379 0)
(0.120426 0.00527215 0)
(0.124354 0.00405257 0)
(0.00463953 0.000172458 0)
(0.0133679 0.000499954 0)
(0.0210883 0.000797886 0)
(0.0279189 0.00107385 0)
(0.0339742 0.00133416 0)
(0.0393566 0.00158372 0)
(0.0441541 0.00182624 0)
(0.0484517 0.0020649 0)
(0.052328 0.00230219 0)
(0.0558536 0.00253994 0)
(0.0590945 0.00277946 0)
(0.0621126 0.00302161 0)
(0.064967 0.00326682 0)
(0.0677141 0.00351509 0)
(0.0704078 0.00376594 0)
(0.0731001 0.00401836 0)
(0.0758404 0.00427072 0)
(0.0786755 0.00452066 0)
(0.081649 0.00476491 0)
(0.0848003 0.00499901 0)
(0.0881623 0.00521696 0)
(0.0917593 0.00541058 0)
(0.095601 0.0055687 0)
(0.09967 0.00567568 0)
(0.103928 0.00570861 0)
(0.108299 0.00563454 0)
(0.112659 0.00540469 0)
(0.116799 0.00495663 0)
(0.12044 0.00421402 0)
(0.123315 0.00306249 0)
(0.00469177 0.000176465 0)
(0.0135222 0.000511441 0)
(0.021342 0.000815813 0)
(0.0282746 0.00109718 0)
(0.0344362 0.00136177 0)
(0.0399302 0.0016144 0)
(0.0448477 0.00185877 0)
(0.0492734 0.00209788 0)
(0.053285 0.002334 0)
(0.0569533 0.00256876 0)
(0.0603439 0.00280327 0)
(0.0635181 0.00303811 0)
(0.0665333 0.00327338 0)
(0.069444 0.00350869 0)
(0.0723013 0.0037431 0)
(0.0751531 0.0039751 0)
(0.0780438 0.00420242 0)
(0.0810138 0.00442202 0)
(0.0840982 0.0046298 0)
(0.0873258 0.00482033 0)
(0.0907163 0.00498654 0)
(0.0942772 0.00511909 0)
(0.0979988 0.00520574 0)
(0.101848 0.00523003 0)
(0.105768 0.00517023 0)
(0.109678 0.00499688 0)
(0.113432 0.00467602 0)
(0.116843 0.0041705 0)
(0.119726 0.00343463 0)
(0.121888 0.00240622 0)
(0.00474141 0.000179605 0)
(0.0136692 0.000520421 0)
(0.021585 0.000829738 0)
(0.0286153 0.00111507 0)
(0.0348788 0.00138253 0)
(0.0404796 0.00163682 0)
(0.0455104 0.00188156 0)
(0.0500558 0.00211956 0)
(0.0541927 0.0023529 0)
(0.0579914 0.00258301 0)
(0.0615166 0.00281074 0)
(0.064828 0.00303642 0)
(0.0679814 0.00325984 0)
(0.0710283 0.00348026 0)
(0.0740162 0.00369634 0)
(0.0769885 0.00390611 0)
(0.0799841 0.00410684 0)
(0.0830361 0.00429493 0)
(0.0861713 0.00446576 0)
(0.0894084 0.00461335 0)
(0.0927553 0.0047302 0)
(0.0962071 0.00480668 0)
(0.0997419 0.004831 0)
(0.10332 0.00478743 0)
(0.106876 0.00465798 0)
(0.110317 0.00442173 0)
(0.113515 0.00405845 0)
(0.116341 0.00354385 0)
(0.118663 0.00285356 0)
(0.120354 0.0019673 0)
(0.00478754 0.000181842 0)
(0.0138065 0.000526795 0)
(0.0218127 0.000839511 0)
(0.0289356 0.00112735 0)
(0.0352952 0.00139626 0)
(0.0409965 0.00165081 0)
(0.0461329 0.00189449 0)
(0.0507885 0.00212993 0)
(0.0550394 0.002359 0)
(0.058955 0.00258293 0)
(0.0625984 0.00280235 0)
(0.0660276 0.00301733 0)
(0.069296 0.00322739 0)
(0.0724518 0.00343149 0)
(0.0755386 0.00362798 0)
(0.078595 0.00381455 0)
(0.0816542 0.00398812 0)
(0.0847423 0.00414481 0)
(0.0878785 0.00427977 0)
(0.0910731 0.00438686 0)
(0.0943254 0.0044589 0)
(0.0976227 0.00448629 0)
(0.100939 0.00445862 0)
(0.104227 0.0043636 0)
(0.107414 0.00418791 0)
(0.110421 0.00391839 0)
(0.113154 0.00354129 0)
(0.11552 0.0030439 0)
(0.117427 0.00241741 0)
(0.118799 0.00166333 0)
(0.00482926 0.00018315 0)
(0.0139314 0.000530488 0)
(0.0220212 0.000845025 0)
(0.02923 0.00113389 0)
(0.0356787 0.00140285 0)
(0.041473 0.0016563 0)
(0.0467061 0.00189757 0)
(0.0514615 0.00212908 0)
(0.0558143 0.00235254 0)
(0.0598323 0.00256896 0)
(0.0635771 0.00277877 0)
(0.0671044 0.00298184 0)
(0.0704648 0.00317746 0)
(0.0737034 0.00336433 0)
(0.0768594 0.00354059 0)
(0.079967 0.00370377 0)
(0.0830541 0.00385055 0)
(0.0861401 0.00397699 0)
(0.0892383 0.00407845 0)
(0.0923531 0.00414863 0)
(0.0954818 0.00418099 0)
(0.0986041 0.00416766 0)
(0.101682 0.00409986 0)
(0.104672 0.00396926 0)
(0.107515 0.00376627 0)
(0.110147 0.00348223 0)
(0.112499 0.00310972 0)
(0.114503 0.00264397 0)
(0.1161 0.00208541 0)
(0.117246 0.00144402 0)
(0.00486569 0.000183511 0)
(0.0140413 0.000531457 0)
(0.0222064 0.000846218 0)
(0.0294932 0.00113465 0)
(0.0360231 0.00140228 0)
(0.0419016 0.00165331 0)
(0.0472217 0.00189088 0)
(0.0520657 0.00211725 0)
(0.0565076 0.00233392 0)
(0.0606134 0.00254172 0)
(0.0644425 0.0027409 0)
(0.0680483 0.00293116 0)
(0.071479 0.00311166 0)
(0.0747762 0.0032809 0)
(0.0779743 0.00343687 0)
(0.0811041 0.00357723 0)
(0.0841902 0.00369835 0)
(0.0872435 0.0037964 0)
(0.0902787 0.00386705 0)
(0.0932946 0.00390502 0)
(0.0962755 0.0039042 0)
(0.0992004 0.00385905 0)
(0.102038 0.00376277 0)
(0.104749 0.00360903 0)
(0.107287 0.00339184 0)
(0.109601 0.00310635 0)
(0.111641 0.00274965 0)
(0.11336 0.00232187 0)
(0.114721 0.00182792 0)
(0.115699 0.00127968 0)
(0.00489603 0.000182919 0)
(0.014134 0.000529683 0)
(0.0223647 0.000843077 0)
(0.0297205 0.00112962 0)
(0.0363225 0.00139459 0)