/*--------------------------------*- C++ -*----------------------------------*\
| =========                 |                                                 |
| \\      /  F ield         | OpenFOAM: The Open Source CFD Toolbox           |
|  \\    /   O peration     | Version:  5.x                                   |
|   \\  /    A nd           | Web:      www.OpenFOAM.org                      |
|    \\/     M anipulation  |                                                 |
\*---------------------------------------------------------------------------*/
FoamFile
{
    version     2.0;
    format      ascii;
    class       surfaceScalarField;
    location    "4.2";
    object      meshPhi;
}
// * * * * * * * * * * * * * * * * * * * * * * * * * * * * * * * * * * * * * //

dimensions      [0 3 -1 0 0 0 0];

internalField   nonuniform List<scalar> 
5457
(
4.89002e-05
-7.72947e-07
9.40392e-05
-2.20169e-06
0.000135107
-3.44038e-06
0.000173162
-4.52079e-06
0.000209013
-5.48838e-06
0.000243268
-6.38169e-06
0.000276373
-7.23379e-06
0.00030865
-8.07259e-06
0.000340312
-8.92033e-06
0.000371467
-9.79314e-06
0.000402097
-1.07025e-05
0.000432049
-1.16588e-05
0.000461059
-1.2673e-05
0.000488753
-1.37561e-05
0.000514708
-1.49137e-05
0.000538511
-1.61322e-05
0.000559698
-1.7375e-05
0.000577614
-1.85916e-05
0.000591211
-1.97259e-05
0.000598926
-2.07124e-05
0.000599102
-2.1419e-05
0.000590482
-2.15713e-05
0.000572144
-2.07511e-05
0.000542913
-1.84625e-05
0.000500966
-1.42033e-05
0.000444293
-7.53129e-06
0.000372285
1.7802e-06
0.000289346
1.33603e-05
0.000213547
2.54985e-05
4.0594e-05
4.87524e-05
-1.54112e-06
9.37716e-05
-4.38939e-06
0.000134739
-6.85779e-06
0.000172703
-9.00945e-06
0.000208467
-1.09348e-05
0.000242634
-1.27107e-05
0.00027565
-1.44033e-05
0.000307837
-1.60686e-05
0.000339413
-1.77513e-05
0.0003705
-1.94834e-05
0.000401098
-2.12864e-05
0.000431063
-2.31801e-05
0.000460148
-2.51855e-05
0.000487976
-2.7327e-05
0.000514114
-2.96239e-05
0.000538206
-3.20535e-05
0.000559914
-3.45427e-05
0.000578804
-3.69886e-05
0.000594081
-3.92841e-05
0.000604122
-4.13473e-05
0.000607092
-4.3e-05
0.000601917
-4.37603e-05
0.000588444
-4.2828e-05
0.000566591
-3.92571e-05
0.000535563
-3.21333e-05
0.000494249
-2.06656e-05
0.000442569
-4.41208e-06
0.00038435
1.60491e-05
0.000333332
3.76242e-05
6.17543e-05
4.85634e-05
-2.29971e-06
9.34265e-05
-6.54916e-06
0.000134261
-1.02297e-05
0.000172098
-1.3435e-05
0.000207735
-1.62996e-05
0.000241769
-1.8938e-05
0.00027464
-2.1449e-05
0.000306667
-2.39175e-05
0.000338079
-2.64116e-05
0.000369025
-2.89783e-05
0.000399546
-3.16457e-05
0.000429506
-3.44414e-05
0.000458711
-3.73929e-05
0.000486775
-4.05412e-05
0.000513213
-4.39384e-05
0.000537764
-4.75649e-05
0.000560319
-5.13093e-05
0.000580895
-5.50081e-05
0.000599447
-5.84861e-05
0.000614143
-6.17357e-05
0.000622468
-6.47363e-05
0.000623387
-6.69423e-05
0.000618277
-6.72112e-05
0.000609296
-6.41921e-05
0.000597465
-5.67254e-05
0.000583099
-4.38714e-05
0.000566633
-2.50009e-05
0.000550834
-4.74957e-07
0.000543038
2.64524e-05
5.83842e-05
4.83528e-05
-3.04272e-06
9.30386e-05
-8.6636e-06
0.000133719
-1.35281e-05
0.000171406
-1.77589e-05
0.000206889
-2.15333e-05
0.000240756
-2.50021e-05
0.000273439
-2.82967e-05
0.000305248
-3.15312e-05
0.00033642
-3.4799e-05
0.000367151
-3.81625e-05
0.000397557
-4.16488e-05
0.000427484
-4.52919e-05
0.000456875
-4.91165e-05
0.00048532
-5.31779e-05
0.000512149
-5.76014e-05
0.000537227
-6.23929e-05
0.000560675
-6.73993e-05
0.000583094
-7.23857e-05
0.000606483
-7.69857e-05
0.000628496
-8.13715e-05
0.000644698
-8.60915e-05
0.000653042
-9.08014e-05
0.000657338
-9.39887e-05
0.000663608
-9.38062e-05
0.000675124
-8.90845e-05
0.000693886
-7.91176e-05
0.000719905
-6.3332e-05
0.000755051
-4.15837e-05
0.00080148
-1.59008e-05
2.25607e-05
4.811e-05
-3.76472e-06
9.25875e-05
-1.0717e-05
0.000133084
-1.67277e-05
0.000170593
-2.19465e-05
0.000205894
-2.65913e-05
0.000239565
-3.08476e-05
0.000272024
-3.48784e-05
0.000303567
-3.8828e-05
0.000334424
-4.28186e-05
0.000364856
-4.69315e-05
0.000395145
-5.11769e-05
0.000424978
-5.56011e-05
0.000454667
-6.02019e-05
0.000483772
-6.50233e-05
0.000511091
-7.03522e-05
0.000536698
-7.6257e-05
0.00056078
-8.25343e-05
0.000583804
-8.89384e-05
0.000609934
-9.52532e-05
0.000638708
-0.000101878
0.000665113
-0.000109279
0.000684686
-0.00011688
0.000700544
-0.000123299
0.000720526
-0.000127424
0.000754557
-0.000128427
0.000807394
-0.000125721
0.000874756
-0.000119777
0.000957318
-0.000111102
0.00105155
-0.00010055
-5.50484e-05
4.78521e-05
-4.46524e-06
9.21003e-05
-1.27083e-05
0.000132388
-1.98272e-05
0.000169694
-2.59966e-05
0.000204787
-3.14721e-05
0.000238239
-3.64722e-05
0.000270451
-4.11892e-05
0.000301685
-4.57984e-05
0.000332134
-5.04583e-05
0.000362118
-5.52836e-05
0.000392345
-6.02264e-05
0.000421847
-6.53834e-05
0.000451938
-7.06736e-05
0.000482206
-7.6026e-05
0.000510046
-8.2076e-05
0.000536178
-8.90132e-05
0.000560719
-9.65417e-05
0.000583263
-0.0001046
0.000606766
-0.000113519
0.000636214
-0.000123545
0.000671392
-0.000134033
0.000707453
-0.000143995
0.000741426
-0.000153173
0.000774914
-0.000162133
0.000822985
-0.00017085
0.000899566
-0.000179223
0.000996339
-0.000189052
0.00110439
-0.000203299
0.0012117
-0.000223916
-0.000240708
4.75823e-05
-5.14833e-06
9.15766e-05
-1.46496e-05
0.000131622
-2.28469e-05
0.000168687
-2.99377e-05
0.000203536
-3.62126e-05
0.000236732
-4.19201e-05
0.00026866
-4.72796e-05
0.000299534
-5.24955e-05
0.000329431
-5.77723e-05
0.000358602
-6.33106e-05
0.000389036
-6.88824e-05
0.000419225
-7.43087e-05
0.000449772
-7.98039e-05
0.000480495
-8.57355e-05
0.000508535
-9.26694e-05
0.000535162
-0.000100571
0.000560424
-0.000109201
0.000583777
-0.00011873
0.00060556
-0.000129588
0.000633499
-0.00014175
0.000672508
-0.000154372
0.000720709
-0.00016688
0.000771954
-0.000179796
0.000822005
-0.000194108
0.000874487
-0.000210694
0.000949491
-0.000230588
0.00104593
-0.000255565
0.00113865
-0.000288506
0.00120352
-0.000330256
-0.000439021
4.7285e-05
-5.81631e-06
9.09864e-05
-1.65478e-05
0.00013074
-2.57984e-05
0.00016751
-3.3786e-05
0.000202057
-4.08336e-05
0.000234939
-4.72169e-05
0.000266532
-5.31774e-05
0.000297001
-5.89417e-05
0.000326192
-6.47574e-05
0.000355048
-7.06993e-05
0.000386425
-7.64146e-05
0.000418879
-8.17348e-05
0.000449364
-8.7424e-05
0.000478108
-9.43071e-05
0.000505725
-0.000102258
0.000532604
-0.000110917
0.000558683
-0.00012036
0.000584003
-0.000130825
0.000608912
-0.000142556
0.000638903
-0.000155588
0.000678467
-0.000169713
0.000727582
-0.000184969
0.000782635
-0.000201929
0.00084156
-0.000221384
0.000894796
-0.000244315
0.000947667
-0.000271989
0.00100831
-0.000304638
0.00105207
-0.000339782
0.00104607
-0.000371212
-0.000373401
4.69432e-05
-6.46643e-06
9.03031e-05
-1.83948e-05
0.00012971
-2.86689e-05
0.000166122
-3.75244e-05
0.000200302
-4.53136e-05
0.000232805
-5.23369e-05
0.000264017
-5.88517e-05
0.000294122
-6.50825e-05
0.000322966
-7.12384e-05
0.000353083
-7.7162e-05
0.000385012
-8.28395e-05
0.000417708
-8.86416e-05
0.000447459
-9.50342e-05
0.000473808
-0.000102552
0.000500623
-0.000110996
0.000527219
-0.000120074
0.000553502
-0.000129991
0.000579846
-0.000140959
0.000607343
-0.000153184
0.000638759
-0.000166818
0.000676106
-0.000181996
0.000719104
-0.00019906
0.000765966
-0.000218676
0.000815746
-0.000241667
0.000860356
-0.000268737
0.000888036
-0.00030046
0.000905441
-0.000335333
0.000903974
-0.000367168
0.000858568
-0.000385525
-0.000340786
4.6551e-05
-7.09491e-06
8.95219e-05
-2.01798e-05
0.000128531
-3.1441e-05
0.000164529
-4.11299e-05
0.000198283
-4.96239e-05
0.000230357
-5.72401e-05
0.00026116
-6.42453e-05
0.000290971
-7.08608e-05
0.000320015
-7.72502e-05
0.000350924
-8.33563e-05
0.00038111
-8.94898e-05
0.000411578
-9.5927e-05
0.000441133
-0.000102646
0.000466816
-0.000110198
0.000492654
-0.000118711
0.000518302
-0.000127925
0.000543746
-0.00013796
0.000569362
-0.000148991
0.000596045
-0.00016121
0.000624948
-0.000174844
0.000656526
-0.000190174
0.000689897
-0.000207636
0.000722934
-0.000227883
0.000752782
-0.000251675
0.000774614
-0.000279701
0.000777617
-0.000312247
0.000765199
-0.000348233
0.000738997
-0.000384257
0.00069153
-0.000413318
-0.000428954
4.61063e-05
-7.69985e-06
8.86443e-05
-2.18975e-05
0.000127211
-3.41069e-05
0.000162746
-4.45879e-05
0.000196038
-5.37358e-05
0.000227657
-6.18854e-05
0.000258006
-6.9321e-05
0.000287441
-7.62809e-05
0.000316387
-8.29474e-05
0.000345862
-8.94791e-05
0.000374124
-9.60011e-05
0.000403777
-0.000102405
0.000432762
-0.000109066
0.000457645
-0.000116723
0.000482137
-0.000125234
0.000506212
-0.000134316
0.00052982
-0.000144108
0.000553129
-0.000154744
0.000576566
-0.000166382
0.000600223
-0.000179243
0.000623566
-0.000193582
0.000644926
-0.000209742
0.0006614
-0.000228174
0.000669245
-0.00024934
0.000663417
-0.000273669
0.000638544
-0.000301458
0.000596378
-0.000332992
0.000542695
-0.000368493
0.000482862
-0.000405167
-0.000510678
4.56059e-05
-8.27885e-06
8.76724e-05
-2.35408e-05
0.000125767
-3.66507e-05
0.000160809
-4.78696e-05
0.000193621
-5.76163e-05
0.000224739
-6.62572e-05
0.00025452
-7.4094e-05
0.000283394
-8.13676e-05
0.000311776
-8.82621e-05
0.000339692
-9.49715e-05
0.000368565
-0.000101419
0.000397993
-0.000107672
0.000423883
-0.000114516
0.00044694
-0.000122273
0.000469687
-0.000130546
0.000491706
-0.000139224
0.000512749
-0.000148434
0.000532645
-0.000158255
0.000551165
-0.000168778
0.000567809
-0.000180095
0.000581534
-0.000192297
0.000589932
-0.000205506
0.000589544
-0.000219764
0.000576268
-0.000234914
0.000545117
-0.000250607
0.000491582
-0.000266266
0.000414329
-0.000281233
0.000321308
-0.00029468
0.000227835
-0.000304167
-0.000317438
4.50522e-05
-8.82786e-06
8.66191e-05
-2.50965e-05
0.000124235
-3.90493e-05
0.000158757
-5.09542e-05
0.00019104
-6.1264e-05
0.000221564
-7.03674e-05
0.000250641
-7.8568e-05
0.000278838
-8.61003e-05
0.000306598
-9.3149e-05
0.000334033
-9.98734e-05
0.000363487
-0.000106265
0.000390941
-0.000112617
0.000413336
-0.000119537
0.000434715
-0.000127009
0.000455503
-0.000134758
0.000475118
-0.000142783
0.000493115
-0.000151118
0.000508988
-0.000159768
0.000521928
-0.000168714
0.00053106
-0.000177871
0.000534868
-0.000187096
0.000530704
-0.000196161
0.00051537
-0.000204599
0.000484931
-0.000211498
0.000434954
-0.000215425
0.000361703
-0.000214286
0.000263616
-0.000205068
0.00015002
-0.000183889
4.75181e-05
-0.000149089
-7.09606e-05
4.44556e-05
-9.343e-06
8.54941e-05
-2.6553e-05
0.000122607
-4.12915e-05
0.000156568
-5.3841e-05
0.000188262
-6.46797e-05
0.00021812
-7.42022e-05
0.000246423
-8.27141e-05
0.000273866
-9.04589e-05
0.000300875
-9.76306e-05
0.00032763
-0.000104395
0.000355223
-0.000110862
0.000380165
-0.000117269
0.000401095
-0.000123935
0.000421026
-0.000130881
0.000439728
-0.000137974
0.000456717
-0.000145161
0.000471432
-0.0001524
0.000483152
-0.00015961
0.000490826
-0.000166653
0.000493235
-0.000173295
0.000488453
-0.000179165
0.000474127
-0.000183677
0.000448124
-0.000185901
0.000407665
-0.000184379
0.000350135
-0.000177003
0.000274949
-0.000160822
0.000185186
-0.00013191
9.51048e-05
-8.59816e-05
3.91161e-05
-2.4393e-05
7.93864e-05
4.38275e-05
-9.82563e-06
8.42789e-05
-2.79165e-05
0.000120825
-4.33911e-05
0.000154206
-5.65459e-05
0.000185298
-6.78732e-05
0.000214457
-7.77724e-05
0.000241961
-8.6559e-05
0.000268568
-9.44869e-05
0.000294623
-0.000101754
0.00032012
-0.000108534
0.000345152
-0.000114976
0.000368053
-0.000121267
0.00038813
-0.000127589
0.000406486
-0.000133962
0.00042306
-0.000140302
0.000437417
-0.000146524
0.000448946
-0.000152526
0.000456844
-0.000158151
0.00046005
-0.000163164
0.000457237
-0.000167211
0.000446583
-0.000169774
0.0004264
-0.000170082
0.000395761
-0.000166972
0.00035365
-0.000158885
0.000300264
-0.000143902
0.000239316
-0.000119764
0.000179553
-8.44744e-05
0.000140193
-3.82176e-05
0.000151968
1.1242e-05
0.000118092
0.000277363
-0.00010205
0.000378549
-0.000108002
0.000484901
-9.81883e-05
0.000568711
-8.3503e-05
0.000621663
-6.88409e-05
0.000646657
-5.66524e-05
0.000650343
-4.75817e-05
0.000638269
-4.12559e-05
0.000614749
-3.68062e-05
0.000584033
-3.34011e-05
0.000549888
-3.04789e-05
0.000515728
-2.77931e-05
0.000483539
-2.53807e-05
0.000453415
-2.32689e-05
0.000424962
-2.13605e-05
0.00039819
-1.961e-05
0.00037313
-1.80927e-05
0.000349049
-1.68339e-05
0.000324774
-1.56934e-05
0.000299802
-1.45734e-05
0.000274625
-1.35716e-05
0.000249306
-1.27032e-05
0.000222231
-1.17285e-05
0.000193295
-1.05949e-05
0.000165044
-9.47416e-06
0.000138181
-8.28861e-06
0.000111025
-6.88962e-06
7.73147e-05
-5.19239e-06
3.66493e-05
-3.20265e-06
-1.08417e-06
0.000399085
-0.000239013
0.000481308
-0.000209134
0.000561562
-0.000183839
0.00061976
-0.000154262
0.000652016
-0.00012724
0.000662671
-0.000105599
0.000657924
-8.98445e-05
0.00064091
-7.90537e-05
0.000613973
-7.14082e-05
0.000581036
-6.53419e-05
0.000545441
-5.98862e-05
0.000510887
-5.46736e-05
0.000479315
-4.99797e-05
0.000449947
-4.59202e-05
0.000421965
-4.22165e-05
0.000395596
-3.87582e-05
0.000371197
-3.578e-05
0.000347843
-3.33766e-05
0.000323919
-3.11746e-05
0.00029887
-2.8926e-05
0.000273781
-2.69425e-05
0.000249098
-2.53105e-05
0.000222058
-2.33884e-05
0.000192284
-2.10684e-05
0.000163888
-1.88609e-05
0.000137616
-1.65423e-05
0.000112231
-1.37676e-05
7.84522e-05
-1.04644e-05
3.47863e-05
-6.54358e-06
-2.23136e-06
0.000619671
-0.000352484
0.000663592
-0.000270868
0.000693572
-0.000236307
0.000704746
-0.000198977
0.000700344
-0.00016645
0.000686492
-0.000140989
0.000668647
-0.000122943
0.000644038
-0.000111059
0.000610969
-0.000102382
0.000574129
-9.48667e-05
0.000535692
-8.74759e-05
0.000500547
-7.98898e-05
0.000470757
-7.31158e-05
0.000443137
-6.74589e-05
0.000416027
-6.21751e-05
0.000390355
-5.70425e-05
0.000367404
-5.26881e-05
0.00034571
-4.93983e-05
0.000322509
-4.63047e-05
0.000297089
-4.28575e-05
0.000272068
-3.99086e-05
0.000249073
-3.77779e-05
0.000222478
-3.52971e-05
0.000190531
-3.20164e-05
0.000161555
-2.85286e-05
0.000136323
-2.48212e-05
0.000112383
-2.05784e-05
7.87599e-05
-1.57071e-05
3.30596e-05
-9.98804e-06
-3.46023e-06
0.000879212
-0.000296113
0.000870972
-0.000269715
0.00083602
-0.000241369
0.000790096
-0.000209885
0.000743325
-0.0001822
0.000702696
-0.00016005
0.000669549
-0.00014371
0.000634039
-0.000132494
0.000593581
-0.000124125
0.000553663
-0.000116751
0.000515085
-0.000109391
0.000483122
-0.000101523
0.000457717
-9.39851e-05
0.000433265
-8.74113e-05
0.000407113
-8.08778e-05
0.000382062
-7.39928e-05
0.000361628
-6.8335e-05
0.00034299
-6.46754e-05
0.000321856
-6.15536e-05
0.000296149
-5.78232e-05
0.000270013
-5.40423e-05
0.00024819
-5.08022e-05
0.000222774
-4.75391e-05
0.000189452
-4.34726e-05
0.000159728
-3.85022e-05
0.000134764
-3.30557e-05
0.000109436
-2.71824e-05
7.62769e-05
-2.06289e-05
3.38935e-05
-1.31339e-05
-4.57881e-06
0.00109104
-0.000250926
0.00102502
-0.000221668
0.000929429
-0.000207915
0.000834491
-0.000192796
0.000753826
-0.000178362
0.000692708
-0.000165436
0.000642788
-0.000153973
0.000594179
-0.000144154
0.000550056
-0.00013642
0.000512285
-0.000130087
0.000481874
-0.000124384
0.000459659
-0.000118532
0.000440742
-0.000111973
0.000421192
-0.000105529
0.000397332
-9.88651e-05
0.000374363
-9.13589e-05
0.000356784
-8.48283e-05
0.000340396
-8.03941e-05
0.000322288
-7.71956e-05
0.000298052
-7.39636e-05
0.000270301
-6.96456e-05
0.000246678
-6.45025e-05
0.000221563
-5.93935e-05
0.000189917
-5.39955e-05
0.000160341
-4.7692e-05
0.000134147
-4.07598e-05
0.000106488
-3.33383e-05
7.36953e-05
-2.51492e-05
3.55415e-05
-1.59234e-05
-5.54057e-06
0.00117905
-0.000150389
0.0010614
-0.000155157
0.000930205
-0.000161575
0.000811989
-0.0001661
0.00071866
-0.000167064
0.000650614
-0.000165234
0.000592685
-0.000161062
0.000540588
-0.000155302
0.000500423
-0.00014958
0.000469112
-0.000144273
0.000449196
-0.000139268
0.000435168
-0.00013403
0.000421641
-0.000127835
0.000409007
-0.000121902
0.000392047
-0.000116434
0.00037471
-0.000110157
0.000357408
-0.000103326
0.000338773
-9.70856e-05
0.000321249
-9.22739e-05
0.000299836
-8.82834e-05
0.000273063
-8.32935e-05
0.00024682
-7.6858e-05
0.000219934
-6.99933e-05
0.000190357
-6.30418e-05
0.000161913
-5.56333e-05
0.000134578
-4.7604e-05
0.000105565
-3.88758e-05
7.28822e-05
-2.92572e-05
3.64639e-05
-1.84844e-05
-6.42636e-06
0.00110276
-3.32838e-05
0.000969413
-0.000112726
0.000840103
-0.000133292
0.000730728
-0.000149868
0.000648997
-0.000161105
0.000589872
-0.000167465
0.00054058
-0.000169601
0.000498828
-0.000168505
0.00046697
-0.000165458
0.000440577
-0.000160995
0.000425759
-0.000155808
0.000416473
-0.000150335
0.000406988
-0.000143916
0.000399746
-0.000137519
0.000391076
-0.000132253
0.000378757
-0.00012665
0.000358383
-0.000119343
0.000335368
-0.000111485
0.000316292
-0.000104964
0.000297443
-9.97428e-05
0.000274101
-9.40865e-05
0.000247338
-8.69778e-05
0.000218103
-7.89481e-05
0.000189443
-7.0817e-05
0.000162747
-6.25521e-05
0.000135328
-5.36115e-05
0.000105531
-4.37749e-05
7.28514e-05
-3.29209e-05
3.71013e-05
-2.07869e-05
-7.22572e-06
0.000907441
-0.000103544
0.000801064
-0.00012029
0.000700477
-0.000134521
0.000620431
-0.00015055
0.000564539
-0.000164824
0.000524032
-0.000174994
0.000491651
-0.000180473
0.000464783
-0.000181982
0.000442769
-0.000180713
0.000422218
-0.000177145
0.000411449
-0.000171841
0.000408895
-0.00016627
0.000402837
-0.000160174
0.000394311
-0.000153064
0.000387095
-0.000146283
0.000374593
-0.000139525
0.000351944
-0.000131451
0.000326376
-0.000122674
0.000305074
-0.000114693
0.000288355
-0.000108143
0.000270157
-0.000101971
0.000245283
-9.46122e-05
0.000214167
-8.59609e-05
0.000186451
-7.71792e-05
0.00016274
-6.84353e-05
0.00013592
-5.8805e-05
0.000105499
-4.80207e-05
7.28196e-05
-3.61141e-05
3.74091e-05
-2.28074e-05
-7.92976e-06
0.000699746
-0.000191258
0.000620468
-0.000134936
0.000552507
-0.000143425
0.000506194
-0.00015939
0.000478393
-0.000175184
0.00045897
-0.000186813
0.000443714
-0.000193429
0.000430957
-0.000195777
0.000420265
-0.000195094
0.000412032
-0.000192162
0.000406994
-0.000187084
0.000406195
-0.000180856
0.000401199
-0.000174306
0.000389388
-0.0001669
0.000378841
-0.000159052
0.00036431
-0.000151113
0.000342595
-0.000142538
0.000316667
-0.000133363
0.000291741
-0.000124062
0.000274331
-0.000115559
0.000261133
-0.000108233
0.000239711
-0.000100794
0.000206946
-9.21e-05
0.000180552
-8.28615e-05
0.000162329
-7.36998e-05
0.000136748
-6.36499e-05
0.000105167
-5.20758e-05
7.24641e-05
-3.91639e-05
3.73401e-05
-2.47428e-05
-8.6045e-06
0.000507276
-0.00011387
0.00044384
-0.000118123
0.000412194
-0.000145301
0.000401537
-0.000171118
0.000400286
-0.000190117
0.000400793
-0.000201956
0.000400855
-0.00020794
0.000400409
-0.000209602
0.000400252
-0.000208283
0.000403697
-0.000204969
0.000403041
-0.000199911
0.000398731
-0.00019336
0.000393248
-0.000186112
0.000382397
-0.000178399
0.000370716
-0.000170293
0.000355997
-0.000161918
0.000336482
-0.000153112
0.000312457
-0.000143864
0.000286107
-0.00013424
0.000265844
-0.000124805
0.000252987
-0.000116331
0.000233877
-0.000108329
0.000201496
-9.94482e-05
0.000175876
-8.94975e-05
0.000161481
-7.93693e-05
0.000137329
-6.86779e-05
0.000105019
-5.64e-05
7.22644e-05
-4.24822e-05
3.72338e-05
-2.68551e-05
-9.34032e-06
0.000281838
-1.00104e-06
0.000267599
-0.000115912
0.00028853
-0.000162067
0.000316084
-0.000193303
0.00033863
-0.000211147
0.000355225
-0.000220039
0.000366834
-0.000223276
0.000375319
-0.000222892
0.000382219
-0.000220181
0.000389533
-0.000215888
0.000391376
-0.000210283
0.000387651
-0.000203582
0.000382703
-0.000196187
0.000374401
-0.000188307
0.000363736
-0.000180044
0.00035002
-0.00017147
0.000332487
-0.000162548
0.000311306
-0.000153284
0.000287479
-0.000143768
0.000266486
-0.000134319
0.00025048
-0.000125292
0.000231359
-0.00011649
0.000202654
-0.000107086
0.000177113
-9.65964e-05
0.000160127
-8.55166e-05
0.000136385
-7.38301e-05
0.000105259
-6.07267e-05
7.26077e-05
-4.58491e-05
3.73925e-05
-2.90102e-05
-1.00922e-05
6.13131e-05
-0.000111129
0.00012864
-0.000183127
0.000202156
-0.000213748
0.000258613
-0.000230486
0.000297097
-0.00023766
0.000323531
-0.000239348
0.000341887
-0.000237953
0.000355253
-0.000234689
0.000365549
-0.000230263
0.000373363
-0.000224977
0.00037694
-0.000218849
0.000376292
-0.000211958
0.000372857
-0.00020449
0.00036632
-0.000196572
0.000356934
-0.000188284
0.000344482
-0.000179676
0.000328708
-0.000170752
0.000309873
-0.000161532
0.000289032
-0.000152086
0.000268962
-0.000142588
0.000250624
-0.000133189
0.000230594
-0.00012374
0.0002055
-0.000113762
0.000180677
-0.000102925
0.000159562
-9.13054e-05
0.000135099
-7.87521e-05
0.000105535
-6.47603e-05
7.31398e-05
-4.89539e-05
3.76437e-05
-3.10013e-05
-1.07883e-05
-2.87628e-05
-0.000303678
8.14838e-05
-0.00028646
0.000170153
-0.00027886
0.000232002
-0.00027018
0.000273778
-0.000262573
0.00030288
-0.000255896
0.000323597
-0.000249799
0.000338643
-0.000243905
0.000350122
-0.000238015
0.000358734
-0.000231938
0.000363711
-0.000225449
0.000365019
-0.00021848
0.000363134
-0.000211063
0.000358109
-0.000203243
0.000350058
-0.000195063
0.000338948
-0.000186556
0.000324769
-0.000177737
0.000307834
-0.000168624
0.000288989
-0.000159265
0.000269738
-0.000149746
0.000250596
-0.000140115
0.000230009
-0.000130246
0.000206597
-0.00011983
0.000182715
-0.000108606
0.000159755
-9.6473e-05
0.000134496
-8.32173e-05
0.000105636
-6.84438e-05
7.35058e-05
-5.17719e-05
3.78272e-05
-3.28047e-05
-1.14193e-05
5.39958e-05
-0.000406086
0.000130455
-0.000349976
0.000187146
-0.000316517
0.000231023
-0.000292578
0.000264543
-0.000276568
0.000290414
-0.000265313
0.000310306
-0.000256742
0.000325358
-0.000249548
0.00033706
-0.000242988
0.000346136
-0.000236599
0.000352054
-0.000230067
0.00035465
-0.000223235
0.000354025
-0.000216037
0.000350252
-0.000208459
0.000343413
-0.000200517
0.00033355
-0.000192228
0.00032076
-0.000183608
0.000305355
-0.000174669
0.000287972
-0.000165437
0.000269499
-0.000155944
0.000250283
-0.000146186
0.000229672
-0.000136045
0.000207118
-0.000125297
0.000183652
-0.000113709
0.000159819
-0.000101104
0.000134081
-8.72421e-05
0.000105481
-7.17693e-05
7.35634e-05
-5.43015e-05
3.79227e-05
-3.44142e-05
-1.19813e-05
0.000202669
-0.000358195
0.000216083
-0.0003202
0.000228661
-0.000303175
0.000246925
-0.000287685
0.000266849
-0.000275379
0.000285957
-0.000265734
0.000302708
-0.000257925
0.000316553
-0.000251198
0.000327776
-0.000245001
0.000336636
-0.00023895
0.000342814
-0.000232786
0.000346051
-0.000226353
0.000346227
-0.000219561
0.00034334
-0.000212374
0.000337442
-0.000204794
0.000328597
-0.000196832
0.000316933
-0.000188499
0.000302732
-0.000179801
0.000286466
-0.000170746
0.00026871
-0.000161334
0.000249736
-0.000151529
0.000229322
-0.00014122
0.00020727
-0.00013022
0.000184023
-0.000118315
0.000159765
-0.000105294
0.000133697
-9.08967e-05
0.00010509
-7.47902e-05
7.3309e-05
-5.65915e-05
3.78956e-05
-3.58666e-05
-1.24879e-05
4.48217e-05
-1.02803e-05
8.61381e-05
-2.92009e-05
0.000123426
-4.5369e-05
0.000157479
-5.9092e-05
0.000189107
-7.08722e-05
0.000218614
-8.11162e-05
0.000246357
-9.01477e-05
0.000273083
-9.8223e-05
0.000299028
-0.000105547
0.000324061
-0.000112299
0.000347996
-0.000118634
0.000369931
-0.000124697
0.00038942
-0.000130598
0.000406787
-0.000136344
0.000421897
-0.000141863
0.000434312
-0.000147048
0.000443405
-0.000151753
0.000448374
-0.000155768
0.000448236
-0.000158799
0.00044184
-0.000160433
0.000427873
-0.000160111
0.000405594
-0.000157072
0.000374873
-0.000150267
0.000336182
-0.000138473
0.000292584
-0.000120575
0.000250816
-9.59511e-05
0.000221893
-6.53975e-05
0.000223107
-3.32611e-05
0.000271803
-1.00505e-05
-9.3978e-06
0.000441511
4.51694e-05
-1.07045e-05
8.67501e-05
-3.03993e-05
0.00012424
-4.72135e-05
0.000158462
-6.1462e-05
0.000190117
-7.36568e-05
0.000219545
-8.42106e-05
0.000247204
-9.34501e-05
0.000273687
-0.000101635
0.00029911
-0.000108977
0.00032333
-0.000115657
0.000346116
-0.000121819
0.000366932
-0.000127578
0.00038544
-0.000133004
0.000401615
-0.000138091
0.000415237
-0.000142764
0.000425877
-0.000146905
0.000432956
-0.000150344
0.000435784
-0.00015285
0.000433594
-0.000154115
0.000425622
-0.000153738
0.000411234
-0.000151222
0.000390477
-0.000145965
0.000363582
-0.000137266
0.000331949
-0.000124377
0.000300544
-0.000106984
0.000276492
-8.58444e-05
0.000268292
-6.31632e-05
0.000286121
-4.34188e-05
0.00033433
-3.33878e-05
-3.8943e-05
0.00039467
4.54737e-05
-1.10938e-05
8.72953e-05
-3.14993e-05
0.000124964
-4.89051e-05
0.000159298
-6.3631e-05
0.000190939
-7.61973e-05
0.000220314
-8.70205e-05
0.000247897
-9.64306e-05
0.000274099
-0.000104692
0.000298985
-0.000112019
0.000322446
-0.000118587
0.000344275
-0.000124529
0.000364111
-0.000129939
0.000381671
-0.000134865
0.000396785
-0.000139289
0.000409187
-0.000143137
0.000418485
-0.000146289
0.000424197
-0.000148571
0.000425803
-0.000149761
0.000422822
-0.000149577
0.000414922
-0.000147686
0.000402073
-0.000143722
0.000384705
-0.000137332
0.00036293
-0.00012829
0.000337678
-0.000116094
0.000315616
-0.000100762
0.000303482
-8.40278e-05
0.000304944
-6.84588e-05
0.000323777
-5.73156e-05
0.000357222
-5.44838e-05
-6.26136e-05
0.00038895
4.57359e-05
-1.14454e-05
8.77696e-05
-3.24926e-05
0.000125589
-5.04317e-05
0.000160001
-6.55847e-05
0.000191634
-7.84782e-05
0.000220959
-8.95323e-05
0.000248406
-9.90803e-05
0.000274278
-0.000107389
0.000298635
-0.000114671
0.000321401
-0.000121097
0.0003424
-0.00012679
0.00036137
-0.000131832
0.000378063
-0.000136257
0.000392264
-0.000140044
0.000403706
-0.000143125
0.000412058
-0.000145385
0.000416954
-0.000146668
0.000418066
-0.00014678
0.000415189
-0.000145495
0.000408386
-0.000142569
0.000398166
-0.000137776
0.000385741
-0.00013097
0.00036846
-0.000122183
0.000345978
-0.000111309
0.000330342
-9.88718e-05
0.000326609
-8.66542e-05
0.000332057
-7.65995e-05
0.000347411
-7.07557e-05
0.000369033
-7.13516e-05
-7.93882e-05
0.000386744
4.59553e-05
-1.17563e-05
8.81686e-05
-3.33714e-05
0.000126112
-5.17821e-05
0.00016058
-6.73104e-05
0.000192198
-8.04874e-05
0.000221442
-9.1736e-05
0.000248702
-0.000101392
0.000274224
-0.000109721
0.000298076
-0.000116937
0.000320205
-0.000123202
0.000340474
-0.000128635
0.000358681
-0.000133311
0.000374615
-0.000137257
0.000388063
-0.000140459
0.000398789
-0.000142855
0.000406534
-0.000144351
0.000411049
-0.00014482
0.000412168
-0.000144111
0.000409901
-0.000142063
0.000404557
-0.000138523
0.000396947
-0.000133375
0.000388853
-0.000126584
0.00037441
-0.00011814
0.000354314
-0.000108698
0.000344626
-9.94915e-05
0.000346224
-9.13011e-05
0.000352579
-8.50568e-05
0.00036399
-8.22354e-05
0.000377961
-8.40912e-05
-9.06267e-05
0.000388802
4.61308e-05
-1.2024e-05
8.84893e-05
-3.41285e-05
0.000126529
-5.2946e-05
0.000161033
-6.87965e-05
0.000192619
-8.22136e-05
0.000221756
-9.36218e-05
0.000248802
-0.000103357
0.000273977
-0.000111687
0.000297356
-0.00011882
0.000318912
-0.000124918
0.000338542
-0.000130095
0.000356094
-0.000134424
0.000371396
-0.000137934
0.00038426
-0.000140619
0.000394499
-0.000142435
0.000401929
-0.000143312
0.000406395
-0.000143159
0.000407848
-0.000141877
0.000406413
-0.000139373
0.000402487
-0.000135585
0.00039676
-0.000130499
0.000390234
-0.000124181
0.000378851
-0.000116764
0.000365522
-0.000109097
0.000360852
-0.000102307
0.000363412
-9.67156e-05
0.000368958
-9.28416e-05
0.000377206
-9.16578e-05
0.00038645
-9.3779e-05
-9.88545e-05
0.000393435
4.62611e-05
-1.22459e-05
8.87291e-05
-3.47572e-05
0.000126839
-5.39138e-05
0.000161359
-7.00321e-05
0.000192895
-8.36463e-05
0.000221908
-9.51808e-05
0.000248731
-0.000104972
0.000273572
-0.000113285
0.000296519
-0.000120329
0.000317566
-0.000126262
0.000336645
-0.000131199
0.000353649
-0.000135215
0.00036845
-0.000138346
0.000380892
-0.000140597
0.000390841
-0.000141945
0.000398199
-0.00014235
0.00040286
-0.000141762
0.000404874
-0.000140137
0.000404471
-0.000137445
0.000402024
-0.000133703
0.000398011
-0.000128984
0.000392698
-0.000123452
0.000385383
-0.000117414
0.000378812
-0.00011145
0.00037679
-0.000106218
0.000378626
-0.000102154
0.000382948
-9.96901e-05
0.000388884
-9.93032e-05
0.00039518
-0.000101237
-0.000105053
0.000399852
4.63451e-05
-1.24198e-05
8.88861e-05
-3.52513e-05
0.00012704
-5.46766e-05
0.000161556
-7.10072e-05
0.00019303
-8.47754e-05
0.000221907
-9.64045e-05
0.00024851
-0.000106229
0.000273043
-0.000114515
0.000295602
-0.000121468
0.000316206
-0.000127248
0.000334813
-0.000131972
0.00035137
-0.000135718
0.000365801
-0.000138534
0.000377963
-0.00014044
0.000387793
-0.00014144
0.000395308
-0.000141523
0.00040041
-0.000140672
0.000403215
-0.000138895
0.000404052
-0.000136222
0.000403206
-0.00013271
0.000401022
-0.00012849
0.000397822
-0.000123769
0.000393961
-0.000118855
0.000390919
-0.000114173
0.000390259
-0.000110167
0.000391966
-0.000107196
0.00039538
-0.000105559
0.000399775
-0.00010549
0.000404278
-0.000107047
-0.000109808
0.000407628
4.63812e-05
-1.25435e-05
8.89585e-05
-3.56048e-05
0.00012713
-5.52261e-05
0.000161627
-7.17122e-05
0.000193027
-8.55915e-05
0.000221767
-9.72843e-05
0.000248161
-0.000107124
0.000272414
-0.000115374
0.000294636
-0.000122241
0.000314863
-0.000127886
0.000333068
-0.000132429
0.00034927
-0.000135958
0.000363482
-0.000138535
0.000375545
-0.000140191
0.000385447
-0.000140954
0.000393305
-0.000140846
0.000399049
-0.000139878
0.000402804
-0.000138094
0.000404883
-0.000135562
0.000405526
-0.000132377
0.000405037
-0.000128689
0.0004038
-0.000124711
0.00040233
-0.000120713
0.000401458
-0.000117011
0.000401903
-0.000113917
0.000403742
-0.000111687
0.00040664
-0.000110514
0.000410105
-0.000110501
0.000413563
-0.000111624
-0.000113513
0.000416175
4.63677e-05
-1.26154e-05
8.89446e-05
-3.58133e-05
0.000127111
-5.55559e-05
0.000161573
-7.21399e-05
0.000192894
-8.60874e-05
0.000221501
-9.78148e-05
0.000247705
-0.000107652
0.000271715
-0.000115863
0.000293656
-0.000122653
0.000313584
-0.000128186
0.000331491
-0.000132586
0.000347465
-0.000135955
0.00036159
-0.000138363
0.000373728
-0.000139855
0.000383869
-0.000140479
0.000392142
-0.000140282
0.000398557
-0.000139306
0.000403246
-0.000137617
0.00040645
-0.000135305
0.000408414
-0.000132488
0.000409437
-0.000129319