/*--------------------------------*- C++ -*----------------------------------*\
| =========                 |                                                 |
| \\      /  F ield         | OpenFOAM: The Open Source CFD Toolbox           |
|  \\    /   O peration     | Version:  5.x                                   |
|   \\  /    A nd           | Web:      www.OpenFOAM.org                      |
|    \\/     M anipulation  |                                                 |
\*---------------------------------------------------------------------------*/
FoamFile
{
    version     2.0;
    format      ascii;
    class       volVectorField;
    location    "3.3";
    object      Force;
}
// * * * * * * * * * * * * * * * * * * * * * * * * * * * * * * * * * * * * * //

dimensions      [1 1 -2 0 0 0 0];

internalField   uniform (0 0 0);

boundaryField
{
    inlet
    {
        type            calculated;
        value           uniform (0 0 0);
    }
    outlet
    {
        type            calculated;
        value           uniform (0 0 0);
    }
    flap
    {
        type            calculated;
        value           nonuniform List<vector> 
33
(
(3.65685 -0.150803 1.827e-18)
(3.64347 -0.335473 -5.5419e-19)
(3.6312 -0.513275 3.59947e-18)
(3.60926 -0.671426 1.80064e-18)
(3.56111 -0.817317 1.80493e-18)
(3.48626 -0.936024 5.57377e-18)
(3.38946 -1.0365 -7.09511e-18)
(3.27147 -1.10942 -1.82015e-18)
(3.14487 -1.15474 -8.33281e-18)
(2.99999 -1.1841 -1.85395e-18)
(2.82064 -1.19344 -1.12891e-17)
(2.603 -1.16403 -1.56963e-17)
(2.34273 -1.08851 1.78191e-18)
(2.00275 -0.955808 8.46241e-21)
(1.53833 -0.737776 1.53867e-18)
(0.368957 0.756288 -1.17342e-18)
(0.198606 0.411642 9.83904e-19)
(0.067076 0.143722 2.41425e-21)
(0.00258761 -0.000126482 2.82991e-18)
(0.00236243 -0.00024741 1.4955e-23)
(0.0021231 -0.000371837 1.47994e-18)
(0.00244717 -0.000609072 3.38355e-21)
(0.00280228 -0.00087919 3.0634e-18)
(0.00225172 -0.000909957 1.56163e-18)
(0.00165917 -0.000872353 0)
(0.0017285 -0.00100343 1.61624e-18)
(0.00151335 -0.000986808 -1.64632e-18)
(0.000832114 -0.000723121 -2.18557e-22)
(0.000162257 -0.000392442 1.70749e-18)
(7.34324e-05 -0.000262977 1.7533e-18)
(0.000398288 -0.000163019 -1.81665e-18)
(0.00249146 -0.000901946 1.95478e-18)
(0.00878878 -0.00353088 -1.46937e-39)
)
;
    }
    upperWall
    {
        type            calculated;
        value           uniform (0 0 0);
    }
    lowerWall
    {
        type            calculated;
        value           uniform (0 0 0);
    }
    frontAndBack
    {
        type            empty;
    }
}


// ************************************************************************* //
