/*--------------------------------*- C++ -*----------------------------------*\
| =========                 |                                                 |
| \\      /  F ield         | OpenFOAM: The Open Source CFD Toolbox           |
|  \\    /   O peration     | Version:  5.x                                   |
|   \\  /    A nd           | Web:      www.OpenFOAM.org                      |
|    \\/     M anipulation  |                                                 |
\*---------------------------------------------------------------------------*/
FoamFile
{
    version     2.0;
    format      ascii;
    class       pointVectorField;
    location    "3.3";
    object      pointDisplacement;
}
// * * * * * * * * * * * * * * * * * * * * * * * * * * * * * * * * * * * * * //

dimensions      [0 1 0 0 0 0 0];

internalField   nonuniform List<vector> 
5828
(
(0 0 0)
(0.0168257 0 0)
(0.0318209 0 0)
(0.0445601 0 0)
(0.0552383 0 0)
(0.0640468 0 0)
(0.0711584 0 0)
(0.0767285 0 0)
(0.0808968 0 0)
(0.0837874 0 0)
(0.0855102 0 0)
(0.0861628 0 0)
(0.0858331 0 0)
(0.0846013 0 0)
(0.0825397 0 0)
(0.0797148 0 0)
(0.076191 0 0)
(0.0720324 0 0)
(0.0673032 0 0)
(0.0620698 0 0)
(0.0564026 0 0)
(0.0503785 0 0)
(0.044084 0 0)
(0.0376188 0 0)
(0.0311008 0 0)
(0.0246745 0 0)
(0.0185264 0 0)
(0.0129016 0 0)
(0.00813824 0 0)
(0.00481287 0 0)
(-1.39472e-15 0 0)
(0 0 0)
(0.0168384 5.72366e-05 0)
(0.0318471 0.00011037 0)
(0.0445997 0.000159398 0)
(0.0552917 0.000205933 0)
(0.0641149 0.000251266 0)
(0.0712424 0.000296487 0)
(0.0768298 0.000342364 0)
(0.0810172 0.000389557 0)
(0.0839294 0.000438804 0)
(0.0856764 0.00049073 0)
(0.086356 0.000545929 0)
(0.0860567 0.000605031 0)
(0.0848593 0.000668852 0)
(0.0828366 0.000737342 0)
(0.0800549 0.000810489 0)
(0.0765793 0.000889101 0)
(0.0724742 0.00097378 0)
(0.0678048 0.00106501 0)
(0.062638 0.00116314 0)
(0.0570448 0.00126852 0)
(0.0511031 0.00138154 0)
(0.0449002 0.00150271 0)
(0.0385372 0.00163272 0)
(0.0321332 0.00177265 0)
(0.0258334 0.00192457 0)
(0.0198299 0.00209362 0)
(0.0143808 0.00228644 0)
(0.00984371 0.00250801 0)
(0.00680351 0.00274953 0)
(0.00287074 0.00308497 0)
(0 0 0)
(0.0168808 0.000114329 0)
(0.031929 0.000220462 0)
(0.0447206 0.000318389 0)
(0.0554533 0.000411339 0)
(0.0643198 0.000501862 0)
(0.0714944 0.000592197 0)
(0.0771329 0.00068383 0)
(0.0813772 0.00077803 0)
(0.0843536 0.00087633 0)
(0.0861728 0.000979959 0)
(0.0869334 0.00109007 0)
(0.0867244 0.00120785 0)
(0.0856283 0.00133453 0)
(0.0837201 0.0014704 0)
(0.081067 0.00161592 0)
(0.0777343 0.00177236 0)
(0.0737884 0.00194091 0)
(0.0692968 0.00212258 0)
(0.0643279 0.00231799 0)
(0.0589548 0.00252783 0)
(0.0532578 0.00275286 0)
(0.0473278 0.002994 0)
(0.0412705 0.00325247 0)
(0.0352106 0.00352988 0)
(0.0292943 0.00382879 0)
(0.023716 0.00415459 0)
(0.0187568 0.00451445 0)
(0.0148225 0.00491317 0)
(0.0125087 0.00532789 0)
(0.00925894 0.00575808 0)
(0 0 0)
(0.0169512 0.000171109 0)
(0.0320646 0.00032994 0)
(0.0449206 0.000476483 0)
(0.0557204 0.000615578 0)
(0.0646588 0.000750959 0)
(0.071911 0.000885756 0)
(0.0776332 0.00102238 0)
(0.0819713 0.00116297 0)
(0.0850541 0.00130967 0)
(0.0869926 0.00146427 0)
(0.0878871 0.0016284 0)
(0.0878282 0.00180369 0)
(0.0869001 0.00199148 0)
(0.0851806 0.00219284 0)
(0.0827399 0.00240905 0)
(0.0796432 0.00264134 0)
(0.0759598 0.00289161 0)
(0.0717614 0.00316153 0)
(0.0671191 0.00345177 0)
(0.0621087 0.00376329 0)
(0.0568142 0.00409707 0)
(0.0513312 0.00445431 0)
(0.0457735 0.00483665 0)
(0.0402766 0.00524578 0)
(0.0349957 0.00568308 0)
(0.0301203 0.00614852 0)
(0.0259232 0.00664237 0)
(0.0228522 0.00716557 0)
(0.0215216 0.00768434 0)
(0.0190299 0.00810354 0)
(0 0 0)
(0.0170505 0.000227284 0)
(0.0322536 0.000438155 0)
(0.0451985 0.000632699 0)
(0.0560914 0.00081736 0)
(0.0651272 0.000996896 0)
(0.0724846 0.00117504 0)
(0.078324 0.00135547 0)
(0.0827937 0.00154139 0)
(0.0860237 0.00173532 0)
(0.0881272 0.00193951 0)
(0.0892069 0.0021561 0)
(0.0893556 0.00238708 0)
(0.0886599 0.00263411 0)
(0.0872015 0.00289895 0)
(0.0850555 0.00318361 0)
(0.0822895 0.00348978 0)
(0.078973 0.00381961 0)
(0.0751817 0.00417478 0)
(0.0709921 0.00455624 0)
(0.0664839 0.00496514 0)
(0.0617448 0.00540238 0)
(0.056873 0.00586884 0)
(0.0519923 0.00636641 0)
(0.0472538 0.00689636 0)
(0.0428288 0.00745731 0)
(0.0389151 0.00804405 0)
(0.0357562 0.00864857 0)
(0.0337687 0.00926057 0)
(0.0335884 0.00984137 0)
(0.0318645 0.0102745 0)
(0 0 0)
(0.0171707 0.000282383 0)
(0.0324902 0.000544304 0)
(0.0455513 0.000785917 0)
(0.0565619 0.00101497 0)
(0.0657183 0.00123733 0)
(0.073208 0.00145785 0)
(0.079198 0.00168113 0)
(0.0838355 0.00191106 0)
(0.087252 0.00215064 0)
(0.0895642 0.00240263 0)
(0.090878 0.00266962 0)
(0.0912892 0.00295397 0)
(0.0908866 0.00325755 0)
(0.0897572 0.00358302 0)
(0.0879826 0.00393333 0)
(0.0856365 0.00431086 0)
(0.0827888 0.00471721 0)
(0.0795153 0.0051535 0)
(0.075901 0.00562154 0)
(0.0720324 0.00612267 0)
(0.0680026 0.00665744 0)
(0.0639117 0.00722615 0)
(0.0598815 0.00782926 0)
(0.056079 0.00846652 0)
(0.052699 0.00913416 0)
(0.0499529 0.00982311 0)
(0.0480751 0.0105193 0)
(0.0473859 0.0111988 0)
(0.048497 0.0118231 0)
(0.0476657 0.0122674 0)
(0 0 0)
(0.0173106 0.000336083 0)
(0.0327718 0.000647857 0)
(0.0459726 0.000935326 0)
(0.0571223 0.00120729 0)
(0.0664256 0.00147098 0)
(0.0740775 0.0017327 0)
(0.0802481 0.00199752 0)
(0.085086 0.00226975 0)
(0.0887257 0.00255303 0)
(0.0912877 0.00285061 0)
(0.0928814 0.00316549 0)
(0.0936072 0.00350045 0)
(0.0935576 0.00385784 0)
(0.0928236 0.0042409 0)
(0.0914917 0.00465301 0)
(0.0896422 0.00509678 0)
(0.0873513 0.00557381 0)
(0.0846964 0.0060853 0)
(0.0817699 0.00663381 0)
(0.0786688 0.00722095 0)
(0.0754937 0.00784686 0)
(0.0723549 0.00851128 0)
(0.0693638 0.00921172 0)
(0.0666749 0.00994434 0)
(0.0645078 0.0107033 0)
(0.0630958 0.0114761 0)
(0.0626667 0.0122429 0)
(0.0634641 0.0129754 0)
(0.0660343 0.0136389 0)
(0.0661138 0.0140957 0)
(0 0 0)
(0.0174757 0.000388234 0)
(0.0330997 0.000748362 0)
(0.0464587 0.00108005 0)
(0.0577671 0.00139343 0)
(0.0672426 0.00169714 0)
(0.0750843 0.00199843 0)
(0.0814632 0.00230291 0)
(0.0865321 0.0026154 0)
(0.0904288 0.00294007 0)
(0.0932782 0.00328061 0)
(0.0951942 0.00364047 0)
(0.0962818 0.00402282 0)
(0.0966395 0.00443072 0)
(0.0963617 0.00486749 0)
(0.0955393 0.00533644 0)
(0.0942587 0.00584036 0)
(0.0926065 0.00638154 0)
(0.0906681 0.00696205 0)
(0.0885381 0.00758442 0)
(0.0863176 0.00824964 0)
(0.0841214 0.00895813 0)
(0.082075 0.00970904 0)
(0.080298 0.0104978 0)
(0.0789205 0.0113167 0)
(0.078137 0.0121554 0)
(0.0782082 0.0129983 0)
(0.0793726 0.0138214 0)
(0.0818229 0.0145963 0)
(0.0860017 0.0152888 0)
(0.0870857 0.0157671 0)
(0 0 0)
(0.0176637 0.000438615 0)
(0.0334673 0.000845278 0)
(0.0470018 0.00121933 0)
(0.0584921 0.0015725 0)
(0.0681635 0.00191465 0)
(0.0762181 0.00225361 0)
(0.0828305 0.00259562 0)
(0.088158 0.00294602 0)
(0.0923424 0.00330941 0)
(0.0955131 0.00368992 0)
(0.0977888 0.00409134 0)
(0.0992799 0.00451722 0)
(0.10009 0.00497102 0)
(0.10032 0.00545623 0)
(0.100065 0.00597626 0)
(0.0994183 0.00653411 0)
(0.0984788 0.00713293 0)
(0.0973464 0.00777578 0)
(0.0961158 0.00846414 0)
(0.0948896 0.00919858 0)
(0.0937906 0.00997992 0)
(0.0929505 0.0108061 0)
(0.0925143 0.0116723 0)
(0.0926255 0.0125692 0)
(0.0934244 0.0134812 0)
(0.0951428 0.0143886 0)
(0.0980521 0.0152643 0)
(0.10232 0.0160766 0)
(0.108197 0.01678 0)
(0.110268 0.0171897 0)
(0 0 0)
(0.0178729 0.000486926 0)
(0.0338706 0.000937986 0)
(0.0475965 0.00135254 0)
(0.05929 0.0017438 0)
(0.0691787 0.00212245 0)
(0.0774671 0.00249694 0)
(0.0843357 0.00287412 0)
(0.0899463 0.00325979 0)
(0.0944453 0.00365894 0)
(0.0979668 0.00407604 0)
(0.100635 0.00451517 0)
(0.102565 0.00498018 0)
(0.103867 0.00547476 0)
(0.104647 0.00600257 0)
(0.105009 0.00656722 0)
(0.105056 0.00717223 0)
(0.104893 0.00782121 0)
(0.104627 0.00851693 0)
(0.104369 0.00926095 0)
(0.104237 0.0100547 0)
(0.104348 0.010898 0)
(0.104834 0.0117881 0)
(0.105852 0.0127207 0)
(0.107575 0.0136862 0)
(0.11014 0.0146675 0)
(0.113701 0.0156407 0)
(0.118516 0.0165748 0)
(0.124746 0.0174311 0)
(0.132382 0.0181449 0)
(0.135348 0.0185251 0)
(0 0 0)
(0.0180942 0.000532754 0)
(0.0343053 0.00102606 0)
(0.0482426 0.00147925 0)
(0.060156 0.0019066 0)
(0.0702782 0.00231956 0)
(0.0788185 0.00272722 0)
(0.0859629 0.00313699 0)
(0.0918778 0.00355505 0)
(0.0967142 0.00398672 0)
(0.100611 0.00443671 0)
(0.103698 0.00490936 0)
(0.106096 0.00540866 0)
(0.107922 0.00593845 0)
(0.109285 0.00650249 0)
(0.110304 0.00710488 0)
(0.111092 0.00774964 0)
(0.111758 0.00843968 0)
(0.112413 0.00917745 0)
(0.113182 0.00996566 0)
(0.114198 0.0108058 0)
(0.115594 0.0116972 0)
(0.117514 0.0126383 0)
(0.120106 0.0136251 0)
(0.123551 0.0146487 0)
(0.12802 0.0156933 0)
(0.133611 0.0167345 0)
(0.140518 0.0177377 0)
(0.148843 0.0186539 0)
(0.158326 0.0193981 0)
(0.162327 0.0198702 0)
(0 0 0)
(0.0183259 0.000575989 0)
(0.0347679 0.00110935 0)
(0.0489338 0.00159902 0)
(0.0610811 0.00206021 0)
(0.071451 0.00250511 0)
(0.0802585 0.0029434 0)
(0.087695 0.00338298 0)
(0.0939318 0.00383036 0)
(0.0991242 0.00429107 0)
(0.103416 0.00477002 0)
(0.106943 0.00527165 0)
(0.109831 0.00580008 0)
(0.112203 0.00635912 0)
(0.11418 0.00695286 0)
(0.115883 0.00758565 0)
(0.117435 0.00826096 0)
(0.118955 0.00898149 0)
(0.120572 0.00975024 0)
(0.122414 0.0105695 0)
(0.124617 0.0114404 0)
(0.127338 0.0123639 0)
(0.130748 0.0133391 0)
(0.135007 0.0143631 0)
(0.140281 0.0154296 0)
(0.146755 0.0165247 0)
(0.154545 0.0176287 0)
(0.163734 0.0187059 0)
(0.174298 0.0196947 0)
(0.185756 0.0204814 0)
(0.191217 0.0211026 0)
(0 0 0)
(0.0185733 0.000616672 0)
(0.0352581 0.00118763 0)
(0.0496637 0.00171139 0)
(0.0620561 0.00220398 0)
(0.0726852 0.0026783 0)
(0.0817721 0.00314454 0)
(0.0895141 0.00361101 0)
(0.0960867 0.00408449 0)
(0.101649 0.0045706 0)
(0.10635 0.00507434 0)
(0.110331 0.00560024 0)
(0.113724 0.0061524 0)
(0.116658 0.00673462 0)
(0.119265 0.00735136 0)
(0.121672 0.00800624 0)
(0.124 0.00870205 0)
(0.126385 0.0094421 0)
(0.128966 0.0102288 0)
(0.131884 0.0110639 0)
(0.135296 0.0119489 0)
(0.139364 0.0128851 0)
(0.144269 0.0138722 0)
(0.150216 0.0149087 0)
(0.157367 0.0159909 0)
(0.165907 0.0171099 0)
(0.175998 0.0182525 0)
(0.187609 0.0193871 0)
(0.200568 0.0204449 0)
(0.214126 0.0212687 0)
(0.221652 0.0220562 0)
(0 0 0)
(0.0188337 0.000654663 0)
(0.0357715 0.00126061 0)
(0.050425 0.00181591 0)
(0.0630712 0.00233737 0)
(0.0739684 0.00283848 0)
(0.083344 0.00332985 0)
(0.0914017 0.00382021 0)
(0.0983202 0.00431645 0)
(0.104262 0.00482418 0)
(0.109381 0.00534843 0)
(0.113823 0.0058937 0)
(0.117728 0.00646401 0)
(0.121232 0.00706328 0)
(0.124473 0.00769565 0)
(0.127579 0.00836373 0)
(0.130684 0.00907028 0)
(0.133932 0.00981805 0)
(0.13746 0.0106084 0)
(0.141428 0.0114432 0)
(0.146014 0.0123234 0)
(0.151394 0.0132489 0)
(0.157749 0.0142196 0)
(0.165308 0.0152341 0)
(0.174275 0.0162892 0)
(0.184826 0.0173806 0)
(0.197148 0.0185005 0)
(0.21118 0.0196301 0)
(0.226601 0.020711 0)
(0.242338 0.021547 0)
(0.253191 0.0227593 0)
(0 0 0)
(0.0191044 0.000689825 0)
(0.0363029 0.00132798 0)
(0.0512091 0.00191204 0)
(0.0641142 0.00245965 0)
(0.0752854 0.0029848 0)
(0.084957 0.00349853 0)
(0.0933389 0.00400985 0)
(0.10061 0.00452551 0)
(0.106936 0.00505103 0)
(0.112475 0.00559143 0)
(0.117379 0.00615112 0)
(0.121796 0.00673412 0)
(0.125869 0.00734423 0)
(0.129735 0.00798443 0)
(0.133524 0.00865684 0)
(0.137383 0.00936406 0)
(0.141461 0.0101074 0)
(0.145906 0.0108873 0)
(0.150879 0.0117047 0)
(0.156559 0.012559 0)
(0.163143 0.0134478 0)
(0.170828 0.0143686 0)
(0.179832 0.0153179 0)
(0.190383 0.0162873 0)
(0.20267 0.0172687 0)
(0.216867 0.0182497 0)
(0.232925 0.0192184 0)
(0.250401 0.0201499 0)
(0.268161 0.0208745 0)
(0.285465 0.0230945 0)
(0 0 0)
(0.0193814 0.000722181 0)
(0.0368448 0.00138976 0)
(0.0520119 0.00200007 0)
(0.0651849 0.0025714 0)
(0.0766384 0.00311809 0)
(0.0866155 0.00365168 0)
(0.0953278 0.00418109 0)
(0.102955 0.00471276 0)
(0.109667 0.00525232 0)
(0.115629 0.0058046 0)
(0.120997 0.00637398 0)
(0.125924 0.00696444 0)
(0.130554 0.0075789 0)
(0.135027 0.00821936 0)
(0.139484 0.00888746 0)
(0.144068 0.00958491 0)
(0.148931 0.010312 0)
(0.154228 0.0110674 0)
(0.160128 0.0118496 0)
(0.166802 0.012656 0)
(0.174439 0.0134811 0)
(0.183251 0.0143167 0)
(0.193428 0.015152 0)
(0.20517 0.0159673 0)
(0.218651 0.0167347 0)
(0.233949 0.0174065 0)
(0.250919 0.0178995 0)
(0.268884 0.0180498 0)
(0.286853 0.0173492 0)
(0.317851 0.0231742 0)
(0 0 0)
(0.0168257 0 0)
(0.0318209 0 0)
(0.0445601 0 0)
(0.0552383 0 0)
(0.0640468 0 0)
(0.0711584 0 0)
(0.0767285 0 0)
(0.0808968 0 0)
(0.0837874 0 0)
(0.0855102 0 0)
(0.0861628 0 0)
(0.0858331 0 0)
(0.0846013 0 0)
(0.0825397 0 0)
(0.0797148 0 0)
(0.076191 0 0)
(0.0720324 0 0)
(0.0673032 0 0)
(0.0620698 0 0)
(0.0564026 0 0)
(0.0503785 0 0)
(0.044084 0 0)
(0.0376188 0 0)
(0.0311008 0 0)
(0.0246745 0 0)
(0.0185264 0 0)
(0.0129016 0 0)
(0.00813824 0 0)
(0.00481287 0 0)
(0 0 0)
(0 0 0)
(0.0168384 5.72366e-05 0)
(0.0318471 0.00011037 0)
(0.0445997 0.000159398 0)
(0.0552917 0.000205933 0)
(0.0641149 0.000251266 0)
(0.0712424 0.000296487 0)
(0.0768298 0.000342364 0)
(0.0810172 0.000389557 0)
(0.0839294 0.000438804 0)
(0.0856764 0.00049073 0)
(0.086356 0.000545929 0)
(0.0860567 0.000605031 0)
(0.0848593 0.000668852 0)
(0.0828366 0.000737342 0)
(0.0800549 0.000810489 0)
(0.0765793 0.000889101 0)
(0.0724742 0.00097378 0)
(0.0678048 0.00106501 0)
(0.062638 0.00116314 0)
(0.0570448 0.00126852 0)
(0.0511031 0.00138154 0)
(0.0449002 0.00150271 0)
(0.0385372 0.00163272 0)
(0.0321332 0.00177265 0)
(0.0258334 0.00192457 0)
(0.0198299 0.00209362 0)
(0.0143808 0.00228644 0)
(0.00984371 0.00250801 0)
(0.00680351 0.00274953 0)
(0.00287074 0.00308497 0)
(0 0 0)
(0.0168808 0.000114329 0)
(0.031929 0.000220462 0)
(0.0447206 0.000318389 0)
(0.0554533 0.000411339 0)
(0.0643198 0.000501862 0)
(0.0714944 0.000592197 0)
(0.0771329 0.00068383 0)
(0.0813772 0.00077803 0)
(0.0843536 0.00087633 0)
(0.0861728 0.000979959 0)
(0.0869334 0.00109007 0)
(0.0867244 0.00120785 0)
(0.0856283 0.00133453 0)
(0.0837201 0.0014704 0)
(0.081067 0.00161592 0)
(0.0777343 0.00177236 0)
(0.0737884 0.00194091 0)
(0.0692968 0.00212258 0)
(0.0643279 0.00231799 0)
(0.0589548 0.00252783 0)
(0.0532578 0.00275286 0)
(0.0473278 0.002994 0)
(0.0412705 0.00325247 0)
(0.0352106 0.00352988 0)
(0.0292943 0.00382879 0)
(0.023716 0.00415459 0)
(0.0187568 0.00451445 0)
(0.0148225 0.00491317 0)
(0.0125087 0.00532789 0)
(0.00925894 0.00575808 0)
(0 0 0)
(0.0169512 0.000171109 0)
(0.0320646 0.00032994 0)
(0.0449206 0.000476483 0)
(0.0557204 0.000615578 0)
(0.0646588 0.000750959 0)
(0.071911 0.000885756 0)
(0.0776332 0.00102238 0)
(0.0819713 0.00116297 0)
(0.0850541 0.00130967 0)
(0.0869926 0.00146427 0)
(0.0878871 0.0016284 0)
(0.0878282 0.00180369 0)
(0.0869001 0.00199148 0)
(0.0851806 0.00219284 0)
(0.0827399 0.00240905 0)
(0.0796432 0.00264134 0)
(0.0759598 0.00289161 0)
(0.0717614 0.00316153 0)
(0.0671191 0.00345177 0)
(0.0621087 0.00376329 0)
(0.0568142 0.00409707 0)
(0.0513312 0.00445431 0)
(0.0457735 0.00483665 0)
(0.0402766 0.00524578 0)
(0.0349957 0.00568308 0)
(0.0301203 0.00614852 0)
(0.0259232 0.00664237 0)
(0.0228522 0.00716557 0)
(0.0215216 0.00768434 0)
(0.0190299 0.00810354 0)
(0 0 0)
(0.0170505 0.000227284 0)
(0.0322536 0.000438155 0)
(0.0451985 0.000632699 0)
(0.0560914 0.00081736 0)
(0.0651272 0.000996896 0)
(0.0724846 0.00117504 0)
(0.078324 0.00135547 0)
(0.0827937 0.00154139 0)
(0.0860237 0.00173532 0)
(0.0881272 0.00193951 0)
(0.0892069 0.0021561 0)
(0.0893556 0.00238708 0)
(0.0886599 0.00263411 0)
(0.0872015 0.00289895 0)
(0.0850555 0.00318361 0)
(0.0822895 0.00348978 0)
(0.078973 0.00381961 0)
(0.0751817 0.00417478 0)
(0.0709921 0.00455624 0)
(0.0664839 0.00496514 0)
(0.0617448 0.00540238 0)
(0.056873 0.00586884 0)
(0.0519923 0.00636641 0)
(0.0472538 0.00689636 0)
(0.0428288 0.00745731 0)
(0.0389151 0.00804405 0)
(0.0357562 0.00864857 0)
(0.0337687 0.00926057 0)
(0.0335884 0.00984137 0)
(0.0318645 0.0102745 0)
(0 0 0)
(0.0171707 0.000282383 0)
(0.0324902 0.000544304 0)
(0.0455513 0.000785917 0)
(0.0565619 0.00101497 0)
(0.0657183 0.00123733 0)
(0.073208 0.00145785 0)
(0.079198 0.00168113 0)
(0.0838355 0.00191106 0)
(0.087252 0.00215064 0)
(0.0895642 0.00240263 0)
(0.090878 0.00266962 0)
(0.0912892 0.00295397 0)
(0.0908866 0.00325755 0)
(0.0897572 0.00358302 0)
(0.0879826 0.00393333 0)
(0.0856365 0.00431086 0)
(0.0827888 0.00471721 0)
(0.0795153 0.0051535 0)
(0.075901 0.00562154 0)
(0.0720324 0.00612267 0)
(0.0680026 0.00665744 0)
(0.0639117 0.00722615 0)
(0.0598815 0.00782926 0)
(0.056079 0.00846652 0)
(0.052699 0.00913416 0)
(0.0499529 0.00982311 0)
(0.0480751 0.0105193 0)
(0.0473859 0.0111988 0)
(0.048497 0.0118231 0)
(0.0476657 0.0122674 0)
(0 0 0)
(0.0173106 0.000336083 0)
(0.0327718 0.000647857 0)
(0.0459726 0.000935326 0)
(0.0571223 0.00120729 0)
(0.0664256 0.00147098 0)
(0.0740775 0.0017327 0)
(0.0802481 0.00199752 0)
(0.085086 0.00226975 0)
(0.0887257 0.00255303 0)
(0.0912877 0.00285061 0)
(0.0928814 0.00316549 0)
(0.0936072 0.00350045 0)
(0.0935576 0.00385784 0)
(0.0928236 0.0042409 0)
(0.0914917 0.00465301 0)
(0.0896422 0.00509678 0)
(0.0873513 0.00557381 0)
(0.0846964 0.0060853 0)
(0.0817699 0.00663381 0)
(0.0786688 0.00722095 0)
(0.0754937 0.00784686 0)
(0.0723549 0.00851128 0)
(0.0693638 0.00921172 0)
(0.0666749 0.00994434 0)
(0.0645078 0.0107033 0)
(0.0630958 0.0114761 0)
(0.0626667 0.0122429 0)
(0.0634641 0.0129754 0)
(0.0660343 0.0136389 0)
(0.0661138 0.0140957 0)
(0 0 0)
(0.0174757 0.000388234 0)
(0.0330997 0.000748362 0)
(0.0464587 0.00108005 0)
(0.0577671 0.00139343 0)
(0.0672426 0.00169714 0)
(0.0750843 0.00199843 0)
(0.0814632 0.00230291 0)
(0.0865321 0.0026154 0)
(0.0904288 0.00294007 0)
(0.0932782 0.00328061 0)
(0.0951942 0.00364047 0)
(0.0962818 0.00402282 0)
(0.0966395 0.00443072 0)
(0.0963617 0.00486749 0)
(0.0955393 0.00533644 0)
(0.0942587 0.00584036 0)
(0.0926065 0.00638154 0)
(0.0906681 0.00696205 0)
(0.0885381 0.00758442 0)
(0.0863176 0.00824964 0)
(0.0841214 0.00895813 0)
(0.082075 0.00970904 0)
(0.080298 0.0104978 0)
(0.0789205 0.0113167 0)
(0.078137 0.0121554 0)
(0.0782082 0.0129983 0)
(0.0793726 0.0138214 0)
(0.0818229 0.0145963 0)
(0.0860017 0.0152888 0)
(0.0870857 0.0157671 0)
(0 0 0)
(0.0176637 0.000438615 0)
(0.0334673 0.000845278 0)
(0.0470018 0.00121933 0)
(0.0584921 0.0015725 0)
(0.0681635 0.00191465 0)
(0.0762181 0.00225361 0)
(0.0828305 0.00259562 0)
(0.088158 0.00294602 0)
(0.0923424 0.00330941 0)
(0.0955131 0.00368992 0)
(0.0977888 0.00409134 0)
(0.0992799 0.00451722 0)
(0.10009 0.00497102 0)
(0.10032 0.00545623 0)
(0.100065 0.00597626 0)
(0.0994183 0.00653411 0)
(0.0984788 0.00713293 0)
(0.0973464 0.00777578 0)
(0.0961158 0.00846414 0)
(0.0948896 0.00919858 0)
(0.0937906 0.00997992 0)
(0.0929505 0.0108061 0)
(0.0925143 0.0116723 0)
(0.0926255 0.0125692 0)
(0.0934244 0.0134812 0)
(0.0951428 0.0143886 0)
(0.0980521 0.0152643 0)
(0.10232 0.0160766 0)
(0.108197 0.01678 0)
(0.110268 0.0171897 0)
(0 0 0)
(0.0178729 0.000486926 0)
(0.0338706 0.000937986 0)
(0.0475965 0.00135254 0)
(0.05929 0.0017438 0)
(0.0691787 0.00212245 0)
(0.0774671 0.00249694 0)
(0.0843357 0.00287412 0)
(0.0899463 0.00325979 0)
(0.0944453 0.00365894 0)
(0.0979668 0.00407604 0)
(0.100635 0.00451517 0)
(0.102565 0.00498018 0)
(0.103867 0.00547476 0)
(0.104647 0.00600257 0)
(0.105009 0.00656722 0)
(0.105056 0.00717223 0)
(0.104893 0.00782121 0)
(0.104627 0.00851693 0)
(0.104369 0.00926095 0)
(0.104237 0.0100547 0)
(0.104348 0.010898 0)
(0.104834 0.0117881 0)
(0.105852 0.0127207 0)
(0.107575 0.0136862 0)
(0.11014 0.0146675 0)
(0.113701 0.0156407 0)
(0.118516 0.0165748 0)
(0.124746 0.0174311 0)
(0.132382 0.0181449 0)
(0.135348 0.0185251 0)
(0 0 0)
(0.0180942 0.000532754 0)
(0.0343053 0.00102606 0)
(0.0482426 0.00147925 0)
(0.060156 0.0019066 0)
(0.0702782 0.00231956 0)
(0.0788185 0.00272722 0)
(0.0859629 0.00313699 0)
(0.0918778 0.00355505 0)
(0.0967142 0.00398672 0)
(0.100611 0.00443671 0)
(0.103698 0.00490936 0)
(0.106096 0.00540866 0)
(0.107922 0.00593845 0)
(0.109285 0.00650249 0)
(0.110304 0.00710488 0)
(0.111092 0.00774964 0)
(0.111758 0.00843968 0)
(0.112413 0.00917745 0)
(0.113182 0.00996566 0)
(0.114198 0.0108058 0)
(0.115594 0.0116972 0)
(0.117514 0.0126383 0)
(0.120106 0.0136251 0)
(0.123551 0.0146487 0)
(0.12802 0.0156933 0)
(0.133611 0.0167345 0)
(0.140518 0.0177377 0)
(0.148843 0.0186539 0)
(0.158326 0.0193981 0)
(0.162327 0.0198702 0)
(0 0 0)
(0.0183259 0.000575989 0)
(0.0347679 0.00110935 0)
(0.0489338 0.00159902 0)
(0.0610811 0.00206021 0)
(0.071451 0.00250511 0)
(0.0802585 0.0029434 0)
(0.087695 0.00338298 0)
(0.0939318 0.00383036 0)
(0.0991242 0.00429107 0)
(0.103416 0.00477002 0)
(0.106943 0.00527165 0)
(0.109831 0.00580008 0)
(0.112203 0.00635912 0)
(0.11418 0.00695286 0)
(0.115883 0.00758565 0)
(0.117435 0.00826096 0)
(0.118955 0.00898149 0)
(0.120572 0.00975024 0)
(0.122414 0.0105695 0)
(0.124617 0.0114404 0)
(0.127338 0.0123639 0)
(0.130748 0.0133391 0)
(0.135007 0.0143631 0)
(0.140281 0.0154296 0)
(0.146755 0.0165247 0)
(0.154545 0.0176287 0)
(0.163734 0.0187059 0)
(0.174298 0.0196947 0)
(0.185756 0.0204814 0)
(0.191217 0.0211026 0)
(0 0 0)
(0.0185733 0.000616672 0)
(0.0352581 0.00118763 0)
(0.0496637 0.00171139 0)
(0.0620561 0.00220398 0)
(0.0726852 0.0026783 0)
(0.0817721 0.00314454 0)
(0.0895141 0.00361101 0)
(0.0960867 0.00408449 0)
(0.101649 0.0045706 0)
(0.10635 0.00507434 0)
(0.110331 0.00560024 0)
(0.113724 0.0061524 0)
(0.116658 0.00673462 0)
(0.119265 0.00735136 0)
(0.121672 0.00800624 0)
(0.124 0.00870205 0)
(0.126385 0.0094421 0)
(0.128966 0.0102288 0)
(0.131884 0.0110639 0)
(0.135296 0.0119489 0)
(0.139364 0.0128851 0)
(0.144269 0.0138722 0)
(0.150216 0.0149087 0)
(0.157367 0.0159909 0)
(0.165907 0.0171099 0)
(0.175998 0.0182525 0)
(0.187609 0.0193871 0)
(0.200568 0.0204449 0)
(0.214126 0.0212687 0)
(0.221652 0.0220562 0)
(0 0 0)
(0.0188337 0.000654663 0)
(0.0357715 0.00126061 0)
(0.050425 0.00181591 0)
(0.0630712 0.00233737 0)
(0.0739684 0.00283848 0)
(0.083344 0.00332985 0)
(0.0914017 0.00382021 0)
(0.0983202 0.00431645 0)
(0.104262 0.00482418 0)
(0.109381 0.00534843 0)
(0.113823 0.0058937 0)
(0.117728 0.00646401 0)
(0.121232 0.00706328 0)
(0.124473 0.00769565 0)
(0.127579 0.00836373 0)
(0.130684 0.00907028 0)
(0.133932 0.00981805 0)
(0.13746 0.0106084 0)
(0.141428 0.0114432 0)
(0.146014 0.0123234 0)
(0.151394 0.0132489 0)
(0.157749 0.0142196 0)
(0.165308 0.0152341 0)
(0.174275 0.0162892 0)
(0.184826 0.0173806 0)
(0.197148 0.0185005 0)
(0.21118 0.0196301 0)
(0.226601 0.020711 0)
(0.242338 0.021547 0)
(0.253191 0.0227593 0)
(0 0 0)
(0.0191044 0.000689825 0)
(0.0363029 0.00132798 0)
(0.0512091 0.00191204 0)
(0.0641142 0.00245965 0)
(0.0752854 0.0029848 0)
(0.084957 0.00349853 0)
(0.0933389 0.00400985 0)
(0.10061 0.00452551 0)
(0.106936 0.00505103 0)
(0.112475 0.00559143 0)
(0.117379 0.00615112 0)
(0.121796 0.00673412 0)
(0.125869 0.00734423 0)
(0.129735 0.00798443 0)
(0.133524 0.00865684 0)
(0.137383 0.00936406 0)
(0.141461 0.0101074 0)
(0.145906 0.0108873 0)
(0.150879 0.0117047 0)
(0.156559 0.012559 0)
(0.163143 0.0134478 0)
(0.170828 0.0143686 0)
(0.179832 0.0153179 0)
(0.190383 0.0162873 0)
(0.20267 0.0172687 0)
(0.216867 0.0182497 0)
(0.232925 0.0192184 0)
(0.250401 0.0201499 0)
(0.268161 0.0208745 0)
(0.285465 0.0230945 0)
(0 0 0)
(0.0193814 0.000722181 0)
(0.0368448 0.00138976 0)
(0.0520119 0.00200007 0)
(0.0651849 0.0025714 0)
(0.0766384 0.00311809 0)
(0.0866155 0.00365168 0)
(0.0953278 0.00418109 0)
(0.102955 0.00471276 0)
(0.109667 0.00525232 0)
(0.115629 0.0058046 0)
(0.120997 0.00637398 0)
(0.125924 0.00696444 0)
(0.130554 0.0075789 0)
(0.135027 0.00821936 0)
(0.139484 0.00888746 0)
(0.144068 0.00958491 0)
(0.148931 0.010312 0)
(0.154228 0.0110674 0)
(0.160128 0.0118496 0)
(0.166802 0.012656 0)
(0.174439 0.0134811 0)
(0.183251 0.0143167 0)
(0.193428 0.015152 0)
(0.20517 0.0159673 0)
(0.218651 0.0167347 0)
(0.233949 0.0174065 0)
(0.250919 0.0178995 0)
(0.268884 0.0180498 0)
(0.286853 0.0173492 0)
(0.317851 0.0231742 0)
(-6.93889e-18 0 0)
(0.00701764 0 0)
(0.0139536 0 0)
(0.0252533 0 0)
(0.0402437 0 0)
(0.0577341 0 0)
(0.0763483 0 0)
(0.0947873 0 0)
(0.112029 0 0)
(0.127414 0 0)
(0.140595 0 0)
(0.151451 0 0)
(0.160022 0 0)
(0.166441 0 0)
(0.170835 0 0)
(0.173311 0 0)
(0.173971 0 0)
(0.172889 0 0)
(0.170122 0 0)
(0.165704 0 0)
(0.159647 0 0)
(0.151943 0 0)
(0.142558 0 0)
(0.131437 0 0)
(0.118511 0 0)
(0.10372 0 0)
(0.0870116 0 0)
(0.0683104 0 0)
(0.0475414 0 0)
(0.0246243 0 0)
(0 0 0)
(0.00289002 -0.00331447 0)
(0.00914311 -0.00308626 0)
(0.0161597 -0.00312469 0)
(0.0275201 -0.00311528 0)
(0.0425108 -0.0030728 0)
(0.059919 -0.00298968 0)
(0.0783918 -0.00286863 0)
(0.0966433 -0.00271551 0)
(0.11367 -0.00253848 0)
(0.128831 -0.00235036 0)
(0.141791 -0.00215969 0)
(0.152444 -0.00197045 0)
(0.160844 -0.00178887 0)
(0.167118 -0.00162008 0)
(0.171388 -0.00146193 0)
(0.173764 -0.00131578 0)
(0.174343 -0.00118156 0)
(0.173197 -0.00105685 0)
(0.170377 -0.000942495 0)
(0.165915 -0.000838335 0)
(0.159823 -0.000742844 0)
(0.152088 -0.000654445 0)
(0.142678 -0.000573315 0)
(0.131539 -0.000497443 0)
(0.118596 -0.000425163 0)
(0.103785 -0.000355377 0)
(0.087064 -0.000287237 0)
(0.0683509 -0.000219095 0)
(0.0475678 -0.000149322 0)
(0.0246386 -7.6408e-05 0)
(0 0 0)
(0.00932464 -0.00619225 0)
(0.0152782 -0.005989 0)
(0.022637 -0.00609655 0)
(0.0342123 -0.00610523 0)
(0.0491917 -0.00602828 0)
(0.0663757 -0.00586466 0)
(0.0844442 -0.00562606 0)
(0.10213 -0.00532357 0)
(0.118505 -0.00497626 0)
(0.132991 -0.00460449 0)
(0.145295 -0.00422583 0)
(0.15536 -0.00385473 0)
(0.163255 -0.00350131 0)
(0.169101 -0.00317033 0)
(0.173012 -0.00286228 0)
(0.175095 -0.00257834 0)
(0.175433 -0.00231667 0)
(0.174095 -0.00207661 0)
(0.17112 -0.00185579 0)
(0.16653 -0.00165227 0)
(0.160335 -0.00146504 0)
(0.152511 -0.00129179 0)
(0.143024 -0.00113188 0)
(0.131826 -0.000982491 0)
(0.118836 -0.000840366 0)
(0.103982 -0.00070246 0)
(0.0872176 -0.000567465 0)
(0.0684726 -0.000432817 0)
(0.0476585 -0.000294957 0)
(0.0246878 -0.000150857 0)
(0 0 0)
(0.0190514 -0.00872859 0)
(0.0249974 -0.00864623 0)
(0.0329919 -0.00883987 0)
(0.044919 -0.00888371 0)
(0.0598772 -0.00878179 0)
(0.0767221 -0.0085475 0)
(0.0941219 -0.00819601 0)
(0.110879 -0.00774881 0)
(0.126195 -0.00723948 0)
(0.139587 -0.00669569 0)
(0.150858 -0.00614399 0)
(0.159999 -0.00560564 0)
(0.167094 -0.00509456 0)
(0.172261 -0.00461584 0)
(0.175605 -0.00417071 0)
(0.177219 -0.00376032 0)
(0.177174 -0.00338223 0)
(0.175526 -0.00303569 0)
(0.172301 -0.00271669 0)
(0.16751 -0.00242214 0)
(0.16115 -0.00215043 0)
(0.153187 -0.00189835 0)
(0.143581 -0.00166424 0)
(0.132285 -0.00144501 0)
(0.119222 -0.00123623 0)
(0.104303 -0.00103399 0)
(0.0874722 -0.000835299 0)
(0.068673 -0.000636941 0)
(0.0478084 -0.000434228 0)
(0.0247686 -0.000222166 0)
(0 0 0)
(0.0319112 -0.0111159 0)
(0.0379953 -0.011087 0)
(0.0468125 -0.0113465 0)
(0.0591905 -0.0114204 0)
(0.074142 -0.0112992 0)
(0.0904999 -0.0109958 0)
(0.106935 -0.0105317 0)
(0.122413 -0.00994586 0)
(0.136289 -0.00928291 0)
(0.14823 -0.00858242 0)
(0.158148 -0.00787781 0)
(0.166084 -0.00719251 0)
(0.172138 -0.00654211 0)
(0.17642 -0.00593333 0)
(0.179023 -0.00536726 0)
(0.180023 -0.00484396 0)
(0.179477 -0.00436226 0)
(0.17742 -0.00391955 0)
(0.173864 -0.00351156 0)
(0.168806 -0.00313528 0)
(0.16223 -0.00278761 0)
(0.154087 -0.00246449 0)
(0.144327 -0.00216256 0)
(0.132906 -0.00187867 0)
(0.11974 -0.00160819 0)
(0.104734 -0.00134632 0)
(0.0878234 -0.00108837 0)
(0.0689433 -0.000830097 0)
(0.0479973 -0.000566183 0)
(0.0248687 -0.000289839 0)
(0 0 0)
(0.047697 -0.0133415 0)
(0.0540302 -0.0133358 0)
(0.0637892 -0.0136376 0)
(0.0766533 -0.0137218 0)
(0.0915244 -0.0135688 0)
(0.107151 -0.0131831 0)
(0.122295 -0.0126005 0)
(0.136141 -0.0118789 0)
(0.148243 -0.0110736 0)
(0.158446 -0.0102342 0)
(0.166762 -0.00939748 0)
(0.173282 -0.00858812 0)
(0.178112 -0.00782075 0)
(0.181357 -0.00710234 0)
(0.183092 -0.00643429 0)
(0.183374 -0.00581582 0)
(0.182236 -0.00524507 0)
(0.179698 -0.0047196 0)
(0.175749 -0.00423469 0)
(0.17037 -0.00378646 0)
(0.163531 -0.00337146 0)
(0.155175 -0.00298547 0)
(0.145237 -0.00262323 0)
(0.133662 -0.00228119 0)
(0.120365 -0.00195482 0)
(0.105252 -0.00163824 0)
(0.0882469 -0.0013258 0)
(0.0692674 -0.00101205 0)
(0.04822 -0.000690691 0)
(0.0249853 -0.000353741 0)
(0 0 0)
(0.0661795 -0.015373 0)
(0.0728476 -0.015399 0)
(0.0836133 -0.0157262 0)
(0.0968976 -0.0157924 0)
(0.111472 -0.0155754 0)
(0.126037 -0.0150852 0)
(0.139538 -0.0143761 0)
(0.151423 -0.0135216 0)
(0.161486 -0.0125887 0)
(0.16974 -0.0116314 0)
(0.176284 -0.0106864 0)
(0.181247 -0.0097774 0)
(0.184738 -0.00891726 0)
(0.186848 -0.00811203 0)
(0.187634 -0.00736258 0)
(0.18713 -0.00666802 0)
(0.185343 -0.00602494 0)
(0.18227 -0.00543083 0)
(0.177888 -0.004882 0)
(0.172151 -0.0043731 0)
(0.165016 -0.00390036 0)
(0.156416 -0.00345969 0)
(0.146277 -0.00304511 0)
(0.134526 -0.00265207 0)
(0.121078 -0.00227552 0)
(0.105838 -0.00190925 0)
(0.0887189 -0.00154693 0)
(0.069628 -0.00118204 0)
(0.048468 -0.000807262 0)
(0.0251144 -0.000413633 0)
(0 0 0)
(0.0871286 -0.0172477 0)
(0.0941473 -0.0172759 0)
(0.105896 -0.0176046 0)
(0.119456 -0.0176212 0)
(0.133404 -0.017303 0)
(0.146504 -0.0166827 0)
(0.157997 -0.0158393 0)
(0.167634 -0.0148593 0)
(0.175461 -0.0138169 0)
(0.181632 -0.0127654 0)
(0.186312 -0.0117383 0)
(0.189649 -0.0107559 0)
(0.191747 -0.00982803 0)
(0.192679 -0.00895915 0)
(0.192476 -0.00814918 0)
(0.191152 -0.00739687 0)
(0.188689 -0.00669898 0)
(0.185056 -0.0060514 0)
(0.18021 -0.00545129 0)
(0.174094 -0.0048936 0)
(0.166639 -0.00437361 0)
(0.157773 -0.00388685 0)
(0.147411 -0.00342753 0)
(0.13547 -0.00299029 0)
(0.121857 -0.00256945 0)
(0.106476 -0.00215861 0)
(0.0892281 -0.00175097 0)
(0.0700152 -0.00133924 0)
(0.0487336 -0.000915264 0)
(0.0252521 -0.000469184 0)
(0 0 0)
(0.110313 -0.0189068 0)
(0.11766 -0.0189738 0)
(0.130273 -0.0192687 0)
(0.143814 -0.0191911 0)
(0.156666 -0.0187295 0)
(0.167828 -0.0179545 0)
(0.176961 -0.0169736 0)
(0.184132 -0.0158816 0)
(0.189611 -0.0147522 0)