/*--------------------------------*- C++ -*----------------------------------*\
| =========                 |                                                 |
| \\      /  F ield         | OpenFOAM: The Open Source CFD Toolbox           |
|  \\    /   O peration     | Version:  5.x                                   |
|   \\  /    A nd           | Web:      www.OpenFOAM.org                      |
|    \\/     M anipulation  |                                                 |
\*---------------------------------------------------------------------------*/
FoamFile
{
    version     2.0;
    format      ascii;
    class       surfaceVectorField;
    location    "3.3";
    object      Uf;
}
// * * * * * * * * * * * * * * * * * * * * * * * * * * * * * * * * * * * * * //

dimensions      [0 1 -1 0 0 0 0];

internalField   nonuniform List<vector> 
5457
(
(9.91148 0.0247508 -4.99499e-20)
(9.97465 0.0386021 -9.18632e-20)
(9.809 0.0313855 -1.0277e-19)
(9.92597 0.0462699 -1.06953e-20)
(9.69244 0.0368723 -3.44103e-20)
(9.84901 0.0546679 3.50875e-20)
(9.55944 0.0425931 -1.66334e-20)
(9.75147 0.0647547 1.47964e-20)
(9.41031 0.0485054 -3.00771e-20)
(9.63729 0.0753274 -5.01485e-22)
(9.24552 0.0546368 0)
(9.50683 0.0863076 6.19936e-20)
(9.06509 0.0611144 6.9477e-20)
(9.35972 0.0979288 0)
(8.86872 0.0680705 -4.01496e-20)
(9.19564 0.110397 2.01142e-19)
(8.65588 0.075629 -6.59793e-20)
(9.01422 0.123907 -1.39068e-19)
(8.42579 0.0839069 -7.96538e-20)
(8.81492 0.138648 7.2565e-20)
(8.17756 0.0930231 9.82977e-21)
(8.59696 0.154796 -3.73275e-19)
(7.91013 0.103101 3.39824e-20)
(8.3594 0.17254 4.62002e-19)
(7.62234 0.114266 -8.16329e-20)
(8.10112 0.192064 -3.5645e-21)
(7.31298 0.12665 0)
(7.82096 0.213541 -4.16757e-19)
(6.98075 0.140388 -1.98107e-19)
(7.51772 0.237154 1.04214e-18)
(6.62433 0.155608 1.41015e-20)
(7.19005 0.263064 -8.24904e-19)
(6.24245 0.172426 -1.33164e-19)
(6.83658 0.291381 2.02874e-19)
(5.83393 0.190938 7.26296e-19)
(6.45599 0.322162 3.78799e-19)
(5.39781 0.211194 5.24865e-19)
(6.04712 0.35538 1.15105e-18)
(4.93344 0.233159 -4.78301e-19)
(5.60902 0.390831 -1.37107e-18)
(4.44073 0.256682 0)
(5.14107 0.428085 0)
(3.92033 0.281445 1.38308e-18)
(4.64324 0.466409 -2.50659e-19)
(3.37397 0.306867 1.36217e-18)
(4.11629 0.504649 1.49837e-18)
(2.80479 0.331944 -1.40784e-18)
(3.56208 0.54105 -2.57456e-18)
(2.21806 0.35488 -1.39159e-18)
(2.98405 0.572956 1.03836e-18)
(1.62222 0.372042 -1.69628e-18)
(2.38774 0.596194 0)
(1.03135 0.373632 -1.91077e-18)
(1.78175 0.603468 -7.7705e-18)
(0.472697 0.319422 1.73975e-18)
(1.17935 0.578348 6.12843e-18)
(0.0143952 -0.050398 8.12487e-19)
(0.581352 0.46788 1.55252e-18)
(0.201548 0.0159959 7.80121e-18)
(9.99823 0.0499149 -5.13046e-20)
(10.0043 0.0393881 -1.22405e-19)
(9.96149 0.0662927 1.27991e-19)
(9.98327 0.0628772 2.35908e-19)
(9.90374 0.0807044 8.39153e-20)
(9.93778 0.0817768 2.88839e-20)
(9.82726 0.0960048 3.06517e-20)
(9.87206 0.102014 5.8383e-20)
(9.7323 0.112117 9.26702e-20)
(9.78877 0.123327 3.0115e-20)
(9.61917 0.129069 6.09204e-20)
(9.68846 0.145593 -1.2283e-19)
(9.48801 0.147133 1.35109e-19)
(9.57117 0.169166 0)
(9.33862 0.166611 9.64671e-20)
(9.43666 0.194443 4.98145e-22)
(9.17054 0.187797 3.02124e-21)
(9.28458 0.221821 1.67923e-19)
(8.98312 0.210964 -2.28438e-19)
(9.11455 0.251677 3.16617e-19)
(8.77551 0.236387 9.26085e-20)
(8.92586 0.284372 -5.46855e-19)
(8.54672 0.264342 4.16911e-19)
(8.71768 0.320289 4.16541e-19)
(8.29567 0.295094 -3.45362e-19)
(8.48902 0.359797 1.48155e-21)
(8.02115 0.328918 6.48779e-19)
(8.23882 0.403252 -1.7419e-19)
(7.72188 0.366082 3.85815e-19)
(7.96595 0.451062 3.63545e-19)
(7.39645 0.406799 -6.20074e-19)
(7.66911 0.503608 1.396e-18)
(7.04347 0.451197 7.17576e-19)
(7.34685 0.561151 -1.64099e-18)
(6.66161 0.499309 8.15317e-19)
(6.9977 0.62385 7.06841e-19)
(6.24967 0.550981 -7.82987e-19)
(6.62035 0.691721 -8.40848e-20)
(5.80667 0.605767 -8.72718e-19)
(6.21355 0.764462 -8.86044e-19)
(5.33208 0.662832 -2.54288e-19)
(5.77615 0.841336 2.01254e-18)
(4.82596 0.720808 -1.12201e-19)
(5.30738 0.921017 -1.64475e-18)
(4.28926 0.777574 -2.49169e-18)
(4.80691 1.00136 -3.6219e-19)
(3.72419 0.829893 -8.57642e-20)
(4.27515 1.07903 -2.32849e-18)
(3.13478 0.872731 2.42116e-18)
(3.71343 1.14891 1.89189e-18)
(2.52774 0.897751 -6.14073e-18)
(3.12421 1.20295 0)
(1.91388 0.889213 3.39685e-19)
(2.51077 1.22747 -1.60204e-17)
(1.30995 0.813889 5.94319e-18)
(1.87781 1.19608 2.83802e-17)
(0.717456 0.594034 8.65451e-18)
(1.19149 1.0636 -1.20079e-17)
(0.690193 0.73223 8.89342e-18)
(9.99088 0.0556606 1.70788e-19)
(10.0019 0.0433707 1.08814e-19)
(9.95765 0.0815656 1.32974e-19)
(9.97845 0.0778777 5.57947e-20)
(9.9036 0.105813 3.87592e-21)
(9.93408 0.107122 5.66069e-20)
(9.83209 0.131279 5.73431e-20)
(9.87144 0.136832 5.82254e-20)
(9.74379 0.158148 -1.88096e-19)
(9.792 0.167928 1.19127e-19)
(9.63904 0.186541 -1.81645e-19)
(9.6964 0.200462 -6.22427e-20)
(9.51799 0.216855 -1.34618e-19)
(9.58505 0.234876 0)
(9.38052 0.249558 7.47782e-20)
(9.45776 0.271751 -2.62358e-19)
(9.22627 0.285113 4.8405e-19)
(9.31424 0.311655 3.35304e-19)
(9.05471 0.323971 -1.60289e-20)
(9.15427 0.355121 1.4317e-19)
(8.86512 0.366588 -2.07178e-19)
(8.97731 0.40269 -8.62948e-19)
(8.65669 0.413416 -5.63096e-21)
(8.78271 0.454909 5.14794e-19)
(8.42849 0.464902 1.69881e-19)
(8.56976 0.512301 -7.79598e-20)
(8.1795 0.521531 -4.50989e-19)
(8.3376 0.575414 8.36699e-20)
(7.90851 0.583815 1.39007e-18)
(8.08527 0.644902 -6.79274e-19)
(7.61418 0.652181 3.28259e-19)
(7.81172 0.721414 2.02733e-18)
(7.29503 0.726904 -1.61627e-18)
(7.51566 0.80543 -1.64126e-18)
(6.94962 0.808111 -2.04653e-19)
(7.19563 0.897255 1.49818e-18)
(6.57652 0.895685 -1.98632e-19)
(6.85036 0.997043 1.38319e-18)
(6.17429 0.989068 2.04246e-18)
(6.47848 1.10462 4.49086e-19)
(5.74158 1.08708 5.71705e-19)
(6.0784 1.21923 -4.98335e-18)
(5.27729 1.18772 -1.87856e-18)
(5.64853 1.33933 1.91308e-18)
(4.78065 1.28777 -2.22865e-19)
(5.18725 1.4623 3.49266e-18)
(4.25136 1.38239 -3.02902e-19)
(4.69289 1.584 -3.63939e-18)
(3.68958 1.4642 -5.51381e-19)
(4.16367 1.69816 -3.80529e-20)
(3.09554 1.5219 -1.00106e-17)
(3.59714 1.79538 8.80314e-18)
(2.46729 1.53787 1.22335e-17)
(2.98866 1.86168 -1.92325e-17)
(1.79357 1.48701 1.04203e-17)
(2.33183 1.87638 3.14415e-17)
(1.02938 1.32979 -1.13589e-17)
(1.57219 1.8223 -2.235e-17)
(0.899221 1.63921 0)
(9.9866 0.0659661 -7.04328e-21)
(10.0007 0.049222 3.52529e-19)
(9.95351 0.102621 -2.05542e-20)
(9.97533 0.0928259 -1.38436e-19)
(9.90046 0.137299 1.11018e-19)
(9.93082 0.132013 2.66757e-22)
(9.83007 0.172712 1.21113e-19)
(9.86929 0.171123 -1.15863e-19)
(9.74343 0.209573 2.41816e-19)
(9.7915 0.211717 4.77316e-22)
(9.64102 0.248275 1.205e-19)
(9.69796 0.254131 -1.21823e-19)
(9.52307 0.289417 -1.32197e-19)
(9.58919 0.298949 5.00694e-19)
(9.38948 0.333657 8.22796e-21)
(9.46509 0.34693 -2.57835e-19)
(9.24004 0.381621 -8.81978e-21)
(9.32549 0.398753 -1.31351e-19)
(9.07442 0.433928 -7.20396e-19)
(9.17025 0.455068 -1.37767e-19)
(8.89215 0.491203 -1.1857e-19)
(8.99902 0.516557 1.33151e-19)
(8.69268 0.554056 4.33049e-19)
(8.81139 0.583889 -1.16683e-18)
(8.47539 0.623114 -1.61639e-19)
(8.60691 0.657722 1.19821e-18)
(8.23951 0.699084 -1.56625e-19)
(8.38488 0.738786 -1.59172e-19)
(7.98415 0.782738 0)
(8.14456 0.827933 -3.22172e-19)
(7.70829 0.874771 8.24703e-22)
(7.88524 0.92605 3.33917e-19)
(7.41072 0.975675 1.52228e-18)
(7.60601 1.03387 1.75008e-19)
(7.09021 1.08576 3.0861e-18)
(7.30568 1.15186 1.4998e-18)
(6.74545 1.20512 2.01916e-18)
(6.98307 1.28035 1.58687e-18)
(6.37492 1.3334 -6.65764e-18)
(6.63697 1.41947 5.81075e-20)
(5.97684 1.46951 -3.55268e-18)
(6.26572 1.56875 -6.60472e-18)
(5.5492 1.61135 7.31237e-18)
(5.86726 1.72684 6.72519e-18)
(5.08959 1.75551 -7.12991e-21)
(5.43905 1.8913 4.80129e-19)
(4.59508 1.8968 -3.33959e-18)
(4.97761 2.05813 -1.13468e-17)
(4.06161 2.02759 9.41014e-18)
(4.47841 2.22152 8.22687e-18)
(3.48271 2.13708 -6.15303e-19)
(3.93499 2.37327 9.33286e-18)
(2.84672 2.21063 1.78414e-19)
(3.33693 2.50255 -1.74008e-17)
(2.13209 2.23266 -1.34643e-18)
(2.67245 2.59534 1.90741e-17)
(1.29994 2.18622 -1.05198e-17)
(1.88491 2.64682 -1.07731e-17)
(1.10398 2.62246 -3.41922e-19)
(9.98446 0.0768286 2.13e-19)
(10.0001 0.0560076 2.36061e-22)
(9.95098 0.12266 -1.15064e-19)
(9.97375 0.107961 0)
(9.89878 0.166575 -2.28756e-19)
(9.92918 0.156522 -2.2492e-19)
(9.82964 0.211097 -2.34464e-19)
(9.86877 0.204828 -2.30531e-19)
(9.74479 0.257324 -3.65368e-19)
(9.79287 0.254634 -1.18701e-19)
(9.6447 0.305901 2.6911e-19)
(9.7017 0.306636 -4.86042e-19)
(9.52949 0.357582 3.6226e-19)
(9.59562 0.361591 7.48775e-19)
(9.39914 0.413142 -3.95351e-19)
(9.47468 0.420363 -7.68242e-19)
(9.25353 0.473299 -2.60472e-19)
(9.33882 0.483722 3.88617e-19)
(9.09244 0.538769 7.20436e-19)
(9.18793 0.552418 1.35658e-19)
(8.91558 0.610275 -9.36054e-19)
(9.02181 0.62722 5.69345e-19)
(8.7226 0.688546 -3.64386e-19)
(8.84022 0.708903 -1.46533e-18)
(8.51302 0.774357 1.1798e-18)
(8.64281 0.798286 9.03521e-19)
(8.28622 0.868574 -3.27274e-19)
(8.42896 0.896265 0)
(8.04155 0.972141 2.17817e-20)
(8.19809 1.00382 -5.58379e-21)
(7.77836 1.08598 5.05941e-19)
(7.94972 1.12197 6.50171e-21)
(7.49581 1.2108 1.71699e-19)
(7.68329 1.2517 1.74383e-19)
(7.19287 1.34711 0)
(7.39795 1.39371 0)
(6.8684 1.49527 -3.97367e-19)
(7.09252 1.54856 0)
(6.52099 1.65529 2.39108e-20)
(6.76591 1.71668 -1.81586e-20)
(6.14879 1.82646 3.85776e-18)
(6.41664 1.89808 1.38782e-20)
(5.74927 2.00714 -1.90969e-19)
(6.04247 2.09198 -3.0899e-18)
(5.31894 2.1944 -1.10088e-17)
(5.64042 2.29667 3.15576e-18)
(4.85289 2.38381 4.2093e-19)
(5.20585 2.50903 -4.36644e-19)
(4.34423 2.5692 8.16304e-18)
(4.7325 2.72465 4.97245e-19)
(3.78263 2.74241 -7.65014e-18)
(4.21186 2.93777 3.0671e-20)
(3.15275 2.89322 1.63157e-18)
(3.63096 3.14116 -8.12383e-18)
(2.43207 3.01131 9.68189e-18)
(2.97689 3.32525 1.02071e-17)
(1.59521 3.09121 -3.50525e-19)
(2.20585 3.48393 -1.75504e-17)
(1.34111 3.61684 -3.27378e-20)
(9.98348 0.0880396 -2.12832e-19)
(9.99992 0.0632203 -3.77805e-19)
(9.9498 0.14253 -1.14e-19)
(9.97313 0.123195 1.64217e-19)
(9.8986 0.195465 -2.26809e-19)
(9.92883 0.180587 3.35728e-19)
(9.83113 0.249064 -1.12764e-19)
(9.86988 0.237748 -3.4344e-19)
(9.74853 0.304614 -2.45771e-19)
(9.79624 0.296459 0)
(9.65116 0.362986 1.47933e-20)
(9.70779 0.357771 -1.24679e-21)
(9.5391 0.425045 -4.07448e-19)
(9.60482 0.422596 -2.44274e-19)
(9.41242 0.49164 3.4986e-20)
(9.48751 0.49183 -3.8838e-19)
(9.27107 0.563577 7.80859e-19)
(9.35591 0.566334 1.17571e-18)
(9.11493 0.641655 -8.54594e-21)
(9.20996 0.646942 6.76844e-19)
(8.94383 0.726698 7.6893e-21)
(9.04956 0.7345 -1.50538e-18)
(8.75748 0.819577 -1.59763e-19)
(8.87453 0.82991 9.95762e-19)
(8.55544 0.921225 -2.91006e-19)
(8.68453 0.93416 -1.45128e-18)
(8.33722 1.03264 3.21808e-19)
(8.47904 1.04828 0)
(8.10233 1.15486 -2.05366e-20)
(8.25762 1.17332 3.17178e-19)
(7.85031 1.28899 -3.23103e-19)
(8.01987 1.3104 -3.28123e-19)
(7.5806 1.43599 0)
(7.7654 1.46069 -2.31945e-18)
(7.29233 1.59663 0)
(7.49361 1.62525 3.03636e-18)
(6.98439 1.77153 3.79494e-19)
(7.20335 1.8049 2.81965e-18)
(6.65551 1.96114 -2.74321e-20)
(6.89358 2.00036 2.95621e-18)
(6.30389 2.16537 -6.98363e-18)
(6.56295 2.21218 -6.7051e-18)
(5.92686 2.38341 3.26868e-19)
(6.20918 2.44037 -6.52525e-18)
(5.52039 2.61332 1.37236e-17)
(5.82925 2.68435 5.90972e-18)
(5.07859 2.85197 -3.43364e-19)
(5.41822 2.94234 7.0423e-18)
(4.59327 3.09534 -7.67193e-18)
(4.96897 3.21154 -8.10387e-18)
(4.05301 3.33829 -4.8219e-19)
(4.47239 3.48869 -1.35232e-18)
(3.44235 3.57421 5.11491e-19)
(3.91547 3.76952 4.36356e-19)
(2.74006 3.79272 -1.705e-17)
(3.28416 4.0476 -4.3163e-19)
(1.93672 3.99098 -1.67126e-17)
(2.56347 4.30235 -3.34217e-17)
(1.62163 4.58311 3.47393e-17)
(9.98313 0.099386 8.37069e-21)
(9.99994 0.0705869 5.36652e-20)
(9.9496 0.162152 6.17204e-19)
(9.97312 0.138375 -5.43041e-20)
(9.89967 0.223688 2.06849e-19)
(9.92951 0.204077 2.28778e-21)
(9.83429 0.285999 -2.24597e-19)
(9.8724 0.269687 -2.28085e-19)
(9.75427 0.350522 2.44559e-19)
(9.8013 0.337026 -4.66982e-19)
(9.65997 0.418327 -2.64462e-19)
(9.71584 0.407364 7.1537e-19)
(9.55154 0.490373 -2.27654e-19)
(9.61642 0.481714 -2.48121e-19)
(9.4291 0.567567 7.78383e-19)
(9.50331 0.561021 -2.47794e-19)
(9.29269 0.650793 1.06362e-18)
(9.37662 0.64621 -5.09041e-19)
(9.14227 0.740939 -8.55049e-19)
(9.23636 0.738199 2.38578e-18)
(8.97769 0.838941 -4.78217e-19)
(9.08247 0.837942 -1.90241e-18)
(8.79869 0.945812 -3.33661e-19)
(8.91475 0.946474 8.53712e-19)
(8.60491 1.06262 -1.1386e-18)
(8.73294 1.06492 -5.85807e-19)
(8.39594 1.19046 0)
(8.53663 1.19441 2.36123e-18)
(8.17139 1.33048 0)
(8.32544 1.33609 -2.4012e-18)
(7.93086 1.48388 -2.35423e-18)
(8.09906 1.49119 0)
(7.67387 1.6519 7.9208e-19)
(7.85707 1.66106 -2.6437e-18)
(7.39971 1.83561 5.85835e-18)
(7.59898 1.84706 6.84095e-20)
(7.10736 2.03597 5.40391e-18)
(7.32386 2.05035 5.51395e-18)
(6.79556 2.2538 -3.84539e-18)
(7.0307 2.27202 2.58742e-18)
(6.46253 2.48976 -6.2472e-18)
(6.71804 2.51312 -6.67992e-18)
(6.1056 2.74408 -8.01299e-19)
(6.3837 2.77458 5.90597e-18)
(5.72085 3.01625 -7.84853e-19)
(6.02472 3.05701 -5.29743e-18)
(5.30223 3.30469 -8.53782e-19)
(5.63661 3.36035 -7.69024e-19)
(4.84125 3.60726 -1.7225e-18)
(5.21218 3.68349 1.27538e-17)
(4.32679 3.92138 -4.24415e-19)
(4.7422 4.025 -1.31185e-17)
(3.7449 4.24305 -5.11253e-19)
(4.21518 4.38265 -4.04432e-19)
(3.074 4.55771 -1.67774e-17)
(3.61213 4.75375 -5.16597e-19)
(2.3182 4.85665 2.03713e-17)
(2.96302 5.09101 -1.54347e-17)
(1.94491 5.50041 3.47495e-17)
(9.98315 0.110682 -1.07389e-20)
(9.99999 0.0779435 5.88931e-19)
(9.95019 0.181363 -6.68381e-19)
(9.97359 0.153312 -1.64378e-19)
(9.90183 0.251056 -4.36932e-19)
(9.93115 0.226856 -1.59451e-21)
(9.83881 0.321724 -4.74722e-19)
(9.87608 0.300515 2.27301e-19)
(9.76168 0.394922 2.42475e-20)
(9.8077 0.376188 -4.6715e-19)
(9.67083 0.471831 7.15534e-19)
(9.72558 0.455219 9.23429e-22)
(9.56653 0.553472 -2.68191e-19)
(9.63018 0.538682 7.26312e-19)
(9.44896 0.640815 -1.54001e-18)
(9.52183 0.627591 2.44509e-19)
(9.31822 0.73482 8.59398e-19)
(9.40071 0.722944 -5.1801e-19)
(9.17428 0.836474 1.27133e-18)
(9.26685 0.825751 2.11474e-18)
(9.01701 0.946833 -5.27551e-19)
(9.12021 0.937083 -2.66755e-18)
(8.84619 1.06703 5.79704e-19)
(8.96061 1.05809 2.18415e-18)
(8.66155 1.19826 2.96009e-18)
(8.78784 1.19 1.14858e-18)
(8.46277 1.34171 -1.09144e-19)
(8.60163 1.33404 -2.07988e-19)
(8.2495 1.49862 -2.36862e-18)
(8.40168 1.4915 -2.69758e-18)
(8.02137 1.67037 -3.25354e-19)
(8.18768 1.66372 3.00776e-19)
(7.77792 1.8584 -3.33254e-18)
(7.95923 1.85224 -6.29528e-19)
(7.51857 2.06416 -2.12058e-19)
(7.71587 2.05867 -2.3473e-18)
(7.24241 2.28897 2.65826e-18)
(7.45691 2.28457 2.69457e-18)
(6.94817 2.53411 -3.55033e-19)
(7.18135 2.53146 -6.02409e-18)
(6.63403 2.8009 5.6322e-18)
(6.8877 2.80101 1.12601e-17)
(6.29743 3.09062 1.30158e-18)
(6.57389 3.09492 -5.24867e-18)
(5.93474 3.40436 -5.24855e-18)
(6.23701 3.41497 6.17844e-18)
(5.54036 3.74243 1.29731e-17)
(5.87309 3.76294 -6.56845e-18)
(5.10622 4.10423 1.21468e-18)
(5.47571 4.1397 1.29304e-17)
(4.62176 4.48882 -1.30763e-17)
(5.03573 4.54523 -1.67697e-19)
(4.07484 4.89431 -4.10303e-19)
(4.54366 4.97812 -2.55119e-17)
(3.44082 5.30052 8.79278e-19)
(3.97008 5.44179 1.29911e-17)
(2.73028 5.68639 6.90075e-19)
(3.40307 5.85372 3.3962e-20)
(2.30684 6.38137 1.45642e-17)
(9.98344 0.121765 4.22753e-19)
(10.0001 0.0851757 3.19334e-19)
(9.95151 0.200004 5.05606e-19)
(9.97446 0.167798 5.40291e-19)
(9.90497 0.277458 6.66949e-19)
(9.93357 0.248808 8.8438e-19)
(9.84444 0.356135 2.22753e-19)
(9.88067 0.33017 1.63268e-21)
(9.77046 0.437661 -4.82441e-19)
(9.8152 0.413812 0)
(9.68349 0.523268 2.37395e-20)
(9.73681 0.501118 -4.74401e-19)
(9.58385 0.614032 1.23135e-18)
(9.64591 0.593219 1.50065e-21)
(9.47176 0.711 1.25488e-18)
(9.54287 0.691208 2.21597e-18)
(9.34733 0.815219 7.79381e-19)
(9.42791 0.796166 -1.48926e-18)
(9.21056 0.92778 -1.89983e-18)
(9.30107 0.909197 1.54536e-18)
(9.06135 1.04985 1.18189e-19)
(9.16234 1.03147 -2.13472e-18)
(8.89954 1.18266 2.73882e-18)
(9.01161 1.16424 1.37562e-18)
(8.72495 1.3275 -2.04127e-18)
(8.84875 1.30882 4.42548e-18)
(8.53733 1.48568 -2.83466e-18)
(8.67359 1.46655 -2.27127e-18)
(8.3364 1.65858 1.56143e-20)
(8.48588 1.63883 -2.29281e-18)
(8.12183 1.84773 -1.56683e-20)
(8.28539 1.8272 -5.78779e-19)
(7.89321 2.0548 3.35927e-19)
(8.07175 2.03333 5.90621e-19)
(7.65 2.28154 6.24772e-19)
(7.84458 2.25911 -5.94351e-19)
(7.39141 2.52972 -6.10207e-18)
(7.60333 2.50647 6.22494e-19)
(7.11625 2.80122 5.78777e-18)
(7.34699 2.77748 -6.03124e-18)
(6.82276 3.09808 2.08676e-19)
(7.07433 3.07449 1.16473e-17)
(6.50848 3.42247 -2.77966e-19)
(6.78342 3.40002 -1.12127e-17)
(6.16999 3.77692 4.78183e-18)
(6.47139 3.75689 1.07404e-17)
(5.80241 4.16379 -6.51115e-18)
(6.13452 4.14849 -5.13239e-18)
(5.39844 4.58434 1.14983e-17)
(5.76755 4.57801 -1.10923e-17)
(4.94801 5.03861 -1.26736e-17)
(5.36168 5.04728 2.40476e-17)
(4.44031 5.5268 -1.2054e-17)
(4.90988 5.55466 -2.5492e-17)
(3.84541 6.02457 1.21689e-17)
(4.36636 6.11311 1.26291e-17)
(3.1721 6.49642 1.45005e-17)
(3.88805 6.60177 1.05602e-17)
(2.70969 7.26272 1.72645e-18)
(9.98397 0.132497 4.40422e-19)
(10.0003 0.0921801 -4.79668e-19)
(9.95333 0.217942 9.25483e-19)
(9.97562 0.181712 2.69152e-19)
(9.9088 0.302805 2.03087e-19)
(9.93645 0.269844 4.39701e-19)
(9.85097 0.389127 -2.2125e-19)
(9.88595 0.358553 -3.37384e-22)
(9.78048 0.478558 0)
(9.8237 0.449737 2.37431e-21)
(9.69782 0.572383 -4.88711e-19)
(9.74941 0.544835 -2.31498e-19)
(9.60334 0.67175 1.02225e-18)
(9.66345 0.64506 -7.20036e-19)
(9.49726 0.777785 -5.87926e-19)
(9.56621 0.751585 1.71254e-18)
(9.37969 0.891623 -6.76409e-19)
(9.45791 0.865568 -2.00424e-18)
(9.25069 1.01444 1.25503e-18)
(9.33863 0.988186 2.28898e-18)
(9.11022 1.14751 -8.24421e-19)
(9.20843 1.1207 -1.03038e-18)
(8.95821 1.29213 3.10643e-18)
(9.06728 1.26443 -1.33786e-18)
(8.79455 1.44971 4.10342e-18)
(8.91513 1.4208 1.42098e-18)
(8.61908 1.62167 -1.7281e-18)
(8.75191 1.59126 2.2172e-18)
(8.43159 1.80954 -2.86637e-18)
(8.57747 1.77734 -1.44441e-18)
(8.2318 2.01502 4.22623e-20)
(8.39164 1.98073 -2.60229e-18)
(8.01942 2.24001 -3.54386e-19)
(8.19413 2.20329 2.63429e-18)
(7.79398 2.48656 -5.84157e-19)
(7.98468 2.44717 4.12538e-18)
(7.55477 2.75688 6.25769e-19)
(7.76292 2.7147 -4.18628e-18)
(7.30078 3.05351 9.06668e-21)
(7.52791 3.00841 4.92861e-18)
(7.03049 3.37932 0)
(7.27872 3.33141 -4.94532e-18)
(6.74158 3.73749 0)
(7.01368 3.68726 5.02713e-18)
(6.43081 4.13169 6.95827e-19)
(6.73023 4.0799 -5.05443e-18)
(6.09392 4.56622 -9.75196e-18)
(6.42471 4.51403 -8.86937e-18)
(5.72449 5.0448 1.59662e-18)
(6.09286 4.99515 -1.03881e-17)
(5.31273 5.56875 1.11517e-17)
(5.72639 5.5279 2.15076e-17)
(4.84857 6.14077 -6.9193e-19)
(5.3216 6.11047 -4.65322e-20)
(4.29646 6.73489 1.10256e-17)
(4.81141 6.76832 0)
(3.66117 7.30392 -3.10429e-18)
(4.43 7.34106 1.13556e-17)
(3.16348 8.16168 8.76466e-18)
(9.9847 0.142788 -6.3874e-19)
(10.0007 0.0988672 -3.58276e-21)
(9.95545 0.235095 -2.13841e-19)
(9.97699 0.195009 -1.07356e-18)
(9.9131 0.326995 2.28359e-19)
(9.93965 0.289888 -6.16566e-22)
(9.85827 0.420547 2.23388e-19)
(9.89181 0.38552 -2.17765e-19)
(9.79162 0.517413 -2.3317e-19)
(9.83309 0.483783 2.37538e-21)
(9.71368 0.618941 -4.70964e-19)
(9.76327 0.586165 2.29216e-19)
(9.62478 0.726367 9.56674e-21)
(9.68262 0.693979 -9.42585e-19)
(9.52515 0.840894 2.37283e-19)
(9.59157 0.808476 4.81027e-19)
(9.41494 0.96372 1.02845e-18)
(9.49038 0.930865 2.43288e-19)
(9.29427 1.0961 -4.70332e-20)
(9.37916 1.06238 5.15715e-19)
(9.16319 1.23937 -1.54881e-18)
(9.25807 1.20436 -1.03144e-18)
(9.0217 1.39495 -2.98603e-18)
(9.12714 1.35821 -2.67649e-19)
(8.86979 1.5643 -4.57979e-19)
(8.98643 1.52542 -1.90885e-18)
(8.7074 1.74898 2.45438e-18)
(8.83597 1.70755 2.18515e-18)
(8.53441 1.95068 -1.19345e-18)
(8.67573 1.90627 5.52813e-19)
(8.35065 2.17126 5.42695e-20)
(8.50571 2.12342 -1.72373e-18)
(8.15591 2.41281 7.13791e-18)
(8.3256 2.36102 1.73644e-18)
(7.94993 2.67777 4.35694e-19)
(8.13541 2.6215 5.36692e-18)
(7.73217 2.96876 2.07907e-19)
(7.93502 2.90757 -1.86913e-19)
(7.50181 3.2889 -1.15797e-19)
(7.72367 3.22224 -3.83494e-18)
(7.25763 3.64198 1.64008e-19)
(7.50067 3.56935 -5.56192e-18)
(6.9977 4.03237 -9.7515e-20)
(7.2648 3.95347 9.78093e-18)
(6.71917 4.465 -1.46743e-17)
(7.01413 4.37997 -5.0744e-18)
(6.41816 4.94588 -9.52821e-18)
(6.74548 4.85502 -1.02047e-17)
(6.08915 5.48164 9.66624e-18)
(6.45521 5.38619 -5.60649e-19)
(5.72247 6.07604 1.02495e-17)
(6.13524 5.98195 9.6448e-18)
(5.30823 6.73503 6.49424e-19)
(5.7866 6.64146 6.52256e-19)
(4.8064 7.43306 3.27429e-19)
(5.3176 7.40441 0)
(4.21559 8.11456 2.28056e-17)
(5.04169 8.07246 3.26882e-19)
(3.68053 9.07768 4.00678e-17)
(9.98553 0.15258 -4.5619e-19)
(10.0011 0.105193 -1.04429e-19)
(9.95783 0.2514 -8.40881e-19)
(9.97847 0.207627 -3.23818e-19)
(9.91785 0.349926 -4.50777e-19)
(9.94314 0.308851 -2.16954e-19)
(9.86627 0.450244 -4.35174e-19)
(9.89822 0.410946 2.18267e-19)
(9.80378 0.554039 4.68725e-19)
(9.84332 0.515793 4.49412e-19)
(9.73089 0.662736 -2.61606e-19)
(9.77825 0.624933 -6.78061e-19)
(9.64794 0.777659 -4.48387e-19)
(9.70324 0.73978 -7.03617e-19)
(9.55516 0.900069 4.83358e-19)
(9.61872 0.861655 4.75872e-19)
(9.45276 1.03121 -2.65595e-19)
(9.52503 0.991797 -9.64579e-19)
(9.34094 1.1724 -4.92091e-19)
(9.42233 1.13148 9.69749e-19)
(9.21981 1.32504 2.61635e-19)
(9.31084 1.2821 7.49448e-19)
(9.08949 1.49062 7.88189e-19)
(9.19069 1.44516 1.28568e-18)
(8.95005 1.6707 7.91095e-19)
(9.06206 1.62219 -2.04976e-18)
(8.80156 1.86695 2.60599e-19)
(8.92508 1.81485 2.69769e-19)
(8.64407 2.08121 -5.39658e-21)
(8.77989 2.02492 -5.40191e-19)
(8.47752 2.31546 0)
(8.62664 2.2544 2.16354e-18)
(8.30185 2.57201 0)
(8.46522 2.50547 2.20197e-18)
(8.11703 2.85361 4.68779e-18)
(8.29589 2.78073 2.26982e-20)
(7.92282 3.16336 -4.26212e-18)
(8.11866 3.08327 4.10412e-18)
(7.71865 3.50498 -9.31595e-18)
(7.93319 3.41671 -1.27017e-17)
(7.50369 3.88304 4.17816e-18)
(7.73924 3.78551 -5.07668e-18)
(7.27665 4.30312 4.71629e-18)
(7.53613 4.19509 9.22959e-18)
(7.03552 4.77183 -6.04906e-19)
(7.32269 4.65219 8.88311e-18)
(6.77694 5.29712 -1.18256e-18)
(7.09716 5.16511 -6.65113e-19)
(6.49612 5.88859 -5.79251e-19)
(6.85651 5.74363 -9.25681e-18)
(6.18375 6.55403 0)
(6.59265 6.40072 0)
(5.82939 7.30449 0)
(6.31297 7.13883 0)
(5.38954 8.11791 0)
(5.90077 8.01328 0)
(4.84643 8.94199 1.94952e-17)
(5.74092 8.80108 0)
(4.28193 10.0483 1.79658e-17)
(9.98639 0.161827 2.42248e-20)
(10.0015 0.111146 -1.0922e-19)
(9.9604 0.266775 3.02356e-19)
(9.98002 0.219491 7.45355e-19)
(9.92301 0.371485 4.60039e-19)
(9.94693 0.326627 -6.47429e-19)
(9.87495 0.478081 1.10723e-18)
(9.90518 0.43471 4.43364e-19)
(9.81688 0.588283 -7.16559e-19)
(9.85439 0.545627 8.9536e-19)
(9.74934 0.703601 -1.12084e-18)
(9.79431 0.660986 -1.13761e-18)
(9.67263 0.825442 2.39677e-19)
(9.72512 0.782303 0)
(9.58703 0.955099 -9.94776e-19)
(9.64739 0.910941 1.59082e-21)
(9.49283 1.09384 2.99807e-19)
(9.56154 1.04814 -1.20887e-18)
(9.39029 1.24303 2.2093e-18)
(9.46775 1.19521 1.22642e-18)
(9.27961 1.40415 1.7819e-18)
(9.3663 1.35362 -2.32837e-19)
(9.161 1.57874 -1.59856e-18)
(9.25741 1.52491 2.0203e-18)
(9.03467 1.76842 -2.54291e-18)
(9.14139 1.71068 -2.57784e-18)
(8.90081 1.97497 -5.41728e-19)
(9.01852 1.91264 2.05445e-18)
(8.75965 2.20031 1.66217e-18)
(8.88914 2.13265 -4.68161e-18)
(8.61138 2.44661 4.37016e-18)
(8.75349 2.37282 6.87742e-18)
(8.45618 2.71638 2.20512e-18)
(8.61187 2.6355 -4.13843e-18)
(8.29418 3.01257 -5.23693e-19)
(8.46477 2.9235 -5.20118e-19)
(8.12547 3.33869 -4.48515e-18)
(8.31235 3.24015 3.72267e-18)
(7.94998 3.69909 -8.39999e-18)
(8.15487 3.58954 -1.84787e-19)
(7.76749 4.09909 5.86818e-20)
(7.99269 3.97672 -8.73562e-18)
(7.57753 4.5452 1.34044e-17)
(7.82599 4.40789 3.96873e-18)
(7.37923 5.04597 8.81079e-18)
(7.65451 4.89091 8.90983e-18)
(7.17044 5.61177 -8.7642e-18)
(7.47838 5.43635 8.04643e-18)
(6.94754 6.25536 -8.68255e-18)
(7.29636 6.05672 -1.61865e-17)
(6.70256 6.99041 0)
(7.10134 6.76983 -7.49368e-18)
(6.42408 7.837 0)
(6.90851 7.58519 6.91284e-18)
(6.06748 8.78383 0)
(6.58288 8.57547 0)
(5.5882 9.81531 -7.12472e-19)
(6.56651 9.5247 -5.5419e-18)
(5.01897 11.1486 5.69476e-18)
(9.98725 0.170487 6.2618e-19)
(10.0018 0.11673 7.92502e-22)
(9.96313 0.281121 -2.30004e-19)
(9.98166 0.230524 2.122e-19)
(9.92862 0.39154 -6.44905e-19)
(9.95101 0.343086 -4.30579e-19)
(9.88435 0.503919 2.39049e-19)
(9.91268 0.456671 -2.1634e-19)
(9.83094 0.620014 4.40517e-19)
(9.8662 0.573171 5.93367e-21)
(9.76888 0.741408 2.0482e-21)
(9.81122 0.694243 -4.46978e-19)
(9.69857 0.869555 -2.38169e-19)
(9.74797 0.821463 4.53978e-19)
(9.6204 1.00577 -2.30913e-19)
(9.67726 0.956185 -2.34565e-19)
(9.53475 1.15135 -2.4603e-19)
(9.59957 1.09968 4.67575e-19)
(9.44189 1.30771 -1.23814e-18)
(9.51503 1.25333 -2.42545e-19)
(9.3421 1.47637 3.59015e-20)
(9.42399 1.41865 -2.43441e-18)
(9.23566 1.6589 9.80668e-19)
(9.32673 1.59717 1.96977e-18)
(9.12296 1.85698 2.08176e-18)
(9.22377 1.79052 0)
(9.00439 2.07244 -2.16787e-18)
(9.11557 2.00043 4.06347e-18)
(8.88033 2.30729 6.65591e-19)
(9.00258 2.22887 -6.16766e-18)
(8.75121 2.5638 -1.75291e-18)
(8.88529 2.47798 3.6996e-18)
(8.61752 2.84467 -6.83721e-18)
(8.76428 2.75021 -2.25536e-18)
(8.4797 3.15304 3.76817e-18)
(8.64033 3.04857 -8.23654e-18)
(8.33827 3.49272 8.00559e-18)
(8.51409 3.37657 8.37697e-18)
(8.19379 3.86849 -5.67166e-19)
(8.38641 3.73853 -3.40487e-19)
(8.04686 4.28632 -4.75756e-18)
(8.25835 4.1399 3.12116e-19)
(7.89806 4.75357 -5.20543e-19)
(8.13117 4.58752 -1.71612e-20)
(7.74795 5.28023 8.14082e-18)
(8.00606 5.0901 0)
(7.59657 5.87916 6.1487e-19)
(7.88524 5.65976 8.12416e-18)
(7.44297 6.56683 -1.49936e-17)
(7.77091 6.31163 -7.49526e-18)
(7.28281 7.36412 -6.18317e-19)
(7.65961 7.06809 -7.49411e-18)
(7.10587 8.30499 6.89848e-18)
(7.57656 7.94895 1.34604e-17)
(6.87515 9.4022 -5.57236e-18)
(7.38677 9.04395 -1.14421e-17)
(6.5249 10.7578 2.09502e-18)
(7.5797 10.1951 -4.9278e-18)
(5.96376 12.4404 1.18973e-17)
(9.98818 0.178521 -4.09938e-19)
(10.0021 0.121913 -3.46846e-20)
(9.9661 0.294354 0)
(9.98348 0.240654 0)
(9.93463 0.409996 1.95297e-21)
(9.95534 0.358148 0)
(9.89429 0.527681 -4.45781e-19)
(9.92051 0.476765 4.09123e-19)
(9.84564 0.649179 -8.89466e-19)
(9.87846 0.59838 7.93092e-19)
(9.78918 0.776098 1.93924e-20)
(9.82868 0.724664 -3.65175e-20)
(9.72545 0.909902 4.47052e-19)
(9.77161 0.85717 8.92155e-19)
(9.655 1.05193 4.74797e-19)
(9.70826 0.997247 -1.73129e-18)
(9.57821 1.20356 4.60925e-19)
(9.639 1.14627 9.12019e-19)
(9.49534 1.36623 -1.46992e-18)
(9.56399 1.30569 -8.91742e-19)
(9.40674 1.54147 -4.40919e-19)
(9.48365 1.47701 1.2309e-18)
(9.31284 1.73084 9.63322e-19)
(9.39843 1.66174 -1.27695e-18)
(9.21421 1.93605 2.03249e-18)
(9.30907 1.86147 0)
(9.11142 2.15897 -5.62866e-20)
(9.21601 2.07796 1.85247e-19)
(9.00505 2.40166 -3.02488e-18)
(9.11995 2.31323 -6.53209e-19)
(8.89574 2.66646 3.13656e-18)
(9.02174 2.56948 1.31798e-18)
(8.78424 2.95609 -3.70611e-18)
(8.92212 2.84915 2.29847e-18)
(8.67156 3.27389 -3.49465e-18)
(8.82226 3.15526 -1.16204e-17)
(8.55878 3.62387 -4.15595e-20)
(8.72334 3.49142 1.16988e-17)
(8.4471 4.01097 5.39693e-19)
(8.62691 3.86213 -7.90014e-18)
(8.33808 4.44148 5.06222e-18)
(8.53489 4.27287 4.66524e-18)
(8.23374 4.92338 5.04461e-19)
(8.44971 4.73065 9.60747e-19)
(8.13654 5.46743 0)
(8.37458 5.24454 0)
(8.04969 6.08797 0)
(8.31415 5.82695 0)
(7.97677 6.80446 0)
(8.27526 6.49405 -3.13354e-18)
(7.92117 7.64405 6.55194e-18)
(8.26159 7.27004 3.04122e-18)
(7.88111 8.65581 -4.92525e-18)
(8.3125 8.18283 6.64746e-18)
(7.84584 9.89651 -1.10854e-17)
(8.32882 9.32984 -1.15196e-17)
(7.75701 11.858 7.10885e-18)
(8.95804 10.6698 5.23255e-19)
(8.58176 14.0291 5.13188e-18)
(0.0175954 -0.0300647 -2.87489e-21)
(-0.0250354 -0.0156172 2.77484e-21)
(0.146755 -0.068162 1.32926e-23)
(0.0819824 -0.10812 -5.832e-21)
(0.32103 -0.0754226 1.4252e-23)
(0.239265 -0.134066 6.87763e-24)
(0.490005 -0.0641433 -6.84974e-21)
(0.402949 -0.121619 0)
(0.631146 -0.0476286 -1.16374e-20)
(0.554938 -0.0968621 -7.01938e-21)
(0.737375 -0.0314743 -2.79669e-22)
(0.680207 -0.0707245 -2.03295e-20)
(0.809186 -0.0176208 8.20319e-21)
(0.773383 -0.0470521 2.2495e-20)
(0.851069 -0.00666424 5.01491e-21)
(0.836132 -0.0272784 2.82885e-20)
(0.869738 0.00151501 6.37326e-21)
(0.873759 -0.0121284 -2.61955e-20)
(0.871325 0.00724648 -9.53603e-23)
(0.892697 -0.000939211 1.60618e-20)
(0.859643 0.0109059 -4.71076e-21)
(0.897816 0.00785756 -9.39323e-21)
(0.838927 0.0128183 1.65003e-21)
(0.891844 0.0139225 -1.30993e-20)
(0.813611 0.0133683 3.2636e-21)
(0.877925 0.0170372 3.30487e-21)
(0.786522 0.013346 1.63311e-21)
(0.860072 0.0182423 3.26822e-21)
(0.758223 0.0132761 -2.4466e-21)
(0.84001 0.0190349 -3.26052e-21)
(0.728887 0.0129635 -8.10231e-22)
(0.817533 0.0196728 -1.59513e-21)
(0.700221 0.0118873 0)
(0.793046 0.0191388 0)
(0.675339 0.00960129 0)
(0.768909 0.0165242 0)
(0.657303 0.00588776 0)
(0.748709 0.0119138 0)
(0.648059 0.00139216 -6.48544e-22)
(0.735365 0.00609176 1.3864e-21)
(0.648457 -0.00250334 6.11989e-22)
(0.729797 -0.00019301 -6.51765e-22)
(0.657234 -0.00543802 1.28196e-21)
(0.731161 -0.00556822 1.84678e-21)
(0.672567 -0.00776674 2.64926e-22)
(0.738463 -0.00969571 -2.3126e-21)
(0.692975 -0.00949644 3.48964e-23)
(0.750612 -0.0128208 1.6367e-21)
(0.717337 -0.0107817 -4.29912e-22)
(0.766305 -0.0151927 1.15045e-25)
(0.745382 -0.0120188 -4.39958e-23)
(0.784856 -0.0173547 -1.00138e-24)
(0.778109 -0.0136286 2.61643e-22)
(0.806635 -0.0200963 1.59109e-24)
(0.817125 -0.0155758 1.0827e-22)
(0.832736 -0.0237742 1.34716e-22)
(0.86276 -0.0171767 -3.19503e-23)
(0.86425 -0.027596 3.3046e-22)
(0.913115 -0.0295685 -8.7657e-24)
(0.038846 -0.0956206 5.49848e-22)
(-0.00937646 -0.0563469 -4.14429e-21)
(0.165041 -0.184139 -6.07277e-21)
(0.0957665 -0.219854 -5.85991e-21)
(0.32144 -0.19353 -1.39042e-23)
(0.227992 -0.254993 -1.35217e-23)
(0.476656 -0.167487 0)
(0.368867 -0.231873 2.57599e-20)
(0.612445 -0.130719 -1.75079e-20)
(0.501093 -0.188213 -2.49526e-20)
(0.721146 -0.0942268 -8.02075e-22)
(0.612451 -0.141524 2.16486e-20)
(0.802016 -0.0622621 4.2376e-20)
(0.698165 -0.0989322 2.12903e-20)
(0.858122 -0.0365056 -3.16224e-21)
(0.759088 -0.0631859 -2.1282e-20)
(0.895458 -0.0168226 -1.64825e-20)