/*--------------------------------*- C++ -*----------------------------------*\
| =========                 |                                                 |
| \\      /  F ield         | OpenFOAM: The Open Source CFD Toolbox           |
|  \\    /   O peration     | Version:  2006                                  |
|   \\  /    A nd           | Website:  www.openfoam.com                      |
|    \\/     M anipulation  |                                                 |
\*---------------------------------------------------------------------------*/
FoamFile
{
    version     2.0;
    format      ascii;
    class       volScalarField;
    location    "0.5";
    object      p;
}
// * * * * * * * * * * * * * * * * * * * * * * * * * * * * * * * * * * * * * //

dimensions      [0 2 -2 0 0 0 0];


internalField   nonuniform List<scalar> 
2790
(
83.5697
83.3991
83.549
83.9753
84.5812
85.333
86.2294
87.2717
88.4586
89.788
91.258
92.8673
94.6139
96.4941
98.5013
100.625
102.85
105.154
107.506
109.866
112.184
114.404
116.462
118.297
119.856
121.099
122.012
122.617
122.965
123.163
83.3761
83.3164
83.4917
83.9155
84.5184
85.268
86.1609
87.1983
88.3791
89.7011
91.1628
92.7627
94.499
96.368
98.3636
100.475
102.689
104.983
107.328
109.685
112.006
114.235
116.31
118.171
119.761
121.041
121.998
122.662
123.109
123.477
83.1958
83.2066
83.402
83.8171
84.409
85.1484
86.0292
87.0518
88.215
89.5167
90.9548
92.5277
94.2333
96.068
98.0253
100.095
102.264
104.512
106.811
109.125
111.41
113.614
115.681
117.555
119.188
120.546
121.623
122.447
123.061
123.566
82.9981
83.0405
83.2499
83.6586
84.2388
84.9653
85.8308
86.8342
87.9743
89.2486
90.6548
92.1908
93.8539
95.6403
97.5431
99.5524
101.655
103.832
106.059
108.302
110.521
112.671
114.704
116.571
118.233
119.663
120.856
121.82
122.553
123.12
82.7732
82.8306
83.0504
83.4545
84.0219
84.732
85.5772
86.5558
87.666
88.905
90.2702
91.7588
93.3678
95.0929
96.9269
98.8595
100.878
102.965
105.098
107.246
109.375
111.445
113.416
115.248
116.908
118.37
119.619
120.64
121.379
121.841
82.5167
82.5808
82.8053
83.203
83.755
84.4447
85.2648
86.2132
87.2875
88.4845
89.8008
91.2332
92.7781
94.4309
96.1838
98.0259
99.9449
101.925
103.945
105.978
107.991
109.953
111.83
113.587
115.195
116.626
117.85
118.833
119.485
119.732
82.2265
82.2928
82.517
82.9057
83.4402
84.1063
84.8973
85.8106
86.8434
87.9917
89.2518
90.6195
92.0911
93.6613
95.3212
97.0597
98.8648
100.722
102.611
104.506
106.378
108.201
109.945
111.58
113.075
114.4
115.517
116.373
116.877
116.87
81.9021
81.9678
82.1877
82.5646
83.0793
83.7186
84.4767
85.3503
86.3361
87.4296
88.6264
89.922
91.3117
92.7893
94.345
95.9676
97.6452
99.3637
101.103
102.836
104.54
106.19
107.757
109.213
110.527
111.666
112.588
113.234
113.532
113.212
81.5436
81.6068
81.8194
82.1819
82.6743
83.2839
84.0054
84.8351
85.7689
86.8018
87.929
89.1455
90.4455
91.8211
93.2621
94.7573
96.2945
97.858
99.4262
100.974
102.48
103.918
105.259
106.473
107.529
108.392
109.024
109.37
109.409
108.769
81.1516
81.211
81.4141
81.7597
82.2272
82.8045
83.4862
84.2681
85.1454
86.1126
87.1644
88.2953
89.4982
90.7635
92.0805
93.4376
94.8208
96.2125
97.5898
98.9284
100.204
101.388
102.447
103.349
104.058
104.541
104.765
104.693
104.386
103.397
80.7273
80.7821
80.9735
81.3
81.7406
82.283
82.9218
83.6524
84.4694
85.3665
86.3376
87.377
88.4762
89.6241
90.8088
92.0173
93.2337
94.4381
95.6061
96.7112
97.7239
98.6097
99.3293
99.8405
100.101
100.072
99.7267
99.0471
98.1969
96.6115
80.2722
80.3214
80.4998
80.8053
81.2169
81.7221
82.3153
82.9916
83.745
84.5681
85.4541
86.3967
87.3866
88.4109
89.4559
90.5067
91.5453
92.5492
93.4913
94.3401
95.0591
95.6048
95.9256
95.9638
95.6582
94.9523
93.811
92.2225
90.4731
87.8728
79.7877
79.8309
79.995
80.2779
80.6586
81.1247
81.67
82.2894
82.9761
83.7222
84.5197
85.3612
86.2368
87.1324
88.0319
88.9177
89.7698
90.5626
91.2647
91.8383
92.2378
92.4067
92.2757
91.7612
90.7666
89.189
86.9445
83.9763
80.6948
76.3126
79.2757
79.3124
79.4612
79.7202
80.0685
80.4937
80.9893
81.5496
82.1673
82.8338
83.5401
84.2773
85.0349
85.798
86.5474
87.2632
87.9229
88.4972
88.9497
89.2352
89.2974
89.0643
88.4429
87.3134
85.5222
82.875
79.1499
74.092
68.0684
60.1569
78.7381
78.7679
78.9007
79.1346
79.4494
79.8323
80.2766
80.7761
81.3229
81.9079
82.5211
83.152
83.7894
84.417
85.0136
85.5567
86.021
86.3735
86.5722
86.5646
86.2832
85.6394
84.5144
82.7457
80.1057
76.2615
70.7211
62.6686
51.4769
33.9696
-31.2122
-31.704
-32.9531
-35.1681
-38.424
-42.7201
-48.0062
-54.1942
-61.163
-68.7576
-76.7865
-85.0179
-93.1758
-100.938
-107.94
-113.782
-118.049
-120.341
-120.284
-117.567
-111.99
-103.535
-92.3654
-78.7757
-63.1126
-45.7556
-27.4192
-9.84389
4.23295
12.8663
-31.0346
-31.6515
-32.9964
-35.2991
-38.6345
-43.0043
-48.3607
-54.618
-61.6566
-69.3232
-77.427
-85.7359
-93.9733
-101.815
-108.893
-114.802
-119.127
-121.466
-121.453
-118.771
-113.218
-104.805
-93.712
-80.2436
-64.778
-47.78
-30.0777
-13.2869
0.515284
8.68974
-31.1638
-32.0908
-33.7218
-36.2682
-39.7947
-44.3101
-49.7752
-56.1132
-63.2133
-70.9308
-79.0817
-87.4388
-95.7286
-103.628
-110.765
-116.73
-121.099
-123.464
-123.451
-120.76
-115.185
-106.767
-95.7046
-82.3166
-67.016
-50.3537
-33.2399
-17.1339
-3.63012
4.71215
-31.8224
-33.1211
-35.0843
-37.9225
-41.678
-46.3645
-51.9538
-58.3815
-65.5497
-73.3249
-81.5329
-89.9527
-98.3139
-106.294
-113.518
-119.566
-124.003
-126.41
-126.408
-123.697
-118.085
-109.649
-98.6098
-85.3003
-70.1604
-53.7936
-37.1193
-21.4163
-7.93293
1.39338
-33.1145
-34.8069
-37.0632
-40.1711
-44.1431
-48.994
-54.7027
-61.2162
-68.449
-76.28
-84.5458
-93.0329
-101.474
-109.546
-116.869
-123.015
-127.534
-129.985
-129.974
-127.234
-121.564
-113.092
-102.061
-88.8176
-73.8158
-57.6769
-41.2806
-25.7283
-11.9919
-1.2698
-35.1349
-37.1603
-39.6226
-42.9389
-47.0804
-52.0626
-57.8684
-64.4539
-71.7447
-79.631
-87.9601
-96.5264
-105.066
-113.252
-120.699
-126.966
-131.583
-134.083
-134.048
-131.245
-125.485
-116.947
-105.899
-92.6936
-77.7806
-61.7675
-45.4691
-29.8296
-15.5984
-3.37189
-37.8087
-40.0545
-42.6259
-46.0794
-50.3305
-55.3999
-61.2721
-67.9101
-75.2486
-83.1873
-91.5821
-100.234
-108.883
-117.199
-124.787
-131.191
-135.916
-138.465
-138.412
-135.491
-129.613
-120.985
-109.899
-96.7058
-81.8321
-65.8458
-49.4864
-33.5683
-18.6702
-5.01365
-40.8252
-43.2413
-45.8505
-49.3814
-53.6886
-58.8038
-64.7129
-71.3838
-78.7584
-86.7443
-95.2044
-103.946
-112.71
-121.165
-128.906
-135.462
-140.306
-142.898
-142.782
-139.742
-133.722
-124.984
-113.845
-100.643
-85.7663
-69.726
-53.1851
-36.8617
-21.204
-6.2657
-43.9903
-46.465
-49.044
-52.6061
-56.929
-62.0585
-67.9805
-74.6675
-82.0671
-90.093
-98.6144
-107.443
-116.323
-124.919
-132.82
-139.537
-144.505
-147.134
-146.945
-143.765
-137.584
-128.727
-117.528
-104.306
-89.4017
-73.2585
-56.462
-39.6795
-23.248
-7.17718
-46.9557
-49.4365
-51.9458
-55.5133
-59.8253
-64.9489
-70.8676
-77.5581
-84.9726
-93.0293
-101.603
-110.51
-119.496
-128.226
-136.282
-143.158
-148.255
-150.92
-150.66
-147.333
-140.987
-132.013
-120.756
-107.519
-92.5862
-76.3371
-59.2667
-42.0225
-24.889
-7.93698
-49.3813
-51.8795
-54.3128
-57.8838
-62.17
-67.2776
-73.1847
-79.8712
-87.2919
-95.367
-103.977
-112.944
-122.016
-130.858
-139.049
-146.075
-151.3
-154.006
-153.687
-150.215
-143.728
-134.672
-123.386
-110.158
-95.216
-78.8928
-61.6042
-43.9125
-26.1461
-8.47758
-51.1639
-53.5429
-55.9757
-59.54
-63.7943
-68.887
-74.7824
-81.4603
-88.8753
-96.9533
-105.576
-114.571
-123.69
-132.601
-140.882
-148.014
-153.342
-156.088
-155.743
-152.177
-145.618
-136.557
-125.337
-112.177
-97.2624
-80.876
-63.4039
-45.3406
-27.0286
-8.85492
-52.1199
-54.4541
-56.8348
-60.3659
-64.6041
-69.6997
-75.5994
-82.2769
-89.6851
-97.753
-106.361
-115.338
-124.445
-133.361
-141.665
-148.838
-154.222
-157.009
-156.684
-153.117
-146.58
-137.598
-126.514
-113.473
-98.6278
-82.2096
-64.5844
-46.2605
-27.5728
-9.11842
-52.3632
-54.5343
-56.7684
-60.2513
-64.5277
-69.6715
-75.6094
-82.3039
-89.7059
-97.7438
-106.302
-115.214
-124.248
-133.093
-141.338
-148.471
-153.834
-156.625
-156.332
-152.841
-146.447
-137.656
-126.775
-113.924
-99.2061
-82.8265
-65.1479
-46.6937
-27.811
-9.29672
-51.8576
-53.5949
-55.6371
-59.1458
-63.5865
-68.8626
-74.8862
-81.618
-89.0119
-96.9984
-105.469
-114.263
-123.157
-131.848
-139.937
-146.917
-152.141
-154.859
-154.603
-151.282
-145.17
-136.701
-126.127
-113.536
-99.0066
-82.7407
-65.1134
-46.667
-27.7719
-9.40478
78.1662
78.1888
78.3045
78.5121
78.7917
79.1305
79.5215
79.9579
80.4313
80.9321
81.4493
81.9712
82.4851
82.9733
83.4134
83.7808
84.0466
84.1741
84.1164
83.8142
83.1901
82.1403
80.523
78.1375
74.6873
69.7007
62.3705
51.0072
31.8521
-19.8477
77.5531
77.568
77.6658
77.8456
78.0882
78.3809
78.7162
79.0868
79.484
79.8974
80.3154
80.7251
81.112
81.4573
81.7378
81.9266
81.992
81.8937
81.5812
80.9899
80.0352
78.6039
76.5411
73.6287
69.5465
63.7922
55.5432
43.3327
26.8801
4.89855
76.9032
76.9102
76.9893
77.1401
77.3444
77.5893
77.8671
78.1701
78.4891
78.8131
79.1298
79.4253
79.6837
79.8853
80.0059
80.017
79.8845
79.566
79.0086
78.1449
76.8884
75.1242
72.6994
69.4089
64.9738
59.0144
51.0788
40.6422
28.5915
16.1375
76.2175
76.2163
76.276
76.3971
76.5619
76.7579
76.9769
77.211
77.4504
77.6838
77.8983
78.0791
78.2092
78.2682
78.2311
78.0685
77.7449
77.217
76.4312
75.3209
73.8024
71.7674
69.0778
65.5627
61.0137
55.1868
47.863
38.7835
28.0048
15.6053
75.4971
75.4877
75.5277
75.6182
75.7428
75.889
76.0484
76.2128
76.3722
76.5148
76.6271
76.694
76.6975
76.6169
76.427
76.0978
75.5935
74.8716
73.8795
72.5544
70.8194
68.5783
65.7143
62.0935
57.5652
51.9639
45.1386
36.9015
27.1343
16.1927
74.7438
74.726
74.746
74.8057
74.8896
74.9856
75.0851
75.1797
75.2592
75.3115
75.3229
75.2779
75.1582
74.9429
74.6073
74.1212
73.4499
72.5527
71.3801
69.8746
67.9693
65.5822
62.6184
58.9763
54.548
49.2213
42.9007
35.5103
27.0416
17.8948
73.9595
73.9335
73.9334
73.9621
74.0052
74.0509
74.0907
74.1161
74.1166
74.0802
73.9931
73.8395
73.6013
73.258
72.7856
72.1549
71.3323
70.2806
68.9551
67.3045
65.2723
62.7916
59.7883
56.188
51.917
46.9073
41.112
34.5172
27.1395
19.2615
73.1467
73.1126
73.0927
73.0905
73.093
73.0889
73.0697
73.0269
72.9502
72.8275
72.6452
72.3878
72.0373
71.5741
70.9755
70.2137
69.2574
68.0733
66.6224
64.8604
62.7406
60.2107
57.2155
53.7021
49.6235
44.9419
39.6381
33.7174
27.1963
20.2932
72.3084
72.2663
72.2268
72.1941
72.1566
72.1036
72.0268
71.9177
71.7661
71.5604
71.2873
70.9317
70.4765
69.9028
69.1895
68.3112
67.2398
65.9456
64.3956
62.553
60.3802
57.8376
54.8856
51.4888
47.6184
43.256
38.3974
33.0569
27.2562
21.174
71.4477
71.3981
71.3395
71.277
71.2004
71.0998
70.9671
70.794
70.5709
70.2863
69.9276
69.4804
68.9288
68.255
67.4395
66.4599
65.2916
63.909
62.2843
60.3884
58.1917
55.6654
52.7823
49.5199
45.8627
41.8042
37.3495
32.5181
27.3342
21.9412
70.5685
70.5117
70.4346
70.3432
70.2289
70.0825
69.8962
69.6621
69.3711
69.0124
68.574
68.0427
67.4036
66.6405
65.736
64.6704
63.4228
61.9718
60.2947
58.3689
56.1724
53.6847
50.8884
47.7705
44.3245
40.5516
36.4623
32.0774
27.4208
22.6071
69.6748
69.6113
69.5166
69.3975
69.2471
69.0569
68.8197
68.5282
68.1736
67.7461
67.2346
66.6269
65.9097
65.0685
64.0879
62.9512
61.6411
60.14
58.4301
56.4944
54.3172
51.8849
49.1871
46.2179
42.9767
39.4695
35.7091
31.7161
27.5127
23.1916
68.7713
68.7016
68.5902
68.4449
68.2602
68.0287
67.7438
67.3986
66.9852
66.4947
65.9169
65.2411
64.4553
63.5471
62.5031
61.3095
59.9522
58.4173
56.6915
54.7625
52.6195
50.2544
47.6621
44.8415
41.796
38.534
35.0694
31.4214
27.6106
23.7118
67.8628
67.7875
67.6606
67.4906
67.2738
67.0037
66.6745
66.2798
65.8128
65.2652
64.6284
63.8927
63.0479
62.0833
60.9878
59.7504
58.3598
56.8056
55.078
53.1688
51.0713
48.7814
46.2979
43.6229
40.7622
37.7256
34.527
31.1838
27.7146
24.1803
66.9548
66.8744
66.7332
66.5403
66.2936
65.988
65.6181
65.1785
64.663
64.0647
63.3759
62.5884
61.6938
60.6831
59.5474
58.2779
56.8663
55.305
53.5873
51.7081
49.6641
47.4543
45.08
42.5454
39.858
37.0278
34.0681
30.9948
27.8245
24.6067
66.0528
65.9679
65.8137
65.5997
65.3258
64.9877
64.5809
64.1009
63.5423
62.8994
62.1658
61.3346
60.3988
59.3515
58.1856
56.8947
55.4726
53.9143
52.2158
50.3744
48.3894
46.2618
43.9949
41.5944
39.0681
36.4263
33.6813
30.8474
27.9392
24.9974
65.1628
65.0741
64.9081
64.6751
64.3764
64.0091
63.5694
63.0535
62.4572
61.7758
61.004
60.1366
59.1679
58.0926
56.9056
55.6023
54.1786
52.6316
50.9593
49.1612
47.2383
45.1932
43.0304
40.7563
38.3791
35.9086
33.3563
30.7349
28.0574
25.3569
64.291
64.1991
64.0227
63.7727
63.4518
63.0585
62.5897
62.0425
61.4137
60.6996
59.8962
58.9994
58.0053
56.9098
55.7095
54.4015
52.9835
51.4542
49.8134
48.062
46.2024
44.2383
42.1751
40.0193
37.7792
35.4641
33.0845
30.6517
28.1771
25.6882
63.4441
63.3495
63.164
62.8989
62.5585
62.1423
61.6482
61.0741
60.4177
59.6763
58.8473
57.9276
56.9145
55.8056
54.5987
53.2923
51.8857
50.379
48.7731
47.0702
45.2737
43.388
41.4188
39.3728
37.258
35.0832
32.858
30.5924
28.2966
25.9932
62.6286
62.532
62.3386
62.0603
61.7028
61.2668
60.7511
60.1542
59.4748
58.7113
57.8619
56.925
55.8988
54.7821
53.5741
52.2745
50.8836
49.4026
47.8337
46.1797
44.4447
42.6336
40.7523
38.8074
36.8066
34.7579
32.6703
30.5526
28.414
26.2731
61.8517
61.7535
61.5534
61.2636
60.8915
60.4386
59.9045
59.2886
58.5905
57.8094
56.9445
55.9952
54.9608
53.8412
52.6364
51.3472
49.975
48.5219
46.9906
45.3847
43.7086
41.9676
40.1675
38.3149
36.4169
34.4811
32.5155
30.5283
28.5275
26.5287
61.1205
61.021
60.8152
60.5157
60.131
59.6639
59.1145
58.4832
57.7701
56.9754
56.0992
55.1417
54.1031
52.9842
51.7859
50.5099
49.1583
47.7337
46.2396
44.68
43.0594
41.3833
39.6575
37.8882
36.0823
34.2468
32.389
30.5162
28.6358
26.7606
60.4424
60.3419
60.1313
59.8234
59.4281
58.9491
58.3873
57.7435
57.0188
56.2139
55.3298
54.3674
53.3278
52.2124
51.023
49.7618
48.4315
47.0352
45.5769
44.0607
42.4915
40.8747
39.2158
37.5211
35.7969
34.0496
32.2861
30.5129
28.7368
26.9684
59.8251
59.7238
59.5089
59.1938
58.7895
58.3007
57.7288
57.0753
56.3417
55.5296
54.6405
53.676
52.6377
51.5279
50.3487
49.1029
47.7937
46.4247
44.9998
43.5237
42.0012
40.4375
38.8383
37.2092
35.5565
33.8861
32.2042
30.5169
28.8303
27.1535
59.2765
59.1743
58.9555
58.6338
58.2219
57.7249
57.145
56.4839
55.7437
54.9265
54.0345
53.0697
52.0344
50.9311
49.7626
48.532
47.2429
45.8991
44.5048
43.0647
41.5835
40.0666
38.5193
36.9471
35.3558
33.7512
32.1388
30.5244
28.9134
27.3137
58.8051
58.7018
58.4785
58.1507
57.7322
57.2289
56.6428
55.9762
55.2314
54.4111
53.5179
52.5542
51.5227
50.4264
49.2684
48.0522
46.7814
45.4601
44.0928
42.684
41.2386
39.7617
38.2585
36.7344
35.1949
33.6453
32.091
30.5372
28.9891
27.4534
58.4203
58.3146
58.0852
57.7503
57.3256
56.8167
56.2256
55.5545
54.8064
53.9842
53.0908
52.1289
51.1016
50.0121
48.8637
47.6601
46.4053
45.1033
43.7587
42.3761
40.9603
39.5163
38.0492
36.5642
35.0665
33.5612
32.0535
30.5481
29.05
27.5647
58.1331
58.0227
57.7851
57.444
57.0149
56.502
55.907
55.2327
54.4823
53.659
52.7658
51.8058
50.7823
49.6985
48.5581
47.365
46.123
44.8366
43.5101
42.1481
40.7556
39.3373
37.8983
36.4436
34.9783
33.5072
32.0352
30.5672
29.1076
27.6616
57.9569
57.8242
57.5702
57.2237
56.7926
56.2773
55.68
55.0041
54.2528
53.4296
52.5373
51.5794
50.5591
49.48
48.3458
47.1602
45.9276
44.6521
43.3382
41.9906
40.614
39.2133
37.7934
36.3591
34.9154
33.4672
32.0191
30.5756
29.1413
27.7204
57.9546
57.7557
57.4734
57.1209
56.6872
56.1689
55.5688
54.8909
54.1387
53.3152
52.4236
51.4671
50.4491
49.3731
48.2429
47.0624
45.8358
44.5672
43.2613
41.9225
40.5556
39.1653
37.7566
36.3342
34.903
33.4677
32.0329
30.603
29.1823
27.7747
-102.715
-82.769
-64.3707
-12.3971
-18.8782
-27.4948
2.16253
-7.99339
-17.0229
1.7891
-7.17101
-14.1889
5.25833
-2.14536
-8.40843
8.91801
2.56322
-3.06411
11.5199
6.00489
1.09056
13.5691
8.78676
4.52821
15.3068
11.1351
7.42929
16.7789
13.1106
9.86527
18.0309
14.7827
11.922
19.1095
16.2155
13.6777
20.0499
17.4571
15.1928
20.8787
18.5443
16.5136
21.6164
19.5053
17.6749
22.2777
20.3605
18.703
22.8733
21.1252
19.6177
23.4113
21.8115
20.4344
23.8978
22.4282
21.1647
24.3368
22.9812
21.8167
24.7312
23.4753
22.3966
25.0839
23.9146
22.9101
25.3961
24.3016
23.3609
25.6708
24.6403
23.7536
25.9061
24.9296
24.0885
26.1087
25.1767
24.3728
26.269
25.3727
24.5989
26.405
25.5357
24.7836
26.4887
25.6384
24.9023
26.5645
25.7298
25.0023
-51.239
-51.7825
-53.5958
-57.2511
-61.9748
-67.4488
-73.5854
-80.3569
-87.7241
-95.6236
-103.955
-112.567
-121.244
-129.691
-137.521
-144.241
-149.237
-151.836
-151.633
-148.558
-142.834
-134.787
-124.597
-112.322
-98.0365
-81.9604
-64.4935
-46.1998
-27.4782
-9.45353
-36.2638
-44.1342
-49.3825
-54.5579
-59.9746
-65.7306
-71.9558
-78.7104
-85.9854
-93.728
-101.845
-110.192
-118.562
-126.67
-134.143
-140.516
-145.23
-147.698
-147.576
-144.803
-139.527
-131.952
-122.181
-110.252
-96.2575
-80.4499
-63.2634
-45.282
-26.9296
-9.44711
-29.0329
-39.709
-46.1208
-51.8253
-57.7326
-63.8488
-70.2118
-76.9182
-84.0236
-91.5159
-99.3218
-107.309
-115.279
-122.96
-130
-135.971
-140.377
-142.721
-142.708
-140.251
-135.412
-128.288
-118.918
-107.334
-93.6644
-78.2074
-61.4304
-43.9285
-26.1405
-9.38714
-24.1342
-35.0268
-42.8352
-49.4139
-55.6927
-61.9459
-68.334
-74.9707
-81.9008
-89.1145
-96.5551
-104.112
-111.606
-118.789
-125.338
-130.869
-134.952
-137.182
-137.282
-135.102
-130.619
-123.855
-114.817
-103.556
-90.2484
-75.2366
-59.0109
-42.1619
-25.1291
-9.27442
-17.4357
-28.0535
-37.2132
-45.1908
-52.409
-59.205
-65.8465
-72.5273
-79.3514
-86.3418
-93.4584
-100.605
-107.626
-114.3
-120.345
-125.424
-129.177
-131.278
-131.441
-129.424
-125.149
-118.613
-109.829
-98.8839
-86.0024
-71.5572
-56.0405
-40.0196
-23.9202
-9.10746
-10.9433
-20.6873
-30.3258
-39.2184
-47.2867
-54.773
-61.9183
-68.8943
-75.8131
-82.7292
-89.6368
-96.4686
-103.095
-109.327
-114.918
-119.58
-123.006
-124.922
-125.017
-122.995
-118.786
-112.391
-103.846
-93.2786
-80.9434
-67.2206
-52.5831
-37.5577
-22.5462
-8.8817
-5.54736
-14.1049
-23.4299
-32.5053
-40.9321
-48.829
-56.3691
-63.6605
-70.7709
-77.7389
-84.5646
-91.1985
-97.536
-103.417
-108.63
-112.924
-116.026
-117.663
-117.534
-115.406
-111.237
-105.023
-96.8176
-86.7743
-75.1577
-62.3338
-48.7398
-34.8532
-21.0468
-8.59034
-1.08183
-8.48168
-17.0651
-25.7822
-34.0924
-42.0134
-49.6524
-57.0591
-64.2515
-71.2345
-77.991
-84.4688
-90.5724
-96.1603
-101.046
-105.003
-107.777
-109.089
-108.692
-106.504
-102.474
-96.5823
-88.8885
-79.5537
-68.8348
-57.0688
-44.6492
-32.001
-19.4674
-8.22727
2.62414
-3.76679
-11.4535
-19.5057
-27.3612
-34.9767
-42.4104
-49.6704
-56.7361
-63.5807
-70.1656
-76.4274
-82.2698
-87.5594
-92.1253
-95.76
-98.2223
-99.2312
-98.7066
-96.5909
-92.8397
-87.4246
-80.404
-71.9321
-62.2444
-51.6413
-40.4694
-29.1024
-17.8543
-7.79143
5.69817
0.152622
-6.6429
-13.9097
-21.1242
-28.2164
-35.2151
-42.1044
-48.8401
-55.3729
-61.6469
-67.5884
-73.0985
-78.0495
-82.2834
-85.6127
-87.8222
-88.6803
-88.1498
-86.2271
-82.8657
-78.036
-71.7904
-64.2668
-55.6718
-46.2662
-36.3505
-26.2504
-16.2503
-7.29009
8.27059
3.4245
-2.56228
-9.04463
-15.5571
-22.0233
-28.4576
-34.8337
-41.0965
-47.1851
-53.0337
-58.5632
-63.6755
-68.2502
-72.1445
-75.1946
-77.22
-78.0399
-77.6181
-75.9724
-73.0632
-68.8671
-63.4292
-56.8667
-49.3554
-41.1179
-32.4116
-23.5174
-14.6905
-6.73906
10.4514
6.18551
0.90242
-4.8579
-10.6871
-16.5116
-22.3397
-28.143
-33.8641
-39.4388
-44.7987
-49.8652
-54.545
-58.7283
-62.2894
-65.0894
-66.9812
-67.8209
-67.5854
-66.2558
-63.8129
-60.245
-55.5903
-49.9455
-43.4572
-36.3127
-28.7304
-20.9512
-13.2007
-6.15971
12.3238
8.54334
3.86229
-1.25933
-6.46284
-11.6808
-16.9194
-22.1518
-27.3231
-32.3712
-37.23
-41.8256
-46.0726
-49.8739
-53.1214
-55.6996
-57.4913
-58.3881
-58.3425
-57.3284
-55.3326
-52.3526
-48.4212
-43.617
-38.0608
-31.9091
-25.346
-18.5765
-11.7978
-5.57443
13.9483
10.5779
6.41059
1.8443
-2.80395
-7.47321
-12.1692
-16.8681
-21.5199
-26.0669
-30.4482
-34.5964
-38.436
-41.8825
-44.8443
-47.2258
-48.9332
-49.8819
-50.0149
-49.293
-47.705
-45.2545
-41.97
-37.9153
-33.1893
-27.9219
-22.2679
-16.4008
-10.4913
-5.00258
15.3686
12.3478
8.62076
4.53478
0.372076
-3.81209
-8.02354
-12.2419
-16.4226
-20.5134
-24.4595
-28.2011
-31.6721
-34.7998
-37.507
-39.7145
-41.3455
-42.3325
-42.617
-42.1516
-40.9234
-38.9384
-36.2214
-32.8241
-28.8274
-24.3388
-19.4879
-14.421
-9.28536
-4.45836
16.619
13.8976
10.5491
6.87826
3.13751
-0.622641
-4.40815
-8.20206
-11.9651
-15.6508
-19.2104
-22.5916
-25.7367
-28.5838
-31.0673
-33.1209
-34.6812
-35.6918
-36.0979
-35.8505
-34.9336
-33.3524
-31.1279
-28.3022
-24.9413
-21.134
-16.9886
-12.6287
-8.18029
-3.95051
17.7256
15.2615
12.239
8.92677
5.55176
2.16021
-1.25393
-4.67678
-8.07405
-11.4047
-14.6259
-17.6917
-20.5525
-23.1548
-25.4431
-27.3613
-28.8558
-29.8786
-30.3804
-30.3155
-29.6647
-28.4309
-26.6312
-24.2999
-21.4909
-18.2775
-14.7502
-11.013
-7.17414
-3.4833
18.7079
16.4649
13.7235
10.7212
7.66282
4.59069
1.49881
-1.60161
-4.68076
-7.70262
-10.6295
-13.4215
-16.0355
-18.4257
-20.5442
-22.3434
-23.7774
-24.8048
-25.3823
-25.469
-25.044
-24.1074
-22.6728
-20.7679
-18.4366
-15.7395
-12.7523
-9.56264
-6.26346
-3.05794
19.5809
17.5279
15.0286
12.2942
9.5094
6.71339
3.90019
1.07878
-1.725
-4.47954
-7.15184
-9.70708
-12.1079
-14.3145
-16.286
-17.9811
-19.3603
-20.3874
-21.0251
-21.2376
-21.0035
-20.3204
-19.1986
-17.6604
-15.7416
-13.4924
-10.976
-8.26651
-5.44392
-2.67383
20.3561
18.4661
16.1753
13.6719
11.1231
8.56514
5.99213
3.41123
0.844844
-1.67928
-4.13219
-6.48351
-8.70068
-10.7492
-12.5936
-14.198
-15.5282
-16.5523
-17.2383
-17.5553
-17.482
-17.0143
-16.1598
-14.936
-13.3725
-11.5106
-9.40346
-7.11382
-4.7107
-2.32945
21.0423
19.292
17.1803
14.8756
12.5298
10.1763
7.80954
5.4351
3.07248
0.746094
-1.51862
-3.69504
-5.75471
-7.66754
-9.40249
-10.9284
-12.2152
-13.2349
-13.9597
-14.3637
-14.4256
-14.1403
-13.5132
-12.5582
-11.2994
-9.77131
-8.01853
-6.09452
-4.05898
-2.02291
21.647
20.016
18.0576
15.9231
13.7511
11.5725
9.38194
7.18385
4.99523
2.83765
0.733553
-1.29361
-3.21886
-5.01577
-6.65708
-8.11544
-9.36425
-10.3786
-11.1342
-11.6109
-11.7861
-11.6546
-11.2202
-10.494
-9.49553
-8.25372
-6.80631
-5.19906
-3.48381
-1.7521
22.1756
20.6459
18.818
16.8284
14.8042
12.7742
10.7333
8.68486
6.64382
4.62937
2.66143
0.760762
-1.05054
-2.74911
-4.31084
-5.71155
-6.92767
-7.93719
-8.72062
-9.25409
-9.52307
-9.52073
-9.24871
-8.71579
-7.93824
-6.94033
-5.75424
-4.4194
-2.9811
-1.51531
22.6339
21.1895
19.4715
17.6043
15.7049
13.8
11.885
9.96234
8.04536
6.15116
4.29759
2.50318
0.787612
-0.828275
-2.32298
-3.6749
-4.86297
-5.86735
-6.6702
-7.25285
-7.59994
-7.70495
-7.5686
-7.19785
-6.60624
-5.81439
-4.84997
-3.74726
-2.54613
-1.31025
23.0239
21.6503
20.0239
18.2586
16.4628
14.662
12.8514
11.0332
9.21912
7.42461
5.66583
3.95946
2.32324
0.775926
-0.663112
-1.97439
-3.13887
-4.1386
-4.95741
-5.57932
-5.99016
-6.18334
-6.15886
-5.92229
-5.48502
-4.86481
-4.08575
-3.17796
-2.17685
-1.13627
23.3524
22.0364
20.4847
18.8025
17.0914
15.3752
13.6497
11.9164
10.1859
8.47242
6.79064
5.15578
3.58403
2.09247
0.69876
-0.579317
-1.72437
-2.71995
-3.55123
-4.20406
-4.66599
-4.93039
-4.99662
-4.86917
-4.55785
-4.07815
-3.45137
-2.70433
-1.86884
-0.991082
23.6147
22.3442
20.8514
19.2348
17.5904
15.941
14.2826
12.6161
10.9515
9.30174
7.68054
6.10197
4.58097
3.13333
1.77538
0.523594
-0.605925
-1.59791
-2.43857
-3.11507
-3.61641
-3.93616
-4.07323
-4.03133
-3.81909
-3.45034
-2.94429
-2.32524
-1.62213
-0.875044
23.8245
22.5876
21.1388
19.5713
17.9767
16.3771
14.7685
13.1518
11.5361
9.93369
8.35747
6.82064
5.33726
3.92216
2.59071
1.3584
0.240414
-0.74884
-1.59634
-2.29058
-2.82152
-3.18303
-3.37364
-3.39644
-3.25918
-2.97455
-2.56026
-2.03886
-1.43724
-0.790453
23.9623
22.7467
21.3272
19.7931
18.2322
16.666
15.0909
13.5076
11.9247
10.3542
8.80819
7.29949
5.84151
4.44846
3.13505
1.91615
0.806365
-0.180239
-1.03076
-1.73444
-2.28287
-2.67042
-2.89544
-2.9606
-2.8731
-2.64485
-2.2927
-1.83826
-1.30782
-0.735149
24.0641
22.8513
21.446
19.93
18.3866
16.8371
15.2784
13.7114
12.1445
10.5893
9.0578
7.56245
6.11643
4.73367
3.42856
2.21555
1.10875
0.121333
-0.734759
-1.44803
-2.009
-2.41249
-2.65723
-2.74587
-2.68536
-2.48727
-2.168
-1.74878
-1.25573
-0.721284
)
;

boundaryField
{
    inlet
    {
        type            zeroGradient;
    }
    outlet
    {
        type            fixedValue;
        value           uniform 0;
    }
    flap
    {
        type            zeroGradient;
    }
    upperWall
    {
        type            zeroGradient;
    }
    lowerWall
    {
        type            zeroGradient;
    }
    frontAndBack
    {
        type            empty;
    }
}


// ************************************************************************* //
