/*--------------------------------*- C++ -*----------------------------------*\
| =========                 |                                                 |
| \\      /  F ield         | OpenFOAM: The Open Source CFD Toolbox           |
|  \\    /   O peration     | Version:  2006                                  |
|   \\  /    A nd           | Website:  www.openfoam.com                      |
|    \\/     M anipulation  |                                                 |
\*---------------------------------------------------------------------------*/
FoamFile
{
    version     2.0;
    format      ascii;
    class       surfaceScalarField;
    location    "0.5";
    object      phi;
}
// * * * * * * * * * * * * * * * * * * * * * * * * * * * * * * * * * * * * * //

dimensions      [0 3 -1 0 0 0 0];
oriented        oriented;


internalField   nonuniform List<scalar> 
5457
(
0.198405
0.00151159
0.196527
0.00179976
0.19436
0.00208731
0.191853
0.00242275
0.189002
0.00276175
0.185805
0.00309924
0.182256
0.00344285
0.178343
0.00379938
0.174049
0.00417352
0.169354
0.00456918
0.164236
0.00498998
0.15867
0.00543927
0.152629
0.00591985
0.146087
0.00643372
0.139013
0.00698188
0.131381
0.00756353
0.12317
0.00817511
0.114363
0.00880918
0.104951
0.0094537
0.0949434
0.0100912
0.0843679
0.0106974
0.0732814
0.0112406
0.0617774
0.0116806
0.0500001
0.0119659
0.03816
0.0120236
0.0265847
0.0117429
0.0158118
0.0109248
0.0067723
0.00917527
0.000945819
0.00595632
0.00104175
0.199922
0.0015074
0.199232
0.00241056
0.198147
0.00309387
0.196695
0.00379108
0.194869
0.0044979
0.192664
0.00520685
0.190073
0.00592856
0.187083
0.00667529
0.183679
0.00745653
0.179842
0.00828023
0.175548
0.00915391
0.170775
0.0100845
0.165493
0.011078
0.159676
0.012139
0.153292
0.0132703
0.146311
0.0144707
0.13871
0.0157347
0.130466
0.0170494
0.121564
0.0183925
0.112001
0.019731
0.101796
0.0210184
0.0909925
0.0221934
0.0796668
0.0231786
0.0679444
0.0238756
0.0559961
0.0241575
0.0440505
0.0238601
0.0323755
0.0227586
0.0211428
0.020552
0.0101981
0.0170297
0.0113382
0.199773
0.00165276
0.199138
0.00296667
0.198116
0.00403739
0.196751
0.00507305
0.195045
0.0061139
0.192993
0.00716122
0.190588
0.008227
0.187822
0.00932704
0.184682
0.0104751
0.181151
0.0116833
0.17721
0.0129626
0.172839
0.0143237
0.168014
0.015776
0.162709
0.0173276
0.156893
0.0189834
0.150536
0.0207446
0.143614
0.0226061
0.136097
0.0245539
0.127954
0.0265611
0.119166
0.0285855
0.109722
0.0305676
0.0996284
0.0324265
0.0889109
0.0340593
0.0776269
0.0353387
0.0658582
0.0361137
0.0536898
0.03621
0.0411723
0.0354443
0.0282338
0.0336372
0.0145829
0.0307802
0.0259616
0.199694
0.0018773
0.199055
0.00352724
0.198048
0.00496512
0.196702
0.00633581
0.195025
0.00770049
0.193014
0.00907373
0.190664
0.0104701
0.187968
0.0119076
0.184917
0.0134035
0.181496
0.0149732
0.177693
0.0166307
0.173491
0.0183899
0.168871
0.0202631
0.163813
0.022261
0.158293
0.0243918
0.152285
0.0266597
0.145767
0.0290627
0.138705
0.0315885
0.131066
0.0342111
0.122814
0.0368881
0.113915
0.0395569
0.104335
0.0421303
0.0940492
0.0444957
0.0830397
0.0465167
0.0713011
0.0480372
0.058814
0.0488836
0.0455396
0.0488876
0.0313865
0.047918
0.0161865
0.0460079
0.0421046
0.199656
0.00213975
0.199005
0.00409965
0.198012
0.00587927
0.196687
0.00757685
0.19504
0.00925723
0.193068
0.0109465
0.190767
0.0126634
0.18813
0.0144279
0.185148
0.0162599
0.18181
0.0181778
0.178103
0.0201983
0.174013
0.0223373
0.169525
0.02461
0.164624
0.0270295
0.159286
0.0296072
0.15349
0.0323509
0.147212
0.0352623
0.14042
0.0383335
0.133079
0.0415436
0.12514
0.0448572
0.116546
0.0482172
0.107239
0.0515405
0.0971483
0.0547181
0.0862021
0.0576158
0.0743314
0.0600771
0.0614636
0.0619237
0.0475447
0.0629619
0.0325537
0.0630073
0.0165768
0.0619518
0.0585633
0.199639
0.00241949
0.198983
0.00467763
0.198006
0.00677685
0.196709
0.00878937
0.195099
0.0107764
0.193173
0.0127718
0.190929
0.0147986
0.188359
0.0168794
0.185455
0.0190366
0.182204
0.0212909
0.178596
0.0236614
0.174616
0.0261664
0.170254
0.0288232
0.165493
0.0316481
0.160309
0.0346564
0.154678
0.0378596
0.148576
0.0412638
0.141973
0.044868
0.134825
0.0486609
0.127066
0.0526178
0.118626
0.056692
0.109426
0.060812
0.0993644
0.0648811
0.0883321
0.0687712
0.0762248
0.07232
0.06296
0.0753239
0.0485082
0.0775313
0.0329465
0.0786169
0.0165943
0.0782027
0.0750692
0.199633
0.00270505
0.198979
0.00525312
0.198023
0.00765409
0.19676
0.00996787
0.195194
0.0122509
0.193323
0.0145412
0.191144
0.0168662
0.188652
0.0192513
0.185837
0.0217214
0.182687
0.0242992
0.17919
0.0270063
0.175335
0.0298629
0.171112
0.0328893
0.166502
0.0361061
0.161476
0.0395326
0.156008
0.043184
0.150074
0.0470731
0.143642
0.0512091
0.136651
0.0555939
0.129019
0.0602135
0.120669
0.0650343
0.111505
0.070005
0.1014
0.0750441
0.0902192
0.0800279
0.0778421
0.0847794
0.0641896
0.0890497
0.0492799
0.0924908
0.0332788
0.0945836
0.0166372
0.0946317
0.0914677
0.199634
0.00298946
0.19899
0.00581904
0.198058
0.00850648
0.196834
0.0111071
0.195319
0.0136738
0.193511
0.0162467
0.191407
0.018857
0.189003
0.021533
0.186289
0.0243018
0.183254
0.0271886
0.179885
0.0302169
0.176173
0.0334096
0.172105
0.0367903
0.167661
0.0403845
0.162811
0.0442149
0.157529
0.0483025
0.151787
0.0526702
0.145541
0.0573395
0.138711
0.0623247
0.131213
0.0676238
0.122967
0.0732242
0.113848
0.0790991
0.103711
0.0851817
0.0924008
0.0913504
0.0797836
0.0974063
0.0657825
0.10304
0.0504547
0.10778
0.0340178
0.110899
0.0169777
0.111394
0.108242
0.19964
0.00326812
0.199011
0.00636959
0.198108
0.00932926
0.196929
0.0122019
0.195471
0.0150385
0.193734
0.0178806
0.191714
0.0207623
0.189407
0.0237144
0.186804
0.026766
0.183898
0.029945
0.180675
0.0332776
0.177124
0.0367891
0.173229
0.0405068
0.168971
0.0444598
0.164323
0.0486762
0.159258
0.0531856
0.153738
0.0580217
0.147707
0.0632175
0.141082
0.0687994
0.133781
0.0747854
0.125702
0.0811907
0.116703
0.0880112
0.106616
0.0951979
0.0952666
0.102635
0.0824986
0.110098
0.0682276
0.117213
0.0524996
0.123367
0.0355387
0.127646
0.0178427
0.128796
0.125912
0.199649
0.00353778
0.19904
0.00690004
0.198171
0.0101178
0.197041
0.0132475
0.195646
0.0163391
0.193987
0.0194357
0.19206
0.0225736
0.189859
0.0257857
0.187379
0.029103
0.184612
0.0325559
0.181549
0.0361735
0.178177
0.0399841
0.174476
0.0440177
0.170429
0.0483076
0.166012
0.0528886
0.161194
0.0577993
0.155933
0.0630828
0.150169
0.0687838
0.143824
0.0749456
0.136808
0.0816118
0.129
0.0888253
0.120244
0.096608
0.110351
0.104938
0.0991156
0.113715
0.0863398
0.122703
0.0718895
0.131472
0.0557391
0.139266
0.0380761
0.144992
0.0193365
0.147207
0.145036
0.19966
0.00379602
0.199075
0.00740658
0.198245
0.010868
0.197167
0.0142391
0.195842
0.0175703
0.194267
0.0209056
0.19244
0.0242832
0.190356
0.027738
0.188009
0.0313028
0.185392
0.0350097
0.182501
0.0388908
0.179325
0.0429774
0.17584
0.047303
0.172028
0.0519043
0.16787
0.0568224
0.163336
0.0621044
0.158381
0.0678027
0.15295
0.073975
0.146969
0.0806839
0.14034
0.0879989
0.132937
0.095991
0.12459
0.104717
0.115091
0.114196
0.104187
0.124364
0.0916054
0.135009
0.0770815
0.145694
0.0604668
0.155519
0.0418366
0.163218
0.0215679
0.167087
0.166398
0.199673
0.00404097
0.199115
0.00788604
0.198327
0.0115762
0.197307
0.0151727
0.196056
0.0187272
0.194571
0.0222843
0.192851
0.0258842
0.190892
0.0295632
0.188689
0.0333558
0.186233
0.0372955
0.183526
0.0414165
0.18056
0.0457538
0.177311
0.0503441
0.17376
0.0552265
0.169891
0.0604477
0.165677
0.0660626
0.161081
0.0721325
0.156051
0.0787278
0.150519
0.0859295
0.144391
0.093831
0.137544
0.102534
0.129809
0.112137
0.120957
0.122713
0.110691
0.134271
0.0986252
0.146684
0.084306
0.159585
0.0673094
0.172046
0.0474101
0.182627
0.0248871
0.18914
0.191032
0.199688
0.00427117
0.199159
0.00833585
0.198416
0.012239
0.197458
0.0160446
0.196285
0.0198053
0.194895
0.0235668
0.193289
0.0273705
0.191462
0.0312542
0.189411
0.0352536
0.187129
0.0394036
0.184616
0.0437396
0.18187
0.0482999
0.178876
0.0531234
0.175612
0.0582525
0.17206
0.0637379
0.168204
0.0696396
0.164014
0.0760272
0.159449
0.0829817
0.15445
0.0905993
0.14894
0.0989942
0.142811
0.108297
0.135908
0.118649
0.128011
0.130188
0.118799
0.143024
0.107797
0.157183
0.0943177
0.172517
0.0774417
0.18833
0.056283
0.203179
0.0306095
0.214251
0.221372
0.199704
0.00448546
0.199207
0.00875394
0.198511
0.0128538
0.197618
0.0168515
0.196526
0.0208009
0.195237
0.0247487
0.193749
0.028737
0.192061
0.0328049
0.19017
0.0369892
0.188072
0.0413256
0.185764
0.0458509
0.183249
0.050604
0.180524
0.0556264
0.177567
0.0609644
0.174357
0.06667
0.170891
0.0728059
0.16715
0.0794477
0.163106
0.0866839
0.158718
0.0946208
0.153933
0.103387
0.148674
0.113134
0.142828
0.124039
0.136218
0.136297
0.128568
0.150122
0.119417
0.165728
0.107963
0.183309
0.0928059
0.20276
0.0717492
0.223477
0.0419781
0.243326
0.263038
0.19972
0.00468298
0.199257
0.00913861
0.198611
0.0134183
0.197785
0.0175909
0.196779
0.021711
0.195593
0.0258262
0.194229
0.0299794
0.192684
0.0342104
0.19096
0.0385568
0.189052
0.0430549
0.18696
0.0477418
0.184689
0.0526567
0.182241
0.0578432
0.179601
0.0633491
0.176756
0.0692265
0.173706
0.0755392
0.170448
0.0823651
0.166969
0.0897954
0.163253
0.0979401
0.159278
0.106932
0.155012
0.116933
0.150408
0.128133
0.145384
0.140759
0.139803
0.155081
0.133412
0.171431
0.125734
0.190229
0.115739
0.211925
0.101166
0.237186
0.0770876
0.266652
0.339486
-0.00676084
0.00683812
-0.0201603
0.0134136
-0.0370716
0.0167955
-0.0559974
0.0186843
-0.0760278
0.0197205
-0.0965505
0.0202034
-0.117137
0.0202985
-0.137475
0.0201012
-0.157314
0.0196654
-0.176442
0.0190172
-0.194653
0.0181617
-0.211737
0.0170901
-0.227466
0.0157845
-0.241585
0.0142209
-0.253821
0.0123746
-0.263883
0.0102242
-0.271464
0.00775721
-0.27625
0.00497472
-0.277921
0.00186749
-0.276204
-0.00152319
-0.27083
-0.0051894
-0.261616
-0.00903967
-0.248408
-0.0130454
-0.231002
-0.0172552
-0.209072
-0.021793
-0.181994
-0.0269537
-0.148213
-0.0336667
-0.103413
-0.0446931
-0.038044
-0.0652646
-0.0986171
-0.0124698
0.0193456
-0.0272933
0.0282168
-0.0442882
0.0336366
-0.0628446
0.0369751
-0.0823087
0.0388669
-0.102171
0.0397497
-0.122051
0.0399005
-0.141661
0.0394877
-0.160764
0.0386073
-0.17915
0.0373047
-0.196614
0.0355867
-0.212941
0.0334324
-0.227893
0.0308035
-0.241214
0.0276512
-0.252623
0.0239257
-0.261815
0.0195828
-0.268475
0.0145979
-0.272277
0.00896896
-0.272934
0.00272365
-0.270214
-0.00404638
-0.263949
-0.0112686
-0.254005
-0.0188104
-0.240249
-0.0266381
-0.222527
-0.0348273
-0.20059
-0.0435925
-0.17394
-0.0534795
-0.141474
-0.0660192
-0.10139
-0.0846704
-0.0526315
-0.113919
-0.155085
-0.0149503
0.0343154
-0.030895
0.0440945
-0.0477582
0.0502867
-0.0654193
0.0543324
-0.0835768
0.056696
-0.10194
0.0578054
-0.120257
0.0579564
-0.138312
0.0573418
-0.155916
0.0560746
-0.172888
0.0542032
-0.189046
0.0517263
-0.204187
0.0486042
-0.218074
0.0447715
-0.230449
0.0401502
-0.24103
0.0346615
-0.249509
0.028237
-0.255561
0.020837
-0.258863
0.0124673
-0.259099
0.0031657
-0.256083
-0.00685975
-0.249632
-0.0175307
-0.239649
-0.0286188
-0.226053
-0.0400706
-0.208754
-0.0519767
-0.187598
-0.0646104
-0.162298
-0.0786545
-0.132392
-0.0958119
-0.0976563
-0.1193
-0.0590089
-0.152463
-0.195011
-0.0159862
0.0503578
-0.0323067
0.0602851
-0.0486733
0.066372
-0.0651669
0.070483
-0.0817599
0.0729544
-0.0983699
0.0741226
-0.11489
0.074242
-0.131202
0.0734857
-0.147179
0.0719491
-0.162673
0.0696593
-0.177522
0.0665905
-0.191536
0.0626738
-0.204473
0.0578061
-0.216052
0.0518698
-0.225969
0.0447503
-0.233894
0.0363512
-0.23948
0.026619
-0.242373
0.0155626
-0.242274
0.00327851
-0.238974
-0.00994983
-0.232384
-0.0239269
-0.222454
-0.0383688
-0.209165
-0.0531959
-0.192481
-0.06851
-0.172338
-0.0846147
-0.148658
-0.102208
-0.121513
-0.122843
-0.0915536
-0.149153
-0.0603847
-0.183528
-0.224262
-0.016133
0.0664403
-0.0320864
0.0760056
-0.0474996
0.0814368
-0.0625826
0.0851968
-0.0774816
0.0875253
-0.0922619
0.0886363
-0.106935
0.0887179
-0.121469
0.0878934
-0.135793
0.0862136
-0.14979
0.0836628
-0.16331
0.0801713
-0.17617
0.075629
-0.188127
0.069888
-0.198879
0.0627835
-0.208098
0.0541594
-0.21543
0.0438888
-0.220507
0.0319053
-0.222971
0.018239
-0.222493
0.00302026
-0.218945
-0.0132834
-0.212267
-0.0304046
-0.202486
-0.047965
-0.189642
-0.0658719
-0.173752
-0.0842485
-0.154818
-0.103408
-0.132933
-0.123965
-0.108534
-0.147127
-0.0827504
-0.17483
-0.0574913
-0.208683
-0.245631
-0.015525
0.0818421
-0.0304702
0.0906307
-0.0445141
0.095097
-0.057954
0.0982711
-0.0710435
0.100314
-0.0839422
0.101308
-0.0967395
0.101366
-0.109467
0.100546
-0.1221
0.0988392
-0.134555
0.0961718
-0.146693
0.0924174
-0.158333
0.0874107
-0.169231
0.0809529
-0.179083
0.0728286
-0.187544
0.0628347
-0.194237
0.0508074
-0.198769
0.0366658
-0.200777
0.020475
-0.199915
0.00238569
-0.19612
-0.0168587
-0.189403
-0.036915
-0.17987
-0.0573073
-0.167621
-0.0779497
-0.152706
-0.09901
-0.13517
-0.120803
-0.115211
-0.143794
-0.0934801
-0.168743
-0.0713527
-0.196851
-0.0508329
-0.229099
-0.261415
-0.0142218
0.0959405
-0.0276027
0.10367
-0.0399271
0.107056
-0.051512
0.10953
-0.0626675
0.111216
-0.0736081
0.112078
-0.0844757
0.112144
-0.0953468
0.111404
-0.106232
0.109776
-0.117075
0.107123
-0.127757
0.103254
-0.138099
0.097941
-0.14786
0.090925
-0.156737
0.0819353
-0.164375
0.0707155
-0.170375
0.0570574
-0.174318
0.0408592
-0.17581
0.0222124
-0.174628
0.00144237
-0.170609
-0.0206504
-0.163915
-0.0433971
-0.154741
-0.0662866
-0.143237
-0.089277
-0.129472
-0.112617
-0.113506
-0.136625
-0.0955832
-0.161587
-0.0764476
-0.187762
-0.0575608
-0.21563
-0.0408965
-0.245659
-0.273139
-0.0122691
0.108059
-0.0236845
0.11475
-0.0339873
0.11705
-0.0435011
0.118784
-0.0525683
0.120089
-0.0614389
0.120844
-0.0702903
0.120977
-0.0792297
0.120399
-0.0882926
0.118958
-0.0974439
0.116443
-0.106582
0.1126
-0.115539
0.107135
-0.124085
0.0997259
-0.131921
0.0900388
-0.138689
0.0777579
-0.143977
0.0626214
-0.14734
0.0444936
-0.148365
0.0235007
-0.146811
0.000140723
-0.142606
-0.0246198
-0.136009
-0.0497774
-0.127311
-0.0747855
-0.116699
-0.0997066
-0.10424
-0.124914
-0.0899847
-0.150735
-0.0741764
-0.177265
-0.0575778
-0.204243
-0.0416165
-0.231483
-0.0281766
-0.258994
-0.281797
-0.00984876
0.117721
-0.0189732
0.123542
-0.0269722
0.124801
-0.0341768
0.125808
-0.0409619
0.126759
-0.0476192
0.127479
-0.0543467
0.127768
-0.0612664
0.127454
-0.0684258
0.126309
-0.0758012
0.124053
-0.083305
0.12037
-0.0907884
0.114906
-0.0980366
0.107274
-0.104765
0.0970742
-0.110622
0.0839219
-0.115189
0.0674899
-0.117991
0.0475896
-0.118567
0.0243567
-0.116683
-0.00147702
-0.112349
-0.0287095
-0.105955
-0.0559504
-0.0978672
-0.0826675
-0.0882895
-0.109096
-0.0772656
-0.135771
-0.0648206
-0.163032
-0.0511716
-0.190783
-0.0370504
-0.218247
-0.0237756
-0.244649
-0.0131018
-0.269562
-0.287776
-0.00718829
0.124674
-0.0137252
0.129778
-0.0190982
0.129988
-0.023731
0.130352
-0.0280336
0.131051
-0.0323334
0.131857
-0.036836
0.132429
-0.0416583
0.132499
-0.0468428
0.131764
-0.0523643
0.129879
-0.058144
0.126477
-0.0640532
0.121156
-0.0699024
0.113469
-0.0754313
0.102948
-0.0803043
0.0891342
-0.084112
0.0716266
-0.0863723
0.0501647
-0.0865579
0.0248398
-0.0844316
-0.0033246
-0.0800805
-0.0328071
-0.0740579
-0.0617457
-0.0667591
-0.0897545
-0.0583636
-0.117297
-0.0488785
-0.145085
-0.0382918
-0.173469
-0.0268069
-0.202135
-0.0150936
-0.229841
-0.0043168
-0.255317
0.00390934
-0.277682
-0.292318
-0.00461655
0.129164
-0.00801627
0.132951
-0.0104777
0.132352
-0.0122789
0.132174
-0.0139303
0.132811
-0.015771
0.13389
-0.01799
0.134911
-0.0206752
0.135498
-0.0238462
0.135285
-0.027457
0.133864
-0.0314276
0.130834
-0.0356525
0.125772
-0.0399701
0.118177
-0.0441531
0.107514
-0.0479024
0.0932541
-0.050859
0.0749379
-0.0525902
0.0522316
-0.0524703
0.025034
-0.050196
-0.005309
-0.0460286
-0.0367134
-0.0406446
-0.0668946
-0.034369
-0.0958112
-0.0273263
-0.124141
-0.0194686
-0.15277
-0.010704
-0.182082
-0.00134751
-0.211358
0.00798392
-0.239053
0.0163465
-0.263569
0.0225309
-0.28376
-0.295437
-0.00139492
0.130485
-0.00185847
0.133268
-0.00108252
0.131601
0.00016216
0.131084
0.00122765
0.131978
0.00184798
0.133581
0.001891
0.135238
0.00132226
0.136473
0.000160405
0.136875
-0.001534
0.135998
-0.00367095
0.133414
-0.00612668
0.128668
-0.00875761
0.121238
-0.0114126
0.110586
-0.0138746
0.0961154
-0.0158185
0.0772602
-0.0167836
0.0535524
-0.0162068
0.0247868
-0.0138403
-0.00737705
-0.0103398
-0.0399462
-0.0059906
-0.0709996
-0.00110055
-0.100475
0.00438804
-0.129427
0.0105539
-0.15876
0.0173832
-0.188758
0.0246155
-0.218455
0.0317817
-0.246099
0.0381587
-0.269836
0.0426461
-0.28814
-0.297315
0.00169667
0.128745
0.00502471
0.129881
0.00939883
0.12741
0.0137213
0.127077
0.0173671
0.128694
0.0202576
0.13111
0.0223926
0.133573
0.0238033
0.135549
0.024565
0.136609
0.0247562
0.136304
0.0244848
0.134177
0.0238577
0.129776
0.0229946
0.122568
0.0220418
0.111986
0.0211587
0.0974229
0.0205925
0.0782254
0.0207745
0.0537441
0.0218802
0.0240245
0.0238009
-0.0089925
0.0261951
-0.0420665
0.0290319
-0.0735826
0.0323114
-0.103523
0.0360977
-0.133009
0.0405541
-0.163038
0.0456324
-0.193681
0.0510717
-0.223759
0.0564012
-0.251308
0.0609599
-0.274283
0.0638594
-0.290932
-0.298016
0.00530684
0.123414
0.0135151
0.12181
0.0215438
0.119758
0.0285595
0.120539
0.0343885
0.123349
0.0392039
0.126803
0.0431573
0.130162
0.0463404
0.132913
0.0488622
0.134634
0.0508186
0.134888
0.0523115
0.133214
0.0534535
0.129147
0.0543574
0.122158
0.055146
0.111669
0.0559594
0.0970544
0.0569919
0.0776085
0.058382
0.0527411
0.0598626
0.0228983
0.0611831
-0.00999937
0.0623972
-0.0429991
0.0636828
-0.0746075
0.0653012
-0.104906
0.067488
-0.13499
0.0703964
-0.165767
0.0739428
-0.197071
0.077807
-0.227486
0.0814903
-0.254869
0.0843842
-0.277065
0.0857821
-0.292222
-0.297549
0.0140689
0.109819
0.0253018
0.110873
0.0357506
0.109804
0.0445638
0.112287
0.0519595
0.116514
0.0582711
0.121056
0.0637211
0.125294
0.0684319
0.128787
0.0725178
0.131128
0.0760792
0.131896
0.0792091
0.130639
0.0820089
0.126884
0.0845781
0.120103
0.0870169
0.109719
0.0894207
0.0951112
0.0918331
0.0756239
0.0941008
0.0508688
0.0958622
0.0214986
0.0968198
-0.0106337
0.0970654
-0.0429545
0.097016
-0.0742937
0.0972003
-0.104854
0.0980356
-0.135618
0.0996828
-0.167234
0.101977
-0.199208
0.104502
-0.229874
0.106722
-0.256967
0.108084
-0.278314
0.108041
-0.29207
-0.295907
0.207388
0.00486953
0.206943
0.00950128
0.206327
0.0139494
0.205543
0.0182844
0.204592
0.0225622
0.203475
0.0268307
0.202193
0.0311334
0.200748
0.0355105
0.199141
0.0399997
0.197372
0.0446378
0.195441
0.0494617
0.193356
0.0545106
0.191121
0.0598281
0.188733
0.0654612
0.186188
0.0714618
0.183495
0.0778926
0.180661
0.084829
0.177695
0.0923596
0.174608
0.10059
0.171418
0.109648
0.168148
0.119684
0.164837
0.130876
0.161538
0.143433
0.158336
0.157595
0.155372
0.173635
0.152916
0.191855
0.151449
0.212507
0.152388
0.235365
0.163547
0.254788
0.260567
0.242015
0.212424
0.00504043
0.212008
0.00983282
0.211438
0.0144336
0.210714
0.018915
0.20984
0.0233335
0.208818
0.0277374
0.20765
0.0321702
0.20634
0.0366721
0.204889
0.0412809
0.203302
0.046033
0.201583
0.0509647
0.19974
0.0561142
0.197781
0.0615233
0.195713
0.0672372
0.193546
0.0733057
0.191295
0.0797875
0.188983
0.0867517
0.186639
0.0942789
0.184304
0.102463
0.182036
0.111413
0.179917
0.121252
0.178072
0.132121
0.176687
0.144163
0.176056
0.157514
0.176661
0.172259
0.179333
0.188356
0.185598
0.2054
0.197986
0.222186
0.215742
0.236422
0.246315
0.229702
0.217584
0.00519377
0.217201
0.0101295
0.216681
0.0148657
0.216025
0.0194757
0.215237
0.0240164
0.21432
0.0285359
0.213278
0.0330779
0.212116
0.037682
0.210838
0.0423854
0.209452
0.0472234
0.207964
0.0522314
0.206385
0.0574455
0.20473
0.0629047
0.203014
0.0686507
0.201256
0.0747291
0.199483
0.0811921
0.197731
0.0880994
0.196051
0.0955185
0.194509
0.103525
0.193198
0.112202
0.192249
0.121635
0.191846
0.131908
0.192254
0.143089
0.19387
0.155195
0.19724
0.168151
0.203114
0.18171
0.21239
0.195366
0.225621
0.208283
0.241686
0.219855
0.22705
0.260714
0.222871
0.00532769
0.222524
0.0103879
0.222059
0.0152406
0.221478
0.0199598
0.220785
0.0246026
0.219983
0.0292168
0.219079
0.0338455
0.218078
0.0385274
0.216988
0.0432987
0.215818
0.0481933
0.21458
0.0532445
0.213287
0.0584858
0.21196
0.0639523
0.21062
0.0696807
0.209296
0.0757107
0.208025
0.0820861
0.206857
0.0888547
0.205859
0.0960677
0.205117
0.103779
0.204752
0.112042
0.204917
0.120903
0.205826
0.130388
0.207762
0.140498
0.211107
0.151174
0.216328
0.162249
0.22392
0.173427
0.234355
0.184271
0.248015
0.19406
0.265405
0.202054
0.206239
0.286021
0.228287
0.00544042
0.22798
0.0106045
0.227575
0.0155532
0.227075
0.020361
0.226485
0.0250845
0.225808
0.029771
0.225052
0.0344625
0.224225
0.0391968
0.223337
0.0440082
0.222399
0.0489288
0.221427
0.0539892
0.220438
0.0592196
0.219456
0.0646503
0.218511
0.0703124
0.217638
0.0762379
0.216883
0.0824607
0.216308
0.0890159
0.215986
0.0959378
0.216021
0.103256
0.21655
0.110995
0.217734
0.11917
0.219769
0.127761
0.222931
0.136712
0.227547
0.145924
0.233978
0.155196
0.242568
0.164234
0.253637
0.172642
0.267425
0.179807
0.283989
0.185158
0.188109
0.301965
0.233835
0.00553029
0.233572
0.0107762
0.233232
0.0157991
0.23282
0.0206734
0.232339
0.025455
0.231796
0.0301902
0.231199
0.0349198
0.230557
0.0396798
0.229882
0.0445029
0.229189
0.0494183
0.228496
0.0544538
0.227824
0.0596354
0.227202
0.0649887
0.226663
0.0705379
0.22625
0.076307
0.226013
0.082319
0.226023
0.0885954
0.226359
0.0951565
0.227123
0.102011
0.22846
0.109155
0.230533
0.116575
0.233508
0.124229
0.237618
0.132023
0.24313
0.139833
0.250297
0.14747
0.259347
0.15466
0.270441
0.161077
0.283557
0.166308
0.298452
0.169997
0.172112
0.31433
0.239519
0.00559576
0.239302
0.0108999
0.239033
0.0159741
0.238714
0.0208916
0.23835
0.0257077
0.237949
0.0304672
0.237518
0.0352093
0.237071
0.0399682
0.23662
0.044774
0.236181
0.0496534
0.235777
0.0546304
0.235431
0.0597267
0.235174
0.0649625
0.235049
0.0703556
0.235097
0.0759223
0.235369
0.0816752
0.235941
0.0876218
0.236898
0.0937685
0.238338
0.10011
0.240388
0.106621
0.243202
0.113267
0.246931
0.119987
0.251745
0.126683
0.257839
0.133222
0.265384
0.139431
0.274501
0.14509
0.285228
0.149956
0.297454
0.15377
0.31094
0.1563
0.157699
0.325263
0.245342
0.00563545
0.245175
0.0109732
0.244979
0.0160744
0.244758
0.0210111
0.244517
0.0258372
0.244264
0.030596
0.244009
0.0353246
0.243763
0.0400552
0.243543
0.0448152
0.243367
0.0496282
0.243258
0.0545145
0.243242
0.0594914
0.243353
0.0645733
0.243635
0.0697722
0.244135
0.075097
0.244901
0.0805509
0.246004
0.0861307
0.247533
0.0918294
0.249578
0.0976296
0.252249
0.103497
0.255672
0.109382
0.259973
0.115217
0.265284
0.120904
0.271729
0.126321
0.27941
0.131322
0.288375
0.13574
0.298603
0.139402
0.309975
0.142146
0.32228
0.14383
0.144676
0.335239
0.251306
0.00564815
0.251192
0.0109938
0.251074
0.0160969
0.250955
0.021028
0.250842
0.0258392
0.250743
0.0305718
0.250668
0.0352611
0.25063
0.0399365
0.250646
0.0446228
0.250737
0.0493403
0.250925
0.0541057
0.25124
0.0589319
0.251716
0.0638282
0.252394
0.068801
0.253325
0.0738518
0.254559
0.0789762
0.256159
0.0841637
0.258204
0.089398
0.260777
0.0946523
0.26397
0.0998859
0.267883
0.105046
0.272616
0.110062
0.278258
0.114846
0.284887
0.119294
0.292553
0.123289
0.30126
0.126709
0.31096
0.129434
0.321538
0.131367
0.332814
0.132427
0.13285
0.344597
0.257416
0.00563287
0.257356
0.0109598
0.257318
0.0160392
0.257306
0.0209393
0.257325
0.0257104
0.257383
0.0303916
0.257492
0.0350157
0.257666
0.0396097
0.257921
0.0441956
0.258279
0.0487906
0.258764
0.0534075
0.259405
0.0580554
0.260235
0.062739
0.261297
0.0674593
0.262635
0.0722124
0.264301
0.0769881
0.266353
0.0817701
0.268856
0.0865358
0.271884
0.0912536
0.275509
0.0958809
0.279808
0.100365
0.284853
0.10464
0.290703
0.108632
0.2974
0.112255
0.30496
0.11542
0.313362
0.118039
0.322545
0.120035
0.332406
0.121349
0.3428
0.12194
0.122029
0.353596
0.263674
0.00558888
0.26367
0.01087
0.263716
0.0158994
0.263812
0.0207431
0.263966
0.0254489
0.264184
0.0300535
0.264479
0.0345875
0.264865
0.0390752
0.265358
0.0435356
0.265981
0.0479831
0.266756
0.0524271
0.267714
0.056873
0.268886
0.0613217
0.270311
0.0657698
0.272031
0.0702091
0.274093
0.0746254
0.276548
0.0789988
0.279451
0.0833033
0.282862
0.0875057
0.286837
0.0915645
0.291433
0.0954305
0.296696
0.0990472
0.302662
0.102352
0.309348
0.105278
0.316749
0.107761
0.324831
0.109739
0.333531
0.111163
0.34276
0.112001
0.352402
0.112233
0.112059
0.362363
0.270084
0.00551568
0.270138
0.0107234
0.270268
0.0156766
0.270475
0.0204383
0.270764
0.0250539
0.271143
0.0295576
0.271624
0.0339775
0.272221
0.0383352
0.272949
0.0426471
0.273831
0.0469248
0.274889
0.0511747
0.27615
0.055399
0.277646
0.0595957
0.27941
0.063758
0.281481
0.0678745
0.283901
0.0719288
0.286711
0.0758991
0.289958
0.0797586
0.293687
0.0834746
0.29794
0.087009
0.302755
0.0903183
0.308162
0.0933551
0.314176
0.0960695
0.320799
0.0984116
0.328013
0.100334
0.335779
0.101798
0.344037
0.102772
0.352709
0.10324
0.361705
0.103196
0.102816
0.370952
0.276649
0.00541306
0.276761
0.0105197
0.276976
0.0153704
0.277294
0.020025
0.27772
0.0245261
0.278259
0.0289054
0.278924
0.0331883
0.279728
0.0373942
0.280686
0.0415369
0.281818
0.0456252
0.283147
0.0496633
0.284696
0.0536509
0.286494
0.0575833
0.288572
0.0614517
0.290962
0.0652429
0.293699
0.0689392
0.296818
0.0725188
0.300354
0.0759555
0.304342
0.0792191
0.30881
0.0822759
0.313783
0.085089
0.319274
0.0876201
0.325287
0.0898307
0.331813
0.0916844
0.338826
0.0931489
0.346287
0.0941985
0.35414
0.0948166
0.362321
0.0949972
0.370754
0.0947416
0.0942007
0.379383
0.283372
0.00528106
0.283544
0.0102592
0.283844
0.0149815
0.284273
0.0195043
0.284833
0.0238673
0.28553
0.0280997
0.286376
0.0322246
0.287381
0.0362587
0.288561
0.0402137
0.289933
0.0440962
0.291517
0.0479084
0.293336
0.0516479
0.295414
0.0553085
0.297777
0.05888
0.300452
0.0623486
0.303467
0.0656964
0.30685
0.0689026
0.310627
0.071943
0.314821
0.0747907
0.319451
0.077417
0.324528
0.0797918
0.330058
0.0818849
0.336034
0.0836678
0.342439
0.0851147
0.349246
0.0862043
0.356416
0.0869215
0.363899
0.0872584
0.371639
0.0872156
0.379575
0.086799
0.0861364
0.38766
0.290258
0.00511998
0.290488
0.00994246
0.290873
0.0145109
0.291411
0.018878
0.292103
0.0230805
0.292955
0.0271451
0.293976
0.0310923
0.295175
0.0349368
0.296567
0.0386882
0.298166
0.0423514
0.29999
0.0459268
0.302059
0.0494108
0.304391
0.0527962
0.30701
0.0560723
0.309937
0.0592252
0.313193
0.0622382
0.316798
0.0650919
0.320771
0.0677648
0.325125
0.070234
0.329871
0.0724757
0.335011
0.074466
0.340543
0.0761822
0.346453
0.0776036
0.352723
0.0787128
0.359323
0.0794967
0.366215
0.0799477
0.373356
0.0800637
0.380698
0.0798493
0.388187
0.0793131
0.0785619
0.395788
0.297309
0.00493035
0.297598
0.00957066
0.298066
0.0139606
0.29871
0.018149
0.299531
0.0221697
0.300533
0.0260468
0.301722
0.0297987
0.303107
0.0334379
0.304699
0.0369725
0.306511
0.0404056
0.308557
0.0437365
0.310854
0.046961
0.313417
0.0500714
0.316263
0.0530572
0.319409
0.0559051
0.32287
0.0585997
0.326659
0.0611239
0.330787
0.0634593
0.335262
0.0655868
0.340085
0.0674874
0.345253
0.0691429
0.350759
0.0705364
0.356585
0.0716539
0.362709
0.0724842
0.369102
0.0730204
0.37573
0.0732597
0.382553
0.0732042
0.389529
0.0728607
0.396614
0.0722393
0.0714284
0.403775
0.30453
0.00471293
0.304876
0.00914534
0.305426
0.013333
0.306173
0.0173209
0.307119
0.0211399
0.308264
0.0248116
0.309613
0.0283522
0.311173
0.0317727
0.312952
0.0350793
0.314962
0.0382743
0.317212
0.0413562
0.319716
0.0443202
0.322485
0.0471589
0.32553
0.0498621
0.328865
0.052418
0.332497
0.0548128
0.336436
0.0570318
0.340684
0.0590596
0.345245
0.0608811
0.350113
0.0624813
0.355283
0.0638468
0.36074
0.0649659
0.366466
0.0658294
0.372438
0.0664311
0.378628
0.0667682
0.385003
0.0668416
0.391529
0.0666557
0.398167
0.0662187
0.404881
0.0655414
0.0646961
0.41164
0.311924
0.00446865
0.312326
0.00866838
0.312954
0.0126311
0.313802
0.0163979
0.314866
0.0199966
0.316147
0.0234465
0.317648
0.026762
0.319372
0.0299522
0.321327
0.0330222
0.323518
0.0359735
0.325954
0.0388041
0.328643
0.0415093
0.331593
0.0440819
0.334812
0.0465128
0.338307
0.0487913
0.342081
0.0509059
0.346138
0.0528442
0.350477
0.0545939
0.355094
0.0561429
0.359983
0.0574802
0.365131
0.0585964
0.370523
0.0594836
0.376139
0.0601366
0.381956
0.0605528
0.387946
0.0607323
0.39408
0.0606782
0.400327
0.0603967
0.406652
0.0598966
0.413023
0.0591885
0.0583312
0.419414
0.319496
0.00419859
0.319952
0.00814192
0.320655
0.0118582
0.321598
0.0153845
0.322776
0.0187459
0.324186
0.0219594
0.325829
0.0250375
0.327706
0.0279879
0.329821
0.0308148
0.332178
0.0335189
0.334781
0.0360982
0.337635
0.0385481
0.340745
0.0408621
0.344113
0.0430323
0.347742
0.0450494
0.351632
0.0469039
0.355781
0.0485857
0.360185
0.0500851
0.364836
0.0513931
0.369723
0.052502
0.374833
0.0534052
0.380148
0.0540982
0.385647
0.0545786
0.391308
0.0548463
0.397105
0.0549036
0.403011
0.054755
0.408995
0.0544075
0.41503
0.0538701
0.421086
0.0531532
0.0523039
0.427138
0.327249
0.00390388
0.327757
0.00756824
0.328533
0.0110178
0.329567
0.0142856
0.330851
0.0173942
0.332382
0.0203582
0.334158
0.0231883
0.336176
0.0258913
0.338438
0.0284702
0.340946
0.0309256
0.343699
0.0332552
0.346699
0.035455
0.349947
0.0375193
0.353443
0.0394413
0.357184
0.0412133
0.361167
0.0428275
0.365386
0.0442761
0.369833
0.0455517
0.374499
0.0466479
0.379369
0.0475593
0.384429
0.0482821
0.389659
0.0488141
0.395039
0.049155
0.400547
0.0493064
0.406158
0.0492719
0.411847
0.049057
0.417587
0.0486689
0.423352
0.0481165
0.429117
0.0474099
0.0465865
0.434858
0.335188
0.00358572
0.335745
0.00694969
0.33659
0.0101134
0.33771
0.0131062
0.339095
0.0159478
0.340739
0.0186507
0.342638
0.021224
0.344786
0.0236733
0.347183
0.0260011
0.349826
0.0282075
0.352713
0.0302905
0.355842
0.0322465
0.359211
0.0340706
0.362814
0.0357573
0.366648
0.0373004
0.370705
0.0386936
0.374976
0.0399311
0.379452
0.0410075
0.384118
0.0419184
0.388961
0.0426605
0.393962
0.0432319
0.399104
0.0436321
0.404366
0.0438622
0.409726
0.0439251
0.415161
0.0438251
0.420647
0.0435681
0.42616
0.0431614
0.431677
0.0426134
0.437175
0.0419336
0.0411514
0.442632
0.343317
0.0032452
0.343922