/*--------------------------------*- C++ -*----------------------------------*\
| =========                 |                                                 |
| \\      /  F ield         | OpenFOAM: The Open Source CFD Toolbox           |
|  \\    /   O peration     | Version:  2006                                  |
|   \\  /    A nd           | Website:  www.openfoam.com                      |
|    \\/     M anipulation  |                                                 |
\*---------------------------------------------------------------------------*/
FoamFile
{
    version     2.0;
    format      ascii;
    class       volVectorField;
    location    "0.5";
    object      U;
}
// * * * * * * * * * * * * * * * * * * * * * * * * * * * * * * * * * * * * * //

dimensions      [0 1 -1 0 0 0 0];


internalField   nonuniform List<vector> 
2790
(
(9.94371 0.019676 0)
(9.88109 0.0278391 1.1802e-21)
(9.78941 0.0333364 -1.2034e-21)
(9.67505 0.0389803 -9.89117e-21)
(9.54387 0.0448436 1.18237e-21)
(9.39686 0.0508594 1.03566e-20)
(9.23318 0.057144 0)
(9.05189 0.063847 -5.5398e-21)
(8.85213 0.0710975 0)
(8.63291 0.0790167 0)
(8.39302 0.0877322 2.50664e-20)
(8.13101 0.0973821 -2.57214e-20)
(7.8453 0.108117 0)
(7.53418 0.120093 2.85192e-20)
(7.19584 0.13348 2.62517e-20)
(6.82852 0.148445 3.93347e-21)
(6.43062 0.165128 6.74427e-20)
(6.00085 0.183612 -7.18491e-20)
(5.53849 0.203908 -1.53707e-19)
(5.04368 0.22589 1.65103e-19)
(4.51772 0.249217 0)
(3.96342 0.273239 0)
(3.38545 0.296838 0)
(2.79076 0.318146 4.5834e-19)
(2.189 0.333948 0)
(1.59359 0.338389 0)
(1.02387 0.320068 3.02529e-18)
(0.513497 0.256339 -5.26151e-18)
(0.10122 0.115344 2.11143e-18)
(-0.0109033 -0.120637 5.94168e-18)
(9.99842 0.0380816 0)
(9.98718 0.0571252 -1.1734e-21)
(9.95049 0.0712686 3.57536e-21)
(9.89051 0.0861136 -9.76208e-21)
(9.81168 0.101886 1.11534e-20)
(9.71509 0.118392 5.09458e-21)
(9.60009 0.135855 2.1079e-20)
(9.4658 0.154602 -3.77756e-20)
(9.31138 0.174927 3.32477e-20)
(9.13587 0.197112 3.47399e-20)
(8.93806 0.221447 1.62203e-22)
(8.71654 0.248246 6.27021e-21)
(8.46971 0.277834 6.66321e-21)
(8.19585 0.310542 -1.37915e-20)
(7.89308 0.346691 -3.04407e-22)
(7.55957 0.386566 -1.20677e-19)
(7.19362 0.430329 3.16163e-19)
(6.79372 0.477958 -1.96895e-19)
(6.35886 0.52917 1.41579e-19)
(5.88883 0.583282 -1.50877e-19)
(5.38446 0.639038 0)
(4.84797 0.694432 -1.39725e-18)
(4.28334 0.746486 1.4782e-18)
(3.69663 0.790944 -1.20698e-18)
(3.09606 0.82168 0)
(2.49217 0.8298 -9.4811e-19)
(1.89683 0.802097 -5.17844e-19)
(1.32294 0.718829 0)
(0.761529 0.55707 -9.32736e-18)
(0.348656 0.26896 1.10747e-17)
(9.99549 0.0387745 1.15569e-21)
(9.98113 0.0664988 -1.17007e-21)
(9.94614 0.0902593 -4.76114e-21)
(9.89043 0.114911 2.41583e-21)
(9.8171 0.14108 -2.47532e-21)
(9.72734 0.168685 -7.61408e-21)
(9.62081 0.19802 5.19864e-21)
(9.49681 0.229544 -2.65565e-21)
(9.35464 0.263711 -1.10187e-20)
(9.1935 0.300978 -1.13779e-20)
(9.01238 0.341825 -4.70303e-20)
(8.81008 0.386769 5.43415e-22)
(8.58518 0.43636 -1.00833e-19)
(8.33617 0.491161 5.38118e-20)
(8.06131 0.551728 8.17162e-22)
(7.7589 0.618553 1.18274e-19)
(7.42731 0.691984 -1.18965e-19)
(7.06483 0.772092 2.54129e-19)
(6.67012 0.858525 1.088e-18)
(6.24234 0.950307 3.07664e-19)
(5.78132 1.04557 2.43546e-20)
(5.28782 1.14125 -1.27487e-18)
(4.76372 1.23275 0)
(4.21224 1.31363 -2.22875e-18)
(3.63763 1.37507 -4.01607e-18)
(3.0444 1.40532 1.45383e-17)
(2.43565 1.38975 -7.39345e-18)
(1.81205 1.31183 8.12812e-18)
(1.14689 1.16345 -8.90032e-18)
(0.564082 0.925691 0)
(9.99389 0.0433465 4.60386e-21)
(9.97725 0.0810751 0)
(9.9419 0.115513 2.37411e-21)
(9.8872 0.150153 -2.40496e-21)
(9.81532 0.186198 0)
(9.72738 0.223972 -1.00502e-20)
(9.62326 0.26393 0)
(9.50243 0.306672 -5.33038e-21)
(9.36434 0.352819 1.63895e-20)
(9.20837 0.403006 -1.11537e-20)
(9.03374 0.457902 2.3243e-20)
(8.83951 0.518219 9.60303e-20)
(8.62459 0.584719 4.98996e-20)
(8.38779 0.658194 0)
(8.12779 0.73944 -1.07988e-19)
(7.84325 0.829199 3.36644e-19)
(7.53282 0.928077 -3.58767e-19)
(7.19506 1.03637 2.40241e-19)
(6.82869 1.15387 -1.04489e-18)
(6.43262 1.27961 8.03883e-19)
(6.00602 1.41156 2.3185e-18)
(5.54835 1.5462 -4.85647e-18)
(5.05948 1.67812 2.55378e-18)
(4.53952 1.79974 0)
(3.98865 1.90104 7.35366e-19)
(3.40594 1.96937 7.82057e-19)
(2.78825 1.99039 0)
(2.1314 1.95002 0)
(1.40505 1.84582 1.5255e-17)
(0.717148 1.66635 -1.88795e-17)
(9.99313 0.0493735 -9.19013e-21)
(9.97521 0.095523 5.80655e-21)
(9.93955 0.139149 -1.17751e-21)
(9.8857 0.182794 0)
(9.81526 0.227988 -1.22789e-21)
(9.72914 0.275404 1.14077e-20)
(9.62728 0.325624 2.41306e-21)
(9.50926 0.379326 -1.31672e-20)
(9.37458 0.437233 1.07119e-20)
(9.22268 0.500096 -4.45017e-20)
(9.05292 0.568707 2.27107e-20)
(8.86451 0.643909 4.79964e-20)
(8.65655 0.7266 -2.94451e-19)
(8.42812 0.817724 4.05703e-19)
(8.17815 0.918254 -3.13417e-19)
(7.9056 1.02914 -2.1972e-19)
(7.60939 1.1512 -2.2899e-19)
(7.28837 1.28496 0)
(6.94149 1.43045 0)
(6.56754 1.58695 0)
(6.1653 1.75263 5.43906e-19)
(5.73341 1.92403 -4.64796e-18)
(5.27014 2.09572 -8.14018e-20)
(4.77329 2.25997 6.3767e-18)
(4.23981 2.40671 0)
(3.6652 2.52354 -7.32778e-19)
(3.04299 2.59672 -1.55462e-18)
(2.368 2.61242 -8.41645e-19)
(1.61441 2.56634 9.30794e-19)
(0.853822 2.45192 7.23714e-21)
(9.99279 0.0560644 4.58591e-21)
(9.97429 0.110068 -9.25924e-21)
(9.9387 0.162429 0)
(9.8859 0.215027 0)
(9.81721 0.269387 0)
(9.7333 0.326377 0)
(9.63414 0.386692 1.01171e-20)
(9.51936 0.451086 -2.07218e-20)
(9.38851 0.520376 0)
(9.24106 0.595422 2.19537e-20)
(9.07647 0.677127 -4.49507e-20)
(8.89401 0.766453 0)
(8.69293 0.864424 -9.56306e-20)
(8.47243 0.97212 0)
(8.23157 1.09067 -3.11904e-19)
(7.96943 1.22121 4.22328e-19)
(7.68512 1.36476 0)
(7.37765 1.52207 4.57618e-19)
(7.04602 1.69349 0)
(6.68886 1.87868 0)
(6.30471 2.07625 -5.25658e-19)
(5.89163 2.28322 0)
(5.44679 2.49465 0)
(4.96638 2.70339 -2.41237e-18)
(4.44528 2.89986 1.15278e-17)
(3.87691 3.07201 -1.0763e-17)
(3.25324 3.206 -8.72972e-18)
(2.56934 3.28595 1.31955e-17)
(1.80862 3.29986 8.37423e-19)
(0.990421 3.24546 4.76168e-19)
(9.99269 0.0630307 0)
(9.97408 0.124606 4.61651e-21)
(9.93894 0.185253 0)
(9.88745 0.246456 0)
(9.82078 0.309646 9.62568e-21)
(9.73946 0.375821 0)
(9.64344 0.445804 -3.01018e-20)
(9.53243 0.520447 4.10877e-20)
(9.40598 0.600662 0)
(9.26364 0.6874 0)
(9.10489 0.781661 -7.06469e-22)
(8.9291 0.884502 9.06572e-20)
(8.73562 0.99706 -1.89072e-19)
(8.52369 1.12055 1.92517e-19)
(8.29237 1.25623 0)
(8.04087 1.4054 0)
(7.76833 1.56927 0)
(7.4738 1.74886 -4.47193e-19)
(7.15608 1.9449 0)
(6.81365 2.15753 1.93251e-18)
(6.44487 2.38595 -1.97403e-18)
(6.04727 2.62793 1.02731e-18)
(5.61718 2.87945 -3.28962e-18)
(5.14973 3.13432 6.75899e-18)
(4.63844 3.38368 -1.20019e-18)
(4.07546 3.61571 -1.23975e-18)
(3.45194 3.81552 -1.2705e-17)
(2.76253 3.96386 1.06737e-17)
(2.00213 4.03769 -7.81254e-19)
(1.1306 4.03519 1.36921e-17)
(9.99272 0.0700477 0)
(9.97435 0.138967 0)
(9.94 0.207485 9.26041e-21)
(9.89007 0.276909 -9.39443e-21)
(9.82571 0.348581 -9.5931e-21)
(9.74734 0.423582 -1.22408e-21)
(9.6549 0.502842 2.11728e-20)
(9.54814 0.587311 -3.0586e-20)
(9.42667 0.677985 1.03322e-20)
(9.2901 0.775898 -4.287e-20)
(9.13794 0.882128 -4.39394e-20)
(8.96963 0.997818 8.92825e-20)
(8.7846 1.12422 2.78413e-19)
(8.58207 1.26268 -9.38348e-20)
(8.3612 1.41461 0)
(8.12124 1.58144 0)
(7.86129 1.7646 0)
(7.5803 1.96546 0)
(7.27678 2.18513 -1.34747e-18)
(6.94919 2.42429 1.3621e-18)
(6.59566 2.68288 -1.90961e-18)
(6.21308 2.95967 9.56906e-19)
(5.79714 3.2518 -1.02851e-18)
(5.34213 3.55428 -2.47625e-20)
(4.84055 3.85918 1.08993e-18)
(4.28344 4.15481 2.31399e-18)
(3.66104 4.42473 6.19181e-19)
(2.96605 4.64608 -9.77005e-18)
(2.20603 4.7841 1.12207e-17)
(1.2793 4.83261 0)
(9.99284 0.076974 -5.6483e-22)
(9.97496 0.152998 -8.52623e-21)
(9.94169 0.229005 -9.24319e-21)
(9.89359 0.306252 1.75228e-20)
(9.83182 0.386026 8.85479e-22)
(9.75675 0.469458 3.00711e-22)
(9.6683 0.557567 -4.94391e-21)
(9.56623 0.651384 4.99418e-21)
(9.45027 0.75198 0)
(9.32009 0.860475 -4.17685e-20)
(9.17524 0.978025 4.30976e-20)
(9.01519 1.10585 2.64948e-22)
(8.83941 1.2453 -8.95706e-20)
(8.64719 1.39787 -9.30673e-20)
(8.43782 1.56509 -3.83348e-19)
(8.21053 1.74858 3.87644e-19)
(7.96434 1.95002 0)
(7.69804 2.17114 4.09423e-19)
(7.41009 2.41346 -4.28221e-19)
(7.09889 2.67827 2.63392e-18)
(6.76214 2.96641 2.58094e-20)
(6.39619 3.2778 1.88919e-18)
(5.99623 3.61098 -3.79562e-18)
(5.55577 3.96245 2.96604e-18)
(5.0662 4.32553 -5.10336e-18)
(4.51722 4.68898 -1.07938e-18)
(3.8972 5.03472 8.92634e-18)
(3.19466 5.337 5.93099e-19)
(2.42867 5.55034 -1.0287e-17)
(1.43916 5.65619 0)
(9.99303 0.0837137 -8.96165e-21)
(9.97582 0.166572 9.0852e-21)
(9.94387 0.249694 0)
(9.89785 0.334354 -9.30141e-21)
(9.83894 0.421814 -9.38474e-21)
(9.76748 0.513243 9.5339e-21)
(9.68339 0.609734 4.88856e-21)
(9.58648 0.71238 -2.46878e-20)
(9.47652 0.822317 0)
(9.35326 0.94074 8.2984e-20)
(9.21635 1.0689 -4.19262e-20)
(9.06531 1.2081 0)
(8.89959 1.35975 8.77343e-20)
(8.71862 1.52546 1.81952e-19)
(8.52179 1.70693 -1.8363e-19)
(8.30831 1.90597 0)
(8.07717 2.12456 0)
(7.82716 2.36473 -4.00615e-19)
(7.55681 2.6285 0)
(7.26429 2.91786 -4.20558e-19)
(6.9469 3.23462 -4.20714e-19)
(6.60074 3.58003 -3.50575e-18)
(6.22055 3.95432 7.13758e-18)
(5.79904 4.35582 -2.74367e-18)
(5.32639 4.77978 0)
(4.79029 5.21633 0)
(4.17597 5.64658 0)
(3.46472 6.04334 -8.98472e-18)
(2.68409 6.35186 1.83219e-17)
(1.61732 6.53969 -4.61775e-20)
(9.99327 0.0901974 1.78647e-20)
(9.97687 0.179584 0)
(9.94646 0.269441 -9.06807e-21)
(9.90275 0.36109 9.17521e-21)
(9.84693 0.455795 9.35579e-21)
(9.77937 0.554754 -9.49746e-21)
(9.7 0.65912 2.15869e-20)
(9.60865 0.770042 2.7045e-20)
(9.50515 0.888705 -2.99555e-20)
(9.38931 1.01637 1.97814e-20)
(9.26089 1.15437 -4.82424e-22)
(9.11953 1.30409 1.26058e-19)
(8.96465 1.46701 -2.60413e-19)
(8.79581 1.64482 2.6245e-19)
(8.61251 1.83939 3.61962e-19)
(8.41398 2.05274 4.83444e-21)
(8.19933 2.2871 -3.71988e-19)
(7.96744 2.54485 0)
(7.71687 2.82852 -7.82573e-19)
(7.44566 3.14086 7.87609e-19)
(7.15101 3.48475 2.02655e-18)
(6.82895 3.86289 -1.63001e-18)
(6.47391 4.27744 0)
(6.07795 4.72921 -3.12299e-20)
(5.63002 5.21635 -8.39345e-19)
(5.11516 5.73189 6.99263e-18)
(4.51449 6.25876 -7.20686e-18)
(3.79859 6.77057 0)
(3.00092 7.20336 -1.27671e-19)
(1.83398 7.51625 0)
(9.99354 0.0963731 -3.29488e-22)
(9.97807 0.191949 -8.63717e-21)
(9.94937 0.288146 9.0529e-21)
(9.90817 0.386346 -6.29579e-22)
(9.85568 0.48783 1.15548e-21)
(9.79228 0.593825 -5.83743e-22)
(9.71792 0.705526 -1.44585e-22)
(9.63249 0.824133 -4.85154e-21)
(9.53587 0.950876 4.88785e-21)
(9.42791 1.08705 -3.88433e-22)
(9.30849 1.23406 0)
(9.17738 1.39339 -8.32629e-20)
(9.03406 1.56659 8.47928e-20)
(8.87815 1.75538 -2.59181e-19)
(8.70931 1.96178 3.49364e-19)
(8.52689 2.18802 -5.34053e-19)
(8.33016 2.43655 5.37976e-19)
(8.11814 2.71008 -3.62771e-19)
(7.88952 3.01168 3.67403e-19)
(7.64248 3.34485 3.71428e-19)
(7.37439 3.71353 0)
(7.08146 4.12199 0)
(6.75819 4.57456 2.33137e-18)
(6.39644 5.07516 -3.89377e-18)
(5.98428 5.62616 1.55616e-18)
(5.50404 6.22582 7.59538e-19)
(4.93222 6.86314 6.28008e-18)
(4.22457 7.51733 -6.53258e-18)
(3.4145 8.11752 0)
(2.11468 8.61595 0)
(9.99384 0.1022 -8.70896e-21)
(9.9794 0.203595 9.04644e-21)
(9.95254 0.30572 -9.20519e-21)
(9.91404 0.41002 -9.64344e-21)
(9.86508 0.517799 5.70642e-22)
(9.80606 0.630308 -9.23165e-21)
(9.73698 0.748778 -3.75718e-20)
(9.65778 0.874448 -1.65806e-20)
(9.5684 1.00858 -2.40824e-21)
(9.46875 1.15251 -3.94868e-20)
(9.35877 1.30767 0)
(9.23838 1.47564 -4.07478e-20)
(9.10724 1.65801 -4.18121e-20)
(8.96501 1.85658 -8.50791e-20)
(8.81145 2.07343 8.44002e-20)
(8.64618 2.31097 0)
(8.46864 2.57183 -3.5139e-21)
(8.2781 2.85905 3.55952e-19)
(8.07353 3.17614 -1.07228e-18)
(7.8535 3.5273 1.06709e-18)
(7.61583 3.91747 -3.63005e-19)
(7.35735 4.35241 3.52435e-19)
(7.07321 4.83877 7.29531e-19)
(6.75593 5.38402 -6.92922e-19)
(6.39385 5.996 -7.21317e-19)
(5.96798 6.68113 -1.38389e-18)
(5.45065 7.44027 3.26932e-19)
(4.77987 8.26897 0)
(3.9778 9.10495 -5.38205e-18)
(2.50408 9.90582 1.15874e-17)
(9.99417 0.107647 4.27798e-24)
(9.98082 0.214466 -3.87642e-23)
(9.95594 0.322091 8.94692e-21)
(9.92027 0.432024 0)
(9.87501 0.545597 0)
(9.82057 0.66408 1.71799e-20)
(9.757 0.788733 1.97918e-20)
(9.68429 0.920822 1.88838e-20)
(9.60244 1.06164 -1.89533e-20)
(9.51145 1.21254 3.84081e-20)
(9.4113 1.37496 3.89162e-20)
(9.30204 1.55054 -1.99343e-20)
(9.18358 1.74095 2.00185e-20)
(9.05564 1.948 -8.17989e-20)
(8.91808 2.17383 -8.1278e-20)
(8.7708 2.42092 3.31951e-19)
(8.61355 2.69209 -3.36972e-19)
(8.4459 2.9906 0)
(8.26724 3.32031 -5.08189e-21)
(8.07673 3.68593 6.73534e-19)
(7.87301 4.09323 -7.59917e-22)
(7.65395 4.54923 -1.59999e-20)
(7.4162 5.06269 -3.40746e-19)
(7.15421 5.64454 6.65101e-19)
(6.85886 6.30857 0)
(6.51342 7.07152 6.30061e-19)
(6.09095 7.95265 -8.52686e-19)
(5.51608 8.9822 3.96141e-18)
(4.78888 10.1595 -4.39385e-18)
(3.09789 11.5584 0)
(9.99451 0.112689 0)
(9.98231 0.224516 0)
(9.9595 0.337194 8.63715e-21)
(9.92679 0.452276 -8.71002e-21)
(9.88537 0.571117 1.1238e-21)
(9.83569 0.695007 -3.47871e-21)
(9.77781 0.825221 -1.82552e-20)
(9.71179 0.963046 -2.07868e-20)
(9.63772 1.10979 4.2188e-20)
(9.55567 1.26682 -3.34165e-20)
(9.46568 1.43559 -4.10247e-20)
(9.3679 1.6177 -2.11451e-21)
(9.26246 1.81492 -3.05685e-22)
(9.14924 2.02907 0)
(9.02824 2.26229 1.61473e-19)
(8.89967 2.51709 -1.62757e-19)
(8.76353 2.79636 -1.60119e-19)
(8.61983 3.1035 0)
(8.46853 3.44256 -3.28766e-19)
(8.30949 3.81855 -3.27657e-19)
(8.14245 4.23771 3.25012e-19)
(7.96681 4.70789 -3.20506e-19)
(7.78144 5.23925 -3.13773e-19)
(7.58425 5.84521 0)
(7.37159 6.54425 -2.72993e-19)
(7.13547 7.36229 -2.5316e-19)
(6.86355 8.33781 5.11155e-19)
(6.49833 9.54476 4.23018e-19)
(6.06388 11.1208 0)
(4.19796 13.9751 5.14248e-20)
(-0.0431876 0.158176 1.65906e-18)
(-0.6249 0.403982 -1.29854e-18)
(-1.45152 0.48071 -1.49176e-19)
(-2.37377 0.503493 1.41921e-19)
(-3.35345 0.505776 1.40036e-19)
(-4.36134 0.497466 0)
(-5.37676 0.482043 1.46783e-19)
(-6.38474 0.461146 1.53432e-19)
(-7.37373 0.435747 0)
(-8.3337 0.406435 0)
(-9.25512 0.373553 9.37666e-20)
(-10.1281 0.337296 -8.88167e-20)
(-10.9418 0.297786 0)
(-11.6844 0.255089 -5.07489e-20)
(-12.3425 0.209272 -5.2241e-20)
(-12.9013 0.160433 6.75676e-21)
(-13.3456 0.108776 -6.57996e-21)
(-13.6594 0.0544078 0)
(-13.8265 -0.00273241 0)
(-13.8305 -0.0631258 3.77593e-20)
(-13.6578 -0.127083 -1.26155e-20)
(-13.2979 -0.193418 0)
(-12.7433 -0.262484 -5.05743e-21)
(-11.9865 -0.336328 0)
(-11.0124 -0.419416 -6.17985e-21)
(-9.78684 -0.521889 6.74192e-21)
(-8.25253 -0.669167 0)
(-6.34601 -0.917728 0)
(-3.90586 -1.35697 0)
(1.53921 -2.15955 -1.92781e-22)
(-0.293196 0.615178 2.5411e-18)
(-0.921957 0.92515 -4.67257e-18)
(-1.75108 1.07195 2.21047e-18)
(-2.65803 1.1524 -1.26966e-19)
(-3.61741 1.19517 9.44676e-19)
(-4.60187 1.21191 -9.85634e-19)
(-5.59168 1.20815 -1.34948e-19)
(-6.57241 1.18717 4.65662e-19)
(-7.53273 1.15113 -5.70998e-19)
(-8.46269 1.1014 0)
(-9.35273 1.03872 -3.59006e-19)
(-10.1929 0.963452 3.42483e-19)
(-10.9723 0.875726 -1.01533e-19)
(-11.6787 0.775552 3.47253e-20)
(-12.2984 0.662992 2.49189e-19)
(-12.8166 0.538401 -5.31096e-20)
(-13.2174 0.402526 8.11488e-20)
(-13.4847 0.25659 -2.67485e-20)
(-13.6022 0.102175 1.66141e-21)
(-13.5533 -0.0591225 -1.45552e-20)
(-13.333 -0.223654 -1.21521e-20)
(-12.9328 -0.38665 -1.13511e-20)
(-12.3461 -0.547287 -5.17773e-21)
(-11.5665 -0.707464 -4.40463e-21)
(-10.582 -0.872455 8.02632e-21)
(-9.36721 -1.05628 -2.28554e-21)
(-7.88476 -1.29852 -4.51451e-21)
(-6.10111 -1.68772 0)
(-3.91068 -2.34234 0)
(-0.404592 -3.26494 1.67294e-22)
(-0.325126 1.27327 0)
(-0.971201 1.62479 0)
(-1.80119 1.81611 2.05561e-18)
(-2.67597 1.93028 1.61391e-19)
(-3.58744 1.99089 -1.85582e-18)
(-4.51521 2.01051 -1.87511e-18)
(-5.44417 1.99661 3.11817e-18)
(-6.36279 1.95425 1.34137e-19)
(-7.26157 1.88687 -1.12777e-18)
(-8.13195 1.79666 0)
(-8.96535 1.6849 -7.15137e-19)
(-9.75263 1.55214 1.44182e-18)
(-10.4835 1.3986 -8.23058e-19)
(-11.1459 1.22432 -4.13623e-19)
(-11.7263 1.02949 4.03458e-19)
(-12.2099 0.814772 2.73093e-19)
(-12.5806 0.58168 -3.83327e-19)
(-12.822 0.332826 1.67709e-19)
(-12.9175 0.0721183 -1.12441e-19)
(-12.8506 -0.195696 5.45774e-20)
(-12.619 -0.466659 0)
(-12.2133 -0.735415 1.1437e-20)
(-11.6293 -1.00046 -2.62896e-22)
(-10.863 -1.26415 6.37611e-21)
(-9.90624 -1.53343 -7.51467e-21)
(-8.74391 -1.82542 0)
(-7.3603 -2.18299 3.91516e-23)
(-5.75656 -2.68887 2.66051e-22)
(-3.89781 -3.43209 0)
(-1.4317 -4.38748 -8.69377e-23)
(-0.249946 2.00433 -4.65325e-18)
(-0.870742 2.36535 4.24353e-18)
(-1.69391 2.56636 0)
(-2.52694 2.68909 3.97858e-18)
(-3.38036 2.75136 -1.64873e-18)
(-4.24103 2.76458 -2.15658e-18)
(-5.0998 2.73682 2.53125e-18)
(-5.94895 2.67375 -2.14175e-18)
(-6.78155 2.57919 -1.59407e-18)
(-7.59074 2.45551 1.22876e-18)
(-8.36894 2.30385 0)
(-9.10751 2.1245 7.72271e-19)
(-9.79633 1.91722 6.49843e-20)
(-10.4231 1.6816 -1.00269e-18)
(-10.9736 1.41738 0)
(-11.4319 1.12496 0)
(-11.7809 0.805824 -2.33523e-19)
(-12.0031 0.463032 5.747e-20)
(-12.081 0.1018 1.78308e-19)
(-11.9976 -0.270571 -5.56113e-20)
(-11.7559 -0.644863 8.22456e-20)
(-11.3483 -1.01346 2.49706e-20)
(-10.7732 -1.37445 1.04998e-20)
(-10.029 -1.73091 0)
(-9.11154 -2.09131 3.66892e-21)
(-8.01454 -2.4746 7.46976e-22)
(-6.73943 -2.92251 7.2645e-23)
(-5.31369 -3.50511 -3.08037e-22)
(-3.75876 -4.28371 4.31592e-23)
(-1.93606 -5.20779 9.09975e-23)
(-0.115823 2.77059 4.36265e-18)
(-0.679188 3.11245 -2.42968e-19)
(-1.48187 3.29849 0)
(-2.26062 3.41211 0)
(-3.04807 3.46523 5.10416e-19)
(-3.83622 3.46668 0)
(-4.62108 3.42352 1.48265e-20)
(-5.39833 3.34075 -2.48005e-18)
(-6.16333 3.22156 3.00403e-18)
(-6.91066 3.0676 1.07312e-18)
(-7.6335 2.87925 -1.36746e-18)
(-8.3233 2.65591 -3.90762e-19)
(-8.96981 2.39654 0)
(-9.56036 2.09993 2.12149e-19)
(-10.0799 1.76538 0)
(-10.5115 1.39328 0)
(-10.8372 0.985877 1.24543e-19)
(-11.0384 0.547933 0)
(-11.0968 0.0878314 1.27103e-19)
(-10.9967 -0.382304 -1.81876e-19)
(-10.7472 -0.852154 2.12093e-21)
(-10.3414 -1.31179 0)
(-9.78127 -1.75875 2.27546e-20)
(-9.06765 -2.19667 -9.77333e-21)
(-8.19966 -2.63455 -3.50754e-21)
(-7.17773 -3.09004 1.43396e-21)
(-6.01507 -3.5982 8.88417e-22)
(-4.75655 -4.21349 0)
(-3.46252 -4.97714 6.95924e-22)
(-2.07059 -5.8129 -3.49351e-24)
(0.0493718 3.53859 -1.39495e-19)
(-0.4333 3.84161 -4.41343e-18)
(-1.19872 3.99876 3.56334e-18)
(-1.90866 4.0924 -2.585e-19)
(-2.6215 4.12937 -4.99835e-19)
(-3.3313 4.11586 0)
(-4.03795 4.05707 -2.79975e-19)
(-4.73969 3.95655 0)
(-5.43366 3.8162 1.56055e-20)
(-6.11557 3.63647 1.83056e-18)
(-6.7793 3.41656 -1.82469e-18)
(-7.41655 3.15479 1.23833e-18)
(-8.01692 2.8491 -8.23461e-19)
(-8.56752 2.49741 0)
(-9.05284 2.0983 0)
(-9.45533 1.65196 -5.13214e-19)
(-9.75594 1.16101 2.55434e-19)
(-9.93479 0.63182 -2.53892e-21)
(-9.97202 0.0756621 2.76325e-19)
(-9.85483 -0.492507 -1.98348e-19)
(-9.59882 -1.05394 0)
(-9.19879 -1.59821 0)
(-8.66017 -2.12318 -4.72653e-20)
(-7.98591 -2.63374 9.88338e-21)
(-7.17727 -3.13916 -7.99531e-21)
(-6.23885 -3.65389 5.08517e-21)
(-5.19067 -4.20271 -1.32662e-22)
(-4.08705 -4.82305 -9.57008e-22)
(-3.01163 -5.54125 -6.77497e-22)
(-1.92866 -6.25943 0)
(0.227097 4.26769 4.48161e-18)
(-0.157027 4.52479 2.49927e-19)
(-0.866778 4.64754 -4.30884e-18)
(-1.49273 4.71618 8.98201e-18)
(-2.12147 4.73399 -4.18941e-18)
(-2.74565 4.70497 0)
(-3.36814 4.63188 2.57908e-18)
(-3.98892 4.51637 -2.82011e-18)
(-4.60644 4.35866 -3.4169e-19)
(-5.21737 4.15764 3.82794e-19)
(-5.81628 3.91104 2.07302e-18)
(-6.39536 3.61579 -2.07692e-18)
(-6.94435 3.26851 7.16095e-19)
(-7.45029 2.86598 -9.36887e-19)
(-7.89745 2.40593 -5.27747e-19)
(-8.26767 1.8881 5.29731e-19)
(-8.54061 1.31557 -1.40378e-19)
(-8.69435 0.696745 0)
(-8.70783 0.0472178 1.51574e-19)
(-8.57772 -0.612038 2.08721e-19)
(-8.3167 -1.25717 -4.05072e-21)
(-7.92693 -1.87626 2.63448e-20)
(-7.41672 -2.46838 2.38813e-20)
(-6.79051 -3.04057 0)
(-6.05041 -3.6024 3.16307e-22)
(-5.20281 -4.1641 4.78676e-21)
(-4.27074 -4.73839 -1.07125e-21)
(-3.31186 -5.3453 1.3723e-21)
(-2.41878 -6.00039 -3.89864e-22)
(-1.5726 -6.59127 7.24619e-23)
(0.406649 4.92231 -3.62652e-20)
(0.135949 5.13502 0)
(-0.501232 5.22371 -1.90912e-20)
(-1.02838 5.2673 1.85457e-20)
(-1.56323 5.26666 0)
(-2.09349 5.22423 -3.17355e-19)
(-2.6246 5.13982 2.75938e-18)
(-3.15765 5.01307 2.58903e-19)
(-3.69205 4.8424 -2.47413e-18)
(-4.22524 4.62499 -3.932e-19)
(-4.75252 4.35698 -4.37478e-19)
(-5.26678 4.03379 4.51487e-19)
(-5.75826 3.65056 -8.10014e-21)
(-6.21436 3.20272 0)
(-6.61956 2.68694 -2.82575e-19)
(-6.95538 2.10222 0)
(-7.20011 1.45177 0)
(-7.32897 0.746194 0)
(-7.3178 0.00651102 -1.6884e-19)
(-7.17302 -0.737544 1.57187e-19)
(-6.91066 -1.45828 -6.88671e-20)
(-6.53639 -2.14161 1.92213e-21)
(-6.06165 -2.78939 -2.65149e-20)
(-5.49145 -3.41202 -1.06222e-20)
(-4.82762 -4.01958 5.43793e-21)
(-4.07638 -4.61769 2.37282e-21)
(-3.26146 -5.20644 -1.76255e-21)
(-2.43989 -5.78908 0)
(-1.7007 -6.37256 8.3534e-23)
(-1.04685 -6.83734 -8.26679e-23)
(0.578262 5.47295 3.02478e-20)
(0.433243 5.64925 0)
(-0.11398 5.70775 1.31312e-19)
(-0.527712 5.73041 4.71762e-18)
(-0.9592 5.71521 -5.17289e-18)
(-1.38689 5.6634 3.244e-19)
(-1.81899 5.57203 -3.61782e-19)
(-2.25704 5.43871 3.69823e-19)
(-2.7011 5.26008 -8.07947e-19)
(-3.14926 5.03168 0)
(-3.59752 4.7481 -1.95216e-18)
(-4.03968 4.40322 1.90368e-18)
(-4.46695 3.99057 2.6158e-19)
(-4.86759 3.50399 0)
(-5.22691 2.93875 9.21456e-19)
(-5.52654 2.2928 -6.32588e-19)
(-5.7428 1.5691 0)
(-5.84625 0.780828 1.86783e-19)
(-5.80866 -0.0442825 1.93268e-19)
(-5.65177 -0.86844 0)
(-5.39318 -1.65504 -7.39868e-20)
(-5.04126 -2.39045 -2.88402e-20)
(-4.60952 -3.08163 3.04628e-20)
(-4.1024 -3.74362 -2.38909e-20)
(-3.52073 -4.38714 1.58586e-20)
(-2.86907 -5.01261 5.06049e-22)
(-2.17134 -5.60775 7.9338e-23)
(-1.48176 -6.16171 2.06005e-21)
(-0.874946 -6.67113 2.3429e-21)
(-0.38503 -7.01462 0)
(0.740491 5.8915 -9.77341e-18)
(0.73202 6.04751 4.69454e-18)
(0.286799 6.08312 5.26364e-18)
(-0.000380416 6.09236 -1.03755e-17)
(-0.320422 6.06851 8.42042e-18)
(-0.637494 6.01265 -5.42153e-18)
(-0.963398 5.91968 6.92805e-18)
(-1.29951 5.78515 -6.57622e-18)
(-1.64631 5.60411 3.34274e-18)
(-2.00224 5.3705 -4.75992e-19)
(-2.36391 5.07758 4.96421e-19)
(-2.72618 4.7179 0)
(-3.08156 4.28331 0)
(-3.41974 3.76589 0)
(-3.72758 3.15916 0)
(-3.9878 2.45934 -7.30869e-19)
(-4.17465 1.668 7.6037e-19)
(-4.25163 0.80007 4.75786e-21)
(-4.18622 -0.107419 -2.13043e-19)
(-4.02329 -1.00437 -1.92833e-19)
(-3.77789 -1.84421 0)
(-3.45821 -2.61779 -7.39353e-20)
(-3.07831 -3.33954 0)
(-2.64068 -4.03077 2.53095e-20)
(-2.14506 -4.70255 -1.16671e-20)
(-1.59377 -5.34919 -4.51671e-22)
(-1.01144 -5.94476 -1.53894e-21)
(-0.449895 -6.46892 -2.0885e-21)
(0.0422026 -6.90746 -4.80811e-21)
(0.385248 -7.14069 0)
(0.895537 6.17628 9.94294e-21)
(1.03411 6.31314 -8.03876e-20)
(0.695027 6.33964 5.43651e-18)
(0.545536 6.34302 -5.74408e-18)
(0.342215 6.31707 3.73369e-19)
(0.14254 6.26343 -7.82087e-19)
(-0.0712741 6.17491 3.08569e-18)
(-0.29974 6.0449 -1.36067e-19)
(-0.543563 5.86701 -5.67735e-18)
(-0.8011 5.63404 5.13226e-18)
(-1.06903 5.33808 -4.4064e-18)
(-1.34337 4.97052 2.27135e-18)
(-1.61817 4.52153 0)
(-1.88475 3.98109 0)
(-2.13255 3.34021 7.59854e-19)
(-2.34762 2.59232 -3.75282e-19)
(-2.50259 1.73737 -4.30297e-19)
(-2.5489 0.793985 -4.79435e-19)
(-2.4497 -0.184764 -2.48512e-19)
(-2.2951 -1.14011 3.17276e-19)
(-2.07891 -2.01882 -1.85225e-19)
(-1.8054 -2.81823 1.2381e-19)
(-1.48799 -3.55973 1.31019e-21)
(-1.12651 -4.27177 1.32783e-20)
(-0.719126 -4.96533 -1.83199e-20)
(-0.26741 -5.62964 -6.39189e-22)
(0.205023 -6.22469 -3.31466e-21)
(0.640172 -6.71264 1.32986e-21)
(1.0224 -7.0813 3.37236e-21)
(1.25643 -7.23366 -9.63306e-22)
(1.02944 6.32528 -5.29322e-18)
(1.33298 6.4476 5.26835e-18)
(1.10668 6.47277 0)
(1.10033 6.47585 3.69486e-19)
(1.01663 6.45466 -3.93281e-19)
(0.939479 6.41017 4.18041e-19)
(0.841683 6.33344 0)
(0.724818 6.21538 -1.54382e-18)
(0.588486 6.04842 4.17406e-18)
(0.433092 5.82231 -4.49898e-18)
(0.263893 5.52938 2.32154e-18)
(0.08428 5.16098 0)
(-0.101791 4.70597 -1.45942e-18)
(-0.286669 4.15322 1.47539e-18)
(-0.463263 3.49188 8.52118e-19)
(-0.62587 2.71406 -8.88404e-19)
(-0.743806 1.81695 5.07667e-19)
(-0.740442 0.811301 3.98068e-21)
(-0.597978 -0.240676 2.856e-19)
(-0.479763 -1.24895 0)
(-0.316206 -2.15985 0)
(-0.106031 -2.98209 0)
(0.139393 -3.74471 -4.54524e-22)
(0.418692 -4.47309 -1.47045e-20)
(0.737085 -5.18241 5.67468e-21)
(1.08465 -5.84817 -5.60002e-22)
(1.44578 -6.43174 1.75378e-21)
(1.77841 -6.89608 3.45479e-21)
(2.07106 -7.21268 0)
(2.20875 -7.29545 -2.7546e-23)
(1.14995 6.33883 0)
(1.61431 6.45396 0)
(1.51807 6.47663 0)
(1.64887 6.4817 0)
(1.69399 6.4733 0)
(1.73859 6.44487 0)
(1.7568 6.3863 -4.29998e-19)
(1.75097 6.28572 4.56675e-19)
(1.72215 6.13428 -2.25204e-21)
(1.67172 5.92175 -5.21848e-19)
(1.60409 5.63845 1.17843e-18)
(1.52327 5.27551 -2.12254e-18)
(1.43314 4.82189 6.43465e-19)
(1.33978 4.26657 0)
(1.24895 3.59808 0)
(1.16224 2.80567 -4.52102e-19)
(1.1098 1.87951 9.80913e-19)
(1.17917 0.825368 -5.48647e-19)
(1.31227 -0.280202 0)
(1.38672 -1.32329 -1.14353e-19)
(1.47859 -2.25698 0)
(1.60501 -3.08926 0)
(1.76353 -3.86213 3.31863e-20)
(1.95853 -4.60942 1.35039e-20)
(2.19137 -5.33517 4.95141e-21)
(2.45155 -6.01156 -3.53456e-21)
(2.72189 -6.59241 4.34831e-21)
(2.96268 -7.03351 -6.10679e-21)
(3.17141 -7.30289 3.13359e-21)
(3.21868 -7.3277 7.4404e-22)
(1.25758 6.22013 -5.55105e-18)
(1.85997 6.32005 5.38527e-18)
(1.92022 6.33807 3.49577e-19)
(2.18401 6.35086 0)
(2.3659 6.36676 3.72678e-19)
(2.52975 6.36481 1.62531e-18)
(2.66067 6.33245 -1.15947e-18)
(2.76213 6.25604 -4.30179e-19)
(2.8373 6.12541 4.56396e-19)
(2.88892 5.93017 1.01591e-18)
(2.92121 5.65983 -7.17992e-19)
(2.93848 5.30516 2.1094e-20)
(2.94517 4.85532 0)
(2.94672 4.29931 0)
(2.94845 3.62577 1.8425e-19)
(2.95336 2.82233 -1.91967e-19)
(2.98273 1.88065 -2.16699e-19)
(3.07586 0.822543 0)
(3.17719 -0.287515 0)
(3.21737 -1.34774 1.00728e-19)
(3.24518 -2.29882 0)
(3.29164 -3.14959 0)
(3.36923 -3.94148 0)
(3.48662 -4.70756 0)
(3.64379 -5.44906 4.66301e-21)
(3.82752 -6.13254 -4.32772e-21)
(4.01733 -6.70726 -8.69299e-21)
(4.17501 -7.12611 0)
(4.30497 -7.35421 -4.52779e-21)
(4.26522 -7.33117 0)
(1.33115 6.03266 -5.43333e-18)
(2.02794 6.05002 -1.67167e-19)
(2.2912 6.05594 -1.76693e-18)
(2.69791 6.08563 2.4671e-18)
(3.02281 6.13772 -1.74481e-18)
(3.30259 6.17403 7.7297e-19)
(3.53974 6.17665 -1.1233e-18)
(3.74179 6.13139 0)
(3.91444 6.02721 4.46611e-19)
(4.06197 5.8537 -4.2377e-19)
(4.18887 5.60028 1.08447e-20)
(4.2995 5.25746 -2.60463e-19)
(4.39844 4.81471 0)
(4.49044 4.26112 0)
(4.5799 3.58546 0)
(4.66941 2.77573 0)
(4.76552 1.8281 0)
(4.87551 0.771258 0)
(4.9607 -0.323053 2.04111e-19)
(4.97012 -1.3643 0)
(4.94263 -2.30843 7.96164e-20)
(4.91937 -3.16674 -2.16114e-21)
(4.92734 -3.97667 -1.41403e-20)
(4.98059 -4.76484 5.87752e-21)
(5.07642 -5.52404 4.38859e-21)
(5.19651 -6.21423 -3.87993e-22)
(5.31612 -6.7814 6.72629e-21)
(5.39847 -7.1778 -4.91057e-21)
(5.45386 -7.36855 2.37384e-21)
(5.3291 -7.30554 1.28451e-21)
(9.99487 0.117389 0)
(9.98389 0.233878 2.61482e-22)
(9.96327 0.351245 -3.29429e-22)
(9.93369 0.471088 6.98593e-23)
(9.89631 0.59478 0)
(9.85162 0.723622 -6.51776e-21)
(9.79974 0.8589 3.27543e-20)
(9.74077 1.00191 1.77438e-20)
(9.67489 1.15396 -9.15269e-21)
(9.60225 1.31642 8.98686e-21)
(9.52301 1.49073 -3.61772e-20)
(9.4374 1.67847 0)
(9.34567 1.88141 -3.72196e-20)
(9.24798 2.10139 3.72866e-20)
(9.14458 2.34052 0)
(9.03586 2.60124 -3.78459e-20)
(8.9222 2.88646 1.91014e-19)
(8.80408 3.19955 1.49188e-19)
(8.68208 3.54458 1.48196e-19)
(8.55696 3.92656 3.70967e-20)
(8.42967 4.35176 -3.67819e-20)
(8.30146 4.82819 0)
(8.17404 5.36626 4.06359e-19)
(8.04986 5.97998 -1.34035e-19)
(7.93314 6.68894 2.564e-19)
(7.83097 7.52155 2.27518e-20)
(7.76439 8.52179 2.07166e-19)
(7.77059 9.76775 -1.72889e-19)
(8.39324 11.3589 0)
(8.78651 13.9788 1.54995e-18)
(9.99525 0.121757 0)
(9.98556 0.242562 8.06335e-21)
(9.96725 0.36424 -1.57862e-20)
(9.94095 0.488424 7.73269e-21)
(9.90781 0.616503 8.23882e-21)
(9.86832 0.749779 5.97248e-23)
(9.82268 0.889542 -3.38009e-20)
(9.77103 1.03708 8.4871e-21)
(9.71362 1.1937 -1.7276e-20)
(9.65071 1.36076 0)
(9.58257 1.53967 5.04591e-22)
(9.50952 1.73197 -7.06253e-20)
(9.43196 1.93937 3.56074e-20)
(9.35029 2.16371 7.0635e-20)
(9.26502 2.407 0)
(9.17677 2.6716 -7.08387e-20)
(9.08629 2.96028 1.73084e-21)
(8.99455 3.27626 -1.46488e-19)
(8.90277 3.62341 -1.43285e-19)
(8.81257 4.00641 2.76322e-19)
(8.72611 4.43109 -2.73597e-19)
(8.64641 4.90475 -5.20571e-19)
(8.57784 5.43672 7.48964e-19)
(8.527 6.03911 -4.86539e-19)
(8.5047 6.72775 -8.43797e-19)
(8.52948 7.52335 8.20326e-19)
(8.6399 8.45194 0)
(8.84976 9.53841 -3.001e-20)
(9.46868 10.7329 0)
(10.0497 11.796 -5.69566e-20)
(9.99565 0.125717 0)
(9.98731 0.250421 -7.8719e-21)
(9.97142 0.375978 7.91957e-21)
(9.94854 0.504042 -7.90137e-21)
(9.9198 0.63601 -8.03833e-21)
(9.88571 0.77318 8.04765e-21)
(9.84651 0.916831 8.11505e-21)
(9.80242 1.06824 1.64261e-20)
(9.75375 1.22868 1.66258e-20)
(9.70084 1.39949 -3.32303e-20)
(9.64407 1.58202 3.37823e-20)
(9.58389 1.77778 0)
(9.52083 1.98836 3.41943e-20)
(9.4555 2.21553 -6.86604e-20)
(9.38865 2.46118 0)
(9.32117 2.72753 6.87723e-20)
(9.25416 3.01709 3.59561e-21)
(9.18903 3.33281 -1.36109e-19)
(9.12757 3.67812 -5.26467e-19)
(9.07214 4.05713 5.22087e-19)
(9.02587 4.47475 0)
(8.9931 4.93692 0)
(8.97985 5.45078 0)
(8.99494 6.02488 0)
(9.05097 6.6685 0)
(9.1655 7.39025 0)
(9.36827 8.1939 2.18148e-18)
(9.64672 9.06416 -2.01172e-18)
(10.1175 9.96538 -9.57926e-19)
(10.7572 10.7601 9.90757e-19)
(9.99607 0.129221 0)
(9.98913 0.257363 -1.89662e-21)
(9.97574 0.386311 -1.86713e-21)
(9.9564 0.517737 3.87797e-21)
(9.93219 0.653035 5.08424e-23)
(9.90366 0.79349 -1.55981e-20)
(9.87108 0.940362 3.1403e-20)
(9.83473 1.09489 -6.31549e-20)
(9.79498 1.25834 3.17398e-20)
(9.75227 1.43196 0)
(9.70707 1.61708 -6.43787e-20)
(9.65994 1.81508 6.44957e-20)
(9.61156 2.02748 -3.20626e-20)
(9.56271 2.25588 -3.2062e-20)
(9.51435 2.50204 6.39713e-20)
(9.46762 2.76792 -2.57211e-19)
(9.42394 3.05576 4.49075e-19)
(9.38504 3.36804 5.02989e-19)
(9.35319 3.70768 -4.99617e-19)
(9.33129 4.07798 -1.192e-19)