/*--------------------------------*- C++ -*----------------------------------*\
| =========                 |                                                 |
| \\      /  F ield         | OpenFOAM: The Open Source CFD Toolbox           |
|  \\    /   O peration     | Version:  2006                                  |
|   \\  /    A nd           | Website:  www.openfoam.com                      |
|    \\/     M anipulation  |                                                 |
\*---------------------------------------------------------------------------*/
FoamFile
{
    version     2.0;
    format      ascii;
    class       surfaceScalarField;
    location    "6.8";
    object      phi;
}
// * * * * * * * * * * * * * * * * * * * * * * * * * * * * * * * * * * * * * //

dimensions      [0 3 -1 0 0 0 0];
oriented        oriented;


internalField   nonuniform List<scalar> 
5457
(
0.198418
0.00158236
0.19648
0.00193733
0.194192
0.00228803
0.191509
0.00268351
0.188428
0.00308111
0.184951
0.00347667
0.181073
0.00387847
0.176779
0.0042939
0.172051
0.00472811
0.166865
0.00518511
0.161197
0.0056684
0.155016
0.00618092
0.148291
0.00672487
0.14099
0.00730125
0.133081
0.00790942
0.124534
0.00854638
0.115328
0.00920584
0.105451
0.00987714
0.0949071
0.0105441
0.0837236
0.0111835
0.071959
0.0117646
0.0597106
0.0122483
0.0471219
0.0125888
0.0343816
0.0127403
0.0216865
0.0126951
0.00903626
0.0126502
-0.00291707
0.0119533
-0.00847253
0.00555545
-0.00804317
-0.000429355
-0.00804317
0.199928
0.00165418
0.199176
0.00268973
0.197965
0.00349891
0.196332
0.00431662
0.194272
0.00514108
0.191782
0.00596665
0.188855
0.00680535
0.185478
0.00767066
0.181633
0.00857291
0.177298
0.0095204
0.172446
0.0105204
0.167048
0.0115792
0.161071
0.0127015
0.154482
0.0138901
0.147247
0.0151444
0.139334
0.0164594
0.130716
0.0178237
0.121376
0.0192173
0.111311
0.0206089
0.100542
0.0219534
0.089117
0.0231891
0.0771294
0.024236
0.0647233
0.0249948
0.0521158
0.0253478
0.0396554
0.0251555
0.0281053
0.0242003
0.0185946
0.021464
0.00879671
0.0153534
0.00118325
0.00718411
-0.00685992
0.199781
0.0018736
0.199087
0.00338354
0.197946
0.00463979
0.196409
0.00585317
0.194483
0.00706714
0.192164
0.00828561
0.189447
0.00952269
0.186322
0.010796
0.182774
0.0121207
0.178785
0.0135092
0.174333
0.0149724
0.169392
0.0165201
0.163934
0.01816
0.157926
0.0198972
0.151338
0.0217326
0.144137
0.0236611
0.136291
0.0256692
0.127777
0.0277312
0.11858
0.0298058
0.108702
0.0318313
0.0981705
0.0337211
0.0870481
0.0353584
0.0754513
0.0365916
0.0635741
0.0372251
0.0517322
0.0369974
0.0403969
0.0355356
0.0297386
0.0321222
0.0191657
0.0259262
0.00959743
0.0167524
0.00273751
0.199703
0.00217052
0.199008
0.00407881
0.197887
0.00576027
0.196376
0.00736402
0.194488
0.00895518
0.192223
0.0105515
0.189575
0.0121703
0.186539
0.0138319
0.183105
0.0155551
0.179258
0.0173556
0.174983
0.0192474
0.170261
0.0212427
0.165069
0.0233516
0.159385
0.0255813
0.153183
0.0279343
0.146438
0.0304063
0.139124
0.0329835
0.131217
0.0356385
0.122697
0.038325
0.113556
0.0409723
0.1038
0.043478
0.0934568
0.0457011
0.0825955
0.0474529
0.0713326
0.0484879
0.0598406
0.0484895
0.0483165
0.0470597
0.0368106
0.0436282
0.0251875
0.0375492
0.0133354
0.0286046
0.0160729
0.199667
0.00250309
0.198964
0.00478204
0.197863
0.00686153
0.196381
0.00884564
0.194533
0.0108039
0.192318
0.0127661
0.189734
0.014754
0.186776
0.0167904
0.183434
0.0188967
0.179699
0.0210912
0.175556
0.0233902
0.170991
0.0258077
0.165987
0.0283553
0.160527
0.0310415
0.154591
0.0338698
0.148161
0.0368368
0.141215
0.0399293
0.133734
0.04312
0.125697
0.0463619
0.117087
0.0495817
0.107894
0.0526716
0.0981145
0.0554802
0.0877644
0.057803
0.0768783
0.0593741
0.0655082
0.0598596
0.0537074
0.0588605
0.0414534
0.0558822
0.0285873
0.0504153
0.0148521
0.0423398
0.030925
0.199653
0.00285027
0.198949
0.00548607
0.197871
0.00793943
0.196427
0.0102898
0.194627
0.0126038
0.192473
0.0149195
0.189964
0.0172636
0.187093
0.0196612
0.183854
0.0221359
0.180237
0.0247084
0.17623
0.0273966
0.171822
0.0302162
0.166997
0.0331801
0.161741
0.0362974
0.156038
0.0395726
0.149872
0.0430034
0.143224
0.0465776
0.136074
0.0502694
0.128402
0.0540342
0.120182
0.0578015
0.111388
0.0614661
0.101989
0.0648792
0.0919542
0.0678374
0.0812532
0.070075
0.0698533
0.0712595
0.0577159
0.0709979
0.0447598
0.0688383
0.0308484
0.0643267
0.0158728
0.0573154
0.0467977
0.19965
0.0032002
0.198954
0.00618202
0.197905
0.00898901
0.196505
0.0116894
0.194763
0.014346
0.192681
0.0170014
0.190257
0.0196871
0.187488
0.0224307
0.184366
0.0252578
0.180883
0.0281912
0.177029
0.0312505
0.172793
0.0344527
0.168161
0.0378121
0.163119
0.0413389
0.157653
0.0450388
0.151745
0.0489109
0.145378
0.0529451
0.138528
0.057119
0.13117
0.0613926
0.123269
0.0657024
0.114782
0.069953
0.105654
0.0740072
0.0958158
0.0776755
0.0851851
0.0807058
0.073667
0.0827776
0.0611601
0.0835047
0.047554
0.0824445
0.0327577
0.079123
0.0167823
0.0732907
0.0635801
0.199655
0.00354553
0.198975
0.0068621
0.197959
0.0100047
0.19661
0.0130381
0.194934
0.0160219
0.192934
0.0190019
0.190608
0.0220131
0.187953
0.0250858
0.184963
0.0282477
0.181631
0.0315232
0.177948
0.0349338
0.173902
0.038498
0.169483
0.0422315
0.164675
0.0461463
0.159465
0.0502497
0.153832
0.0545432
0.147757
0.0590204
0.141212
0.0636638
0.134164
0.068441
0.126567
0.0732994
0.118361
0.0781584
0.109468
0.0829003
0.0997853
0.0873585
0.0891858
0.0913053
0.0775234
0.09444
0.0646455
0.0963825
0.0504157
0.0966743
0.0347668
0.0947719
0.0177891
0.0902685
0.0813691
0.199664
0.00388134
0.199006
0.00751987
0.19803
0.0109809
0.196739
0.0143294
0.195137
0.0176239
0.193227
0.0209116
0.191009
0.0242308
0.188481
0.0276143
0.185637
0.0310915
0.182471
0.0346887
0.178976
0.0384291
0.175141
0.0423328
0.170956
0.0464173
0.166405
0.0506966
0.161474
0.0551807
0.156143
0.0598746
0.150387
0.0647767
0.144174
0.0698768
0.137462
0.0751527
0.130195
0.0805661
0.122297
0.0860565
0.113666
0.0915318
0.104167
0.0968574
0.093632
0.10184
0.0818624
0.10621
0.0686469
0.109598
0.0537996
0.111522
0.0372347
0.111337
0.0190823
0.108421
0.100451
0.199677
0.0042041
0.199047
0.00815008
0.198116
0.0119122
0.196888
0.0155576
0.195367
0.0191447
0.193556
0.0227221
0.191456
0.0263305
0.189066
0.030005
0.186381
0.0337767
0.183396
0.0376734
0.180105
0.0417202
0.176499
0.0459389
0.172567
0.0503488
0.168297
0.0549666
0.163673
0.0598054
0.158672
0.0648748
0.15327
0.0701794
0.147429
0.0757178
0.141101
0.0814805
0.13422
0.0874471
0.126695
0.0935811
0.118404
0.0998232
0.109182
0.10608
0.098817
0.112205
0.0870496
0.117977
0.0735866
0.123061
0.0581453
0.126963
0.0405492
0.128933
0.0208998
0.12807
0.121351
0.199693
0.00451116
0.199095
0.00874843
0.198213
0.0127937
0.197053
0.0167173
0.19562
0.020578
0.193916
0.0244259
0.191943
0.0283035
0.189701
0.0322478
0.187186
0.0362916
0.184395
0.0404642
0.181323
0.0447922
0.177963
0.0492992
0.174305
0.0540067
0.170338
0.0589338
0.166046
0.0640974
0.161408
0.0695121
0.156398
0.0751897
0.150977
0.0811389
0.145093
0.0873647
0.138673
0.0938666
0.131618
0.100636
0.123788
0.107653
0.114994
0.114874
0.10498
0.122219
0.0934152
0.129541
0.0798937
0.136582
0.0639635
0.142893
0.0452309
0.147666
0.0236092
0.149692
0.14496
0.199711
0.00480045
0.199148
0.00931141
0.19832
0.0136213
0.197234
0.0178035
0.195894
0.0219181
0.194304
0.0260162
0.192465
0.0301419
0.190379
0.0343338
0.188045
0.0386262
0.185459
0.0430497
0.182619
0.0476321
0.17952
0.0523988
0.176153
0.0573732
0.17251
0.0625772
0.168576
0.0680313
0.164333
0.0737552
0.159754
0.0797682
0.154804
0.0860894
0.14943
0.0927387
0.14356
0.0997368
0.13709
0.107106
0.129877
0.114867
0.121713
0.123038
0.112311
0.131621
0.101268
0.140584
0.0880396
0.149811
0.0719168
0.159016
0.0520804
0.167502
0.0278817
0.173891
0.172842
0.19973
0.00507036
0.199205
0.00983615
0.198435
0.0143912
0.197427
0.0188121
0.196185
0.02316
0.194714
0.0274873
0.193016
0.0318391
0.191095
0.0362556
0.188949
0.0407719
0.186579
0.0454199
0.183982
0.0502285
0.181157
0.0552245
0.178097
0.060433
0.174796
0.0658783
0.171243
0.0715842
0.167423
0.0775753
0.163314
0.0838774
0.158883
0.0905196
0.154086
0.0975356
0.148857
0.104966
0.1431
0.112862
0.136678
0.121289
0.12939
0.130326
0.120938
0.140073
0.110877
0.150644
0.0985358
0.162153
0.0828923
0.17466
0.0624264
0.187968
0.0351179
0.201199
0.20796
0.199751
0.00531964
0.199267
0.0103204
0.198557
0.0151006
0.19763
0.0197395
0.19649
0.0242998
0.195143
0.0288345
0.193592
0.0333899
0.191841
0.0380069
0.189891
0.0427217
0.187744
0.047567
0.1854
0.0525724
0.182859
0.0577657
0.180118
0.0631734
0.177175
0.0688216
0.174022
0.0747368
0.17065
0.0809473
0.167043
0.0874845
0.163178
0.0943852
0.159019
0.101694
0.154516
0.109469
0.149594
0.117785
0.144141
0.126742
0.13799
0.136477
0.130881
0.147182
0.1224
0.159126
0.111851
0.172702
0.0980048
0.188506
0.078522
0.207451
0.0486505
0.231071
0.256611
0.199772
0.00554732
0.19933
0.0107622
0.198684
0.015747
0.197841
0.020583
0.196806
0.0253341
0.195587
0.030054
0.194187
0.0347898
0.192611
0.039583
0.190862
0.0444704
0.188944
0.0494849
0.18686
0.0546567
0.184611
0.0600143
0.1822
0.0655848
0.179626
0.0713954
0.176888
0.0774743
0.173983
0.0838522
0.170904
0.0905639
0.167638
0.0976512
0.164166
0.105166
0.16046
0.113176
0.156474
0.12177
0.152144
0.131071
0.147369
0.141252
0.14199
0.152561
0.135744
0.165372
0.128159
0.180287
0.118294
0.19837
0.103898
0.221846
0.077661
0.257308
0.334272
0.00378767
-0.00378767
0.00736688
-0.00357921
0.0102775
-0.00291063
0.0124996
-0.00222209
0.0141174
-0.00161785
0.0152316
-0.00111417
0.0159385
-0.000706888
0.0163261
-0.000387632
0.0164734
-0.000147307
0.0164517
2.17063e-05
0.0163063
0.000145384
0.0160931
0.000213273
0.0158476
0.000245507
0.0155964
0.000251168
0.015359
0.000237437
0.0151473
0.000211698
0.0149679
0.000179353
0.014822
0.000145861
0.0147056
0.000116446
0.0146116
9.40088e-05
0.0145319
7.96521e-05
0.0144593
7.26232e-05
0.0143879
7.14426e-05
0.0143119
7.59996e-05
0.0142233
8.85776e-05
0.0141119
0.000111357
0.0139696
0.000142314
0.0137955
0.000174166
0.013605
0.000190428
0.000151848
0.00350155
-0.00728921
0.00684907
-0.00692674
0.00964222
-0.00570378
0.0118667
-0.00444654
0.0136011
-0.00335228
0.0149343
-0.00244741
0.0159489
-0.00172146
0.0167172
-0.00115592
0.0172981
-0.000728218
0.0177336
-0.000413777
0.0180681
-0.000189138
0.0183271
-4.57423e-05
0.0185387
3.39777e-05
0.0187239
6.59747e-05
0.0189009
6.03531e-05
0.0190794
3.32663e-05
0.019265
-6.2703e-06
0.0194609
-5.00636e-05
0.0196654
-8.8049e-05
0.0198741
-0.000114656
0.0200817
-0.000128014
0.0202845
-0.000130146
0.0204804
-0.000124486
0.0206676
-0.000111203
0.0208411
-8.4835e-05
0.0209913
-3.88834e-05
0.0211089
2.46817e-05
0.0211911
9.20145e-05
0.0212509
0.000130566
0.00012046
0.00296265
-0.0102519
0.00571091
-0.009675
0.00797233
-0.00796519
0.0097678
-0.00624201
0.0111731
-0.00475761
0.0122626
-0.00353685
0.0131047
-0.00256361
0.0137594
-0.00181059
0.014275
-0.0012438
0.0146888
-0.000827552
0.0150319
-0.000532308
0.0153253
-0.00033908
0.0155868
-0.00022756
0.0158286
-0.000175801
0.0160557
-0.000166817
0.0162754
-0.000186401
0.0164919
-0.000222755
0.0167061
-0.000264228
0.0169171
-0.000299139
0.0171227
-0.00032025
0.0173214
-0.000326651
0.0175136
-0.000322384
0.0177029
-0.000313746
0.0178932
-0.000301486
0.0180856
-0.000277271
0.0182759
-0.000229163
0.0184591
-0.000158567
0.0186338
-8.26939e-05
0.0187905
-2.61024e-05
1.75592e-05
0.00236905
-0.0126209
0.00440577
-0.0117117
0.00601396
-0.00957338
0.00727438
-0.00750243
0.00825619
-0.00573941
0.0090144
-0.00429507
0.0096004
-0.00314961
0.0100589
-0.0022691
0.0104246
-0.0016095
0.0107203
-0.0011232
0.0109629
-0.000774984
0.0111686
-0.000544709
0.0113486
-0.000407648
0.0115095
-0.000336639
0.0116537
-0.000310986
0.0117831
-0.000315795
0.0118986
-0.000338332
0.0120007
-0.00036634
0.0120886
-0.00038697
0.0121597
-0.000391373
0.0122137
-0.00038069
0.0122527
-0.000361302
0.0122832
-0.000344305
0.0123139
-0.000332215
0.0123493
-0.00031259
0.0123848
-0.000264751
0.0124131
-0.000186858
0.0124348
-0.000104317
0.0124415
-3.28464e-05
2.62491e-05
0.00167662
-0.0142975
0.002915
-0.0129501
0.00379627
-0.0104546
0.00446112
-0.00816728
0.0049641
-0.0062424
0.00534073
-0.00467169
0.00562333
-0.00343222
0.00584037
-0.00248614
0.00601196
-0.00178108
0.00614304
-0.00125428
0.00623401
-0.000865954
0.0062947
-0.000605397
0.0063299
-0.000442856
0.00633937
-0.000346104
0.00632158
-0.000293196
0.00627657
-0.000270782
0.00620535
-0.000267118
0.00611007
-0.000271061
0.00599227
-0.000269169
0.00585011
-0.000249213
0.00568429
-0.000214863
0.00549708
-0.000174101
0.00529436
-0.000141578
0.00508899
-0.000126849
0.00489396
-0.000117556
0.00470673
-7.75201e-05
0.00447946
4.04071e-05
0.00418323
0.000191914
0.00388057
0.000269809
0.000246074
0.000878022
-0.0151756
0.00122645
-0.0132985
0.00132508
-0.0105533
0.00134768
-0.00818989
0.00131409
-0.0062088
0.00124839
-0.004606
0.001168
-0.00335182
0.00108388
-0.00240202
0.000999217
-0.00169642
0.000902615
-0.00115768
0.000777676
-0.000741016
0.000628651
-0.000456372
0.000445742
-0.000259947
0.000224093
-0.000124455
-3.8988e-05
-3.01151e-05
-0.000338467
2.86968e-05
-0.000662327
5.6743e-05
-0.00100605
7.26604e-05
-0.00137543
0.000100214
-0.00178822
0.000163577
-0.00225968
0.000256594
-0.00277924
0.00034546
-0.00331147
0.000390654
-0.00382325
0.000384932
-0.00429296
0.000352156
-0.00469864
0.000328161
-0.0050004
0.000342167
-0.00521511
0.000406623
-0.00539074
0.000445431
0.000397686
-0.000100487
-0.0150751
-0.000667408
-0.0127316
-0.00138574
-0.00983494
-0.00208523
-0.0074904
-0.00274198
-0.00555206
-0.00333956
-0.00400841
-0.00387734
-0.00281404
-0.00436282
-0.00191655
-0.00480291
-0.00125633
-0.00521876
-0.000741831
-0.00566198
-0.000297796
-0.00619486
7.65091e-05
-0.00678677
0.000331965
-0.00737723
0.000466006
-0.00794796
0.000540611
-0.00849897
0.00057971
-0.00903538
0.000593157
-0.00955387
0.000591151
-0.010043
0.000589326
-0.0104874
0.000608023
-0.0108864
0.000655568
-0.0112536
0.000712622
-0.0116046
0.000741684
-0.0119409
0.000721262
-0.0122509
0.000662148
-0.0125217
0.000598949
-0.0127484
0.000568823
-0.0129236
0.000581861
-0.0130619
0.000583744
0.000544417
-0.00111835
-0.0139567
-0.00273861
-0.0111114
-0.0043622
-0.00821135
-0.00589428
-0.00595832
-0.0072775
-0.00416884
-0.00851028
-0.00277563
-0.00961941
-0.00170491
-0.0106527
-0.000883234
-0.0116406
-0.000268429
-0.0125492
0.000166753
-0.013304
0.000457034
-0.0138794
0.000651837
-0.0143475
0.000800139
-0.0147887
0.000907117
-0.0152221
0.000974088
-0.0156507
0.00100826
-0.0160726
0.00101505
-0.0164843
0.00100291
-0.016883
0.000988031
-0.0172651
0.000990034
-0.0176261
0.00101661
-0.0179643
0.00105086
-0.0182813
0.00105862
-0.0185754
0.00101534
-0.0188402
0.000926977
-0.0190692
0.000827972
-0.0192586
0.00075817
-0.0194053
0.000728585
-0.0195275
0.000706012
0.000677289
-0.00229831
-0.0116584
-0.00503271
-0.00837695
-0.00769117
-0.00555289
-0.0101202
-0.00352933
-0.0122601
-0.00202888
-0.0140956
-0.000940155
-0.0156438
-0.000156757
-0.0168894
0.00036238
-0.0178515
0.000693708
-0.0186
0.0009152
-0.0192196
0.00107672
-0.0197638
0.00119603
-0.0202471
0.00128341
-0.0206866
0.00134665
-0.0211015
0.00138895
-0.0215026
0.00140933
-0.0218926
0.00140514
-0.0222704
0.00138069
-0.0226348
0.00135236
-0.0229856
0.00134089
-0.0233227
0.00135375
-0.0236446
0.00137271
-0.0239473
0.00136137
-0.0242234
0.00129136
-0.0244632
0.00116686
-0.0246616
0.00102631
-0.0248192
0.000915779
-0.0249423
0.000851643
-0.0250507
0.000814449
0.000796761
-0.00369027
-0.00796813
-0.00763656
-0.00443067
-0.0113439
-0.00184556
-0.014568
-0.000305189
-0.0171746
0.000577676
-0.0191821
0.0010674
-0.0206869
0.00134795
-0.0218391
0.00151459
-0.0227676
0.00162227
-0.0235437
0.00169131
-0.0242032
0.0017362
-0.0247699
0.00176274
-0.0252631
0.00177654
-0.025703
0.00178661
-0.026111
0.00179689
-0.0265009
0.00179924
-0.0268759
0.00178016
-0.0272329
0.00173766
-0.0275703
0.00168983
-0.0278925
0.00166306
-0.0282059
0.00166717
-0.0285132
0.00167994
-0.028808
0.00165623
-0.0290756
0.00155898
-0.0292997
0.00139098
-0.0294734
0.0012
-0.0296032
0.00104554
-0.0297044
0.000952868
-0.0297981
0.000908116
0.000899798
-0.00569529
-0.00227284
-0.0112079
0.00108197
-0.0155864
0.00253289
-0.0189169
0.00302538
-0.0214297
0.00309048
-0.0233726
0.00301029
-0.0249019
0.00287723
-0.0261174
0.00273005
-0.0270893
0.00259425
-0.0278837
0.00248563
-0.02855
0.00240256
-0.0291171
0.00232984
-0.0296031
0.00226249
-0.0300295
0.00221299
-0.0304221
0.0021895
-0.0307987
0.00217585
-0.0311607
0.00214222
-0.0314995
0.00207641
-0.0318107
0.00200101
-0.0321029
0.00195529
-0.0323918
0.00195606
-0.0326863
0.00197445
-0.0329788
0.00194868
-0.0332454
0.00182564
-0.0334597
0.00160522
-0.0336109
0.00135123
-0.0337127
0.00114738
-0.0337913
0.00103149
-0.0338689
0.000985632
0.000985402
-0.00786226
0.00558942
-0.0142652
0.00748493
-0.0189811
0.00724875
-0.0225313
0.00657562
-0.025218
0.00577718
-0.0272424
0.0050347
-0.0287923
0.00442706
-0.03
0.00393776
-0.0309489
0.00354313
-0.0317127
0.00324942
-0.0323521
0.00304197
-0.0328967
0.00287448
-0.0333568
0.00272254
-0.0337518
0.00260806
-0.0341159
0.00255359
-0.0344741
0.00253401
-0.0348241
0.00249229
-0.0351461
0.00239841
-0.0354289
0.00228374
-0.0356864
0.00221284
-0.0359477
0.00221736
-0.0362314
0.00225812
-0.0365283
0.00224557
-0.0368025
0.0020999
-0.0370121
0.00181482
-0.0371399
0.001479
-0.0372091
0.00121659
-0.0372615
0.00108389
-0.0373218
0.00104591
0.00105368
-0.00971244
0.0153019
-0.0174224
0.0151949
-0.0227661
0.0125924
-0.0264616
0.0102712
-0.0291094
0.00842496
-0.0310163
0.0069416
-0.0324423
0.005853
-0.0335488
0.00504431
-0.0344022
0.00439649
-0.0350769
0.00392412
-0.0356522
0.00361731
-0.036156
0.00337825
-0.0365748
0.00314138
-0.0369187
0.00295199
-0.0372375
0.0028724
-0.037572
0.00286846
-0.0379142
0.00283455
-0.0382233
0.00270747
-0.0384736
0.00253402
-0.0386867
0.00242592
-0.0389132
0.0024439
-0.0391871
0.00253204
-0.0394973
0.00255572
-0.0397905
0.00239311
-0.0400016
0.00202597
-0.040102
0.00157933
-0.0401283
0.00124295
-0.0401478
0.00110333
-0.0401911
0.00108928
0.00110668
-0.0129099
0.0282118
-0.0223385
0.0246234
-0.0276781
0.017932
-0.0309071
0.0135002
-0.0332154
0.0107333
-0.0347539
0.00848004
-0.0358637
0.00696279
-0.0367731
0.00595372
-0.0374678
0.00509116
-0.0379906
0.004447
-0.0384642
0.00409086
-0.0389202
0.00383426
-0.0392898
0.003511
-0.0395571
0.00321922
-0.0398047
0.00312004
-0.0401092
0.00317294
-0.0404544
0.00317975
-0.0407602
0.00301326
-0.0409724
0.00274628
-0.0411236
0.00257708
-0.0413018
0.00262213
-0.0415663
0.00279653
-0.0419019
0.00289132
-0.0422301
0.00272125
-0.0424513
0.0022472
-0.0425167
0.00164471
-0.042482
0.00120826
-0.0424569
0.00107829
-0.0424869
0.00111919
0.00115153
-0.0183965
0.0466083
-0.0298172
0.0360441
-0.0344313
0.0225461
-0.0359416
0.0150105
-0.0375908
0.0123825
-0.038406
0.00929525
-0.0389286
0.00748534
-0.0396201
0.00664527
-0.0401688
0.00563982
-0.0404604
0.00473862
-0.0407704
0.00440082
-0.0411828
0.00424674
-0.0415085
0.00383662
-0.0416668
0.00337756
-0.0418018
0.00325502
-0.0420718
0.00344291
-0.0424453
0.00355326
-0.0427694
0.00333745
-0.0429352
0.00291203
-0.042992
0.00263388
-0.0430963
0.00272642
-0.0433498
0.00305004
-0.0437274
0.00326895
-0.0441129
0.00310675
-0.0443567
0.00249103
-0.0443753
0.00166324
-0.0442487
0.0010817
-0.0441594
0.000989014
-0.0441851
0.00114483
0.00120709
0.207447
0.00576006
0.207034
0.0111748
0.206432
0.0163495
0.205647
0.0213674
0.204688
0.0262933
0.203561
0.0311814
0.202272
0.0360792
0.200826
0.0410286
0.19923
0.0460665
0.197489
0.051226
0.195608
0.0565374
0.193593
0.0620289
0.19145
0.0677281
0.189183
0.0736621
0.186798
0.0798597
0.184298
0.0863522
0.181687
0.0931754
0.178965
0.100372
0.176135
0.107997
0.173192
0.116118
0.170135
0.124828
0.166957
0.13425
0.163653
0.144556
0.160225
0.155989
0.156695
0.168902
0.153156
0.183826
0.149972
0.201554
0.148816
0.223003
0.160465
0.245659
0.25886
0.235876
0.21249
0.00595247
0.212118
0.0115476
0.211574
0.016893
0.210868
0.0220732
0.210008
0.0271536
0.209001
0.0321888
0.207854
0.0372262
0.206575
0.0423077
0.205171
0.04747
0.203651
0.0527459
0.202023
0.0581652
0.200297
0.0637556
0.198481
0.0695439
0.196586
0.0755565
0.194625
0.0818212
0.192609
0.0883678
0.190554
0.0952305
0.188477
0.10245
0.186399
0.110075
0.184348
0.118169
0.182365
0.126811
0.180511
0.136104
0.178884
0.146183
0.177656
0.157217
0.177148
0.16941
0.178013
0.182961
0.181665
0.197902
0.190703
0.213964
0.206134
0.230228
0.245774
0.21922
0.217658
0.00612238
0.217329
0.0118766
0.21685
0.0173716
0.21623
0.0226929
0.215478
0.0279059
0.214602
0.0330653
0.21361
0.0382183
0.212511
0.0434062
0.211316
0.0486652
0.210035
0.0540273
0.208679
0.0595212
0.207261
0.0651735
0.205795
0.0710093
0.204298
0.0770533
0.202789
0.0833307
0.201288
0.0898683
0.199823
0.0966957
0.198426
0.103847
0.197138
0.111363
0.196016
0.119291
0.195138
0.127689
0.194617
0.136625
0.194622
0.146177
0.195418
0.156421
0.197414
0.167414
0.201221
0.179154
0.207608
0.191515
0.217237
0.204335
0.229834
0.217631
0.228828
0.246781
0.222951
0.00626782
0.22267
0.0121578
0.222262
0.0177798
0.221736
0.0232191
0.2211
0.0285414
0.220365
0.0338007
0.219539
0.0390438
0.218634
0.044311
0.217662
0.0496377
0.216635
0.0550544
0.215568
0.0605884
0.214477
0.0662644
0.213381
0.0721051
0.212302
0.0781324
0.211265
0.0843677
0.2103
0.090833
0.209444
0.0975515
0.208743
0.104548
0.208255
0.111851
0.208057
0.119489
0.208252
0.127495
0.208978
0.135898
0.210431
0.144724
0.212873
0.153979
0.21665
0.163637
0.222183
0.173621
0.229921
0.183777
0.240438
0.193818
0.254652
0.203418
0.210323
0.273156
0.228374
0.00638692
0.228144
0.0123878
0.227812
0.0181122
0.227386
0.0236453
0.226875
0.0290521
0.22629
0.0343858
0.225641
0.0396922
0.224942
0.0450106
0.224205
0.0503748
0.223445
0.0558138
0.222681
0.0613527
0.221932
0.0670137
0.22122
0.0728168
0.220573
0.0787798
0.220021
0.0849197
0.219601
0.0912524
0.21936
0.0977931
0.219351
0.104556
0.219646
0.111556
0.220331
0.118804
0.22152
0.126306
0.223357
0.134061
0.226028
0.142053
0.229764
0.150244
0.234844
0.158557
0.241597
0.166867
0.250403
0.17497
0.261709
0.182512
0.275989
0.189138
0.193762
0.29255
0.233929
0.00647799
0.233754
0.0125632
0.233502
0.0183644
0.233182
0.0239655
0.232803
0.0294308
0.232376
0.0348122
0.231914
0.0401544
0.23143
0.045495
0.230938
0.0508661
0.230458
0.0562946
0.230007
0.0618033
0.229609
0.0674113
0.229291
0.0731351
0.229082
0.0789885
0.229019
0.0849829
0.229144
0.0911277
0.229507
0.0974299
0.23017
0.103894
0.231207
0.110519
0.23271
0.117301
0.23479
0.124226
0.237583
0.131268
0.241254
0.138383
0.245994
0.145503
0.252025
0.152526
0.259589
0.159304
0.268928
0.165631
0.280222
0.171218
0.293567
0.175793
0.178841
0.308488
0.23962
0.00653956
0.239502
0.0126813
0.239334
0.0185321
0.239125
0.0241746
0.238884
0.0296713
0.238623
0.0350732
0.238355
0.0404229
0.238094
0.0457564
0.237856
0.0511036
0.237661
0.0564892
0.237532
0.0619331
0.237491
0.0674515
0.23757
0.0730568
0.2378
0.0787583
0.238221
0.0845621
0.238877
0.090471
0.239823
0.096484
0.241121
0.102596
0.242846
0.108795
0.245085
0.115062
0.247941
0.12137
0.251534
0.127675
0.255999
0.133917
0.261487
0.140016
0.268153
0.14586
0.276148
0.151308
0.285592
0.156187
0.296532
0.160279
0.308955
0.163369
0.165191
0.322606
0.245448
0.00657034
0.24539
0.0127395
0.24531
0.018612
0.245217
0.0242681
0.245119
0.0297688
0.245029
0.0351632
0.24496
0.0404919
0.244928
0.045789
0.244949
0.0510821
0.245045
0.0563932
0.245239
0.0617393
0.245557
0.0671334
0.24603
0.072584
0.246692
0.078096
0.247584
0.0836702
0.248752
0.0893034
0.250248
0.0949877
0.252134
0.100709
0.25448
0.106449
0.257366
0.112177
0.26088
0.117855
0.265122
0.123433
0.270196
0.128843
0.276209
0.134003
0.28326
0.138809
0.291431
0.143137
0.30077
0.146848
0.311265
0.149784
0.322848
0.151785
0.15272
0.335319
0.251418
0.00656933
0.251422
0.012736
0.251432
0.0186012
0.251458
0.0242428
0.251507
0.0297195
0.251592
0.0350782
0.251726
0.0403577
0.251926
0.0455896
0.252209
0.0507991
0.252596
0.0560054
0.253113
0.0612229
0.253785
0.0664609
0.254645
0.0717246
0.255726
0.0770145
0.257069
0.0823271
0.258719
0.0876537
0.260726
0.0929809
0.263146
0.0982891
0.266043
0.103552
0.269484
0.108736
0.273543
0.113796
0.278296
0.11868
0.283818
0.123321
0.29018
0.127641
0.297437
0.131551
0.305624
0.13495
0.314742
0.13773
0.324747
0.13978
0.335538
0.140994
0.141313
0.346945
0.257532
0.00653578
0.257599
0.0126693
0.257702
0.0184979
0.257849
0.0240964
0.258047
0.0295209
0.258309
0.0348162
0.258649
0.0400186
0.259081
0.0451573
0.259625
0.050255
0.260302
0.0553284
0.261136
0.0603887
0.262155
0.0654425
0.263388
0.0704914
0.26487
0.0755326
0.266638
0.0805584
0.268736
0.0855564
0.271208
0.090509
0.274104
0.0953927
0.277478
0.100178
0.281386
0.104827
0.285885
0.109297
0.291029
0.113536
0.296869
0.117481
0.303444
0.121066
0.310778
0.124217
0.318875
0.126854
0.327706
0.128899
0.337208
0.130278
0.347275
0.130926
0.130822
0.357766
0.263794
0.00646922
0.263925
0.0125386
0.264122
0.0183009
0.264391
0.0238276
0.264739
0.0291721
0.265179
0.0343766
0.265723
0.0394748
0.266387
0.0444936
0.267188
0.0494531
0.268149
0.0543675
0.269293
0.0592454
0.270645
0.0640905
0.272234
0.0689017
0.274094
0.0736731
0.276258
0.0783944
0.278764
0.0830502
0.281653
0.0876203
0.284966
0.0920793
0.288748
0.0963964
0.29304
0.100535
0.297885
0.104453
0.303318
0.108102
0.309368
0.111431
0.316054
0.114381
0.323375
0.116896
0.331313
0.118915
0.339826
0.120386
0.348843
0.121261
0.358266
0.121504
0.121114
0.367975
0.270207
0.00636947
0.270402
0.0123435
0.270693
0.01801
0.271084
0.0234365
0.271583
0.0286735
0.272199
0.0337604
0.272945
0.0387286
0.273836
0.0436023
0.27489
0.0483994
0.276126
0.0531314
0.277567
0.0578048
0.279236
0.0624208
0.281162
0.0669761
0.283372
0.0714627
0.285899
0.0758682
0.288773
0.0801756
0.29203
0.0843637
0.295702
0.0884068
0.299824
0.0922747
0.304426
0.095933
0.309535
0.0993436
0.315173
0.102465
0.32135
0.105253
0.328069
0.107663
0.335315
0.10965
0.343056
0.111174
0.351244
0.112198
0.359808
0.112697
0.36866
0.112652
0.112074
0.3777
0.276774
0.00623663
0.277033
0.0120843
0.277417
0.0176256
0.27793
0.022924
0.278576
0.0280267
0.279366
0.0329705
0.280311
0.0377842
0.281424
0.0424895
0.282721
0.047102
0.284221
0.0516312
0.285945
0.0560814
0.287913
0.060452
0.290151
0.0647381
0.292684
0.0689301
0.295538
0.0730146
0.298739
0.0769742
0.302315
0.0807877
0.306292
0.0844303
0.310692
0.087874
0.315538
0.0910879
0.320842
0.0940388
0.326615
0.0966921
0.332856
0.0990125
0.339552
0.100966
0.346682
0.102521
0.354207
0.103649
0.362076
0.104329
0.370224
0.104549
0.378573
0.104303
0.103609
0.387039
0.283498
0.00607109
0.283821
0.0117618
0.284297
0.0171491
0.284929
0.0222921
0.285721
0.0272348
0.28668
0.0320112
0.287817
0.0366474
0.289143
0.041163
0.290674
0.0455713
0.292425
0.0498801
0.294415
0.0540919
0.296662
0.0582048
0.299187
0.0622126
0.302012
0.0661053
0.305158
0.0698689
0.308645
0.0734866
0.312495
0.0769381
0.316725
0.0802006
0.32135
0.0832491
0.326381
0.0860568
0.331823
0.0885961
0.337676
0.0908391
0.34393
0.0927587
0.350566
0.0943302
0.357555
0.0955318
0.364857
0.0963466
0.372422
0.0967638
0.380192
0.0967794
0.388097
0.0963971
0.0956371
0.396069
0.290384
0.00587349
0.290768
0.0113773
0.291335
0.0165825
0.292083
0.0215439
0.293016
0.026302
0.294139
0.0308881
0.295461
0.0353258
0.296992
0.0396324
0.298743
0.0438195
0.30073
0.0478931
0.302968
0.0518546
0.305471
0.0557011
0.308258
0.0594258
0.311345
0.0630185
0.314748
0.0664658
0.318483
0.0697517
0.322563
0.0728578
0.327
0.0757638
0.331801
0.0784481
0.336969
0.0808885
0.342503
0.0830626
0.348393
0.0849489
0.354624
0.0865276
0.361173
0.0877816
0.368007
0.0886974
0.375088
0.0892659
0.382368
0.0894837
0.389794
0.0893531
0.397309
0.0888824
0.0880928
0.404853
0.297435
0.00564469
0.297879
0.0109325
0.298533
0.0159286
0.299394
0.0206831
0.300463
0.0252334
0.301743
0.0296079
0.303241
0.0338278
0.304965
0.0379084
0.306925
0.0418596
0.309132
0.0456862
0.311598
0.0493886
0.314335
0.0529634
0.317357
0.0564036
0.320677
0.0596994
0.324304
0.0628383
0.32825
0.0658058
0.332522
0.0685857
0.337125
0.0711605
0.342061
0.0735124
0.347326
0.0756233
0.352913
0.0774759
0.358807
0.0790545
0.36499
0.0803452
0.371434
0.0813371
0.378109
0.082023
0.384975
0.0823997
0.39199
0.0824685
0.399107
0.082236
0.406277
0.0817129
0.0809201
0.413449
0.304654
0.00538575
0.305157
0.0104295
0.305895
0.0151904
0.306864
0.0197142
0.308062
0.024035
0.309492
0.0281782
0.311157
0.032163
0.313063
0.0360028
0.315216
0.0397059
0.317626
0.0432763
0.320301
0.0467135
0.323251
0.0500141
0.326483
0.0531714
0.330006
0.0561761
0.333827
0.0590172
0.337951
0.0616819
0.34238
0.0641563
0.347115
0.066426
0.352151
0.0684766
0.35748
0.070294
0.36309
0.0718656
0.368965
0.0731802
0.375081
0.074229
0.381412
0.075006
0.387926
0.0755085
0.394589
0.0757374
0.40136
0.0756974
0.408199
0.0753972
0.415063
0.0748488
0.0740719
0.421911
0.312046
0.0050979
0.312605
0.00987073
0.313424
0.0143718
0.314495
0.0186424
0.315817
0.0227133
0.317388
0.0266073
0.319209
0.0303415
0.321285
0.0339277
0.323618
0.0373728
0.326214
0.0406799
0.329079
0.0438485
0.332218
0.0468749
0.335636
0.0497531
0.339338
0.0524749
0.343324
0.0550306
0.347597
0.0574093
0.352154
0.0595996
0.35699
0.0615899
0.362097
0.063369
0.367465
0.0649266
0.373077
0.0662537
0.378914
0.067343
0.384953
0.0681898
0.391167
0.0687918
0.397526
0.0691494
0.403998
0.0692662
0.410546
0.0691492
0.417135
0.0688079
0.423729
0.0682548
0.067508
0.430293
0.319615
0.00478244
0.320227
0.00925875
0.321122
0.0134765
0.322292
0.0174728
0.32373
0.0212752
0.325433
0.0249039
0.327401
0.0283739
0.329633
0.0316954
0.332131
0.0348746
0.334898
0.0379137
0.337934
0.040812
0.341243
0.0435663
0.344825
0.0461712
0.34868
0.0486195
0.352808
0.0509032
0.357204
0.0530133
0.361863
0.0549407
0.366776
0.0566764
0.371933
0.0582121
0.377319
0.0595405
0.382917
0.0606558
0.388706
0.061554
0.394663
0.062233
0.400761
0.0626934
0.406973
0.0629379
0.413267
0.0629718
0.419613
0.0628029
0.42598
0.0624414
0.432335
0.0618992
0.0611929
0.438651
0.327365
0.00444076
0.328027
0.00859628
0.328995
0.0125088
0.330257
0.0162111
0.331804
0.0197277
0.333632
0.0230765
0.335735
0.0262704
0.338112
0.0293182
0.340762
0.0322251
0.343683