# vtk DataFile Version 4.2
vtk output
ASCII
DATASET STRUCTURED_POINTS
DIMENSIONS 102 2 2
SPACING 0.1 0 0
ORIGIN 0 0 0
CELL_DATA 101
FIELD FieldData 3
velocity 1 101 double
9.0729490169 9.163218702 9.253613653 9.3433304932 9.4328344898 9.5216715792 9.6100059903 9.69765624 9.7845581311 
9.8707343342 9.9559558854 10.040390495 10.123698502 10.206143181 10.287318629 10.367543627 10.44638133 10.524174754 
10.600483041 10.675650069 10.749250525 10.821612611 10.892339856 10.961733979 11.029435491 11.095713475 11.160249467 
11.223277403 11.284520758 11.344178545 11.402014815 11.458195836 11.512523309 11.56513424 11.615864076 11.664824828 
11.711881261 11.757125042 11.800445637 11.841919114 11.881455073 11.919118613 11.954835103 11.988663073 12.02053957 
12.050520652 12.078551263 12.104688772 12.128882525 12.151194683 12.171575756 12.190095908 12.206703771 12.221480508 
12.234369963 12.245467131 12.254708227 12.262204808 12.267882622 12.271872457 12.274086725 12.27467809 12.273542689 
12.270857699 12.266499967 12.260673822 12.253233731 12.244413796 12.234042987 12.22238772 12.209248397 12.194926135 
12.179189854 12.162377473 12.144223833 12.125105292 12.104720556 12.083485359 12.06106103 12.037902608 12.013633983 
11.988748035 11.962832773 11.936415574 11.909052294 11.881299005 11.852685947 11.823788933 11.79412271 11.764269903 
11.733744358 11.703117668 11.671922861 11.640696667 11.609018001 11.577357734 11.545375234 11.513436071 11.481323813 
11.449249502 11.41717519 
pressure 1 101 double
-88.67797777 -80.073538802 -71.469099834 -62.9506706 -54.426493343 -46.019109837 -37.606655877 -29.334128566 -21.062372893 
-12.9473139 -4.8428216652 3.0933423682 11.006308963 18.743334403 26.442688745 33.961518847 41.427211082 48.709982682 
55.923857471 62.95390782 69.899565465 76.661437648 83.324104057 89.80355051 96.169960117 102.35394457 108.41223915 
114.2889379 120.0285831 125.58738684 130.99910709 136.23062452 141.30635635 146.20242062 150.9352833 155.48896197 
159.87324389 164.07885282 168.11001143 171.96313225 175.6378049 179.13530548 182.45132834 185.59138508 188.54781701 
191.32993759 193.92708586 196.35213056 198.59157547 200.66177521 202.54639075 204.26535986 205.79932777 207.17206961 
208.36088465 209.39378822 210.24425273 210.94507875 211.46528508 211.84314011 212.04243999 212.10773764 211.99669789 
211.76110637 211.35145097 210.82782667 210.13236551 209.33467265 208.36721786 207.31043435 206.08570556 204.7857157 
203.31923576 201.79271059 200.10069395 198.36496012 196.4641961 194.53709434 192.44482807 190.3445624 188.07837613 
185.82335489 183.40105284 181.00972268 178.44922247 175.93989624 173.25913 170.64980959 167.86663784 165.17483261 
162.30697384 159.54951545 156.61449402 153.80734836 150.82246287 147.98053973 144.96285369 142.09981517 139.06617077 
136.19423953 133.16129469 
crossSection 1 101 double
0.99006835751 0.99102552987 0.99198409095 0.99293444089 0.99388679984 0.99482745284 0.99577001039 0.99669819703 0.99762759531 
0.99854065129 0.99945376997 1.0003491377 1.0012430867 1.0021183183 1.0029904282 1.0038431893 1.0046910001 1.0055190735 
1.0063403229 1.0071416136 1.0079342253 1.0087067633 1.0094688362 1.0102107811 1.0109405795 1.0116502233 1.0123461685 
1.0130219393 1.0136826034 1.014323068 1.0149471695 1.015551037 1.0161374376 1.0167035625 1.0172512665 1.0177786525 
1.0182868074 1.0187746111 1.0192425097 1.0196900446 1.0201171277 1.0205238686 1.0209097292 1.0212753157 1.0216197029 
1.0219439442 1.0222467672 1.0225296448 1.0227909768 1.0230326478 1.0232527286 1.0234535275 1.0236327657 1.0237932052 
1.0239321787 1.024052949 1.0241524039 1.0242343708 1.0242952192 1.0243394202 1.0243627352 1.0243703741 1.024357384 
1.0243298237 1.0242819036 1.0242206566 1.0241393188 1.0240460364 1.0239329191 1.0238093787 1.0236662331 1.0235143238 
1.0233430001 1.0231647072 1.0229671398 1.0227645273 1.0225427199 1.0223179127 1.022073922 1.0218290863 1.0215650073 
1.021302331 1.0210202818 1.0207419535 1.0204440616 1.0201522498 1.0198406393 1.0195374708 1.019214252 1.0189017902 
1.0185690502 1.018249273 1.0179090696 1.017583848 1.0172382053 1.016909281 1.0165601884 1.016229152 1.0158785658 
1.0155468352 1.0151966828 
