# vtk DataFile Version 4.2
vtk output
ASCII
DATASET STRUCTURED_POINTS
DIMENSIONS 102 2 2
SPACING 0.1 0 0
ORIGIN 0 0 0
CELL_DATA 101
FIELD FieldData 3
velocity 1 101 double
11.763355757 11.68498685 11.604885931 11.524757038 11.443236344 11.361643286 11.278969456 11.196213055 11.112661471 
11.029046937 10.944900798 10.86073701 10.776286206 10.691884837 10.607424646 10.523099134 10.438928763 10.354993113 
10.271414095 10.18818153 10.105495995 10.023277455 9.9417863059 9.8608888235 9.7808898231 9.7016147979 9.6234006019 
9.5460420028 9.4698981646 9.3947406905 9.3209436655 9.2482609014 9.1770760834 9.1071286848 9.0388085061 8.9718424486 
8.9066245744 8.8428695021 8.7809751501 8.7206428559 8.6622752687 8.6055583358 8.5509014295 8.4979720598 8.4471892715 
8.3981983218 8.3514316718 8.3065079138 8.2638772924 8.2231269078 8.1847295957 8.1482359107 8.1141463321 8.0819697917 
8.0522394963 8.0244178729 7.9990757399 7.9756245651 7.9546772144 7.9355904213 7.9190228168 7.9042735724 7.892049798 
7.8815915059 7.8736556933 7.8674231434 7.8637005282 7.8616111676 7.8620092517 7.8639645526 7.8683743486 7.8742612469 
7.8825585828 7.8922509624 7.9042978252 7.9176580235 7.9333039228 7.950184235 7.9692675693 7.9895117295 8.0118611398 
8.0353057603 8.0607414594 8.0872174107 8.1155524768 8.144886193 8.1759278224 8.207942519 8.24149323 8.2760100235 
8.3118688104 8.3487077313 8.386671166 8.4256520579 8.4655153399 8.5064586414 8.5480165968 8.5907440029 8.6337920365 
8.6781270384 8.7224620403 
pressure 1 101 double
162.88145033 155.55273305 148.22401577 140.75537517 133.25808576 125.66988188 118.0340305 110.34818408 102.60375522 
94.84359029 87.02058089 79.210655804 71.339090328 63.505019662 55.614939794 47.783208418 39.904636916 32.102406951 
24.265286222 16.520197448 8.7543043629 1.0942687283 -6.5708921279 -14.117900959 -21.653222842 -29.059383633 -36.436298822 
-43.674158905 -50.864792011 -57.907483357 -64.884813014 -71.706265818 -78.444290903 -85.019441999 -91.49334845 -97.798341716 
-103.98466607 -109.99704194 -115.87382788 -121.57269905 -127.11964344 -132.48585417 -137.68443951 -142.70070585 -147.53431639 
-152.18534546 -156.63936474 -160.91195107 -164.97383929 -168.85693717 -172.51628719 -176.00105815 -179.24962957 -182.32946484 
-185.16119637 -187.83171442 -190.242715 -192.50173504 -194.49025494 -196.33774738 -197.90413071 -199.34214625 -200.48876698 
-201.52134602 -202.25252965 -202.88559423 -203.20752745 -203.44875781 -203.36938891 -203.22808714 -202.75701956 -202.24396259 
-201.39234426 -200.51962859 -199.30003935 -198.08091976 -196.50725923 -194.95598365 -193.04336137 -191.17500391 -188.93963354 
-186.76992761 -184.22902649 -181.77419976 -178.94589482 -176.22250766 -173.12574831 -170.15053722 -166.80501553 -163.59474296 
-160.0208209 -156.5921329 -152.81077614 -149.18006914 -145.21278667 -141.39608463 -137.26487281 -133.27771618 -129.00500598 
-124.86235362 -120.47095912 
crossSection 1 101 double
1.0186356901 1.0177860411 1.0169374546 1.016073758 1.0152078545 1.0143325774 1.0134529464 1.0125687111 1.0116789061 
1.010788469 1.0098920102 1.0089982398 1.0080986154 1.0072044702 1.0063051342 1.0054136396 1.004518008 1.0036322337 
1.0027436773 1.0018667141 1.0009885498 1.0001234864 0.99925896632 0.99840886677 0.99756116547 0.99672904598 0.99590124697 
0.99509005387 0.99428513484 0.99349772273 0.99271854045 0.99195765129 0.99120692645 0.99047516969 0.98975547199 0.98905530592 
0.98836903984 0.98770275453 0.98705214607 0.98642184798 0.9858089327 0.98521653125 0.98464314383 0.98409034003 0.9835581056 
0.98304638295 0.98255671026 0.98208732796 0.98164140456 0.98121539307 0.98081418253 0.98043234152 0.98007658267 0.9797394813 
0.97942968941 0.97913766891 0.97887413874 0.97862731707 0.97841012763 0.97820840623 0.97803742704 0.97788049935 0.97775539804 
0.97764275972 0.97756301072 0.97749397129 0.97745886537 0.97743256112 0.97744121555 0.97745662346 0.97750799252 0.97756394506 
0.97765683074 0.97775203124 0.97788509385 0.97801813238 0.97818990094 0.97835927042 0.97856815258 0.97877226507 0.97901655655 
0.9792537594 0.97953165272 0.97980024463 0.98010983719 0.9804080839 0.98074738522 0.98107353485 0.98144047316 0.98179277086 
0.98218519892 0.98256190099 0.98297760132 0.9833769884 0.98381367801 0.98423406741 0.98468940213 0.98512915906 0.98560073772 
0.98605828529 0.9865436539 
