# vtk DataFile Version 4.2
vtk output
ASCII
DATASET STRUCTURED_POINTS
DIMENSIONS 102 2 2
SPACING 0.1 0 0
ORIGIN 0 0 0
CELL_DATA 101
FIELD FieldData 3
velocity 1 101 double
10.927050983 11.006088014 11.083073773 11.15856685 11.231865099 11.303651297 11.373142383 11.441078507 11.506653978 
11.570615283 11.632177581 11.692056487 11.749518765 11.805223619 11.858509627 11.909963563 11.959007576 12.006147489 
12.050894249 12.093669907 12.134074566 12.172447857 12.208475925 12.242420236 12.274047523 12.303547246 12.330759807 
12.355809959 12.378604043 12.399209988 12.417592001 12.433769258 12.44775573 12.459529864 12.469147441 12.476554005 
12.481839452 12.484923988 12.485924209 12.484742288 12.481514362 12.476131649 12.468742873 12.459235211 12.447763153 
12.434216659 12.418749208 12.401260362 12.38189578 12.360571502 12.337418455 12.312376167 12.285553739 12.256921391 
12.226559072 12.194475129 12.160712765 12.125326143 12.088313842 12.049783787 12.009681775 11.968177672 11.92515609 
11.880857193 11.835095829 11.78819091 11.739878863 11.690565761 11.639901029 11.58838611 11.535575097 11.482072609 
11.427329555 11.372060871 11.315607207 11.258799962 11.20086358 11.142750705 11.083565163 11.024383803 10.964187456 
10.904177796 10.84321287 10.782616858 10.721128475 10.660188459 10.598423625 10.537380917 10.475587481 10.41468085 
10.353106456 10.292570578 10.231461618 10.171525493 10.11112608 10.052011435 9.9925624081 9.934482107 9.876220085 
9.8193765738 9.7625330626 
pressure 1 101 double
85.522438717 92.840349772 100.15826083 107.13399873 114.09499782 120.71867625 127.30967779 133.57202696 139.78213659 
145.67456366 151.49483182 157.00948345 162.43267716 167.56249721 172.58289557 177.32167356 181.93489001 186.27729864 
190.48013041 194.42175185 198.21205592 201.74939786 205.12599129 208.25649463 211.21907673 213.94111691 216.49021046 
218.80309455 220.94000312 222.84396477 224.57074366 226.06693742 227.38637562 228.47687221 229.39248336 230.08026676 
230.59628722 230.8852543 231.0066467 230.90160979 230.63407082 230.14076315 229.49073429 228.6158182 227.59049852 
226.34157593 224.94893588 223.33456049 221.58335607 219.61304648 217.51283284 215.19708565 212.75822949 210.10853151 
207.34222158 204.37105996 201.28931495 198.01018407 194.62585731 191.05326138 187.38004164 183.52949159 179.58189956 
175.46990321 171.26328294 166.90732709 162.45783221 157.87635549 153.20092965 148.41328501 143.52963653 138.55604232 
133.48261273 128.34409144 123.10001817 117.81832193 112.42339518 107.02091752 101.49553181 95.99520492 90.360305942 
84.785483257 79.062510754 73.436834681 67.647662349 61.99491721 56.1617908 50.505741305 44.651216248 39.015432018 
33.162312048 27.569978972 21.741257342 16.214976762 10.43378169 4.9953587041 -0.71509532181 -6.0448729197 -11.661326396 
-16.86291673 -22.362097579 
crossSection 1 101 double
1.0097204703 1.0105587988 1.0113981719 1.0121992712 1.012999627 1.0137620804 1.0145216271 1.0152440911 1.0159612907 
1.0166425044 1.0173160487 1.0179548436 1.0185836314 1.0191789405 1.0197620569 1.0203129224 1.0208496208 1.0213552005 
1.0218448873 1.0223044597 1.0227466817 1.0231596491 1.0235540832 1.0239199743 1.0242664196 1.0245848908 1.0248832625 
1.0251540986 1.0254044237 1.0256275377 1.0258299517 1.0260053849 1.0261601302 1.0262880515 1.0263954762 1.0264761819 
1.0265367389 1.0265706527 1.0265849001 1.0265725723 1.0265411732 1.0264832811 1.0264070045 1.0263043523 1.0261840732 
1.0260375919 1.0258742916 1.0256850395 1.0254798062 1.0252489685 1.0250029972 1.0247318858 1.024446478 1.0241365315 
1.0238130944 1.0234658767 1.0231059225 1.0227231217 1.0223282657 1.0219116921 1.0214836509 1.0210352341 1.0205758226 
1.0200976078 1.0196087362 1.0191028798 1.0185865493 1.0180553133 1.0175136119 1.0169593566 1.0163944536 1.0158196301 
1.0152337703 1.0146409104 1.0140364077 1.0134281139 1.0128073443 1.0121862772 1.0115516714 1.0109205362 1.0102745719 
1.0096361036 1.0089812975 1.0083382445 1.0076771443 1.0070322507 1.0063674271 1.0057234141 1.0050574531 1.0044169988 
1.0037524942 1.0031182125 1.0024577594 1.001832178 1.0011783666 1.0005639042 0.99991931502 0.99931825791 0.99868545766 
0.99809993558 0.99748147473 
