# vtk DataFile Version 4.2
vtk output
ASCII
DATASET STRUCTURED_POINTS
DIMENSIONS 102 2 2
SPACING 0.1 0 0
ORIGIN 0 0 0
CELL_DATA 101
FIELD FieldData 3
velocity 1 101 double
10 10.088932974 10.176800604 10.263525588 10.348937051 10.433203225 10.515957193 10.597535076 10.677444565 
10.756125211 10.833016916 10.908610956 10.982324734 11.054661327 11.125049796 11.193975547 11.260903764 11.326281661 
11.389626845 11.451335244 11.510986532 11.568918218 11.624776437 11.678837779 11.730815227 11.780925428 11.828945657 
11.875036114 11.919033726 11.961047477 12.000967926 12.038859201 12.074658609 12.108392465 12.140037456 12.169589485 
12.197057041 12.222413153 12.245690494 12.266846761 12.28593125 12.302893801 12.317792879 12.330577839 12.341308982 
12.349942449 12.356533155 12.361051206 12.363539 12.363987721 12.36242018 12.358855706 12.353290503 12.345779068 
12.336284018 12.324902001 12.311555121 12.296389086 12.279278647 12.260425363 12.239649936 12.217216373 12.192884866 
12.166988157 12.13921982 12.10998718 12.078911597 12.046480192 12.012237226 11.976753985 11.93949369 11.901115046 
11.860997531 11.819889089 11.777084333 11.733420458 11.688108062 11.642071382 11.594440267 11.546221078 11.496469119 
11.446264699 11.394598293 11.342612122 11.289245685 11.235686563 11.180841968 11.125923044 11.069828988 11.013766695 
10.956658005 10.899670918 10.841787791 10.784095411 10.725682598 10.667504081 10.608810011 10.550362853 10.491638702 
10.433137404 10.374636107 
pressure 1 101 double
-1.6335832686 6.7286695176 15.090922304 23.22180017 31.34838742 39.230507465 47.098822301 54.715775463 62.305733476 
69.642077859 76.935925187 83.977195527 90.959309872 97.692035394 104.34872935 110.76045383 117.07978774 123.15908723 
129.13069652 134.8671921 140.48213209 145.86649623 151.11710587 156.14106216 161.02084696 165.67716385 170.18069715 
174.46317696 178.5860183 182.48948274 186.22811175 189.74838573 193.10014955 196.23404459 199.19711738 201.94241583 
204.51576849 206.87120974 209.0545885 211.01985783 212.81377034 214.38949099 215.79519877 216.98292739 218.0024437 
218.80466932 219.44076157 219.86090773 220.11710373 220.15953353 220.04013081 219.71015421 219.22023205 218.5241148 
217.66954809 216.61452147 215.40199611 213.9962665 212.43329574 210.68605299 208.78099426 206.70241775 204.46448947 
202.06575063 199.50504855 196.79830868 193.9258212 190.92422332 187.75184528 184.46949879 181.01004343 177.46200016 
173.72920868 169.93142921 165.93997771 161.90928668 157.67478999 153.42881937 148.96783163 144.52495083 139.85496262 
135.23419464 130.37362636 125.59454933 120.56274097 115.64537461 110.46257172 105.42724851 100.11458459 94.981805723 
89.561281053 84.351557705 78.846014741 73.579695457 68.012790888 62.709876468 57.10604993 51.785997616 46.170436962 
40.851956338 35.250559097 
crossSection 1 101 double
0.99981569535 1.0007596816 1.0017050054 1.002625458 1.0035466932 1.0044414289 1.0053357915 1.0062027211 1.0070676941 
1.0079048251 1.008738142 1.009543583 1.0103432101 1.0111151761 1.0118792945 1.0126161122 1.0133431005 1.0140432138 
1.0147316318 1.0153936058 1.0160421802 1.0166647049 1.0172723165 1.0178542093 1.0184198818 1.0189600893 1.0194829805 
1.0199805793 1.0204599733 1.0209141702 1.0213494717 1.0217596038 1.0221503333 1.0225158675 1.0228616577 1.0231821902 
1.0234827836 1.0237580389 1.0240132863 1.0242431173 1.0244529763 1.0246373636 1.0248018984 1.0249409501 1.0250603312 
1.0251542831 1.0252287876 1.0252780032 1.0253080155 1.0253129861 1.0252989983 1.0252603436 1.0252029564 1.0251214247 
1.0250213482 1.0248978165 1.024755871 1.0245913447 1.0244084615 1.0242040746 1.0239812966 1.0237383103 1.0234767924 
1.0231965939 1.0228976033 1.0225817036 1.0222466197 1.0218966507 1.0215269651 1.0211446756 1.0207419908 1.0203292417 
1.0198952706 1.0194540283 1.0189905928 1.0185229219 1.0180319507 1.0175400055 1.0170235321 1.0165095458 1.0159697058 
1.0154359788 1.0148750071 1.0143238937 1.0137441208 1.0131780142 1.0125818626 1.0120031787 1.011393159 1.0108043182 
1.0101830247 1.0095864328 1.0089565392 1.0083545668 1.0077188213 1.0071137826 1.0064750032 1.0058691334 1.0052302032 
1.0046256354 1.0039894972 
