# vtk DataFile Version 4.2
vtk output
ASCII
DATASET STRUCTURED_POINTS
DIMENSIONS 102 2 2
SPACING 0.1 0 0
ORIGIN 0 0 0
CELL_DATA 101
FIELD FieldData 3
velocity 1 101 double
10 10.089009516 10.176938679 10.26374105 10.349216143 10.433561559 10.516381664 10.598041597 10.678020118 
10.756786505 10.833750487 10.909434762 10.983224372 11.055656421 11.126124555 11.195151653 11.262163649 11.327649455 
11.391082903 11.452906563 11.512651209 11.570706601 11.626664359 11.680859521 11.73294459 11.783201342 11.831340435 
11.877594199 11.921726885 11.963926694 12.004005832 12.042114516 12.07810677 12.112101274 12.143987676 12.173859488 
12.201636026 12.227391657 12.251069841 12.27273132 12.292338697 12.30994403 12.325524611 12.339128151 12.350742706 
12.36041541 12.368141613 12.37397113 12.377903514 12.379994094 12.380243808 12.378715995 12.375410343 12.370400451 
12.363682207 12.355341574 12.345368077 12.333862094 12.32080413 12.306311061 12.290351549 12.273061159 12.254393661 
12.234505675 12.213332755 12.191055175 12.167586636 12.143133946 12.117584988 12.091176282 12.063765605 12.035622668 
12.006570556 11.976915941 11.94644238 11.915497496 11.883820338 11.851803597 11.819136829 11.786261867 11.752813989 
11.719287993 11.685260558 11.651282704 11.616869035 11.582629066 11.548013164 11.513690109 11.479045782 11.44480682 
11.410297037 11.37629651 11.342072993 11.308451557 11.274654615 11.241538527 11.208297125 11.175797658 11.143229726 
11.111442692 11.079655657 
pressure 1 101 double
-0.78472464034 7.5757712876 15.936267216 24.065300514 32.189312103 40.069475778 47.93439651 55.549272516 63.135007557 
70.469160519 77.757936308 84.796923396 91.773090881 98.503480698 105.15332251 111.56271773 117.87426779 123.95132861 
129.9142107 135.64867819 141.25396807 146.63668779 151.87680188 156.89974895 161.76836081 166.42466789 170.91665222 
175.20064138 179.31204418 183.21926311 186.94729534 190.47455778 193.81760871 196.96303809 199.92070425 202.68377886 
205.25690349 207.63850115 209.82921913 211.83165874 213.64344201 215.27051916 216.70821767 217.96523167 219.03510558 
219.9288751 220.63861438 221.17747943 221.53620777 221.730016 221.7482767 221.60835245 221.29807478 220.83717011 
220.21161521 219.44384243 218.51752892 217.45827495 216.24688469 214.91270808 213.43297349 211.84148539 210.11106016 
208.28079103 206.31810653 204.26836076 202.09247086 199.84317166 197.47358894 195.0451162 192.50164288 189.91466658 
187.21722335 184.49253519 181.66099159 178.81933736 175.87334699 172.93526182 169.89410587 166.87975447 163.76219677 
160.69122006 157.5153768 154.40674606 151.18997321 148.06185225 144.82065334 141.69026874 138.44022569 135.32374447 
132.07947369 128.99188728 125.7670234 122.7220362 119.52924514 116.53916555 113.39018867 110.46582013 107.37155075 
104.52207988 101.49267311 
crossSection 1 101 double
0.99991145919 1.0008553826 1.0018006433 1.0027210188 1.0036420935 1.0045367345 1.0054308383 1.0062976543 1.0071622681 
1.0079992668 1.008832121 1.0096374132 1.0104364703 1.0112082751 1.011971712 1.0127083628 1.0134345544 1.0141345045 
1.0148220087 1.015483837 1.0161313825 1.016753799 1.0173602752 1.0179421266 1.0185065765 1.0190468518 1.0195684682 
1.020066305 1.0205444288 1.0209991192 1.0214332406 1.0218442378 1.0222339996 1.0226009247 1.0229461268 1.0232687752 
1.0235693802 1.0238477281 1.0241038673 1.024338077 1.0245500565 1.0247404813 1.0249087863 1.0250559734 1.0251812728 
1.0252859651 1.0253691124 1.0254322481 1.0254742815 1.0254969918 1.0254991316 1.0254827353 1.0254463784 1.0253923753 
1.0253190874 1.0252291485 1.0251206534 1.0249966087 1.0248547756 1.0246986003 1.0245254282 1.0243392266 1.0241368272 
1.0239228148 1.0236933937 1.0234538781 1.0231997144 1.0229370754 1.0226605008 1.0223771691 1.0220805463 1.0217789826 
1.0214646839 1.0211473579 1.0208177438 1.0204871131 1.0201445124 1.0198030028 1.0194496933 1.019099679 1.0187378704 
1.0183816561 1.0180134744 1.0176532781 1.0172807527 1.0169186899 1.0165437428 1.0161818117 1.0158062504 1.0154463184 
1.0150718307 1.0147156216 1.0143437752 1.0139928573 1.0136251013 1.0132808756 1.0129185469 1.0125822361 1.0122265686 
1.0118992049 1.0115513432 
