# vtk DataFile Version 4.2
vtk output
ASCII
DATASET STRUCTURED_POINTS
DIMENSIONS 102 2 2
SPACING 0.1 0 0
ORIGIN 0 0 0
CELL_DATA 101
FIELD FieldData 3
velocity 1 101 double
8.2366442431 8.318974484 8.4027514254 8.4863488608 8.5709959989 8.6554850583 8.7406670414 8.8256860961 8.9110808558 
8.9962835129 9.081582393 9.1666384168 9.2515462289 9.3361421212 9.4203771505 9.5042164316 9.5875104066 9.6703136432 
9.7524116773 9.8339163039 9.9145768093 9.9945367895 10.073531366 10.151716736 10.228830028 10.305026361 10.38005589 
10.454063716 10.526819679 10.598453883 10.668758928 10.737848149 10.805537126 10.871923178 10.936842876 11.000380194 
11.062389063 11.122944185 11.181912063 11.239363157 11.295170989 11.349407427 11.401947005 11.452868976 11.502042692 
11.549560867 11.595281489 11.639316728 11.681507207 11.721990308 11.760583616 11.797455108 11.832394108 11.865604086 
11.896841442 11.926349432 11.953847562 11.979622422 12.00335348 12.025373337 12.045319241 12.06357145 12.079723941 
12.094205072 12.10656581 12.117281652 12.125862343 12.132827926 12.137650473 12.140890101 12.141986779 12.141534072 
12.138947715 12.134845649 12.12862985 12.120930794 12.111150104 12.099915851 12.086645973 12.071947752 12.055275714 
12.037194187 12.01721849 11.995843722 11.972674448 11.948105851 11.92186472 11.89421096 11.865031321 11.834410199 
11.802436937 11.768975232 11.734364584 11.698197859 11.661117117 11.622389495 11.583016577 11.541880496 11.500403369 
11.45701931 11.413635251 
pressure 1 101 double
-169.1640212 -161.18356331 -153.20310542 -145.14001487 -137.06076853 -128.94597838 -120.8056539 -112.66904631 -104.5034263 
-96.373805232 -88.216663699 -80.121727935 -72.004795378 -63.971111076 -55.924078889 -47.977052088 -40.027608979 -32.191459165 
-24.365352304 -16.66308853 -8.984202461 -1.4376035606 6.0719494018 13.442349207 20.762132519 27.937051703 35.048206477 
42.00961756 48.894766215 55.625890419 62.269044614 68.754340252 75.140814842 81.365960152 87.482294258 93.434165626 
99.268051388 104.93469802 110.4749172 115.84553335 121.08190169 126.14679748 131.07011659 135.82068831 140.42270475 
144.85140549 149.12477676 153.22508779 157.16335481 160.92975842 164.52732421 167.955278 171.20739225 174.29330522 
177.19605458 179.9372647 182.48756853 184.88232178 187.07793327 189.12536374 190.96487615 192.66498686 194.14784479 
195.50148873 196.6280042 197.63686501 198.40823827 199.07480999 199.49315476 199.82072003 199.88909287 199.88169907 
199.6041326 199.26656523 198.64810464 197.98585752 197.03260002 196.05184167 194.77097807 193.47851416 191.87837183 
190.28160324 188.37168946 186.47856616 184.26961069 182.08858142 179.59257688 177.1325352 174.3627737 171.63300107 
168.60410521 165.61421222 162.34215824 159.10202538 155.60415616 152.12387609 148.418901 144.70872462 140.81670327 
136.88699249 132.82929881 
crossSection 1 101 double
0.98118171497 0.98205750027 0.98293445866 0.98382169092 0.98471190633 0.98560725496 0.98650664841 0.98740686199 0.9883115248 
0.98921343494 0.99011963968 0.99102016536 0.99192437222 0.9928205245 0.99371938375 0.99460827088 0.99549862203 0.99637745474 
0.99725632317 0.99812241993 0.99898701157 0.99983780354 1.0006854984 1.001518534 1.0023468786 1.0031598274 1.0039665277 
1.0047571838 1.0055400973 1.0063063815 1.0070635102 1.0078034722 1.0085329561 1.009244775 1.009944886 1.0106268712 
1.0112960079 1.011946599 1.012583282 1.013201048 1.0138039163 1.0143875549 1.0149553624 1.0155036991 1.0160353126 
1.0165472993 1.0170416958 1.0175164098 1.0179726761 1.0184093184 1.0188266495 1.0192245437 1.0196022432 1.0199608342 
1.0202983139 1.0206171665 1.0209139474 1.0211927446 1.0214484581 1.0216870002 1.0219013894 1.0220995918 1.0222725135 
1.0224304054 1.0225618325 1.0226795546 1.0227695785 1.022847381 1.0228962148 1.0229344544 1.0229424364 1.0229415732 
1.02290917 1.0228697643 1.0227975747 1.0227202827 1.0226090416 1.0224946102 1.0223451926 1.0221944549 1.0220078795 
1.0218217483 1.0215991814 1.0213786429 1.0211214019 1.0208675084 1.0205770648 1.0202909272 1.0199689088 1.0196516888 
1.0192998816 1.0189527831 1.0185731315 1.0181973927 1.0177919991 1.0173888843 1.0169600065 1.0165307984 1.0160808457 
1.0156268388 1.015158365 
