# vtk DataFile Version 4.2
vtk output
ASCII
DATASET STRUCTURED_POINTS
DIMENSIONS 102 2 2
SPACING 0.1 0 0
ORIGIN 0 0 0
CELL_DATA 101
FIELD FieldData 3
velocity 1 101 double
12.427050983 12.46591328 12.501529471 12.535407442 12.566097026 12.594992891 12.620777537 12.644707177 12.665615017 
12.684606745 12.700673031 12.714766596 12.726034271 12.735280081 12.741800267 12.74625881 12.748091218 12.747832665 
12.745045941 12.740149898 12.732821912 12.723377297 12.71159539 12.69770041 12.681561607 12.663323804 12.642935001 
12.620471357 12.595949476 12.569386537 12.540858665 12.510332689 12.477936176 12.443593269 12.407475806 12.369472042 
12.329791689 12.288293191 12.245218361 12.20040134 12.154110724 12.106161452 12.056843882 12.005958598 11.953812827 
11.900197558 11.845431962 11.789302253 11.732134435 11.673714982 11.614371276 11.553895446 11.492610321 11.430319562 
11.367334908 11.30347805 11.239042359 11.173874786 11.10824222 11.042024935 10.975454287 10.908452859 10.841206413 
10.773689818 10.706032116 10.638271473 10.570468 10.502735226 10.435051026 10.367617408 10.300315649 10.233450349 
10.166790857 10.100759382 10.034997156 9.9700597859 9.9054435312 9.8418537417 9.7786244255 9.7166273194 9.6550167868 
9.5948475494 9.5350772148 9.4769596162 9.4192392559 9.363384214 9.3079108803 9.2545151029 9.2014721805 9.1507168978 
9.1002733187 9.0523231212 9.0046327535 8.9596345428 8.9148357649 8.872917826 8.8311332955 8.7924044933 8.7537411165 
8.7182902199 8.6828393232 
pressure 1 101 double
225.02760857 228.47007123 231.9125339 234.91031919 237.87443107 240.42871632 242.91791261 245.03020268 247.04910521 
248.72139898 250.27562376 251.51054452 252.60655782 253.40745207 254.0524685 254.42347861 254.62539432 254.57151038 
254.33886481 253.86596064 253.20792053 252.3227785 251.24913851 249.95946655 248.48066201 246.79510566 244.92223339 
242.85038472 240.5952287 238.14763346 235.52269253 232.71085618 229.72937169 226.56576438 223.24174586 219.73980626 
216.0880534 212.26219083 208.29831059 204.16390477 199.90432222 195.47771974 190.9396816 186.23818818 181.4397582 
176.48162569 171.4416709 166.24607803 160.98424515 155.57127117 150.10795248 144.49854279 138.85483103 133.07075399 
127.26838602 121.3321803 115.39346929 109.32838137 103.27613768 97.106049145 90.963490116 84.712834752 78.503484001 
72.197154769 65.944731787 59.607978043 53.336279188 46.994594717 40.727366922 34.406369609 28.167178383 21.892482506 
15.704576052 9.5016583847 3.387829876 -2.7181091093 -8.7356588436 -14.719837276 -20.619634274 -26.457833206 -32.219259634 
-37.887967898 -43.491383516 -48.967941674 -54.394794958 -59.657537036 -64.890463406 -69.918855284 -74.94175997 -79.716533505 
-84.514656706 -89.017938955 -93.577901102 -97.793338298 -102.10316343 -106.01603974 -110.06515516 -113.66250665 -117.44171729 
-120.71244189 -124.21387802 
crossSection 1 101 double
1.0258835157 1.0262872536 1.0266912299 1.0270432172 1.0273914288 1.0276916376 1.0279843231 1.0282327892 1.0284703544 
1.0286671963 1.0288501913 1.0289956261 1.0291247279 1.0292190822 1.0292950819 1.0293388003 1.0293625945 1.0293562446 
1.0293288295 1.0292731056 1.029195574 1.0290912986 1.0289648382 1.0288129629 1.0286388562 1.0284404616 1.0282200867 
1.0279763814 1.0277112127 1.0274235324 1.0271151418 1.0267849479 1.0264350061 1.0260638838 1.0256741605 1.0252638171 
1.0248361813 1.0243884435 1.023924863 1.0234416746 1.0229442143 1.0224276326 1.0218984526 1.0213506453 1.0207919972 
1.0202152374 1.0196294603 1.019026122 1.0184156371 1.0177881889 1.0171554928 1.0165064919 1.0158541488 1.0151862327 
1.014516866 1.0138327446 1.0131490266 1.0124514726 1.0117561137 1.0110479525 1.0103436892 1.0096277874 1.0089173694 
1.0081966233 1.0074828002 1.0067601226 1.0060456295 1.0053239365 1.0046114795 1.0038936768 1.0031859181 1.0024748865 
1.0017744296 1.0010730101 1.0003823853 0.99969336477 0.9990150147 0.99834111102 0.9976773772 0.99702122461 0.99637433483 
0.99573846967 0.99511052647 0.99449737329 0.99389034388 0.99330220208 0.99271790982 0.99215694083 0.99159705858 0.99106527373 
0.99053131915 0.99003056813 0.98952390131 0.98905586126 0.98857768454 0.98814384971 0.98769521016 0.98729688203 0.98687867647 
0.98651695417 0.98612993695 
