# vtk DataFile Version 4.2
vtk output
ASCII
DATASET STRUCTURED_POINTS
DIMENSIONS 102 2 2
SPACING 0.1 0 0
ORIGIN 0 0 0
CELL_DATA 101
FIELD FieldData 3
velocity 1 101 double
12.853169549 12.813006848 12.769821685 12.725583245 12.67858717 12.630466948 12.579839172 12.528039948 12.473968664 
12.418701749 12.361384637 12.302869705 12.242514223 12.180979197 12.117802695 12.053483647 11.987713313 11.920854326 
11.852726989 11.783579956 11.713341753 11.642166077 11.570071974 11.497134163 11.423447351 11.349020483 11.274011627 
11.198374681 11.12232104 11.045758083 10.968942492 10.891741731 10.814451451 10.736904143 10.659429585 10.581828813 
10.504462147 10.427101486 10.350135139 10.273307209 10.197032277 10.121027212 10.045731796 9.9708356508 9.8968031441 
9.8232962511 9.7508035954 9.678958912 9.6082748497 9.5383563119 9.4697396608 9.4020005759 9.335698552 9.2703800556 
9.2066266707 9.1439562749 9.0829708349 9.0231610916 8.9651468178 8.9083941202 8.8535369164 8.8000204573 8.7484878402 
8.6983687423 8.6503089504 8.6037295805 8.5592708732 8.5163543472 8.4756045016 8.4364543825 8.3995003911 8.3642005797 
8.3311085489 8.2997233586 8.2705386049 8.2431130135 8.2178603484 8.1944204114 8.1731046067 8.1536580169 8.136264436 
8.1208012099 8.1072965919 8.0957898623 8.0861232419 8.0785301355 8.0726338818 8.0688964587 8.0666874165 8.066733649 
8.0681143643 8.071859135 8.076719148 8.0840652446 8.0922824345 8.103121524 8.1145634897 8.128777054 8.1433025171 
8.1607627348 8.1782229526 
pressure 1 101 double
263.83637785 260.00642441 256.17647097 252.00289387 247.78879662 243.28360458 238.70605604 233.88246783 228.96249493 
223.83498425 218.59397561 213.17828489 207.63803398 201.95116563 196.13392009 190.19411105 184.1226209 177.94930443 
171.64686357 165.26062025 158.75109739 152.17359662 145.48145259 138.73538482 131.88567426 124.99467374 118.01302984 
111.00158762 103.91418908 96.807555776 89.64107553 82.465153501 75.246689494 68.027914337 60.784902566 53.550114094 
46.310224862 39.086528017 31.877546525 24.692163078 17.541855852 10.421968092 3.3579370836 -3.6694749724 -10.619948472 
-17.528274466 -24.338393727 -31.101562785 -37.745184753 -44.337835342 -50.789642224 -57.187289456 -63.422959966 -69.602157681 
-75.598535054 -81.53703001 -87.272283988 -92.949159537 -98.40293964 -103.79874642 -108.95232401 -114.04919538 -118.88559231 
-123.6673426 -128.1714445 -132.62364839 -136.78230113 -140.89235307 -144.69444102 -148.45159377 -151.88809942 -155.28348142 
-158.34752568 -161.37413745 -164.06100081 -166.71369079 -169.02081578 -171.29623673 -173.22321215 -175.11975943 -176.66828751 
-178.186021 -179.35986852 -180.50042017 -181.30535484 -182.07182428 -182.51553765 -182.91237822 -183.00439655 -183.03729458 
-182.7888788 -182.46462883 -181.88866477 -181.21504365 -180.32592344 -179.31156622 -178.12506158 -176.77934209 -175.31246994 
-173.64538896 -171.91626953 
crossSection 1 101 double
1.0304489131 1.0299970099 1.029545404 1.029053618 1.0285574148 1.0280273326 1.0274891564 1.0269225109 1.0263450254 
1.0257436982 1.0251296066 1.0244956266 1.0238476735 1.023183212 1.0225041861 1.021811551 1.0211042879 1.0203859157 
1.0196532993 1.0189117461 1.0181567101 1.0173946416 1.0166201683 1.0158403491 1.0150494669 1.0142547489 1.0134505288 
1.0126438384 1.0118293874 1.0110137123 1.0101921665 1.0093705413 1.0085450561 1.0077205476 1.0068942866 1.0060699777 
1.0052461006 1.0044250744 1.003606723 1.0027920453 1.0019823288 1.0011770312 1.0003790103 0.99958607263 0.99880274328 
0.99802507609 0.99725935261 0.99649977999 0.99575447833 0.99501572104 0.99429354205 0.99357820147 0.99288171466 0.99219225768 
0.99152388563 0.99086263069 0.99022463447 0.98959373896 0.9889882047 0.98838965401 0.98781848073 0.98725407904 0.98671896813 
0.98619033105 0.9856927773 0.98520132652 0.98474261092 0.98428957089 0.98387075522 0.98345715188 0.98307907506 0.98270573667 
0.98236901295 0.98203657277 0.9817415916 0.98145049258 0.98119742018 0.98094792132 0.98073670376 0.98052888806 0.98035925583 
0.98019303967 0.98006451354 0.97993965722 0.97985155529 0.97976767452 0.9797191204 0.97967569847 0.97966563032 0.97966203084 
0.97968921135 0.979724691 0.97978771812 0.97986143947 0.97995875785 0.98006980172 0.98019971489 0.98034709214 0.98050777535 
0.98069043768 0.9808799515 
