# vtk DataFile Version 4.2
vtk output
ASCII
DATASET STRUCTURED_POINTS
DIMENSIONS 102 2 2
SPACING 0.1 0 0
ORIGIN 0 0 0
CELL_DATA 101
FIELD FieldData 3
velocity 1 101 double
12.427050983 12.465906816 12.501529741 12.535401688 12.566097557 12.594987818 12.620778329 12.644702752 12.665616071 
12.684602934 12.70067435 12.714763364 12.726035859 12.735277392 12.741802127 12.746256628 12.74809335 12.747830955 
12.745048343 12.740148629 12.732824575 12.72337644 12.711598305 12.697699941 12.681564762 12.663323703 12.642938382 
12.620471606 12.595953068 12.569387124 12.540862453 12.510333603 12.477940145 12.443594503 12.407479945 12.369473588 
12.329795987 12.28829504 12.245222814 12.200403482 12.154115332 12.106163879 12.056848647 12.005961299 11.953817754 
11.900200525 11.845437058 11.789305478 11.732139709 11.673718458 11.614376736 11.553899167 11.492615972 11.430323527 
11.367340757 11.303482257 11.23904841 11.173879236 11.108248477 11.042029629 10.975460754 10.908457801 10.841213091 
10.77369501 10.706039006 10.638276922 10.570475102 10.502740937 10.435058342 10.367623386 10.300323178 10.233456601 
10.1667986 10.100765914 10.035005113 9.9700666052 9.9054517003 9.841860855 9.7786328071 9.716634733 9.6550253814 
9.5948552689 9.5350860234 9.4769676463 9.4192482792 9.3633925589 9.3079201189 9.2545237662 9.2014816341 9.1507258826 
9.1002829865 9.0523324296 9.0046426337 8.9596441757 8.914845855 8.8729277829 8.831143592 8.7924147719 8.7537516147 
8.7183008158 8.6828500168 
pressure 1 101 double
225.02426897 228.46681517 231.90936136 234.90690178 237.87141538 240.42514808 242.91504386 245.02649406 247.04637419 
248.71755999 250.27302216 251.50658459 252.60407834 253.40337994 254.05010498 254.4193022 254.62314183 254.56723678 
254.33671957 253.86159628 253.20587973 252.31832927 251.24720009 249.95493803 248.47882446 246.79050326 244.92049555 
242.84571379 240.59358958 238.14289943 235.52115113 232.7060647 229.72792681 226.56092141 223.24039599 219.73491802 
216.08679679 212.25726367 208.29714537 204.15894499 199.9032465 195.47273339 190.93869362 186.23318089 181.4388564 
176.47660259 171.44085397 166.24104364 160.98351206 155.56622939 150.10730246 144.49349692 138.85426351 133.0657068 
127.26790055 121.32713414 115.39306546 109.32333822 103.27581504 97.101010698 90.963248143 84.707802484 78.50332203 
72.192130005 65.94464898 59.602962015 53.336274509 46.989588605 40.727439141 34.401374569 28.167326075 21.887499703 
15.704797599 9.4966890171 3.3881234602 -2.72306378 -8.7352952399 -14.724775912 -20.619202855 -26.462754403 -32.218762749 
-37.892870215 -43.49082361 -48.972823662 -54.39417453 -59.662397245 -64.889784999 -69.923692245 -74.941026167 -79.721345713 
-84.513870135 -89.022724861 -93.577064427 -97.798096311 -102.10227933 -106.02076823 -110.06422634 -113.66720393 -117.44074644 
-120.71710625 -124.21286781 
crossSection 1 101 double
1.0258831241 1.0262868716 1.0266908575 1.0270428159 1.0273910744 1.0276912182 1.0279839857 1.0282323529 1.028470033 
1.0286667444 1.028849885 1.0289951597 1.0291244358 1.0292186025 1.0292948034 1.0293383082 1.029362329 1.029355741 
1.0293285767 1.0292725913 1.0291953335 1.0290907744 1.0289646099 1.0288124297 1.0286386399 1.02843992 1.0282198823 
1.0279758321 1.02771102 1.0274229761 1.0271149607 1.0267843854 1.0264348365 1.0260633158 1.0256740023 1.0252632445 
1.0248360342 1.0243878671 1.0239247268 1.0234410951 1.0229440887 1.022427051 1.0218983375 1.0213500621 1.0207918922 
1.0202146533 1.0196293654 1.0190255376 1.0184155521 1.0177876048 1.0171554176 1.0165059083 1.0158540833 1.0151856501 
1.01451681 1.0138321633 1.0131489801 1.0124508929 1.0117560767 1.0110473745 1.0103436614 1.0096272113 1.0089173509 
1.0081960493 1.0074827908 1.0067595508 1.0060456289 1.0053233671 1.0046114877 1.0038931099 1.0031859349 1.0024743221 
1.0017744547 1.0010724484 1.0003824184 0.99969280595 0.99901505567 0.99834055514 0.99767742572 0.99702067179 0.9963743906 
0.99573792003 0.99511058919 0.99449682696 0.99389041325 0.99330165916 0.99271798554 0.99215640145 0.99159714033 0.99106473799 
0.99053140665 0.99003003616 0.98952399424 0.98905533316 0.98857778259 0.98814332562 0.98769531304 0.98729636207 0.98687878387 
0.98651643847 0.98613004858 
