# vtk DataFile Version 4.2
vtk output
ASCII
DATASET STRUCTURED_POINTS
DIMENSIONS 102 2 2
SPACING 0.1 0 0
ORIGIN 0 0 0
CELL_DATA 101
FIELD FieldData 3
velocity 1 101 double
7.5729490169 7.5316593851 7.4939596965 7.4580908772 7.4258617813 7.395497738 7.3687835717 7.3439748274 7.3227917038 
7.3035558239 7.2878916009 7.2742140064 7.2640286829 7.2558637847 7.2510902785 7.2483629119 7.2489081711 7.251515297 
7.2572616937 7.2650743279 7.2758812851 7.2887466096 7.304452411 7.3221960195 7.3426197551 7.3650479844 7.3899915877 
7.4168938889 7.4461442227 7.4772955281 7.5106264843 7.5457895308 7.5829641103 7.6218916842 7.662664029 7.7051011066 
7.7492184586 7.7949042189 7.8421087864 7.8907784816 7.9408091963 7.9921958688 8.0447900224 8.0986260622 8.1535208131 
8.2095393561 8.2664731007 8.3244092689 8.3831228759 8.4427148653 8.5029527717 8.5639427961 8.6254539682 8.6875890675 
8.7501278305 8.8131605549 8.8764872955 8.9401762771 9.0040580272 9.0681684494 9.1323793569 9.1966833357 9.2610050309 
9.3252819173 9.3895037831 9.4535404006 9.517459754 9.5810505812 9.6444727749 9.7074200835 9.7701585356 9.832272495 
9.8941486545 9.9552474118 10.016090668 10.076000413 10.135647954 10.194202977 10.252499608 10.309542361 10.366340284 
10.421721443 10.476880017 10.530458562 10.58384403 10.635487341 10.686972552 10.736556529 10.786020649 10.83342985 
10.880758075 10.925885881 10.97096916 11.013717964 11.056452736 11.096734152 11.13702211 11.174757193 11.212505088 
11.247624571 11.282744055 
pressure 1 101 double
-232.33917467 -236.09673563 -239.8542966 -243.10522886 -246.33089964 -249.06813727 -251.75493016 -253.97400905 -256.11839983 
-257.81755322 -259.41938339 -260.59958053 -261.66193342 -262.32686704 -262.85591748 -263.01194622 -263.01678517 -262.67283683 
-262.16527378 -261.33271537 -260.32706194 -259.01954261 -257.53238176 -255.76565405 -253.81559937 -251.60732454 -249.2147743 
-246.58431675 -243.77120702 -240.73942262 -237.52898373 -234.11800631 -230.53452608 -226.76755612 -222.83615287 -218.73725166 
-214.48365941 -210.07755166 -205.52791919 -200.83980645 -196.02051152 -191.07589825 -186.0133775 -180.83791131 -175.55850598 
-170.1778329 -164.7076503 -159.14728571 -153.51207565 -147.79729092 -142.02233656 -136.17806131 -130.28808328 -124.33882273 
-118.35789573 -112.32766224 -106.2791429 -100.19140091 -94.097866052 -87.975488997 -81.858683215 -75.723921212 -69.604713119 
-63.479169891 -57.377516162 -51.282133644 -45.217050383 -39.172099385 -33.161640404 -27.186715653 -21.247957396 -15.361975298 
-9.5110083312 -3.7322057566 2.0158671056 7.6699346655 13.300993374 18.813455929 24.314351006 29.669032023 35.027564729 
40.208994391 45.413888747 50.407323897 55.448190002 60.239642033 65.106930099 69.683201895 74.368146491 78.716879295 
83.211433413 87.321164274 91.617922955 95.478153114 99.570266639 103.17154089 107.05261779 110.38661447 114.05061501 
117.11024572 120.55136701 
crossSection 1 101 double
0.97428995264 0.97388233109 0.97347496531 0.97312273049 0.97277342164 0.97247715286 0.97218647565 0.97194649747 0.97171468071 
0.97153105468 0.97135799395 0.97123051577 0.97111578792 0.97104398935 0.97098686894 0.97097002382 0.97096950141 0.97100663518 
0.97106143722 0.97115133935 0.97125994945 0.97140118817 0.97156186928 0.97175280816 0.97196362544 0.97220244133 0.97246128521 
0.97274598699 0.9730505961 0.97337904396 0.97372702765 0.97409695246 0.97448581253 0.97489483502 0.97532198658 0.97576763598 
0.97623042706 0.97671015908 0.9772058891 0.97771710291 0.9782430397 0.97878309385 0.97933648942 0.9799027166 0.98048082146 
0.98107054189 0.9816706181 0.98228115165 0.98290048461 0.98352916156 0.98416507062 0.98480924103 0.98545908902 0.9861161309 
0.98677733264 0.98744465878 0.98811468875 0.9887897525 0.98946615163 0.99014645155 0.9908268333 0.99150991697 0.9921919727 
0.99287543968 0.99355694346 0.99423844763 0.99491726035 0.9955945118 0.99626858475 0.99693935129 0.99760672915 0.99826883765 
0.99892766084 0.99957899866 1.0002275051 1.0008660215 1.0015025475 1.0021262559 1.0027492365 1.0033562163 1.0039641847 
1.0045525849 1.0051441708 1.0057122135 1.0062861405 1.006832126 1.0073872082 1.0079095206 1.0084446573 1.0089417718 
1.0094559418 1.0099264328 1.0104186869 1.0108612375 1.0113306896 1.0117441026 1.0121899198 1.0125731296 1.012994521 
1.0133466063 1.0137428108 
