# vtk DataFile Version 4.2
vtk output
ASCII
DATASET STRUCTURED_POINTS
DIMENSIONS 102 2 2
SPACING 0.1 0 0
ORIGIN 0 0 0
CELL_DATA 101
FIELD FieldData 3
velocity 1 101 double
10.927050983 10.841461434 10.767595948 10.696958885 10.635300758 10.576977488 10.525619982 10.477450324 10.434744912 
10.394954551 10.359491119 10.326619438 10.297201228 10.270044073 10.245661347 10.223225046 10.203029672 10.184493739 
10.167775785 10.152462481 10.138629298 10.125978675 10.114536573 10.104085946 10.094624363 10.085991395 10.078169356 
10.071038107 10.064572735 10.058682135 10.053338954 10.048473281 10.044058066 10.040039078 10.036391039 10.033071468 
10.030057553 10.027315727 10.024825877 10.02256128 10.020504483 10.018634075 10.016935088 10.015390272 10.013986899 
10.01271101 10.011551852 10.010498083 10.009540664 10.008670352 10.007879578 10.007160789 10.006507664 10.005914021 
10.005374592 10.004884308 10.004438787 10.004033868 10.003665911 10.003331495 10.0030276 10.002751412 10.002500427 
10.002272329 10.002065042 10.001876662 10.001705466 10.001549888 10.001408499 10.001280011 10.00116324 10.001057126 
10.000960686 10.00087305 10.0007934 10.000721026 10.000655242 10.000595474 10.000541139 10.000491782 10.000446903 
10.000406146 10.000369073 10.000335422 10.000304792 10.000277012 10.0002517 10.000228773 10.000207847 10.000188934 
10.000171621 10.000156033 10.000141693 10.000128863 10.000116963 10.000106426 10.000096519 10.000087902 10.00007961 
10.000072611 10.000065611 
pressure 1 101 double
86.172276382 78.829914091 71.4875518 65.308824398 59.25817812 54.079285232 49.088825669 44.761227054 40.642814726 
37.035169103 33.635119094 30.63326254 27.825573569 25.331465659 23.012570202 20.942755943 19.027376757 17.311282665 
15.729118639 14.30736206 13.000411316 11.823217934 10.743600336 9.7693744006 8.8775513925 8.0716136127 7.3349277513 
6.6684190004 6.0598928192 5.5088328503 5.0061793447 4.5506654968 4.135472012 3.7590014845 3.4160561047 3.1049555795 
2.8216908603 2.5646383098 2.3306717679 2.1182967539 1.9250512138 1.7496015869 1.589991474 1.4450559654 1.313228079 
1.1935057588 1.0846250633 0.98573397806 0.8958065964 0.8141250801 0.73985203471 0.6723872168 0.61104358132 0.55532249838 
0.50465755061 0.45863702128 0.41679175152 0.37878381183 0.34422277301 0.31283300606 0.28428801435 0.25836455863 0.23478818515 
0.21337958196 0.19390673374 0.17622708834 0.16014327182 0.14554346412 0.13225856897 0.12020246668 0.10922910975 0.09927391708 
0.090209553082 0.08198957799 0.074501721466 0.067714968214 0.061528984969 0.055926082035 0.050815102149 0.04619016076 0.041966742515 
0.038149812113 0.034659049843 0.031509895583 0.028623716859 0.026026693171 0.023639133685 0.021498968696 0.019522248399 0.01776058811 
0.016121840629 0.014674430635 0.013312960764 0.012127368159 0.010992329801 0.010026129886 0.0090745297014 0.00829390236 0.0074888426081 
0.0068675427806 0.0061766203254 
crossSection 1 101 double
1.0097948725 1.008954698 1.0081155716 1.0074102428 1.0067202521 1.0061302355 1.0055621772 1.0050699609 1.0046018728 
1.0041921058 1.0038061475 1.0034655753 1.0031471889 1.0028644891 1.0026017563 1.0023673319 1.0021504717 1.0019562345 
1.0017772063 1.0016163698 1.0014685548 1.0013354434 1.0012133886 1.0011032679 1.0010024775 1.0009114066 1.000828172 
1.0007528754 1.0006841365 1.0006218951 1.0005651263 1.0005136854 1.0004668014 1.0004242929 1.0003855721 1.0003504488 
1.0003184698 1.0002894513 1.00026304 1.000239067 1.0002172542 1.0001974506 1.0001794355 1.000163077 1.0001481984 
1.0001346863 1.0001223981 1.0001112374 1.0001010886 1.0000918705 1.0000834886 1.0000758751 1.0000689525 1.0000626644 
1.0000569469 1.0000517537 1.0000470316 1.0000427425 1.0000388425 1.0000353004 1.0000320792 1.000029154 1.0000264935 
1.0000240777 1.0000218804 1.0000198854 1.0000180705 1.000016423 1.0000149239 1.0000135635 1.0000123253 1.000011202 
1.0000101791 1.0000092516 1.0000084067 1.0000076409 1.0000069428 1.0000063106 1.0000057339 1.000005212 1.0000047355 
1.0000043048 1.0000039109 1.0000035555 1.0000032298 1.0000029368 1.0000026674 1.0000024259 1.0000022029 1.0000020041 
1.0000018192 1.0000016558 1.0000015022 1.0000013684 1.0000012404 1.0000011313 1.000001024 1.0000009359 1.000000845 
1.0000007749 1.000000697 
