# vtk DataFile Version 4.2
vtk output
ASCII
DATASET STRUCTURED_POINTS
DIMENSIONS 102 2 2
SPACING 0.1 0 0
ORIGIN 0 0 0
CELL_DATA 101
FIELD FieldData 3
velocity 1 101 double
12.427050983 12.364949503 12.300336894 12.235171296 12.167805839 12.099824895 12.029932392 11.959392462 11.887208592 
11.814373329 11.740143564 11.665283613 11.589262905 11.512655554 11.435107835 11.357036567 11.278234069 11.198987991 
11.119210402 11.03908354 10.958617002 10.877907434 10.797043395 10.716052239 10.635086153 10.554116396 10.4733463 
10.392701491 10.312426457 10.232409256 10.152927738 10.073838364 9.9954464578 9.9175810392 9.8405706775 9.7642195335 
9.6888766387 9.6143225269 9.5409251479 9.4684414995 9.3972579618 9.3271071397 9.258394237 9.1908258476 9.1248271037 
9.0600763931 8.9970204228 8.9353067878 8.8754057822 8.8169314222 8.7603797842 8.705328519 8.6523016693 8.6008379422 
8.5514913137 8.5037593963 8.45822763 8.4143510404 8.3727473908 8.3328285315 8.2952444873 8.2593645036 8.2258696222 
8.1940884781 8.1647304307 8.1370871939 8.1118920116 8.0884053349 8.0673778449 8.0480466286 8.0311710663 8.0159752807 
8.0032160596 7.992117708 7.9834203291 7.9763645271 7.9716566082 7.9685727552 7.9677651602 7.9685681767 7.9715562263 
7.9761478339 7.9828125777 7.9910825959 8.0012921288 8.0131197677 8.0267305738 8.0419857003 8.0588440096 8.0773883688 
8.0973315143 8.1190198878 8.1418776518 8.1665589395 8.1921548804 8.2196730922 8.2478258451 8.2780209932 8.3085455367 
8.3412544228 8.373963309 
pressure 1 101 double
224.40331089 218.56827712 212.73324335 206.64489108 200.51904713 194.193392 187.80240777 181.25697274 174.62670922 
167.88047496 161.03704027 154.11037456 147.08017486 139.99474639 132.80452505 125.58320478 118.26006559 110.92681737 
103.49822876 96.077990101 88.571768842 81.090321956 73.534595634 66.018428864 58.441577177 50.917736874 43.348312415 
35.84424547 28.310875184 20.854262767 13.385531728 6.0041151101 -1.3715653653 -8.6501656116 -15.90470313 -23.053172888 
-30.158949755 -37.150470049 -44.080506723 -50.888942997 -57.617066129 -64.217155543 -70.718167379 -77.085701354 -83.33554729 
-89.447546478 -95.423477568 -101.2583564 -106.93908381 -112.47680189 -117.84264046 -123.06483825 -128.0978367 -132.98795329 
-137.67200876 -142.21537975 -146.5363351 -150.72026913 -154.66599157 -158.47982436 -162.04026475 -165.47538998 -168.64262237 
-171.69249939 -174.46074097 -177.12087955 -179.48649164 -181.75441444 -183.71588549 -185.59106956 -187.14898152 -188.63278012 
-189.78975968 -190.88530647 -191.64596302 -192.35806044 -192.72891272 -193.06390688 -193.05330021 -193.01894459 -192.63696076 
-192.24227121 -191.50063262 -190.75573614 -189.66770606 -188.58368589 -187.16396605 -185.75270555 -184.0173325 -182.29136009 
-180.25760093 -178.22993866 -175.91618696 -173.60020484 -171.02587666 -168.43515507 -165.62058516 -162.76878755 -159.73512507 
-156.63588293 -153.40498598 
crossSection 1 101 double
1.0258103225 1.0251265969 1.0244435546 1.0237315867 1.0230159833 1.0222778257 1.0215328557 1.0207707258 1.019999588 
1.0192158586 1.0184217597 1.0176189476 1.016805106 1.0159858583 1.0151555058 1.014322586 1.0134789687 1.012635241 
1.0117816177 1.0109300311 1.01006967 1.009213241 1.008349414 1.0074912096 1.0066271846 1.0057703042 1.0049093358 
1.0040568922 1.0032022103 1.0023573111 1.0015121082 1.0006778362 0.99984525338 0.9990246474 0.99820775913 0.99740379417 
0.99660559296 0.99582116115 0.99504454127 0.99428243302 0.9935301745 0.99279306038 0.99206781312 0.99135822667 0.99066249522 
0.98998281695 0.98931894605 0.98867138887 0.98804155009 0.98742814632 0.9868343261 0.98625691635 0.98570090549 0.98516112946 
0.98464451431 0.98414380371 0.9836679591 0.98320753273 0.98277361679 0.98235447786 0.98196342863 0.98158636425 0.98123889814 
0.98090448103 0.98060109305 0.98030968532 0.98005065091 0.97980240986 0.9795877883 0.97938267406 0.97921231316 0.97905009803 
0.97892364011 0.97880391937 0.97872080817 0.97864301225 0.97860250069 0.9785659084 0.97856706696 0.97857081963 0.97861254521 
0.97865566148 0.97873668651 0.9788180776 0.97893697942 0.97905546458 0.97921067479 0.97936499676 0.97955481062 0.97974365097 
0.97996623667 0.98018823061 0.98044163856 0.98069538922 0.98097756119 0.98126165301 0.98157043135 0.9818834425 0.98221657939 
0.98255709291 0.98291225988 
