# vtk DataFile Version 4.2
vtk output
ASCII
DATASET STRUCTURED_POINTS
DIMENSIONS 102 2 2
SPACING 0.1 0 0
ORIGIN 0 0 0
CELL_DATA 101
FIELD FieldData 3
velocity 1 101 double
9.0729490169 8.9928084675 8.9142014722 8.8371026976 8.7618158525 8.688053459 8.6163386548 8.546188947 8.4782846637 
8.4120039534 8.3481326926 8.2859556622 8.2263216243 8.1684598 8.1132468361 8.0598872255 8.0092570856 7.960561026 
7.9146519204 7.870754176 7.8296796654 7.7906877967 7.7545360182 7.7205300393 7.6893632704 7.6603956038 7.634250152 
7.6103458791 7.5892322861 7.5703896834 7.5542932234 7.5404845641 7.5293660124 7.5205386101 7.5143352537 7.5104127177 
7.5090395749 7.509923246 7.5132744624 7.518844991 7.5267953771 7.5369144111 7.5493210865 7.5638330321 7.5805371407 
7.5992709672 7.6200994297 7.6428704859 7.6676377605 7.6942495768 7.7227593985 7.7530054514 7.7850525278 7.8187179454 
7.8540895874 7.8909527815 7.9294304501 7.9692646636 8.0106254198 8.0532001809 8.0972180262 8.1423005045 8.1887476074 
8.2361038676 8.2847516725 8.3341478258 8.3847680418 8.4359712979 8.4883367689 8.5411163949 8.5950018505 8.649130041 
8.7043127376 8.7595653995 8.8158256582 8.8719831162 8.9291047667 8.985952397 9.0437231331 9.1010519332 9.1592635911 
9.2168706901 9.27531946 9.3330085751 9.3914951575 9.4490769994 9.5074067185 9.5646993501 9.622682233 9.6795113855 
9.7369622201 9.7931615663 9.8498999486 9.9053113325 9.9611617169 10.015635339 10.0704271 10.123821655 10.177389173 
10.229571945 10.281754716 
pressure 1 101 double
-89.295856166 -96.784285062 -104.27271396 -111.47224522 -118.66503205 -125.55143504 -132.41928513 -138.96892662 -145.48466309 
-151.67487643 -157.81353995 -163.62295792 -169.3619151 -174.7707661 -180.08981773 -185.0801847 -189.96166616 -194.51770753 
-198.94657504 -203.05470699 -207.01860444 -210.6676442 -214.15694682 -217.33821703 -220.34604892 -223.05344394 -225.575668 
-227.80568321 -229.84086308 -231.59258895 -233.1419235 -234.4170069 -235.48423878 -236.28681407 -236.87811443 -237.21470778 
-237.33853992 -237.21795031 -236.88491535 -236.31807602 -235.5407439 -234.54056808 -233.33329745 -231.91451228 -230.29326259 
-228.47223489 -226.45437405 -224.24893155 -221.85304231 -219.28229331 -216.5279814 -213.61213592 -210.51984228 -207.28003701 
-203.87085662 -200.3289859 -196.62449499 -192.80304922 -188.82514261 -184.74705551 -180.51779527 -176.20630059 -171.74777739 
-167.2262754 -162.56048316 -157.85241717 -153.00114163 -148.12988418 -143.11460588 -138.10335412 -132.94516604 -127.81684533 
-122.53638558 -117.31356046 -111.93095991 -106.63575137 -101.17059618 -95.824604048 -90.295913018 -84.920142427 -79.346358681 
-73.961149375 -68.360146322 -62.985103627 -57.374204548 -52.028131151 -46.424141744 -41.124969503 -35.544222536 -30.30894371 
-24.767354804 -19.611952312 -14.125085612 -9.0644622785 -3.6476044638 1.3044884365 6.6362476673 11.467281907 16.698964977 
21.397705989 26.514360526 
crossSection 1 101 double
0.98999967704 0.98916786622 0.9883371033 0.98753937696 0.98674336199 0.98598215555 0.98522387685 0.98450154611 0.98378374255 
0.98310252705 0.98242768296 0.9817896737 0.98116001273 0.98056712433 0.97998460317 0.97943855006 0.97890485281 0.97840712972 
0.97792366346 0.97747552978 0.9770434218 0.97664588997 0.97626598703 0.9759198147 0.97559268452 0.97529837032 0.97502430541 
0.97478208813 0.97456111202 0.974370973 0.97420284867 0.97406451704 0.97394875752 0.97386171812 0.97379759897 0.97376110246 
0.97374767596 0.97376075088 0.97379686154 0.97385832799 0.97394262915 0.97405111366 0.97418208495 0.97433603626 0.97451200152 
0.97470970689 0.97492885233 0.97516845421 0.97542884657 0.9757083592 0.97600796363 0.97632528951 0.97666198702 0.97701493287 
0.97738653715 0.97777282941 0.97817710283 0.97859440239 0.9790290711 0.97947498732 0.97993775535 0.9804098592 0.98089842141 
0.98139425786 0.9819063117 0.98242341127 0.98295666734 0.98349255683 0.98404474811 0.98459696068 0.98516585044 0.98573193508 
0.98631532344 0.98689285389 0.98748858294 0.98807516622 0.98868112382 0.98927440851 0.98988853055 0.99048621484 0.99110648622 
0.99170632592 0.99233078003 0.99293059666 0.99355731353 0.99415500251 0.99478210557 0.99537564467 0.9960012963 0.99658875427 
0.99721115013 0.99779069568 0.998408058 0.99897796904 0.99958853893 1.000147212 1.0007492411 1.001295201 1.0018869426 
1.0024188519 1.0029985519 
