# vtk DataFile Version 4.2
vtk output
ASCII
DATASET STRUCTURED_POINTS
DIMENSIONS 102 2 2
SPACING 0.1 0 0
ORIGIN 0 0 0
CELL_DATA 101
FIELD FieldData 3
velocity 1 101 double
7.5729490169 7.6389256886 7.7076169793 7.7766352619 7.8479625261 7.9196453767 7.9932562501 8.0672298831 8.1427778235 
8.2186742494 8.2958198127 8.3732790117 8.4516909153 8.5303626453 8.6097186509 8.6892639014 8.7692515449 8.8493436573 
8.9296608473 9.0099863325 9.0903418344 9.1706009186 9.2507147382 9.3306216769 9.4102253518 9.4895085469 9.5683453547 
9.6467473148 9.7245724031 9.801849579 9.8784300246 9.9543525522 10.029467357 10.103818734 10.177258766 10.249835481 
10.321403366 10.392014511 10.461524488 10.529991353 10.597269098 10.663424773 10.728307203 10.791996193 10.854331257 
10.915409111 10.975055587 11.033388553 11.090215841 11.145680549 11.19956848 11.252051655 11.302890324 11.352288528 
11.399978145 11.446197552 11.490648325 11.53360453 11.574736581 11.614354438 11.652097749 11.688311244 11.722605638 
11.755357793 11.786152952 11.815395755 11.842651268 11.868345633 11.892031076 11.914146831 11.934241875 11.952757772 
11.969252307 11.984156053 11.997050343 12.008338652 12.017643486 12.025322147 12.031059001 12.035142958 12.037344152 
12.037857599 12.036566432 12.033542914 12.028813777 12.022296298 12.014194743 12.004235884 11.992838644 11.979500677 
11.964895619 11.94825063 11.930536623 11.910666637 11.889953325 11.866950434 11.843357898 11.817324396 11.790982686 
11.762031209 11.733079733 
pressure 1 101 double
-232.77735247 -226.26506515 -219.75277782 -212.98783031 -206.19788715 -199.2130757 -192.18465322 -185.01243534 -177.78390467 
-170.4562602 -163.06494354 -155.61325163 -148.09522648 -140.55015585 -132.94010516 -125.33151587 -117.66262076 -110.01947643 
-102.32334699 -94.673636907 -86.980276222 -79.350947164 -71.688743006 -64.105641134 -56.501380044 -48.98920292 -41.468101506 
-34.050360486 -26.636109309 -19.335102241 -12.049918216 -4.8867121678 2.2486039372 9.2541804353 16.220184211 23.049540116 
29.828083676 36.463856447 43.038030242 49.464069945 55.818147439 62.019495071 68.138881112 74.101742251 79.97292572 
85.684640534 91.295151697 96.744162214 102.08253507 107.25835052 112.31409029 117.20725126 121.97080707 126.57284901 
131.03559192 135.33900842 139.49321479 143.4914209 147.3302612 151.017557 154.53509004 157.90662449 161.09779712 
164.1495323 167.01018452 169.73886017 172.26573559 174.6688339 176.85959543 178.93530601 180.78855659 182.53574162 
184.05104964 185.46920917 186.64713815 187.73637564 188.57851767 189.33950595 189.84851808 190.28246599 190.46210876 
190.57072882 190.42590567 190.21138361 189.74817986 189.21314662 188.43886629 187.58637357 186.50957221 185.34307289 
183.97358415 182.49691897 180.84587234 179.06326461 177.14309165 175.059152 172.88357778 170.50332124 168.08733767 
165.4162154 162.77603283 
crossSection 1 101 double
0.97424240578 0.97494941561 0.97565719534 0.97639325161 0.97713286539 0.97789458301 0.97866195596 0.97944596024 0.98023707374 
0.98104001328 0.98185092968 0.98266948819 0.98349637111 0.98432727844 0.98516640884 0.98600645127 0.98685423962 0.98770026963 
0.9885532644 0.9894022098 0.99025710286 0.99110597536 0.99195960473 0.99280550776 0.99365485816 0.99449499399 0.99533719574 
0.99616887168 0.99700119842 0.99782183213 0.99864169764 0.99944882153 1.0002537761 1.0010450408 1.0018327672 1.0026059443 
1.0033742541 1.0041272374 1.004874067 1.0056048741 1.0063282813 1.0070350533 1.0077332142 1.0084142159 1.009085422 
1.0097390406 1.0103816964 1.0110064406 1.011619062 1.0122135605 1.012794773 1.0133577722 1.0139063103 1.0144366726 
1.014951379 1.0154480808 1.0159279066 1.016390035 1.0168340401 1.0172607914 1.0176681455 1.0180588217 1.0184288058 
1.0187828122 1.0191148203 1.0194316624 1.0197252041 1.0200044845 1.0202591879 1.0205006031 1.0207162176 1.0209195546 
1.021095955 1.0212610875 1.0213982777 1.0215251628 1.0216232801 1.0217119543 1.0217712735 1.0218218489 1.0218427868 
1.0218554471 1.0218385672 1.0218135641 1.0217595799 1.0216972295 1.0216070084 1.0215076877 1.0213822543 1.0212463984 
1.0210869359 1.0209150357 1.020722887 1.0205154881 1.0202921548 1.0200498569 1.0197969968 1.0195204548 1.019239877 
1.0189298037 1.0186234611 
