# vtk DataFile Version 4.2
vtk output
ASCII
DATASET STRUCTURED_POINTS
DIMENSIONS 102 2 2
SPACING 0.1 0 0
ORIGIN 0 0 0
CELL_DATA 101
FIELD FieldData 3
velocity 1 101 double
7.1468304511 7.1330249273 7.1232831853 7.115275142 7.1112299434 7.1089522067 7.1105065893 7.1138598569 7.1208904276 
7.1297454074 7.1421039789 7.1563037598 7.1738192292 7.1931818341 7.21566224 7.2399833063 7.2672180049 7.2962735374 
7.3280354442 7.3615845856 7.3976324394 7.4354202075 7.4755008153 7.5172607624 7.5611111933 7.6065679491 7.6539176496 
7.7027893161 7.7533621261 7.8053625016 7.8588785537 7.9137191695 7.96989666 8.0272886206 8.0858454433 8.1455010694 
8.2061563067 8.2677905817 8.3302658531 8.3935976817 8.4576183494 8.5223716379 8.5876678748 8.6535724466 8.7198801705 
8.7866725333 8.8537342163 8.9211581939 8.9887235565 9.0565308025 9.1243574022 9.1923078119 9.2601615369 9.3280235713 
9.3956790515 9.4632299883 9.5304709349 9.5974970598 9.6641165431 9.7304132934 9.796213971 9.8615860417 9.9263803451 
9.9906417684 10.054252056 10.117226262 10.179484944 10.241004813 10.301754456 10.361662362 10.420755773 10.478903633 
10.536203924 10.592453257 10.647833897 10.70205588 10.755400725 10.807476281 10.858679576 10.90849947 10.957465832 
11.004930785 11.051575149 11.096595979 11.140843508 11.183341292 11.225127233 11.265033493 11.304302991 11.341559906 
11.378267752 11.412828391 11.44693871 11.47876729 11.510253157 11.539325316 11.568168311 11.594471397 11.620661086 
11.644194445 11.667727804 
pressure 1 101 double
-273.20828772 -274.31942443 -275.43056113 -276.00252727 -276.54642881 -276.58571757 -276.57114475 -276.08695209 -275.5258702 
-274.52998805 -273.43730688 -271.94397816 -270.337275 -268.36301853 -266.26224884 -263.8256614 -261.25286268 -258.37440482 
-255.35339877 -252.05517037 -248.61126892 -244.91677972 -241.0764995 -237.01043911 -232.80122868 -228.38924015 -223.83922334 
-219.10768352 -214.24542141 -209.22123088 -204.07550439 -198.78588928 -193.38550311 -187.85783046 -182.23143876 -176.49304694 
-170.66900022 -164.74704512 -158.75325753 -152.6745751 -146.53841089 -140.32939616 -134.07757363 -127.76407596 -121.42258715 
-115.0298213 -108.62386558 -102.17633787 -95.730267583 -89.251716123 -82.788992333 -76.302340292 -69.845497015 -63.372817754 
-56.943432847 -50.505925614 -44.124596902 -37.742571824 -31.428897064 -25.121768118 -18.894327618 -12.680612325 -6.5569531992 
-0.45427782393 5.5491009551 11.523991845 17.391654235 23.222884955 28.940472885 34.613021627 40.167270482 45.666953138 
51.045707637 56.359161466 61.551391645 66.666059771 71.661876504 76.565994311 81.356663543 86.039248041 90.617202597 
95.068045953 99.426893524 103.63656201 107.77108765 111.73092732 115.63708856 119.33923916 123.01415155 126.45157005 
129.89348087 133.05997621 136.26822399 139.15850449 142.13346188 144.74319663 147.48619437 149.81208981 152.32531975 
154.36521222 156.65160785 
crossSection 1 101 double
0.96987015975 0.96975041604 0.96963069449 0.96956907555 0.96951048551 0.96950625347 0.9695078232 0.96955998082 0.96962042627 
0.96972772675 0.96984547726 0.9700064374 0.97017966249 0.97039257852 0.9706192155 0.9708821809 0.97115996274 0.97147088754 
0.9717973707 0.97215400153 0.97252659324 0.97292653395 0.97334251858 0.97378325088 0.97423981506 0.9747187189 0.97521297513 
0.97572734855 0.97625635711 0.97680343536 0.97736422435 0.97794119805 0.97853078153 0.97913481377 0.979750208 0.9803784502 
0.98101668801 0.98166629454 0.98232443795 0.98299257939 0.98366773058 0.98435160564 0.98504091647 0.98573776251 0.98643844269 
0.98714554499 0.98785486915 0.9885695688 0.98928488253 0.99000458321 0.99072330837 0.99144548193 0.99216512129 0.99288731232 
0.99360545368 0.99432528316 0.99503960318 0.99575477129 0.99646303904 0.99717132724 0.99787140765 0.99857068017 0.99926053742 
0.99994874221 1.0006264432 1.0013016125 1.0019653302 1.0026255809 1.0032735981 1.0039171318 1.0045478447 1.0051729473 
1.0057848695 1.0063899114 1.0069816773 1.0075651137 1.0081354822 1.0086958528 1.0092437114 1.0097796409 1.0103040082 
1.0108142075 1.0113142361 1.0117975038 1.0122724824 1.0127277065 1.0131770607 1.0136032221 1.0140265141 1.0144226905 
1.0148196174 1.0151849887 1.015555379 1.0158892337 1.0162330414 1.016534785 1.0168520817 1.0171212464 1.0174122106 
1.0176484669 1.0179133705 
