/*--------------------------------*- C++ -*----------------------------------*\
| =========                 |                                                 |
| \\      /  F ield         | OpenFOAM: The Open Source CFD Toolbox           |
|  \\    /   O peration     | Version:  4.1                                   |
|   \\  /    A nd           | Web:      www.OpenFOAM.org                      |
|    \\/     M anipulation  |                                                 |
\*---------------------------------------------------------------------------*/
FoamFile
{
    version     2.0;
    format      ascii;
    class       volVectorField;
    location    "0.7";
    object      Force;
}
// * * * * * * * * * * * * * * * * * * * * * * * * * * * * * * * * * * * * * //

dimensions      [1 1 -2 0 0 0 0];

internalField   uniform (0 0 0);

boundaryField
{
    inlet
    {
        type            calculated;
        value           uniform (0 0 0);
    }
    outlet
    {
        type            calculated;
        value           uniform (0 0 0);
    }
    flap
    {
        type            calculated;
        value           nonuniform List<vector> 
33
(
(3.45791 -0.106102 2.91766e-18)
(3.46214 -0.267587 -1.79568e-18)
(3.45737 -0.439674 -1.7774e-18)
(3.43166 -0.591194 9.86343e-22)
(3.37763 -0.719195 -8.83472e-22)
(3.29786 -0.813943 -1.04954e-17)
(3.20178 -0.880731 1.7846e-18)
(3.09395 -0.932371 -3.15536e-22)
(2.95888 -0.978914 -1.86972e-20)
(2.79999 -0.998033 -7.44152e-18)
(2.62365 -0.994604 1.80421e-18)
(2.42306 -0.963932 1.77538e-18)
(2.19238 -0.901237 -3.49728e-18)
(1.9158 -0.798995 5.17198e-18)
(1.548 -0.647826 3.03949e-18)
(0.145201 0.34019 2.35099e-38)
(0.0397393 0.0962193 -9.40218e-19)
(-0.0279264 -0.0620186 -1.02555e-21)
(-1.03341 0.0343116 1.4489e-18)
(-1.03874 0.0874198 -1.46091e-18)
(-1.04035 0.142835 -1.47663e-18)
(-1.03636 0.192521 -6.7075e-20)
(-1.02385 0.232323 -1.5387e-18)
(-1.00244 0.262667 1.57565e-18)
(-0.968219 0.280413 1.59071e-18)
(-0.923231 0.294866 5.78261e-18)
(-0.872575 0.304946 -7.74863e-19)
(-0.815615 0.306718 2.87244e-23)
(-0.750875 0.298566 3.39525e-18)
(-0.681971 0.284223 1.86936e-18)
(-0.606881 0.259262 1.79372e-18)
(-0.534543 0.231925 3.83566e-18)
(-0.4703 0.205864 -2.2717e-18)
)
;
    }
    upperWall
    {
        type            calculated;
        value           uniform (0 0 0);
    }
    lowerWall
    {
        type            calculated;
        value           uniform (0 0 0);
    }
    frontAndBack
    {
        type            empty;
    }
}


// ************************************************************************* //
