/*--------------------------------*- C++ -*----------------------------------*\
| =========                 |                                                 |
| \\      /  F ield         | OpenFOAM: The Open Source CFD Toolbox           |
|  \\    /   O peration     | Version:  2006                                  |
|   \\  /    A nd           | Website:  www.openfoam.com                      |
|    \\/     M anipulation  |                                                 |
\*---------------------------------------------------------------------------*/
FoamFile
{
    version     2.0;
    format      ascii;
    class       surfaceScalarField;
    location    "0.7";
    object      meshPhi;
}
// * * * * * * * * * * * * * * * * * * * * * * * * * * * * * * * * * * * * * //

dimensions      [0 3 -1 0 0 0 0];
oriented        oriented;


internalField   nonuniform List<scalar> 
5457
(
0.000177787
6.8896e-07
0.000340368
2.01566e-06
0.000491753
3.33439e-06
0.000635141
4.749e-06
0.000772328
6.32527e-06
0.000903935
8.1101e-06
0.00102882
1.01437e-05
0.0011445
1.24279e-05
0.00124793
1.49252e-05
0.00133568
1.75926e-05
0.00140438
2.03854e-05
0.00145112
2.32495e-05
0.00147333
2.61422e-05
0.00146897
2.90308e-05
0.00143718
3.18907e-05
0.00137868
3.47436e-05
0.00129571
3.76925e-05
0.00119188
4.0976e-05
0.001072
4.50621e-05
0.000938066
4.94517e-05
0.000795352
5.38328e-05
0.000646806
5.84686e-05
0.000494687
6.3111e-05
0.000345601
6.85849e-05
0.000201901
7.51355e-05
6.64166e-05
8.17994e-05
-5.5574e-05
8.72518e-05
-0.000155774
8.76109e-05
-0.000223032
7.55862e-05
1.22672e-05
0.000177294
1.36638e-06
0.000339682
3.99979e-06
0.000491074
6.62139e-06
0.000634528
9.43867e-06
0.000771873
1.2577e-05
0.000904026
1.61267e-05
0.00102984
2.01788e-05
0.00114663
2.47386e-05
0.00125133
2.97182e-05
0.00134061
3.50306e-05
0.00141112
4.05991e-05
0.00145999
4.632e-05
0.00148465
5.21083e-05
0.00148287
5.78911e-05
0.0014537
6.36079e-05
0.00139776
6.92877e-05
0.00131717
7.50995e-05
0.00121536
8.14328e-05
0.00109751
8.8709e-05
0.000965593
9.6504e-05
0.000825754
0.000104825
0.000681556
0.00011404
0.000533519
0.000124165
0.000388751
0.000135998
0.000250613
0.000149482
0.000119861
0.000164436
-8.93538e-07
0.000182836
-0.000109371
0.000207928
-0.00020113
0.000240622
0.000266014
0.000177064
2.02958e-06
0.000339684
5.94589e-06
0.000491554
9.85199e-06
0.00063541
1.40622e-05
0.000773122
1.87464e-05
0.000906423
2.40275e-05
0.00103409
3.00766e-05
0.00115284
3.69065e-05
0.00125966
4.43413e-05
0.00135158
5.22315e-05
0.00142534
6.05089e-05
0.00147811
6.90653e-05
0.00150728
7.77645e-05
0.00151037
8.64709e-05
0.00148624
9.50822e-05
0.00143537
0.000103625
0.00135964
0.000112289
0.00126197
0.000121408
0.00114641
0.000130878
0.00101864
0.000141291
0.000883034
0.000153372
0.000745998
0.000167353
0.000609213
0.00018415
0.000475647
0.000203057
0.000353313
0.000222856
0.000243425
0.000244742
0.000149487
0.000273689
8.13383e-05
0.000320599
5.43662e-05
0.000396587
0.000509006
0.000177078
2.67588e-06
0.00034047
7.84813e-06
0.000493452
1.30167e-05
0.000638057
1.85625e-05
0.000776101
2.47182e-05
0.000911181
3.17129e-05
0.0010418
3.97679e-05
0.00116326
4.8866e-05
0.00127268
5.8702e-05
0.00136822
6.90446e-05
0.00144684
7.99448e-05
0.00150534
9.13289e-05
0.00154104
0.000102958
0.00155124
0.000114628
0.00153462
0.000126209
0.00149143
0.000137729
0.00142337
0.000149413
0.00133303
0.000161598
0.00122331
0.000174371
0.00110417
0.00018883
0.000974756
0.000205306
0.000844204
0.000223869
0.000721908
0.000246043
0.000606924
0.000270349
0.000511733
0.000294329
0.000444001
0.000317544
0.000411344
0.000341102
0.00043564
0.00036998
0.000548887
0.000410929
0.00046939
0.00017691
3.29639e-06
0.000341583
9.68535e-06
0.000495791
1.60699e-05
0.000641401
2.28596e-05
0.000780475
3.04219e-05
0.000918036
3.91311e-05
0.00105249
4.91688e-05
0.0011771
6.03743e-05
0.00128907
7.23822e-05
0.00138944
8.51266e-05
0.00147502
9.87358e-05
0.00154118
0.000112984
0.00158545
0.00012755
0.00160513
0.000142229
0.00159861
0.00015688
0.00156587
0.000171537
0.00150855
0.0001865
0.00142933
0.000202286
0.0013315
0.000219514
0.00122422
0.000238683
0.00110584
0.000259593
0.000985996
0.000283199
0.00087846
0.000310622
0.00078629
0.000339626
0.000724167
0.000366663
0.000706749
0.000387715
0.000745931
0.000396808
0.000856298
0.000387124
0.00105582
0.000356906
0.000265175
0.000177149
3.9033e-06
0.000343027
1.14596e-05
0.000498013
1.89895e-05
0.000644978
2.69972e-05
0.000786696
3.59628e-05
0.000927345
4.63048e-05
0.00106535
5.8173e-05
0.00119314
7.12419e-05
0.00130878
8.5254e-05
0.0014157
0.000100471
0.00150967
0.000116829
0.00158508
0.000133872
0.00163989
0.000151335
0.00167142
0.00016905
0.00167766
0.000186863
0.00165823
0.000204797
0.00161473
0.00022324
0.00154994
0.000242854
0.00146703
0.000264333
0.00137093
0.000287764
0.00127005
0.000313843
0.00117283
0.000344313
0.00108543
0.000378449
0.00101936
0.00041307
0.000990933
0.000444258
0.00101619
0.000465766
0.00110612
0.000468412
0.00125506
0.000443487
0.00144192
0.000396856
0.000334091
0.000178533
4.49374e-06
0.000344858
1.3161e-05
0.000500531
2.17707e-05
0.000649252
3.09663e-05
0.000794212
4.12813e-05
0.000938465
5.31412e-05
0.00107939
6.66572e-05
0.00121036
8.14864e-05
0.0013324
9.75715e-05
0.00144764
0.000115212
0.00155047
0.000134139
0.00163632
0.000153837
0.00170345
0.000174106
0.00174925
0.000194853
0.001771
0.000215909
0.0017681
0.000237298
0.00174203
0.00025953
0.00169538
0.000283358
0.00163066
0.000309446
0.00155065
0.000338246
0.00147236
0.000371052
0.00140309
0.000408886
0.00134282
0.000450152
0.00130677
0.000491811
0.00131011
0.000529752
0.00136713
0.000557648
0.00148167
0.000567603
0.00163376
0.000556008
0.0017929
0.00054038
0.000521478
0.000180343
5.04807e-06
0.000346965
1.47616e-05
0.000503608
2.43899e-05
0.000654333
3.46946e-05
0.000802267
4.62583e-05
0.000950168
5.95032e-05
0.00109448
7.45088e-05
0.00123007
9.11118e-05
0.00135972
0.00010931
0.00148396
0.000129167
0.00159684
0.000150483
0.00169395
0.000172709
0.00177493
0.000195613
0.00183741
0.000219337
0.00187765
0.000243735
0.00189526
0.000268839
0.00189075
0.00029521
0.00186679
0.000323686
0.00182665
0.000355202
0.00177349
0.000390601
0.00172124
0.000430787
0.00167802
0.00047619
0.00164835
0.000525771
0.00164486
0.000576818
0.00167805
0.000625253
0.00176016
0.000666566
0.00189135
0.000696491
0.00204983
0.000715208
0.00224022
0.000737728
0.000720514
0.000181997
5.56908e-06
0.00034917
1.62584e-05
0.000507
2.68319e-05
0.000659923
3.8167e-05
0.000810702
5.08807e-05
0.000961702
6.53778e-05
0.00111076
8.1829e-05
0.00125315
0.000100151
0.00138962
0.000120178
0.00152333
0.000142042
0.00164765
0.000165606
0.00175618
0.000190074
0.00185279
0.00021548
0.00193463
0.000242246
0.0019966
0.000270112
0.00203894
0.000299107
0.00205906
0.000329657
0.00206168
0.000362863
0.00205265
0.00040028
0.00203308
0.000442748
0.00201179
0.000490922
0.00199832
0.000545323
0.00200211
0.00060527
0.00203399
0.000668544
0.00210158
0.000732012
0.00221327
0.000793491
0.0023756
0.000852486
0.00258228
0.000911183
0.00285619
0.000975229
0.000978936
0.000183809
6.05479e-06
0.000351321
1.76387e-05
0.000510454
2.90757e-05
0.00066588
4.1364e-05
0.000819524
5.5134e-05
0.000973591
7.07891e-05
0.00112792
8.85704e-05
0.00127737
0.000108356
0.00142099
0.000129974
0.00156477
0.000153686
0.00170064
0.000179204
0.00182256
0.000205846
0.00193707
0.000233885
0.00203953
0.000263522
0.00212616
0.000294719
0.00219503
0.000327473
0.00224095
0.000361788
0.00227522
0.000399685
0.00230367
0.00044348
0.00232168
0.000493492
0.00233805
0.0005504
0.00236352
0.000615232
0.00240707
0.000687722
0.00248143
0.000766489
0.00259662
0.00084948
0.00275676
0.00093582
0.00298369
0.00102759
0.00329435
0.00112743
0.00368168
0.00123421
0.00123777
0.000185684
6.49293e-06
0.000353739
1.8908e-05
0.000514121
3.11505e-05
0.000672026
4.42912e-05
0.000828656
5.90037e-05
0.00098614
7.56997e-05
0.00114494
9.46117e-05
0.00130111
0.000115696
0.00145399
0.000138883
0.00160744
0.000164245
0.00175511
0.000191491
0.00189437
0.00022035
0.00202773
0.000250828
0.00214951
0.000282738
0.00226097
0.00031655
0.00235585
0.000352566
0.00243191
0.000390933
0.00250597
0.000434113
0.00257797
0.000484247
0.00263788
0.000541531
0.00269745
0.000607477
0.00277176
0.00068388
0.00286597
0.000770799
0.00299511
0.000867981
0.00317324
0.000974396
0.00340867
0.0010894
0.00374136
0.00121532
0.00419989
0.00135078
0.00475887
0.00148514
0.0015136
0.000187576
6.9022e-06
0.000356855
2.00864e-05
0.000518125
3.30416e-05
0.000678144
4.69254e-05
0.000837931
6.24782e-05
0.000999028
8.01018e-05
0.00116213
0.000100034
0.00132539
0.00012232
0.00148815
0.000146887
0.00165109
0.000173652
0.00181171
0.000202468
0.00196978
0.000233285
0.00212096
0.000265719
0.00226041
0.000299319
0.00239582
0.000335133
0.00251995
0.000374202
0.00263386
0.00041701
0.00275327
0.000465734
0.00287052
0.000521836
0.00297566
0.000585365
0.00308519
0.000659438
0.00321829
0.00074769
0.00337925
0.000850302
0.00358052
0.000967558
0.00383907
0.00109981
0.00418138
0.00124638
0.00465944
0.00140573
0.00530436
0.00156417
0.00610901
0.0016903
0.00165189
0.000189285
7.25871e-06
0.000360333
2.11341e-05
0.000522699
3.47619e-05
0.000684478
4.93208e-05
0.000847138
6.55789e-05
0.00101199
8.39811e-05
0.00117992
0.000104796
0.0013503
0.0001281
0.00152224
0.000153817
0.0016947
0.000181728
0.00186798
0.00021172
0.00204321
0.000243931
0.00221149
0.000277912
0.00237086
0.000313261
0.0025324
0.000351161
0.00268971
0.000392825
0.00284363
0.000439046
0.00300641
0.000492008
0.0031682
0.000553526
0.0033244
0.000623663
0.0034931
0.000705051
0.00369626
0.000803277
0.00394304
0.000920543
0.00423708
0.0010568
0.00460281
0.00121403
0.00509089
0.00139237
0.00574967
0.00158445
0.00660789
0.001763
0.00765967
0.00187572
0.00176484
0.000190418
7.57063e-06
0.000364085
2.209e-05
0.000528435
3.63584e-05
0.000691223
5.1475e-05
0.000855831
6.82655e-05
0.00102457
8.7306e-05
0.00119763
0.000108876
0.00137522
0.000133054
0.00155606
0.000159735
0.00173655
0.000188452
0.00192066
0.000219152
0.00211151
0.000252278
0.00229827
0.00028751
0.00248212
0.000324587
0.00267085
0.000364322
0.00285986
0.000407755
0.00305189
0.00045623
0.00325414
0.000511863
0.00346237
0.000577111
0.00367718
0.000653314
0.00391495
0.000741628
0.00419885
0.000847284
0.00454237
0.000975139
0.00495123
0.00112534
0.00545603
0.00130154
0.00612184
0.00150637
0.00698717
0.00172943
0.00807639
0.00194044
0.00935123
0.00207323
0.00198203
0.000191312
7.85528e-06
0.000367479
2.29248e-05
0.000534119
3.77173e-05
0.000698109
5.33344e-05
0.000864677
7.06374e-05
0.00103707
9.02228e-05
0.00121486
0.000112348
0.0013989
0.000137096
0.00158739
0.000164354
0.00177567
0.000193685
0.00197198
0.000225229
0.00217803
0.000259262
0.0023828
0.000295196
0.00259117
0.000333086
0.00280526
0.000373832
0.00302412
0.000418494
0.00325437
0.000468605
0.00349653
0.000525768
0.00375235
0.000592593
0.00403161
0.000672361
0.004345
0.000765996
0.00470757
0.000876005
0.00515371
0.00100857
0.00569334
0.00116501
0.00634335
0.00134761
0.00718275
0.00156092
0.00824675
0.00179411
0.00952391
0.00201671
0.0108719
0.00214986
0.00197369
-0.000150909
-4.05262e-05
6.58601e-05
-0.000108725
0.000453192
-0.000124688
0.000965201
-0.000126088
0.00154579
-0.000127228
0.00213482
-0.000133296
0.00267767
-0.000141871
0.00313943
-0.000149024
0.00350411
-0.00015237
0.00376827
-0.000151205
0.00393625
-0.000145941
0.00401486
-0.000137508
0.00401558
-0.000126762
0.00395312
-0.000115164
0.00383615
-0.000103929
0.00367621
-9.27975e-05
0.00348161
-8.11042e-05
0.00325366
-6.88187e-05
0.00299751
-5.77352e-05
0.00272144
-4.87949e-05
0.00243898
-4.01917e-05
0.002161
-3.20829e-05
0.00189182
-2.56067e-05
0.00162576
-2.02428e-05
0.00136317
-1.56971e-05
0.0011046
-1.19637e-05
0.000841359
-8.84214e-06
0.000572907
-6.14944e-06
0.000295726
-3.69986e-06
-1.26228e-06
-6.41058e-05
-0.000308786
0.000231305
-0.000293637
0.000647925
-0.000278388
0.00115989
-0.000260105
0.00173239
-0.000256461
0.00231176
-0.000267056
0.00284193
-0.000282909
0.00328844
-0.000295669
0.00363662
-0.000300973
0.00388438
-0.000297847
0.00403627
-0.000287134
0.00409936
-0.000270291
0.00408324
-0.000248336
0.00400512
-0.00022387
0.00387744
-0.00020051
0.00371026
-0.000178299
0.00350865
-0.000156228
0.0032701
-0.000134496
0.00300926
-0.000113962
0.00273563
-9.54903e-05
0.00245111
-7.85402e-05
0.00216917
-6.3373e-05
0.00189698
-5.05861e-05
0.00162738
-3.99833e-05
0.00136153
-3.12244e-05
0.00110124
-2.39035e-05
0.000839059
-1.7723e-05
0.000572137
-1.23299e-05
0.000295524
-7.38371e-06
-2.50644e-06
0.000312037
-0.000488361
0.000630489
-0.000436566
0.00103908
-0.000396086
0.00153433
-0.000369602
0.00209447
-0.000371368
0.00265904
-0.000392217
0.00316766
-0.000417007
0.00358717
-0.000435009
0.00390529
-0.000441311
0.00412258
-0.000435584
0.00424368
-0.000419441
0.00427793
-0.000394888
0.00423442
-0.000364092
0.0041259
-0.000329136
0.0039717
-0.000292993
0.00378561
-0.0002583
0.00356883
-0.000225851
0.0033172
-0.000195216
0.00304705
-0.000165859
0.00276912
-0.000138573
0.00247931
-0.000114396
0.00219127
-9.3251e-05
0.00191197
-7.48455e-05
0.00163542
-5.91907e-05
0.00136539
-4.61717e-05
0.00110249
-3.5362e-05
0.000840122
-2.6238e-05
0.000573574
-1.82598e-05
0.000296396
-1.09353e-05
-3.71071e-06
0.000903908
-0.00045499
0.00117633
-0.000427105
0.00155319
-0.000421383
0.00204027
-0.00043279
0.00259978
-0.000465431
0.00315129
-0.000506821
0.00363481
-0.000543158
0.00402095
-0.000566409
0.00429785
-0.000573137
0.00447135
-0.000564019
0.00454795
-0.000541902
0.00453907
-0.000509555
0.0044592
-0.00047041
0.00431417
-0.000426747
0.00412176
-0.000380125
0.00390348
-0.000333998
0.00366126
-0.000291047
0.00339379
-0.0002512
0.00311108
-0.000213688
0.00281902
-0.000179103
0.00251879
-0.000148451
0.00222486
-0.000121481
0.00193771
-9.78549e-05
0.00165167
-7.74778e-05
0.00137514
-6.02651e-05
0.00110842
-4.60609e-05
0.000844671
-3.41747e-05
0.00057722
-2.38019e-05
0.000298343
-1.42734e-05
-4.84677e-06
0.00142682
-0.000264143
0.00170124
-0.000336743
0.00211376
-0.000405663
0.00264494
-0.000481874
0.00322788
-0.00055696
0.00377228
-0.000621052
0.00423194
-0.000667643
0.00457798
-0.000693904
0.0047971
-0.000698061
0.00491368
-0.000683371
0.00493339
-0.000654587
0.00486566
-0.000613932
0.00473779
-0.000565758
0.00455222
-0.000513736
0.00431672
-0.000458659
0.00405822
-0.000403402
0.00378367
-0.000351357
0.00349323
-0.000302799
0.00319064
-0.000257356
0.00287881
-0.000216038
0.00256735
-0.000179445
0.0022669
-0.000147069
0.00197116
-0.000118762
0.00167509
-9.43514e-05
0.00138943
-7.35244e-05
0.00111742
-5.61709e-05
0.000851486
-4.16302e-05
0.000582145
-2.89858e-05
0.00030097
-1.73971e-05
-5.91245e-06
0.00180873
-0.000208179
0.00219889
-0.000313276
0.00274311
-0.000440111
0.00336699
-0.000564152
0.00398606
-0.000667826
0.00451726
-0.000743389
0.0049406
-0.000791219
0.00523125
-0.0008145
0.00537616
-0.00081281
0.00542157
-0.000790087
0.00537589
-0.000753667
0.00523945
-0.000705478
0.0050543
-0.00064904
0.00482454
-0.000589808
0.00454134
-0.000527716
0.00423933
-0.000464604
0.00393235
-0.000405035
0.00361323
-0.000349323
0.0032811
-0.000296925
0.00294678
-0.000249139
0.00262594
-0.000206987
0.00231544
-0.000170071
0.00200738
-0.000137744
0.0017021
-0.000109734
0.0014082
-8.57382e-05
0.00113081
-6.55474e-05
0.000861298
-4.85752e-05
0.000588405
-3.38377e-05
0.000304242
-2.03198e-05
-6.91068e-06
0.00225308
-0.000283799
0.00282987
-0.000402346
0.00352789
-0.000550729
0.00424326
-0.000690236
0.00488063
-0.000800393
0.00537186
-0.000872955
0.00572239
-0.000911355
0.00593509
-0.000923665
0.00600276
-0.000913372
0.00596149
-0.000882218
0.00584192
-0.000837064
0.0056374
-0.000781872
0.00538716
-0.000718465
0.00511144
-0.000652827
0.00478151
-0.000585593
0.0044342
-0.000516544
0.00409699
-0.000450997
0.00374753
-0.000390083
0.00338274
-0.000332216
0.00302518
-0.000278828
0.00269174
-0.000231795
0.00236728
-0.000190925
0.00204531
-0.000155026
0.00173216
-0.000123755
0.00143162
-9.69479e-05
0.00114807
-7.42201e-05
0.00087324
-5.5029e-05
0.000595806
-3.83648e-05
0.000308049
-2.3057e-05
-7.84685e-06
0.00292608
-0.000429625
0.00369507
-0.000547914
0.00451148
-0.000702033
0.00527526
-0.000839075
0.00589219
-0.000940172
0.00631366
-0.00100019
0.00656169
-0.00102429
0.00667379
-0.00102216
0.00665637
-0.00100046
0.00652276
-0.000960861
0.00632016
-0.0009078
0.00604684
-0.000845734
0.0057275
-0.000776492
0.00539885
-0.00070507
0.00502591
-0.000633022
0.0046337
-0.000559518
0.00426492
-0.000489357
0.0038872
-0.000424442
0.00349361
-0.000362587
0.00311341
-0.000304974
0.00276089
-0.000253869
0.00242039
-0.000209361
0.00208595
-0.000170326
0.00176554
-0.000136314
0.00145897
-0.000107152
0.00116804
-8.22922e-05
0.000886456
-6.11106e-05
0.000604163
-4.26368e-05
0.000312323
-2.56472e-05
-8.73369e-06
0.00381983
-0.000562136
0.00475877
-0.000708625
0.00567217
-0.000867157
0.006433
-0.000992156
0.00698523
-0.00107311
0.00730895
-0.0011135
0.00744245
-0.00112098
0.00743845
-0.00110498
0.00731562
-0.00107173
0.00709391
-0.00102382
0.00680827
-0.000964978
0.00645889
-0.000897519
0.006073
-0.000823425
0.00568743
-0.000747836
0.00527123
-0.000672085
0.00483636
-0.000595183
0.00442964
-0.000521139
0.00402401
-0.000452431
0.00360803
-0.00038762
0.00320715
-0.0003273
0.00283183
-0.000273135
0.00247396
-0.000225463
0.00212837
-0.000183725
0.00179983
-0.000147431
0.00148697
-0.000116237
0.00118892
-8.95532e-05
0.00090054
-6.66566e-05
0.000613193
-4.65698e-05
0.000316924
-2.80432e-05
-9.55586e-06
0.00494092
-0.000728957
0.00602722
-0.000910578
0.00699045
-0.00104805
0.00768101
-0.0011393
0.00811274
-0.00118774
0.00830409
-0.00120303
0.00831165
-0.00119298
0.00818684
-0.00116502
0.00794615
-0.00112255
0.00763433
-0.00106761
0.00727641
-0.00100508
0.00685704
-0.000935447
0.00640749
-0.000858572
0.00596757
-0.000779859
0.00551131
-0.000701674
0.00503964
-0.000623045
0.00459169
-0.000546615
0.00415519
-0.000474905
0.0037199
-0.000407771
0.00330054
-0.000345589
0.00290398
-0.000289311
0.00252859
-0.000239296
0.00217157
-0.000195361
0.00183384
-0.000157146
0.0015138
-0.000124212
0.00120911
-9.59442e-05
0.000914677
-7.15699e-05
0.00062237
-5.00853e-05
0.000321599
-3.01981e-05
-1.02976e-05
0.00636672
-0.00102808
0.00753617
-0.00113472
0.00843063
-0.00121608
0.00895763
-0.00125713
0.00920734
-0.00126856
0.00923238
-0.00125913
0.00910212
-0.00123401
0.00886746
-0.00119863
0.00852199
-0.00115247
0.00811518
-0.00109399
0.00769064
-0.00102864
0.00722146
-0.000958208
0.00671875
-0.000881262
0.00622688
-0.000801313
0.00573346
-0.000721543
0.00523298
-0.000642368
0.00474949
-0.000565304
0.00428211
-0.000492122
0.00382652
-0.000423507
0.00338923
-0.000360023
0.00297469
-0.000302306
0.00258345
-0.000250695
0.00221454
-0.000205163
0.0018673
-0.000165441
0.0015397
-0.000131095
0.00122857
-0.000101509
0.000928541
-7.58871e-05
0.000631441
-5.32017e-05
0.000326223
-3.21203e-05
-1.09614e-05
0.00806226
-0.00118727
0.00917933
-0.00127951
0.0098724
-0.00131678
0.0101569
-0.00131866
0.0101888
-0.00130298
0.0100407
-0.0012778
0.00977016
-0.00124461
0.00943802
-0.00120559
0.00902172
-0.00115921
0.00853918
-0.00110201
0.00804906
-0.00103674
0.00753802
-0.000966276
0.00699959
-0.000890844
0.00646465
-0.000812303
0.00593479
-0.000732946
0.00540832
-0.00065414
0.0048965
-0.000577331
0.00440246
-0.000503922
0.00392651
-0.000434839
0.00347186
-0.00037077
0.00304146
-0.000312284
0.00263635
-0.000259722
0.00225614
-0.000213135
0.00189971
-0.000172331
0.0015647
-0.000136911
0.00124741
-0.000106277
0.000942088
-7.96307e-05
0.00064035
-5.59315e-05
0.000330762
-3.38162e-05
-1.15491e-05
0.0098411
-0.00121984
0.0107463
-0.00135061
0.0111431
-0.00134894
0.0111669
-0.00132243
0.0109948
-0.00129124
0.0107039
-0.00125983
0.0103202
-0.00122613
0.00989841
-0.00118786
0.00942918
-0.00114326
0.00890376
-0.0010902
0.00836254
-0.0010291
0.00780945
-0.000961607
0.00724231
-0.000889039
0.00667537
-0.000813151
0.00611458
-0.000735841
0.00556331
-0.000658695
0.00502786
-0.00058317
0.00451202
-0.000510577
0.00401774
-0.000441933
0.00354739
-0.000378013
0.0031031
-0.000319405
0.00268585
-0.000266475
0.00229543
-0.000219337
0.00193054
-0.000177861
0.00158858
-0.000141697
0.00126549
-0.00011028
0.000955177
-8.28253e-05
0.000648994
-5.82906e-05
0.000335169
-3.52944e-05
-1.20636e-05
0.0115819
-0.00138019
0.0120795
-0.00139908
0.0121271
-0.00132234
0.0119308
-0.00126752
0.0116091
-0.00123128
0.011217
-0.00120323
0.0107632
-0.00117618
0.0102749
-0.00114527
0.0097555
-0.00110751
0.0091999
-0.00106122
0.00862459
-0.00100645
0.00803773
-0.000944364
0.00744423
-0.000876521
0.00685227
-0.000804729
0.00626801
-0.000730839
0.00569613
-0.000656526
0.00514158
-0.000583287
0.00460817
-0.000512438
0.00409847
-0.000445055
0.00361469
-0.000381984
0.00315857
-0.000323861
0.00273097
-0.000271097
0.00233168
-0.000223866
0.00195928
-0.000182102
0.00161105
-0.000145507
0.00128263
-0.00011356
0.000967681
-8.55016e-05
0.000657291
-6.02994e-05
0.000339403
-3.65667e-05
-1.25087e-05
0.0131818
-0.00159545
0.0131077
-0.00117719
0.0128266
-0.00114294
0.0124678
-0.0011209
0.0120523
-0.00111124
0.0115942
-0.00110482
0.0110964
-0.00109531
0.0105672
-0.00107872
0.0100102
-0.00105275
0.00942786
-0.00101652
0.00882812
-0.00097042
0.00821838
-0.000915747
0.00760496
-0.00085427
0.00699457
-0.000787937
0.00639313
-0.000718673
0.00580558
-0.000648243
0.00523647
-0.00057821
0.00468956
-0.000509933
0.00416768
-0.000444549
0.00367306
-0.000382969
0.0032073
-0.000325889
0.0027712
-0.000273778
0.00236448
-0.000226873
0.00198568
-0.000185171
0.00163194
-0.000148435
0.00129875
-0.00011619
0.000979545
-8.77146e-05
0.000665211
-6.19967e-05
0.000343453
-3.76564e-05
-1.28923e-05
0.000199465
8.10148e-06
0.000383779
2.36334e-05
0.000559322
3.88888e-05
0.000732362
5.50015e-05
0.000908249
7.27881e-05
0.00109023
9.27842e-05
0.00127863
0.000115253
0.0014746
0.000140288
0.00167635
0.00016777
0.0018818
0.000197498
0.00210048
0.00022973
0.00232933
0.000264416
0.00256071
0.000300975
0.0028001
0.000339421
0.00304381
0.00038008
0.00330074
0.000424666
0.00358272
0.000475839
0.00387726
0.000534001
0.00418695
0.000600387
0.00454393
0.000679981
0.00494516
0.000775108
0.0053989
0.000885724
0.0059757
0.00101669
0.00666064
0.00116998
0.00745459
0.00134314
0.00846703
0.00153707
0.00971046
0.00174145
0.0110941
0.00192878
0.0123693
0.00204298
0.00210403
0.0129029
0.00020535
8.33023e-06
0.00039493
2.42729e-05
0.00057734
3.99175e-05
0.000757729
5.64203e-05
0.000940887
7.45473e-05
0.00112993
9.48171e-05
0.00132643
0.000117516
0.00153173
0.000142749
0.00174354
0.00017029
0.0019624
0.00019989
0.00219833
0.000231976
0.00244809
0.000266831
0.0027077
0.000304006
0.00297627
0.000343065
0.00324391
0.00038341
0.00353081
0.000426686
0.00386094
0.000476991
0.00420717
0.000535007
0.00456588
0.000599831
0.00498775
0.000675701
0.00546607
0.000766815
0.00601134
0.00087268
0.00669676
0.000994861
0.00748617
0.00113464
0.00837986
0.00128588
0.00947987
0.00144298
0.0107511
0.00159873
0.0120491
0.00173462
0.0131481
0.00182678
0.00187673
0.0138216
0.000210494
8.45539e-06
0.00040607
2.46967e-05
0.000595329
4.0669e-05
0.000782509
5.74425e-05
0.000972598
7.57745e-05
0.00116894
9.61892e-05
0.00137399
0.000118988
0.00159016
0.000144346
0.00181355
0.000171997
0.00204242
0.000201302
0.00228973
0.000232559
0.00256019
0.000266752
0.00284807
0.000303755
0.0031481
0.000342865
0.00344356
0.000383016
0.0037538
0.000424744
0.00412274
0.000472388
0.00452401
0.000528186
0.00493741
0.000590397
0.00540823
0.000660595
0.00595214
0.000743042
0.00657984
0.000838234
0.00733082
0.00094524
0.00818394
0.00106331
0.00913444
0.00118608
0.0102209
0.00130562
0.0113941
0.00141701
0.0125232
0.00150788
0.0134431
0.00156238
0.00154412
0.0140538
0.000213761
8.5078e-06
0.000416822
2.49627e-05
0.00061276
4.11886e-05
0.000806309
5.81093e-05
0.00100306
7.65105e-05
0.00120664
9.69156e-05
0.00142017
0.000119631
0.00164762
0.000144875
0.00188537
0.000172509
0.00212592
0.000201718
0.00237974
0.000232086
0.00266388
0.000264731
0.00297642
0.00030058
0.00330778
0.00033897
0.00363353
0.000378291
0.00396794
0.000418341
0.00436845
0.000462741
0.00481846
0.000514324
0.00528352
0.000571898
0.00579331
0.000635275
0.00638556
0.000707049
0.00706709
0.00078832
0.00784495
0.000877315
0.00871475
0.000971249
0.00966129
0.00106472
0.0106709
0.00115183
0.0117082
0.00122673
0.0126921
0.00127694
0.0135053
0.00129187
0.00123256
0.0140618
0.000217493
8.56956e-06
0.000427681
2.51522e-05
0.000629739
4.14765e-05
0.000829291
5.84206e-05
0.00103235
7.67574e-05
0.00124282
9.69973e-05
0.00146427
0.000119438
0.0017017
0.000144302
0.00195315
0.000171513
0.00220819
0.000200336
0.00246966
0.000230017
0.00276142
0.000261171
0.00309306
0.000295115
0.0034493
0.000331625
0.00380407
0.000369217
0.00416949
0.00040737
0.00459558
0.000448211
0.00507442
0.000494132
0.00557815
0.000545113
0.00612494
0.000600751
0.00674569
0.000661704
0.00744645
0.000728352
0.00822315
0.000799112
0.00907073
0.000870608
0.00996941
0.000938874
0.0108916
0.000999892
0.0118007
0.00104505
0.0126505
0.00106314
0.0133666
0.00105018
0.000975745
0.013861
0.000223355
8.62167e-06
0.000438505
2.52272e-05
0.000645828
4.14835e-05
0.000850864
5.83095e-05
0.00105971
7.6437e-05
0.00127646
9.63485e-05
0.00150488
0.000118317
0.00175027
0.000142536
0.00201136
0.000168928
0.0022794
0.000196901
0.00255487
0.000225852
0.00285734
0.000255931
0.0032002
0.000287834
0.00357013
0.000321554
0.00394982
0.000356346
0.00434795
0.000391892
0.00479258
0.000429053
0.00528391
0.000469205
0.00581083
0.000512792
0.00638265
0.00055968
0.00701362
0.000609864
0.0077092
0.000662858
0.00846371
0.000716745
0.0092665
0.000768981
0.0100988
0.000817238
0.0109326
0.000856103
0.0117296
0.000876508
0.0124587
0.000872907
0.0130778
0.000844472
0.000769083
0.0135102
0.000230207
8.62244e-06
0.00044905
2.51469e-05
0.000660518
4.12097e-05
0.00087034
5.77788e-05
0.00108428
7.55574e-05
0.00130648
9.49865e-05
0.00154065
0.000116303
0.0017913
0.000139612
0.00205844
0.00016485
0.00233769
0.000191668
0.00263024
0.000219608
0.0029467
0.000248459
0.00329574
0.000278322
0.00367181
0.000309202
0.00406805
0.000340807
0.00448912
0.000372975
0.00494652
0.000406068
0.00544386
0.000440718
0.00597913
0.000477221
0.00655642
0.000515506
0.00718283
0.000555313
0.00786251
0.000595926
0.00858072
0.000635514
0.00932277
0.000672099
0.0100782
0.000702847
0.0108196
0.000721907
0.0115164
0.000724357
0.012144
0.000708674
0.0126739
0.000673598
0.000603841
0.0130475
0.000236128
8.53315e-06
0.000458501
2.48447e-05
0.000673435
4.06233e-05
0.000887312
5.68262e-05
0.00110555
7.41267e-05
0.00133229
9.29339e-05
0.00157108
0.000113454
0.00182544
0.000135747
0.00209696
0.000159725
0.0023849
0.000185117
0.00269021
0.000211549
0.00301753
0.000238726
0.00337147
0.000266496
0.00375171
0.000294724
0.0041565
0.000323205
0.00458801
0.000351812
0.00505112
0.000380648
0.00554877
0.000409952
0.00608124
0.000439842
0.00664971
0.000470152
0.00725777
0.000500502
0.00790979
0.000530226
0.00858469
0.000557979
0.00925983
0.00058131
0.00993153
0.000596751
0.010582
0.000601287
0.0111876
0.000593297
0.0117282
0.000571472
0.0121816
0.000534519
0.000472775
0.0125019
0.000240407
8.36936e-06
0.000466068
2.4343e-05
0.000684117
3.97343e-05
0.000901271
5.54621e-05
0.00112288
7.21653e-05
0.00135312
9.02245e-05
0.00159544
0.000109821
0.00185295
0.000130981
0.00212772
0.000153598
0.00242047
0.000177428
0.00273227
0.000202137
0.00306554
0.000227397
0.00342285
0.000252937
0.00380511
0.000278522
0.00421231
0.000303929
0.0046456
0.000328997
0.00510641
0.00035365
0.00559694
0.000377931
0.00611801
0.000401876
0.00666706
0.000425166
0.00724439
0.000447235
0.0078527
0.000467407
0.0084777
0.000484672
0.00908951
0.000496935
0.0096809
0.000501685
0.010249
0.000497635
0.0107742
0.000483878
0.0112382
0.000459311
0.0116247
0.000423349
0.000370098
0.0118975
0.000243428
8.1406e-06
0.000471716
2.36592e-05
0.000692204
3.85593e-05
0.000911747
5.37078e-05
0.00113568
6.9705e-05
0.00136821
8.6903e-05
0.00161272
0.000105461
0.00187205
0.000125384
0.00214835
0.000146547
0.00244295
0.000168716
0.00275705
0.00019158
0.00309202
0.000214792
0.00344922
0.00023802
0.0038297
0.000260973
0.00423367
0.000283388
0.00466191
0.000305063
0.00511209
0.00032574
0.00558758
0.000345392
0.00609098
0.000364166
0.00661427
0.000381542
0.00715381
0.000396708
0.00770956
0.000409059
0.00827431
0.000417872
0.00882441
0.000421995
0.00934855
0.000420049
0.00984486
0.000411034
0.0102982
0.00039427
0.0106946
0.000369263
0.0110224
0.000335929
0.000290806
0.0112533
0.000245312
7.85281e-06
0.000475337
2.28071e-05
0.000697384
3.71167e-05
0.000918302
5.15899e-05
0.0011434
6.67843e-05
0.00137688
8.30234e-05
0.00162206
0.000100447
0.00188157
0.000119043
0.00215737
0.000138673
0.00245108
0.000159106
0.00276406
0.000180056
0.00309698
0.000201173
0.00345011
0.000222078
0.00382467
0.000242459
0.0042197
0.000261992
0.0046386
0.000280551
0.00507351
0.000297875
0.00552464
0.000313527
0.00600284
0.000327619
0.00649679
0.000339923
0.00699632
0.000349627
0.00750006
0.000356185
0.00800288
0.00035917
0.0084914
0.000357924
0.00895516
0.000351665
0.00938679
0.000339791
0.00977592
0.000321933
0.0101128
0.000297961
0.0103893
0.000268061
0.000230311
0.0105833
0.000246044
7.51128e-06
0.000476775
2.18009e-05
0.00069935
3.5429e-05
0.000920516
4.91404e-05
0.00114551
6.3448e-05
0.0013785
7.86474e-05
0.0016228
9.48637e-05
0.00188074
0.00011207
0.00215375
0.000130106
0.00244366
0.000148744
0.00275257
0.000167751
0.00308051
0.000186802
0.00342539
0.000205423
0.00379108
0.000223369
0.00417348
0.000240371
0.00457602
0.000256077
0.00499534
0.000270443
0.00541985
0.000282926
0.0058636
0.000293084
0.00632201
0.00030107
0.00677947
0.000306555
0.00723373
0.000309022
0.0076803
0.000308142
0.00811044
0.000303531
0.00851546
0.0002948
0.00888775
0.000281666
0.00921956
0.000264016
0.00950401
0.000241932
0.00973565
0.000215724
0.000184426
0.00989736
0.00024556
7.12154e-06
0.000475854
2.06565e-05
0.000697807
3.35216e-05
0.000917979
4.63956e-05
0.00114147
5.97449e-05
0.00137244
7.38388e-05
0.00161438
8.87983e-05
0.00186932
0.000104593
0.00213704
0.000121004
0.0024195
0.000137779
0.00272171