/*--------------------------------*- C++ -*----------------------------------*\
| =========                 |                                                 |
| \\      /  F ield         | OpenFOAM: The Open Source CFD Toolbox           |
|  \\    /   O peration     | Version:  5.x                                   |
|   \\  /    A nd           | Web:      www.OpenFOAM.org                      |
|    \\/     M anipulation  |                                                 |
\*---------------------------------------------------------------------------*/
FoamFile
{
    version     2.0;
    format      ascii;
    class       surfaceScalarField;
    location    "0.7";
    object      meshPhi;
}
// * * * * * * * * * * * * * * * * * * * * * * * * * * * * * * * * * * * * * //

dimensions      [0 3 -1 0 0 0 0];

internalField   nonuniform List<scalar> 
5457
(
0.000491966
3.99506e-06
0.000923536
1.13469e-05
0.00127915
1.76403e-05
0.00156694
2.2938e-05
0.00179816
2.74321e-05
0.00197964
3.14353e-05
0.00211484
3.5094e-05
0.00220821
3.83568e-05
0.00226521
4.12423e-05
0.00229063
4.38819e-05
0.00228801
4.63588e-05
0.00226042
4.86704e-05
0.00221083
5.07947e-05
0.0021422
5.27167e-05
0.00205764
5.445e-05
0.00196078
5.60986e-05
0.00185679
5.80183e-05
0.00174393
5.92647e-05
0.00162087
5.88017e-05
0.0014939
5.78442e-05
0.00136779
5.7059e-05
0.0012476
5.61368e-05
0.00112883
5.37316e-05
0.00100904
4.88363e-05
0.000896215
4.32434e-05
0.000794084
3.82927e-05
0.000703949
3.50455e-05
0.000626282
3.70951e-05
0.0005677
4.97886e-05
0.000131158
0.000493135
7.98656e-06
0.000926179
2.26893e-05
0.0012826
3.53064e-05
0.00157037
4.59235e-05
0.00180237
5.48898e-05
0.0019854
6.29052e-05
0.00212186
7.02855e-05
0.00221608
7.68575e-05
0.00227399
8.26349e-05
0.00230068
8.79342e-05
0.00229946
9.29437e-05
0.00227334
9.76398e-05
0.00222521
0.00010197
0.00215795
0.000105893
0.00207437
0.000109396
0.00197733
0.000112563
0.00187495
0.000115553
0.0017664
0.000117395
0.00164528
0.000117405
0.00151817
0.000116701
0.00139121
0.000115541
0.0012739
0.000113303
0.00116247
0.00010863
0.00104652
0.000100915
0.000936484
9.17661e-05
0.000841705
8.17337e-05
0.000766847
7.10348e-05
0.000720567
6.16848e-05
0.000714846
5.71752e-05
3.3421e-05
0.00049552
1.19639e-05
0.000931745
3.39982e-05
0.00128987
5.29975e-05
0.00157718
6.89752e-05
0.00181072
8.23399e-05
0.00199715
9.4365e-05
0.00213618
0.000105598
0.00223189
0.00011554
0.00229149
0.000124116
0.00232075
0.00013203
0.00232238
0.000139649
0.00229918
0.000146831
0.00225402
0.000153483
0.00218966
0.000159532
0.00210857
0.000164892
0.00201251
0.000169428
0.00191054
0.00017252
0.00180738
0.000174526
0.00169233
0.000176508
0.00156756
0.000177552
0.00144137
0.000176493
0.00132504
0.000172723
0.0012227
0.000166706
0.00111696
0.000159626
0.00101328
0.000150498
0.000927622
0.000138072
0.000865427
0.000122276
0.000838978
0.000103159
0.000861387
8.21438e-05
-1.10952e-06
0.000498905
1.59115e-05
0.00094055
4.52156e-05
0.0013011
7.02961e-05
0.00158651
9.13161e-05
0.00182268
0.000109251
0.00201504
0.000125578
0.00215802
0.000140882
0.00225545
0.000154286
0.00231731
0.000165453
0.0023507
0.000175886
0.00235664
0.000186217
0.00233786
0.000195992
0.00229725
0.000205094
0.00223754
0.000213437
0.00216116
0.000220888
0.00207002
0.000227198
0.00196995
0.000231788
0.00186952
0.000235513
0.00176202
0.000239504
0.00164477
0.000242218
0.0015261
0.000242347
0.00141331
0.000239718
0.00131418
0.000235178
0.00121795
0.000229819
0.00112493
0.000222519
0.00104906
0.000212481
0.000993607
0.000200203
0.000966688
0.000187172
0.000983206
0.000177894
0.000163976
0.000502888
1.98057e-05
0.000950003
5.62033e-05
0.00131351
8.69196e-05
0.00159944
0.000112745
0.00184003
0.000135572
0.00203947
0.000156374
0.00218677
0.000175319
0.00228532
0.000191757
0.00235082
0.000205818
0.0023904
0.000219273
0.00240216
0.000232518
0.00238931
0.000245013
0.00235485
0.000256721
0.00230163
0.000267579
0.00223218
0.000277459
0.00214901
0.000286197
0.00205582
0.000293699
0.00195922
0.000300369
0.00185834
0.000306487
0.00175149
0.000311326
0.00164518
0.000314366
0.00154644
0.000315781
0.00145177
0.000315038
0.00135875
0.000312071
0.00127763
0.000308251
0.00121532
0.000304274
0.00117369
0.000300595
0.00115545
0.000300133
0.00118369
0.000310062
0.000341921
0.000507481
2.36493e-05
0.00095754
6.70204e-05
0.00132504
0.000103549
0.00161835
0.000134452
0.00186467
0.000161873
0.00206913
0.000186601
0.00222023
0.00020859
0.00232112
0.000227818
0.00239264
0.000245273
0.00243987
0.000262175
0.00245882
0.000278435
0.00245336
0.000293771
0.00242672
0.00030825
0.00238182
0.000321859
0.00232117
0.000334477
0.00224737
0.000346023
0.00216396
0.000356633
0.00207512
0.000366564
0.00198239
0.000375839
0.00188687
0.000384167
0.00179267
0.000391488
0.001711
0.000397566
0.00163125
0.000401369
0.00154837
0.00040361
0.00148245
0.000406621
0.00144102
0.00041082
0.00142703
0.000415954
0.00144262
0.000423435
0.00151436
0.000437997
0.000429404
0.000513299
2.74553e-05
0.000966161
7.77724e-05
0.00133879
0.000120296
0.00164167
0.00015632
0.00189394
0.000187928
0.00210237
0.000216237
0.00225774
0.000241315
0.00236405
0.000263476
0.00244359
0.000284259
0.00249911
0.000304518
0.00252642
0.000323839
0.00252978
0.000342109
0.00251257
0.000359504
0.00247791
0.00037608
0.00242831
0.00039178
0.00236581
0.000406585
0.00229369
0.000420706
0.00221563
0.000434376
0.00213402
0.000447558
0.00205148
0.000460198
0.00196976
0.000472387
0.00189749
0.000483391
0.00184055
0.000493332
0.00178879
0.00050426
0.00174866
0.000517137
0.00173782
0.00053167
0.00176196
0.000547584
0.00182456
0.000564679
0.00194426
0.00058559
0.000524129
0.000520551
3.12069e-05
0.00097813
8.83622e-05
0.00135628
0.00013668
0.00166705
0.000177615
0.00192557
0.000213355
0.00213894
0.000245198
0.00229965
0.000273256
0.00241418
0.000298392
0.00250359
0.00032265
0.00256802
0.000346266
0.00260475
0.000368598
0.00261822
0.00038984
0.00261188
0.000410246
0.00258936
0.000429983
0.00255393
0.000449173
0.00250545
0.000467721
0.00244684
0.000485695
0.00238272
0.000503506
0.00231564
0.000521301
0.00225006
0.000539152
0.00218784
0.000557199
0.0021288
0.000575043
0.00209536
0.000593663
0.0020835
0.000614948
0.00208079
0.000639075
0.00210945
0.000666564
0.00218048
0.000698393
0.00229516
0.000735613
0.00246831
0.000783885
0.000791801
0.000528903
3.48749e-05
0.000992562
9.87059e-05
0.00137655
0.000152638
0.00169459
0.000198317
0.00195984
0.000238112
0.00217853
0.000273449
0.00234659
0.000304779
0.002473
0.000333353
0.00257332
0.000360956
0.00264668
0.000387523
0.00269379
0.000412719
0.00271872
0.00043694
0.00272441
0.000460407
0.00271556
0.000483448
0.00269812
0.000506447
0.00266609
0.00052891
0.00262258
0.000550704
0.00257562
0.000572907
0.00252725
0.000596062
0.00248513
0.000620321
0.00245419
0.000645788
0.00242407
0.000672154
0.00241369
0.00070045
0.00243726
0.000732736
0.0024789
0.000769463
0.00255604
0.000812198
0.00268909
0.000863436
0.00288178
0.000925173
0.00315051
0.001003
0.00104134
0.000538239
3.84509e-05
0.00100905
0.000108784
0.00139939
0.00016815
0.00172452
0.000218395
0.00199706
0.000262141
0.00222253
0.000301058
0.00240118
0.000336053
0.00254117
0.000368229
0.00265189
0.000398748
0.00273469
0.000427924
0.00279327
0.000455935
0.0028313
0.000483139
0.0028499
0.000509647
0.00285496
0.000535986
0.00285512
0.000562513
0.00284167
0.00058847
0.00281984
0.000614472
0.00279336
0.000641815
0.0027651
0.000670726
0.00275048
0.000702071
0.00275413
0.000735584
0.00276159
0.000770263
0.00278502
0.000808488
0.00284903
0.000853178
0.0029451
0.000904249
0.00308521
0.000963363
0.00330136
0.00103392
0.00361543
0.00111629
0.00402924
0.00120818
0.00118485
0.000548783
4.19291e-05
0.0010276
0.000118569
0.00142457
0.000183166
0.00175669
0.000237773
0.00203722
0.000285325
0.0022718
0.000327774
0.00246283
0.000366275
0.00261609
0.000401812
0.00273743
0.000435215
0.00283073
0.000466978
0.00290189
0.000497716
0.00295528
0.000527908
0.00298728
0.000557295
0.00300472
0.000586367
0.00301692
0.000615772
0.00302444
0.000645549
0.00303242
0.000676572
0.00303
0.000708903
0.00302576
0.000743255
0.00303912
0.000781609
0.00306948
0.000823046
0.00312114
0.000866728
0.00320226
0.000915844
0.00332006
0.000973186
0.00348594
0.00103868
0.00370926
0.00111305
0.00403031
0.00119965
0.00449422
0.00129686
0.00508374
0.00139504
0.00139211
0.000560849
4.53101e-05
0.0010483
0.000128048
0.00145182
0.000197641
0.00179068
0.000256368
0.00207985
0.000307528
0.00232512
0.000353391
0.00252924
0.000395257
0.00269638
0.000434016
0.0028294
0.00047022
0.00293341
0.000504393
0.0030177
0.000537674
0.00308623
0.000570515
0.00313209
0.000602255
0.00316455
0.000633881
0.00319134
0.000666687
0.0032216
0.000700781
0.00325348
0.00073616
0.00327838
0.000772855
0.00331035
0.000812814
0.00335567
0.000857697
0.00341703
0.000906794
0.00352243
0.000960366
0.0036768
0.00102017
0.0038599
0.00108839
0.00410479
0.00116609
0.00443535
0.00125243
0.00488796
0.00134873
0.00551566
0.00144994
0.00630294
0.00154202
0.00153171
0.000574855
4.85973e-05
0.00107114
0.000137203
0.00148079
0.00021153
0.00182594
0.000274107
0.00212429
0.000328624
0.0023815
0.000377729
0.00259976
0.000422831
0.00278234
0.000464759
0.00292778
0.000503687
0.00304139
0.000539905
0.00313792
0.000575137
0.00321847
0.000610086
0.00328088
0.000644288
0.0033368
0.000679179
0.00338847
0.000715827
0.00344523
0.000753729
0.00349624
0.000792594
0.00354917
0.000833469
0.00362216
0.00087872
0.00370757
0.000929338
0.00381683
0.000985341
0.00397944
0.00104779
0.00420228
0.00111702
0.00446143
0.0011937
0.00480076
0.00127982
0.00526878
0.00137348
0.00587442
0.00147153
0.00666442
0.00156366
0.0076461
0.00162947
0.00154127
0.000591287
5.1709e-05
0.00109545
0.000145701
0.00150979
0.000224226
0.00186077
0.000290378
0.00216952
0.000348255
0.00243982
0.000400578
0.00267348
0.000448793
0.00287202
0.000493648
0.00302794
0.000534712
0.00315093
0.000572494
0.00326166
0.000609718
0.003358
0.00064729
0.0034404
0.000684455
0.00352109
0.000722312
0.00360143
0.000762184
0.00368695
0.000803549
0.00376764
0.000845431
0.00385217
0.000889402
0.00395943
0.000938613
0.00409048
0.000993944
0.00425571
0.00105516
0.00447383
0.00112377
0.00475407
0.00120019
0.00510227
0.00128327
0.00556584
0.00137456
0.00618116
0.0014712
0.00692894
0.00156395
0.00785229
0.00163668
0.00898004
0.00166325
0.00152285
0.000603453
5.41589e-05
0.00111737
0.000152842
0.00154044
0.000235737
0.00189932
0.000305849
0.0022177
0.000367107
0.00249923
0.000422182
0.00274773
0.000472908
0.00295997
0.00052005
0.00312507
0.000562949
0.00326259
0.000602809
0.00339308
0.000642696
0.00351002
0.000682921
0.00361224
0.00072229
0.00371485
0.000762224
0.00382171
0.00080466
0.00393021
0.000849056
0.00404685
0.000894003
0.00417463
0.000940311
0.00431713
0.000991578
0.00449464
0.00104993
0.0047209
0.00111421
0.00499672
0.00118507
0.00533454
0.00126383
0.00577904
0.00134897
0.00636687
0.00144026
0.00709006
0.00153449
0.00793442
0.00161927
0.00890323
0.00168268
0.00991421
0.00173107
0.00115245
0.000650221
-0.000163246
0.000888212
-6.20194e-05
0.00130621
-6.81532e-05
0.00192324
-8.28655e-05
0.00270765
-0.000100611
0.00359143
-0.000116516
0.00449975
-0.000128181
0.00536644
-0.000134845
0.00613743
-0.000137529
0.00677838
-0.000136511
0.00729198
-0.000130514
0.00769132
-0.000121216
0.00796756
-0.000111368
0.00811666
-9.96098e-05
0.00815919
-8.69086e-05
0.00812355
-7.66086e-05
0.00802127
-6.863e-05
0.00784654
-6.46118e-05
0.00759588
-6.26718e-05
0.00727272
-5.75157e-05
0.00687815
-5.02239e-05
0.00642686
-4.4057e-05
0.00589827
-4.0347e-05
0.00527161
-3.72691e-05
0.00458753
-3.22631e-05
0.00383962
-2.65114e-05
0.00299812
-2.11223e-05
0.00207159
-1.55747e-05
0.0010665
-9.69087e-06
-3.34332e-06
0.00078921
-2.60609e-05
0.00101395
-8.21329e-05
0.00144053
-0.000120289
0.0020727
-0.000161165
0.00286878
-0.000199543
0.00375735
-0.000231075
0.00466245
-0.00025325
0.00551905
-0.000265361
0.00627602
-0.000270035
0.00689613
-0.000268062
0.00739045
-0.000257822
0.00777362
-0.000241424
0.00803002
-0.000220676
0.00816372
-0.000196682
0.00819524
-0.000171368
0.00815233
-0.000149838
0.00804372
-0.000135336
0.0078641
-0.000125858
0.00761496
-0.000119064
0.00729226
-0.000110836
0.00689124
-9.94026e-05
0.00642787
-8.81145e-05
0.00589709
-8.00938e-05
0.00528202
-7.3185e-05
0.00459974
-6.39489e-05
0.00384507
-5.33165e-05
0.003001
-4.25402e-05
0.00207334
-3.13621e-05
0.00106734
-1.9508e-05
-6.72848e-06
0.000953915
-2.08706e-05
0.00121793
-0.000119557
0.00169071
-0.000183401
0.00236252
-0.00024591
0.00318697
-0.00030155
0.00408597
-0.000345915
0.0049816
-0.000375451
0.0058153
-0.000389537
0.00653923
-0.000392012
0.0071184
-0.000385975
0.0075752
-0.000371097
0.00792281
-0.000348813
0.00814571
-0.000320643
0.0082563
-0.000289478
0.00827067
-0.000257427
0.00821342
-0.000227281
0.00809289
-0.000204718
0.00790324
-0.000189305
0.00764976
-0.00017688
0.0073263
-0.000164629
0.00691592
-0.000150133
0.00643375
-0.000134281
0.00589857
-0.000120996
0.00529664
-0.000109516
0.00461777
-9.60555e-05
0.00385592
-8.05434e-05
0.00300729
-6.42499e-05
0.00207722
-4.73384e-05
0.00106927
-2.94341e-05
-1.01496e-05
0.00114668
-0.000163704
0.0014989
-0.000215208
0.00205283
-0.00027817
0.00279129
-0.000347394
0.00365922
-0.000412523
0.00456567
-0.000463364
0.00543927
-0.000494411
0.00623304
-0.000506099
0.00689922
-0.000502041
0.00742107
-0.000488069
0.00782834
-0.000467669
0.0081269
-0.000440653
0.00830987
-0.000408276
0.008392
-0.000374024
0.00839119
-0.000341644
0.00831668
-0.000310785
0.00817429
-0.000281623
0.0079686
-0.000258111
0.00770124
-0.000238328
0.00736908
-0.000218921
0.00694889
-0.000199277
0.0064477
-0.000178754
0.00590437
-0.000159617
0.00531323
-0.000142491
0.00463988
-0.000124256
0.00387179
-0.000103904
0.0030167
-8.26564e-05
0.00208307
-6.08375e-05
0.00107231
-3.782e-05
-1.30416e-05
0.00145163
-0.000344382
0.0018957
-0.000326642
0.00254538
-0.000387606
0.00337164
-0.000461502
0.00428463
-0.00053221
0.00518194
-0.000582888
0.00601823
-0.000609219
0.00675106
-0.000614626
0.00734529
-0.000603625
0.00779964
-0.000582288
0.00813855
-0.000553813
0.00837811
-0.000520103
0.00851492
-0.000483524
0.00855886
-0.000445247
0.00853904
-0.000410142
0.00844494
-0.000378651
0.0082727
-0.000345395
0.00804593
-0.000314
0.00776144
-0.000286789
0.00741167
-0.00026014
0.0069794
-0.00023456
0.00646628
-0.000210519
0.00591742
-0.000187548
0.00533509
-0.000165586
0.00466713
-0.000143287
0.00389108
-0.000119689
0.00302721
-9.51737e-05
0.00208972
-7.00117e-05
0.00107584
-4.35412e-05
-1.50206e-05
0.00189138
-0.000378718
0.00243229
-0.000415188
0.00319179
-0.000495751
0.00410594
-0.000580365
0.00504798
-0.000653093
0.00592099
-0.000699089
0.00670213
-0.000716526
0.0073496
-0.000711177
0.00786216
-0.000691059
0.00823383
-0.000662847
0.00848319
-0.000625997
0.00865493
-0.000583824
0.00873816
-0.000542218
0.0087374
-0.000500435
0.00868281
-0.000459756
0.00856229
-0.000422718
0.00836463
-0.000386437
0.00811745
-0.000351246
0.00782109
-0.000319813
0.00745261
-0.000289821
0.00700222
-0.000260291
0.00648411
-0.000232304
0.00594047
-0.000206003
0.0053635
-0.000181325
0.0046927
-0.000157098
0.00390802
-0.000131946
0.00303738
-0.000105466
0.00209665
-7.7769e-05
0.0010796
-4.84344e-05
-1.67214e-05
0.002463
-0.0003873
0.00313964
-0.000510143
0.00401629
-0.000615805
0.00498262
-0.000705234
0.00592104
-0.000769109
0.00676167
-0.000803805
0.0074604
-0.000809652
0.00799063
-0.000790384
0.00839259
-0.00075672
0.00866614
-0.000719034
0.0088321
-0.00067713
0.00892971
-0.000629794
0.00895583
-0.000583119
0.00891568
-0.00053954
0.00881934
-0.000496566
0.00866728
-0.000455315
0.0084501
-0.000416455
0.00818367
-0.000379027
0.00787742
-0.00034505
0.00749773
-0.000314156
0.00703353
-0.000283175
0.00651232
-0.000251929
0.00596964
-0.000222224
0.00538612
-0.000195363
0.00470442
-0.000169945
0.00391652
-0.000143491
0.00304636
-0.000115274
0.00210378
-8.53203e-05
0.0010836
-5.32401e-05
-1.83976e-05
0.00320974
-0.000537992
0.00405646
-0.000644365
0.00502892
-0.000756
0.00600053
-0.000834722
0.00688807
-0.000877555
0.00765903
-0.000891058
0.00823985
-0.000881038
0.00862821
-0.000848811
0.00889617
-0.000802687
0.00906957
-0.000755043
0.00916917
-0.000709067
0.00919569
-0.000660433
0.00916708
-0.000611401
0.00909078
-0.000566159
0.00895848
-0.00052272
0.00877621
-0.000480364
0.00853897
-0.000439902
0.00825237
-0.000400789
0.00793086
-0.000364829
0.00754474
-0.000332761
0.0070782
-0.000301267
0.00655616
-0.000269215
0.00600106
-0.000238172
0.00539791
-0.000209372
0.00470621
-0.00018196
0.0039204
-0.000153723
0.00305352
-0.000123738
0.00211012
-9.18041e-05
0.00108728
-5.73812e-05
-1.98457e-05
0.00417135
-0.000708831
0.00517318
-0.000795625
0.00620182
-0.000896939
0.0071339
-0.00095299
0.00791121
-0.000967461
0.00853769
-0.000953592
0.00897147
-0.000924015
0.00922685
-0.000881249
0.00937756
-0.000828753
0.00945895
-0.000775822
0.00948754
-0.000726219
0.00945313
-0.000676882
0.00937472
-0.000628108
0.00925884
-0.000582287
0.00909539
-0.000538647
0.00888692
-0.000496414
0.00863086
-0.000455982
0.008327
-0.000417097
0.0079863
-0.000380664
0.00759073
-0.000347414
0.00712465
-0.00031534
0.00660216
-0.000283288
0.00603349
-0.000251977
0.00541041
-0.000221926
0.00471027
-0.000192556
0.00392522
-0.000162537
0.00305943
-0.00013097
0.00211526
-9.73208e-05
0.00109026
-6.09074e-05
-2.10803e-05
0.00534132
-0.000823442
0.00645163
-0.000943632
0.00747825
-0.001022
0.00830436
-0.0010452
0.00891178
-0.00102687
0.00933398
-0.00098576
0.00960736
-0.000937513
0.0097559
-0.00088578
0.00981592
-0.000830804
0.00981871
-0.000777955
0.0097752
-0.000728568
0.00968821
-0.000679762
0.0095669
-0.000632295
0.00941461
-0.000587613
0.00922383
-0.000545157
0.00899333
-0.000504314
0.00872093
-0.000465096
0.00840394
-0.000427473
0.00804609
-0.000391807
0.00763794
-0.000358259
0.00716864
-0.000325866
0.00664283
-0.000293907
0.00606432
-0.000262486
0.00542731
-0.00023171
0.0047187
-0.000201118
0.00393136
-0.000169803
0.0030649
-0.000136947
0.00211958
-0.000101882
0.00109269
-6.38268e-05
-2.21036e-05
0.00671166
-0.00101281
0.007857
-0.00108225
0.00878589
-0.00112068
0.00942517
-0.00110135
0.00982196
-0.0010494
0.010031
-0.000986055
0.0101453
-0.000923976
0.0101972
-0.000866155
0.0101731
-0.000811457
0.0101116
-0.000761114
0.0100197
-0.000714675
0.00989256
-0.000669308
0.0097381
-0.000625238
0.00955701
-0.00058337
0.0093434
-0.000543362
0.00909427
-0.000504887
0.00880655
-0.000467786
0.00847741
-0.000431995
0.00810583
-0.00039765
0.00768561
-0.000364736
0.00721003
-0.000332739
0.00667882
-0.000301181
0.00609205
-0.000269933
0.005445
-0.000238886
0.00472913
-0.000207627
0.00393831
-0.000175462
0.0030701
-0.000141656
0.00212331
-0.000105494
0.00109468
-6.61481e-05
-2.2919e-05
0.0082495
-0.00116014
0.00930612
-0.00118073
0.0100221
-0.00117257
0.010413
-0.00110882
0.0105906
-0.00102856
0.0106253
-0.000951983
0.0106029
-0.000884679
0.010559
-0.000826644
0.0104633
-0.00077576
0.0103506
-0.000729844
0.0102261
-0.000687607
0.0100709
-0.000647297
0.00989154
-0.000608249
0.00968722
-0.000570592
0.00945395
-0.000534191
0.00918823
-0.000498888
0.00888635
-0.000464561
0.00854508
-0.000431146
0.0081616
-0.000398671
0.00773099
-0.000367072
0.00724815
-0.000336046
0.00671072
-0.000305262
0.00611673
-0.000274514
0.00546189
-0.000243596
0.00473986
-0.000212121
0.00394528
-0.000179511
0.00307484
-0.000145099
0.00212642
-0.000108171
0.00109626
-6.78823e-05
-2.35306e-05
0.00983801
-0.00118405
0.0106467
-0.00122715
0.0110639
-0.0011632
0.0111974
-0.00105821
0.0111849
-0.000960863
0.0111001
-0.000882289
0.0109837
-0.000819659
0.0108608
-0.000768428
0.0107172
-0.000724875
0.0105659
-0.00068608
0.010408
-0.000650277
0.0102287
-0.000616109
0.0100283
-0.000582863
0.00980461
-0.000550328
0.00955424
-0.000518387
0.00927361
-0.00048696
0.0089588
-0.000455987
0.00860619
-0.000425438
0.00821219
-0.000395314
0.00777237
-0.000365556
0.00728225
-0.000335974
0.00673852
-0.000306331
0.00613815
-0.000276414
0.00547695
-0.000245983
0.00474969
-0.000214676
0.00395154
-0.000181985
0.00307881
-0.000147302
0.00212882
-0.000109934
0.00109739
-6.90449e-05
-2.39442e-05
0.0113242
-0.00130282
0.0117635
-0.00122859
0.011853
-0.00106638
0.0117714
-0.000930331
0.0116228
-0.000838269
0.0114576
-0.000774966
0.0112845
-0.000728322
0.0111116
-0.000691183
0.0109354
-0.000659475
0.0107551
-0.000630738
0.0105681
-0.000603517
0.0103669
-0.000576877
0.010148
-0.000550315
0.00990783
-0.000523642
0.0096428
-0.000496805
0.0093491
-0.000469806
0.00902276
-0.000442662
0.0086599
-0.000415394
0.0082566
-0.000388023
0.0078086
-0.000360518
0.00731163
-0.000332767
0.00676194
-0.000304598
0.00615594
-0.000275821
0.00548945
-0.000246196
0.00475781
-0.000215389
0.00395649
-0.000182946
0.00308169
-0.000148308
0.00213035
-0.000110815
0.00109803
-6.96569e-05
-2.41672e-05
0.0129019
-0.00190721
0.0127059
-0.000713113
0.012433
-0.000702315
0.0121785
-0.000673369
0.0119423
-0.000649836
0.0117238
-0.000630615
0.0115152
-0.000613717
0.0113131
-0.000597801
0.0111129
-0.000582022
0.0109109
-0.000565815
0.0107033
-0.000548812
0.0104844
-0.000530782
0.01025
-0.000511629
0.00999607
-0.000491382
0.00971861
-0.000470129
0.00941369
-0.000447982
0.0090773
-0.000425043
0.0087054
-0.000401402
0.00829396
-0.000377119
0.00783877
-0.000352208
0.00733561
-0.000326614
0.00678053
-0.000300222
0.00616964
-0.000272873
0.00549878
-0.000244348
0.00476353
-0.000214343
0.0039596
-0.00018245
0.00308313
-0.000148156
0.00213086
-0.000110843
0.00109812
-6.97372e-05
-2.42065e-05
0.000628037
5.61665e-05
0.00117933
0.000159381
0.00163919
0.000247192
0.0020222
0.000321265
0.0023564
0.000385099
0.00265608
0.000442212
0.0029298
0.00049532
0.00316643
0.000545044
0.00335384
0.000590437
0.00351595
0.000632592
0.00366962
0.000674219
0.0038071
0.000715911
0.00393565
0.000757231
0.0040723
0.000799381
0.00420906
0.000843432
0.00434216
0.000889513
0.00449644
0.000937437
0.00467946
0.000986241
0.00487319
0.00103792
0.00510793
0.00109669
0.00541041
0.00116175
0.00576071
0.00123103
0.00618578
0.00130565
0.00674295
0.00138482
0.00744514
0.00146572
0.00826164
0.00154446
0.00919562
0.00161058
0.0102023
0.00166225
0.0111484
0.00172743
0.0017635
0.011174
0.000639507
5.80902e-05
0.00122524
0.000165552
0.00172034
0.000257656
0.00212352
0.000335028
0.00246945
0.000401359
0.00278641
0.000460981
0.00308618
0.000516933
0.00334957
0.000569465
0.00356142
0.000617086
0.00374514
0.000660588
0.00391597
0.000702948
0.00407104
0.000745777
0.00423113
0.000789441
0.00440494
0.0008339
0.00457146
0.00087849
0.00473484
0.000924459
0.00492482
0.000973754
0.00515258
0.00102448
0.0053966
0.0010759
0.00569311
0.00113239
0.00606227
0.00119488
0.00648593
0.00125913
0.00700489
0.00132403
0.007651
0.00138935
0.00841701
0.00145084
0.00927333
0.00150362
0.0102139
0.00154101
0.0111862
0.00156068
0.012127
0.00156743
0.00150554
0.0129459
0.000658485
6.02787e-05
0.00127274
0.000171699
0.00179578
0.000267097
0.00222344
0.000347469
0.00259179
0.000416739
0.00293233
0.000479059
0.00325678
0.000537203
0.00354349
0.000591483
0.00378017
0.000641024
0.0039902
0.000686395
0.00418114
0.000729459
0.00435853
0.000772601
0.00455119
0.000817608
0.00475528
0.000863801
0.00495543
0.000908993
0.00515686
0.000954059
0.00538794
0.00100247
0.00565219
0.0010532
0.00594293
0.00110324
0.00630638
0.00115497
0.00673574
0.00121055
0.00723106
0.00126622
0.00782588
0.00131877
0.00851927
0.00136725
0.00929657
0.00140809
0.0101282
0.00143707
0.0109894
0.00145019
0.0118314
0.00144284
0.0125926
0.00141307
0.00131165
0.0131717
0.000693466
6.28056e-05
0.00133073
0.000178266
0.00187526
0.000276502
0.00233029
0.000359489
0.00272544
0.000431183
0.00308951
0.000495452
0.00343433
0.000555066
0.00374234
0.000610704
0.00401081
0.000662358
0.00425296
0.000710125
0.00446343
0.000753816
0.00466333
0.000796115
0.00488676
0.000840888
0.00512212
0.000887781
0.00535577
0.000933678
0.00559534
0.000977837
0.00587239
0.00102345
0.00617682
0.00107152
0.00651913
0.00111855
0.00694402
0.00116418
0.00742611
0.00121039
0.007972
0.001255
0.00859705
0.00129474
0.00928838
0.00132776
0.0100294
0.00135122
0.010793
0.00136161
0.0115534
0.00135453
0.0122726
0.0013254
0.0129008
0.00127451
0.00116
0.0133571
0.00073878
6.51543e-05
0.00140014
0.000184366
0.0019647
0.000285139
0.00244443
0.000370228
0.00286166
0.000443626
0.00324811
0.000509279
0.00361862
0.000570398
0.00395524
0.000627657
0.00425847
0.000680905
0.00452763
0.000730165
0.00475421
0.000774601
0.00497976
0.000816375
0.00523883
0.000860078
0.00551133
0.000905972
0.00577525
0.000951069
0.00605367
0.000994012
0.00637775
0.00103636
0.00672713
0.00107951
0.00712096
0.00112147
0.00758624
0.00116073
0.00809933
0.00119781
0.0086636
0.00123134
0.00928141
0.00125895
0.00994122
0.00127865
0.0106271
0.00128771
0.0113179
0.00128259
0.0119891
0.00125948
0.0126053
0.00121695
0.0131307
0.00115643
0.00104246
0.0135063
0.000789416
6.74232e-05
0.00147533
0.000189975
0.00205831
0.00029265
0.00255899
0.000379252
0.0029971
0.000454032
0.00341314
0.000521236
0.00381728
0.000583903
0.00418452
0.000642169
0.00451587
0.000695877
0.0048067
0.000745473
0.00505688
0.000790664
0.00531882
0.000832886
0.00561595
0.000875402
0.00592126
0.000918802
0.00621873
0.000961326
0.00653858
0.00100191
0.00690094
0.00104084
0.007289
0.00107864
0.00771873
0.00111442
0.00820122
0.00114696
0.00872413
0.00117559
0.00928482
0.00119886
0.00987751
0.00121547
0.0104951
0.00122397
0.0111262
0.00122107
0.0117507
0.0012035
0.0123423
0.00116999
0.0128724
0.00112106
0.0133202
0.0010572
0.00094976
0.0136401
0.000836837
6.88638e-05
0.0015503
0.000193952
0.00215592
0.000298677
0.00268137
0.000387089
0.00314988
0.000463681
0.00360256
0.000532496
0.00403627
0.000595904
0.00442784
0.000654099
0.00478204
0.000707392
0.00509805
0.000756506
0.00538608
0.000801826
0.00568883
0.000844308
0.00601563
0.000885561
0.00634673
0.000926136
0.00667973
0.000965332
0.00703464
0.00100249
0.00742187
0.00103748
0.00783608
0.00107019
0.00828522
0.00109988
0.00877339
0.00112559
0.00929615
0.00114637
0.0098408
0.00116104
0.0103972
0.00116854
0.0109719
0.0011671
0.0115544
0.00115394
0.0121172
0.0011277
0.0126382
0.00108866
0.0130995
0.00103719
0.0134885
0.000973479
0.000874869
0.0137679
0.000869732
6.94761e-05
0.00162092
0.000196319
0.00226287
0.000303272
0.00282492
0.000393756
0.00333325
0.000472146
0.00381716
0.000541919
0.00427117
0.000605229
0.00468431
0.000662916
0.00506232
0.000715595
0.00540931
0.000763956
0.00573863
0.000808582
0.00607523
0.000850247
0.00642406
0.000889847
0.00677828
0.000927708
0.00714044
0.000963519
0.00752047
0.000996872
0.00792494
0.00102751
0.0083548
0.00105511
0.00881296
0.00107897
0.00929991
0.00109824
0.00981417
0.00111217
0.0103369
0.00111998
0.0108577
0.00111984
0.011393
0.00110953
0.0119284
0.00108852
0.0124337
0.00105714
0.0128952
0.00101546
0.0133018
0.000963649
0.0136453
0.000902156
0.000812761
0.0138939
0.00089959
6.99988e-05
0.00169403
0.000198141
0.00237971
0.000306641
0.00298385
0.000398551
0.00353101
0.00047804
0.00404057
0.000548281
0.00451414
0.000611354
0.00495039
0.000668413
0.00535436
0.000720262
0.00573279
0.000767616
0.00609692
0.000811093
0.0064611
0.000851308
0.00683097
0.000888811
0.00720652
0.000923804
0.00759066
0.000956135
0.00798884
0.000985501
0.00840546
0.00101167
0.00884324
0.00103433
0.00930279
0.00105277
0.00978203
0.00106615
0.0102795
0.0010738
0.0107807
0.00107493
0.0112764
0.00106793
0.0117739
0.00105151
0.01226
0.00102604
0.0127138
0.000992005
0.0131258
0.000949441
0.0134881
0.000898744
0.0137953
0.000840558
0.000759919
0.0140195
0.000936338
7.03063e-05
0.00177346
0.0001992
0.00250185
0.0003086
0.0031463
0.000401321
0.00372874
0.000481335
0.00426522
0.000551623
0.00476199
0.000614233
0.00522251
0.000670476
0.00565255
0.000721268
0.0060595
0.000767349
0.00645286
0.000809324
0.00684213
0.000847678
0.00723272
0.000882784
0.00762705
0.000914775
0.00802812
0.000943583
0.00843865
0.000968877
0.00886093
0.000990564
0.00930054
0.00100866
0.00975771
0.00102221
0.0102272
0.00103016
0.010706
0.00103198
0.0111853
0.00102708
0.0116566
0.00101484
0.0121171
0.000994803
0.0125577
0.000967027
0.0129672
0.000931844
0.0133377
0.000889622
0.0136635
0.000840931
0.0139408
0.000786523
0.00071388
0.0141449
0.00097704
7.03266e-05
0.00185664
0.000199367
0.00262649
0.000309045
0.0033096
0.000401999
0.0039261
0.000482022
0.00449078
0.000551957
0.00501257
0.000613834
0.00549798
0.000669046
0.00595339
0.000718553
0.0063863
0.000763114
0.00680534
0.000803332
0.00721723
0.000839561
0.00762684
0.000872098
0.00803713
0.000900998
0.00845173
0.000926394
0.0088689
0.000948216
0.00928882
0.000965924
0.0097271
0.000979394
0.0101825
0.000988055
0.0106419
0.000991075
0.0111022
0.000988109
0.0115569
0.00097887
0.0119996
0.000963084
0.0124255
0.000940575
0.012828
0.000911476
0.0131999
0.000876139
0.0135354
0.000835051
0.0138306
0.000788858
0.0140829
0.000738338
0.000672869
0.0142699
0.00102007
7.00142e-05
0.00194225
0.000198554
0.00275273
0.000307898
0.00347339
0.000400535
0.00412328
0.000480092
0.00471655
0.000549289
0.00526398
0.000610143
0.00577446
0.000664106
0.00625413
0.000712106
0.00671045
0.000754925
0.00715283
0.000793246
0.00758504
0.000827182
0.00801172
0.000857118
0.00843327
0.000883378
0.00885302
0.000905725
0.00927354
0.000924315
0.00969334
0.000938452
0.0101305
0.000947317
0.0105813
0.000951199
0.0110277
0.000950034
0.0114679
0.000943384
0.0118976
0.000931003
0.0123121
0.000912778
0.0127068
0.000888743
0.0130764
0.000859124
0.0134161
0.000824317
0.0137219
0.000784851
0.013991
0.000741381
0.0142218
0.000694649
0.000635547
0.0143937
0.00106433
6.93408e-05
0.00202917
0.0001967
0.00287968
0.000305107
0.00363718
0.000396905
0.00432015
0.000475557
0.00494173
0.000543633
0.00551429
0.00060315
0.00605004
0.000655682
0.00655266
0.000701958
0.00702874
0.000742784
0.00749382
0.00077927
0.00794321
0.000811252
0.00837825
0.000838633
0.00880684
0.000862257
0.00922898
0.000881736
0.00965489
0.000896591
0.0100836
0.000906839
0.0105181
0.000912012
0.0109562
0.000912295
0.0113862
0.000907862
0.0118058
0.000898386
0.0122116
0.000883738
0.0125997
0.000863933
0.0129661
0.000839124
0.0133071
0.000809606
0.013619
0.0007758
0.0138992