/*--------------------------------*- C++ -*----------------------------------*\
| =========                 |                                                 |
| \\      /  F ield         | OpenFOAM: The Open Source CFD Toolbox           |
|  \\    /   O peration     | Version:  5.x                                   |
|   \\  /    A nd           | Web:      www.OpenFOAM.org                      |
|    \\/     M anipulation  |                                                 |
\*---------------------------------------------------------------------------*/
FoamFile
{
    version     2.0;
    format      ascii;
    class       surfaceVectorField;
    location    "0.7";
    object      Uf;
}
// * * * * * * * * * * * * * * * * * * * * * * * * * * * * * * * * * * * * * //

dimensions      [0 1 -1 0 0 0 0];

internalField   nonuniform List<vector> 
5457
(
(9.91534 0.0238865 0)
(9.95991 0.037314 -6.73428e-20)
(9.81789 0.0302401 0)
(9.92397 0.0444083 1.37263e-20)
(9.70704 0.035535 2.96029e-20)
(9.85891 0.0523928 0)
(9.58011 0.0411171 5.91815e-20)
(9.76793 0.0621742 3.61768e-22)
(9.43715 0.046941 -3.34115e-20)
(9.65861 0.0725452 -2.90795e-20)
(9.27839 0.0530387 -2.84539e-20)
(9.5334 0.0834149 -1.42221e-21)
(9.10363 0.0595493 3.15215e-20)
(9.39185 0.0950328 -3.05629e-20)
(8.91234 0.066606 -3.46157e-20)
(9.23306 0.107628 -3.20219e-20)
(8.7038 0.0743209 -6.99311e-20)
(9.0563 0.12137 -1.01534e-19)
(8.47715 0.0828085 2.64517e-21)
(8.86089 0.136418 1.35957e-19)
(8.23136 0.0921975 3.65666e-20)
(8.64594 0.152963 1.42756e-21)
(7.96525 0.102623 0)
(8.41038 0.171214 -7.41532e-20)
(7.67753 0.11422 0)
(8.15302 0.191368 -7.71431e-20)
(7.36683 0.127129 -4.52801e-20)
(7.87253 0.213614 -3.24239e-19)
(7.03174 0.14149 -2.36043e-19)
(7.5675 0.238135 1.00895e-18)
(6.67084 0.157438 1.35964e-20)
(7.23648 0.265085 -8.88256e-19)
(6.2828 0.175084 1.93727e-19)
(6.87805 0.294568 1.96802e-19)
(5.86642 0.194507 -1.12997e-19)
(6.49087 0.326601 0)
(5.42083 0.215749 -5.94659e-19)
(6.07368 0.361083 1.95188e-19)
(4.94548 0.238772 -8.85728e-20)
(5.62561 0.397792 -6.93779e-19)
(4.44045 0.263386 5.09261e-19)
(5.14634 0.436262 4.91356e-19)
(3.90665 0.289215 1.3402e-19)
(4.63597 0.475622 2.21857e-18)
(3.34617 0.315661 -1.28809e-18)
(4.0955 0.514588 -2.06464e-18)
(2.76249 0.341761 1.24797e-19)
(3.52737 0.551399 1.23795e-18)
(2.16101 0.365794 1.54017e-18)
(2.93552 0.583524 1.68503e-18)
(1.54994 0.383759 1.85046e-19)
(2.32605 0.607141 4.4972e-20)
(0.942735 0.380084 2.23433e-19)
(1.70756 0.61527 -2.75962e-18)
(0.370415 0.267141 -1.84049e-20)
(1.09388 0.586282 3.58275e-20)
(-0.0346788 -0.100099 -2.35334e-19)
(0.477447 0.410449 -3.59409e-20)
(0.193175 -0.0236991 7.64275e-18)
(10.0001 0.0476627 -5.22425e-20)
(9.98885 0.0372793 -1.34773e-20)
(9.96706 0.0632425 1.34838e-20)
(9.97991 0.0594772 1.37273e-20)
(9.91393 0.0771208 -2.92309e-20)
(9.94556 0.0775206 0)
(9.84261 0.092047 -8.84047e-20)
(9.88568 0.0971346 -1.43148e-19)
(9.75304 0.107924 3.37956e-21)
(9.80667 0.118024 5.85872e-20)
(9.64532 0.124787 -4.01282e-21)
(9.71113 0.140046 -1.20042e-19)
(9.51933 0.142933 -9.4136e-20)
(9.59887 0.163586 1.24134e-19)
(9.37467 0.162661 -1.00087e-19)
(9.46917 0.189076 -3.17162e-20)
(9.21071 0.184226 1.08238e-19)
(9.32144 0.216854 -2.6494e-19)
(9.0267 0.207896 1.32574e-19)
(9.15511 0.247249 3.07678e-19)
(8.82167 0.233971 -1.10519e-19)
(8.96937 0.280661 -3.57489e-20)
(8.59448 0.262754 -1.51355e-19)
(8.76329 0.317517 1.44521e-19)
(8.34387 0.294534 -4.05336e-19)
(8.53581 0.358217 -7.618e-19)
(8.06849 0.329592 7.51112e-19)
(8.28568 0.403161 3.00478e-19)
(7.76688 0.368188 3.27098e-19)
(8.01157 0.452746 1.05387e-18)
(7.43756 0.410522 -6.88256e-19)
(7.71206 0.507322 -6.99287e-19)
(7.07905 0.456695 0)
(7.38568 0.567145 1.77636e-19)
(6.68998 0.506661 3.11343e-19)
(7.03099 0.632331 -1.50032e-18)
(6.26914 0.560177 8.29912e-20)
(6.64651 0.702752 8.86954e-20)
(5.81573 0.616744 -9.63645e-20)
(6.23091 0.777992 1.61569e-18)
(5.3294 0.675396 2.22563e-18)
(5.78341 0.857234 1.63456e-18)
(4.81054 0.734531 -3.78455e-20)
(5.30345 0.938914 5.14973e-20)
(4.26059 0.791826 5.04279e-19)
(4.79096 1.0205 -2.30557e-18)
(3.68254 0.843939 2.80505e-18)
(4.24702 1.09833 2.25714e-18)
(3.08157 0.885733 1.73044e-19)
(3.67398 1.16702 3.17018e-19)
(2.46636 0.908325 -2.92392e-18)
(3.07577 1.21796 -5.05695e-18)
(1.85189 0.892951 -2.93333e-18)
(2.45765 1.23561 7.42196e-18)
(1.25975 0.793588 1.8081e-20)
(1.82483 1.18729 -6.16661e-18)
(0.657216 0.534384 7.99378e-18)
(1.15336 1.01374 -1.14624e-17)
(0.632672 0.659012 2.1719e-17)
(9.99273 0.052323 5.30206e-20)
(9.98649 0.0404835 5.3891e-20)
(9.96294 0.0769043 0)
(9.97498 0.0730486 0)
(9.91321 0.100243 -1.1642e-19)
(9.94157 0.101025 -2.07693e-22)
(9.84651 0.125055 7.318e-21)
(9.8845 0.129807 -1.14632e-19)
(9.76328 0.151507 -6.78618e-20)
(9.80912 0.160261 1.17209e-19)
(9.66353 0.179734 1.21868e-20)
(9.71805 0.192458 -2.41595e-19)
(9.54719 0.210154 1.83985e-19)
(9.61134 0.226861 6.79675e-19)
(9.414 0.243209 -2.00391e-19)
(9.48845 0.264033 -4.42196e-19)
(9.26354 0.279311 -5.62031e-20)
(9.34897 0.304458 -1.97374e-19)
(9.09517 0.318912 1.33822e-19)
(9.19245 0.34864 1.19092e-21)
(8.90808 0.362513 2.22187e-19)
(9.01824 0.397176 0)
(8.70133 0.410619 -4.80382e-19)
(8.82566 0.450666 7.47349e-20)
(8.47386 0.463727 -3.92183e-20)
(8.61392 0.509698 6.36151e-20)
(8.22448 0.522344 6.15132e-19)
(8.38199 0.574893 -1.42382e-19)
(7.95186 0.586944 0)
(8.12882 0.646876 1.1303e-18)
(7.6546 0.657918 1.8042e-19)
(7.85321 0.726215 -1.3222e-18)
(7.33122 0.735532 -1.34868e-18)
(7.5539 0.81337 -1.68367e-19)
(6.9802 0.819831 -1.69971e-18)
(7.22955 0.908664 -1.68115e-18)
(6.60001 0.910519 1.644e-18)
(6.87873 1.01212 2.4368e-18)
(6.18923 1.00688 3.34811e-18)
(6.49984 1.12332 -4.84149e-18)
(5.74681 1.10752 -5.6183e-19)
(6.09161 1.24128 1.68405e-18)
(5.27198 1.21002 -2.24848e-18)
(5.65276 1.36416 1.38515e-18)
(4.76443 1.31063 -4.94477e-19)
(5.18188 1.48872 -1.29055e-20)
(4.22478 1.40392 -2.53545e-19)
(4.67789 1.61002 -2.55177e-19)
(3.65469 1.48183 -4.96922e-18)
(4.14002 1.7209 -2.52864e-19)
(3.05653 1.5318 5.39679e-18)
(3.56736 1.81072 -4.65638e-18)
(2.4306 1.53341 4.12183e-18)
(2.95733 1.86359 1.04798e-17)
(1.76463 1.45575 -1.76669e-17)
(2.30404 1.856 -1.50846e-17)
(1.0073 1.26904 2.82561e-18)
(1.56326 1.76516 -1.23759e-17)
(0.865948 1.56678 2.50266e-17)
(9.98849 0.0615218 0)
(9.98513 0.0455574 0)
(9.95868 0.0963348 -2.1138e-22)
(9.97178 0.0866393 2.72266e-19)
(9.90977 0.129739 -4.59845e-22)
(9.93812 0.124154 -5.59428e-20)
(9.84406 0.164233 -8.03944e-22)
(9.88204 0.162009 1.13444e-19)
(9.76236 0.200538 -6.26086e-20)
(9.80812 0.201745 3.48805e-19)
(9.66474 0.239069 4.41323e-19)
(9.71885 0.243787 -4.17931e-19)
(9.55117 0.280389 3.496e-20)
(9.6144 0.288666 4.93157e-19)
(9.42156 0.325084 -4.35228e-19)
(9.49442 0.337021 -8.22008e-19)
(9.27567 0.37374 -1.36763e-19)
(9.35863 0.389459 2.54276e-19)
(9.11303 0.426996 -1.32689e-19)
(9.20662 0.44666 3.95597e-19)
(8.93307 0.485529 -1.463e-19)
(9.03789 0.509359 5.52615e-19)
(8.73514 0.550019 6.18675e-19)
(8.85208 0.57827 -1.42029e-18)
(8.51852 0.621172 -4.26181e-20)
(8.64858 0.654145 1.18532e-18)
(8.28233 0.699718 3.9237e-19)
(8.42665 0.737786 -9.18396e-19)
(8.02563 0.78636 -2.29611e-19)
(8.18555 0.830011 9.75278e-19)
(7.74736 0.881722 -1.65399e-18)
(7.92445 0.931585 3.10496e-19)
(7.44638 0.986304 -5.23562e-19)
(7.64239 1.04317 -1.51725e-18)
(7.12146 1.10039 2.51819e-18)
(7.33835 1.1653 2.81526e-18)
(6.77117 1.22387 -4.15639e-18)
(7.0112 1.29827 1.32602e-19)
(6.394 1.35607 -6.41982e-18)
(6.65956 1.44184 -6.30325e-18)
(5.98837 1.49559 3.62808e-18)
(6.2819 1.59515 5.54619e-19)
(5.55259 1.63982 3.60707e-18)
(5.87642 1.75647 3.01685e-18)
(5.08468 1.78448 2.23894e-19)
(5.44085 1.92259 6.52556e-19)
(4.58239 1.92328 -2.54263e-19)
(4.97219 2.0884 0)
(4.0429 2.04724 1.98051e-20)
(4.46656 2.24658 7.27713e-18)
(3.46147 2.14387 5.45168e-19)
(3.91869 2.38717 -1.54946e-17)
(2.82826 2.19632 -8.86938e-18)
(3.32012 2.49734 8.05943e-18)
(2.12283 2.18607 -9.78335e-18)
(2.66002 2.56128 -9.11252e-18)
(1.31063 2.1082 1.04599e-17)
(1.89516 2.56871 -9.49509e-20)
(1.08439 2.52436 1.22956e-17)
(9.98634 0.0713199 2.76671e-19)
(9.98437 0.0515789 0)
(9.95601 0.114833 2.10701e-19)
(9.97003 0.100481 5.48373e-20)
(9.90783 0.157119 6.08842e-20)
(9.93635 0.146951 -5.61891e-20)
(9.84323 0.200472 4.67097e-19)
(9.88124 0.19369 2.27297e-19)
(9.76303 0.246039 -1.94381e-20)
(9.80886 0.242496 1.18323e-19)
(9.66736 0.294466 -3.51e-19)
(9.72154 0.294126 -4.76016e-19)
(9.55625 0.346394 -3.85507e-19)
(9.61946 0.349191 -2.45366e-19)
(9.42965 0.402492 -1.14935e-19)
(9.50242 0.408386 6.18014e-19)
(9.28736 0.463474 7.89056e-19)
(9.37014 0.472451 -2.56444e-19)
(9.12902 0.530102 1.08363e-18)
(9.22218 0.542211 1.14989e-21)
(8.95421 0.603152 -7.52525e-19)
(9.05827 0.618484 5.47233e-19)
(8.76248 0.683422 -8.13307e-19)
(8.87815 0.702088 -1.98396e-18)
(8.55328 0.771756 2.76936e-19)
(8.68131 0.793911 1.72731e-18)
(8.32602 0.869039 -3.06465e-19)
(8.46724 0.894886 1.47466e-19)
(8.08005 0.976146 1.50557e-18)
(8.23539 1.00598 -1.08456e-18)
(7.81461 1.09388 4.21135e-19)
(7.98526 1.12812 2.57885e-18)
(7.52891 1.22293 1.88663e-18)
(7.7161 1.26213 -3.81648e-18)
(7.22204 1.36382 3.90701e-19)
(7.42712 1.40877 8.43623e-18)
(6.89292 1.51672 -2.10605e-18)
(7.11748 1.56856 -4.97529e-18)
(6.54018 1.68125 7.72035e-19)
(6.7861 1.74162 2.95098e-18)
(6.162 1.85622 -2.68986e-20)
(6.4315 1.92747 -2.99097e-18)
(5.75616 2.03935 2.80684e-20)
(6.05153 2.12471 5.89862e-18)
(5.31954 2.22673 4.21163e-19)
(5.64355 2.33077 -1.29969e-17)
(4.84769 2.41244 7.61643e-18)
(5.20342 2.54135 6.73204e-18)
(4.33443 2.58835 -8.45297e-18)
(4.72511 2.75011 7.98537e-18)
(3.77085 2.74405 -7.81873e-18)
(4.20071 2.94882 -8.42958e-18)
(3.14366 2.86709 7.75404e-18)
(3.61895 3.12754 5.93751e-19)
(2.43261 2.94433 5.96979e-19)
(2.96739 3.27453 0)
(1.61912 2.97852 1.95386e-18)
(2.21767 3.37671 6.57071e-20)
(1.31989 3.46985 1.92772e-17)
(9.98527 0.0815074 -2.21007e-19)
(9.98389 0.0580732 -5.33201e-20)
(9.95468 0.13321 -2.14111e-19)
(9.96922 0.114449 -5.53476e-20)
(9.90741 0.184179 1.15138e-19)
(9.93592 0.169338 1.0932e-19)
(9.84421 0.236418 -1.23334e-19)
(9.88197 0.224714 3.38879e-19)
(9.76582 0.291251 -3.4831e-19)
(9.81135 0.282365 -5.76734e-19)
(9.67247 0.349484 -3.66532e-19)
(9.72632 0.343292 3.51511e-19)
(9.56423 0.411824 7.72432e-19)
(9.62705 0.408218 -7.26157e-19)
(9.44105 0.47903 4.62565e-19)
(9.51342 0.477908 9.97696e-19)
(9.30274 0.551937 -1.04055e-18)
(9.38508 0.553238 -1.39968e-18)
(9.14901 0.631407 -5.27012e-19)
(9.24166 0.635129 7.71215e-19)
(8.97955 0.71831 -7.23788e-19)
(9.08306 0.724463 -5.38059e-19)
(8.79399 0.81356 6.14388e-19)
(8.909 0.822169 -4.31782e-19)
(8.59191 0.91812 1.57415e-18)
(8.71908 0.929249 1.29149e-18)
(8.37288 1.03299 -6.49314e-19)
(8.51291 1.04673 2.98338e-19)
(8.13646 1.1592 4.27653e-20)
(8.29007 1.17567 -9.29582e-19)
(7.88211 1.29772 -1.75401e-18)
(8.05027 1.31718 9.4476e-19)
(7.60918 1.44943 2.9105e-18)
(7.79289 1.47229 -2.64765e-18)
(7.31695 1.61505 2.88258e-18)
(7.5172 1.64189 5.44523e-18)
(7.00458 1.79507 1.93219e-19)
(7.22261 1.82676 -2.45382e-18)
(6.67087 1.98952 -8.91718e-19)
(6.90813 2.02738 2.9285e-18)
(6.31403 2.19769 3.05038e-18)
(6.57247 2.24383 -9.21986e-18)
(5.93157 2.41791 -7.35987e-18)
(6.21344 2.47529 1.22831e-17)
(5.51987 2.64723 -6.47812e-18)
(5.82803 2.72003 -1.38425e-17)
(5.07332 2.88094 7.11682e-18)
(5.41189 2.97517 6.75119e-18)
(4.58398 3.11252 7.88234e-18)
(4.95812 3.23595 2.14967e-20)
(4.04126 3.33381 7.12179e-20)
(4.45755 3.49591 7.3998e-18)
(3.43143 3.53536 -7.18734e-18)
(3.89815 3.74712 -7.24183e-18)
(2.73492 3.70384 -5.32638e-19)
(3.26532 3.98057 1.48831e-17)
(1.94536 3.84383 1.78493e-17)
(2.55939 4.17012 -1.56302e-17)
(1.58516 4.39938 3.55647e-17)
(9.98482 0.0918618 1.12534e-19)
(9.98358 0.0647695 -1.87869e-22)
(9.95435 0.151371 2.71153e-19)
(9.96904 0.128368 -2.15563e-19)
(9.90815 0.210676 3.3705e-19)
(9.93641 0.191237 -2.26763e-22)
(9.8466 0.271519 -1.30073e-19)
(9.88386 0.254962 1.10464e-21)
(9.77035 0.335285 1.38683e-19)
(9.8153 0.321187 -3.46598e-19)
(9.67974 0.402929 -2.57957e-20)
(9.73291 0.391079 7.03715e-19)
(9.57483 0.475266 -4.72997e-19)
(9.63691 0.4655 -2.41645e-19)
(9.45558 0.55316 -9.03337e-19)
(9.52715 0.545317 -2.44104e-19)
(9.32181 0.637545 4.46639e-19)
(9.40325 0.631507 -6.38256e-19)
(9.17333 0.729366 7.40231e-19)
(9.26501 0.725044 -2.44967e-19)
(9.00988 0.829584 -2.4439e-19)
(9.11239 0.826902 -5.42768e-19)
(8.83116 0.939215 2.71644e-19)
(8.94511 0.93812 2.44212e-18)
(8.63681 1.05931 0)
(8.76284 1.05979 -8.29438e-19)
(8.4265 1.19097 0)
(8.56527 1.19301 1.43425e-18)
(8.19991 1.33534 0)
(8.35207 1.33894 1.19492e-18)
(7.95663 1.49359 0)
(8.12298 1.49887 -2.40282e-18)
(7.69607 1.66675 0)
(7.87754 1.67402 2.49908e-18)
(7.41762 1.85575 -3.27835e-21)
(7.61512 1.86546 -2.54115e-18)
(7.12056 2.06137 3.54532e-19)
(7.33519 2.07417 -3.33413e-19)
(6.80379 2.28415 -5.56077e-18)
(7.03678 2.30102 6.89157e-19)
(6.46558 2.52406 2.72951e-19)
(6.71878 2.54675 -6.53292e-18)
(6.1033 2.7802 5.5122e-18)
(6.37908 2.81133 5.62756e-18)
(5.71323 3.05083 -3.8031e-19)
(6.01425 3.09391 -5.90722e-18)
(5.28971 3.33286 -4.2127e-19)
(5.62031 3.39314 -4.02788e-20)
(4.82427 3.62156 -4.14254e-19)
(5.1906 3.7061 1.19943e-17)
(4.30594 3.91055 -8.86632e-21)
(4.71555 4.02794 -1.83777e-17)
(3.72167 4.19214 1.49667e-17)
(4.18371 4.35191 2.54869e-17)
(3.05143 4.44997 -1.72638e-19)
(3.57552 4.67207 1.33314e-18)
(2.29934 4.68881 3.37172e-18)
(2.93429 4.94098 -1.55798e-17)
(1.88589 5.30532 1.76344e-17)
(9.98476 0.102205 -3.31821e-19)
(9.98339 0.0714901 5.31672e-20)
(9.9547 0.169198 -4.83062e-19)
(9.9693 0.142114 -3.77914e-19)
(9.90974 0.236476 -3.36236e-19)
(9.93758 0.21257 1.0809e-19)
(9.85014 0.305612 -2.21414e-19)
(9.88668 0.284283 -4.47159e-19)
(9.77642 0.37799 2.35977e-19)
(9.82051 0.358774 2.25682e-19)
(9.68893 0.45469 4.72391e-19)
(9.74111 0.437281 4.64365e-19)
(9.5878 0.53665 -1.26629e-20)
(9.64878 0.520809 2.39324e-19)
(9.47295 0.624831 1.48221e-20)
(9.54329 0.610352 -1.64106e-21)
(9.3443 0.720231 -1.32389e-18)
(9.42437 0.706931 4.98358e-19)
(9.20174 0.823873 -1.53348e-18)
(9.29195 0.811568 -1.29325e-18)
(9.04505 0.936822 2.1898e-18)
(9.14598 0.92536 -1.05416e-18)
(8.87393 1.06019 1.29275e-18)
(8.98618 1.04946 2.96254e-18)
(8.68812 1.1951 6.38237e-19)
(8.81232 1.18501 -1.10394e-18)
(8.48735 1.34274 2.62719e-18)
(8.6242 1.3332 1.43367e-18)
(8.27132 1.5044 -1.25919e-18)
(8.42148 1.49532 1.19633e-18)
(8.03968 1.68142 1.63973e-19)
(8.20392 1.67277 -3.9821e-20)
(7.79202 1.87502 -1.09456e-19)
(7.97123 1.86698 2.52814e-18)
(7.52777 2.08634 -2.84512e-18)
(7.72291 2.07922 -5.00687e-18)
(7.24621 2.31646 1.38672e-20)
(7.45833 2.31072 -3.30826e-19)
(6.94633 2.56644 -3.66819e-19)
(7.17654 2.56275 9.82665e-21)
(6.62648 2.83704 -1.03641e-18)
(6.8766 2.8367 -6.81816e-19)
(6.28392 3.12825 -5.93517e-18)
(6.5566 3.13353 5.11839e-18)
(5.91496 3.43954 -5.52001e-18)
(6.21289 3.4533 -6.19445e-18)
(5.51446 3.76957 1.25e-17)
(5.84173 3.79598 -1.3735e-20)
(5.0744 4.11529 -6.1939e-18)
(5.43732 4.16058 1.8289e-17)
(4.58397 4.47162 7.37762e-18)
(4.99036 4.54378 -3.10539e-17)
(4.03134 4.83209 1.17389e-17)
(4.49096 4.93915 2.59883e-17)
(3.39507 5.17568 -1.40431e-17)
(3.91048 5.34502 -2.56263e-17)
(2.68863 5.50455 -4.21302e-19)
(3.34797 5.68489 1.23707e-17)
(2.22301 6.18001 4.13608e-19)
(9.98497 0.112408 0)
(9.98326 0.0781208 0)
(9.95558 0.186589 2.22033e-19)
(9.9699 0.155562 -1.0694e-19)
(9.91208 0.261469 -1.23842e-20)
(9.93934 0.233237 -3.25286e-19)
(9.85469 0.338549 1.12496e-20)
(9.89032 0.312555 4.40429e-19)
(9.78382 0.419195 4.58075e-19)
(9.82679 0.39496 1.61876e-21)
(9.69982 0.504575 2.27592e-19)
(9.75073 0.481717 1.11105e-21)
(9.60283 0.595744 2.46494e-19)
(9.6624 0.573951 -2.34113e-19)
(9.49287 0.693741 4.89917e-19)
(9.56161 0.672748 2.42679e-19)
(9.36992 0.799623 5.01633e-19)
(9.44823 0.779175 -2.42275e-19)
(9.2339 0.914502 -8.09833e-19)
(9.32219 0.89434 4.83139e-21)
(9.0846 1.03955 -2.2223e-19)
(9.18339 1.01945 -1.04489e-18)
(8.9218 1.17595 5.05549e-19)
(9.03172 1.15575 1.05787e-18)
(8.74531 1.32491 -2.72033e-19)
(8.86704 1.30442 -2.42584e-18)
(8.55494 1.48772 -2.00269e-21)
(8.68919 1.46675 1.90368e-18)
(8.35041 1.66577 2.4002e-18)
(8.49788 1.64415 0)
(8.13148 1.86057 2.36238e-18)
(8.29296 1.83815 2.65464e-18)
(7.89781 2.07358 -2.46983e-18)
(8.07418 2.05033 2.5191e-20)
(7.64884 2.3062 -2.43304e-18)
(7.84116 2.2823 -1.87134e-18)
(7.38379 2.55982 -3.30837e-19)
(7.59322 2.53559 4.29897e-18)
(7.10175 2.83602 -3.13514e-19)
(7.3294 2.81181 -2.88494e-19)
(6.80128 3.13639 5.54384e-18)
(7.0488 3.11292 -4.40964e-18)
(6.47981 3.4619 4.76463e-18)
(6.74995 3.44095 6.77715e-18)
(6.13359 3.81318 -6.20104e-19)
(6.42952 3.79709 -5.25551e-18)
(5.75792 4.1905 5.91601e-18)
(6.08354 4.18243 5.35115e-18)
(5.34582 4.59244 -6.90398e-18)
(5.70714 4.59771 1.66646e-17)
(4.88695 5.01491 -1.21725e-17)
(5.29168 5.04139 -3.45642e-17)
(4.37056 5.45233 -1.16646e-17)
(4.82958 5.50665 4.64644e-19)
(3.77299 5.87859 7.78356e-19)
(4.27818 5.99745 -1.2252e-17)
(3.11316 6.28947 1.28334e-17)
(3.80182 6.40302 2.47501e-17)
(2.59531 7.02401 -1.20117e-17)
(9.98536 0.122359 -1.08686e-19)
(9.98316 0.084579 4.19997e-19)
(9.95694 0.203434 -6.58178e-19)
(9.97076 0.168583 -1.06979e-19)
(9.91508 0.285551 1.40661e-19)
(9.9416 0.253147 -1.10845e-19)
(9.8601 0.370195 4.23512e-19)
(9.89464 0.339683 4.35018e-21)
(9.79237 0.458731 -4.55521e-19)
(9.83401 0.429603 -6.73604e-19)
(9.71219 0.552387 -4.64554e-19)
(9.76159 0.524211 6.81825e-19)
(9.61976 0.652302 -2.30457e-19)
(9.6776 0.624705 1.07741e-21)
(9.51517 0.759594 -4.97301e-19)
(9.58195 0.732232 -4.72753e-19)
(9.39843 0.875394 -7.35677e-19)
(9.47456 0.847952 -4.8857e-19)
(9.26943 1.0009 -2.45913e-19)
(9.35533 0.97307 -2.21337e-21)
(9.12807 1.13736 2.66457e-19)
(9.22424 1.10884 -2.51087e-19)
(8.97428 1.28603 -1.92473e-18)
(9.08134 1.25655 5.18962e-19)
(8.80794 1.44819 -1.89678e-19)
(8.92666 1.41749 -2.41539e-18)
(8.62887 1.62524 1.88092e-18)
(8.75995 1.59303 2.17458e-18)
(8.43691 1.8187 2.88935e-19)
(8.581 1.7847 0)
(8.23187 2.03023 2.81539e-19)
(8.38976 1.99414 2.24399e-18)
(8.01346 2.26152 6.02342e-19)
(8.186 2.22315 -1.69748e-18)
(7.78115 2.51432 4.94208e-18)
(7.96957 2.47363 -4.62864e-18)
(7.53421 2.79037 4.2966e-18)
(7.73986 2.74748 9.58606e-18)
(7.27164 3.09168 -4.43186e-18)
(7.49592 3.04672 -4.75084e-18)
(6.9923 3.42062 -3.07657e-18)
(7.23673 3.37376 3.97168e-19)
(6.69417 3.77935 -3.36545e-18)
(6.96122 3.73153 6.77028e-19)
(6.37363 4.16965 8.02825e-19)
(6.66694 4.12271 -4.00358e-18)
(6.02611 4.59322 1.62099e-17)
(6.34985 4.54953 5.34509e-18)
(5.64568 5.05037 -1.132e-17)
(6.00552 5.01422 1.08583e-17)
(5.2225 5.53802 -2.17766e-17)
(5.62606 5.51748 -3.20381e-17)
(4.74637 6.05143 -1.37472e-19)
(5.20696 6.05194 2.1008e-19)
(4.18999 6.56096 1.15724e-17)
(4.68669 6.6292 9.94498e-18)
(3.57097 7.05713 -1.3922e-18)
(4.30132 7.10447 1.225e-17)
(3.00654 7.87079 -1.24489e-17)
(9.98589 0.131969 4.13292e-19)
(9.98313 0.0908045 4.18805e-19)
(9.95863 0.219632 4.40553e-19)
(9.97177 0.181085 0)
(9.91862 0.308626 -2.45186e-19)
(9.94423 0.272207 8.62123e-19)
(9.86626 0.400435 -1.10442e-18)
(9.89959 0.365562 -4.40732e-19)
(9.80193 0.496442 4.86129e-19)
(9.84207 0.462571 -6.70313e-19)
(9.7259 0.597929 1.13687e-18)
(9.77353 0.564592 9.1259e-19)
(9.6384 0.706097 -2.4865e-19)
(9.69422 0.672861 -2.26151e-19)
(9.53957 0.822135 -4.64329e-19)
(9.60407 0.788592 -5.31243e-21)
(9.42943 0.947264 2.52538e-19)
(9.50302 0.913038 2.40771e-19)
(9.30796 1.08273 -1.09145e-20)
(9.39108 1.04746 2.47663e-19)
(9.17517 1.22983 1.24127e-20)
(9.2683 1.19314 -2.4958e-19)
(9.03114 1.3899 -1.24802e-20)
(9.13484 1.35139 -1.01152e-18)
(8.87578 1.56433 1.24581e-20)
(8.99085 1.52363 7.65859e-19)
(8.70895 1.75462 2.63331e-19)
(8.83604 1.71139 3.84576e-21)
(8.53049 1.96241 1.98503e-18)
(8.67036 1.91627 0)
(8.34031 2.18948 2.16795e-19)
(8.49373 2.14 1.42276e-18)
(8.13828 2.43778 -6.96953e-18)
(8.30607 2.38453 -4.49612e-20)
(7.92412 2.70941 1.69049e-19)
(8.1075 2.65205 -2.97967e-18)
(7.69718 3.00654 3.83436e-19)
(7.89753 2.94485 -3.75809e-18)
(7.45639 3.33161 1.30739e-19)
(7.67557 3.26555 -5.38844e-18)
(7.20066 3.68757 4.16825e-18)
(7.4405 3.61693 1.00189e-17)
(6.92865 4.0778 3.09539e-21)
(7.19126 4.00255 -6.20536e-19)
(6.63745 4.50549 6.08763e-19)
(6.92656 4.42661 2.46087e-20)
(6.32264 4.97371 0)
(6.643 4.89291 -5.73941e-19)
(5.97885 5.48483 -1.01121e-17)
(6.33619 5.40511 9.23374e-18)
(5.59683 6.03721 -9.8891e-18)
(5.9988 5.96667 -1.93433e-17)
(5.16615 6.62759 1.04248e-17)
(5.63018 6.57052 1.31051e-19)
(4.65506 7.22515 1.04451e-17)
(5.14667 7.23809 9.67645e-18)
(4.07798 7.81741 2.99024e-19)
(4.85756 7.79244 8.76363e-18)
(3.46778 8.72033 -9.38249e-18)
(9.9865 0.141171 -1.34316e-21)
(9.98318 0.0967629 -4.19017e-19)
(9.96056 0.235094 4.36766e-19)
(9.97288 0.192994 4.20752e-19)
(9.92263 0.330592 6.44446e-19)
(9.94717 0.290307 2.14924e-19)
(9.87312 0.429152 -1.02349e-20)
(9.9051 0.390083 2.04555e-21)
(9.8124 0.532191 -2.18117e-19)
(9.85086 0.493755 -8.56478e-22)
(9.74078 0.641034 -4.69005e-19)
(9.78642 0.602722 -4.49145e-19)
(9.65852 0.756931 2.06001e-20)
(9.71208 0.718257 -6.82104e-21)
(9.56579 0.881145 7.03925e-19)
(9.62775 0.841638 -4.61955e-19)
(9.46269 1.01496 2.36025e-19)
(9.53344 0.974176 2.12685e-18)
(9.34931 1.15966 1.71843e-21)
(9.42927 1.11718 -9.56947e-19)
(9.22573 1.31657 -1.28468e-18)
(9.31538 1.27195 1.22601e-18)
(9.09207 1.48711 -2.09126e-19)
(9.19195 1.43985 -2.25838e-18)
(8.94834 1.6728 7.47679e-19)
(9.05911 1.62243 1.28188e-18)
(8.79446 1.87525 -2.59927e-19)
(8.91674 1.82132 -2.63445e-19)
(8.63038 2.09618 -5.45827e-19)
(8.76508 2.03822 0)
(8.45611 2.33747 1.14341e-18)
(8.604 2.27491 -9.52413e-21)
(8.27164 2.6013 3.92092e-18)
(8.43372 2.53351 1.65824e-18)
(8.07694 2.89006 -6.91673e-18)
(8.25426 2.81636 6.58183e-18)
(7.87172 3.20643 -9.56435e-18)
(8.06543 3.12617 -1.34073e-17)
(7.65519 3.5534 4.64453e-18)
(7.86733 3.46611 5.06217e-19)
(7.42623 3.93436 5.14268e-18)
(7.65918 3.83955 2.42247e-19)
(7.18389 4.35367 -5.9433e-19)
(7.43979 4.25046 -5.34985e-19)
(6.92634 4.81614 -1.16505e-18)
(7.20872 4.70425 3.79161e-18)
(6.6498 5.32646 8.7272e-18)
(6.96391 5.20667 8.60499e-18)
(6.34925 5.88937 -1.20068e-19)
(6.70148 5.76314 6.62299e-19)
(6.01604 6.50579 -9.24173e-18)
(6.4143 6.38034 -9.30082e-18)
(5.63881 7.17594 -5.50438e-19)
(6.10642 7.05379 -4.97908e-19)
(5.18149 7.87024 7.9985e-18)
(5.67155 7.81673 -5.15838e-19)
(4.6463 8.57718 -2.2898e-18)
(5.48321 8.47011 9.81879e-19)
(3.99557 9.58311 -1.49513e-18)
(9.98719 0.149915 1.66616e-20)
(9.98331 0.102416 -4.69656e-19)
(9.96272 0.249739 1.95258e-19)
(9.97407 0.204249 -5.14428e-20)
(9.92704 0.351349 -4.31253e-19)
(9.95037 0.307366 -1.08201e-19)
(9.88055 0.456243 1.13477e-20)
(9.91105 0.413156 -1.22347e-21)
(9.82365 0.565856 -2.39135e-19)
(9.86027 0.523051 -2.15786e-19)
(9.75669 0.681551 2.0105e-20)
(9.80016 0.638472 -4.4935e-19)
(9.67997 0.804624 -4.96413e-19)
(9.73105 0.76073 -2.22165e-19)
(9.59371 0.93639 9.99855e-19)
(9.65287 0.891152 -4.72879e-19)
(9.49811 1.07818 8.8902e-19)
(9.56567 1.03109 1.88838e-18)
(9.39332 1.23133 2.98498e-19)
(9.46967 1.1819 -7.21928e-19)
(9.27944 1.39721 2.04578e-19)
(9.36505 1.34495 1.94947e-18)
(9.15657 1.57728 -7.1973e-19)
(9.25208 1.52165 -1.96216e-18)
(9.02487 1.77317 2.50127e-19)
(9.13082 1.71358 2.23647e-18)
(8.8845 1.98657 0)
(9.00142 1.92242 -1.99744e-18)
(8.73563 2.21928 5.36705e-19)
(8.86439 2.14994 2.03302e-18)
(8.5784 2.47332 5.24459e-19)
(8.7197 2.39803 -1.51327e-18)
(8.4128 2.75101 4.37267e-18)
(8.56788 2.66903 5.13341e-19)
(8.23892 3.05491 -1.02444e-19)
(8.4089 2.96538 1.59623e-19)
(8.05699 3.38819 -3.20089e-18)
(8.24273 3.2899 -1.71337e-19)
(7.86689 3.75442 -3.90654e-18)
(8.07015 3.64626 -3.6215e-18)
(7.66787 4.15752 -5.46045e-18)
(7.89128 4.03853 -1.2912e-18)
(7.45926 4.60256 3.88036e-18)
(7.70527 4.4711 5.02841e-19)
(7.24024 5.09583 1.36074e-17)
(7.51216 4.9502 3.0708e-19)
(7.00834 5.64398 5.12366e-19)
(7.31168 5.48346 1.72655e-17)
(6.7594 6.25447 -8.58063e-18)
(7.10159 6.07846 -1.25911e-17)
(6.48568 6.93253 -5.00704e-19)
(6.87529 6.74564 0)
(6.17448 7.68589 -4.63389e-19)
(6.64277 7.48667 -2.96683e-20)
(5.78651 8.49327 -7.53827e-18)
(6.28064 8.34949 4.77978e-19)
(5.29275 9.36646 1.74363e-18)
(6.20852 9.14391 -7.27787e-18)
(4.63214 10.5403 7.96506e-18)
(9.98796 0.158155 -5.3091e-19)
(9.9835 0.107735 -5.1845e-20)
(9.96504 0.263498 -3.55947e-19)
(9.97535 0.214802 -3.68388e-19)
(9.93177 0.370815 3.2389e-19)
(9.95378 0.323309 -4.20635e-19)
(9.88847 0.481611 -2.31867e-19)
(9.91735 0.434699 2.158e-19)
(9.83558 0.597319 -4.29857e-19)
(9.87019 0.550359 -6.52472e-19)
(9.77352 0.71933 -6.88131e-19)
(9.81464 0.671706 0)
(9.70264 0.848988 -2.02555e-19)
(9.75102 0.80011 -4.53674e-19)
(9.62319 0.98765 4.50877e-19)
(9.67926 0.936946 4.57799e-19)
(9.5354 1.13669 2.39167e-19)
(9.59943 1.08359 2.29149e-19)
(9.43947 1.29748 9.67083e-19)
(9.51181 1.24146 9.36781e-19)
(9.33562 1.47145 -2.70813e-19)
(9.41671 1.41193 1.90885e-20)
(9.224 1.6601 1.05019e-18)
(9.31457 1.59649 -7.34571e-19)
(9.10487 1.86506 -6.44432e-20)
(9.2054 1.7967 4.24418e-20)
(8.97858 2.08807 8.44044e-20)
(9.0896 2.01424 -4.55194e-20)
(8.84554 2.331 -5.74869e-20)
(8.96775 2.25091 2.03551e-18)
(8.70611 2.59606 -1.504e-18)
(8.84006 2.5087 -2.04681e-18)
(8.56055 2.88572 -3.70802e-18)
(8.70735 2.79012 2.01635e-18)
(8.40901 3.20261 8.37473e-20)
(8.56995 3.09781 -6.18709e-18)
(8.25196 3.55003 -6.16017e-19)
(8.428 3.43452 8.20955e-18)
(8.09012 3.93213 -9.90805e-19)
(8.28252 3.80403 -8.24574e-18)
(7.92371 4.35341 4.69408e-18)
(8.13479 4.21098 4.17792e-18)
(7.7526 4.81943 -3.07874e-18)
(7.98492 4.66034 5.42274e-19)
(7.57704 5.33765 4.03055e-18)
(7.83375 5.1587 -4.09353e-18)
(7.39664 5.91664 4.06028e-18)
(7.68299 5.71489 7.8427e-18)
(7.20925 6.56667 -3.9593e-18)
(7.53327 6.33857 -4.194e-18)
(7.00961 7.29919 4.69906e-19)
(7.38053 7.04401 -3.37294e-18)
(6.78554 8.13442 9.13124e-19)
(7.24334 7.84202 3.78282e-18)
(6.50162 9.07373 6.36016e-19)
(6.99763 8.79694 4.87048e-19)
(6.09288 10.2195 1.89617e-19)
(7.09575 9.77959 4.88156e-18)
(5.46069 11.6664 -3.69177e-18)
(9.98879 0.165856 1.05897e-19)
(9.98372 0.112691 0)
(9.96752 0.276324 -4.33997e-19)
(9.97678 0.224613 1.06197e-19)
(9.93675 0.388925 -5.18079e-19)
(9.95737 0.338094 -3.37762e-19)
(9.89677 0.50517 -2.19089e-19)
(9.92391 0.454651 -2.01391e-19)
(9.84809 0.626462 -2.12091e-19)
(9.8806 0.575584 5.97926e-19)
(9.79118 0.754225 2.27557e-19)
(9.82981 0.702311 -4.12864e-19)
(9.72636 0.889862 2.20688e-19)
(9.7719 0.836282 4.37188e-19)
(9.65391 1.03476 2.32586e-19)
(9.70677 0.978921 0)
(9.57408 1.19032 9.37127e-19)
(9.63453 1.13162 2.32046e-19)
(9.4872 1.35792 -2.40726e-20)
(9.55552 1.29577 9.3165e-19)
(9.39365 1.53903 -4.55021e-19)
(9.47029 1.47275 -7.19504e-19)
(9.29374 1.73521 -1.73302e-18)
(9.37933 1.66411 -2.03187e-19)
(9.18777 1.94806 5.94187e-20)
(9.28274 1.87146 -2.20497e-18)
(9.07616 2.17932 1.93219e-18)
(9.1812 2.09644 1.99283e-18)
(8.95946 2.43087 0)
(9.0752 2.3408 2.27624e-19)
(8.83833 2.70502 1.51915e-18)
(8.9652 2.60656 -1.84467e-18)
(8.71344 3.00442 -5.41326e-19)
(8.85221 2.8963 5.68793e-18)
(8.58534 3.33179 2.06991e-18)
(8.73717 3.2128 -3.89966e-18)
(8.45468 3.69035 4.46695e-19)
(8.62073 3.55885 4.1055e-18)
(8.32272 4.08439 -2.98889e-18)
(8.50408 3.93798 -4.28009e-18)
(8.19085 4.51885 -6.19255e-22)
(8.38916 4.35495 5.13978e-19)
(8.06018 4.99965 -4.96159e-19)
(8.27761 4.8151 -4.0431e-18)
(7.93239 5.53475 -2.32161e-19)
(8.17178 5.32496 -1.54504e-19)
(7.80975 6.13379 -4.53216e-19)
(8.07525 5.89331 3.36698e-18)
(7.69393 6.8093 -3.6026e-18)
(7.99255 6.53078 -2.12789e-20)
(7.5857 7.57861 -5.45455e-20)
(7.92547 7.25307 -3.38279e-18)
(7.4803 8.47527 3.328e-18)
(7.90483 8.07784 6.00104e-18)
(7.36509 9.53973 4.74204e-18)
(7.83758 9.07655 -2.56114e-18)
(7.17329 11.1845 -3.06037e-20)
(8.30641 10.2241 3.88983e-18)
(7.71824 13.0434 -3.57832e-18)
(-0.280036 0.233061 0)
(-0.10752 0.24216 -2.28418e-18)
(-0.912698 0.404848 1.73486e-21)
(-0.671995 0.5408 1.96694e-18)
(-1.72882 0.445846 1.84487e-21)
(-1.4419 0.647778 -1.60356e-18)
(-2.66041 0.451492 2.7451e-19)
(-2.33258 0.698673 1.36427e-18)
(-3.66171 0.441325 1.59728e-20)
(-3.30833 0.720427 3.68336e-19)
(-4.69656 0.422574 -9.47618e-20)
(-4.3335 0.724127 5.29936e-19)
(-5.73603 0.398535 -1.13213e-19)
(-5.37748 0.715331 -6.11141e-19)
(-6.75791 0.370821 -2.00125e-19)
(-6.41515 0.697062 -2.94947e-19)
(-7.74559 0.340309 1.15066e-19)
(-7.4272 0.671071 7.36958e-20)
(-8.68647 0.307515 -1.01013e-20)
(-8.39883 0.638388 3.21108e-20)
(-9.57086 0.27272 -2.54136e-20)
(-9.31881 0.599667 -3.12448e-20)
(-10.3906 0.236041 3.68694e-21)
(-10.1785 0.555256 -7.85139e-21)
(-11.138 0.197509 -1.22429e-20)
(-10.9697 0.505225 0)
(-11.8053 0.15712 -2.81225e-20)
(-11.6846 0.449535 8.5834e-20)
(-12.3842 0.114843 2.41876e-20)
(-12.3151 0.388166 -1.08747e-19)
(-12.866 0.0705767 2.26428e-20)
(-12.8526 0.321025 1.98914e-19)
(-13.2408 0.0241628 4.87384e-21)
(-13.2882 0.247946 -1.4934e-19)
(-13.4983 -0.0247017 2.33048e-20)
(-13.6118 0.168842 7.77743e-21)
(-13.6282 -0.077078 -2.42338e-20)
(-13.8132 0.0842866 -4.46611e-20)
(-13.6138 -0.136368 -1.25474e-20)
(-13.8811 -0.00957373 -7.4472e-20)
(-13.4447 -0.204607 1.21633e-20)
(-13.8016 -0.108203 -6.12382e-22)
(-13.0977 -0.282582 0)
(-13.5619 -0.219459 -6.62661e-20)
(-12.5527 -0.373303 0)
(-13.146 -0.3409 2.22503e-20)
(-11.7853 -0.48109 0)
(-12.5352 -0.474839 3.3255e-20)
(-10.7644 -0.612875 -4.53097e-21)
(-11.709 -0.625044 -2.96894e-20)
(-9.45037 -0.782368 -4.58347e-21)
(-10.6364 -0.796086 8.76078e-21)
(-7.78134 -1.0192 0)
(-9.25733 -1.00074 0)
(-5.60962 -1.36151 -4.51999e-21)
(-7.47275 -1.28894 1.87363e-21)
(-2.65628 -1.7532 -4.57944e-21)
(-5.18944 -1.73554 -5.20419e-21)
(-2.32168 -2.01036 -6.83824e-21)
(-0.529981 0.653575 -3.82641e-19)
(-0.25354 0.735714 -2.27743e-18)
(-1.19355 0.890922 4.79414e-19)
(-0.820339 1.11911 -1.46356e-18)
(-2.01298 1.00005 -3.18997e-19)
(-1.59707 1.30435 1.38672e-18)
(-2.94486 1.05445 1.47901e-18)
(-2.47717 1.40201 3.78659e-18)
(-3.9483 1.07595 8.78919e-19)
(-3.43739 1.44622 -4.0717e-18)
(-4.9881 1.07577 1.90317e-20)
(-4.44509 1.45523 2.64051e-18)
(-6.03495 1.05991 -7.96128e-19)
(-5.47141 1.43902 -7.9146e-19)
(-7.06609 1.03179 -2.0646e-20)
(-6.49226 1.40339 0)