/*--------------------------------*- C++ -*----------------------------------*\
| =========                 |                                                 |
| \\      /  F ield         | OpenFOAM: The Open Source CFD Toolbox           |
|  \\    /   O peration     | Version:  4.1                                   |
|   \\  /    A nd           | Web:      www.OpenFOAM.org                      |
|    \\/     M anipulation  |                                                 |
\*---------------------------------------------------------------------------*/
FoamFile
{
    version     2.0;
    format      ascii;
    class       surfaceVectorField;
    location    "0.7";
    object      Uf;
}
// * * * * * * * * * * * * * * * * * * * * * * * * * * * * * * * * * * * * * //

dimensions      [0 1 -1 0 0 0 0];

internalField   nonuniform List<vector> 
5457
(
(9.91532 0.0238699 2.64924e-20)
(9.95957 0.037291 1.34255e-20)
(9.81793 0.0302092 0)
(9.9239 0.0443558 -1.36768e-20)
(9.70717 0.0354878 2.94969e-20)
(9.85905 0.0523207 5.58318e-20)
(9.58041 0.0410442 2.84886e-20)
(9.76823 0.0620635 -5.69985e-20)
(9.43773 0.0468415 -3.14693e-20)
(9.65911 0.0723765 5.86528e-20)
(9.27933 0.0529192 1.88945e-21)
(9.5342 0.0832034 2.94751e-20)
(9.10499 0.0594085 6.47957e-20)
(9.39304 0.0947894 3.17747e-20)
(8.9142 0.0664356 -2.33755e-21)
(9.23471 0.107337 -1.28166e-19)
(8.70627 0.0741175 -3.36739e-20)
(9.0585 0.121016 1.31111e-19)
(8.4803 0.0825749 7.57502e-20)
(8.86371 0.136005 6.86444e-20)
(8.23528 0.0919338 -4.7435e-21)
(8.64947 0.1525 7.45475e-20)
(7.97001 0.102324 -7.56152e-20)
(8.41472 0.170694 -7.68504e-20)
(7.68323 0.113883 0)
(8.15824 0.190782 0)
(7.37356 0.126752 0)
(7.87872 0.21296 3.23116e-19)
(7.03957 0.141068 0)
(7.57475 0.23741 -3.3286e-19)
(6.67988 0.156959 5.01228e-20)
(7.24492 0.264275 7.06791e-19)
(6.29317 0.174543 4.76384e-19)
(6.88772 0.293648 -1.46877e-18)
(5.87822 0.193916 -3.25078e-20)
(6.50185 0.325579 1.96916e-18)
(5.4341 0.215101 -4.34022e-19)
(6.08619 0.359999 -1.25047e-18)
(4.96033 0.238025 0)
(5.63975 0.396612 0)
(4.45704 0.262512 -5.53139e-19)
(5.16207 0.434886 -1.83949e-18)
(3.92518 0.288241 1.97438e-19)
(4.65338 0.474028 1.14112e-18)
(3.36674 0.314629 2.15932e-18)
(4.11491 0.512868 5.96715e-19)
(2.78517 0.340677 2.04229e-19)
(3.54892 0.549598 -9.3782e-19)
(2.18593 0.364664 -1.17768e-18)
(2.95921 0.581583 1.02515e-18)
(1.57729 0.382683 -1.64023e-18)
(2.35204 0.605011 0)
(0.972729 0.379542 -1.6218e-18)
(1.73627 0.61302 -1.9709e-18)
(0.402725 0.269689 4.06029e-18)
(1.12581 0.584533 -3.76895e-19)
(-0.00480105 -0.100477 -2.3814e-18)
(0.516759 0.413175 3.85202e-18)
(0.215385 -0.0202897 -6.24396e-18)
(10.0001 0.0476103 -2.72181e-20)
(9.98854 0.0372381 6.69657e-20)
(9.96719 0.0631519 4.33892e-20)
(9.97987 0.0593764 6.81164e-20)
(9.91417 0.0769867 -3.26363e-20)
(9.94574 0.0773808 2.51941e-22)
(9.84304 0.0918412 -2.48568e-20)
(9.88605 0.0969195 -1.42959e-19)
(9.75375 0.107644 1.19105e-19)
(9.80723 0.117696 -1.75588e-19)
(9.64639 0.124451 5.94064e-20)
(9.71195 0.139633 7.62513e-23)
(9.52081 0.142537 -1.6385e-19)
(9.60008 0.16311 0)
(9.37663 0.162183 9.55579e-21)
(9.47085 0.188502 -1.61187e-19)
(9.21327 0.183659 2.32426e-19)
(9.32366 0.216152 1.65367e-19)
(9.02993 0.20725 6.75386e-20)
(9.1579 0.246436 2.73575e-19)
(8.82564 0.233244 0)
(8.97284 0.279749 -1.37024e-19)
(8.59928 0.261932 0)
(8.76755 0.316487 -2.89056e-19)
(8.34959 0.29361 3.28275e-19)
(8.54091 0.357051 6.07179e-19)
(8.07522 0.328563 -2.01026e-20)
(8.29171 0.401853 -2.99475e-19)
(7.77473 0.367044 3.90286e-19)
(8.01863 0.451291 -3.32963e-19)
(7.44661 0.409236 -8.46046e-19)
(7.72028 0.505701 1.3917e-18)
(7.08941 0.455247 7.68069e-20)
(7.39513 0.565313 -2.22336e-18)
(6.70177 0.505078 7.02437e-19)
(7.04168 0.630264 3.04367e-18)
(6.28247 0.558482 -7.97732e-19)
(6.65866 0.700514 -7.87699e-19)
(5.83065 0.614862 -1.86685e-18)
(6.24474 0.775604 -1.62093e-18)
(5.34598 0.673226 -1.03566e-19)
(5.79885 0.854557 -1.62666e-18)
(4.82891 0.7321 1.53277e-18)
(5.32038 0.935816 -1.72834e-18)
(4.28093 0.789246 -2.5224e-18)
(4.80962 1.01708 -4.13183e-19)
(3.70493 0.841222 -9.54528e-20)
(4.26767 1.09476 1.66596e-18)
(3.10605 0.882784 2.19299e-18)
(3.69658 1.16323 -1.84088e-18)
(2.49312 0.90506 -3.47175e-19)
(3.10033 1.21377 4.5766e-18)
(1.88137 0.889387 -7.16981e-19)
(2.48448 1.23078 -3.42836e-19)
(1.29333 0.790118 -5.761e-19)
(1.85473 1.18145 -4.10217e-20)
(0.701309 0.531487 -2.00046e-19)
(1.18946 1.00536 -1.25528e-17)
(0.659567 0.645758 1.35835e-17)
(9.99276 0.0522337 1.6237e-19)
(9.98619 0.040425 -2.67521e-20)
(9.96306 0.0767529 2.38222e-20)
(9.97492 0.0728988 -1.3593e-19)
(9.91345 0.100022 -1.12571e-19)
(9.94173 0.100816 5.55617e-20)
(9.84692 0.124719 -2.94286e-19)
(9.88492 0.129491 -5.69765e-20)
(9.76396 0.15105 -2.9166e-19)
(9.80968 0.159784 -2.341e-19)
(9.66454 0.179183 -5.93446e-20)
(9.71882 0.19186 -1.80558e-19)
(9.54859 0.209499 0)
(9.6125 0.226161 1.2212e-19)
(9.41589 0.242415 0)
(9.49009 0.263179 -2.53774e-19)
(9.266 0.278373 2.08276e-19)
(9.35115 0.303422 2.59169e-19)
(9.09826 0.317844 6.23892e-20)
(9.19516 0.347453 7.09139e-20)
(8.91186 0.361307 -4.28577e-19)
(9.0216 0.395841 6.97828e-19)
(8.70589 0.409253 3.32403e-19)
(8.82977 0.449154 -1.00237e-18)
(8.47929 0.462189 -3.49258e-20)
(8.61881 0.50799 6.07396e-19)
(8.23086 0.520622 -6.13028e-19)
(8.38775 0.572976 6.15737e-19)
(7.9593 0.585021 6.95474e-19)
(8.13554 0.644725 -2.55425e-18)
(7.6632 0.655766 -4.13308e-20)
(7.86102 0.723808 2.0028e-18)
(7.34106 0.733107 8.24328e-19)
(7.56289 0.810675 -7.05041e-19)
(6.99137 0.817135 1.49611e-18)
(7.2397 0.905625 2.76481e-18)
(6.61265 0.907608 -1.62305e-18)
(6.89016 1.00876 -4.11211e-18)
(6.20347 1.00372 -1.38096e-18)
(6.51286 1.11971 -1.6653e-18)
(5.76262 1.10398 -3.25463e-18)
(6.10621 1.23737 6.55767e-18)
(5.28931 1.20604 -3.66154e-18)
(5.6687 1.35976 -6.82844e-18)
(4.78341 1.30637 3.80287e-18)
(5.19918 1.48384 3.89697e-19)
(4.24554 1.39947 -1.20368e-19)
(4.69684 1.60489 4.0375e-18)
(3.67721 1.47703 6.04222e-19)
(4.16058 1.71553 -1.23337e-17)
(3.08082 1.5263 4.54401e-18)
(3.58932 1.80479 1.30016e-17)
(2.45692 1.52658 3.35541e-19)
(2.98055 1.85651 9.30545e-18)
(1.79382 1.44588 -1.20362e-17)
(2.32823 1.84646 -8.68625e-18)
(1.04167 1.25119 1.66005e-18)
(1.58939 1.74931 -1.17136e-17)
(0.886434 1.53499 1.43354e-17)
(9.9885 0.061401 -3.26728e-19)
(9.98486 0.0454885 1.06388e-19)
(9.95879 0.0961205 -1.00745e-19)
(9.97169 0.0864374 -1.09095e-19)
(9.91003 0.129431 1.09214e-19)
(9.93827 0.123858 1.11171e-19)
(9.84451 0.16378 1.64174e-22)
(9.88251 0.16159 0)
(9.76303 0.199925 -1.22096e-19)
(9.80869 0.201142 3.48465e-19)
(9.66571 0.238318 5.98786e-21)
(9.71957 0.243016 -2.37524e-19)
(9.55254 0.279482 -1.37876e-19)
(9.61554 0.287735 2.45852e-19)
(9.42345 0.323986 1.37914e-20)
(9.4961 0.335875 -8.81709e-19)
(9.27812 0.372456 1.18768e-19)
(9.3608 0.388095 7.72726e-19)
(9.11608 0.425541 7.16429e-19)
(9.20927 0.445115 1.31401e-19)
(8.93678 0.483887 9.70715e-20)
(9.0412 0.50762 8.34757e-19)
(8.73958 0.548166 -7.0212e-19)
(8.85609 0.576308 -1.44407e-19)
(8.52375 0.619087 1.25833e-18)
(8.65331 0.651939 -1.75612e-18)
(8.28845 0.697375 -1.37478e-18)
(8.4322 0.73531 2.44021e-18)
(8.03273 0.783731 -1.1773e-18)
(8.192 0.827224 -1.29666e-18)
(7.75555 0.878782 1.29814e-18)
(7.9319 0.928452 -1.59715e-18)
(7.45573 0.983011 1.28816e-18)
(7.65093 1.03968 1.33543e-18)
(7.132 1.09672 -2.9471e-18)
(7.34799 1.16141 1.44478e-18)
(6.78301 1.21985 -4.12072e-18)
(7.022 1.29395 -4.14183e-18)
(6.40729 1.35175 6.39382e-18)
(6.67171 1.43715 2.99207e-18)
(6.00311 1.49087 2.80561e-18)
(6.29546 1.59014 3.23418e-18)
(5.56865 1.63459 -2.68331e-18)
(5.89122 1.751 -3.41345e-18)
(5.10204 1.77884 6.6594e-19)
(5.45679 1.9166 7.10689e-18)
(4.60112 1.91738 -8.36788e-18)
(4.98939 2.08208 7.17193e-20)
(4.0629 2.041 3.08474e-19)
(4.48495 2.24005 -2.32254e-17)
(3.4824 2.13685 1.77457e-17)
(3.93785 2.38023 1.62589e-17)
(2.84955 2.18768 2.00984e-19)
(3.33939 2.4895 1.76494e-17)
(2.14316 2.17389 -8.36807e-18)
(2.6779 2.55159 -1.00975e-17)
(1.32597 2.08696 1.40744e-18)
(1.90979 2.55516 -9.37165e-18)
(1.09703 2.50023 7.57504e-20)
(9.98635 0.0711686 3.20612e-19)
(9.98415 0.0515008 2.13257e-19)
(9.9561 0.114546 1.06744e-19)
(9.96995 0.100229 1.08684e-19)
(9.9081 0.156711 0)
(9.93644 0.146557 1.10424e-19)
(9.84369 0.199908 3.5432e-19)
(9.88168 0.193169 1.13203e-19)
(9.76368 0.24528 2.23183e-19)
(9.80943 0.241784 3.48543e-19)
(9.66832 0.293509 1.04045e-20)
(9.72224 0.293182 -1.18074e-19)
(9.55764 0.345222 -5.16614e-19)
(9.62063 0.34801 9.71612e-19)
(9.43154 0.401089 -9.58295e-20)
(9.50414 0.406953 -1.74632e-18)
(9.28978 0.461853 7.75139e-19)
(9.37226 0.470786 1.02205e-18)
(9.13201 0.528272 2.6091e-19)
(9.22477 0.540327 3.99783e-19)
(8.95783 0.601093 5.77776e-19)
(9.0615 0.616362 -6.73613e-19)
(8.76679 0.681108 -1.22359e-18)
(8.88203 0.699704 9.86743e-19)
(8.55835 0.769159 -5.09733e-19)
(8.6859 0.791235 -3.15056e-19)
(8.33192 0.866123 2.4618e-18)
(8.47261 0.891883 2.29873e-20)
(8.08685 0.972866 -1.72052e-18)
(8.24166 1.0026 1.26023e-18)
(7.82242 1.09021 -1.51768e-18)
(7.99244 1.12433 -2.60124e-18)
(7.5378 1.21885 1.49405e-18)
(7.72425 1.25792 3.97225e-18)
(7.23205 1.3593 1.69939e-19)
(7.43631 1.40412 -2.85428e-18)
(6.90407 1.51179 3.07765e-18)
(7.12777 1.56344 -3.54533e-19)
(6.55253 1.67593 -1.67489e-19)
(6.79756 1.73608 6.32513e-18)
(6.17563 1.85049 -3.08004e-18)
(6.44414 1.92153 -3.08846e-18)
(5.77099 2.03314 6.51892e-18)
(6.06531 2.11834 3.17594e-18)
(5.33546 2.22011 6.43863e-18)
(5.65837 2.32394 -4.9382e-21)
(4.86461 2.40559 -1.50398e-17)
(5.21922 2.53422 7.18946e-20)
(4.35212 2.58133 -6.92083e-18)
(4.74171 2.74292 -1.49789e-17)
(3.7887 2.7367 1.61711e-17)
(4.21765 2.94167 7.84472e-18)
(3.16045 2.85902 7.23574e-18)
(3.63538 3.12041 6.49864e-19)
(2.44599 2.93502 -1.10956e-17)
(2.98164 3.26751 2.42345e-17)
(1.62381 2.96695 -1.05049e-17)
(2.22705 3.37061 -2.66306e-17)
(1.32939 3.46448 1.8405e-17)
(9.98532 0.0813289 -3.97512e-22)
(9.98372 0.0579704 -2.13268e-19)
(9.95476 0.132863 1.12394e-19)
(9.96916 0.114172 -2.15502e-19)
(9.90759 0.183676 2.2373e-19)
(9.93593 0.168879 2.2041e-19)
(9.84459 0.235736 1.11508e-19)
(9.8823 0.224081 1.24851e-21)
(9.76646 0.290339 -6.09424e-22)
(9.81189 0.281512 -2.30065e-19)
(9.67346 0.348313 8.61317e-19)
(9.72705 0.342156 1.15737e-19)
(9.56565 0.410391 -3.02654e-19)
(9.62826 0.406789 9.67621e-19)
(9.44293 0.477344 -5.837e-19)
(9.51513 0.476218 -1.11864e-18)
(9.30509 0.550006 6.36742e-19)
(9.38713 0.5513 5.08594e-19)
(9.1519 0.629226 -5.51851e-19)
(9.24419 0.632923 1.31653e-19)
(8.98305 0.715861 -2.38945e-19)
(9.08618 0.721976 1.23e-19)
(8.79816 0.81081 1.87581e-18)
(8.91275 0.819382 1.42811e-19)
(8.59682 0.915032 2.23624e-19)
(8.72351 0.926114 1.16025e-18)
(8.37862 1.02953 -1.16143e-18)
(8.51811 1.0432 -2.63893e-18)
(8.14308 1.15533 3.22205e-19)
(8.29618 1.17174 1.1911e-18)
(7.88964 1.2934 2.98823e-18)
(8.05724 1.31281 2.80311e-18)
(7.61769 1.44463 -4.75337e-19)
(7.80071 1.46743 1.06458e-19)
(7.32651 1.60978 -3.34619e-18)
(7.52601 1.63653 -5.34809e-18)
(7.0152 1.78935 2.98553e-18)
(7.23247 1.82092 -7.21989e-19)
(6.68257 1.98337 3.28157e-18)
(6.9191 2.0211 6.07044e-18)
(6.32685 2.19111 3.25565e-18)
(6.5845 2.23711 3.58028e-20)
(5.94547 2.41091 -3.39336e-18)
(6.22649 2.46814 3.18359e-18)
(5.53471 2.63993 -6.38838e-18)
(5.84205 2.71253 1.0536e-19)
(5.08892 2.87358 0)
(5.42675 2.96755 -6.34516e-18)
(4.60003 3.10534 0)
(4.97361 3.22853 -6.20724e-18)
(4.05712 3.32706 -7.76268e-18)
(4.47323 3.48906 6.39038e-18)
(3.44593 3.52931 1.77639e-17)
(3.91334 3.74134 -2.19527e-17)
(2.74636 3.69907 8.746e-18)
(3.27892 3.97652 2.53498e-17)
(1.95167 3.84128 3.32808e-18)
(2.5686 4.16927 -1.57626e-18)
(1.59503 4.39974 1.93554e-17)
(9.98488 0.0916605 -4.28469e-19)
(9.9834 0.0646344 -5.41769e-20)
(9.9544 0.150991 -9.97856e-20)
(9.96898 0.128086 3.75498e-19)
(9.90826 0.210089 -5.8624e-21)
(9.93643 0.190742 6.34979e-22)
(9.84693 0.270699 -3.4427e-19)
(9.88415 0.254203 -3.35393e-19)
(9.771 0.334195 -1.07942e-19)
(9.81583 0.320161 -3.64445e-21)
(9.68075 0.401539 2.3608e-19)
(9.73366 0.389745 -1.15778e-19)
(9.57624 0.473587 1.17573e-19)
(9.63811 0.463847 -1.18861e-19)
(9.45741 0.551212 0)
(9.52879 0.543387 0)
(9.3241 0.635323 -2.63533e-21)
(9.40525 0.629299 5.01596e-19)
(9.17614 0.726854 8.06607e-19)
(9.26748 0.722534 -7.69254e-19)
(9.01326 0.826763 5.0547e-19)
(9.11539 0.824077 -5.22616e-19)
(8.83517 0.936043 -5.57976e-19)
(8.9487 0.93495 1.88374e-18)
(8.64154 1.05574 -1.76047e-18)
(8.76709 1.05621 4.82452e-21)
(8.43206 1.18698 -2.2924e-19)
(8.57027 1.18898 -4.59914e-18)
(8.20634 1.33091 3.69734e-18)
(8.35793 1.33448 5.87703e-18)
(7.9639 1.48867 -1.18009e-19)
(8.1297 1.49396 -2.32817e-18)
(7.70424 1.66131 -4.84707e-18)
(7.88511 1.66859 2.3473e-19)
(7.4268 1.8498 -2.65996e-18)
(7.62362 1.85945 2.42973e-19)
(7.13078 2.05496 2.45277e-18)
(7.34471 2.06764 -5.27901e-18)
(6.81505 2.2773 2.74682e-18)
(7.04745 2.29406 5.12513e-18)
(6.47788 2.51678 0)
(6.73044 2.53933 0)
(6.1166 2.77257 6.65772e-18)
(6.39166 2.80352 5.71548e-18)
(5.7274 3.04304 9.55013e-20)
(6.02782 3.08589 6.27241e-18)
(5.30457 3.32524 -1.25715e-17)
(5.63473 3.38516 -1.16136e-17)
(4.83954 3.61455 2.78037e-19)
(5.20571 3.69863 -1.20537e-17)
(4.3211 3.90473 -7.98095e-18)
(4.73106 4.02158 1.39535e-17)
(3.7359 4.1883 -1.42287e-17)
(4.19919 4.34751 -2.73978e-17)
(3.0637 4.44917 1.49976e-17)
(3.59036 4.67065 2.61986e-17)
(2.30787 4.69135 1.49449e-17)
(2.94508 4.94467 1.91118e-18)
(1.89674 5.31032 2.061e-20)
(9.9848 0.101981 7.57084e-19)
(9.98318 0.071334 4.21968e-19)
(9.95479 0.16879 4.69266e-19)
(9.96922 0.141801 3.2338e-19)
(9.9099 0.235813 -3.34767e-19)
(9.93769 0.21203 -1.09899e-19)
(9.85049 0.304651 1.08671e-20)
(9.88702 0.283419 -1.91665e-21)
(9.77707 0.376717 -1.33124e-20)
(9.82101 0.357585 2.24729e-22)
(9.68992 0.453093 -4.70888e-19)
(9.74186 0.435757 -1.11861e-21)
(9.58917 0.534743 -2.34592e-19)
(9.64994 0.518946 2.34901e-19)
(9.47475 0.622633 5.09669e-19)
(9.54488 0.60818 -2.37491e-19)
(9.34654 0.717734 -2.84921e-19)
(9.42632 0.704461 1.00132e-18)
(9.20444 0.821056 -2.0954e-18)
(9.29431 0.808787 -1.01081e-18)
(9.04826 0.933651 8.92015e-19)
(9.14881 0.922233 -1.31126e-18)
(8.87775 1.05661 2.41976e-18)
(8.98959 1.04592 1.36843e-18)
(8.69264 1.19106 -2.90207e-18)
(8.8164 1.18101 1.53685e-20)
(8.49265 1.33824 1.65947e-18)
(8.62899 1.3287 -3.41956e-18)
(8.27746 1.49945 -2.6616e-19)
(8.42704 1.49033 4.40552e-18)
(8.04671 1.67596 -1.94311e-18)
(8.21039 1.66733 -2.46509e-18)
(7.79996 1.86899 5.33329e-18)
(7.97864 1.86098 -2.18951e-19)
(7.53669 2.07974 -2.44701e-18)
(7.73121 2.07258 2.56568e-18)
(7.25618 2.30938 -2.48088e-18)
(7.46763 2.30352 -4.91898e-18)
(6.95735 2.55893 2.31497e-18)
(7.18701 2.55513 1.70323e-18)
(6.63848 2.82911 5.78806e-18)
(6.88805 2.82866 5.31893e-18)
(6.29689 3.12006 5.33961e-18)
(6.56894 3.12512 3.34938e-19)
(5.92886 3.43133 -5.62483e-18)
(6.22634 3.44477 -5.87818e-18)
(5.52919 3.76175 -1.10968e-17)
(5.85623 3.78764 5.33641e-18)
(5.08982 4.10848 1.81058e-18)
(5.45283 4.15298 -1.16369e-17)
(4.59979 4.46672 -5.70792e-18)
(5.00687 4.53777 7.5514e-18)
(4.04705 4.83037 1.33242e-17)
(4.5084 4.93598 -1.31712e-17)
(3.40976 5.17934 1.30853e-17)
(3.92889 5.34648 2.63571e-17)
(2.69931 5.51642 -1.30722e-17)
(3.36527 5.69544 -1.12058e-18)
(2.23881 6.20667 -1.40774e-17)
(9.98499 0.112154 -1.34569e-20)
(9.98306 0.0779516 -1.58163e-19)
(9.9557 0.186134 -2.63679e-19)
(9.96976 0.155194 -3.74494e-19)
(9.9123 0.260734 2.24836e-19)
(9.93949 0.232641 -1.09087e-19)
(9.85505 0.337465 -1.25543e-20)
(9.89069 0.311611 -2.19184e-19)
(9.78444 0.417754 1.23703e-20)
(9.82727 0.39363 -2.309e-21)
(9.70077 0.502779 7.0874e-19)
(9.75145 0.480008 2.31357e-19)
(9.60416 0.593615 2.2455e-19)
(9.66351 0.571878 4.73589e-19)
(9.49459 0.691305 2.73621e-19)
(9.5631 0.670353 1.64449e-21)
(9.37204 0.796876 2.44371e-19)
(9.45002 0.776483 -2.36405e-19)
(9.23643 0.911409 -2.30679e-19)
(9.32436 0.891322 1.24857e-18)
(9.08763 1.03605 -7.94888e-19)
(9.18607 1.01604 -1.01514e-18)
(8.92545 1.17198 -1.05762e-18)
(9.03501 1.15185 2.44456e-19)
(8.74966 1.32044 -5.50957e-19)
(8.87101 1.30001 2.1371e-18)
(8.56002 1.48272 -5.6296e-19)
(8.69385 1.4618 -2.1773e-18)
(8.35631 1.66028 2.11113e-18)
(8.50323 1.63866 -4.78349e-21)
(8.13832 1.85456 -7.07181e-19)
(8.29922 1.83212 2.36168e-18)
(7.90561 2.06697 -2.95794e-18)
(8.08141 2.04374 -2.7056e-18)
(7.65758 2.29898 0)
(7.84928 2.27508 -2.3952e-18)
(7.39357 2.55211 -6.50817e-19)
(7.60228 2.52775 1.81913e-18)
(7.11262 2.82789 4.74973e-18)
(7.33959 2.80353 4.9652e-18)
(6.81315 3.12785 -1.90322e-19)
(7.06012 3.1043 -4.15684e-18)
(6.49271 3.45312 -1.09724e-17)
(6.76235 3.43194 -2.80077e-19)
(6.14765 3.80448 5.1997e-18)
(6.44322 3.78793 -1.01709e-17)
(5.77318 4.18233 4.69349e-18)
(6.09865 4.17353 1.52934e-17)
(5.36237 4.58556 -5.7813e-18)
(5.72385 4.58968 -1.72667e-17)
(4.9049 5.01053 -1.85623e-20)
(5.31037 5.03521 2.11079e-17)
(4.39006 5.45232 1.29801e-20)
(4.85078 5.50391 -1.17523e-17)
(3.79404 5.8863 1.22017e-17)
(4.30296 6.00079 1.05179e-18)
(3.13796 6.31194 -2.97844e-18)
(3.83321 6.41633 1.21732e-17)
(2.62287 7.06615 -1.72674e-18)
(9.98536 0.122075 -5.22974e-19)
(9.98301 0.0844046 -8.40062e-19)
(9.95702 0.202922 -2.15098e-19)
(9.97054 0.168171 -1.06577e-19)
(9.91529 0.284743 -5.55205e-19)
(9.94172 0.252481 1.06397e-19)
(9.86047 0.369005 -2.05401e-19)
(9.89504 0.338654 -4.40895e-19)
(9.79296 0.457136 2.20607e-19)
(9.83447 0.42815 2.24469e-19)
(9.71309 0.550403 0)
(9.76227 0.522334 0)
(9.62099 0.649972 2.431e-19)
(9.67864 0.622445 2.31068e-19)
(9.51673 0.756951 -5.12205e-19)
(9.58331 0.729655 -7.08434e-19)
(9.40034 0.872421 7.90458e-19)
(9.4762 0.845067 -1.72289e-20)
(9.27179 0.997533 4.30567e-19)
(9.35738 0.969802 1.24678e-18)
(9.13101 1.13352 4.28081e-20)
(9.22687 1.1051 -1.69231e-20)
(8.97787 1.28168 3.46852e-18)
(9.08461 1.25228 -4.95575e-19)
(8.8122 1.4433 4.51149e-19)
(8.93057 1.41267 4.81471e-20)
(8.63383 1.61978 -1.59019e-18)
(8.76451 1.58766 4.9108e-19)
(8.44266 1.81268 2.7678e-19)
(8.58625 1.77873 2.46894e-18)
(8.23851 2.02364 2.97264e-19)
(8.39585 1.98756 -2.21206e-18)
(8.02103 2.25434 -2.13696e-18)
(8.19299 2.21599 2.56662e-18)
(7.78965 2.5065 -5.27623e-19)
(7.97748 2.46586 -6.86238e-20)
(7.54369 2.782 7.47951e-18)
(7.7487 2.73905 -7.54069e-18)
(7.2823 3.08289 -4.0442e-18)
(7.50581 3.03776 9.7768e-18)
(7.00423 3.41146 -4.22172e-18)
(7.248 3.36443 -1.0126e-17)
(6.70739 3.76991 4.52914e-19)
(6.97396 3.72181 1.00425e-17)
(6.38834 4.16024 1.23787e-19)
(6.68122 4.11272 -1.44903e-17)
(6.04259 4.58435 -6.93678e-18)
(6.36604 4.53975 1.02674e-17)
(5.66433 5.04286 9.89531e-18)
(6.02409 5.00521 -1.15021e-17)
(5.24405 5.53318 9.23587e-18)
(5.64782 5.5102 1.12329e-17)
(4.77202 6.05141 -1.0673e-17)
(5.23321 6.04797 -1.06113e-18)
(4.22129 6.56878 1.03632e-18)
(4.71894 6.63141 4.02131e-19)
(3.61631 7.07892 1.25873e-17)
(4.34861 7.11204 0)
(3.0479 7.90204 1.21518e-17)
(9.98588 0.131664 -4.11799e-19)
(9.98302 0.0906324 5.14521e-20)
(9.95866 0.219063 2.18855e-19)
(9.9715 0.180643 -5.79701e-19)
(9.91882 0.307735 2.11384e-19)
(9.94433 0.271455 5.35207e-19)
(9.86663 0.399143 1.07989e-22)
(9.89999 0.364441 4.96017e-23)
(9.80249 0.494711 1.15617e-22)
(9.84251 0.461012 4.42795e-19)
(9.72672 0.595779 2.34832e-19)
(9.77416 0.562571 4.51541e-19)
(9.63953 0.703588 -7.35448e-19)
(9.69519 0.670434 -4.56465e-19)
(9.54103 0.819302 -2.02888e-19)
(9.60535 0.785837 -9.48312e-19)
(9.43127 0.944057 4.58346e-19)
(9.50462 0.909939 1.43761e-18)
(9.3103 1.07907 7.80379e-19)
(9.39313 1.04391 -1.21378e-18)
(9.17812 1.22565 -5.61978e-19)
(9.27093 1.18905 7.6281e-19)
(9.03471 1.38517 -3.91144e-18)
(9.13809 1.34675 -1.03143e-18)
(8.87999 1.55904 9.27084e-20)
(8.99468 1.51845 -3.0737e-19)
(8.71383 1.74874 4.58084e-18)
(8.84051 1.70562 -2.07402e-19)
(8.53611 1.9559 -7.976e-20)
(8.67552 1.90985 1.66269e-18)
(8.34674 2.18235 1.16011e-19)
(8.49966 2.13293 4.89817e-19)
(8.14561 2.43004 4.60951e-18)
(8.31286 2.37684 -4.5451e-19)
(7.9324 2.70102 -7.16876e-18)
(8.11523 2.64371 2.33578e-18)
(7.70645 2.99749 -5.07738e-18)
(7.90626 2.93583 -4.85524e-18)
(7.46692 3.32204 3.50357e-18)
(7.68535 3.25582 1.91442e-19)
(7.21276 3.67762 4.33908e-18)
(7.45181 3.60666 3.99282e-18)
(6.94243 4.0675 -5.10945e-18)
(7.20437 3.99186 -4.34059e-18)
(6.65315 4.49507 -4.17945e-18)
(6.9415 4.41552 -5.85695e-18)
(6.34076 4.96366 5.57649e-18)
(6.6604 4.88181 5.62139e-18)
(6.0002 5.47586 -1.00693e-17)
(6.35682 5.39444 0)
(5.62276 6.03048 8.44905e-19)
(6.02376 5.95712 -1.05948e-17)
(5.19881 6.625 1.0067e-17)
(5.66152 6.56339 1.13463e-17)
(4.69674 7.22844 -6.38601e-19)
(5.18525 7.23614 -1.01275e-19)
(4.13577 7.82908 0)
(4.91624 7.79115 8.67232e-18)
(3.51998 8.73576 -9.30616e-18)
(9.98649 0.140854 -1.26778e-19)
(9.98306 0.0965893 4.70311e-19)
(9.96058 0.234472 -2.43622e-19)
(9.97263 0.192533 -5.78429e-19)
(9.9228 0.329614 3.14676e-19)
(9.94726 0.289475 -7.44394e-19)
(9.87346 0.427762 4.50166e-19)
(9.90546 0.388872 2.16065e-19)
(9.81292 0.530337 8.94548e-19)
(9.85128 0.492097 3.52743e-21)
(9.74156 0.638728 -2.54324e-19)
(9.78704 0.600562 4.51742e-19)
(9.65962 0.754244 -6.77107e-19)
(9.71302 0.715655 -6.87977e-19)
(9.56725 0.878107 7.28946e-19)
(9.62901 0.838682 -2.30377e-19)
(9.46457 1.0115 -2.74219e-19)
(9.53507 0.970844 9.53978e-19)
(9.35166 1.15568 -1.20323e-18)
(9.43135 1.11335 -1.20594e-18)
(9.22864 1.31204 2.67901e-19)
(9.31796 1.26754 -2.38041e-21)
(9.09556 1.48202 2.58547e-18)
(9.19507 1.43488 9.40568e-21)
(8.95244 1.66713 -6.05165e-19)
(9.06281 1.61689 2.31172e-18)
(8.79923 1.86896 -3.10641e-18)
(8.92109 1.81517 -4.39804e-18)
(8.63587 2.08921 2.21816e-18)
(8.77012 2.03138 2.05693e-18)
(8.46239 2.32983 -8.96854e-20)
(8.60979 2.26738 1.65911e-18)
(8.27882 2.593 -2.70323e-18)
(8.44035 2.52528 -4.86098e-18)
(8.08512 2.88106 4.58119e-18)
(8.26187 2.80743 2.14345e-18)
(7.88101 3.19669 4.76448e-19)
(8.07413 3.11649 4.54753e-18)
(7.66579 3.54296 7.07504e-19)
(7.87722 3.45558 -3.98145e-18)
(7.4385 3.92337 -4.7598e-18)
(7.67058 3.82826 2.37531e-19)
(7.19812 4.34219 -5.11005e-18)
(7.45309 4.2386 -5.25325e-19)
(6.94294 4.80434 4.03699e-18)
(7.22412 4.6918 4.04644e-18)
(6.66952 5.31469 0)
(6.98227 5.19383 -1.34667e-17)
(6.37319 5.87805 -5.66409e-19)
(6.72378 5.75015 8.56922e-18)
(6.04595 6.49575 -2.79645e-21)
(6.4417 6.36758 -3.14148e-20)
(5.67726 7.16872 1.09938e-18)
(6.14167 7.04223 3.45228e-20)
(5.23067 7.86709 9.29717e-18)
(5.7146 7.80919 3.74583e-20)
(4.70956 8.58006 -2.02174e-18)
(5.54981 8.46135 8.91792e-18)
(4.05718 9.59491 -9.33413e-18)
(9.9872 0.149588 1.53113e-21)
(9.98312 0.102238 -4.12653e-19)
(9.96274 0.249071 -1.0822e-18)
(9.97391 0.203771 7.32537e-19)
(9.92719 0.35029 -8.26852e-19)
(9.95049 0.306465 -9.57528e-19)
(9.88086 0.454759 -2.34222e-19)
(9.91137 0.411861 2.16155e-19)
(9.82415 0.563881 -4.32294e-19)
(9.86068 0.52129 -3.57298e-21)
(9.75746 0.679084 0)
(9.80079 0.636163 2.22721e-19)
(9.68108 0.801746 -2.33992e-19)
(9.73199 0.75794 -2.22533e-19)
(9.5952 0.933139 1.23445e-20)
(9.65411 0.887992 2.30818e-19)
(9.49998 1.07448 -9.52292e-21)
(9.56729 1.02755 -1.38957e-18)
(9.39561 1.22708 1.26351e-20)
(9.47174 1.17783 7.03526e-19)
(9.28222 1.39236 -2.60777e-19)
(9.36754 1.34026 4.82597e-19)
(9.15991 1.57185 -2.34439e-19)
(9.25502 1.51636 -1.22535e-18)
(9.02882 1.76713 -1.56955e-18)
(9.13435 1.70769 -9.90808e-19)
(8.88914 1.97986 8.48322e-19)
(9.00564 1.91587 1.96046e-19)
(8.741 2.21187 1.49377e-18)
(8.8693 2.14268 2.58937e-18)
(8.58455 2.46519 -3.18988e-18)
(8.72537 2.39005 -5.37843e-19)
(8.41988 2.74214 6.30735e-20)
(8.57436 2.66026 -1.60972e-18)
(8.24707 3.04527 2.13333e-18)
(8.41638 2.95581 -1.49444e-18)
(8.06633 3.37771 8.79609e-21)
(8.25141 3.27951 4.69831e-18)
(7.87759 3.74307 -4.41788e-18)
(8.08014 3.63492 0)
(7.68028 4.14539 4.46791e-18)
(7.90275 4.02623 -8.03318e-18)
(7.47375 4.58969 8.68919e-18)
(7.71866 4.45802 1.29179e-17)
(7.25735 5.08232 -1.35729e-17)
(7.52787 4.93624 -2.0806e-20)
(7.02908 5.62997 -4.82252e-18)
(7.33051 5.46856 -1.34836e-17)
(6.78507 6.24005 9.08515e-18)
(7.12462 6.0627 8.58945e-18)
(6.51811 6.91829 7.11276e-21)
(6.90372 6.72924 7.51626e-18)
(6.21647 7.67294 -1.02974e-18)
(6.67992 7.47016 -7.8982e-18)
(5.84095 8.48212 -2.6772e-19)
(6.32577 8.33505 5.71732e-18)
(5.36471 9.3573 2.23423e-19)
(6.27902 9.12424 -1.28368e-17)
(4.70202 10.5314 3.92867e-19)
(9.98798 0.15781 3.36943e-19)
(9.98321 0.107543 -6.74173e-22)
(9.96514 0.262789 8.27822e-19)
(9.97531 0.214284 5.22074e-19)
(9.93194 0.369691 1.05723e-19)
(9.95393 0.322366 1.15931e-18)
(9.88875 0.480036 4.4326e-19)
(9.91763 0.433341 0)
(9.83607 0.595213 6.55365e-19)
(9.87061 0.548487 -2.13745e-19)
(9.77431 0.716693 -6.80259e-21)
(9.81529 0.669241 1.09995e-18)
(9.70376 0.845918 2.49305e-19)
(9.75194 0.797139 -2.21411e-19)
(9.62465 0.984196 -1.19546e-18)
(9.68043 0.933597 1.8186e-18)
(9.53723 1.13277 -6.4663e-19)
(9.60102 1.07985 -2.77086e-18)
(9.4417 1.29299 1.1709e-18)
(9.51385 1.23717 1.27293e-20)
(9.33826 1.46633 -5.05444e-19)
(9.41911 1.40701 2.32006e-19)
(9.22715 1.65434 -1.97943e-18)
(9.31732 1.59092 1.17701e-18)
(9.10866 1.85864 7.90209e-19)
(9.20878 1.79045 -4.14126e-18)
(8.98309 2.08095 1.96762e-18)
(9.0937 2.00727 3.45468e-18)
(8.85078 2.32316 5.19972e-19)
(8.97249 2.24322 0)
(8.71211 2.58744 1.03328e-18)
(8.84556 2.50028 5.14416e-19)
(8.56746 2.87625 -3.16763e-18)
(8.71364 2.78083 5.19511e-19)
(8.41705 3.19228 1.12472e-18)
(8.5772 3.08758 3.55988e-19)
(8.26126 3.53879 4.654e-18)
(8.43653 3.42339 4.69744e-18)
(8.10087 3.91986 -3.67742e-18)
(8.29245 3.79186 -4.00176e-18)
(7.93621 4.34014 5.49759e-19)
(8.14617 4.19769 -1.95913e-19)
(7.76726 4.80519 4.13014e-18)
(7.99832 4.64605 2.21162e-19)
(7.59437 5.32231 1.64339e-20)
(7.84966 5.14325 0)
(7.41762 5.90004 1.63046e-20)
(7.70183 5.69792 3.26701e-20)
(7.2353 6.5488 7.00658e-18)
(7.55601 6.32006 0)
(7.04252 7.28053 -4.04072e-19)
(7.40855 7.0241 4.06439e-18)
(6.82817 8.11533 -1.08476e-18)
(7.27983 7.82057 -4.255e-18)
(6.55752 9.05328 -6.75604e-18)
(7.04111 8.77494 6.56956e-18)
(6.16531 10.1957 -1.14705e-17)
(7.16163 9.74935 -1.28819e-17)
(5.53302 11.638 3.97053e-19)
(9.98883 0.165482 1.92894e-19)
(9.98342 0.112477 4.20111e-19)
(9.96767 0.275574 8.65018e-19)
(9.97674 0.224044 -6.04742e-19)
(9.93692 0.387755 1.034e-18)
(9.95747 0.337132 6.75641e-19)
(9.89705 0.503511 -6.60753e-19)
(9.9242 0.453237 -4.00977e-19)
(9.84859 0.624224 2.5175e-19)
(9.88109 0.573595 1.48713e-19)
(9.79195 0.751425 8.64934e-19)
(9.83051 0.699698 2.76853e-19)
(9.72744 0.88661 1.37914e-18)
(9.77275 0.833152 1.04692e-18)
(9.65532 1.03111 1.75917e-19)
(9.70783 0.975391 3.25996e-19)
(9.57587 1.1862 -2.07196e-18)
(9.63607 1.12767 -3.0731e-19)
(9.48937 1.35321 -9.24164e-19)
(9.55753 1.29127 -1.59696e-18)
(9.39618 1.53366 1.92783e-18)
(9.4726 1.46763 -8.57676e-21)
(9.29674 1.72913 -1.05295e-18)
(9.382 1.65827 1.94558e-18)
(9.19142 1.94126 -1.38408e-18)
(9.28606 1.86483 -2.73261e-18)
(9.08052 2.17179 1.4456e-18)
(9.18511 2.08905 1.9468e-18)
(8.96453 2.42262 0)
(9.0797 2.33272 2.28248e-18)
(8.84412 2.69594 0)
(8.9705 2.59775 -1.83403e-18)
(8.7201 2.99437 4.0455e-18)
(8.85827 2.88652 0)
(8.59312 3.32077 3.97265e-18)
(8.74409 3.20195 4.07623e-18)
(8.46378 3.67832 -4.03492e-18)
(8.62898 3.547 4.12673e-18)
(8.33332 4.0712 -4.91916e-19)
(8.51371 3.92498 -1.13823e-17)
(8.20327 4.50451 -5.19356e-19)
(8.40022 4.34068 7.14724e-18)
(8.07482 4.98418 -3.91748e-18)
(8.29079 4.79968 -7.09284e-19)
(7.94968 5.51775 1.60063e-20)
(8.18749 5.30817 -3.48349e-18)
(7.83041 6.11486 1.58876e-20)
(8.09359 5.87466 -3.05748e-18)
(7.71921 6.7885 -2.92396e-18)
(8.01432 6.51003 3.23567e-18)
(7.61709 7.55607 1.8352e-19)
(7.95195 7.23034 -2.96578e-18)
(7.51997 8.4505 3.45967e-18)
(7.93822 8.05251 3.32454e-18)
(7.41616 9.51124 3.76772e-19)
(7.87584 9.04878 3.87195e-19)
(7.23645 11.1519 0)
(8.35987 10.1885 7.97988e-19)
(7.7883 13.0064 -7.03751e-19)
(-0.245707 0.228589 7.95328e-20)
(-0.0873416 0.234084 6.10312e-19)
(-0.877504 0.403174 -5.69155e-19)
(-0.634355 0.539138 -2.48868e-18)
(-1.69495 0.445294 0)
(-1.4073 0.647588 3.27386e-18)
(-2.62807 0.451296 -2.95306e-19)
(-2.29989 0.698473 -1.41157e-18)
(-3.63082 0.441208 -3.62009e-20)
(-3.27707 0.720042 -3.01771e-19)
(-4.66696 0.4224 2.74952e-19)
(-4.3036 0.723548 2.72336e-19)
(-5.70763 0.398236 1.28484e-19)
(-5.34868 0.714529 0)
(-6.73064 0.370444 7.80251e-21)
(-6.3874 0.696133 1.29248e-19)
(-7.71932 0.339961 -1.21232e-19)
(-7.40063 0.670201 -1.20941e-19)
(-8.66117 0.307249 6.64219e-21)
(-8.37353 0.637728 0)
(-9.5465 0.272509 -1.94302e-20)
(-9.29465 0.599218 5.75842e-21)
(-10.367 0.235844 2.87479e-21)
(-10.1552 0.55494 -2.67001e-20)
(-11.115 0.197302 3.03141e-20)
(-10.9472 0.505012 2.25641e-20)
(-11.7825 0.156892 0)
(-11.6626 0.449373 0)
(-12.3614 0.11459 0)
(-12.2932 0.387994 1.35877e-19)
(-12.8429 0.0703158 4.40318e-20)
(-12.8307 0.320836 -1.33024e-19)
(-13.2175 0.0239135 1.30073e-21)
(-13.266 0.247768 4.42375e-20)
(-13.4747 -0.0249279 -4.38182e-20)
(-13.5895 0.168686 -4.35429e-20)
(-13.6043 -0.0772577 4.85107e-20)
(-13.7907 0.0841481 7.33958e-20)
(-13.5898 -0.136479 4.91489e-20)
(-13.8584 -0.00961302 -7.24259e-20)
(-13.421 -0.204679 0)
(-13.7791 -0.10812 4.67314e-20)
(-13.0745 -0.282727 0)
(-13.54 -0.219323 -2.34553e-20)
(-12.5301 -0.373664 0)
(-13.1246 -0.340981 -5.82865e-20)
(-11.7631 -0.4817 0)
(-12.5144 -0.47537 3.77228e-20)
(-10.7423 -0.613642 1.30511e-21)
(-11.6887 -0.625888 -1.40199e-20)
(-9.42905 -0.783237 -2.30394e-22)
(-10.6166 -0.796917 -8.30493e-21)
(-7.76195 -1.02023 -1.39838e-21)
(-9.23923 -1.00149 -1.39067e-21)
(-5.59349 -1.36273 4.53744e-21)
(-7.45773 -1.28976 1.89211e-21)
(-2.64574 -1.75455 8.85647e-21)
(-5.17995 -1.73635 -2.23138e-21)
(-2.32137 -2.01111 -1.58793e-21)
(-0.489782 0.652571 -1.90964e-18)
(-0.230965 0.745005 4.18804e-18)
(-1.15958 0.891461 1.15768e-18)
(-0.785277 1.12259 -9.02351e-18)
(-1.98113 0.999912 1.98911e-18)
(-1.56608 1.30509 6.29489e-18)
(-2.91396 1.0538 -1.44113e-18)
(-2.44693 1.40145 -1.41381e-18)
(-3.91818 1.07502 0)
(-3.40761 1.44514 0)
(-4.95883 1.07459 0)
(-4.41603 1.45383 0)
(-6.00683 1.05855 0)
(-5.4432 1.43733 0)
(-7.03929 1.03047 0)
(-6.46516 1.40161 5.90685e-20)
(-8.03878 0.992345 0)
(-7.46342 1.35029 0)
(-8.9922 0.945237 -1.06714e-21)
(-8.42363 1.28541 0)
(-9.88944 0.889647 -1.07166e-21)