/*--------------------------------*- C++ -*----------------------------------*\
| =========                 |                                                 |
| \\      /  F ield         | OpenFOAM: The Open Source CFD Toolbox           |
|  \\    /   O peration     | Version:  5.x                                   |
|   \\  /    A nd           | Web:      www.OpenFOAM.org                      |
|    \\/     M anipulation  |                                                 |
\*---------------------------------------------------------------------------*/
FoamFile
{
    version     2.0;
    format      ascii;
    class       surfaceScalarField;
    location    "1";
    object      phi;
}
// * * * * * * * * * * * * * * * * * * * * * * * * * * * * * * * * * * * * * //

dimensions      [1 0 -1 0 0 0 0];

internalField   nonuniform List<scalar> 
23692
(
2.32736e-06
-3.68069e-10
2.32795e-06
-5.86648e-10
2.32859e-06
-6.40284e-10
2.3291e-06
-5.08789e-10
2.32932e-06
-2.10028e-10
2.32912e-06
2.06956e-10
2.32846e-06
6.69517e-10
2.32737e-06
1.10068e-09
2.32595e-06
1.44018e-09
2.32431e-06
1.65711e-09
2.32257e-06
1.75049e-09
2.32085e-06
1.74101e-09
2.31921e-06
1.65958e-09
2.3177e-06
1.537e-09
2.31633e-06
1.3978e-09
2.3151e-06
1.25798e-09
2.31401e-06
1.12577e-09
2.31304e-06
1.00358e-09
2.31219e-06
8.90635e-10
2.31145e-06
7.84369e-10
2.31081e-06
6.82316e-10
2.31028e-06
5.82128e-10
2.30985e-06
4.82267e-10
2.30952e-06
3.81707e-10
2.3093e-06
2.80025e-10
2.30918e-06
1.77081e-10
2.30917e-06
7.30845e-11
2.30927e-06
-3.17306e-11
2.30948e-06
-1.36936e-10
2.3098e-06
-2.42137e-10
2.31022e-06
-3.46842e-10
2.31075e-06
-4.50607e-10
2.31139e-06
-5.52865e-10
2.31213e-06
-6.53038e-10
2.31297e-06
-7.50524e-10
2.31391e-06
-8.44614e-10
2.31494e-06
-9.34585e-10
2.31606e-06
-1.01962e-09
2.31726e-06
-1.09881e-09
2.31853e-06
-1.17115e-09
2.31988e-06
-1.23559e-09
2.32128e-06
-1.29098e-09
2.32272e-06
-1.33601e-09
2.3242e-06
-1.36942e-09
2.32571e-06
-1.38965e-09
2.32722e-06
-1.39517e-09
2.32872e-06
-1.38418e-09
2.3302e-06
-1.35488e-09
2.33162e-06
-1.3052e-09
2.33298e-06
-1.23284e-09
2.33424e-06
-1.13531e-09
2.33537e-06
-1.00975e-09
2.33635e-06
-8.53021e-10
2.33714e-06
-6.61475e-10
2.3377e-06
-4.30936e-10
2.33798e-06
-1.56513e-10
2.33794e-06
1.67352e-10
2.33752e-06
5.47544e-10
2.33666e-06
9.91999e-10
2.33528e-06
1.5104e-09
2.33329e-06
2.11448e-09
2.3306e-06
2.81876e-09
2.32709e-06
3.64124e-09
2.32261e-06
4.60456e-09
2.31701e-06
5.73754e-09
2.31006e-06
7.07737e-09
2.30151e-06
8.67269e-09
2.29105e-06
1.0588e-08
2.27826e-06
1.29107e-08
2.26263e-06
1.57607e-08
2.24345e-06
1.93063e-08
2.21978e-06
2.37884e-08
2.19035e-06
2.95589e-08
2.15333e-06
3.71433e-08
2.1061e-06
4.73426e-08
2.04482e-06
6.14003e-08
1.96367e-06
8.12673e-08
1.85374e-06
1.10054e-07
1.70078e-06
1.53073e-07
1.4805e-06
2.20399e-07
3.38956e-07
1.14166e-06
2.49037e-06
-7.57719e-10
2.491e-06
-1.21591e-09
2.4917e-06
-1.33001e-09
2.49225e-06
-1.05982e-09
2.4925e-06
-4.4353e-10
2.49229e-06
4.18266e-10
2.4916e-06
1.37546e-09
2.49044e-06
2.26861e-09
2.48892e-06
2.97289e-09
2.48717e-06
3.42403e-09
2.48532e-06
3.61956e-09
2.48348e-06
3.60218e-09
2.48173e-06
3.43557e-09
2.48011e-06
3.18348e-09
2.47864e-06
2.89662e-09
2.47732e-06
2.60814e-09
2.47615e-06
2.33511e-09
2.47511e-06
2.08284e-09
2.47419e-06
1.84942e-09
2.47339e-06
1.63011e-09
2.4727e-06
1.41935e-09
2.47212e-06
1.2126e-09
2.47165e-06
1.00657e-09
2.47129e-06
7.9925e-10
2.47105e-06
5.89663e-10
2.47091e-06
3.77609e-10
2.47089e-06
1.634e-10
2.47098e-06
-5.23727e-11
2.47119e-06
-2.68908e-10
2.47152e-06
-4.85306e-10
2.47195e-06
-7.00661e-10
2.4725e-06
-9.13973e-10
2.47316e-06
-1.12407e-09
2.47393e-06
-1.32984e-09
2.47481e-06
-1.52991e-09
2.47579e-06
-1.72297e-09
2.47686e-06
-1.90744e-09
2.47803e-06
-2.08159e-09
2.47928e-06
-2.24359e-09
2.48062e-06
-2.39142e-09
2.48202e-06
-2.52286e-09
2.48348e-06
-2.63553e-09
2.48499e-06
-2.72686e-09
2.48653e-06
-2.79399e-09
2.4881e-06
-2.83398e-09
2.48967e-06
-2.84347e-09
2.49123e-06
-2.819e-09
2.49276e-06
-2.75667e-09
2.49424e-06
-2.65228e-09
2.49564e-06
-2.50114e-09
2.49693e-06
-2.29811e-09
2.4981e-06
-2.03741e-09
2.49909e-06
-1.71255e-09
2.49988e-06
-1.31607e-09
2.50042e-06
-8.39528e-10
2.50068e-06
-2.72794e-10
2.50059e-06
3.95187e-10
2.50009e-06
1.17853e-09
2.49913e-06
2.09321e-09
2.49762e-06
3.15874e-09
2.49547e-06
4.39883e-09
2.49259e-06
5.84251e-09
2.48884e-06
7.5257e-09
2.48409e-06
9.4934e-09
2.47816e-06
1.18026e-08
2.47085e-06
1.45262e-08
2.4619e-06
1.77589e-08
2.451e-06
2.16253e-08
2.43775e-06
2.62918e-08
2.42166e-06
3.19839e-08
2.40209e-06
3.90125e-08
2.3782e-06
4.78126e-08
2.34889e-06
5.90022e-08
2.31269e-06
7.34707e-08
2.26765e-06
9.25088e-08
2.21119e-06
1.17988e-07
2.14002e-06
1.52563e-07
2.05038e-06
1.99826e-07
1.93927e-06
2.64306e-07
1.81004e-06
3.49747e-07
4.45904e-07
1.70322e-06
2.66481e-06
-1.16954e-09
2.66548e-06
-1.89141e-09
2.66623e-06
-2.07334e-09
2.66684e-06
-1.66052e-09
2.66711e-06
-7.10292e-10
2.66692e-06
6.22339e-10
2.6662e-06
2.10554e-09
2.66499e-06
3.4925e-09
2.66339e-06
4.58936e-09
2.66153e-06
5.29542e-09
2.65957e-06
5.60595e-09
2.65761e-06
5.58599e-09
2.65574e-06
5.3336e-09
2.654e-06
4.94725e-09
2.65242e-06
4.50568e-09
2.651e-06
4.06051e-09
2.64974e-06
3.63848e-09
2.64861e-06
3.24807e-09
2.64762e-06
2.88677e-09
2.64675e-06
2.54725e-09
2.646e-06
2.22117e-09
2.64537e-06
1.90153e-09
2.64485e-06
1.58326e-09
2.64445e-06
1.2632e-09
2.64416e-06
9.3997e-10
2.644e-06
6.13171e-10
2.64395e-06
2.8324e-10
2.64403e-06
-4.88561e-11
2.64422e-06
-3.81882e-10
2.64454e-06
-7.14582e-10
2.64497e-06
-1.0454e-09
2.64552e-06
-1.3728e-09
2.64619e-06
-1.69506e-09
2.64697e-06
-2.01034e-09
2.64786e-06
-2.3167e-09
2.64885e-06
-2.61195e-09
2.64995e-06
-2.89368e-09
2.65114e-06
-3.15927e-09
2.65242e-06
-3.40587e-09
2.65378e-06
-3.63035e-09
2.65521e-06
-3.82928e-09
2.65669e-06
-3.99903e-09
2.65823e-06
-4.13557e-09
2.6598e-06
-4.23459e-09
2.66139e-06
-4.29148e-09
2.66298e-06
-4.30119e-09
2.66455e-06
-4.25827e-09
2.66609e-06
-4.15679e-09
2.66757e-06
-3.99032e-09
2.66896e-06
-3.75173e-09
2.67024e-06
-3.43309e-09
2.67137e-06
-3.02563e-09
2.67232e-06
-2.51942e-09
2.67305e-06
-1.90319e-09
2.67352e-06
-1.16402e-09
2.67368e-06
-2.86896e-10
2.67348e-06
7.4545e-10
2.67285e-06
1.95358e-09
2.67173e-06
3.36166e-09
2.67003e-06
4.99878e-09
2.66768e-06
6.90004e-09
2.66456e-06
9.10826e-09
2.66056e-06
1.16761e-08
2.65553e-06
1.4669e-08
2.64931e-06
1.81691e-08
2.6417e-06
2.22805e-08
2.63247e-06
2.71365e-08
2.62133e-06
3.29102e-08
2.60794e-06
3.98283e-08
2.59187e-06
4.81916e-08
2.57263e-06
5.84035e-08
2.54957e-06
7.10096e-08
2.52196e-06
8.67527e-08
2.48893e-06
1.06645e-07
2.44952e-06
1.3205e-07
2.40289e-06
1.64761e-07
2.34862e-06
2.0697e-07
2.28762e-06
2.60958e-07
2.22401e-06
3.28052e-07
2.16866e-06
4.05229e-07
4.75471e-07
2.13922e-06
2.85146e-06
-1.60521e-09
2.85219e-06
-2.61574e-09
2.85299e-06
-2.87618e-09
2.85366e-06
-2.3204e-09
2.85398e-06
-1.02359e-09
2.85381e-06
8.02981e-10
2.85308e-06
2.84219e-09
2.85184e-06
4.75541e-09
2.85017e-06
6.27526e-09
2.84822e-06
7.26132e-09
2.84614e-06
7.70442e-09
2.84406e-06
7.69198e-09
2.84207e-06
7.35738e-09
2.84021e-06
6.83528e-09
2.83851e-06
6.23398e-09
2.83699e-06
5.62516e-09
2.83562e-06
5.04637e-09
2.8344e-06
4.50985e-09
2.83332e-06
4.01295e-09
2.83237e-06
3.54591e-09
2.83155e-06
3.0977e-09
2.83085e-06
2.6588e-09
2.83028e-06
2.22227e-09
2.82982e-06
1.78394e-09
2.82949e-06
1.34166e-09
2.82929e-06
8.95071e-10
2.8292e-06
4.447e-10
2.82925e-06
-8.20793e-12
2.82941e-06
-4.6202e-10
2.82971e-06
-9.14836e-10
2.83012e-06
-1.3647e-09
2.83066e-06
-1.8094e-09
2.83131e-06
-2.24666e-09
2.83208e-06
-2.67394e-09
2.83296e-06
-3.0885e-09
2.83395e-06
-3.48734e-09
2.83504e-06
-3.86724e-09
2.83623e-06
-4.22457e-09
2.8375e-06
-4.55538e-09
2.83886e-06
-4.85543e-09
2.84028e-06
-5.12011e-09
2.84175e-06
-5.34431e-09
2.84328e-06
-5.52262e-09
2.84483e-06
-5.64919e-09
2.8464e-06
-5.71767e-09
2.84796e-06
-5.72122e-09
2.8495e-06
-5.65245e-09
2.85099e-06
-5.50336e-09
2.85241e-06
-5.26518e-09
2.85374e-06
-4.92826e-09
2.85494e-06
-4.48198e-09
2.85598e-06
-3.91451e-09
2.85683e-06
-3.21251e-09
2.85744e-06
-2.36093e-09
2.85778e-06
-1.34254e-09
2.85778e-06
-1.37395e-10
2.85741e-06
1.27734e-09
2.85659e-06
2.92855e-09
2.85526e-06
4.84796e-09
2.85335e-06
7.07333e-09
2.85075e-06
9.65003e-09
2.84739e-06
1.26328e-08
2.84313e-06
1.60886e-08
2.83786e-06
2.00995e-08
2.83142e-06
2.47672e-08
2.82364e-06
3.0219e-08
2.81431e-06
3.66149e-08
2.80322e-06
4.41583e-08
2.79009e-06
5.31094e-08
2.77464e-06
6.38028e-08
2.75652e-06
7.66713e-08
2.73541e-06
9.22745e-08
2.71098e-06
1.11333e-07
2.68301e-06
1.3476e-07
2.65153e-06
1.63679e-07
2.61706e-06
1.99376e-07
2.58107e-06
2.43109e-07
2.54658e-06
2.95588e-07
2.51896e-06
3.55821e-07
2.50559e-06
4.18738e-07
4.71238e-07
2.50996e-06
3.05118e-06
-2.06669e-09
3.05196e-06
-3.39215e-09
3.05284e-06
-3.74535e-09
3.05357e-06
-3.05082e-09
3.05396e-06
-1.39989e-09
3.05383e-06
9.39227e-10
3.05313e-06
3.56198e-09
3.05186e-06
6.03406e-09
3.05015e-06
8.01003e-09
3.04812e-06
9.30581e-09
3.04595e-06
9.90521e-09
3.04375e-06
9.91645e-09
3.04163e-06
9.50832e-09
3.03964e-06
8.85295e-09
3.03782e-06
8.0898e-09
3.03617e-06
7.31195e-09
3.03469e-06
6.56911e-09
3.03337e-06
5.87866e-09
3.0322e-06
5.2381e-09
3.03116e-06
4.63595e-09
3.03026e-06
4.05853e-09
3.02949e-06
3.49384e-09
3.02884e-06
2.93315e-09
3.02833e-06
2.37106e-09
3.02794e-06
1.80497e-09
3.02768e-06
1.23413e-09
3.02755e-06
6.59247e-10
3.02755e-06
8.19725e-11
3.02768e-06
-4.95691e-10
3.02793e-06
-1.07138e-09
3.02831e-06
-1.64248e-09
3.02881e-06
-2.2063e-09
3.02944e-06
-2.75975e-09
3.03018e-06
-3.29968e-09
3.03103e-06
-3.8225e-09
3.03199e-06
-4.32447e-09
3.03305e-06
-4.8013e-09
3.0342e-06
-5.24842e-09
3.03544e-06
-5.66082e-09
3.03675e-06
-6.03303e-09
3.03813e-06
-6.35911e-09
3.03956e-06
-6.63264e-09
3.04103e-06
-6.84671e-09
3.04252e-06
-6.99388e-09
3.04402e-06
-7.06607e-09
3.04551e-06
-7.0546e-09
3.04696e-06
-6.95018e-09
3.04836e-06
-6.74267e-09
3.04967e-06
-6.42102e-09
3.05088e-06
-5.97312e-09
3.05194e-06
-5.38569e-09
3.05283e-06
-4.6439e-09
3.05352e-06
-3.73123e-09
3.05395e-06
-2.62899e-09
3.05409e-06
-1.31591e-09
3.05389e-06
2.32301e-10
3.05329e-06
2.04357e-09
3.05224e-06
4.15034e-09
3.05066e-06
6.59071e-09
3.0485e-06
9.40973e-09
3.04565e-06
1.26609e-08
3.04205e-06
1.64081e-08
3.03758e-06
2.07284e-08
3.03213e-06
2.57152e-08
3.02558e-06
3.14821e-08
3.0178e-06
3.81684e-08
3.00864e-06
4.59458e-08
2.99794e-06
5.50262e-08
2.98554e-06
6.56721e-08
2.9713e-06
7.8209e-08
2.95509e-06
9.30382e-08
2.93688e-06
1.10651e-07
2.91674e-06
1.31635e-07
2.89498e-06
1.56674e-07
2.87232e-06
1.86506e-07
2.85003e-06
2.21819e-07
2.83028e-06
2.63016e-07
2.81627e-06
3.09754e-07
2.81209e-06
3.60148e-07
2.82138e-06
4.09599e-07
4.49658e-07
2.84312e-06
3.2649e-06
-2.55578e-09
3.26573e-06
-4.22456e-09
3.26668e-06
-4.68874e-09
3.2675e-06
-3.86498e-09
3.26797e-06
-1.85876e-09
3.26792e-06
1.00586e-09
3.26726e-06
4.23582e-09
3.26601e-06
7.29852e-09
3.26427e-06
9.76658e-09
3.26219e-06
1.14073e-08
3.25993e-06
1.21934e-08
3.25762e-06
1.22516e-08
3.25538e-06
1.17851e-08
3.25326e-06
1.1004e-08
3.25131e-06
1.008e-08
3.24953e-06
9.12973e-09
3.24793e-06
8.21664e-09
3.2465e-06
7.36441e-09
3.24522e-06
6.57208e-09
3.24408e-06
5.82677e-09
3.24309e-06
5.1126e-09
3.24224e-06
4.41537e-09
3.24152e-06
3.72459e-09
3.24093e-06
3.03361e-09
3.24048e-06
2.33908e-09
3.24016e-06
1.64017e-09
3.23997e-06
9.37667e-10
3.23991e-06
2.33413e-10
3.23999e-06
-4.70146e-10
3.24019e-06
-1.17008e-09
3.24052e-06
-1.86328e-09
3.24097e-06
-2.54629e-09
3.24155e-06
-3.21549e-09
3.24224e-06
-3.86685e-09
3.24304e-06
-4.49608e-09
3.24394e-06
-5.09842e-09
3.24494e-06
-5.66876e-09
3.24603e-06
-6.20144e-09
3.24721e-06
-6.69031e-09
3.24845e-06
-7.1287e-09
3.24975e-06
-7.50935e-09
3.25109e-06
-7.82449e-09
3.25246e-06
-8.06571e-09
3.25385e-06
-8.22392e-09
3.25524e-06
-8.28939e-09
3.2566e-06
-8.25171e-09
3.25791e-06
-8.09957e-09
3.25916e-06
-7.8208e-09
3.26031e-06
-7.4022e-09
3.26134e-06
-6.82934e-09
3.26221e-06
-6.08639e-09
3.2629e-06
-5.15582e-09
3.26336e-06
-4.01814e-09
3.26356e-06
-2.65149e-09
3.26345e-06
-1.03114e-09
3.26299e-06
8.70956e-10
3.26213e-06
3.08665e-09
3.26081e-06
5.6529e-09
3.25897e-06
8.61261e-09
3.25654e-06
1.20158e-08
3.25346e-06
1.59212e-08
3.24965e-06
2.03982e-08
3.24503e-06
2.55287e-08
3.23952e-06
3.14105e-08
3.23302e-06
3.816e-08
3.22545e-06
4.59164e-08
3.21673e-06
5.48462e-08
3.20678e-06
6.51482e-08
3.19557e-06
7.70593e-08
3.1831e-06
9.08588e-08
3.16944e-06
1.06872e-07
3.15479e-06
1.2547e-07
3.13954e-06
1.47058e-07
3.12434e-06
1.72048e-07
3.11022e-06
2.00801e-07
3.09868e-06
2.33518e-07
3.09182e-06
2.70045e-07
3.09217e-06
3.09567e-07
3.10229e-06
3.50196e-07
3.12353e-06
3.88526e-07
4.19534e-07
3.15381e-06
3.49358e-06
-3.07427e-09
3.49448e-06
-5.11669e-09
3.49551e-06
-5.71464e-09
3.49643e-06
-4.77751e-09
3.497e-06
-2.42221e-09
3.49705e-06
9.73732e-10
3.49647e-06
4.82963e-09
3.49527e-06
8.51341e-09
3.49355e-06
1.15116e-08
3.49144e-06
1.35379e-08
3.48911e-06
1.45488e-08
3.48671e-06
1.46852e-08
3.48434e-06
1.41827e-08
3.4821e-06
1.32891e-08
3.48001e-06
1.22097e-08
3.4781e-06
1.10861e-08
3.47636e-06
9.99774e-09
3.47481e-06
8.97637e-09
3.47341e-06
8.02376e-09
3.47217e-06
7.12691e-09
3.47109e-06
6.26818e-09
3.47014e-06
5.43143e-09
3.46934e-06
4.60448e-09
3.46867e-06
3.77958e-09
3.46815e-06
2.95261e-09
3.46776e-06
2.12241e-09
3.4675e-06
1.28989e-09
3.46738e-06
4.5703e-10
3.46739e-06
-3.73196e-10
3.46753e-06
-1.19746e-09
3.46779e-06
-2.01201e-09
3.46818e-06
-2.81271e-09
3.46869e-06
-3.59533e-09
3.4693e-06
-4.355e-09
3.47003e-06
-5.08661e-09
3.47086e-06
-5.78452e-09
3.47177e-06
-6.44258e-09
3.47277e-06
-7.05412e-09
3.47385e-06
-7.61188e-09
3.47498e-06
-8.10791e-09
3.47616e-06
-8.53375e-09
3.47738e-06
-8.88019e-09
3.47862e-06
-9.13734e-09
3.47986e-06
-9.29461e-09
3.48108e-06
-9.34067e-09
3.48227e-06
-9.26332e-09
3.4834e-06
-9.04949e-09
3.48444e-06
-8.68513e-09
3.48537e-06
-8.15501e-09
3.48617e-06
-7.4426e-09
3.4868e-06
-6.52982e-09
3.48723e-06
-5.39686e-09
3.48742e-06
-4.02177e-09
3.48734e-06
-2.38009e-09
3.48694e-06
-4.44414e-10
3.48619e-06
1.81586e-09
3.48503e-06
4.43546e-09
3.48342e-06
7.4541e-09
3.48131e-06
1.09173e-08
3.47864e-06
1.48774e-08
3.47536e-06
1.93949e-08
3.47141e-06
2.45399e-08
3.46674e-06
3.03937e-08
3.46129e-06
3.70508e-08
3.45502e-06
4.46209e-08
3.4479e-06
5.32313e-08
3.43991e-06
6.30285e-08
3.43107e-06
7.41806e-08
3.42144e-06
8.68773e-08
3.41116e-06
1.0133e-07
3.40045e-06
1.17765e-07
3.38969e-06
1.36416e-07
3.37943e-06
1.57505e-07
3.37045e-06
1.81206e-07
3.36385e-06
2.07592e-07
3.36099e-06
2.36551e-07
3.36355e-06
2.67662e-07
3.37326e-06
3.00035e-07
3.39149e-06
3.3214e-07
3.41849e-06
3.61708e-07
3.85884e-07
3.45231e-06
3.73829e-06
-3.62385e-09
3.73925e-06
-6.07257e-09
3.74037e-06
-6.83168e-09
3.7414e-06
-5.80349e-09
3.7421e-06
-3.11345e-09
3.74228e-06
8.11515e-10
3.74182e-06
5.30632e-09
3.74071e-06
9.639e-09
3.73904e-06
1.32072e-08
3.73694e-06
1.56649e-08
3.73457e-06
1.6946e-08
3.73208e-06
1.72002e-08
3.72961e-06
1.66922e-08
3.72723e-06
1.57059e-08
3.72501e-06
1.44812e-08
3.72295e-06
1.31866e-08
3.72108e-06
1.19196e-08
3.7194e-06
1.07223e-08
3.71788e-06
9.60127e-09
3.71653e-06
8.54419e-09
3.71534e-06
7.53276e-09
3.7143e-06
6.54935e-09
3.7134e-06
5.58027e-09
3.71265e-06
4.61652e-09
3.71204e-06
3.65346e-09
3.71157e-06
2.68951e-09
3.71124e-06
1.72541e-09
3.71104e-06
7.63483e-10
3.71098e-06
-1.93007e-10
3.71104e-06
-1.1402e-09
3.71123e-06
-2.07375e-09
3.71153e-06
-2.98893e-09
3.71195e-06
-3.88076e-09
3.71248e-06
-4.74362e-09
3.71311e-06
-5.5715e-09
3.71383e-06
-6.3578e-09
3.71464e-06
-7.09551e-09
3.71552e-06
-7.77681e-09
3.71646e-06
-8.39334e-09
3.71745e-06
-8.93607e-09
3.71849e-06
-9.39518e-09
3.71954e-06
-9.76015e-09
3.7206e-06
-1.00197e-08
3.72165e-06
-1.01619e-08
3.72266e-06
-1.01738e-08
3.72363e-06
-1.00417e-08
3.72452e-06
-9.75095e-09
3.72531e-06
-9.28574e-09
3.72598e-06
-8.62918e-09
3.7265e-06
-7.76297e-09
3.72683e-06
-6.66732e-09
3.72696e-06
-5.32057e-09
3.72683e-06
-3.69899e-09
3.72643e-06
-1.77641e-09
3.72572e-06
4.76104e-10
3.72465e-06
3.09052e-09
3.72318e-06
6.10281e-09
3.72129e-06
9.55343e-09
3.71893e-06
1.34881e-08
3.71605e-06
1.79582e-08
3.71263e-06
2.30223e-08
3.70863e-06
2.87464e-08
3.70403e-06
3.52053e-08
3.6988e-06
4.24833e-08
3.69295e-06
5.06753e-08
3.6865e-06
5.98866e-08
3.6795e-06
7.02333e-08
3.67204e-06
8.1841e-08
3.66428e-06
9.48421e-08
3.65644e-06
1.09371e-07
3.64885e-06
1.25556e-07
3.64196e-06
1.43506e-07
3.63637e-06
1.63291e-07
3.63286e-06
1.84912e-07
3.63238e-06
2.08263e-07
3.63605e-06
2.33081e-07
3.64502e-06
2.58878e-07
3.66037e-06
2.84879e-07
3.68272e-06
3.09975e-07
3.71187e-06
3.32742e-07
3.51598e-07
3.74634e-06
4.00013e-06
-4.20596e-09
4.00116e-06
-7.09565e-09
4.00238e-06
-8.04761e-09
4.00354e-06
-6.95711e-09
4.00439e-06
-3.95489e-09
4.00473e-06
4.88449e-10
4.00442e-06
5.62803e-09
4.00345e-06
1.06342e-08
4.00187e-06
1.48125e-08
3.99981e-06
1.77519e-08
3.99743e-06
1.93555e-08
3.99489e-06
1.97754e-08
3.99232e-06
1.93e-08
3.98982e-06
1.82479e-08
3.98745e-06
1.68934e-08
3.98526e-06
1.54337e-08
3.98324e-06
1.39871e-08
3.98142e-06
1.26085e-08
3.97978e-06
1.13112e-08
3.97831e-06
1.00854e-08
3.977e-06
8.9132e-09
3.97586e-06
7.77594e-09
3.97487e-06
6.65885e-09
3.97402e-06
5.55194e-09
3.97333e-06
4.44964e-09
3.97277e-06
3.35011e-09
3.97235e-06
2.25395e-09
3.97207e-06
1.16363e-09
3.97191e-06
8.26982e-11
3.97189e-06
-9.84505e-10
3.97198e-06
-2.0331e-09
3.97218e-06
-3.05769e-09
3.9725e-06
-4.0526e-09
3.97292e-06
-5.01139e-09
3.97343e-06
-5.9272e-09
3.97402e-06
-6.79257e-09
3.97469e-06
-7.59947e-09
3.97542e-06
-8.33912e-09
3.9762e-06
-9.00206e-09
3.97702e-06
-9.57809e-09
3.97786e-06
-1.00563e-08
3.97871e-06
-1.04249e-08
3.97955e-06
-1.06715e-08
3.98037e-06
-1.07827e-08
3.98113e-06
-1.07443e-08
3.98183e-06
-1.05413e-08
3.98244e-06
-1.01577e-08
3.98294e-06
-9.57639e-09
3.98329e-06
-8.77917e-09
3.98349e-06
-7.7465e-09
3.98349e-06
-6.45735e-09
3.98327e-06
-4.88901e-09
3.9828e-06
-3.01687e-09
3.98206e-06
-8.13994e-10
3.981e-06
1.74862e-09
3.97961e-06
4.70294e-09
3.97785e-06
8.08434e-09
3.97569e-06
1.19319e-08
3.97311e-06
1.62885e-08
3.97009e-06
2.1202e-08
3.9666e-06
2.67246e-08
3.96266e-06
3.29144e-08
3.95825e-06
3.98343e-08
3.9534e-06
4.75532e-08
3.94815e-06
5.61445e-08
3.94257e-06
6.5686e-08
3.93676e-06
7.62576e-08
3.93088e-06
8.79387e-08
3.92514e-06
1.00804e-07
3.91981e-06
1.14917e-07
3.91526e-06
1.30321e-07
3.91195e-06
1.47028e-07
3.91045e-06
1.65004e-07
3.91142e-06
1.84146e-07
3.91563e-06
2.04262e-07
3.92387e-06
2.25048e-07
3.9369e-06
2.46058e-07
3.95529e-06
2.66691e-07
3.97927e-06
2.86193e-07
4.00851e-06
3.03704e-07
3.18355e-07
4.04195e-06
4.28031e-06
-4.82173e-09
4.28141e-06
-8.18847e-09
4.28273e-06
-9.36867e-09
4.28404e-06
-8.25028e-09
4.28506e-06
-4.96597e-09
4.28559e-06
-2.30215e-11
4.28547e-06
5.76022e-09
4.28467e-06
1.14596e-08
4.28322e-06
1.62874e-08
4.28124e-06
1.9761e-08
4.27888e-06
2.17451e-08
4.27631e-06
2.23853e-08
4.27366e-06
2.19884e-08
4.27105e-06
2.0904e-08
4.26855e-06
1.94409e-08
4.26621e-06
1.78265e-08
4.26406e-06
1.62023e-08
4.26209e-06
1.4639e-08
4.26031e-06
1.31587e-08
4.25872e-06
1.17566e-08
4.2573e-06
1.04159e-08
4.25604e-06
9.11808e-09
4.25495e-06
7.84766e-09
4.25401e-06
6.59368e-09
4.25321e-06
5.34994e-09
4.25256e-06
4.11404e-09
4.25204e-06
2.88651e-09
4.25166e-06
1.66977e-09
4.25141e-06
4.67697e-10
4.25127e-06
-7.15008e-10
4.25125e-06
-1.87283e-09
4.25134e-06
-2.9998e-09
4.25153e-06
-4.08964e-09
4.25182e-06
-5.13514e-09
4.25218e-06
-6.12842e-09
4.25262e-06
-7.06127e-09
4.25312e-06
-7.9247e-09
4.25367e-06
-8.70901e-09
4.25426e-06
-9.40377e-09
4.25487e-06
-9.99776e-09
4.25548e-06
-1.0479e-08
4.25609e-06
-1.08347e-08
4.25667e-06
-1.10513e-08
4.25721e-06
-1.11144e-08
4.25768e-06
-1.10089e-08
4.25807e-06
-1.07187e-08
4.25836e-06
-1.02267e-08
4.25852e-06
-9.51517e-09
4.25852e-06
-8.56493e-09
4.25836e-06
-7.35591e-09
4.25799e-06
-5.86654e-09
4.2574e-06
-4.07397e-09
4.25657e-06
-1.95357e-09
4.25547e-06
5.20753e-10
4.25407e-06
3.37705e-09
4.25236e-06
6.64566e-09
4.25032e-06
1.03594e-08
4.24794e-06
1.45535e-08
4.24519e-06
1.9266e-08
4.24209e-06
2.45376e-08
4.23864e-06
3.04118e-08
4.23486e-06
3.69346e-08
4.23078e-06
4.41539e-08
4.22644e-06
5.21192e-08
4.22194e-06
6.088e-08
4.21738e-06
7.04841e-08
4.2129e-06
8.09752e-08
4.20868e-06
9.23895e-08
4.20496e-06
1.04751e-07
4.20205e-06
1.18066e-07
4.20028e-06
1.32316e-07
4.20009e-06
1.47449e-07
4.20195e-06
1.6337e-07
4.20639e-06
1.7993e-07
4.21396e-06
1.96916e-07
4.22518e-06
2.14044e-07
4.24051e-06
2.30952e-07
4.26022e-06
2.47204e-07
4.28431e-06
2.62311e-07
4.31247e-06
2.75761e-07
2.87082e-07
4.34396e-06
4.58011e-06
-5.47163e-09
4.58128e-06
-9.35249e-09
4.58272e-06
-1.07988e-08
4.58417e-06
-9.6909e-09
4.58538e-06
-6.16045e-09
4.58611e-06
-7.43878e-10
4.58622e-06
5.67503e-09
4.58562e-06
1.20821e-08
4.58434e-06
1.7596e-08
4.58247e-06
2.16569e-08
4.58017e-06
2.40821e-08
4.57759e-06
2.50023e-08
4.57489e-06
2.47357e-08
4.57218e-06
2.3659e-08
4.56956e-06
2.21141e-08
4.56708e-06
2.036e-08
4.56479e-06
1.85641e-08
4.56268e-06
1.68152e-08
4.56077e-06
1.51476e-08
4.55904e-06
1.35627e-08
4.5575e-06
1.20472e-08
4.55612e-06
1.05832e-08
4.55492e-06
9.15508e-09
4.55386e-06
7.7513e-09
4.55296e-06
6.36497e-09
4.5522e-06
4.99325e-09
4.55158e-06
3.63639e-09
4.55108e-06
2.29685e-09
4.55071e-06
9.78602e-10
4.55045e-06
-3.13245e-10
4.5503e-06
-1.57269e-09
4.55025e-06
-2.79287e-09
4.5503e-06
-3.96749e-09
4.55042e-06
-5.08836e-09
4.55061e-06
-6.14649e-09
4.55087e-06
-7.13311e-09
4.55117e-06
-8.03842e-09
4.5515e-06
-8.8518e-09
4.55186e-06
-9.562e-09
4.55222e-06
-1.01568e-08
4.55257e-06
-1.06236e-08
4.55289e-06
-1.09487e-08
4.55318e-06
-1.11176e-08
4.5534e-06
-1.11153e-08
4.55354e-06
-1.0926e-08
4.55358e-06
-1.05329e-08
4.5535e-06
-9.91856e-09
4.55328e-06
-9.06479e-09
4.55291e-06
-7.95235e-09
4.55235e-06
-6.56118e-09
4.5516e-06
-4.87017e-09
4.55062e-06
-2.85713e-09
4.54941e-06
-4.98773e-10
4.54795e-06
2.22913e-09
4.54622e-06
5.35219e-09
4.54422e-06
8.89753e-09
4.54194e-06
1.28935e-08
4.53937e-06
1.73698e-08
4.53653e-06
2.23571e-08
4.53344e-06
2.7887e-08
4.53011e-06
3.39918e-08
4.52659e-06
4.07034e-08
4.52295e-06
4.8053e-08
4.51925e-06
5.60697e-08
4.5156e-06
6.47788e-08
4.51214e-06
7.42002e-08
4.50901e-06
8.43454e-08
4.50644e-06
9.52148e-08
4.50464e-06
1.06794e-07
4.50391e-06
1.19049e-07
4.50455e-06
1.31922e-07
4.50691e-06
1.45327e-07
4.51138e-06
1.59144e-07
4.51833e-06
1.73217e-07
4.52814e-06
1.87346e-07
4.54113e-06
2.01297e-07
4.55752e-06
2.14795e-07
4.57742e-06
2.27538e-07
4.60074e-06
2.39216e-07
4.6272e-06
2.49529e-07
2.58223e-07
4.65629e-06
4.90091e-06
-6.15567e-09
4.90215e-06
-1.05875e-08
4.9037e-06
-1.23384e-08
4.9053e-06
-1.12817e-08
4.9067e-06
-7.54467e-09
4.90766e-06
-1.68559e-09
4.908e-06
5.3548e-09
4.90763e-06
1.24783e-08
4.90654e-06
1.87102e-08
4.90482e-06
2.34089e-08
4.9026e-06
2.63362e-08
4.90005e-06
2.75986e-08
4.89731e-06
2.7518e-08
4.89453e-06
2.64937e-08
4.8918e-06
2.4899e-08
4.8892e-06
2.30255e-08
4.88676e-06
2.10678e-08
4.88452e-06
1.91364e-08
4.88246e-06
1.72799e-08
4.8806e-06
1.55087e-08
4.87893e-06
1.3814e-08
4.87743e-06
1.218e-08
4.8761e-06
1.05915e-08
4.87493e-06
9.0367e-09
4.87391e-06
7.50832e-09
4.87302e-06
6.003e-09
4.87227e-06
4.52066e-09
4.87165e-06
3.06372e-09
4.87114e-06
1.63625e-09
4.87073e-06
2.43621e-10
4.87043e-06
-1.10787e-09
4.87022e-06
-2.40971e-09
4.87008e-06
-3.657e-09
4.87001e-06
-4.83993e-09
4.87e-06
-5.94819e-09
4.87003e-06
-6.97297e-09
4.8701e-06
-7.90361e-09
4.87018e-06
-8.72877e-09
4.87026e-06
-9.43664e-09
4.87034e-06
-1.00141e-08
4.87038e-06
-1.04482e-08
4.87038e-06
-1.07244e-08
4.87032e-06
-1.0828e-08
4.87019e-06
-1.07435e-08
4.86995e-06
-1.04548e-08
4.86961e-06
-9.94507e-09
4.86913e-06
-9.19699e-09
4.86851e-06
-8.19252e-09
4.86772e-06
-6.91308e-09
4.86675e-06
-5.33945e-09
4.86559e-06
-3.45178e-09
4.86423e-06
-1.22964e-09
4.86264e-06
1.34767e-09
4.86083e-06
4.30147e-09
4.8588e-06
7.65377e-09
4.85653e-06
1.14269e-08
4.85405e-06
1.56432e-08
4.85136e-06
2.03253e-08
4.84849e-06
2.5495e-08
4.84548e-06
3.11738e-08
4.84236e-06
3.73812e-08
4.83919e-06
4.41349e-08
4.83607e-06
5.14493e-08
4.83307e-06
5.93342e-08
4.83033e-06
6.77936e-08
4.82797e-06
7.68235e-08
4.82617e-06
8.64106e-08
4.82513e-06
9.65289e-08
4.82505e-06
1.07138e-07
4.82618e-06
1.18182e-07
4.82878e-06
1.29582e-07
4.83312e-06
1.41242e-07
4.83949e-06
1.5304e-07
4.84813e-06
1.64832e-07
4.85928e-06
1.76453e-07
4.87311e-06
1.87719e-07
4.88972e-06
1.98433e-07
4.90912e-06
2.08393e-07
4.93118e-06
2.17403e-07
4.95566e-06
2.25291e-07
2.31923e-07
4.98221e-06
5.24418e-06
-6.87297e-09
5.24549e-06
-1.18915e-08
5.24714e-06
-1.39848e-08
5.24889e-06
-1.30195e-08
5.25048e-06
-9.11625e-09
5.25166e-06
-2.84848e-09
5.25224e-06
4.79474e-09
5.25211e-06
1.26374e-08
5.25124e-06
1.96131e-08
5.24968e-06
2.49951e-08
5.24758e-06
2.84822e-08
5.24507e-06
3.01481e-08
5.24233e-06
3.03108e-08
5.23949e-06
2.93869e-08
5.23667e-06
2.7779e-08
5.23395e-06
2.58107e-08
5.23139e-06
2.37064e-08
5.229e-06
2.16001e-08
5.22681e-06
1.95572e-08
5.22481e-06
1.75994e-08
5.223e-06
1.57241e-08
5.22137e-06
1.3919e-08
5.2199e-06
1.21699e-08
5.21859e-06
1.04653e-08
5.21743e-06
8.79755e-09
5.21641e-06
7.163e-09
5.21551e-06
5.56125e-09
5.21473e-06
3.99454e-09
5.21405e-06
2.46703e-09
5.21348e-06
9.84329e-10
5.21299e-06
-4.46836e-10
5.21257e-06
-1.8186e-09
5.21223e-06
-3.12352e-09
5.21193e-06
-4.35221e-09
5.21168e-06
-5.49435e-09
5.21145e-06
-6.5401e-09
5.21124e-06
-7.47809e-09
5.21102e-06
-8.29658e-09
5.21079e-06
-8.98337e-09
5.21053e-06
-9.52493e-09
5.21023e-06
-9.90772e-09
5.20986e-06
-1.01174e-08
5.20942e-06
-1.0139e-08
5.20888e-06
-9.95704e-09
5.20824e-06
-9.5557e-09
5.20747e-06
-8.91864e-09
5.20656e-06
-8.02912e-09
5.2055e-06
-6.87016e-09
5.20428e-06
-5.42442e-09
5.20289e-06
-3.67439e-09
5.20132e-06
-1.60241e-09
5.19956e-06
8.09013e-10
5.1976e-06
3.57733e-09
5.19547e-06
6.71999e-09
5.19315e-06
1.02541e-08
5.19067e-06
1.4196e-08
5.18803e-06
1.85613e-08
5.18528e-06
2.33644e-08
5.18244e-06
2.86179e-08
5.17957e-06
3.43324e-08
5.17673e-06
4.05153e-08
5.17398e-06
4.71707e-08
5.17142e-06
5.42977e-08
5.16915e-06
6.18901e-08
5.1673e-06
6.99346e-08
5.166e-06
7.84097e-08
5.16541e-06
8.72845e-08
5.1657e-06
9.65171e-08
5.16707e-06
1.06053e-07
5.16971e-06
1.15826e-07
5.17382e-06
1.25755e-07
5.17959e-06
1.35744e-07
5.18723e-06
1.45684e-07
5.19688e-06
1.55455e-07
5.20868e-06
1.64928e-07
5.2227e-06
1.73964e-07
5.23898e-06
1.82428e-07
5.25745e-06
1.90187e-07
5.278e-06
1.9712e-07
5.30043e-06
2.0313e-07
2.08146e-07
5.32446e-06
5.61149e-06
-7.62199e-09
5.61286e-06
-1.32606e-08
5.61462e-06
-1.57313e-08
5.61651e-06
-1.4895e-08
5.61827e-06
-1.08643e-08
5.61966e-06
-4.22178e-09
5.62048e-06
4.00275e-09
5.62058e-06
1.2562e-08
5.61992e-06
2.03007e-08
5.61855e-06
2.64042e-08
5.61657e-06
3.05028e-08
5.61414e-06
3.26297e-08
5.61141e-06
3.30916e-08
5.60854e-06
3.23174e-08
5.60564e-06
3.07357e-08
5.60282e-06
2.8702e-08
5.60014e-06
2.64711e-08
5.59762e-06
2.42024e-08
5.59528e-06
2.19807e-08
5.59314e-06
1.98404e-08
5.59118e-06
1.77873e-08
5.5894e-06
1.58134e-08
5.58779e-06
1.39068e-08
5.58632e-06
1.20565e-08
5.585e-06
1.0255e-08
5.58381e-06
8.49824e-09
5.58274e-06
6.7857e-09
5.58177e-06
5.1194e-09
5.5809e-06
3.50349e-09
5.58012e-06
1.94367e-09
5.57941e-06
4.46927e-10
5.57876e-06
-9.78775e-10
5.57816e-06
-2.32506e-09
5.57759e-06
-3.58231e-09
5.57705e-06
-4.7402e-09
5.57651e-06
-5.788e-09
5.57598e-06
-6.71438e-09
5.57542e-06
-7.50699e-09
5.57483e-06
-8.15383e-09
5.57419e-06
-8.64102e-09
5.57349e-06
-8.95463e-09
5.57271e-06
-9.08163e-09
5.57183e-06
-9.0063e-09
5.57086e-06
-8.71428e-09
5.56976e-06
-8.19037e-09
5.56854e-06
-7.41927e-09
5.56717e-06
-6.38558e-09
5.56566e-06
-5.07391e-09
5.56399e-06
-3.46897e-09
5.56216e-06
-1.55576e-09
5.56017e-06
6.80225e-10
5.55802e-06
3.25301e-09
5.55572e-06
6.17604e-09
5.55328e-06
9.46191e-09
5.55071e-06
1.3122e-08
5.54805e-06
1.71664e-08
5.54531e-06
2.16033e-08
5.54254e-06
2.64388e-08
5.53979e-06
3.16763e-08
5.53711e-06
3.73163e-08
5.53458e-06
4.33554e-08
5.53227e-06
4.97858e-08
5.53028e-06
5.65947e-08
5.52871e-06
6.37632e-08
5.52769e-06
7.12661e-08
5.52733e-06
7.90704e-08
5.52779e-06
8.71353e-08
5.5292e-06
9.54113e-08
5.53171e-06
1.0384e-07
5.53549e-06
1.12353e-07
5.54066e-06
1.20876e-07
5.54738e-06
1.29323e-07
5.55576e-06
1.37604e-07
5.56589e-06
1.45623e-07
5.57782e-06
1.53283e-07
5.59159e-06
1.60485e-07
5.60717e-06
1.67138e-07
5.62449e-06
1.73156e-07
5.64342e-06
1.78466e-07
5.66382e-06
1.83013e-07
1.86765e-07
5.68548e-06
6.00452e-06
-8.40029e-09
6.00595e-06
-1.46891e-08
6.0078e-06
-1.75683e-08
6.00981e-06
-1.68939e-08
6.01173e-06
-1.27702e-08
6.01332e-06
-5.78461e-09
6.01435e-06
2.99902e-09
6.01467e-06
1.2268e-08
6.01422e-06
2.07813e-08
6.01303e-06
2.76363e-08
6.01119e-06
3.23899e-08
6.00884e-06
3.50289e-08
6.00614e-06
3.58426e-08
6.00325e-06
3.52665e-08
6.0003e-06
3.37524e-08
5.9974e-06
3.16862e-08
5.99459e-06
2.93534e-08
5.99195e-06
2.69403e-08
5.98947e-06
2.45524e-08
5.98718e-06
2.22391e-08
5.98506e-06
2.00156e-08
5.98311e-06
1.78797e-08
5.98133e-06
1.58224e-08
5.97968e-06
1.38342e-08
5.97818e-06
1.19078e-08
5.97679e-06
1.00391e-08
5.97551e-06
8.22737e-09
5.97432e-06
6.47449e-09
5.97322e-06
4.78447e-09
5.97218e-06
3.16309e-09
5.97121e-06
1.61738e-09
5.97028e-06
1.55432e-10
5.96937e-06
-1.21377e-09
5.96849e-06
-2.48073e-09
5.96761e-06
-3.6348e-09
5.96672e-06
-4.66501e-09
5.96581e-06
-5.56004e-09
5.96485e-06
-6.30792e-09
5.96385e-06
-6.896e-09
5.96278e-06
-7.31124e-09
5.96163e-06
-7.54028e-09
5.96039e-06
-7.56979e-09
5.95905e-06
-7.38587e-09
5.95759e-06
-6.97478e-09
5.95601e-06
-6.32256e-09
5.9543e-06
-5.41585e-09
5.95245e-06
-4.2408e-09
5.95046e-06
-2.7845e-09
5.94833e-06
-1.03441e-09
5.94607e-06
1.02127e-09
5.94366e-06
3.39348e-09
5.94114e-06
6.09224e-09
5.93851e-06
9.1263e-09
5.93578e-06
1.25029e-08
5.933e-06
1.62277e-08
5.93018e-06
2.03039e-08
5.92738e-06
2.47328e-08
5.92463e-06
2.95127e-08
5.92199e-06
3.46389e-08
5.91953e-06
4.01029e-08
5.91732e-06
4.58925e-08
5.91545e-06
5.1991e-08
5.91399e-06
5.83766e-08
5.91306e-06
6.50225e-08
5.91276e-06
7.18959e-08
5.9132e-06
7.89584e-08
5.91449e-06
8.61652e-08
5.91676e-06
9.34657e-08
5.92012e-06
1.00803e-07
5.92468e-06
1.08116e-07
5.93054e-06
1.15338e-07
5.93778e-06
1.22398e-07
5.94647e-06