/*--------------------------------*- C++ -*----------------------------------*\
| =========                 |                                                 |
| \\      /  F ield         | OpenFOAM: The Open Source CFD Toolbox           |
|  \\    /   O peration     | Version:  4.1                                   |
|   \\  /    A nd           | Web:      www.OpenFOAM.org                      |
|    \\/     M anipulation  |                                                 |
\*---------------------------------------------------------------------------*/
FoamFile
{
    version     2.0;
    format      ascii;
    class       pointVectorField;
    location    "2.8";
    object      pointDisplacement;
}
// * * * * * * * * * * * * * * * * * * * * * * * * * * * * * * * * * * * * * //

dimensions      [0 1 0 0 0 0 0];

internalField   nonuniform List<vector> 
5828
(
(0 0 0)
(0.0174835 0 0)
(0.0330827 0 0)
(0.046368 0 0)
(0.0575544 0 0)
(0.0668444 0 0)
(0.0744184 0 0)
(0.0804407 0 0)
(0.085056 0 0)
(0.0883883 0 0)
(0.0905453 0 0)
(0.0916212 0 0)
(0.0916993 0 0)
(0.0908537 0 0)
(0.0891503 0 0)
(0.0866489 0 0)
(0.083408 0 0)
(0.0794815 0 0)
(0.0749188 0 0)
(0.069772 0 0)
(0.0640992 0 0)
(0.0579644 0 0)
(0.0514388 0 0)
(0.0446053 0 0)
(0.0375626 0 0)
(0.0304444 0 0)
(0.0234373 0 0)
(0.016808 0 0)
(0.0109778 0 0)
(0.00677679 0 0)
(0 0 0)
(0 0 0)
(0.0174947 0 -8.23522e-05)
(0.0331051 0 -0.000156761)
(0.0464016 0 -0.000221991)
(0.0576003 0 -0.000279503)
(0.0669036 0 -0.000330556)
(0.0744913 0 -0.000375557)
(0.080529 0 -0.000414642)
(0.0851621 0 -0.00044817)
(0.0885147 0 -0.000476094)
(0.0906948 0 -0.000498154)
(0.091797 0 -0.000513596)
(0.0919052 0 -0.000521441)
(0.0910939 0 -0.000520696)
(0.0894296 0 -0.000510016)
(0.0869724 0 -0.000487714)
(0.0837811 0 -0.000451896)
(0.0799126 0 -0.000400095)
(0.075417 0 -0.000329259)
(0.0703465 0 -0.000235952)
(0.0647615 0 -0.000116113)
(0.058729 0 3.51275e-05)
(0.0523241 0 0.000223675)
(0.0456352 0 0.000456473)
(0.0387658 0 0.000741896)
(0.0318527 0 0.00109006)
(0.0250927 0 0.00151173)
(0.0187701 0 0.00201692)
(0.0133467 0 0.00260581)
(0.00969415 0 0.00321659)
(0.00441416 0 0.00423377)
(0 0 0)
(0.0175306 0 -0.000164995)
(0.0331741 0 -0.000314112)
(0.0465037 0 -0.000444887)
(0.0577389 0 -0.000560223)
(0.0670814 0 -0.000662369)
(0.0747096 0 -0.000752402)
(0.0807927 0 -0.00083094)
(0.0854786 0 -0.000898513)
(0.0888914 0 -0.000954999)
(0.0911404 0 -0.00100003)
(0.0923207 0 -0.00103204)
(0.0925178 0 -0.00104905)
(0.0918085 0 -0.00104924)
(0.0902609 0 -0.00103)
(0.0879367 0 -0.000988039)
(0.0848962 0 -0.000919306)
(0.0811997 0 -0.000819539)
(0.0769021 0 -0.000683423)
(0.0720571 0 -0.000504)
(0.0667311 0 -0.000273685)
(0.0609996 0 1.64633e-05)
(0.0549467 0 0.000377356)
(0.0486736 0 0.000821559)
(0.042305 0 0.00136345)
(0.0359991 0 0.00201785)
(0.0299754 0 0.00279829)
(0.0245411 0 0.00371328)
(0.0202101 0 0.00474184)
(0.0179367 0 0.00573685)
(0.0141079 0 0.00725279)
(0 0 0)
(0.0175906 0 -0.000247904)
(0.0332888 0 -0.000472015)
(0.0466722 0 -0.000668656)
(0.0579651 0 -0.000842169)
(0.0673702 0 -0.000995536)
(0.0750672 0 -0.00113084)
(0.0812276 0 -0.0012495)
(0.0860012 0 -0.001352)
(0.0895137 0 -0.00143812)
(0.0918753 0 -0.00150713)
(0.0931833 0 -0.00155712)
(0.0935266 0 -0.00158562)
(0.0929849 0 -0.00158988)
(0.0916291 0 -0.00156617)
(0.0895251 0 -0.00150986)
(0.0867358 0 -0.00141531)
(0.0833248 0 -0.00127652)
(0.0793544 0 -0.00108622)
(0.074885 0 -0.000835058)
(0.0699872 0 -0.000512634)
(0.0647473 0 -0.000107271)
(0.0592633 0 0.000394533)
(0.0536501 0 0.00100801)
(0.0480651 0 0.00174849)
(0.0427101 0 0.00262843)
(0.0378415 0 0.00365361)
(0.0337889 0 0.0048146)
(0.0310396 0 0.00605162)
(0.0305634 0 0.00713156)
(0.0285112 0 0.00872886)
(0 0 0)
(0.0176753 0 -0.000330765)
(0.0334483 0 -0.000629758)
(0.0469052 0 -0.000892279)
(0.0582764 0 -0.00112415)
(0.0677674 0 -0.00132952)
(0.0755612 0 -0.00151118)
(0.0818299 0 -0.00167098)
(0.0867248 0 -0.00180969)
(0.0903745 0 -0.00192702)
(0.0928907 0 -0.00202161)
(0.0943748 0 -0.00209184)
(0.0949203 0 -0.00213532)
(0.0946096 0 -0.00214822)
(0.0935178 0 -0.00212594)
(0.0917158 0 -0.00206291)
(0.0892717 0 -0.0019525)
(0.0862543 0 -0.00178729)
(0.0827321 0 -0.00155836)
(0.078779 0 -0.00125564)
(0.0744736 0 -0.000867337)
(0.0699093 0 -0.000380496)
(0.0652034 0 0.000217789)
(0.0604871 0 0.000941541)
(0.0559353 0 0.00180251)
(0.0517885 0 0.00280352)
(0.0483605 0 0.00393114)
(0.0460163 0 0.00514391)
(0.0451688 0 0.00634422)
(0.0466614 0 0.00724481)
(0.0463768 0 0.00861433)
(0 0 0)
(0.0177767 0 -0.000413372)
(0.0336471 0 -0.000787166)
(0.0471999 0 -0.00111566)
(0.0586723 0 -0.00140614)
(0.0682733 0 -0.00166398)
(0.0761875 0 -0.00189269)
(0.0825912 0 -0.00209466)
(0.087639 0 -0.00227108)
(0.0914613 0 -0.0024217)
(0.0941736 0 -0.00254508)
(0.0958819 0 -0.00263962)
(0.0966828 0 -0.00270276)
(0.0966632 0 -0.0027302)
(0.0959036 0 -0.00271685)
(0.0944808 0 -0.00265661)
(0.0924691 0 -0.00254229)
(0.0899456 0 -0.00236593)
(0.0869865 0 -0.00211811)
(0.0836752 0 -0.0017884)
(0.0801045 0 -0.00136554)
(0.0763787 0 -0.000837663)
(0.0726343 0 -0.000194903)
(0.0690308 0 0.0005707)
(0.0657464 0 0.00146268)
(0.0630254 0 0.0024708)
(0.0612244 0 0.00355629)
(0.0607385 0 0.00464031)
(0.0619127 0 0.00559631)
(0.0653238 0 0.00613346)
(0.0666096 0 0.00708763)
(0 0 0)
(0.0178942 0 -0.000495749)
(0.0338841 0 -0.000944476)
(0.0475541 0 -0.0013392)
(0.0591462 0 -0.00168861)
(0.0688774 0 -0.00199911)
(0.0769366 0 -0.00227539)
(0.0835032 0 -0.00252082)
(0.088734 0 -0.00273673)
(0.0927629 0 -0.00292314)
(0.0957105 0 -0.00307896)
(0.0976865 0 -0.00320242)
(0.0987917 0 -0.00329067)
(0.0991183 0 -0.0033395)
(0.0987534 0 -0.00334381)
(0.0977805 0 -0.00329745)
(0.09628 0 -0.00319297)
(0.0943398 0 -0.00302294)
(0.0920499 0 -0.00277891)
(0.0894988 0 -0.0024506)
(0.0867916 0 -0.00202865)
(0.0840494 0 -0.00150461)
(0.081417 0 -0.000872676)
(0.0790812 0 -0.00013446)
(0.0772443 0 0.000699455)
(0.0761374 0 0.00160437)
(0.0760892 0 0.00252073)
(0.0774853 0 0.00333823)
(0.080611 0 0.00391064)
(0.0857066 0 0.00399177)
(0.0882223 0 0.0044517)
(0 0 0)
(0.0180342 0 -0.000577946)
(0.0341613 0 -0.00110137)
(0.0479637 0 -0.00156212)
(0.0596919 0 -0.00197067)
(0.0695731 0 -0.0023347)
(0.0778018 0 -0.00265996)
(0.0845577 0 -0.00295048)
(0.0899995 0 -0.003208)
(0.0942664 0 -0.00343296)
(0.0974839 0 -0.00362472)
(0.0997666 0 -0.00378163)
(0.10122 0 -0.00390095)
(0.101942 0 -0.0039787)
(0.102028 0 -0.00401026)
(0.101568 0 -0.00399002)
(0.100653 0 -0.00391114)
(0.0993768 0 -0.00376678)
(0.0978386 0 -0.0035495)
(0.096143 0 -0.00325172)
(0.0944129 0 -0.00286788)
(0.0927847 0 -0.00239444)
(0.0914029 0 -0.0018306)
(0.090454 0 -0.00118612)
(0.0901722 0 -0.000487695)
(0.0907909 0 0.000222203)
(0.0925533 0 0.000871945)
(0.0957691 0 0.00133683)
(0.100634 0 0.00146753)
(0.107096 0 0.00108805)
(0.11046 0 0.00107891)
(0 0 0)
(0.0181913 0 -0.00065977)
(0.0344691 0 -0.00125739)
(0.0484213 0 -0.00178402)
(0.0603061 0 -0.00225206)
(0.0703575 0 -0.00267056)
(0.0787761 0 -0.00304615)
(0.0857434 0 -0.00338338)
(0.0914213 0 -0.0036847)
(0.0959538 0 -0.00395111)
(0.0994719 0 -0.00418251)
(0.102095 0 -0.00437771)
(0.103935 0 -0.00453436)
(0.105095 0 -0.00464885)
(0.105678 0 -0.00471758)
(0.105786 0 -0.00473616)
(0.105519 0 -0.00469926)
(0.104979 0 -0.004601)
(0.104269 0 -0.00443514)
(0.103506 0 -0.00419732)
(0.102834 0 -0.00388688)
(0.102407 0 -0.00350711)
(0.10238 0 -0.00306455)
(0.102922 0 -0.00257504)
(0.104264 0 -0.00207679)
(0.106635 0 -0.0016277)
(0.110198 0 -0.0013055)
(0.115138 0 -0.00123059)
(0.121499 0 -0.00153171)
(0.129014 0 -0.0023094)
(0.13291 0 -0.0026588)
(0 0 0)
(0.0183642 0 -0.00074099)
(0.0348045 0 -0.00141238)
(0.0489233 0 -0.00200503)
(0.0609836 0 -0.00253299)
(0.0712228 0 -0.00300658)
(0.0798491 0 -0.0034335)
(0.0870474 0 -0.00381904)
(0.0929832 0 -0.00416637)
(0.0978052 0 -0.0044771)
(0.10165 0 -0.0047519)
(0.104644 0 -0.00499031)
(0.106903 0 -0.00519069)
(0.108539 0 -0.00535057)
(0.109662 0 -0.00546719)
(0.110378 0 -0.00553682)
(0.1108 0 -0.00555635)
(0.111043 0 -0.00552275)
(0.111225 0 -0.00543312)
(0.111467 0 -0.00528557)
(0.111913 0 -0.00508235)
(0.112738 0 -0.00483431)
(0.114115 0 -0.0045572)
(0.116205 0 -0.0042733)
(0.119213 0 -0.00402677)
(0.123328 0 -0.00388161)
(0.128645 0 -0.00391454)
(0.135203 0 -0.00422692)
(0.142864 0 -0.00490905)
(0.151192 0 -0.00599146)
(0.155436 0 -0.00654185)
(0 0 0)
(0.0185477 0 -0.00082128)
(0.0351674 0 -0.0015661)
(0.0494683 0 -0.00222482)
(0.0617175 0 -0.0028129)
(0.0721592 0 -0.00334206)
(0.0810089 0 -0.00382126)
(0.0884552 0 -0.00425661)
(0.0946672 0 -0.00465209)
(0.0997982 0 -0.00500988)
(0.103991 0 -0.00533169)
(0.107378 0 -0.00561804)
(0.110082 0 -0.00586831)
(0.112225 0 -0.00608206)
(0.113922 0 -0.00625704)
(0.115281 0 -0.00639029)
(0.116422 0 -0.00648053)
(0.117475 0 -0.00652815)
(0.118576 0 -0.00653517)
(0.119861 0 -0.00650402)
(0.121465 0 -0.00643929)
(0.123571 0 -0.00635723)
(0.126366 0 -0.00628191)
(0.130012 0 -0.00624171)
(0.134685 0 -0.00628299)
(0.140514 0 -0.00646691)
(0.147522 0 -0.00685947)
(0.155605 0 -0.00753218)
(0.164446 0 -0.00852924)
(0.173451 0 -0.00982528)
(0.178043 0 -0.0104839)
(0 0 0)
(0.0187407 0 -0.000900745)
(0.0355551 0 -0.00171864)
(0.0500518 0 -0.00244309)
(0.0625004 0 -0.0030911)
(0.0731564 0 -0.00367616)
(0.0822428 0 -0.00420846)
(0.0899513 0 -0.00469501)
(0.0964544 0 -0.00514065)
(0.101912 0 -0.00554865)
(0.106473 0 -0.00592152)
(0.11027 0 -0.00626023)
(0.113435 0 -0.00656568)
(0.116101 0 -0.00683958)
(0.118386 0 -0.00708111)
(0.120411 0 -0.00728963)
(0.122297 0 -0.00746522)
(0.124175 0 -0.00760981)
(0.126199 0 -0.0077304)
(0.12852 0 -0.00783536)
(0.131284 0 -0.00793391)
(0.134669 0 -0.00804603)
(0.138862 0 -0.00820051)
(0.144022 0 -0.00843051)
(0.150303 0 -0.00878135)
(0.157779 0 -0.00930524)
(0.166406 0 -0.0100495)
(0.175955 0 -0.0110488)
(0.185944 0 -0.0122998)
(0.195607 0 -0.0137394)
(0.200742 0 -0.0144665)
(0 0 0)
(0.0189491 0 -0.00097955)
(0.0359637 0 -0.00186959)
(0.0506612 0 -0.00265891)
(0.0633205 0 -0.00336658)
(0.0742032 0 -0.00400784)
(0.0835373 0 -0.00459389)
(0.091519 0 -0.00513278)
(0.0983261 0 -0.00563045)
(0.104125 0 -0.00609168)
(0.109066 0 -0.0065193)
(0.113286 0 -0.00691479)
(0.116923 0 -0.00728048)
(0.120117 0 -0.00761978)
(0.122996 0 -0.00793461)
(0.125686 0 -0.00822657)
(0.128317 0 -0.00849839)
(0.13102 0 -0.00875351)
(0.133955 0 -0.00900244)
(0.137285 0 -0.00925894)
(0.141167 0 -0.00953767)
(0.145779 0 -0.00986237)
(0.151293 0 -0.0102641)
(0.157871 0 -0.0107789)
(0.165643 0 -0.011449)
(0.174645 0 -0.0123144)
(0.184788 0 -0.0133996)
(0.195754 0 -0.0146996)
(0.20693 0 -0.0161624)
(0.217347 0 -0.0177005)
(0.223521 0 -0.0184883)
(0 0 0)
(0.0191628 0 -0.0010569)
(0.0363843 0 -0.00201794)
(0.0512903 0 -0.00287161)
(0.0641712 0 -0.00363901)
(0.0752911 0 -0.00433671)
(0.0848813 0 -0.00497701)
(0.0931447 0 -0.00556918)
(0.100264 0 -0.0061203)
(0.10641 0 -0.00663622)
(0.111735 0 -0.00712065)
(0.116385 0 -0.00757672)
(0.120499 0 -0.00800739)
(0.124222 0 -0.00841743)
(0.127689 0 -0.00881143)
(0.13103 0 -0.00919266)
(0.13438 0 -0.00956697)
(0.137882 0 -0.0099416)
(0.141695 0 -0.0103295)
(0.145981 0 -0.0107476)
(0.150903 0 -0.0112155)
(0.156635 0 -0.0117604)
(0.163338 0 -0.012415)
(0.171165 0 -0.0132166)
(0.180232 0 -0.0142037)
(0.190549 0 -0.0154051)
(0.202012 0 -0.016825)
(0.214276 0 -0.0184214)
(0.226665 0 -0.0200883)
(0.23801 0 -0.0217073)
(0.246349 0 -0.0225376)
(0 0 0)
(0.0193806 0 -0.00113266)
(0.0368179 0 -0.00216374)
(0.0519411 0 -0.00308132)
(0.0650494 0 -0.00390821)
(0.0764116 0 -0.0046623)
(0.0862638 0 -0.00535717)
(0.094814 0 -0.00600326)
(0.10225 0 -0.00660875)
(0.108743 0 -0.00718026)
(0.114452 0 -0.00772294)
(0.119527 0 -0.00824146)
(0.124113 0 -0.00874026)
(0.128359 0 -0.00922536)
(0.1324 0 -0.00970253)
(0.136365 0 -0.0101772)
(0.140398 0 -0.0106578)
(0.144649 0 -0.0111559)
(0.149276 0 -0.0116869)
(0.15443 0 -0.0122691)
(0.160273 0 -0.0129262)
(0.166973 0 -0.0136881)
(0.174672 0 -0.0145881)
(0.183508 0 -0.0156639)
(0.193574 0 -0.0169516)
(0.204858 0 -0.0184735)
(0.217257 0 -0.0202259)
(0.230443 0 -0.0221468)
(0.24376 0 -0.0240778)
(0.256082 0 -0.0258204)
(0.269164 0 -0.0265779)
(0 0 0)
(0.0196119 0 -0.00120794)
(0.0372695 0 -0.00230832)
(0.0526136 0 -0.00328925)
(0.0659541 0 -0.00417545)
(0.0775636 0 -0.00498606)
(0.0876828 0 -0.00573594)
(0.0965242 0 -0.0064367)
(0.104278 0 -0.00709753)
(0.111121 0 -0.00772605)
(0.117213 0 -0.00832865)
(0.122706 0 -0.00891115)
(0.127756 0 -0.00948022)
(0.132511 0 -0.0100431)
(0.137102 0 -0.010606)
(0.14166 0 -0.0111764)
(0.14633 0 -0.0117653)
(0.151267 0 -0.0123875)
(0.156623 0 -0.0130604)
(0.162534 0 -0.0138032)
(0.169155 0 -0.014642)
(0.176637 0 -0.015608)
(0.185091 0 -0.0167335)
(0.194628 0 -0.0180561)
(0.205302 0 -0.0196098)
(0.217053 0 -0.0214159)
(0.229743 0 -0.023484)
(0.243011 0 -0.025788)
(0.256178 0 -0.0282749)
(0.268439 0 -0.0310537)
(0.292022 0 -0.03062)
(0 0 0)
(0.0174835 0 0)
(0.0330827 0 0)
(0.046368 0 0)
(0.0575544 0 0)
(0.0668444 0 0)
(0.0744184 0 0)
(0.0804407 0 0)
(0.085056 0 0)
(0.0883883 0 0)
(0.0905453 0 0)
(0.0916212 0 0)
(0.0916993 0 0)
(0.0908537 0 0)
(0.0891503 0 0)
(0.0866489 0 0)
(0.083408 0 0)
(0.0794815 0 0)
(0.0749188 0 0)
(0.069772 0 0)
(0.0640992 0 0)
(0.0579644 0 0)
(0.0514388 0 0)
(0.0446053 0 0)
(0.0375626 0 0)
(0.0304444 0 0)
(0.0234373 0 0)
(0.016808 0 0)
(0.0109778 0 0)
(0.00677679 0 0)
(0 0 0)
(0 0 0)
(0.0174947 0 -8.23522e-05)
(0.0331051 0 -0.000156761)
(0.0464016 0 -0.000221991)
(0.0576003 0 -0.000279503)
(0.0669036 0 -0.000330556)
(0.0744913 0 -0.000375557)
(0.080529 0 -0.000414642)
(0.0851621 0 -0.00044817)
(0.0885147 0 -0.000476094)
(0.0906948 0 -0.000498154)
(0.091797 0 -0.000513596)
(0.0919052 0 -0.000521441)
(0.0910939 0 -0.000520696)
(0.0894296 0 -0.000510016)
(0.0869724 0 -0.000487714)
(0.0837811 0 -0.000451896)
(0.0799126 0 -0.000400095)
(0.075417 0 -0.000329259)
(0.0703465 0 -0.000235952)
(0.0647615 0 -0.000116113)
(0.058729 0 3.51275e-05)
(0.0523241 0 0.000223675)
(0.0456352 0 0.000456473)
(0.0387658 0 0.000741896)
(0.0318527 0 0.00109006)
(0.0250927 0 0.00151173)
(0.0187701 0 0.00201692)
(0.0133467 0 0.00260581)
(0.00969415 0 0.00321659)
(0.00441416 0 0.00423377)
(0 0 0)
(0.0175306 0 -0.000164995)
(0.0331741 0 -0.000314112)
(0.0465037 0 -0.000444887)
(0.0577389 0 -0.000560223)
(0.0670814 0 -0.000662369)
(0.0747096 0 -0.000752402)
(0.0807927 0 -0.00083094)
(0.0854786 0 -0.000898513)
(0.0888914 0 -0.000954999)
(0.0911404 0 -0.00100003)
(0.0923207 0 -0.00103204)
(0.0925178 0 -0.00104905)
(0.0918085 0 -0.00104924)
(0.0902609 0 -0.00103)
(0.0879367 0 -0.000988039)
(0.0848962 0 -0.000919306)
(0.0811997 0 -0.000819539)
(0.0769021 0 -0.000683423)
(0.0720571 0 -0.000504)
(0.0667311 0 -0.000273685)
(0.0609996 0 1.64633e-05)
(0.0549467 0 0.000377356)
(0.0486736 0 0.000821559)
(0.042305 0 0.00136345)
(0.0359991 0 0.00201785)
(0.0299754 0 0.00279829)
(0.0245411 0 0.00371328)
(0.0202101 0 0.00474184)
(0.0179367 0 0.00573685)
(0.0141079 0 0.00725279)
(0 0 0)
(0.0175906 0 -0.000247904)
(0.0332888 0 -0.000472015)
(0.0466722 0 -0.000668656)
(0.0579651 0 -0.000842169)
(0.0673702 0 -0.000995536)
(0.0750672 0 -0.00113084)
(0.0812276 0 -0.0012495)
(0.0860012 0 -0.001352)
(0.0895137 0 -0.00143812)
(0.0918753 0 -0.00150713)
(0.0931833 0 -0.00155712)
(0.0935266 0 -0.00158562)
(0.0929849 0 -0.00158988)
(0.0916291 0 -0.00156617)
(0.0895251 0 -0.00150986)
(0.0867358 0 -0.00141531)
(0.0833248 0 -0.00127652)
(0.0793544 0 -0.00108622)
(0.074885 0 -0.000835058)
(0.0699872 0 -0.000512634)
(0.0647473 0 -0.000107271)
(0.0592633 0 0.000394533)
(0.0536501 0 0.00100801)
(0.0480651 0 0.00174849)
(0.0427101 0 0.00262843)
(0.0378415 0 0.00365361)
(0.0337889 0 0.0048146)
(0.0310396 0 0.00605162)
(0.0305634 0 0.00713156)
(0.0285112 0 0.00872886)
(0 0 0)
(0.0176753 0 -0.000330765)
(0.0334483 0 -0.000629758)
(0.0469052 0 -0.000892279)
(0.0582764 0 -0.00112415)
(0.0677674 0 -0.00132952)
(0.0755612 0 -0.00151118)
(0.0818299 0 -0.00167098)
(0.0867248 0 -0.00180969)
(0.0903745 0 -0.00192702)
(0.0928907 0 -0.00202161)
(0.0943748 0 -0.00209184)
(0.0949203 0 -0.00213532)
(0.0946096 0 -0.00214822)
(0.0935178 0 -0.00212594)
(0.0917158 0 -0.00206291)
(0.0892717 0 -0.0019525)
(0.0862543 0 -0.00178729)
(0.0827321 0 -0.00155836)
(0.078779 0 -0.00125564)
(0.0744736 0 -0.000867337)
(0.0699093 0 -0.000380496)
(0.0652034 0 0.000217789)
(0.0604871 0 0.000941541)
(0.0559353 0 0.00180251)
(0.0517885 0 0.00280352)
(0.0483605 0 0.00393114)
(0.0460163 0 0.00514391)
(0.0451688 0 0.00634422)
(0.0466614 0 0.00724481)
(0.0463768 0 0.00861433)
(0 0 0)
(0.0177767 0 -0.000413372)
(0.0336471 0 -0.000787166)
(0.0471999 0 -0.00111566)
(0.0586723 0 -0.00140614)
(0.0682733 0 -0.00166398)
(0.0761875 0 -0.00189269)
(0.0825912 0 -0.00209466)
(0.087639 0 -0.00227108)
(0.0914613 0 -0.0024217)
(0.0941736 0 -0.00254508)
(0.0958819 0 -0.00263962)
(0.0966828 0 -0.00270276)
(0.0966632 0 -0.0027302)
(0.0959036 0 -0.00271685)
(0.0944808 0 -0.00265661)
(0.0924691 0 -0.00254229)
(0.0899456 0 -0.00236593)
(0.0869865 0 -0.00211811)
(0.0836752 0 -0.0017884)
(0.0801045 0 -0.00136554)
(0.0763787 0 -0.000837663)
(0.0726343 0 -0.000194903)
(0.0690308 0 0.0005707)
(0.0657464 0 0.00146268)
(0.0630254 0 0.0024708)
(0.0612244 0 0.00355629)
(0.0607385 0 0.00464031)
(0.0619127 0 0.00559631)
(0.0653238 0 0.00613346)
(0.0666096 0 0.00708763)
(0 0 0)
(0.0178942 0 -0.000495749)
(0.0338841 0 -0.000944476)
(0.0475541 0 -0.0013392)
(0.0591462 0 -0.00168861)
(0.0688774 0 -0.00199911)
(0.0769366 0 -0.00227539)
(0.0835032 0 -0.00252082)
(0.088734 0 -0.00273673)
(0.0927629 0 -0.00292314)
(0.0957105 0 -0.00307896)
(0.0976865 0 -0.00320242)
(0.0987917 0 -0.00329067)
(0.0991183 0 -0.0033395)
(0.0987534 0 -0.00334381)
(0.0977805 0 -0.00329745)
(0.09628 0 -0.00319297)
(0.0943398 0 -0.00302294)
(0.0920499 0 -0.00277891)
(0.0894988 0 -0.0024506)
(0.0867916 0 -0.00202865)
(0.0840494 0 -0.00150461)
(0.081417 0 -0.000872676)
(0.0790812 0 -0.00013446)
(0.0772443 0 0.000699455)
(0.0761374 0 0.00160437)
(0.0760892 0 0.00252073)
(0.0774853 0 0.00333823)
(0.080611 0 0.00391064)
(0.0857066 0 0.00399177)
(0.0882223 0 0.0044517)
(0 0 0)
(0.0180342 0 -0.000577946)
(0.0341613 0 -0.00110137)
(0.0479637 0 -0.00156212)
(0.0596919 0 -0.00197067)
(0.0695731 0 -0.0023347)
(0.0778018 0 -0.00265996)
(0.0845577 0 -0.00295048)
(0.0899995 0 -0.003208)
(0.0942664 0 -0.00343296)
(0.0974839 0 -0.00362472)
(0.0997666 0 -0.00378163)
(0.10122 0 -0.00390095)
(0.101942 0 -0.0039787)
(0.102028 0 -0.00401026)
(0.101568 0 -0.00399002)
(0.100653 0 -0.00391114)
(0.0993768 0 -0.00376678)
(0.0978386 0 -0.0035495)
(0.096143 0 -0.00325172)
(0.0944129 0 -0.00286788)
(0.0927847 0 -0.00239444)
(0.0914029 0 -0.0018306)
(0.090454 0 -0.00118612)
(0.0901722 0 -0.000487695)
(0.0907909 0 0.000222203)
(0.0925533 0 0.000871945)
(0.0957691 0 0.00133683)
(0.100634 0 0.00146753)
(0.107096 0 0.00108805)
(0.11046 0 0.00107891)
(0 0 0)
(0.0181913 0 -0.00065977)
(0.0344691 0 -0.00125739)
(0.0484213 0 -0.00178402)
(0.0603061 0 -0.00225206)
(0.0703575 0 -0.00267056)
(0.0787761 0 -0.00304615)
(0.0857434 0 -0.00338338)
(0.0914213 0 -0.0036847)
(0.0959538 0 -0.00395111)
(0.0994719 0 -0.00418251)
(0.102095 0 -0.00437771)
(0.103935 0 -0.00453436)
(0.105095 0 -0.00464885)
(0.105678 0 -0.00471758)
(0.105786 0 -0.00473616)
(0.105519 0 -0.00469926)
(0.104979 0 -0.004601)
(0.104269 0 -0.00443514)
(0.103506 0 -0.00419732)
(0.102834 0 -0.00388688)
(0.102407 0 -0.00350711)
(0.10238 0 -0.00306455)
(0.102922 0 -0.00257504)
(0.104264 0 -0.00207679)
(0.106635 0 -0.0016277)
(0.110198 0 -0.0013055)
(0.115138 0 -0.00123059)
(0.121499 0 -0.00153171)
(0.129014 0 -0.0023094)
(0.13291 0 -0.0026588)
(0 0 0)
(0.0183642 0 -0.00074099)
(0.0348045 0 -0.00141238)
(0.0489233 0 -0.00200503)
(0.0609836 0 -0.00253299)
(0.0712228 0 -0.00300658)
(0.0798491 0 -0.0034335)
(0.0870474 0 -0.00381904)
(0.0929832 0 -0.00416637)
(0.0978052 0 -0.0044771)
(0.10165 0 -0.0047519)
(0.104644 0 -0.00499031)
(0.106903 0 -0.00519069)
(0.108539 0 -0.00535057)
(0.109662 0 -0.00546719)
(0.110378 0 -0.00553682)
(0.1108 0 -0.00555635)
(0.111043 0 -0.00552275)
(0.111225 0 -0.00543312)
(0.111467 0 -0.00528557)
(0.111913 0 -0.00508235)
(0.112738 0 -0.00483431)
(0.114115 0 -0.0045572)
(0.116205 0 -0.0042733)
(0.119213 0 -0.00402677)
(0.123328 0 -0.00388161)
(0.128645 0 -0.00391454)
(0.135203 0 -0.00422692)
(0.142864 0 -0.00490905)
(0.151192 0 -0.00599146)
(0.155436 0 -0.00654185)
(0 0 0)
(0.0185477 0 -0.00082128)
(0.0351674 0 -0.0015661)
(0.0494683 0 -0.00222482)
(0.0617175 0 -0.0028129)
(0.0721592 0 -0.00334206)
(0.0810089 0 -0.00382126)
(0.0884552 0 -0.00425661)
(0.0946672 0 -0.00465209)
(0.0997982 0 -0.00500988)
(0.103991 0 -0.00533169)
(0.107378 0 -0.00561804)
(0.110082 0 -0.00586831)
(0.112225 0 -0.00608206)
(0.113922 0 -0.00625704)
(0.115281 0 -0.00639029)
(0.116422 0 -0.00648053)
(0.117475 0 -0.00652815)
(0.118576 0 -0.00653517)
(0.119861 0 -0.00650402)
(0.121465 0 -0.00643929)
(0.123571 0 -0.00635723)
(0.126366 0 -0.00628191)
(0.130012 0 -0.00624171)
(0.134685 0 -0.00628299)
(0.140514 0 -0.00646691)
(0.147522 0 -0.00685947)
(0.155605 0 -0.00753218)
(0.164446 0 -0.00852924)
(0.173451 0 -0.00982528)
(0.178043 0 -0.0104839)
(0 0 0)
(0.0187407 0 -0.000900745)
(0.0355551 0 -0.00171864)
(0.0500518 0 -0.00244309)
(0.0625004 0 -0.0030911)
(0.0731564 0 -0.00367616)
(0.0822428 0 -0.00420846)
(0.0899513 0 -0.00469501)
(0.0964544 0 -0.00514065)
(0.101912 0 -0.00554865)
(0.106473 0 -0.00592152)
(0.11027 0 -0.00626023)
(0.113435 0 -0.00656568)
(0.116101 0 -0.00683958)
(0.118386 0 -0.00708111)
(0.120411 0 -0.00728963)
(0.122297 0 -0.00746522)
(0.124175 0 -0.00760981)
(0.126199 0 -0.0077304)
(0.12852 0 -0.00783536)
(0.131284 0 -0.00793391)
(0.134669 0 -0.00804603)
(0.138862 0 -0.00820051)
(0.144022 0 -0.00843051)
(0.150303 0 -0.00878135)
(0.157779 0 -0.00930524)
(0.166406 0 -0.0100495)
(0.175955 0 -0.0110488)
(0.185944 0 -0.0122998)
(0.195607 0 -0.0137394)
(0.200742 0 -0.0144665)
(0 0 0)
(0.0189491 0 -0.00097955)
(0.0359637 0 -0.00186959)
(0.0506612 0 -0.00265891)
(0.0633205 0 -0.00336658)
(0.0742032 0 -0.00400784)
(0.0835373 0 -0.00459389)
(0.091519 0 -0.00513278)
(0.0983261 0 -0.00563045)
(0.104125 0 -0.00609168)
(0.109066 0 -0.0065193)
(0.113286 0 -0.00691479)
(0.116923 0 -0.00728048)
(0.120117 0 -0.00761978)
(0.122996 0 -0.00793461)
(0.125686 0 -0.00822657)
(0.128317 0 -0.00849839)
(0.13102 0 -0.00875351)
(0.133955 0 -0.00900244)
(0.137285 0 -0.00925894)
(0.141167 0 -0.00953767)
(0.145779 0 -0.00986237)
(0.151293 0 -0.0102641)
(0.157871 0 -0.0107789)
(0.165643 0 -0.011449)
(0.174645 0 -0.0123144)
(0.184788 0 -0.0133996)
(0.195754 0 -0.0146996)
(0.20693 0 -0.0161624)
(0.217347 0 -0.0177005)
(0.223521 0 -0.0184883)
(0 0 0)
(0.0191628 0 -0.0010569)
(0.0363843 0 -0.00201794)
(0.0512903 0 -0.00287161)
(0.0641712 0 -0.00363901)
(0.0752911 0 -0.00433671)
(0.0848813 0 -0.00497701)
(0.0931447 0 -0.00556918)
(0.100264 0 -0.0061203)
(0.10641 0 -0.00663622)
(0.111735 0 -0.00712065)
(0.116385 0 -0.00757672)
(0.120499 0 -0.00800739)
(0.124222 0 -0.00841743)
(0.127689 0 -0.00881143)
(0.13103 0 -0.00919266)
(0.13438 0 -0.00956697)
(0.137882 0 -0.0099416)
(0.141695 0 -0.0103295)
(0.145981 0 -0.0107476)
(0.150903 0 -0.0112155)
(0.156635 0 -0.0117604)
(0.163338 0 -0.012415)
(0.171165 0 -0.0132166)
(0.180232 0 -0.0142037)
(0.190549 0 -0.0154051)
(0.202012 0 -0.016825)
(0.214276 0 -0.0184214)
(0.226665 0 -0.0200883)
(0.23801 0 -0.0217073)
(0.246349 0 -0.0225376)
(0 0 0)
(0.0193806 0 -0.00113266)
(0.0368179 0 -0.00216374)
(0.0519411 0 -0.00308132)
(0.0650494 0 -0.00390821)
(0.0764116 0 -0.0046623)
(0.0862638 0 -0.00535717)
(0.094814 0 -0.00600326)
(0.10225 0 -0.00660875)
(0.108743 0 -0.00718026)
(0.114452 0 -0.00772294)
(0.119527 0 -0.00824146)
(0.124113 0 -0.00874026)
(0.128359 0 -0.00922536)
(0.1324 0 -0.00970253)
(0.136365 0 -0.0101772)
(0.140398 0 -0.0106578)
(0.144649 0 -0.0111559)
(0.149276 0 -0.0116869)
(0.15443 0 -0.0122691)
(0.160273 0 -0.0129262)
(0.166973 0 -0.0136881)
(0.174672 0 -0.0145881)
(0.183508 0 -0.0156639)
(0.193574 0 -0.0169516)
(0.204858 0 -0.0184735)
(0.217257 0 -0.0202259)
(0.230443 0 -0.0221468)
(0.24376 0 -0.0240778)
(0.256082 0 -0.0258204)
(0.269164 0 -0.0265779)
(0 0 0)
(0.0196119 0 -0.00120794)
(0.0372695 0 -0.00230832)
(0.0526136 0 -0.00328925)
(0.0659541 0 -0.00417545)
(0.0775636 0 -0.00498606)
(0.0876828 0 -0.00573594)
(0.0965242 0 -0.0064367)
(0.104278 0 -0.00709753)
(0.111121 0 -0.00772605)
(0.117213 0 -0.00832865)
(0.122706 0 -0.00891115)
(0.127756 0 -0.00948022)
(0.132511 0 -0.0100431)
(0.137102 0 -0.010606)
(0.14166 0 -0.0111764)
(0.14633 0 -0.0117653)
(0.151267 0 -0.0123875)
(0.156623 0 -0.0130604)
(0.162534 0 -0.0138032)
(0.169155 0 -0.014642)
(0.176637 0 -0.015608)
(0.185091 0 -0.0167335)
(0.194628 0 -0.0180561)
(0.205302 0 -0.0196098)
(0.217053 0 -0.0214159)
(0.229743 0 -0.023484)
(0.243011 0 -0.025788)
(0.256178 0 -0.0282749)
(0.268439 0 -0.0310537)
(0.292022 0 -0.03062)
(0 0 0)
(0.00999453 0 0)
(0.019309 0 0)
(0.0333318 0 0)
(0.0503525 0 0)
(0.0685742 0 0)
(0.0865294 0 0)
(0.103175 0 0)
(0.117955 0 0)
(0.130617 0 0)
(0.141126 0 0)
(0.149588 0 0)
(0.15614 0 0)
(0.160893 0 0)
(0.163954 0 0)
(0.165425 0 0)
(0.165376 0 0)
(0.163853 0 0)
(0.160875 0 0)
(0.156451 0 0)
(0.15056 0 0)
(0.143174 0 0)
(0.134259 0 0)
(0.123765 0 0)
(0.111616 0 0)
(0.097732 0 0)
(0.0820365 0 0)
(0.0644493 0 0)
(0.0449049 0 0)
(0.0232955 0 0)
(0 0 0)
(0.00394318 0 -0.00491215)
(0.0128201 0 -0.00495838)
(0.0221865 0 -0.00532049)
(0.0361038 0 -0.00561286)
(0.0528726 0 -0.00580761)
(0.0707897 0 -0.00589521)
(0.0884332 0 -0.00587745)
(0.104783 0 -0.0057719)
(0.119295 0 -0.00559758)
(0.131724 0 -0.00536195)
(0.142041 0 -0.00509741)
(0.150343 0 -0.00482392)
(0.156758 0 -0.00453883)
(0.161398 0 -0.00424923)
(0.164368 0 -0.00396267)
(0.165763 0 -0.00367675)
(0.165654 0 -0.00340329)
(0.164083 0 -0.00314422)
(0.161067 0 -0.00288798)
(0.156609 0 -0.0026395)
(0.150689 0 -0.00240271)
(0.143279 0 -0.00217543)
(0.134345 0 -0.00195372)
(0.123838 0 -0.00173237)
(0.111679 0 -0.00150977)
(0.0977841 0 -0.00128421)
(0.0820801 0 -0.00105301)
(0.0644899 0 -0.000812857)
(0.0449379 0 -0.000559194)
(0.0233084 0 -0.00028798)
(0 0 0)
(0.0126384 0 -0.009549)
(0.0209136 0 -0.0098283)
(0.0304653 0 -0.0105261)
(0.0440721 0 -0.0110756)
(0.0601546 0 -0.0114261)
(0.0772324 0 -0.011581)
(0.093981 0 -0.0115334)
(0.109479 0 -0.0113187)
(0.123218 0 -0.0109742)
(0.134974 0 -0.010523)
(0.14473 0 -0.0100114)
(0.152553 0 -0.00946831)
(0.158569 0 -0.00891125)
(0.16288 0 -0.00834685)
(0.16558 0 -0.00778484)
(0.166756 0 -0.00723205)
(0.166469 0 -0.00669901)
(0.164755 0 -0.00618891)
(0.161623 0 -0.00569167)
(0.157067 0 -0.00520951)
(0.151064 0 -0.00474507)
(0.143585 0 -0.00429694)
(0.134601 0 -0.00385733)
(0.124052 0 -0.00341893)
(0.111856 0 -0.00298013)
(0.0979299 0 -0.00253564)
(0.082199 0 -0.00207979)
(0.0645862 0 -0.00160596)
(0.045005 0 -0.00110608)
(0.0233362 0 -0.000570395)
(0 0 0)
(0.0258448 0 -0.0141294)
(0.0334406 0 -0.0145986)
(0.0432154 0 -0.0155616)
(0.0563111 0 -0.0163047)
(0.0714019 0 -0.0167738)
(0.0872373 0 -0.016964)
(0.102643 0 -0.0168696)
(0.116853 0 -0.0165427)
(0.129412 0 -0.016034)
(0.140133 0 -0.0153877)
(0.149 0 -0.0146499)
(0.15607 0 -0.0138565)
(0.161459 0 -0.0130448)
(0.16525 0 -0.012227)
(0.167524 0 -0.0114142)
(0.168352 0 -0.0106168)
(0.167781 0 -0.00984331)
(0.165834 0 -0.00909837)
(0.162514 0 -0.00837687)
(0.157802 0 -0.0076767)
(0.151667 0 -0.00699731)
(0.144083 0 -0.00633716)
(0.135017 0 -0.00568884)
(0.124398 0 -0.00504414)
(0.112139 0 -0.00439841)
(0.0981608 0 -0.00374384)
(0.0823838 0 -0.00307191)
(0.0647249 0 -0.00237275)
(0.0450953 0 -0.00163487)
(0.0233803 0 -0.000843417)
(0 0 0)
(0.042557 0 -0.0187412)
(0.0494918 0 -0.0192954)
(0.0593839 0 -0.0204312)
(0.0718086 0 -0.0212959)
(0.0857087 0 -0.0218364)
(0.100031 0 -0.0220272)
(0.113804 0 -0.0218712)
(0.126413 0 -0.021426)
(0.137486 0 -0.0207565)
(0.146885 0 -0.0199227)
(0.154604 0 -0.0189768)
(0.160705 0 -0.0179621)
(0.16528 0 -0.0169192)
(0.168395 0 -0.0158718)
(0.170112 0 -0.0148338)
(0.170482 0 -0.0138134)
(0.169533 0 -0.01282)
(0.167279 0 -0.0118601)
(0.163706 0 -0.0109304)
(0.158786 0 -0.0100268)
(0.15248 0 -0.00914659)
(0.144754 0 -0.00828675)
(0.135573 0 -0.00744182)
(0.124858 0 -0.00660265)
(0.112517 0 -0.00576026)
(0.0984678 0 -0.00490521)
(0.0826281 0 -0.00402642)
(0.0649094 0 -0.00311099)
(0.0452199 0 -0.00214386)
(0.0234442 0 -0.00110599)
(0 0 0)
(0.0618754 0 -0.0233486)
(0.0681153 0 -0.0238968)
(0.0779681 0 -0.0251324)
(0.0896172 0 -0.0260619)
(0.102209 0 -0.0266213)
(0.114868 0 -0.0267757)
(0.126829 0 -0.0265353)
(0.137626 0 -0.0259601)
(0.147002 0 -0.0251294)
(0.154876 0 -0.024114)
(0.161269 0 -0.0229759)
(0.166241 0 -0.0217639)
(0.169861 0 -0.0205163)
(0.172177 0 -0.0192643)
(0.173235 0 -0.0180244)
(0.173058 0 -0.0168038)
(0.171658 0 -0.0156124)
(0.169033 0 -0.0144579)
(0.165156 0 -0.0133381)
(0.159986 0 -0.0122474)
(0.153472 0 -0.011182)
(0.145575 0 -0.0101375)
(0.136253 0 -0.00910883)
(0.125419 0 -0.0080865)
(0.112975 0 -0.00705862)
(0.0988397 0 -0.00601374)
(0.0829228 0 -0.00493839)
(0.0651322 0 -0.00381688)
(0.045372 0 -0.00263087)
(0.023523 0 -0.00135734)
(0 0 0)
(0.0828904 0 -0.0278352)
(0.0884574 0 -0.0283655)
(0.0981277 0 -0.0296544)
(0.108943 0 -0.030607)
(0.120161 0 -0.0311392)
(0.131068 0 -0.0312152)
(0.141104 0 -0.0308581)
(0.149965 0 -0.0301363)
(0.157517 0 -0.0291413)
(0.163745 0 -0.0279523)
(0.168699 0 -0.0266372)
(0.172437 0 -0.0252477)
(0.175007 0 -0.0238199)
(0.176444 0 -0.0223883)
(0.17677 0 -0.020971)
(0.175984 0 -0.019574)
(0.174078 0 -0.0182071)
(0.171036 0 -0.016879)
(0.166814 0 -0.015588)
(0.161359 0 -0.0143278)
(0.154611 0 -0.0130942)
(0.14652 0 -0.0118805)
(0.137034 0 -0.0106815)
(0.126061 0 -0.00948854)
(0.1135 0 -0.00828724)
(0.0992635 0 -0.00706413)
(0.0832576 0 -0.00580349)
(0.0653848 0 -0.00448705)
(0.0455448 0 -0.00309352)
(0.0236128 0 -0.00159621)
(0 0 0)
(0.104816 0 -0.0321239)
(0.109844 0 -0.03269)
(0.119234 0 -0.0340041)
(0.129164 0 -0.0349397)
(0.138947 0 -0.0353937)
(0.148032 0 -0.0353426)
(0.156072 0 -0.0348319)
(0.162932 0 -0.0339443)
(0.168601 0 -0.0327811)
(0.173127 0 -0.0314251)