/*--------------------------------*- C++ -*----------------------------------*\
| =========                 |                                                 |
| \\      /  F ield         | OpenFOAM: The Open Source CFD Toolbox           |
|  \\    /   O peration     | Version:  4.1                                   |
|   \\  /    A nd           | Web:      www.OpenFOAM.org                      |
|    \\/     M anipulation  |                                                 |
\*---------------------------------------------------------------------------*/
FoamFile
{
    version     2.0;
    format      ascii;
    class       volVectorField;
    location    "2.8";
    object      U;
}
// * * * * * * * * * * * * * * * * * * * * * * * * * * * * * * * * * * * * * //

dimensions      [0 1 -1 0 0 0 0];

internalField   nonuniform List<vector> 
2790
(
(9.94274 0 0.020612)
(9.86421 0 0.0286047)
(9.75612 0 0.0339762)
(9.62819 0 0.0395295)
(9.48512 0 0.045249)
(9.32738 0 0.0510598)
(9.15458 6.40833e-20 0.0570849)
(8.96642 0 0.0634727)
(8.76256 -3.45918e-20 0.0703454)
(8.54246 -3.60249e-20 0.0778129)
(8.30538 0 0.0859876)
(8.05041 0 0.0949889)
(7.77648 -1.2849e-21 0.104944)
(7.48243 2.1568e-20 0.115989)
(7.167 -4.53527e-20 0.128264)
(6.82887 0 0.141914)
(6.46671 0 0.157086)
(6.07923 -1.06959e-19 0.173915)
(5.66531 1.14375e-18 0.192505)
(5.2241 -1.6959e-18 0.212917)
(4.75512 1.02794e-18 0.235139)
(4.25852 -1.39551e-18 0.259042)
(3.73531 5.89633e-19 0.284322)
(3.18767 0 0.310391)
(2.61939 -6.9827e-19 0.33619)
(2.03627 -3.04572e-18 0.359764)
(1.44713 3.2857e-18 0.376889)
(0.865607 1.78876e-18 0.375081)
(0.305682 1.91822e-18 0.299671)
(-0.0893614 -4.29819e-18 -0.221627)
(10.0052 2.36832e-19 0.0403741)
(9.98519 -2.68992e-20 0.0592088)
(9.93807 0 0.0730207)
(9.86931 0 0.0875655)
(9.78248 1.17763e-19 0.102878)
(9.67829 -2.42196e-19 0.118739)
(9.55661 1.87016e-19 0.135397)
(9.41728 0 0.153187)
(9.26004 3.0301e-19 0.172395)
(9.08446 -3.15609e-20 0.19328)
(8.88987 -2.87173e-19 0.216107)
(8.67542 6.05046e-19 0.241155)
(8.44011 -6.21202e-19 0.268714)
(8.18282 -6.79223e-19 0.299085)
(7.90229 7.22147e-19 0.332568)
(7.5972 -1.44498e-18 0.369448)
(7.26615 1.49489e-18 0.409977)
(6.90775 1.69652e-18 0.454331)
(6.5207 -3.55373e-18 0.502558)
(6.10387 1.5338e-18 0.554525)
(5.65641 -3.77643e-18 0.609833)
(5.17793 3.70825e-18 0.667691)
(4.66868 4.80488e-18 0.726744)
(4.12985 -4.50987e-18 0.784841)
(3.56381 1.03834e-17 0.838634)
(2.97439 -1.03999e-17 0.882799)
(2.36695 -2.80856e-18 0.908264)
(1.74821 -1.51549e-18 0.897503)
(1.09134 -1.63322e-18 0.817688)
(0.640222 3.46545e-17 0.558919)
(10.0025 -6.30375e-19 0.0417512)
(9.97997 4.83096e-19 0.0698035)
(9.9355 -1.64872e-19 0.0932551)
(9.87198 -2.25931e-19 0.117471)
(9.79164 -1.17325e-19 0.142917)
(9.69531 2.39629e-19 0.169466)
(9.58308 -1.24105e-19 0.197452)
(9.45491 5.15077e-19 0.227356)
(9.31063 -1.0602e-18 0.259621)
(9.14989 4.77362e-19 0.294669)
(8.97215 5.72295e-19 0.332937)
(8.77669 -1.73842e-18 0.374889)
(8.56265 1.21947e-18 0.421017)
(8.32904 3.98586e-20 0.471833)
(8.07474 0 0.527862)
(7.79853 0 0.589615)
(7.49907 0 0.657563)
(7.17497 3.79721e-19 0.732077)
(6.8248 0 0.813354)
(6.44713 -3.3821e-18 0.901305)
(6.0406 -4.49283e-18 0.995439)
(5.60396 1.63115e-17 1.09467)
(5.13619 -1.67494e-17 1.19706)
(4.63648 8.30146e-18 1.29945)
(4.10423 0 1.39702)
(3.5386 1.8979e-17 1.48237)
(2.9372 -1.75828e-17 1.54423)
(2.29519 2.70255e-18 1.56496)
(1.5612 2.34122e-17 1.52801)
(0.921139 -7.85816e-17 1.38565)
(10.0008 4.19575e-19 0.0466325)
(9.97591 -4.28505e-19 0.0852614)
(9.93133 2.19787e-19 0.119443)
(9.86908 -5.6965e-22 0.153444)
(9.79041 -2.33751e-19 0.188458)
(9.69612 7.17942e-19 0.224765)
(9.58654 -7.393e-19 0.26287)
(9.46177 1.01655e-18 0.30341)
(9.32176 5.34305e-21 0.346997)
(9.1663 -1.49537e-18 0.394224)
(8.99504 1.11691e-18 0.445694)
(8.80746 -3.64093e-20 0.502049)
(8.60295 0 0.563967)
(8.38077 -3.92351e-20 0.63216)
(8.1401 8.13067e-20 0.707366)
(7.88001 0 0.790328)
(7.59946 -1.76352e-19 0.881762)
(7.29733 -3.6975e-19 0.982298)
(6.9724 0 1.0924)
(6.62327 6.49995e-18 1.21221)
(6.24842 -5.86445e-18 1.34146)
(5.84612 -8.88831e-19 1.47916)
(5.41432 7.50287e-18 1.62338)
(4.95047 -7.79112e-18 1.77079)
(4.45106 0 1.9163)
(3.91089 0 2.05251)
(3.32132 -2.3077e-18 2.16915)
(2.67181 -2.47904e-18 2.25178)
(1.91214 2.6322e-18 2.29091)
(1.15485 -3.05293e-18 2.2751)
(9.99993 0 0.0529841)
(9.97369 0 0.10056)
(9.92895 4.37075e-19 0.144084)
(9.86776 0 0.186954)
(9.79069 0 0.230848)
(9.69833 0 0.276419)
(9.59111 -7.35377e-19 0.324302)
(9.46919 7.52875e-19 0.375224)
(9.33258 -1.04437e-18 0.429911)
(9.18114 9.33374e-19 0.48907)
(9.01461 0 0.553427)
(8.83262 -1.08251e-18 0.623742)
(8.63471 -1.21024e-18 0.700826)
(8.42032 2.42711e-18 0.785533)
(8.18884 2.4918e-18 0.87876)
(7.9396 -5.30537e-18 0.981426)
(7.67181 2.91042e-18 1.09444)
(7.38464 -5.77677e-18 1.21868)
(7.0771 1.19449e-17 1.35485)
(6.748 -1.24477e-17 1.50343)
(6.39582 6.44746e-18 1.66447)
(6.01863 8.4331e-19 1.83743)
(5.61379 8.88964e-19 2.02085)
(5.1776 0 2.21194)
(4.7047 0 2.40622)
(4.18724 1.6389e-17 2.59735)
(3.61358 -1.70818e-17 2.77691)
(2.9716 0 2.93299)
(2.22864 3.73613e-17 3.04934)
(1.39109 -4.3663e-17 3.14295)
(9.99958 -9.36383e-19 0.0600259)
(9.97266 1.0612e-19 0.115864)
(9.92808 -8.56799e-22 0.168286)
(9.86816 4.47919e-19 0.219998)
(9.79301 -9.15087e-19 0.272794)
(9.703 -4.70534e-19 0.327574)
(9.59855 0 0.385101)
(9.47989 -6.77747e-22 0.446184)
(9.34707 1.03298e-18 0.511644)
(9.19999 1.43677e-19 0.582303)
(9.03845 -1.08779e-18 0.659001)
(8.86217 -7.07161e-20 0.742614)
(8.67076 0 0.834075)
(8.46379 1.89098e-20 0.934372)
(8.24076 0 1.04454)
(8.00115 5.21516e-18 1.16564)
(7.74432 -2.62092e-19 1.29878)
(7.46957 -5.87946e-18 1.44504)
(7.17609 5.46075e-18 1.60542)
(6.86279 -1.20077e-17 1.78072)
(6.52824 -7.13583e-18 1.97142)
(6.17039 2.51256e-17 2.17754)
(5.78627 -1.42483e-17 2.39839)
(5.3716 -1.74496e-18 2.63218)
(4.92014 -1.81811e-18 2.87553)
(4.42286 0 3.12321)
(3.86734 3.50241e-17 3.36769)
(3.23907 -3.33595e-17 3.598)
(2.53264 -1.10835e-18 3.77985)
(1.63352 0 3.94708)
(9.99952 7.26893e-19 0.067374)
(9.97241 1.05648e-19 0.131129)
(9.92837 -4.33668e-19 0.192006)
(9.86996 0 0.252255)
(9.79704 9.1279e-19 0.313651)
(9.70977 4.68893e-19 0.377289)
(9.60856 9.64569e-19 0.444081)
(9.49368 -1.23073e-18 0.51493)
(9.36523 0 0.590749)
(9.22313 -2.61008e-19 0.672461)
(9.06725 -2.6887e-19 0.761012)
(8.89734 0 0.857382)
(8.71312 0 0.962615)
(8.51419 -2.38186e-18 1.07782)
(8.30014 2.43014e-18 1.20416)
(8.07049 -5.00722e-18 1.34283)
(7.8247 5.519e-18 1.4951)
(7.56214 6.75181e-19 1.66227)
(7.282 6.98519e-19 1.84561)
(6.98323 0 2.04631)
(6.66439 7.5219e-19 2.26537)
(6.32335 0 2.50347)
(5.95696 1.37143e-17 2.76072)
(5.56069 -2.49115e-17 3.0365)
(5.12792 3.0132e-17 3.32877)
(4.64909 1.44537e-17 3.63316)
(4.11203 -3.04578e-17 3.94195)
(3.49652 0 4.24479)
(2.82739 0 4.48505)
(1.87689 -3.59695e-17 4.69616)
(9.99963 0 0.0747953)
(9.97271 2.10964e-19 0.146203)
(9.92953 -2.15013e-19 0.215111)
(9.87291 -4.42437e-19 0.283538)
(9.80254 4.50849e-19 0.353214)
(9.71839 -9.27161e-19 0.425382)
(9.62088 -9.55454e-19 0.501092)
(9.51032 1.95475e-18 0.581333)
(9.38681 9.09515e-21 0.667099)
(9.25035 -5.11429e-19 0.759405)
(9.10083 5.30822e-19 0.859288)
(8.93809 0 0.967826)
(8.76188 -2.26332e-18 1.08617)
(8.57187 -2.66308e-20 1.21557)
(8.36768 2.39346e-18 1.35729)
(8.14887 -7.72171e-20 1.51267)
(7.91494 0 1.68318)
(7.6653 4.93774e-18 1.87034)
(7.39914 -2.74675e-19 2.07571)
(7.11531 5.31639e-18 2.30084)
(6.81227 -1.14079e-17 2.54733)
(6.48788 0 2.81664)
(6.13881 1.30025e-17 3.10977)
(5.76032 -1.24921e-17 3.4272)
(5.34564 -8.14227e-19 3.76828)
(4.88465 4.11995e-19 4.12955)
(4.36556 1.06049e-19 4.50269)
(3.75909 0 4.87889)
(3.11832 2.94901e-17 5.18106)
(2.12081 -3.28844e-17 5.42919)
(9.99985 0 0.0821431)
(9.97339 -8.36652e-19 0.160947)
(9.9314 -1.28478e-18 0.237488)
(9.87685 4.37275e-19 0.313716)
(9.80932 0 0.391324)
(9.72866 4.60395e-19 0.471663)
(9.63527 -9.4604e-19 0.555901)
(9.5295 9.62765e-19 0.645108)
(9.41151 0 0.74035)
(9.2813 1.79063e-18 0.842727)
(9.13884 -2.34292e-18 0.953361)
(8.98403 0 1.07342)
(8.81668 -2.21889e-18 1.20417)
(8.63652 2.3975e-18 1.34699)
(8.44321 -9.08435e-20 1.50327)
(8.23632 4.8393e-18 1.67449)
(8.01535 -9.85499e-18 1.86228)
(7.77982 1.01057e-19 2.06847)
(7.52892 5.17517e-18 2.29496)
(7.26138 4.18161e-21 2.5437)
(6.97555 0 2.81684)
(6.66925 0 3.11673)
(6.33899 -1.23097e-17 3.44538)
(5.97974 -9.15671e-20 3.80442)
(5.58452 -1.22019e-17 4.19471)
(5.14233 4.91007e-17 4.61423)
(4.64154 -2.53596e-17 5.05432)
(4.04156 -7.99829e-19 5.50909)
(3.41952 2.69062e-17 5.88577)
(2.37348 -2.99873e-17 6.18901)
(10.0002 1.63476e-18 0.0893141)
(9.97439 2.59159e-21 0.175239)
(9.93382 8.52788e-19 0.259022)
(9.88163 0 0.342653)
(9.81725 0 0.427817)
(9.7404 0 0.515937)
(9.65152 0 0.608276)
(9.55099 1.43605e-18 0.705973)
(9.43904 -9.75185e-19 0.810174)
(9.31564 -2.01597e-18 0.922054)
(9.18087 2.56094e-18 1.0428)
(9.0347 2.62792e-19 1.17365)
(8.87699 0 1.31602)
(8.70757 -1.39131e-19 1.47141)
(8.5262 7.13554e-20 1.64137)
(8.33243 4.66838e-18 1.82748)
(8.1257 -4.75323e-18 2.03151)
(7.90567 -5.06217e-18 2.2556)
(7.67166 -5.08223e-18 2.50213)
(7.42236 2.26603e-19 2.77348)
(7.15597 1.0421e-17 3.07234)
(6.87028 0 3.40203)
(6.56185 -4.21012e-20 3.76579)
(6.2251 0 4.16649)
(5.8528 0 4.60689)
(5.4328 -2.29245e-17 5.08743)
(4.95314 2.39213e-17 5.60001)
(4.36083 7.50398e-19 6.14318)
(3.75257 0 6.61335)
(2.65 0 7.0078)
(10.0006 -1.73371e-18 0.0962254)
(9.97565 -7.20978e-19 0.188977)
(9.9367 0 0.27961)
(9.88713 0 0.37022)
(9.82618 0 0.46254)
(9.75343 0 0.558029)
(9.6694 0 0.658003)
(9.57455 -4.73281e-19 0.76367)
(9.46911 -1.45857e-18 0.876269)
(9.3531 1.96965e-18 0.997043)
(9.22667 -5.07427e-19 1.12723)
(9.0898 1.8206e-18 1.26812)
(8.94238 -2.10929e-18 1.42123)
(8.78448 0 1.58822)
(8.61595 -4.45407e-18 1.77079)
(8.43649 4.79204e-18 1.9707)
(8.24549 0 2.18985)
(8.04253 -9.28135e-21 2.43057)
(7.82721 0 2.69572)
(7.59847 -9.84437e-18 2.98831)
(7.35423 1.99341e-17 3.31156)
(7.09248 -1.00805e-17 3.66981)
(6.81011 4.04026e-20 4.0678)
(6.50086 0 4.50983)
(6.15738 2.02231e-17 5.00127)
(5.76624 -2.09958e-17 5.54631)
(5.31474 2.04469e-17 6.13924)
(4.73692 -2.14344e-17 6.78503)
(4.14432 1.33947e-18 7.37385)
(2.97089 0 7.91127)
(10.001 -1.0141e-19 0.102818)
(9.97714 -9.75404e-20 0.202068)
(9.94003 2.09756e-19 0.299158)
(9.89325 0 0.39631)
(9.83592 0 0.495361)
(9.76754 0 0.597777)
(9.6887 0 0.704886)
(9.59989 0 0.81797)
(9.50135 -2.39202e-18 0.938353)
(9.39323 1.94079e-18 1.06735)
(9.27579 -2.4939e-18 1.20624)
(9.14891 2.02416e-18 1.3564)
(9.0125 5.16512e-19 1.51936)
(8.86683 0 1.69691)
(8.71193 -2.68536e-19 1.89088)
(8.54767 -4.9696e-18 2.10322)
(8.37384 4.18477e-18 2.3361)
(8.18975 -2.82822e-19 2.59199)
(7.99504 0 2.87407)
(7.78928 9.4026e-18 3.18605)
(7.57028 3.42551e-19 3.53174)
(7.33649 -9.53621e-18 3.91655)
(7.08526 5.93407e-19 4.34681)
(6.81014 1.92516e-17 4.82877)
(6.50408 -1.74551e-17 5.37123)
(6.1526 1.17613e-18 5.98347)
(5.74234 0 6.66528)
(5.19433 -1.16033e-18 7.43168)
(4.62968 -1.24452e-18 8.17406)
(3.36667 6.22587e-19 8.93348)
(10.0013 -1.6083e-18 0.109054)
(9.97876 1.64056e-18 0.214408)
(9.94378 0 0.317573)
(9.89989 -1.27633e-18 0.420846)
(9.84632 1.30386e-18 0.52617)
(9.78261 -8.8354e-19 0.635029)
(9.70929 9.01357e-19 0.74875)
(9.62684 0 0.868678)
(9.53553 -9.37638e-19 0.996197)
(9.43572 -1.92556e-18 1.13267)
(9.32768 4.4038e-18 1.27946)
(9.2114 -3.98833e-18 1.43803)
(9.08677 -2.56418e-18 1.60992)
(8.95405 -5.45422e-19 1.79696)
(8.81365 3.93189e-18 2.00106)
(8.66547 2.68616e-19 2.22428)
(8.5098 2.72736e-19 2.46916)
(8.34612 -2.68631e-19 2.73841)
(8.17405 -8.90328e-18 3.03538)
(7.99361 1.79067e-17 3.36429)
(7.80319 -8.71402e-18 3.72972)
(7.60183 -9.0223e-18 4.13804)
(7.38741 5.48737e-19 4.59705)
(7.15442 3.27575e-20 5.11552)
(6.89698 7.73658e-18 5.70626)
(6.60083 -3.23507e-18 6.38507)
(6.25341 0 7.16147)
(5.76472 1.07566e-18 8.06735)
(5.26111 0 9.0126)
(3.89173 -5.60789e-19 10.1364)
(10.0019 1.60535e-18 0.114893)
(9.98049 0 0.225931)
(9.94778 -1.65461e-18 0.334774)
(9.90698 4.23252e-19 0.44375)
(9.85737 4.29504e-19 0.554856)
(9.79857 8.75e-19 0.669629)
(9.73106 -1.79264e-18 0.789416)
(9.65528 9.08135e-19 0.915599)
(9.57158 -9.30858e-19 1.04959)
(9.48041 1.88336e-18 1.19279)
(9.38205 -4.7891e-19 1.34663)
(9.27671 0 1.51262)
(9.1644 -3.98982e-18 1.69242)
(9.04541 8.58325e-18 1.88779)
(8.92036 -3.56825e-18 2.10065)
(8.78925 5.15428e-19 2.33318)
(8.65257 0 2.5881)
(8.5104 5.33176e-19 2.86848)
(8.36277 0 3.17785)
(8.20981 -5.29488e-19 3.52055)
(8.05103 5.17411e-19 3.90202)
(7.88645 0 4.32946)
(7.71466 -2.10562e-18 4.81172)
(7.53253 1.01909e-18 5.36019)
(7.33685 1.98449e-18 5.99171)
(7.11647 1.16616e-17 6.72898)
(6.86418 7.15872e-18 7.59536)
(6.48795 -6.27547e-19 8.64867)
(6.1251 -1.4078e-17 9.85473)
(4.65193 -1.28746e-17 11.632)
(10.0024 -1.5893e-18 0.120299)
(9.98232 -1.61326e-18 0.236606)
(9.95198 1.23758e-18 0.350706)
(9.91444 4.18347e-19 0.464945)
(9.86893 8.51261e-19 0.581331)
(9.81521 -4.45958e-21 0.701461)
(9.75373 0 0.826734)
(9.68488 -1.8044e-18 0.958556)
(9.60909 4.57265e-18 1.09835)
(9.52687 1.08505e-20 1.24752)
(9.43856 -4.24816e-18 1.40754)
(9.34442 1.91364e-18 1.57997)
(9.24466 3.41982e-18 1.7665)
(9.14001 5.12139e-19 1.96892)
(9.03096 -3.97946e-18 2.1891)
(8.91767 -5.06921e-19 2.42926)
(8.80082 -5.04076e-19 2.6922)
(8.68109 0 2.98123)
(8.55924 0 3.30001)
(8.43554 -6.64326e-18 3.65285)
(8.31079 1.42118e-17 4.04571)
(8.1864 -8.04969e-18 4.48637)
(8.06228 -6.85e-18 4.98412)
(7.93889 6.75516e-18 5.55224)
(7.81781 -1.89178e-18 6.21029)
(7.69551 -1.80993e-18 6.98575)
(7.57936 0 7.91484)
(7.39971 0 9.0816)
(7.35243 0 10.5515)
(5.81798 0 13.7012)
(-0.00196217 -1.31714e-21 -0.0131988)
(0.0717189 0 -0.045481)
(0.206881 9.29102e-21 -0.0566673)
(0.348666 0 -0.0503682)
(0.473807 6.43634e-20 -0.0366233)
(0.56676 -5.89212e-20 -0.0220539)
(0.624482 -3.28958e-21 -0.00984965)
(0.652552 -2.38629e-20 -0.0011466)
(0.659945 2.37342e-20 0.00426268)
(0.654333 -5.0786e-21 0.00716968)
(0.640379 1.03981e-20 0.00898322)
(0.621156 9.16938e-21 0.00971183)
(0.599396 -4.69666e-21 0.00975745)
(0.57598 0 0.0106234)
(0.548909 0 0.0128049)
(0.516392 0 0.0143425)
(0.480913 -3.4866e-21 0.0137546)
(0.446201 1.65414e-21 0.0127123)
(0.410154 -1.63851e-21 0.0135368)
(0.367205 -3.14729e-21 0.0149479)
(0.31812 -3.11217e-21 0.0139599)
(0.272895 0 0.00982273)
(0.243987 7.37294e-22 0.00366832)
(0.238387 -7.28921e-22 -0.00314127)
(0.254236 2.67343e-21 -0.00993304)
(0.28813 0 -0.0170569)
(0.338065 -2.04589e-21 -0.0237197)
(0.403349 0 -0.0299867)
(0.48297 -1.04481e-21 -0.0354664)
(0.60791 8.27628e-22 -0.0390597)
(-0.00662325 3.50402e-19 -0.0404419)
(0.0625133 -1.88041e-21 -0.129946)
(0.187283 -3.03133e-19 -0.157195)
(0.322015 -1.30494e-19 -0.143597)
(0.446366 2.40668e-19 -0.112327)
(0.545315 -1.16241e-19 -0.0776317)
(0.614459 -9.81539e-20 -0.0467784)
(0.656929 1.00617e-19 -0.0230476)
(0.679064 0 -0.00663951)
(0.687233 5.28298e-21 0.00460624)
(0.685587 0 0.0124311)
(0.676154 2.75442e-20 0.0168077)
(0.661762 -5.43776e-21 0.0183141)
(0.64492 -1.6881e-20 0.020753)
(0.623959 -7.60826e-21 0.0261913)
(0.595631 8.87561e-23 0.0301815)
(0.562839 1.04989e-20 0.0304061)
(0.530057 6.59187e-21 0.0325285)
(0.495198 0 0.0406914)
(0.452704 6.23007e-21 0.0483074)
(0.404382 -3.08507e-21 0.0468516)
(0.358721 3.06094e-21 0.0336198)
(0.32134 1.47492e-21 0.01389)
(0.290322 2.95127e-21 -0.00423576)
(0.261998 -6.70602e-21 -0.0172912)
(0.237117 0 -0.0275995)
(0.229063 2.06315e-21 -0.0376544)
(0.24299 3.24374e-21 -0.0497846)
(0.277381 -1.05926e-21 -0.0658927)
(0.361098 -8.39641e-22 -0.080373)
(-0.00763165 -1.05391e-20 -0.0779451)
(0.0442231 3.51094e-19 -0.208756)
(0.14028 -2.88455e-19 -0.243945)
(0.24474 -2.73229e-19 -0.221985)
(0.340415 4.84312e-19 -0.175203)
(0.414948 -4.49285e-19 -0.123506)
(0.465084 2.15764e-19 -0.0771678)
(0.493447 0 -0.0412517)
(0.505221 -8.92457e-20 -0.0163539)
(0.504979 7.8071e-20 0.00166603)
(0.49554 0 0.0157805)
(0.477613 -2.84673e-20 0.0243009)
(0.45215 0 0.029279)
(0.423017 0 0.0368055)
(0.389237 -7.51755e-21 0.0502041)
(0.344985 -7.35e-21 0.0566269)
(0.291892 0 0.0481959)
(0.234541 -6.75774e-21 0.0436543)
(0.175294 -1.27842e-20 0.0552807)
(0.106343 -1.25341e-20 0.0705456)
(0.0182434 -1.90049e-20 0.0782499)
(-0.0846233 6.38208e-21 0.072759)
(-0.188028 -1.26871e-20 0.0578702)
(-0.283499 -6.0241e-21 0.0396658)
(-0.334115 4.2239e-21 0.0208733)
(-0.354594 1.30934e-21 -0.00335221)
(-0.351854 -9.41655e-22 -0.0348789)
(-0.319545 4.45314e-21 -0.071123)
(-0.267449 1.79662e-21 -0.107855)
(-0.198372 1.52434e-21 -0.133822)
(-0.0141308 0 -0.131136)
(0.0196164 -6.48447e-19 -0.276681)
(0.0870114 3.2774e-19 -0.307981)
(0.157125 4.40353e-20 -0.274275)
(0.217471 2.48712e-19 -0.21344)
(0.259147 0 -0.148381)
(0.281054 -2.05445e-19 -0.0903229)
(0.285877 2.29796e-19 -0.0456813)
(0.276748 2.33743e-20 -0.0128852)
(0.257372 -2.19692e-20 0.0110585)
(0.229131 -8.0606e-20 0.0327313)
(0.193249 1.37611e-19 0.04184)
(0.141561 -3.75846e-20 0.0380465)
(0.0770114 1.67917e-20 0.0457968)
(0.00248319 1.58261e-20 0.071204)
(-0.0989934 1.48311e-20 0.0993337)
(-0.237697 -4.11679e-22 0.112069)
(-0.428927 0 0.116791)
(-0.532384 1.85889e-22 0.132427)
(-0.604409 2.49508e-20 0.145422)
(-0.669179 1.23532e-20 0.146098)
(-0.727365 -5.96226e-21 0.132057)
(-0.77089 6.06334e-21 0.103633)
(-0.798781 2.78808e-21 0.0645263)
(-0.808837 -5.30512e-21 0.0214978)
(-0.804492 -6.91238e-21 -0.0211274)
(-0.788175 -8.91783e-22 -0.0630619)
(-0.766246 -1.19371e-20 -0.102942)
(-0.744484 6.20891e-22 -0.136724)
(-0.73138 -1.52211e-21 -0.158412)
(-0.0347864 2.08525e-20 -0.193363)
(-0.0185392 3.82055e-20 -0.331579)
(0.0197783 5.18919e-19 -0.34719)
(0.0518034 -5.53583e-19 -0.297841)
(0.0714255 2.3885e-19 -0.223957)
(0.0731425 -2.30354e-19 -0.148967)
(0.0586117 0 -0.0820583)
(0.0330155 -2.57465e-20 -0.0342525)
(-0.00765229 -2.4306e-20 -0.00441211)
(-0.061831 2.29356e-20 0.0198356)
(-0.146683 6.24933e-20 0.0542523)
(-0.231464 -8.35133e-20 0.0925626)
(-0.431832 -1.87191e-20 0.118549)
(-0.612462 -1.68784e-20 0.138176)
(-0.716528 1.4968e-20 0.166488)
(-0.789782 -2.75949e-20 0.190469)
(-0.870547 2.64879e-20 0.198116)
(-0.959468 -2.5202e-20 0.186946)
(-1.03082 0 0.17497)
(-1.0857 1.13985e-20 0.16994)
(-1.12494 0 0.160722)
(-1.15239 3.46417e-22 0.13941)
(-1.17128 -1.10944e-20 0.10576)
(-1.18529 2.63837e-21 0.0643114)
(-1.19557 -2.6117e-21 0.020131)
(-1.20093 9.10008e-21 -0.0246229)
(-1.20324 0 -0.0690101)
(-1.20328 5.7734e-21 -0.109909)
(-1.20445 0 -0.144088)
(-1.20722 0 -0.167017)
(-0.0713127 -2.27781e-20 -0.248173)
(-0.0734486 5.71262e-19 -0.366642)
(-0.068347 0 -0.356083)
(-0.0810971 5.43593e-19 -0.286981)
(-0.110583 -5.23986e-19 -0.20097)
(-0.158976 -7.52145e-21 -0.120928)
(-0.223067 0 -0.0563577)
(-0.297326 0 0.00971372)
(-0.448139 1.96007e-19 0.0697275)
(-0.635824 -1.67756e-19 0.118197)
(-0.788333 2.07337e-20 0.165737)
(-0.882482 -3.78592e-20 0.202004)
(-0.977321 1.19138e-19 0.213026)
(-1.082 -9.57464e-20 0.207858)
(-1.17097 -1.26864e-20 0.211346)
(-1.24118 2.55933e-20 0.223754)
(-1.2999 2.41093e-20 0.229155)
(-1.35517 -1.17837e-20 0.21995)
(-1.40531 -2.1656e-20 0.205228)
(-1.44685 -3.21047e-20 0.191638)
(-1.47841 0 0.174278)
(-1.50297 2.63658e-20 0.148133)
(-1.52447 1.60278e-20 0.112632)
(-1.54486 -2.47573e-20 0.0703753)
(-1.56328 -1.35329e-20 0.0245996)
(-1.57741 -1.62339e-20 -0.0224801)
(-1.5907 -1.32828e-20 -0.0687913)
(-1.60214 0 -0.111119)
(-1.61346 -5.59568e-21 -0.146148)
(-1.62126 -2.00139e-21 -0.169182)
(-0.120122 -6.90125e-19 -0.281988)
(-0.146617 7.26525e-21 -0.370155)
(-0.184924 5.6761e-19 -0.323818)
(-0.255513 5.36847e-19 -0.228163)
(-0.355247 -5.53233e-19 -0.123638)
(-0.483133 0 -0.0272862)
(-0.659118 -2.26015e-19 0.0639564)
(-0.839931 2.20315e-19 0.143995)
(-0.963717 0 0.190134)
(-1.07529 -2.20029e-20 0.213115)
(-1.18053 4.0192e-20 0.230568)
(-1.2714 -3.38522e-20 0.250432)
(-1.35342 1.31533e-19 0.261312)
(-1.43406 -6.20732e-20 0.259685)
(-1.50824 2.7011e-20 0.257458)
(-1.57081 -2.47574e-20 0.258565)
(-1.62296 2.18796e-20 0.255772)
(-1.67022 2.05626e-20 0.2446)
(-1.71452 4.07182e-20 0.22865)
(-1.75429 2.04965e-20 0.210896)
(-1.78882 0 0.189101)
(-1.81977 -1.18724e-21 0.160377)
(-1.84916 4.80806e-21 0.123876)
(-1.87736 1.45053e-20 0.0807504)
(-1.90321 1.78794e-20 0.0333312)
(-1.92463 3.05553e-20 -0.015731)
(-1.94396 1.42828e-20 -0.0638043)
(-1.96344 -1.32025e-21 -0.107435)
(-1.98154 5.44998e-21 -0.142952)
(-1.99217 3.994e-22 -0.165396)
(-0.175995 -7.22733e-19 -0.285399)
(-0.241933 6.92507e-19 -0.324075)
(-0.345748 -6.00405e-19 -0.225716)
(-0.498593 0 -0.0988045)
(-0.68546 1.09124e-20 0.0274138)
(-0.889081 -2.30145e-19 0.136112)
(-1.03802 2.38468e-19 0.198138)
(-1.16108 2.66123e-20 0.23375)
(-1.27434 0 0.260987)
(-1.37894 0 0.280886)
(-1.47488 -3.90164e-20 0.294345)
(-1.5608 1.02692e-19 0.304231)
(-1.63829 -3.76067e-20 0.30783)
(-1.7113 -8.65986e-20 0.304242)
(-1.77913 -2.39765e-20 0.298516)
(-1.83899 4.52503e-20 0.29272)
(-1.89136 -4.26604e-20 0.283878)
(-1.9396 -2.00398e-20 0.269998)
(-1.98563 -1.91987e-20 0.252514)
(-2.02905 9.07035e-21 0.232412)
(-2.06958 -8.93301e-21 0.208177)
(-2.10797 -1.40769e-20 0.17774)
(-2.14494 -4.42719e-21 0.140026)
(-2.18017 -4.13369e-21 0.0954188)
(-2.21265 -1.10482e-20 0.0458228)
(-2.24128 -1.43855e-20 -0.00558743)
(-2.26606 1.17229e-21 -0.0554319)
(-2.29261 -1.14869e-21 -0.10013)
(-2.31631 -8.10356e-23 -0.136001)
(-2.3291 2.89465e-21 -0.15778)
(-0.236851 -7.65886e-19 -0.247581)
(-0.368759 -4.25728e-20 -0.204756)
(-0.551287 6.48604e-19 -0.0585056)
(-0.784151 -6.30638e-19 0.102556)
(-0.984392 5.3559e-19 0.2086)
(-1.13879 -5.72575e-19 0.260754)
(-1.27773 0 0.296188)
(-1.40161 2.68789e-20 0.321168)
(-1.51389 0 0.338177)
(-1.61631 0 0.349393)
(-1.70949 0 0.355971)
(-1.7938 -3.42886e-20 0.3583)
(-1.87037 5.71198e-20 0.355339)
(-1.94164 2.1017e-20 0.347685)
(-2.00826 -4.89703e-20 0.338038)
(-2.06925 3.89456e-20 0.327412)
(-2.12492 -1.3678e-21 0.314502)
(-2.17719 -3.33633e-20 0.298365)
(-2.2275 7.01074e-21 0.279406)
(-2.27595 2.28793e-20 0.257619)
(-2.32255 -6.94998e-21 0.23167)
(-2.36767 -2.30706e-20 0.199764)
(-2.41149 0 0.160647)
(-2.45347 0 0.114294)
(-2.49264 1.47724e-20 0.0623931)
(-2.52823 -1.14762e-20 0.00842391)
(-2.56004 0 -0.0433836)
(-2.59275 0 -0.0893096)
(-2.62154 2.34395e-21 -0.125767)
(-2.63619 -1.19016e-21 -0.147223)
(-0.306873 -8.43867e-19 -0.151554)
(-0.515971 -4.72937e-20 -0.0143033)
(-0.774279 -6.64979e-19 0.193844)
(-0.983176 1.24994e-18 0.296698)
(-1.16623 -6.15286e-19 0.349768)
(-1.32835 2.77628e-19 0.38153)
(-1.47116 -4.46756e-20 0.400186)
(-1.59694 -2.68568e-19 0.411214)
(-1.70924 0 0.41712)
(-1.8108 -4.20549e-20 0.41902)
(-1.90303 -3.71273e-20 0.417576)
(-1.98726 -2.96756e-20 0.41277)
(-2.06499 -2.07217e-20 0.404201)
(-2.13766 5.23956e-20 0.392529)
(-2.20604 0 0.379207)
(-2.27018 -1.89929e-20 0.36476)
(-2.33024 0 0.348604)
(-2.3872 2.48135e-21 0.330276)
(-2.44207 -2.38609e-21 0.309718)
(-2.49528 -1.45963e-20 0.286441)
(-2.54719 1.46791e-20 0.259107)
(-2.59822 2.78655e-20 0.225961)
(-2.64849 1.31201e-20 0.185564)
(-2.69749 -3.25317e-21 0.137575)
(-2.74415 -8.37913e-21 0.083448)
(-2.78757 1.23791e-20 0.0267716)
(-2.82759 -1.93595e-21 -0.0275017)
(-2.86491 5.74578e-22 -0.0751474)
(-2.89867 -2.10602e-21 -0.112339)
(-2.91508 0 -0.133912)
(-0.385468 9.13223e-19 0.0337451)
(-0.654826 -7.29095e-19 0.286683)
(-0.89693 0 0.408955)
(-1.12148 -2.86377e-20 0.472987)
(-1.31977 3.45825e-20 0.500807)
(-1.49001 -2.74105e-19 0.508428)
(-1.63499 2.6425e-19 0.507052)
(-1.75997 5.1251e-20 0.502485)
(-1.87045 -4.6092e-20 0.496588)
(-1.97074 3.67146e-22 0.489375)
(-2.0627 3.6498e-20 0.480399)
(-2.14777 -6.2563e-20 0.469229)
(-2.22768 2.73429e-20 0.455706)
(-2.30331 -2.11112e-20 0.440247)
(-2.37511 0 0.423555)
(-2.44329 1.36305e-20 0.405799)
(-2.50779 1.12365e-20 0.386657)
(-2.56907 2.95068e-21 0.365944)
(-2.62783 -1.21962e-20 0.343529)
(-2.68481 9.67176e-21 0.318796)
(-2.74089 -4.41235e-21 0.290383)
(-2.79685 -1.25612e-20 0.256434)
(-2.85307 -2.9946e-20 0.215235)
(-2.9091 1.08161e-20 0.166047)
(-2.96367 2.35792e-20 0.109966)
(-3.01545 -2.41146e-21 0.05046)
(-3.06407 5.39338e-21 -0.00704722)
(-3.10879 -4.65165e-21 -0.0571914)
(-3.14682 8.88826e-24 -0.0957928)
(-3.16523 6.25543e-22 -0.118056)
(-0.425645 -2.74314e-20 0.358319)
(-0.702695 7.20133e-19 0.551966)
(-0.992356 -5.29937e-20 0.640631)
(-1.24783 -6.36831e-19 0.668112)
(-1.46122 -2.59255e-19 0.660668)
(-1.63424 4.58379e-19 0.637729)
(-1.77517 -2.28961e-19 0.613026)
(-1.89425 -7.34701e-22 0.59238)
(-1.99984 4.54122e-20 0.575489)
(-2.09735 4.03709e-20 0.560259)
(-2.18875 -3.43551e-20 0.544867)
(-2.27505 -5.34346e-20 0.52838)
(-2.35748 9.825e-20 0.51057)
(-2.43656 -5.22769e-21 0.491588)
(-2.5124 -3.10956e-20 0.471645)
(-2.58477 1.08474e-20 0.450611)
(-2.65326 -2.16338e-20 0.428269)
(-2.71789 9.70399e-21 0.404697)
(-2.7793 0 0.379998)
(-2.83867 -5.18695e-21 0.353725)
(-2.89753 1.36264e-20 0.324547)
(-2.95737 -2.49634e-21 0.290405)
(-3.01905 1.34202e-20 0.249142)
(-3.0823 -1.0632e-20 0.199448)
(-3.14563 -1.64005e-21 0.141864)
(-3.20703 6.15334e-21 0.0795384)
(-3.26527 -8.89986e-21 0.0181566)
(-3.31914 5.9264e-21 -0.0356475)
(-3.36175 -2.52071e-23 -0.0765933)
(-3.38218 -6.40051e-22 -0.0996495)
(-0.421 -8.24727e-19 0.691003)
(-0.744269 7.16604e-19 0.875568)
(-1.09676 3.5716e-20 0.90843)
(-1.38151 3.5296e-20 0.880677)
(-1.60131 2.95863e-20 0.823604)
(-1.76583 5.85951e-20 0.761878)
(-1.8918 2.58259e-19 0.711576)
(-1.99695 -2.49722e-19 0.676667)
(-2.0931 8.37518e-20 0.651736)
(-2.1854 -8.15305e-20 0.63097)
(-2.27485 3.39371e-20 0.611039)
(-2.36152 2.85423e-20 0.590597)
(-2.44568 -2.08803e-20 0.569317)
(-2.52744 1.50743e-20 0.547214)
(-2.60658 -1.00762e-20 0.524117)
(-2.68226 1.67121e-20 0.499581)
(-2.75343 -9.86278e-21 0.473481)
(-2.81963 2.15468e-21 0.446327)
(-2.88151 2.58743e-21 0.418793)
(-2.94085 -2.34683e-21 0.390909)
(-3.00015 -7.67793e-21 0.361478)
(-3.06182 0 0.328128)
(-3.12746 7.46257e-21 0.288031)
(-3.19715 0 0.239038)
(-3.26919 -7.8561e-21 0.180882)
(-3.34081 -1.0406e-20 0.116184)
(-3.40965 3.55133e-21 0.0507786)
(-3.47345 8.1371e-22 -0.00746883)
(-3.52439 0 -0.0512145)
(-3.54744 -3.24394e-21 -0.0751767)
(-0.425909 7.25184e-19 1.21963)
(-0.810866 -6.22336e-19 1.25638)
(-1.23912 -3.46782e-20 1.20629)
(-1.54133 -2.28154e-19 1.09935)
(-1.74995 1.93851e-19 0.97734)
(-1.88616 2.59991e-19 0.869745)
(-1.97935 -2.56036e-19 0.794462)
(-2.05859 0 0.751326)
(-2.13914 0 0.723833)
(-2.22279 -3.31954e-20 0.700775)
(-2.30734 9.99538e-20 0.67819)
(-2.39126 2.4886e-20 0.654938)
(-2.4739 2.07234e-20 0.630791)
(-2.55511 -2.64148e-20 0.605868)
(-2.63449 0 0.579699)
(-2.71055 9.09374e-22 0.551347)
(-2.78123 3.1354e-21 0.520725)
(-2.84533 2.77785e-21 0.489046)
(-2.90347 -4.15953e-21 0.458011)
(-2.95816 2.61692e-22 0.428508)
(-3.01308 2.43335e-21 0.399615)
(-3.07191 -2.3943e-21 0.368515)
(-3.1372 -5.76005e-21 0.331425)
(-3.2096 -3.14408e-21 0.285031)
(-3.28747 6.82361e-21 0.227899)
(-3.3674 3.48835e-21 0.16175)
(-3.44578 2.65907e-22 0.0922735)
(-3.51885 -2.0976e-21 0.0285233)
(-3.57741 0 -0.0197932)
(-3.60485 8.01361e-21 -0.0458624)
(-0.484807 2.30584e-19 1.06662)
(-1.00148 0 1.85575)
(-1.45441 -1.71349e-19 1.62136)
(-1.746 1.68438e-19 1.37303)
(-1.9136 -9.37425e-20 1.1333)
(-1.9918 -5.46451e-20 0.946262)
(-2.02616 1.20617e-19 0.838655)
(-2.06417 0 0.800361)
(-2.12378 0 0.781118)
(-2.19557 -3.60449e-22 0.761534)
(-2.27082 -3.12928e-20 0.740094)
(-2.34643 -4.53932e-20 0.716953)
(-2.42143 3.33571e-20 0.691857)
(-2.49604 -1.54195e-20 0.665441)
(-2.57038 6.31126e-21 0.637247)
(-2.64238 7.19928e-21 0.605315)
(-2.70848 -3.18507e-21 0.569351)
(-2.76618 5.6081e-21 0.531743)
(-2.81584 1.86059e-21 0.495938)
(-2.86082 -3.42548e-21 0.464262)
(-2.90635 -3.40079e-23 0.43632)
(-2.95771 0 0.408711)
(-3.01871 1.38092e-21 0.376359)
(-3.09087 -6.63797e-21 0.334435)
(-3.17296 -4.78943e-21 0.279981)
(-3.2612 2.41628e-21 0.21347)
(-3.35053 4.91087e-23 0.140214)
(-3.43505 -9.19952e-21 0.0703837)
(-3.50335 -7.91666e-23 0.0163437)
(-3.53616 -4.8278e-21 -0.0129925)
(10.0028 1.52914e-18 0.125366)
(9.9842 3.09687e-18 0.246557)
(9.95642 -3.94831e-19 0.365575)
(9.92236 -4.03367e-19 0.484736)
(9.88122 -7.52543e-21 0.605999)
(9.83288 -8.31826e-19 0.731023)
(9.77777 8.46333e-19 0.861301)
(9.71624 -8.56157e-19 0.99824)
(9.64884 4.64388e-21 1.14323)
(9.57612 -1.76614e-18 1.29772)
(9.49855 -8.99121e-19 1.46319)
(9.41629 9.10084e-19 1.64117)
(9.32985 4.15833e-18 1.83335)
(9.2404 -7.92298e-18 2.04154)
(9.14836 3.75489e-18 2.2676)
(9.0541 -4.73789e-18 2.51372)
(8.9585 3.33901e-18 2.78266)
(8.86285 0 3.07776)
(8.76867 -7.62271e-18 3.40271)
(8.67661 7.57047e-18 3.76164)
(8.58881 9.35855e-18 4.16058)
(8.50833 -7.40596e-18 4.60733)
(8.43697 -7.14593e-18 5.11073)
(8.37961 5.30607e-18 5.68422)
(8.34444 0 6.34702)
(8.34021 6.05191e-18 7.12536)
(8.40081 -5.84655e-18 8.05577)
(8.53128 0 9.21276)
(9.35655 -1.3817e-18 10.6224)
(10.2937 1.11756e-18 13.845)
(10.0035 0 0.130135)
(9.98603 -1.1299e-18 0.255793)
(9.9609 -3.81673e-19 0.379344)
(9.93063 0 0.503055)
(9.89417 -1.57747e-18 0.628767)
(9.85143 7.94841e-21 0.758191)
(9.80289 -9.75304e-22 0.892924)
(9.74898 0 1.03438)
(9.69032 -8.41876e-19 1.18389)
(9.62745 3.41162e-18 1.34291)
(9.56097 7.47205e-21 1.51294)
(9.49106 -1.73607e-18 1.69547)
(9.41853 0 1.89208)
(9.34478 8.85931e-19 2.10457)
(9.27026 8.91781e-19 2.33481)
(9.19572 9.08553e-19 2.58493)
(9.12209 1.44008e-20 2.85746)
(9.05137 -3.60964e-18 3.15561)
(8.98574 -3.58051e-18 3.48291)
(8.92629 -8.66133e-19 3.84309)
(8.87653 5.28437e-18 4.24179)
(8.84098 6.81802e-18 4.68601)
(8.82346 -1.49405e-17 5.1831)
(8.83273 8.08573e-18 5.74432)
(8.88239 0 6.38435)
(8.99082 -1.37039e-18 7.12002)
(9.20603 1.23149e-18 7.96901)
(9.5286 -1.05621e-18 8.95333)
(10.2659 8.5362e-19 10.0163)
(11.1583 0 11.3288)
(10.0044 -1.79835e-19 0.134522)
(9.98791 1.81968e-19 0.264238)
(9.96539 0 0.391817)
(9.9392 -7.54958e-19 0.519611)
(9.90775 1.54073e-18 0.649335)
(9.87083 -1.55056e-18 0.78267)
(9.82906 -2.37224e-18 0.921288)
(9.78306 -6.10647e-21 1.06661)
(9.73342 1.61967e-18 1.21993)
(9.68069 0 1.38268)
(9.62556 1.66468e-18 1.55637)
(9.56835 -3.35951e-18 1.74235)
(9.5102 3.38115e-18 1.94211)