/*--------------------------------*- C++ -*----------------------------------*\
| =========                 |                                                 |
| \\      /  F ield         | OpenFOAM: The Open Source CFD Toolbox           |
|  \\    /   O peration     | Version:  4.1                                   |
|   \\  /    A nd           | Web:      www.OpenFOAM.org                      |
|    \\/     M anipulation  |                                                 |
\*---------------------------------------------------------------------------*/
FoamFile
{
    version     2.0;
    format      ascii;
    class       volVectorField;
    location    "3.5";
    object      cellDisplacement;
}
// * * * * * * * * * * * * * * * * * * * * * * * * * * * * * * * * * * * * * //

dimensions      [0 1 0 0 0 0 0];

internalField   nonuniform List<vector> 
2790
(
(0.00302503 0 -1.29698e-07)
(0.00869022 0 -3.25071e-07)
(0.0136339 0 -3.6032e-07)
(0.0179087 0 -1.72228e-07)
(0.0215675 0 2.95069e-07)
(0.0246589 0 1.0969e-06)
(0.027227 0 2.29279e-06)
(0.0293114 0 3.95033e-06)
(0.0309474 0 6.14862e-06)
(0.032166 0 8.98174e-06)
(0.0329943 0 1.25625e-05)
(0.0334561 0 1.70265e-05)
(0.0335716 0 2.25373e-05)
(0.0333585 0 2.92913e-05)
(0.0328317 0 3.7525e-05)
(0.0320044 0 4.75216e-05)
(0.0308885 0 5.96198e-05)
(0.0294948 0 7.42248e-05)
(0.0278346 0 9.1822e-05)
(0.0259203 0 0.000112995)
(0.0237675 0 0.000138444)
(0.0213965 0 0.000168989)
(0.0188347 0 0.00020557)
(0.0161197 0 0.00024921)
(0.013303 0 0.000300923)
(0.0104561 0 0.000361506)
(0.00768001 0 0.000431101)
(0.00512298 0 0.000508236)
(0.00301387 0 0.000587551)
(0.00175931 0 0.000653636)
(0.0030283 0 -4.00607e-07)
(0.00869992 0 -1.00939e-06)
(0.01365 0 -1.1383e-06)
(0.0179316 0 -5.99788e-07)
(0.0215977 0 7.71834e-07)
(0.0246972 0 3.14052e-06)
(0.0272746 0 6.68255e-06)
(0.0293697 0 1.15978e-05)
(0.031018 0 1.81201e-05)
(0.032251 0 2.65271e-05)
(0.0330961 0 3.71514e-05)
(0.0335774 0 5.03924e-05)
(0.0337157 0 6.67305e-05)
(0.0335293 0 8.67428e-05)
(0.0330337 0 0.000111121)
(0.0322429 0 0.000140694)
(0.0311695 0 0.000176447)
(0.0298256 0 0.000219553)
(0.0282232 0 0.000271412)
(0.0263758 0 0.000333694)
(0.0243002 0 0.000408393)
(0.0220182 0 0.000497829)
(0.0195589 0 0.000604625)
(0.0169617 0 0.000731591)
(0.0142808 0 0.000881415)
(0.0115904 0 0.00105599)
(0.00899435 0 0.00125502)
(0.00664273 0 0.00147303)
(0.00476168 0 0.00169253)
(0.00372768 0 0.00186671)
(0.00303456 0 -7.04429e-07)
(0.00871857 0 -1.79168e-06)
(0.0136811 0 -2.08139e-06)
(0.0179758 0 -1.26771e-06)
(0.0216563 0 9.19187e-07)
(0.024772 0 4.74589e-06)
(0.0273678 0 1.04985e-05)
(0.029484 0 1.85008e-05)
(0.0311568 0 2.91307e-05)
(0.0324183 0 4.28359e-05)
(0.0332966 0 6.01515e-05)
(0.0338167 0 8.17185e-05)
(0.0340003 0 0.000108305)
(0.0338667 0 0.000140831)
(0.0334328 0 0.000180395)
(0.0327141 0 0.000228304)
(0.0317247 0 0.000286106)
(0.0304787 0 0.000355621)
(0.0289902 0 0.000438991)
(0.0272744 0 0.000538742)
(0.0253503 0 0.000657864)
(0.0232423 0 0.000799768)
(0.0209824 0 0.000968209)
(0.0186132 0 0.00116707)
(0.0161931 0 0.00139976)
(0.0137999 0 0.00166803)
(0.0115385 0 0.00196962)
(0.00955422 0 0.00229356)
(0.00805095 0 0.00261018)
(0.00733933 0 0.00284857)
(0.00304385 0 -1.06097e-06)
(0.00874623 0 -2.73138e-06)
(0.0137273 0 -3.29059e-06)
(0.0180415 0 -2.32415e-06)
(0.0217433 0 5.32727e-07)
(0.0248828 0 5.63945e-06)
(0.0275057 0 1.33806e-05)
(0.0296533 0 2.41901e-05)
(0.0313623 0 3.85729e-05)
(0.0326658 0 5.7125e-05)
(0.0335931 0 8.05561e-05)
(0.0341702 0 0.000109712)
(0.0344205 0 0.000145604)
(0.0343645 0 0.000189432)
(0.0340211 0 0.000242625)
(0.0334077 0 0.000306867)
(0.0325412 0 0.000384134)
(0.0314382 0 0.000476712)
(0.0301159 0 0.000587227)
(0.0285914 0 0.000718685)
(0.026887 0 0.000874648)
(0.0250303 0 0.001059)
(0.0230563 0 0.00127584)
(0.0210106 0 0.0015291)
(0.0189567 0 0.00182177)
(0.0169746 0 0.00215388)
(0.0151663 0 0.00251986)
(0.0136638 0 0.00290275)
(0.0126363 0 0.00326348)
(0.0123113 0 0.00351913)
(0.00305606 0 -1.48933e-06)
(0.00878261 0 -3.88569e-06)
(0.0137879 0 -4.86283e-06)
(0.0181277 0 -3.91074e-06)
(0.0218574 0 -5.82218e-07)
(0.0250281 0 5.56167e-06)
(0.0276866 0 1.49888e-05)
(0.0298749 0 2.82248e-05)
(0.0316311 0 4.58786e-05)
(0.0329894 0 6.86659e-05)
(0.0339804 0 9.74336e-05)
(0.0346317 0 0.000133186)
(0.0349682 0 0.000177114)
(0.0350126 0 0.000230622)
(0.0347859 0 0.000295367)
(0.0343082 0 0.000373282)
(0.033599 0 0.00046661)
(0.0326792 0 0.000577888)
(0.0315705 0 0.000709919)
(0.0302899 0 0.000865679)
(0.0288645 0 0.00104887)
(0.0273253 0 0.00126314)
(0.0257098 0 0.00151199)
(0.0240621 0 0.00179837)
(0.0224537 0 0.00212387)
(0.0209631 0 0.00248548)
(0.0196829 0 0.0028736)
(0.0187239 0 0.00326629)
(0.0182097 0 0.00361978)
(0.0182741 0 0.00385148)
(0.00307107 0 -2.00678e-06)
(0.00882725 0 -5.30638e-06)
(0.0138623 0 -6.88577e-06)
(0.0182333 0 -6.15554e-06)
(0.021997 0 -2.6015e-06)
(0.0252059 0 4.27859e-06)
(0.0279076 0 1.50172e-05)
(0.0301455 0 3.02097e-05)
(0.031959 0 5.05413e-05)
(0.0333836 0 7.68125e-05)
(0.0344516 0 0.000109964)
(0.0351923 0 0.000151103)
(0.0356327 0 0.000201528)
(0.0357976 0 0.000262757)
(0.0357106 0 0.000336559)
(0.0353945 0 0.000424973)
(0.034872 0 0.000530333)
(0.0341684 0 0.000655225)
(0.0333056 0 0.000801927)
(0.0323099 0 0.000973403)
(0.0312093 0 0.00117298)
(0.030038 0 0.00140335)
(0.0288372 0 0.00166654)
(0.027652 0 0.00196415)
(0.0265377 0 0.00229499)
(0.0255827 0 0.00265234)
(0.0248608 0 0.00302288)
(0.0244534 0 0.00338201)
(0.0244318 0 0.00368715)
(0.0248353 0 0.00386732)
(0.00308867 0 -2.62836e-06)
(0.00887958 0 -7.03836e-06)
(0.0139493 0 -9.43539e-06)
(0.0183568 0 -9.16936e-06)
(0.0221602 0 -5.67686e-06)
(0.0254133 0 1.589e-06)
(0.0281653 0 1.32043e-05)
(0.0304607 0 2.98088e-05)
(0.0323405 0 5.21334e-05)
(0.0338416 0 8.10255e-05)
(0.0349982 0 0.000117471)
(0.0358415 0 0.000162619)
(0.0364006 0 0.0002178)
(0.0367029 0 0.00028455)
(0.0367747 0 0.000364623)
(0.0366412 0 0.000460012)
(0.0363279 0 0.000572976)
(0.0358621 0 0.000705569)
(0.0352736 0 0.000859824)
(0.034591 0 0.00103839)
(0.0338469 0 0.00124343)
(0.0330754 0 0.0014764)
(0.0323189 0 0.0017377)
(0.0316294 0 0.00202581)
(0.031043 0 0.00233687)
(0.030634 0 0.00266122)
(0.030459 0 0.00298208)
(0.0305653 0 0.00327504)
(0.0309711 0 0.00350426)
(0.031632 0 0.00361899)
(0.00310862 0 -3.36632e-06)
(0.00893884 0 -9.11832e-06)
(0.0140478 0 -1.25736e-05)
(0.0184963 0 -1.30423e-05)
(0.0223445 0 -9.93119e-06)
(0.0256474 0 -2.66908e-06)
(0.0284556 0 9.34109e-06)
(0.0308154 0 2.67567e-05)
(0.032769 0 5.03221e-05)
(0.0343552 0 8.08914e-05)
(0.0356099 0 0.000119447)
(0.0365664 0 0.000167118)
(0.0372562 0 0.000225192)
(0.0377092 0 0.000295124)
(0.0379542 0 0.000378538)
(0.0380196 0 0.000477214)
(0.0379333 0 0.00059304)
(0.0377228 0 0.000727863)
(0.0374256 0 0.000883133)
(0.0370754 0 0.00106039)
(0.0367085 0 0.00126074)
(0.0363533 0 0.00148407)
(0.03605 0 0.00172902)
(0.0358527 0 0.00199115)
(0.0357989 0 0.00226346)
(0.0359165 0 0.00253388)
(0.0362434 0 0.00278401)
(0.036792 0 0.00299163)
(0.0375323 0 0.00313127)
(0.0383571 0 0.00317767)
(0.00313065 0 -4.22984e-06)
(0.00900419 0 -1.15736e-05)
(0.0141563 0 -1.63466e-05)
(0.0186499 0 -1.78411e-05)
(0.022547 0 -1.54548e-05)
(0.0259043 0 -8.61327e-06)
(0.0287739 0 3.27813e-06)
(0.0312035 0 2.08674e-05)
(0.0332371 0 4.48801e-05)
(0.0349151 0 7.61381e-05)
(0.0362752 0 0.000115573)
(0.037353 0 0.000164235)
(0.0381821 0 0.000223298)
(0.0387948 0 0.000294054)
(0.0392227 0 0.000377894)
(0.039497 0 0.00047627)
(0.039649 0 0.000590623)
(0.0397101 0 0.000722235)
(0.039714 0 0.000872083)
(0.0397026 0 0.00104083)
(0.0397098 0 0.00122789)
(0.0397724 0 0.00143144)
(0.0399268 0 0.00164889)
(0.0402083 0 0.00187396)
(0.0406467 0 0.00209636)
(0.0412435 0 0.00230257)
(0.0420053 0 0.00247446)
(0.0429062 0 0.00259288)
(0.043876 0 0.00264339)
(0.0447728 0 0.00262687)
(0.0031544 0 -5.22476e-06)
(0.00907462 0 -1.44217e-05)
(0.0142731 0 -2.07834e-05)
(0.0188151 0 -2.36072e-05)
(0.0227645 0 -2.23028e-05)
(0.0261799 0 -1.63136e-05)
(0.0291149 0 -5.07028e-06)
(0.0316186 0 1.20398e-05)
(0.0337367 0 3.56927e-05)
(0.0355113 0 6.66418e-05)
(0.0369819 0 0.000105724)
(0.038186 0 0.000153862)
(0.0391593 0 0.000212055)
(0.0399366 0 0.000281361)
(0.0405519 0 0.000362863)
(0.0410389 0 0.000457612)
(0.0414318 0 0.000566533)
(0.0417653 0 0.00069029)
(0.0420755 0 0.000829132)
(0.0424007 0 0.000982701)
(0.0427738 0 0.0011496)
(0.0432394 0 0.00132677)
(0.0438293 0 0.00150969)
(0.0445562 0 0.00169133)
(0.0454341 0 0.00186081)
(0.0464516 0 0.00200412)
(0.0475764 0 0.00210457)
(0.0487423 0 0.00214658)
(0.049845 0 0.00212428)
(0.0507361 0 0.00205882)
(0.00317951 0 -6.3535e-06)
(0.00914902 0 -1.76695e-05)
(0.0143964 0 -2.58956e-05)
(0.0189893 0 -3.03565e-05)
(0.0229938 0 -3.04948e-05)
(0.0264699 0 -2.57919e-05)
(0.029473 0 -1.57255e-05)
(0.0320538 0 2.57738e-07)
(0.0342593 0 2.27572e-05)
(0.0361332 0 5.2426e-05)
(0.0377169 0 8.99709e-05)
(0.0390494 0 0.000136144)
(0.0401685 0 0.000191724)
(0.041111 0 0.000257486)
(0.0419128 0 0.000334157)
(0.04261 0 0.000422339)
(0.0432389 0 0.000522415)
(0.043836 0 0.000634416)
(0.0444388 0 0.000757858)
(0.0450849 0 0.000891536)
(0.0458096 0 0.00103321)
(0.0466482 0 0.00117928)
(0.0476258 0 0.00132462)
(0.0487522 0 0.00146204)
(0.0500231 0 0.00158186)
(0.0514067 0 0.0016722)
(0.0528377 0 0.00171989)
(0.0542107 0 0.00171359)
(0.0553885 0 0.00165208)
(0.0562322 0 0.00156436)
(0.00320558 0 -7.6151e-06)
(0.00922624 0 -2.13143e-05)
(0.0145242 0 -3.16777e-05)
(0.0191698 0 -3.808e-05)
(0.023231 0 -4.00157e-05)
(0.0267697 0 -3.70234e-05)
(0.0298427 0 -2.86471e-05)
(0.032502 0 -1.44137e-05)
(0.0347961 0 6.1763e-06)
(0.0367703 0 3.36508e-05)
(0.0384672 0 6.8558e-05)
(0.0399276 0 0.00011145)
(0.0411906 0 0.000162854)
(0.0422947 0 0.000223236)
(0.0432775 0 0.000292937)
(0.0441765 0 0.000372104)
(0.0450292 0 0.000460584)
(0.0458734 0 0.000557805)
(0.0467467 0 0.000662633)
(0.0476857 0 0.000773208)
(0.0487246 0 0.000886762)
(0.0498934 0 0.000999477)
(0.051212 0 0.00110646)
(0.0526849 0 0.00120172)
(0.0542965 0 0.00127839)
(0.056 0 0.00132928)
(0.0577072 0 0.00134773)
(0.0592813 0 0.00132877)
(0.0605504 0 0.0012728)
(0.0613717 0 0.00119973)
(0.0032322 0 -9.00542e-06)
(0.00930504 0 -2.53434e-05)
(0.0146547 0 -3.81082e-05)
(0.0193539 0 -4.67448e-05)
(0.0234727 0 -5.0818e-05)
(0.0270748 0 -4.99402e-05)
(0.0302181 0 -4.37382e-05)
(0.0329562 0 -3.18363e-05)
(0.0353387 0 -1.38525e-05)
(0.0374122 0 1.05973e-05)
(0.0392204 0 4.18842e-05)
(0.0408053 0 8.03424e-05)
(0.0422074 0 0.000126235)
(0.043466 0 0.000179705)
(0.0446198 0 0.000240715)
(0.0457072 0 0.000308969)
(0.046766 0 0.000383819)
(0.047834 0 0.00046416)
(0.048948 0 0.000548324)
(0.0501431 0 0.000633977)
(0.051451 0 0.000718066)
(0.0528976 0 0.000796866)
(0.0544989 0 0.00086621)
(0.0562559 0 0.000921971)
(0.058149 0 0.000960969)
(0.0601278 0 0.000982298)
(0.0621001 0 0.00098851)
(0.063919 0 0.000984989)
(0.0653833 0 0.000974913)
(0.0662981 0 0.000953093)
(0.00325894 0 -1.05173e-05)
(0.0093842 0 -2.97354e-05)
(0.0147857 0 -4.51503e-05)
(0.0195387 0 -5.62964e-05)
(0.0237152 0 -6.28245e-05)
(0.0273804 0 -6.44349e-05)
(0.0305936 0 -6.08507e-05)
(0.0334095 0 -5.18065e-05)
(0.0358788 0 -3.70497e-05)
(0.0380489 0 -1.63513e-05)
(0.0399645 0 1.04737e-05)
(0.0416685 0 4.35369e-05)
(0.0432021 0 8.28359e-05)
(0.044605 0 0.000128203)
(0.0459165 0 0.000179244)
(0.0471747 0 0.000235262)
(0.0484172 0 0.000295178)
(0.0496806 0 0.000357448)
(0.051 0 0.000419991)
(0.052408 0 0.000480157)
(0.0539329 0 0.000534768)
(0.0555969 0 0.000580303)
(0.0574125 0 0.00061333)
(0.0593792 0 0.000631317)
(0.0614787 0 0.000634046)
(0.0636686 0 0.00062582)
(0.0658745 0 0.000618156)
(0.067975 0 0.000630624)
(0.069776 0 0.000680188)
(0.0709865 0 0.000737119)
(0.00328539 0 -1.21405e-05)
(0.00946252 0 -3.44601e-05)
(0.0149153 0 -5.27529e-05)
(0.0197215 0 -6.66593e-05)
(0.023955 0 -7.59298e-05)
(0.0276823 0 -8.0364e-05)
(0.030964 0 -7.9791e-05)
(0.0338555 0 -7.40637e-05)
(0.0364086 0 -6.30657e-05)
(0.0386712 0 -4.67267e-05)
(0.0406887 0 -2.50474e-05)
(0.0425044 0 1.86675e-06)
(0.0441596 0 3.37628e-05)
(0.0456942 0 7.01886e-05)
(0.0471471 0 0.000110433)
(0.0485556 0 0.000153459)
(0.049956 0 0.000197841)
(0.0513829 0 0.0002417)
(0.0528687 0 0.000282673)
(0.0544424 0 0.000317922)
(0.0561281 0 0.000344229)
(0.0579435 0 0.000358239)
(0.0598971 0 0.000356899)
(0.061986 0 0.000338242)
(0.0641933 0 0.000302631)
(0.066486 0 0.000254817)
(0.0688128 0 0.000207483)
(0.0710986 0 0.000187903)
(0.0732176 0 0.000244941)
(0.0748991 0 0.00039065)
(0.00188736 0 -0.000707249)
(0.00346823 0 -0.000693876)
(0.00615514 0 -0.000657933)
(0.00949461 0 -0.000611466)
(0.0131438 0 -0.000561328)
(0.0168614 0 -0.000511585)
(0.0204819 0 -0.00046444)
(0.0238949 0 -0.000420885)
(0.0270292 0 -0.000381147)
(0.0298414 0 -0.000345114)
(0.0323076 0 -0.000312528)
(0.0344165 0 -0.000283084)
(0.0361639 0 -0.000256522)
(0.0375492 0 -0.000232584)
(0.0385724 0 -0.000210989)
(0.0392325 0 -0.000191457)
(0.0395268 0 -0.000173715)
(0.0394499 0 -0.00015751)
(0.0389937 0 -0.000142606)
(0.0381469 0 -0.000128786)
(0.0368944 0 -0.000115849)
(0.0352181 0 -0.000103601)
(0.033096 0 -9.18595e-05)
(0.0305029 0 -8.04409e-05)
(0.0274101 0 -6.91606e-05)
(0.0237858 0 -5.78252e-05)
(0.0195953 0 -4.62257e-05)
(0.0148014 0 -3.41288e-05)
(0.00936534 0 -2.12664e-05)
(0.00324327 0 -7.31113e-06)
(0.00376467 0 -0.0020755)
(0.00527638 0 -0.00203708)
(0.00782211 0 -0.00193503)
(0.0109895 0 -0.0018016)
(0.0144592 0 -0.00165673)
(0.0180036 0 -0.0015124)
(0.0214647 0 -0.00137515)
(0.0247347 0 -0.00124798)
(0.0277423 0 -0.00113158)
(0.0304437 0 -0.00102571)
(0.0328142 0 -0.000929733)
(0.0348409 0 -0.000842789)
(0.0365188 0 -0.000764228)
(0.0378456 0 -0.000693334)
(0.0388196 0 -0.00062931)
(0.0394384 0 -0.000571336)
(0.0396981 0 -0.000518621)
(0.0395923 0 -0.000470423)
(0.0391119 0 -0.000426056)
(0.0382448 0 -0.000384884)
(0.0369754 0 -0.000346311)
(0.0352849 0 -0.000309771)
(0.0331508 0 -0.000274717)
(0.0305476 0 -0.000240609)
(0.0274461 0 -0.000206898)
(0.0238143 0 -0.000173008)
(0.019617 0 -0.000138317)
(0.0148169 0 -0.000102128)
(0.0093748 0 -6.36414e-05)
(0.00324649 0 -2.18793e-05)
(0.0072418 0 -0.00332094)
(0.00867816 0 -0.00326227)
(0.0109895 0 -0.0031063)
(0.0138471 0 -0.00290045)
(0.0169846 0 -0.00267541)
(0.0202047 0 -0.00244984)
(0.0233649 0 -0.00223409)
(0.0263632 0 -0.00203313)
(0.029128 0 -0.00184796)
(0.0316163 0 -0.00167858)
(0.0338019 0 -0.00152426)
(0.0356696 0 -0.00138375)
(0.0372125 0 -0.0012564)
(0.0384254 0 -0.00114122)
(0.0393035 0 -0.00103696)
(0.0398417 0 -0.000942344)
(0.0400337 0 -0.000856133)
(0.0398712 0 -0.000777158)
(0.0393433 0 -0.000704332)
(0.0384363 0 -0.000636641)
(0.0371335 0 -0.000573128)
(0.0354149 0 -0.000512883)
(0.0332572 0 -0.000455019)
(0.030634 0 -0.000398656)
(0.0275155 0 -0.000342897)
(0.023869 0 -0.000286796)
(0.0196587 0 -0.00022933)
(0.0148466 0 -0.000169353)
(0.00939296 0 -0.000105543)
(0.0032527 0 -3.62859e-05)
(0.0120693 0 -0.004401)
(0.0133931 0 -0.00432172)
(0.0153941 0 -0.00412396)
(0.0178407 0 -0.00386415)
(0.020533 0 -0.00357907)
(0.0233136 0 -0.0032913)
(0.0260626 0 -0.00301396)
(0.0286864 0 -0.00275394)
(0.0311114 0 -0.00251171)
(0.0332997 0 -0.00228826)
(0.0352239 0 -0.0020833)
(0.0368649 0 -0.00189513)
(0.0382155 0 -0.00172395)
(0.0392658 0 -0.00156863)
(0.0400065 0 -0.00142759)
(0.0404287 0 -0.00129917)
(0.040523 0 -0.0011818)
(0.0402783 0 -0.00107397)
(0.0396813 0 -0.000974277)
(0.0387164 0 -0.000881392)
(0.0373649 0 -0.000794052)
(0.0356054 0 -0.000711042)
(0.0334133 0 -0.000631173)
(0.0307609 0 -0.000553253)
(0.0276174 0 -0.000476061)
(0.0239492 0 -0.000398307)
(0.0197198 0 -0.000318583)
(0.0148902 0 -0.000235312)
(0.00941961 0 -0.000146671)
(0.00326182 0 -5.04292e-05)
(0.017907 0 -0.00528022)
(0.0190763 0 -0.00518201)
(0.0207146 0 -0.00495687)
(0.0226891 0 -0.00466439)
(0.0248679 0 -0.00434251)
(0.027136 0 -0.0040146)
(0.0294014 0 -0.00369535)
(0.0315668 0 -0.00339114)
(0.0335786 0 -0.00310564)
(0.0354021 0 -0.00283977)
(0.0370071 0 -0.00259422)
(0.0383745 0 -0.00236788)
(0.0394868 0 -0.00215916)
(0.0403348 0 -0.00196911)
(0.0409033 0 -0.00179575)
(0.0411794 0 -0.00163722)
(0.0411501 0 -0.00149172)
(0.0408011 0 -0.00135755)
(0.0401163 0 -0.00123308)
(0.0390774 0 -0.00111676)
(0.0376636 0 -0.00100706)
(0.0358516 0 -0.000902538)
(0.0336151 0 -0.000801737)
(0.030925 0 -0.000703194)
(0.0277493 0 -0.000605397)
(0.0240532 0 -0.000506736)
(0.019799 0 -0.00040545)
(0.0149466 0 -0.000299555)
(0.00945407 0 -0.000186749)
(0.0032736 0 -6.42153e-05)
(0.0243845 0 -0.00593862)
(0.0253631 0 -0.00582667)
(0.026615 0 -0.00559147)
(0.0280971 0 -0.00528944)
(0.0297372 0 -0.00495488)
(0.031459 0 -0.00460896)
(0.0331899 0 -0.00426687)
(0.0348516 0 -0.00393557)
(0.0364106 0 -0.00362073)
(0.0378291 0 -0.00332466)
(0.0390776 0 -0.00304874)
(0.0401348 0 -0.00279343)
(0.0409776 0 -0.00255602)
(0.041594 0 -0.00233757)
(0.0419635 0 -0.0021371)
(0.0420697 0 -0.00195274)
(0.0418959 0 -0.00178268)
(0.0414244 0 -0.00162514)
(0.040636 0 -0.00147838)
(0.0395095 0 -0.00134069)
(0.0380217 0 -0.00121041)
(0.0361471 0 -0.00108588)
(0.0338576 0 -0.000965442)
(0.0311224 0 -0.00084741)
(0.027908 0 -0.000730016)
(0.0241783 0 -0.000611365)
(0.0198943 0 -0.000489372)
(0.0150145 0 -0.000361674)
(0.00949553 0 -0.000225528)
(0.00328777 0 -7.75587e-05)
(0.0311447 0 -0.00637149)
(0.0319101 0 -0.00625658)
(0.0327827 0 -0.00603189)
(0.0337887 0 -0.00574372)
(0.0349018 0 -0.00541912)
(0.0360762 0 -0.00507585)
(0.0372561 0 -0.00472762)
(0.0384124 0 -0.00438611)
(0.0395006 0 -0.00405598)
(0.0404922 0 -0.00374154)
(0.0413605 0 -0.00344535)
(0.0420802 0 -0.00316819)
(0.0426376 0 -0.00291046)
(0.043002 0 -0.00267051)
(0.0431534 0 -0.0024485)
(0.0430724 0 -0.00224294)
(0.0427386 0 -0.00205219)
(0.0421308 0 -0.00187454)
(0.0412265 0 -0.00170824)
(0.0400017 0 -0.00155152)
(0.0384305 0 -0.00140264)
(0.036485 0 -0.0012598)
(0.0341352 0 -0.00112121)
(0.0313486 0 -0.000984985)
(0.02809 0 -0.00084915)
(0.0243218 0 -0.000711565)
(0.0200036 0 -0.000569854)
(0.0150924 0 -0.000421312)
(0.00954302 0 -0.000262784)
(0.00330398 0 -9.03835e-05)
(0.0378749 0 -0.00659351)
(0.0384257 0 -0.00649226)
(0.0389555 0 -0.0062999)
(0.039531 0 -0.00604621)
(0.0401564 0 -0.00574964)
(0.0408125 0 -0.00542532)
(0.0414694 0 -0.00508626)
(0.0421181 0 -0.00474588)
(0.0427344 0 -0.00441212)
(0.0432956 0 -0.00408983)
(0.0437777 0 -0.003783)
(0.0441583 0 -0.0034931)
(0.0444153 0 -0.00322106)
(0.0445156 0 -0.00296605)
(0.0444378 0 -0.00272801)
(0.0441589 0 -0.00250594)
(0.0436552 0 -0.00229851)
(0.0429018 0 -0.00210416)
(0.041873 0 -0.00192122)
(0.040542 0 -0.00174796)
(0.0388802 0 -0.0015826)
(0.0368575 0 -0.0014233)
(0.0344418 0 -0.00126816)
(0.0315986 0 -0.00111516)
(0.0282913 0 -0.000962154)
(0.0244806 0 -0.000806803)
(0.0201245 0 -0.000646475)
(0.0151784 0 -0.000478158)
(0.0095955 0 -0.000298328)
(0.00332188 0 -0.000102623)
(0.0443233 0 -0.00664407)
(0.0446902 0 -0.00657588)
(0.0449394 0 -0.00643374)
(0.0451466 0 -0.00622742)
(0.0453362 0 -0.00596861)
(0.0455172 0 -0.00567199)
(0.0456911 0 -0.00535233)
(0.0458568 0 -0.00502282)
(0.0460189 0 -0.00469409)
(0.0461607 0 -0.00437263)
(0.0462629 0 -0.00406297)
(0.0463057 0 -0.00376795)
(0.0462573 0 -0.003488)
(0.0460911 0 -0.00322359)
(0.0457809 0 -0.0029747)
(0.0453004 0 -0.00274072)
(0.0446221 0 -0.00252057)
(0.0437182 0 -0.00231294)
(0.04256 0 -0.00211632)
(0.0411179 0 -0.00192906)
(0.0393608 0 -0.00174944)
(0.0372564 0 -0.0015756)
(0.0347706 0 -0.00140558)
(0.0318672 0 -0.00123731)
(0.0285077 0 -0.0010685)
(0.0246513 0 -0.00089664)
(0.0202544 0 -0.000718882)
(0.0152709 0 -0.000531952)
(0.00965184 0 -0.000331994)
(0.00334109 0 -0.000114222)
(0.0503288 0 -0.00659298)
(0.0505755 0 -0.00657074)
(0.0506167 0 -0.00648351)
(0.0505144 0 -0.00632365)
(0.0503152 0 -0.00610116)
(0.0500619 0 -0.00583285)
(0.0497878 0 -0.00553554)
(0.0495148 0 -0.00522329)
(0.049254 0 -0.00490682)
(0.0490007 0 -0.0045934)
(0.0487408 0 -0.00428798)
(0.0484537 0 -0.00399364)
(0.0481117 0 -0.00371185)
(0.0476863 0 -0.00344341)
(0.0471484 0 -0.00318855)
(0.0464684 0 -0.00294696)
(0.0456163 0 -0.00271791)
(0.0445613 0 -0.00250034)
(0.0432722 0 -0.00229294)
(0.0417168 0 -0.00209422)
(0.0398621 0 -0.00190255)
(0.0376735 0 -0.00171612)
(0.035115 0 -0.00153297)
(0.0321488 0 -0.00135098)
(0.0287348 0 -0.00116778)
(0.0248305 0 -0.000980719)
(0.0203908 0 -0.000786788)
(0.0153679 0 -0.000582479)
(0.00971087 0 -0.000363647)
(0.00336119 0 -0.000125133)
(0.0558665 0 -0.00653505)
(0.0560599 0 -0.00655079)
(0.0559386 0 -0.00649973)
(0.0555551 0 -0.00636769)
(0.054994 0 -0.00616876)
(0.0543393 0 -0.00592276)
(0.0536548 0 -0.00564696)
(0.0529809 0 -0.00535455)
(0.0523374 0 -0.00505514)
(0.0517258 0 -0.00475544)
(0.0511352 0 -0.00446015)
(0.0505457 0 -0.00417243)
(0.0499311 0 -0.00389419)
(0.0492619 0 -0.00362659)
(0.0485074 0 -0.00337018)
(0.0476361 0 -0.00312497)
(0.0466154 0 -0.00289057)
(0.0454127 0 -0.0026662)
(0.0439944 0 -0.00245082)
(0.0423265 0 -0.00224311)
(0.0403739 0 -0.00204157)
(0.0381004 0 -0.00184448)
(0.0354682 0 -0.00164994)
(0.032438 0 -0.0014558)
(0.0289681 0 -0.00125965)
(0.0250146 0 -0.00105876)
(0.0205309 0 -0.000849958)
(0.0154675 0 -0.00062956)
(0.00977139 0 -0.000393174)
(0.00338178 0 -0.000135316)
(0.0610514 0 -0.00655197)
(0.0612011 0 -0.00657109)
(0.060888 0 -0.00651322)
(0.0601991 0 -0.00637659)
(0.0592785 0 -0.00618268)
(0.0582497 0 -0.00595091)
(0.0571975 0 -0.00569496)
(0.0561714 0 -0.00542424)
(0.0551946 0 -0.00514559)
(0.0542708 0 -0.00486412)
(0.0533899 0 -0.00458378)
(0.0525326 0 -0.0043075)
(0.0516733 0 -0.00403738)
(0.0507824 0 -0.00377484)
(0.0498283 0 -0.00352076)
(0.0487783 0 -0.00327549)
(0.0475986 0 -0.00303897)
(0.0462548 0 -0.00281073)
(0.0447121 0 -0.00258997)
(0.0429348 0 -0.00237561)
(0.0408863 0 -0.00216631)
(0.0385288 0 -0.00196047)
(0.0358234 0 -0.00175624)
(0.0327292 0 -0.00155153)
(0.0292032 0 -0.00134389)
(0.0252001 0 -0.00113054)
(0.020672 0 -0.000908206)
(0.0155676 0 -0.000673051)
(0.00983219 0 -0.000420482)
(0.00340245 0 -0.000144739)
(0.0660437 0 -0.00666415)
(0.066037 0 -0.00663184)
(0.0654017 0 -0.00651367)
(0.0643408 0 -0.00634195)
(0.0630578 0 -0.0061406)
(0.0616923 0 -0.00592015)
(0.0603286 0 -0.00568526)
(0.0590119 0 -0.00543907)
(0.0577619 0 -0.00518468)
(0.0565804 0 -0.0049252)
(0.055457 0 -0.00466364)
(0.0543726 0 -0.00440262)
(0.0533021 0 -0.0041443)
(0.0522166 0 -0.00389034)
(0.0510844 0 -0.00364189)
(0.0498725 0 -0.00339965)
(0.0485466 0 -0.00316387)
(0.0470717 0 -0.00293437)
(0.0454118 0 -0.00271064)
(0.0435303 0 -0.00249182)
(0.0413896 0 -0.00227674)
(0.0389509 0 -0.00206396)
(0.036174 0 -0.00185173)
(0.0330169 0 -0.00163799)
(0.0294355 0 -0.00142032)
(0.0253835 0 -0.00119589)
(0.0208113 0 -0.000961386)
(0.0156663 0 -0.000712838)
(0.00989202 0 -0.000445497)
(0.00342275 0 -0.000153376)
(0.0708382 0 -0.00680129)
(0.0704087 0 -0.00665205)
(0.0692751 0 -0.00643981)
(0.067803 0 -0.00623105)
(0.0661972 0 -0.00603083)
(0.0645673 0 -0.00583038)
(0.0629723 0 -0.00562295)
(0.0614423 0 -0.00540586)
(0.0599893 0 -0.00517924)
(0.0586119 0 -0.0049448)
(0.0572991 0 -0.00470489)
(0.0560325 0 -0.00446197)
(0.0547882 0 -0.00421827)
(0.0535386 0 -0.00397564)
(0.052253 0 -0.00373551)
(0.050899 0 -0.00349888)
(0.0494425 0 -0.00326628)
(0.0478485 0 -0.00303783)
(0.0460808 0 -0.00281328)
(0.0441024 0 -0.002592)
(0.041875 0 -0.002373)
(0.039359 0 -0.00215501)
(0.0365136 0 -0.00193636)
(0.0332959 0 -0.00171509)
(0.0296609 0 -0.00148882)
(0.025561 0 -0.00125471)
(0.0209459 0 -0.00100939)
(0.0157615 0 -0.000748833)
(0.00994959 0 -0.000468158)
(0.00344226 0 -0.000161204)
(0.0748594 0 -0.00677088)
(0.073746 0 -0.00644967)
(0.0721158 0 -0.00619472)
(0.0703545 0 -0.00600791)
(0.0685643 0 -0.00584643)
(0.066795 0 -0.00568584)
(0.0650759 0 -0.00551578)
(0.0634235 0 -0.00533279)
(0.0618445 0 -0.0051368)
(0.0603368 0 -0.00492941)
(0.0588902 0 -0.00471298)
(0.0574883 0 -0.00449001)
(0.0561096 0 -0.00426285)
(0.0547283 0 -0.00403356)
(0.0533159 0 -0.00380381)
(0.0518414 0 -0.00357483)
(0.0502718 0 -0.00334744)
(0.0485726 0 -0.00312202)
(0.0467082 0 -0.00289853)
(0.0446414 0 -0.00267657)
(0.042334 0 -0.00245536)
(0.0397461 0 -0.00223374)
(0.0368362 0 -0.00201021)
(0.033561 0 -0.00178286)
(0.0298748 0 -0.00154937)
(0.0257294 0 -0.00130693)
(0.0210733 0 -0.00105216)
(0.0158512 0 -0.000780979)
(0.0100036 0 -0.000488425)
(0.00346049 0 -0.000168209)
(0.00331158 0 -1.38922e-05)
(0.00954008 0 -3.95662e-05)
(0.0150437 0 -6.09912e-05)
(0.0199027 0 -7.79299e-05)
(0.0241926 0 -9.02448e-05)
(0.0279811 0 -9.78452e-05)
(0.0313299 0 -0.000100674)
(0.0342952 0 -9.87082e-05)
(0.0369292 0 -9.19706e-05)
(0.0392803 0 -8.0549e-05)
(0.0413942 0 -6.4624e-05)
(0.0433141 0 -4.45048e-05)
(0.0450812 0 -2.06722e-05)
(0.0467348 0 6.17257e-06)
(0.0483127 0 3.50531e-05)
(0.0498508 0 6.46648e-05)
(0.0513833 0 9.33257e-05)
(0.0529419 0 0.000118939)
(0.0545552 0 0.000138983)
(0.0562478 0 0.000150551)
(0.0580385 0 0.000150463)
(0.0599393 0 0.000135465)
(0.061953 0 0.000102529)
(0.0640716 0 4.92406e-05)
(0.0662745 0 -2.59718e-05)
(0.0685273 0 -0.000124231)
(0.0707805 0 -0.00024928)
(0.0729667 0 -0.000417304)
(0.0750081 0 -0.00068655)
(0.0768164 0 -0.00120439)
(0.00333716 0 -1.57847e-05)
(0.00961601 0 -4.50889e-05)
(0.0151697 0 -6.99208e-05)
(0.0200807 0 -9.01802e-05)
(0.024426 0 -0.000105854)
(0.0282747 0 -0.000116969)
(0.0316889 0 -0.000123589)
(0.0347256 0 -0.000125817)
(0.0374371 0 -0.000123814)
(0.0398722 0 -0.000117821)
(0.0420762 0 -0.000108187)
(0.044092 0 -9.54042e-05)
(0.04596 0 -8.0149e-05)
(0.0477187 0 -6.33276e-05)
(0.049404 0 -4.61204e-05)
(0.0510499 0 -3.00226e-05)
(0.0526876 0 -1.68722e-05)
(0.0543452 0 -8.87009e-06)
(0.056047 0 -8.57455e-06)
(0.0578122 0 -1.88518e-05)
(0.059654 0 -4.27664e-05)
(0.0615776 0 -8.34724e-05)
(0.0635792 0 -0.000144101)
(0.0656437 0 -0.000227718)
(0.0677438 0 -0.000337858)
(0.069838 0 -0.000479617)
(0.071871 0 -0.000664163)
(0.0737716 0 -0.000912853)
(0.0754354 0 -0.00126353)
(0.0767676 0 -0.00178479)
(0.00336142 0 -1.77958e-05)
(0.00968823 0 -5.09643e-05)
(0.01529 0 -7.94374e-05)
(0.0202511 0 -0.000103264)
(0.02465 0 -0.000122565)
(0.0285563 0 -0.000137489)
(0.0320331 0 -0.000148221)
(0.0351374 0 -0.000154992)
(0.0379217 0 -0.000158095)
(0.0404344 0 -0.000157911)
(0.0427205 0 -0.00015494)
(0.0448223 0 -0.000149828)
(0.0467789 0 -0.000143413)
(0.0486271 0 -0.000136753)
(0.0504012 0 -0.00013117)
(0.0521324 0 -0.000128277)
(0.0538486 0 -0.000129975)
(0.055574 0 -0.000138469)
(0.0573283 0 -0.000156257)
(0.0591256 0 -0.000186093)
(0.0609732 0 -0.000230852)
(0.0628704 0 -0.000293538)
(0.0648075 0 -0.000377352)
(0.0667642 0 -0.000485628)
(0.0687093 0 -0.000623187)
(0.070602 0 -0.000796373)
(0.0723803 0 -0.00101463)
(0.0739673 0 -0.00129216)
(0.0752889 0 -0.00165145)
(0.0762795 0 -0.0021429)
(0.00338378 0 -1.99114e-05)
(0.00975517 0 -5.71507e-05)
(0.0154022 0 -8.94726e-05)
(0.0204107 0 -0.000117085)
(0.0248603 0 -0.000140246)
(0.0288213 0 -0.000159231)
(0.0323569 0 -0.000174347)
(0.0355243 0 -0.000185944)
(0.0383756 0 -0.000194439)
(0.040959 0 -0.00020034)
(0.0433188 0 -0.000204272)
(0.0454958 0 -0.000207011)
(0.047528 0 -0.000209509)
(0.0494504 0 -0.000212927)
(0.0512949 0 -0.000218668)
(0.0530901 0 -0.000228402)
(0.0548602 0 -0.000244012)
(0.0566255 0 -0.000267622)
(0.0584016 0 -0.000301587)
(0.0601981 0 -0.000348526)
(0.062017 0 -0.000411032)
(0.0638533 0 -0.000491827)
(0.0656939 0 -0.00059425)
(0.0675186 0 -0.000721691)
(0.0692924 0 -0.000878063)
(0.0709681 0 -0.00106819)
(0.0724938 0 -0.001298)
(0.0738147 0 -0.00157791)
(0.0748782 0 -0.0019235)
(0.0756313 0 -0.00236018)
(0.0034037 0 -2.21131e-05)
(0.00981528 0 -6.35948e-05)
(0.0155038 0 -9.99395e-05)
(0.0205564 0 -0.00013152)
(0.0250532 0 -0.000158734)
(0.029065 0 -0.000181985)
(0.032655 0 -0.000201695)
(0.0358802 0 -0.000218329)
(0.0387925 0 -0.000232414)
(0.041439 0 -0.000244566)
(0.0438632 0 -0.000255515)
(0.0461046 0 -0.000266129)
(0.0481995 0 -0.000277438)
(0.0501808 0 -0.000290655)
(0.0520783 0 -0.000307198)
(0.053918 0 -0.000328771)
(0.0557203 0 -0.000357159)
(0.0575017 0 -0.00039433)
(0.0592746 0 -0.000442382)
(0.0610458 0 -0.00050394)
(0.0628117 0 -0.000581158)
(0.0645682 0 -0.000676675)
(0.0662986 0 -0.000793067)
(0.0679766 0 -0.000932962)
(0.0695702 0 -0.00109878)
(0.0710423 0 -0.00129433)
(0.0723527 0 -0.00152406)
(0.0734614 0 -0.00179436)
(0.0743312 0 -0.00211347)
(0.0749258 0 -0.00248949)
(0.00342064 0 -2.43786e-05)
(0.00986704 0 -7.02318e-05)
(0.0155925 0 -0.000110732)
(0.020685 0 -0.000146419)
(0.0252248 0 -0.000177832)
(0.0292829 0 -0.000205497)
(0.0329223 0 -0.000229948)
(0.0361997 0 -0.000251752)
(0.039166 0 -0.000271533)
(0.0418678 0 -0.000289995)
(0.0443471 0 -0.000307946)
(0.046642 0 -0.00032632)
(0.0487871 0 -0.000346186)
(0.0508128 0 -0.000368757)
(0.0527472 0 -0.000395376)
(0.0546144 0 -0.000427848)
(0.0564306 0 -0.000467759)
(0.0582085 0 -0.000516889)
(0.0599611 0 -0.000577304)
(0.0616906 0 -0.000651013)
(0.0633898 0 -0.000739889)
(0.0650516 0 -0.000846103)
(0.0666588 0 -0.000971215)
(0.0681894 0 -0.00111732)
(0.0696168 0 -0.0012864)
(0.0709115 0 -0.00148082)
(0.0720435 0 -0.0017033)
(0.0729845 0 -0.00195698)
(0.0737093 0 -0.00224456)
(0.0741966 0 -0.00256562)
(0.0034341 0 -2.66818e-05)
(0.00990903 0 -7.69849e-05)
(0.0156662 0 -0.000121725)
(0.0207936 0 -0.000161608)
(0.0253716 0 -0.000197313)
(0.029471 0 -0.000229481)
(0.0331543 0 -0.000258749)
(0.0364775 0 -0.000285775)
(0.0394909 0 -0.000311264)
(0.0422398 0 -0.000335988)
(0.044765 0 -0.00036081)
(0.047103 0 -0.000386699)
(0.0492864 0 -0.000414737)
(0.0513428 0 -0.000446119)
(0.0533017 0 -0.000482263)
(0.055183 0 -0.000524642)
(0.0569984 0 -0.000574726)
(0.0587603 0 -0.000634181)
(0.0604772 0 -0.000704802)
(0.0621482 0 -0.000787891)
(0.0637687 0 -0.000885128)
(0.0653295 0 -0.000998068)
(0.066816 0 -0.00112802)
(0.0682098 0 -0.00127633)
(0.0694895 0 -0.00144426)
(0.070633 0 -0.00163309)
(0.0716187 0 -0.001844)
(0.0724271 0 -0.00207776)
(0.0730426 0 -0.00233386)
(0.0734541 0 -0.00260874)
(0.00344366 0 -2.90024e-05)
(0.00994009 0 -8.37963e-05)
(0.0157229 0 -0.000132826)
(0.0208799 0 -0.000176961)
(0.025491 0 -0.00021701)