/*--------------------------------*- C++ -*----------------------------------*\
| =========                 |                                                 |
| \\      /  F ield         | OpenFOAM: The Open Source CFD Toolbox           |
|  \\    /   O peration     | Version:  4.1                                   |
|   \\  /    A nd           | Web:      www.OpenFOAM.org                      |
|    \\/     M anipulation  |                                                 |
\*---------------------------------------------------------------------------*/
FoamFile
{
    version     2.0;
    format      ascii;
    class       surfaceScalarField;
    location    "4.1";
    object      phi;
}
// * * * * * * * * * * * * * * * * * * * * * * * * * * * * * * * * * * * * * //

dimensions      [0 3 -1 0 0 0 0];

internalField   nonuniform List<scalar> 
5457
(
0.198456
0.00158391
0.196583
0.00190843
0.194378
0.00223345
0.191798
0.00260419
0.188843
0.00297302
0.185521
0.00333597
0.181829
0.00370178
0.177756
0.00407791
0.173289
0.00446937
0.168408
0.00488005
0.163091
0.00531329
0.157313
0.00577204
0.151047
0.00625871
0.144264
0.00677494
0.136934
0.00732127
0.12903
0.00789654
0.120526
0.00849722
0.111403
0.00911673
0.101653
0.00974474
0.0912797
0.0103664
0.0803112
0.0109608
0.0688021
0.0114999
0.0568441
0.0119474
0.0445754
0.0122579
0.0321896
0.0123769
0.0199355
0.0122501
0.00806627
0.0118737
-0.00229034
0.0103728
-0.00512839
0.00286411
-0.00505834
0.200069
0.00155546
0.199441
0.00257114
0.198362
0.00334182
0.196872
0.0041175
0.194971
0.00489175
0.192663
0.00565865
0.189943
0.00643113
0.186803
0.00722291
0.183231
0.00804418
0.179207
0.00890301
0.17471
0.00980642
0.169715
0.0107607
0.164196
0.0117711
0.158121
0.0128415
0.15146
0.0139738
0.144182
0.0151666
0.136258
0.0164141
0.127665
0.0177046
0.118386
0.0190185
0.108419
0.0203273
0.0977828
0.0215904
0.0865227
0.0227514
0.0747235
0.023736
0.062523
0.0244469
0.0501366
0.0247528
0.0379223
0.0244574
0.0266137
0.0231822
0.0171785
0.0198195
0.00685136
0.0132202
0.00181379
0.19992
0.00167582
0.199354
0.00317145
0.198345
0.00438023
0.196951
0.00553476
0.195183
0.00667803
0.193042
0.00781349
0.190527
0.00895631
0.187631
0.0101247
0.184343
0.0113336
0.18065
0.0125952
0.176533
0.0139202
0.17197
0.0153183
0.166935
0.016798
0.161403
0.0183659
0.155342
0.0200263
0.148721
0.0217793
0.14151
0.0236193
0.133678
0.0255325
0.125199
0.0274945
0.116054
0.0294676
0.106243
0.031397
0.0957834
0.0332044
0.0847259
0.0347835
0.0731674
0.0359932
0.0612685
0.0366398
0.0492711
0.0364451
0.0374623
0.0349867
0.0257395
0.0315517
0.0135242
0.0254805
0.0153119
0.199837
0.00187918
0.199269
0.00377369
0.198277
0.00540117
0.196905
0.00693071
0.19517
0.00843177
0.193075
0.00992236
0.19062
0.0114209
0.187802
0.0129488
0.184613
0.0145247
0.181043
0.0161644
0.177078
0.0178815
0.172703
0.0196886
0.167897
0.0215968
0.16264
0.0236152
0.156907
0.0257506
0.150674
0.0280049
0.143913
0.0303744
0.136597
0.032847
0.128697
0.0353966
0.120181
0.0379816
0.111036
0.0405408
0.101255
0.0429853
0.0908394
0.0451913
0.0798275
0.0469936
0.0682801
0.0481769
0.0562561
0.0484602
0.0437525
0.047485
0.0305535
0.0447565
0.016156
0.0399189
0.0314085
0.199795
0.00212387
0.199217
0.00438662
0.19824
0.00640664
0.196892
0.00830306
0.195189
0.0101533
0.193137
0.0119888
0.190735
0.0138329
0.187981
0.0157095
0.184867
0.0176404
0.181387
0.0196441
0.177529
0.021737
0.173279
0.0239338
0.168622
0.0262477
0.16354
0.0286898
0.158014
0.0312685
0.152024
0.0339875
0.145547
0.0368454
0.13856
0.0398328
0.131035
0.0429255
0.122933
0.0460833
0.114229
0.0492455
0.104898
0.0523217
0.094901
0.0551875
0.0842121
0.0576755
0.0728105
0.0595741
0.0606364
0.060632
0.047563
0.0605579
0.0333353
0.0589864
0.0174976
0.0557679
0.0488671
0.199775
0.00238856
0.199191
0.00500477
0.198233
0.00739352
0.196915
0.0096446
0.195254
0.0118346
0.193253
0.0140047
0.190912
0.0161839
0.188229
0.0183987
0.185199
0.0206735
0.181812
0.0230293
0.178062
0.025485
0.173935
0.0280579
0.169415
0.0307623
0.164486
0.0336115
0.159133
0.0366152
0.153335
0.0397786
0.14707
0.0431028
0.140316
0.0465816
0.133046
0.0501956
0.125222
0.0539107
0.116796
0.0576727
0.107729
0.0613975
0.0979584
0.0649706
0.087402
0.0682395
0.0759777
0.0710054
0.0635727
0.0730469
0.0500059
0.0741356
0.0350153
0.0739836
0.0182785
0.0724935
0.0671679
0.199766
0.00266126
0.199185
0.0056203
0.198249
0.00835797
0.196969
0.0109494
0.195356
0.0134679
0.193415
0.0159613
0.191146
0.0184638
0.188546
0.0210049
0.18561
0.0236117
0.182332
0.0263074
0.178704
0.0291134
0.174711
0.032049
0.170337
0.0351304
0.16557
0.0383726
0.160391
0.0417874
0.154781
0.0453828
0.148715
0.049163
0.142164
0.0531255
0.135102
0.0572583
0.127486
0.0615359
0.119252
0.0659143
0.110339
0.0703241
0.100667
0.0746686
0.0901154
0.0788165
0.078549
0.0825926
0.06583
0.0857882
0.0517764
0.0882112
0.0361467
0.0896252
0.0187771
0.0898389
0.0859877
0.199765
0.00293465
0.199193
0.00622609
0.198284
0.00929538
0.197046
0.0122117
0.19549
0.0150459
0.193617
0.0178496
0.19143
0.0206624
0.188925
0.0235168
0.186098
0.026442
0.182943
0.0294643
0.179451
0.0326068
0.175608
0.0358902
0.171399
0.0393338
0.166812
0.0429548
0.161825
0.0467682
0.156418
0.0507858
0.150562
0.0550156
0.144224
0.059461
0.137368
0.064119
0.129942
0.0689757
0.121871
0.0740003
0.113072
0.0791436
0.103439
0.0843327
0.0928261
0.0894612
0.0810641
0.0943831
0.0679766
0.0989027
0.0533989
0.102812
0.037143
0.105888
0.0192258
0.107719
0.105223
0.199769
0.00320394
0.199212
0.00681617
0.198334
0.0102008
0.197145
0.0134262
0.195652
0.0165615
0.193857
0.0196614
0.191761
0.0227699
0.189362
0.0259231
0.186656
0.0291518
0.183639
0.032485
0.180299
0.0359477
0.176623
0.0395626
0.172599
0.0433524
0.168212
0.0473373
0.163441
0.0515356
0.15826
0.055964
0.152638
0.060636
0.14654
0.0655618
0.139916
0.0707508
0.132703
0.0762035
0.124815
0.0819071
0.116146
0.087837
0.106561
0.093947
0.0958899
0.100162
0.0839358
0.106364
0.0704825
0.112377
0.0553505
0.117955
0.0383964
0.122832
0.0198042
0.126263
0.125001
0.199776
0.00346579
0.199239
0.00738567
0.198397
0.0110696
0.197261
0.0145872
0.195839
0.0180078
0.194131
0.0213886
0.192134
0.0247775
0.189851
0.0282134
0.187278
0.0317291
0.184411
0.0353554
0.181239
0.0391201
0.17775
0.0430483
0.173932
0.0471658
0.169769
0.0514963
0.165239
0.0560624
0.160315
0.0608863
0.154964
0.0659886
0.149142
0.0713888
0.142794
0.0771082
0.135849
0.0831635
0.128207
0.0895686
0.119738
0.0963293
0.110281
0.10343
0.0996348
0.110832
0.0875602
0.118458
0.0737969
0.126149
0.0581143
0.13363
0.0403613
0.140553
0.0208222
0.14574
0.145758
0.199785
0.00371768
0.199272
0.00793063
0.19847
0.011897
0.197393
0.0156894
0.196051
0.0193787
0.194435
0.0230244
0.192545
0.0266772
0.190387
0.0303782
0.187959
0.0341625
0.185254
0.0380627
0.182266
0.0421086
0.178983
0.0463292
0.175393
0.0507526
0.171479
0.0554065
0.167221
0.0603186
0.16259
0.0655166
0.157551
0.0710297
0.152056
0.0768894
0.146047
0.0831272
0.139447
0.0897777
0.132149
0.0968848
0.124005
0.104493
0.114826
0.112628
0.104376
0.121298
0.0923626
0.130479
0.0784458
0.14006
0.0622886
0.149762
0.0436497
0.159139
0.0227974
0.166512
0.168503
0.199797
0.00395762
0.199311
0.00844761
0.198552
0.012679
0.19754
0.0167281
0.196284
0.020669
0.194766
0.0245628
0.19299
0.0284613
0.190967
0.0324082
0.188693
0.0364409
0.186165
0.0405934
0.183376
0.0448983
0.180315
0.0493882
0.176972
0.0540932
0.173331
0.0590446
0.169373
0.0642749
0.165072
0.0698177
0.160393
0.0757109
0.15529
0.0819975
0.149703
0.0887226
0.14355
0.0959431
0.136725
0.103725
0.129077
0.112156
0.1204
0.121318
0.110428
0.131276
0.0988073
0.142094
0.0850861
0.15376
0.0687277
0.166078
0.0492266
0.17857
0.026505
0.189133
0.194965
0.199811
0.00418386
0.199356
0.00893333
0.198647
0.0134117
0.197704
0.0176994
0.196533
0.0218741
0.195117
0.0259974
0.193464
0.0301222
0.191584
0.0342946
0.189476
0.0385538
0.187136
0.042936
0.184559
0.0474769
0.181735
0.0522104
0.178657
0.0571691
0.175312
0.0623874
0.171684
0.0679018
0.167749
0.0737519
0.163478
0.0799832
0.158832
0.0866476
0.153755
0.0938058
0.148173
0.101535
0.141981
0.109928
0.13504
0.119105
0.127162
0.129199
0.118073
0.140361
0.10738
0.152769
0.0945206
0.166585
0.0786823
0.181857
0.0588167
0.198351
0.0338087
0.214033
0.228691
0.199826
0.00439502
0.199406
0.00938511
0.198751
0.0140921
0.197879
0.0186001
0.196793
0.0229895
0.195485
0.0273225
0.193963
0.031653
0.192235
0.0360294
0.190302
0.0404929
0.188159
0.0450817
0.185804
0.0498331
0.183232
0.0547818
0.180437
0.0599624
0.17741
0.0654121
0.174139
0.0711708
0.170607
0.0772826
0.166793
0.0837984
0.162665
0.0907776
0.158182
0.0982922
0.15329
0.106432
0.147902
0.11532
0.141913
0.125094
0.135186
0.135921
0.127491
0.14804
0.11848
0.161751
0.107588
0.177431
0.0938322
0.195545
0.0755025
0.216596
0.0492506
0.240192
0.27785
0.199842
0.00458989
0.199459
0.00980102
0.19886
0.0147176
0.198061
0.019427
0.197064
0.0240111
0.19587
0.0285334
0.194485
0.0330488
0.192914
0.0376076
0.19116
0.0422528
0.189221
0.0470236
0.187098
0.0519578
0.184788
0.0570909
0.182289
0.0624592
0.179597
0.0681019
0.176705
0.0740602
0.173605
0.0803811
0.170284
0.0871184
0.166725
0.0943357
0.162908
0.10211
0.1588
0.11054
0.154361
0.119757
0.149551
0.129897
0.144307
0.141149
0.138526
0.153796
0.132043
0.168196
0.124558
0.184864
0.115444
0.204591
0.103116
0.228854
0.0820462
0.26121
0.359754
0.00304173
-0.0029463
0.00681404
-0.00367429
0.0103964
-0.00348787
0.0134413
-0.00296282
0.0158504
-0.00234823
0.0176153
-0.00172886
0.0187608
-0.00113329
0.0193401
-0.000585807
0.0194441
-0.000122113
0.0191658
0.000253582
0.0186168
0.000520942
0.0178946
0.000694225
0.0170827
0.000786688
0.0162516
0.000809362
0.0154564
0.000775481
0.0147416
0.0006954
0.0141474
0.000573837
0.0137113
0.000414687
0.0134632
0.000226307
0.0134154
2.59175e-05
0.013554
-0.000161333
0.013831
-0.000300963
0.0141813
-0.000375928
0.0145523
-0.000398719
0.0149288
-0.00040665
0.015332
-0.000431325
0.0157972
-0.000486418
0.0163533
-0.000573306
0.0169889
-0.000653176
-0.000648305
0.00348434
-0.00636449
0.00710674
-0.00723708
0.0104588
-0.00676757
0.0133665
-0.00580516
0.0157695
-0.00470424
0.0176622
-0.00359678
0.0190613
-0.00252948
0.0200056
-0.00154358
0.0205424
-0.000680989
0.0207509
1.84198e-05
0.0206364
0.000605998
0.0203093
0.000992114
0.0198559
0.0012151
0.0193478
0.00129645
0.0188406
0.00126392
0.0183797
0.00113709
0.0180089
0.000924135
0.0177676
0.000634047
0.0176843
0.000287781
0.0177589
-7.03086e-05
0.0179509
-0.000375902
0.0181936
-0.000567479
0.0184119
-0.000619546
0.0185741
-0.000588647
0.0186783
-0.000542069
0.0187499
-0.000532298
0.0188283
-0.000584248
0.0189563
-0.000716473
0.0191752
-0.000889059
-0.000998516
0.00325621
-0.00956625
0.00639451
-0.0103566
0.00919339
-0.00952466
0.0115793
-0.00815253
0.0135535
-0.00665555
0.015127
-0.00516469
0.0163041
-0.00372014
0.0171129
-0.00237876
0.0176224
-0.00121853
0.0178597
-0.000247652
0.017865
0.000568525
0.0176827
0.00114281
0.0174016
0.00147186
0.0170791
0.0016001
0.0167484
0.00157762
0.0164307
0.00143609
0.0161486
0.00118517
0.0159193
0.000840324
0.0157509
0.00043404
0.0156364
2.40795e-05
0.0155374
-0.000296982
0.0154137
-0.000465077
0.0152076
-0.000436186
0.0149103
-0.00031651
0.0145411
-0.000202988
0.0141562
-0.000175932
0.0138
-0.000244916
0.0135145
-0.000443547
0.0133618
-0.000752297
-0.00114963
0.00278129
-0.0122606
0.00530578
-0.012868
0.00739686
-0.0115985
0.0091074
-0.0098526
0.0105019
-0.00805556
0.0116127
-0.00629525
0.0124434
-0.00458298
0.0130034
-0.00297611
0.0133507
-0.00159718
0.0135224
-0.000449156
0.0134565
0.000600606
0.0132349
0.00133317
0.0129486
0.0017365
0.012634
0.00189873
0.0122902
0.001908
0.0118984
0.00181308
0.0114316
0.00163378
0.0108478
0.00140315
0.0101007
0.00116151
0.00917742
0.000931598
0.00814868
0.000717595
0.00713569
0.000532664
0.00627966
0.000403025
0.0056309
0.00031288
0.00517792
0.000226394
0.00490775
7.10444e-05
0.00479672
-0.000149223
0.00483661
-0.000495786
0.0050092
-0.000940604
-0.00133698
0.00215862
-0.0144365
0.00390647
-0.0145963
0.00512648
-0.0128237
0.00601143
-0.0107561
0.00667866
-0.00875731
0.00717873
-0.00684191
0.0075294
-0.00497962
0.00777739
-0.00326279
0.00797874
-0.00183016
0.00786676
-0.000369982
0.00753147
0.000903376
0.00710503
0.00173493
0.00661375
0.00220975
0.00605232
0.0024441
0.00541035
0.00253655
0.00466679
0.00254584
0.0038234
0.00246524
0.00291689
0.00229645
0.00199885
0.00206854
0.00112872
0.00179366
0.000348003
0.00149072
-0.000318376
0.00119009
-0.000861468
0.00093526
-0.00128703
0.000724893
-0.00160417
0.00052681
-0.00184438
0.000293916
-0.00200675
-1.13763e-06
-0.00213207
-0.000383666
-0.00224522
-0.000843441
-0.0013016
0.00133368
-0.0158604
0.00214801
-0.0154052
0.00236712
-0.0130767
0.00228553
-0.0107284
0.002058
-0.00859042
0.00175886
-0.00660353
0.00147473
-0.00474741
0.00114995
-0.00297616
0.000407264
-0.00112136
-0.000298628
0.000299863
-0.000714402
0.0012891
-0.00111677
0.00211861
-0.00157022
0.00264683
-0.00209104
0.0029459
-0.00266891
0.00309415
-0.00326839
0.00312847
-0.00386811
0.0030511
-0.00445
0.00286769
-0.00499461
0.00260778
-0.00550197
0.00229919
-0.00598496
0.00197137
-0.00645447
0.00165529
-0.00690358
0.00137777
-0.0073238
0.00113554
-0.00770958
0.000900105
-0.00806044
0.00063101
-0.00836758
0.000292907
-0.00862715
-0.000137421
-0.00882861
-0.00065803
-0.00113484
0.0004822
-0.0164447
8.50711e-05
-0.0150347
-0.000823096
-0.0122337
-0.00196935
-0.00966691
-0.00323123
-0.00740641
-0.00451988
-0.00537811
-0.00576784
-0.00355316
-0.00689293
-0.00189253
-0.00767345
-0.000377312
-0.00817085
0.000762879
-0.00859485
0.0016868
-0.00892501
0.00243186
-0.00922993
0.0029362
-0.00953534
0.0032325
-0.00983733
0.00337249
-0.0101233
0.00339018
-0.0103929
0.0032991
-0.0106594
0.00311642
-0.0109354
0.00287234
-0.011237
0.00259542
-0.0115786
0.00231035
-0.0119639
0.00203741
-0.0123809
0.00178957
-0.0128142
0.00156051
-0.0132491
0.00132391
-0.0136716
0.00104086
-0.0140584
0.000666702
-0.0143831
0.000173386
-0.0146558
-0.000401472
-0.0008587
-0.000617791
-0.0158843
-0.00226493
-0.0134569
-0.00428618
-0.0103042
-0.00641672
-0.00763402
-0.00849212
-0.00541465
-0.0103665
-0.00356886
-0.0119614
-0.00201186
-0.0132365
-0.000660341
-0.014134
0.000483705
-0.0147755
0.00137439
-0.0152123
0.00210268
-0.0154856
0.0026903
-0.0156588
0.00309584
-0.0157713
0.00332951
-0.0158436
0.00342533
-0.0158898
0.00341507
-0.0159328
0.00332135
-0.0160042
0.00316665
-0.0161264
0.00297571
-0.0163135
0.00276858
-0.0165735
0.00256023
-0.0169045
0.00236156
-0.017299
0.00217726
-0.0177458
0.00199729
-0.0182262
0.00179198
-0.0187133
0.00151431
-0.0191702
0.00110922
-0.0195644
0.000552434
-0.0199071
-7.56751e-05
-0.000525727
-0.00189114
-0.0141153
-0.00467729
-0.0107744
-0.00766283
-0.00742553
-0.0105436
-0.0048509
-0.0131361
-0.00290241
-0.015357
-0.00141071
-0.0171938
-0.000224414
-0.018593
0.000699263
-0.0195681
0.00142366
-0.0202356
0.00201687
-0.020665
0.00251842
-0.0208986
0.00291253
-0.0209898
0.00317629
-0.0209838
0.00331163
-0.0209152
0.00334268
-0.020816
0.00330063
-0.0207216
0.00321252
-0.0206721
0.00309977
-0.0206932
0.00297856
-0.0207994
0.00285881
-0.0210024
0.00274727
-0.0213003
0.00264819
-0.0216909
0.0025591
-0.0221675
0.00246238
-0.0227062
0.00231711
-0.023268
0.00206145
-0.0238045
0.00163024
-0.0242769
0.00100858
-0.0246847
0.000314583
-0.000147417
-0.00321937
-0.0109416
-0.00716171
-0.0069447
-0.0110473
-0.00364508
-0.0145589
-0.0014274
-0.0175846
5.45426e-05
-0.0200038
0.000956133
-0.0218377
0.00156943
-0.0231809
0.00201078
-0.0241565
0.00236938
-0.0248307
0.00267128
-0.0252427
0.00292248
-0.0254477
0.00310969
-0.0254931
0.00321366
-0.0254207
0.00323055
-0.0252689
0.00318081
-0.0250784
0.00309891
-0.0248927
0.00301577
-0.024756
0.00294972
-0.0246997
0.00290752
-0.0247438
0.00288951
-0.0249068
0.00289494
-0.0251934
0.00292148
-0.025603
0.00295833
-0.0261287
0.00297579
-0.0267407
0.00291524
-0.0273897
0.00269528
-0.0280152
0.0022399
-0.0285717
0.00154825
-0.0290581
0.000783132
0.000291371
-0.00472753
-0.0063014
-0.0101499
-0.00162823
-0.0149958
0.0011139
-0.0189163
0.00242595
-0.0219105
0.00299858
-0.0241859
0.00319436
-0.0259128
0.00326875
-0.0272149
0.00329281
-0.0281592
0.00329737
-0.0287981
0.00329629
-0.02918
0.00329522
-0.0293557
0.00327929
-0.0293684
0.00322058
-0.0292506
0.00310677
-0.0290372
0.00296033
-0.0287732
0.00282671
-0.0285111
0.00274451
-0.028301
0.00272873
-0.0281817
0.00277593
-0.0281805
0.00287635
-0.0283204
0.00302142
-0.0286135
0.00320139
-0.0290619
0.00339499
-0.029655
0.00355598
-0.0303579
0.00360386
-0.0311116
0.00343347
-0.0318452
0.00295721
-0.0325032
0.00218915
-0.0330754
0.0013371
0.000791456
-0.00710221
0.000726905
-0.0137902
0.00498252
-0.0189815
0.00625122
-0.0228862
0.00629298
-0.0258198
0.0059041
-0.0280251
0.00537936
-0.0296645
0.00489387
-0.0308739
0.00449364
-0.0317312
0.00415221
-0.0322956
0.00385406
-0.0326222
0.0036117
-0.0327569
0.00340917
-0.0327355
0.00319568
-0.0325745
0.00294217
-0.0322989
0.00268017
-0.0319582
0.00248012
-0.0316172
0.00239629
-0.0313363
0.00243892
-0.0311618
0.00259107
-0.0311279
0.00283118
-0.0312608
0.00314184
-0.0315772
0.00350523
-0.0320826
0.0038881
-0.0327638
0.00422395
-0.0335803
0.00440572
-0.0344636
0.00430097
-0.0353299
0.00380697
-0.0361081
0.00294998
-0.0367718
0.00198232
0.00135501
-0.00932656
0.0100103
-0.0173327
0.0129597
-0.0230608
0.0119645
-0.0270184
0.0102429
-0.0297955
0.00867491
-0.0317733
0.00735283
-0.0331892
0.00630769
-0.034226
0.00553081
-0.0349574
0.00488749
-0.0354124
0.00430895
-0.0356473
0.00384221
-0.0357231
0.00348323
-0.0356636
0.00313519
-0.0354556
0.00273287
-0.0351053
0.00232745
-0.0346701
0.0020411
-0.0342369
0.0019576
-0.0338803
0.00207508
-0.0336531
0.00235507
-0.0335941
0.002762
-0.0337326
0.00326877
-0.0340883
0.00384875
-0.0346687
0.00445608
-0.0354599
0.00500189
-0.0364166
0.00534762
-0.0374596
0.0053279
-0.0384896
0.00482014
-0.0394145
0.00385735
-0.0401872
0.00273633
0.00199141
-0.0120371
0.0220812
-0.0222385
0.0231708
-0.0281819
0.0179223
-0.031627
0.0137017
-0.0338989
0.0109574
-0.0354666
0.00892929
-0.0365006
0.00734953
-0.0372831
0.00632092
-0.0378661
0.00547796
-0.0381844
0.0046324
-0.0382869
0.00394697
-0.0382861
0.00348437
-0.0381942
0.00304503
-0.0379403
0.00247977
-0.0374944
0.00188107
-0.0369316
0.00147622
-0.036382
0.00140404
-0.0359388
0.00162607
-0.0356567
0.00206545
-0.035576
0.00267208
-0.035728
0.00341013
-0.0361341
0.00424318
-0.036803
0.00511271
-0.0377217
0.00590734
-0.0388417
0.00645286
-0.0400732
0.00654329
-0.0412987
0.00602862
-0.0424001
0.00494099
-0.0433036
0.00362111
0.00271124
-0.0162985
0.0384834
-0.0295132
0.0363953
-0.0350442
0.0234733
-0.0368993
0.0155783
-0.0381692
0.0122467
-0.039136
0.00991308
-0.0395254
0.00775372
-0.03997
0.00677863
-0.0404543
0.00597373
-0.0406511
0.00483835
-0.0405516
0.00385434
-0.0404477
0.00338572
-0.0403528
0.00295418
-0.0400698
0.00219946
-0.0394975
0.00130991
-0.0387485
0.000726506
-0.0380459
0.000698777
-0.037502
0.00107756
-0.0371603
0.00171714
-0.0370583
0.00256182
-0.0372298
0.00357175
-0.0376965
0.00469867
-0.0384676
0.0058717
-0.0395327
0.00695931
-0.0408427
0.00774825
-0.0422986
0.0079831
-0.04376
0.00747302
-0.0450769
0.00623998
-0.0461427
0.0046681
0.00353267
0.207513
0.00477502
0.207154
0.010194
0.206594
0.015307
0.205844
0.020204
0.204911
0.0249679
0.203797
0.0296639
0.20251
0.0343484
0.201054
0.0390722
0.199433
0.0438797
0.197649
0.0488106
0.195707
0.0539018
0.193607
0.0591902
0.191351
0.0647132
0.188941
0.0705096
0.186377
0.0766209
0.183661
0.0830941
0.180794
0.0899827
0.177778
0.0973496
0.174614
0.105271
0.171306
0.113843
0.167877
0.123178
0.164361
0.133398
0.160804
0.144685
0.157293
0.157276
0.153982
0.171463
0.151156
0.187635
0.14938
0.206304
0.150109
0.228066
0.160545
0.250739
0.267959
0.252328
0.212552
0.00494527
0.212227
0.0105538
0.211719
0.0158453
0.211038
0.0209114
0.210193
0.0258365
0.209187
0.0306868
0.208028
0.03552
0.206723
0.040387
0.205276
0.0453326
0.203694
0.0503962
0.201983
0.0556142
0.200149
0.0610237
0.198199
0.0666618
0.19614
0.0725652
0.193983
0.0787741
0.191741
0.0853327
0.189429
0.0922904
0.187069
0.0997044
0.184692
0.107641
0.182346
0.11618
0.180106
0.125405
0.178075
0.13541
0.176411
0.146322
0.175381
0.158272
0.175421
0.171379
0.177291
0.185714
0.182442
0.201098
0.193565
0.216891
0.212032
0.23223
0.249161
0.230795
0.217714
0.00509878
0.217428
0.0108763
0.216978
0.0163261
0.216374
0.0215413
0.215626
0.0266069
0.21474
0.0315905
0.213724
0.0365499
0.212585
0.0415359
0.211331
0.0465927
0.209972
0.0517593
0.208516
0.0570715
0.206975
0.0625648
0.205361
0.068274
0.203689
0.0742337
0.201979
0.0804803
0.200254
0.0870525
0.198546
0.0939925
0.196897
0.101346
0.195364
0.109165
0.194029
0.117503
0.193004
0.126413
0.192444
0.135948
0.192579
0.146159
0.193744
0.157072
0.196423
0.168658
0.201296
0.180795
0.209177
0.193169
0.220681
0.205344
0.235263
0.217612
0.228987
0.255411
0.223003
0.00523358
0.222758
0.0111574
0.222372
0.0167435
0.221854
0.0220859
0.221214
0.0272699
0.220458
0.0323637
0.219597
0.037425
0.218639
0.0425039
0.217596
0.0476434
0.216478
0.0528815
0.215299
0.0582528
0.214073
0.06379
0.21282
0.0695251
0.211562
0.0754886
0.210326
0.0817116
0.209147
0.0882255
0.20807
0.0950625
0.207153
0.102255
0.206472
0.109835
0.20613
0.117831
0.206261
0.126263
0.207044
0.135142
0.208717
0.144458
0.211593
0.154163
0.216069
0.164144
0.222604
0.174219
0.231605
0.184129
0.243427
0.193486
0.25888
0.202129
0.208406
0.279441
0.228421
0.00534777
0.228222
0.0113933
0.227905
0.0170919
0.22748
0.0225378
0.226956
0.0278165
0.226342
0.032996
0.225648
0.0381333
0.224885
0.0432773
0.224066
0.0484696
0.223206
0.0537466
0.222321
0.0591406
0.22143
0.0646812
0.220557
0.0703962
0.219731
0.0763114
0.218986
0.0824512
0.218367
0.0888383
0.217928
0.0954937
0.217737
0.102435
0.217884
0.109676
0.218478
0.117221
0.219659
0.125064
0.221601
0.133177
0.224525
0.141507
0.228698
0.149959
0.234418
0.158391
0.241991
0.166612
0.25171
0.174378
0.263863
0.181304
0.278865
0.187103
0.190822
0.296436
0.233971
0.00543954
0.233821
0.0115803
0.233579
0.0173659
0.233254
0.0228903
0.232855
0.0282386
0.232391
0.0334777
0.231875
0.0386639
0.23132
0.0438442
0.230739
0.0490585
0.23015
0.0543409
0.229572
0.059721
0.229029
0.0652246
0.228549
0.0708746
0.228166
0.0766914
0.22792
0.0826924
0.22786
0.0888909
0.228049
0.0952965
0.22856
0.101914
0.229482
0.108741
0.230926
0.115761
0.233028
0.122944
0.235948
0.130236
0.239874
0.137556
0.245011
0.144796
0.251562
0.151812
0.259725
0.15842
0.269677
0.1644
0.281496
0.169461
0.295216
0.173365
0.175468
0.31056
0.239656
0.00550719
0.239559
0.011715
0.239397
0.0175608
0.239177
0.0231373
0.23891
0.0285286
0.238606
0.0338005
0.238278
0.0390075
0.237939
0.0441947
0.237606
0.0493997
0.237299
0.0546541
0.237039
0.0599842
0.236853
0.0654115
0.236772
0.0709539
0.236835
0.0766259
0.237083
0.0824386
0.237572
0.0883958
0.238363
0.0944972
0.239529
0.100737
0.241161
0.107096
0.243364
0.113543
0.246261
0.12003
0.249986
0.126491
0.25468
0.13284
0.260484
0.138968
0.267534
0.144738
0.275941
0.149989
0.285776
0.154545
0.29702
0.158198
0.309615
0.160757
0.161711
0.323365
0.24548
0.0055492
0.245439
0.0117945
0.24536
0.0176722
0.245251
0.0232735
0.245123
0.0286805
0.244985
0.0339574
0.244851
0.0391567
0.244737
0.044321
0.24466
0.0494855
0.244642
0.0546793
0.244705
0.0599247
0.244879
0.0652387
0.245198
0.0706341
0.2457
0.076121
0.24643
0.0817039
0.247443
0.0873771
0.2488
0.0931323
0.250573
0.098954
0.252847
0.104811
0.255714
0.110662
0.259273
0.116455
0.263627
0.12212
0.268877
0.127571
0.275121
0.132705
0.282436
0.137404
0.290872
0.141535
0.300439
0.144962
0.311086
0.147538
0.32271
0.149123
0.149317
0.335099
0.251445
0.00556424
0.251462
0.0118163
0.25147
0.0176967
0.251477
0.0232943
0.251492
0.028689
0.251527
0.0339428
0.251593
0.0391057
0.251709
0.0442178
0.251893
0.0493118
0.252165
0.054414
0.252552
0.0595419
0.253084
0.0647084
0.253796
0.0699228
0.254725
0.0751899
0.255917
0.0805073
0.257426
0.0858628
0.259309
0.0912417
0.261634
0.0966202
0.264472
0.101963
0.267897
0.107225
0.271988
0.112351
0.276821
0.117273
0.282465
0.121911
0.28898
0.126175
0.296401
0.129967
0.304739
0.133183
0.313967
0.135721
0.324015
0.137481
0.334759
0.138373
0.13808
0.345994
0.257555
0.00555124
0.257631
0.0117784
0.25773
0.0176315
0.257856
0.0231966
0.258018
0.0285507
0.258228
0.0337532
0.258498
0.0388515
0.258846
0.043883
0.25929
0.0488779
0.259854
0.0538583
0.260562
0.058838
0.261447
0.0638271
0.262539
0.068831
0.263879
0.073849
0.26551
0.0788728
0.267481
0.0838876
0.269843
0.0888734
0.272654
0.0938018
0.275972
0.0986356
0.279857
0.103329
0.284368
0.107829
0.289557
0.112071
0.295468
0.115988
0.302129
0.119502
0.309547
0.122536
0.317708
0.125012
0.326564
0.126857
0.336033
0.128006
0.345997
0.128405
0.127802
0.356274
0.263813
0.00550939
0.26395
0.0116793
0.264141
0.0174748
0.264388
0.0229782
0.264699
0.0282633
0.265086
0.0333867
0.265562
0.0383928
0.266142
0.0433165
0.266846
0.0481845
0.267698
0.053015
0.268722
0.0578196
0.269947
0.0626056
0.271405
0.0673741
0.273134
0.0721203
0.275172
0.0768328
0.277562
0.0814942
0.280349
0.0860813
0.283581
0.090564
0.287303
0.0949054
0.291563
0.0990619
0.296399
0.102984
0.301844
0.106617
0.307921
0.109901
0.314637
0.112777
0.32198
0.115185
0.329918
0.117067
0.338394
0.118375
0.347328
0.119069
0.35661
0.119122
0.118327
0.366086
0.270221
0.00543807
0.270421
0.0115181
0.270705
0.0172253
0.271074
0.0226379
0.271536
0.0278261
0.2721
0.032843
0.27278
0.0377303
0.273591
0.0425198
0.274552
0.047235
0.275685
0.0518913
0.277013
0.0564981
0.278564
0.0610593
0.280367
0.0655732
0.282456
0.0700322
0.284866
0.0744227
0.287632
0.0787259
0.290792
0.0829174
0.294384
0.0869676
0.298443
0.0908413
0.302999
0.094499
0.30808
0.097897
0.3137
0.100989
0.319867
0.103728
0.326573
0.106065
0.333793
0.107959
0.341487
0.109368
0.349596
0.110263
0.358042
0.110622
0.36673
0.110433
0.109529
0.375531
0.276785
0.00533693
0.277047
0.0112945
0.277424
0.0168829
0.277915
0.0221758
0.278527
0.0272395
0.279267
0.0321236
0.280149
0.0368668
0.281186
0.0414977
0.282396
0.0460371
0.283799
0.050498
0.285418
0.0548873
0.287276
0.0592066
0.2894
0.063452
0.29182
0.0676141
0.294565
0.0716784
0.297665
0.0756256
0.301148
0.0794318
0.305044
0.0830691
0.309376
0.0865055
0.314164
0.0897064
0.319422
0.0926348
0.325154
0.0952529
0.331353
0.0975235
0.338003
0.0994117
0.345072
0.100886
0.352516
0.101922
0.360278
0.102501
0.368285
0.102614
0.376458
0.102262
0.101304
0.384686
0.283506
0.00520599
0.283831
0.0110087
0.2843
0.0164482
0.284912
0.0215933
0.285671
0.0265058
0.286584
0.031232
0.287663
0.0358072
0.288919
0.0402574
0.290368
0.0446005
0.292029
0.0488475
0.293922
0.0530035
0.296067
0.0570681
0.298487
0.061036
0.301208
0.0648969
0.304251
0.0686363
0.307642
0.0722353
0.311402
0.0756718
0.31555
0.0789202
0.3201
0.0819528
0.325065
0.08474
0.330445
0.0872517
0.336237
0.0894581
0.342427
0.0913311
0.348992
0.0928457
0.355895
0.0939813
0.363093
0.0947229
0.370532
0.0950624
0.378148
0.0949995
0.385872
0.0945407
0.0935679
0.393612
0.290389
0.00504551
0.290775
0.0106617
0.291335
0.0159228
0.292065
0.0208927
0.292968
0.0256286
0.29405
0.030173
0.295318
0.0345583
0.296784
0.0388076
0.298462
0.0429367
0.300366
0.0469546
0.302514
0.0508649
0.304924
0.0546659
0.307614
0.0583515
0.310604
0.0619115
0.313911
0.0653317
0.317554
0.0685947
0.321546
0.0716805
0.3259
0.0745669
0.330622
0.0772302
0.335715
0.0796463
0.341175
0.0817913
0.34699
0.0836426
0.35314
0.0851799
0.3596
0.0863862
0.366332
0.0872492
0.373294
0.0877614
0.380437
0.0879215
0.387704
0.0877344
0.395037
0.0872105
0.0862498
0.402359
0.297437
0.00485605
0.297883
0.0102547
0.298531
0.0153091
0.299377
0.0200774
0.300419
0.0246124
0.301662
0.0289529
0.303112
0.0331282
0.304778
0.0371589
0.30667
0.0410588
0.308802
0.0448353
0.311187
0.0484907
0.313838
0.0520227
0.316772
0.0554252
0.320001
0.058688
0.323538
0.0617983
0.327396
0.0647404
0.331582
0.067497
0.336101
0.0700493
0.340955
0.0723778
0.346139
0.0744634
0.351643
0.0762879
0.357452
0.0778347
0.363543
0.0790901
0.369887
0.0800436
0.376449
0.0806886
0.383189
0.0810234
0.390062
0.0810511
0.397019
0.0807798
0.404011
0.0802218
0.0792917
0.410973
0.304655
0.00463842
0.305158
0.00978985
0.305892
0.01461
0.306848
0.0191517
0.308024
0.023463
0.309421
0.0275791
0.311044
0.0315263
0.312897
0.035323
0.314991
0.0389809
0.317333
0.0425063
0.319934
0.0459007
0.322805
0.0491615
0.325956
0.0522827
0.329395
0.0552551
0.333132
0.0580672
0.337172
0.0607056
0.341517
0.0631556
0.346168
0.0654017
0.35112
0.0674287
0.356364
0.0692217
0.361886
0.0707676
0.367669
0.0720548
0.373686
0.0730748
0.37991
0.0738218
0.386308
0.074294
0.392841
0.0744933
0.399469
0.0744255
0.406152
0.0741007
0.412846
0.0735317
0.0726457
0.419496
0.312045
0.00439363
0.312604
0.00926932
0.313419
0.0138292
0.314481
0.0181206
0.315784
0.022187
0.317327
0.0260599
0.319112
0.0297629
0.321141
0.033312
0.323421
0.0367175
0.325957
0.0399847
0.328755
0.0431144
0.331823
0.0461042
0.335167
0.0489486
0.33879
0.0516394
0.342698
0.0541668
0.34689
0.0565195
0.351365
0.0586856
0.356118
0.0606529
0.361141
0.0624096
0.366422
0.0639449
0.371943
0.0652496
0.377685
0.0663165
0.383623
0.0671407
0.389728
0.0677204
0.395969
0.0680567
0.402311
0.0681541
0.408721
0.0680201
0.41516
0.0676654
0.421593
0.0671028
0.0662699
0.427973
0.319611
0.00412289
0.320223
0.00869577
0.321116
0.0129706
0.322278
0.0169896
0.323702
0.0207914
0.325382
0.0244042
0.327318
0.0278486
0.329511
0.0311387
0.331962
0.0342835
0.334674
0.0372873
0.337651
0.0401509
0.340895
0.0428719
0.344409
0.0454455
0.348192
0.0478649
0.352245
0.0501219
0.356565
0.0522073
0.361145
0.0541119
0.365977
0.0558262
0.371051
0.0573416
0.37635
0.0586506
0.381857
0.0597473
0.38755
0.0606277
0.393406
0.0612901
0.399395
0.061735
0.405491
0.0619658
0.411661
0.0619884
0.417874
0.0618112
0.424099
0.0614448
0.430305
0.0609016
0.0601279
0.436451
0.327359
0.0038275
0.328021
0.00807201
0.328988
0.0120387
0.330244
0.0157646
0.33178
0.0192838
0.333588
0.022621
0.335665
0.0257942
0.338008
0.0288158
0.340617
0.0316933
0.34349
0.0344305
0.346627
0.037028
0.350028
0.0394838
0.353691
0.041794
0.357613
0.0439529
0.36179
0.045954
0.366216
0.0477903
0.370881
0.0494545