# vtk DataFile Version 2.0

ASCII

DATASET UNSTRUCTURED_GRID

POINTS 68 float 

-5.0000000000000003e-02  0.0000000000000000e+00  0.0000000000000000e+00
-5.0000000000000003e-02  6.6666666669999999e-02  0.0000000000000000e+00
-5.0000000000000003e-02  6.6666666669999999e-02  2.9999999999999999e-01
-5.0000000000000003e-02  0.0000000000000000e+00  2.9999999999999999e-01
-5.0000000000000003e-02  1.3333333330000000e-01  0.0000000000000000e+00
-5.0000000000000003e-02  1.3333333330000000e-01  2.9999999999999999e-01
-5.0000000000000003e-02  2.0000000000000001e-01  0.0000000000000000e+00
-5.0000000000000003e-02  2.0000000000000001e-01  2.9999999999999999e-01
-5.0000000000000003e-02  2.6666666670000000e-01  0.0000000000000000e+00
-5.0000000000000003e-02  2.6666666670000000e-01  2.9999999999999999e-01
-5.0000000000000003e-02  3.3333333329999998e-01  0.0000000000000000e+00
-5.0000000000000003e-02  3.3333333329999998e-01  2.9999999999999999e-01
-5.0000000000000003e-02  4.0000000000000002e-01  0.0000000000000000e+00
-5.0000000000000003e-02  4.0000000000000002e-01  2.9999999999999999e-01
-5.0000000000000003e-02  4.6666666670000001e-01  0.0000000000000000e+00
-5.0000000000000003e-02  4.6666666670000001e-01  2.9999999999999999e-01
-5.0000000000000003e-02  5.3333333329999999e-01  0.0000000000000000e+00
-5.0000000000000003e-02  5.3333333329999999e-01  2.9999999999999999e-01
-5.0000000000000003e-02  5.9999999999999998e-01  0.0000000000000000e+00
-5.0000000000000003e-02  5.9999999999999998e-01  2.9999999999999999e-01
-5.0000000000000003e-02  6.6666666669999997e-01  0.0000000000000000e+00
-5.0000000000000003e-02  6.6666666669999997e-01  2.9999999999999999e-01
-5.0000000000000003e-02  7.3333333329999995e-01  0.0000000000000000e+00
-5.0000000000000003e-02  7.3333333329999995e-01  2.9999999999999999e-01
-5.0000000000000003e-02  8.0000000000000004e-01  0.0000000000000000e+00
-5.0000000000000003e-02  8.0000000000000004e-01  2.9999999999999999e-01
-5.0000000000000003e-02  8.6666666670000003e-01  0.0000000000000000e+00
-5.0000000000000003e-02  8.6666666670000003e-01  2.9999999999999999e-01
-5.0000000000000003e-02  9.3333333330000001e-01  0.0000000000000000e+00
-5.0000000000000003e-02  9.3333333330000001e-01  2.9999999999999999e-01
-5.0000000000000003e-02  1.0000000000000000e+00  0.0000000000000000e+00
-5.0000000000000003e-02  1.0000000000000000e+00  2.9999999999999999e-01
-1.6666666670000000e-02  1.0000000000000000e+00  0.0000000000000000e+00
-1.6666666670000000e-02  1.0000000000000000e+00  2.9999999999999999e-01
1.6666666670000000e-02  1.0000000000000000e+00  0.0000000000000000e+00
1.6666666670000000e-02  1.0000000000000000e+00  2.9999999999999999e-01
5.0000000000000003e-02  1.0000000000000000e+00  0.0000000000000000e+00
5.0000000000000003e-02  1.0000000000000000e+00  2.9999999999999999e-01
5.0000000000000003e-02  0.0000000000000000e+00  0.0000000000000000e+00
5.0000000000000003e-02  0.0000000000000000e+00  2.9999999999999999e-01
5.0000000000000003e-02  6.6666666669999999e-02  2.9999999999999999e-01
5.0000000000000003e-02  6.6666666669999999e-02  0.0000000000000000e+00
5.0000000000000003e-02  1.3333333330000000e-01  2.9999999999999999e-01
5.0000000000000003e-02  1.3333333330000000e-01  0.0000000000000000e+00
5.0000000000000003e-02  2.0000000000000001e-01  2.9999999999999999e-01
5.0000000000000003e-02  2.0000000000000001e-01  0.0000000000000000e+00
5.0000000000000003e-02  2.6666666670000000e-01  2.9999999999999999e-01
5.0000000000000003e-02  2.6666666670000000e-01  0.0000000000000000e+00
5.0000000000000003e-02  3.3333333329999998e-01  2.9999999999999999e-01
5.0000000000000003e-02  3.3333333329999998e-01  0.0000000000000000e+00
5.0000000000000003e-02  4.0000000000000002e-01  2.9999999999999999e-01
5.0000000000000003e-02  4.0000000000000002e-01  0.0000000000000000e+00
5.0000000000000003e-02  4.6666666670000001e-01  2.9999999999999999e-01
5.0000000000000003e-02  4.6666666670000001e-01  0.0000000000000000e+00
5.0000000000000003e-02  5.3333333329999999e-01  2.9999999999999999e-01
5.0000000000000003e-02  5.3333333329999999e-01  0.0000000000000000e+00
5.0000000000000003e-02  5.9999999999999998e-01  2.9999999999999999e-01
5.0000000000000003e-02  5.9999999999999998e-01  0.0000000000000000e+00
5.0000000000000003e-02  6.6666666669999997e-01  2.9999999999999999e-01
5.0000000000000003e-02  6.6666666669999997e-01  0.0000000000000000e+00
5.0000000000000003e-02  7.3333333329999995e-01  2.9999999999999999e-01
5.0000000000000003e-02  7.3333333329999995e-01  0.0000000000000000e+00
5.0000000000000003e-02  8.0000000000000004e-01  2.9999999999999999e-01
5.0000000000000003e-02  8.0000000000000004e-01  0.0000000000000000e+00
5.0000000000000003e-02  8.6666666670000003e-01  2.9999999999999999e-01
5.0000000000000003e-02  8.6666666670000003e-01  0.0000000000000000e+00
5.0000000000000003e-02  9.3333333330000001e-01  2.9999999999999999e-01
5.0000000000000003e-02  9.3333333330000001e-01  0.0000000000000000e+00

CELLS 0 0


CELL_TYPES 0


POINT_DATA 68

VECTORS VertexNormals float

0.0000000000000000e+00 0.0000000000000000e+00 0.0000000000000000e+00 
0.0000000000000000e+00 0.0000000000000000e+00 0.0000000000000000e+00 
0.0000000000000000e+00 0.0000000000000000e+00 0.0000000000000000e+00 
0.0000000000000000e+00 0.0000000000000000e+00 0.0000000000000000e+00 
0.0000000000000000e+00 0.0000000000000000e+00 0.0000000000000000e+00 
0.0000000000000000e+00 0.0000000000000000e+00 0.0000000000000000e+00 
0.0000000000000000e+00 0.0000000000000000e+00 0.0000000000000000e+00 
0.0000000000000000e+00 0.0000000000000000e+00 0.0000000000000000e+00 
0.0000000000000000e+00 0.0000000000000000e+00 0.0000000000000000e+00 
0.0000000000000000e+00 0.0000000000000000e+00 0.0000000000000000e+00 
0.0000000000000000e+00 0.0000000000000000e+00 0.0000000000000000e+00 
0.0000000000000000e+00 0.0000000000000000e+00 0.0000000000000000e+00 
0.0000000000000000e+00 0.0000000000000000e+00 0.0000000000000000e+00 
0.0000000000000000e+00 0.0000000000000000e+00 0.0000000000000000e+00 
0.0000000000000000e+00 0.0000000000000000e+00 0.0000000000000000e+00 
0.0000000000000000e+00 0.0000000000000000e+00 0.0000000000000000e+00 
0.0000000000000000e+00 0.0000000000000000e+00 0.0000000000000000e+00 
0.0000000000000000e+00 0.0000000000000000e+00 0.0000000000000000e+00 
0.0000000000000000e+00 0.0000000000000000e+00 0.0000000000000000e+00 
0.0000000000000000e+00 0.0000000000000000e+00 0.0000000000000000e+00 
0.0000000000000000e+00 0.0000000000000000e+00 0.0000000000000000e+00 
0.0000000000000000e+00 0.0000000000000000e+00 0.0000000000000000e+00 
0.0000000000000000e+00 0.0000000000000000e+00 0.0000000000000000e+00 
0.0000000000000000e+00 0.0000000000000000e+00 0.0000000000000000e+00 
0.0000000000000000e+00 0.0000000000000000e+00 0.0000000000000000e+00 
0.0000000000000000e+00 0.0000000000000000e+00 0.0000000000000000e+00 
0.0000000000000000e+00 0.0000000000000000e+00 0.0000000000000000e+00 
0.0000000000000000e+00 0.0000000000000000e+00 0.0000000000000000e+00 
0.0000000000000000e+00 0.0000000000000000e+00 0.0000000000000000e+00 
0.0000000000000000e+00 0.0000000000000000e+00 0.0000000000000000e+00 
0.0000000000000000e+00 0.0000000000000000e+00 0.0000000000000000e+00 
0.0000000000000000e+00 0.0000000000000000e+00 0.0000000000000000e+00 
0.0000000000000000e+00 0.0000000000000000e+00 0.0000000000000000e+00 
0.0000000000000000e+00 0.0000000000000000e+00 0.0000000000000000e+00 
0.0000000000000000e+00 0.0000000000000000e+00 0.0000000000000000e+00 
0.0000000000000000e+00 0.0000000000000000e+00 0.0000000000000000e+00 
0.0000000000000000e+00 0.0000000000000000e+00 0.0000000000000000e+00 
0.0000000000000000e+00 0.0000000000000000e+00 0.0000000000000000e+00 
0.0000000000000000e+00 0.0000000000000000e+00 0.0000000000000000e+00 
0.0000000000000000e+00 0.0000000000000000e+00 0.0000000000000000e+00 
0.0000000000000000e+00 0.0000000000000000e+00 0.0000000000000000e+00 
0.0000000000000000e+00 0.0000000000000000e+00 0.0000000000000000e+00 
0.0000000000000000e+00 0.0000000000000000e+00 0.0000000000000000e+00 
0.0000000000000000e+00 0.0000000000000000e+00 0.0000000000000000e+00 
0.0000000000000000e+00 0.0000000000000000e+00 0.0000000000000000e+00 
0.0000000000000000e+00 0.0000000000000000e+00 0.0000000000000000e+00 
0.0000000000000000e+00 0.0000000000000000e+00 0.0000000000000000e+00 
0.0000000000000000e+00 0.0000000000000000e+00 0.0000000000000000e+00 
0.0000000000000000e+00 0.0000000000000000e+00 0.0000000000000000e+00 
0.0000000000000000e+00 0.0000000000000000e+00 0.0000000000000000e+00 
0.0000000000000000e+00 0.0000000000000000e+00 0.0000000000000000e+00 
0.0000000000000000e+00 0.0000000000000000e+00 0.0000000000000000e+00 
0.0000000000000000e+00 0.0000000000000000e+00 0.0000000000000000e+00 
0.0000000000000000e+00 0.0000000000000000e+00 0.0000000000000000e+00 
0.0000000000000000e+00 0.0000000000000000e+00 0.0000000000000000e+00 
0.0000000000000000e+00 0.0000000000000000e+00 0.0000000000000000e+00 
0.0000000000000000e+00 0.0000000000000000e+00 0.0000000000000000e+00 
0.0000000000000000e+00 0.0000000000000000e+00 0.0000000000000000e+00 
0.0000000000000000e+00 0.0000000000000000e+00 0.0000000000000000e+00 
0.0000000000000000e+00 0.0000000000000000e+00 0.0000000000000000e+00 
0.0000000000000000e+00 0.0000000000000000e+00 0.0000000000000000e+00 
0.0000000000000000e+00 0.0000000000000000e+00 0.0000000000000000e+00 
0.0000000000000000e+00 0.0000000000000000e+00 0.0000000000000000e+00 
0.0000000000000000e+00 0.0000000000000000e+00 0.0000000000000000e+00 
0.0000000000000000e+00 0.0000000000000000e+00 0.0000000000000000e+00 
0.0000000000000000e+00 0.0000000000000000e+00 0.0000000000000000e+00 
0.0000000000000000e+00 0.0000000000000000e+00 0.0000000000000000e+00 
0.0000000000000000e+00 0.0000000000000000e+00 0.0000000000000000e+00 

VECTORS Displacement float
-3.4347524824340780e-15 -6.0715321659188248e-17 -9.3967717586023944e-22 
3.1655678209093572e-03 3.2332157878834748e-03 -2.7049929207818767e-12 
3.1655533389771447e-03 3.2332252403119597e-03 -2.7049929192258539e-12 
-2.8101712031288719e-16 -1.5371854334225291e-16 -2.5715692094870241e-22 
9.6665227609143180e-03 6.0048539202091685e-03 3.1141735204895463e-13 
9.6665369890818666e-03 6.0048569077021949e-03 3.1141735191091170e-13 
1.9370402563611576e-02 8.2896211289265696e-03 6.0262143934044913e-13 
1.9370399426341767e-02 8.2896296986275705e-03 6.0262143914946664e-13 
3.1723475570729361e-02 1.0433699671143408e-02 1.1493247768228792e-12 
3.1723493592920801e-02 1.0433682970978729e-02 1.1493247767907155e-12 
4.6770486091027130e-02 1.2588613022204103e-02 3.1763735522036263e-21 
4.6770483631643177e-02 1.2588603495597052e-02 3.2500888762761347e-21 
6.4882656645761205e-02 1.4858503375383822e-02 -2.6996285804470270e-12 
6.4882632662173104e-02 1.4858514474709617e-02 -2.6996285807968283e-12 
8.5958649920334945e-02 1.6990753153898804e-02 5.9470460545311358e-13 
8.5958660620958957e-02 1.6990768426875184e-02 5.9470460531507064e-13 
1.0985765049919186e-01 1.8765844214407711e-02 2.1402365978292901e-13 
1.0985763835238181e-01 1.8765844052617019e-02 2.1402365985664434e-13 
1.3562644892197015e-01 2.0422747561718836e-02 -1.0502968152708938e-12 
1.3562643756608631e-01 2.0422757309645836e-02 -1.0502968155148157e-12 
1.6377753195194453e-01 2.2049680306588552e-02 8.4703294725430034e-22 
1.6377752278625221e-01 2.2049670400477495e-02 7.0899003451323392e-22 
1.9385573902218514e-01 2.3230836500565438e-02 -1.2072862005058779e-12 
1.9385572855665287e-01 2.3230838383119123e-02 -1.2072862004321625e-12 
2.2504631636277886e-01 2.4020586059545438e-02 1.5776184640741383e-13 
2.2504629963170647e-01 2.4020578545673934e-02 1.5776184653406871e-13 
2.5732407420832693e-01 2.4683143446354062e-02 6.0577892239033287e-13 
2.5732408511225174e-01 2.4683145089194100e-02 6.0577892238463883e-13 
2.8997176518708989e-01 2.4786188073335498e-02 2.7823347141549435e-12 
2.8997178849983979e-01 2.4786163968238489e-02 2.7823347144933565e-12 
3.2245312167551243e-01 2.4746643480059869e-02 0.0000000000000000e+00 
3.2245311527603154e-01 2.4746616108106849e-02 2.0606422208099309e-22 
3.2245041760907661e-01 8.4880489426738155e-03 -1.1117307432712692e-21 
3.2245040189535440e-01 8.4880257487254217e-03 -9.0566652119027611e-22 
3.2236280554157176e-01 -7.7445808532207389e-03 -5.2939559203393771e-22 
3.2236279042808880e-01 -7.7445729878201494e-03 -4.2921048835973217e-22 
3.2226985663811175e-01 -2.3869137224802175e-02 -1.8528845721187820e-22 
3.2226983645496687e-01 -2.3869084088211052e-02 1.0018510367420555e-22 
-2.3592239273284576e-16 1.3877787807814457e-17 -4.3013391852757439e-22 
-2.7407822640897996e-16 9.3454633995669552e-18 -4.0935815365845950e-22 
3.0637421095726300e-03 -3.1595747449695176e-03 2.2619554491580036e-12 
3.0637450569348627e-03 -3.1595602899298133e-03 2.2619554490313489e-12 
9.6199798049852320e-03 -5.7841211300418546e-03 -1.3404062289490929e-13 
9.6199719835168875e-03 -5.7841311599851099e-03 -1.3404062296862461e-13 
1.9390145057184567e-02 -8.0487498791394323e-03 -1.0122929434305504e-12 
1.9390139431075790e-02 -8.0487525450111813e-03 -1.0122929435572053e-12 
3.1659614993317438e-02 -1.0109968114176558e-02 -4.0849587725763526e-13 
3.1659600811698697e-02 -1.0109979082229378e-02 -4.0849587743722968e-13 
4.6839545585881992e-02 -1.2364694703678656e-02 -6.6743850477500414e-22 
4.6839543866734765e-02 -1.2364701990908243e-02 -6.3527471044072525e-22 
6.4823369219069490e-02 -1.4495351430961579e-02 2.0736915013629673e-12 
6.4823379649790666e-02 -1.4495353089619870e-02 2.0736915015010104e-12 
8.6028205062528229e-02 -1.6618204437567841e-02 3.7501153092886612e-13 
8.6028200466094426e-02 -1.6618195710763277e-02 3.7501153096102994e-13 
1.0975244290478993e-01 -1.8377484893031121e-02 6.6395224643932553e-15 
1.0975245616387513e-01 -1.8377482722864120e-02 6.6395224965570495e-15 
1.3565732895043281e-01 -1.9906635960357785e-02 3.8969476395441147e-13 
1.3565731929207600e-01 -1.9906617949348771e-02 3.8969476409245440e-13 
1.6368463910757480e-01 -2.1467472979380231e-02 2.0324790145980780e-21 
1.6368463870026403e-01 -2.1467482538225103e-02 2.2764010457459322e-21 
1.9383018065532381e-01 -2.2532789756118662e-02 3.6234913735629794e-13 
1.9383017176233505e-01 -2.2532788896708351e-02 3.6234913707082440e-13 
2.2501593102694686e-01 -2.3343436964599135e-02 -9.0991726113148871e-13 
2.2501594352388232e-01 -2.3343458339811708e-02 -9.0991726094050631e-13 
2.5727518937518096e-01 -2.3843296492172691e-02 3.2601097747978569e-13 
2.5727518362841229e-01 -2.3843301243936733e-02 3.2601097727372149e-13 
2.8995826113763856e-01 -2.3979786769310688e-02 2.0905918942146255e-12 
2.8995823989880892e-01 -2.3979812714549138e-02 2.0905918939820916e-12 

