# vtk DataFile Version 2.0

ASCII

DATASET UNSTRUCTURED_GRID

POINTS 68 float 

-5.0000000000000003e-02  0.0000000000000000e+00  0.0000000000000000e+00
-5.0000000000000003e-02  6.6666666669999999e-02  0.0000000000000000e+00
-5.0000000000000003e-02  6.6666666669999999e-02  2.9999999999999999e-01
-5.0000000000000003e-02  0.0000000000000000e+00  2.9999999999999999e-01
-5.0000000000000003e-02  1.3333333330000000e-01  0.0000000000000000e+00
-5.0000000000000003e-02  1.3333333330000000e-01  2.9999999999999999e-01
-5.0000000000000003e-02  2.0000000000000001e-01  0.0000000000000000e+00
-5.0000000000000003e-02  2.0000000000000001e-01  2.9999999999999999e-01
-5.0000000000000003e-02  2.6666666670000000e-01  0.0000000000000000e+00
-5.0000000000000003e-02  2.6666666670000000e-01  2.9999999999999999e-01
-5.0000000000000003e-02  3.3333333329999998e-01  0.0000000000000000e+00
-5.0000000000000003e-02  3.3333333329999998e-01  2.9999999999999999e-01
-5.0000000000000003e-02  4.0000000000000002e-01  0.0000000000000000e+00
-5.0000000000000003e-02  4.0000000000000002e-01  2.9999999999999999e-01
-5.0000000000000003e-02  4.6666666670000001e-01  0.0000000000000000e+00
-5.0000000000000003e-02  4.6666666670000001e-01  2.9999999999999999e-01
-5.0000000000000003e-02  5.3333333329999999e-01  0.0000000000000000e+00
-5.0000000000000003e-02  5.3333333329999999e-01  2.9999999999999999e-01
-5.0000000000000003e-02  5.9999999999999998e-01  0.0000000000000000e+00
-5.0000000000000003e-02  5.9999999999999998e-01  2.9999999999999999e-01
-5.0000000000000003e-02  6.6666666669999997e-01  0.0000000000000000e+00
-5.0000000000000003e-02  6.6666666669999997e-01  2.9999999999999999e-01
-5.0000000000000003e-02  7.3333333329999995e-01  0.0000000000000000e+00
-5.0000000000000003e-02  7.3333333329999995e-01  2.9999999999999999e-01
-5.0000000000000003e-02  8.0000000000000004e-01  0.0000000000000000e+00
-5.0000000000000003e-02  8.0000000000000004e-01  2.9999999999999999e-01
-5.0000000000000003e-02  8.6666666670000003e-01  0.0000000000000000e+00
-5.0000000000000003e-02  8.6666666670000003e-01  2.9999999999999999e-01
-5.0000000000000003e-02  9.3333333330000001e-01  0.0000000000000000e+00
-5.0000000000000003e-02  9.3333333330000001e-01  2.9999999999999999e-01
-5.0000000000000003e-02  1.0000000000000000e+00  0.0000000000000000e+00
-5.0000000000000003e-02  1.0000000000000000e+00  2.9999999999999999e-01
-1.6666666670000000e-02  1.0000000000000000e+00  0.0000000000000000e+00
-1.6666666670000000e-02  1.0000000000000000e+00  2.9999999999999999e-01
1.6666666670000000e-02  1.0000000000000000e+00  0.0000000000000000e+00
1.6666666670000000e-02  1.0000000000000000e+00  2.9999999999999999e-01
5.0000000000000003e-02  1.0000000000000000e+00  0.0000000000000000e+00
5.0000000000000003e-02  1.0000000000000000e+00  2.9999999999999999e-01
5.0000000000000003e-02  0.0000000000000000e+00  0.0000000000000000e+00
5.0000000000000003e-02  0.0000000000000000e+00  2.9999999999999999e-01
5.0000000000000003e-02  6.6666666669999999e-02  2.9999999999999999e-01
5.0000000000000003e-02  6.6666666669999999e-02  0.0000000000000000e+00
5.0000000000000003e-02  1.3333333330000000e-01  2.9999999999999999e-01
5.0000000000000003e-02  1.3333333330000000e-01  0.0000000000000000e+00
5.0000000000000003e-02  2.0000000000000001e-01  2.9999999999999999e-01
5.0000000000000003e-02  2.0000000000000001e-01  0.0000000000000000e+00
5.0000000000000003e-02  2.6666666670000000e-01  2.9999999999999999e-01
5.0000000000000003e-02  2.6666666670000000e-01  0.0000000000000000e+00
5.0000000000000003e-02  3.3333333329999998e-01  2.9999999999999999e-01
5.0000000000000003e-02  3.3333333329999998e-01  0.0000000000000000e+00
5.0000000000000003e-02  4.0000000000000002e-01  2.9999999999999999e-01
5.0000000000000003e-02  4.0000000000000002e-01  0.0000000000000000e+00
5.0000000000000003e-02  4.6666666670000001e-01  2.9999999999999999e-01
5.0000000000000003e-02  4.6666666670000001e-01  0.0000000000000000e+00
5.0000000000000003e-02  5.3333333329999999e-01  2.9999999999999999e-01
5.0000000000000003e-02  5.3333333329999999e-01  0.0000000000000000e+00
5.0000000000000003e-02  5.9999999999999998e-01  2.9999999999999999e-01
5.0000000000000003e-02  5.9999999999999998e-01  0.0000000000000000e+00
5.0000000000000003e-02  6.6666666669999997e-01  2.9999999999999999e-01
5.0000000000000003e-02  6.6666666669999997e-01  0.0000000000000000e+00
5.0000000000000003e-02  7.3333333329999995e-01  2.9999999999999999e-01
5.0000000000000003e-02  7.3333333329999995e-01  0.0000000000000000e+00
5.0000000000000003e-02  8.0000000000000004e-01  2.9999999999999999e-01
5.0000000000000003e-02  8.0000000000000004e-01  0.0000000000000000e+00
5.0000000000000003e-02  8.6666666670000003e-01  2.9999999999999999e-01
5.0000000000000003e-02  8.6666666670000003e-01  0.0000000000000000e+00
5.0000000000000003e-02  9.3333333330000001e-01  2.9999999999999999e-01
5.0000000000000003e-02  9.3333333330000001e-01  0.0000000000000000e+00

CELLS 0 0


CELL_TYPES 0


POINT_DATA 68

VECTORS VertexNormals float

0.0000000000000000e+00 0.0000000000000000e+00 0.0000000000000000e+00 
0.0000000000000000e+00 0.0000000000000000e+00 0.0000000000000000e+00 
0.0000000000000000e+00 0.0000000000000000e+00 0.0000000000000000e+00 
0.0000000000000000e+00 0.0000000000000000e+00 0.0000000000000000e+00 
0.0000000000000000e+00 0.0000000000000000e+00 0.0000000000000000e+00 
0.0000000000000000e+00 0.0000000000000000e+00 0.0000000000000000e+00 
0.0000000000000000e+00 0.0000000000000000e+00 0.0000000000000000e+00 
0.0000000000000000e+00 0.0000000000000000e+00 0.0000000000000000e+00 
0.0000000000000000e+00 0.0000000000000000e+00 0.0000000000000000e+00 
0.0000000000000000e+00 0.0000000000000000e+00 0.0000000000000000e+00 
0.0000000000000000e+00 0.0000000000000000e+00 0.0000000000000000e+00 
0.0000000000000000e+00 0.0000000000000000e+00 0.0000000000000000e+00 
0.0000000000000000e+00 0.0000000000000000e+00 0.0000000000000000e+00 
0.0000000000000000e+00 0.0000000000000000e+00 0.0000000000000000e+00 
0.0000000000000000e+00 0.0000000000000000e+00 0.0000000000000000e+00 
0.0000000000000000e+00 0.0000000000000000e+00 0.0000000000000000e+00 
0.0000000000000000e+00 0.0000000000000000e+00 0.0000000000000000e+00 
0.0000000000000000e+00 0.0000000000000000e+00 0.0000000000000000e+00 
0.0000000000000000e+00 0.0000000000000000e+00 0.0000000000000000e+00 
0.0000000000000000e+00 0.0000000000000000e+00 0.0000000000000000e+00 
0.0000000000000000e+00 0.0000000000000000e+00 0.0000000000000000e+00 
0.0000000000000000e+00 0.0000000000000000e+00 0.0000000000000000e+00 
0.0000000000000000e+00 0.0000000000000000e+00 0.0000000000000000e+00 
0.0000000000000000e+00 0.0000000000000000e+00 0.0000000000000000e+00 
0.0000000000000000e+00 0.0000000000000000e+00 0.0000000000000000e+00 
0.0000000000000000e+00 0.0000000000000000e+00 0.0000000000000000e+00 
0.0000000000000000e+00 0.0000000000000000e+00 0.0000000000000000e+00 
0.0000000000000000e+00 0.0000000000000000e+00 0.0000000000000000e+00 
0.0000000000000000e+00 0.0000000000000000e+00 0.0000000000000000e+00 
0.0000000000000000e+00 0.0000000000000000e+00 0.0000000000000000e+00 
0.0000000000000000e+00 0.0000000000000000e+00 0.0000000000000000e+00 
0.0000000000000000e+00 0.0000000000000000e+00 0.0000000000000000e+00 
0.0000000000000000e+00 0.0000000000000000e+00 0.0000000000000000e+00 
0.0000000000000000e+00 0.0000000000000000e+00 0.0000000000000000e+00 
0.0000000000000000e+00 0.0000000000000000e+00 0.0000000000000000e+00 
0.0000000000000000e+00 0.0000000000000000e+00 0.0000000000000000e+00 
0.0000000000000000e+00 0.0000000000000000e+00 0.0000000000000000e+00 
0.0000000000000000e+00 0.0000000000000000e+00 0.0000000000000000e+00 
0.0000000000000000e+00 0.0000000000000000e+00 0.0000000000000000e+00 
0.0000000000000000e+00 0.0000000000000000e+00 0.0000000000000000e+00 
0.0000000000000000e+00 0.0000000000000000e+00 0.0000000000000000e+00 
0.0000000000000000e+00 0.0000000000000000e+00 0.0000000000000000e+00 
0.0000000000000000e+00 0.0000000000000000e+00 0.0000000000000000e+00 
0.0000000000000000e+00 0.0000000000000000e+00 0.0000000000000000e+00 
0.0000000000000000e+00 0.0000000000000000e+00 0.0000000000000000e+00 
0.0000000000000000e+00 0.0000000000000000e+00 0.0000000000000000e+00 
0.0000000000000000e+00 0.0000000000000000e+00 0.0000000000000000e+00 
0.0000000000000000e+00 0.0000000000000000e+00 0.0000000000000000e+00 
0.0000000000000000e+00 0.0000000000000000e+00 0.0000000000000000e+00 
0.0000000000000000e+00 0.0000000000000000e+00 0.0000000000000000e+00 
0.0000000000000000e+00 0.0000000000000000e+00 0.0000000000000000e+00 
0.0000000000000000e+00 0.0000000000000000e+00 0.0000000000000000e+00 
0.0000000000000000e+00 0.0000000000000000e+00 0.0000000000000000e+00 
0.0000000000000000e+00 0.0000000000000000e+00 0.0000000000000000e+00 
0.0000000000000000e+00 0.0000000000000000e+00 0.0000000000000000e+00 
0.0000000000000000e+00 0.0000000000000000e+00 0.0000000000000000e+00 
0.0000000000000000e+00 0.0000000000000000e+00 0.0000000000000000e+00 
0.0000000000000000e+00 0.0000000000000000e+00 0.0000000000000000e+00 
0.0000000000000000e+00 0.0000000000000000e+00 0.0000000000000000e+00 
0.0000000000000000e+00 0.0000000000000000e+00 0.0000000000000000e+00 
0.0000000000000000e+00 0.0000000000000000e+00 0.0000000000000000e+00 
0.0000000000000000e+00 0.0000000000000000e+00 0.0000000000000000e+00 
0.0000000000000000e+00 0.0000000000000000e+00 0.0000000000000000e+00 
0.0000000000000000e+00 0.0000000000000000e+00 0.0000000000000000e+00 
0.0000000000000000e+00 0.0000000000000000e+00 0.0000000000000000e+00 
0.0000000000000000e+00 0.0000000000000000e+00 0.0000000000000000e+00 
0.0000000000000000e+00 0.0000000000000000e+00 0.0000000000000000e+00 
0.0000000000000000e+00 0.0000000000000000e+00 0.0000000000000000e+00 

VECTORS Displacement float
-3.6880221099266919e-15 -3.9898639947466563e-16 -1.1646703024746630e-21 
4.9151949002909515e-03 5.2111540703936015e-03 1.5230256081410600e-12 
4.9151886894842640e-03 5.2111505657196694e-03 1.5230256124236501e-12 
-4.2862079342897809e-16 -1.7587243176469347e-16 -2.0933179802024648e-21 
1.5570313844691729e-02 9.5580461814614090e-03 8.3311528859980700e-13 
1.5570314376097348e-02 9.5580605292547513e-03 8.3311528941485607e-13 
3.1875410316472633e-02 1.3307568938966030e-02 -1.5646491896177469e-12 
3.1875412101042964e-02 1.3307570277058412e-02 -1.5646491891468051e-12 
5.2658692965174489e-02 1.6412835581915433e-02 -2.6050450667849152e-12 
5.2658697122558495e-02 1.6412850419333717e-02 -2.6050450662610336e-12 
7.7181114295405376e-02 1.9095990642824478e-02 1.7470054537119944e-21 
7.7181115776983264e-02 1.9095999819139408e-02 2.1650078132205217e-21 
1.0526206929537324e-01 2.1662668730191771e-02 -7.1732334302896723e-13 
1.0526204651282993e-01 2.1662675806579112e-02 -7.1732334245214618e-13 
1.3678751072933676e-01 2.3596574603701827e-02 4.2811944225079479e-13 
1.3678749061810155e-01 2.3596591885637831e-02 4.2811944261585761e-13 
1.7020309146031901e-01 2.4791606749633925e-02 -1.1112521413863459e-12 
1.7020310018400733e-01 2.4791605358207930e-02 -1.1112521408624645e-12 
2.0525281344944019e-01 2.5567125597403588e-02 -2.7126449981102846e-12 
2.0525280159048501e-01 2.5567130971951419e-02 -2.7126449983275568e-12 
2.4100663963597985e-01 2.6107585265918512e-02 2.6469779601696886e-21 
2.4100664896075635e-01 2.6107605327840587e-02 1.7414913395933715e-21 
2.7758936369689086e-01 2.6423824258487365e-02 9.7599696327448838e-13 
2.7758936325121358e-01 2.6423820267531747e-02 9.7599696255429013e-13 
3.1445211636485304e-01 2.6504537735596089e-02 1.5702459857306439e-12 
3.1445208175014272e-01 2.6504558702497565e-02 1.5702459847722176e-12 
3.5138009657858482e-01 2.6511408581057203e-02 1.1405569640588348e-12 
3.5138012769930393e-01 2.6511426379868339e-02 1.1405569629945294e-12 
3.8844212535150302e-01 2.6498037900170808e-02 -7.9315469878016062e-13 
3.8844211582550037e-01 2.6498041305908316e-02 -7.9315470022827771e-13 
4.2532243698976335e-01 2.6369718453127168e-02 -2.2499312661442353e-22 
4.2532244694231486e-01 2.6369747391814743e-02 -1.0775401879873468e-21 
4.2529592096366720e-01 8.0150808170575231e-03 2.2499312661442353e-22 
4.2529592759430773e-01 8.0150917944116686e-03 -9.7166106958055928e-22 
4.2529956593969920e-01 -1.0337352464719731e-02 3.6660644748350187e-21 
4.2529956473446823e-01 -1.0337357222165682e-02 2.4297056092374905e-21 
4.2532980875149706e-01 -2.8794820421884672e-02 3.8381180422460484e-22 
4.2532981121767988e-01 -2.8794849270472572e-02 -9.0548662057631707e-22 
-3.6429192995512949e-16 -1.7347234759768071e-17 -2.6171994581177796e-21 
-4.0780411171725640e-16 -1.6277871974827221e-17 -9.6835234713034717e-22 
4.9809975942927218e-03 -5.4351176966823634e-03 2.5799868990304018e-12 
4.9810201968974550e-03 -5.4351258740091904e-03 2.5799868981888828e-12 
1.5636579181406915e-02 -1.0101917076633672e-02 -9.4092304610821411e-13 
1.5636584336873954e-02 -1.0101902733883082e-02 -9.4092304660562572e-13 
3.1929506366304136e-02 -1.3998693102847015e-02 9.7065208108086792e-13 
3.1929506780245656e-02 -1.3998690529757963e-02 9.7065208039816785e-13 
5.2693077501327075e-02 -1.7263160597655387e-02 1.9435542319232813e-12 
5.2693071858986043e-02 -1.7263152864963677e-02 1.9435542311876415e-12 
7.7155220991474829e-02 -2.0049275181549777e-02 1.2650353067628276e-21 
7.7155225603687844e-02 -2.0049269209705369e-02 1.0058516248644817e-21 
1.0537651708945563e-01 -2.2783534031522588e-02 9.5109617180635488e-13 
1.0537655529195057e-01 -2.2783530160537482e-02 9.5109617175892952e-13 
1.3678059587760974e-01 -2.4813429595685086e-02 4.5616939675350209e-14 
1.3678060619592575e-01 -2.4813409588051220e-02 4.5616939045589611e-14 
1.7034932203817471e-01 -2.6271685020633734e-02 1.9515139667423439e-14 
1.7034932137110764e-01 -2.6271694386612764e-02 1.9515139461179318e-14 
2.0529691713590509e-01 -2.7280058533212841e-02 1.4323348503891776e-12 
2.0529691677494397e-01 -2.7280079605724993e-02 1.4323348510299665e-12 
2.4111152764684055e-01 -2.7903193320681603e-02 -2.2289756006611613e-21 
2.4111154069807367e-01 -2.7903168317907560e-02 -7.9409338805090657e-22 
2.7762266094278487e-01 -2.8436314533049570e-02 -9.3050021764379482e-15 
2.7762268031013415e-01 -2.8436318267884932e-02 -9.3050012709513277e-15 
3.1453993181831769e-01 -2.8640956768036060e-02 -1.0093020491295503e-12 
3.1453995885041974e-01 -2.8640925278086565e-02 -1.0093020480123053e-12 
3.5147513864302499e-01 -2.8799387357614826e-02 -2.0556725943952974e-12 
3.5147511884547888e-01 -2.8799366496529682e-02 -2.0556725931721735e-12 
3.8849352611597998e-01 -2.8767527388349999e-02 -4.9158306563764840e-13 
3.8849353440347129e-01 -2.8767523592182754e-02 -4.9158306430864532e-13 

