# vtk DataFile Version 2.0

ASCII

DATASET UNSTRUCTURED_GRID

POINTS 68 float 

-5.0000000000000003e-02  0.0000000000000000e+00  0.0000000000000000e+00
-5.0000000000000003e-02  6.6666666669999999e-02  0.0000000000000000e+00
-5.0000000000000003e-02  6.6666666669999999e-02  2.9999999999999999e-01
-5.0000000000000003e-02  0.0000000000000000e+00  2.9999999999999999e-01
-5.0000000000000003e-02  1.3333333330000000e-01  0.0000000000000000e+00
-5.0000000000000003e-02  1.3333333330000000e-01  2.9999999999999999e-01
-5.0000000000000003e-02  2.0000000000000001e-01  0.0000000000000000e+00
-5.0000000000000003e-02  2.0000000000000001e-01  2.9999999999999999e-01
-5.0000000000000003e-02  2.6666666670000000e-01  0.0000000000000000e+00
-5.0000000000000003e-02  2.6666666670000000e-01  2.9999999999999999e-01
-5.0000000000000003e-02  3.3333333329999998e-01  0.0000000000000000e+00
-5.0000000000000003e-02  3.3333333329999998e-01  2.9999999999999999e-01
-5.0000000000000003e-02  4.0000000000000002e-01  0.0000000000000000e+00
-5.0000000000000003e-02  4.0000000000000002e-01  2.9999999999999999e-01
-5.0000000000000003e-02  4.6666666670000001e-01  0.0000000000000000e+00
-5.0000000000000003e-02  4.6666666670000001e-01  2.9999999999999999e-01
-5.0000000000000003e-02  5.3333333329999999e-01  0.0000000000000000e+00
-5.0000000000000003e-02  5.3333333329999999e-01  2.9999999999999999e-01
-5.0000000000000003e-02  5.9999999999999998e-01  0.0000000000000000e+00
-5.0000000000000003e-02  5.9999999999999998e-01  2.9999999999999999e-01
-5.0000000000000003e-02  6.6666666669999997e-01  0.0000000000000000e+00
-5.0000000000000003e-02  6.6666666669999997e-01  2.9999999999999999e-01
-5.0000000000000003e-02  7.3333333329999995e-01  0.0000000000000000e+00
-5.0000000000000003e-02  7.3333333329999995e-01  2.9999999999999999e-01
-5.0000000000000003e-02  8.0000000000000004e-01  0.0000000000000000e+00
-5.0000000000000003e-02  8.0000000000000004e-01  2.9999999999999999e-01
-5.0000000000000003e-02  8.6666666670000003e-01  0.0000000000000000e+00
-5.0000000000000003e-02  8.6666666670000003e-01  2.9999999999999999e-01
-5.0000000000000003e-02  9.3333333330000001e-01  0.0000000000000000e+00
-5.0000000000000003e-02  9.3333333330000001e-01  2.9999999999999999e-01
-5.0000000000000003e-02  1.0000000000000000e+00  0.0000000000000000e+00
-5.0000000000000003e-02  1.0000000000000000e+00  2.9999999999999999e-01
-1.6666666670000000e-02  1.0000000000000000e+00  0.0000000000000000e+00
-1.6666666670000000e-02  1.0000000000000000e+00  2.9999999999999999e-01
1.6666666670000000e-02  1.0000000000000000e+00  0.0000000000000000e+00
1.6666666670000000e-02  1.0000000000000000e+00  2.9999999999999999e-01
5.0000000000000003e-02  1.0000000000000000e+00  0.0000000000000000e+00
5.0000000000000003e-02  1.0000000000000000e+00  2.9999999999999999e-01
5.0000000000000003e-02  0.0000000000000000e+00  0.0000000000000000e+00
5.0000000000000003e-02  0.0000000000000000e+00  2.9999999999999999e-01
5.0000000000000003e-02  6.6666666669999999e-02  2.9999999999999999e-01
5.0000000000000003e-02  6.6666666669999999e-02  0.0000000000000000e+00
5.0000000000000003e-02  1.3333333330000000e-01  2.9999999999999999e-01
5.0000000000000003e-02  1.3333333330000000e-01  0.0000000000000000e+00
5.0000000000000003e-02  2.0000000000000001e-01  2.9999999999999999e-01
5.0000000000000003e-02  2.0000000000000001e-01  0.0000000000000000e+00
5.0000000000000003e-02  2.6666666670000000e-01  2.9999999999999999e-01
5.0000000000000003e-02  2.6666666670000000e-01  0.0000000000000000e+00
5.0000000000000003e-02  3.3333333329999998e-01  2.9999999999999999e-01
5.0000000000000003e-02  3.3333333329999998e-01  0.0000000000000000e+00
5.0000000000000003e-02  4.0000000000000002e-01  2.9999999999999999e-01
5.0000000000000003e-02  4.0000000000000002e-01  0.0000000000000000e+00
5.0000000000000003e-02  4.6666666670000001e-01  2.9999999999999999e-01
5.0000000000000003e-02  4.6666666670000001e-01  0.0000000000000000e+00
5.0000000000000003e-02  5.3333333329999999e-01  2.9999999999999999e-01
5.0000000000000003e-02  5.3333333329999999e-01  0.0000000000000000e+00
5.0000000000000003e-02  5.9999999999999998e-01  2.9999999999999999e-01
5.0000000000000003e-02  5.9999999999999998e-01  0.0000000000000000e+00
5.0000000000000003e-02  6.6666666669999997e-01  2.9999999999999999e-01
5.0000000000000003e-02  6.6666666669999997e-01  0.0000000000000000e+00
5.0000000000000003e-02  7.3333333329999995e-01  2.9999999999999999e-01
5.0000000000000003e-02  7.3333333329999995e-01  0.0000000000000000e+00
5.0000000000000003e-02  8.0000000000000004e-01  2.9999999999999999e-01
5.0000000000000003e-02  8.0000000000000004e-01  0.0000000000000000e+00
5.0000000000000003e-02  8.6666666670000003e-01  2.9999999999999999e-01
5.0000000000000003e-02  8.6666666670000003e-01  0.0000000000000000e+00
5.0000000000000003e-02  9.3333333330000001e-01  2.9999999999999999e-01
5.0000000000000003e-02  9.3333333330000001e-01  0.0000000000000000e+00

CELLS 0 0


CELL_TYPES 0


POINT_DATA 68

VECTORS VertexNormals float

0.0000000000000000e+00 0.0000000000000000e+00 0.0000000000000000e+00 
0.0000000000000000e+00 0.0000000000000000e+00 0.0000000000000000e+00 
0.0000000000000000e+00 0.0000000000000000e+00 0.0000000000000000e+00 
0.0000000000000000e+00 0.0000000000000000e+00 0.0000000000000000e+00 
0.0000000000000000e+00 0.0000000000000000e+00 0.0000000000000000e+00 
0.0000000000000000e+00 0.0000000000000000e+00 0.0000000000000000e+00 
0.0000000000000000e+00 0.0000000000000000e+00 0.0000000000000000e+00 
0.0000000000000000e+00 0.0000000000000000e+00 0.0000000000000000e+00 
0.0000000000000000e+00 0.0000000000000000e+00 0.0000000000000000e+00 
0.0000000000000000e+00 0.0000000000000000e+00 0.0000000000000000e+00 
0.0000000000000000e+00 0.0000000000000000e+00 0.0000000000000000e+00 
0.0000000000000000e+00 0.0000000000000000e+00 0.0000000000000000e+00 
0.0000000000000000e+00 0.0000000000000000e+00 0.0000000000000000e+00 
0.0000000000000000e+00 0.0000000000000000e+00 0.0000000000000000e+00 
0.0000000000000000e+00 0.0000000000000000e+00 0.0000000000000000e+00 
0.0000000000000000e+00 0.0000000000000000e+00 0.0000000000000000e+00 
0.0000000000000000e+00 0.0000000000000000e+00 0.0000000000000000e+00 
0.0000000000000000e+00 0.0000000000000000e+00 0.0000000000000000e+00 
0.0000000000000000e+00 0.0000000000000000e+00 0.0000000000000000e+00 
0.0000000000000000e+00 0.0000000000000000e+00 0.0000000000000000e+00 
0.0000000000000000e+00 0.0000000000000000e+00 0.0000000000000000e+00 
0.0000000000000000e+00 0.0000000000000000e+00 0.0000000000000000e+00 
0.0000000000000000e+00 0.0000000000000000e+00 0.0000000000000000e+00 
0.0000000000000000e+00 0.0000000000000000e+00 0.0000000000000000e+00 
0.0000000000000000e+00 0.0000000000000000e+00 0.0000000000000000e+00 
0.0000000000000000e+00 0.0000000000000000e+00 0.0000000000000000e+00 
0.0000000000000000e+00 0.0000000000000000e+00 0.0000000000000000e+00 
0.0000000000000000e+00 0.0000000000000000e+00 0.0000000000000000e+00 
0.0000000000000000e+00 0.0000000000000000e+00 0.0000000000000000e+00 
0.0000000000000000e+00 0.0000000000000000e+00 0.0000000000000000e+00 
0.0000000000000000e+00 0.0000000000000000e+00 0.0000000000000000e+00 
0.0000000000000000e+00 0.0000000000000000e+00 0.0000000000000000e+00 
0.0000000000000000e+00 0.0000000000000000e+00 0.0000000000000000e+00 
0.0000000000000000e+00 0.0000000000000000e+00 0.0000000000000000e+00 
0.0000000000000000e+00 0.0000000000000000e+00 0.0000000000000000e+00 
0.0000000000000000e+00 0.0000000000000000e+00 0.0000000000000000e+00 
0.0000000000000000e+00 0.0000000000000000e+00 0.0000000000000000e+00 
0.0000000000000000e+00 0.0000000000000000e+00 0.0000000000000000e+00 
0.0000000000000000e+00 0.0000000000000000e+00 0.0000000000000000e+00 
0.0000000000000000e+00 0.0000000000000000e+00 0.0000000000000000e+00 
0.0000000000000000e+00 0.0000000000000000e+00 0.0000000000000000e+00 
0.0000000000000000e+00 0.0000000000000000e+00 0.0000000000000000e+00 
0.0000000000000000e+00 0.0000000000000000e+00 0.0000000000000000e+00 
0.0000000000000000e+00 0.0000000000000000e+00 0.0000000000000000e+00 
0.0000000000000000e+00 0.0000000000000000e+00 0.0000000000000000e+00 
0.0000000000000000e+00 0.0000000000000000e+00 0.0000000000000000e+00 
0.0000000000000000e+00 0.0000000000000000e+00 0.0000000000000000e+00 
0.0000000000000000e+00 0.0000000000000000e+00 0.0000000000000000e+00 
0.0000000000000000e+00 0.0000000000000000e+00 0.0000000000000000e+00 
0.0000000000000000e+00 0.0000000000000000e+00 0.0000000000000000e+00 
0.0000000000000000e+00 0.0000000000000000e+00 0.0000000000000000e+00 
0.0000000000000000e+00 0.0000000000000000e+00 0.0000000000000000e+00 
0.0000000000000000e+00 0.0000000000000000e+00 0.0000000000000000e+00 
0.0000000000000000e+00 0.0000000000000000e+00 0.0000000000000000e+00 
0.0000000000000000e+00 0.0000000000000000e+00 0.0000000000000000e+00 
0.0000000000000000e+00 0.0000000000000000e+00 0.0000000000000000e+00 
0.0000000000000000e+00 0.0000000000000000e+00 0.0000000000000000e+00 
0.0000000000000000e+00 0.0000000000000000e+00 0.0000000000000000e+00 
0.0000000000000000e+00 0.0000000000000000e+00 0.0000000000000000e+00 
0.0000000000000000e+00 0.0000000000000000e+00 0.0000000000000000e+00 
0.0000000000000000e+00 0.0000000000000000e+00 0.0000000000000000e+00 
0.0000000000000000e+00 0.0000000000000000e+00 0.0000000000000000e+00 
0.0000000000000000e+00 0.0000000000000000e+00 0.0000000000000000e+00 
0.0000000000000000e+00 0.0000000000000000e+00 0.0000000000000000e+00 
0.0000000000000000e+00 0.0000000000000000e+00 0.0000000000000000e+00 
0.0000000000000000e+00 0.0000000000000000e+00 0.0000000000000000e+00 
0.0000000000000000e+00 0.0000000000000000e+00 0.0000000000000000e+00 
0.0000000000000000e+00 0.0000000000000000e+00 0.0000000000000000e+00 

VECTORS Displacement float
-3.1294411506621600e-15 -1.4918621893400541e-16 3.8199200687698818e-21 
2.5900921398753583e-03 3.2916147997892001e-03 1.4921075997012081e-12 
2.5901015382728443e-03 3.2916085062364413e-03 1.4921076020847139e-12 
-2.7192440815334040e-16 -1.2840781955462299e-16 1.8816835424554399e-22 
9.3299119889502583e-03 6.6188353998165913e-03 -5.7470380035019359e-13 
9.3299321669896868e-03 6.6188257663138223e-03 -5.7470380085189388e-13 
2.0250047717875367e-02 9.5215664040504428e-03 -1.4662780893752942e-12 
2.0250042713731618e-02 9.5215434001690667e-03 -1.4662780897975850e-12 
3.4901464740810843e-02 1.2312185367486557e-02 -8.5052385272056401e-13 
3.4901437844079279e-02 1.2312194391708333e-02 -8.5052385330167364e-13 
5.3261622827885720e-02 1.5000463479479642e-02 -1.2767532754755982e-21 
5.3261610265363191e-02 1.5000449482484413e-02 -1.8049233317009762e-21 
7.5216739981414871e-02 1.7498628229227455e-02 4.3879965648107391e-12 
7.5216744022568990e-02 1.7498645164337183e-02 4.3879965643090387e-12 
1.0004922044765502e-01 1.9686474184466559e-02 1.5255418555316316e-12 
1.0004923867934003e-01 1.9686468575722555e-02 1.5255418554005084e-12 
1.2753058998803027e-01 2.1427606935424989e-02 -2.0588629476173532e-12 
1.2753059205687489e-01 2.1427591002940019e-02 -2.0588629475631882e-12 
1.5691419996330400e-01 2.2994953438943387e-02 -5.1021594001836468e-12 
1.5691417316699968e-01 2.2994944926037795e-02 -5.1021594000765423e-12 
1.8847634024332885e-01 2.4654042447672588e-02 2.7888394352225328e-21 
1.8847635931007542e-01 2.4654033514829581e-02 2.7635951914293957e-21 
2.2218613857211475e-01 2.5926254421308775e-02 -1.6454088850621890e-13 
2.2218614031984754e-01 2.5926234489967021e-02 -1.6454088839911426e-13 
2.5706046285475304e-01 2.6545201977251028e-02 -3.7846226667104216e-13 
2.5706045346882017e-01 2.6545191863198772e-02 -3.7846226647129329e-13 
2.9235260836458754e-01 2.6826143580783099e-02 -5.4825968902730797e-13 
2.9235258744853804e-01 2.6826141547030478e-02 -5.4825968857609619e-13 
3.2759203395332820e-01 2.6804230306114632e-02 -1.4299303135911626e-12 
3.2759202711903751e-01 2.6804229539911680e-02 -1.4299303132855345e-12 
3.6254347353548144e-01 2.6667183618538110e-02 4.3840572465310467e-23 
3.6254347294505390e-01 2.6667181798719200e-02 4.1564302269762660e-22 
3.6256780826468082e-01 9.2342669288486938e-03 1.4161332086907834e-21 
3.6256780362190416e-01 9.2342540712894387e-03 1.8408752181264933e-21 
3.6259538421699589e-01 -8.2908791419675845e-03 9.6283823301172421e-22 
3.6259536948067300e-01 -8.2908610842843140e-03 1.3743453526465857e-21 
3.6261310520519441e-01 -2.5778825206175297e-02 3.3624891900280575e-22 
3.6261309195092595e-01 -2.5778797912681135e-02 6.2864203043003122e-22 
-2.1510571102112408e-16 2.9490299091605721e-17 1.4732086709569423e-21 
-1.8865768130645366e-16 -1.2181346664176910e-17 8.7886416572732210e-22 
2.5947967064511115e-03 -3.3901302782402640e-03 -1.6980388564328066e-12 
2.5947859586322834e-03 -3.3901366347117434e-03 -1.6980388554281806e-12 
9.3493441372207494e-03 -6.6711904001253500e-03 4.2555344970668047e-13 
9.3493308452135826e-03 -6.6712115746513610e-03 4.2555345060542746e-13 
2.0287668272817364e-02 -9.5839956085329789e-03 2.2708446323667723e-12 
2.0287693370508432e-02 -9.5840233202063758e-03 2.2708446328155331e-12 
3.4893506329529998e-02 -1.2305664028992344e-02 6.4918155675892273e-13 
3.4893529654668388e-02 -1.2305657092720496e-02 6.4918155752532081e-13 
5.3336181222065307e-02 -1.5056753199326301e-02 1.8259859671005388e-21 
5.3336188195711079e-02 -1.5056775346778736e-02 2.3276862437242199e-21 
7.5234513393125368e-02 -1.7307591640173495e-02 -4.7161231832958740e-12 
7.5234526232463877e-02 -1.7307591929526699e-02 -4.7161231830324017e-12 
1.0010110564370785e-01 -1.9332507243514690e-02 -9.6511277182370430e-13 
1.0010109694241189e-01 -1.9332514641672443e-02 -9.6511277161317169e-13 
1.2751757700217292e-01 -2.1065909845540222e-02 1.9147825115695542e-12 
1.2751759833512674e-01 -2.1065918014635338e-02 1.9147825113565705e-12 
1.5706414478170952e-01 -2.2538664293268302e-02 4.0122998212249323e-12 
1.5706417486093185e-01 -2.2538664524894551e-02 4.0122998213295860e-12 
1.8848580308271159e-01 -2.4087600293489320e-02 -1.8818511286684078e-21 
1.8848580839176304e-01 -2.4087594338225857e-02 -1.7771975460701800e-21 
2.2217114549537254e-01 -2.5286338336354353e-02 2.7367104740011790e-13 
2.2217114072343647e-01 -2.5286349286786317e-02 2.7367104726654348e-13 
2.5708390464369391e-01 -2.5866376169369491e-02 9.8420481696574692e-13 
2.5708391464348240e-01 -2.5866385858998791e-02 9.8420481660717927e-13 
2.9232330051115635e-01 -2.5890202381254918e-02 7.2392833090574774e-13 
2.9232333135851019e-01 -2.5890211685894206e-02 7.2392833069276398e-13 
3.2758626409930730e-01 -2.5827966835751840e-02 1.3517767249357922e-12 
3.2758627908827725e-01 -2.5827979423676012e-02 1.3517767243191442e-12 

