# vtk DataFile Version 2.0

ASCII

DATASET UNSTRUCTURED_GRID

POINTS 33 double 

-5.0000000000000003e-02  3.3333333335000000e-02  1.4999999999999997e-01
-5.0000000000000003e-02  9.9999999985000018e-02  1.4999999999999999e-01
-5.0000000000000003e-02  1.6666666665000002e-01  1.4999999999999999e-01
-5.0000000000000003e-02  2.3333333334999998e-01  1.4999999999999999e-01
-5.0000000000000003e-02  2.9999999999999993e-01  1.4999999999999997e-01
-5.0000000000000003e-02  3.6666666665000003e-01  1.4999999999999999e-01
-5.0000000000000003e-02  4.3333333335000002e-01  1.4999999999999999e-01
-5.0000000000000003e-02  5.0000000000000000e-01  1.4999999999999997e-01
-5.0000000000000003e-02  5.6666666664999987e-01  1.4999999999999999e-01
-5.0000000000000003e-02  6.3333333334999986e-01  1.4999999999999999e-01
-5.0000000000000003e-02  6.9999999999999984e-01  1.4999999999999997e-01
-5.0000000000000003e-02  7.6666666664999994e-01  1.4999999999999999e-01
-4.9999999999999996e-02  8.3333333334999982e-01  1.4999999999999999e-01
-5.0000000000000003e-02  8.9999999999999991e-01  1.4999999999999997e-01
-5.0000000000000003e-02  9.6666666664999990e-01  1.4999999999999999e-01
-3.3333333335000000e-02  9.9999999999999978e-01  1.4999999999999997e-01
0.0000000000000000e+00  1.0000000000000000e+00  1.4999999999999997e-01
3.3333333335000007e-02  1.0000000000000000e+00  1.4999999999999999e-01
5.0000000000000003e-02  3.3333333335000000e-02  1.4999999999999999e-01
5.0000000000000003e-02  9.9999999985000004e-02  1.4999999999999999e-01
5.0000000000000003e-02  1.6666666664999999e-01  1.4999999999999999e-01
5.0000000000000003e-02  2.3333333334999998e-01  1.4999999999999999e-01
5.0000000000000003e-02  2.9999999999999993e-01  1.4999999999999997e-01
5.0000000000000003e-02  3.6666666665000003e-01  1.4999999999999999e-01
5.0000000000000003e-02  4.3333333334999991e-01  1.4999999999999999e-01
5.0000000000000003e-02  5.0000000000000000e-01  1.4999999999999997e-01
5.0000000000000003e-02  5.6666666664999987e-01  1.4999999999999999e-01
5.0000000000000003e-02  6.3333333334999997e-01  1.4999999999999999e-01
5.0000000000000003e-02  6.9999999999999984e-01  1.4999999999999997e-01
5.0000000000000003e-02  7.6666666664999994e-01  1.4999999999999999e-01
5.0000000000000003e-02  8.3333333334999993e-01  1.4999999999999999e-01
5.0000000000000010e-02  8.9999999999999991e-01  1.4999999999999999e-01
5.0000000000000003e-02  9.6666666664999990e-01  1.4999999999999999e-01

CELLS 0 0


CELL_TYPES 0


POINT_DATA 33

VECTORS VertexNormals double

0.0000000000000000e+00 0.0000000000000000e+00 0.0000000000000000e+00 
0.0000000000000000e+00 0.0000000000000000e+00 0.0000000000000000e+00 
0.0000000000000000e+00 0.0000000000000000e+00 0.0000000000000000e+00 
0.0000000000000000e+00 0.0000000000000000e+00 0.0000000000000000e+00 
0.0000000000000000e+00 0.0000000000000000e+00 0.0000000000000000e+00 
0.0000000000000000e+00 0.0000000000000000e+00 0.0000000000000000e+00 
0.0000000000000000e+00 0.0000000000000000e+00 0.0000000000000000e+00 
0.0000000000000000e+00 0.0000000000000000e+00 0.0000000000000000e+00 
0.0000000000000000e+00 0.0000000000000000e+00 0.0000000000000000e+00 
0.0000000000000000e+00 0.0000000000000000e+00 0.0000000000000000e+00 
0.0000000000000000e+00 0.0000000000000000e+00 0.0000000000000000e+00 
0.0000000000000000e+00 0.0000000000000000e+00 0.0000000000000000e+00 
0.0000000000000000e+00 0.0000000000000000e+00 0.0000000000000000e+00 
0.0000000000000000e+00 0.0000000000000000e+00 0.0000000000000000e+00 
0.0000000000000000e+00 0.0000000000000000e+00 0.0000000000000000e+00 
0.0000000000000000e+00 0.0000000000000000e+00 0.0000000000000000e+00 
0.0000000000000000e+00 0.0000000000000000e+00 0.0000000000000000e+00 
0.0000000000000000e+00 0.0000000000000000e+00 0.0000000000000000e+00 
0.0000000000000000e+00 0.0000000000000000e+00 0.0000000000000000e+00 
0.0000000000000000e+00 0.0000000000000000e+00 0.0000000000000000e+00 
0.0000000000000000e+00 0.0000000000000000e+00 0.0000000000000000e+00 
0.0000000000000000e+00 0.0000000000000000e+00 0.0000000000000000e+00 
0.0000000000000000e+00 0.0000000000000000e+00 0.0000000000000000e+00 
0.0000000000000000e+00 0.0000000000000000e+00 0.0000000000000000e+00 
0.0000000000000000e+00 0.0000000000000000e+00 0.0000000000000000e+00 
0.0000000000000000e+00 0.0000000000000000e+00 0.0000000000000000e+00 
0.0000000000000000e+00 0.0000000000000000e+00 0.0000000000000000e+00 
0.0000000000000000e+00 0.0000000000000000e+00 0.0000000000000000e+00 
0.0000000000000000e+00 0.0000000000000000e+00 0.0000000000000000e+00 
0.0000000000000000e+00 0.0000000000000000e+00 0.0000000000000000e+00 
0.0000000000000000e+00 0.0000000000000000e+00 0.0000000000000000e+00 
0.0000000000000000e+00 0.0000000000000000e+00 0.0000000000000000e+00 
0.0000000000000000e+00 0.0000000000000000e+00 0.0000000000000000e+00 

VECTORS Stress double
1.1130033406667631e+02 -3.6622733233927698e+00 3.5117530701806405e-13 
1.1133756151489496e+02 -7.6173281211820427e+00 5.3529638491047957e-13 
1.1087273883178641e+02 -1.1052687818396429e+01 1.7956609234728457e-13 
1.0991146288061950e+02 -1.3482009194323178e+01 1.0522293098912247e-13 
1.0865166696931000e+02 -1.4527647631680509e+01 1.1044036168760999e-13 
1.0734681470494783e+02 -1.3558332107014895e+01 -1.2589906034907899e-13 
1.0576059076592284e+02 -1.1424483286590945e+01 -4.4624112326869590e-13 
1.0358290987972033e+02 -8.9577348659801146e+00 -5.1294492065760274e-13 
1.0071435945424767e+02 -6.2228318103323144e+00 -3.2922682081310662e-13 
9.6878478253410165e+01 -3.4531472857140129e+00 -1.3676518880341216e-13 
9.1483428658745396e+01 -1.3528659490386488e+00 2.8610675839738755e-13 
8.3872028137523372e+01 -4.1300579919163499e-02 6.2626779611610246e-14 
7.2974758594038676e+01 8.3258866587994995e-01 -5.3647940146849369e-13 
5.5801789329394140e+01 9.7031720113150821e-01 -4.9583821885780431e-13 
2.4583246905741987e+01 6.7854193138708774e-01 -1.8325180127505946e-13 
-1.4250507780952568e+00 1.4173273974377508e+02 9.7142431533916482e-20 
-1.2982591624917275e+00 1.2277219565631751e+02 -8.5548939775245983e-17 
-1.2947340555160745e+00 9.9468908734604852e+01 1.2604476336409036e-19 
7.0810917742536915e+01 -2.5205478788632849e+00 -1.6178811563179550e-13 
7.0477645705721997e+01 -5.0892993715379307e+00 -1.7031571976515915e-13 
7.0388520965815005e+01 -7.2788827085529979e+00 -1.2567353642683671e-13 
7.0841194374743409e+01 -8.9129235875961008e+00 -3.6494216935515027e-13 
7.2283087834261423e+01 -9.6213674350227869e+00 -2.4789783612370878e-13 
7.4915003986593234e+01 -9.2643361254407548e+00 7.9580635315699553e-14 
7.8405283690134496e+01 -8.1657379849764204e+00 9.4122173780357364e-14 
8.2165866227218260e+01 -6.8099648843570169e+00 -1.4724597328037236e-13 
8.5778327638395922e+01 -5.0422443838544631e+00 -2.8361629000417029e-13 
8.8674365764766279e+01 -3.0108717336329165e+00 -1.2209963825943654e-13 
9.0279277224530489e+01 -1.2889594561850268e+00 5.2886795459131600e-15 
9.0486545210569631e+01 -1.1257554207803683e-01 4.4733674475725050e-13 
8.9507946784766588e+01 8.6359379697056460e-01 8.0297465947951589e-13 
8.7438996871695920e+01 1.1669060984546156e+00 1.3874748378895809e-13 
8.4622711332906803e+01 1.2037387958294878e+00 -2.2243329696920320e-13 

