# vtk DataFile Version 2.0

ASCII

DATASET UNSTRUCTURED_GRID

POINTS 68 float 

-5.0000000000000003e-02  0.0000000000000000e+00  0.0000000000000000e+00
-5.0000000000000003e-02  6.6666666669999999e-02  0.0000000000000000e+00
-5.0000000000000003e-02  6.6666666669999999e-02  2.9999999999999999e-01
-5.0000000000000003e-02  0.0000000000000000e+00  2.9999999999999999e-01
-5.0000000000000003e-02  1.3333333330000000e-01  0.0000000000000000e+00
-5.0000000000000003e-02  1.3333333330000000e-01  2.9999999999999999e-01
-5.0000000000000003e-02  2.0000000000000001e-01  0.0000000000000000e+00
-5.0000000000000003e-02  2.0000000000000001e-01  2.9999999999999999e-01
-5.0000000000000003e-02  2.6666666670000000e-01  0.0000000000000000e+00
-5.0000000000000003e-02  2.6666666670000000e-01  2.9999999999999999e-01
-5.0000000000000003e-02  3.3333333329999998e-01  0.0000000000000000e+00
-5.0000000000000003e-02  3.3333333329999998e-01  2.9999999999999999e-01
-5.0000000000000003e-02  4.0000000000000002e-01  0.0000000000000000e+00
-5.0000000000000003e-02  4.0000000000000002e-01  2.9999999999999999e-01
-5.0000000000000003e-02  4.6666666670000001e-01  0.0000000000000000e+00
-5.0000000000000003e-02  4.6666666670000001e-01  2.9999999999999999e-01
-5.0000000000000003e-02  5.3333333329999999e-01  0.0000000000000000e+00
-5.0000000000000003e-02  5.3333333329999999e-01  2.9999999999999999e-01
-5.0000000000000003e-02  5.9999999999999998e-01  0.0000000000000000e+00
-5.0000000000000003e-02  5.9999999999999998e-01  2.9999999999999999e-01
-5.0000000000000003e-02  6.6666666669999997e-01  0.0000000000000000e+00
-5.0000000000000003e-02  6.6666666669999997e-01  2.9999999999999999e-01
-5.0000000000000003e-02  7.3333333329999995e-01  0.0000000000000000e+00
-5.0000000000000003e-02  7.3333333329999995e-01  2.9999999999999999e-01
-5.0000000000000003e-02  8.0000000000000004e-01  0.0000000000000000e+00
-5.0000000000000003e-02  8.0000000000000004e-01  2.9999999999999999e-01
-5.0000000000000003e-02  8.6666666670000003e-01  0.0000000000000000e+00
-5.0000000000000003e-02  8.6666666670000003e-01  2.9999999999999999e-01
-5.0000000000000003e-02  9.3333333330000001e-01  0.0000000000000000e+00
-5.0000000000000003e-02  9.3333333330000001e-01  2.9999999999999999e-01
-5.0000000000000003e-02  1.0000000000000000e+00  0.0000000000000000e+00
-5.0000000000000003e-02  1.0000000000000000e+00  2.9999999999999999e-01
-1.6666666670000000e-02  1.0000000000000000e+00  0.0000000000000000e+00
-1.6666666670000000e-02  1.0000000000000000e+00  2.9999999999999999e-01
1.6666666670000000e-02  1.0000000000000000e+00  0.0000000000000000e+00
1.6666666670000000e-02  1.0000000000000000e+00  2.9999999999999999e-01
5.0000000000000003e-02  1.0000000000000000e+00  0.0000000000000000e+00
5.0000000000000003e-02  1.0000000000000000e+00  2.9999999999999999e-01
5.0000000000000003e-02  0.0000000000000000e+00  0.0000000000000000e+00
5.0000000000000003e-02  0.0000000000000000e+00  2.9999999999999999e-01
5.0000000000000003e-02  6.6666666669999999e-02  2.9999999999999999e-01
5.0000000000000003e-02  6.6666666669999999e-02  0.0000000000000000e+00
5.0000000000000003e-02  1.3333333330000000e-01  2.9999999999999999e-01
5.0000000000000003e-02  1.3333333330000000e-01  0.0000000000000000e+00
5.0000000000000003e-02  2.0000000000000001e-01  2.9999999999999999e-01
5.0000000000000003e-02  2.0000000000000001e-01  0.0000000000000000e+00
5.0000000000000003e-02  2.6666666670000000e-01  2.9999999999999999e-01
5.0000000000000003e-02  2.6666666670000000e-01  0.0000000000000000e+00
5.0000000000000003e-02  3.3333333329999998e-01  2.9999999999999999e-01
5.0000000000000003e-02  3.3333333329999998e-01  0.0000000000000000e+00
5.0000000000000003e-02  4.0000000000000002e-01  2.9999999999999999e-01
5.0000000000000003e-02  4.0000000000000002e-01  0.0000000000000000e+00
5.0000000000000003e-02  4.6666666670000001e-01  2.9999999999999999e-01
5.0000000000000003e-02  4.6666666670000001e-01  0.0000000000000000e+00
5.0000000000000003e-02  5.3333333329999999e-01  2.9999999999999999e-01
5.0000000000000003e-02  5.3333333329999999e-01  0.0000000000000000e+00
5.0000000000000003e-02  5.9999999999999998e-01  2.9999999999999999e-01
5.0000000000000003e-02  5.9999999999999998e-01  0.0000000000000000e+00
5.0000000000000003e-02  6.6666666669999997e-01  2.9999999999999999e-01
5.0000000000000003e-02  6.6666666669999997e-01  0.0000000000000000e+00
5.0000000000000003e-02  7.3333333329999995e-01  2.9999999999999999e-01
5.0000000000000003e-02  7.3333333329999995e-01  0.0000000000000000e+00
5.0000000000000003e-02  8.0000000000000004e-01  2.9999999999999999e-01
5.0000000000000003e-02  8.0000000000000004e-01  0.0000000000000000e+00
5.0000000000000003e-02  8.6666666670000003e-01  2.9999999999999999e-01
5.0000000000000003e-02  8.6666666670000003e-01  0.0000000000000000e+00
5.0000000000000003e-02  9.3333333330000001e-01  2.9999999999999999e-01
5.0000000000000003e-02  9.3333333330000001e-01  0.0000000000000000e+00

CELLS 0 0


CELL_TYPES 0


POINT_DATA 68

VECTORS VertexNormals float

0.0000000000000000e+00 0.0000000000000000e+00 0.0000000000000000e+00 
0.0000000000000000e+00 0.0000000000000000e+00 0.0000000000000000e+00 
0.0000000000000000e+00 0.0000000000000000e+00 0.0000000000000000e+00 
0.0000000000000000e+00 0.0000000000000000e+00 0.0000000000000000e+00 
0.0000000000000000e+00 0.0000000000000000e+00 0.0000000000000000e+00 
0.0000000000000000e+00 0.0000000000000000e+00 0.0000000000000000e+00 
0.0000000000000000e+00 0.0000000000000000e+00 0.0000000000000000e+00 
0.0000000000000000e+00 0.0000000000000000e+00 0.0000000000000000e+00 
0.0000000000000000e+00 0.0000000000000000e+00 0.0000000000000000e+00 
0.0000000000000000e+00 0.0000000000000000e+00 0.0000000000000000e+00 
0.0000000000000000e+00 0.0000000000000000e+00 0.0000000000000000e+00 
0.0000000000000000e+00 0.0000000000000000e+00 0.0000000000000000e+00 
0.0000000000000000e+00 0.0000000000000000e+00 0.0000000000000000e+00 
0.0000000000000000e+00 0.0000000000000000e+00 0.0000000000000000e+00 
0.0000000000000000e+00 0.0000000000000000e+00 0.0000000000000000e+00 
0.0000000000000000e+00 0.0000000000000000e+00 0.0000000000000000e+00 
0.0000000000000000e+00 0.0000000000000000e+00 0.0000000000000000e+00 
0.0000000000000000e+00 0.0000000000000000e+00 0.0000000000000000e+00 
0.0000000000000000e+00 0.0000000000000000e+00 0.0000000000000000e+00 
0.0000000000000000e+00 0.0000000000000000e+00 0.0000000000000000e+00 
0.0000000000000000e+00 0.0000000000000000e+00 0.0000000000000000e+00 
0.0000000000000000e+00 0.0000000000000000e+00 0.0000000000000000e+00 
0.0000000000000000e+00 0.0000000000000000e+00 0.0000000000000000e+00 
0.0000000000000000e+00 0.0000000000000000e+00 0.0000000000000000e+00 
0.0000000000000000e+00 0.0000000000000000e+00 0.0000000000000000e+00 
0.0000000000000000e+00 0.0000000000000000e+00 0.0000000000000000e+00 
0.0000000000000000e+00 0.0000000000000000e+00 0.0000000000000000e+00 
0.0000000000000000e+00 0.0000000000000000e+00 0.0000000000000000e+00 
0.0000000000000000e+00 0.0000000000000000e+00 0.0000000000000000e+00 
0.0000000000000000e+00 0.0000000000000000e+00 0.0000000000000000e+00 
0.0000000000000000e+00 0.0000000000000000e+00 0.0000000000000000e+00 
0.0000000000000000e+00 0.0000000000000000e+00 0.0000000000000000e+00 
0.0000000000000000e+00 0.0000000000000000e+00 0.0000000000000000e+00 
0.0000000000000000e+00 0.0000000000000000e+00 0.0000000000000000e+00 
0.0000000000000000e+00 0.0000000000000000e+00 0.0000000000000000e+00 
0.0000000000000000e+00 0.0000000000000000e+00 0.0000000000000000e+00 
0.0000000000000000e+00 0.0000000000000000e+00 0.0000000000000000e+00 
0.0000000000000000e+00 0.0000000000000000e+00 0.0000000000000000e+00 
0.0000000000000000e+00 0.0000000000000000e+00 0.0000000000000000e+00 
0.0000000000000000e+00 0.0000000000000000e+00 0.0000000000000000e+00 
0.0000000000000000e+00 0.0000000000000000e+00 0.0000000000000000e+00 
0.0000000000000000e+00 0.0000000000000000e+00 0.0000000000000000e+00 
0.0000000000000000e+00 0.0000000000000000e+00 0.0000000000000000e+00 
0.0000000000000000e+00 0.0000000000000000e+00 0.0000000000000000e+00 
0.0000000000000000e+00 0.0000000000000000e+00 0.0000000000000000e+00 
0.0000000000000000e+00 0.0000000000000000e+00 0.0000000000000000e+00 
0.0000000000000000e+00 0.0000000000000000e+00 0.0000000000000000e+00 
0.0000000000000000e+00 0.0000000000000000e+00 0.0000000000000000e+00 
0.0000000000000000e+00 0.0000000000000000e+00 0.0000000000000000e+00 
0.0000000000000000e+00 0.0000000000000000e+00 0.0000000000000000e+00 
0.0000000000000000e+00 0.0000000000000000e+00 0.0000000000000000e+00 
0.0000000000000000e+00 0.0000000000000000e+00 0.0000000000000000e+00 
0.0000000000000000e+00 0.0000000000000000e+00 0.0000000000000000e+00 
0.0000000000000000e+00 0.0000000000000000e+00 0.0000000000000000e+00 
0.0000000000000000e+00 0.0000000000000000e+00 0.0000000000000000e+00 
0.0000000000000000e+00 0.0000000000000000e+00 0.0000000000000000e+00 
0.0000000000000000e+00 0.0000000000000000e+00 0.0000000000000000e+00 
0.0000000000000000e+00 0.0000000000000000e+00 0.0000000000000000e+00 
0.0000000000000000e+00 0.0000000000000000e+00 0.0000000000000000e+00 
0.0000000000000000e+00 0.0000000000000000e+00 0.0000000000000000e+00 
0.0000000000000000e+00 0.0000000000000000e+00 0.0000000000000000e+00 
0.0000000000000000e+00 0.0000000000000000e+00 0.0000000000000000e+00 
0.0000000000000000e+00 0.0000000000000000e+00 0.0000000000000000e+00 
0.0000000000000000e+00 0.0000000000000000e+00 0.0000000000000000e+00 
0.0000000000000000e+00 0.0000000000000000e+00 0.0000000000000000e+00 
0.0000000000000000e+00 0.0000000000000000e+00 0.0000000000000000e+00 
0.0000000000000000e+00 0.0000000000000000e+00 0.0000000000000000e+00 
0.0000000000000000e+00 0.0000000000000000e+00 0.0000000000000000e+00 

VECTORS Displacement float
-1.8388068845354155e-15 -1.6826817716975029e-16 3.3087224502121107e-22 
2.1942966355701430e-03 2.4377390146812141e-03 6.6418742639474642e-13 
2.1942977517168381e-03 2.4377513252470256e-03 6.6418743263931249e-13 
-1.9633006107493004e-16 -6.5485724157364997e-17 -2.7816288126262225e-21 
7.2542404172226578e-03 4.7005181579574500e-03 8.2566969963979181e-13 
7.2542355783681775e-03 4.7005296543299662e-03 8.2566969995512725e-13 
1.5422779550715800e-02 6.6372170209571387e-03 -4.2157540254906861e-13 
1.5422792277922927e-02 6.6372169553407679e-03 -4.2157540297488704e-13 
2.5993430034138967e-02 8.1346887427415342e-03 -1.3533235775289599e-12 
2.5993430772487242e-02 8.1346947811791678e-03 -1.3533235773195037e-12 
3.8631211466928467e-02 9.6079591550636088e-03 -1.0587911840678754e-21 
3.8631220706521072e-02 9.6079579526375768e-03 -1.2728513753295000e-21 
5.3335170812026489e-02 1.0838261868602372e-02 4.1632583454329715e-13 
5.3335196407954227e-02 1.0838260556991670e-02 4.1632583475275343e-13 
6.9579049901849238e-02 1.2026650038902355e-02 -2.6776864853394415e-13 
6.9579049681629659e-02 1.2026646142581737e-02 -2.6776864811272963e-13 
8.7527753989179710e-02 1.3232648421506002e-02 -3.7663977996031715e-13 
8.7527747724921390e-02 1.3232646807546282e-02 -3.7663977953910264e-13 
1.0709024181547043e-01 1.3868255558590458e-02 8.5365606918129530e-13 
1.0709024034361801e-01 1.3868271167233576e-02 8.5365606981426810e-13 
1.2697902774781672e-01 1.4023979985738247e-02 -1.4823076576950256e-21 
1.2697906297572684e-01 1.4023978381707762e-02 -2.1198843225838003e-21 
1.4662802276768724e-01 1.3736607311592928e-02 7.3676490433790859e-14 
1.4662804262465851e-01 1.3736615009935643e-02 7.3676489796214189e-14 
1.6595229498038494e-01 1.3619572043623719e-02 -5.6820165127664189e-13 
1.6595230099015942e-01 1.3619567236688831e-02 -5.6820165159658115e-13 
1.8497698845864230e-01 1.3483409706955975e-02 -7.6715575318892556e-13 
1.8497699866679210e-01 1.3483401947149858e-02 -7.6715575372062306e-13 
2.0392675377503916e-01 1.3499012940777357e-02 -8.7424634163319387e-13 
2.0392676576375937e-01 1.3499013998960530e-02 -8.7424634227077049e-13 
2.2288100982392575e-01 1.3576823406137639e-02 9.5291206566108788e-22 
2.2288105384996582e-01 1.3576842043954124e-02 -2.1406019126162467e-22 
2.2287577856669410e-01 4.0664730663199384e-03 1.7999450129153882e-21 
2.2287581078124416e-01 4.0664673686624502e-03 2.0623408544843076e-21 
2.2287907582633215e-01 -5.4487698387910228e-03 7.9409338805090657e-22 
2.2287911188771772e-01 -5.4487756356006349e-03 6.3297275599267567e-22 
2.2288264438825903e-01 -1.4912959248379098e-02 1.0587911840678754e-22 
2.2288268275740891e-01 -1.4912985569473170e-02 -2.1406019126162467e-22 
-1.3704315460216776e-16 1.3877787807814457e-17 -1.7867101231145398e-21 
-1.7030920893527793e-16 5.6379383576840943e-18 -1.3390258243337422e-21 
2.3180090314638903e-03 -2.6087906372007827e-03 -6.9474116455426174e-13 
2.3180139948988580e-03 -2.6087814533237337e-03 -6.9474116434020160e-13 
7.3363649321531929e-03 -5.0561018219431415e-03 -5.0769881281089285e-13 
7.3363766831053504e-03 -5.0560847058967670e-03 -5.0769881280859094e-13 
1.5539329462511169e-02 -7.2869758479568161e-03 2.3961995857244545e-13 
1.5539324189051514e-02 -7.2869623286673027e-03 2.3961995878650564e-13 
2.6087978655016688e-02 -9.0768535077629837e-03 1.0500598547311029e-12 
2.6087990129368105e-02 -9.0768459312889141e-03 1.0500598547334049e-12 
3.8712287290658828e-02 -1.0742671402814031e-02 -2.3019544480495872e-24 
3.8712289244276984e-02 -1.0742671359058811e-02 4.2351647362715017e-22 
5.3481694930366086e-02 -1.2171627079587055e-02 5.1211802869639471e-13 
5.3481690632534148e-02 -1.2171626851101170e-02 5.1211802869869662e-13 
6.9571393078193808e-02 -1.3494603661763260e-02 4.0002904832603925e-13 
6.9571397666772158e-02 -1.3494613866409122e-02 4.0002904769306650e-13 
8.7669730252956490e-02 -1.4781282671309038e-02 1.0627263481548940e-12 
8.7669756478424551e-02 -1.4781290950784896e-02 1.0627263479454378e-12 
1.0707772411393247e-01 -1.5537550480184776e-02 -2.8943866723793203e-13 
1.0707772974303642e-01 -1.5537544436567102e-02 -2.8943866681211360e-13 
1.2707616433421956e-01 -1.5610704595027856e-02 8.4473099280625075e-22 
1.2707615659824345e-01 -1.5610710637263979e-02 1.2705494208814505e-21 
1.4665349474836548e-01 -1.5363443629236376e-02 3.9866572920979655e-13 
1.4665349628690930e-01 -1.5363443915338448e-02 3.9866572889446115e-13 
1.6596500353555210e-01 -1.5199284136737521e-02 7.3436366566827028e-13 
1.6596499179264254e-01 -1.5199282951145972e-02 7.3436366588233042e-13 
1.8506408438285654e-01 -1.5060173747463258e-02 3.1751741185871855e-13 
1.8506408463263185e-01 -1.5060181118636062e-02 3.1751741154338316e-13 
2.0394046423396156e-01 -1.4912599917329863e-02 -1.9129151075588446e-12 
2.0394045220513685e-01 -1.4912598138582256e-02 -1.9129151070271472e-12 

