# vtk DataFile Version 2.0

ASCII

DATASET UNSTRUCTURED_GRID

POINTS 68 float 

-5.0000000000000003e-02  0.0000000000000000e+00  0.0000000000000000e+00
-5.0000000000000003e-02  6.6666666669999999e-02  0.0000000000000000e+00
-5.0000000000000003e-02  6.6666666669999999e-02  2.9999999999999999e-01
-5.0000000000000003e-02  0.0000000000000000e+00  2.9999999999999999e-01
-5.0000000000000003e-02  1.3333333330000000e-01  0.0000000000000000e+00
-5.0000000000000003e-02  1.3333333330000000e-01  2.9999999999999999e-01
-5.0000000000000003e-02  2.0000000000000001e-01  0.0000000000000000e+00
-5.0000000000000003e-02  2.0000000000000001e-01  2.9999999999999999e-01
-5.0000000000000003e-02  2.6666666670000000e-01  0.0000000000000000e+00
-5.0000000000000003e-02  2.6666666670000000e-01  2.9999999999999999e-01
-5.0000000000000003e-02  3.3333333329999998e-01  0.0000000000000000e+00
-5.0000000000000003e-02  3.3333333329999998e-01  2.9999999999999999e-01
-5.0000000000000003e-02  4.0000000000000002e-01  0.0000000000000000e+00
-5.0000000000000003e-02  4.0000000000000002e-01  2.9999999999999999e-01
-5.0000000000000003e-02  4.6666666670000001e-01  0.0000000000000000e+00
-5.0000000000000003e-02  4.6666666670000001e-01  2.9999999999999999e-01
-5.0000000000000003e-02  5.3333333329999999e-01  0.0000000000000000e+00
-5.0000000000000003e-02  5.3333333329999999e-01  2.9999999999999999e-01
-5.0000000000000003e-02  5.9999999999999998e-01  0.0000000000000000e+00
-5.0000000000000003e-02  5.9999999999999998e-01  2.9999999999999999e-01
-5.0000000000000003e-02  6.6666666669999997e-01  0.0000000000000000e+00
-5.0000000000000003e-02  6.6666666669999997e-01  2.9999999999999999e-01
-5.0000000000000003e-02  7.3333333329999995e-01  0.0000000000000000e+00
-5.0000000000000003e-02  7.3333333329999995e-01  2.9999999999999999e-01
-5.0000000000000003e-02  8.0000000000000004e-01  0.0000000000000000e+00
-5.0000000000000003e-02  8.0000000000000004e-01  2.9999999999999999e-01
-5.0000000000000003e-02  8.6666666670000003e-01  0.0000000000000000e+00
-5.0000000000000003e-02  8.6666666670000003e-01  2.9999999999999999e-01
-5.0000000000000003e-02  9.3333333330000001e-01  0.0000000000000000e+00
-5.0000000000000003e-02  9.3333333330000001e-01  2.9999999999999999e-01
-5.0000000000000003e-02  1.0000000000000000e+00  0.0000000000000000e+00
-5.0000000000000003e-02  1.0000000000000000e+00  2.9999999999999999e-01
-1.6666666670000000e-02  1.0000000000000000e+00  0.0000000000000000e+00
-1.6666666670000000e-02  1.0000000000000000e+00  2.9999999999999999e-01
1.6666666670000000e-02  1.0000000000000000e+00  0.0000000000000000e+00
1.6666666670000000e-02  1.0000000000000000e+00  2.9999999999999999e-01
5.0000000000000003e-02  1.0000000000000000e+00  0.0000000000000000e+00
5.0000000000000003e-02  1.0000000000000000e+00  2.9999999999999999e-01
5.0000000000000003e-02  0.0000000000000000e+00  0.0000000000000000e+00
5.0000000000000003e-02  0.0000000000000000e+00  2.9999999999999999e-01
5.0000000000000003e-02  6.6666666669999999e-02  2.9999999999999999e-01
5.0000000000000003e-02  6.6666666669999999e-02  0.0000000000000000e+00
5.0000000000000003e-02  1.3333333330000000e-01  2.9999999999999999e-01
5.0000000000000003e-02  1.3333333330000000e-01  0.0000000000000000e+00
5.0000000000000003e-02  2.0000000000000001e-01  2.9999999999999999e-01
5.0000000000000003e-02  2.0000000000000001e-01  0.0000000000000000e+00
5.0000000000000003e-02  2.6666666670000000e-01  2.9999999999999999e-01
5.0000000000000003e-02  2.6666666670000000e-01  0.0000000000000000e+00
5.0000000000000003e-02  3.3333333329999998e-01  2.9999999999999999e-01
5.0000000000000003e-02  3.3333333329999998e-01  0.0000000000000000e+00
5.0000000000000003e-02  4.0000000000000002e-01  2.9999999999999999e-01
5.0000000000000003e-02  4.0000000000000002e-01  0.0000000000000000e+00
5.0000000000000003e-02  4.6666666670000001e-01  2.9999999999999999e-01
5.0000000000000003e-02  4.6666666670000001e-01  0.0000000000000000e+00
5.0000000000000003e-02  5.3333333329999999e-01  2.9999999999999999e-01
5.0000000000000003e-02  5.3333333329999999e-01  0.0000000000000000e+00
5.0000000000000003e-02  5.9999999999999998e-01  2.9999999999999999e-01
5.0000000000000003e-02  5.9999999999999998e-01  0.0000000000000000e+00
5.0000000000000003e-02  6.6666666669999997e-01  2.9999999999999999e-01
5.0000000000000003e-02  6.6666666669999997e-01  0.0000000000000000e+00
5.0000000000000003e-02  7.3333333329999995e-01  2.9999999999999999e-01
5.0000000000000003e-02  7.3333333329999995e-01  0.0000000000000000e+00
5.0000000000000003e-02  8.0000000000000004e-01  2.9999999999999999e-01
5.0000000000000003e-02  8.0000000000000004e-01  0.0000000000000000e+00
5.0000000000000003e-02  8.6666666670000003e-01  2.9999999999999999e-01
5.0000000000000003e-02  8.6666666670000003e-01  0.0000000000000000e+00
5.0000000000000003e-02  9.3333333330000001e-01  2.9999999999999999e-01
5.0000000000000003e-02  9.3333333330000001e-01  0.0000000000000000e+00

CELLS 0 0


CELL_TYPES 0


POINT_DATA 68

VECTORS VertexNormals float

0.0000000000000000e+00 0.0000000000000000e+00 0.0000000000000000e+00 
0.0000000000000000e+00 0.0000000000000000e+00 0.0000000000000000e+00 
0.0000000000000000e+00 0.0000000000000000e+00 0.0000000000000000e+00 
0.0000000000000000e+00 0.0000000000000000e+00 0.0000000000000000e+00 
0.0000000000000000e+00 0.0000000000000000e+00 0.0000000000000000e+00 
0.0000000000000000e+00 0.0000000000000000e+00 0.0000000000000000e+00 
0.0000000000000000e+00 0.0000000000000000e+00 0.0000000000000000e+00 
0.0000000000000000e+00 0.0000000000000000e+00 0.0000000000000000e+00 
0.0000000000000000e+00 0.0000000000000000e+00 0.0000000000000000e+00 
0.0000000000000000e+00 0.0000000000000000e+00 0.0000000000000000e+00 
0.0000000000000000e+00 0.0000000000000000e+00 0.0000000000000000e+00 
0.0000000000000000e+00 0.0000000000000000e+00 0.0000000000000000e+00 
0.0000000000000000e+00 0.0000000000000000e+00 0.0000000000000000e+00 
0.0000000000000000e+00 0.0000000000000000e+00 0.0000000000000000e+00 
0.0000000000000000e+00 0.0000000000000000e+00 0.0000000000000000e+00 
0.0000000000000000e+00 0.0000000000000000e+00 0.0000000000000000e+00 
0.0000000000000000e+00 0.0000000000000000e+00 0.0000000000000000e+00 
0.0000000000000000e+00 0.0000000000000000e+00 0.0000000000000000e+00 
0.0000000000000000e+00 0.0000000000000000e+00 0.0000000000000000e+00 
0.0000000000000000e+00 0.0000000000000000e+00 0.0000000000000000e+00 
0.0000000000000000e+00 0.0000000000000000e+00 0.0000000000000000e+00 
0.0000000000000000e+00 0.0000000000000000e+00 0.0000000000000000e+00 
0.0000000000000000e+00 0.0000000000000000e+00 0.0000000000000000e+00 
0.0000000000000000e+00 0.0000000000000000e+00 0.0000000000000000e+00 
0.0000000000000000e+00 0.0000000000000000e+00 0.0000000000000000e+00 
0.0000000000000000e+00 0.0000000000000000e+00 0.0000000000000000e+00 
0.0000000000000000e+00 0.0000000000000000e+00 0.0000000000000000e+00 
0.0000000000000000e+00 0.0000000000000000e+00 0.0000000000000000e+00 
0.0000000000000000e+00 0.0000000000000000e+00 0.0000000000000000e+00 
0.0000000000000000e+00 0.0000000000000000e+00 0.0000000000000000e+00 
0.0000000000000000e+00 0.0000000000000000e+00 0.0000000000000000e+00 
0.0000000000000000e+00 0.0000000000000000e+00 0.0000000000000000e+00 
0.0000000000000000e+00 0.0000000000000000e+00 0.0000000000000000e+00 
0.0000000000000000e+00 0.0000000000000000e+00 0.0000000000000000e+00 
0.0000000000000000e+00 0.0000000000000000e+00 0.0000000000000000e+00 
0.0000000000000000e+00 0.0000000000000000e+00 0.0000000000000000e+00 
0.0000000000000000e+00 0.0000000000000000e+00 0.0000000000000000e+00 
0.0000000000000000e+00 0.0000000000000000e+00 0.0000000000000000e+00 
0.0000000000000000e+00 0.0000000000000000e+00 0.0000000000000000e+00 
0.0000000000000000e+00 0.0000000000000000e+00 0.0000000000000000e+00 
0.0000000000000000e+00 0.0000000000000000e+00 0.0000000000000000e+00 
0.0000000000000000e+00 0.0000000000000000e+00 0.0000000000000000e+00 
0.0000000000000000e+00 0.0000000000000000e+00 0.0000000000000000e+00 
0.0000000000000000e+00 0.0000000000000000e+00 0.0000000000000000e+00 
0.0000000000000000e+00 0.0000000000000000e+00 0.0000000000000000e+00 
0.0000000000000000e+00 0.0000000000000000e+00 0.0000000000000000e+00 
0.0000000000000000e+00 0.0000000000000000e+00 0.0000000000000000e+00 
0.0000000000000000e+00 0.0000000000000000e+00 0.0000000000000000e+00 
0.0000000000000000e+00 0.0000000000000000e+00 0.0000000000000000e+00 
0.0000000000000000e+00 0.0000000000000000e+00 0.0000000000000000e+00 
0.0000000000000000e+00 0.0000000000000000e+00 0.0000000000000000e+00 
0.0000000000000000e+00 0.0000000000000000e+00 0.0000000000000000e+00 
0.0000000000000000e+00 0.0000000000000000e+00 0.0000000000000000e+00 
0.0000000000000000e+00 0.0000000000000000e+00 0.0000000000000000e+00 
0.0000000000000000e+00 0.0000000000000000e+00 0.0000000000000000e+00 
0.0000000000000000e+00 0.0000000000000000e+00 0.0000000000000000e+00 
0.0000000000000000e+00 0.0000000000000000e+00 0.0000000000000000e+00 
0.0000000000000000e+00 0.0000000000000000e+00 0.0000000000000000e+00 
0.0000000000000000e+00 0.0000000000000000e+00 0.0000000000000000e+00 
0.0000000000000000e+00 0.0000000000000000e+00 0.0000000000000000e+00 
0.0000000000000000e+00 0.0000000000000000e+00 0.0000000000000000e+00 
0.0000000000000000e+00 0.0000000000000000e+00 0.0000000000000000e+00 
0.0000000000000000e+00 0.0000000000000000e+00 0.0000000000000000e+00 
0.0000000000000000e+00 0.0000000000000000e+00 0.0000000000000000e+00 
0.0000000000000000e+00 0.0000000000000000e+00 0.0000000000000000e+00 
0.0000000000000000e+00 0.0000000000000000e+00 0.0000000000000000e+00 
0.0000000000000000e+00 0.0000000000000000e+00 0.0000000000000000e+00 
0.0000000000000000e+00 0.0000000000000000e+00 0.0000000000000000e+00 

VECTORS Displacement float
-1.6106907474444654e-15 -1.9602375278537920e-16 -1.1249656330721176e-21 
2.2951388375504044e-03 2.4844590419141688e-03 6.7127717887826289e-13 
2.2951385124788857e-03 2.4844635285662079e-03 6.7127717436583119e-13 
-2.5995807592245838e-16 -7.5844801651459784e-17 6.8888003081753838e-22 
7.5158558122326701e-03 4.7140060846035834e-03 1.6683577743446131e-13 
7.5158557644099304e-03 4.7140043906769256e-03 1.6683577795128779e-13 
1.5506235930569438e-02 6.6320057157519255e-03 -1.0058455105571519e-12 
1.5506229500721010e-02 6.6320100391028189e-03 -1.0058455101462045e-12 
2.5989214555146332e-02 8.2847893197685596e-03 6.1054550731267070e-14 
2.5989225791937746e-02 8.2847994989851941e-03 6.1054551142214415e-14 
3.8469399620501610e-02 9.6862507958104943e-03 3.7057691442375640e-21 
3.8469391544757085e-02 9.6862427687281830e-03 3.9049582524237103e-21 
5.2673685273498555e-02 1.0789732441768052e-02 -1.9026308773562454e-12 
5.2673671153593150e-02 1.0789736339961772e-02 -1.9026308769452982e-12 
6.8339692533226748e-02 1.1618149839091109e-02 -4.4473143224237408e-13 
6.8339705979719736e-02 1.1618150940736052e-02 -4.4473143204318496e-13 
8.4606257362456638e-02 1.2127140988744853e-02 2.0820634846250256e-13 
8.4606272601836965e-02 1.2127127163989984e-02 2.0820634823817521e-13 
1.0155576236649780e-01 1.2503265241203572e-02 9.9499820271143128e-13 
1.0155575234954976e-01 1.2503261957006941e-02 9.9499820269886221e-13 
1.1913396640021653e-01 1.2781953491470165e-02 -1.4823076576950256e-21 
1.1913397926615123e-01 1.2781944933274511e-02 -1.4948767863224548e-21 
1.3692557835590036e-01 1.2450862875054732e-02 -1.9147057226074233e-12 
1.3692558281245532e-01 1.2450865947927700e-02 -1.9147057227258717e-12 
1.5412416379279223e-01 1.2009642620100978e-02 -1.3363665876827717e-12 
1.5412416318667307e-01 1.2009640901082834e-02 -1.3363665873777034e-12 
1.7058060858065199e-01 1.1507756335641677e-02 9.0896815623500357e-14 
1.7058062196996313e-01 1.1507749801353702e-02 9.0896815716810347e-14 
1.8653105860179137e-01 1.1295710525032178e-02 9.7142381084586182e-14 
1.8653106964429780e-01 1.1295688624020006e-02 9.7142381283775290e-14 
2.0227061766314380e-01 1.1256268627104065e-02 6.3527471044072525e-22 
2.0227060816830528e-01 1.1256252850506064e-02 3.0506822659293349e-22 
2.0225522237512572e-01 3.3612632089128191e-03 1.8528845721187820e-22 
2.0225521874081778e-01 3.3612585905630431e-03 -4.3608560225457926e-22 
2.0224526806986015e-01 -4.5488044812405605e-03 -5.2939559203393771e-22 
2.0224527001884013e-01 -4.5487978491650337e-03 -9.9195097389021395e-22 
2.0226359834610025e-01 -1.2432156014312393e-02 4.2351647362715017e-22 
2.0226360405440177e-01 -1.2432146355109369e-02 -9.1978467432519778e-23 
-2.7842311789427754e-16 2.0816681711721685e-17 -1.0455562942670270e-21 
-2.6776433156435402e-16 1.6095542575310992e-17 -8.1989740647918410e-22 
2.3874726159796166e-03 -2.5965715338376965e-03 1.2297483704953163e-12 
2.3874746921578789e-03 -2.5965642837157436e-03 1.2297483700843689e-12 
7.5471785988417894e-03 -4.9226136206145252e-03 5.0162229414714247e-13 
7.5471936861680709e-03 -4.9226170485341565e-03 5.0162229373619516e-13 
1.5499589694288567e-02 -6.9897919092675159e-03 6.1565942446167788e-13 
1.5499600103694196e-02 -6.9897935216283085e-03 6.1565942415660969e-13 
2.6014424987718322e-02 -8.7554438661475911e-03 3.6182906624017943e-13 
2.6014423097240898e-02 -8.7554401110414015e-03 3.6182906540571560e-13 
3.8460235068845737e-02 -1.0129309678400254e-02 -4.3608560225457926e-22 
3.8460247701546088e-02 -1.0129328181208356e-02 -7.4115382884751280e-22 
5.2748233668733449e-02 -1.1369908604254244e-02 1.8168147512615392e-12 
5.2748250539917246e-02 -1.1369904292608264e-02 1.8168147511682292e-12 
6.8284152270732298e-02 -1.2262908935723859e-02 3.0068888683069206e-13 
6.8284152656266570e-02 -1.2262912586832896e-02 3.0068888684326117e-13 
8.4724622491370305e-02 -1.2798317174145276e-02 -4.0282145032454273e-14 
8.4724621366393291e-02 -1.2798332738779223e-02 -4.0282144596368670e-14 
1.0152824379659826e-01 -1.3351146229066376e-02 -8.7018849669249388e-13 
1.0152825656928098e-01 -1.3351148912280439e-02 -8.7018849604465000e-13 
1.1926039489312761e-01 -1.3718160963476353e-02 1.9991341211015341e-21 
1.1926040066611902e-01 -1.3718161260339184e-02 2.1175823681357508e-21 
1.3696582623011885e-01 -1.3533505559100155e-02 2.5494830310426334e-12 
1.3696583796704365e-01 -1.3533499395206375e-02 2.5494830313728400e-12 
1.5416600109122930e-01 -1.3189857984792826e-02 1.2795706936575431e-12 
1.5416600177839110e-01 -1.3189853591451115e-02 1.2795706941465682e-12 
1.7065207781762576e-01 -1.2839935338794427e-02 -2.4164875199730576e-13 
1.7065206506034383e-01 -1.2839943205421159e-02 -2.4164875161415973e-13 
1.8656097991533135e-01 -1.2518329292335508e-02 -1.1864169060434209e-12 
1.8656096548379567e-01 -1.2518353304956747e-02 -1.1864169059249727e-12 

