# vtk DataFile Version 2.0

ASCII

DATASET UNSTRUCTURED_GRID

POINTS 33 float 

-5.0000000000000003e-02  3.3333333335000000e-02  1.4999999999999997e-01
-5.0000000000000003e-02  9.9999999985000018e-02  1.4999999999999999e-01
-5.0000000000000003e-02  1.6666666665000002e-01  1.4999999999999999e-01
-5.0000000000000003e-02  2.3333333334999998e-01  1.4999999999999999e-01
-5.0000000000000003e-02  2.9999999999999993e-01  1.4999999999999997e-01
-5.0000000000000003e-02  3.6666666665000003e-01  1.4999999999999999e-01
-5.0000000000000003e-02  4.3333333335000002e-01  1.4999999999999999e-01
-5.0000000000000003e-02  5.0000000000000000e-01  1.4999999999999997e-01
-5.0000000000000003e-02  5.6666666664999987e-01  1.4999999999999999e-01
-5.0000000000000003e-02  6.3333333334999986e-01  1.4999999999999999e-01
-5.0000000000000003e-02  6.9999999999999984e-01  1.4999999999999997e-01
-5.0000000000000003e-02  7.6666666664999994e-01  1.4999999999999999e-01
-4.9999999999999996e-02  8.3333333334999982e-01  1.4999999999999999e-01
-5.0000000000000003e-02  8.9999999999999991e-01  1.4999999999999997e-01
-5.0000000000000003e-02  9.6666666664999990e-01  1.4999999999999999e-01
-3.3333333335000000e-02  9.9999999999999978e-01  1.4999999999999997e-01
0.0000000000000000e+00  1.0000000000000000e+00  1.4999999999999997e-01
3.3333333335000007e-02  1.0000000000000000e+00  1.4999999999999999e-01
5.0000000000000003e-02  3.3333333335000000e-02  1.4999999999999999e-01
5.0000000000000003e-02  9.9999999985000004e-02  1.4999999999999999e-01
5.0000000000000003e-02  1.6666666664999999e-01  1.4999999999999999e-01
5.0000000000000003e-02  2.3333333334999998e-01  1.4999999999999999e-01
5.0000000000000003e-02  2.9999999999999993e-01  1.4999999999999997e-01
5.0000000000000003e-02  3.6666666665000003e-01  1.4999999999999999e-01
5.0000000000000003e-02  4.3333333334999991e-01  1.4999999999999999e-01
5.0000000000000003e-02  5.0000000000000000e-01  1.4999999999999997e-01
5.0000000000000003e-02  5.6666666664999987e-01  1.4999999999999999e-01
5.0000000000000003e-02  6.3333333334999997e-01  1.4999999999999999e-01
5.0000000000000003e-02  6.9999999999999984e-01  1.4999999999999997e-01
5.0000000000000003e-02  7.6666666664999994e-01  1.4999999999999999e-01
5.0000000000000003e-02  8.3333333334999993e-01  1.4999999999999999e-01
5.0000000000000010e-02  8.9999999999999991e-01  1.4999999999999999e-01
5.0000000000000003e-02  9.6666666664999990e-01  1.4999999999999999e-01

CELLS 0 0


CELL_TYPES 0


POINT_DATA 33

VECTORS VertexNormals float

0.0000000000000000e+00 0.0000000000000000e+00 0.0000000000000000e+00 
0.0000000000000000e+00 0.0000000000000000e+00 0.0000000000000000e+00 
0.0000000000000000e+00 0.0000000000000000e+00 0.0000000000000000e+00 
0.0000000000000000e+00 0.0000000000000000e+00 0.0000000000000000e+00 
0.0000000000000000e+00 0.0000000000000000e+00 0.0000000000000000e+00 
0.0000000000000000e+00 0.0000000000000000e+00 0.0000000000000000e+00 
0.0000000000000000e+00 0.0000000000000000e+00 0.0000000000000000e+00 
0.0000000000000000e+00 0.0000000000000000e+00 0.0000000000000000e+00 
0.0000000000000000e+00 0.0000000000000000e+00 0.0000000000000000e+00 
0.0000000000000000e+00 0.0000000000000000e+00 0.0000000000000000e+00 
0.0000000000000000e+00 0.0000000000000000e+00 0.0000000000000000e+00 
0.0000000000000000e+00 0.0000000000000000e+00 0.0000000000000000e+00 
0.0000000000000000e+00 0.0000000000000000e+00 0.0000000000000000e+00 
0.0000000000000000e+00 0.0000000000000000e+00 0.0000000000000000e+00 
0.0000000000000000e+00 0.0000000000000000e+00 0.0000000000000000e+00 
0.0000000000000000e+00 0.0000000000000000e+00 0.0000000000000000e+00 
0.0000000000000000e+00 0.0000000000000000e+00 0.0000000000000000e+00 
0.0000000000000000e+00 0.0000000000000000e+00 0.0000000000000000e+00 
0.0000000000000000e+00 0.0000000000000000e+00 0.0000000000000000e+00 
0.0000000000000000e+00 0.0000000000000000e+00 0.0000000000000000e+00 
0.0000000000000000e+00 0.0000000000000000e+00 0.0000000000000000e+00 
0.0000000000000000e+00 0.0000000000000000e+00 0.0000000000000000e+00 
0.0000000000000000e+00 0.0000000000000000e+00 0.0000000000000000e+00 
0.0000000000000000e+00 0.0000000000000000e+00 0.0000000000000000e+00 
0.0000000000000000e+00 0.0000000000000000e+00 0.0000000000000000e+00 
0.0000000000000000e+00 0.0000000000000000e+00 0.0000000000000000e+00 
0.0000000000000000e+00 0.0000000000000000e+00 0.0000000000000000e+00 
0.0000000000000000e+00 0.0000000000000000e+00 0.0000000000000000e+00 
0.0000000000000000e+00 0.0000000000000000e+00 0.0000000000000000e+00 
0.0000000000000000e+00 0.0000000000000000e+00 0.0000000000000000e+00 
0.0000000000000000e+00 0.0000000000000000e+00 0.0000000000000000e+00 
0.0000000000000000e+00 0.0000000000000000e+00 0.0000000000000000e+00 
0.0000000000000000e+00 0.0000000000000000e+00 0.0000000000000000e+00 

VECTORS Stress float
2.0587386116292151e+02 -7.9226324417532350e+00 -1.1223316229301732e-12 
2.0517337445633143e+02 -2.0812978050763434e+01 -1.8410662114534309e-12 
2.0332931315592353e+02 -3.3623068354836597e+01 -1.3016652067799347e-12 
1.9949503644712101e+02 -4.5285738658733258e+01 -1.2768597125648098e-13 
1.9357988466200777e+02 -5.5787613555903249e+01 4.5287190314931323e-13 
1.8625320377066825e+02 -6.4115293005110061e+01 2.9612520532055920e-12 
1.7836868465733301e+02 -6.9791726081806701e+01 3.8179587038133669e-12 
1.7034779602266940e+02 -7.3488553294652675e+01 -1.5548014581689793e-13 
1.6243959050609848e+02 -7.5634738221321328e+01 -2.8145537939723572e-12 
1.5509731659638788e+02 -7.5808886642971785e+01 -1.7886526722424545e-12 
1.4781589479078715e+02 -7.4705748600783579e+01 -1.2913731434033513e-12 
1.4023083265716230e+02 -7.2380513472564488e+01 -9.6228424440590338e-13 
1.3118086052235284e+02 -6.9285375873638827e+01 2.5762217947644078e-14 
1.1971412411378971e+02 -6.4944062019710998e+01 -9.1474889677728120e-13 
1.0498758517932552e+02 -5.7509115259139875e+01 -5.7682315626454772e-13 
-7.8622131494915024e+00 -1.4459903012470196e+01 -3.0092655381050560e-36 
-1.9757984852595360e+01 -3.5730156127042392e+01 1.8653138920470381e-16 
-2.7540072084413008e+01 -4.9693193799677715e+01 4.3358802729176576e-20 
-9.1653688445284914e+01 3.8810465261814415e+00 -6.7906216340748728e-13 
-9.1375348357729465e+01 1.0289128630820592e+01 -3.7432706172911377e-13 
-9.0867728350686747e+01 1.6623456223208372e+01 8.7609183740753551e-13 
-9.0070299801375612e+01 2.2572086832887162e+01 -7.8883982419252349e-13 
-8.8962997036062845e+01 2.8076941059628414e+01 -1.3671152660679384e-12 
-8.7648063021171012e+01 3.2747612752401615e+01 -2.8836173790154835e-12 
-8.6311158804636847e+01 3.6126880224169511e+01 -3.7104564330221828e-12 
-8.4678798457240973e+01 3.8794809608643583e+01 3.7466994068477362e-13 
-8.2839581641294899e+01 4.0344154883907350e+01 3.6751951741095990e-12 
-8.0757439689148754e+01 4.0902304749281100e+01 2.4948561502826986e-12 
-7.8376763005359436e+01 4.0697402535724315e+01 5.9366874261181434e-13 
-7.5617573578424867e+01 4.0089066963893835e+01 -4.5779296067281122e-14 
-7.2509063471336987e+01 3.9456164764705790e+01 -3.3532694897349830e-13 
-6.9275357393606214e+01 3.8481182417386243e+01 1.4444971748215777e-12 
-6.6152304474963330e+01 3.6867487133167636e+01 1.3044495315331190e-12 

