# vtk DataFile Version 2.0

ASCII

DATASET UNSTRUCTURED_GRID

POINTS 68 float 

-5.0000000000000003e-02  0.0000000000000000e+00  0.0000000000000000e+00
-5.0000000000000003e-02  6.6666666669999999e-02  0.0000000000000000e+00
-5.0000000000000003e-02  6.6666666669999999e-02  2.9999999999999999e-01
-5.0000000000000003e-02  0.0000000000000000e+00  2.9999999999999999e-01
-5.0000000000000003e-02  1.3333333330000000e-01  0.0000000000000000e+00
-5.0000000000000003e-02  1.3333333330000000e-01  2.9999999999999999e-01
-5.0000000000000003e-02  2.0000000000000001e-01  0.0000000000000000e+00
-5.0000000000000003e-02  2.0000000000000001e-01  2.9999999999999999e-01
-5.0000000000000003e-02  2.6666666670000000e-01  0.0000000000000000e+00
-5.0000000000000003e-02  2.6666666670000000e-01  2.9999999999999999e-01
-5.0000000000000003e-02  3.3333333329999998e-01  0.0000000000000000e+00
-5.0000000000000003e-02  3.3333333329999998e-01  2.9999999999999999e-01
-5.0000000000000003e-02  4.0000000000000002e-01  0.0000000000000000e+00
-5.0000000000000003e-02  4.0000000000000002e-01  2.9999999999999999e-01
-5.0000000000000003e-02  4.6666666670000001e-01  0.0000000000000000e+00
-5.0000000000000003e-02  4.6666666670000001e-01  2.9999999999999999e-01
-5.0000000000000003e-02  5.3333333329999999e-01  0.0000000000000000e+00
-5.0000000000000003e-02  5.3333333329999999e-01  2.9999999999999999e-01
-5.0000000000000003e-02  5.9999999999999998e-01  0.0000000000000000e+00
-5.0000000000000003e-02  5.9999999999999998e-01  2.9999999999999999e-01
-5.0000000000000003e-02  6.6666666669999997e-01  0.0000000000000000e+00
-5.0000000000000003e-02  6.6666666669999997e-01  2.9999999999999999e-01
-5.0000000000000003e-02  7.3333333329999995e-01  0.0000000000000000e+00
-5.0000000000000003e-02  7.3333333329999995e-01  2.9999999999999999e-01
-5.0000000000000003e-02  8.0000000000000004e-01  0.0000000000000000e+00
-5.0000000000000003e-02  8.0000000000000004e-01  2.9999999999999999e-01
-5.0000000000000003e-02  8.6666666670000003e-01  0.0000000000000000e+00
-5.0000000000000003e-02  8.6666666670000003e-01  2.9999999999999999e-01
-5.0000000000000003e-02  9.3333333330000001e-01  0.0000000000000000e+00
-5.0000000000000003e-02  9.3333333330000001e-01  2.9999999999999999e-01
-5.0000000000000003e-02  1.0000000000000000e+00  0.0000000000000000e+00
-5.0000000000000003e-02  1.0000000000000000e+00  2.9999999999999999e-01
-1.6666666670000000e-02  1.0000000000000000e+00  0.0000000000000000e+00
-1.6666666670000000e-02  1.0000000000000000e+00  2.9999999999999999e-01
1.6666666670000000e-02  1.0000000000000000e+00  0.0000000000000000e+00
1.6666666670000000e-02  1.0000000000000000e+00  2.9999999999999999e-01
5.0000000000000003e-02  1.0000000000000000e+00  0.0000000000000000e+00
5.0000000000000003e-02  1.0000000000000000e+00  2.9999999999999999e-01
5.0000000000000003e-02  0.0000000000000000e+00  0.0000000000000000e+00
5.0000000000000003e-02  0.0000000000000000e+00  2.9999999999999999e-01
5.0000000000000003e-02  6.6666666669999999e-02  2.9999999999999999e-01
5.0000000000000003e-02  6.6666666669999999e-02  0.0000000000000000e+00
5.0000000000000003e-02  1.3333333330000000e-01  2.9999999999999999e-01
5.0000000000000003e-02  1.3333333330000000e-01  0.0000000000000000e+00
5.0000000000000003e-02  2.0000000000000001e-01  2.9999999999999999e-01
5.0000000000000003e-02  2.0000000000000001e-01  0.0000000000000000e+00
5.0000000000000003e-02  2.6666666670000000e-01  2.9999999999999999e-01
5.0000000000000003e-02  2.6666666670000000e-01  0.0000000000000000e+00
5.0000000000000003e-02  3.3333333329999998e-01  2.9999999999999999e-01
5.0000000000000003e-02  3.3333333329999998e-01  0.0000000000000000e+00
5.0000000000000003e-02  4.0000000000000002e-01  2.9999999999999999e-01
5.0000000000000003e-02  4.0000000000000002e-01  0.0000000000000000e+00
5.0000000000000003e-02  4.6666666670000001e-01  2.9999999999999999e-01
5.0000000000000003e-02  4.6666666670000001e-01  0.0000000000000000e+00
5.0000000000000003e-02  5.3333333329999999e-01  2.9999999999999999e-01
5.0000000000000003e-02  5.3333333329999999e-01  0.0000000000000000e+00
5.0000000000000003e-02  5.9999999999999998e-01  2.9999999999999999e-01
5.0000000000000003e-02  5.9999999999999998e-01  0.0000000000000000e+00
5.0000000000000003e-02  6.6666666669999997e-01  2.9999999999999999e-01
5.0000000000000003e-02  6.6666666669999997e-01  0.0000000000000000e+00
5.0000000000000003e-02  7.3333333329999995e-01  2.9999999999999999e-01
5.0000000000000003e-02  7.3333333329999995e-01  0.0000000000000000e+00
5.0000000000000003e-02  8.0000000000000004e-01  2.9999999999999999e-01
5.0000000000000003e-02  8.0000000000000004e-01  0.0000000000000000e+00
5.0000000000000003e-02  8.6666666670000003e-01  2.9999999999999999e-01
5.0000000000000003e-02  8.6666666670000003e-01  0.0000000000000000e+00
5.0000000000000003e-02  9.3333333330000001e-01  2.9999999999999999e-01
5.0000000000000003e-02  9.3333333330000001e-01  0.0000000000000000e+00

CELLS 0 0


CELL_TYPES 0


POINT_DATA 68

VECTORS VertexNormals float

0.0000000000000000e+00 0.0000000000000000e+00 0.0000000000000000e+00 
0.0000000000000000e+00 0.0000000000000000e+00 0.0000000000000000e+00 
0.0000000000000000e+00 0.0000000000000000e+00 0.0000000000000000e+00 
0.0000000000000000e+00 0.0000000000000000e+00 0.0000000000000000e+00 
0.0000000000000000e+00 0.0000000000000000e+00 0.0000000000000000e+00 
0.0000000000000000e+00 0.0000000000000000e+00 0.0000000000000000e+00 
0.0000000000000000e+00 0.0000000000000000e+00 0.0000000000000000e+00 
0.0000000000000000e+00 0.0000000000000000e+00 0.0000000000000000e+00 
0.0000000000000000e+00 0.0000000000000000e+00 0.0000000000000000e+00 
0.0000000000000000e+00 0.0000000000000000e+00 0.0000000000000000e+00 
0.0000000000000000e+00 0.0000000000000000e+00 0.0000000000000000e+00 
0.0000000000000000e+00 0.0000000000000000e+00 0.0000000000000000e+00 
0.0000000000000000e+00 0.0000000000000000e+00 0.0000000000000000e+00 
0.0000000000000000e+00 0.0000000000000000e+00 0.0000000000000000e+00 
0.0000000000000000e+00 0.0000000000000000e+00 0.0000000000000000e+00 
0.0000000000000000e+00 0.0000000000000000e+00 0.0000000000000000e+00 
0.0000000000000000e+00 0.0000000000000000e+00 0.0000000000000000e+00 
0.0000000000000000e+00 0.0000000000000000e+00 0.0000000000000000e+00 
0.0000000000000000e+00 0.0000000000000000e+00 0.0000000000000000e+00 
0.0000000000000000e+00 0.0000000000000000e+00 0.0000000000000000e+00 
0.0000000000000000e+00 0.0000000000000000e+00 0.0000000000000000e+00 
0.0000000000000000e+00 0.0000000000000000e+00 0.0000000000000000e+00 
0.0000000000000000e+00 0.0000000000000000e+00 0.0000000000000000e+00 
0.0000000000000000e+00 0.0000000000000000e+00 0.0000000000000000e+00 
0.0000000000000000e+00 0.0000000000000000e+00 0.0000000000000000e+00 
0.0000000000000000e+00 0.0000000000000000e+00 0.0000000000000000e+00 
0.0000000000000000e+00 0.0000000000000000e+00 0.0000000000000000e+00 
0.0000000000000000e+00 0.0000000000000000e+00 0.0000000000000000e+00 
0.0000000000000000e+00 0.0000000000000000e+00 0.0000000000000000e+00 
0.0000000000000000e+00 0.0000000000000000e+00 0.0000000000000000e+00 
0.0000000000000000e+00 0.0000000000000000e+00 0.0000000000000000e+00 
0.0000000000000000e+00 0.0000000000000000e+00 0.0000000000000000e+00 
0.0000000000000000e+00 0.0000000000000000e+00 0.0000000000000000e+00 
0.0000000000000000e+00 0.0000000000000000e+00 0.0000000000000000e+00 
0.0000000000000000e+00 0.0000000000000000e+00 0.0000000000000000e+00 
0.0000000000000000e+00 0.0000000000000000e+00 0.0000000000000000e+00 
0.0000000000000000e+00 0.0000000000000000e+00 0.0000000000000000e+00 
0.0000000000000000e+00 0.0000000000000000e+00 0.0000000000000000e+00 
0.0000000000000000e+00 0.0000000000000000e+00 0.0000000000000000e+00 
0.0000000000000000e+00 0.0000000000000000e+00 0.0000000000000000e+00 
0.0000000000000000e+00 0.0000000000000000e+00 0.0000000000000000e+00 
0.0000000000000000e+00 0.0000000000000000e+00 0.0000000000000000e+00 
0.0000000000000000e+00 0.0000000000000000e+00 0.0000000000000000e+00 
0.0000000000000000e+00 0.0000000000000000e+00 0.0000000000000000e+00 
0.0000000000000000e+00 0.0000000000000000e+00 0.0000000000000000e+00 
0.0000000000000000e+00 0.0000000000000000e+00 0.0000000000000000e+00 
0.0000000000000000e+00 0.0000000000000000e+00 0.0000000000000000e+00 
0.0000000000000000e+00 0.0000000000000000e+00 0.0000000000000000e+00 
0.0000000000000000e+00 0.0000000000000000e+00 0.0000000000000000e+00 
0.0000000000000000e+00 0.0000000000000000e+00 0.0000000000000000e+00 
0.0000000000000000e+00 0.0000000000000000e+00 0.0000000000000000e+00 
0.0000000000000000e+00 0.0000000000000000e+00 0.0000000000000000e+00 
0.0000000000000000e+00 0.0000000000000000e+00 0.0000000000000000e+00 
0.0000000000000000e+00 0.0000000000000000e+00 0.0000000000000000e+00 
0.0000000000000000e+00 0.0000000000000000e+00 0.0000000000000000e+00 
0.0000000000000000e+00 0.0000000000000000e+00 0.0000000000000000e+00 
0.0000000000000000e+00 0.0000000000000000e+00 0.0000000000000000e+00 
0.0000000000000000e+00 0.0000000000000000e+00 0.0000000000000000e+00 
0.0000000000000000e+00 0.0000000000000000e+00 0.0000000000000000e+00 
0.0000000000000000e+00 0.0000000000000000e+00 0.0000000000000000e+00 
0.0000000000000000e+00 0.0000000000000000e+00 0.0000000000000000e+00 
0.0000000000000000e+00 0.0000000000000000e+00 0.0000000000000000e+00 
0.0000000000000000e+00 0.0000000000000000e+00 0.0000000000000000e+00 
0.0000000000000000e+00 0.0000000000000000e+00 0.0000000000000000e+00 
0.0000000000000000e+00 0.0000000000000000e+00 0.0000000000000000e+00 
0.0000000000000000e+00 0.0000000000000000e+00 0.0000000000000000e+00 
0.0000000000000000e+00 0.0000000000000000e+00 0.0000000000000000e+00 
0.0000000000000000e+00 0.0000000000000000e+00 0.0000000000000000e+00 

VECTORS Displacement float
-3.9204750557075840e-15 -3.1225022567582528e-17 -4.0498762790596235e-21 
3.2113566224595391e-03 3.8313122547430131e-03 2.5855840714431996e-12 
3.2113698709337105e-03 3.8313267740094589e-03 2.5855840660144052e-12 
-3.5685053375526365e-16 -9.3365525343796818e-17 9.9012719688874778e-22 
1.1172117518041437e-02 7.4745350761849325e-03 7.3991239108876064e-13 
1.1172123905028072e-02 7.4745437923280957e-03 7.3991239135096892e-13 
2.3836483838894716e-02 1.0963932563235875e-02 1.2050372124373902e-12 
2.3836474171845097e-02 1.0963951413390622e-02 1.2050372124878402e-12 
4.1138868955871148e-02 1.4210991603878197e-02 2.0357713472151061e-13 
4.1138883299035360e-02 1.4211018316011823e-02 2.0357713466608151e-13 
6.2785366250905861e-02 1.7128621510910290e-02 5.8233515123733148e-22 
6.2785392968537398e-02 1.7128641528878556e-02 9.5042252748620245e-22 
8.8320030843526826e-02 1.9669273771737130e-02 -3.7852952370053130e-12 
8.8320044671155742e-02 1.9669261481121872e-02 -3.7852952360019510e-12 
1.1686057653172535e-01 2.1796987908351217e-02 -7.4816471536385984e-13 
1.1686059642585654e-01 2.1796999521182418e-02 -7.4816471504871200e-13 
1.4820079328947761e-01 2.3467200739606130e-02 2.6206011111731431e-12 
1.4820082827407083e-01 2.3467182848802948e-02 2.6206011113824117e-12 
1.8142756404746363e-01 2.4538955617624199e-02 4.1386228200063627e-12 
1.8142756539089830e-01 2.4538962241828270e-02 4.1386228209038456e-12 
2.1569669108007605e-01 2.5327490549849237e-02 -1.9719985803264180e-21 
2.1569671848682617e-01 2.5327498594692615e-02 -1.3921529672639719e-21 
2.5110751745191195e-01 2.5967558887995252e-02 6.9722428229441728e-13 
2.5110753226085758e-01 2.5967556130690961e-02 6.9722428260956512e-13 
2.8736345946639308e-01 2.6183514421318395e-02 -9.4821675375699650e-13 
2.8736347263592049e-01 2.6183513437257330e-02 -9.4821675338890920e-13 
3.2361420361648863e-01 2.6041240415723838e-02 -2.9208061335025448e-13 
3.2361421233398530e-01 2.6041237943169426e-02 -2.9208061320716021e-13 
3.5941548382820421e-01 2.5658640331826115e-02 -2.0288067743162628e-13 
3.5941546260105178e-01 2.5658641176984961e-02 -2.0288067722235759e-13 
3.9464163452058243e-01 2.5370342564286955e-02 -4.1028158382630173e-22 
3.9464163551161463e-01 2.5370369912035243e-02 -1.0836865658167297e-22 
3.9470381472143146e-01 7.8395685891550302e-03 -1.6808310047077522e-21 
3.9470380590171067e-01 7.8395720147779110e-03 -1.4318576366665173e-21 
3.9476127830799035e-01 -9.7979090051902237e-03 -8.5365039215472456e-22 
3.9476127681742323e-01 -9.7979161138173360e-03 -5.9144213431264114e-22 
3.9475615883294102e-01 -2.7491673760027941e-02 -1.4558378780933287e-22 
3.9475617821368819e-01 -2.7491704466135716e-02 -4.3262345670245982e-22 
-2.6714741530042829e-16 7.4593109467002705e-17 -3.5403330217269584e-22 
-2.6317546605251606e-16 4.5412352734347750e-17 -1.2399517345542148e-21 
3.2334153460816428e-03 -4.0104478142049642e-03 1.3221377890419311e-12 
3.2334265190078967e-03 -4.0104303344876292e-03 1.3221377887664880e-12 
1.1236486698831712e-02 -7.7922751476870774e-03 -7.4028271920298055e-13 
1.1236489899201606e-02 -7.7922754385940270e-03 -7.4028271978282618e-13 
2.3913361989879894e-02 -1.1406006805328895e-02 -7.8075341579509753e-13 
2.3913386177558685e-02 -1.1406002253933564e-02 -7.8075341603083603e-13 
4.1229826167859800e-02 -1.4849437755638014e-02 5.8304698524321340e-13 
4.1229835733045353e-02 -1.4849423227250583e-02 5.8304698450454909e-13 
6.2876112269644110e-02 -1.8017407477033238e-02 -1.0877505018444577e-21 
6.2876093156701243e-02 -1.8017392083567872e-02 -1.6675961149069038e-21 
8.8430592011903619e-02 -2.0608124917693042e-02 4.8343919832202971e-12 
8.8430608639997826e-02 -2.0608142338068236e-02 4.8343919825875120e-12 
1.1693464375002528e-01 -2.2777889533344756e-02 1.7982693667292099e-12 
1.1693463386067336e-01 -2.2777861931251427e-02 1.7982693667316995e-12 
1.4828398120861455e-01 -2.4656208818565343e-02 -2.7408124267701048e-12 
1.4828396117671783e-01 -2.4656217221596007e-02 -2.7408124265558570e-12 
1.8154886761969949e-01 -2.5823366722277235e-02 -4.4118600067150621e-12 
1.8154887748226306e-01 -2.5823370649624526e-02 -4.4118600074007867e-12 
2.1582837653214598e-01 -2.6637353645385418e-02 -5.7158979961136847e-22 
2.1582838182573394e-01 -2.6637329500611630e-02 -7.2791893904666435e-22 
2.5116681179244110e-01 -2.7482779260452655e-02 2.5743546313552843e-13 
2.5116681005245056e-01 -2.7482772880743758e-02 2.5743546295272949e-13 
2.8744323248706161e-01 -2.7882775333834247e-02 5.7772294492281414e-13 
2.8744323562067564e-01 -2.7882756072267915e-02 5.7772294442237785e-13 
3.2373439344370014e-01 -2.7801094054162645e-02 5.5742398068709071e-13 
3.2373438916935127e-01 -2.7801093354611030e-02 5.5742398063664067e-13 
3.5946078502430451e-01 -2.7507828883919772e-02 -3.8144983720341855e-13 
3.5946080094712085e-01 -2.7507821989981796e-02 -3.8144983735974771e-13 

