# vtk DataFile Version 2.0

ASCII

DATASET UNSTRUCTURED_GRID

POINTS 33 float 

-5.0000000000000003e-02  3.3333333335000000e-02  1.4999999999999997e-01
-5.0000000000000003e-02  9.9999999985000018e-02  1.4999999999999999e-01
-5.0000000000000003e-02  1.6666666665000002e-01  1.4999999999999999e-01
-5.0000000000000003e-02  2.3333333334999998e-01  1.4999999999999999e-01
-5.0000000000000003e-02  2.9999999999999993e-01  1.4999999999999997e-01
-5.0000000000000003e-02  3.6666666665000003e-01  1.4999999999999999e-01
-5.0000000000000003e-02  4.3333333335000002e-01  1.4999999999999999e-01
-5.0000000000000003e-02  5.0000000000000000e-01  1.4999999999999997e-01
-5.0000000000000003e-02  5.6666666664999987e-01  1.4999999999999999e-01
-5.0000000000000003e-02  6.3333333334999986e-01  1.4999999999999999e-01
-5.0000000000000003e-02  6.9999999999999984e-01  1.4999999999999997e-01
-5.0000000000000003e-02  7.6666666664999994e-01  1.4999999999999999e-01
-4.9999999999999996e-02  8.3333333334999982e-01  1.4999999999999999e-01
-5.0000000000000003e-02  8.9999999999999991e-01  1.4999999999999997e-01
-5.0000000000000003e-02  9.6666666664999990e-01  1.4999999999999999e-01
-3.3333333335000000e-02  9.9999999999999978e-01  1.4999999999999997e-01
0.0000000000000000e+00  1.0000000000000000e+00  1.4999999999999997e-01
3.3333333335000007e-02  1.0000000000000000e+00  1.4999999999999999e-01
5.0000000000000003e-02  3.3333333335000000e-02  1.4999999999999999e-01
5.0000000000000003e-02  9.9999999985000004e-02  1.4999999999999999e-01
5.0000000000000003e-02  1.6666666664999999e-01  1.4999999999999999e-01
5.0000000000000003e-02  2.3333333334999998e-01  1.4999999999999999e-01
5.0000000000000003e-02  2.9999999999999993e-01  1.4999999999999997e-01
5.0000000000000003e-02  3.6666666665000003e-01  1.4999999999999999e-01
5.0000000000000003e-02  4.3333333334999991e-01  1.4999999999999999e-01
5.0000000000000003e-02  5.0000000000000000e-01  1.4999999999999997e-01
5.0000000000000003e-02  5.6666666664999987e-01  1.4999999999999999e-01
5.0000000000000003e-02  6.3333333334999997e-01  1.4999999999999999e-01
5.0000000000000003e-02  6.9999999999999984e-01  1.4999999999999997e-01
5.0000000000000003e-02  7.6666666664999994e-01  1.4999999999999999e-01
5.0000000000000003e-02  8.3333333334999993e-01  1.4999999999999999e-01
5.0000000000000010e-02  8.9999999999999991e-01  1.4999999999999999e-01
5.0000000000000003e-02  9.6666666664999990e-01  1.4999999999999999e-01

CELLS 0 0


CELL_TYPES 0


POINT_DATA 33

VECTORS VertexNormals float

0.0000000000000000e+00 0.0000000000000000e+00 0.0000000000000000e+00 
0.0000000000000000e+00 0.0000000000000000e+00 0.0000000000000000e+00 
0.0000000000000000e+00 0.0000000000000000e+00 0.0000000000000000e+00 
0.0000000000000000e+00 0.0000000000000000e+00 0.0000000000000000e+00 
0.0000000000000000e+00 0.0000000000000000e+00 0.0000000000000000e+00 
0.0000000000000000e+00 0.0000000000000000e+00 0.0000000000000000e+00 
0.0000000000000000e+00 0.0000000000000000e+00 0.0000000000000000e+00 
0.0000000000000000e+00 0.0000000000000000e+00 0.0000000000000000e+00 
0.0000000000000000e+00 0.0000000000000000e+00 0.0000000000000000e+00 
0.0000000000000000e+00 0.0000000000000000e+00 0.0000000000000000e+00 
0.0000000000000000e+00 0.0000000000000000e+00 0.0000000000000000e+00 
0.0000000000000000e+00 0.0000000000000000e+00 0.0000000000000000e+00 
0.0000000000000000e+00 0.0000000000000000e+00 0.0000000000000000e+00 
0.0000000000000000e+00 0.0000000000000000e+00 0.0000000000000000e+00 
0.0000000000000000e+00 0.0000000000000000e+00 0.0000000000000000e+00 
0.0000000000000000e+00 0.0000000000000000e+00 0.0000000000000000e+00 
0.0000000000000000e+00 0.0000000000000000e+00 0.0000000000000000e+00 
0.0000000000000000e+00 0.0000000000000000e+00 0.0000000000000000e+00 
0.0000000000000000e+00 0.0000000000000000e+00 0.0000000000000000e+00 
0.0000000000000000e+00 0.0000000000000000e+00 0.0000000000000000e+00 
0.0000000000000000e+00 0.0000000000000000e+00 0.0000000000000000e+00 
0.0000000000000000e+00 0.0000000000000000e+00 0.0000000000000000e+00 
0.0000000000000000e+00 0.0000000000000000e+00 0.0000000000000000e+00 
0.0000000000000000e+00 0.0000000000000000e+00 0.0000000000000000e+00 
0.0000000000000000e+00 0.0000000000000000e+00 0.0000000000000000e+00 
0.0000000000000000e+00 0.0000000000000000e+00 0.0000000000000000e+00 
0.0000000000000000e+00 0.0000000000000000e+00 0.0000000000000000e+00 
0.0000000000000000e+00 0.0000000000000000e+00 0.0000000000000000e+00 
0.0000000000000000e+00 0.0000000000000000e+00 0.0000000000000000e+00 
0.0000000000000000e+00 0.0000000000000000e+00 0.0000000000000000e+00 
0.0000000000000000e+00 0.0000000000000000e+00 0.0000000000000000e+00 
0.0000000000000000e+00 0.0000000000000000e+00 0.0000000000000000e+00 
0.0000000000000000e+00 0.0000000000000000e+00 0.0000000000000000e+00 

VECTORS Stress float
1.3723215420916185e+02 -4.4389796779959729e+00 -2.1600036035222354e-13 
1.3716469383688127e+02 -1.0422509181724861e+01 1.4233311084136465e-13 
1.3676744150665613e+02 -1.5933446351276629e+01 4.0764166594483048e-13 
1.3557286942101044e+02 -2.0717717876535264e+01 -5.5297581869828776e-14 
1.3332909191277528e+02 -2.4685339894518535e+01 -1.0608015654112633e-13 
1.3011119889825437e+02 -2.7374103847117585e+01 -1.3750452240115090e-12 
1.2593860747943351e+02 -2.9215516263073969e+01 -1.5622974827766243e-12 
1.2087415110650117e+02 -3.0182671528164335e+01 3.4670139959316459e-13 
1.1502936330153513e+02 -3.0283387137367878e+01 6.1122719111257633e-13 
1.0857882900751893e+02 -2.9688108001244458e+01 7.5366462440673622e-14 
1.0169574879123282e+02 -2.8075949584736701e+01 -1.6756217990581308e-12 
9.4119388725488449e+01 -2.5181866332002926e+01 -2.4166479004357354e-12 
8.4454504842930419e+01 -2.1517224177739610e+01 -7.1352155225254302e-13 
7.0230611191586434e+01 -1.7461548764985476e+01 4.6755453460361351e-13 
4.7373386421972633e+01 -1.1724818416984599e+01 4.0935192532451791e-13 
1.8949350401736289e+01 7.3591503947055415e+01 9.8933462047666866e-17 
1.3629891110260218e+01 5.3483415129839479e+01 -1.5438558509524592e-16 
9.1800301180413566e+00 3.6516646377370570e+01 -1.2877956740616460e-16 
-2.8109698020573952e+00 9.9821676134533771e-02 -1.4762492442448727e-13 
-2.9988761670254473e+00 2.5784418743661841e-01 3.8746209665840040e-15 
-2.9033890020289346e+00 3.9188365257598406e-01 4.3356454300133412e-13 
-2.3414621926339945e+00 4.3232388365703628e-01 3.5043445684586019e-13 
-1.2078496773477561e+00 3.0968157480419051e-01 6.9176331872165790e-14 
4.9032735543266104e-01 -9.3242629138208938e-03 1.1512781289725434e-12 
2.6598222174966990e+00 -5.1909819211467190e-01 1.0535678213103117e-12 
5.1969888464779634e+00 -1.1902435265355080e+00 -1.7743844175956071e-13 
8.0164830834275982e+00 -2.0000822475648827e+00 -7.2865193019929608e-13 
1.1190013362661420e+01 -2.9224243366560141e+00 -6.5842523658516210e-13 
1.4610633244214268e+01 -3.8591760652538452e+00 2.0272449515076932e-12 
1.8038490477948564e+01 -4.6033690506096434e+00 3.1328828484644756e-12 
2.0718253458386592e+01 -5.0769514482031761e+00 1.1340515392621791e-12 
2.2054522568393921e+01 -5.3722272120017340e+00 -1.2552035617522053e-12 
2.2488597942017925e+01 -5.5057799566293610e+00 -1.3850872140584989e-12 

