# vtk DataFile Version 2.0

ASCII

DATASET UNSTRUCTURED_GRID

POINTS 68 double 

-5.0000000000000003e-02  0.0000000000000000e+00  0.0000000000000000e+00
-5.0000000000000003e-02  6.6666666669999999e-02  0.0000000000000000e+00
-5.0000000000000003e-02  6.6666666669999999e-02  2.9999999999999999e-01
-5.0000000000000003e-02  0.0000000000000000e+00  2.9999999999999999e-01
-5.0000000000000003e-02  1.3333333330000000e-01  0.0000000000000000e+00
-5.0000000000000003e-02  1.3333333330000000e-01  2.9999999999999999e-01
-5.0000000000000003e-02  2.0000000000000001e-01  0.0000000000000000e+00
-5.0000000000000003e-02  2.0000000000000001e-01  2.9999999999999999e-01
-5.0000000000000003e-02  2.6666666670000000e-01  0.0000000000000000e+00
-5.0000000000000003e-02  2.6666666670000000e-01  2.9999999999999999e-01
-5.0000000000000003e-02  3.3333333329999998e-01  0.0000000000000000e+00
-5.0000000000000003e-02  3.3333333329999998e-01  2.9999999999999999e-01
-5.0000000000000003e-02  4.0000000000000002e-01  0.0000000000000000e+00
-5.0000000000000003e-02  4.0000000000000002e-01  2.9999999999999999e-01
-5.0000000000000003e-02  4.6666666670000001e-01  0.0000000000000000e+00
-5.0000000000000003e-02  4.6666666670000001e-01  2.9999999999999999e-01
-5.0000000000000003e-02  5.3333333329999999e-01  0.0000000000000000e+00
-5.0000000000000003e-02  5.3333333329999999e-01  2.9999999999999999e-01
-5.0000000000000003e-02  5.9999999999999998e-01  0.0000000000000000e+00
-5.0000000000000003e-02  5.9999999999999998e-01  2.9999999999999999e-01
-5.0000000000000003e-02  6.6666666669999997e-01  0.0000000000000000e+00
-5.0000000000000003e-02  6.6666666669999997e-01  2.9999999999999999e-01
-5.0000000000000003e-02  7.3333333329999995e-01  0.0000000000000000e+00
-5.0000000000000003e-02  7.3333333329999995e-01  2.9999999999999999e-01
-5.0000000000000003e-02  8.0000000000000004e-01  0.0000000000000000e+00
-5.0000000000000003e-02  8.0000000000000004e-01  2.9999999999999999e-01
-5.0000000000000003e-02  8.6666666670000003e-01  0.0000000000000000e+00
-5.0000000000000003e-02  8.6666666670000003e-01  2.9999999999999999e-01
-5.0000000000000003e-02  9.3333333330000001e-01  0.0000000000000000e+00
-5.0000000000000003e-02  9.3333333330000001e-01  2.9999999999999999e-01
-5.0000000000000003e-02  1.0000000000000000e+00  0.0000000000000000e+00
-5.0000000000000003e-02  1.0000000000000000e+00  2.9999999999999999e-01
-1.6666666670000000e-02  1.0000000000000000e+00  0.0000000000000000e+00
-1.6666666670000000e-02  1.0000000000000000e+00  2.9999999999999999e-01
1.6666666670000000e-02  1.0000000000000000e+00  0.0000000000000000e+00
1.6666666670000000e-02  1.0000000000000000e+00  2.9999999999999999e-01
5.0000000000000003e-02  1.0000000000000000e+00  0.0000000000000000e+00
5.0000000000000003e-02  1.0000000000000000e+00  2.9999999999999999e-01
5.0000000000000003e-02  0.0000000000000000e+00  0.0000000000000000e+00
5.0000000000000003e-02  0.0000000000000000e+00  2.9999999999999999e-01
5.0000000000000003e-02  6.6666666669999999e-02  2.9999999999999999e-01
5.0000000000000003e-02  6.6666666669999999e-02  0.0000000000000000e+00
5.0000000000000003e-02  1.3333333330000000e-01  2.9999999999999999e-01
5.0000000000000003e-02  1.3333333330000000e-01  0.0000000000000000e+00
5.0000000000000003e-02  2.0000000000000001e-01  2.9999999999999999e-01
5.0000000000000003e-02  2.0000000000000001e-01  0.0000000000000000e+00
5.0000000000000003e-02  2.6666666670000000e-01  2.9999999999999999e-01
5.0000000000000003e-02  2.6666666670000000e-01  0.0000000000000000e+00
5.0000000000000003e-02  3.3333333329999998e-01  2.9999999999999999e-01
5.0000000000000003e-02  3.3333333329999998e-01  0.0000000000000000e+00
5.0000000000000003e-02  4.0000000000000002e-01  2.9999999999999999e-01
5.0000000000000003e-02  4.0000000000000002e-01  0.0000000000000000e+00
5.0000000000000003e-02  4.6666666670000001e-01  2.9999999999999999e-01
5.0000000000000003e-02  4.6666666670000001e-01  0.0000000000000000e+00
5.0000000000000003e-02  5.3333333329999999e-01  2.9999999999999999e-01
5.0000000000000003e-02  5.3333333329999999e-01  0.0000000000000000e+00
5.0000000000000003e-02  5.9999999999999998e-01  2.9999999999999999e-01
5.0000000000000003e-02  5.9999999999999998e-01  0.0000000000000000e+00
5.0000000000000003e-02  6.6666666669999997e-01  2.9999999999999999e-01
5.0000000000000003e-02  6.6666666669999997e-01  0.0000000000000000e+00
5.0000000000000003e-02  7.3333333329999995e-01  2.9999999999999999e-01
5.0000000000000003e-02  7.3333333329999995e-01  0.0000000000000000e+00
5.0000000000000003e-02  8.0000000000000004e-01  2.9999999999999999e-01
5.0000000000000003e-02  8.0000000000000004e-01  0.0000000000000000e+00
5.0000000000000003e-02  8.6666666670000003e-01  2.9999999999999999e-01
5.0000000000000003e-02  8.6666666670000003e-01  0.0000000000000000e+00
5.0000000000000003e-02  9.3333333330000001e-01  2.9999999999999999e-01
5.0000000000000003e-02  9.3333333330000001e-01  0.0000000000000000e+00

CELLS 0 0


CELL_TYPES 0


POINT_DATA 68

VECTORS VertexNormals double

0.0000000000000000e+00 0.0000000000000000e+00 0.0000000000000000e+00 
0.0000000000000000e+00 0.0000000000000000e+00 0.0000000000000000e+00 
0.0000000000000000e+00 0.0000000000000000e+00 0.0000000000000000e+00 
0.0000000000000000e+00 0.0000000000000000e+00 0.0000000000000000e+00 
0.0000000000000000e+00 0.0000000000000000e+00 0.0000000000000000e+00 
0.0000000000000000e+00 0.0000000000000000e+00 0.0000000000000000e+00 
0.0000000000000000e+00 0.0000000000000000e+00 0.0000000000000000e+00 
0.0000000000000000e+00 0.0000000000000000e+00 0.0000000000000000e+00 
0.0000000000000000e+00 0.0000000000000000e+00 0.0000000000000000e+00 
0.0000000000000000e+00 0.0000000000000000e+00 0.0000000000000000e+00 
0.0000000000000000e+00 0.0000000000000000e+00 0.0000000000000000e+00 
0.0000000000000000e+00 0.0000000000000000e+00 0.0000000000000000e+00 
0.0000000000000000e+00 0.0000000000000000e+00 0.0000000000000000e+00 
0.0000000000000000e+00 0.0000000000000000e+00 0.0000000000000000e+00 
0.0000000000000000e+00 0.0000000000000000e+00 0.0000000000000000e+00 
0.0000000000000000e+00 0.0000000000000000e+00 0.0000000000000000e+00 
0.0000000000000000e+00 0.0000000000000000e+00 0.0000000000000000e+00 
0.0000000000000000e+00 0.0000000000000000e+00 0.0000000000000000e+00 
0.0000000000000000e+00 0.0000000000000000e+00 0.0000000000000000e+00 
0.0000000000000000e+00 0.0000000000000000e+00 0.0000000000000000e+00 
0.0000000000000000e+00 0.0000000000000000e+00 0.0000000000000000e+00 
0.0000000000000000e+00 0.0000000000000000e+00 0.0000000000000000e+00 
0.0000000000000000e+00 0.0000000000000000e+00 0.0000000000000000e+00 
0.0000000000000000e+00 0.0000000000000000e+00 0.0000000000000000e+00 
0.0000000000000000e+00 0.0000000000000000e+00 0.0000000000000000e+00 
0.0000000000000000e+00 0.0000000000000000e+00 0.0000000000000000e+00 
0.0000000000000000e+00 0.0000000000000000e+00 0.0000000000000000e+00 
0.0000000000000000e+00 0.0000000000000000e+00 0.0000000000000000e+00 
0.0000000000000000e+00 0.0000000000000000e+00 0.0000000000000000e+00 
0.0000000000000000e+00 0.0000000000000000e+00 0.0000000000000000e+00 
0.0000000000000000e+00 0.0000000000000000e+00 0.0000000000000000e+00 
0.0000000000000000e+00 0.0000000000000000e+00 0.0000000000000000e+00 
0.0000000000000000e+00 0.0000000000000000e+00 0.0000000000000000e+00 
0.0000000000000000e+00 0.0000000000000000e+00 0.0000000000000000e+00 
0.0000000000000000e+00 0.0000000000000000e+00 0.0000000000000000e+00 
0.0000000000000000e+00 0.0000000000000000e+00 0.0000000000000000e+00 
0.0000000000000000e+00 0.0000000000000000e+00 0.0000000000000000e+00 
0.0000000000000000e+00 0.0000000000000000e+00 0.0000000000000000e+00 
0.0000000000000000e+00 0.0000000000000000e+00 0.0000000000000000e+00 
0.0000000000000000e+00 0.0000000000000000e+00 0.0000000000000000e+00 
0.0000000000000000e+00 0.0000000000000000e+00 0.0000000000000000e+00 
0.0000000000000000e+00 0.0000000000000000e+00 0.0000000000000000e+00 
0.0000000000000000e+00 0.0000000000000000e+00 0.0000000000000000e+00 
0.0000000000000000e+00 0.0000000000000000e+00 0.0000000000000000e+00 
0.0000000000000000e+00 0.0000000000000000e+00 0.0000000000000000e+00 
0.0000000000000000e+00 0.0000000000000000e+00 0.0000000000000000e+00 
0.0000000000000000e+00 0.0000000000000000e+00 0.0000000000000000e+00 
0.0000000000000000e+00 0.0000000000000000e+00 0.0000000000000000e+00 
0.0000000000000000e+00 0.0000000000000000e+00 0.0000000000000000e+00 
0.0000000000000000e+00 0.0000000000000000e+00 0.0000000000000000e+00 
0.0000000000000000e+00 0.0000000000000000e+00 0.0000000000000000e+00 
0.0000000000000000e+00 0.0000000000000000e+00 0.0000000000000000e+00 
0.0000000000000000e+00 0.0000000000000000e+00 0.0000000000000000e+00 
0.0000000000000000e+00 0.0000000000000000e+00 0.0000000000000000e+00 
0.0000000000000000e+00 0.0000000000000000e+00 0.0000000000000000e+00 
0.0000000000000000e+00 0.0000000000000000e+00 0.0000000000000000e+00 
0.0000000000000000e+00 0.0000000000000000e+00 0.0000000000000000e+00 
0.0000000000000000e+00 0.0000000000000000e+00 0.0000000000000000e+00 
0.0000000000000000e+00 0.0000000000000000e+00 0.0000000000000000e+00 
0.0000000000000000e+00 0.0000000000000000e+00 0.0000000000000000e+00 
0.0000000000000000e+00 0.0000000000000000e+00 0.0000000000000000e+00 
0.0000000000000000e+00 0.0000000000000000e+00 0.0000000000000000e+00 
0.0000000000000000e+00 0.0000000000000000e+00 0.0000000000000000e+00 
0.0000000000000000e+00 0.0000000000000000e+00 0.0000000000000000e+00 
0.0000000000000000e+00 0.0000000000000000e+00 0.0000000000000000e+00 
0.0000000000000000e+00 0.0000000000000000e+00 0.0000000000000000e+00 
0.0000000000000000e+00 0.0000000000000000e+00 0.0000000000000000e+00 
0.0000000000000000e+00 0.0000000000000000e+00 0.0000000000000000e+00 

VECTORS Displacement double
-1.7459991785706563e-15 6.0715321659188248e-17 -1.7205356741102976e-22 
2.4753388526877968e-03 2.5352591268759262e-03 9.2739869348591827e-13 
2.4753339331849249e-03 2.5352533944264363e-03 9.2739869723612252e-13 
-1.6385527448089829e-16 -7.7547040917601021e-18 -4.2871223174571274e-22 
7.5072922262176319e-03 4.7743959154118226e-03 1.9705698991187070e-13 
7.5072837731054894e-03 4.7744010421225912e-03 1.9705698987689645e-13 
1.5634023956407551e-02 6.7615510096556575e-03 8.5826565892913971e-13 
1.5634028154396226e-02 6.7615667375381192e-03 8.5826565876181658e-13 
2.6016619124281701e-02 8.2952842935280421e-03 -3.5596938470317411e-13 
2.6016615270584176e-02 8.2952762200907970e-03 -3.5596938452639015e-13 
3.8437803686361877e-02 9.7542438271113752e-03 -2.1175823681357508e-22 
3.8437795661641197e-02 9.7542437005919587e-03 1.7965299032922253e-23 
5.2637220816142860e-02 1.0793404321895905e-02 -8.8828006217148809e-13 
5.2637199061782651e-02 1.0793406251561949e-02 -8.8828006204764364e-13 
6.7797891669787516e-02 1.1381686572728523e-02 5.3551055549658965e-13 
6.7797906827190779e-02 1.1381690294365388e-02 5.3551055540867586e-13 
8.3712027663894739e-02 1.1823655412559963e-02 -1.8772823460776525e-13 
8.3712016721929378e-02 1.1823647733568823e-02 -1.8772823448392083e-13 
1.0006169790333874e-01 1.2094172307812893e-02 -4.2717398719850354e-13 
1.0006169191955476e-01 1.2094168580324836e-02 -4.2717398733935694e-13 
1.1674993653936690e-01 1.2082665712159515e-02 1.7205356741102976e-21 
1.1674992153824655e-01 1.2082661226533844e-02 1.6326218547364323e-21 
1.3331660911920934e-01 1.1965198813979691e-02 1.1497986648635719e-12 
1.3331660278975879e-01 1.1965189804907258e-02 1.1497986646433092e-12 
1.4975856409790375e-01 1.1695940044814631e-02 5.8498597136541970e-13 
1.4975856161639450e-01 1.1695947223742720e-02 5.8498597122456635e-13 
1.6593771348245789e-01 1.1184530223459801e-02 2.4706366246293848e-14 
1.6593772624657155e-01 1.1184529781730689e-02 2.4706366078970692e-14 
1.8100116501685026e-01 1.0654815999792028e-02 1.4233874601077939e-13 
1.8100116781943607e-01 1.0654804401578503e-02 1.4233874571110734e-13 
1.9566669318980329e-01 1.0564983430607692e-02 -5.8233515123733148e-22 
1.9566668052396802e-01 1.0564957799650375e-02 -3.9231628479337947e-22 
1.9566441289061332e-01 3.1926673336810187e-03 5.5586537163563460e-22 
1.9566440073786834e-01 3.1926582870823754e-03 4.1501199305837554e-22 
1.9559501641990323e-01 -4.1940080069416182e-03 -5.5586537163563460e-22 
1.9559500064091892e-01 -4.1939947681483621e-03 -5.3790007260271239e-22 
1.9550637532717410e-01 -1.1523781651326561e-02 -2.2499312661442353e-22 
1.9550635876171907e-01 -1.1523740179984586e-02 -2.8643716638659193e-22 
-1.7780915628762273e-16 6.8521577301083880e-17 -1.7205356741102976e-22 
-1.7946778576468956e-16 8.6787725348975885e-17 -6.8061484672592622e-23 
2.3906093958300902e-03 -2.5728728897398932e-03 -4.3900727782574940e-13 
2.3906133876044691e-03 -2.5728723641003253e-03 -4.3900727793635890e-13 
7.4957605116400729e-03 -4.9307270136637951e-03 -4.7661938266647035e-13 
7.4957589936782750e-03 -4.9307207542778038e-03 -4.7661938260502634e-13 
1.5566204341520512e-02 -6.9935619016354075e-03 -6.2471940850351751e-13 
1.5566189375077203e-02 -6.9935514608034342e-03 -6.2471940852148284e-13 
2.5975239466710476e-02 -8.5416916851283522e-03 6.0010028914841102e-13 
2.5975228388069087e-02 -8.5417031085890001e-03 6.0010028923632481e-13 
3.8317942387462937e-02 -1.0017129610899003e-02 1.2384441743970980e-22 
3.8317960002871410e-02 -1.0017130577159205e-02 2.6469779601696886e-22 
5.2499107157800477e-02 -1.1048329456641118e-02 -2.7176264857260697e-13 
5.2499107968287391e-02 -1.1048319398430963e-02 -2.7176264821999533e-13 
6.7788094846117794e-02 -1.1711900381107592e-02 -5.4419845102820242e-13 
6.7788077068775252e-02 -1.1711889670149585e-02 -5.4419845088734907e-13 
8.3608138404437968e-02 -1.2235364863634397e-02 -6.4962620839434816e-13 
8.3608122808907573e-02 -1.2235362897250950e-02 -6.4962620846525305e-13 
1.0006050656627975e-01 -1.2610416596030972e-02 4.1690493928765761e-13 
1.0006051087396929e-01 -1.2610410600426912e-02 4.1690493937557145e-13 
1.1665543288454690e-01 -1.2856754690518347e-02 -7.4965830941628747e-22 
1.1665543047964252e-01 -1.2856761073660744e-02 -5.8233515123733148e-22 
1.3328148181966012e-01 -1.2826112602795406e-02 -9.5091008537871600e-13 
1.3328147867082482e-01 -1.2826109436883813e-02 -9.5091008518492310e-13 
1.4974168580051128e-01 -1.2669479811193258e-02 3.7651621963230588e-14 
1.4974168451167563e-01 -1.2669477755862545e-02 3.7651622051144409e-14 
1.6579201464627011e-01 -1.2203326312891578e-02 8.9032165702300178e-14 
1.6579199339689155e-01 -1.2203326021288732e-02 8.9032165776979103e-14 
1.8096039352711452e-01 -1.1715467081916266e-02 1.3767948253370048e-12 
1.8096038833017614e-01 -1.1715480121057203e-02 1.3767948254249186e-12 

