# vtk DataFile Version 2.0

ASCII

DATASET UNSTRUCTURED_GRID

POINTS 68 float 

-5.0000000000000003e-02  0.0000000000000000e+00  0.0000000000000000e+00
-5.0000000000000003e-02  6.6666666669999999e-02  0.0000000000000000e+00
-5.0000000000000003e-02  6.6666666669999999e-02  2.9999999999999999e-01
-5.0000000000000003e-02  0.0000000000000000e+00  2.9999999999999999e-01
-5.0000000000000003e-02  1.3333333330000000e-01  0.0000000000000000e+00
-5.0000000000000003e-02  1.3333333330000000e-01  2.9999999999999999e-01
-5.0000000000000003e-02  2.0000000000000001e-01  0.0000000000000000e+00
-5.0000000000000003e-02  2.0000000000000001e-01  2.9999999999999999e-01
-5.0000000000000003e-02  2.6666666670000000e-01  0.0000000000000000e+00
-5.0000000000000003e-02  2.6666666670000000e-01  2.9999999999999999e-01
-5.0000000000000003e-02  3.3333333329999998e-01  0.0000000000000000e+00
-5.0000000000000003e-02  3.3333333329999998e-01  2.9999999999999999e-01
-5.0000000000000003e-02  4.0000000000000002e-01  0.0000000000000000e+00
-5.0000000000000003e-02  4.0000000000000002e-01  2.9999999999999999e-01
-5.0000000000000003e-02  4.6666666670000001e-01  0.0000000000000000e+00
-5.0000000000000003e-02  4.6666666670000001e-01  2.9999999999999999e-01
-5.0000000000000003e-02  5.3333333329999999e-01  0.0000000000000000e+00
-5.0000000000000003e-02  5.3333333329999999e-01  2.9999999999999999e-01
-5.0000000000000003e-02  5.9999999999999998e-01  0.0000000000000000e+00
-5.0000000000000003e-02  5.9999999999999998e-01  2.9999999999999999e-01
-5.0000000000000003e-02  6.6666666669999997e-01  0.0000000000000000e+00
-5.0000000000000003e-02  6.6666666669999997e-01  2.9999999999999999e-01
-5.0000000000000003e-02  7.3333333329999995e-01  0.0000000000000000e+00
-5.0000000000000003e-02  7.3333333329999995e-01  2.9999999999999999e-01
-5.0000000000000003e-02  8.0000000000000004e-01  0.0000000000000000e+00
-5.0000000000000003e-02  8.0000000000000004e-01  2.9999999999999999e-01
-5.0000000000000003e-02  8.6666666670000003e-01  0.0000000000000000e+00
-5.0000000000000003e-02  8.6666666670000003e-01  2.9999999999999999e-01
-5.0000000000000003e-02  9.3333333330000001e-01  0.0000000000000000e+00
-5.0000000000000003e-02  9.3333333330000001e-01  2.9999999999999999e-01
-5.0000000000000003e-02  1.0000000000000000e+00  0.0000000000000000e+00
-5.0000000000000003e-02  1.0000000000000000e+00  2.9999999999999999e-01
-1.6666666670000000e-02  1.0000000000000000e+00  0.0000000000000000e+00
-1.6666666670000000e-02  1.0000000000000000e+00  2.9999999999999999e-01
1.6666666670000000e-02  1.0000000000000000e+00  0.0000000000000000e+00
1.6666666670000000e-02  1.0000000000000000e+00  2.9999999999999999e-01
5.0000000000000003e-02  1.0000000000000000e+00  0.0000000000000000e+00
5.0000000000000003e-02  1.0000000000000000e+00  2.9999999999999999e-01
5.0000000000000003e-02  0.0000000000000000e+00  0.0000000000000000e+00
5.0000000000000003e-02  0.0000000000000000e+00  2.9999999999999999e-01
5.0000000000000003e-02  6.6666666669999999e-02  2.9999999999999999e-01
5.0000000000000003e-02  6.6666666669999999e-02  0.0000000000000000e+00
5.0000000000000003e-02  1.3333333330000000e-01  2.9999999999999999e-01
5.0000000000000003e-02  1.3333333330000000e-01  0.0000000000000000e+00
5.0000000000000003e-02  2.0000000000000001e-01  2.9999999999999999e-01
5.0000000000000003e-02  2.0000000000000001e-01  0.0000000000000000e+00
5.0000000000000003e-02  2.6666666670000000e-01  2.9999999999999999e-01
5.0000000000000003e-02  2.6666666670000000e-01  0.0000000000000000e+00
5.0000000000000003e-02  3.3333333329999998e-01  2.9999999999999999e-01
5.0000000000000003e-02  3.3333333329999998e-01  0.0000000000000000e+00
5.0000000000000003e-02  4.0000000000000002e-01  2.9999999999999999e-01
5.0000000000000003e-02  4.0000000000000002e-01  0.0000000000000000e+00
5.0000000000000003e-02  4.6666666670000001e-01  2.9999999999999999e-01
5.0000000000000003e-02  4.6666666670000001e-01  0.0000000000000000e+00
5.0000000000000003e-02  5.3333333329999999e-01  2.9999999999999999e-01
5.0000000000000003e-02  5.3333333329999999e-01  0.0000000000000000e+00
5.0000000000000003e-02  5.9999999999999998e-01  2.9999999999999999e-01
5.0000000000000003e-02  5.9999999999999998e-01  0.0000000000000000e+00
5.0000000000000003e-02  6.6666666669999997e-01  2.9999999999999999e-01
5.0000000000000003e-02  6.6666666669999997e-01  0.0000000000000000e+00
5.0000000000000003e-02  7.3333333329999995e-01  2.9999999999999999e-01
5.0000000000000003e-02  7.3333333329999995e-01  0.0000000000000000e+00
5.0000000000000003e-02  8.0000000000000004e-01  2.9999999999999999e-01
5.0000000000000003e-02  8.0000000000000004e-01  0.0000000000000000e+00
5.0000000000000003e-02  8.6666666670000003e-01  2.9999999999999999e-01
5.0000000000000003e-02  8.6666666670000003e-01  0.0000000000000000e+00
5.0000000000000003e-02  9.3333333330000001e-01  2.9999999999999999e-01
5.0000000000000003e-02  9.3333333330000001e-01  0.0000000000000000e+00

CELLS 0 0


CELL_TYPES 0


POINT_DATA 68

VECTORS VertexNormals float

0.0000000000000000e+00 0.0000000000000000e+00 0.0000000000000000e+00 
0.0000000000000000e+00 0.0000000000000000e+00 0.0000000000000000e+00 
0.0000000000000000e+00 0.0000000000000000e+00 0.0000000000000000e+00 
0.0000000000000000e+00 0.0000000000000000e+00 0.0000000000000000e+00 
0.0000000000000000e+00 0.0000000000000000e+00 0.0000000000000000e+00 
0.0000000000000000e+00 0.0000000000000000e+00 0.0000000000000000e+00 
0.0000000000000000e+00 0.0000000000000000e+00 0.0000000000000000e+00 
0.0000000000000000e+00 0.0000000000000000e+00 0.0000000000000000e+00 
0.0000000000000000e+00 0.0000000000000000e+00 0.0000000000000000e+00 
0.0000000000000000e+00 0.0000000000000000e+00 0.0000000000000000e+00 
0.0000000000000000e+00 0.0000000000000000e+00 0.0000000000000000e+00 
0.0000000000000000e+00 0.0000000000000000e+00 0.0000000000000000e+00 
0.0000000000000000e+00 0.0000000000000000e+00 0.0000000000000000e+00 
0.0000000000000000e+00 0.0000000000000000e+00 0.0000000000000000e+00 
0.0000000000000000e+00 0.0000000000000000e+00 0.0000000000000000e+00 
0.0000000000000000e+00 0.0000000000000000e+00 0.0000000000000000e+00 
0.0000000000000000e+00 0.0000000000000000e+00 0.0000000000000000e+00 
0.0000000000000000e+00 0.0000000000000000e+00 0.0000000000000000e+00 
0.0000000000000000e+00 0.0000000000000000e+00 0.0000000000000000e+00 
0.0000000000000000e+00 0.0000000000000000e+00 0.0000000000000000e+00 
0.0000000000000000e+00 0.0000000000000000e+00 0.0000000000000000e+00 
0.0000000000000000e+00 0.0000000000000000e+00 0.0000000000000000e+00 
0.0000000000000000e+00 0.0000000000000000e+00 0.0000000000000000e+00 
0.0000000000000000e+00 0.0000000000000000e+00 0.0000000000000000e+00 
0.0000000000000000e+00 0.0000000000000000e+00 0.0000000000000000e+00 
0.0000000000000000e+00 0.0000000000000000e+00 0.0000000000000000e+00 
0.0000000000000000e+00 0.0000000000000000e+00 0.0000000000000000e+00 
0.0000000000000000e+00 0.0000000000000000e+00 0.0000000000000000e+00 
0.0000000000000000e+00 0.0000000000000000e+00 0.0000000000000000e+00 
0.0000000000000000e+00 0.0000000000000000e+00 0.0000000000000000e+00 
0.0000000000000000e+00 0.0000000000000000e+00 0.0000000000000000e+00 
0.0000000000000000e+00 0.0000000000000000e+00 0.0000000000000000e+00 
0.0000000000000000e+00 0.0000000000000000e+00 0.0000000000000000e+00 
0.0000000000000000e+00 0.0000000000000000e+00 0.0000000000000000e+00 
0.0000000000000000e+00 0.0000000000000000e+00 0.0000000000000000e+00 
0.0000000000000000e+00 0.0000000000000000e+00 0.0000000000000000e+00 
0.0000000000000000e+00 0.0000000000000000e+00 0.0000000000000000e+00 
0.0000000000000000e+00 0.0000000000000000e+00 0.0000000000000000e+00 
0.0000000000000000e+00 0.0000000000000000e+00 0.0000000000000000e+00 
0.0000000000000000e+00 0.0000000000000000e+00 0.0000000000000000e+00 
0.0000000000000000e+00 0.0000000000000000e+00 0.0000000000000000e+00 
0.0000000000000000e+00 0.0000000000000000e+00 0.0000000000000000e+00 
0.0000000000000000e+00 0.0000000000000000e+00 0.0000000000000000e+00 
0.0000000000000000e+00 0.0000000000000000e+00 0.0000000000000000e+00 
0.0000000000000000e+00 0.0000000000000000e+00 0.0000000000000000e+00 
0.0000000000000000e+00 0.0000000000000000e+00 0.0000000000000000e+00 
0.0000000000000000e+00 0.0000000000000000e+00 0.0000000000000000e+00 
0.0000000000000000e+00 0.0000000000000000e+00 0.0000000000000000e+00 
0.0000000000000000e+00 0.0000000000000000e+00 0.0000000000000000e+00 
0.0000000000000000e+00 0.0000000000000000e+00 0.0000000000000000e+00 
0.0000000000000000e+00 0.0000000000000000e+00 0.0000000000000000e+00 
0.0000000000000000e+00 0.0000000000000000e+00 0.0000000000000000e+00 
0.0000000000000000e+00 0.0000000000000000e+00 0.0000000000000000e+00 
0.0000000000000000e+00 0.0000000000000000e+00 0.0000000000000000e+00 
0.0000000000000000e+00 0.0000000000000000e+00 0.0000000000000000e+00 
0.0000000000000000e+00 0.0000000000000000e+00 0.0000000000000000e+00 
0.0000000000000000e+00 0.0000000000000000e+00 0.0000000000000000e+00 
0.0000000000000000e+00 0.0000000000000000e+00 0.0000000000000000e+00 
0.0000000000000000e+00 0.0000000000000000e+00 0.0000000000000000e+00 
0.0000000000000000e+00 0.0000000000000000e+00 0.0000000000000000e+00 
0.0000000000000000e+00 0.0000000000000000e+00 0.0000000000000000e+00 
0.0000000000000000e+00 0.0000000000000000e+00 0.0000000000000000e+00 
0.0000000000000000e+00 0.0000000000000000e+00 0.0000000000000000e+00 
0.0000000000000000e+00 0.0000000000000000e+00 0.0000000000000000e+00 
0.0000000000000000e+00 0.0000000000000000e+00 0.0000000000000000e+00 
0.0000000000000000e+00 0.0000000000000000e+00 0.0000000000000000e+00 
0.0000000000000000e+00 0.0000000000000000e+00 0.0000000000000000e+00 
0.0000000000000000e+00 0.0000000000000000e+00 0.0000000000000000e+00 

VECTORS Displacement float
-2.6992297286199118e-15 -3.3653635433950058e-16 -3.1664473848529899e-21 
2.5733718319612686e-03 3.3223110777288560e-03 -1.3602642359083754e-12 
2.5733957681071478e-03 3.3223164510489092e-03 -1.3602642371929122e-12 
1.1641268448122156e-17 -1.1763227957636975e-16 -2.0589328934817224e-22 
9.4186293079797870e-03 6.5910006854417794e-03 3.2065675292101194e-13 
9.4186229988858419e-03 6.5909866532411331e-03 3.2065675364817837e-13 
2.0342454643818151e-02 9.4405396509029873e-03 5.3728033658099234e-13 
2.0342434150001591e-02 9.4405317657072409e-03 5.3728033709640059e-13 
3.4524173808517244e-02 1.2136460076863736e-02 5.2465873582399636e-13 
3.4524182773460331e-02 1.2136467895121850e-02 5.2465873631293482e-13 
5.2555552094043584e-02 1.4895818967543255e-02 -1.1646703024746630e-21 
5.2555561042425349e-02 1.4895826629839817e-02 -8.8749011409186704e-22 
7.3957207171928746e-02 1.7223206451300793e-02 1.0399293071205630e-12 
7.3957229987417578e-02 1.7223206436135768e-02 1.0399293075565619e-12 
9.8199924581912415e-02 1.9201857563560912e-02 1.8403217547865810e-13 
9.8199922128513639e-02 1.9201857930297210e-02 1.8403217522644270e-13 
1.2474102461441650e-01 2.1087390694407255e-02 3.3352747228819363e-13 
1.2474101101841814e-01 2.1087413144462441e-02 3.3352747238008535e-13 
1.5385562122343438e-01 2.2925424352011132e-02 3.6019932552256210e-13 
1.5385564355623638e-01 2.2925435186582608e-02 3.6019932558798404e-13 
1.8527322879609182e-01 2.4573358688743066e-02 2.6469779601696886e-23 
1.8527320791122123e-01 2.4573342955066624e-02 -2.5221540365114179e-22 
2.1872519810064467e-01 2.5754918974578316e-02 1.4519891617101488e-12 
2.1872520382772084e-01 2.5754921203188039e-02 1.4519891614049939e-12 
2.5339723952320048e-01 2.6479692744263865e-02 4.1480745193766702e-13 
2.5339725271354885e-01 2.6479663827650334e-02 4.1480745152663293e-13 
2.8831392991373855e-01 2.6607611380656055e-02 -1.0054874803447291e-12 
2.8831388879246306e-01 2.6607601415790251e-02 -1.0054874808484074e-12 
3.2310596958209387e-01 2.6703941833770041e-02 -7.7141985818226854e-13 
3.2310596204740782e-01 2.6703945457281709e-02 -7.7141985881829571e-13 
3.5794992217371391e-01 2.6805650308378066e-02 -2.2499312661442353e-22 
3.5794989771454805e-01 2.6805625630750587e-02 -8.3455055488847327e-22 
3.5797677816525514e-01 9.3375997456559678e-03 -9.9261673506363321e-22 
3.5797675201413603e-01 9.3376084182036859e-03 -1.8271672899521067e-21 
3.5804276064603729e-01 -8.1444553827575931e-03 -1.0918784085699965e-21 
3.5804274330283853e-01 -8.1444423320349117e-03 -1.9462812981597427e-21 
3.5806233058229131e-01 -2.5723664548814376e-02 -3.2425480012078685e-22 
3.5806231602738148e-01 -2.5723645941149682e-02 -1.1191006856067148e-21 
2.7755575615628914e-17 -6.4184768611141862e-17 -1.3069453678337837e-21 
4.6335737967658298e-17 4.1962280213496506e-17 -6.7573187727829196e-22 
2.5538581868383196e-03 -3.1799342115366824e-03 -3.6271159238263949e-13 
2.5538568518110663e-03 -3.1799352404178610e-03 -3.6271159309657103e-13 
9.3644498132159758e-03 -6.4890807587548970e-03 -1.2802236323337505e-13 
9.3644461530340457e-03 -6.4890926827927825e-03 -1.2802236414582996e-13 
2.0263568637492079e-02 -9.2149748824808149e-03 -8.7568802031909285e-15 
2.0263589776854531e-02 -9.2149801049160873e-03 -8.7568806391897944e-15 
3.4503578426607721e-02 -1.1935397198725262e-02 2.6174696890166505e-13 
3.4503583347862403e-02 -1.1935410420088340e-02 2.6174696851860575e-13 
5.2406248357689325e-02 -1.4531832975745507e-02 2.2424062917940215e-22 
5.2406252023044754e-02 -1.4531833771980890e-02 -3.7057691442375640e-22 
7.3946223755051665e-02 -1.6885663572936950e-02 -2.0779855523723465e-13 
7.3946218187581486e-02 -1.6885663315878402e-02 -2.0779855540853574e-13 
9.8076026084807214e-02 -1.8803327625421896e-02 -8.2844991724651071e-13 
9.8076023322935690e-02 -1.8803325993298325e-02 -8.2844991752369093e-13 
1.2475162870508902e-01 -2.0589917958221134e-02 -8.5909002370052606e-13 
1.2475163929242306e-01 -2.0589895614797078e-02 -8.5909002360712937e-13 
1.5369831253416225e-01 -2.2385373244626455e-02 -7.3077158601718649e-13 
1.5369830544564575e-01 -2.2385375311844487e-02 -7.3077158597672937e-13 
1.8526714765754898e-01 -2.3881686092444312e-02 -9.4042967329526081e-22 
1.8526717445022481e-01 -2.3881694389066593e-02 -8.9997250645769411e-22 
2.1865286967652339e-01 -2.5001656443248515e-02 3.3401620176150293e-13 
2.1865288562571247e-01 -2.5001659140466634e-02 3.3401620196077878e-13 
2.5332765860606893e-01 -2.5527581342689867e-02 -2.2349666715451474e-13 
2.5332765103261740e-01 -2.5527596896116625e-02 -2.2349666671701089e-13 
2.8831529301225500e-01 -2.5672172740671333e-02 9.5715854508918613e-13 
2.8831533087958239e-01 -2.5672179490815475e-02 9.5715854559286440e-13 
3.2304065745391675e-01 -2.5615675499012926e-02 5.0491981508813477e-13 
3.2304066314132845e-01 -2.5615676490667837e-02 5.0491981565798749e-13 

