# vtk DataFile Version 2.0

ASCII

DATASET UNSTRUCTURED_GRID

POINTS 68 float 

-5.0000000000000003e-02  0.0000000000000000e+00  0.0000000000000000e+00
-5.0000000000000003e-02  6.6666666669999999e-02  0.0000000000000000e+00
-5.0000000000000003e-02  6.6666666669999999e-02  2.9999999999999999e-01
-5.0000000000000003e-02  0.0000000000000000e+00  2.9999999999999999e-01
-5.0000000000000003e-02  1.3333333330000000e-01  0.0000000000000000e+00
-5.0000000000000003e-02  1.3333333330000000e-01  2.9999999999999999e-01
-5.0000000000000003e-02  2.0000000000000001e-01  0.0000000000000000e+00
-5.0000000000000003e-02  2.0000000000000001e-01  2.9999999999999999e-01
-5.0000000000000003e-02  2.6666666670000000e-01  0.0000000000000000e+00
-5.0000000000000003e-02  2.6666666670000000e-01  2.9999999999999999e-01
-5.0000000000000003e-02  3.3333333329999998e-01  0.0000000000000000e+00
-5.0000000000000003e-02  3.3333333329999998e-01  2.9999999999999999e-01
-5.0000000000000003e-02  4.0000000000000002e-01  0.0000000000000000e+00
-5.0000000000000003e-02  4.0000000000000002e-01  2.9999999999999999e-01
-5.0000000000000003e-02  4.6666666670000001e-01  0.0000000000000000e+00
-5.0000000000000003e-02  4.6666666670000001e-01  2.9999999999999999e-01
-5.0000000000000003e-02  5.3333333329999999e-01  0.0000000000000000e+00
-5.0000000000000003e-02  5.3333333329999999e-01  2.9999999999999999e-01
-5.0000000000000003e-02  5.9999999999999998e-01  0.0000000000000000e+00
-5.0000000000000003e-02  5.9999999999999998e-01  2.9999999999999999e-01
-5.0000000000000003e-02  6.6666666669999997e-01  0.0000000000000000e+00
-5.0000000000000003e-02  6.6666666669999997e-01  2.9999999999999999e-01
-5.0000000000000003e-02  7.3333333329999995e-01  0.0000000000000000e+00
-5.0000000000000003e-02  7.3333333329999995e-01  2.9999999999999999e-01
-5.0000000000000003e-02  8.0000000000000004e-01  0.0000000000000000e+00
-5.0000000000000003e-02  8.0000000000000004e-01  2.9999999999999999e-01
-5.0000000000000003e-02  8.6666666670000003e-01  0.0000000000000000e+00
-5.0000000000000003e-02  8.6666666670000003e-01  2.9999999999999999e-01
-5.0000000000000003e-02  9.3333333330000001e-01  0.0000000000000000e+00
-5.0000000000000003e-02  9.3333333330000001e-01  2.9999999999999999e-01
-5.0000000000000003e-02  1.0000000000000000e+00  0.0000000000000000e+00
-5.0000000000000003e-02  1.0000000000000000e+00  2.9999999999999999e-01
-1.6666666670000000e-02  1.0000000000000000e+00  0.0000000000000000e+00
-1.6666666670000000e-02  1.0000000000000000e+00  2.9999999999999999e-01
1.6666666670000000e-02  1.0000000000000000e+00  0.0000000000000000e+00
1.6666666670000000e-02  1.0000000000000000e+00  2.9999999999999999e-01
5.0000000000000003e-02  1.0000000000000000e+00  0.0000000000000000e+00
5.0000000000000003e-02  1.0000000000000000e+00  2.9999999999999999e-01
5.0000000000000003e-02  0.0000000000000000e+00  0.0000000000000000e+00
5.0000000000000003e-02  0.0000000000000000e+00  2.9999999999999999e-01
5.0000000000000003e-02  6.6666666669999999e-02  2.9999999999999999e-01
5.0000000000000003e-02  6.6666666669999999e-02  0.0000000000000000e+00
5.0000000000000003e-02  1.3333333330000000e-01  2.9999999999999999e-01
5.0000000000000003e-02  1.3333333330000000e-01  0.0000000000000000e+00
5.0000000000000003e-02  2.0000000000000001e-01  2.9999999999999999e-01
5.0000000000000003e-02  2.0000000000000001e-01  0.0000000000000000e+00
5.0000000000000003e-02  2.6666666670000000e-01  2.9999999999999999e-01
5.0000000000000003e-02  2.6666666670000000e-01  0.0000000000000000e+00
5.0000000000000003e-02  3.3333333329999998e-01  2.9999999999999999e-01
5.0000000000000003e-02  3.3333333329999998e-01  0.0000000000000000e+00
5.0000000000000003e-02  4.0000000000000002e-01  2.9999999999999999e-01
5.0000000000000003e-02  4.0000000000000002e-01  0.0000000000000000e+00
5.0000000000000003e-02  4.6666666670000001e-01  2.9999999999999999e-01
5.0000000000000003e-02  4.6666666670000001e-01  0.0000000000000000e+00
5.0000000000000003e-02  5.3333333329999999e-01  2.9999999999999999e-01
5.0000000000000003e-02  5.3333333329999999e-01  0.0000000000000000e+00
5.0000000000000003e-02  5.9999999999999998e-01  2.9999999999999999e-01
5.0000000000000003e-02  5.9999999999999998e-01  0.0000000000000000e+00
5.0000000000000003e-02  6.6666666669999997e-01  2.9999999999999999e-01
5.0000000000000003e-02  6.6666666669999997e-01  0.0000000000000000e+00
5.0000000000000003e-02  7.3333333329999995e-01  2.9999999999999999e-01
5.0000000000000003e-02  7.3333333329999995e-01  0.0000000000000000e+00
5.0000000000000003e-02  8.0000000000000004e-01  2.9999999999999999e-01
5.0000000000000003e-02  8.0000000000000004e-01  0.0000000000000000e+00
5.0000000000000003e-02  8.6666666670000003e-01  2.9999999999999999e-01
5.0000000000000003e-02  8.6666666670000003e-01  0.0000000000000000e+00
5.0000000000000003e-02  9.3333333330000001e-01  2.9999999999999999e-01
5.0000000000000003e-02  9.3333333330000001e-01  0.0000000000000000e+00

CELLS 0 0


CELL_TYPES 0


POINT_DATA 68

VECTORS VertexNormals float

0.0000000000000000e+00 0.0000000000000000e+00 0.0000000000000000e+00 
0.0000000000000000e+00 0.0000000000000000e+00 0.0000000000000000e+00 
0.0000000000000000e+00 0.0000000000000000e+00 0.0000000000000000e+00 
0.0000000000000000e+00 0.0000000000000000e+00 0.0000000000000000e+00 
0.0000000000000000e+00 0.0000000000000000e+00 0.0000000000000000e+00 
0.0000000000000000e+00 0.0000000000000000e+00 0.0000000000000000e+00 
0.0000000000000000e+00 0.0000000000000000e+00 0.0000000000000000e+00 
0.0000000000000000e+00 0.0000000000000000e+00 0.0000000000000000e+00 
0.0000000000000000e+00 0.0000000000000000e+00 0.0000000000000000e+00 
0.0000000000000000e+00 0.0000000000000000e+00 0.0000000000000000e+00 
0.0000000000000000e+00 0.0000000000000000e+00 0.0000000000000000e+00 
0.0000000000000000e+00 0.0000000000000000e+00 0.0000000000000000e+00 
0.0000000000000000e+00 0.0000000000000000e+00 0.0000000000000000e+00 
0.0000000000000000e+00 0.0000000000000000e+00 0.0000000000000000e+00 
0.0000000000000000e+00 0.0000000000000000e+00 0.0000000000000000e+00 
0.0000000000000000e+00 0.0000000000000000e+00 0.0000000000000000e+00 
0.0000000000000000e+00 0.0000000000000000e+00 0.0000000000000000e+00 
0.0000000000000000e+00 0.0000000000000000e+00 0.0000000000000000e+00 
0.0000000000000000e+00 0.0000000000000000e+00 0.0000000000000000e+00 
0.0000000000000000e+00 0.0000000000000000e+00 0.0000000000000000e+00 
0.0000000000000000e+00 0.0000000000000000e+00 0.0000000000000000e+00 
0.0000000000000000e+00 0.0000000000000000e+00 0.0000000000000000e+00 
0.0000000000000000e+00 0.0000000000000000e+00 0.0000000000000000e+00 
0.0000000000000000e+00 0.0000000000000000e+00 0.0000000000000000e+00 
0.0000000000000000e+00 0.0000000000000000e+00 0.0000000000000000e+00 
0.0000000000000000e+00 0.0000000000000000e+00 0.0000000000000000e+00 
0.0000000000000000e+00 0.0000000000000000e+00 0.0000000000000000e+00 
0.0000000000000000e+00 0.0000000000000000e+00 0.0000000000000000e+00 
0.0000000000000000e+00 0.0000000000000000e+00 0.0000000000000000e+00 
0.0000000000000000e+00 0.0000000000000000e+00 0.0000000000000000e+00 
0.0000000000000000e+00 0.0000000000000000e+00 0.0000000000000000e+00 
0.0000000000000000e+00 0.0000000000000000e+00 0.0000000000000000e+00 
0.0000000000000000e+00 0.0000000000000000e+00 0.0000000000000000e+00 
0.0000000000000000e+00 0.0000000000000000e+00 0.0000000000000000e+00 
0.0000000000000000e+00 0.0000000000000000e+00 0.0000000000000000e+00 
0.0000000000000000e+00 0.0000000000000000e+00 0.0000000000000000e+00 
0.0000000000000000e+00 0.0000000000000000e+00 0.0000000000000000e+00 
0.0000000000000000e+00 0.0000000000000000e+00 0.0000000000000000e+00 
0.0000000000000000e+00 0.0000000000000000e+00 0.0000000000000000e+00 
0.0000000000000000e+00 0.0000000000000000e+00 0.0000000000000000e+00 
0.0000000000000000e+00 0.0000000000000000e+00 0.0000000000000000e+00 
0.0000000000000000e+00 0.0000000000000000e+00 0.0000000000000000e+00 
0.0000000000000000e+00 0.0000000000000000e+00 0.0000000000000000e+00 
0.0000000000000000e+00 0.0000000000000000e+00 0.0000000000000000e+00 
0.0000000000000000e+00 0.0000000000000000e+00 0.0000000000000000e+00 
0.0000000000000000e+00 0.0000000000000000e+00 0.0000000000000000e+00 
0.0000000000000000e+00 0.0000000000000000e+00 0.0000000000000000e+00 
0.0000000000000000e+00 0.0000000000000000e+00 0.0000000000000000e+00 
0.0000000000000000e+00 0.0000000000000000e+00 0.0000000000000000e+00 
0.0000000000000000e+00 0.0000000000000000e+00 0.0000000000000000e+00 
0.0000000000000000e+00 0.0000000000000000e+00 0.0000000000000000e+00 
0.0000000000000000e+00 0.0000000000000000e+00 0.0000000000000000e+00 
0.0000000000000000e+00 0.0000000000000000e+00 0.0000000000000000e+00 
0.0000000000000000e+00 0.0000000000000000e+00 0.0000000000000000e+00 
0.0000000000000000e+00 0.0000000000000000e+00 0.0000000000000000e+00 
0.0000000000000000e+00 0.0000000000000000e+00 0.0000000000000000e+00 
0.0000000000000000e+00 0.0000000000000000e+00 0.0000000000000000e+00 
0.0000000000000000e+00 0.0000000000000000e+00 0.0000000000000000e+00 
0.0000000000000000e+00 0.0000000000000000e+00 0.0000000000000000e+00 
0.0000000000000000e+00 0.0000000000000000e+00 0.0000000000000000e+00 
0.0000000000000000e+00 0.0000000000000000e+00 0.0000000000000000e+00 
0.0000000000000000e+00 0.0000000000000000e+00 0.0000000000000000e+00 
0.0000000000000000e+00 0.0000000000000000e+00 0.0000000000000000e+00 
0.0000000000000000e+00 0.0000000000000000e+00 0.0000000000000000e+00 
0.0000000000000000e+00 0.0000000000000000e+00 0.0000000000000000e+00 
0.0000000000000000e+00 0.0000000000000000e+00 0.0000000000000000e+00 
0.0000000000000000e+00 0.0000000000000000e+00 0.0000000000000000e+00 
0.0000000000000000e+00 0.0000000000000000e+00 0.0000000000000000e+00 

VECTORS Displacement float
-7.2858385991025898e-17 -5.2475385148298415e-17 6.4189215534114948e-22 
1.7321359428523874e-03 1.7009217634107432e-03 -3.0035157175462323e-13 
1.7321320220795668e-03 1.7009142699338340e-03 -3.0035157247112593e-13 
-2.0453720442402551e-17 -5.1258538981120897e-18 9.0825560931378829e-23 
5.0125948520037492e-03 2.8091872348156798e-03 -9.2236737823620433e-14 
5.0125987347513536e-03 2.8091903205632145e-03 -9.2236737832056550e-14 
9.3570716553178189e-03 3.4413477708984510e-03 -1.3060501980041370e-13 
9.3570733912521197e-03 3.4413430671602074e-03 -1.3060501986178937e-13 
1.4047019860084881e-02 3.6455580266351413e-03 -4.8084424985587895e-13 
1.4047014879609892e-02 3.6455536427075683e-03 -4.8084424994372438e-13 
1.8652306786642075e-02 3.5365700428653052e-03 -5.0292581243224083e-22 
1.8652305992836758e-02 3.5365709844017222e-03 -5.9077126381231593e-22 
2.2670724136548498e-02 3.0546166729156056e-03 2.4844802481573652e-13 
2.2670728055132101e-02 3.0546103637720755e-03 2.4844802480730043e-13 
2.5962856903640107e-02 2.4203077714546649e-03 -1.3627842684054654e-13 
2.5962849768463372e-02 2.4203034633449648e-03 -1.3627842690192221e-13 
2.8021634290012771e-02 1.6399604214276638e-03 -1.8681614471266193e-13 
2.8021630649626216e-02 1.6399610915181302e-03 -1.8681614474756783e-13 
2.9185467169435972e-02 9.8059800202845732e-04 -3.0996254021892801e-13 
2.9185466813708004e-02 9.8059977163783541e-04 -3.0996254020089432e-13 
2.9170332994735176e-02 2.3666653092252118e-04 3.1763735522036263e-22 
2.9170333426853875e-02 2.3666419290441196e-04 3.6214080184877191e-22 
2.8203362361376851e-02 -1.0340484573113148e-04 2.8895934709323729e-13 
2.8203365868973641e-02 -1.0340575748421838e-04 2.8895934713774075e-13 
2.6984555989686715e-02 -3.0596560806124030e-04 1.1503234905540367e-13 
2.6984559001079284e-02 -3.0596961413335524e-04 1.1503234913961179e-13 
2.5228557736301376e-02 -7.0645889810822980e-04 5.2520455771421816e-14 
2.5228553565037459e-02 -7.0645542564945030e-04 5.2520455948274163e-14 
2.2870564366787763e-02 -8.9198558010187981e-04 2.2904083041279212e-13 
2.2870573467273950e-02 -8.9198102425567670e-04 2.2904083054993982e-13 
2.0323704697563304e-02 -9.1544820226580970e-04 -2.6469779601696886e-23 
2.0323716180479148e-02 -9.1544536797295265e-04 2.1655701403943904e-22 
2.0364312648890673e-02 3.5527221432327723e-04 1.5881867761018131e-22 
2.0364321634484466e-02 3.5527409076859076e-04 3.7537569164962035e-22 
2.0432178587485986e-02 1.5476971340104631e-03 1.3234889800848443e-22 
2.0432180362971088e-02 1.5476961649814123e-03 3.8199313655004457e-22 
2.0436402003872107e-02 2.7283417299076643e-03 -1.3234889800848443e-23 
2.0436402710939057e-02 2.7283419315436812e-03 1.6361745483604526e-22 
5.2041704279304213e-18 2.2903770893756281e-17 8.4372422480408823e-23 
-3.1064856826344804e-18 2.7752576982510832e-17 -2.9942808501363212e-23 
1.7210963424111330e-03 -1.5907693584877839e-03 -1.6233332347948129e-13 
1.7210960116902964e-03 -1.5907698576086099e-03 -1.6233332336516605e-13 
5.0059273469788539e-03 -2.5992005669631937e-03 6.5101687644399598e-14 
5.0059301221606605e-03 -2.5991944266492233e-03 6.5101687692540384e-14 
9.2645806135664716e-03 -3.0623169085093166e-03 1.1527299243425581e-14 
9.2645782127870786e-03 -3.0623155652471229e-03 1.1527299331271033e-14 
1.4020345292593366e-02 -3.1091456834134060e-03 1.3007557967777435e-13 
1.4020354202445618e-02 -3.1091419930653948e-03 1.3007557973915003e-13 
1.8653748505641912e-02 -2.8606568418714875e-03 1.5038256503519682e-22 
1.8653744199525455e-02 -2.8606501622938452e-03 1.8528845721187820e-22 
2.2668269308726331e-02 -2.3018421998986850e-03 1.5945724110289209e-13 
2.2668264623572836e-02 -2.3018452960274606e-03 1.5945724119073755e-13 
2.5954842178667479e-02 -1.5900455109904047e-03 3.2102529631265149e-13 
2.5954851192593095e-02 -1.5900483055731286e-03 3.2102529637402714e-13 
2.8017313617134665e-02 -7.1183462871257154e-04 4.0849785220670078e-13 
2.8017322617309236e-02 -7.1183538008019482e-04 4.0849785218866709e-13 
2.9176519781144970e-02 6.8519604686927414e-05 1.2899696228467767e-13 
2.9176522130067314e-02 6.8522796436821555e-05 1.2899696221370445e-13 
2.9150404835830718e-02 9.3616925731529270e-04 1.2391278543349994e-22 
2.9150403934302932e-02 9.3616937492314867e-04 7.9409338805090657e-23 
2.8192182252071471e-02 1.4418009745054709e-03 -3.3668947609370185e-13 
2.8192175103458960e-02 1.4418016138757275e-03 -3.3668947613820532e-13 
2.6957671363860371e-02 1.8497341124575379e-03 -1.5666464322730126e-13 
2.6957670723628410e-02 1.8497279000510283e-03 -1.5666464325856981e-13 
2.5238632953864533e-02 2.2977078198470652e-03 -2.1194160767603983e-13 
2.5238637589782197e-02 2.2977099169017370e-03 -2.1194160772054328e-13 
2.2863922838456133e-02 2.6747849028723359e-03 -8.8553955288295498e-13 
2.2863915603262119e-02 2.6747880847982830e-03 -8.8553955307965968e-13 

