# vtk DataFile Version 2.0

ASCII

DATASET UNSTRUCTURED_GRID

POINTS 33 float 

-5.0000000000000003e-02  3.3333333335000000e-02  1.4999999999999997e-01
-5.0000000000000003e-02  9.9999999985000018e-02  1.4999999999999999e-01
-5.0000000000000003e-02  1.6666666665000002e-01  1.4999999999999999e-01
-5.0000000000000003e-02  2.3333333334999998e-01  1.4999999999999999e-01
-5.0000000000000003e-02  2.9999999999999993e-01  1.4999999999999997e-01
-5.0000000000000003e-02  3.6666666665000003e-01  1.4999999999999999e-01
-5.0000000000000003e-02  4.3333333335000002e-01  1.4999999999999999e-01
-5.0000000000000003e-02  5.0000000000000000e-01  1.4999999999999997e-01
-5.0000000000000003e-02  5.6666666664999987e-01  1.4999999999999999e-01
-5.0000000000000003e-02  6.3333333334999986e-01  1.4999999999999999e-01
-5.0000000000000003e-02  6.9999999999999984e-01  1.4999999999999997e-01
-5.0000000000000003e-02  7.6666666664999994e-01  1.4999999999999999e-01
-4.9999999999999996e-02  8.3333333334999982e-01  1.4999999999999999e-01
-5.0000000000000003e-02  8.9999999999999991e-01  1.4999999999999997e-01
-5.0000000000000003e-02  9.6666666664999990e-01  1.4999999999999999e-01
-3.3333333335000000e-02  9.9999999999999978e-01  1.4999999999999997e-01
0.0000000000000000e+00  1.0000000000000000e+00  1.4999999999999997e-01
3.3333333335000007e-02  1.0000000000000000e+00  1.4999999999999999e-01
5.0000000000000003e-02  3.3333333335000000e-02  1.4999999999999999e-01
5.0000000000000003e-02  9.9999999985000004e-02  1.4999999999999999e-01
5.0000000000000003e-02  1.6666666664999999e-01  1.4999999999999999e-01
5.0000000000000003e-02  2.3333333334999998e-01  1.4999999999999999e-01
5.0000000000000003e-02  2.9999999999999993e-01  1.4999999999999997e-01
5.0000000000000003e-02  3.6666666665000003e-01  1.4999999999999999e-01
5.0000000000000003e-02  4.3333333334999991e-01  1.4999999999999999e-01
5.0000000000000003e-02  5.0000000000000000e-01  1.4999999999999997e-01
5.0000000000000003e-02  5.6666666664999987e-01  1.4999999999999999e-01
5.0000000000000003e-02  6.3333333334999997e-01  1.4999999999999999e-01
5.0000000000000003e-02  6.9999999999999984e-01  1.4999999999999997e-01
5.0000000000000003e-02  7.6666666664999994e-01  1.4999999999999999e-01
5.0000000000000003e-02  8.3333333334999993e-01  1.4999999999999999e-01
5.0000000000000010e-02  8.9999999999999991e-01  1.4999999999999999e-01
5.0000000000000003e-02  9.6666666664999990e-01  1.4999999999999999e-01

CELLS 0 0


CELL_TYPES 0


POINT_DATA 33

VECTORS VertexNormals float

0.0000000000000000e+00 0.0000000000000000e+00 0.0000000000000000e+00 
0.0000000000000000e+00 0.0000000000000000e+00 0.0000000000000000e+00 
0.0000000000000000e+00 0.0000000000000000e+00 0.0000000000000000e+00 
0.0000000000000000e+00 0.0000000000000000e+00 0.0000000000000000e+00 
0.0000000000000000e+00 0.0000000000000000e+00 0.0000000000000000e+00 
0.0000000000000000e+00 0.0000000000000000e+00 0.0000000000000000e+00 
0.0000000000000000e+00 0.0000000000000000e+00 0.0000000000000000e+00 
0.0000000000000000e+00 0.0000000000000000e+00 0.0000000000000000e+00 
0.0000000000000000e+00 0.0000000000000000e+00 0.0000000000000000e+00 
0.0000000000000000e+00 0.0000000000000000e+00 0.0000000000000000e+00 
0.0000000000000000e+00 0.0000000000000000e+00 0.0000000000000000e+00 
0.0000000000000000e+00 0.0000000000000000e+00 0.0000000000000000e+00 
0.0000000000000000e+00 0.0000000000000000e+00 0.0000000000000000e+00 
0.0000000000000000e+00 0.0000000000000000e+00 0.0000000000000000e+00 
0.0000000000000000e+00 0.0000000000000000e+00 0.0000000000000000e+00 
0.0000000000000000e+00 0.0000000000000000e+00 0.0000000000000000e+00 
0.0000000000000000e+00 0.0000000000000000e+00 0.0000000000000000e+00 
0.0000000000000000e+00 0.0000000000000000e+00 0.0000000000000000e+00 
0.0000000000000000e+00 0.0000000000000000e+00 0.0000000000000000e+00 
0.0000000000000000e+00 0.0000000000000000e+00 0.0000000000000000e+00 
0.0000000000000000e+00 0.0000000000000000e+00 0.0000000000000000e+00 
0.0000000000000000e+00 0.0000000000000000e+00 0.0000000000000000e+00 
0.0000000000000000e+00 0.0000000000000000e+00 0.0000000000000000e+00 
0.0000000000000000e+00 0.0000000000000000e+00 0.0000000000000000e+00 
0.0000000000000000e+00 0.0000000000000000e+00 0.0000000000000000e+00 
0.0000000000000000e+00 0.0000000000000000e+00 0.0000000000000000e+00 
0.0000000000000000e+00 0.0000000000000000e+00 0.0000000000000000e+00 
0.0000000000000000e+00 0.0000000000000000e+00 0.0000000000000000e+00 
0.0000000000000000e+00 0.0000000000000000e+00 0.0000000000000000e+00 
0.0000000000000000e+00 0.0000000000000000e+00 0.0000000000000000e+00 
0.0000000000000000e+00 0.0000000000000000e+00 0.0000000000000000e+00 
0.0000000000000000e+00 0.0000000000000000e+00 0.0000000000000000e+00 
0.0000000000000000e+00 0.0000000000000000e+00 0.0000000000000000e+00 

VECTORS Stress float
1.1344854396752345e+02 -2.4171412441309319e+00 -4.8019529339165472e-13 
1.1337760982179547e+02 -3.9867164754545654e+00 -5.5354014561324247e-13 
1.1288240771252836e+02 -4.8745130915093551e+00 2.9955762633599131e-14 
1.1199795628616415e+02 -4.8224751839801279e+00 2.1126843926432705e-13 
1.1076021643525985e+02 -4.2365479133770894e+00 1.0516107812541538e-13 
1.0919178052968141e+02 -3.0350858990928948e+00 -1.4396866066293228e-13 
1.0724496177565101e+02 -1.6997053151690273e+00 -2.2099638032942590e-13 
1.0475183709232410e+02 -2.6103116930322845e-01 -1.3739589926741654e-13 
1.0158841381037512e+02 1.2126776416988816e+00 -1.2893589700569078e-13 
9.7412690667266233e+01 1.6179240979363498e+00 -6.8927798472149542e-14 
9.1599527640717483e+01 1.1191254603741971e+00 2.4535157592491289e-13 
8.3423046413083100e+01 7.1971222444714456e-01 3.3165748870448063e-13 
7.1526256479221644e+01 6.0994517234032020e-01 9.5985785986143088e-14 
5.2501348473638203e+01 6.5122867902701653e-01 1.2181453494294358e-13 
1.5876414391258452e+01 5.0210423182730235e-01 1.1208596318639696e-13 
-8.6421139117259604e-01 2.0666063059918801e+02 3.0136324563539297e-21 
-9.0015140219306489e-01 1.8444566292699892e+02 -3.8938817427507587e-18 
-8.3812601897721117e-01 1.4670775717936993e+02 8.0345371327308846e-17 
1.0164743362604271e+02 -2.0315254817453514e+00 3.6378513784432289e-13 
1.0184816725528766e+02 -3.6904133039748590e+00 4.7760622372585283e-13 
1.0252470454313911e+02 -4.4584487034626461e+00 2.5565226395545908e-14 
1.0379452676725127e+02 -4.4800227733511759e+00 -3.1257412782772289e-13 
1.0578114948301840e+02 -4.0052364408398153e+00 -2.2698515480001017e-13 
1.0867454312438130e+02 -2.9545910071886894e+00 1.8264560752266935e-13 
1.1261925029399050e+02 -1.7428920244193713e+00 3.1543126463531109e-13 
1.1760822682757247e+02 -2.8897904922415657e-01 1.1649067318274705e-13 
1.2352803770142884e+02 1.4475911112000635e+00 -5.3544364492650837e-14 
1.2969403202242685e+02 2.1340509609070861e+00 -3.7368481512390955e-14 
1.3501087838201011e+02 1.5830196019856602e+00 1.4147384919217243e-13 
1.3845686584397689e+02 1.0328578947313263e+00 2.8057972828933914e-13 
1.3891785236643574e+02 8.7609927628412332e-01 6.2246500949267085e-14 
1.3537806098229794e+02 1.0033900077288971e+00 -4.0047531374425426e-15 
1.2716866425427411e+02 1.0188394123587012e+00 7.3371923937636016e-14 

