# vtk DataFile Version 2.0

ASCII

DATASET UNSTRUCTURED_GRID

POINTS 68 float 

-5.0000000000000003e-02  0.0000000000000000e+00  0.0000000000000000e+00
-5.0000000000000003e-02  6.6666666669999999e-02  0.0000000000000000e+00
-5.0000000000000003e-02  6.6666666669999999e-02  2.9999999999999999e-01
-5.0000000000000003e-02  0.0000000000000000e+00  2.9999999999999999e-01
-5.0000000000000003e-02  1.3333333330000000e-01  0.0000000000000000e+00
-5.0000000000000003e-02  1.3333333330000000e-01  2.9999999999999999e-01
-5.0000000000000003e-02  2.0000000000000001e-01  0.0000000000000000e+00
-5.0000000000000003e-02  2.0000000000000001e-01  2.9999999999999999e-01
-5.0000000000000003e-02  2.6666666670000000e-01  0.0000000000000000e+00
-5.0000000000000003e-02  2.6666666670000000e-01  2.9999999999999999e-01
-5.0000000000000003e-02  3.3333333329999998e-01  0.0000000000000000e+00
-5.0000000000000003e-02  3.3333333329999998e-01  2.9999999999999999e-01
-5.0000000000000003e-02  4.0000000000000002e-01  0.0000000000000000e+00
-5.0000000000000003e-02  4.0000000000000002e-01  2.9999999999999999e-01
-5.0000000000000003e-02  4.6666666670000001e-01  0.0000000000000000e+00
-5.0000000000000003e-02  4.6666666670000001e-01  2.9999999999999999e-01
-5.0000000000000003e-02  5.3333333329999999e-01  0.0000000000000000e+00
-5.0000000000000003e-02  5.3333333329999999e-01  2.9999999999999999e-01
-5.0000000000000003e-02  5.9999999999999998e-01  0.0000000000000000e+00
-5.0000000000000003e-02  5.9999999999999998e-01  2.9999999999999999e-01
-5.0000000000000003e-02  6.6666666669999997e-01  0.0000000000000000e+00
-5.0000000000000003e-02  6.6666666669999997e-01  2.9999999999999999e-01
-5.0000000000000003e-02  7.3333333329999995e-01  0.0000000000000000e+00
-5.0000000000000003e-02  7.3333333329999995e-01  2.9999999999999999e-01
-5.0000000000000003e-02  8.0000000000000004e-01  0.0000000000000000e+00
-5.0000000000000003e-02  8.0000000000000004e-01  2.9999999999999999e-01
-5.0000000000000003e-02  8.6666666670000003e-01  0.0000000000000000e+00
-5.0000000000000003e-02  8.6666666670000003e-01  2.9999999999999999e-01
-5.0000000000000003e-02  9.3333333330000001e-01  0.0000000000000000e+00
-5.0000000000000003e-02  9.3333333330000001e-01  2.9999999999999999e-01
-5.0000000000000003e-02  1.0000000000000000e+00  0.0000000000000000e+00
-5.0000000000000003e-02  1.0000000000000000e+00  2.9999999999999999e-01
-1.6666666670000000e-02  1.0000000000000000e+00  0.0000000000000000e+00
-1.6666666670000000e-02  1.0000000000000000e+00  2.9999999999999999e-01
1.6666666670000000e-02  1.0000000000000000e+00  0.0000000000000000e+00
1.6666666670000000e-02  1.0000000000000000e+00  2.9999999999999999e-01
5.0000000000000003e-02  1.0000000000000000e+00  0.0000000000000000e+00
5.0000000000000003e-02  1.0000000000000000e+00  2.9999999999999999e-01
5.0000000000000003e-02  0.0000000000000000e+00  0.0000000000000000e+00
5.0000000000000003e-02  0.0000000000000000e+00  2.9999999999999999e-01
5.0000000000000003e-02  6.6666666669999999e-02  2.9999999999999999e-01
5.0000000000000003e-02  6.6666666669999999e-02  0.0000000000000000e+00
5.0000000000000003e-02  1.3333333330000000e-01  2.9999999999999999e-01
5.0000000000000003e-02  1.3333333330000000e-01  0.0000000000000000e+00
5.0000000000000003e-02  2.0000000000000001e-01  2.9999999999999999e-01
5.0000000000000003e-02  2.0000000000000001e-01  0.0000000000000000e+00
5.0000000000000003e-02  2.6666666670000000e-01  2.9999999999999999e-01
5.0000000000000003e-02  2.6666666670000000e-01  0.0000000000000000e+00
5.0000000000000003e-02  3.3333333329999998e-01  2.9999999999999999e-01
5.0000000000000003e-02  3.3333333329999998e-01  0.0000000000000000e+00
5.0000000000000003e-02  4.0000000000000002e-01  2.9999999999999999e-01
5.0000000000000003e-02  4.0000000000000002e-01  0.0000000000000000e+00
5.0000000000000003e-02  4.6666666670000001e-01  2.9999999999999999e-01
5.0000000000000003e-02  4.6666666670000001e-01  0.0000000000000000e+00
5.0000000000000003e-02  5.3333333329999999e-01  2.9999999999999999e-01
5.0000000000000003e-02  5.3333333329999999e-01  0.0000000000000000e+00
5.0000000000000003e-02  5.9999999999999998e-01  2.9999999999999999e-01
5.0000000000000003e-02  5.9999999999999998e-01  0.0000000000000000e+00
5.0000000000000003e-02  6.6666666669999997e-01  2.9999999999999999e-01
5.0000000000000003e-02  6.6666666669999997e-01  0.0000000000000000e+00
5.0000000000000003e-02  7.3333333329999995e-01  2.9999999999999999e-01
5.0000000000000003e-02  7.3333333329999995e-01  0.0000000000000000e+00
5.0000000000000003e-02  8.0000000000000004e-01  2.9999999999999999e-01
5.0000000000000003e-02  8.0000000000000004e-01  0.0000000000000000e+00
5.0000000000000003e-02  8.6666666670000003e-01  2.9999999999999999e-01
5.0000000000000003e-02  8.6666666670000003e-01  0.0000000000000000e+00
5.0000000000000003e-02  9.3333333330000001e-01  2.9999999999999999e-01
5.0000000000000003e-02  9.3333333330000001e-01  0.0000000000000000e+00

CELLS 0 0


CELL_TYPES 0


POINT_DATA 68

VECTORS VertexNormals float

0.0000000000000000e+00 0.0000000000000000e+00 0.0000000000000000e+00 
0.0000000000000000e+00 0.0000000000000000e+00 0.0000000000000000e+00 
0.0000000000000000e+00 0.0000000000000000e+00 0.0000000000000000e+00 
0.0000000000000000e+00 0.0000000000000000e+00 0.0000000000000000e+00 
0.0000000000000000e+00 0.0000000000000000e+00 0.0000000000000000e+00 
0.0000000000000000e+00 0.0000000000000000e+00 0.0000000000000000e+00 
0.0000000000000000e+00 0.0000000000000000e+00 0.0000000000000000e+00 
0.0000000000000000e+00 0.0000000000000000e+00 0.0000000000000000e+00 
0.0000000000000000e+00 0.0000000000000000e+00 0.0000000000000000e+00 
0.0000000000000000e+00 0.0000000000000000e+00 0.0000000000000000e+00 
0.0000000000000000e+00 0.0000000000000000e+00 0.0000000000000000e+00 
0.0000000000000000e+00 0.0000000000000000e+00 0.0000000000000000e+00 
0.0000000000000000e+00 0.0000000000000000e+00 0.0000000000000000e+00 
0.0000000000000000e+00 0.0000000000000000e+00 0.0000000000000000e+00 
0.0000000000000000e+00 0.0000000000000000e+00 0.0000000000000000e+00 
0.0000000000000000e+00 0.0000000000000000e+00 0.0000000000000000e+00 
0.0000000000000000e+00 0.0000000000000000e+00 0.0000000000000000e+00 
0.0000000000000000e+00 0.0000000000000000e+00 0.0000000000000000e+00 
0.0000000000000000e+00 0.0000000000000000e+00 0.0000000000000000e+00 
0.0000000000000000e+00 0.0000000000000000e+00 0.0000000000000000e+00 
0.0000000000000000e+00 0.0000000000000000e+00 0.0000000000000000e+00 
0.0000000000000000e+00 0.0000000000000000e+00 0.0000000000000000e+00 
0.0000000000000000e+00 0.0000000000000000e+00 0.0000000000000000e+00 
0.0000000000000000e+00 0.0000000000000000e+00 0.0000000000000000e+00 
0.0000000000000000e+00 0.0000000000000000e+00 0.0000000000000000e+00 
0.0000000000000000e+00 0.0000000000000000e+00 0.0000000000000000e+00 
0.0000000000000000e+00 0.0000000000000000e+00 0.0000000000000000e+00 
0.0000000000000000e+00 0.0000000000000000e+00 0.0000000000000000e+00 
0.0000000000000000e+00 0.0000000000000000e+00 0.0000000000000000e+00 
0.0000000000000000e+00 0.0000000000000000e+00 0.0000000000000000e+00 
0.0000000000000000e+00 0.0000000000000000e+00 0.0000000000000000e+00 
0.0000000000000000e+00 0.0000000000000000e+00 0.0000000000000000e+00 
0.0000000000000000e+00 0.0000000000000000e+00 0.0000000000000000e+00 
0.0000000000000000e+00 0.0000000000000000e+00 0.0000000000000000e+00 
0.0000000000000000e+00 0.0000000000000000e+00 0.0000000000000000e+00 
0.0000000000000000e+00 0.0000000000000000e+00 0.0000000000000000e+00 
0.0000000000000000e+00 0.0000000000000000e+00 0.0000000000000000e+00 
0.0000000000000000e+00 0.0000000000000000e+00 0.0000000000000000e+00 
0.0000000000000000e+00 0.0000000000000000e+00 0.0000000000000000e+00 
0.0000000000000000e+00 0.0000000000000000e+00 0.0000000000000000e+00 
0.0000000000000000e+00 0.0000000000000000e+00 0.0000000000000000e+00 
0.0000000000000000e+00 0.0000000000000000e+00 0.0000000000000000e+00 
0.0000000000000000e+00 0.0000000000000000e+00 0.0000000000000000e+00 
0.0000000000000000e+00 0.0000000000000000e+00 0.0000000000000000e+00 
0.0000000000000000e+00 0.0000000000000000e+00 0.0000000000000000e+00 
0.0000000000000000e+00 0.0000000000000000e+00 0.0000000000000000e+00 
0.0000000000000000e+00 0.0000000000000000e+00 0.0000000000000000e+00 
0.0000000000000000e+00 0.0000000000000000e+00 0.0000000000000000e+00 
0.0000000000000000e+00 0.0000000000000000e+00 0.0000000000000000e+00 
0.0000000000000000e+00 0.0000000000000000e+00 0.0000000000000000e+00 
0.0000000000000000e+00 0.0000000000000000e+00 0.0000000000000000e+00 
0.0000000000000000e+00 0.0000000000000000e+00 0.0000000000000000e+00 
0.0000000000000000e+00 0.0000000000000000e+00 0.0000000000000000e+00 
0.0000000000000000e+00 0.0000000000000000e+00 0.0000000000000000e+00 
0.0000000000000000e+00 0.0000000000000000e+00 0.0000000000000000e+00 
0.0000000000000000e+00 0.0000000000000000e+00 0.0000000000000000e+00 
0.0000000000000000e+00 0.0000000000000000e+00 0.0000000000000000e+00 
0.0000000000000000e+00 0.0000000000000000e+00 0.0000000000000000e+00 
0.0000000000000000e+00 0.0000000000000000e+00 0.0000000000000000e+00 
0.0000000000000000e+00 0.0000000000000000e+00 0.0000000000000000e+00 
0.0000000000000000e+00 0.0000000000000000e+00 0.0000000000000000e+00 
0.0000000000000000e+00 0.0000000000000000e+00 0.0000000000000000e+00 
0.0000000000000000e+00 0.0000000000000000e+00 0.0000000000000000e+00 
0.0000000000000000e+00 0.0000000000000000e+00 0.0000000000000000e+00 
0.0000000000000000e+00 0.0000000000000000e+00 0.0000000000000000e+00 
0.0000000000000000e+00 0.0000000000000000e+00 0.0000000000000000e+00 
0.0000000000000000e+00 0.0000000000000000e+00 0.0000000000000000e+00 
0.0000000000000000e+00 0.0000000000000000e+00 0.0000000000000000e+00 

VECTORS Displacement float
-3.2265856653168612e-16 6.1582683397176652e-17 3.1101991031993841e-22 
2.4040214715798820e-03 2.1641368214116640e-03 6.3138939856815950e-13 
2.4040283010427002e-03 2.1641431845874325e-03 6.3138939936809092e-13 
-1.3976444605497891e-17 3.2911447484580246e-17 -1.1327598988233846e-22 
7.0061568295795851e-03 3.6165438782966419e-03 -5.7221791866478300e-14 
7.0061476045247713e-03 3.6165436808038836e-03 -5.7221792085633414e-14 
1.3138226716022699e-02 4.3872607861838052e-03 -1.4491864830535873e-13 
1.3138231890693734e-02 4.3872576210516340e-03 -1.4491864857745340e-13 
2.0089888602992597e-02 4.8480409189417487e-03 -5.1949770081360266e-13 
2.0089879457896923e-02 4.8480473517721655e-03 -5.1949770108569732e-13 
2.7467182405433142e-02 5.0151967325368276e-03 -1.5881867761018131e-22 
2.7467187416206646e-02 5.0151963214358350e-03 -4.3091334510270106e-22 
3.5002590230066431e-02 4.8590835158102350e-03 -2.2009231028982172e-13 
3.5002579897746931e-02 4.8590847366098951e-03 -2.2009231045603726e-13 
4.2055986395668328e-02 4.0935005390543150e-03 -6.5807098914770582e-14 
4.2055992459680669e-02 4.0935006968629102e-03 -6.5807098975107019e-14 
4.7480917762913348e-02 2.7595966864272237e-03 -4.0526793794856531e-13 
4.7480909967066415e-02 2.7595908154396604e-03 -4.0526793800890174e-13 
5.0846419275719659e-02 1.4643268086887949e-03 -5.5006992054151089e-13 
5.0846419264340907e-02 1.4643304988052131e-03 -5.5006992065478688e-13 
5.2598612245876433e-02 3.7747594818562068e-04 4.7645603283054394e-22 
5.2598624809554587e-02 3.7747109777596771e-04 4.1611960215159928e-22 
5.3089205002893693e-02 -5.5158997425666136e-04 3.0793223731681742e-13 
5.3089201218193459e-02 -5.5159439764712690e-04 3.0793223741529967e-13 
5.2103381167686362e-02 -1.4411454734014739e-03 3.1101013873610064e-13 
5.2103385941219493e-02 -1.4411437178278490e-03 3.1101013878164334e-13 
5.0275018863742089e-02 -1.7831808506903433e-03 9.3692324069400957e-13 
5.0275031244215861e-02 -1.7831771106781337e-03 9.3692324079249172e-13 
4.8312714256624124e-02 -2.0444083255063074e-03 1.2651198921233565e-12 
4.8312718573012246e-02 -2.0444053211450008e-03 1.2651198922218387e-12 
4.6008070094445540e-02 -2.1518451353525121e-03 -2.6469779601696886e-23 
4.6008068886622226e-02 -2.1518359693335214e-03 9.8482246931236627e-23 
4.6022396625211397e-02 -1.0050879027916661e-03 -3.1763735522036263e-22 
4.6022395978416945e-02 -1.0050877192579535e-03 -6.0336430678944686e-23 
4.6001533957202141e-02 1.3391668193261236e-04 1.4558378780933287e-22 
4.6001535198854047e-02 1.3391396228316438e-04 3.1024048374481174e-22 
4.5953560859857134e-02 1.2634328132337153e-03 -7.9409338805090657e-23 
4.5953561093997258e-02 1.2634271865424561e-03 1.3818691633378196e-22 
2.4286128663675299e-17 8.8687737709314263e-17 1.8859717966209031e-22 
6.8402371062237945e-18 1.0815507825507425e-16 1.4480436123420618e-22 
2.3939621256857425e-03 -2.3928681066286155e-03 -5.6924697846952590e-14 
2.3939603235942492e-03 -2.3928682434645400e-03 -5.6924697654267255e-14 
7.0285778521183805e-03 -4.0965327162615622e-03 -2.2113323033017903e-13 
7.0285731591575203e-03 -4.0965334506221614e-03 -2.2113323011102393e-13 
1.3155238259264165e-02 -5.1166358217773966e-03 3.7619819727237983e-13 
1.3155235754648756e-02 -5.1166416999459344e-03 3.7619819754447449e-13 
2.0011006944983482e-02 -5.6456581775861511e-03 6.6736743831663855e-13 
2.0011010565111745e-02 -5.6456597775264381e-03 6.6736743853579365e-13 
2.7421587169807759e-02 -5.9344671214910409e-03 -2.1915510828912598e-22 
2.7421588927070778e-02 -5.9344766964830892e-03 -5.2939559203393771e-23 
3.4916537770814354e-02 -5.7983577912773315e-03 3.0313696706045858e-13 
3.4916544684564468e-02 -5.7983586651153048e-03 3.0313696712079501e-13 
4.1962985979302134e-02 -5.0178382052399910e-03 -8.7595838026438344e-14 
4.1962977204033310e-02 -5.0178366847153637e-03 -8.7595837966101907e-14 
4.7400777294822422e-02 -3.7021602756827634e-03 1.0194244357386905e-13 
4.7400774918813574e-02 -3.7021651680977184e-03 1.0194244363420548e-13 
5.0756771085590263e-02 -2.3862839862345770e-03 1.0317780481090183e-13 
5.0756773264628956e-02 -2.3862798711676500e-03 1.0317780492417783e-13 
5.2500661725680534e-02 -1.2527780266532009e-03 5.2199872055838682e-22 
5.2500648739910200e-02 -1.2527821185733708e-03 4.7645603283054394e-22 
5.2994540292847100e-02 -3.4672704086927483e-04 3.8143059517915662e-13 
5.2994549093569293e-02 -3.4672930194124766e-04 3.8143059513361392e-13 
5.2080667912266607e-02 5.7950024681812339e-04 -1.3574601708916666e-13 
5.2080658304390612e-02 5.7950841057194391e-04 -1.3574601724058847e-13 
5.0146259699124909e-02 9.5312012706267853e-04 -1.0073564347539108e-12 
5.0146246901412860e-02 9.5312593036968492e-04 -1.0073564348788628e-12 
4.8250252426855808e-02 1.1082236914260115e-03 -8.7291474606550974e-13 
4.8250242753304862e-02 1.1082242684754434e-03 -8.7291474624340133e-13 

