# vtk DataFile Version 2.0

ASCII

DATASET UNSTRUCTURED_GRID

POINTS 68 float 

-5.0000000000000003e-02  0.0000000000000000e+00  0.0000000000000000e+00
-5.0000000000000003e-02  6.6666666669999999e-02  0.0000000000000000e+00
-5.0000000000000003e-02  6.6666666669999999e-02  2.9999999999999999e-01
-5.0000000000000003e-02  0.0000000000000000e+00  2.9999999999999999e-01
-5.0000000000000003e-02  1.3333333330000000e-01  0.0000000000000000e+00
-5.0000000000000003e-02  1.3333333330000000e-01  2.9999999999999999e-01
-5.0000000000000003e-02  2.0000000000000001e-01  0.0000000000000000e+00
-5.0000000000000003e-02  2.0000000000000001e-01  2.9999999999999999e-01
-5.0000000000000003e-02  2.6666666670000000e-01  0.0000000000000000e+00
-5.0000000000000003e-02  2.6666666670000000e-01  2.9999999999999999e-01
-5.0000000000000003e-02  3.3333333329999998e-01  0.0000000000000000e+00
-5.0000000000000003e-02  3.3333333329999998e-01  2.9999999999999999e-01
-5.0000000000000003e-02  4.0000000000000002e-01  0.0000000000000000e+00
-5.0000000000000003e-02  4.0000000000000002e-01  2.9999999999999999e-01
-5.0000000000000003e-02  4.6666666670000001e-01  0.0000000000000000e+00
-5.0000000000000003e-02  4.6666666670000001e-01  2.9999999999999999e-01
-5.0000000000000003e-02  5.3333333329999999e-01  0.0000000000000000e+00
-5.0000000000000003e-02  5.3333333329999999e-01  2.9999999999999999e-01
-5.0000000000000003e-02  5.9999999999999998e-01  0.0000000000000000e+00
-5.0000000000000003e-02  5.9999999999999998e-01  2.9999999999999999e-01
-5.0000000000000003e-02  6.6666666669999997e-01  0.0000000000000000e+00
-5.0000000000000003e-02  6.6666666669999997e-01  2.9999999999999999e-01
-5.0000000000000003e-02  7.3333333329999995e-01  0.0000000000000000e+00
-5.0000000000000003e-02  7.3333333329999995e-01  2.9999999999999999e-01
-5.0000000000000003e-02  8.0000000000000004e-01  0.0000000000000000e+00
-5.0000000000000003e-02  8.0000000000000004e-01  2.9999999999999999e-01
-5.0000000000000003e-02  8.6666666670000003e-01  0.0000000000000000e+00
-5.0000000000000003e-02  8.6666666670000003e-01  2.9999999999999999e-01
-5.0000000000000003e-02  9.3333333330000001e-01  0.0000000000000000e+00
-5.0000000000000003e-02  9.3333333330000001e-01  2.9999999999999999e-01
-5.0000000000000003e-02  1.0000000000000000e+00  0.0000000000000000e+00
-5.0000000000000003e-02  1.0000000000000000e+00  2.9999999999999999e-01
-1.6666666670000000e-02  1.0000000000000000e+00  0.0000000000000000e+00
-1.6666666670000000e-02  1.0000000000000000e+00  2.9999999999999999e-01
1.6666666670000000e-02  1.0000000000000000e+00  0.0000000000000000e+00
1.6666666670000000e-02  1.0000000000000000e+00  2.9999999999999999e-01
5.0000000000000003e-02  1.0000000000000000e+00  0.0000000000000000e+00
5.0000000000000003e-02  1.0000000000000000e+00  2.9999999999999999e-01
5.0000000000000003e-02  0.0000000000000000e+00  0.0000000000000000e+00
5.0000000000000003e-02  0.0000000000000000e+00  2.9999999999999999e-01
5.0000000000000003e-02  6.6666666669999999e-02  2.9999999999999999e-01
5.0000000000000003e-02  6.6666666669999999e-02  0.0000000000000000e+00
5.0000000000000003e-02  1.3333333330000000e-01  2.9999999999999999e-01
5.0000000000000003e-02  1.3333333330000000e-01  0.0000000000000000e+00
5.0000000000000003e-02  2.0000000000000001e-01  2.9999999999999999e-01
5.0000000000000003e-02  2.0000000000000001e-01  0.0000000000000000e+00
5.0000000000000003e-02  2.6666666670000000e-01  2.9999999999999999e-01
5.0000000000000003e-02  2.6666666670000000e-01  0.0000000000000000e+00
5.0000000000000003e-02  3.3333333329999998e-01  2.9999999999999999e-01
5.0000000000000003e-02  3.3333333329999998e-01  0.0000000000000000e+00
5.0000000000000003e-02  4.0000000000000002e-01  2.9999999999999999e-01
5.0000000000000003e-02  4.0000000000000002e-01  0.0000000000000000e+00
5.0000000000000003e-02  4.6666666670000001e-01  2.9999999999999999e-01
5.0000000000000003e-02  4.6666666670000001e-01  0.0000000000000000e+00
5.0000000000000003e-02  5.3333333329999999e-01  2.9999999999999999e-01
5.0000000000000003e-02  5.3333333329999999e-01  0.0000000000000000e+00
5.0000000000000003e-02  5.9999999999999998e-01  2.9999999999999999e-01
5.0000000000000003e-02  5.9999999999999998e-01  0.0000000000000000e+00
5.0000000000000003e-02  6.6666666669999997e-01  2.9999999999999999e-01
5.0000000000000003e-02  6.6666666669999997e-01  0.0000000000000000e+00
5.0000000000000003e-02  7.3333333329999995e-01  2.9999999999999999e-01
5.0000000000000003e-02  7.3333333329999995e-01  0.0000000000000000e+00
5.0000000000000003e-02  8.0000000000000004e-01  2.9999999999999999e-01
5.0000000000000003e-02  8.0000000000000004e-01  0.0000000000000000e+00
5.0000000000000003e-02  8.6666666670000003e-01  2.9999999999999999e-01
5.0000000000000003e-02  8.6666666670000003e-01  0.0000000000000000e+00
5.0000000000000003e-02  9.3333333330000001e-01  2.9999999999999999e-01
5.0000000000000003e-02  9.3333333330000001e-01  0.0000000000000000e+00

CELLS 0 0


CELL_TYPES 0


POINT_DATA 68

VECTORS VertexNormals float

0.0000000000000000e+00 0.0000000000000000e+00 0.0000000000000000e+00 
0.0000000000000000e+00 0.0000000000000000e+00 0.0000000000000000e+00 
0.0000000000000000e+00 0.0000000000000000e+00 0.0000000000000000e+00 
0.0000000000000000e+00 0.0000000000000000e+00 0.0000000000000000e+00 
0.0000000000000000e+00 0.0000000000000000e+00 0.0000000000000000e+00 
0.0000000000000000e+00 0.0000000000000000e+00 0.0000000000000000e+00 
0.0000000000000000e+00 0.0000000000000000e+00 0.0000000000000000e+00 
0.0000000000000000e+00 0.0000000000000000e+00 0.0000000000000000e+00 
0.0000000000000000e+00 0.0000000000000000e+00 0.0000000000000000e+00 
0.0000000000000000e+00 0.0000000000000000e+00 0.0000000000000000e+00 
0.0000000000000000e+00 0.0000000000000000e+00 0.0000000000000000e+00 
0.0000000000000000e+00 0.0000000000000000e+00 0.0000000000000000e+00 
0.0000000000000000e+00 0.0000000000000000e+00 0.0000000000000000e+00 
0.0000000000000000e+00 0.0000000000000000e+00 0.0000000000000000e+00 
0.0000000000000000e+00 0.0000000000000000e+00 0.0000000000000000e+00 
0.0000000000000000e+00 0.0000000000000000e+00 0.0000000000000000e+00 
0.0000000000000000e+00 0.0000000000000000e+00 0.0000000000000000e+00 
0.0000000000000000e+00 0.0000000000000000e+00 0.0000000000000000e+00 
0.0000000000000000e+00 0.0000000000000000e+00 0.0000000000000000e+00 
0.0000000000000000e+00 0.0000000000000000e+00 0.0000000000000000e+00 
0.0000000000000000e+00 0.0000000000000000e+00 0.0000000000000000e+00 
0.0000000000000000e+00 0.0000000000000000e+00 0.0000000000000000e+00 
0.0000000000000000e+00 0.0000000000000000e+00 0.0000000000000000e+00 
0.0000000000000000e+00 0.0000000000000000e+00 0.0000000000000000e+00 
0.0000000000000000e+00 0.0000000000000000e+00 0.0000000000000000e+00 
0.0000000000000000e+00 0.0000000000000000e+00 0.0000000000000000e+00 
0.0000000000000000e+00 0.0000000000000000e+00 0.0000000000000000e+00 
0.0000000000000000e+00 0.0000000000000000e+00 0.0000000000000000e+00 
0.0000000000000000e+00 0.0000000000000000e+00 0.0000000000000000e+00 
0.0000000000000000e+00 0.0000000000000000e+00 0.0000000000000000e+00 
0.0000000000000000e+00 0.0000000000000000e+00 0.0000000000000000e+00 
0.0000000000000000e+00 0.0000000000000000e+00 0.0000000000000000e+00 
0.0000000000000000e+00 0.0000000000000000e+00 0.0000000000000000e+00 
0.0000000000000000e+00 0.0000000000000000e+00 0.0000000000000000e+00 
0.0000000000000000e+00 0.0000000000000000e+00 0.0000000000000000e+00 
0.0000000000000000e+00 0.0000000000000000e+00 0.0000000000000000e+00 
0.0000000000000000e+00 0.0000000000000000e+00 0.0000000000000000e+00 
0.0000000000000000e+00 0.0000000000000000e+00 0.0000000000000000e+00 
0.0000000000000000e+00 0.0000000000000000e+00 0.0000000000000000e+00 
0.0000000000000000e+00 0.0000000000000000e+00 0.0000000000000000e+00 
0.0000000000000000e+00 0.0000000000000000e+00 0.0000000000000000e+00 
0.0000000000000000e+00 0.0000000000000000e+00 0.0000000000000000e+00 
0.0000000000000000e+00 0.0000000000000000e+00 0.0000000000000000e+00 
0.0000000000000000e+00 0.0000000000000000e+00 0.0000000000000000e+00 
0.0000000000000000e+00 0.0000000000000000e+00 0.0000000000000000e+00 
0.0000000000000000e+00 0.0000000000000000e+00 0.0000000000000000e+00 
0.0000000000000000e+00 0.0000000000000000e+00 0.0000000000000000e+00 
0.0000000000000000e+00 0.0000000000000000e+00 0.0000000000000000e+00 
0.0000000000000000e+00 0.0000000000000000e+00 0.0000000000000000e+00 
0.0000000000000000e+00 0.0000000000000000e+00 0.0000000000000000e+00 
0.0000000000000000e+00 0.0000000000000000e+00 0.0000000000000000e+00 
0.0000000000000000e+00 0.0000000000000000e+00 0.0000000000000000e+00 
0.0000000000000000e+00 0.0000000000000000e+00 0.0000000000000000e+00 
0.0000000000000000e+00 0.0000000000000000e+00 0.0000000000000000e+00 
0.0000000000000000e+00 0.0000000000000000e+00 0.0000000000000000e+00 
0.0000000000000000e+00 0.0000000000000000e+00 0.0000000000000000e+00 
0.0000000000000000e+00 0.0000000000000000e+00 0.0000000000000000e+00 
0.0000000000000000e+00 0.0000000000000000e+00 0.0000000000000000e+00 
0.0000000000000000e+00 0.0000000000000000e+00 0.0000000000000000e+00 
0.0000000000000000e+00 0.0000000000000000e+00 0.0000000000000000e+00 
0.0000000000000000e+00 0.0000000000000000e+00 0.0000000000000000e+00 
0.0000000000000000e+00 0.0000000000000000e+00 0.0000000000000000e+00 
0.0000000000000000e+00 0.0000000000000000e+00 0.0000000000000000e+00 
0.0000000000000000e+00 0.0000000000000000e+00 0.0000000000000000e+00 
0.0000000000000000e+00 0.0000000000000000e+00 0.0000000000000000e+00 
0.0000000000000000e+00 0.0000000000000000e+00 0.0000000000000000e+00 
0.0000000000000000e+00 0.0000000000000000e+00 0.0000000000000000e+00 
0.0000000000000000e+00 0.0000000000000000e+00 0.0000000000000000e+00 

VECTORS Displacement float
-3.6047553830798051e-15 -1.1796119636642288e-16 1.9074784925472818e-21 
4.5338326187849311e-03 4.9787500814693110e-03 -2.7201659819063775e-12 
4.5337883639519194e-03 4.9787550427617998e-03 -2.7201659826724340e-12 
8.1929964926692870e-17 -1.7422466133376248e-16 7.1955974046469386e-22 
1.4947235889242041e-02 9.3454401987771094e-03 -4.3065109346904376e-13 
1.4947229149955910e-02 9.3454690250997924e-03 -4.3065109330865811e-13 
3.0793511856873776e-02 1.3060871447557933e-02 1.5864844225457810e-12 
3.0793536816362849e-02 1.3060880309440210e-02 1.5864844227855760e-12 
5.1282842399285156e-02 1.6047762586598378e-02 -4.1125378080061621e-13 
5.1282826903145506e-02 1.6047768207281651e-02 -4.1125378077257946e-13 
7.5365533340571361e-02 1.8737776757505410e-02 2.9646153153900512e-21 
7.5365520081451906e-02 1.8737766331726670e-02 3.0455916229638075e-21 
1.0301884710760045e-01 2.1159046600792451e-02 -6.4425387748131366e-12 
1.0301883994711318e-01 2.1159039088359519e-02 -6.4425387746262810e-12 
1.3380718696623886e-01 2.3121423781103163e-02 -1.9533225296956215e-12 
1.3380716383319780e-01 2.3121409965618872e-02 -1.9533225296146450e-12 
1.6710996008821793e-01 2.4716917375045673e-02 1.3007458367604966e-12 
1.6710995996505362e-01 2.4716925062788678e-02 1.3007458366297146e-12 
2.0229996444815748e-01 2.5651402096287045e-02 2.2764910540046975e-12 
2.0229994493374809e-01 2.5651391628388254e-02 2.2764910538209762e-12 
2.3833400562144255e-01 2.5991856174451180e-02 -2.0183206946293875e-21 
2.3833398971730124e-01 2.5991841696181742e-02 -1.1697207786064213e-21 
2.7457879647475508e-01 2.6214551939429738e-02 -3.2290656022388435e-12 
2.7457876182094992e-01 2.6214552703705284e-02 -3.2290656023431555e-12 
3.1126639167168946e-01 2.6499321693048049e-02 -2.2581269769010445e-12 
3.1126638874191254e-01 2.6499339639859398e-02 -2.2581269768200680e-12 
3.4826779941759012e-01 2.6422163532209445e-02 2.7026089033663841e-13 
3.4826781047566063e-01 2.6422160149794968e-02 2.7026089045731938e-13 
3.8486568733265419e-01 2.6154748401733565e-02 1.1320751288414609e-13 
3.8486569223114175e-01 2.6154743028501265e-02 1.1320751312394107e-13 
4.2118700953505117e-01 2.6116730591379065e-02 2.0514079191315086e-22 
4.2118699047604946e-01 2.6116708731887622e-02 1.5376820147842293e-22 
4.2124040772434157e-01 7.8994168887845315e-03 -1.1580528575742387e-22 
4.2124038387026580e-01 7.8994088899765266e-03 -8.7768537387061150e-23 
4.2125128519426996e-01 -1.0338357606906802e-02 -8.1725444520239134e-22 
4.2125126073325531e-01 -1.0338347278667564e-02 -7.3627813762863485e-22 
4.2121154253429172e-01 -2.8473975411572698e-02 2.1423977865123417e-22 
4.2121151331220652e-01 -2.8473952929036858e-02 1.8933696781820312e-22 
8.6736173798840355e-17 1.0408340855860843e-17 7.5687026048602032e-22 
7.4991071022785642e-17 -4.2217606880353862e-18 -1.2495101644735632e-23 
4.6262732074680993e-03 -5.2238582421164801e-03 -1.6391646780509593e-12 
4.6262956628084686e-03 -5.2238597191677748e-03 -1.6391646779069424e-12 
1.4926313496517947e-02 -9.8817538126726653e-03 5.5140106365784905e-14 
1.4926308282996563e-02 -9.8817302220729000e-03 5.5140106205399260e-14 
3.0775580018232281e-02 -1.3854248931646511e-02 -1.4802766547119997e-12 
3.0775556479858523e-02 -1.3854243224002185e-02 -1.4802766546870969e-12 
5.1288150758198946e-02 -1.7012300169782699e-02 7.3204958636089430e-13 
5.1288147928821345e-02 -1.7012302960125368e-02 7.3204958627991795e-13 
7.5319921099269230e-02 -1.9838129443128828e-02 -2.0200624483109340e-21 
7.5319927407353437e-02 -1.9838133021675936e-02 -1.9422200782745090e-21 
1.0294780772898632e-01 -2.2482355870345926e-02 5.7968920460478275e-12 
1.0294779753579048e-01 -2.2482354059425017e-02 5.7968920461786093e-12 
1.3376146420455870e-01 -2.4670579688433270e-02 8.9691435044007831e-13 
1.3376147482891981e-01 -2.4670597748662083e-02 8.9691435057086019e-13 
1.6705571180873213e-01 -2.6311857868508065e-02 -1.3049642474647459e-12 
1.6705570774545525e-01 -2.6311852799196400e-02 -1.3049642477574804e-12 
2.0221697975860950e-01 -2.7408997834389933e-02 -2.5708171518322137e-12 
2.0221699161664003e-01 -2.7408985671598322e-02 -2.5708171518073110e-12 
2.3826986869136388e-01 -2.8013608827074207e-02 3.9257117947202289e-21 
2.3826984931230949e-01 -2.8013621708917174e-02 3.5535679115278069e-21 
2.7453537845656045e-01 -2.8283612026917697e-02 2.5000838383130521e-12 
2.7453540578776381e-01 -2.8283613849119205e-02 2.5000838382320756e-12 
3.1119701203046696e-01 -2.8595445525644206e-02 1.4089443350054847e-12 
3.1119700419511054e-01 -2.8595439866943829e-02 1.4089443349509783e-12 
3.4818792651366359e-01 -2.8703234680862562e-02 2.1324869583153925e-13 
3.4818791681424355e-01 -2.8703231411538327e-02 2.1324869572409317e-13 
3.8485972731088797e-01 -2.8581319731708545e-02 -5.9608648022574282e-13 
3.8485971524643542e-01 -2.8581335976761608e-02 -5.9608648020084006e-13 

