# vtk DataFile Version 2.0

ASCII

DATASET UNSTRUCTURED_GRID

POINTS 68 float 

-5.0000000000000003e-02  0.0000000000000000e+00  0.0000000000000000e+00
-5.0000000000000003e-02  6.6666666669999999e-02  0.0000000000000000e+00
-5.0000000000000003e-02  6.6666666669999999e-02  2.9999999999999999e-01
-5.0000000000000003e-02  0.0000000000000000e+00  2.9999999999999999e-01
-5.0000000000000003e-02  1.3333333330000000e-01  0.0000000000000000e+00
-5.0000000000000003e-02  1.3333333330000000e-01  2.9999999999999999e-01
-5.0000000000000003e-02  2.0000000000000001e-01  0.0000000000000000e+00
-5.0000000000000003e-02  2.0000000000000001e-01  2.9999999999999999e-01
-5.0000000000000003e-02  2.6666666670000000e-01  0.0000000000000000e+00
-5.0000000000000003e-02  2.6666666670000000e-01  2.9999999999999999e-01
-5.0000000000000003e-02  3.3333333329999998e-01  0.0000000000000000e+00
-5.0000000000000003e-02  3.3333333329999998e-01  2.9999999999999999e-01
-5.0000000000000003e-02  4.0000000000000002e-01  0.0000000000000000e+00
-5.0000000000000003e-02  4.0000000000000002e-01  2.9999999999999999e-01
-5.0000000000000003e-02  4.6666666670000001e-01  0.0000000000000000e+00
-5.0000000000000003e-02  4.6666666670000001e-01  2.9999999999999999e-01
-5.0000000000000003e-02  5.3333333329999999e-01  0.0000000000000000e+00
-5.0000000000000003e-02  5.3333333329999999e-01  2.9999999999999999e-01
-5.0000000000000003e-02  5.9999999999999998e-01  0.0000000000000000e+00
-5.0000000000000003e-02  5.9999999999999998e-01  2.9999999999999999e-01
-5.0000000000000003e-02  6.6666666669999997e-01  0.0000000000000000e+00
-5.0000000000000003e-02  6.6666666669999997e-01  2.9999999999999999e-01
-5.0000000000000003e-02  7.3333333329999995e-01  0.0000000000000000e+00
-5.0000000000000003e-02  7.3333333329999995e-01  2.9999999999999999e-01
-5.0000000000000003e-02  8.0000000000000004e-01  0.0000000000000000e+00
-5.0000000000000003e-02  8.0000000000000004e-01  2.9999999999999999e-01
-5.0000000000000003e-02  8.6666666670000003e-01  0.0000000000000000e+00
-5.0000000000000003e-02  8.6666666670000003e-01  2.9999999999999999e-01
-5.0000000000000003e-02  9.3333333330000001e-01  0.0000000000000000e+00
-5.0000000000000003e-02  9.3333333330000001e-01  2.9999999999999999e-01
-5.0000000000000003e-02  1.0000000000000000e+00  0.0000000000000000e+00
-5.0000000000000003e-02  1.0000000000000000e+00  2.9999999999999999e-01
-1.6666666670000000e-02  1.0000000000000000e+00  0.0000000000000000e+00
-1.6666666670000000e-02  1.0000000000000000e+00  2.9999999999999999e-01
1.6666666670000000e-02  1.0000000000000000e+00  0.0000000000000000e+00
1.6666666670000000e-02  1.0000000000000000e+00  2.9999999999999999e-01
5.0000000000000003e-02  1.0000000000000000e+00  0.0000000000000000e+00
5.0000000000000003e-02  1.0000000000000000e+00  2.9999999999999999e-01
5.0000000000000003e-02  0.0000000000000000e+00  0.0000000000000000e+00
5.0000000000000003e-02  0.0000000000000000e+00  2.9999999999999999e-01
5.0000000000000003e-02  6.6666666669999999e-02  2.9999999999999999e-01
5.0000000000000003e-02  6.6666666669999999e-02  0.0000000000000000e+00
5.0000000000000003e-02  1.3333333330000000e-01  2.9999999999999999e-01
5.0000000000000003e-02  1.3333333330000000e-01  0.0000000000000000e+00
5.0000000000000003e-02  2.0000000000000001e-01  2.9999999999999999e-01
5.0000000000000003e-02  2.0000000000000001e-01  0.0000000000000000e+00
5.0000000000000003e-02  2.6666666670000000e-01  2.9999999999999999e-01
5.0000000000000003e-02  2.6666666670000000e-01  0.0000000000000000e+00
5.0000000000000003e-02  3.3333333329999998e-01  2.9999999999999999e-01
5.0000000000000003e-02  3.3333333329999998e-01  0.0000000000000000e+00
5.0000000000000003e-02  4.0000000000000002e-01  2.9999999999999999e-01
5.0000000000000003e-02  4.0000000000000002e-01  0.0000000000000000e+00
5.0000000000000003e-02  4.6666666670000001e-01  2.9999999999999999e-01
5.0000000000000003e-02  4.6666666670000001e-01  0.0000000000000000e+00
5.0000000000000003e-02  5.3333333329999999e-01  2.9999999999999999e-01
5.0000000000000003e-02  5.3333333329999999e-01  0.0000000000000000e+00
5.0000000000000003e-02  5.9999999999999998e-01  2.9999999999999999e-01
5.0000000000000003e-02  5.9999999999999998e-01  0.0000000000000000e+00
5.0000000000000003e-02  6.6666666669999997e-01  2.9999999999999999e-01
5.0000000000000003e-02  6.6666666669999997e-01  0.0000000000000000e+00
5.0000000000000003e-02  7.3333333329999995e-01  2.9999999999999999e-01
5.0000000000000003e-02  7.3333333329999995e-01  0.0000000000000000e+00
5.0000000000000003e-02  8.0000000000000004e-01  2.9999999999999999e-01
5.0000000000000003e-02  8.0000000000000004e-01  0.0000000000000000e+00
5.0000000000000003e-02  8.6666666670000003e-01  2.9999999999999999e-01
5.0000000000000003e-02  8.6666666670000003e-01  0.0000000000000000e+00
5.0000000000000003e-02  9.3333333330000001e-01  2.9999999999999999e-01
5.0000000000000003e-02  9.3333333330000001e-01  0.0000000000000000e+00

CELLS 0 0


CELL_TYPES 0


POINT_DATA 68

VECTORS VertexNormals float

0.0000000000000000e+00 0.0000000000000000e+00 0.0000000000000000e+00 
0.0000000000000000e+00 0.0000000000000000e+00 0.0000000000000000e+00 
0.0000000000000000e+00 0.0000000000000000e+00 0.0000000000000000e+00 
0.0000000000000000e+00 0.0000000000000000e+00 0.0000000000000000e+00 
0.0000000000000000e+00 0.0000000000000000e+00 0.0000000000000000e+00 
0.0000000000000000e+00 0.0000000000000000e+00 0.0000000000000000e+00 
0.0000000000000000e+00 0.0000000000000000e+00 0.0000000000000000e+00 
0.0000000000000000e+00 0.0000000000000000e+00 0.0000000000000000e+00 
0.0000000000000000e+00 0.0000000000000000e+00 0.0000000000000000e+00 
0.0000000000000000e+00 0.0000000000000000e+00 0.0000000000000000e+00 
0.0000000000000000e+00 0.0000000000000000e+00 0.0000000000000000e+00 
0.0000000000000000e+00 0.0000000000000000e+00 0.0000000000000000e+00 
0.0000000000000000e+00 0.0000000000000000e+00 0.0000000000000000e+00 
0.0000000000000000e+00 0.0000000000000000e+00 0.0000000000000000e+00 
0.0000000000000000e+00 0.0000000000000000e+00 0.0000000000000000e+00 
0.0000000000000000e+00 0.0000000000000000e+00 0.0000000000000000e+00 
0.0000000000000000e+00 0.0000000000000000e+00 0.0000000000000000e+00 
0.0000000000000000e+00 0.0000000000000000e+00 0.0000000000000000e+00 
0.0000000000000000e+00 0.0000000000000000e+00 0.0000000000000000e+00 
0.0000000000000000e+00 0.0000000000000000e+00 0.0000000000000000e+00 
0.0000000000000000e+00 0.0000000000000000e+00 0.0000000000000000e+00 
0.0000000000000000e+00 0.0000000000000000e+00 0.0000000000000000e+00 
0.0000000000000000e+00 0.0000000000000000e+00 0.0000000000000000e+00 
0.0000000000000000e+00 0.0000000000000000e+00 0.0000000000000000e+00 
0.0000000000000000e+00 0.0000000000000000e+00 0.0000000000000000e+00 
0.0000000000000000e+00 0.0000000000000000e+00 0.0000000000000000e+00 
0.0000000000000000e+00 0.0000000000000000e+00 0.0000000000000000e+00 
0.0000000000000000e+00 0.0000000000000000e+00 0.0000000000000000e+00 
0.0000000000000000e+00 0.0000000000000000e+00 0.0000000000000000e+00 
0.0000000000000000e+00 0.0000000000000000e+00 0.0000000000000000e+00 
0.0000000000000000e+00 0.0000000000000000e+00 0.0000000000000000e+00 
0.0000000000000000e+00 0.0000000000000000e+00 0.0000000000000000e+00 
0.0000000000000000e+00 0.0000000000000000e+00 0.0000000000000000e+00 
0.0000000000000000e+00 0.0000000000000000e+00 0.0000000000000000e+00 
0.0000000000000000e+00 0.0000000000000000e+00 0.0000000000000000e+00 
0.0000000000000000e+00 0.0000000000000000e+00 0.0000000000000000e+00 
0.0000000000000000e+00 0.0000000000000000e+00 0.0000000000000000e+00 
0.0000000000000000e+00 0.0000000000000000e+00 0.0000000000000000e+00 
0.0000000000000000e+00 0.0000000000000000e+00 0.0000000000000000e+00 
0.0000000000000000e+00 0.0000000000000000e+00 0.0000000000000000e+00 
0.0000000000000000e+00 0.0000000000000000e+00 0.0000000000000000e+00 
0.0000000000000000e+00 0.0000000000000000e+00 0.0000000000000000e+00 
0.0000000000000000e+00 0.0000000000000000e+00 0.0000000000000000e+00 
0.0000000000000000e+00 0.0000000000000000e+00 0.0000000000000000e+00 
0.0000000000000000e+00 0.0000000000000000e+00 0.0000000000000000e+00 
0.0000000000000000e+00 0.0000000000000000e+00 0.0000000000000000e+00 
0.0000000000000000e+00 0.0000000000000000e+00 0.0000000000000000e+00 
0.0000000000000000e+00 0.0000000000000000e+00 0.0000000000000000e+00 
0.0000000000000000e+00 0.0000000000000000e+00 0.0000000000000000e+00 
0.0000000000000000e+00 0.0000000000000000e+00 0.0000000000000000e+00 
0.0000000000000000e+00 0.0000000000000000e+00 0.0000000000000000e+00 
0.0000000000000000e+00 0.0000000000000000e+00 0.0000000000000000e+00 
0.0000000000000000e+00 0.0000000000000000e+00 0.0000000000000000e+00 
0.0000000000000000e+00 0.0000000000000000e+00 0.0000000000000000e+00 
0.0000000000000000e+00 0.0000000000000000e+00 0.0000000000000000e+00 
0.0000000000000000e+00 0.0000000000000000e+00 0.0000000000000000e+00 
0.0000000000000000e+00 0.0000000000000000e+00 0.0000000000000000e+00 
0.0000000000000000e+00 0.0000000000000000e+00 0.0000000000000000e+00 
0.0000000000000000e+00 0.0000000000000000e+00 0.0000000000000000e+00 
0.0000000000000000e+00 0.0000000000000000e+00 0.0000000000000000e+00 
0.0000000000000000e+00 0.0000000000000000e+00 0.0000000000000000e+00 
0.0000000000000000e+00 0.0000000000000000e+00 0.0000000000000000e+00 
0.0000000000000000e+00 0.0000000000000000e+00 0.0000000000000000e+00 
0.0000000000000000e+00 0.0000000000000000e+00 0.0000000000000000e+00 
0.0000000000000000e+00 0.0000000000000000e+00 0.0000000000000000e+00 
0.0000000000000000e+00 0.0000000000000000e+00 0.0000000000000000e+00 
0.0000000000000000e+00 0.0000000000000000e+00 0.0000000000000000e+00 
0.0000000000000000e+00 0.0000000000000000e+00 0.0000000000000000e+00 

VECTORS Displacement float
-5.9631119486702744e-17 -4.9602249391211828e-17 -3.4658867665971860e-22 
1.0878548971624553e-03 7.1944117583231043e-04 9.1099778728447703e-14 
1.0878552435792967e-03 7.1944126485253728e-04 9.1099778615489259e-14 
-5.3572064926733975e-18 -2.6733009100427785e-17 -1.9898523170809893e-22 
2.2397991372935270e-03 4.4168556350872453e-04 3.4279721501200466e-14 
2.2397986007773023e-03 4.4168535614733790e-04 3.4279721518936552e-14 
2.5388360123434327e-03 1.1149085339749905e-04 5.2830802158199789e-16 
2.5388351537181178e-03 1.1149032867238422e-04 5.2830805255297650e-16 
2.5250724703318409e-03 -7.6097665689881921e-06 -1.5247693724231993e-13 
2.5250702088155707e-03 -7.6105378400715492e-06 -1.5247693725767106e-13 
2.4719927197431359e-03 -3.1453686808872441e-05 5.2939559203393771e-23 
2.4719896874202622e-03 -3.1453907782987647e-05 3.7588423482066993e-23 
2.4234727259952729e-03 -3.5225631055659933e-05 -3.2362608231224315e-13 
2.4234689820472688e-03 -3.5226754517698508e-05 -3.2362608231435942e-13 
2.3740648335639539e-03 -3.7684550782828268e-05 -1.7466665074562758e-13 
2.3740598125889440e-03 -3.7684757124424320e-05 -1.7466665074112638e-13 
2.3186181182401860e-03 -3.9786289518649385e-05 -1.1592919263538910e-13 
2.3186151839479957e-03 -3.9786232200199818e-05 -1.1592919262427045e-13 
2.2554478952206431e-03 -3.9238269715273911e-05 -2.0127379283334775e-13 
2.2554451986535919e-03 -3.9238711273501292e-05 -2.0127379284869888e-13 
2.1854267719630806e-03 -3.1787553546938131e-05 -1.3234889800848443e-23 
2.1854240709826842e-03 -3.1787390767633237e-05 -8.7336908209025565e-24 
2.1146620468048116e-03 -1.2297087206191576e-05 -7.9655472623371461e-14 
2.1146606334071826e-03 -1.2295974825212478e-05 -7.9655472645340039e-14 
2.0486844991130524e-03 1.7528513379659475e-05 5.0832865840841668e-15 
2.0486847695894202e-03 1.7529716655351119e-05 5.0832865687330314e-15 
1.9658890353993590e-03 4.4779529424052666e-05 8.4498033476167361e-14 
1.9658902731603967e-03 4.4780505820713556e-05 8.4498033431037726e-14 
1.7693236691682574e-03 9.9691381774592359e-05 2.1936852813395799e-13 
1.7693258780656386e-03 9.9692385363165376e-05 2.1936852806897602e-13 
1.6640972574560641e-03 2.7254700309849601e-04 -1.4558378780933287e-22 
1.6640998147722144e-03 2.7254862462396860e-04 -1.4273695005449305e-22 
1.6167033440122082e-03 2.8730007839430070e-04 -9.7607312281257266e-23 
1.6167062691024136e-03 2.8730039273773599e-04 -1.5928056230555361e-22 
1.5763958543914746e-03 4.4215478247568662e-04 -3.1432863277015052e-22 
1.5763995286504995e-03 4.4215473194373191e-04 -3.3795157461700758e-22 
1.5557455835399255e-03 6.1276006029145093e-04 -1.6378176128549948e-22 
1.5557497052919942e-03 6.1275856211954441e-04 -2.0560267660852315e-22 
-1.0083080204115191e-17 1.1302807648161384e-17 -1.1166938269465874e-22 
-7.3087704031473055e-18 1.2948790412541678e-17 -1.7334263271895508e-22 
1.2091512684349144e-03 -7.2002169373604089e-04 -6.9773580492678271e-14 
1.2091512067487619e-03 -7.2002159210911992e-04 -6.9773580528612336e-14 
2.3500825185394760e-03 -4.4565079341624938e-04 -4.4443943245157744e-14 
2.3500821939969859e-03 -4.4565092372244068e-04 -4.4443943236424050e-14 
2.6470935071304319e-03 -1.1385596619461137e-04 3.2191276572140493e-15 
2.6470947950259808e-03 -1.1385635563137164e-04 3.2191276593302953e-15 
2.6328337485741885e-03 1.1011178722891846e-05 1.4683388389043350e-13 
2.6328361845171550e-03 1.1010906482742050e-05 1.4683388389254975e-13 
2.5795717601481806e-03 4.1294938999077259e-05 -1.6093492353065966e-22 
2.5795750170386211e-03 4.1295372111269969e-05 -1.6543612251060553e-22 
2.5305081110198863e-03 5.1860170203514614e-05 3.0600051074379837e-13 
2.5305118829587084e-03 5.1860152454229831e-05 3.0600051075914953e-13 
2.4799613047751827e-03 6.2533262269575976e-05 1.8094768600704845e-13 
2.4799661981853372e-03 6.2534449484169877e-05 1.8094768602239959e-13 
2.4225754098306492e-03 7.6214339723973995e-05 1.0134749441326184e-13 
2.4225782391426786e-03 7.6215621491593027e-05 1.0134749441537808e-13 
2.3561869509654090e-03 9.3810860745450214e-05 1.9029831192684514e-13 
2.3561897340701643e-03 9.3811474626492039e-05 1.9029831192896138e-13 
2.2810050269330665e-03 1.1629280236895766e-04 -1.8078725823193232e-22 
2.2810081507010438e-03 1.1629374869103382e-04 -1.3896634290890865e-22 
2.2022404593811272e-03 1.4704305531172441e-04 1.0296922023315124e-13 
2.2022425372918430e-03 1.4704426406218904e-04 1.0296922029482449e-13 
2.1210644222319215e-03 2.0255530373187612e-04 -2.8063305518942943e-15 
2.1210645702964444e-03 2.0255614555554386e-04 -2.8063304869123218e-15 
2.0013563014652982e-03 3.1867532999704730e-04 -7.6858959200803223e-14 
2.0013549639569289e-03 3.1867555371089097e-04 -7.6858959149056144e-14 
1.7798207124790570e-03 4.7099670458916945e-04 -1.4197006931100992e-13 
1.7798184773598082e-03 4.7099702142913377e-04 -1.4197006928242390e-13 

