# vtk DataFile Version 2.0

ASCII

DATASET UNSTRUCTURED_GRID

POINTS 33 double 

-5.0000000000000003e-02  3.3333333335000000e-02  1.4999999999999997e-01
-5.0000000000000003e-02  9.9999999985000018e-02  1.4999999999999999e-01
-5.0000000000000003e-02  1.6666666665000002e-01  1.4999999999999999e-01
-5.0000000000000003e-02  2.3333333334999998e-01  1.4999999999999999e-01
-5.0000000000000003e-02  2.9999999999999993e-01  1.4999999999999997e-01
-5.0000000000000003e-02  3.6666666665000003e-01  1.4999999999999999e-01
-5.0000000000000003e-02  4.3333333335000002e-01  1.4999999999999999e-01
-5.0000000000000003e-02  5.0000000000000000e-01  1.4999999999999997e-01
-5.0000000000000003e-02  5.6666666664999987e-01  1.4999999999999999e-01
-5.0000000000000003e-02  6.3333333334999986e-01  1.4999999999999999e-01
-5.0000000000000003e-02  6.9999999999999984e-01  1.4999999999999997e-01
-5.0000000000000003e-02  7.6666666664999994e-01  1.4999999999999999e-01
-4.9999999999999996e-02  8.3333333334999982e-01  1.4999999999999999e-01
-5.0000000000000003e-02  8.9999999999999991e-01  1.4999999999999997e-01
-5.0000000000000003e-02  9.6666666664999990e-01  1.4999999999999999e-01
-3.3333333335000000e-02  9.9999999999999978e-01  1.4999999999999997e-01
0.0000000000000000e+00  1.0000000000000000e+00  1.4999999999999997e-01
3.3333333335000007e-02  1.0000000000000000e+00  1.4999999999999999e-01
5.0000000000000003e-02  3.3333333335000000e-02  1.4999999999999999e-01
5.0000000000000003e-02  9.9999999985000004e-02  1.4999999999999999e-01
5.0000000000000003e-02  1.6666666664999999e-01  1.4999999999999999e-01
5.0000000000000003e-02  2.3333333334999998e-01  1.4999999999999999e-01
5.0000000000000003e-02  2.9999999999999993e-01  1.4999999999999997e-01
5.0000000000000003e-02  3.6666666665000003e-01  1.4999999999999999e-01
5.0000000000000003e-02  4.3333333334999991e-01  1.4999999999999999e-01
5.0000000000000003e-02  5.0000000000000000e-01  1.4999999999999997e-01
5.0000000000000003e-02  5.6666666664999987e-01  1.4999999999999999e-01
5.0000000000000003e-02  6.3333333334999997e-01  1.4999999999999999e-01
5.0000000000000003e-02  6.9999999999999984e-01  1.4999999999999997e-01
5.0000000000000003e-02  7.6666666664999994e-01  1.4999999999999999e-01
5.0000000000000003e-02  8.3333333334999993e-01  1.4999999999999999e-01
5.0000000000000010e-02  8.9999999999999991e-01  1.4999999999999999e-01
5.0000000000000003e-02  9.6666666664999990e-01  1.4999999999999999e-01

CELLS 0 0


CELL_TYPES 0


POINT_DATA 33

VECTORS VertexNormals double

0.0000000000000000e+00 0.0000000000000000e+00 0.0000000000000000e+00 
0.0000000000000000e+00 0.0000000000000000e+00 0.0000000000000000e+00 
0.0000000000000000e+00 0.0000000000000000e+00 0.0000000000000000e+00 
0.0000000000000000e+00 0.0000000000000000e+00 0.0000000000000000e+00 
0.0000000000000000e+00 0.0000000000000000e+00 0.0000000000000000e+00 
0.0000000000000000e+00 0.0000000000000000e+00 0.0000000000000000e+00 
0.0000000000000000e+00 0.0000000000000000e+00 0.0000000000000000e+00 
0.0000000000000000e+00 0.0000000000000000e+00 0.0000000000000000e+00 
0.0000000000000000e+00 0.0000000000000000e+00 0.0000000000000000e+00 
0.0000000000000000e+00 0.0000000000000000e+00 0.0000000000000000e+00 
0.0000000000000000e+00 0.0000000000000000e+00 0.0000000000000000e+00 
0.0000000000000000e+00 0.0000000000000000e+00 0.0000000000000000e+00 
0.0000000000000000e+00 0.0000000000000000e+00 0.0000000000000000e+00 
0.0000000000000000e+00 0.0000000000000000e+00 0.0000000000000000e+00 
0.0000000000000000e+00 0.0000000000000000e+00 0.0000000000000000e+00 
0.0000000000000000e+00 0.0000000000000000e+00 0.0000000000000000e+00 
0.0000000000000000e+00 0.0000000000000000e+00 0.0000000000000000e+00 
0.0000000000000000e+00 0.0000000000000000e+00 0.0000000000000000e+00 
0.0000000000000000e+00 0.0000000000000000e+00 0.0000000000000000e+00 
0.0000000000000000e+00 0.0000000000000000e+00 0.0000000000000000e+00 
0.0000000000000000e+00 0.0000000000000000e+00 0.0000000000000000e+00 
0.0000000000000000e+00 0.0000000000000000e+00 0.0000000000000000e+00 
0.0000000000000000e+00 0.0000000000000000e+00 0.0000000000000000e+00 
0.0000000000000000e+00 0.0000000000000000e+00 0.0000000000000000e+00 
0.0000000000000000e+00 0.0000000000000000e+00 0.0000000000000000e+00 
0.0000000000000000e+00 0.0000000000000000e+00 0.0000000000000000e+00 
0.0000000000000000e+00 0.0000000000000000e+00 0.0000000000000000e+00 
0.0000000000000000e+00 0.0000000000000000e+00 0.0000000000000000e+00 
0.0000000000000000e+00 0.0000000000000000e+00 0.0000000000000000e+00 
0.0000000000000000e+00 0.0000000000000000e+00 0.0000000000000000e+00 
0.0000000000000000e+00 0.0000000000000000e+00 0.0000000000000000e+00 
0.0000000000000000e+00 0.0000000000000000e+00 0.0000000000000000e+00 
0.0000000000000000e+00 0.0000000000000000e+00 0.0000000000000000e+00 

VECTORS Stress double
1.1024730939862168e+02 -3.1834123657357125e+00 -5.9222074804789021e-13 
1.1022499081108782e+02 -6.0474618445160830e+00 -7.8581367853934929e-13 
1.0979195665951404e+02 -7.9190004509603718e+00 -1.9719300953406710e-14 
1.0894779170670009e+02 -8.7895601434879076e+00 6.3911851480251929e-13 
1.0775774951235790e+02 -8.6502095870836353e+00 4.6014451991992760e-13 
1.0621792562317127e+02 -7.8173750728729718e+00 7.5267838627786781e-14 
1.0431747847618105e+02 -6.3420961241278810e+00 2.3438025211956601e-13 
1.0193889806529774e+02 -4.5073440722075242e+00 -1.3616054764904642e-14 
9.8907340592343118e+01 -2.7597347772575058e+00 -3.5095579438350932e-13 
9.5053106501960812e+01 -1.1459168538229458e+00 -1.7791427227995496e-13 
9.0170664077066220e+01 3.5922378084226059e-01 1.9542362311934369e-14 
8.3649128781718375e+01 1.9040733281115052e+00 -2.5767719612657079e-13 
7.3936518939465302e+01 3.3331447606708307e+00 -4.7833519727538067e-13 
5.7020642428335336e+01 3.2490177952894621e+00 -4.0537790175249636e-13 
2.3313765048714565e+01 1.5840619276237198e+00 -2.0628250113043678e-13 
-7.9442167366642034e+00 1.6537324681442507e+02 -1.0734019580125847e-16 
-7.0820190561261072e+00 1.4598078975569410e+02 8.0119108226276535e-17 
-5.9208530528267138e+00 1.1748338415165099e+02 5.0564088911661657e-20 
8.8333844587983677e+01 -2.6770908632466011e+00 3.8574327558781593e-13 
8.8146715716492082e+01 -4.9962930794044569e+00 4.3921712088765742e-13 
8.8342545215981147e+01 -6.5262799524726223e+00 -2.1472162275577962e-14 
8.9152834076791834e+01 -7.2034600305223266e+00 -4.4932741228676530e-13 
9.0709875059974706e+01 -7.2455380270475951e+00 -3.7908382651697369e-13 
9.3079302068574179e+01 -6.7173136880610675e+00 6.4838325323279462e-14 
9.6212446379709860e+01 -5.6868569338263368e+00 1.6048236887660988e-14 
9.9817545038196911e+01 -4.2848006980365012e+00 2.9454422790201211e-13 
1.0342395694667250e+02 -2.8117638414249644e+00 8.9401561858637147e-13 
1.0655313999792490e+02 -1.2630155894524711e+00 5.5024360782504281e-13 
1.0879370198287410e+02 3.8382091347496161e-01 -2.5770066543182327e-13 
1.0965365696083698e+02 2.3373235059004336e+00 -1.9887718058504246e-13 
1.0861899576207325e+02 4.5883434919402255e+00 2.2252061517739164e-13 
1.0528706433392527e+02 5.5815319042152591e+00 4.5204693936950137e-13 
1.0019755297738533e+02 5.2351747417975174e+00 2.8578136715818845e-13 

