# vtk DataFile Version 2.0

ASCII

DATASET UNSTRUCTURED_GRID

POINTS 68 float 

-5.0000000000000003e-02  0.0000000000000000e+00  0.0000000000000000e+00
-5.0000000000000003e-02  6.6666666669999999e-02  0.0000000000000000e+00
-5.0000000000000003e-02  6.6666666669999999e-02  2.9999999999999999e-01
-5.0000000000000003e-02  0.0000000000000000e+00  2.9999999999999999e-01
-5.0000000000000003e-02  1.3333333330000000e-01  0.0000000000000000e+00
-5.0000000000000003e-02  1.3333333330000000e-01  2.9999999999999999e-01
-5.0000000000000003e-02  2.0000000000000001e-01  0.0000000000000000e+00
-5.0000000000000003e-02  2.0000000000000001e-01  2.9999999999999999e-01
-5.0000000000000003e-02  2.6666666670000000e-01  0.0000000000000000e+00
-5.0000000000000003e-02  2.6666666670000000e-01  2.9999999999999999e-01
-5.0000000000000003e-02  3.3333333329999998e-01  0.0000000000000000e+00
-5.0000000000000003e-02  3.3333333329999998e-01  2.9999999999999999e-01
-5.0000000000000003e-02  4.0000000000000002e-01  0.0000000000000000e+00
-5.0000000000000003e-02  4.0000000000000002e-01  2.9999999999999999e-01
-5.0000000000000003e-02  4.6666666670000001e-01  0.0000000000000000e+00
-5.0000000000000003e-02  4.6666666670000001e-01  2.9999999999999999e-01
-5.0000000000000003e-02  5.3333333329999999e-01  0.0000000000000000e+00
-5.0000000000000003e-02  5.3333333329999999e-01  2.9999999999999999e-01
-5.0000000000000003e-02  5.9999999999999998e-01  0.0000000000000000e+00
-5.0000000000000003e-02  5.9999999999999998e-01  2.9999999999999999e-01
-5.0000000000000003e-02  6.6666666669999997e-01  0.0000000000000000e+00
-5.0000000000000003e-02  6.6666666669999997e-01  2.9999999999999999e-01
-5.0000000000000003e-02  7.3333333329999995e-01  0.0000000000000000e+00
-5.0000000000000003e-02  7.3333333329999995e-01  2.9999999999999999e-01
-5.0000000000000003e-02  8.0000000000000004e-01  0.0000000000000000e+00
-5.0000000000000003e-02  8.0000000000000004e-01  2.9999999999999999e-01
-5.0000000000000003e-02  8.6666666670000003e-01  0.0000000000000000e+00
-5.0000000000000003e-02  8.6666666670000003e-01  2.9999999999999999e-01
-5.0000000000000003e-02  9.3333333330000001e-01  0.0000000000000000e+00
-5.0000000000000003e-02  9.3333333330000001e-01  2.9999999999999999e-01
-5.0000000000000003e-02  1.0000000000000000e+00  0.0000000000000000e+00
-5.0000000000000003e-02  1.0000000000000000e+00  2.9999999999999999e-01
-1.6666666670000000e-02  1.0000000000000000e+00  0.0000000000000000e+00
-1.6666666670000000e-02  1.0000000000000000e+00  2.9999999999999999e-01
1.6666666670000000e-02  1.0000000000000000e+00  0.0000000000000000e+00
1.6666666670000000e-02  1.0000000000000000e+00  2.9999999999999999e-01
5.0000000000000003e-02  1.0000000000000000e+00  0.0000000000000000e+00
5.0000000000000003e-02  1.0000000000000000e+00  2.9999999999999999e-01
5.0000000000000003e-02  0.0000000000000000e+00  0.0000000000000000e+00
5.0000000000000003e-02  0.0000000000000000e+00  2.9999999999999999e-01
5.0000000000000003e-02  6.6666666669999999e-02  2.9999999999999999e-01
5.0000000000000003e-02  6.6666666669999999e-02  0.0000000000000000e+00
5.0000000000000003e-02  1.3333333330000000e-01  2.9999999999999999e-01
5.0000000000000003e-02  1.3333333330000000e-01  0.0000000000000000e+00
5.0000000000000003e-02  2.0000000000000001e-01  2.9999999999999999e-01
5.0000000000000003e-02  2.0000000000000001e-01  0.0000000000000000e+00
5.0000000000000003e-02  2.6666666670000000e-01  2.9999999999999999e-01
5.0000000000000003e-02  2.6666666670000000e-01  0.0000000000000000e+00
5.0000000000000003e-02  3.3333333329999998e-01  2.9999999999999999e-01
5.0000000000000003e-02  3.3333333329999998e-01  0.0000000000000000e+00
5.0000000000000003e-02  4.0000000000000002e-01  2.9999999999999999e-01
5.0000000000000003e-02  4.0000000000000002e-01  0.0000000000000000e+00
5.0000000000000003e-02  4.6666666670000001e-01  2.9999999999999999e-01
5.0000000000000003e-02  4.6666666670000001e-01  0.0000000000000000e+00
5.0000000000000003e-02  5.3333333329999999e-01  2.9999999999999999e-01
5.0000000000000003e-02  5.3333333329999999e-01  0.0000000000000000e+00
5.0000000000000003e-02  5.9999999999999998e-01  2.9999999999999999e-01
5.0000000000000003e-02  5.9999999999999998e-01  0.0000000000000000e+00
5.0000000000000003e-02  6.6666666669999997e-01  2.9999999999999999e-01
5.0000000000000003e-02  6.6666666669999997e-01  0.0000000000000000e+00
5.0000000000000003e-02  7.3333333329999995e-01  2.9999999999999999e-01
5.0000000000000003e-02  7.3333333329999995e-01  0.0000000000000000e+00
5.0000000000000003e-02  8.0000000000000004e-01  2.9999999999999999e-01
5.0000000000000003e-02  8.0000000000000004e-01  0.0000000000000000e+00
5.0000000000000003e-02  8.6666666670000003e-01  2.9999999999999999e-01
5.0000000000000003e-02  8.6666666670000003e-01  0.0000000000000000e+00
5.0000000000000003e-02  9.3333333330000001e-01  2.9999999999999999e-01
5.0000000000000003e-02  9.3333333330000001e-01  0.0000000000000000e+00

CELLS 0 0


CELL_TYPES 0


POINT_DATA 68

VECTORS VertexNormals float

0.0000000000000000e+00 0.0000000000000000e+00 0.0000000000000000e+00 
0.0000000000000000e+00 0.0000000000000000e+00 0.0000000000000000e+00 
0.0000000000000000e+00 0.0000000000000000e+00 0.0000000000000000e+00 
0.0000000000000000e+00 0.0000000000000000e+00 0.0000000000000000e+00 
0.0000000000000000e+00 0.0000000000000000e+00 0.0000000000000000e+00 
0.0000000000000000e+00 0.0000000000000000e+00 0.0000000000000000e+00 
0.0000000000000000e+00 0.0000000000000000e+00 0.0000000000000000e+00 
0.0000000000000000e+00 0.0000000000000000e+00 0.0000000000000000e+00 
0.0000000000000000e+00 0.0000000000000000e+00 0.0000000000000000e+00 
0.0000000000000000e+00 0.0000000000000000e+00 0.0000000000000000e+00 
0.0000000000000000e+00 0.0000000000000000e+00 0.0000000000000000e+00 
0.0000000000000000e+00 0.0000000000000000e+00 0.0000000000000000e+00 
0.0000000000000000e+00 0.0000000000000000e+00 0.0000000000000000e+00 
0.0000000000000000e+00 0.0000000000000000e+00 0.0000000000000000e+00 
0.0000000000000000e+00 0.0000000000000000e+00 0.0000000000000000e+00 
0.0000000000000000e+00 0.0000000000000000e+00 0.0000000000000000e+00 
0.0000000000000000e+00 0.0000000000000000e+00 0.0000000000000000e+00 
0.0000000000000000e+00 0.0000000000000000e+00 0.0000000000000000e+00 
0.0000000000000000e+00 0.0000000000000000e+00 0.0000000000000000e+00 
0.0000000000000000e+00 0.0000000000000000e+00 0.0000000000000000e+00 
0.0000000000000000e+00 0.0000000000000000e+00 0.0000000000000000e+00 
0.0000000000000000e+00 0.0000000000000000e+00 0.0000000000000000e+00 
0.0000000000000000e+00 0.0000000000000000e+00 0.0000000000000000e+00 
0.0000000000000000e+00 0.0000000000000000e+00 0.0000000000000000e+00 
0.0000000000000000e+00 0.0000000000000000e+00 0.0000000000000000e+00 
0.0000000000000000e+00 0.0000000000000000e+00 0.0000000000000000e+00 
0.0000000000000000e+00 0.0000000000000000e+00 0.0000000000000000e+00 
0.0000000000000000e+00 0.0000000000000000e+00 0.0000000000000000e+00 
0.0000000000000000e+00 0.0000000000000000e+00 0.0000000000000000e+00 
0.0000000000000000e+00 0.0000000000000000e+00 0.0000000000000000e+00 
0.0000000000000000e+00 0.0000000000000000e+00 0.0000000000000000e+00 
0.0000000000000000e+00 0.0000000000000000e+00 0.0000000000000000e+00 
0.0000000000000000e+00 0.0000000000000000e+00 0.0000000000000000e+00 
0.0000000000000000e+00 0.0000000000000000e+00 0.0000000000000000e+00 
0.0000000000000000e+00 0.0000000000000000e+00 0.0000000000000000e+00 
0.0000000000000000e+00 0.0000000000000000e+00 0.0000000000000000e+00 
0.0000000000000000e+00 0.0000000000000000e+00 0.0000000000000000e+00 
0.0000000000000000e+00 0.0000000000000000e+00 0.0000000000000000e+00 
0.0000000000000000e+00 0.0000000000000000e+00 0.0000000000000000e+00 
0.0000000000000000e+00 0.0000000000000000e+00 0.0000000000000000e+00 
0.0000000000000000e+00 0.0000000000000000e+00 0.0000000000000000e+00 
0.0000000000000000e+00 0.0000000000000000e+00 0.0000000000000000e+00 
0.0000000000000000e+00 0.0000000000000000e+00 0.0000000000000000e+00 
0.0000000000000000e+00 0.0000000000000000e+00 0.0000000000000000e+00 
0.0000000000000000e+00 0.0000000000000000e+00 0.0000000000000000e+00 
0.0000000000000000e+00 0.0000000000000000e+00 0.0000000000000000e+00 
0.0000000000000000e+00 0.0000000000000000e+00 0.0000000000000000e+00 
0.0000000000000000e+00 0.0000000000000000e+00 0.0000000000000000e+00 
0.0000000000000000e+00 0.0000000000000000e+00 0.0000000000000000e+00 
0.0000000000000000e+00 0.0000000000000000e+00 0.0000000000000000e+00 
0.0000000000000000e+00 0.0000000000000000e+00 0.0000000000000000e+00 
0.0000000000000000e+00 0.0000000000000000e+00 0.0000000000000000e+00 
0.0000000000000000e+00 0.0000000000000000e+00 0.0000000000000000e+00 
0.0000000000000000e+00 0.0000000000000000e+00 0.0000000000000000e+00 
0.0000000000000000e+00 0.0000000000000000e+00 0.0000000000000000e+00 
0.0000000000000000e+00 0.0000000000000000e+00 0.0000000000000000e+00 
0.0000000000000000e+00 0.0000000000000000e+00 0.0000000000000000e+00 
0.0000000000000000e+00 0.0000000000000000e+00 0.0000000000000000e+00 
0.0000000000000000e+00 0.0000000000000000e+00 0.0000000000000000e+00 
0.0000000000000000e+00 0.0000000000000000e+00 0.0000000000000000e+00 
0.0000000000000000e+00 0.0000000000000000e+00 0.0000000000000000e+00 
0.0000000000000000e+00 0.0000000000000000e+00 0.0000000000000000e+00 
0.0000000000000000e+00 0.0000000000000000e+00 0.0000000000000000e+00 
0.0000000000000000e+00 0.0000000000000000e+00 0.0000000000000000e+00 
0.0000000000000000e+00 0.0000000000000000e+00 0.0000000000000000e+00 
0.0000000000000000e+00 0.0000000000000000e+00 0.0000000000000000e+00 
0.0000000000000000e+00 0.0000000000000000e+00 0.0000000000000000e+00 
0.0000000000000000e+00 0.0000000000000000e+00 0.0000000000000000e+00 

VECTORS Displacement float
-2.2117724318704290e-17 -3.1482520583547835e-17 -2.3264454728053903e-22 
1.0631473922717608e-03 8.0851027789584536e-04 -5.3045740819269028e-14 
1.0631474059179661e-03 8.0851046162016074e-04 -5.3045740784353842e-14 
1.0259248167893060e-18 -6.8157547831401211e-18 -1.2959035988451221e-22 
2.5581695783161813e-03 1.1346338046381841e-03 6.4694283488734891e-14 
2.5581698458404462e-03 1.1346344025949064e-03 6.4694283487254130e-14 
4.5555283387811582e-03 1.1854049018314003e-03 1.5305318186105267e-13 
4.5555300604230914e-03 1.1854048436792757e-03 1.5305318184633702e-13 
5.9052339708677536e-03 5.7611452818561912e-04 2.2756388305752001e-14 
5.9052326241508853e-03 5.7611451912187685e-04 2.2756388297653794e-14 
6.0494845113362693e-03 6.8642191707946878e-05 -1.1415092453231782e-22 
6.0494851057366263e-03 6.8643052997457402e-05 -9.5779352346407202e-23 
5.7704981384242536e-03 -3.8597932313057075e-05 -7.6282889353291503e-14 
5.7704950897008063e-03 -3.8598365906944540e-05 -7.6282889374624599e-14 
5.5515601698484848e-03 3.8619367980226305e-05 -7.3993203704189908e-14 
5.5515567960828672e-03 3.8620695559035234e-05 -7.3993203712288114e-14 
5.4322084481977714e-03 1.4888872344716525e-04 -1.6913374872014828e-13 
5.4322033467931958e-03 1.4888848470271862e-04 -1.6913374874148138e-13 
5.3607010451238411e-03 2.6324314027553926e-04 -4.1134844718638046e-13 
5.3606941580027680e-03 2.6324630721773071e-04 -4.1134844722094847e-13 
5.3112710840989910e-03 3.6548183078617810e-04 2.4980854499101436e-22 
5.3112701047840329e-03 3.6548483187634972e-04 2.2185800287395542e-22 
5.2267232449591597e-03 4.1184791120435244e-04 4.8816270640834163e-14 
5.2267241049396562e-03 4.1184933745727842e-04 4.8816270619501067e-14 
5.0208156336604250e-03 4.1128817236613970e-04 3.9827599078286205e-14 
5.0208163872161125e-03 4.1128939492848131e-04 3.9827599063570554e-14 
4.7769456404727351e-03 4.1947294652811343e-04 1.6193589222033935e-13 
4.7769474863969610e-03 4.1947446152868883e-04 1.6193589220893242e-13 
4.5015994345970183e-03 4.7011393142915817e-04 5.0272432376556842e-13 
4.5016048946492767e-03 4.7011575531363348e-04 5.0272432374092657e-13 
4.3652477747113498e-03 5.7461736793971453e-04 -2.1506695926378720e-23 
4.3652558456177938e-03 5.7461948775761095e-04 -3.9531070692801320e-23 
4.3193584559771099e-03 5.7953919006744985e-04 8.0650109723920198e-23 
4.3193674289798683e-03 5.7953814478487115e-04 6.9243179857921819e-23 
4.2634709014971357e-03 7.1431344487342635e-04 -1.3234889800848443e-22 
4.2634819821362130e-03 7.1431077551174533e-04 -1.5368199522511914e-22 
4.2660124676905751e-03 8.8928429291572743e-04 -1.0753347963189360e-23 
4.2660250380869118e-03 8.8927939247119626e-04 -4.2012612530460403e-23 
-1.4311468676808659e-17 -7.9011233319881136e-18 -4.7562885221799091e-23 
-1.1117139515048344e-17 9.2304373696453445e-18 -3.4361191864344898e-23 
1.1679688222017146e-03 -8.1573151348807670e-04 -6.0128671673553938e-14 
1.1679697040863318e-03 -8.1573109575176750e-04 -6.0128671655529564e-14 
2.6297309469153554e-03 -1.1193241923483190e-03 -5.2202253239911243e-14 
2.6297297136346387e-03 -1.1193224708836891e-03 -5.2202253225195592e-14 
4.6294225667166400e-03 -1.1344393526765959e-03 -1.0883875593684765e-13 
4.6294224085837686e-03 -1.1344392855447286e-03 -1.0883875592874944e-13 
5.9800210889212925e-03 -4.8434828691501064e-04 -6.4074928473678177e-14 
5.9800226144612507e-03 -4.8434836029869898e-04 -6.4074928452345081e-14 
6.1195705940049559e-03 6.9096747477792922e-05 -1.6691688502596758e-22 
6.1195706163373921e-03 6.9096860090986974e-05 -1.3234889800848443e-22 
5.8305126887714248e-03 2.4286170439474254e-04 2.4733721177162581e-13 
5.8305159532982317e-03 2.4286008060486058e-04 2.4733721177972404e-13 
5.5980368108920573e-03 2.6661511713532650e-04 1.3007071040499021e-13 
5.5980399754513768e-03 2.6661502586728097e-04 1.3007071041308842e-13 
5.4635492987542182e-03 2.9959718557348916e-04 1.5160133380609953e-13 
5.4635539435902063e-03 2.9959500932809488e-04 1.5160133382743263e-13 
5.3787018231237910e-03 3.6892911340072549e-04 3.6735343378618312e-13 
5.3787082735255618e-03 3.6893050039405438e-04 3.6735343380751624e-13 
5.3245967168722647e-03 4.7173252181222319e-04 -2.2895543096744466e-22 
5.3245978924536894e-03 4.7173442987932844e-04 -2.0100488885038572e-22 
5.2537439860673970e-03 6.0861593200050397e-04 1.7299528628544473e-14 
5.2537448216316033e-03 6.0861630407552266e-04 1.7299528643260125e-14 
5.0787542144223865e-03 7.2331265247286701e-04 -3.2910346152150856e-14 
5.0787549384518679e-03 7.2331349823414129e-04 -3.2910346144052649e-14 
4.8374058945598831e-03 7.7827322410630828e-04 -1.9428676944310990e-13 
4.8374036580167840e-03 7.7827552639006829e-04 -1.9428676942839425e-13 
4.5344446240125451e-03 8.4974136287604615e-04 -4.6880042782976723e-13 
4.5344385688453944e-03 8.4974513880609471e-04 -4.6880042780843411e-13 

