# vtk DataFile Version 2.0

ASCII

DATASET UNSTRUCTURED_GRID

POINTS 33 double 

-5.0000000000000003e-02  3.3333333335000000e-02  1.4999999999999997e-01
-5.0000000000000003e-02  9.9999999985000018e-02  1.4999999999999999e-01
-5.0000000000000003e-02  1.6666666665000002e-01  1.4999999999999999e-01
-5.0000000000000003e-02  2.3333333334999998e-01  1.4999999999999999e-01
-5.0000000000000003e-02  2.9999999999999993e-01  1.4999999999999997e-01
-5.0000000000000003e-02  3.6666666665000003e-01  1.4999999999999999e-01
-5.0000000000000003e-02  4.3333333335000002e-01  1.4999999999999999e-01
-5.0000000000000003e-02  5.0000000000000000e-01  1.4999999999999997e-01
-5.0000000000000003e-02  5.6666666664999987e-01  1.4999999999999999e-01
-5.0000000000000003e-02  6.3333333334999986e-01  1.4999999999999999e-01
-5.0000000000000003e-02  6.9999999999999984e-01  1.4999999999999997e-01
-5.0000000000000003e-02  7.6666666664999994e-01  1.4999999999999999e-01
-4.9999999999999996e-02  8.3333333334999982e-01  1.4999999999999999e-01
-5.0000000000000003e-02  8.9999999999999991e-01  1.4999999999999997e-01
-5.0000000000000003e-02  9.6666666664999990e-01  1.4999999999999999e-01
-3.3333333335000000e-02  9.9999999999999978e-01  1.4999999999999997e-01
0.0000000000000000e+00  1.0000000000000000e+00  1.4999999999999997e-01
3.3333333335000007e-02  1.0000000000000000e+00  1.4999999999999999e-01
5.0000000000000003e-02  3.3333333335000000e-02  1.4999999999999999e-01
5.0000000000000003e-02  9.9999999985000004e-02  1.4999999999999999e-01
5.0000000000000003e-02  1.6666666664999999e-01  1.4999999999999999e-01
5.0000000000000003e-02  2.3333333334999998e-01  1.4999999999999999e-01
5.0000000000000003e-02  2.9999999999999993e-01  1.4999999999999997e-01
5.0000000000000003e-02  3.6666666665000003e-01  1.4999999999999999e-01
5.0000000000000003e-02  4.3333333334999991e-01  1.4999999999999999e-01
5.0000000000000003e-02  5.0000000000000000e-01  1.4999999999999997e-01
5.0000000000000003e-02  5.6666666664999987e-01  1.4999999999999999e-01
5.0000000000000003e-02  6.3333333334999997e-01  1.4999999999999999e-01
5.0000000000000003e-02  6.9999999999999984e-01  1.4999999999999997e-01
5.0000000000000003e-02  7.6666666664999994e-01  1.4999999999999999e-01
5.0000000000000003e-02  8.3333333334999993e-01  1.4999999999999999e-01
5.0000000000000010e-02  8.9999999999999991e-01  1.4999999999999999e-01
5.0000000000000003e-02  9.6666666664999990e-01  1.4999999999999999e-01

CELLS 0 0


CELL_TYPES 0


POINT_DATA 33

VECTORS VertexNormals double

0.0000000000000000e+00 0.0000000000000000e+00 0.0000000000000000e+00 
0.0000000000000000e+00 0.0000000000000000e+00 0.0000000000000000e+00 
0.0000000000000000e+00 0.0000000000000000e+00 0.0000000000000000e+00 
0.0000000000000000e+00 0.0000000000000000e+00 0.0000000000000000e+00 
0.0000000000000000e+00 0.0000000000000000e+00 0.0000000000000000e+00 
0.0000000000000000e+00 0.0000000000000000e+00 0.0000000000000000e+00 
0.0000000000000000e+00 0.0000000000000000e+00 0.0000000000000000e+00 
0.0000000000000000e+00 0.0000000000000000e+00 0.0000000000000000e+00 
0.0000000000000000e+00 0.0000000000000000e+00 0.0000000000000000e+00 
0.0000000000000000e+00 0.0000000000000000e+00 0.0000000000000000e+00 
0.0000000000000000e+00 0.0000000000000000e+00 0.0000000000000000e+00 
0.0000000000000000e+00 0.0000000000000000e+00 0.0000000000000000e+00 
0.0000000000000000e+00 0.0000000000000000e+00 0.0000000000000000e+00 
0.0000000000000000e+00 0.0000000000000000e+00 0.0000000000000000e+00 
0.0000000000000000e+00 0.0000000000000000e+00 0.0000000000000000e+00 
0.0000000000000000e+00 0.0000000000000000e+00 0.0000000000000000e+00 
0.0000000000000000e+00 0.0000000000000000e+00 0.0000000000000000e+00 
0.0000000000000000e+00 0.0000000000000000e+00 0.0000000000000000e+00 
0.0000000000000000e+00 0.0000000000000000e+00 0.0000000000000000e+00 
0.0000000000000000e+00 0.0000000000000000e+00 0.0000000000000000e+00 
0.0000000000000000e+00 0.0000000000000000e+00 0.0000000000000000e+00 
0.0000000000000000e+00 0.0000000000000000e+00 0.0000000000000000e+00 
0.0000000000000000e+00 0.0000000000000000e+00 0.0000000000000000e+00 
0.0000000000000000e+00 0.0000000000000000e+00 0.0000000000000000e+00 
0.0000000000000000e+00 0.0000000000000000e+00 0.0000000000000000e+00 
0.0000000000000000e+00 0.0000000000000000e+00 0.0000000000000000e+00 
0.0000000000000000e+00 0.0000000000000000e+00 0.0000000000000000e+00 
0.0000000000000000e+00 0.0000000000000000e+00 0.0000000000000000e+00 
0.0000000000000000e+00 0.0000000000000000e+00 0.0000000000000000e+00 
0.0000000000000000e+00 0.0000000000000000e+00 0.0000000000000000e+00 
0.0000000000000000e+00 0.0000000000000000e+00 0.0000000000000000e+00 
0.0000000000000000e+00 0.0000000000000000e+00 0.0000000000000000e+00 
0.0000000000000000e+00 0.0000000000000000e+00 0.0000000000000000e+00 

VECTORS Stress double
2.2023078477326712e+02 -1.2519242969933561e+01 7.0999808663594564e-13 
2.1873115619081705e+02 -2.9829380542407328e+01 9.0721803119504734e-13 
2.1550969368334589e+02 -4.5938043669544697e+01 -4.3169819551939763e-13 
2.1042383652042778e+02 -5.8913192229833612e+01 -2.2669911398296799e-12 
2.0376743578871660e+02 -6.9215517145986354e+01 -1.6311212853852782e-12 
1.9639932391315773e+02 -7.6422076814232327e+01 -1.3282349829105202e-12 
1.8855217337189714e+02 -8.1631468536909864e+01 -1.0752384625567642e-12 
1.8012182327951166e+02 -8.5892140867996247e+01 5.9455891350642064e-13 
1.7225370149653088e+02 -8.8127363860007932e+01 -3.5913765269425466e-13 
1.6534527755039909e+02 -8.8329492171285011e+01 -6.9667150270825269e-13 
1.5927195945012275e+02 -8.6557268070061497e+01 1.5433730012362948e-12 
1.5289952779728449e+02 -8.3338391195500662e+01 1.9581017449136282e-12 
1.4513251604523956e+02 -7.8819776422373138e+01 6.8497894621170139e-13 
1.3497534181495638e+02 -7.2887909845333482e+01 -1.0570947075337463e-12 
1.2033668818011890e+02 -6.4710376595710571e+01 -1.2147966552895873e-12 
-1.5140765772956332e+01 -2.8189021083851319e+01 -2.0018228689971962e-19 
-2.7074345832477789e+01 -4.9857446579263730e+01 6.0185310762101120e-36 
-3.5180451551629467e+01 -6.4644812373915457e+01 1.7304742132699100e-19 
-9.4623875949229230e+01 6.2705665918605531e+00 -2.3966502215392209e-12 
-9.3758743300489755e+01 1.4608863670325391e+01 -3.4459300124079289e-12 
-9.2516490428294361e+01 2.2069729455488503e+01 -6.6355308069708681e-13 
-9.1225421569731495e+01 2.8187238974161755e+01 2.2565084156095783e-12 
-9.0035860271808701e+01 3.3301283824227085e+01 1.9019983148618317e-12 
-8.9072013005079683e+01 3.7248479459379915e+01 1.3083537679896376e-12 
-8.8065106709620366e+01 4.0818804043389733e+01 1.0009972907562838e-12 
-8.6957058687238970e+01 4.3947987286459814e+01 -1.0016067354899444e-12 
-8.5990638667745984e+01 4.5898474778697249e+01 -9.8789868063505978e-13 
-8.5139457017962201e+01 4.6570211797148218e+01 -3.0043328454408497e-13 
-8.4240498366286417e+01 4.6320871979689521e+01 -1.2645442046561498e-12 
-8.3225564136940292e+01 4.5650118588902224e+01 -1.9245409573921257e-12 
-8.2043924786416113e+01 4.4771008236042974e+01 -1.5205771416756129e-12 
-8.0542867390940430e+01 4.3756515450802304e+01 -1.5063267037468982e-12 
-7.8644739377732790e+01 4.2752694660271473e+01 -7.1394143172947143e-13 

