# vtk DataFile Version 2.0

ASCII

DATASET UNSTRUCTURED_GRID

POINTS 68 float 

-5.0000000000000003e-02  0.0000000000000000e+00  0.0000000000000000e+00
-5.0000000000000003e-02  6.6666666669999999e-02  0.0000000000000000e+00
-5.0000000000000003e-02  6.6666666669999999e-02  2.9999999999999999e-01
-5.0000000000000003e-02  0.0000000000000000e+00  2.9999999999999999e-01
-5.0000000000000003e-02  1.3333333330000000e-01  0.0000000000000000e+00
-5.0000000000000003e-02  1.3333333330000000e-01  2.9999999999999999e-01
-5.0000000000000003e-02  2.0000000000000001e-01  0.0000000000000000e+00
-5.0000000000000003e-02  2.0000000000000001e-01  2.9999999999999999e-01
-5.0000000000000003e-02  2.6666666670000000e-01  0.0000000000000000e+00
-5.0000000000000003e-02  2.6666666670000000e-01  2.9999999999999999e-01
-5.0000000000000003e-02  3.3333333329999998e-01  0.0000000000000000e+00
-5.0000000000000003e-02  3.3333333329999998e-01  2.9999999999999999e-01
-5.0000000000000003e-02  4.0000000000000002e-01  0.0000000000000000e+00
-5.0000000000000003e-02  4.0000000000000002e-01  2.9999999999999999e-01
-5.0000000000000003e-02  4.6666666670000001e-01  0.0000000000000000e+00
-5.0000000000000003e-02  4.6666666670000001e-01  2.9999999999999999e-01
-5.0000000000000003e-02  5.3333333329999999e-01  0.0000000000000000e+00
-5.0000000000000003e-02  5.3333333329999999e-01  2.9999999999999999e-01
-5.0000000000000003e-02  5.9999999999999998e-01  0.0000000000000000e+00
-5.0000000000000003e-02  5.9999999999999998e-01  2.9999999999999999e-01
-5.0000000000000003e-02  6.6666666669999997e-01  0.0000000000000000e+00
-5.0000000000000003e-02  6.6666666669999997e-01  2.9999999999999999e-01
-5.0000000000000003e-02  7.3333333329999995e-01  0.0000000000000000e+00
-5.0000000000000003e-02  7.3333333329999995e-01  2.9999999999999999e-01
-5.0000000000000003e-02  8.0000000000000004e-01  0.0000000000000000e+00
-5.0000000000000003e-02  8.0000000000000004e-01  2.9999999999999999e-01
-5.0000000000000003e-02  8.6666666670000003e-01  0.0000000000000000e+00
-5.0000000000000003e-02  8.6666666670000003e-01  2.9999999999999999e-01
-5.0000000000000003e-02  9.3333333330000001e-01  0.0000000000000000e+00
-5.0000000000000003e-02  9.3333333330000001e-01  2.9999999999999999e-01
-5.0000000000000003e-02  1.0000000000000000e+00  0.0000000000000000e+00
-5.0000000000000003e-02  1.0000000000000000e+00  2.9999999999999999e-01
-1.6666666670000000e-02  1.0000000000000000e+00  0.0000000000000000e+00
-1.6666666670000000e-02  1.0000000000000000e+00  2.9999999999999999e-01
1.6666666670000000e-02  1.0000000000000000e+00  0.0000000000000000e+00
1.6666666670000000e-02  1.0000000000000000e+00  2.9999999999999999e-01
5.0000000000000003e-02  1.0000000000000000e+00  0.0000000000000000e+00
5.0000000000000003e-02  1.0000000000000000e+00  2.9999999999999999e-01
5.0000000000000003e-02  0.0000000000000000e+00  0.0000000000000000e+00
5.0000000000000003e-02  0.0000000000000000e+00  2.9999999999999999e-01
5.0000000000000003e-02  6.6666666669999999e-02  2.9999999999999999e-01
5.0000000000000003e-02  6.6666666669999999e-02  0.0000000000000000e+00
5.0000000000000003e-02  1.3333333330000000e-01  2.9999999999999999e-01
5.0000000000000003e-02  1.3333333330000000e-01  0.0000000000000000e+00
5.0000000000000003e-02  2.0000000000000001e-01  2.9999999999999999e-01
5.0000000000000003e-02  2.0000000000000001e-01  0.0000000000000000e+00
5.0000000000000003e-02  2.6666666670000000e-01  2.9999999999999999e-01
5.0000000000000003e-02  2.6666666670000000e-01  0.0000000000000000e+00
5.0000000000000003e-02  3.3333333329999998e-01  2.9999999999999999e-01
5.0000000000000003e-02  3.3333333329999998e-01  0.0000000000000000e+00
5.0000000000000003e-02  4.0000000000000002e-01  2.9999999999999999e-01
5.0000000000000003e-02  4.0000000000000002e-01  0.0000000000000000e+00
5.0000000000000003e-02  4.6666666670000001e-01  2.9999999999999999e-01
5.0000000000000003e-02  4.6666666670000001e-01  0.0000000000000000e+00
5.0000000000000003e-02  5.3333333329999999e-01  2.9999999999999999e-01
5.0000000000000003e-02  5.3333333329999999e-01  0.0000000000000000e+00
5.0000000000000003e-02  5.9999999999999998e-01  2.9999999999999999e-01
5.0000000000000003e-02  5.9999999999999998e-01  0.0000000000000000e+00
5.0000000000000003e-02  6.6666666669999997e-01  2.9999999999999999e-01
5.0000000000000003e-02  6.6666666669999997e-01  0.0000000000000000e+00
5.0000000000000003e-02  7.3333333329999995e-01  2.9999999999999999e-01
5.0000000000000003e-02  7.3333333329999995e-01  0.0000000000000000e+00
5.0000000000000003e-02  8.0000000000000004e-01  2.9999999999999999e-01
5.0000000000000003e-02  8.0000000000000004e-01  0.0000000000000000e+00
5.0000000000000003e-02  8.6666666670000003e-01  2.9999999999999999e-01
5.0000000000000003e-02  8.6666666670000003e-01  0.0000000000000000e+00
5.0000000000000003e-02  9.3333333330000001e-01  2.9999999999999999e-01
5.0000000000000003e-02  9.3333333330000001e-01  0.0000000000000000e+00

CELLS 0 0


CELL_TYPES 0


POINT_DATA 68

VECTORS VertexNormals float

0.0000000000000000e+00 0.0000000000000000e+00 0.0000000000000000e+00 
0.0000000000000000e+00 0.0000000000000000e+00 0.0000000000000000e+00 
0.0000000000000000e+00 0.0000000000000000e+00 0.0000000000000000e+00 
0.0000000000000000e+00 0.0000000000000000e+00 0.0000000000000000e+00 
0.0000000000000000e+00 0.0000000000000000e+00 0.0000000000000000e+00 
0.0000000000000000e+00 0.0000000000000000e+00 0.0000000000000000e+00 
0.0000000000000000e+00 0.0000000000000000e+00 0.0000000000000000e+00 
0.0000000000000000e+00 0.0000000000000000e+00 0.0000000000000000e+00 
0.0000000000000000e+00 0.0000000000000000e+00 0.0000000000000000e+00 
0.0000000000000000e+00 0.0000000000000000e+00 0.0000000000000000e+00 
0.0000000000000000e+00 0.0000000000000000e+00 0.0000000000000000e+00 
0.0000000000000000e+00 0.0000000000000000e+00 0.0000000000000000e+00 
0.0000000000000000e+00 0.0000000000000000e+00 0.0000000000000000e+00 
0.0000000000000000e+00 0.0000000000000000e+00 0.0000000000000000e+00 
0.0000000000000000e+00 0.0000000000000000e+00 0.0000000000000000e+00 
0.0000000000000000e+00 0.0000000000000000e+00 0.0000000000000000e+00 
0.0000000000000000e+00 0.0000000000000000e+00 0.0000000000000000e+00 
0.0000000000000000e+00 0.0000000000000000e+00 0.0000000000000000e+00 
0.0000000000000000e+00 0.0000000000000000e+00 0.0000000000000000e+00 
0.0000000000000000e+00 0.0000000000000000e+00 0.0000000000000000e+00 
0.0000000000000000e+00 0.0000000000000000e+00 0.0000000000000000e+00 
0.0000000000000000e+00 0.0000000000000000e+00 0.0000000000000000e+00 
0.0000000000000000e+00 0.0000000000000000e+00 0.0000000000000000e+00 
0.0000000000000000e+00 0.0000000000000000e+00 0.0000000000000000e+00 
0.0000000000000000e+00 0.0000000000000000e+00 0.0000000000000000e+00 
0.0000000000000000e+00 0.0000000000000000e+00 0.0000000000000000e+00 
0.0000000000000000e+00 0.0000000000000000e+00 0.0000000000000000e+00 
0.0000000000000000e+00 0.0000000000000000e+00 0.0000000000000000e+00 
0.0000000000000000e+00 0.0000000000000000e+00 0.0000000000000000e+00 
0.0000000000000000e+00 0.0000000000000000e+00 0.0000000000000000e+00 
0.0000000000000000e+00 0.0000000000000000e+00 0.0000000000000000e+00 
0.0000000000000000e+00 0.0000000000000000e+00 0.0000000000000000e+00 
0.0000000000000000e+00 0.0000000000000000e+00 0.0000000000000000e+00 
0.0000000000000000e+00 0.0000000000000000e+00 0.0000000000000000e+00 
0.0000000000000000e+00 0.0000000000000000e+00 0.0000000000000000e+00 
0.0000000000000000e+00 0.0000000000000000e+00 0.0000000000000000e+00 
0.0000000000000000e+00 0.0000000000000000e+00 0.0000000000000000e+00 
0.0000000000000000e+00 0.0000000000000000e+00 0.0000000000000000e+00 
0.0000000000000000e+00 0.0000000000000000e+00 0.0000000000000000e+00 
0.0000000000000000e+00 0.0000000000000000e+00 0.0000000000000000e+00 
0.0000000000000000e+00 0.0000000000000000e+00 0.0000000000000000e+00 
0.0000000000000000e+00 0.0000000000000000e+00 0.0000000000000000e+00 
0.0000000000000000e+00 0.0000000000000000e+00 0.0000000000000000e+00 
0.0000000000000000e+00 0.0000000000000000e+00 0.0000000000000000e+00 
0.0000000000000000e+00 0.0000000000000000e+00 0.0000000000000000e+00 
0.0000000000000000e+00 0.0000000000000000e+00 0.0000000000000000e+00 
0.0000000000000000e+00 0.0000000000000000e+00 0.0000000000000000e+00 
0.0000000000000000e+00 0.0000000000000000e+00 0.0000000000000000e+00 
0.0000000000000000e+00 0.0000000000000000e+00 0.0000000000000000e+00 
0.0000000000000000e+00 0.0000000000000000e+00 0.0000000000000000e+00 
0.0000000000000000e+00 0.0000000000000000e+00 0.0000000000000000e+00 
0.0000000000000000e+00 0.0000000000000000e+00 0.0000000000000000e+00 
0.0000000000000000e+00 0.0000000000000000e+00 0.0000000000000000e+00 
0.0000000000000000e+00 0.0000000000000000e+00 0.0000000000000000e+00 
0.0000000000000000e+00 0.0000000000000000e+00 0.0000000000000000e+00 
0.0000000000000000e+00 0.0000000000000000e+00 0.0000000000000000e+00 
0.0000000000000000e+00 0.0000000000000000e+00 0.0000000000000000e+00 
0.0000000000000000e+00 0.0000000000000000e+00 0.0000000000000000e+00 
0.0000000000000000e+00 0.0000000000000000e+00 0.0000000000000000e+00 
0.0000000000000000e+00 0.0000000000000000e+00 0.0000000000000000e+00 
0.0000000000000000e+00 0.0000000000000000e+00 0.0000000000000000e+00 
0.0000000000000000e+00 0.0000000000000000e+00 0.0000000000000000e+00 
0.0000000000000000e+00 0.0000000000000000e+00 0.0000000000000000e+00 
0.0000000000000000e+00 0.0000000000000000e+00 0.0000000000000000e+00 
0.0000000000000000e+00 0.0000000000000000e+00 0.0000000000000000e+00 
0.0000000000000000e+00 0.0000000000000000e+00 0.0000000000000000e+00 
0.0000000000000000e+00 0.0000000000000000e+00 0.0000000000000000e+00 
0.0000000000000000e+00 0.0000000000000000e+00 0.0000000000000000e+00 

VECTORS Displacement float
8.3239621792574603e-17 -1.9949319973733282e-17 -2.7400357790819042e-24 
4.3070258927086337e-04 3.9327144039049810e-05 -1.6761596687098163e-14 
4.3070261637605050e-04 3.9327107144597927e-05 -1.6761596670168082e-14 
3.5780135649840675e-17 -1.3860117639384791e-17 2.5578178951837578e-24 
4.7770050737296299e-04 9.8307888414025241e-06 -4.4440882061007035e-15 
4.7770061136352936e-04 9.8307311237086355e-06 -4.4440882086093671e-15 
4.7772640012393088e-04 3.0216485290626705e-07 -1.5438791191464220e-14 
4.7772628800081491e-04 3.0211644389641113e-07 -1.5438791193145703e-14 
4.7168594103563929e-04 -1.6847992890291208e-06 -2.6582105469667252e-14 
4.7168585695282842e-04 -1.6848618840498498e-06 -2.6582105471348734e-14 
4.6384950049499084e-04 -2.3051615466373673e-06 5.3766739815946799e-23 
4.6384923957228590e-04 -2.3055034268390155e-06 5.6221160134561434e-23 
4.5416520568848781e-04 -2.8048099052387088e-06 -4.5485644340468169e-14 
4.5416463458885012e-04 -2.8047780735221748e-06 -4.5485644338840932e-14 
4.4237817141801086e-04 -3.3251822954263530e-06 -1.4621542773099772e-14 
4.4237807357024077e-04 -3.3251431353453413e-06 -1.4621542769818171e-14 
4.2826068939675385e-04 -3.8654824497958568e-06 -1.0602176008686595e-14 
4.2826054756717381e-04 -3.8656044874410193e-06 -1.0602176005404994e-14 
4.1154076172081723e-04 -4.4008152812764073e-06 -2.7973024271067341e-14 
4.1154050575734172e-04 -4.4008205877690480e-06 -2.7973024273576004e-14 
3.9185008212300264e-04 -4.8629915002590743e-06 3.8877488789992301e-23 
3.9184997594500021e-04 -4.8628865260339975e-06 3.7196006045841792e-23 
3.6868708261494107e-04 -4.9959478392929899e-06 -1.9136924301835833e-14 
3.6868708987326430e-04 -4.9958804468254975e-06 -1.9136924306412448e-14 
3.4231064561361223e-04 -4.5751505499997021e-06 -2.8632890797248652e-15 
3.4231067302468993e-04 -4.5750590033669966e-06 -2.8632890830607091e-15 
3.0977718695929073e-04 -4.3268143516544955e-06 2.9398884644824173e-15 
3.0977724666141955e-04 -4.3267278784599873e-06 2.9398884628009347e-15 
2.7851645081262998e-04 -8.2482689385671420e-06 2.6949825029699239e-15 
2.7851664818603271e-04 -8.2482106847391483e-06 2.6949824992204897e-15 
1.5066711123892101e-04 -1.8759864057269881e-05 -6.4106497472859645e-24 
1.5066739706320206e-04 -1.8759732817483681e-05 4.3155766968589416e-24 
1.4131162628232274e-04 1.7225844009397147e-05 2.0679515313825692e-24 
1.4131190226813608e-04 1.7225874827518439e-05 -2.7121519044453658e-26 
1.3644224265163801e-04 1.4200056642887015e-05 -6.6174449004242214e-24 
1.3644259483883682e-04 1.4200054819532414e-05 -3.5426391223948213e-24 
1.3119099944584531e-04 4.7671919800715409e-05 -3.9291079096268815e-24 
1.3119130417889283e-04 4.7671848312371973e-05 1.4204445529233448e-24 
1.7645390357201585e-17 -2.3852447794681098e-17 1.8973455300435072e-23 
1.4692403394997613e-17 -1.2667495249650736e-17 1.1036419173852291e-23 
3.3854660014918920e-04 -4.3490518521992662e-05 1.4073634809616102e-15 
3.3854668351914337e-04 -4.3490596329497696e-05 1.4073634859518153e-15 
3.8529594668777956e-04 -1.1348233641355812e-05 9.5688234003098371e-15 
3.8529605697918128e-04 -1.1348223530520049e-05 9.5688234086087642e-15 
3.8600342211108182e-04 -6.1622186503386378e-07 1.2083975123985708e-14 
3.8600355578497885e-04 -6.1624609663454843e-07 1.2083975124012829e-14 
3.8070048841951516e-04 1.8566571218415001e-06 1.3602652738618221e-14 
3.8070075472075820e-04 1.8566690821696097e-06 1.3602652741126884e-14 
3.7375290695229629e-04 2.7242867786940813e-06 -2.3188178670529229e-23 
3.7375340016817886e-04 2.7241224474202144e-06 -2.3988237764037803e-23 
3.6522878157118575e-04 3.4174427425812466e-06 4.9489904440157606e-14 
3.6522956245526965e-04 3.4176185091739156e-06 4.9489904440184730e-14 
3.5492915808905408e-04 4.1527393479542933e-06 1.4445360798509567e-14 
3.5492940949806992e-04 4.1529082307253246e-06 1.4445360797709508e-14 
3.4273130353723846e-04 4.9767589584176837e-06 1.1676860738624256e-14 
3.4273159947311024e-04 4.9767557675451865e-06 1.1676860738651377e-14 
3.2853403570081498e-04 5.9390288705981485e-06 2.9699127524145680e-14 
3.2853451617142581e-04 5.9390610993295331e-06 2.9699127529963069e-14 
3.1219049210363508e-04 7.1162878801886089e-06 8.0005909350857402e-25 
3.1219084403232293e-04 7.1163948373179423e-06 5.7902642878711937e-24 
2.9339044573354283e-04 8.5557611199851311e-06 1.7099393258931983e-14 
2.9339060090467989e-04 8.5558159752942113e-06 1.7099393266403730e-14 
2.7422962108333159e-04 1.0129743831546068e-05 5.0376136588831902e-15 
2.7422969072417791e-04 1.0129766525239763e-05 5.0376136675957085e-15 
2.5698554738962396e-04 1.2647205576187346e-05 -5.9444563416832377e-15 
2.5698554906675576e-04 1.2647237944262129e-05 -5.9444563362794419e-15 
2.4590015258961956e-04 2.1618890994465232e-05 -1.3990251843305177e-14 
2.4589998485579669e-04 2.1618935504459647e-05 -1.3990251840382923e-14 

