# vtk DataFile Version 2.0

ASCII

DATASET UNSTRUCTURED_GRID

POINTS 68 double 

-5.0000000000000003e-02  0.0000000000000000e+00  0.0000000000000000e+00
-5.0000000000000003e-02  6.6666666669999999e-02  0.0000000000000000e+00
-5.0000000000000003e-02  6.6666666669999999e-02  2.9999999999999999e-01
-5.0000000000000003e-02  0.0000000000000000e+00  2.9999999999999999e-01
-5.0000000000000003e-02  1.3333333330000000e-01  0.0000000000000000e+00
-5.0000000000000003e-02  1.3333333330000000e-01  2.9999999999999999e-01
-5.0000000000000003e-02  2.0000000000000001e-01  0.0000000000000000e+00
-5.0000000000000003e-02  2.0000000000000001e-01  2.9999999999999999e-01
-5.0000000000000003e-02  2.6666666670000000e-01  0.0000000000000000e+00
-5.0000000000000003e-02  2.6666666670000000e-01  2.9999999999999999e-01
-5.0000000000000003e-02  3.3333333329999998e-01  0.0000000000000000e+00
-5.0000000000000003e-02  3.3333333329999998e-01  2.9999999999999999e-01
-5.0000000000000003e-02  4.0000000000000002e-01  0.0000000000000000e+00
-5.0000000000000003e-02  4.0000000000000002e-01  2.9999999999999999e-01
-5.0000000000000003e-02  4.6666666670000001e-01  0.0000000000000000e+00
-5.0000000000000003e-02  4.6666666670000001e-01  2.9999999999999999e-01
-5.0000000000000003e-02  5.3333333329999999e-01  0.0000000000000000e+00
-5.0000000000000003e-02  5.3333333329999999e-01  2.9999999999999999e-01
-5.0000000000000003e-02  5.9999999999999998e-01  0.0000000000000000e+00
-5.0000000000000003e-02  5.9999999999999998e-01  2.9999999999999999e-01
-5.0000000000000003e-02  6.6666666669999997e-01  0.0000000000000000e+00
-5.0000000000000003e-02  6.6666666669999997e-01  2.9999999999999999e-01
-5.0000000000000003e-02  7.3333333329999995e-01  0.0000000000000000e+00
-5.0000000000000003e-02  7.3333333329999995e-01  2.9999999999999999e-01
-5.0000000000000003e-02  8.0000000000000004e-01  0.0000000000000000e+00
-5.0000000000000003e-02  8.0000000000000004e-01  2.9999999999999999e-01
-5.0000000000000003e-02  8.6666666670000003e-01  0.0000000000000000e+00
-5.0000000000000003e-02  8.6666666670000003e-01  2.9999999999999999e-01
-5.0000000000000003e-02  9.3333333330000001e-01  0.0000000000000000e+00
-5.0000000000000003e-02  9.3333333330000001e-01  2.9999999999999999e-01
-5.0000000000000003e-02  1.0000000000000000e+00  0.0000000000000000e+00
-5.0000000000000003e-02  1.0000000000000000e+00  2.9999999999999999e-01
-1.6666666670000000e-02  1.0000000000000000e+00  0.0000000000000000e+00
-1.6666666670000000e-02  1.0000000000000000e+00  2.9999999999999999e-01
1.6666666670000000e-02  1.0000000000000000e+00  0.0000000000000000e+00
1.6666666670000000e-02  1.0000000000000000e+00  2.9999999999999999e-01
5.0000000000000003e-02  1.0000000000000000e+00  0.0000000000000000e+00
5.0000000000000003e-02  1.0000000000000000e+00  2.9999999999999999e-01
5.0000000000000003e-02  0.0000000000000000e+00  0.0000000000000000e+00
5.0000000000000003e-02  0.0000000000000000e+00  2.9999999999999999e-01
5.0000000000000003e-02  6.6666666669999999e-02  2.9999999999999999e-01
5.0000000000000003e-02  6.6666666669999999e-02  0.0000000000000000e+00
5.0000000000000003e-02  1.3333333330000000e-01  2.9999999999999999e-01
5.0000000000000003e-02  1.3333333330000000e-01  0.0000000000000000e+00
5.0000000000000003e-02  2.0000000000000001e-01  2.9999999999999999e-01
5.0000000000000003e-02  2.0000000000000001e-01  0.0000000000000000e+00
5.0000000000000003e-02  2.6666666670000000e-01  2.9999999999999999e-01
5.0000000000000003e-02  2.6666666670000000e-01  0.0000000000000000e+00
5.0000000000000003e-02  3.3333333329999998e-01  2.9999999999999999e-01
5.0000000000000003e-02  3.3333333329999998e-01  0.0000000000000000e+00
5.0000000000000003e-02  4.0000000000000002e-01  2.9999999999999999e-01
5.0000000000000003e-02  4.0000000000000002e-01  0.0000000000000000e+00
5.0000000000000003e-02  4.6666666670000001e-01  2.9999999999999999e-01
5.0000000000000003e-02  4.6666666670000001e-01  0.0000000000000000e+00
5.0000000000000003e-02  5.3333333329999999e-01  2.9999999999999999e-01
5.0000000000000003e-02  5.3333333329999999e-01  0.0000000000000000e+00
5.0000000000000003e-02  5.9999999999999998e-01  2.9999999999999999e-01
5.0000000000000003e-02  5.9999999999999998e-01  0.0000000000000000e+00
5.0000000000000003e-02  6.6666666669999997e-01  2.9999999999999999e-01
5.0000000000000003e-02  6.6666666669999997e-01  0.0000000000000000e+00
5.0000000000000003e-02  7.3333333329999995e-01  2.9999999999999999e-01
5.0000000000000003e-02  7.3333333329999995e-01  0.0000000000000000e+00
5.0000000000000003e-02  8.0000000000000004e-01  2.9999999999999999e-01
5.0000000000000003e-02  8.0000000000000004e-01  0.0000000000000000e+00
5.0000000000000003e-02  8.6666666670000003e-01  2.9999999999999999e-01
5.0000000000000003e-02  8.6666666670000003e-01  0.0000000000000000e+00
5.0000000000000003e-02  9.3333333330000001e-01  2.9999999999999999e-01
5.0000000000000003e-02  9.3333333330000001e-01  0.0000000000000000e+00

CELLS 0 0


CELL_TYPES 0


POINT_DATA 68

VECTORS VertexNormals double

0.0000000000000000e+00 0.0000000000000000e+00 0.0000000000000000e+00 
0.0000000000000000e+00 0.0000000000000000e+00 0.0000000000000000e+00 
0.0000000000000000e+00 0.0000000000000000e+00 0.0000000000000000e+00 
0.0000000000000000e+00 0.0000000000000000e+00 0.0000000000000000e+00 
0.0000000000000000e+00 0.0000000000000000e+00 0.0000000000000000e+00 
0.0000000000000000e+00 0.0000000000000000e+00 0.0000000000000000e+00 
0.0000000000000000e+00 0.0000000000000000e+00 0.0000000000000000e+00 
0.0000000000000000e+00 0.0000000000000000e+00 0.0000000000000000e+00 
0.0000000000000000e+00 0.0000000000000000e+00 0.0000000000000000e+00 
0.0000000000000000e+00 0.0000000000000000e+00 0.0000000000000000e+00 
0.0000000000000000e+00 0.0000000000000000e+00 0.0000000000000000e+00 
0.0000000000000000e+00 0.0000000000000000e+00 0.0000000000000000e+00 
0.0000000000000000e+00 0.0000000000000000e+00 0.0000000000000000e+00 
0.0000000000000000e+00 0.0000000000000000e+00 0.0000000000000000e+00 
0.0000000000000000e+00 0.0000000000000000e+00 0.0000000000000000e+00 
0.0000000000000000e+00 0.0000000000000000e+00 0.0000000000000000e+00 
0.0000000000000000e+00 0.0000000000000000e+00 0.0000000000000000e+00 
0.0000000000000000e+00 0.0000000000000000e+00 0.0000000000000000e+00 
0.0000000000000000e+00 0.0000000000000000e+00 0.0000000000000000e+00 
0.0000000000000000e+00 0.0000000000000000e+00 0.0000000000000000e+00 
0.0000000000000000e+00 0.0000000000000000e+00 0.0000000000000000e+00 
0.0000000000000000e+00 0.0000000000000000e+00 0.0000000000000000e+00 
0.0000000000000000e+00 0.0000000000000000e+00 0.0000000000000000e+00 
0.0000000000000000e+00 0.0000000000000000e+00 0.0000000000000000e+00 
0.0000000000000000e+00 0.0000000000000000e+00 0.0000000000000000e+00 
0.0000000000000000e+00 0.0000000000000000e+00 0.0000000000000000e+00 
0.0000000000000000e+00 0.0000000000000000e+00 0.0000000000000000e+00 
0.0000000000000000e+00 0.0000000000000000e+00 0.0000000000000000e+00 
0.0000000000000000e+00 0.0000000000000000e+00 0.0000000000000000e+00 
0.0000000000000000e+00 0.0000000000000000e+00 0.0000000000000000e+00 
0.0000000000000000e+00 0.0000000000000000e+00 0.0000000000000000e+00 
0.0000000000000000e+00 0.0000000000000000e+00 0.0000000000000000e+00 
0.0000000000000000e+00 0.0000000000000000e+00 0.0000000000000000e+00 
0.0000000000000000e+00 0.0000000000000000e+00 0.0000000000000000e+00 
0.0000000000000000e+00 0.0000000000000000e+00 0.0000000000000000e+00 
0.0000000000000000e+00 0.0000000000000000e+00 0.0000000000000000e+00 
0.0000000000000000e+00 0.0000000000000000e+00 0.0000000000000000e+00 
0.0000000000000000e+00 0.0000000000000000e+00 0.0000000000000000e+00 
0.0000000000000000e+00 0.0000000000000000e+00 0.0000000000000000e+00 
0.0000000000000000e+00 0.0000000000000000e+00 0.0000000000000000e+00 
0.0000000000000000e+00 0.0000000000000000e+00 0.0000000000000000e+00 
0.0000000000000000e+00 0.0000000000000000e+00 0.0000000000000000e+00 
0.0000000000000000e+00 0.0000000000000000e+00 0.0000000000000000e+00 
0.0000000000000000e+00 0.0000000000000000e+00 0.0000000000000000e+00 
0.0000000000000000e+00 0.0000000000000000e+00 0.0000000000000000e+00 
0.0000000000000000e+00 0.0000000000000000e+00 0.0000000000000000e+00 
0.0000000000000000e+00 0.0000000000000000e+00 0.0000000000000000e+00 
0.0000000000000000e+00 0.0000000000000000e+00 0.0000000000000000e+00 
0.0000000000000000e+00 0.0000000000000000e+00 0.0000000000000000e+00 
0.0000000000000000e+00 0.0000000000000000e+00 0.0000000000000000e+00 
0.0000000000000000e+00 0.0000000000000000e+00 0.0000000000000000e+00 
0.0000000000000000e+00 0.0000000000000000e+00 0.0000000000000000e+00 
0.0000000000000000e+00 0.0000000000000000e+00 0.0000000000000000e+00 
0.0000000000000000e+00 0.0000000000000000e+00 0.0000000000000000e+00 
0.0000000000000000e+00 0.0000000000000000e+00 0.0000000000000000e+00 
0.0000000000000000e+00 0.0000000000000000e+00 0.0000000000000000e+00 
0.0000000000000000e+00 0.0000000000000000e+00 0.0000000000000000e+00 
0.0000000000000000e+00 0.0000000000000000e+00 0.0000000000000000e+00 
0.0000000000000000e+00 0.0000000000000000e+00 0.0000000000000000e+00 
0.0000000000000000e+00 0.0000000000000000e+00 0.0000000000000000e+00 
0.0000000000000000e+00 0.0000000000000000e+00 0.0000000000000000e+00 
0.0000000000000000e+00 0.0000000000000000e+00 0.0000000000000000e+00 
0.0000000000000000e+00 0.0000000000000000e+00 0.0000000000000000e+00 
0.0000000000000000e+00 0.0000000000000000e+00 0.0000000000000000e+00 
0.0000000000000000e+00 0.0000000000000000e+00 0.0000000000000000e+00 
0.0000000000000000e+00 0.0000000000000000e+00 0.0000000000000000e+00 
0.0000000000000000e+00 0.0000000000000000e+00 0.0000000000000000e+00 
0.0000000000000000e+00 0.0000000000000000e+00 0.0000000000000000e+00 

VECTORS Displacement double
-6.8348104953486200e-16 -1.6609977282477928e-16 -1.6278914455043585e-21 
2.0324943705304702e-03 2.3417599073448292e-03 -4.8939560684426344e-13 
2.0324879013947986e-03 2.3417538545582460e-03 -4.8939560901157388e-13 
-9.6964747421282957e-17 -8.5814643724848610e-17 2.0173486217444518e-22 
7.0518501244462746e-03 4.5404665852914914e-03 -3.0547610090892225e-13 
7.0518410876451720e-03 4.5404622701463362e-03 -3.0547610085277116e-13 
1.4703174319391776e-02 6.0944850700330620e-03 -5.1919488902311853e-13 
1.4703174120068094e-02 6.0944846147816733e-03 -5.1919488886108836e-13 
2.4035452139194051e-02 6.6107271745085563e-03 -1.6934745765729577e-13 
2.4035445493621872e-02 6.6107275281961373e-03 -1.6934745765408426e-13 
3.3196653189773412e-02 6.3592078631998393e-03 1.0587911840678754e-22 
3.3196646530677942e-02 6.3592032125994753e-03 1.6203019277189985e-22 
4.1733625347818486e-02 5.7199188873860432e-03 8.7567754747554368e-14 
4.1733632255658175e-02 5.7199194588467709e-03 8.7567754803705437e-14 
4.9321020782800769e-02 4.8912674236938364e-03 1.4373675189383576e-13 
4.9321018995237526e-02 4.8912644361803559e-03 1.4373675194998683e-13 
5.5494637774594062e-02 3.6905979762214660e-03 4.1195936265366317e-13 
5.5494647160132776e-02 3.6905973096353268e-03 4.1195936260393514e-13 
5.9950874960456986e-02 2.5010185927683715e-03 9.0980527730858822e-14 
5.9950868056564285e-02 2.5010158605212247e-03 9.0980527734070332e-14 
6.3013506573333780e-02 1.6196221487454520e-03 -1.0587911840678754e-22 
6.3013503543066160e-02 1.6196246098837620e-03 3.2115151617185363e-24 
6.4997283151135274e-02 6.7876572696230330e-04 -2.1793282790170281e-13 
6.4997275921029357e-02 6.7876834225261791e-04 -2.1793282773967263e-13 
6.5896438625962506e-02 6.2986337041904920e-05 -3.8444267981649444e-13 
6.5896432439722874e-02 6.2989373039522777e-05 -3.8444267970740379e-13 
6.6354901385466528e-02 -1.8700211478099712e-04 -3.8155460954505878e-13 
6.6354913187127287e-02 -1.8700388254053521e-04 -3.8155460943596813e-13 
6.6689515306999431e-02 -3.3965372820135174e-04 -1.1779679967509954e-12 
6.6689514004708239e-02 -3.3966337658513632e-04 -1.1779679967742536e-12 
6.6892325637059380e-02 -3.8333834332907784e-04 -2.6469779601696886e-23 
6.6892336616248035e-02 -3.8334572358061442e-04 -4.9728044041675235e-23 
6.6876701709135913e-02 -5.1804132301579977e-04 1.5881867761018131e-22 
6.6876710125984395e-02 -5.1805164719024958e-04 5.6151074365112308e-23 
6.6868513555388961e-02 -5.5594972912784547e-04 5.2939559203393771e-23 
6.6868513138200109e-02 -5.5594683671400058e-04 -2.3258264439978349e-23 
6.6866372003702240e-02 -5.9135377878514572e-04 -7.9409338805090657e-23 
6.6866368967872902e-02 -5.9134168364562926e-04 -1.2913738284676589e-22 
-5.2041704279304213e-17 -4.2934406030425976e-17 -5.6248281653605882e-22 
-6.5739724853700430e-17 -4.6132844211879148e-17 -2.6810372575567454e-22 
2.0647416911431168e-03 -2.4466817804270256e-03 4.2833732866831417e-13 
2.0647399457397915e-03 -2.4466880157716529e-03 4.2833732847981418e-13 
7.0781330628124049e-03 -4.6412726249975052e-03 4.2375950024724185e-13 
7.0781431451285917e-03 -4.6412751195529294e-03 4.2375950008521164e-13 
1.4836022863873335e-02 -6.1971403656011443e-03 -8.2359687700157272e-14 
1.4836028948465509e-02 -6.1971372027029353e-03 -8.2359687915127018e-14 
2.4076125611550727e-02 -6.8004609989909121e-03 5.8223044317408937e-14 
2.4076120672401204e-02 -6.8004570645821341e-03 5.8223044102439191e-14 
3.3335252280386113e-02 -6.6728986308789567e-03 7.9730490321262510e-22 
3.3335253880387231e-02 -6.6728963658449578e-03 8.4703294725430034e-22 
4.1803928846006894e-02 -6.1602090962015908e-03 -2.8908043471147027e-13 
4.1803917629265518e-02 -6.1602082612471484e-03 -2.8908043466174224e-13 
4.9404190028792122e-02 -5.3757748211866819e-03 -1.4830121270242080e-13 
4.9404187478646597e-02 -5.3757795265270613e-03 -1.4830121275857187e-13 
5.5565644935352654e-02 -4.2881092377825654e-03 -3.3440997140171044e-13 
5.5565630804585160e-02 -4.2881135509528255e-03 -3.3440997140492197e-13 
6.0042128318056026e-02 -3.2077145250125529e-03 -2.9096540663863650e-13 
6.0042127910354667e-02 -3.2077203810818235e-03 -2.9096540674772715e-13 
6.3081303753022816e-02 -2.3703965424837440e-03 3.2084887038208116e-22 
6.3081300129364970e-02 -2.3703980339574130e-03 1.0587911840678754e-22 
6.5098682142705061e-02 -1.5806684270286045e-03 1.9232398540218004e-13 
6.5098683627155207e-02 -1.5806745231830819e-03 1.9232398524014985e-13 
6.5929736895488963e-02 -1.0605555653650847e-03 2.8625759371257190e-13 
6.5929742361181889e-02 -1.0605518914224646e-03 2.8625759365642081e-13 
6.6431202985878082e-02 -7.5585173183872209e-04 1.2787062719626593e-13 
6.6431194339788460e-02 -7.5585117959208630e-04 1.2787062714011486e-13 
6.6682986357463683e-02 -6.7411365985545289e-04 -9.1751968381790601e-13 
6.6682979462817302e-02 -6.7412188201353921e-04 -9.1751968379464781e-13 

