# vtk DataFile Version 2.0

ASCII

DATASET UNSTRUCTURED_GRID

POINTS 68 double 

-5.0000000000000003e-02  0.0000000000000000e+00  0.0000000000000000e+00
-5.0000000000000003e-02  6.6666666669999999e-02  0.0000000000000000e+00
-5.0000000000000003e-02  6.6666666669999999e-02  2.9999999999999999e-01
-5.0000000000000003e-02  0.0000000000000000e+00  2.9999999999999999e-01
-5.0000000000000003e-02  1.3333333330000000e-01  0.0000000000000000e+00
-5.0000000000000003e-02  1.3333333330000000e-01  2.9999999999999999e-01
-5.0000000000000003e-02  2.0000000000000001e-01  0.0000000000000000e+00
-5.0000000000000003e-02  2.0000000000000001e-01  2.9999999999999999e-01
-5.0000000000000003e-02  2.6666666670000000e-01  0.0000000000000000e+00
-5.0000000000000003e-02  2.6666666670000000e-01  2.9999999999999999e-01
-5.0000000000000003e-02  3.3333333329999998e-01  0.0000000000000000e+00
-5.0000000000000003e-02  3.3333333329999998e-01  2.9999999999999999e-01
-5.0000000000000003e-02  4.0000000000000002e-01  0.0000000000000000e+00
-5.0000000000000003e-02  4.0000000000000002e-01  2.9999999999999999e-01
-5.0000000000000003e-02  4.6666666670000001e-01  0.0000000000000000e+00
-5.0000000000000003e-02  4.6666666670000001e-01  2.9999999999999999e-01
-5.0000000000000003e-02  5.3333333329999999e-01  0.0000000000000000e+00
-5.0000000000000003e-02  5.3333333329999999e-01  2.9999999999999999e-01
-5.0000000000000003e-02  5.9999999999999998e-01  0.0000000000000000e+00
-5.0000000000000003e-02  5.9999999999999998e-01  2.9999999999999999e-01
-5.0000000000000003e-02  6.6666666669999997e-01  0.0000000000000000e+00
-5.0000000000000003e-02  6.6666666669999997e-01  2.9999999999999999e-01
-5.0000000000000003e-02  7.3333333329999995e-01  0.0000000000000000e+00
-5.0000000000000003e-02  7.3333333329999995e-01  2.9999999999999999e-01
-5.0000000000000003e-02  8.0000000000000004e-01  0.0000000000000000e+00
-5.0000000000000003e-02  8.0000000000000004e-01  2.9999999999999999e-01
-5.0000000000000003e-02  8.6666666670000003e-01  0.0000000000000000e+00
-5.0000000000000003e-02  8.6666666670000003e-01  2.9999999999999999e-01
-5.0000000000000003e-02  9.3333333330000001e-01  0.0000000000000000e+00
-5.0000000000000003e-02  9.3333333330000001e-01  2.9999999999999999e-01
-5.0000000000000003e-02  1.0000000000000000e+00  0.0000000000000000e+00
-5.0000000000000003e-02  1.0000000000000000e+00  2.9999999999999999e-01
-1.6666666670000000e-02  1.0000000000000000e+00  0.0000000000000000e+00
-1.6666666670000000e-02  1.0000000000000000e+00  2.9999999999999999e-01
1.6666666670000000e-02  1.0000000000000000e+00  0.0000000000000000e+00
1.6666666670000000e-02  1.0000000000000000e+00  2.9999999999999999e-01
5.0000000000000003e-02  1.0000000000000000e+00  0.0000000000000000e+00
5.0000000000000003e-02  1.0000000000000000e+00  2.9999999999999999e-01
5.0000000000000003e-02  0.0000000000000000e+00  0.0000000000000000e+00
5.0000000000000003e-02  0.0000000000000000e+00  2.9999999999999999e-01
5.0000000000000003e-02  6.6666666669999999e-02  2.9999999999999999e-01
5.0000000000000003e-02  6.6666666669999999e-02  0.0000000000000000e+00
5.0000000000000003e-02  1.3333333330000000e-01  2.9999999999999999e-01
5.0000000000000003e-02  1.3333333330000000e-01  0.0000000000000000e+00
5.0000000000000003e-02  2.0000000000000001e-01  2.9999999999999999e-01
5.0000000000000003e-02  2.0000000000000001e-01  0.0000000000000000e+00
5.0000000000000003e-02  2.6666666670000000e-01  2.9999999999999999e-01
5.0000000000000003e-02  2.6666666670000000e-01  0.0000000000000000e+00
5.0000000000000003e-02  3.3333333329999998e-01  2.9999999999999999e-01
5.0000000000000003e-02  3.3333333329999998e-01  0.0000000000000000e+00
5.0000000000000003e-02  4.0000000000000002e-01  2.9999999999999999e-01
5.0000000000000003e-02  4.0000000000000002e-01  0.0000000000000000e+00
5.0000000000000003e-02  4.6666666670000001e-01  2.9999999999999999e-01
5.0000000000000003e-02  4.6666666670000001e-01  0.0000000000000000e+00
5.0000000000000003e-02  5.3333333329999999e-01  2.9999999999999999e-01
5.0000000000000003e-02  5.3333333329999999e-01  0.0000000000000000e+00
5.0000000000000003e-02  5.9999999999999998e-01  2.9999999999999999e-01
5.0000000000000003e-02  5.9999999999999998e-01  0.0000000000000000e+00
5.0000000000000003e-02  6.6666666669999997e-01  2.9999999999999999e-01
5.0000000000000003e-02  6.6666666669999997e-01  0.0000000000000000e+00
5.0000000000000003e-02  7.3333333329999995e-01  2.9999999999999999e-01
5.0000000000000003e-02  7.3333333329999995e-01  0.0000000000000000e+00
5.0000000000000003e-02  8.0000000000000004e-01  2.9999999999999999e-01
5.0000000000000003e-02  8.0000000000000004e-01  0.0000000000000000e+00
5.0000000000000003e-02  8.6666666670000003e-01  2.9999999999999999e-01
5.0000000000000003e-02  8.6666666670000003e-01  0.0000000000000000e+00
5.0000000000000003e-02  9.3333333330000001e-01  2.9999999999999999e-01
5.0000000000000003e-02  9.3333333330000001e-01  0.0000000000000000e+00

CELLS 0 0


CELL_TYPES 0


POINT_DATA 68

VECTORS VertexNormals double

0.0000000000000000e+00 0.0000000000000000e+00 0.0000000000000000e+00 
0.0000000000000000e+00 0.0000000000000000e+00 0.0000000000000000e+00 
0.0000000000000000e+00 0.0000000000000000e+00 0.0000000000000000e+00 
0.0000000000000000e+00 0.0000000000000000e+00 0.0000000000000000e+00 
0.0000000000000000e+00 0.0000000000000000e+00 0.0000000000000000e+00 
0.0000000000000000e+00 0.0000000000000000e+00 0.0000000000000000e+00 
0.0000000000000000e+00 0.0000000000000000e+00 0.0000000000000000e+00 
0.0000000000000000e+00 0.0000000000000000e+00 0.0000000000000000e+00 
0.0000000000000000e+00 0.0000000000000000e+00 0.0000000000000000e+00 
0.0000000000000000e+00 0.0000000000000000e+00 0.0000000000000000e+00 
0.0000000000000000e+00 0.0000000000000000e+00 0.0000000000000000e+00 
0.0000000000000000e+00 0.0000000000000000e+00 0.0000000000000000e+00 
0.0000000000000000e+00 0.0000000000000000e+00 0.0000000000000000e+00 
0.0000000000000000e+00 0.0000000000000000e+00 0.0000000000000000e+00 
0.0000000000000000e+00 0.0000000000000000e+00 0.0000000000000000e+00 
0.0000000000000000e+00 0.0000000000000000e+00 0.0000000000000000e+00 
0.0000000000000000e+00 0.0000000000000000e+00 0.0000000000000000e+00 
0.0000000000000000e+00 0.0000000000000000e+00 0.0000000000000000e+00 
0.0000000000000000e+00 0.0000000000000000e+00 0.0000000000000000e+00 
0.0000000000000000e+00 0.0000000000000000e+00 0.0000000000000000e+00 
0.0000000000000000e+00 0.0000000000000000e+00 0.0000000000000000e+00 
0.0000000000000000e+00 0.0000000000000000e+00 0.0000000000000000e+00 
0.0000000000000000e+00 0.0000000000000000e+00 0.0000000000000000e+00 
0.0000000000000000e+00 0.0000000000000000e+00 0.0000000000000000e+00 
0.0000000000000000e+00 0.0000000000000000e+00 0.0000000000000000e+00 
0.0000000000000000e+00 0.0000000000000000e+00 0.0000000000000000e+00 
0.0000000000000000e+00 0.0000000000000000e+00 0.0000000000000000e+00 
0.0000000000000000e+00 0.0000000000000000e+00 0.0000000000000000e+00 
0.0000000000000000e+00 0.0000000000000000e+00 0.0000000000000000e+00 
0.0000000000000000e+00 0.0000000000000000e+00 0.0000000000000000e+00 
0.0000000000000000e+00 0.0000000000000000e+00 0.0000000000000000e+00 
0.0000000000000000e+00 0.0000000000000000e+00 0.0000000000000000e+00 
0.0000000000000000e+00 0.0000000000000000e+00 0.0000000000000000e+00 
0.0000000000000000e+00 0.0000000000000000e+00 0.0000000000000000e+00 
0.0000000000000000e+00 0.0000000000000000e+00 0.0000000000000000e+00 
0.0000000000000000e+00 0.0000000000000000e+00 0.0000000000000000e+00 
0.0000000000000000e+00 0.0000000000000000e+00 0.0000000000000000e+00 
0.0000000000000000e+00 0.0000000000000000e+00 0.0000000000000000e+00 
0.0000000000000000e+00 0.0000000000000000e+00 0.0000000000000000e+00 
0.0000000000000000e+00 0.0000000000000000e+00 0.0000000000000000e+00 
0.0000000000000000e+00 0.0000000000000000e+00 0.0000000000000000e+00 
0.0000000000000000e+00 0.0000000000000000e+00 0.0000000000000000e+00 
0.0000000000000000e+00 0.0000000000000000e+00 0.0000000000000000e+00 
0.0000000000000000e+00 0.0000000000000000e+00 0.0000000000000000e+00 
0.0000000000000000e+00 0.0000000000000000e+00 0.0000000000000000e+00 
0.0000000000000000e+00 0.0000000000000000e+00 0.0000000000000000e+00 
0.0000000000000000e+00 0.0000000000000000e+00 0.0000000000000000e+00 
0.0000000000000000e+00 0.0000000000000000e+00 0.0000000000000000e+00 
0.0000000000000000e+00 0.0000000000000000e+00 0.0000000000000000e+00 
0.0000000000000000e+00 0.0000000000000000e+00 0.0000000000000000e+00 
0.0000000000000000e+00 0.0000000000000000e+00 0.0000000000000000e+00 
0.0000000000000000e+00 0.0000000000000000e+00 0.0000000000000000e+00 
0.0000000000000000e+00 0.0000000000000000e+00 0.0000000000000000e+00 
0.0000000000000000e+00 0.0000000000000000e+00 0.0000000000000000e+00 
0.0000000000000000e+00 0.0000000000000000e+00 0.0000000000000000e+00 
0.0000000000000000e+00 0.0000000000000000e+00 0.0000000000000000e+00 
0.0000000000000000e+00 0.0000000000000000e+00 0.0000000000000000e+00 
0.0000000000000000e+00 0.0000000000000000e+00 0.0000000000000000e+00 
0.0000000000000000e+00 0.0000000000000000e+00 0.0000000000000000e+00 
0.0000000000000000e+00 0.0000000000000000e+00 0.0000000000000000e+00 
0.0000000000000000e+00 0.0000000000000000e+00 0.0000000000000000e+00 
0.0000000000000000e+00 0.0000000000000000e+00 0.0000000000000000e+00 
0.0000000000000000e+00 0.0000000000000000e+00 0.0000000000000000e+00 
0.0000000000000000e+00 0.0000000000000000e+00 0.0000000000000000e+00 
0.0000000000000000e+00 0.0000000000000000e+00 0.0000000000000000e+00 
0.0000000000000000e+00 0.0000000000000000e+00 0.0000000000000000e+00 
0.0000000000000000e+00 0.0000000000000000e+00 0.0000000000000000e+00 
0.0000000000000000e+00 0.0000000000000000e+00 0.0000000000000000e+00 

VECTORS Displacement double
-3.7296554733501353e-16 -9.4759269875233088e-17 -1.8363409598677214e-22 
1.4211582727849982e-03 1.3568380127154591e-03 -3.5096445407647217e-13 
1.4211605419338887e-03 1.3568364857413017e-03 -3.5096445447491599e-13 
-1.9868725698700709e-17 -1.8312236483671928e-17 -6.9225927529032135e-23 
3.8041022699047680e-03 2.1876372111132667e-03 -2.7055537456902372e-13 
3.8040956788012179e-03 2.1876331187197363e-03 -2.7055537464983019e-13 
6.7538233813383463e-03 2.5388229782454322e-03 -4.1736943231210167e-14 
6.7538238947179420e-03 2.5388246291813254e-03 -4.1736943285546843e-14 
9.5869060076205024e-03 2.5848889444055646e-03 3.9248332278919448e-13 
9.5869094493850615e-03 2.5848877501778228e-03 3.9248332269515312e-13 
1.2251399505561953e-02 2.2446680860393198e-03 1.5881867761018131e-22 
1.2251404890110257e-02 2.2446671371157811e-03 9.1247111306255234e-23 
1.4010296816189451e-02 1.8099653572451165e-03 2.5268500201722669e-13 
1.4010299905824768e-02 1.8099613242213012e-03 2.5268500198935978e-13 
1.5317324561575628e-02 1.3761025159339862e-03 5.1224541234250786e-14 
1.5317329084595458e-02 1.3761008312263036e-03 5.1224541272558339e-14 
1.5597672836317269e-02 6.6596437957091963e-04 4.7866981775975749e-14 
1.5597674316030650e-02 6.6596344600752192e-04 4.7866981761343742e-14 
1.4690216942514277e-02 2.6010417778660113e-04 1.7216676870574908e-13 
1.4690221345228637e-02 2.6010533029310526e-04 1.7216676871758684e-13 
1.3641612153323764e-02 3.7731602865090277e-04 -5.2939559203393771e-23 
1.3641612270984411e-02 3.7731572402010112e-04 -4.1101786702229194e-23 
1.3089510402811776e-02 6.5461458145750018e-04 3.6692821857126307e-13 
1.3089514780472836e-02 6.5461623022324033e-04 3.6692821850369149e-13 
1.2773185936665963e-02 7.6472561884020950e-04 1.2426246840512276e-13 
1.2773188512835890e-02 7.6472065167291472e-04 1.2426246841034308e-13 
1.2478912896973577e-02 8.3226270598461046e-04 -1.4940316787474654e-13 
1.2478908068251063e-02 8.3226202182289609e-04 -1.4940316786952623e-13 
1.2071603075795242e-02 7.9388310470993864e-04 4.6715197749687135e-14 
1.2071604207625201e-02 7.9388608913274681e-04 4.6715197728437683e-14 
1.1723336745078135e-02 8.6828058097292724e-04 -2.3491929396505986e-22 
1.1723341085988544e-02 8.6828386113794521e-04 -1.3043729285795618e-22 
1.1678202414968242e-02 9.8444962813697048e-04 -1.7536228986124187e-22 
1.1678209776359944e-02 9.8445172360706111e-04 -8.7423901005198744e-23 
1.1579350726742460e-02 1.1566449529098793e-03 -4.6322114302969550e-22 
1.1579362212593688e-02 1.1566422163209057e-03 -3.8851764397450084e-22 
1.1495407700727104e-02 1.4713140080978441e-03 -2.1506695926378720e-22 
1.1495420696659250e-02 1.4713061249949958e-03 -1.0727623570647141e-22 
-3.2092384305570931e-17 3.1225022567582528e-17 1.7867101231145398e-22 
-8.5930231048514626e-18 1.0527541304442490e-17 -3.0514785247899213e-24 
1.3047444414991264e-03 -1.0454748454119642e-03 -2.2671927609674183e-13 
1.3047442743215776e-03 -1.0454768348350325e-03 -2.2671927603909642e-13 
3.6621866679165272e-03 -1.5254142712962380e-03 1.1612163470795988e-13 
3.6621911983856642e-03 -1.5254143731174515e-03 1.1612163478214891e-13 
6.6718843587039887e-03 -1.6110637792784027e-03 9.7779892741469040e-14 
6.6718866401059432e-03 -1.6110599035260445e-03 9.7779892809040606e-14 
9.5312264737484869e-03 -1.4702389894898700e-03 -2.2102502602092296e-13 
9.5312218189958393e-03 -1.4702364091351821e-03 -2.2102502592688160e-13 
1.2192577584042213e-02 -1.0045336846971171e-03 -1.7345068471071362e-22 
1.2192573728110549e-02 -1.0045305980198958e-03 -1.4558378780933287e-22 
1.3940590913588288e-02 -4.3354021344157409e-04 -1.7483364663438557e-13 
1.3940588916148121e-02 -4.3354132658161675e-04 -1.7483364656681399e-13 
1.5241189367929203e-02 1.5655828019597672e-04 -8.3060096800395866e-14 
1.5241185705414561e-02 1.5655800109777400e-04 -8.3060096746059190e-14 
1.5529680517188234e-02 1.0112329896785298e-03 -1.3784655161621998e-13 
1.5529679348211475e-02 1.0112320868024341e-03 -1.3784655158835307e-13 
1.4643607381785903e-02 1.5190463564899186e-03 -2.4364360788289075e-13 
1.4643603425933377e-02 1.5190446923968328e-03 -2.4364360788149362e-13 
1.3598725663513557e-02 1.4779613797874251e-03 1.1837772501164577e-23 
1.3598725445149118e-02 1.4779585590197482e-03 3.9704669402545328e-23 
1.3023708367579843e-02 1.2782599324727719e-03 -1.9501044027005846e-14 
1.3023705977451491e-02 1.2782600128540206e-03 -1.9501043919729610e-14 
1.2716402629538593e-02 1.2285274475266324e-03 -6.8805509833684127e-14 
1.2716401976702724e-02 1.2285227511942202e-03 -6.8805509805817230e-14 
1.2411201513910756e-02 1.2879936764549733e-03 4.8345487349208845e-14 
1.2411207588964164e-02 1.2879936628346061e-03 4.8345487370458297e-14 
1.2039968612024799e-02 1.3843756511933635e-03 -1.1255509442015595e-13 
1.2039966744531972e-02 1.3843816212276826e-03 -1.1255509444191989e-13 

