# vtk DataFile Version 2.0

ASCII

DATASET UNSTRUCTURED_GRID

POINTS 68 float 

-5.0000000000000003e-02  0.0000000000000000e+00  0.0000000000000000e+00
-5.0000000000000003e-02  6.6666666669999999e-02  0.0000000000000000e+00
-5.0000000000000003e-02  6.6666666669999999e-02  2.9999999999999999e-01
-5.0000000000000003e-02  0.0000000000000000e+00  2.9999999999999999e-01
-5.0000000000000003e-02  1.3333333330000000e-01  0.0000000000000000e+00
-5.0000000000000003e-02  1.3333333330000000e-01  2.9999999999999999e-01
-5.0000000000000003e-02  2.0000000000000001e-01  0.0000000000000000e+00
-5.0000000000000003e-02  2.0000000000000001e-01  2.9999999999999999e-01
-5.0000000000000003e-02  2.6666666670000000e-01  0.0000000000000000e+00
-5.0000000000000003e-02  2.6666666670000000e-01  2.9999999999999999e-01
-5.0000000000000003e-02  3.3333333329999998e-01  0.0000000000000000e+00
-5.0000000000000003e-02  3.3333333329999998e-01  2.9999999999999999e-01
-5.0000000000000003e-02  4.0000000000000002e-01  0.0000000000000000e+00
-5.0000000000000003e-02  4.0000000000000002e-01  2.9999999999999999e-01
-5.0000000000000003e-02  4.6666666670000001e-01  0.0000000000000000e+00
-5.0000000000000003e-02  4.6666666670000001e-01  2.9999999999999999e-01
-5.0000000000000003e-02  5.3333333329999999e-01  0.0000000000000000e+00
-5.0000000000000003e-02  5.3333333329999999e-01  2.9999999999999999e-01
-5.0000000000000003e-02  5.9999999999999998e-01  0.0000000000000000e+00
-5.0000000000000003e-02  5.9999999999999998e-01  2.9999999999999999e-01
-5.0000000000000003e-02  6.6666666669999997e-01  0.0000000000000000e+00
-5.0000000000000003e-02  6.6666666669999997e-01  2.9999999999999999e-01
-5.0000000000000003e-02  7.3333333329999995e-01  0.0000000000000000e+00
-5.0000000000000003e-02  7.3333333329999995e-01  2.9999999999999999e-01
-5.0000000000000003e-02  8.0000000000000004e-01  0.0000000000000000e+00
-5.0000000000000003e-02  8.0000000000000004e-01  2.9999999999999999e-01
-5.0000000000000003e-02  8.6666666670000003e-01  0.0000000000000000e+00
-5.0000000000000003e-02  8.6666666670000003e-01  2.9999999999999999e-01
-5.0000000000000003e-02  9.3333333330000001e-01  0.0000000000000000e+00
-5.0000000000000003e-02  9.3333333330000001e-01  2.9999999999999999e-01
-5.0000000000000003e-02  1.0000000000000000e+00  0.0000000000000000e+00
-5.0000000000000003e-02  1.0000000000000000e+00  2.9999999999999999e-01
-1.6666666670000000e-02  1.0000000000000000e+00  0.0000000000000000e+00
-1.6666666670000000e-02  1.0000000000000000e+00  2.9999999999999999e-01
1.6666666670000000e-02  1.0000000000000000e+00  0.0000000000000000e+00
1.6666666670000000e-02  1.0000000000000000e+00  2.9999999999999999e-01
5.0000000000000003e-02  1.0000000000000000e+00  0.0000000000000000e+00
5.0000000000000003e-02  1.0000000000000000e+00  2.9999999999999999e-01
5.0000000000000003e-02  0.0000000000000000e+00  0.0000000000000000e+00
5.0000000000000003e-02  0.0000000000000000e+00  2.9999999999999999e-01
5.0000000000000003e-02  6.6666666669999999e-02  2.9999999999999999e-01
5.0000000000000003e-02  6.6666666669999999e-02  0.0000000000000000e+00
5.0000000000000003e-02  1.3333333330000000e-01  2.9999999999999999e-01
5.0000000000000003e-02  1.3333333330000000e-01  0.0000000000000000e+00
5.0000000000000003e-02  2.0000000000000001e-01  2.9999999999999999e-01
5.0000000000000003e-02  2.0000000000000001e-01  0.0000000000000000e+00
5.0000000000000003e-02  2.6666666670000000e-01  2.9999999999999999e-01
5.0000000000000003e-02  2.6666666670000000e-01  0.0000000000000000e+00
5.0000000000000003e-02  3.3333333329999998e-01  2.9999999999999999e-01
5.0000000000000003e-02  3.3333333329999998e-01  0.0000000000000000e+00
5.0000000000000003e-02  4.0000000000000002e-01  2.9999999999999999e-01
5.0000000000000003e-02  4.0000000000000002e-01  0.0000000000000000e+00
5.0000000000000003e-02  4.6666666670000001e-01  2.9999999999999999e-01
5.0000000000000003e-02  4.6666666670000001e-01  0.0000000000000000e+00
5.0000000000000003e-02  5.3333333329999999e-01  2.9999999999999999e-01
5.0000000000000003e-02  5.3333333329999999e-01  0.0000000000000000e+00
5.0000000000000003e-02  5.9999999999999998e-01  2.9999999999999999e-01
5.0000000000000003e-02  5.9999999999999998e-01  0.0000000000000000e+00
5.0000000000000003e-02  6.6666666669999997e-01  2.9999999999999999e-01
5.0000000000000003e-02  6.6666666669999997e-01  0.0000000000000000e+00
5.0000000000000003e-02  7.3333333329999995e-01  2.9999999999999999e-01
5.0000000000000003e-02  7.3333333329999995e-01  0.0000000000000000e+00
5.0000000000000003e-02  8.0000000000000004e-01  2.9999999999999999e-01
5.0000000000000003e-02  8.0000000000000004e-01  0.0000000000000000e+00
5.0000000000000003e-02  8.6666666670000003e-01  2.9999999999999999e-01
5.0000000000000003e-02  8.6666666670000003e-01  0.0000000000000000e+00
5.0000000000000003e-02  9.3333333330000001e-01  2.9999999999999999e-01
5.0000000000000003e-02  9.3333333330000001e-01  0.0000000000000000e+00

CELLS 0 0


CELL_TYPES 0


POINT_DATA 68

VECTORS VertexNormals float

0.0000000000000000e+00 0.0000000000000000e+00 0.0000000000000000e+00 
0.0000000000000000e+00 0.0000000000000000e+00 0.0000000000000000e+00 
0.0000000000000000e+00 0.0000000000000000e+00 0.0000000000000000e+00 
0.0000000000000000e+00 0.0000000000000000e+00 0.0000000000000000e+00 
0.0000000000000000e+00 0.0000000000000000e+00 0.0000000000000000e+00 
0.0000000000000000e+00 0.0000000000000000e+00 0.0000000000000000e+00 
0.0000000000000000e+00 0.0000000000000000e+00 0.0000000000000000e+00 
0.0000000000000000e+00 0.0000000000000000e+00 0.0000000000000000e+00 
0.0000000000000000e+00 0.0000000000000000e+00 0.0000000000000000e+00 
0.0000000000000000e+00 0.0000000000000000e+00 0.0000000000000000e+00 
0.0000000000000000e+00 0.0000000000000000e+00 0.0000000000000000e+00 
0.0000000000000000e+00 0.0000000000000000e+00 0.0000000000000000e+00 
0.0000000000000000e+00 0.0000000000000000e+00 0.0000000000000000e+00 
0.0000000000000000e+00 0.0000000000000000e+00 0.0000000000000000e+00 
0.0000000000000000e+00 0.0000000000000000e+00 0.0000000000000000e+00 
0.0000000000000000e+00 0.0000000000000000e+00 0.0000000000000000e+00 
0.0000000000000000e+00 0.0000000000000000e+00 0.0000000000000000e+00 
0.0000000000000000e+00 0.0000000000000000e+00 0.0000000000000000e+00 
0.0000000000000000e+00 0.0000000000000000e+00 0.0000000000000000e+00 
0.0000000000000000e+00 0.0000000000000000e+00 0.0000000000000000e+00 
0.0000000000000000e+00 0.0000000000000000e+00 0.0000000000000000e+00 
0.0000000000000000e+00 0.0000000000000000e+00 0.0000000000000000e+00 
0.0000000000000000e+00 0.0000000000000000e+00 0.0000000000000000e+00 
0.0000000000000000e+00 0.0000000000000000e+00 0.0000000000000000e+00 
0.0000000000000000e+00 0.0000000000000000e+00 0.0000000000000000e+00 
0.0000000000000000e+00 0.0000000000000000e+00 0.0000000000000000e+00 
0.0000000000000000e+00 0.0000000000000000e+00 0.0000000000000000e+00 
0.0000000000000000e+00 0.0000000000000000e+00 0.0000000000000000e+00 
0.0000000000000000e+00 0.0000000000000000e+00 0.0000000000000000e+00 
0.0000000000000000e+00 0.0000000000000000e+00 0.0000000000000000e+00 
0.0000000000000000e+00 0.0000000000000000e+00 0.0000000000000000e+00 
0.0000000000000000e+00 0.0000000000000000e+00 0.0000000000000000e+00 
0.0000000000000000e+00 0.0000000000000000e+00 0.0000000000000000e+00 
0.0000000000000000e+00 0.0000000000000000e+00 0.0000000000000000e+00 
0.0000000000000000e+00 0.0000000000000000e+00 0.0000000000000000e+00 
0.0000000000000000e+00 0.0000000000000000e+00 0.0000000000000000e+00 
0.0000000000000000e+00 0.0000000000000000e+00 0.0000000000000000e+00 
0.0000000000000000e+00 0.0000000000000000e+00 0.0000000000000000e+00 
0.0000000000000000e+00 0.0000000000000000e+00 0.0000000000000000e+00 
0.0000000000000000e+00 0.0000000000000000e+00 0.0000000000000000e+00 
0.0000000000000000e+00 0.0000000000000000e+00 0.0000000000000000e+00 
0.0000000000000000e+00 0.0000000000000000e+00 0.0000000000000000e+00 
0.0000000000000000e+00 0.0000000000000000e+00 0.0000000000000000e+00 
0.0000000000000000e+00 0.0000000000000000e+00 0.0000000000000000e+00 
0.0000000000000000e+00 0.0000000000000000e+00 0.0000000000000000e+00 
0.0000000000000000e+00 0.0000000000000000e+00 0.0000000000000000e+00 
0.0000000000000000e+00 0.0000000000000000e+00 0.0000000000000000e+00 
0.0000000000000000e+00 0.0000000000000000e+00 0.0000000000000000e+00 
0.0000000000000000e+00 0.0000000000000000e+00 0.0000000000000000e+00 
0.0000000000000000e+00 0.0000000000000000e+00 0.0000000000000000e+00 
0.0000000000000000e+00 0.0000000000000000e+00 0.0000000000000000e+00 
0.0000000000000000e+00 0.0000000000000000e+00 0.0000000000000000e+00 
0.0000000000000000e+00 0.0000000000000000e+00 0.0000000000000000e+00 
0.0000000000000000e+00 0.0000000000000000e+00 0.0000000000000000e+00 
0.0000000000000000e+00 0.0000000000000000e+00 0.0000000000000000e+00 
0.0000000000000000e+00 0.0000000000000000e+00 0.0000000000000000e+00 
0.0000000000000000e+00 0.0000000000000000e+00 0.0000000000000000e+00 
0.0000000000000000e+00 0.0000000000000000e+00 0.0000000000000000e+00 
0.0000000000000000e+00 0.0000000000000000e+00 0.0000000000000000e+00 
0.0000000000000000e+00 0.0000000000000000e+00 0.0000000000000000e+00 
0.0000000000000000e+00 0.0000000000000000e+00 0.0000000000000000e+00 
0.0000000000000000e+00 0.0000000000000000e+00 0.0000000000000000e+00 
0.0000000000000000e+00 0.0000000000000000e+00 0.0000000000000000e+00 
0.0000000000000000e+00 0.0000000000000000e+00 0.0000000000000000e+00 
0.0000000000000000e+00 0.0000000000000000e+00 0.0000000000000000e+00 
0.0000000000000000e+00 0.0000000000000000e+00 0.0000000000000000e+00 
0.0000000000000000e+00 0.0000000000000000e+00 0.0000000000000000e+00 
0.0000000000000000e+00 0.0000000000000000e+00 0.0000000000000000e+00 

VECTORS Displacement float
-3.3514857555871913e-15 -1.7000290064572710e-16 -2.6734477397713854e-21 
2.6721948672123047e-03 3.5467216091027093e-03 9.5116883808019976e-13 
2.6722089347639465e-03 3.5467214136443988e-03 9.5116883976958025e-13 
-8.5805294515975229e-17 -1.4965793356756480e-16 -1.3703421758651187e-22 
1.0027288768097532e-02 7.0693833323968586e-03 6.5432309229044097e-13 
1.0027287511312856e-02 7.0693943667391205e-03 6.5432309117402492e-13 
2.1857192770292314e-02 1.0425956930069119e-02 6.6000519491787076e-13 
2.1857202826196829e-02 1.0425965506190703e-02 6.6000519401321295e-13 
3.8059955989771653e-02 1.3629212177742527e-02 -7.7430332583548750e-13 
3.8059953177952327e-02 1.3629218903197623e-02 -7.7430332621074972e-13 
5.8473125916808713e-02 1.6533967489652125e-02 2.7528570785764761e-21 
5.8473122695501416e-02 1.6533976991593299e-02 2.3775948445746924e-21 
8.2765211779868383e-02 1.9189946052421639e-02 -5.4109528035766689e-12 
8.2765222060598928e-02 1.9189940636558343e-02 -5.4109528043754475e-12 
1.1035908024489768e-01 2.1300107169198768e-02 -1.7892658320040934e-12 
1.1035908555661500e-01 2.1300112409361104e-02 -1.7892658323793557e-12 
1.4043940379037767e-01 2.2908840457622023e-02 1.2639055301301054e-12 
1.4043941273086405e-01 2.2908836548342023e-02 1.2639055295430848e-12 
1.7256266819858757e-01 2.4117803436731061e-02 2.2097564863620629e-12 
1.7256265461765805e-01 2.4117824306315570e-02 2.2097564865161964e-12 
2.0607676765602878e-01 2.5011641388399099e-02 -2.1175823681357508e-22 
2.0607680011935864e-01 2.5011648983256706e-02 1.5413335803215387e-22 
2.4065230457738787e-01 2.5496975400662973e-02 9.3633706438070533e-13 
2.4065231477825400e-01 2.5496961567719131e-02 9.3633706474659684e-13 
2.7561429936417009e-01 2.5938614197165134e-02 -7.9525980451180200e-13 
2.7561428083958295e-01 2.5938623408617863e-02 -7.9525980393415215e-13 
3.1125608008655387e-01 2.6636040535400668e-02 2.2082374764491260e-13 
3.1125609462354287e-01 2.6636060640888689e-02 2.2082374848726022e-13 
3.4806906680688748e-01 2.7183459124491299e-02 5.3269414696534878e-13 
3.4806906210949867e-01 2.7183462376338268e-02 5.3269414775475686e-13 
3.8497428146601964e-01 2.7134850391753115e-02 -1.2705494208814505e-21 
3.8497428263390571e-01 2.7134881216191897e-02 -2.6938311559499630e-22 
3.8501086807538509e-01 8.8290096994749438e-03 -2.1175823681357508e-21 
3.8501086777292387e-01 8.8290137630432815e-03 -1.2222951812560842e-21 
3.8508221327029440e-01 -9.5980882750009711e-03 0.0000000000000000e+00 
3.8508222359545541e-01 -9.5980967840753276e-03 1.4246827789136044e-21 
3.8513941378619582e-01 -2.8080112694122587e-02 -1.3234889800848443e-21 
3.8513943747371326e-01 -2.8080172032954331e-02 -1.6350399718820876e-22 
-6.9388939039072284e-17 3.6429192995512949e-17 8.9997250645769411e-22 
-5.8049718900346316e-17 -5.6758850614898113e-18 -4.4389988980572775e-23 
2.6800401932921139e-03 -3.5414385294427167e-03 1.6663274830051108e-12 
2.6800534813085884e-03 -3.5414412603283242e-03 1.6663274833274336e-12 
1.0035902039614152e-02 -7.1274141702198758e-03 -1.1621638203281209e-13 
1.0035906924058209e-02 -7.1274045453872045e-03 -1.1621638155167072e-13 
2.1872670636529739e-02 -1.0443071232168713e-02 -8.0892650403760990e-13 
2.1872677288040793e-02 -1.0443053531845811e-02 -8.0892650323883121e-13 
3.8116987859850675e-02 -1.3740124867776957e-02 2.2075324539176891e-12 
3.8117002682678085e-02 -1.3740129927315315e-02 2.2075324543988304e-12 
5.8485778704379918e-02 -1.6761364643423222e-02 -1.4340534180696593e-21 
5.8485779799789722e-02 -1.6761361036474499e-02 -8.4703294725430034e-22 
8.2898515197406181e-02 -1.9490798945451100e-02 5.7047049067351070e-12 
8.2898534278762259e-02 -1.9490818416826074e-02 5.7047049073221274e-12 
1.1039662002889006e-01 -2.1684776723904904e-02 1.9659669349902397e-12 
1.1039662307807832e-01 -2.1684767977631064e-02 1.9659669351537436e-12 
1.4056886480910596e-01 -2.3498028884233673e-02 -1.4612790347391196e-12 
1.4056887294101322e-01 -2.3498037780079573e-02 -1.4612790345756155e-12 
1.7263281806732672e-01 -2.4849416015747437e-02 -3.1105027390517320e-12 
1.7263283930213755e-01 -2.4849421574064907e-02 -3.1105027395235028e-12 
2.0621894811244929e-01 -2.5778958482787391e-02 -4.8114135240857139e-22 
2.0621894537772037e-01 -2.5778937781516718e-02 -4.2351647362715017e-22 
2.4067860987410117e-01 -2.6413157801503304e-02 -1.0742510870605998e-13 
2.4067862027731629e-01 -2.6413174874009723e-02 -1.0742510928370982e-13 
2.7563573526923624e-01 -2.6863780106103390e-02 1.1857825561698250e-12 
2.7563576103339754e-01 -2.6863750683284841e-02 1.1857825554862961e-12 
3.1131702202578104e-01 -2.7523534030550103e-02 -3.3560796049421602e-13 
3.1131700765795089e-01 -2.7523510789823635e-02 -3.3560796117774498e-13 
3.4805234363988469e-01 -2.7946866214972863e-02 -9.8701246275146155e-13 
3.4805235114656985e-01 -2.7946856382933840e-02 -9.8701246401732557e-13 

