# vtk DataFile Version 2.0

ASCII

DATASET UNSTRUCTURED_GRID

POINTS 33 float 

-5.0000000000000003e-02  3.3333333335000000e-02  1.4999999999999997e-01
-5.0000000000000003e-02  9.9999999985000018e-02  1.4999999999999999e-01
-5.0000000000000003e-02  1.6666666665000002e-01  1.4999999999999999e-01
-5.0000000000000003e-02  2.3333333334999998e-01  1.4999999999999999e-01
-5.0000000000000003e-02  2.9999999999999993e-01  1.4999999999999997e-01
-5.0000000000000003e-02  3.6666666665000003e-01  1.4999999999999999e-01
-5.0000000000000003e-02  4.3333333335000002e-01  1.4999999999999999e-01
-5.0000000000000003e-02  5.0000000000000000e-01  1.4999999999999997e-01
-5.0000000000000003e-02  5.6666666664999987e-01  1.4999999999999999e-01
-5.0000000000000003e-02  6.3333333334999986e-01  1.4999999999999999e-01
-5.0000000000000003e-02  6.9999999999999984e-01  1.4999999999999997e-01
-5.0000000000000003e-02  7.6666666664999994e-01  1.4999999999999999e-01
-4.9999999999999996e-02  8.3333333334999982e-01  1.4999999999999999e-01
-5.0000000000000003e-02  8.9999999999999991e-01  1.4999999999999997e-01
-5.0000000000000003e-02  9.6666666664999990e-01  1.4999999999999999e-01
-3.3333333335000000e-02  9.9999999999999978e-01  1.4999999999999997e-01
0.0000000000000000e+00  1.0000000000000000e+00  1.4999999999999997e-01
3.3333333335000007e-02  1.0000000000000000e+00  1.4999999999999999e-01
5.0000000000000003e-02  3.3333333335000000e-02  1.4999999999999999e-01
5.0000000000000003e-02  9.9999999985000004e-02  1.4999999999999999e-01
5.0000000000000003e-02  1.6666666664999999e-01  1.4999999999999999e-01
5.0000000000000003e-02  2.3333333334999998e-01  1.4999999999999999e-01
5.0000000000000003e-02  2.9999999999999993e-01  1.4999999999999997e-01
5.0000000000000003e-02  3.6666666665000003e-01  1.4999999999999999e-01
5.0000000000000003e-02  4.3333333334999991e-01  1.4999999999999999e-01
5.0000000000000003e-02  5.0000000000000000e-01  1.4999999999999997e-01
5.0000000000000003e-02  5.6666666664999987e-01  1.4999999999999999e-01
5.0000000000000003e-02  6.3333333334999997e-01  1.4999999999999999e-01
5.0000000000000003e-02  6.9999999999999984e-01  1.4999999999999997e-01
5.0000000000000003e-02  7.6666666664999994e-01  1.4999999999999999e-01
5.0000000000000003e-02  8.3333333334999993e-01  1.4999999999999999e-01
5.0000000000000010e-02  8.9999999999999991e-01  1.4999999999999999e-01
5.0000000000000003e-02  9.6666666664999990e-01  1.4999999999999999e-01

CELLS 0 0


CELL_TYPES 0


POINT_DATA 33

VECTORS VertexNormals float

0.0000000000000000e+00 0.0000000000000000e+00 0.0000000000000000e+00 
0.0000000000000000e+00 0.0000000000000000e+00 0.0000000000000000e+00 
0.0000000000000000e+00 0.0000000000000000e+00 0.0000000000000000e+00 
0.0000000000000000e+00 0.0000000000000000e+00 0.0000000000000000e+00 
0.0000000000000000e+00 0.0000000000000000e+00 0.0000000000000000e+00 
0.0000000000000000e+00 0.0000000000000000e+00 0.0000000000000000e+00 
0.0000000000000000e+00 0.0000000000000000e+00 0.0000000000000000e+00 
0.0000000000000000e+00 0.0000000000000000e+00 0.0000000000000000e+00 
0.0000000000000000e+00 0.0000000000000000e+00 0.0000000000000000e+00 
0.0000000000000000e+00 0.0000000000000000e+00 0.0000000000000000e+00 
0.0000000000000000e+00 0.0000000000000000e+00 0.0000000000000000e+00 
0.0000000000000000e+00 0.0000000000000000e+00 0.0000000000000000e+00 
0.0000000000000000e+00 0.0000000000000000e+00 0.0000000000000000e+00 
0.0000000000000000e+00 0.0000000000000000e+00 0.0000000000000000e+00 
0.0000000000000000e+00 0.0000000000000000e+00 0.0000000000000000e+00 
0.0000000000000000e+00 0.0000000000000000e+00 0.0000000000000000e+00 
0.0000000000000000e+00 0.0000000000000000e+00 0.0000000000000000e+00 
0.0000000000000000e+00 0.0000000000000000e+00 0.0000000000000000e+00 
0.0000000000000000e+00 0.0000000000000000e+00 0.0000000000000000e+00 
0.0000000000000000e+00 0.0000000000000000e+00 0.0000000000000000e+00 
0.0000000000000000e+00 0.0000000000000000e+00 0.0000000000000000e+00 
0.0000000000000000e+00 0.0000000000000000e+00 0.0000000000000000e+00 
0.0000000000000000e+00 0.0000000000000000e+00 0.0000000000000000e+00 
0.0000000000000000e+00 0.0000000000000000e+00 0.0000000000000000e+00 
0.0000000000000000e+00 0.0000000000000000e+00 0.0000000000000000e+00 
0.0000000000000000e+00 0.0000000000000000e+00 0.0000000000000000e+00 
0.0000000000000000e+00 0.0000000000000000e+00 0.0000000000000000e+00 
0.0000000000000000e+00 0.0000000000000000e+00 0.0000000000000000e+00 
0.0000000000000000e+00 0.0000000000000000e+00 0.0000000000000000e+00 
0.0000000000000000e+00 0.0000000000000000e+00 0.0000000000000000e+00 
0.0000000000000000e+00 0.0000000000000000e+00 0.0000000000000000e+00 
0.0000000000000000e+00 0.0000000000000000e+00 0.0000000000000000e+00 
0.0000000000000000e+00 0.0000000000000000e+00 0.0000000000000000e+00 

VECTORS Stress float
2.2081868834316305e+02 -1.3230888588070270e+01 2.4888698810615989e-12 
2.1920231527369609e+02 -3.1021521063388160e+01 3.0221395753627216e-12 
2.1583581864564266e+02 -4.7317365643608042e+01 -4.3222186064457241e-13 
2.1059405557619942e+02 -6.0361510689789320e+01 -4.3111515690939948e-13 
2.0401806819556111e+02 -7.0089780104444301e+01 5.4349276215047501e-13 
1.9646127536232405e+02 -7.7444020083024000e+01 4.7292068349658320e-12 
1.8841059092667734e+02 -8.2778153158732479e+01 6.1246722522416349e-12 
1.8014208534007940e+02 -8.6835172763053009e+01 3.2990760133776757e-13 
1.7250402563583469e+02 -8.8942371347447988e+01 -3.1583868412851248e-12 
1.6590401945255019e+02 -8.8867641807937062e+01 -2.0710119176705856e-12 
1.6002985669034879e+02 -8.6692608672424626e+01 2.2386702899388362e-12 
1.5329936224802134e+02 -8.3594714493512200e+01 3.7907509495939128e-12 
1.4502187032671148e+02 -7.9473743061061157e+01 1.3490344936349402e-12 
1.3496622067895069e+02 -7.3435168567737662e+01 -4.0033066668119135e-13 
1.2058501643728984e+02 -6.5097885354098580e+01 -1.8026754377814875e-13 
-1.5399709180878920e+01 -2.8534268910950530e+01 1.7732533708954134e-16 
-2.7412499821286321e+01 -5.0216748083959075e+01 4.0289286588239856e-17 
-3.5492220528932563e+01 -6.4992354212359857e+01 -1.8661554854160341e-19 
-9.3132599515361619e+01 6.5567130209255557e+00 4.9809922607014283e-13 
-9.2186726710260757e+01 1.4878371601182213e+01 2.2809401640647246e-13 
-9.0840935814947230e+01 2.2320742488164118e+01 5.4241571813259952e-13 
-8.9526860427147099e+01 2.8270695228541129e+01 9.9144643368162594e-14 
-8.8445329957352271e+01 3.3053497290239953e+01 -7.3627361480398671e-13 
-8.7453318156576898e+01 3.7100786735839385e+01 -4.1557981070194388e-12 
-8.6501745181510643e+01 4.0672632642429832e+01 -4.8938609039744215e-12 
-8.5532491612195642e+01 4.3580252765971998e+01 3.5144648345073509e-13 
-8.4689043950080233e+01 4.5392959535155583e+01 3.3653557364898037e-12 
-8.4062509333736003e+01 4.5977708717472886e+01 2.3082469363178671e-12 
-8.3454640561492411e+01 4.5768920161326996e+01 -1.7400929783534011e-12 
-8.2561742862891379e+01 4.5498874515588973e+01 -2.7767365963808726e-12 
-8.1503913675216594e+01 4.4939133052398944e+01 -1.1568634343200798e-12 
-8.0275525873659561e+01 4.3899260817054383e+01 3.8056325268663795e-13 
-7.8576153358318066e+01 4.2852823239457805e+01 5.8586204314723197e-13 

