# vtk DataFile Version 2.0

ASCII

DATASET UNSTRUCTURED_GRID

POINTS 68 double 

-5.0000000000000003e-02  0.0000000000000000e+00  0.0000000000000000e+00
-5.0000000000000003e-02  6.6666666669999999e-02  0.0000000000000000e+00
-5.0000000000000003e-02  6.6666666669999999e-02  2.9999999999999999e-01
-5.0000000000000003e-02  0.0000000000000000e+00  2.9999999999999999e-01
-5.0000000000000003e-02  1.3333333330000000e-01  0.0000000000000000e+00
-5.0000000000000003e-02  1.3333333330000000e-01  2.9999999999999999e-01
-5.0000000000000003e-02  2.0000000000000001e-01  0.0000000000000000e+00
-5.0000000000000003e-02  2.0000000000000001e-01  2.9999999999999999e-01
-5.0000000000000003e-02  2.6666666670000000e-01  0.0000000000000000e+00
-5.0000000000000003e-02  2.6666666670000000e-01  2.9999999999999999e-01
-5.0000000000000003e-02  3.3333333329999998e-01  0.0000000000000000e+00
-5.0000000000000003e-02  3.3333333329999998e-01  2.9999999999999999e-01
-5.0000000000000003e-02  4.0000000000000002e-01  0.0000000000000000e+00
-5.0000000000000003e-02  4.0000000000000002e-01  2.9999999999999999e-01
-5.0000000000000003e-02  4.6666666670000001e-01  0.0000000000000000e+00
-5.0000000000000003e-02  4.6666666670000001e-01  2.9999999999999999e-01
-5.0000000000000003e-02  5.3333333329999999e-01  0.0000000000000000e+00
-5.0000000000000003e-02  5.3333333329999999e-01  2.9999999999999999e-01
-5.0000000000000003e-02  5.9999999999999998e-01  0.0000000000000000e+00
-5.0000000000000003e-02  5.9999999999999998e-01  2.9999999999999999e-01
-5.0000000000000003e-02  6.6666666669999997e-01  0.0000000000000000e+00
-5.0000000000000003e-02  6.6666666669999997e-01  2.9999999999999999e-01
-5.0000000000000003e-02  7.3333333329999995e-01  0.0000000000000000e+00
-5.0000000000000003e-02  7.3333333329999995e-01  2.9999999999999999e-01
-5.0000000000000003e-02  8.0000000000000004e-01  0.0000000000000000e+00
-5.0000000000000003e-02  8.0000000000000004e-01  2.9999999999999999e-01
-5.0000000000000003e-02  8.6666666670000003e-01  0.0000000000000000e+00
-5.0000000000000003e-02  8.6666666670000003e-01  2.9999999999999999e-01
-5.0000000000000003e-02  9.3333333330000001e-01  0.0000000000000000e+00
-5.0000000000000003e-02  9.3333333330000001e-01  2.9999999999999999e-01
-5.0000000000000003e-02  1.0000000000000000e+00  0.0000000000000000e+00
-5.0000000000000003e-02  1.0000000000000000e+00  2.9999999999999999e-01
-1.6666666670000000e-02  1.0000000000000000e+00  0.0000000000000000e+00
-1.6666666670000000e-02  1.0000000000000000e+00  2.9999999999999999e-01
1.6666666670000000e-02  1.0000000000000000e+00  0.0000000000000000e+00
1.6666666670000000e-02  1.0000000000000000e+00  2.9999999999999999e-01
5.0000000000000003e-02  1.0000000000000000e+00  0.0000000000000000e+00
5.0000000000000003e-02  1.0000000000000000e+00  2.9999999999999999e-01
5.0000000000000003e-02  0.0000000000000000e+00  0.0000000000000000e+00
5.0000000000000003e-02  0.0000000000000000e+00  2.9999999999999999e-01
5.0000000000000003e-02  6.6666666669999999e-02  2.9999999999999999e-01
5.0000000000000003e-02  6.6666666669999999e-02  0.0000000000000000e+00
5.0000000000000003e-02  1.3333333330000000e-01  2.9999999999999999e-01
5.0000000000000003e-02  1.3333333330000000e-01  0.0000000000000000e+00
5.0000000000000003e-02  2.0000000000000001e-01  2.9999999999999999e-01
5.0000000000000003e-02  2.0000000000000001e-01  0.0000000000000000e+00
5.0000000000000003e-02  2.6666666670000000e-01  2.9999999999999999e-01
5.0000000000000003e-02  2.6666666670000000e-01  0.0000000000000000e+00
5.0000000000000003e-02  3.3333333329999998e-01  2.9999999999999999e-01
5.0000000000000003e-02  3.3333333329999998e-01  0.0000000000000000e+00
5.0000000000000003e-02  4.0000000000000002e-01  2.9999999999999999e-01
5.0000000000000003e-02  4.0000000000000002e-01  0.0000000000000000e+00
5.0000000000000003e-02  4.6666666670000001e-01  2.9999999999999999e-01
5.0000000000000003e-02  4.6666666670000001e-01  0.0000000000000000e+00
5.0000000000000003e-02  5.3333333329999999e-01  2.9999999999999999e-01
5.0000000000000003e-02  5.3333333329999999e-01  0.0000000000000000e+00
5.0000000000000003e-02  5.9999999999999998e-01  2.9999999999999999e-01
5.0000000000000003e-02  5.9999999999999998e-01  0.0000000000000000e+00
5.0000000000000003e-02  6.6666666669999997e-01  2.9999999999999999e-01
5.0000000000000003e-02  6.6666666669999997e-01  0.0000000000000000e+00
5.0000000000000003e-02  7.3333333329999995e-01  2.9999999999999999e-01
5.0000000000000003e-02  7.3333333329999995e-01  0.0000000000000000e+00
5.0000000000000003e-02  8.0000000000000004e-01  2.9999999999999999e-01
5.0000000000000003e-02  8.0000000000000004e-01  0.0000000000000000e+00
5.0000000000000003e-02  8.6666666670000003e-01  2.9999999999999999e-01
5.0000000000000003e-02  8.6666666670000003e-01  0.0000000000000000e+00
5.0000000000000003e-02  9.3333333330000001e-01  2.9999999999999999e-01
5.0000000000000003e-02  9.3333333330000001e-01  0.0000000000000000e+00

CELLS 0 0


CELL_TYPES 0


POINT_DATA 68

VECTORS VertexNormals double

0.0000000000000000e+00 0.0000000000000000e+00 0.0000000000000000e+00 
0.0000000000000000e+00 0.0000000000000000e+00 0.0000000000000000e+00 
0.0000000000000000e+00 0.0000000000000000e+00 0.0000000000000000e+00 
0.0000000000000000e+00 0.0000000000000000e+00 0.0000000000000000e+00 
0.0000000000000000e+00 0.0000000000000000e+00 0.0000000000000000e+00 
0.0000000000000000e+00 0.0000000000000000e+00 0.0000000000000000e+00 
0.0000000000000000e+00 0.0000000000000000e+00 0.0000000000000000e+00 
0.0000000000000000e+00 0.0000000000000000e+00 0.0000000000000000e+00 
0.0000000000000000e+00 0.0000000000000000e+00 0.0000000000000000e+00 
0.0000000000000000e+00 0.0000000000000000e+00 0.0000000000000000e+00 
0.0000000000000000e+00 0.0000000000000000e+00 0.0000000000000000e+00 
0.0000000000000000e+00 0.0000000000000000e+00 0.0000000000000000e+00 
0.0000000000000000e+00 0.0000000000000000e+00 0.0000000000000000e+00 
0.0000000000000000e+00 0.0000000000000000e+00 0.0000000000000000e+00 
0.0000000000000000e+00 0.0000000000000000e+00 0.0000000000000000e+00 
0.0000000000000000e+00 0.0000000000000000e+00 0.0000000000000000e+00 
0.0000000000000000e+00 0.0000000000000000e+00 0.0000000000000000e+00 
0.0000000000000000e+00 0.0000000000000000e+00 0.0000000000000000e+00 
0.0000000000000000e+00 0.0000000000000000e+00 0.0000000000000000e+00 
0.0000000000000000e+00 0.0000000000000000e+00 0.0000000000000000e+00 
0.0000000000000000e+00 0.0000000000000000e+00 0.0000000000000000e+00 
0.0000000000000000e+00 0.0000000000000000e+00 0.0000000000000000e+00 
0.0000000000000000e+00 0.0000000000000000e+00 0.0000000000000000e+00 
0.0000000000000000e+00 0.0000000000000000e+00 0.0000000000000000e+00 
0.0000000000000000e+00 0.0000000000000000e+00 0.0000000000000000e+00 
0.0000000000000000e+00 0.0000000000000000e+00 0.0000000000000000e+00 
0.0000000000000000e+00 0.0000000000000000e+00 0.0000000000000000e+00 
0.0000000000000000e+00 0.0000000000000000e+00 0.0000000000000000e+00 
0.0000000000000000e+00 0.0000000000000000e+00 0.0000000000000000e+00 
0.0000000000000000e+00 0.0000000000000000e+00 0.0000000000000000e+00 
0.0000000000000000e+00 0.0000000000000000e+00 0.0000000000000000e+00 
0.0000000000000000e+00 0.0000000000000000e+00 0.0000000000000000e+00 
0.0000000000000000e+00 0.0000000000000000e+00 0.0000000000000000e+00 
0.0000000000000000e+00 0.0000000000000000e+00 0.0000000000000000e+00 
0.0000000000000000e+00 0.0000000000000000e+00 0.0000000000000000e+00 
0.0000000000000000e+00 0.0000000000000000e+00 0.0000000000000000e+00 
0.0000000000000000e+00 0.0000000000000000e+00 0.0000000000000000e+00 
0.0000000000000000e+00 0.0000000000000000e+00 0.0000000000000000e+00 
0.0000000000000000e+00 0.0000000000000000e+00 0.0000000000000000e+00 
0.0000000000000000e+00 0.0000000000000000e+00 0.0000000000000000e+00 
0.0000000000000000e+00 0.0000000000000000e+00 0.0000000000000000e+00 
0.0000000000000000e+00 0.0000000000000000e+00 0.0000000000000000e+00 
0.0000000000000000e+00 0.0000000000000000e+00 0.0000000000000000e+00 
0.0000000000000000e+00 0.0000000000000000e+00 0.0000000000000000e+00 
0.0000000000000000e+00 0.0000000000000000e+00 0.0000000000000000e+00 
0.0000000000000000e+00 0.0000000000000000e+00 0.0000000000000000e+00 
0.0000000000000000e+00 0.0000000000000000e+00 0.0000000000000000e+00 
0.0000000000000000e+00 0.0000000000000000e+00 0.0000000000000000e+00 
0.0000000000000000e+00 0.0000000000000000e+00 0.0000000000000000e+00 
0.0000000000000000e+00 0.0000000000000000e+00 0.0000000000000000e+00 
0.0000000000000000e+00 0.0000000000000000e+00 0.0000000000000000e+00 
0.0000000000000000e+00 0.0000000000000000e+00 0.0000000000000000e+00 
0.0000000000000000e+00 0.0000000000000000e+00 0.0000000000000000e+00 
0.0000000000000000e+00 0.0000000000000000e+00 0.0000000000000000e+00 
0.0000000000000000e+00 0.0000000000000000e+00 0.0000000000000000e+00 
0.0000000000000000e+00 0.0000000000000000e+00 0.0000000000000000e+00 
0.0000000000000000e+00 0.0000000000000000e+00 0.0000000000000000e+00 
0.0000000000000000e+00 0.0000000000000000e+00 0.0000000000000000e+00 
0.0000000000000000e+00 0.0000000000000000e+00 0.0000000000000000e+00 
0.0000000000000000e+00 0.0000000000000000e+00 0.0000000000000000e+00 
0.0000000000000000e+00 0.0000000000000000e+00 0.0000000000000000e+00 
0.0000000000000000e+00 0.0000000000000000e+00 0.0000000000000000e+00 
0.0000000000000000e+00 0.0000000000000000e+00 0.0000000000000000e+00 
0.0000000000000000e+00 0.0000000000000000e+00 0.0000000000000000e+00 
0.0000000000000000e+00 0.0000000000000000e+00 0.0000000000000000e+00 
0.0000000000000000e+00 0.0000000000000000e+00 0.0000000000000000e+00 
0.0000000000000000e+00 0.0000000000000000e+00 0.0000000000000000e+00 
0.0000000000000000e+00 0.0000000000000000e+00 0.0000000000000000e+00 

VECTORS Displacement double
-1.3530843112619095e-16 -4.6078592330633938e-17 2.4649982254080225e-22 
1.3630101025300491e-03 1.2108521962046839e-03 -2.3148360491564902e-13 
1.3630035824169992e-03 1.2108526671074985e-03 -2.3148360540722635e-13 
-2.8419252192787106e-17 -2.8511234883698156e-17 1.8671078425314631e-22 
3.4956746630777505e-03 1.8746868976431250e-03 1.4830218509945576e-13 
3.4956772847696107e-03 1.8746910045340814e-03 1.4830218505786469e-13 
6.0520362976253551e-03 2.1519205712989620e-03 1.4288688675957342e-13 
6.0520381709669897e-03 2.1519213065378487e-03 1.4288688669151257e-13 
8.5023135254096507e-03 1.9729396062171129e-03 3.1853953279181004e-13 
8.5023181752121937e-03 1.9729400896120013e-03 3.1853953277668875e-13 
1.0329487830967201e-02 1.7819740542180254e-03 2.3822801641527197e-22 
1.0329487787377781e-02 1.7819735078436543e-03 1.7016717200208576e-22 
1.1826248307399603e-02 1.3048596504352770e-03 3.0806848854855347e-13 
1.1826250987185543e-02 1.3048592212569583e-03 3.0806848858637173e-13 
1.2122168381116795e-02 5.9113868278990508e-04 2.1775443852784632e-13 
1.2122170939881794e-02 5.9113993716565418e-04 2.1775443856566459e-13 
1.1475352072263656e-02 2.8487267197359247e-04 1.6680855496020686e-13 
1.1475356265599873e-02 2.8487204789298930e-04 1.6680855497155535e-13 
1.0822638483414219e-02 3.9053547167720512e-04 2.7873113861974993e-13 
1.0822638224897436e-02 3.9053445388495794e-04 2.7873113860462864e-13 
1.0477879935291975e-02 5.8357516037054608e-04 -1.8528845721187820e-22 
1.0477883537514566e-02 5.8357403026337330e-04 -1.7393996281997376e-22 
1.0273315176907483e-02 6.6052405324790696e-04 -2.0952346404905491e-13 
1.0273313040233248e-02 6.6052142558959814e-04 -2.0952346406417620e-13 
1.0028370043004798e-02 6.6782652504700484e-04 -6.2890015620839314e-14 
1.0028368576377783e-02 6.6783073141456640e-04 -6.2890015596255935e-14 
9.7205822235198018e-03 6.2262895582516084e-04 2.8678842860889504e-13 
9.7205872107145180e-03 6.2263174699365162e-04 2.8678842867318309e-13 
9.3173071817270643e-03 6.2388393018304993e-04 -4.7252574833921376e-14 
9.3173103032370037e-03 6.2388300531797131e-04 -4.7252574796103101e-14 
8.9279467895390114e-03 6.6393035067224652e-04 7.2791893904666435e-23 
8.9279506005565685e-03 6.6392760181511242e-04 1.9663695160378264e-22 
8.9147355747006864e-03 8.9895064438299350e-04 2.5808035111654463e-22 
8.9147373407721664e-03 8.9895064633281510e-04 2.9589862511014596e-22 
8.9159821017149501e-03 1.0866653969090179e-03 1.1249656330721176e-22 
8.9159811740011571e-03 1.0866668194944732e-03 1.9001950670335842e-22 
8.8755364690838220e-03 1.2213691970089807e-03 1.1249656330721176e-22 
8.8755340864952598e-03 1.2213694277584423e-03 1.9663695160378264e-22 
5.2041704279304213e-18 1.4528309111305759e-17 3.9373797157524117e-22 
-1.5310383151465964e-18 -2.4361726354217746e-18 2.7935501285908541e-22 
1.1393457913962117e-03 -9.4775635115892736e-04 2.8594287622040658e-13 
1.1393527309393634e-03 -9.4775676928866262e-04 2.8594287630831976e-13 
3.3140325408128968e-03 -1.3884722870259871e-03 -7.5286087544472811e-14 
3.3140304085200554e-03 -1.3884685336086732e-03 -7.5286087489646852e-14 
5.8335960627944154e-03 -1.4467963458812856e-03 -2.2256336494827279e-13 
5.8335929763206730e-03 -1.4467969471472384e-03 -2.2256336480080261e-13 
8.2985843129001150e-03 -1.0272869676491827e-03 -5.3331725980656566e-13 
8.2985807243761284e-03 -1.0272863080400775e-03 -5.3331725976497459e-13 
1.0150755846213118e-02 -6.4097547266831704e-04 -2.5334930162506441e-22 
1.0150754137167381e-02 -6.4097489271124682e-04 -2.1175823681357508e-22 
1.1669417425809689e-02 -3.7125242835230055e-05 -3.4451594761293701e-13 
1.1669414541804372e-02 -3.7124955930369075e-05 -3.4451594767722506e-13 
1.1980332890751398e-02 7.5161264952799435e-04 -2.1486494403857070e-13 
1.1980330751522363e-02 7.5161359245521503e-04 -2.1486494407638897e-13 
1.1334239370508611e-02 1.1166485823084380e-03 -1.6888295139511792e-13 
1.1334235556757437e-02 1.1166492797693326e-03 -1.6888295137999663e-13 
1.0665969287911583e-02 1.0938783059556111e-03 -2.6842467212564254e-13 
1.0665968975566320e-02 1.0938805290351518e-03 -2.6842467216346081e-13 
1.0311742032087881e-02 1.0114699768469688e-03 3.7818273993601317e-23 
1.0311737749027963e-02 1.0114724017413011e-03 7.9409338805090657e-23 
1.0132386377163580e-02 1.0273257062050605e-03 -7.3075240919613731e-14 
1.0132387582796470e-02 1.0273255316347713e-03 -7.3075240930962221e-14 
9.9083697619911561e-03 1.0964538339884116e-03 4.5364716759214993e-14 
9.9083703416001680e-03 1.0964569801870552e-03 4.5364716747866497e-14 
9.5957987195323252e-03 1.2145515132110205e-03 -1.7142764157716784e-13 
9.5957934301221619e-03 1.2145515610416748e-03 -1.7142764161498611e-13 
9.2280602284142681e-03 1.1888028136317181e-03 -7.5261488386468273e-13 
9.2280555982618574e-03 1.1888004751465712e-03 -7.5261488392897078e-13 

