# vtk DataFile Version 2.0

ASCII

DATASET UNSTRUCTURED_GRID

POINTS 33 float 

-5.0000000000000003e-02  3.3333333335000000e-02  1.4999999999999997e-01
-5.0000000000000003e-02  9.9999999985000018e-02  1.4999999999999999e-01
-5.0000000000000003e-02  1.6666666665000002e-01  1.4999999999999999e-01
-5.0000000000000003e-02  2.3333333334999998e-01  1.4999999999999999e-01
-5.0000000000000003e-02  2.9999999999999993e-01  1.4999999999999997e-01
-5.0000000000000003e-02  3.6666666665000003e-01  1.4999999999999999e-01
-5.0000000000000003e-02  4.3333333335000002e-01  1.4999999999999999e-01
-5.0000000000000003e-02  5.0000000000000000e-01  1.4999999999999997e-01
-5.0000000000000003e-02  5.6666666664999987e-01  1.4999999999999999e-01
-5.0000000000000003e-02  6.3333333334999986e-01  1.4999999999999999e-01
-5.0000000000000003e-02  6.9999999999999984e-01  1.4999999999999997e-01
-5.0000000000000003e-02  7.6666666664999994e-01  1.4999999999999999e-01
-4.9999999999999996e-02  8.3333333334999982e-01  1.4999999999999999e-01
-5.0000000000000003e-02  8.9999999999999991e-01  1.4999999999999997e-01
-5.0000000000000003e-02  9.6666666664999990e-01  1.4999999999999999e-01
-3.3333333335000000e-02  9.9999999999999978e-01  1.4999999999999997e-01
0.0000000000000000e+00  1.0000000000000000e+00  1.4999999999999997e-01
3.3333333335000007e-02  1.0000000000000000e+00  1.4999999999999999e-01
5.0000000000000003e-02  3.3333333335000000e-02  1.4999999999999999e-01
5.0000000000000003e-02  9.9999999985000004e-02  1.4999999999999999e-01
5.0000000000000003e-02  1.6666666664999999e-01  1.4999999999999999e-01
5.0000000000000003e-02  2.3333333334999998e-01  1.4999999999999999e-01
5.0000000000000003e-02  2.9999999999999993e-01  1.4999999999999997e-01
5.0000000000000003e-02  3.6666666665000003e-01  1.4999999999999999e-01
5.0000000000000003e-02  4.3333333334999991e-01  1.4999999999999999e-01
5.0000000000000003e-02  5.0000000000000000e-01  1.4999999999999997e-01
5.0000000000000003e-02  5.6666666664999987e-01  1.4999999999999999e-01
5.0000000000000003e-02  6.3333333334999997e-01  1.4999999999999999e-01
5.0000000000000003e-02  6.9999999999999984e-01  1.4999999999999997e-01
5.0000000000000003e-02  7.6666666664999994e-01  1.4999999999999999e-01
5.0000000000000003e-02  8.3333333334999993e-01  1.4999999999999999e-01
5.0000000000000010e-02  8.9999999999999991e-01  1.4999999999999999e-01
5.0000000000000003e-02  9.6666666664999990e-01  1.4999999999999999e-01

CELLS 0 0


CELL_TYPES 0


POINT_DATA 33

VECTORS VertexNormals float

0.0000000000000000e+00 0.0000000000000000e+00 0.0000000000000000e+00 
0.0000000000000000e+00 0.0000000000000000e+00 0.0000000000000000e+00 
0.0000000000000000e+00 0.0000000000000000e+00 0.0000000000000000e+00 
0.0000000000000000e+00 0.0000000000000000e+00 0.0000000000000000e+00 
0.0000000000000000e+00 0.0000000000000000e+00 0.0000000000000000e+00 
0.0000000000000000e+00 0.0000000000000000e+00 0.0000000000000000e+00 
0.0000000000000000e+00 0.0000000000000000e+00 0.0000000000000000e+00 
0.0000000000000000e+00 0.0000000000000000e+00 0.0000000000000000e+00 
0.0000000000000000e+00 0.0000000000000000e+00 0.0000000000000000e+00 
0.0000000000000000e+00 0.0000000000000000e+00 0.0000000000000000e+00 
0.0000000000000000e+00 0.0000000000000000e+00 0.0000000000000000e+00 
0.0000000000000000e+00 0.0000000000000000e+00 0.0000000000000000e+00 
0.0000000000000000e+00 0.0000000000000000e+00 0.0000000000000000e+00 
0.0000000000000000e+00 0.0000000000000000e+00 0.0000000000000000e+00 
0.0000000000000000e+00 0.0000000000000000e+00 0.0000000000000000e+00 
0.0000000000000000e+00 0.0000000000000000e+00 0.0000000000000000e+00 
0.0000000000000000e+00 0.0000000000000000e+00 0.0000000000000000e+00 
0.0000000000000000e+00 0.0000000000000000e+00 0.0000000000000000e+00 
0.0000000000000000e+00 0.0000000000000000e+00 0.0000000000000000e+00 
0.0000000000000000e+00 0.0000000000000000e+00 0.0000000000000000e+00 
0.0000000000000000e+00 0.0000000000000000e+00 0.0000000000000000e+00 
0.0000000000000000e+00 0.0000000000000000e+00 0.0000000000000000e+00 
0.0000000000000000e+00 0.0000000000000000e+00 0.0000000000000000e+00 
0.0000000000000000e+00 0.0000000000000000e+00 0.0000000000000000e+00 
0.0000000000000000e+00 0.0000000000000000e+00 0.0000000000000000e+00 
0.0000000000000000e+00 0.0000000000000000e+00 0.0000000000000000e+00 
0.0000000000000000e+00 0.0000000000000000e+00 0.0000000000000000e+00 
0.0000000000000000e+00 0.0000000000000000e+00 0.0000000000000000e+00 
0.0000000000000000e+00 0.0000000000000000e+00 0.0000000000000000e+00 
0.0000000000000000e+00 0.0000000000000000e+00 0.0000000000000000e+00 
0.0000000000000000e+00 0.0000000000000000e+00 0.0000000000000000e+00 
0.0000000000000000e+00 0.0000000000000000e+00 0.0000000000000000e+00 
0.0000000000000000e+00 0.0000000000000000e+00 0.0000000000000000e+00 

VECTORS Stress float
1.4751561267028669e+02 -4.9003123700255911e+00 4.2650994789881771e-14 
1.4743625272814913e+02 -1.1192020528767596e+01 8.6530242206757129e-14 
1.4701089405983024e+02 -1.7266278582054490e+01 7.1117420192727841e-13 
1.4568618935272556e+02 -2.2350106170362142e+01 1.1299896214564313e-12 
1.4303201265121808e+02 -2.7054211344738565e+01 4.6320767491174772e-13 
1.3887537195864485e+02 -3.1498448253144215e+01 3.4115621158298680e-13 
1.3375949773934690e+02 -3.4741097401120854e+01 6.5369730186987367e-13 
1.2802049942995490e+02 -3.6889360233180000e+01 1.8288244858141552e-13 
1.2217717187207866e+02 -3.7067766923136595e+01 -1.3976546097676601e-12 
1.1564476238768853e+02 -3.6255998746941678e+01 -1.2637368616592467e-12 
1.0794927790100830e+02 -3.4807113845887002e+01 2.0996103498110554e-12 
9.8984021849553031e+01 -3.2465355579778674e+01 3.0683708000368094e-12 
8.8383746660646523e+01 -2.8985619581918122e+01 1.2259350478345564e-12 
7.4537134505877717e+01 -2.4444764192578553e+01 -8.6886870406103945e-13 
5.4161126530973057e+01 -1.7779618852941358e+01 -1.0495692237694641e-12 
1.8907894650626268e+01 5.5989838381072659e+01 1.7872219356855802e-16 
1.1999177958531170e+01 3.5980997702180765e+01 1.5046327690525280e-36 
6.7337773590785970e+00 2.0554784828606444e+01 -8.0246608431680047e-17 
-2.2255024873730235e+01 8.2060578974640463e-01 1.2330554707483041e-14 
-2.2388512000049879e+01 1.8376396823082009e+00 1.0973845348470612e-13 
-2.2226426781758935e+01 2.8101551941605027e+00 -4.1936059599146931e-13 
-2.1637856177377085e+01 3.5594954968449612e+00 -1.2820076375378451e-12 
-2.0587820011748047e+01 4.2117755946245614e+00 -7.6550980582558286e-13 
-1.9069036481277116e+01 4.6613355535119156e+00 5.6556662018315554e-14 
-1.6969028845669559e+01 4.7511314365376878e+00 -2.4276382223287032e-13 
-1.4242427570732124e+01 4.3853367844624103e+00 -3.1645576572517733e-13 
-1.1056935934497380e+01 3.5988496992105561e+00 1.6127070139303728e-12 
-7.7543209854847595e+00 2.6573252260574765e+00 1.6340495422647401e-12 
-4.6172517176438603e+00 1.7127085401461082e+00 -1.2863287413491775e-12 
-1.5889855925742962e+00 7.3911284316067827e-01 -2.0715625102968569e-12 
1.3332324504361788e+00 -2.2025718867838387e-01 -1.3750148926919302e-12 
3.6745719222282687e+00 -9.9148498961599452e-01 -7.5060127334583242e-13 
5.3838149784653417e+00 -1.5512230457180263e+00 -1.6023374844217716e-13 

