# vtk DataFile Version 2.0

ASCII

DATASET UNSTRUCTURED_GRID

POINTS 33 double 

-5.0000000000000003e-02  3.3333333335000000e-02  1.4999999999999997e-01
-5.0000000000000003e-02  9.9999999985000018e-02  1.4999999999999999e-01
-5.0000000000000003e-02  1.6666666665000002e-01  1.4999999999999999e-01
-5.0000000000000003e-02  2.3333333334999998e-01  1.4999999999999999e-01
-5.0000000000000003e-02  2.9999999999999993e-01  1.4999999999999997e-01
-5.0000000000000003e-02  3.6666666665000003e-01  1.4999999999999999e-01
-5.0000000000000003e-02  4.3333333335000002e-01  1.4999999999999999e-01
-5.0000000000000003e-02  5.0000000000000000e-01  1.4999999999999997e-01
-5.0000000000000003e-02  5.6666666664999987e-01  1.4999999999999999e-01
-5.0000000000000003e-02  6.3333333334999986e-01  1.4999999999999999e-01
-5.0000000000000003e-02  6.9999999999999984e-01  1.4999999999999997e-01
-5.0000000000000003e-02  7.6666666664999994e-01  1.4999999999999999e-01
-4.9999999999999996e-02  8.3333333334999982e-01  1.4999999999999999e-01
-5.0000000000000003e-02  8.9999999999999991e-01  1.4999999999999997e-01
-5.0000000000000003e-02  9.6666666664999990e-01  1.4999999999999999e-01
-3.3333333335000000e-02  9.9999999999999978e-01  1.4999999999999997e-01
0.0000000000000000e+00  1.0000000000000000e+00  1.4999999999999997e-01
3.3333333335000007e-02  1.0000000000000000e+00  1.4999999999999999e-01
5.0000000000000003e-02  3.3333333335000000e-02  1.4999999999999999e-01
5.0000000000000003e-02  9.9999999985000004e-02  1.4999999999999999e-01
5.0000000000000003e-02  1.6666666664999999e-01  1.4999999999999999e-01
5.0000000000000003e-02  2.3333333334999998e-01  1.4999999999999999e-01
5.0000000000000003e-02  2.9999999999999993e-01  1.4999999999999997e-01
5.0000000000000003e-02  3.6666666665000003e-01  1.4999999999999999e-01
5.0000000000000003e-02  4.3333333334999991e-01  1.4999999999999999e-01
5.0000000000000003e-02  5.0000000000000000e-01  1.4999999999999997e-01
5.0000000000000003e-02  5.6666666664999987e-01  1.4999999999999999e-01
5.0000000000000003e-02  6.3333333334999997e-01  1.4999999999999999e-01
5.0000000000000003e-02  6.9999999999999984e-01  1.4999999999999997e-01
5.0000000000000003e-02  7.6666666664999994e-01  1.4999999999999999e-01
5.0000000000000003e-02  8.3333333334999993e-01  1.4999999999999999e-01
5.0000000000000010e-02  8.9999999999999991e-01  1.4999999999999999e-01
5.0000000000000003e-02  9.6666666664999990e-01  1.4999999999999999e-01

CELLS 0 0


CELL_TYPES 0


POINT_DATA 33

VECTORS VertexNormals double

0.0000000000000000e+00 0.0000000000000000e+00 0.0000000000000000e+00 
0.0000000000000000e+00 0.0000000000000000e+00 0.0000000000000000e+00 
0.0000000000000000e+00 0.0000000000000000e+00 0.0000000000000000e+00 
0.0000000000000000e+00 0.0000000000000000e+00 0.0000000000000000e+00 
0.0000000000000000e+00 0.0000000000000000e+00 0.0000000000000000e+00 
0.0000000000000000e+00 0.0000000000000000e+00 0.0000000000000000e+00 
0.0000000000000000e+00 0.0000000000000000e+00 0.0000000000000000e+00 
0.0000000000000000e+00 0.0000000000000000e+00 0.0000000000000000e+00 
0.0000000000000000e+00 0.0000000000000000e+00 0.0000000000000000e+00 
0.0000000000000000e+00 0.0000000000000000e+00 0.0000000000000000e+00 
0.0000000000000000e+00 0.0000000000000000e+00 0.0000000000000000e+00 
0.0000000000000000e+00 0.0000000000000000e+00 0.0000000000000000e+00 
0.0000000000000000e+00 0.0000000000000000e+00 0.0000000000000000e+00 
0.0000000000000000e+00 0.0000000000000000e+00 0.0000000000000000e+00 
0.0000000000000000e+00 0.0000000000000000e+00 0.0000000000000000e+00 
0.0000000000000000e+00 0.0000000000000000e+00 0.0000000000000000e+00 
0.0000000000000000e+00 0.0000000000000000e+00 0.0000000000000000e+00 
0.0000000000000000e+00 0.0000000000000000e+00 0.0000000000000000e+00 
0.0000000000000000e+00 0.0000000000000000e+00 0.0000000000000000e+00 
0.0000000000000000e+00 0.0000000000000000e+00 0.0000000000000000e+00 
0.0000000000000000e+00 0.0000000000000000e+00 0.0000000000000000e+00 
0.0000000000000000e+00 0.0000000000000000e+00 0.0000000000000000e+00 
0.0000000000000000e+00 0.0000000000000000e+00 0.0000000000000000e+00 
0.0000000000000000e+00 0.0000000000000000e+00 0.0000000000000000e+00 
0.0000000000000000e+00 0.0000000000000000e+00 0.0000000000000000e+00 
0.0000000000000000e+00 0.0000000000000000e+00 0.0000000000000000e+00 
0.0000000000000000e+00 0.0000000000000000e+00 0.0000000000000000e+00 
0.0000000000000000e+00 0.0000000000000000e+00 0.0000000000000000e+00 
0.0000000000000000e+00 0.0000000000000000e+00 0.0000000000000000e+00 
0.0000000000000000e+00 0.0000000000000000e+00 0.0000000000000000e+00 
0.0000000000000000e+00 0.0000000000000000e+00 0.0000000000000000e+00 
0.0000000000000000e+00 0.0000000000000000e+00 0.0000000000000000e+00 
0.0000000000000000e+00 0.0000000000000000e+00 0.0000000000000000e+00 

VECTORS Stress double
2.0281165260138644e+02 -7.8993452569201619e+00 1.5491695930683314e-12 
2.0217305328394804e+02 -1.9882544809318262e+01 1.9224945251341685e-12 
2.0037702480492672e+02 -3.2448652287379154e+01 3.3137828860383827e-13 
1.9666270214893271e+02 -4.3888381345054526e+01 -8.9048254798277338e-13 
1.9090398772297826e+02 -5.4077229623105282e+01 -8.4362585897926904e-13 
1.8372526681398537e+02 -6.2056897774613311e+01 4.0253570510217044e-13 
1.7604970731925735e+02 -6.7423975323829353e+01 8.3485938530195765e-13 
1.6801759594727372e+02 -7.1200334653335688e+01 4.3954712720423513e-13 
1.6001878647129760e+02 -7.3355989523746217e+01 -3.8677444525203076e-13 
1.5257103282963024e+02 -7.3641367652939422e+01 -3.9041096506123562e-13 
1.4534461998324366e+02 -7.2542256622917364e+01 7.0087999582372002e-13 
1.3743382151496272e+02 -7.0712184793264299e+01 1.0988101921053318e-12 
1.2819725811883319e+02 -6.7885272883207719e+01 6.3143411473458341e-13 
1.1708737885047701e+02 -6.3202933291060070e+01 9.1592029657217401e-13 
1.0240249818218093e+02 -5.5659699735902414e+01 6.3278111467427876e-13 
-6.2916021813846132e+00 -1.1645204186490007e+01 -3.7615819226313200e-37 
-1.8080332234289230e+01 -3.2875358657557015e+01 6.3946892684732440e-36 
-2.5796248279233030e+01 -4.6869747655356065e+01 -1.5046327690525280e-36 
-8.9663585245888854e+01 3.8219080655579960e+00 1.0287020424098588e-12 
-8.9459538604806596e+01 9.7420281380386502e+00 1.4979498972295377e-12 
-8.9011458254429954e+01 1.5927810724825363e+01 1.9024137469869405e-13 
-8.8264699338469256e+01 2.1679023193215663e+01 8.9234750664380351e-13 
-8.7178233785089091e+01 2.7036717578955539e+01 1.1774260274984149e-12 
-8.5953454523232423e+01 3.1362587449802213e+01 -1.5685532508136095e-13 
-8.4560836285883511e+01 3.4705824659545918e+01 -1.9712672995149670e-13 
-8.2884377308497463e+01 3.7294852591616518e+01 -1.3048088447317950e-13 
-8.0951366788783133e+01 3.8921227262209570e+01 5.1613336955426479e-13 
-7.8776598088587207e+01 3.9436927489010998e+01 6.1134741753387036e-13 
-7.6197791234039755e+01 3.9295321766084811e+01 -4.6646740022214216e-13 
-7.3182467997107054e+01 3.8842447920814486e+01 -4.2479331460939330e-13 
-6.9980706550132609e+01 3.8091834666151961e+01 2.5388917661697075e-14 
-6.6800678018235914e+01 3.6856600795192087e+01 4.7019426213894301e-13 
-6.3671936929559465e+01 3.5164472091617817e+01 5.7987026703991857e-13 

