# vtk DataFile Version 2.0

ASCII

DATASET UNSTRUCTURED_GRID

POINTS 33 double 

-5.0000000000000003e-02  3.3333333335000000e-02  1.4999999999999997e-01
-5.0000000000000003e-02  9.9999999985000018e-02  1.4999999999999999e-01
-5.0000000000000003e-02  1.6666666665000002e-01  1.4999999999999999e-01
-5.0000000000000003e-02  2.3333333334999998e-01  1.4999999999999999e-01
-5.0000000000000003e-02  2.9999999999999993e-01  1.4999999999999997e-01
-5.0000000000000003e-02  3.6666666665000003e-01  1.4999999999999999e-01
-5.0000000000000003e-02  4.3333333335000002e-01  1.4999999999999999e-01
-5.0000000000000003e-02  5.0000000000000000e-01  1.4999999999999997e-01
-5.0000000000000003e-02  5.6666666664999987e-01  1.4999999999999999e-01
-5.0000000000000003e-02  6.3333333334999986e-01  1.4999999999999999e-01
-5.0000000000000003e-02  6.9999999999999984e-01  1.4999999999999997e-01
-5.0000000000000003e-02  7.6666666664999994e-01  1.4999999999999999e-01
-4.9999999999999996e-02  8.3333333334999982e-01  1.4999999999999999e-01
-5.0000000000000003e-02  8.9999999999999991e-01  1.4999999999999997e-01
-5.0000000000000003e-02  9.6666666664999990e-01  1.4999999999999999e-01
-3.3333333335000000e-02  9.9999999999999978e-01  1.4999999999999997e-01
0.0000000000000000e+00  1.0000000000000000e+00  1.4999999999999997e-01
3.3333333335000007e-02  1.0000000000000000e+00  1.4999999999999999e-01
5.0000000000000003e-02  3.3333333335000000e-02  1.4999999999999999e-01
5.0000000000000003e-02  9.9999999985000004e-02  1.4999999999999999e-01
5.0000000000000003e-02  1.6666666664999999e-01  1.4999999999999999e-01
5.0000000000000003e-02  2.3333333334999998e-01  1.4999999999999999e-01
5.0000000000000003e-02  2.9999999999999993e-01  1.4999999999999997e-01
5.0000000000000003e-02  3.6666666665000003e-01  1.4999999999999999e-01
5.0000000000000003e-02  4.3333333334999991e-01  1.4999999999999999e-01
5.0000000000000003e-02  5.0000000000000000e-01  1.4999999999999997e-01
5.0000000000000003e-02  5.6666666664999987e-01  1.4999999999999999e-01
5.0000000000000003e-02  6.3333333334999997e-01  1.4999999999999999e-01
5.0000000000000003e-02  6.9999999999999984e-01  1.4999999999999997e-01
5.0000000000000003e-02  7.6666666664999994e-01  1.4999999999999999e-01
5.0000000000000003e-02  8.3333333334999993e-01  1.4999999999999999e-01
5.0000000000000010e-02  8.9999999999999991e-01  1.4999999999999999e-01
5.0000000000000003e-02  9.6666666664999990e-01  1.4999999999999999e-01

CELLS 0 0


CELL_TYPES 0


POINT_DATA 33

VECTORS VertexNormals double

0.0000000000000000e+00 0.0000000000000000e+00 0.0000000000000000e+00 
0.0000000000000000e+00 0.0000000000000000e+00 0.0000000000000000e+00 
0.0000000000000000e+00 0.0000000000000000e+00 0.0000000000000000e+00 
0.0000000000000000e+00 0.0000000000000000e+00 0.0000000000000000e+00 
0.0000000000000000e+00 0.0000000000000000e+00 0.0000000000000000e+00 
0.0000000000000000e+00 0.0000000000000000e+00 0.0000000000000000e+00 
0.0000000000000000e+00 0.0000000000000000e+00 0.0000000000000000e+00 
0.0000000000000000e+00 0.0000000000000000e+00 0.0000000000000000e+00 
0.0000000000000000e+00 0.0000000000000000e+00 0.0000000000000000e+00 
0.0000000000000000e+00 0.0000000000000000e+00 0.0000000000000000e+00 
0.0000000000000000e+00 0.0000000000000000e+00 0.0000000000000000e+00 
0.0000000000000000e+00 0.0000000000000000e+00 0.0000000000000000e+00 
0.0000000000000000e+00 0.0000000000000000e+00 0.0000000000000000e+00 
0.0000000000000000e+00 0.0000000000000000e+00 0.0000000000000000e+00 
0.0000000000000000e+00 0.0000000000000000e+00 0.0000000000000000e+00 
0.0000000000000000e+00 0.0000000000000000e+00 0.0000000000000000e+00 
0.0000000000000000e+00 0.0000000000000000e+00 0.0000000000000000e+00 
0.0000000000000000e+00 0.0000000000000000e+00 0.0000000000000000e+00 
0.0000000000000000e+00 0.0000000000000000e+00 0.0000000000000000e+00 
0.0000000000000000e+00 0.0000000000000000e+00 0.0000000000000000e+00 
0.0000000000000000e+00 0.0000000000000000e+00 0.0000000000000000e+00 
0.0000000000000000e+00 0.0000000000000000e+00 0.0000000000000000e+00 
0.0000000000000000e+00 0.0000000000000000e+00 0.0000000000000000e+00 
0.0000000000000000e+00 0.0000000000000000e+00 0.0000000000000000e+00 
0.0000000000000000e+00 0.0000000000000000e+00 0.0000000000000000e+00 
0.0000000000000000e+00 0.0000000000000000e+00 0.0000000000000000e+00 
0.0000000000000000e+00 0.0000000000000000e+00 0.0000000000000000e+00 
0.0000000000000000e+00 0.0000000000000000e+00 0.0000000000000000e+00 
0.0000000000000000e+00 0.0000000000000000e+00 0.0000000000000000e+00 
0.0000000000000000e+00 0.0000000000000000e+00 0.0000000000000000e+00 
0.0000000000000000e+00 0.0000000000000000e+00 0.0000000000000000e+00 
0.0000000000000000e+00 0.0000000000000000e+00 0.0000000000000000e+00 
0.0000000000000000e+00 0.0000000000000000e+00 0.0000000000000000e+00 

VECTORS Stress double
1.1033015247410695e+02 -3.7938934855732898e+00 -6.7021064877188711e-13 
1.1035545119757259e+02 -7.4337779928847114e+00 -8.1916469843938201e-13 
1.0999483064992829e+02 -9.9554574466380785e+00 1.4015512362333141e-13 
1.0918993287099795e+02 -1.1266245512856589e+01 8.4044553311768816e-13 
1.0786309801838674e+02 -1.1967217838110306e+01 5.4584108294232575e-13 
1.0615339870203590e+02 -1.1954238565374895e+01 2.0117939732911694e-13 
1.0432360897088974e+02 -1.0821016460350499e+01 2.2670353052878739e-13 
1.0240393671581074e+02 -8.2638822926997069e+00 1.1613798439762705e-13 
9.9893852430033590e+01 -5.1449654647769192e+00 2.9919746077179360e-13 
9.6217405594590346e+01 -2.5357941039559315e+00 2.1036125617044825e-13 
9.1087159781236409e+01 -3.3158528165600498e-01 -1.0103199276465328e-14 
8.3860122162306681e+01 1.3953379603053526e+00 -4.5421535692807868e-14 
7.3084379012433914e+01 2.2006085542192997e+00 -3.1638962272308615e-14 
5.5783064855886465e+01 2.0202619688887342e+00 2.6202974591639405e-13 
2.3924359271798924e+01 1.1660583251048162e+00 2.5968399236530545e-13 
-4.5948655693376796e+00 1.4830593885023535e+02 7.9654198041920060e-17 
-4.0826245353243262e+00 1.2939192410048125e+02 8.0206972118539349e-17 
-3.5366521306410976e+00 1.0480352990289940e+02 -1.0112844150427035e-19 
7.6163043279782329e+01 -2.8716660893764705e+00 -2.0713240088783043e-14 
7.5866140537111036e+01 -5.3400000434950234e+00 -7.0290270463033771e-14 
7.5933385160568790e+01 -7.0178377721802052e+00 -1.3838180148118406e-13 
7.6549910764906414e+01 -8.0187043590494866e+00 -7.0841969042234615e-13 
7.7874088778206598e+01 -8.6169775191077171e+00 -6.2227251385081640e-13 
8.0057510051498355e+01 -8.9128703110391001e+00 2.3718410776222667e-14 
8.3299850425725026e+01 -8.3780789993160205e+00 2.2510780219345090e-13 
8.7371184211882905e+01 -6.7507874959468044e+00 1.7478763343839110e-13 
9.1371200708118479e+01 -4.4862098590981647e+00 -1.9109830592744568e-13 
9.4356271734188596e+01 -2.3791525428178799e+00 -1.6363286119711424e-13 
9.6044718422683232e+01 -3.3413560650458418e-01 8.7072791956372929e-14 
9.6256505895627512e+01 1.4836432925164824e+00 5.2937046982139054e-14 
9.4952778944034634e+01 2.6803737701801427e+00 -3.3101977536434490e-13 
9.2433827623659624e+01 2.9295546897365368e+00 -7.3701730740256237e-13 
8.9144502188801539e+01 3.0879720121927887e+00 -4.3852313122979751e-13 

