# vtk DataFile Version 2.0

ASCII

DATASET UNSTRUCTURED_GRID

POINTS 68 double 

-5.0000000000000003e-02  0.0000000000000000e+00  0.0000000000000000e+00
-5.0000000000000003e-02  6.6666666669999999e-02  0.0000000000000000e+00
-5.0000000000000003e-02  6.6666666669999999e-02  2.9999999999999999e-01
-5.0000000000000003e-02  0.0000000000000000e+00  2.9999999999999999e-01
-5.0000000000000003e-02  1.3333333330000000e-01  0.0000000000000000e+00
-5.0000000000000003e-02  1.3333333330000000e-01  2.9999999999999999e-01
-5.0000000000000003e-02  2.0000000000000001e-01  0.0000000000000000e+00
-5.0000000000000003e-02  2.0000000000000001e-01  2.9999999999999999e-01
-5.0000000000000003e-02  2.6666666670000000e-01  0.0000000000000000e+00
-5.0000000000000003e-02  2.6666666670000000e-01  2.9999999999999999e-01
-5.0000000000000003e-02  3.3333333329999998e-01  0.0000000000000000e+00
-5.0000000000000003e-02  3.3333333329999998e-01  2.9999999999999999e-01
-5.0000000000000003e-02  4.0000000000000002e-01  0.0000000000000000e+00
-5.0000000000000003e-02  4.0000000000000002e-01  2.9999999999999999e-01
-5.0000000000000003e-02  4.6666666670000001e-01  0.0000000000000000e+00
-5.0000000000000003e-02  4.6666666670000001e-01  2.9999999999999999e-01
-5.0000000000000003e-02  5.3333333329999999e-01  0.0000000000000000e+00
-5.0000000000000003e-02  5.3333333329999999e-01  2.9999999999999999e-01
-5.0000000000000003e-02  5.9999999999999998e-01  0.0000000000000000e+00
-5.0000000000000003e-02  5.9999999999999998e-01  2.9999999999999999e-01
-5.0000000000000003e-02  6.6666666669999997e-01  0.0000000000000000e+00
-5.0000000000000003e-02  6.6666666669999997e-01  2.9999999999999999e-01
-5.0000000000000003e-02  7.3333333329999995e-01  0.0000000000000000e+00
-5.0000000000000003e-02  7.3333333329999995e-01  2.9999999999999999e-01
-5.0000000000000003e-02  8.0000000000000004e-01  0.0000000000000000e+00
-5.0000000000000003e-02  8.0000000000000004e-01  2.9999999999999999e-01
-5.0000000000000003e-02  8.6666666670000003e-01  0.0000000000000000e+00
-5.0000000000000003e-02  8.6666666670000003e-01  2.9999999999999999e-01
-5.0000000000000003e-02  9.3333333330000001e-01  0.0000000000000000e+00
-5.0000000000000003e-02  9.3333333330000001e-01  2.9999999999999999e-01
-5.0000000000000003e-02  1.0000000000000000e+00  0.0000000000000000e+00
-5.0000000000000003e-02  1.0000000000000000e+00  2.9999999999999999e-01
-1.6666666670000000e-02  1.0000000000000000e+00  0.0000000000000000e+00
-1.6666666670000000e-02  1.0000000000000000e+00  2.9999999999999999e-01
1.6666666670000000e-02  1.0000000000000000e+00  0.0000000000000000e+00
1.6666666670000000e-02  1.0000000000000000e+00  2.9999999999999999e-01
5.0000000000000003e-02  1.0000000000000000e+00  0.0000000000000000e+00
5.0000000000000003e-02  1.0000000000000000e+00  2.9999999999999999e-01
5.0000000000000003e-02  0.0000000000000000e+00  0.0000000000000000e+00
5.0000000000000003e-02  0.0000000000000000e+00  2.9999999999999999e-01
5.0000000000000003e-02  6.6666666669999999e-02  2.9999999999999999e-01
5.0000000000000003e-02  6.6666666669999999e-02  0.0000000000000000e+00
5.0000000000000003e-02  1.3333333330000000e-01  2.9999999999999999e-01
5.0000000000000003e-02  1.3333333330000000e-01  0.0000000000000000e+00
5.0000000000000003e-02  2.0000000000000001e-01  2.9999999999999999e-01
5.0000000000000003e-02  2.0000000000000001e-01  0.0000000000000000e+00
5.0000000000000003e-02  2.6666666670000000e-01  2.9999999999999999e-01
5.0000000000000003e-02  2.6666666670000000e-01  0.0000000000000000e+00
5.0000000000000003e-02  3.3333333329999998e-01  2.9999999999999999e-01
5.0000000000000003e-02  3.3333333329999998e-01  0.0000000000000000e+00
5.0000000000000003e-02  4.0000000000000002e-01  2.9999999999999999e-01
5.0000000000000003e-02  4.0000000000000002e-01  0.0000000000000000e+00
5.0000000000000003e-02  4.6666666670000001e-01  2.9999999999999999e-01
5.0000000000000003e-02  4.6666666670000001e-01  0.0000000000000000e+00
5.0000000000000003e-02  5.3333333329999999e-01  2.9999999999999999e-01
5.0000000000000003e-02  5.3333333329999999e-01  0.0000000000000000e+00
5.0000000000000003e-02  5.9999999999999998e-01  2.9999999999999999e-01
5.0000000000000003e-02  5.9999999999999998e-01  0.0000000000000000e+00
5.0000000000000003e-02  6.6666666669999997e-01  2.9999999999999999e-01
5.0000000000000003e-02  6.6666666669999997e-01  0.0000000000000000e+00
5.0000000000000003e-02  7.3333333329999995e-01  2.9999999999999999e-01
5.0000000000000003e-02  7.3333333329999995e-01  0.0000000000000000e+00
5.0000000000000003e-02  8.0000000000000004e-01  2.9999999999999999e-01
5.0000000000000003e-02  8.0000000000000004e-01  0.0000000000000000e+00
5.0000000000000003e-02  8.6666666670000003e-01  2.9999999999999999e-01
5.0000000000000003e-02  8.6666666670000003e-01  0.0000000000000000e+00
5.0000000000000003e-02  9.3333333330000001e-01  2.9999999999999999e-01
5.0000000000000003e-02  9.3333333330000001e-01  0.0000000000000000e+00

CELLS 0 0


CELL_TYPES 0


POINT_DATA 68

VECTORS VertexNormals double

0.0000000000000000e+00 0.0000000000000000e+00 0.0000000000000000e+00 
0.0000000000000000e+00 0.0000000000000000e+00 0.0000000000000000e+00 
0.0000000000000000e+00 0.0000000000000000e+00 0.0000000000000000e+00 
0.0000000000000000e+00 0.0000000000000000e+00 0.0000000000000000e+00 
0.0000000000000000e+00 0.0000000000000000e+00 0.0000000000000000e+00 
0.0000000000000000e+00 0.0000000000000000e+00 0.0000000000000000e+00 
0.0000000000000000e+00 0.0000000000000000e+00 0.0000000000000000e+00 
0.0000000000000000e+00 0.0000000000000000e+00 0.0000000000000000e+00 
0.0000000000000000e+00 0.0000000000000000e+00 0.0000000000000000e+00 
0.0000000000000000e+00 0.0000000000000000e+00 0.0000000000000000e+00 
0.0000000000000000e+00 0.0000000000000000e+00 0.0000000000000000e+00 
0.0000000000000000e+00 0.0000000000000000e+00 0.0000000000000000e+00 
0.0000000000000000e+00 0.0000000000000000e+00 0.0000000000000000e+00 
0.0000000000000000e+00 0.0000000000000000e+00 0.0000000000000000e+00 
0.0000000000000000e+00 0.0000000000000000e+00 0.0000000000000000e+00 
0.0000000000000000e+00 0.0000000000000000e+00 0.0000000000000000e+00 
0.0000000000000000e+00 0.0000000000000000e+00 0.0000000000000000e+00 
0.0000000000000000e+00 0.0000000000000000e+00 0.0000000000000000e+00 
0.0000000000000000e+00 0.0000000000000000e+00 0.0000000000000000e+00 
0.0000000000000000e+00 0.0000000000000000e+00 0.0000000000000000e+00 
0.0000000000000000e+00 0.0000000000000000e+00 0.0000000000000000e+00 
0.0000000000000000e+00 0.0000000000000000e+00 0.0000000000000000e+00 
0.0000000000000000e+00 0.0000000000000000e+00 0.0000000000000000e+00 
0.0000000000000000e+00 0.0000000000000000e+00 0.0000000000000000e+00 
0.0000000000000000e+00 0.0000000000000000e+00 0.0000000000000000e+00 
0.0000000000000000e+00 0.0000000000000000e+00 0.0000000000000000e+00 
0.0000000000000000e+00 0.0000000000000000e+00 0.0000000000000000e+00 
0.0000000000000000e+00 0.0000000000000000e+00 0.0000000000000000e+00 
0.0000000000000000e+00 0.0000000000000000e+00 0.0000000000000000e+00 
0.0000000000000000e+00 0.0000000000000000e+00 0.0000000000000000e+00 
0.0000000000000000e+00 0.0000000000000000e+00 0.0000000000000000e+00 
0.0000000000000000e+00 0.0000000000000000e+00 0.0000000000000000e+00 
0.0000000000000000e+00 0.0000000000000000e+00 0.0000000000000000e+00 
0.0000000000000000e+00 0.0000000000000000e+00 0.0000000000000000e+00 
0.0000000000000000e+00 0.0000000000000000e+00 0.0000000000000000e+00 
0.0000000000000000e+00 0.0000000000000000e+00 0.0000000000000000e+00 
0.0000000000000000e+00 0.0000000000000000e+00 0.0000000000000000e+00 
0.0000000000000000e+00 0.0000000000000000e+00 0.0000000000000000e+00 
0.0000000000000000e+00 0.0000000000000000e+00 0.0000000000000000e+00 
0.0000000000000000e+00 0.0000000000000000e+00 0.0000000000000000e+00 
0.0000000000000000e+00 0.0000000000000000e+00 0.0000000000000000e+00 
0.0000000000000000e+00 0.0000000000000000e+00 0.0000000000000000e+00 
0.0000000000000000e+00 0.0000000000000000e+00 0.0000000000000000e+00 
0.0000000000000000e+00 0.0000000000000000e+00 0.0000000000000000e+00 
0.0000000000000000e+00 0.0000000000000000e+00 0.0000000000000000e+00 
0.0000000000000000e+00 0.0000000000000000e+00 0.0000000000000000e+00 
0.0000000000000000e+00 0.0000000000000000e+00 0.0000000000000000e+00 
0.0000000000000000e+00 0.0000000000000000e+00 0.0000000000000000e+00 
0.0000000000000000e+00 0.0000000000000000e+00 0.0000000000000000e+00 
0.0000000000000000e+00 0.0000000000000000e+00 0.0000000000000000e+00 
0.0000000000000000e+00 0.0000000000000000e+00 0.0000000000000000e+00 
0.0000000000000000e+00 0.0000000000000000e+00 0.0000000000000000e+00 
0.0000000000000000e+00 0.0000000000000000e+00 0.0000000000000000e+00 
0.0000000000000000e+00 0.0000000000000000e+00 0.0000000000000000e+00 
0.0000000000000000e+00 0.0000000000000000e+00 0.0000000000000000e+00 
0.0000000000000000e+00 0.0000000000000000e+00 0.0000000000000000e+00 
0.0000000000000000e+00 0.0000000000000000e+00 0.0000000000000000e+00 
0.0000000000000000e+00 0.0000000000000000e+00 0.0000000000000000e+00 
0.0000000000000000e+00 0.0000000000000000e+00 0.0000000000000000e+00 
0.0000000000000000e+00 0.0000000000000000e+00 0.0000000000000000e+00 
0.0000000000000000e+00 0.0000000000000000e+00 0.0000000000000000e+00 
0.0000000000000000e+00 0.0000000000000000e+00 0.0000000000000000e+00 
0.0000000000000000e+00 0.0000000000000000e+00 0.0000000000000000e+00 
0.0000000000000000e+00 0.0000000000000000e+00 0.0000000000000000e+00 
0.0000000000000000e+00 0.0000000000000000e+00 0.0000000000000000e+00 
0.0000000000000000e+00 0.0000000000000000e+00 0.0000000000000000e+00 
0.0000000000000000e+00 0.0000000000000000e+00 0.0000000000000000e+00 
0.0000000000000000e+00 0.0000000000000000e+00 0.0000000000000000e+00 

VECTORS Displacement double
-3.5978164891758979e-15 -2.4286128663675299e-16 -3.7190040340384124e-21 
3.9150428667765694e-03 4.3724510684721510e-03 1.5895755263235060e-13 
3.9150467595836643e-03 4.3724470736831661e-03 1.5895754500170593e-13 
6.4537001968301643e-17 -1.6870225508543852e-16 1.7131875303408088e-21 
1.3120101123916126e-02 8.4444238046894344e-03 1.4332786231336707e-12 
1.3120113568487569e-02 8.4444313127380894e-03 1.4332786235233693e-12 
2.7565960990041674e-02 1.2026214607258988e-02 1.5003380594668633e-13 
2.7565958389760819e-02 1.2026216763220517e-02 1.5003380591286841e-13 
4.6895113885888268e-02 1.5154780917393388e-02 -2.7372214485871807e-13 
4.6895104369613888e-02 1.5154813902472936e-02 -2.7372214468077776e-13 
7.0009295479087241e-02 1.7831741895316056e-02 2.8587361969832636e-21 
7.0009324361370515e-02 1.7831750210768785e-02 2.9307973920188655e-21 
9.6622066636813331e-02 2.0198520306243792e-02 -4.4515564661821020e-12 
9.6622069346282161e-02 2.0198509958379775e-02 -4.4515564663217994e-12 
1.2620167326580042e-01 2.2132833537991659e-02 -4.4781229298301677e-13 
1.2620166522913889e-01 2.2132831879012566e-02 -4.4781229259331822e-13 
1.5845047533605541e-01 2.3915190727178199e-02 1.2141360984579622e-12 
1.5845048858236768e-01 2.3915188247607150e-02 1.2141360984241443e-12 
1.9293699168288192e-01 2.5183912574752353e-02 2.9177186607565414e-13 
1.9293694770927011e-01 2.5183906393475272e-02 2.9177186657123181e-13 
2.2893454154774492e-01 2.5953696418945189e-02 1.4823076576950256e-21 
2.2893454633190538e-01 2.5953729321985905e-02 2.1896435631713527e-21 
2.6569158363550488e-01 2.6220001997205276e-02 1.4226308504158183e-12 
2.6569158530476272e-01 2.6219999045558516e-02 1.4226308510172751e-12 
3.0210343216608904e-01 2.5974202754216288e-02 -6.3924916320039221e-14 
3.0210342357564968e-01 2.5974223804037626e-02 -6.3924916195038468e-14 
3.3791300898463195e-01 2.5859237413435890e-02 3.9364956357016269e-13 
3.3791300732814317e-01 2.5859256528874504e-02 3.9364956401280080e-13 
3.7385064058082174e-01 2.5927043337934368e-02 5.9685969266667852e-13 
3.7385062518761758e-01 2.5927071367041039e-02 5.9685969318872601e-13 
4.0985801380346643e-01 2.5991232017291352e-02 -8.4703294725430034e-22 
4.0985803984256736e-01 2.5991281451169711e-02 -5.6321351540512339e-22 
4.0983596730599359e-01 7.9738327530914435e-03 -1.7734752333136913e-21 
4.0983598515342323e-01 7.9738490952530033e-03 -1.4102464626594237e-21 
4.0982200263056723e-01 -1.0048877692749647e-02 -9.7938184526278477e-22 
4.0982200648544753e-01 -1.0048896347023514e-02 -3.5145527859154830e-22 
4.0981117972852771e-01 -2.7959352864811195e-02 -6.0880493083902837e-22 
4.0981118611493306e-01 -2.7959387172556523e-02 -3.3817923371185675e-23 
1.3877787807814457e-17 2.4286128663675299e-17 -4.9630836753181660e-22 
8.5353683680023328e-17 1.5178433368103037e-17 -3.1836805408942719e-22 
3.9654997410507997e-03 -4.6552179085782011e-03 -5.4867428735199935e-12 
3.9654671245987864e-03 -4.6552222385963307e-03 -5.4867428742537988e-12 
1.3138119136088521e-02 -8.9933257783459727e-03 -1.4473481036368708e-12 
1.3138092353378240e-02 -8.9933182532763809e-03 -1.4473481041853881e-12 
2.7576313955379687e-02 -1.2929188549479097e-02 1.4841953327484824e-13 
2.7576310752911073e-02 -1.2929183536469855e-02 1.4841953299102881e-13 
4.6888959494685301e-02 -1.6307608247447855e-02 2.4199056614504914e-12 
4.6888948794815810e-02 -1.6307566905542803e-02 2.4199056609549137e-12 
7.0010928699547600e-02 -1.9184481793205387e-02 -8.8085087062548601e-22 
7.0010891849676321e-02 -1.9184472641714738e-02 -1.3764285392882381e-21 
9.6549900296367272e-02 -2.1799168907494351e-02 3.0101237869624876e-12 
9.6549876994420844e-02 -2.1799168308719408e-02 3.0101237869963054e-12 
1.2621161026629082e-01 -2.4010782650852831e-02 5.9956580744232253e-13 
1.2621160933743694e-01 -2.4010794675848809e-02 5.9956580737026129e-13 
1.5836109388396993e-01 -2.5874991491096514e-02 -9.5493011777421174e-13 
1.5836106624048812e-01 -2.5874997683724289e-02 -9.5493011774039387e-13 
1.9287127220386921e-01 -2.7256404270492401e-02 -9.0684910218093984e-13 
1.9287131258141896e-01 -2.7256387168897448e-02 -9.0684910299415492e-13 
2.2879137976970806e-01 -2.8178133632479823e-02 -1.3043673442526362e-21 
2.2879134590526476e-01 -2.8178106944620768e-02 -1.5881867761018131e-21 
2.6559515076930634e-01 -2.8342815486631041e-02 -1.3788900750885338e-12 
2.6559513255945588e-01 -2.8342824042981780e-02 -1.3788900755311720e-12 
3.0198429522230374e-01 -2.8011491086446218e-02 1.3207372169287773e-13 
3.0198429790689890e-01 -2.8011488161786936e-02 1.3207372130317918e-13 
3.3776615305426472e-01 -2.7880328869010054e-02 -6.2683102511157028e-13 
3.3776614500997781e-01 -2.7880320764524458e-02 -6.2683102576596667e-13 
3.7377960235944202e-01 -2.8026641815426630e-02 2.6457014245346687e-13 
3.7377961396329062e-01 -2.8026615557253040e-02 2.6457014164025185e-13 

