# vtk DataFile Version 2.0

ASCII

DATASET UNSTRUCTURED_GRID

POINTS 68 double 

-5.0000000000000003e-02  0.0000000000000000e+00  0.0000000000000000e+00
-5.0000000000000003e-02  6.6666666669999999e-02  0.0000000000000000e+00
-5.0000000000000003e-02  6.6666666669999999e-02  2.9999999999999999e-01
-5.0000000000000003e-02  0.0000000000000000e+00  2.9999999999999999e-01
-5.0000000000000003e-02  1.3333333330000000e-01  0.0000000000000000e+00
-5.0000000000000003e-02  1.3333333330000000e-01  2.9999999999999999e-01
-5.0000000000000003e-02  2.0000000000000001e-01  0.0000000000000000e+00
-5.0000000000000003e-02  2.0000000000000001e-01  2.9999999999999999e-01
-5.0000000000000003e-02  2.6666666670000000e-01  0.0000000000000000e+00
-5.0000000000000003e-02  2.6666666670000000e-01  2.9999999999999999e-01
-5.0000000000000003e-02  3.3333333329999998e-01  0.0000000000000000e+00
-5.0000000000000003e-02  3.3333333329999998e-01  2.9999999999999999e-01
-5.0000000000000003e-02  4.0000000000000002e-01  0.0000000000000000e+00
-5.0000000000000003e-02  4.0000000000000002e-01  2.9999999999999999e-01
-5.0000000000000003e-02  4.6666666670000001e-01  0.0000000000000000e+00
-5.0000000000000003e-02  4.6666666670000001e-01  2.9999999999999999e-01
-5.0000000000000003e-02  5.3333333329999999e-01  0.0000000000000000e+00
-5.0000000000000003e-02  5.3333333329999999e-01  2.9999999999999999e-01
-5.0000000000000003e-02  5.9999999999999998e-01  0.0000000000000000e+00
-5.0000000000000003e-02  5.9999999999999998e-01  2.9999999999999999e-01
-5.0000000000000003e-02  6.6666666669999997e-01  0.0000000000000000e+00
-5.0000000000000003e-02  6.6666666669999997e-01  2.9999999999999999e-01
-5.0000000000000003e-02  7.3333333329999995e-01  0.0000000000000000e+00
-5.0000000000000003e-02  7.3333333329999995e-01  2.9999999999999999e-01
-5.0000000000000003e-02  8.0000000000000004e-01  0.0000000000000000e+00
-5.0000000000000003e-02  8.0000000000000004e-01  2.9999999999999999e-01
-5.0000000000000003e-02  8.6666666670000003e-01  0.0000000000000000e+00
-5.0000000000000003e-02  8.6666666670000003e-01  2.9999999999999999e-01
-5.0000000000000003e-02  9.3333333330000001e-01  0.0000000000000000e+00
-5.0000000000000003e-02  9.3333333330000001e-01  2.9999999999999999e-01
-5.0000000000000003e-02  1.0000000000000000e+00  0.0000000000000000e+00
-5.0000000000000003e-02  1.0000000000000000e+00  2.9999999999999999e-01
-1.6666666670000000e-02  1.0000000000000000e+00  0.0000000000000000e+00
-1.6666666670000000e-02  1.0000000000000000e+00  2.9999999999999999e-01
1.6666666670000000e-02  1.0000000000000000e+00  0.0000000000000000e+00
1.6666666670000000e-02  1.0000000000000000e+00  2.9999999999999999e-01
5.0000000000000003e-02  1.0000000000000000e+00  0.0000000000000000e+00
5.0000000000000003e-02  1.0000000000000000e+00  2.9999999999999999e-01
5.0000000000000003e-02  0.0000000000000000e+00  0.0000000000000000e+00
5.0000000000000003e-02  0.0000000000000000e+00  2.9999999999999999e-01
5.0000000000000003e-02  6.6666666669999999e-02  2.9999999999999999e-01
5.0000000000000003e-02  6.6666666669999999e-02  0.0000000000000000e+00
5.0000000000000003e-02  1.3333333330000000e-01  2.9999999999999999e-01
5.0000000000000003e-02  1.3333333330000000e-01  0.0000000000000000e+00
5.0000000000000003e-02  2.0000000000000001e-01  2.9999999999999999e-01
5.0000000000000003e-02  2.0000000000000001e-01  0.0000000000000000e+00
5.0000000000000003e-02  2.6666666670000000e-01  2.9999999999999999e-01
5.0000000000000003e-02  2.6666666670000000e-01  0.0000000000000000e+00
5.0000000000000003e-02  3.3333333329999998e-01  2.9999999999999999e-01
5.0000000000000003e-02  3.3333333329999998e-01  0.0000000000000000e+00
5.0000000000000003e-02  4.0000000000000002e-01  2.9999999999999999e-01
5.0000000000000003e-02  4.0000000000000002e-01  0.0000000000000000e+00
5.0000000000000003e-02  4.6666666670000001e-01  2.9999999999999999e-01
5.0000000000000003e-02  4.6666666670000001e-01  0.0000000000000000e+00
5.0000000000000003e-02  5.3333333329999999e-01  2.9999999999999999e-01
5.0000000000000003e-02  5.3333333329999999e-01  0.0000000000000000e+00
5.0000000000000003e-02  5.9999999999999998e-01  2.9999999999999999e-01
5.0000000000000003e-02  5.9999999999999998e-01  0.0000000000000000e+00
5.0000000000000003e-02  6.6666666669999997e-01  2.9999999999999999e-01
5.0000000000000003e-02  6.6666666669999997e-01  0.0000000000000000e+00
5.0000000000000003e-02  7.3333333329999995e-01  2.9999999999999999e-01
5.0000000000000003e-02  7.3333333329999995e-01  0.0000000000000000e+00
5.0000000000000003e-02  8.0000000000000004e-01  2.9999999999999999e-01
5.0000000000000003e-02  8.0000000000000004e-01  0.0000000000000000e+00
5.0000000000000003e-02  8.6666666670000003e-01  2.9999999999999999e-01
5.0000000000000003e-02  8.6666666670000003e-01  0.0000000000000000e+00
5.0000000000000003e-02  9.3333333330000001e-01  2.9999999999999999e-01
5.0000000000000003e-02  9.3333333330000001e-01  0.0000000000000000e+00

CELLS 0 0


CELL_TYPES 0


POINT_DATA 68

VECTORS VertexNormals double

0.0000000000000000e+00 0.0000000000000000e+00 0.0000000000000000e+00 
0.0000000000000000e+00 0.0000000000000000e+00 0.0000000000000000e+00 
0.0000000000000000e+00 0.0000000000000000e+00 0.0000000000000000e+00 
0.0000000000000000e+00 0.0000000000000000e+00 0.0000000000000000e+00 
0.0000000000000000e+00 0.0000000000000000e+00 0.0000000000000000e+00 
0.0000000000000000e+00 0.0000000000000000e+00 0.0000000000000000e+00 
0.0000000000000000e+00 0.0000000000000000e+00 0.0000000000000000e+00 
0.0000000000000000e+00 0.0000000000000000e+00 0.0000000000000000e+00 
0.0000000000000000e+00 0.0000000000000000e+00 0.0000000000000000e+00 
0.0000000000000000e+00 0.0000000000000000e+00 0.0000000000000000e+00 
0.0000000000000000e+00 0.0000000000000000e+00 0.0000000000000000e+00 
0.0000000000000000e+00 0.0000000000000000e+00 0.0000000000000000e+00 
0.0000000000000000e+00 0.0000000000000000e+00 0.0000000000000000e+00 
0.0000000000000000e+00 0.0000000000000000e+00 0.0000000000000000e+00 
0.0000000000000000e+00 0.0000000000000000e+00 0.0000000000000000e+00 
0.0000000000000000e+00 0.0000000000000000e+00 0.0000000000000000e+00 
0.0000000000000000e+00 0.0000000000000000e+00 0.0000000000000000e+00 
0.0000000000000000e+00 0.0000000000000000e+00 0.0000000000000000e+00 
0.0000000000000000e+00 0.0000000000000000e+00 0.0000000000000000e+00 
0.0000000000000000e+00 0.0000000000000000e+00 0.0000000000000000e+00 
0.0000000000000000e+00 0.0000000000000000e+00 0.0000000000000000e+00 
0.0000000000000000e+00 0.0000000000000000e+00 0.0000000000000000e+00 
0.0000000000000000e+00 0.0000000000000000e+00 0.0000000000000000e+00 
0.0000000000000000e+00 0.0000000000000000e+00 0.0000000000000000e+00 
0.0000000000000000e+00 0.0000000000000000e+00 0.0000000000000000e+00 
0.0000000000000000e+00 0.0000000000000000e+00 0.0000000000000000e+00 
0.0000000000000000e+00 0.0000000000000000e+00 0.0000000000000000e+00 
0.0000000000000000e+00 0.0000000000000000e+00 0.0000000000000000e+00 
0.0000000000000000e+00 0.0000000000000000e+00 0.0000000000000000e+00 
0.0000000000000000e+00 0.0000000000000000e+00 0.0000000000000000e+00 
0.0000000000000000e+00 0.0000000000000000e+00 0.0000000000000000e+00 
0.0000000000000000e+00 0.0000000000000000e+00 0.0000000000000000e+00 
0.0000000000000000e+00 0.0000000000000000e+00 0.0000000000000000e+00 
0.0000000000000000e+00 0.0000000000000000e+00 0.0000000000000000e+00 
0.0000000000000000e+00 0.0000000000000000e+00 0.0000000000000000e+00 
0.0000000000000000e+00 0.0000000000000000e+00 0.0000000000000000e+00 
0.0000000000000000e+00 0.0000000000000000e+00 0.0000000000000000e+00 
0.0000000000000000e+00 0.0000000000000000e+00 0.0000000000000000e+00 
0.0000000000000000e+00 0.0000000000000000e+00 0.0000000000000000e+00 
0.0000000000000000e+00 0.0000000000000000e+00 0.0000000000000000e+00 
0.0000000000000000e+00 0.0000000000000000e+00 0.0000000000000000e+00 
0.0000000000000000e+00 0.0000000000000000e+00 0.0000000000000000e+00 
0.0000000000000000e+00 0.0000000000000000e+00 0.0000000000000000e+00 
0.0000000000000000e+00 0.0000000000000000e+00 0.0000000000000000e+00 
0.0000000000000000e+00 0.0000000000000000e+00 0.0000000000000000e+00 
0.0000000000000000e+00 0.0000000000000000e+00 0.0000000000000000e+00 
0.0000000000000000e+00 0.0000000000000000e+00 0.0000000000000000e+00 
0.0000000000000000e+00 0.0000000000000000e+00 0.0000000000000000e+00 
0.0000000000000000e+00 0.0000000000000000e+00 0.0000000000000000e+00 
0.0000000000000000e+00 0.0000000000000000e+00 0.0000000000000000e+00 
0.0000000000000000e+00 0.0000000000000000e+00 0.0000000000000000e+00 
0.0000000000000000e+00 0.0000000000000000e+00 0.0000000000000000e+00 
0.0000000000000000e+00 0.0000000000000000e+00 0.0000000000000000e+00 
0.0000000000000000e+00 0.0000000000000000e+00 0.0000000000000000e+00 
0.0000000000000000e+00 0.0000000000000000e+00 0.0000000000000000e+00 
0.0000000000000000e+00 0.0000000000000000e+00 0.0000000000000000e+00 
0.0000000000000000e+00 0.0000000000000000e+00 0.0000000000000000e+00 
0.0000000000000000e+00 0.0000000000000000e+00 0.0000000000000000e+00 
0.0000000000000000e+00 0.0000000000000000e+00 0.0000000000000000e+00 
0.0000000000000000e+00 0.0000000000000000e+00 0.0000000000000000e+00 
0.0000000000000000e+00 0.0000000000000000e+00 0.0000000000000000e+00 
0.0000000000000000e+00 0.0000000000000000e+00 0.0000000000000000e+00 
0.0000000000000000e+00 0.0000000000000000e+00 0.0000000000000000e+00 
0.0000000000000000e+00 0.0000000000000000e+00 0.0000000000000000e+00 
0.0000000000000000e+00 0.0000000000000000e+00 0.0000000000000000e+00 
0.0000000000000000e+00 0.0000000000000000e+00 0.0000000000000000e+00 
0.0000000000000000e+00 0.0000000000000000e+00 0.0000000000000000e+00 
0.0000000000000000e+00 0.0000000000000000e+00 0.0000000000000000e+00 

VECTORS Displacement double
-2.2030988144905450e-15 -2.7061686225238191e-16 3.1614843011776718e-21 
2.0381046234048215e-03 2.6256857382147680e-03 5.9433563402346689e-13 
2.0381199567933465e-03 2.6256818072577445e-03 5.9433563890004264e-13 
-3.2070424314668873e-17 -9.8006073307102235e-17 -3.1914021518414263e-23 
7.6542612726250622e-03 5.3341036429768954e-03 -3.6307079326001730e-14 
7.6542610681894141e-03 5.3340955291745181e-03 -3.6307079888965708e-14 
1.6969279092607821e-02 7.7459246579474027e-03 -1.0517157548453226e-12 
1.6969273754757604e-02 7.7459227444362294e-03 -1.0517157550906493e-12 
2.9200607033767610e-02 9.8487338528136133e-03 -1.9878280392076091e-12 
2.9200591910947649e-02 9.8487504053907521e-03 -1.9878280399029218e-12 
4.4227270362991178e-02 1.1966104508871181e-02 -4.4998625322884706e-22 
4.4227274389753747e-02 1.1966108128030525e-02 -7.2178265238763937e-22 
6.1675374193923313e-02 1.3721257009570357e-02 -5.9771104545549403e-13 
6.1675388507297438e-02 1.3721248715699750e-02 -5.9771104562141130e-13 
8.1434123497405309e-02 1.5369822156288682e-02 -9.1096490300046639e-13 
8.1434125099348012e-02 1.5369804790620372e-02 -9.1096490308697442e-13 
1.0306444774249805e-01 1.6842023230340578e-02 -4.1174122636463588e-13 
1.0306444234552002e-01 1.6842012184709872e-02 -4.1174122642467403e-13 
1.2681986062048145e-01 1.8359582335195163e-02 4.4265537816587164e-13 
1.2681985193712156e-01 1.8359588171386925e-02 4.4265537796024971e-13 
1.5263298854688601e-01 1.9904678963949762e-02 -1.9852334701272664e-22 
1.5263299527433638e-01 1.9904682614976462e-02 -6.2913842378170027e-22 
1.8022752483588250e-01 2.0838057170167713e-02 -1.1930091570479907e-12 
1.8022753870916419e-01 2.0838054349835208e-02 -1.1930091572668476e-12 
2.0874327505980053e-01 2.1691604453710676e-02 -1.6492959346766128e-12 
2.0874326019726430e-01 2.1691586166814898e-02 -1.6492959347631208e-12 
2.3846555373498576e-01 2.2264298344001468e-02 -4.9380966100161533e-13 
2.3846552953274414e-01 2.2264297427676567e-02 -4.9380966090945225e-13 
2.6870904901889325e-01 2.2392442028591062e-02 -1.9637453551126654e-12 
2.6870903617789788e-01 2.2392433205936712e-02 -1.9637453553315221e-12 
2.9875938187832446e-01 2.2387253677340041e-02 8.1394572275217923e-22 
2.9875935646199669e-01 2.2387222988862730e-02 5.6861910319508381e-22 
2.9873640520841671e-01 7.3642639617446720e-03 9.8599929016320899e-22 
2.9873638005628800e-01 7.3642566519725953e-03 9.9875302172265820e-22 
2.9878807801734453e-01 -7.6153250457212454e-03 1.1845226371759356e-21 
2.9878805646686313e-01 -7.6153114209970649e-03 1.3163903769430208e-21 
2.9884878295422490e-01 -2.2650944984254542e-02 9.9923417996405743e-22 
2.9884875822461515e-01 -2.2650917559441684e-02 1.0318402462247793e-21 
-3.1225022567582528e-17 2.2551405187698492e-17 8.3214369622834584e-22 
-3.9009318218576102e-17 1.9955123059320647e-17 1.1906589238349606e-21 
2.1168623799849148e-03 -2.7164561755982598e-03 7.1935507139007227e-14 
2.1168608857513385e-03 -2.7164692908217287e-03 7.1935507371098953e-14 
7.6860108394652500e-03 -5.5954634997775589e-03 -2.9166817466516024e-13 
7.6860087176252373e-03 -5.5954715300502653e-03 -2.9166817447277320e-13 
1.6978185318313316e-02 -8.1082026708462034e-03 1.6041466540019879e-12 
1.6978205460294857e-02 -8.1082023235045167e-03 1.6041466541546704e-12 
2.9229338822506841e-02 -1.0335513152020782e-02 8.5782996993645233e-13 
2.9229351618267785e-02 -1.0335509975781015e-02 8.5782997035383250e-13 
4.4127827404066580e-02 -1.2365898527992848e-02 -1.3835271424300615e-21 
4.4127836666148605e-02 -1.2365902394535160e-02 -1.1117307432712692e-21 
6.1730697175268447e-02 -1.4147877057484055e-02 1.6658349619047614e-12 
6.1730701497376216e-02 -1.4147880158809061e-02 1.6658349620442090e-12 
8.1343898181683263e-02 -1.5736225875053213e-02 2.1883305493446255e-13 
8.1343895055004195e-02 -1.5736241309754630e-02 2.1883305494156116e-13 
1.0313713931570577e-01 -1.7178276423349195e-02 -1.0104080981206925e-13 
1.0313716405420971e-01 -1.7178288260479058e-02 -1.0104080988437999e-13 
1.2674623056775772e-01 -1.8702464261514756e-02 -4.4522120530783016e-13 
1.2674625627252395e-01 -1.8702464880563169e-02 -4.4522120508897334e-13 
1.5268871794292199e-01 -2.0119000952817621e-02 1.7399068505701710e-21 
1.5268872817697868e-01 -2.0118998480877528e-02 1.8793543517204789e-21 
1.8021940233483202e-01 -2.1090504716694877e-02 2.5997079372175789e-12 
1.8021940845447093e-01 -2.1090507052491846e-02 2.5997079373173216e-12 
2.0875229778446994e-01 -2.1871153774461246e-02 1.5799506218903366e-12 
2.0875231629273058e-01 -2.1871162830011094e-02 1.5799506217386166e-12 
2.3851839209096923e-01 -2.2553873019500674e-02 4.1708168027724765e-13 
2.3851842224362099e-01 -2.2553874696631254e-02 4.1708168039684280e-13 
2.6874552071771440e-01 -2.2635255431502209e-02 -5.7279674970075569e-13 
2.6874552042499450e-01 -2.2635273357904724e-02 -5.7279674968042221e-13 

