# vtk DataFile Version 2.0

ASCII

DATASET UNSTRUCTURED_GRID

POINTS 68 double 

-5.0000000000000003e-02  0.0000000000000000e+00  0.0000000000000000e+00
-5.0000000000000003e-02  6.6666666669999999e-02  0.0000000000000000e+00
-5.0000000000000003e-02  6.6666666669999999e-02  2.9999999999999999e-01
-5.0000000000000003e-02  0.0000000000000000e+00  2.9999999999999999e-01
-5.0000000000000003e-02  1.3333333330000000e-01  0.0000000000000000e+00
-5.0000000000000003e-02  1.3333333330000000e-01  2.9999999999999999e-01
-5.0000000000000003e-02  2.0000000000000001e-01  0.0000000000000000e+00
-5.0000000000000003e-02  2.0000000000000001e-01  2.9999999999999999e-01
-5.0000000000000003e-02  2.6666666670000000e-01  0.0000000000000000e+00
-5.0000000000000003e-02  2.6666666670000000e-01  2.9999999999999999e-01
-5.0000000000000003e-02  3.3333333329999998e-01  0.0000000000000000e+00
-5.0000000000000003e-02  3.3333333329999998e-01  2.9999999999999999e-01
-5.0000000000000003e-02  4.0000000000000002e-01  0.0000000000000000e+00
-5.0000000000000003e-02  4.0000000000000002e-01  2.9999999999999999e-01
-5.0000000000000003e-02  4.6666666670000001e-01  0.0000000000000000e+00
-5.0000000000000003e-02  4.6666666670000001e-01  2.9999999999999999e-01
-5.0000000000000003e-02  5.3333333329999999e-01  0.0000000000000000e+00
-5.0000000000000003e-02  5.3333333329999999e-01  2.9999999999999999e-01
-5.0000000000000003e-02  5.9999999999999998e-01  0.0000000000000000e+00
-5.0000000000000003e-02  5.9999999999999998e-01  2.9999999999999999e-01
-5.0000000000000003e-02  6.6666666669999997e-01  0.0000000000000000e+00
-5.0000000000000003e-02  6.6666666669999997e-01  2.9999999999999999e-01
-5.0000000000000003e-02  7.3333333329999995e-01  0.0000000000000000e+00
-5.0000000000000003e-02  7.3333333329999995e-01  2.9999999999999999e-01
-5.0000000000000003e-02  8.0000000000000004e-01  0.0000000000000000e+00
-5.0000000000000003e-02  8.0000000000000004e-01  2.9999999999999999e-01
-5.0000000000000003e-02  8.6666666670000003e-01  0.0000000000000000e+00
-5.0000000000000003e-02  8.6666666670000003e-01  2.9999999999999999e-01
-5.0000000000000003e-02  9.3333333330000001e-01  0.0000000000000000e+00
-5.0000000000000003e-02  9.3333333330000001e-01  2.9999999999999999e-01
-5.0000000000000003e-02  1.0000000000000000e+00  0.0000000000000000e+00
-5.0000000000000003e-02  1.0000000000000000e+00  2.9999999999999999e-01
-1.6666666670000000e-02  1.0000000000000000e+00  0.0000000000000000e+00
-1.6666666670000000e-02  1.0000000000000000e+00  2.9999999999999999e-01
1.6666666670000000e-02  1.0000000000000000e+00  0.0000000000000000e+00
1.6666666670000000e-02  1.0000000000000000e+00  2.9999999999999999e-01
5.0000000000000003e-02  1.0000000000000000e+00  0.0000000000000000e+00
5.0000000000000003e-02  1.0000000000000000e+00  2.9999999999999999e-01
5.0000000000000003e-02  0.0000000000000000e+00  0.0000000000000000e+00
5.0000000000000003e-02  0.0000000000000000e+00  2.9999999999999999e-01
5.0000000000000003e-02  6.6666666669999999e-02  2.9999999999999999e-01
5.0000000000000003e-02  6.6666666669999999e-02  0.0000000000000000e+00
5.0000000000000003e-02  1.3333333330000000e-01  2.9999999999999999e-01
5.0000000000000003e-02  1.3333333330000000e-01  0.0000000000000000e+00
5.0000000000000003e-02  2.0000000000000001e-01  2.9999999999999999e-01
5.0000000000000003e-02  2.0000000000000001e-01  0.0000000000000000e+00
5.0000000000000003e-02  2.6666666670000000e-01  2.9999999999999999e-01
5.0000000000000003e-02  2.6666666670000000e-01  0.0000000000000000e+00
5.0000000000000003e-02  3.3333333329999998e-01  2.9999999999999999e-01
5.0000000000000003e-02  3.3333333329999998e-01  0.0000000000000000e+00
5.0000000000000003e-02  4.0000000000000002e-01  2.9999999999999999e-01
5.0000000000000003e-02  4.0000000000000002e-01  0.0000000000000000e+00
5.0000000000000003e-02  4.6666666670000001e-01  2.9999999999999999e-01
5.0000000000000003e-02  4.6666666670000001e-01  0.0000000000000000e+00
5.0000000000000003e-02  5.3333333329999999e-01  2.9999999999999999e-01
5.0000000000000003e-02  5.3333333329999999e-01  0.0000000000000000e+00
5.0000000000000003e-02  5.9999999999999998e-01  2.9999999999999999e-01
5.0000000000000003e-02  5.9999999999999998e-01  0.0000000000000000e+00
5.0000000000000003e-02  6.6666666669999997e-01  2.9999999999999999e-01
5.0000000000000003e-02  6.6666666669999997e-01  0.0000000000000000e+00
5.0000000000000003e-02  7.3333333329999995e-01  2.9999999999999999e-01
5.0000000000000003e-02  7.3333333329999995e-01  0.0000000000000000e+00
5.0000000000000003e-02  8.0000000000000004e-01  2.9999999999999999e-01
5.0000000000000003e-02  8.0000000000000004e-01  0.0000000000000000e+00
5.0000000000000003e-02  8.6666666670000003e-01  2.9999999999999999e-01
5.0000000000000003e-02  8.6666666670000003e-01  0.0000000000000000e+00
5.0000000000000003e-02  9.3333333330000001e-01  2.9999999999999999e-01
5.0000000000000003e-02  9.3333333330000001e-01  0.0000000000000000e+00

CELLS 0 0


CELL_TYPES 0


POINT_DATA 68

VECTORS VertexNormals double

0.0000000000000000e+00 0.0000000000000000e+00 0.0000000000000000e+00 
0.0000000000000000e+00 0.0000000000000000e+00 0.0000000000000000e+00 
0.0000000000000000e+00 0.0000000000000000e+00 0.0000000000000000e+00 
0.0000000000000000e+00 0.0000000000000000e+00 0.0000000000000000e+00 
0.0000000000000000e+00 0.0000000000000000e+00 0.0000000000000000e+00 
0.0000000000000000e+00 0.0000000000000000e+00 0.0000000000000000e+00 
0.0000000000000000e+00 0.0000000000000000e+00 0.0000000000000000e+00 
0.0000000000000000e+00 0.0000000000000000e+00 0.0000000000000000e+00 
0.0000000000000000e+00 0.0000000000000000e+00 0.0000000000000000e+00 
0.0000000000000000e+00 0.0000000000000000e+00 0.0000000000000000e+00 
0.0000000000000000e+00 0.0000000000000000e+00 0.0000000000000000e+00 
0.0000000000000000e+00 0.0000000000000000e+00 0.0000000000000000e+00 
0.0000000000000000e+00 0.0000000000000000e+00 0.0000000000000000e+00 
0.0000000000000000e+00 0.0000000000000000e+00 0.0000000000000000e+00 
0.0000000000000000e+00 0.0000000000000000e+00 0.0000000000000000e+00 
0.0000000000000000e+00 0.0000000000000000e+00 0.0000000000000000e+00 
0.0000000000000000e+00 0.0000000000000000e+00 0.0000000000000000e+00 
0.0000000000000000e+00 0.0000000000000000e+00 0.0000000000000000e+00 
0.0000000000000000e+00 0.0000000000000000e+00 0.0000000000000000e+00 
0.0000000000000000e+00 0.0000000000000000e+00 0.0000000000000000e+00 
0.0000000000000000e+00 0.0000000000000000e+00 0.0000000000000000e+00 
0.0000000000000000e+00 0.0000000000000000e+00 0.0000000000000000e+00 
0.0000000000000000e+00 0.0000000000000000e+00 0.0000000000000000e+00 
0.0000000000000000e+00 0.0000000000000000e+00 0.0000000000000000e+00 
0.0000000000000000e+00 0.0000000000000000e+00 0.0000000000000000e+00 
0.0000000000000000e+00 0.0000000000000000e+00 0.0000000000000000e+00 
0.0000000000000000e+00 0.0000000000000000e+00 0.0000000000000000e+00 
0.0000000000000000e+00 0.0000000000000000e+00 0.0000000000000000e+00 
0.0000000000000000e+00 0.0000000000000000e+00 0.0000000000000000e+00 
0.0000000000000000e+00 0.0000000000000000e+00 0.0000000000000000e+00 
0.0000000000000000e+00 0.0000000000000000e+00 0.0000000000000000e+00 
0.0000000000000000e+00 0.0000000000000000e+00 0.0000000000000000e+00 
0.0000000000000000e+00 0.0000000000000000e+00 0.0000000000000000e+00 
0.0000000000000000e+00 0.0000000000000000e+00 0.0000000000000000e+00 
0.0000000000000000e+00 0.0000000000000000e+00 0.0000000000000000e+00 
0.0000000000000000e+00 0.0000000000000000e+00 0.0000000000000000e+00 
0.0000000000000000e+00 0.0000000000000000e+00 0.0000000000000000e+00 
0.0000000000000000e+00 0.0000000000000000e+00 0.0000000000000000e+00 
0.0000000000000000e+00 0.0000000000000000e+00 0.0000000000000000e+00 
0.0000000000000000e+00 0.0000000000000000e+00 0.0000000000000000e+00 
0.0000000000000000e+00 0.0000000000000000e+00 0.0000000000000000e+00 
0.0000000000000000e+00 0.0000000000000000e+00 0.0000000000000000e+00 
0.0000000000000000e+00 0.0000000000000000e+00 0.0000000000000000e+00 
0.0000000000000000e+00 0.0000000000000000e+00 0.0000000000000000e+00 
0.0000000000000000e+00 0.0000000000000000e+00 0.0000000000000000e+00 
0.0000000000000000e+00 0.0000000000000000e+00 0.0000000000000000e+00 
0.0000000000000000e+00 0.0000000000000000e+00 0.0000000000000000e+00 
0.0000000000000000e+00 0.0000000000000000e+00 0.0000000000000000e+00 
0.0000000000000000e+00 0.0000000000000000e+00 0.0000000000000000e+00 
0.0000000000000000e+00 0.0000000000000000e+00 0.0000000000000000e+00 
0.0000000000000000e+00 0.0000000000000000e+00 0.0000000000000000e+00 
0.0000000000000000e+00 0.0000000000000000e+00 0.0000000000000000e+00 
0.0000000000000000e+00 0.0000000000000000e+00 0.0000000000000000e+00 
0.0000000000000000e+00 0.0000000000000000e+00 0.0000000000000000e+00 
0.0000000000000000e+00 0.0000000000000000e+00 0.0000000000000000e+00 
0.0000000000000000e+00 0.0000000000000000e+00 0.0000000000000000e+00 
0.0000000000000000e+00 0.0000000000000000e+00 0.0000000000000000e+00 
0.0000000000000000e+00 0.0000000000000000e+00 0.0000000000000000e+00 
0.0000000000000000e+00 0.0000000000000000e+00 0.0000000000000000e+00 
0.0000000000000000e+00 0.0000000000000000e+00 0.0000000000000000e+00 
0.0000000000000000e+00 0.0000000000000000e+00 0.0000000000000000e+00 
0.0000000000000000e+00 0.0000000000000000e+00 0.0000000000000000e+00 
0.0000000000000000e+00 0.0000000000000000e+00 0.0000000000000000e+00 
0.0000000000000000e+00 0.0000000000000000e+00 0.0000000000000000e+00 
0.0000000000000000e+00 0.0000000000000000e+00 0.0000000000000000e+00 
0.0000000000000000e+00 0.0000000000000000e+00 0.0000000000000000e+00 
0.0000000000000000e+00 0.0000000000000000e+00 0.0000000000000000e+00 
0.0000000000000000e+00 0.0000000000000000e+00 0.0000000000000000e+00 

VECTORS Displacement double
-1.9905951886833861e-16 -2.2442984970449942e-17 -5.9557004103817993e-23 
1.1503611441801165e-03 9.2608192265485772e-04 2.9234110933345748e-13 
1.1503636003965614e-03 9.2608280711581087e-04 2.9234110937650025e-13 
-2.6694877780249103e-17 9.2967490789324823e-18 -6.5880670985256568e-24 
2.8998053719739370e-03 1.2751640921258162e-03 2.1297876188472490e-13 
2.8998106912451914e-03 1.2751631529792130e-03 2.1297876190129790e-13 
4.7416315758736401e-03 1.3863586915954236e-03 2.7721025538757105e-14 
4.7416314359482901e-03 1.3863569195524904e-03 2.7721025528860314e-14 
6.7107646860829675e-03 1.0599333675692458e-03 8.0087010135049640e-14 
6.7107669714766317e-03 1.0599335738981609e-03 8.0087010151622636e-14 
7.5125676527895242e-03 3.6354873875421492e-04 1.3234889800848443e-22 
7.5125667946628278e-03 3.6354897630646823e-04 1.4892188806144354e-22 
7.2814110721774513e-03 3.2272929689247318e-05 -7.3290717430656005e-15 
7.2814115884718344e-03 3.2273138334481518e-05 -7.3290717000228315e-15 
6.8913958215593082e-03 9.2238523410343408e-05 -5.5721528433790463e-14 
6.8913926326135558e-03 9.2238250079948063e-05 -5.5721528417217474e-14 
6.6783526177583829e-03 2.7014294969333278e-04 -1.7965617176844998e-13 
6.6783513179463723e-03 2.7014225187438719e-04 -1.7965617175187699e-13 
6.6012991659661511e-03 4.1686302782435909e-04 -4.2426497861671889e-13 
6.6012944768443164e-03 4.1686056120110909e-04 -4.2426497862661567e-13 
6.5510288092791016e-03 4.7609834357040248e-04 3.7057691442375640e-22 
6.5510252772039996e-03 4.7610062779969545e-04 3.6068012487501862e-22 
6.4105572767504245e-03 4.5283099519089366e-04 3.3594502383071230e-14 
6.4105587062970098e-03 4.5283266951996255e-04 3.3594502373174440e-14 
6.1878541296844849e-03 4.3682198889515239e-04 7.1777236723805645e-14 
6.1878561697295380e-03 4.3682277593874139e-04 7.1777236700673971e-14 
5.9395246064928853e-03 4.4265351333257945e-04 1.4519018930702635e-13 
5.9395275998984616e-03 4.4265478332121958e-04 1.4519018928389468e-13 
5.6661273536268725e-03 4.7379822070666745e-04 2.4323485510611033e-13 
5.6661322985570696e-03 4.7379906164757274e-04 2.4323485508297866e-13 
5.3287819422181831e-03 4.8958242396268756e-04 1.2573145310806021e-22 
5.3287921787601002e-03 4.8958383197357112e-04 6.9512549256352883e-23 
5.3225361162937603e-03 7.1175803261794117e-04 2.3822801641527197e-22 
5.3225464233354813e-03 7.1175868367548184e-04 2.5480100646823108e-22 
5.3136763072135088e-03 8.4644559997977672e-04 -1.3234889800848443e-23 
5.3136855284943432e-03 8.4644339295821176e-04 -4.2984014050858874e-23 
5.2855179880182193e-03 9.8632657652498014e-04 9.2644228605939100e-23 
5.2855260508153602e-03 9.8632316170613600e-04 7.6129994156777105e-23 
-2.2117724318704290e-17 2.9707139526102821e-17 1.8197973476166609e-23 
-1.4985494317405655e-17 2.3391377321244040e-17 1.9881712503171229e-23 
1.0103176643713985e-03 -8.8745242099133820e-04 -2.7392253803424120e-13 
1.0103160296456499e-03 -8.8745182358964357e-04 -2.7392253804419675e-13 
2.7829074222927058e-03 -1.2038707845149473e-03 -2.1938319259366001e-13 
2.7829018788484402e-03 -1.2038710926464157e-03 -2.1938319262346790e-13 
4.6019169249050156e-03 -1.2824029540895625e-03 -4.0736338442720234e-14 
4.6019163250206104e-03 -1.2824049650831471e-03 -4.0736338406353664e-14 
6.5619637618705333e-03 -8.7827670446081736e-04 7.9599316717568998e-16 
6.5619627228158317e-03 -8.7827704174647629e-04 7.9599315060269996e-16 
7.3571217297454328e-03 -7.3371053699516784e-05 2.0186144726483731e-22 
7.3571229081648209e-03 -7.3372428400442224e-05 2.1175823681357508e-22 
7.1162746305036958e-03 3.9365782479919834e-04 3.9894927550980635e-14 
7.1162742049188116e-03 3.9365651094514040e-04 3.9894927534407646e-14 
6.7149207807115979e-03 5.0121544027160352e-04 9.3753526369521495e-14 
6.7149237005897046e-03 5.0121407317221898e-04 9.3753526352948499e-14 
6.4950551460286783e-03 5.1720960491001154e-04 1.1518072184811373e-13 
6.4950565824936574e-03 5.1720910345679459e-04 1.1518072183154074e-13 
6.4235541818071507e-03 5.6490524714649553e-04 3.2621086639852532e-13 
6.4235598084195385e-03 5.6490327313208581e-04 3.2621086640842211e-13 
6.3962220275338016e-03 6.5899089239336431e-04 -1.6871546715891909e-22 
6.3962265922258513e-03 6.5899340865193962e-04 -1.8528845721187820e-22 
6.2868069875529472e-03 7.6826885458472700e-04 -1.9766508787126313e-13 
6.2868053416756551e-03 7.6827088028125819e-04 -1.9766508786136635e-13 
6.0695098069992884e-03 8.4078741964678245e-04 -1.3271392091130004e-13 
6.0695069507797818e-03 8.4078848094849270e-04 -1.3271392088816837e-13 
5.7977049965600531e-03 9.2788790446301768e-04 -1.9563489657897824e-13 
5.7977024482755409e-03 9.2788916733894814e-04 -1.9563489654922912e-13 
5.5466915471667098e-03 9.3189189118493413e-04 -7.0422236828670864e-13 
5.5466861074409332e-03 9.3189502773186527e-04 -7.0422236828342930e-13 

