# vtk DataFile Version 2.0

ASCII

DATASET UNSTRUCTURED_GRID

POINTS 68 double 

-5.0000000000000003e-02  0.0000000000000000e+00  0.0000000000000000e+00
-5.0000000000000003e-02  6.6666666669999999e-02  0.0000000000000000e+00
-5.0000000000000003e-02  6.6666666669999999e-02  2.9999999999999999e-01
-5.0000000000000003e-02  0.0000000000000000e+00  2.9999999999999999e-01
-5.0000000000000003e-02  1.3333333330000000e-01  0.0000000000000000e+00
-5.0000000000000003e-02  1.3333333330000000e-01  2.9999999999999999e-01
-5.0000000000000003e-02  2.0000000000000001e-01  0.0000000000000000e+00
-5.0000000000000003e-02  2.0000000000000001e-01  2.9999999999999999e-01
-5.0000000000000003e-02  2.6666666670000000e-01  0.0000000000000000e+00
-5.0000000000000003e-02  2.6666666670000000e-01  2.9999999999999999e-01
-5.0000000000000003e-02  3.3333333329999998e-01  0.0000000000000000e+00
-5.0000000000000003e-02  3.3333333329999998e-01  2.9999999999999999e-01
-5.0000000000000003e-02  4.0000000000000002e-01  0.0000000000000000e+00
-5.0000000000000003e-02  4.0000000000000002e-01  2.9999999999999999e-01
-5.0000000000000003e-02  4.6666666670000001e-01  0.0000000000000000e+00
-5.0000000000000003e-02  4.6666666670000001e-01  2.9999999999999999e-01
-5.0000000000000003e-02  5.3333333329999999e-01  0.0000000000000000e+00
-5.0000000000000003e-02  5.3333333329999999e-01  2.9999999999999999e-01
-5.0000000000000003e-02  5.9999999999999998e-01  0.0000000000000000e+00
-5.0000000000000003e-02  5.9999999999999998e-01  2.9999999999999999e-01
-5.0000000000000003e-02  6.6666666669999997e-01  0.0000000000000000e+00
-5.0000000000000003e-02  6.6666666669999997e-01  2.9999999999999999e-01
-5.0000000000000003e-02  7.3333333329999995e-01  0.0000000000000000e+00
-5.0000000000000003e-02  7.3333333329999995e-01  2.9999999999999999e-01
-5.0000000000000003e-02  8.0000000000000004e-01  0.0000000000000000e+00
-5.0000000000000003e-02  8.0000000000000004e-01  2.9999999999999999e-01
-5.0000000000000003e-02  8.6666666670000003e-01  0.0000000000000000e+00
-5.0000000000000003e-02  8.6666666670000003e-01  2.9999999999999999e-01
-5.0000000000000003e-02  9.3333333330000001e-01  0.0000000000000000e+00
-5.0000000000000003e-02  9.3333333330000001e-01  2.9999999999999999e-01
-5.0000000000000003e-02  1.0000000000000000e+00  0.0000000000000000e+00
-5.0000000000000003e-02  1.0000000000000000e+00  2.9999999999999999e-01
-1.6666666670000000e-02  1.0000000000000000e+00  0.0000000000000000e+00
-1.6666666670000000e-02  1.0000000000000000e+00  2.9999999999999999e-01
1.6666666670000000e-02  1.0000000000000000e+00  0.0000000000000000e+00
1.6666666670000000e-02  1.0000000000000000e+00  2.9999999999999999e-01
5.0000000000000003e-02  1.0000000000000000e+00  0.0000000000000000e+00
5.0000000000000003e-02  1.0000000000000000e+00  2.9999999999999999e-01
5.0000000000000003e-02  0.0000000000000000e+00  0.0000000000000000e+00
5.0000000000000003e-02  0.0000000000000000e+00  2.9999999999999999e-01
5.0000000000000003e-02  6.6666666669999999e-02  2.9999999999999999e-01
5.0000000000000003e-02  6.6666666669999999e-02  0.0000000000000000e+00
5.0000000000000003e-02  1.3333333330000000e-01  2.9999999999999999e-01
5.0000000000000003e-02  1.3333333330000000e-01  0.0000000000000000e+00
5.0000000000000003e-02  2.0000000000000001e-01  2.9999999999999999e-01
5.0000000000000003e-02  2.0000000000000001e-01  0.0000000000000000e+00
5.0000000000000003e-02  2.6666666670000000e-01  2.9999999999999999e-01
5.0000000000000003e-02  2.6666666670000000e-01  0.0000000000000000e+00
5.0000000000000003e-02  3.3333333329999998e-01  2.9999999999999999e-01
5.0000000000000003e-02  3.3333333329999998e-01  0.0000000000000000e+00
5.0000000000000003e-02  4.0000000000000002e-01  2.9999999999999999e-01
5.0000000000000003e-02  4.0000000000000002e-01  0.0000000000000000e+00
5.0000000000000003e-02  4.6666666670000001e-01  2.9999999999999999e-01
5.0000000000000003e-02  4.6666666670000001e-01  0.0000000000000000e+00
5.0000000000000003e-02  5.3333333329999999e-01  2.9999999999999999e-01
5.0000000000000003e-02  5.3333333329999999e-01  0.0000000000000000e+00
5.0000000000000003e-02  5.9999999999999998e-01  2.9999999999999999e-01
5.0000000000000003e-02  5.9999999999999998e-01  0.0000000000000000e+00
5.0000000000000003e-02  6.6666666669999997e-01  2.9999999999999999e-01
5.0000000000000003e-02  6.6666666669999997e-01  0.0000000000000000e+00
5.0000000000000003e-02  7.3333333329999995e-01  2.9999999999999999e-01
5.0000000000000003e-02  7.3333333329999995e-01  0.0000000000000000e+00
5.0000000000000003e-02  8.0000000000000004e-01  2.9999999999999999e-01
5.0000000000000003e-02  8.0000000000000004e-01  0.0000000000000000e+00
5.0000000000000003e-02  8.6666666670000003e-01  2.9999999999999999e-01
5.0000000000000003e-02  8.6666666670000003e-01  0.0000000000000000e+00
5.0000000000000003e-02  9.3333333330000001e-01  2.9999999999999999e-01
5.0000000000000003e-02  9.3333333330000001e-01  0.0000000000000000e+00

CELLS 0 0


CELL_TYPES 0


POINT_DATA 68

VECTORS VertexNormals double

0.0000000000000000e+00 0.0000000000000000e+00 0.0000000000000000e+00 
0.0000000000000000e+00 0.0000000000000000e+00 0.0000000000000000e+00 
0.0000000000000000e+00 0.0000000000000000e+00 0.0000000000000000e+00 
0.0000000000000000e+00 0.0000000000000000e+00 0.0000000000000000e+00 
0.0000000000000000e+00 0.0000000000000000e+00 0.0000000000000000e+00 
0.0000000000000000e+00 0.0000000000000000e+00 0.0000000000000000e+00 
0.0000000000000000e+00 0.0000000000000000e+00 0.0000000000000000e+00 
0.0000000000000000e+00 0.0000000000000000e+00 0.0000000000000000e+00 
0.0000000000000000e+00 0.0000000000000000e+00 0.0000000000000000e+00 
0.0000000000000000e+00 0.0000000000000000e+00 0.0000000000000000e+00 
0.0000000000000000e+00 0.0000000000000000e+00 0.0000000000000000e+00 
0.0000000000000000e+00 0.0000000000000000e+00 0.0000000000000000e+00 
0.0000000000000000e+00 0.0000000000000000e+00 0.0000000000000000e+00 
0.0000000000000000e+00 0.0000000000000000e+00 0.0000000000000000e+00 
0.0000000000000000e+00 0.0000000000000000e+00 0.0000000000000000e+00 
0.0000000000000000e+00 0.0000000000000000e+00 0.0000000000000000e+00 
0.0000000000000000e+00 0.0000000000000000e+00 0.0000000000000000e+00 
0.0000000000000000e+00 0.0000000000000000e+00 0.0000000000000000e+00 
0.0000000000000000e+00 0.0000000000000000e+00 0.0000000000000000e+00 
0.0000000000000000e+00 0.0000000000000000e+00 0.0000000000000000e+00 
0.0000000000000000e+00 0.0000000000000000e+00 0.0000000000000000e+00 
0.0000000000000000e+00 0.0000000000000000e+00 0.0000000000000000e+00 
0.0000000000000000e+00 0.0000000000000000e+00 0.0000000000000000e+00 
0.0000000000000000e+00 0.0000000000000000e+00 0.0000000000000000e+00 
0.0000000000000000e+00 0.0000000000000000e+00 0.0000000000000000e+00 
0.0000000000000000e+00 0.0000000000000000e+00 0.0000000000000000e+00 
0.0000000000000000e+00 0.0000000000000000e+00 0.0000000000000000e+00 
0.0000000000000000e+00 0.0000000000000000e+00 0.0000000000000000e+00 
0.0000000000000000e+00 0.0000000000000000e+00 0.0000000000000000e+00 
0.0000000000000000e+00 0.0000000000000000e+00 0.0000000000000000e+00 
0.0000000000000000e+00 0.0000000000000000e+00 0.0000000000000000e+00 
0.0000000000000000e+00 0.0000000000000000e+00 0.0000000000000000e+00 
0.0000000000000000e+00 0.0000000000000000e+00 0.0000000000000000e+00 
0.0000000000000000e+00 0.0000000000000000e+00 0.0000000000000000e+00 
0.0000000000000000e+00 0.0000000000000000e+00 0.0000000000000000e+00 
0.0000000000000000e+00 0.0000000000000000e+00 0.0000000000000000e+00 
0.0000000000000000e+00 0.0000000000000000e+00 0.0000000000000000e+00 
0.0000000000000000e+00 0.0000000000000000e+00 0.0000000000000000e+00 
0.0000000000000000e+00 0.0000000000000000e+00 0.0000000000000000e+00 
0.0000000000000000e+00 0.0000000000000000e+00 0.0000000000000000e+00 
0.0000000000000000e+00 0.0000000000000000e+00 0.0000000000000000e+00 
0.0000000000000000e+00 0.0000000000000000e+00 0.0000000000000000e+00 
0.0000000000000000e+00 0.0000000000000000e+00 0.0000000000000000e+00 
0.0000000000000000e+00 0.0000000000000000e+00 0.0000000000000000e+00 
0.0000000000000000e+00 0.0000000000000000e+00 0.0000000000000000e+00 
0.0000000000000000e+00 0.0000000000000000e+00 0.0000000000000000e+00 
0.0000000000000000e+00 0.0000000000000000e+00 0.0000000000000000e+00 
0.0000000000000000e+00 0.0000000000000000e+00 0.0000000000000000e+00 
0.0000000000000000e+00 0.0000000000000000e+00 0.0000000000000000e+00 
0.0000000000000000e+00 0.0000000000000000e+00 0.0000000000000000e+00 
0.0000000000000000e+00 0.0000000000000000e+00 0.0000000000000000e+00 
0.0000000000000000e+00 0.0000000000000000e+00 0.0000000000000000e+00 
0.0000000000000000e+00 0.0000000000000000e+00 0.0000000000000000e+00 
0.0000000000000000e+00 0.0000000000000000e+00 0.0000000000000000e+00 
0.0000000000000000e+00 0.0000000000000000e+00 0.0000000000000000e+00 
0.0000000000000000e+00 0.0000000000000000e+00 0.0000000000000000e+00 
0.0000000000000000e+00 0.0000000000000000e+00 0.0000000000000000e+00 
0.0000000000000000e+00 0.0000000000000000e+00 0.0000000000000000e+00 
0.0000000000000000e+00 0.0000000000000000e+00 0.0000000000000000e+00 
0.0000000000000000e+00 0.0000000000000000e+00 0.0000000000000000e+00 
0.0000000000000000e+00 0.0000000000000000e+00 0.0000000000000000e+00 
0.0000000000000000e+00 0.0000000000000000e+00 0.0000000000000000e+00 
0.0000000000000000e+00 0.0000000000000000e+00 0.0000000000000000e+00 
0.0000000000000000e+00 0.0000000000000000e+00 0.0000000000000000e+00 
0.0000000000000000e+00 0.0000000000000000e+00 0.0000000000000000e+00 
0.0000000000000000e+00 0.0000000000000000e+00 0.0000000000000000e+00 
0.0000000000000000e+00 0.0000000000000000e+00 0.0000000000000000e+00 
0.0000000000000000e+00 0.0000000000000000e+00 0.0000000000000000e+00 

VECTORS Displacement double
-2.5639212974937209e-15 -3.8163916471489756e-17 1.3234889800848443e-21 
2.3994686485848127e-03 2.4551218276937098e-03 8.3582384977276945e-14 
2.3994651740362831e-03 2.4551239184743699e-03 8.3582389511593691e-14 
6.6424783222512506e-17 -1.5580570945208448e-16 -4.4955123190974551e-23 
7.5506230788281881e-03 4.6220775750658522e-03 6.8210702551035278e-14 
7.5506410571632120e-03 4.6220940149649973e-03 6.8210702691368609e-14 
1.5664161228475158e-02 6.5489018415682242e-03 -7.2493516892820509e-13 
1.5664156126544392e-02 6.5489027937086306e-03 -7.2493516889375088e-13 
2.6132985883562325e-02 8.3794296681703271e-03 -2.5555720587925262e-13 
2.6132989942908549e-02 8.3794315675317019e-03 -2.5555720595067752e-13 
3.9275688985850335e-02 1.0373581545176376e-02 -5.2939559203393771e-22 
3.9275689047460843e-02 1.0373582302528073e-02 -4.9494137641982163e-22 
5.5462426827955172e-02 1.2205918284812553e-02 -7.9345423244725976e-13 
5.5462432058165680e-02 1.2205920637031263e-02 -7.9345423262456378e-13 
7.3592988279711752e-02 1.3546122664668116e-02 -4.7015772866294234e-13 
7.3592992455113748e-02 1.3546104935340761e-02 -4.7015772841672989e-13 
9.3538739468037133e-02 1.4482249099098281e-02 3.4379994688879295e-13 
9.3538729538386781e-02 1.4482245076707286e-02 3.4379994692324717e-13 
1.1422025372781297e-01 1.5135256932662995e-02 2.0044023932357059e-12 
1.1422027637480917e-01 1.5135250789631833e-02 2.0044023932701603e-12 
1.3589734804046058e-01 1.5699050255029382e-02 -2.2234614865425384e-21 
1.3589735078554069e-01 1.5699044047531710e-02 -2.4007655077419973e-21 
1.5843527230332621e-01 1.6245476463406155e-02 -2.5868819670845551e-12 
1.5843525022297719e-01 1.6245475351944087e-02 -2.5868819670501007e-12 
1.8151009392571824e-01 1.6371789759200544e-02 -1.0496613938119949e-12 
1.8151012040172526e-01 1.6371797595776432e-02 -1.0496613938834198e-12 
2.0459980425037264e-01 1.6432733514649023e-02 2.6167355773478422e-13 
2.0459979959486260e-01 1.6432720267561530e-02 2.6167355729278240e-13 
2.2784315934472268e-01 1.6623864687558873e-02 2.8397766826010607e-12 
2.2784316663775769e-01 1.6623874425071704e-02 2.8397766824237569e-12 
2.5153602787192597e-01 1.6739573635125547e-02 1.3764285392882381e-21 
2.5153604266502705e-01 1.6739585504941434e-02 6.1678936685144757e-22 
2.5150001956586199e-01 4.8989959587554446e-03 1.4558378780933287e-21 
2.5150003607695004e-01 4.8989999339576502e-03 1.2255942976904760e-21 
2.5150963846913443e-01 -6.9508136310310765e-03 1.0587911840678754e-21 
2.5150965803809977e-01 -6.9508191613088816e-03 7.2266848525823511e-22 
2.5154068450123862e-01 -1.8846034960188024e-02 1.0852609636695723e-21 
2.5154069303223270e-01 -1.8846048516968278e-02 7.2266848525823511e-22 
4.1633363423443370e-17 -5.2041704279304213e-18 2.5808035111654463e-22 
3.8669207606883592e-17 -1.8762554849916715e-17 6.9619870565653822e-22 
2.3803240312625230e-03 -2.6741301795015454e-03 -1.1274320621739666e-13 
2.3803253855002818e-03 -2.6741286269769734e-03 -1.1274320649007889e-13 
7.6116801660312799e-03 -5.0957700309694574e-03 -3.0818883802573958e-13 
7.6116500040687551e-03 -5.0957634325987725e-03 -3.0818883816607291e-13 
1.5725856112666175e-02 -7.2117375087670816e-03 5.5937977182522351e-13 
1.5725851478838943e-02 -7.2117495957907483e-03 5.5937977157901106e-13 
2.6134681086454638e-02 -9.2308250816031320e-03 7.9334705157954637e-13 
2.6134681178928261e-02 -9.2308220406274264e-03 7.9334705122745481e-13 
3.9346430548734393e-02 -1.1457614083735084e-02 -2.8318313960624654e-22 
3.9346416166668084e-02 -1.1457614225263885e-02 -3.1763735522036263e-22 
5.5404693275625833e-02 -1.3385288776317146e-02 5.9430392723811067e-14 
5.5404677611955021e-02 -1.3385292352337520e-02 5.9430392689356854e-14 
7.3689508711110449e-02 -1.4853851024656988e-02 3.8924745312136455e-13 
7.3689504567808192e-02 -1.4853863703321517e-02 3.8924745287515210e-13 
9.3453304756827726e-02 -1.5946721881359330e-02 -2.0200356829519424e-13 
9.3453302622566348e-02 -1.5946721445398705e-02 -2.0200356801201109e-13 
1.1426988096194832e-01 -1.6610056780055803e-02 -2.5733433786682119e-12 
1.1426985468036427e-01 -1.6610057988583251e-02 -2.5733433783850290e-12 
1.3583440367697314e-01 -1.7330853713623549e-02 3.9519815966652552e-21 
1.3583438693415720e-01 -1.7330859322865284e-02 4.0234064994579266e-21 
1.5843625795689673e-01 -1.7930613394021286e-02 1.4652415331937521e-12 
1.5843626328817403e-01 -1.7930610244830197e-02 1.4652415331592978e-12 
1.8151871244203982e-01 -1.8222801177795435e-02 7.0894806323423590e-13 
1.8151869014779376e-01 -1.8222802446739936e-02 7.0894806319978169e-13 
2.0455830387800747e-01 -1.8301529335740262e-02 3.0418708546309104e-13 
2.0455830080156800e-01 -1.8301544762649613e-02 3.0418708564039506e-13 
2.2777905996326850e-01 -1.8671704657884532e-02 -4.8577777249686998e-13 
2.2777906196523565e-01 -1.8671699499609031e-02 -4.8577777226662640e-13 

