# vtk DataFile Version 2.0

ASCII

DATASET UNSTRUCTURED_GRID

POINTS 68 float 

-5.0000000000000003e-02  0.0000000000000000e+00  0.0000000000000000e+00
-5.0000000000000003e-02  6.6666666669999999e-02  0.0000000000000000e+00
-5.0000000000000003e-02  6.6666666669999999e-02  2.9999999999999999e-01
-5.0000000000000003e-02  0.0000000000000000e+00  2.9999999999999999e-01
-5.0000000000000003e-02  1.3333333330000000e-01  0.0000000000000000e+00
-5.0000000000000003e-02  1.3333333330000000e-01  2.9999999999999999e-01
-5.0000000000000003e-02  2.0000000000000001e-01  0.0000000000000000e+00
-5.0000000000000003e-02  2.0000000000000001e-01  2.9999999999999999e-01
-5.0000000000000003e-02  2.6666666670000000e-01  0.0000000000000000e+00
-5.0000000000000003e-02  2.6666666670000000e-01  2.9999999999999999e-01
-5.0000000000000003e-02  3.3333333329999998e-01  0.0000000000000000e+00
-5.0000000000000003e-02  3.3333333329999998e-01  2.9999999999999999e-01
-5.0000000000000003e-02  4.0000000000000002e-01  0.0000000000000000e+00
-5.0000000000000003e-02  4.0000000000000002e-01  2.9999999999999999e-01
-5.0000000000000003e-02  4.6666666670000001e-01  0.0000000000000000e+00
-5.0000000000000003e-02  4.6666666670000001e-01  2.9999999999999999e-01
-5.0000000000000003e-02  5.3333333329999999e-01  0.0000000000000000e+00
-5.0000000000000003e-02  5.3333333329999999e-01  2.9999999999999999e-01
-5.0000000000000003e-02  5.9999999999999998e-01  0.0000000000000000e+00
-5.0000000000000003e-02  5.9999999999999998e-01  2.9999999999999999e-01
-5.0000000000000003e-02  6.6666666669999997e-01  0.0000000000000000e+00
-5.0000000000000003e-02  6.6666666669999997e-01  2.9999999999999999e-01
-5.0000000000000003e-02  7.3333333329999995e-01  0.0000000000000000e+00
-5.0000000000000003e-02  7.3333333329999995e-01  2.9999999999999999e-01
-5.0000000000000003e-02  8.0000000000000004e-01  0.0000000000000000e+00
-5.0000000000000003e-02  8.0000000000000004e-01  2.9999999999999999e-01
-5.0000000000000003e-02  8.6666666670000003e-01  0.0000000000000000e+00
-5.0000000000000003e-02  8.6666666670000003e-01  2.9999999999999999e-01
-5.0000000000000003e-02  9.3333333330000001e-01  0.0000000000000000e+00
-5.0000000000000003e-02  9.3333333330000001e-01  2.9999999999999999e-01
-5.0000000000000003e-02  1.0000000000000000e+00  0.0000000000000000e+00
-5.0000000000000003e-02  1.0000000000000000e+00  2.9999999999999999e-01
-1.6666666670000000e-02  1.0000000000000000e+00  0.0000000000000000e+00
-1.6666666670000000e-02  1.0000000000000000e+00  2.9999999999999999e-01
1.6666666670000000e-02  1.0000000000000000e+00  0.0000000000000000e+00
1.6666666670000000e-02  1.0000000000000000e+00  2.9999999999999999e-01
5.0000000000000003e-02  1.0000000000000000e+00  0.0000000000000000e+00
5.0000000000000003e-02  1.0000000000000000e+00  2.9999999999999999e-01
5.0000000000000003e-02  0.0000000000000000e+00  0.0000000000000000e+00
5.0000000000000003e-02  0.0000000000000000e+00  2.9999999999999999e-01
5.0000000000000003e-02  6.6666666669999999e-02  2.9999999999999999e-01
5.0000000000000003e-02  6.6666666669999999e-02  0.0000000000000000e+00
5.0000000000000003e-02  1.3333333330000000e-01  2.9999999999999999e-01
5.0000000000000003e-02  1.3333333330000000e-01  0.0000000000000000e+00
5.0000000000000003e-02  2.0000000000000001e-01  2.9999999999999999e-01
5.0000000000000003e-02  2.0000000000000001e-01  0.0000000000000000e+00
5.0000000000000003e-02  2.6666666670000000e-01  2.9999999999999999e-01
5.0000000000000003e-02  2.6666666670000000e-01  0.0000000000000000e+00
5.0000000000000003e-02  3.3333333329999998e-01  2.9999999999999999e-01
5.0000000000000003e-02  3.3333333329999998e-01  0.0000000000000000e+00
5.0000000000000003e-02  4.0000000000000002e-01  2.9999999999999999e-01
5.0000000000000003e-02  4.0000000000000002e-01  0.0000000000000000e+00
5.0000000000000003e-02  4.6666666670000001e-01  2.9999999999999999e-01
5.0000000000000003e-02  4.6666666670000001e-01  0.0000000000000000e+00
5.0000000000000003e-02  5.3333333329999999e-01  2.9999999999999999e-01
5.0000000000000003e-02  5.3333333329999999e-01  0.0000000000000000e+00
5.0000000000000003e-02  5.9999999999999998e-01  2.9999999999999999e-01
5.0000000000000003e-02  5.9999999999999998e-01  0.0000000000000000e+00
5.0000000000000003e-02  6.6666666669999997e-01  2.9999999999999999e-01
5.0000000000000003e-02  6.6666666669999997e-01  0.0000000000000000e+00
5.0000000000000003e-02  7.3333333329999995e-01  2.9999999999999999e-01
5.0000000000000003e-02  7.3333333329999995e-01  0.0000000000000000e+00
5.0000000000000003e-02  8.0000000000000004e-01  2.9999999999999999e-01
5.0000000000000003e-02  8.0000000000000004e-01  0.0000000000000000e+00
5.0000000000000003e-02  8.6666666670000003e-01  2.9999999999999999e-01
5.0000000000000003e-02  8.6666666670000003e-01  0.0000000000000000e+00
5.0000000000000003e-02  9.3333333330000001e-01  2.9999999999999999e-01
5.0000000000000003e-02  9.3333333330000001e-01  0.0000000000000000e+00

CELLS 0 0


CELL_TYPES 0


POINT_DATA 68

VECTORS VertexNormals float

0.0000000000000000e+00 0.0000000000000000e+00 0.0000000000000000e+00 
0.0000000000000000e+00 0.0000000000000000e+00 0.0000000000000000e+00 
0.0000000000000000e+00 0.0000000000000000e+00 0.0000000000000000e+00 
0.0000000000000000e+00 0.0000000000000000e+00 0.0000000000000000e+00 
0.0000000000000000e+00 0.0000000000000000e+00 0.0000000000000000e+00 
0.0000000000000000e+00 0.0000000000000000e+00 0.0000000000000000e+00 
0.0000000000000000e+00 0.0000000000000000e+00 0.0000000000000000e+00 
0.0000000000000000e+00 0.0000000000000000e+00 0.0000000000000000e+00 
0.0000000000000000e+00 0.0000000000000000e+00 0.0000000000000000e+00 
0.0000000000000000e+00 0.0000000000000000e+00 0.0000000000000000e+00 
0.0000000000000000e+00 0.0000000000000000e+00 0.0000000000000000e+00 
0.0000000000000000e+00 0.0000000000000000e+00 0.0000000000000000e+00 
0.0000000000000000e+00 0.0000000000000000e+00 0.0000000000000000e+00 
0.0000000000000000e+00 0.0000000000000000e+00 0.0000000000000000e+00 
0.0000000000000000e+00 0.0000000000000000e+00 0.0000000000000000e+00 
0.0000000000000000e+00 0.0000000000000000e+00 0.0000000000000000e+00 
0.0000000000000000e+00 0.0000000000000000e+00 0.0000000000000000e+00 
0.0000000000000000e+00 0.0000000000000000e+00 0.0000000000000000e+00 
0.0000000000000000e+00 0.0000000000000000e+00 0.0000000000000000e+00 
0.0000000000000000e+00 0.0000000000000000e+00 0.0000000000000000e+00 
0.0000000000000000e+00 0.0000000000000000e+00 0.0000000000000000e+00 
0.0000000000000000e+00 0.0000000000000000e+00 0.0000000000000000e+00 
0.0000000000000000e+00 0.0000000000000000e+00 0.0000000000000000e+00 
0.0000000000000000e+00 0.0000000000000000e+00 0.0000000000000000e+00 
0.0000000000000000e+00 0.0000000000000000e+00 0.0000000000000000e+00 
0.0000000000000000e+00 0.0000000000000000e+00 0.0000000000000000e+00 
0.0000000000000000e+00 0.0000000000000000e+00 0.0000000000000000e+00 
0.0000000000000000e+00 0.0000000000000000e+00 0.0000000000000000e+00 
0.0000000000000000e+00 0.0000000000000000e+00 0.0000000000000000e+00 
0.0000000000000000e+00 0.0000000000000000e+00 0.0000000000000000e+00 
0.0000000000000000e+00 0.0000000000000000e+00 0.0000000000000000e+00 
0.0000000000000000e+00 0.0000000000000000e+00 0.0000000000000000e+00 
0.0000000000000000e+00 0.0000000000000000e+00 0.0000000000000000e+00 
0.0000000000000000e+00 0.0000000000000000e+00 0.0000000000000000e+00 
0.0000000000000000e+00 0.0000000000000000e+00 0.0000000000000000e+00 
0.0000000000000000e+00 0.0000000000000000e+00 0.0000000000000000e+00 
0.0000000000000000e+00 0.0000000000000000e+00 0.0000000000000000e+00 
0.0000000000000000e+00 0.0000000000000000e+00 0.0000000000000000e+00 
0.0000000000000000e+00 0.0000000000000000e+00 0.0000000000000000e+00 
0.0000000000000000e+00 0.0000000000000000e+00 0.0000000000000000e+00 
0.0000000000000000e+00 0.0000000000000000e+00 0.0000000000000000e+00 
0.0000000000000000e+00 0.0000000000000000e+00 0.0000000000000000e+00 
0.0000000000000000e+00 0.0000000000000000e+00 0.0000000000000000e+00 
0.0000000000000000e+00 0.0000000000000000e+00 0.0000000000000000e+00 
0.0000000000000000e+00 0.0000000000000000e+00 0.0000000000000000e+00 
0.0000000000000000e+00 0.0000000000000000e+00 0.0000000000000000e+00 
0.0000000000000000e+00 0.0000000000000000e+00 0.0000000000000000e+00 
0.0000000000000000e+00 0.0000000000000000e+00 0.0000000000000000e+00 
0.0000000000000000e+00 0.0000000000000000e+00 0.0000000000000000e+00 
0.0000000000000000e+00 0.0000000000000000e+00 0.0000000000000000e+00 
0.0000000000000000e+00 0.0000000000000000e+00 0.0000000000000000e+00 
0.0000000000000000e+00 0.0000000000000000e+00 0.0000000000000000e+00 
0.0000000000000000e+00 0.0000000000000000e+00 0.0000000000000000e+00 
0.0000000000000000e+00 0.0000000000000000e+00 0.0000000000000000e+00 
0.0000000000000000e+00 0.0000000000000000e+00 0.0000000000000000e+00 
0.0000000000000000e+00 0.0000000000000000e+00 0.0000000000000000e+00 
0.0000000000000000e+00 0.0000000000000000e+00 0.0000000000000000e+00 
0.0000000000000000e+00 0.0000000000000000e+00 0.0000000000000000e+00 
0.0000000000000000e+00 0.0000000000000000e+00 0.0000000000000000e+00 
0.0000000000000000e+00 0.0000000000000000e+00 0.0000000000000000e+00 
0.0000000000000000e+00 0.0000000000000000e+00 0.0000000000000000e+00 
0.0000000000000000e+00 0.0000000000000000e+00 0.0000000000000000e+00 
0.0000000000000000e+00 0.0000000000000000e+00 0.0000000000000000e+00 
0.0000000000000000e+00 0.0000000000000000e+00 0.0000000000000000e+00 
0.0000000000000000e+00 0.0000000000000000e+00 0.0000000000000000e+00 
0.0000000000000000e+00 0.0000000000000000e+00 0.0000000000000000e+00 
0.0000000000000000e+00 0.0000000000000000e+00 0.0000000000000000e+00 
0.0000000000000000e+00 0.0000000000000000e+00 0.0000000000000000e+00 

VECTORS Displacement float
-1.8834760140418183e-15 -9.7144514654701197e-17 -7.2791893904666435e-22 
2.7241955980668300e-03 2.9149428008220907e-03 1.4405058495939221e-12 
2.7242021298073552e-03 2.9149482277052458e-03 1.4405058529064737e-12 
-2.0571042322454061e-16 -6.2912796439606821e-17 -1.8145925557505092e-22 
8.6421335650406373e-03 5.2502662320206596e-03 9.3546673776270374e-13 
8.6421439559715690e-03 5.2502719162318776e-03 9.3546673752830487e-13 
1.7155636757370654e-02 6.9908971408615319e-03 -1.3884900698167598e-13 
1.7155636699527129e-02 6.9909008416095160e-03 -1.3884900753371216e-13 
2.7596122574883957e-02 8.3090795255878688e-03 -8.8292215748709250e-13 
2.7596134844133421e-02 8.3090880105425192e-03 -8.8292215793324951e-13 
3.9572462853159969e-02 9.1482414833143604e-03 -3.7057691442375640e-22 
3.9572467803073948e-02 9.1482430395621421e-03 -3.4027793318523223e-22 
5.1873661624782991e-02 9.3235005177587631e-03 2.2811937127450099e-13 
5.1873674601096549e-02 9.3235080522464046e-03 2.2811937093422305e-13 
6.4205804835286595e-02 9.4853931273270083e-03 5.9139589824949452e-13 
6.4205810303089444e-02 9.4853999427475504e-03 5.9139589817391442e-13 
7.6537389067824910e-02 9.3252029354046629e-03 3.8554615791776061e-13 
7.6537405481814674e-02 9.3252020570637160e-03 3.8554615778924091e-13 
8.8256907532269058e-02 8.9370383623071162e-03 -7.8073032988316081e-13 
8.8256916671818383e-02 8.9370327736046900e-03 -7.8073033027637826e-13 
9.9101730250705899e-02 8.7496572900631047e-03 5.2939559203393771e-22 
9.9101734076372433e-02 8.7496536897332736e-03 2.4205721805209925e-22 
1.0968798033028872e-01 8.7692594137522076e-03 1.4614369192405826e-12 
1.0968797797789159e-01 8.7692641833657537e-03 1.4614369192179420e-12 
1.2046836111386988e-01 8.9773314357142701e-03 1.6737042388961440e-12 
1.2046837971300677e-01 8.9773402134918270e-03 1.6737042392440803e-12 
1.3167873662623500e-01 9.0960669698734644e-03 -4.0456081967701371e-13 
1.3167873898770491e-01 9.0960642232040447e-03 -4.0456081959377518e-13 
1.4287032788340501e-01 9.0593389425784477e-03 -5.3207531840543062e-13 
1.4287034134507584e-01 9.0593457274858614e-03 -5.3207531832219204e-13 
1.5397629271291149e-01 9.0476774076646629e-03 -3.9704669402545328e-22 
1.5397629305048030e-01 9.0476630611496661e-03 -3.1380815358353534e-22 
1.5404142635323917e-01 3.4837255935815537e-03 7.9409338805090657e-23 
1.5404142892417319e-01 3.4837266125234329e-03 7.1851325088264320e-22 
1.5415515860568649e-01 -2.0736453561155063e-03 2.6469779601696886e-22 
1.5415516419042821e-01 -2.0736420159704881e-03 6.3910391207755254e-22 
1.5419752186966437e-01 -7.7244579617224921e-03 -2.2499312661442353e-22 
1.5419752115713606e-01 -7.7244490868270121e-03 9.6473430242766384e-23 
-1.4549993154755470e-16 1.1015494072452725e-16 6.0218748593860415e-22 
-1.6320969806310883e-16 6.5456740782676904e-17 4.8359395691758334e-22 
2.8126460544985335e-03 -2.9645019447432194e-03 -3.7810496727837396e-13 
2.8126389960379077e-03 -2.9645042194790241e-03 -3.7810496712338448e-13 
8.6472785331696660e-03 -5.2465734233133141e-03 -2.9622765348293106e-13 
8.6472828321965192e-03 -5.2465755545242623e-03 -2.9622765287795532e-13 
1.7191100843580834e-02 -6.9208464569210414e-03 2.2801277792586040e-13 
1.7191101386339072e-02 -6.9208462949653989e-03 2.2801277842495702e-13 
2.7601464559568020e-02 -8.2179982660166000e-03 9.3848263089483272e-13 
2.7601468939136734e-02 -8.2179941256867832e-03 9.3848263097041291e-13 
3.9582667416590549e-02 -8.8511697280612301e-03 3.0298981238524170e-23 
3.9582667841638247e-02 -8.8511756728999972e-03 2.1175823681357508e-22 
5.1928117535558330e-02 -8.9310614160882963e-03 3.1065872041375377e-13 
5.1928128040459980e-02 -8.9310641719471569e-03 3.1065872075403171e-13 
6.4185728740277379e-02 -8.8824376859537504e-03 -6.1668099901201679e-13 
6.4185719015460455e-02 -8.8824366366956863e-03 -6.1668099883055758e-13 
7.6592761774125120e-02 -8.5708903634103533e-03 1.4941407225648389e-13 
7.6592763102223557e-02 -8.5708890330544844e-03 1.4941407212030580e-13 
8.8229340800464268e-02 -8.0131035022645725e-03 1.1686846841330646e-12 
8.8229341636242534e-02 -8.0131053017081129e-03 1.1686846845262822e-12 
9.9123788906292712e-02 -7.5296635549818511e-03 -1.8225855908802580e-21 
9.9123803333234714e-02 -7.5296639707667506e-03 -1.7999450129153882e-21 
1.0974868747311643e-01 -7.4716403872729115e-03 -9.5347723925924021e-13 
1.0974869430354239e-01 -7.4716413899454763e-03 -9.5347723944835781e-13 
1.2050342323382085e-01 -7.6408425245202086e-03 -7.1819904819647552e-13 
1.2050340936187548e-01 -7.6408427561188352e-03 -7.1819904865029102e-13 
1.3177616459956998e-01 -7.7485545383416121e-03 -8.5198838342737139e-15 
1.3177616630262545e-01 -7.7485688235186482e-03 -8.5198841557402710e-15 
1.4288727041704893e-01 -7.6638554041783069e-03 9.9596923458913851e-13 
1.4288726211161301e-01 -7.6638612099786769e-03 9.9596923453236981e-13 

