# vtk DataFile Version 2.0

ASCII

DATASET UNSTRUCTURED_GRID

POINTS 33 float 

-5.0000000000000003e-02  3.3333333335000000e-02  1.4999999999999997e-01
-5.0000000000000003e-02  9.9999999985000018e-02  1.4999999999999999e-01
-5.0000000000000003e-02  1.6666666665000002e-01  1.4999999999999999e-01
-5.0000000000000003e-02  2.3333333334999998e-01  1.4999999999999999e-01
-5.0000000000000003e-02  2.9999999999999993e-01  1.4999999999999997e-01
-5.0000000000000003e-02  3.6666666665000003e-01  1.4999999999999999e-01
-5.0000000000000003e-02  4.3333333335000002e-01  1.4999999999999999e-01
-5.0000000000000003e-02  5.0000000000000000e-01  1.4999999999999997e-01
-5.0000000000000003e-02  5.6666666664999987e-01  1.4999999999999999e-01
-5.0000000000000003e-02  6.3333333334999986e-01  1.4999999999999999e-01
-5.0000000000000003e-02  6.9999999999999984e-01  1.4999999999999997e-01
-5.0000000000000003e-02  7.6666666664999994e-01  1.4999999999999999e-01
-4.9999999999999996e-02  8.3333333334999982e-01  1.4999999999999999e-01
-5.0000000000000003e-02  8.9999999999999991e-01  1.4999999999999997e-01
-5.0000000000000003e-02  9.6666666664999990e-01  1.4999999999999999e-01
-3.3333333335000000e-02  9.9999999999999978e-01  1.4999999999999997e-01
0.0000000000000000e+00  1.0000000000000000e+00  1.4999999999999997e-01
3.3333333335000007e-02  1.0000000000000000e+00  1.4999999999999999e-01
5.0000000000000003e-02  3.3333333335000000e-02  1.4999999999999999e-01
5.0000000000000003e-02  9.9999999985000004e-02  1.4999999999999999e-01
5.0000000000000003e-02  1.6666666664999999e-01  1.4999999999999999e-01
5.0000000000000003e-02  2.3333333334999998e-01  1.4999999999999999e-01
5.0000000000000003e-02  2.9999999999999993e-01  1.4999999999999997e-01
5.0000000000000003e-02  3.6666666665000003e-01  1.4999999999999999e-01
5.0000000000000003e-02  4.3333333334999991e-01  1.4999999999999999e-01
5.0000000000000003e-02  5.0000000000000000e-01  1.4999999999999997e-01
5.0000000000000003e-02  5.6666666664999987e-01  1.4999999999999999e-01
5.0000000000000003e-02  6.3333333334999997e-01  1.4999999999999999e-01
5.0000000000000003e-02  6.9999999999999984e-01  1.4999999999999997e-01
5.0000000000000003e-02  7.6666666664999994e-01  1.4999999999999999e-01
5.0000000000000003e-02  8.3333333334999993e-01  1.4999999999999999e-01
5.0000000000000010e-02  8.9999999999999991e-01  1.4999999999999999e-01
5.0000000000000003e-02  9.6666666664999990e-01  1.4999999999999999e-01

CELLS 0 0


CELL_TYPES 0


POINT_DATA 33

VECTORS VertexNormals float

0.0000000000000000e+00 0.0000000000000000e+00 0.0000000000000000e+00 
0.0000000000000000e+00 0.0000000000000000e+00 0.0000000000000000e+00 
0.0000000000000000e+00 0.0000000000000000e+00 0.0000000000000000e+00 
0.0000000000000000e+00 0.0000000000000000e+00 0.0000000000000000e+00 
0.0000000000000000e+00 0.0000000000000000e+00 0.0000000000000000e+00 
0.0000000000000000e+00 0.0000000000000000e+00 0.0000000000000000e+00 
0.0000000000000000e+00 0.0000000000000000e+00 0.0000000000000000e+00 
0.0000000000000000e+00 0.0000000000000000e+00 0.0000000000000000e+00 
0.0000000000000000e+00 0.0000000000000000e+00 0.0000000000000000e+00 
0.0000000000000000e+00 0.0000000000000000e+00 0.0000000000000000e+00 
0.0000000000000000e+00 0.0000000000000000e+00 0.0000000000000000e+00 
0.0000000000000000e+00 0.0000000000000000e+00 0.0000000000000000e+00 
0.0000000000000000e+00 0.0000000000000000e+00 0.0000000000000000e+00 
0.0000000000000000e+00 0.0000000000000000e+00 0.0000000000000000e+00 
0.0000000000000000e+00 0.0000000000000000e+00 0.0000000000000000e+00 
0.0000000000000000e+00 0.0000000000000000e+00 0.0000000000000000e+00 
0.0000000000000000e+00 0.0000000000000000e+00 0.0000000000000000e+00 
0.0000000000000000e+00 0.0000000000000000e+00 0.0000000000000000e+00 
0.0000000000000000e+00 0.0000000000000000e+00 0.0000000000000000e+00 
0.0000000000000000e+00 0.0000000000000000e+00 0.0000000000000000e+00 
0.0000000000000000e+00 0.0000000000000000e+00 0.0000000000000000e+00 
0.0000000000000000e+00 0.0000000000000000e+00 0.0000000000000000e+00 
0.0000000000000000e+00 0.0000000000000000e+00 0.0000000000000000e+00 
0.0000000000000000e+00 0.0000000000000000e+00 0.0000000000000000e+00 
0.0000000000000000e+00 0.0000000000000000e+00 0.0000000000000000e+00 
0.0000000000000000e+00 0.0000000000000000e+00 0.0000000000000000e+00 
0.0000000000000000e+00 0.0000000000000000e+00 0.0000000000000000e+00 
0.0000000000000000e+00 0.0000000000000000e+00 0.0000000000000000e+00 
0.0000000000000000e+00 0.0000000000000000e+00 0.0000000000000000e+00 
0.0000000000000000e+00 0.0000000000000000e+00 0.0000000000000000e+00 
0.0000000000000000e+00 0.0000000000000000e+00 0.0000000000000000e+00 
0.0000000000000000e+00 0.0000000000000000e+00 0.0000000000000000e+00 
0.0000000000000000e+00 0.0000000000000000e+00 0.0000000000000000e+00 

VECTORS Stress float
2.4036495851893824e+02 -2.2011148930904727e+00 3.0231022346503758e-15 
2.4021895372762492e+02 -6.0150891423225827e-01 -4.3147676699816907e-15 
2.3985035735443097e+02 -2.3924817908861501e-02 7.9823891064951826e-15 
2.3925105433089291e+02 9.9001224152765688e-02 8.5158377053816642e-14 
2.3838566741842661e+02 1.3111471191529586e-01 6.9845718451060304e-14 
2.3718517040655070e+02 1.5873772922627238e-01 1.1165850117002255e-13 
2.3553410661158148e+02 1.9067762156041496e-01 1.5371586562093133e-13 
2.3324761126514636e+02 2.2613551595951431e-01 6.5530419964943236e-14 
2.3002215027611430e+02 2.6509969235412262e-01 9.3975817602477758e-14 
2.2532680552493406e+02 3.0833285144034273e-01 7.0341052602392255e-14 
2.1814977006083225e+02 3.5473564077387221e-01 2.4207229201062027e-14 
2.0706738949870802e+02 4.0083876385066780e-01 1.7607550620964218e-14 
1.8934833419245049e+02 4.5719627308416866e-01 -2.8691498226981918e-14 
1.5710151581674978e+02 5.6394289353102023e-01 -7.5880343043861432e-14 
8.6238191647426873e+01 6.2542484712126289e-01 -5.3734810663920907e-14 
3.5831074620702857e-01 4.2753801191704372e+02 -8.0201546925220075e-17 
2.1654657262447280e-01 4.7794451393797164e+02 1.2636828031553084e-18 
-7.3783225551486986e-01 4.5785822625423856e+02 -1.6529107549412280e-16 
1.3681615979941304e+02 -1.1120558348950649e+00 1.2292392181921426e-14 
1.3839928856605454e+02 -3.7787004634627114e-01 1.1680466074968418e-14 
1.4171390988173067e+02 -6.7747654526939996e-02 -1.9592220022926229e-14 
1.4705008042310700e+02 -1.4840104698605163e-02 -5.5243807825940096e-14 
1.5469478559756402e+02 -1.3784635171823247e-02 -3.6144491394415342e-14 
1.6505854238394801e+02 -1.2705637210309401e-02 -1.2572645540839152e-13 
1.7872810093020274e+02 -3.6953467564220521e-03 -1.6921101207858833e-13 
1.9657761554632918e+02 1.5910541925939901e-02 -6.6982164411520156e-14 
2.1981821762763337e+02 5.0613866820803016e-02 -8.8356291876763796e-14 
2.4945796581680548e+02 1.0861402676717494e-01 -6.5022653232364223e-14 
2.8678141507305122e+02 1.9957443972275710e-01 -3.9241210226562671e-14 
3.3891845377385164e+02 2.9670334718413349e-01 -4.2259111801472945e-14 
4.2065723195738923e+02 3.5065975277930483e-01 1.9743476992841225e-14 
5.3852910413289419e+02 4.4566748389311289e-01 7.6380671267849236e-14 
6.2855888958498713e+02 1.5037465316320102e+00 5.3757099322708350e-14 

