# vtk DataFile Version 2.0

ASCII

DATASET UNSTRUCTURED_GRID

POINTS 68 double 

-5.0000000000000003e-02  0.0000000000000000e+00  0.0000000000000000e+00
-5.0000000000000003e-02  6.6666666669999999e-02  0.0000000000000000e+00
-5.0000000000000003e-02  6.6666666669999999e-02  2.9999999999999999e-01
-5.0000000000000003e-02  0.0000000000000000e+00  2.9999999999999999e-01
-5.0000000000000003e-02  1.3333333330000000e-01  0.0000000000000000e+00
-5.0000000000000003e-02  1.3333333330000000e-01  2.9999999999999999e-01
-5.0000000000000003e-02  2.0000000000000001e-01  0.0000000000000000e+00
-5.0000000000000003e-02  2.0000000000000001e-01  2.9999999999999999e-01
-5.0000000000000003e-02  2.6666666670000000e-01  0.0000000000000000e+00
-5.0000000000000003e-02  2.6666666670000000e-01  2.9999999999999999e-01
-5.0000000000000003e-02  3.3333333329999998e-01  0.0000000000000000e+00
-5.0000000000000003e-02  3.3333333329999998e-01  2.9999999999999999e-01
-5.0000000000000003e-02  4.0000000000000002e-01  0.0000000000000000e+00
-5.0000000000000003e-02  4.0000000000000002e-01  2.9999999999999999e-01
-5.0000000000000003e-02  4.6666666670000001e-01  0.0000000000000000e+00
-5.0000000000000003e-02  4.6666666670000001e-01  2.9999999999999999e-01
-5.0000000000000003e-02  5.3333333329999999e-01  0.0000000000000000e+00
-5.0000000000000003e-02  5.3333333329999999e-01  2.9999999999999999e-01
-5.0000000000000003e-02  5.9999999999999998e-01  0.0000000000000000e+00
-5.0000000000000003e-02  5.9999999999999998e-01  2.9999999999999999e-01
-5.0000000000000003e-02  6.6666666669999997e-01  0.0000000000000000e+00
-5.0000000000000003e-02  6.6666666669999997e-01  2.9999999999999999e-01
-5.0000000000000003e-02  7.3333333329999995e-01  0.0000000000000000e+00
-5.0000000000000003e-02  7.3333333329999995e-01  2.9999999999999999e-01
-5.0000000000000003e-02  8.0000000000000004e-01  0.0000000000000000e+00
-5.0000000000000003e-02  8.0000000000000004e-01  2.9999999999999999e-01
-5.0000000000000003e-02  8.6666666670000003e-01  0.0000000000000000e+00
-5.0000000000000003e-02  8.6666666670000003e-01  2.9999999999999999e-01
-5.0000000000000003e-02  9.3333333330000001e-01  0.0000000000000000e+00
-5.0000000000000003e-02  9.3333333330000001e-01  2.9999999999999999e-01
-5.0000000000000003e-02  1.0000000000000000e+00  0.0000000000000000e+00
-5.0000000000000003e-02  1.0000000000000000e+00  2.9999999999999999e-01
-1.6666666670000000e-02  1.0000000000000000e+00  0.0000000000000000e+00
-1.6666666670000000e-02  1.0000000000000000e+00  2.9999999999999999e-01
1.6666666670000000e-02  1.0000000000000000e+00  0.0000000000000000e+00
1.6666666670000000e-02  1.0000000000000000e+00  2.9999999999999999e-01
5.0000000000000003e-02  1.0000000000000000e+00  0.0000000000000000e+00
5.0000000000000003e-02  1.0000000000000000e+00  2.9999999999999999e-01
5.0000000000000003e-02  0.0000000000000000e+00  0.0000000000000000e+00
5.0000000000000003e-02  0.0000000000000000e+00  2.9999999999999999e-01
5.0000000000000003e-02  6.6666666669999999e-02  2.9999999999999999e-01
5.0000000000000003e-02  6.6666666669999999e-02  0.0000000000000000e+00
5.0000000000000003e-02  1.3333333330000000e-01  2.9999999999999999e-01
5.0000000000000003e-02  1.3333333330000000e-01  0.0000000000000000e+00
5.0000000000000003e-02  2.0000000000000001e-01  2.9999999999999999e-01
5.0000000000000003e-02  2.0000000000000001e-01  0.0000000000000000e+00
5.0000000000000003e-02  2.6666666670000000e-01  2.9999999999999999e-01
5.0000000000000003e-02  2.6666666670000000e-01  0.0000000000000000e+00
5.0000000000000003e-02  3.3333333329999998e-01  2.9999999999999999e-01
5.0000000000000003e-02  3.3333333329999998e-01  0.0000000000000000e+00
5.0000000000000003e-02  4.0000000000000002e-01  2.9999999999999999e-01
5.0000000000000003e-02  4.0000000000000002e-01  0.0000000000000000e+00
5.0000000000000003e-02  4.6666666670000001e-01  2.9999999999999999e-01
5.0000000000000003e-02  4.6666666670000001e-01  0.0000000000000000e+00
5.0000000000000003e-02  5.3333333329999999e-01  2.9999999999999999e-01
5.0000000000000003e-02  5.3333333329999999e-01  0.0000000000000000e+00
5.0000000000000003e-02  5.9999999999999998e-01  2.9999999999999999e-01
5.0000000000000003e-02  5.9999999999999998e-01  0.0000000000000000e+00
5.0000000000000003e-02  6.6666666669999997e-01  2.9999999999999999e-01
5.0000000000000003e-02  6.6666666669999997e-01  0.0000000000000000e+00
5.0000000000000003e-02  7.3333333329999995e-01  2.9999999999999999e-01
5.0000000000000003e-02  7.3333333329999995e-01  0.0000000000000000e+00
5.0000000000000003e-02  8.0000000000000004e-01  2.9999999999999999e-01
5.0000000000000003e-02  8.0000000000000004e-01  0.0000000000000000e+00
5.0000000000000003e-02  8.6666666670000003e-01  2.9999999999999999e-01
5.0000000000000003e-02  8.6666666670000003e-01  0.0000000000000000e+00
5.0000000000000003e-02  9.3333333330000001e-01  2.9999999999999999e-01
5.0000000000000003e-02  9.3333333330000001e-01  0.0000000000000000e+00

CELLS 0 0


CELL_TYPES 0


POINT_DATA 68

VECTORS VertexNormals double

0.0000000000000000e+00 0.0000000000000000e+00 0.0000000000000000e+00 
0.0000000000000000e+00 0.0000000000000000e+00 0.0000000000000000e+00 
0.0000000000000000e+00 0.0000000000000000e+00 0.0000000000000000e+00 
0.0000000000000000e+00 0.0000000000000000e+00 0.0000000000000000e+00 
0.0000000000000000e+00 0.0000000000000000e+00 0.0000000000000000e+00 
0.0000000000000000e+00 0.0000000000000000e+00 0.0000000000000000e+00 
0.0000000000000000e+00 0.0000000000000000e+00 0.0000000000000000e+00 
0.0000000000000000e+00 0.0000000000000000e+00 0.0000000000000000e+00 
0.0000000000000000e+00 0.0000000000000000e+00 0.0000000000000000e+00 
0.0000000000000000e+00 0.0000000000000000e+00 0.0000000000000000e+00 
0.0000000000000000e+00 0.0000000000000000e+00 0.0000000000000000e+00 
0.0000000000000000e+00 0.0000000000000000e+00 0.0000000000000000e+00 
0.0000000000000000e+00 0.0000000000000000e+00 0.0000000000000000e+00 
0.0000000000000000e+00 0.0000000000000000e+00 0.0000000000000000e+00 
0.0000000000000000e+00 0.0000000000000000e+00 0.0000000000000000e+00 
0.0000000000000000e+00 0.0000000000000000e+00 0.0000000000000000e+00 
0.0000000000000000e+00 0.0000000000000000e+00 0.0000000000000000e+00 
0.0000000000000000e+00 0.0000000000000000e+00 0.0000000000000000e+00 
0.0000000000000000e+00 0.0000000000000000e+00 0.0000000000000000e+00 
0.0000000000000000e+00 0.0000000000000000e+00 0.0000000000000000e+00 
0.0000000000000000e+00 0.0000000000000000e+00 0.0000000000000000e+00 
0.0000000000000000e+00 0.0000000000000000e+00 0.0000000000000000e+00 
0.0000000000000000e+00 0.0000000000000000e+00 0.0000000000000000e+00 
0.0000000000000000e+00 0.0000000000000000e+00 0.0000000000000000e+00 
0.0000000000000000e+00 0.0000000000000000e+00 0.0000000000000000e+00 
0.0000000000000000e+00 0.0000000000000000e+00 0.0000000000000000e+00 
0.0000000000000000e+00 0.0000000000000000e+00 0.0000000000000000e+00 
0.0000000000000000e+00 0.0000000000000000e+00 0.0000000000000000e+00 
0.0000000000000000e+00 0.0000000000000000e+00 0.0000000000000000e+00 
0.0000000000000000e+00 0.0000000000000000e+00 0.0000000000000000e+00 
0.0000000000000000e+00 0.0000000000000000e+00 0.0000000000000000e+00 
0.0000000000000000e+00 0.0000000000000000e+00 0.0000000000000000e+00 
0.0000000000000000e+00 0.0000000000000000e+00 0.0000000000000000e+00 
0.0000000000000000e+00 0.0000000000000000e+00 0.0000000000000000e+00 
0.0000000000000000e+00 0.0000000000000000e+00 0.0000000000000000e+00 
0.0000000000000000e+00 0.0000000000000000e+00 0.0000000000000000e+00 
0.0000000000000000e+00 0.0000000000000000e+00 0.0000000000000000e+00 
0.0000000000000000e+00 0.0000000000000000e+00 0.0000000000000000e+00 
0.0000000000000000e+00 0.0000000000000000e+00 0.0000000000000000e+00 
0.0000000000000000e+00 0.0000000000000000e+00 0.0000000000000000e+00 
0.0000000000000000e+00 0.0000000000000000e+00 0.0000000000000000e+00 
0.0000000000000000e+00 0.0000000000000000e+00 0.0000000000000000e+00 
0.0000000000000000e+00 0.0000000000000000e+00 0.0000000000000000e+00 
0.0000000000000000e+00 0.0000000000000000e+00 0.0000000000000000e+00 
0.0000000000000000e+00 0.0000000000000000e+00 0.0000000000000000e+00 
0.0000000000000000e+00 0.0000000000000000e+00 0.0000000000000000e+00 
0.0000000000000000e+00 0.0000000000000000e+00 0.0000000000000000e+00 
0.0000000000000000e+00 0.0000000000000000e+00 0.0000000000000000e+00 
0.0000000000000000e+00 0.0000000000000000e+00 0.0000000000000000e+00 
0.0000000000000000e+00 0.0000000000000000e+00 0.0000000000000000e+00 
0.0000000000000000e+00 0.0000000000000000e+00 0.0000000000000000e+00 
0.0000000000000000e+00 0.0000000000000000e+00 0.0000000000000000e+00 
0.0000000000000000e+00 0.0000000000000000e+00 0.0000000000000000e+00 
0.0000000000000000e+00 0.0000000000000000e+00 0.0000000000000000e+00 
0.0000000000000000e+00 0.0000000000000000e+00 0.0000000000000000e+00 
0.0000000000000000e+00 0.0000000000000000e+00 0.0000000000000000e+00 
0.0000000000000000e+00 0.0000000000000000e+00 0.0000000000000000e+00 
0.0000000000000000e+00 0.0000000000000000e+00 0.0000000000000000e+00 
0.0000000000000000e+00 0.0000000000000000e+00 0.0000000000000000e+00 
0.0000000000000000e+00 0.0000000000000000e+00 0.0000000000000000e+00 
0.0000000000000000e+00 0.0000000000000000e+00 0.0000000000000000e+00 
0.0000000000000000e+00 0.0000000000000000e+00 0.0000000000000000e+00 
0.0000000000000000e+00 0.0000000000000000e+00 0.0000000000000000e+00 
0.0000000000000000e+00 0.0000000000000000e+00 0.0000000000000000e+00 
0.0000000000000000e+00 0.0000000000000000e+00 0.0000000000000000e+00 
0.0000000000000000e+00 0.0000000000000000e+00 0.0000000000000000e+00 
0.0000000000000000e+00 0.0000000000000000e+00 0.0000000000000000e+00 
0.0000000000000000e+00 0.0000000000000000e+00 0.0000000000000000e+00 

VECTORS Displacement double
-8.0491169285323849e-16 -8.4134088584875144e-17 -2.3971694151786742e-21 
3.8740077150139583e-03 3.2378376398125137e-03 -4.5748322138764535e-13 
3.8739984508966555e-03 3.2378361380853127e-03 -4.5748321906182672e-13 
-2.7122465636851240e-17 4.1405602550499344e-17 -1.3088129550328455e-21 
1.0239140387394489e-02 5.1448719970578691e-03 -1.1477730562180550e-13 
1.0239148757029887e-02 5.1448800315235877e-03 -1.1477730571135424e-13 
1.8340347780445323e-02 6.2839512916274655e-03 3.1652453132813337e-13 
1.8340350731664106e-02 6.2839568184780504e-03 3.1652453131799399e-13 
2.7522192347840809e-02 6.8115935617992264e-03 9.3032737043743596e-13 
2.7522213227159843e-02 6.8115848938294773e-03 9.3032737042729654e-13 
3.6993563974931858e-02 6.8336498204452124e-03 1.3234889800848443e-22 
3.6993564808777663e-02 6.8336438575683492e-03 4.2800165878801774e-23 
4.6178964813420195e-02 6.5032848308455415e-03 -3.1549639114299263e-13 
4.6178957210959222e-02 6.5032839532199859e-03 -3.1549639123254134e-13 
5.4837006853186876e-02 5.9312305328643143e-03 -3.5873175205592412e-13 
5.4837005696838297e-02 5.9312414157878047e-03 -3.5873175201312393e-13 
6.2324798428277622e-02 5.0707265913312117e-03 9.1125610419270515e-14 
6.2324802594536641e-02 5.0707336018479742e-03 9.1125610726768471e-14 
6.8459911603581558e-02 4.3169220057936736e-03 8.4379988313689574e-13 
6.8459926733959633e-02 4.3169246483637279e-03 8.4379988320616566e-13 
7.3753085466223195e-02 3.7555598299954373e-03 -2.0381730293306602e-21 
7.3753090007382754e-02 3.7555608970897963e-03 -2.0483124226552523e-21 
7.7985955182707553e-02 3.1842436513255983e-03 -8.5224621481608427e-13 
7.7985959388956944e-02 3.1842490712485775e-03 -8.5224621499827726e-13 
8.1680185249607393e-02 2.9190055143438424e-03 -4.6548297140297951e-14 
8.1680183058142883e-02 2.9190069378943117e-03 -4.6548297256316463e-14 
8.4953162692275791e-02 2.7757529609381960e-03 6.2444097730383601e-13 
8.4953161649738623e-02 2.7757643467459124e-03 6.2444097734663614e-13 
8.7995849731505510e-02 2.7173028253873310e-03 1.1171051213105033e-12 
8.7995872606999495e-02 2.7173040251730735e-03 1.1171051212540418e-12 
9.0924779908335904e-02 2.7889331726609103e-03 -1.1580528575742387e-21 
9.0924766535453116e-02 2.7889155959687456e-03 -9.4981656918483153e-22 
9.0917734437772610e-02 1.1761096701127143e-03 -8.1394572275217923e-22 
9.0917728041215062e-02 1.1761109765585018e-03 -9.2334678958313464e-22 
9.0922438411661935e-02 -4.1041776183714149e-04 -8.9997250645769411e-22 
9.0922440105857455e-02 -4.1041290812464978e-04 -9.6305145898567997e-22 
9.0930442076312804e-02 -1.9324140381263098e-03 -9.7276440036236055e-22 
9.0930447158831321e-02 -1.9324168915617762e-03 -9.6966890388610419e-22 
-5.5511151231257827e-17 8.6736173798840355e-17 -9.7772748403767871e-22 
-4.7939147348572925e-17 1.5849943717893382e-16 -1.0573500488167251e-21 
3.9612762861408425e-03 -3.2620223686039449e-03 5.7097933580058780e-13 
3.9612788230191549e-03 -3.2620281228198825e-03 5.7097933567176088e-13 
1.0308231769340296e-02 -5.1487591209847727e-03 3.1457800693591889e-13 
1.0308235387698391e-02 -5.1487526400014767e-03 3.1457800698576294e-13 
1.8458228587342699e-02 -6.3036275831991010e-03 -2.0502266756720238e-13 
1.8458221961410136e-02 -6.3036192503855126e-03 -2.0502266750412342e-13 
2.7608566609527197e-02 -6.9734647120603946e-03 -1.5796029216192857e-12 
2.7608556200807478e-02 -6.9734685023931115e-03 -1.5796029214767974e-12 
3.7093809527394120e-02 -6.9707439479284256e-03 -2.6306475738925838e-21 
3.7093802434045364e-02 -6.9707461824498034e-03 -2.4616895029578104e-21 
4.6316156388476630e-02 -6.6987252936271642e-03 8.9218406700550402e-13 
4.6316169106871204e-02 -6.6987328229062750e-03 8.9218406714799235e-13 
5.4903472746841736e-02 -6.0769075928944890e-03 3.6119661620175908e-13 
5.4903472249315070e-02 -6.0769038327878029e-03 3.6119661613248912e-13 
6.2371591907224508e-02 -5.1059313266218027e-03 2.8839288707629758e-13 
6.2371604609545675e-02 -5.1059255613665911e-03 2.8839288705996717e-13 
6.8532471129252981e-02 -4.2822141336362500e-03 -6.2380854835491514e-14 
6.8532449363907566e-02 -4.2822117533310618e-03 -6.2380854931231233e-14 
7.3784605913655849e-02 -3.4986781360673430e-03 -3.5424652814665151e-22 
7.3784609579862492e-02 -3.4986863327273283e-03 -3.1763735522036263e-22 
7.8060015844691202e-02 -2.8395470363846869e-03 2.7606736312582897e-13 
7.8060006488674324e-02 -2.8395509929405750e-03 2.7606736309626368e-13 
8.1705829607813543e-02 -2.4900438833013938e-03 1.1901955510356201e-13 
8.1705831051156724e-02 -2.4900510452084846e-03 1.1901955527252008e-13 
8.5057206341233857e-02 -2.2274831555332813e-03 -3.5904975646448270e-13 
8.5057213098703177e-02 -2.2274766019042260e-03 -3.5904975637493399e-13 
8.8006663358403320e-02 -1.9611775702254915e-03 -9.2793195300755154e-13 
8.8006647736802973e-02 -1.9611731581110929e-03 -9.2793195293123767e-13 

