/*--------------------------------*- C++ -*----------------------------------*\
| =========                 |                                                 |
| \\      /  F ield         | OpenFOAM: The Open Source CFD Toolbox           |
|  \\    /   O peration     | Version:  2006                                  |
|   \\  /    A nd           | Website:  www.openfoam.com                      |
|    \\/     M anipulation  |                                                 |
\*---------------------------------------------------------------------------*/
FoamFile
{
    version     2.0;
    format      ascii;
    class       surfaceScalarField;
    location    "0.2";
    object      meshPhi;
}
// * * * * * * * * * * * * * * * * * * * * * * * * * * * * * * * * * * * * * //

dimensions      [0 3 -1 0 0 0 0];
oriented        oriented;


internalField   nonuniform List<scalar> 
5457
(
1.43824e-06
6.86003e-09
3.24797e-06
2.25286e-08
5.97943e-06
4.57826e-08
1.02852e-05
8.43589e-08
1.69829e-05
1.48677e-07
2.71116e-05
2.53322e-07
4.19468e-05
4.1845e-07
6.29778e-05
6.70894e-07
9.18365e-05
1.0448e-06
0.000130172
1.58144e-06
0.000179473
2.32789e-06
0.000240829
3.3342e-06
0.000314673
4.64903e-06
0.000400488
6.31416e-06
0.000496541
8.35886e-06
0.000599662
1.07962e-05
0.000705117
1.36241e-05
0.000806629
1.68348e-05
0.000896594
2.04346e-05
0.000966566
2.44726e-05
0.00100803
2.90691e-05
0.00101345
3.44235e-05
0.000977557
4.07702e-05
0.000898745
4.8255e-05
0.000780322
5.67316e-05
0.000631456
6.55464e-05
0.000467361
7.3476e-05
0.000308868
7.90708e-05
0.000185571
8.17205e-05
7.94459e-05
1.36493e-06
1.32475e-08
3.09737e-06
4.35802e-08
5.72742e-06
8.8751e-08
9.89077e-06
1.63834e-07
1.63932e-05
2.89219e-07
2.62648e-05
4.93534e-07
4.0778e-05
8.16401e-07
6.14278e-05
1.31064e-06
8.98652e-05
2.04355e-06
0.000127777
3.09656e-06
0.000176709
4.56253e-06
0.000237837
6.54015e-06
0.000311706
9.12507e-06
0.000397944
1.23986e-05
0.000494993
1.6416e-05
0.000599889
2.11982e-05
0.000708127
2.67324e-05
0.000813677
3.29898e-05
0.000909176
3.99645e-05
0.000986394
4.77328e-05
0.00103696
5.6518e-05
0.00105337
6.67214e-05
0.00103026
7.88592e-05
0.000965705
9.33419e-05
0.000862721
0.00011008
0.000730554
0.000128039
0.000585659
0.000145075
0.000451734
0.000158659
0.000360034
0.000167926
0.000171072
1.30531e-06
1.91907e-08
2.97463e-06
6.32217e-08
5.52128e-06
1.28953e-07
9.56786e-06
2.38327e-07
1.59111e-05
4.21119e-07
2.5576e-05
7.1919e-07
3.98364e-05
1.19049e-06
6.02007e-05
1.91229e-06
8.83503e-05
2.98292e-06
0.000126026
4.52126e-06
0.000174859
6.66255e-06
0.000236152
9.54981e-06
0.000310621
1.33204e-05
0.000398121
1.80887e-05
0.000497386
2.39276e-05
0.000605809
3.08546e-05
0.000719307
3.8831e-05
0.000832326
4.77853e-05
0.00093801
5.76694e-05
0.00102861
6.85506e-05
0.00109614
8.072e-05
0.0011333
9.47685e-05
0.00113461
0.000111543
0.00109766
0.000131881
0.00102462
0.000156066
0.00092388
0.000183133
0.000811437
0.000210496
0.000710817
0.000234713
0.000650877
0.000253707
0.00026568
1.26962e-06
2.47789e-08
2.89992e-06
8.16958e-08
5.39459e-06
1.66745e-07
9.36905e-06
3.08255e-07
1.56156e-05
5.44698e-07
2.51588e-05
9.30137e-07
3.92799e-05
1.53933e-06
5.9507e-05
2.47173e-06
8.75603e-05
3.85365e-06
0.000125247
5.83716e-06
0.000174304
8.59431e-06
0.000236186
1.23054e-05
0.000311826
1.71409e-05
0.00040137
2.32376e-05
0.000503933
3.06732e-05
0.000617387
3.94457e-05
0.000738239
4.94697e-05
0.000861612
6.06019e-05
0.0009814
7.27122e-05
0.00109061
8.58049e-05
0.0011819
0.000100175
0.00124841
0.00011655
0.00128461
0.000136102
0.00128746
0.000160209
0.00125773
0.000189812
0.00120166
0.000224451
0.00113245
0.000261436
0.00107001
0.000296156
0.0010381
0.000324017
0.000341776
1.2355e-06
2.99841e-08
2.82729e-06
9.88866e-08
5.27056e-06
2.01833e-07
9.17405e-06
3.72967e-07
1.53261e-05
6.58626e-07
2.47521e-05
1.12381e-06
3.8743e-05
1.85816e-06
5.88507e-05
2.98058e-06
8.68424e-05
4.6414e-06
0.000124604
7.02056e-06
0.000173996
1.032e-05
0.000236656
1.47485e-05
0.000313773
2.04987e-05
0.000405844
2.7717e-05
0.00051244
3.64703e-05
0.000632017
4.67185e-05
0.000761794
5.83044e-05
0.000897742
7.09789e-05
0.0010347
8.448e-05
0.00116665
9.86773e-05
0.00128716
0.000113776
0.00139
0.000130533
0.00146978
0.000150374
0.00152278
0.000175248
0.00154797
0.000206986
0.00154856
0.000246085
0.00153374
0.00029018
0.00151881
0.000333223
0.00152263
0.000366598
0.000385575
1.20275e-06
3.47905e-08
2.75676e-06
1.14725e-07
5.14929e-06
2.34025e-07
8.98252e-06
4.32025e-07
1.5041e-05
7.61987e-07
2.43513e-05
1.29841e-06
3.82149e-05
2.14365e-06
5.82099e-05
3.43288e-06
8.61538e-05
5.33602e-06
0.000124019
8.05489e-06
0.0001738
1.18134e-05
0.000237334
1.68392e-05
0.000316092
2.33352e-05
0.000410953
3.14434e-05
0.000521993
4.12039e-05
0.00064831
5.25186e-05
0.000787917
6.51332e-05
0.000937727
7.86562e-05
0.00109365
9.26387e-05
0.00125082
0.000106732
0.00140392
0.000120931
0.00154757
0.000135867
0.00167677
0.000153065
0.0017872
0.000174962
0.00187589
0.00020441
0.00194237
0.000243338
0.00199055
0.000290556
0.0020297
0.000339563
0.00207193
0.00037842
0.00039449
1.17133e-06
3.91973e-08
2.68848e-06
1.29194e-07
5.03091e-06
2.63251e-07
8.7942e-06
4.85229e-07
1.47587e-05
8.54316e-07
2.39517e-05
1.45297e-06
3.76846e-05
2.39396e-06
5.75611e-05
3.82537e-06
8.54494e-05
5.93201e-06
0.000123409
8.93134e-06
0.00017357
1.30613e-05
0.000237975
1.85583e-05
0.000318382
2.56241e-05
0.000416062
3.43831e-05
0.000531606
4.48333e-05
0.000664768
5.68012e-05
0.000814369
6.99123e-05
0.000978291
8.35992e-05
0.00115355
9.71719e-05
0.0013365
0.000109976
0.00152305
0.000121658
0.00170888
0.000132535
0.00188961
0.000143999
0.00206067
0.000158778
0.00221726
0.000180707
0.0023548
0.000213488
0.00247052
0.000258003
0.00256495
0.000308713
0.00264044
0.000351911
0.000385142
1.14133e-06
4.32199e-08
2.62272e-06
1.42334e-07
4.91576e-06
2.89565e-07
8.60907e-06
5.32625e-07
1.4478e-05
9.35613e-07
2.35491e-05
1.58738e-06
3.71416e-05
2.60879e-06
5.68822e-05
4.15746e-06
8.46853e-05
6.4285e-06
0.000122692
9.64887e-06
0.000173164
1.40629e-05
0.000238337
1.99067e-05
0.000320248
2.73707e-05
0.000420542
3.65504e-05
0.000540302
4.73904e-05
0.000679902
5.96284e-05
0.00083893
7.27536e-05
0.00101617
8.5997e-05
0.00120969
9.83818e-05
0.00141698
0.000108865
0.00163515
0.000116606
0.00186103
0.000121394
0.00209111
0.000124204
0.00232101
0.000127764
0.0025447
0.000136736
0.00275386
0.00015681
0.0029382
0.000191678
0.00308683
0.000237578
0.00318977
0.000278556
0.000297729
1.11298e-06
4.68907e-08
2.55994e-06
1.54245e-07
4.80446e-06
3.13143e-07
8.42759e-06
5.74498e-07
1.41985e-05
1.00633e-06
2.31408e-05
1.70238e-06
3.65781e-05
2.78932e-06
5.61545e-05
4.43114e-06
8.38238e-05
6.82891e-06
0.000121798
1.02136e-05
0.000172454
1.48291e-05
0.000238205
2.09038e-05
0.000321334
2.86085e-05
0.000423824
3.80024e-05
0.000547196
4.89699e-05
0.000692373
6.11548e-05
0.0008596
7.39034e-05
0.00104843
8.62329e-05
0.0012578
9.68501e-05
0.00148615
0.000104257
0.00173157
0.000106995
0.00199191
0.000104098
0.00226463
9.57918e-05
0.00254605
8.44096e-05
0.00283006
7.51797e-05
0.00310618
7.603e-05
0.00335773
9.48327e-05
0.0035612
0.000132491
0.00369063
0.000174061
0.000194267
1.08659e-06
5.02585e-08
2.50081e-06
1.65081e-07
4.69801e-06
3.34279e-07
8.25095e-06
6.11361e-07
1.3921e-05
1.06734e-06
2.27261e-05
1.79941e-06
3.59895e-05
2.93801e-06
5.53657e-05
4.6506e-06
8.28369e-05
7.14037e-06
0.000120671
1.06375e-05
0.00017134
1.53802e-05
0.000237402
2.15831e-05
0.000321349
2.93926e-05
0.000425446
3.88281e-05
0.000551574
4.97134e-05
0.0007011
6.16017e-05
0.000874783
7.37034e-05
0.00107275
8.48278e-05
0.00129455
9.33608e-05
0.00153921
9.73121e-05
0.00180545
9.44998e-05
0.00209174
8.29724e-05
0.00239626
6.18042e-05
0.00271636
3.23488e-05
0.00304719
-2.25024e-07
0.0033792
-2.59687e-05
0.00369386
-3.18524e-05
0.00395872
-9.43068e-06
0.00412991
3.1087e-05
8.51713e-05
1.06261e-06
5.33876e-08
2.44627e-06
1.75045e-07
4.59788e-06
3.53375e-07
8.08117e-06
6.43923e-07
1.36479e-05
1.11985e-06
2.2307e-05
1.88056e-06
3.5376e-05
3.05841e-06
5.45111e-05
4.82177e-06
8.17098e-05
7.37277e-06
0.000119277
1.0937e-05
0.000169755
1.57428e-05
0.000235809
2.19878e-05
0.000320091
2.97915e-05
0.000425083
3.91347e-05
0.000552937
4.97864e-05
0.000705339
6.1222e-05
0.000883402
7.25367e-05
0.0010876
8.23601e-05
0.00131777
8.87847e-05
0.00157316
8.93373e-05
0.00185253
8.10588e-05
0.00215432
6.08236e-05
0.00247677
2.61083e-05
0.00281785
-2.35428e-05
0.00317479
-8.42718e-05
0.00354214
-0.000145461
0.00390651
-0.00018929
0.00423511
-0.000197312
0.00446576
-0.000169454
-0.000147404
1.04161e-06
5.63574e-08
2.39753e-06
1.84394e-07
4.50612e-06
3.70928e-07
7.9213e-06
6.73074e-07
1.33834e-05
1.16542e-06
2.18889e-05
1.94845e-06
3.47433e-05
3.15486e-06
5.3595e-05
4.95188e-06
8.04427e-05
7.53797e-06
0.000117608
1.11313e-05
0.000167671
1.59477e-05
0.000233368
2.21659e-05
0.000317458
2.98795e-05
0.000422566
3.90351e-05
0.000551023
4.93582e-05
0.000704714
6.02669e-05
0.000884937
7.07749e-05
0.0010923
7.93815e-05
0.00132664
8.39509e-05
0.00158698
8.15964e-05
0.00187155
6.86229e-05
0.0021779
4.06599e-05
0.00250317
-6.76321e-06
0.00284461
-7.68201e-05
0.0032004
-0.000168788
0.00357014
-0.000274257
0.00395174
-0.000373499
0.0043264
-0.000436603
0.00462642
-0.000440313
-0.000373381
1.0243e-06
5.92604e-08
2.35615e-06
1.93424e-07
4.42539e-06
3.87521e-07
7.77554e-06
6.99845e-07
1.31337e-05
1.20579e-06
2.14803e-05
2.00603e-06
3.41029e-05
3.2323e-06
5.26321e-05
5.04899e-06
7.90524e-05
7.64893e-06
0.00011568
1.12409e-05
0.000165105
1.60267e-05
0.000230091
2.21662e-05
0.00031345
2.97296e-05
0.000417884
3.86367e-05
0.000545815
4.8584e-05
0.000699213
5.89582e-05
0.000879426
6.87336e-05
0.00108701
7.63453e-05
0.00132158
7.95282e-05
0.0015816
7.512e-05
0.00186426
5.8858e-05
0.00216544
2.52789e-05
0.00247985
-3.20439e-05
0.00280174
-0.000119511
0.00312678
-0.000241219
0.00345529
-0.00039495
0.00379458
-0.000566646
0.00415074
-0.000725462
0.00448739
-0.000827897
-0.000820013
1.01156e-06
6.22006e-08
2.32401e-06
2.02466e-07
4.35899e-06
4.03798e-07
7.64921e-06
7.25374e-07
1.29071e-05
1.24291e-06
2.10936e-05
2.05652e-06
3.34725e-05
3.29594e-06
5.16468e-05
5.12143e-06
7.75723e-05
7.71875e-06
0.000113538
1.1286e-05
0.000162113
1.60104e-05
0.000226052
2.20339e-05
0.000308167
2.94072e-05
0.000411175
3.80318e-05
0.000537513
4.75908e-05
0.000689146
5.74664e-05
0.000867366
6.66381e-05
0.00107257
7.35505e-05
0.00130401
7.59285e-05
0.00155943
7.05254e-05
0.00183477
5.28069e-05
0.00212379
1.66471e-05
0.00241791
-4.57771e-05
0.00270632
-0.000143534
0.0029778
-0.000285408
0.00322431
-0.000476761
0.00344577
-0.000714491
0.00364983
-0.000979731
0.00383205
-0.0012261
-0.0014382
1.00439e-06
6.53239e-08
2.30325e-06
2.11979e-07
4.31063e-06
4.20623e-07
7.54826e-06
7.5112e-07
1.27126e-05
1.27915e-06
2.07423e-05
2.10365e-06
3.28715e-05
3.35154e-06
5.06666e-05
5.17792e-06
7.60399e-05
7.76036e-06
0.000111233
1.12853e-05
0.000158765
1.59253e-05
0.000221343
2.18057e-05
0.000301736
2.89613e-05
0.000402619
3.72834e-05
0.000526382
4.64564e-05
0.000674914
5.5882e-05
0.000849379
6.45849e-05
0.00104997
7.10875e-05
0.00127554
7.32251e-05
0.0015232
6.78761e-05
0.00178765
5.06e-05
0.00206076
1.52406e-05
0.00233089
-4.63419e-05
0.00258187
-0.000144097
0.00279413
-0.000288609
0.00294697
-0.00048821
0.0030214
-0.000743506
0.00300219
-0.00103847
0.00289097
-0.00131801
-0.00159628
0.000254671
-0.000177646
0.000431384
-0.000156252
0.000638708
-0.000139675
0.000837089
-0.000121262
0.00100372
-0.000103327
0.00112385
-8.57864e-05
0.00119148
-6.8698e-05
0.00120772
-5.25936e-05
0.00117839
-3.81687e-05
0.00111186
-2.59747e-05
0.00101761
-1.62725e-05
0.000905173
-9.02572e-06
0.000783476
-3.9742e-06
0.000660323
-7.3054e-07
0.00054207
1.13183e-06
0.00043345
2.01503e-06
0.000337551
2.25985e-06
0.000255933
2.13103e-06
0.00018885
1.81828e-06
0.000135547
1.44624e-06
9.4577e-05
1.08842e-06
6.41079e-05
7.81559e-07
4.21834e-05
5.38127e-07
2.69206e-05
3.56341e-07
1.66412e-05
2.27308e-07
9.93836e-06
1.39711e-07
5.69017e-06
8.25066e-08
3.03379e-06
4.61902e-08
1.31001e-06
2.30781e-08
7.02549e-09
0.000453678
-0.000280198
0.000604761
-0.000269632
0.000785204
-0.000251202
0.000958887
-0.000224676
0.00110275
-0.000194542
0.00120227
-0.000162674
0.00125178
-0.000130563
0.00125263
-9.99134e-05
0.0012106
-7.23468e-05
0.00113394
-4.9026e-05
0.00103183
-3.0483e-05
0.000913531
-1.66552e-05
0.000787627
-7.04252e-06
0.00066161
-8.99548e-07
0.000541543
2.59454e-06
0.000431898
4.21369e-06
0.000335541
4.61394e-06
0.000253844
4.30505e-06
0.000186914
3.65212e-06
0.000133886
2.8947e-06
9.32344e-05
2.17358e-06
6.30758e-05
1.55835e-06
4.14249e-05
1.0718e-06
2.63863e-05
7.09161e-07
1.62804e-05
4.52102e-07
9.7054e-06
2.77757e-07
5.54831e-06
1.6399e-07
2.95617e-06
9.18171e-08
1.27854e-06
4.59166e-08
1.39978e-08
0.000782519
-0.000347791
0.000911787
-0.000351762
0.00105634
-0.000335857
0.00118931
-0.000306196
0.00129251
-0.000268079
0.00135424
-0.000225202
0.00137031
-0.000180842
0.00134266
-0.000138098
0.00127713
-9.95599e-05
0.00118164
-6.6969e-05
0.00106489
-4.10967e-05
0.000935544
-2.18541e-05
0.000801562
-8.53435e-06
0.000669846
-8.71057e-08
0.000545924
4.64362e-06
0.000433806
6.74841e-06
0.000335969
7.15271e-06
0.000253477
6.57641e-06
0.000186198
5.53529e-06
0.00013309
4.3674e-06
9.25026e-05
3.27049e-06
6.24723e-05
2.34099e-06
4.09636e-05
1.6086e-06
2.60546e-05
1.06387e-06
1.60545e-05
6.7817e-07
9.55959e-06
4.16717e-07
5.46021e-06
2.46138e-07
2.90868e-06
1.3792e-07
1.25949e-06
6.90714e-08
2.10906e-08
0.00120559
-0.000428003
0.00131692
-0.000418693
0.00142129
-0.000399881
0.00150326
-0.000366335
0.0015532
-0.000321753
0.0015645
-0.000270282
0.00153557
-0.000216454
0.0014694
-0.000164476
0.00137198
-0.000117679
0.00125088
-7.8208e-05
0.00111414
-4.69748e-05
0.000969597
-2.3844e-05
0.00082439
-7.93786e-06
0.00068462
2.03187e-06
0.0005551
7.4794e-06
0.000439226
9.73976e-06
0.00033897
9.94777e-06
0.000254993
8.98769e-06
0.000186856
7.4936e-06
0.00013329
5.88054e-06
9.24867e-05
4.38981e-06
6.23758e-05
3.13677e-06
4.08549e-05
2.15368e-06
2.59628e-05
1.42412e-06
1.59873e-05
9.08073e-07
9.51539e-06
5.58342e-07
5.43391e-06
3.30103e-07
2.89507e-06
1.85204e-07
1.2541e-06
9.29075e-08
2.84125e-08
0.00171473
-0.000468202
0.00179531
-0.000461812
0.00184977
-0.00044135
0.00187195
-0.000404461
0.00186003
-0.000354453
0.00181265
-0.000296346
0.00173116
-0.000235728
0.00161987
-0.000177534
0.00148503
-0.000125463
0.00133378
-8.17918e-05
0.00117341
-4.74268e-05
0.00101084
-2.21458e-05
0.000852257
-4.93465e-06
0.000702838
5.65983e-06
0.000566568
1.12245e-05
0.000446131
1.32579e-05
0.000342904
1.30366e-05
0.000257078
1.15571e-05
0.00018785
9.53469e-06
0.000133682
7.4365e-06
9.25774e-05
5.53165e-06
6.23367e-05
3.94506e-06
4.07764e-05
2.70635e-06
2.58865e-05
1.78941e-06
1.59282e-05
1.14151e-06
9.4753e-06
7.02497e-07
5.40959e-06
4.15842e-07
2.88214e-06
2.33668e-07
1.24877e-06
1.1743e-07
3.5965e-08
0.00228215
-0.000484048
0.00231681
-0.000485408
0.00231124
-0.000462568
0.00226692
-0.000421476
0.00218812
-0.000366204
0.00207795
-0.000303014
0.00194048
-0.000238196
0.00178121
-0.000176865
0.00160654
-0.000122611
0.00142315
-7.75159e-05
0.00123754
-4.23211e-05
0.00105565
-1.66791e-05
0.000882665
5.21678e-07
0.000722814
1.08205e-05
0.000579215
1.5888e-05
0.000453798
1.73031e-05
0.000347316
1.64144e-05
0.000259452
1.42779e-05
0.000189013
1.16518e-05
0.00013417
9.02944e-06
9.27206e-05
6.69147e-06
6.23261e-05
4.76265e-06
4.07134e-05
3.26451e-06
2.58189e-05
2.15846e-06
1.58742e-05
1.3778e-06
9.43828e-06
8.48844e-07
5.38706e-06
5.03216e-07
2.8701e-06
2.83267e-07
1.24373e-06
1.42631e-07
4.37475e-08
0.00286171
-0.000514382
0.00284426
-0.000497832
0.00277397
-0.000467698
0.00266025
-0.000419111
0.00251328
-0.000357711
0.00234016
-0.000290732
0.00214716
-0.000224335
0.00194059
-0.000163009
0.00172678
-0.00010966
0.00151181
-6.58598e-05
0.00130132
-3.20464e-05
0.00110033
-7.73728e-06
0.000913044
8.22002e-06
0.000742798
1.7367e-05
0.000591874
2.13695e-05
0.000461471
2.18071e-05
0.000351724
2.00352e-05
0.000261816
1.7119e-05
0.000190164
1.38238e-05
0.000134649
1.06453e-05
9.28577e-05
7.86007e-06
6.23126e-05
5.58371e-06
4.06501e-05
3.82461e-06
2.57526e-05
2.52925e-06
1.58221e-05
1.61584e-06
9.40326e-06
9.96844e-07
5.36617e-06
5.91993e-07
2.85912e-06
3.3392e-07
1.23919e-06
1.68488e-07
5.17567e-08
0.00341238
-0.000504398
0.00334333
-0.000495936
0.0032083
-0.000455989
0.00302587
-0.000397206
0.00281302
-0.000329277
0.00258052
-0.0002603
0.0023361
-0.000195313
0.00208626
-0.000137272
0.00183681
-8.78562e-05
0.0015931
-4.78801e-05
0.00135992
-1.74293e-05
0.00114141
4.07138e-06
0.000940975
1.7733e-05
0.000761132
2.5009e-05
0.000603432
2.74763e-05
0.000468417
2.66438e-05
0.00035566
2.38171e-05
0.00026388
2.00275e-05
0.00019113
1.6017e-05
0.000135016
1.22626e-05
9.29318e-05
9.0241e-06
6.2266e-05
6.4001e-06
4.05713e-05
4.38187e-06
2.56806e-05
2.89906e-06
1.57692e-05
1.85419e-06
9.36945e-06
1.14579e-06
5.34692e-06
6.81863e-07
2.84947e-06
3.85512e-07
1.23534e-06
1.94971e-07
5.9988e-08
0.00390441
-0.000514118
0.00378641
-0.000485469
0.00358804
-0.000425938
0.00334002
-0.000353525
0.00306699
-0.00028018
0.0027824
-0.000212494
0.00249422
-0.00015278
0.00220815
-0.000101582
0.00192906
-5.901e-05
0.00166141
-2.50846e-05
0.00140922
3.71699e-07
0.00117595
1.79056e-05
0.000964371
2.8475e-05
0.000776368
3.33512e-05
0.000612907
3.39478e-05
0.000473988
3.16444e-05
0.000358706
2.76519e-05
0.000265383
2.29348e-05
0.000191752
1.8188e-05
0.000135181
1.38544e-05
9.28927e-05
1.01671e-05
6.216e-05
7.20195e-06
4.04644e-05
4.93055e-06
2.55975e-05
3.26471e-06
1.57138e-05
2.09117e-06
9.33666e-06
1.29487e-06
5.32969e-06
7.72476e-07
2.84156e-06
4.37919e-07
1.23245e-06
2.22047e-07
6.84371e-08
0.00431945
-0.00050722
0.00414948
-0.000434978
0.00388804
-0.000359311
0.00358025
-0.000278978
0.00325691
-0.000207315
0.00293175
-0.00014768
0.00261098
-9.86989e-05
0.00229847
-5.8325e-05
0.00199776
-2.53272e-05
0.00171247
7.31428e-07
0.00144609
2.00022e-05
0.00120168
3.27949e-05
0.000981597
3.97753e-05
0.000787359
4.19429e-05
0.000619512
4.04873e-05
0.000477658
3.66167e-05
0.000360523
3.14168e-05
0.000266112
2.57632e-05
0.000191904
2.02885e-05
0.000135072
1.53909e-05
9.27012e-05
1.12708e-05
6.19754e-05
7.9785e-06
4.0321e-05
5.46448e-06
2.55006e-05
3.62282e-06
1.56555e-05
2.32504e-06
9.30558e-06
1.44326e-06
5.31534e-06
8.63487e-07
2.83611e-06
4.91029e-07
1.23091e-06
2.49697e-07
7.71048e-08
0.00462072
-0.00035102
0.00439726
-0.000315902
0.00407785
-0.000236403
0.00372335
-0.000163731
0.00336658
-0.000108093
0.0030177
-6.71699e-05
0.0026791
-3.5848e-05
0.00235221
-1.0418e-05
0.00203933
1.06923e-05
0.00174364
2.76293e-05
0.00146855
4.00445e-05
0.00121708
4.77417e-05
0.000991554
5.09515e-05
0.000793311
5.0327e-05
0.000622694
4.6794e-05
0.000479054
4.13655e-05
0.000360868
3.49868e-05
0.000265918
2.84337e-05
0.000191497
2.22689e-05
0.000134639
1.68417e-05
9.23331e-05
1.2317e-05
6.17017e-05
8.71902e-06
4.01381e-05
5.97758e-06
2.53901e-05
3.97008e-06
1.5596e-05
2.55413e-06
9.27805e-06
1.59019e-06
5.3054e-06
9.54617e-07
2.83415e-06
5.44777e-07
1.23126e-06
2.77928e-07
8.60011e-08
0.0047597
-0.000218347
0.0044802
-0.000105617
0.00412008
-4.30548e-05
0.00374646
-4.39401e-06
0.00338371
1.47378e-05
0.00303409
2.43107e-05
0.0026955
3.11942e-05
0.00236761
3.84341e-05
0.00205256
4.6289e-05
0.00175396
5.36403e-05
0.00147578
5.91284e-05
0.00122151
6.18077e-05
0.0009937
6.13695e-05
0.000793813
5.80802e-05
0.000622153
5.25885e-05
0.00047797
4.5709e-05
0.00035961
3.82448e-05
0.000264721
3.0872e-05
0.000190488
2.40831e-05
0.000133863
1.81784e-05
9.17818e-05
1.32888e-05
6.13394e-05
9.41361e-06
3.99192e-05
6.46433e-06
2.52706e-05
4.30362e-06
1.55394e-05
2.77707e-06
9.25729e-06
1.73512e-06
5.30219e-06
1.0457e-06
2.83718e-06
5.99172e-07
1.23421e-06
3.06791e-07
9.51499e-08
0.00462036
0.000234693
0.00431607
0.000250873
0.00397212
0.000225827
0.003633
0.000186787
0.00330443
0.000147714
0.00298181
0.000116508
0.00266212
9.55233e-05
0.00234635
8.37929e-05
0.00203855
7.86377e-05
0.00174403
7.69507e-05
0.00146805
7.6072e-05
0.001215
7.42127e-05
0.000988002
7.051e-05
0.000788801
6.48567e-05
0.000617831
5.7642e-05
0.000474365
4.94969e-05
0.000356724
4.1094e-05
0.000262514
3.30165e-05
0.000188881
2.56924e-05
0.000132753
1.93775e-05
9.10592e-05
1.41721e-05
6.09005e-05
1.00544e-05
3.9675e-05
6.92051e-06
2.51507e-05
4.62134e-06
1.54923e-05
2.99297e-06
9.24804e-06
1.87778e-06
5.30889e-06
1.13679e-06
2.84715e-06
6.54343e-07
1.24071e-06
3.36399e-07
1.04596e-07
0.00397043
0.000795404
0.00381943
0.000627918
0.00362031
0.000481745
0.00339242
0.000356024
0.00314181
0.00026075
0.00287165
0.000193256
0.00258656
0.000148567
0.00229342
0.000121077
0.00200043
0.000105225
0.00171574
9.6122e-05
0.00144648
9.00094e-05
0.00119824
8.44101e-05
0.000974863
7.80162e-05
0.000778523
7.04197e-05
0.000609886
6.17969e-05
0.000468348
5.26254e-05
0.000352291
4.34667e-05
0.000259358
3.48243e-05
0.000186724
2.70705e-05
0.000131348
2.04234e-05
9.01966e-05
1.49582e-05
6.04092e-05
1.06367e-05
3.94236e-05
7.3439e-06
2.50436e-05
4.92243e-06
1.5464e-05
3.20174e-06
9.25669e-06
2.01841e-06
5.32969e-06
1.22819e-06
2.86656e-06
7.1059e-07
1.25194e-06
3.66959e-07
1.14414e-07
0.00300313
0.000945082
0.0031423
0.000723337
0.00316622
0.000574868
0.00308661
0.00043453
0.00293227
0.000322421
0.00272495
0.000240054
0.00248139
0.00018357
0.0022163
0.000147109
0.00194272
0.000124527
0.00167187
0.000110393
0.0014128
0.000100533
0.00117231
9.21625e-05
0.000954975
8.37394e-05
0.000763433
7.4672e-05
0.000598623
6.49894e-05
0.000460127
5.50535e-05
0.000346458
4.53379e-05
0.000255359
3.62815e-05
0.000184095
2.82109e-05
0.000129707
2.13141e-05
8.92367e-05
1.56477e-05
5.98972e-05
1.11626e-05
3.91882e-05
7.737e-06
2.49659e-05
5.20935e-06
1.54661e-05
3.40554e-06
9.29114e-06
2.15875e-06
5.3697e-06
1.32124e-06
2.89846e-06
7.68822e-07
1.26934e-06
3.99007e-07
1.24783e-07
1.04086e-06
6.86005e-08
2.38098e-06
2.2187e-07
4.44271e-06
4.37819e-07
7.75606e-06
7.76783e-07
1.30259e-05
1.31401e-06
2.12004e-05
2.14672e-06
3.3524e-05
3.39821e-06
5.15747e-05
5.21748e-06
7.7278e-05
7.77293e-06
0.00011289
1.12388e-05
0.000160946
1.57728e-05
0.000224169
2.14851e-05
0.000305343
2.83986e-05
0.000407156
3.64017e-05
0.000531992
4.51937e-05
0.000681666
5.42162e-05
0.000857198
6.2572e-05
0.00105857
6.89197e-05
0.00128429
7.13116e-05
0.00153087
6.69479e-05
0.00179184
5.18336e-05
0.00205745
2.04213e-05
0.00231428
-3.45739e-05
0.00254169
-0.000121916
0.00271417
-0.000250494
0.00280418
-0.000426055
0.00278429
-0.000644825
0.00263556
-0.000883611
0.00237552
-0.00108082
-0.00112512
0.00177907
1.06665e-06
7.17785e-08
2.43276e-06
2.31355e-07
4.52266e-06
4.53933e-07
7.86582e-06
7.99967e-07
1.31629e-05
1.3438e-06
2.1353e-05
2.18027e-06
3.36655e-05
3.42828e-06
5.16558e-05
5.22985e-06
7.72179e-05
7.74353e-06
0.000112567
1.11309e-05
0.000160188
1.55357e-05
0.000222742
2.10544e-05
0.000302945
2.77018e-05
0.000403415
3.53706e-05
0.000526473
4.37879e-05
0.00067376
5.24523e-05
0.000846063
6.05649e-05
0.00104317
6.69611e-05
0.00126338
6.9987e-05
0.00150316
6.73142e-05
0.00175503
5.56392e-05
0.00200806
3.04243e-05
0.00225036
-1.40051e-05
0.0024607
-8.40711e-05
0.00261121
-0.000185527
0.00267747
-0.00032
0.00263975
-0.000479551
0.0024951
-0.000639607
0.00227751
-0.000748969
-0.000716409
0.0020534
1.09234e-06
7.46639e-08
2.48321e-06
2.39831e-07
4.59723e-06
4.67853e-07
7.96067e-06
8.18873e-07
1.32657e-05
1.36579e-06
2.14357e-05
2.2004e-06
3.3675e-05
3.43646e-06
5.15021e-05
5.20829e-06
7.67606e-05
7.66407e-06
0.0001116
1.09528e-05
0.00015842
1.52045e-05
0.000219782
2.05044e-05
0.000298286
2.68615e-05
0.000396432
3.41773e-05
0.000516532
4.22202e-05
0.000659953
5.05587e-05
0.000827092
5.8491e-05
0.00101762
6.504e-05
0.0012296
6.88698e-05
0.00146031
6.81941e-05
0.00170208
6.05348e-05
0.0019423
4.24425e-05
0.00217153
9.89026e-06
0.00237292
-4.11367e-05
0.00251966
-0.000113568
0.00259295
-0.000206281
0.0025838
-0.00031007
0.00249881
-0.000403955
0.0023715
-0.000450323
-0.000400719
0.00227062
1.11551e-06
7.71083e-08
2.527e-06
2.46841e-07
4.65702e-06
4.78751e-07
8.02525e-06
8.32195e-07
1.33103e-05
1.37807e-06
2.14125e-05
2.20448e-06
3.35004e-05
3.41933e-06
5.10413e-05
5.14864e-06
7.58086e-05
7.52981e-06
0.000109861
1.06993e-05
0.000155485
1.47746e-05
0.000215103
1.98305e-05
0.00029114
2.58722e-05
0.000385877
3.28054e-05
0.000501767
4.04501e-05
0.000640011
4.84733e-05
0.000800213
5.62542e-05
0.00098198
6.29701e-05
0.00118343
6.76175e-05
0.00140236
6.88876e-05
0.00163239
6.50336e-05
0.00186064
5.36875e-05
0.00207762
3.22067e-05
0.00227189
-1.66383e-06
0.00242291
-4.89885e-05
0.00251578
-0.000107745
0.00254645
-0.000170174
0.00252327
-0.000220796
0.00247354
-0.000235612
-0.000193727
0.00244455
1.13397e-06
7.89634e-08
2.55936e-06
2.5193e-07
4.69367e-06
4.8582e-07
8.04615e-06
8.38681e-07
1.32762e-05
1.37884e-06
2.12533e-05
2.19006e-06
3.30995e-05
3.37379e-06
5.02159e-05
5.04716e-06
7.42879e-05
7.33657e-06
0.00010726
1.03662e-05
0.00015128
1.42416e-05
0.000208599
1.90294e-05
0.00028144
2.47336e-05
0.000371805
3.1272e-05
0.00048212
3.84942e-05
0.000613632
4.61388e-05
0.000765341
5.37072e-05
0.000936662
6.05421e-05
0.00112612
6.59034e-05
0.00133087
6.88389e-05
0.00154587
6.81366e-05
0.00176097
6.23276e-05
0.00196631
4.98538e-05
0.0021526
2.95262e-05
0.00230628
1.1888e-06
0.00241612
-3.3162e-05
0.00247875
-6.79531e-05
0.00250083
-9.32038e-05
0.00250128
-9.5376e-05
-6.66035e-05
0.00250575
1.14568e-06
8.01115e-08
2.57587e-06
2.54743e-07
4.69966e-06
4.88439e-07
8.01152e-06
8.37414e-07
1.31459e-05
1.36685e-06
2.09333e-05
2.1556e-06
3.24383e-05
3.29803e-06
4.89828e-05
4.90199e-06
7.21463e-05
7.08264e-06
0.00010374
9.95205e-06
0.00014575
1.36047e-05
0.000200241
1.81002e-05
0.000269228
2.34444e-05
0.000354532
2.95741e-05
0.000458074
3.63522e-05
0.000581014
4.35493e-05
0.00072268
5.0803e-05
0.000882186
5.76306e-05
0.00105805
6.34646e-05
0.00124705
6.76267e-05
0.00144463
6.93125e-05
0.0016435
6.76198e-05
0.00183509
6.16784e-05
0.00201091
5.09379e-05
0.0021613
3.55963e-05
0.00227818
1.72101e-05
0.00235822
-6.44104e-07
0.00240481
-1.21779e-05
0.00242854
-1.04042e-05
7.25407e-06
0.00244154
1.14886e-06
8.0434e-08
2.57277e-06
2.5493e-07
4.66883e-06
4.86036e-07
7.91226e-06
8.27607e-07
1.29068e-05
1.34116e-06
2.04362e-05
2.1001e-06
3.1498e-05
3.19128e-06
4.7322e-05
4.71289e-06
6.93677e-05
6.76881e-06
9.92965e-05
9.45919e-06
0.000138914
1.2868e-05
0.000190084
1.70481e-05
0.000254607
2.20065e-05
0.000334122
2.76925e-05
0.00043003
3.39902e-05
0.000543205
4.07102e-05
0.000673413
4.75751e-05
0.000819634
5.42255e-05
0.00098013
6.02414e-05
0.00115193
6.5145e-05
0.00133079
6.8405e-05
0.00151081
6.94714e-05
0.00168506
6.78668e-05
0.00184624
6.33581e-05
0.00198688
5.62029e-05
0.00210065
4.74521e-05
0.00218405
3.92094e-05
0.00223763
3.45763e-05
0.00226593
3.69409e-05
4.6969e-05
0.00227478
1.1419e-06
7.98349e-08
2.54684e-06
2.5222e-07
4.59621e-06
4.78196e-07
7.74165e-06
8.08757e-07
1.25508e-05
1.30129e-06
1.97539e-05
2.02332e-06
3.0273e-05
3.05385e-06
4.52359e-05
4.48127e-06
6.59703e-05
6.39815e-06
9.3975e-05
8.89304e-06
0.000130864
1.20396e-05
0.000178284
1.58844e-05
0.000237806
2.04348e-05
0.000310822
2.56493e-05
0.000398423
3.14321e-05
0.000501205
3.76285e-05
0.000618949
4.40218e-05
0.000750651
5.03409e-05
0.000894527
5.62747e-05
0.0010478
6.14827e-05
0.00120663
6.56084e-05
0.00136605
6.83087e-05
0.0015203
6.9313e-05
0.00166327
6.85205e-05
0.00178884
6.61295e-05
0.00189174
6.27744e-05
0.00196838
5.96049e-05
0.00201755
5.81858e-05
0.00204036
6.00903e-05
6.53858e-05
0.00204063
1.12369e-06
7.82781e-08
2.49598e-06
2.46526e-07
4.4789e-06
4.64838e-07
7.49654e-06
7.80903e-07
1.20757e-05
1.24758e-06
1.88876e-05
1.92623e-06
2.87722e-05
2.88776e-06
4.27477e-05
4.21073e-06
6.20027e-05
5.97659e-06
8.78655e-05
8.26256e-06
0.000121751
1.11324e-05
0.000165082
1.46263e-05
0.000219195
1.87509e-05
0.00028523
2.34721e-05
0.000364017
2.87106e-05
0.000455912
3.43402e-05
0.00056062
4.01894e-05
0.000677136
4.60489e-05
0.000803712
5.16837e-05
0.000937766
5.68445e-05
0.00107586
6.12824e-05
0.00121375
6.47707e-05
0.00134657
6.71407e-05
0.00146917
6.83346e-05
0.00157647
6.84677e-05
0.00166396
6.78851e-05
0.00172822
6.71742e-05
0.00176732
6.70868e-05
0.00178083
6.83317e-05
7.08401e-05
0.00177252
1.0937e-06
7.57624e-08
2.41934e-06
2.3787e-07
4.31632e-06
4.4609e-07
7.17765e-06
7.44431e-07
1.14855e-05
1.18094e-06
1.7848e-05
1.81059e-06
2.70183e-05
2.69618e-06
3.99013e-05
3.90652e-06
5.75419e-05
5.51224e-06
8.10956e-05
7.57965e-06
0.000111777
1.0163e-05
0.000150789
1.32959e-05
0.000199232
1.69841e-05
0.000258009
2.11985e-05
0.000327715
2.58732e-05
0.000408513
3.09047e-05
0.00050001
3.6155e-05
0.000601195
4.14588e-05
0.000710392
4.66334e-05
0.000825233
5.14896e-05
0.000942669
5.58438e-05
0.00105904
5.95338e-05
0.00117023
6.24395e-05
0.00127193
6.45105e-05
0.00135991
6.57943e-05
0.00143037
6.64575e-05
0.0014803
6.67799e-05
0.00150773
6.71071e-05
0.00151179
6.77529e-05
6.86545e-05
0.00149681
1.05192e-06
7.23303e-08
2.31727e-06
2.26409e-07
4.10994e-06
4.22329e-07
6.78915e-06
7.00128e-07
1.07898e-05
1.10285e-06
1.66541e-05
1.67905e-06
2.50469e-05
2.48349e-06
3.67578e-05
3.57551e-06
5.26891e-05
5.01536e-06
7.38256e-05
6.85899e-06
0.000101187
9.15154e-06
0.000135764
1.19205e-05
0.000178436
1.51696e-05
0.000229887
1.88739e-05
0.00029051
2.29778e-05
0.000360307
2.73956e-05
0.000438806
3.20146e-05
0.000524998
3.67014e-05
0.00061731
4.13104e-05
0.000713603
4.56924e-05
0.000811198
4.97047e-05
0.000906964
5.32219e-05
0.000997453
5.6148e-05
0.0010791
5.84308e-05
0.00114844
6.00741e-05
0.00120239
6.11444e-05
0.00123847
6.1764e-05
0.00125502
6.20855e-05
0.00125128
6.22483e-05
6.22289e-05
0.00123204
9.98919e-07
6.80675e-08
2.19135e-06
2.12433e-07
3.86346e-06
3.94165e-07
6.33876e-06
6.49145e-07
1.00034e-05
1.01536e-06
1.53331e-05
1.535e-06
2.29042e-05
2.25507e-06
3.33937e-05
3.22586e-06
4.75651e-05
4.49787e-06
6.624e-05
6.11732e-06
9.02545e-05
8.12091e-06
0.000120401
1.05302e-05
0.000157359
1.33468e-05
0.000201619
1.65486e-05
0.000253405
2.00884e-05
0.000312596
2.38943e-05
0.000378665
2.78734e-05
0.000450631
3.19164e-05
0.000527049
3.59048e-05
0.000606021
3.97177e-05
0.000685234