/*--------------------------------*- C++ -*----------------------------------*\
| =========                 |                                                 |
| \\      /  F ield         | OpenFOAM: The Open Source CFD Toolbox           |
|  \\    /   O peration     | Version:  2006                                  |
|   \\  /    A nd           | Website:  www.openfoam.com                      |
|    \\/     M anipulation  |                                                 |
\*---------------------------------------------------------------------------*/
FoamFile
{
    version     2.0;
    format      ascii;
    class       volScalarField;
    location    "0.2";
    object      p;
}
// * * * * * * * * * * * * * * * * * * * * * * * * * * * * * * * * * * * * * //

dimensions      [0 2 -2 0 0 0 0];


internalField   nonuniform List<scalar> 
2790
(
67.2424
67.1306
67.3548
67.861
68.5571
69.4126
70.4256
71.5952
72.9173
74.3861
75.9957
77.7396
79.6104
81.5991
83.6953
85.8859
88.1554
90.4848
92.8509
95.2261
97.5772
99.8662
102.05
104.085
105.924
107.526
108.858
109.898
110.621
111.109
67.0449
67.0439
67.2933
67.7969
68.4896
69.3425
70.3517
71.5163
72.8324
74.2944
75.8966
77.6327
79.4955
81.4763
83.5648
85.7484
88.012
90.3372
92.7017
95.0783
97.435
99.7342
101.934
103.989
105.854
107.485
108.847
109.919
110.655
111.168
66.8572
66.9263
67.1954
67.6895
68.3703
69.2119
70.2081
71.3571
72.6551
74.0969
75.6769
77.3888
79.2255
81.1788
83.2385
85.3929
87.6275
89.9249
92.2641
94.6195
96.9609
99.2525
101.454
103.521
105.407
107.068
108.461
109.563
110.301
110.814
66.6486
66.7489
67.0312
67.5178
68.1854
69.0126
69.9917
71.1199
72.3934
73.8072
75.3556
77.0324
78.8306
80.742
82.757
84.8644
87.0505
89.2993
91.5914
93.9031
96.2067
98.4689
100.651
102.712
104.603
106.278
107.688
108.805
109.524
110.001
66.4094
66.5241
66.8158
67.2962
67.9492
68.7577
69.7142
70.815
72.0564
73.4331
74.9396
76.5696
78.3161
80.1711
82.1252
84.1677
86.286
88.4651
90.6875
92.932
95.1733
97.3814
99.5211
101.552
103.428
105.1
106.512
107.634
108.335
108.773
66.1353
66.2562
66.5512
67.0233
67.6585
68.4438
69.3722
70.4396
71.6417
72.9734
74.4288
76.0016
77.6844
79.4694
81.3474
83.308
85.3392
87.4276
89.557
91.7086
93.8602
95.9852
98.0523
100.024
101.859
103.507
104.908
106.035
106.733
107.163
65.8245
65.9469
66.24
66.7008
67.3157
68.074
68.9695
69.9977
71.1539
72.4328
73.8281
75.3333
76.9408
78.6425
80.4292
82.2907
84.2156
86.1911
88.2027
90.2338
92.2647
94.2728
96.2313
98.1084
99.8666
101.463
102.837
103.969
104.693
105.181
65.4765
65.5975
65.8846
66.3311
66.9228
67.6504
68.5083
69.4918
70.5958
71.8144
73.1412
74.5689
76.0899
77.6954
79.376
81.1214
82.9203
84.7603
86.628
88.508
90.3833
92.2348
94.0405
95.7756
97.4107
98.9135
100.233
101.363
102.132
102.732
65.0917
65.2094
65.4874
65.9166
66.4821
67.1755
67.9916
68.9253
69.971
71.1225
72.3726
73.7138
75.1375
76.6345
78.1947
79.8073
81.4606
83.142
84.838
86.5341
88.2146
89.8629
91.4616
92.993
94.4387
95.7828
96.9931
98.0889
98.9054
99.6971
64.6711
64.7842
65.0505
65.4595
65.9962
66.6522
67.4224
68.3016
69.2836
70.3616
71.5278
72.7738
74.0904
75.4674
76.8937
78.3575
79.8461
81.3457
82.8419
84.3193
85.762
87.1538
88.4798
89.7277
90.8902
91.9711
92.9678
93.9434
94.7549
95.7533
64.2161
64.3235
64.576
64.9626
65.4678
66.0834
66.8043
67.6247
68.5381
69.5369
70.6125
71.7558
72.9564
74.2029
75.483
76.7832
78.089
79.3847
80.6535
81.8771
83.0367
84.1134
85.09
85.9546
86.7054
87.3638
87.9629
88.6351
89.3039
90.5298
63.7284
63.8294
64.0665
64.4284
64.8999
65.4725
66.1408
66.8988
67.7393
68.6539
69.6334
70.6673
71.7441
72.8511
73.9741
75.0976
76.2047
77.2764
78.2919
79.2282
80.0602
80.7612
81.3046
81.6683
81.8424
81.8488
81.7465
81.7538
81.9347
83.2613
63.2099
63.3038
63.5242
63.8598
64.2954
64.8227
65.4359
66.1284
66.8924
67.7187
68.5971
69.5162
70.4629
71.4229
72.3799
73.3161
74.211
75.0418
75.7824
76.4023
76.8667
77.1351
77.1622
76.8999
76.3038
75.3564
74.0875
72.761
71.6568
72.6859
62.6627
62.7491
62.9517
63.2595
63.6577
64.1377
64.6935
65.318
66.0026
66.7374
67.5112
68.3112
69.123
69.9304
70.7149
71.4557
72.1288
72.7065
73.1559
73.4377
73.5038
73.2947
72.7361
71.7348
70.1761
67.9313
64.8661
61.0579
56.768
55.7497
62.0892
62.1677
62.3517
62.6305
62.9899
63.4212
63.9179
64.4725
65.0756
65.7165
66.3829
67.061
67.7346
68.3858
68.9937
69.5345
69.9803
70.298
70.4478
70.38
70.0317
69.321
68.1373
66.3277
63.6715
59.843
54.3199
46.379
34.5811
22.3822
-92.6394
-93.2791
-94.5567
-96.4717
-99.0554
-102.215
-105.738
-109.264
-112.299
-114.245
-114.478
-112.462
-107.883
-100.699
-91.226
-80.1021
-68.1432
-56.1789
-44.9054
-34.8035
-26.1292
-18.4754
-11.8047
-6.67504
-2.95826
-0.420033
1.14018
1.89052
1.96066
1.45614
-92.6238
-93.3187
-94.6816
-96.6831
-99.3945
-102.715
-106.427
-110.16
-113.398
-115.517
-115.873
-113.917
-109.338
-102.102
-92.5419
-81.3081
-69.224
-57.1243
-45.7117
-35.4757
-26.6754
-18.892
-12.135
-6.96159
-3.1973
-0.614816
0.984853
1.77146
1.87714
1.44382
-93.0103
-93.8641
-95.4209
-97.6262
-100.585
-104.183
-108.201
-112.25
-115.788
-118.157
-118.672
-116.761
-112.119
-104.706
-94.8922
-83.3712
-70.9977
-58.6242
-46.9647
-36.5165
-27.493
-19.4911
-12.6094
-7.35333
-3.51491
-0.86877
0.785977
1.62345
1.77951
1.42932
-93.9495
-95.0263
-96.8307
-99.3266
-102.639
-106.643
-111.108
-115.619
-119.596
-122.326
-123.07
-121.216
-116.448
-108.721
-98.4704
-86.4623
-73.6055
-60.7851
-48.7368
-37.9643
-28.5793
-20.2666
-13.2457
-7.87616
-3.94125
-1.2133
0.513485
1.41891
1.64301
1.39094
-95.5685
-96.8902
-98.9616
-101.813
-105.572
-110.101
-115.152
-120.273
-124.825
-128.026
-129.058
-127.251
-122.28
-114.086
-103.213
-90.5213
-76.9954
-63.5666
-50.996
-39.7771
-29.905
-21.2094
-14.0277
-8.51785
-4.46439
-1.63638
0.179044
1.16848
1.47667
1.33478
-97.9619
-99.5056
-101.84
-105.091
-109.376
-114.541
-120.314
-126.193
-131.465
-135.248
-136.62
-134.829
-129.546
-120.716
-109.026
-95.4571
-81.0866
-66.9021
-53.6849
-41.8832
-31.4102
-22.3082
-14.9398
-9.26723
-5.07698
-2.13332
-0.214823
0.872773
1.27954
1.25786
-101.147
-102.821
-105.391
-109.071
-113.943
-119.843
-126.464
-133.243
-139.374
-143.85
-145.605
-143.784
-138.047
-128.413
-115.727
-101.107
-85.7439
-70.6825
-56.7121
-44.1611
-33.0207
-23.5575
-15.9647
-10.1091
-5.76778
-2.69581
-0.661993
0.536078
1.05434
1.16071
-104.9
-106.609
-109.391
-113.514
-119.026
-125.745
-133.326
-141.14
-148.265
-153.532
-155.698
-153.783
-147.453
-136.862
-123.033
-107.233
-90.7773
-74.7507
-59.9061
-46.4893
-34.7188
-24.9193
-17.0765
-11.0245
-6.52299
-3.3139
-1.15538
0.163138
0.803814
1.04378
-108.833
-110.469
-113.453
-118.035
-124.227
-131.834
-140.473
-149.436
-157.674
-163.82
-166.409
-164.333
-157.272
-145.616
-130.574
-113.531
-95.9468
-78.8987
-63.0467
-48.7774
-36.4967
-26.3429
-18.2414
-11.9903
-7.32623
-3.9758
-1.68654
-0.240221
0.53153
0.908413
-112.265
-113.839
-117.06
-122.121
-129.026
-137.567
-147.323
-157.512
-166.948
-174.033
-177.033
-174.746
-166.842
-154.108
-137.911
-119.652
-100.963
-82.8282
-65.9852
-51.0223
-38.2602
-27.7677
-19.4207
-12.9802
-8.15889
-4.66815
-2.24583
-0.66729
0.241637
0.756618
-114.608
-116.142
-119.652
-125.207
-132.836
-142.31
-153.185
-164.608
-175.262
-183.284
-186.643
-184.147
-175.406
-161.726
-144.56
-125.244
-105.45
-86.3061
-68.6449
-53.0882
-39.9126
-29.131
-20.5728
-13.9658
-9.00074
-5.37625
-2.82258
-1.11054
-0.0611523
0.591067
-115.263
-116.907
-120.747
-126.775
-135.106
-145.426
-157.312
-169.837
-181.552
-190.338
-193.96
-191.522
-182.304
-167.997
-149.961
-129.823
-109.081
-89.1071
-70.8309
-54.8371
-41.3614
-30.3705
-21.6557
-14.9175
-9.83054
-6.08445
-3.40524
-1.56172
-0.371569
0.415065
-114.082
-115.862
-120.101
-126.633
-135.535
-146.587
-159.297
-172.698
-185.243
-194.627
-198.56
-196.239
-186.955
-172.165
-153.538
-132.758
-111.444
-90.9925
-72.3729
-56.1491
-42.524
-31.4296
-22.6296
-15.8069
-10.6271
-6.77675
-3.98177
-2.01204
-0.683855
0.232527
-111.014
-112.963
-117.686
-124.704
-134.127
-145.752
-159.045
-173.017
-186.045
-195.763
-199.885
-197.528
-188.226
-173.408
-154.687
-133.766
-112.328
-91.792
-73.1442
-56.9329
-43.3357
-32.2622
-23.4611
-16.6089
-11.3712
-7.43821
-4.54078
-2.45319
-0.992538
0.0474018
-105.799
-108.595
-113.869
-121.258
-131.112
-143.136
-156.705
-170.801
-183.786
-193.415
-197.34
-195.084
-186.124
-171.698
-153.338
-132.749
-111.636
-91.4191
-73.0753
-57.1341
-43.7545
-32.8356
-24.1242
-17.3026
-12.0461
-8.05597
-5.07266
-2.87842
-1.29354
-0.137406
61.4802
61.5505
61.7148
61.9633
62.2822
62.6629
63.0983
63.5803
64.099
64.6429
65.1987
65.7511
66.2827
66.7735
67.2003
67.5362
67.7496
67.8021
67.6467
67.2238
66.4557
65.2381
63.4244
60.7997
57.0289
51.5516
43.3016
30.024
4.19856
-67.2549
60.8288
60.8903
61.0341
61.2506
61.5272
61.855
62.2265
62.6332
63.0645
63.508
63.9495
64.3725
64.7583
65.0848
65.3269
65.4547
65.433
65.2189
64.7592
63.9858
62.8092
61.1084
58.7117
55.3654
50.673
43.9756
34.0775
18.9435
-3.22864
-35.4386
60.1401
60.1925
60.3149
60.4984
60.7312
61.0045
61.3105
61.64
61.9819
62.323
62.6483
62.9403
63.1788
63.3404
63.3979
63.3192
63.0662
62.5927
61.8411
60.7381
59.188
57.0634
54.1884
50.3135
45.0807
37.9831
28.3459
15.4475
-0.156675
-18.0417
59.4154
59.4585
59.5589
59.7086
59.8966
60.1144
60.3537
60.6049
60.8563
61.0943
61.303
61.4641
61.5563
61.555
61.4317
61.1526
60.6779
59.9596
58.9383
57.5396
55.6681
53.2016
49.979
45.7887
40.3597
33.367
24.4669
13.2769
-0.36827
-16.9281
58.6565
58.6901
58.7681
58.8834
59.0261
59.1878
59.3599
59.5324
59.6934
59.8287
59.9219
59.9539
59.9029
59.7437
59.4467
58.9775
58.296
57.354
56.0931
54.4414
52.3102
49.5897
46.1433
41.8034
36.3716
29.6221
21.314
11.1519
-1.13103
-15.351
57.8655
57.8895
57.9449
58.0257
58.1229
58.2283
58.3334
58.4278
58.4993
58.5335
58.5136
58.4203
58.2314
57.9215
57.461
56.8159
55.9466
54.8068
53.3412
51.4839
49.1562
46.2644
42.698
38.3285
33.0117
26.592
18.9154
9.84291
-0.693323
-12.3012
57.045
57.0594
57.0923
57.1386
57.1905
57.2403
57.2792
57.2968
57.2807
57.2166
57.0875
56.8742
56.5547
56.1037
55.4926
54.6884
53.6536
52.3449
50.7121
48.6971
46.2331
43.2436
39.643
35.3375
30.2292
24.2233
17.2426
9.24608
0.235075
-9.48508
56.1979
56.2028
56.2135
56.2257
56.2331
56.2283
56.2025
56.1454
56.0447
55.8861
55.6531
55.3267
54.8855
54.3052
53.5583
52.6141
51.4378
49.9905
48.228
46.1013
43.5557
40.5318
36.9664
32.7952
27.9572
22.4014
16.0961
9.03945
1.25186
-7.02029
55.3278
55.3234
55.3123
55.2912
55.2552
55.1973
55.109
54.9801
54.7986
54.5506
54.2201
53.7888
53.2363
52.5397
51.6734
50.6094
49.3165
47.7606
45.9045
43.7082
41.1288
38.1222
34.6445
30.6547
26.1185
21.013
15.3326
9.09596
2.3389
-4.73215
54.4384
54.425
54.3927
54.3395
54.2616
54.1527
54.0046
53.8076
53.55
53.2185
52.7979
52.271
51.6186
50.8198
49.8512
48.688
47.3029
45.6674
43.7508
41.5218
38.9485
35.9998
32.6473
28.8675
24.6447
19.9745
14.8673
9.35271
3.4738
-2.60332
53.5339
53.5118
53.4593
53.3753
53.2574
53.1001
52.8957
52.6347
52.3063
51.898
51.3955
50.783
50.043
49.1564
48.1029
46.8607
45.407
43.7183
41.7706
39.5404
37.0051
34.1445
30.9422
27.3874
23.4773
19.2188
14.6312
9.74819
4.61294
-0.643239
52.6189
52.5886
52.5169
52.4037
52.2481
52.0454
51.7884
51.4683
51.0751
50.5971
50.0216
49.334
48.5187
47.559
46.4374
45.1355
43.6347
41.9166
39.963
37.7573
35.2847
32.5335
29.4964
26.1715
22.5642
18.6882
14.5665
10.2329
5.72774
1.15462
51.6983
51.6603
51.5706
51.4301
51.2394
50.9947
50.6893
50.3153
49.8635
49.3236
48.684
47.9319
47.0537
46.0351
44.8614
43.5177
41.9892
40.2621
38.3236
36.1626
33.7707
31.1428
28.2778
25.1802
21.8601
18.3346
14.6278
10.7713
6.80139
2.79984
50.7773
50.7322
50.6257
50.46
50.237
49.9539
49.6046
49.1822
48.6785
48.0844
47.3898
46.5838
45.6547
44.5906
43.3796
42.01
40.4708
38.752
36.8452
34.7442
32.4453
29.9482
27.2564
24.3781
21.3261
18.1187
14.7794
11.3367
7.8225
4.30117
49.8615
49.8097
49.688
49.4993
49.247
48.9292
48.5408
48.0755
47.5266
46.8861
46.1455
45.2956
44.3269
43.2297
41.9948
40.6134
39.0776
37.381
35.5188
33.4884
31.29
28.9264
26.4044
23.7339
20.9292
18.0084
14.9933
11.9092
8.78357
5.66726
48.9564
48.8987
48.7632
48.5538
48.2753
47.9267
47.5038
47.0015
46.4138
45.7345
44.9565
44.0723
43.0743
41.9552
40.7081
39.3267
37.8061
36.1425
34.3342
32.3814
30.2868
28.0558
25.6966
23.2205
20.6417
17.9774
15.2474
12.4739
9.68019
6.90664
48.068
48.005
47.8572
47.6295
47.3279
46.9524
46.4998
45.9658
45.3459
44.635
43.8275
42.9178
41.9
40.7687
39.5193
38.1478
36.6514
35.0289
33.2807
31.4091
29.4188
27.3164
25.1111
22.8144
20.4402
18.0044
15.5246
13.02
10.5102
8.02752
47.2023
47.1347
46.9761
46.7324
46.4108
46.0122
45.5344
44.9742
44.328
43.5922
42.7626
41.8351
40.8057
39.6707
38.4272
37.0733
35.608
34.032
32.3475
30.5582
28.6698
26.69
24.6282
22.4958
20.3058
18.0725
15.8116
13.5395
11.273
9.0377
46.3656
46.2939
46.1261
45.8686
45.5299
45.1119
44.6132
44.0316
43.3648
42.6102
41.7651
40.8267
39.7926
38.6607
37.4297
36.0992
34.6699
33.1437
31.5241
29.8159
28.0255
26.1608
24.2314
22.248
20.2225
18.1681
16.0983
14.0272
11.9691
9.94454
45.5641
45.489
45.3132
45.0441
44.6911
44.2571
43.7415
43.1431
42.4606
41.6927
40.8377
39.8943
38.8613
37.738
36.5244
35.2214
33.8309
32.3559
30.8007
29.1708
27.4729
25.715
23.9063
22.0569
20.1778
18.2805
16.377
14.4795
12.5999
10.7549
44.8042
44.7262
44.5438
44.265
43.9002
43.4533
42.9244
42.3133
41.6195
40.8428
39.9828
39.0392
38.0118
36.9012
35.7085
34.4355
33.0851
31.6611
30.1682
28.6124
27.0005
25.3404
23.6408
21.9111
20.1612
18.4014
16.6422
14.8941
13.1672
11.4751
44.0924
44.012
43.824
43.5373
43.1629
42.7058
42.1668
41.5464
40.8452
40.0637
39.2025
38.2623
37.244
36.1489
34.9791
33.7373
32.4269
31.0522
29.6185
28.1317
26.5987
25.0271
23.425
21.8011
20.1645
18.5243
16.8897
15.2698
13.6731
12.1111
43.4353
43.3528
43.1602
42.8669
42.485
42.02
41.4735
40.8468
40.1411
39.3579
38.4985
37.5645
36.5574
35.4796
34.3336
33.1228
31.8511
30.5231
29.1443
27.7206
26.2589
24.7662
23.2504
21.7193
20.1812
18.6442
17.1165
15.6058
14.1198
12.6676
42.8397
42.7554
42.5588
42.26
41.872
41.401
40.8493
40.2186
39.5109
38.7283
37.8729
36.9468
35.9524
34.8924
33.77
32.589
31.3536
30.0688
28.7399
27.3729
25.9745
24.5513
23.1107
21.6599
20.2064
18.7576
17.3207
15.9025
14.5096
13.1498
42.3125
42.2265
42.0262
41.7225
41.3295
40.854
40.2987
39.6657
38.9576
38.1772
37.3269
36.4096
35.4281
34.3856
33.2857
32.1324
30.9302
29.6841
28.3995
27.0824
25.739
24.3759
22.9997
21.6173
20.2355
18.8609
17.5
16.159
14.8435
13.5602
41.8614
41.7733
41.5689
41.2605
40.8634
40.3847
39.8272
39.1933
38.4862
37.7089
36.8645
35.9561
34.987
33.9608
32.8813
31.7527
30.5797
29.3674
28.121
26.8465
25.5499
24.2372
22.915
21.5895
20.267
18.9537
17.6553
16.3775
15.1253
13.9045
41.4945
41.4035
41.193
40.8789
40.4776
39.9961
39.4369
38.8027
38.0968
37.3229
36.4843
35.5843
34.6265
33.6147
32.553
31.4456
30.2973
29.1132
27.8986
26.6591
25.4006
24.1289
22.8502
21.5703
20.2953
19.0306
17.7818
16.5539
15.3516
14.1795
41.222
41.1258
40.9074
40.588
40.184
39.7006
39.1401
38.5057
37.8012
37.0302
36.1964
35.3034
34.3549
33.3547
32.3072
31.2167
30.088
28.9261
27.7363
26.5241
25.295
24.0549
22.8095
21.5645
20.3255
19.0978
17.8864
16.6961
15.5314
14.3965
41.056
40.9374
40.7028
40.3788
39.9739
39.4897
38.9287
38.2949
37.5921
36.8241
35.9945
35.107
34.1656
33.1742
32.137
31.0586
29.9437
28.7973
27.6246
26.431
25.222
24.0033
22.7804
21.5588
20.344
19.1409
17.9545
16.7893
15.6493
14.5385
41.0599
40.8742
40.6112
40.2816
39.8749
39.3884
38.8256
38.191
37.4886
36.722
35.8948
35.0107
34.0737
33.0878
32.0572
30.9864
29.88
28.743
27.5805
26.3977
25.2003
23.9935
22.783
21.5741
20.3721
19.182
18.0084
16.8559
15.7284
14.6296
-173.06
-152.968
-122.756
-58.7183
-64.4589
-69.615
-37.1782
-50.1445
-60.5474
-35.4407
-47.5759
-56.6321
-29.7127
-39.4561
-47.4057
-23.7631
-31.8724
-38.828
-19.0789
-25.9086
-31.7928
-15.0863
-20.8025
-25.7063
-11.5245
-16.3218
-20.4194
-8.36291
-12.4178
-15.8669
-5.56208
-9.01287
-11.9392
-3.07369
-6.03004
-8.53287
-0.85842
-3.4082
-5.56569
1.11573
-1.09795
-2.97172
2.87586
0.941379
-0.697788
4.44493
2.74331
1.29918
5.84253
4.33578
3.05451
7.08559
5.74232
4.59754
8.18876
6.98291
5.95282
9.16484
8.07463
7.14107
10.0249
9.03197
8.17972
10.7786
9.86748
9.08363
11.434
10.5913
9.86485
11.9987
11.213
10.5343
12.477
11.7382
11.0989
12.8766
12.1757
11.5682
13.1945
12.5234
11.9412
13.4444
12.7954
12.2313
13.6075
12.9738
12.4229
13.7136
13.0903
12.5456
-97.0168
-104.049
-109.652
-116.963
-127.051
-139.22
-152.673
-166.394
-178.834
-187.992
-191.807
-189.534
-181.01
-167.215
-149.558
-129.712
-109.348
-89.8442
-72.1373
-56.7279
-43.7604
-33.1338
-24.6067
-17.879
-12.6456
-8.62559
-5.57452
-3.28586
-1.58566
-0.320365
-82.0794
-95.1018
-103.341
-112.108
-122.703
-134.73
-147.606
-160.459
-171.923
-180.295
-183.777
-181.412
-173.233
-160.124
-143.402
-124.651
-105.435
-87.0276
-70.2887
-55.6744
-43.3165
-33.1242
-24.8804
-18.3145
-13.1504
-9.13205
-6.0349
-3.66708
-1.86317
-0.496771
-75.576
-89.738
-98.8585
-107.939
-118.481
-130.076
-142.094
-153.758
-163.927
-171.176
-173.917
-171.118
-163.069
-150.654
-135.076
-117.749
-100.047
-83.0806
-67.6012
-54.0122
-42.4365
-32.8042
-24.9336
-18.5934
-13.5441
-9.56049
-6.44151
-4.01283
-2.12006
-0.662819
-68.689
-82.2403
-93.0945
-103.185
-113.634
-124.521
-135.468
-145.782
-154.431
-160.139
-161.648
-158.249
-150.421
-138.947
-124.844
-109.293
-93.4347
-78.1927
-64.2024
-51.8167
-41.1581
-32.1866
-24.7645
-18.7067
-13.8154
-9.89946
-6.78438
-4.31526
-2.35078
-0.814779
-58.2229
-71.0631
-83.2082
-94.561
-105.383
-115.865
-125.857
-134.824
-141.885
-145.905
-146.212
-142.645
-135.541
-125.463
-113.218
-99.7507
-85.974
-72.6378
-60.2748
-49.1993
-39.5423
-31.2998
-24.3821
-18.653
-13.9578
-10.1412
-7.05618
-4.5684
-2.55105
-0.949973
-48.0503
-59.3821
-71.3338
-82.8716
-93.5877
-103.528
-112.581
-120.309
-126.001
-128.879
-128.698
-125.542
-119.588
-111.212
-101.027
-89.7635
-78.133
-66.7387
-56.0288
-46.2892
-37.6629
-30.1822
-23.8034
-18.4369
-13.9699
-10.2815
-7.25202
-4.76787
-2.71757
-1.06643
-39.322
-48.8069
-59.5581
-70.269
-80.1965
-89.2351
-97.2623
-103.923
-108.687
-111.072
-110.994
-108.57
-103.91
-97.2702
-89.0983
-79.9403
-70.344
-60.791
-51.6592
-43.2097
-35.5946
-28.8764
-23.0506
-18.0686
-13.8546
-10.3197
-7.36967
-4.91116
-2.84819
-1.16295
-31.8433
-39.6518
-48.878
-58.2912
-67.0661
-75.0138
-82.0113
-87.7851
-91.9629
-94.2195
-94.4988
-92.8759
-89.4378
-84.3694
-77.9885
-70.6959
-62.9084
-55.0091
-47.3148
-40.0613
-33.4034
-27.424
-22.1489
-17.5619
-13.6188
-10.2583
-7.40943
-4.99753
-2.94195
-1.23905
-25.4853
-31.9318
-39.6926
-47.7356
-55.2909
-62.1462
-68.1912
-73.2216
-76.9775
-79.226
-79.8914
-78.9881
-76.5904
-72.8375
-67.9545
-62.2323
-55.9863
-49.5189
-43.0932
-36.9181
-31.1436
-25.8635
-21.124
-16.9334
-13.2724
-10.1028
-7.37384
-5.02793
-2.99893
-1.29487
-20.1069
-25.4827
-31.9855
-38.7862
-45.2215
-51.09
-56.2992
-60.6971
-64.0961
-66.3321
-67.3042
-66.9782
-65.4117
-62.711
-59.0366
-54.5986
-49.6339
-44.3798
-39.0522
-33.832
-28.8588
-24.2294
-20.0017
-16.2013
-12.8276
-9.86079
-7.26739
-5.00474
-3.02021
-1.33106
-15.5315
-20.0679
-25.5423
-31.2945
-36.7712
-41.7967
-46.296
-50.1552
-53.2344
-55.4099
-56.5819
-56.6883
-55.7628
-53.8842
-51.1673
-47.7636
-43.8504
-39.6122
-35.2239
-30.8395
-26.5842
-22.5523
-18.8071
-15.3847
-12.298
-9.54165
-7.09608
-4.93158
-3.00769
-1.34868
-11.6086
-15.4805
-20.1275
-25.0202
-29.7022
-34.0253
-37.9306
-41.3315
-44.1201
-46.1998
-47.4809
-47.8947
-47.4519
-46.2072
-44.242
-41.6655
-38.6095
-35.216
-31.6254
-27.9663
-24.3485
-20.8596
-17.5637
-14.5026
-11.6983
-9.15588
-6.86711
-4.81306
-2.96397
-1.34914
-8.22349
-11.5624
-15.5433
-19.7369
-23.7664
-27.5092
-30.9197
-33.9308
-36.4579
-38.4235
-39.7501
-40.3742
-40.2894
-39.5299
-38.1525
-36.2352
-33.8752
-31.1812
-28.2645
-25.2309
-22.1747
-19.175
-16.2933
-13.5735
-11.0431
-8.71468
-6.5885
-4.6545
-2.89217
-1.33413
-5.28766
-8.19375
-11.6346
-15.2588
-18.7533
-22.0171
-25.0152
-27.6955
-29.9902
-31.8357
-33.1676
-33.9305
-34.1075
-33.7173
-32.7982
-31.4051
-29.609
-27.4923
-25.1426
-22.6457
-20.0814
-17.519
-15.0158
-12.6151
-10.3471
-8.22952
-6.26872
-4.46174
-2.79586
-1.3055
-2.73166
-5.2827
-8.28265
-11.4407
-14.4952
-17.3628
-20.0165
-22.4158
-24.5057
-26.2334
-27.5462
-28.3968
-28.7632
-28.6528
-28.09
-27.1129
-25.7727
-24.1315
-22.2572
-20.2188
-18.0826
-15.9088
-13.7486
-11.6436
-9.62443
-7.71176
-5.91645
-4.24093
-2.67883
-1.26525
-0.500327
-2.75771
-5.39501
-8.16947
-10.8607
-13.3992
-15.7647
-17.925
-19.8354
-21.4519
-22.7312
-23.6341
-24.1355
-24.2358
-23.9495
-23.3021
-22.3301
-21.0795
-19.6026
-17.9544
-16.1893
-14.3584
-12.5071
-10.6737
-8.88815
-7.17243
-5.54033
-3.99828
-2.54505
-1.21543
1.45086
-0.561964
-2.89917
-5.3563
-7.7461
-10.0105
-12.1339
-14.0907
-15.8444
-17.3577
-18.5971
-19.5273
-20.1233
-20.3812
-20.3088
-19.9222
-19.247
-18.3168
-17.1713
-15.854
-14.4091
-12.8795
-11.3045
-9.71861
-8.15043
-6.62196
-5.14871
-3.73998
-2.39851
-1.15809
3.15832
1.35033
-0.73726
-2.93063
-5.06939
-7.10444
-9.0239
-10.8075
-12.4248
-13.8446
-15.0394
-15.9796
-16.6407
-17.0162
-17.1089
-16.9286
-16.4923
-15.8243
-14.9547
-13.9172
-12.7474
-11.481
-10.1516
-8.78996
-7.42228
-6.07006
-4.74957
-3.47201
-2.24315
-1.09525
4.65215
3.01647
1.13739
-0.835913
-2.76481
-4.60742
-6.35474
-7.99053
-9.4895
-10.8253
-11.9743
-12.9124
-13.617
-14.0796
-14.2995
-14.2818
-14.0376
-13.584
-12.9433
-12.1417
-11.2076
-10.1701
-9.0579
-7.89776
-6.71355
-5.52563
-4.35037
-3.2001
-2.08278
-1.02883
5.95742
4.46712
2.76274
0.97357
-0.77942
-2.46019
-4.06192
-5.57156
-6.96793
-8.22857
-9.33334
-10.2611
-10.9934
-11.5199
-11.8375
-11.9479
-11.8578
-11.5791
-11.1281
-10.5247
-9.79144
-8.95215
-8.03083
-7.05064
-6.03297
-4.99675
-3.95799
-2.92958
-1.92102
-0.960659
7.09498
5.72752
4.16975
2.5349
0.929555
-0.614931
-2.09344
-3.49541
-4.80296
-5.99681
-7.05942
-7.97319
-8.7217
-9.29434
-9.68639
-9.89733
-9.93071
-9.7943
-9.49987
-9.06252
-8.49987
-7.83123
-7.07663
-6.25596
-5.38818
-4.49066
-3.57873
-2.66545
-1.76127
-0.892447
8.0824
6.81868
5.38393
3.87838
2.39693
0.967147
-0.407166
-1.71743
-2.94841
-4.08341
-5.10712
-6.00452
-6.76121
-7.36664
-7.81519
-8.10482
-8.23677
-8.21585
-8.0503
-7.75141
-7.33292
-6.81037
-6.2004
-5.52001
-4.78588
-4.01382
-3.21832
-2.41226
-1.6067
-0.825764
8.93398
7.75761
6.42583
5.02835
3.65059
2.31708
1.03057
-0.201896
-1.3672
-2.45078
-3.4391
-4.31919
-5.07861
-5.70695
-6.19814
-6.54908
-6.75945
-6.83185
-6.77187
-6.58782
-6.29036
-5.89196
-5.40641
-4.8482
-4.23197
-3.57202
-2.88192
-2.17422
-1.46022
-0.762052
9.66219
8.5589
7.31282
6.00514
4.71367
3.46044
2.24746
1.0805
-0.0289988
-1.06817
-2.02495
-2.88797
-3.64669
-4.29066
-4.81371
-5.21219
-5.48461
-5.63199
-5.65792
-5.56844
-5.37176
-5.07789
-4.69825
-4.24522
-3.73164
-3.17045
-2.57426
-1.95517
-1.32456
-0.702639
10.2756
9.23279
8.05727
6.82347
5.60303
4.41606
3.26396
2.15151
1.08881
0.0873386
-0.84212
-1.68971
-2.44481
-3.09889
-3.64551
-4.08046
-4.40149
-4.60848
-4.70357
-4.69105
-4.57721
-4.37014
-4.07934
-3.71541
-3.28968
-2.81382
-2.29961
-1.75862
-1.20216
-0.648692
10.784
9.79023
8.67178
7.49762
6.33456
5.20122
4.09852
3.0305
2.00618
1.03597
0.129709
-0.703545
-1.45469
-2.11538
-2.6793
-3.14201
-3.50076
-3.75463
-3.90465
-3.95381
-3.90699
-3.7707
-3.55296
-3.26293
-2.91064
-2.50675
-2.0622
-1.58809
-1.09556
-0.601484
11.1886
10.2335
9.15982
8.03244
6.91446
5.82333
4.75961
3.72679
2.73308
1.78804
0.900764
0.0796467
-0.667043
-1.33151
-1.90759
-2.39069
-2.77775
-3.06728
-3.25955
-3.35661
-3.36225
-3.28184
-3.12219
-2.89135
-2.59833
-2.25289
-1.86528
-1.44616
-1.00644
-0.561631
11.5009
10.5742
9.53353
8.44065
7.35588
6.29587
5.26093
4.25414
3.28312
2.35682
1.48379
0.671945
-0.0711177
-0.738162
-1.3231
-1.82122
-2.2292
-2.54519
-2.76893
-2.90179
-2.94679
-2.90847
-2.79278
-2.60692
-2.35911
-2.05841
-1.71452
-1.33764
-0.938462
-0.531135
11.7091
10.8011
9.78249
8.71308
7.65091
6.612
5.59659
4.60754
3.65209
2.73881
1.87597
1.07138
0.332157
-0.335247
-0.924983
-1.43228
-1.85364
-2.18695
-2.43161
-2.58853
-2.66019
-2.65055
-2.56496
-2.41002
-2.1934
-1.92365
-1.61001
-1.26229
-0.890836
-0.508598
11.8352
10.9317
9.92321
8.86549
7.81422
6.78519
5.77885
4.79798
3.84958
2.94194
2.08293
1.27977
0.539779
-0.129957
-0.723689
-1.23687
-1.66607
-2.00909
-2.26518
-2.43501
-2.52081
-2.52623
-2.45629
-2.31729
-2.11658
-1.86242
-1.56377
-1.2301
-0.871129
-0.497042
)
;

boundaryField
{
    inlet
    {
        type            zeroGradient;
    }
    outlet
    {
        type            fixedValue;
        value           uniform 0;
    }
    flap
    {
        type            zeroGradient;
    }
    upperWall
    {
        type            zeroGradient;
    }
    lowerWall
    {
        type            zeroGradient;
    }
    frontAndBack
    {
        type            empty;
    }
}


// ************************************************************************* //
