/*--------------------------------*- C++ -*----------------------------------*\
| =========                 |                                                 |
| \\      /  F ield         | OpenFOAM: The Open Source CFD Toolbox           |
|  \\    /   O peration     | Version:  2006                                  |
|   \\  /    A nd           | Website:  www.openfoam.com                      |
|    \\/     M anipulation  |                                                 |
\*---------------------------------------------------------------------------*/
FoamFile
{
    version     2.0;
    format      ascii;
    class       pointVectorField;
    location    "0.2";
    object      pointDisplacement;
}
// * * * * * * * * * * * * * * * * * * * * * * * * * * * * * * * * * * * * * //

dimensions      [0 1 0 0 0 0 0];


internalField   nonuniform List<vector> 
5828
(
(0 0 0)
(2.20631e-06 0 0)
(5.12816e-06 0 0)
(9.84161e-06 0 0)
(1.77674e-05 0 0)
(3.09043e-05 0 0)
(5.21002e-05 0 0)
(8.53043e-05 0 0)
(0.000135799 0 0)
(0.000210372 0 0)
(0.000317372 0 0)
(0.000466583 0 0)
(0.00066884 0 0)
(0.000935311 0 0)
(0.00127638 0 0)
(0.00170009 0 0)
(0.00221014 0 0)
(0.00280345 0 0)
(0.00346753 0 0)
(0.00417765 0 0)
(0.0048946 0 0)
(0.00556319 0 0)
(0.00611275 0 0)
(0.00646033 0 0)
(0.00651812 0 0)
(0.00620627 0 0)
(0.00547308 0 0)
(0.00432588 0 0)
(0.00288386 0 0)
(0.00149749 0 0)
(0 0 0)
(0 0 0)
(2.09125e-06 8.84589e-09 0)
(4.88119e-06 2.15838e-08 0)
(9.40287e-06 4.42562e-08 0)
(1.70313e-05 8.60553e-08 0)
(2.97162e-05 1.61811e-07 0)
(5.02471e-05 2.95518e-07 0)
(8.25067e-05 5.25079e-07 0)
(0.000131708 9.08699e-07 0)
(0.000204577 1.53329e-06 0)
(0.000309421 2.52515e-06 0)
(0.000456024 4.06329e-06 0)
(0.000655287 6.39548e-06 0)
(0.000918542 9.85767e-06 0)
(0.00125647 1.48973e-05 0)
(0.00167761 2.21022e-05 0)
(0.00218636 3.22374e-05 0)
(0.00278067 4.62946e-05 0)
(0.00344939 6.55599e-05 0)
(0.0041696 9.1707e-05 0)
(0.00490433 0.000126922 0)
(0.00560119 0.000174056 0)
(0.00619283 0.000236787 0)
(0.00660014 0.000319738 0)
(0.00673967 0.000428454 0)
(0.00653653 0.000569048 0)
(0.00594478 0.000747105 0)
(0.00497866 0.00096473 0)
(0.00376347 0.00121196 0)
(0.00263461 0.00144109 0)
(0.00176442 0.00167859 0)
(0 0 0)
(1.942e-06 1.69824e-08 0)
(4.56081e-06 4.15387e-08 0)
(8.83229e-06 8.53383e-08 0)
(1.60723e-05 1.66198e-07 0)
(2.8167e-05 3.12937e-07 0)
(4.7831e-05 5.72242e-07 0)
(7.8865e-05 1.01791e-06 0)
(0.000126403 1.76332e-06 0)
(0.000197113 2.97776e-06 0)
(0.000299294 4.90717e-06 0)
(0.000442809 7.89967e-06 0)
(0.000638783 1.24363e-05 0)
(0.000898983 1.91674e-05 0)
(0.00123484 2.89557e-05 0)
(0.00165604 4.29286e-05 0)
(0.00216871 6.25433e-05 0)
(0.00277325 8.96726e-05 0)
(0.00346189 0.000126722 0)
(0.00421623 0.000176788 0)
(0.00500517 0.00024387 0)
(0.00578371 0.00033312 0)
(0.00649346 0.000451086 0)
(0.00706583 0.000605819 0)
(0.00742909 0.00080657 0)
(0.00752062 0.0010626 0)
(0.00730594 0.00138017 0)
(0.00680584 0.00175589 0)
(0.00613393 0.0021634 0)
(0.00554904 0.00252774 0)
(0.00507635 0.00280974 0)
(0 0 0)
(1.87542e-06 2.4472e-08 0)
(4.41631e-06 5.99791e-08 0)
(8.57197e-06 1.23384e-07 0)
(1.56323e-05 2.40502e-07 0)
(2.74552e-05 4.5315e-07 0)
(4.67246e-05 8.29069e-07 0)
(7.72147e-05 1.47529e-06 0)
(0.000124048 2.55611e-06 0)
(0.000193916 4.31649e-06 0)
(0.000295205 7.11151e-06 0)
(0.000437981 1.14422e-05 0)
(0.000633747 1.79981e-05 0)
(0.00089492 2.77059e-05 0)
(0.00123396 4.17861e-05 0)
(0.00166215 6.1818e-05 0)
(0.00218796 8.98186e-05 0)
(0.00281514 0.000128343 0)
(0.00354058 0.000180619 0)
(0.00435222 0.000250729 0)
(0.00522725 0.000343844 0)
(0.00613128 0.000466502 0)
(0.00701882 0.000626839 0)
(0.00783621 0.000834572 0)
(0.00852752 0.00110034 0)
(0.0090445 0.0014336 0)
(0.00936026 0.00183794 0)
(0.00948522 0.00230157 0)
(0.00948039 0.00278086 0)
(0.00946733 0.00317649 0)
(0.00937074 0.00344442 0)
(0 0 0)
(1.81243e-06 3.14736e-08 0)
(4.27692e-06 7.72228e-08 0)
(8.31936e-06 1.58913e-07 0)
(1.52051e-05 3.09742e-07 0)
(2.67652e-05 5.83474e-07 0)
(4.56573e-05 1.06709e-06 0)
(7.56357e-05 1.8978e-06 0)
(0.000121825 3.2857e-06 0)
(0.000190962 5.5431e-06 0)
(0.000291564 9.12094e-06 0)
(0.000433967 1.46522e-05 0)
(0.00063016 2.3002e-05 0)
(0.000893375 3.53234e-05 0)
(0.00123737 5.31176e-05 0)
(0.00167538 7.83002e-05 0)
(0.00221875 0.000113274 0)
(0.00287533 0.000161019 0)
(0.00364766 0.000225204 0)
(0.00453131 0.000310337 0)
(0.00551343 0.000421969 0)
(0.00657215 0.000566906 0)
(0.00767699 0.000753362 0)
(0.00879101 0.000990787 0)
(0.00987481 0.00128891 0)
(0.0108922 0.00165511 0)
(0.011816 0.00208889 0)
(0.0126296 0.00257149 0)
(0.0133163 0.00304979 0)
(0.0138438 0.00341903 0)
(0.0140947 0.00364767 0)
(0 0 0)
(1.75246e-06 3.79655e-08 0)
(4.14264e-06 9.31833e-08 0)
(8.0746e-06 1.91692e-07 0)
(1.47899e-05 3.73366e-07 0)
(2.60943e-05 7.02696e-07 0)
(4.46202e-05 1.28378e-06 0)
(7.41061e-05 2.28037e-06 0)
(0.000119685 3.94236e-06 0)
(0.000188152 6.63963e-06 0)
(0.000288179 1.09033e-05 0)
(0.000430404 1.74736e-05 0)
(0.000627366 2.73537e-05 0)
(0.000893203 4.18648e-05 0)
(0.0012431 6.27025e-05 0)
(0.00169244 9.1989e-05 0)
(0.0022557 0.000132323 0)
(0.00294515 0.000186828 0)
(0.0037694 0.000259208 0)
(0.00473207 0.000353823 0)
(0.00583071 0.000475782 0)
(0.00705627 0.000631055 0)
(0.0083933 0.000826489 0)
(0.00982089 0.00106954 0)
(0.0113141 0.00136724 0)
(0.0128447 0.00172366 0)
(0.0143781 0.00213469 0)
(0.0158601 0.0025788 0)
(0.0171873 0.00300332 0)
(0.018177 0.00331304 0)
(0.0186888 0.00349824 0)
(0 0 0)
(1.69532e-06 4.39415e-08 0)
(4.01356e-06 1.07822e-07 0)
(7.83778e-06 2.21597e-07 0)
(1.43862e-05 4.31056e-07 0)
(2.54389e-05 8.10079e-07 0)
(4.36034e-05 1.47756e-06 0)
(7.26017e-05 2.61985e-06 0)
(0.000117575 4.52011e-06 0)
(0.000185379 7.59516e-06 0)
(0.000284837 1.24395e-05 0)
(0.000426899 1.9875e-05 0)
(0.000624657 3.10028e-05 0)
(0.000893167 4.72538e-05 0)
(0.00124905 7.04305e-05 0)
(0.00170983 0.000102736 0)
(0.00229311 0.000146781 0)
(0.00301547 0.000205575 0)
(0.00389139 0.000282491 0)
(0.00493215 0.000381225 0)
(0.00614498 0.000505753 0)
(0.00753246 0.000660278 0)
(0.00909226 0.000849136 0)
(0.0108168 0.00107649 0)
(0.0126918 0.00134555 0)
(0.0146924 0.00165663 0)
(0.0167717 0.00200339 0)
(0.018836 0.00236593 0)
(0.0206993 0.00270039 0)
(0.0220478 0.00293135 0)
(0.0227631 0.00305329 0)
(0 0 0)
(1.64102e-06 4.94142e-08 0)
(3.88995e-06 1.21153e-07 0)
(7.60916e-06 2.48622e-07 0)
(1.39934e-05 4.82738e-07 0)
(2.47962e-05 9.05393e-07 0)
(4.25976e-05 1.64788e-06 0)
(7.10992e-05 2.91509e-06 0)
(0.000115443 5.01676e-06 0)
(0.000182534 8.40599e-06 0)
(0.00028133 1.37241e-05 0)
(0.000423063 2.1849e-05 0)
(0.000621336 3.39426e-05 0)
(0.000892052 5.14903e-05 0)
(0.00125316 7.63241e-05 0)
(0.00172417 0.000110617 0)
(0.00232549 0.000156844 0)
(0.0030776 0.000217692 0)
(0.00400011 0.000295925 0)
(0.00511089 0.000394207 0)
(0.00642516 0.000514895 0)
(0.00795477 0.00065982 0)
(0.00970723 0.00083008 0)
(0.0116841 0.00102581 0)
(0.0138772 0.00124581 0)
(0.0162606 0.00148673 0)
(0.0187736 0.00174129 0)
(0.0212868 0.0019945 0)
(0.023547 0.00221688 0)
(0.0251395 0.00235939 0)
(0.0259662 0.00243288 0)
(0 0 0)
(1.58979e-06 5.44166e-08 0)
(3.77231e-06 1.33244e-07 0)
(7.38938e-06 2.72877e-07 0)
(1.36117e-05 5.28586e-07 0)
(2.41642e-05 9.88902e-07 0)
(4.15957e-05 1.79515e-06 0)
(6.95796e-05 3.1668e-06 0)
(0.000113245 5.43371e-06 0)
(0.000179524 9.07512e-06 0)
(0.000277473 1.47636e-05 0)
(0.00041855 2.34101e-05 0)
(0.000616779 3.62044e-05 0)
(0.000888779 5.46405e-05 0)
(0.00125362 8.05168e-05 0)
(0.00173247 0.000115896 0)
(0.00234809 0.000163008 0)
(0.00312412 0.00022409 0)
(0.00408426 0.000301139 0)
(0.00525137 0.000395601 0)
(0.00664646 0.000507997 0)
(0.00828753 0.000637549 0)
(0.0101879 0.000781876 0)
(0.0123535 0.000936881 0)
(0.0147773 0.00109691 0)
(0.0174287 0.00125525 0)
(0.0202333 0.00140457 0)
(0.0230352 0.00153646 0)
(0.0255352 0.00163826 0)
(0.0272553 0.00168991 0)
(0.0281304 0.00169411 0)
(0 0 0)
(1.54199e-06 5.90022e-08 0)
(3.66146e-06 1.44215e-07 0)
(7.17968e-06 2.94588e-07 0)
(1.32424e-05 5.69003e-07 0)
(2.35434e-05 1.06133e-06 0)
(4.05948e-05 1.92069e-06 0)
(6.8031e-05 3.37741e-06 0)
(0.000110951 5.77552e-06 0)
(0.00017628 9.61119e-06 0)
(0.000273125 1.55746e-05 0)
(0.000413089 2.45905e-05 0)
(0.000610497 3.78492e-05 0)
(0.000882495 5.68185e-05 0)
(0.001249 8.322e-05 0)
(0.00173243 0.000118954 0)
(0.0023573 0.000165957 0)
(0.00314953 0.000225962 0)
(0.00413568 0.000300172 0)
(0.00534183 0.000388815 0)
(0.00679238 0.000490635 0)
(0.00850826 0.000602369 0)
(0.0105046 0.00071837 0)
(0.0127869 0.000830595 0)
(0.0153444 0.000929317 0)
(0.0181391 0.00100486 0)
(0.0210848 0.00105032 0)
(0.0240095 0.00106437 0)
(0.0265925 0.00105122 0)
(0.0283324 0.00101864 0)
(0.0291706 0.000979672 0)
(0 0 0)
(1.4982e-06 6.32443e-08 0)
(3.55862e-06 1.54237e-07 0)
(6.98205e-06 3.14086e-07 0)
(1.28883e-05 6.04606e-07 0)
(2.29372e-05 1.12382e-06 0)
(3.95972e-05 2.02659e-06 0)
(6.64519e-05 3.55075e-06 0)
(0.000108547 6.04924e-06 0)
(0.000172765 1.00273e-05 0)
(0.000268202 1.61812e-05 0)
(0.000406511 2.54338e-05 0)
(0.00060217 3.89566e-05 0)
(0.000872639 5.81674e-05 0)
(0.00123836 8.46863e-05 0)
(0.00172255 0.000120233 0)
(0.00235081 0.00016644 0)
(0.00315048 0.00022457 0)
(0.00414968 0.000295107 0)
(0.00537608 0.000377228 0)
(0.0068552 0.000468185 0)
(0.00860809 0.000562661 0)
(0.0106482 0.000652312 0)
(0.0129766 0.000725822 0)
(0.0155752 0.00077002 0)
(0.0183962 0.000772713 0)
(0.0213437 0.00072759 0)
(0.0242399 0.000640155 0)
(0.026765 0.000530663 0)
(0.0284278 0.00043077 0)
(0.0291998 0.000341152 0)
(0 0 0)
(1.45916e-06 6.72361e-08 0)
(3.46546e-06 1.63527e-07 0)
(6.79942e-06 3.31798e-07 0)
(1.2554e-05 6.36198e-07 0)
(2.2352e-05 1.17784e-06 0)
(3.86117e-05 2.11554e-06 0)
(6.48522e-05 3.69174e-06 0)
(0.000106042 6.26378e-06 0)
(0.000168981 1.03393e-05 0)
(0.000262686 1.66119e-05 0)
(0.000398757 2.59908e-05 0)
(0.000591671 3.9615e-05 0)
(0.000858969 5.88392e-05 0)
(0.00122129 8.5174e-05 0)
(0.00170218 0.000120162 0)
(0.00232772 0.000165168 0)
(0.00312577 0.00022106 0)
(0.00412494 0.000287765 0)
(0.00535305 0.000363688 0)
(0.00683502 0.000445025 0)
(0.00858994 0.00052504 0)
(0.0106271 0.000593507 0)
(0.0129407 0.000636731 0)
(0.0155028 0.000638834 0)
(0.0182545 0.000585325 0)
(0.0210917 0.000469921 0)
(0.0238394 0.000304141 0)
(0.0261986 0.000124438 0)
(0.027716 -1.45167e-05 0)
(0.028318 -0.000111115 0)
(0 0 0)
(1.42586e-06 7.10892e-08 0)
(3.38419e-06 1.7235e-07 0)
(6.63575e-06 3.48241e-07 0)
(1.22461e-05 6.64744e-07 0)
(2.17984e-05 1.22516e-06 0)
(3.76543e-05 2.19076e-06 0)
(6.32551e-05 3.80611e-06 0)
(0.000103469 6.42931e-06 0)
(0.000164969 1.05652e-05 0)
(0.000256629 1.68975e-05 0)
(0.00038989 2.63139e-05 0)
(0.000579071 3.99129e-05 0)
(0.000841567 5.89806e-05 0)
(0.00119789 8.49216e-05 0)
(0.00167149 0.000119123 0)
(0.00228833 0.000162735 0)
(0.00307609 0.000216342 0)
(0.00406295 0.000279511 0)
(0.00527585 0.000350202 0)
(0.00673795 0.000424062 0)
(0.00846521 0.000493649 0)
(0.0104618 0.000547786 0)
(0.012714 0.000571405 0)
(0.0151836 0.00054665 0)
(0.0177997 0.000456502 0)
(0.0204504 0.000292655 0)
(0.0229677 6.86759e-05 0)
(0.0250895 -0.00016602 0)
(0.0264325 -0.000331935 0)
(0.0269574 -0.000384373 0)
(0 0 0)
(1.39952e-06 7.49334e-08 0)
(3.31756e-06 1.81009e-07 0)
(6.49614e-06 3.6401e-07 0)
(1.19735e-05 6.91351e-07 0)
(2.1291e-05 1.2678e-06 0)
(3.67481e-05 2.25582e-06 0)
(6.1697e-05 3.90018e-06 0)
(0.000100882 6.55672e-06 0)
(0.000160812 1.07234e-05 0)
(0.000250153 1.70693e-05 0)
(0.000380089 2.64548e-05 0)
(0.00056463 3.99334e-05 0)
(0.000820815 5.87232e-05 0)
(0.00116874 8.41321e-05 0)
(0.00163136 0.00011742 0)
(0.00223404 0.000159584 0)
(0.00300367 0.000211037 0)
(0.00396735 0.000271182 0)
(0.00515046 0.00033785 0)
(0.00657383 0.000406617 0)
(0.00825003 0.000470034 0)
(0.0101783 0.000516894 0)
(0.012338 0.000531828 0)
(0.0146818 0.000495878 0)
(0.017128 0.000389268 0)
(0.0195548 0.0001986 0)
(0.0217938 -6.85487e-05 0)
(0.0236129 -0.000361936 0)
(0.0247163 -0.000580951 0)
(0.0251818 -0.000666622 0)
(0 0 0)
(1.3816e-06 7.89162e-08 0)
(3.26891e-06 1.89848e-07 0)
(6.38681e-06 3.79772e-07 0)
(1.17469e-05 7.17248e-07 0)
(2.08481e-05 1.30796e-06 0)
(3.59238e-05 2.31461e-06 0)
(6.0227e-05 3.9806e-06 0)
(9.83592e-05 6.65732e-06 0)
(0.000156633 1.08328e-05 0)
(0.000243446 1.71577e-05 0)
(0.000369636 2.64617e-05 0)
(0.000548777 3.97515e-05 0)
(0.000797358 5.81794e-05 0)
(0.0011348 8.2968e-05 0)
(0.00158326 0.000115279 0)
(0.00216707 0.000156007 0)
(0.00291187 0.000205494 0)
(0.00384324 0.000263137 0)
(0.00498457 0.000326889 0)
(0.00635428 0.000392645 0)
(0.00796188 0.000453519 0)
(0.00980281 0.000499095 0)
(0.0118521 0.000514821 0)
(0.0140568 0.000481966 0)
(0.0163285 0.000379045 0)
(0.018537 0.00018674 0)
(0.0205025 -9.95073e-05 0)
(0.0219801 -0.000443697 0)
(0.0226886 -0.000737558 0)
(0.0228755 -0.00090798 0)
(0 0 0)
(1.3738e-06 8.32454e-08 0)
(3.24194e-06 1.9934e-07 0)
(6.31442e-06 3.96415e-07 0)
(1.15778e-05 7.44011e-07 0)
(2.04884e-05 1.34835e-06 0)
(3.5211e-05 2.37167e-06 0)
(5.88918e-05 4.05487e-06 0)
(9.59734e-05 6.7431e-06 0)
(0.00015254 1.09122e-05 0)
(0.000236673 1.71915e-05 0)
(0.000358783 2.63773e-05 0)
(0.000531885 3.94283e-05 0)
(0.000771754 5.74327e-05 0)
(0.00109692 8.15371e-05 0)
(0.00152843 0.000112824 0)
(0.00208927 0.000152129 0)
(0.00280346 0.000199784 0)
(0.00369464 0.000255288 0)
(0.00478404 0.000316883 0)
(0.00608765 0.000381029 0)
(0.00761239 0.000441795 0)
(0.00935137 0.00049018 0)
(0.011278 0.000513499 0)
(0.0133385 0.00049507 0)
(0.0154458 0.00041484 0)
(0.0174739 0.000252558 0)
(0.0192507 -1.92619e-06 0)
(0.0205525 -0.000323367 0)
(0.0211052 -0.000597521 0)
(0.0203311 -0.000928931 0)
(0 0 0)
(2.20631e-06 0 0)
(5.12816e-06 0 0)
(9.84161e-06 0 0)
(1.77674e-05 0 0)
(3.09043e-05 0 0)
(5.21002e-05 0 0)
(8.53043e-05 0 0)
(0.000135799 0 0)
(0.000210372 0 0)
(0.000317372 0 0)
(0.000466583 0 0)
(0.00066884 0 0)
(0.000935311 0 0)
(0.00127638 0 0)
(0.00170009 0 0)
(0.00221014 0 0)
(0.00280345 0 0)
(0.00346753 0 0)
(0.00417765 0 0)
(0.0048946 0 0)
(0.00556319 0 0)
(0.00611275 0 0)
(0.00646033 0 0)
(0.00651812 0 0)
(0.00620627 0 0)
(0.00547308 0 0)
(0.00432588 0 0)
(0.00288386 0 0)
(0.00149749 0 0)
(0 0 0)
(0 0 0)
(2.09125e-06 8.84589e-09 0)
(4.88119e-06 2.15838e-08 0)
(9.40287e-06 4.42562e-08 0)
(1.70313e-05 8.60553e-08 0)
(2.97162e-05 1.61811e-07 0)
(5.02471e-05 2.95518e-07 0)
(8.25067e-05 5.25079e-07 0)
(0.000131708 9.08699e-07 0)
(0.000204577 1.53329e-06 0)
(0.000309421 2.52515e-06 0)
(0.000456024 4.06329e-06 0)
(0.000655287 6.39548e-06 0)
(0.000918542 9.85767e-06 0)
(0.00125647 1.48973e-05 0)
(0.00167761 2.21022e-05 0)
(0.00218636 3.22374e-05 0)
(0.00278067 4.62946e-05 0)
(0.00344939 6.55599e-05 0)
(0.0041696 9.1707e-05 0)
(0.00490433 0.000126922 0)
(0.00560119 0.000174056 0)
(0.00619283 0.000236787 0)
(0.00660014 0.000319738 0)
(0.00673967 0.000428454 0)
(0.00653653 0.000569048 0)
(0.00594478 0.000747105 0)
(0.00497866 0.00096473 0)
(0.00376347 0.00121196 0)
(0.00263461 0.00144109 0)
(0.00176442 0.00167859 0)
(0 0 0)
(1.942e-06 1.69824e-08 0)
(4.56081e-06 4.15387e-08 0)
(8.83229e-06 8.53383e-08 0)
(1.60723e-05 1.66198e-07 0)
(2.8167e-05 3.12937e-07 0)
(4.7831e-05 5.72242e-07 0)
(7.8865e-05 1.01791e-06 0)
(0.000126403 1.76332e-06 0)
(0.000197113 2.97776e-06 0)
(0.000299294 4.90717e-06 0)
(0.000442809 7.89967e-06 0)
(0.000638783 1.24363e-05 0)
(0.000898983 1.91674e-05 0)
(0.00123484 2.89557e-05 0)
(0.00165604 4.29286e-05 0)
(0.00216871 6.25433e-05 0)
(0.00277325 8.96726e-05 0)
(0.00346189 0.000126722 0)
(0.00421623 0.000176788 0)
(0.00500517 0.00024387 0)
(0.00578371 0.00033312 0)
(0.00649346 0.000451086 0)
(0.00706583 0.000605819 0)
(0.00742909 0.00080657 0)
(0.00752062 0.0010626 0)
(0.00730594 0.00138017 0)
(0.00680584 0.00175589 0)
(0.00613393 0.0021634 0)
(0.00554904 0.00252774 0)
(0.00507635 0.00280974 0)
(0 0 0)
(1.87542e-06 2.4472e-08 0)
(4.41631e-06 5.99791e-08 0)
(8.57197e-06 1.23384e-07 0)
(1.56323e-05 2.40502e-07 0)
(2.74552e-05 4.5315e-07 0)
(4.67246e-05 8.29069e-07 0)
(7.72147e-05 1.47529e-06 0)
(0.000124048 2.55611e-06 0)
(0.000193916 4.31649e-06 0)
(0.000295205 7.11151e-06 0)
(0.000437981 1.14422e-05 0)
(0.000633747 1.79981e-05 0)
(0.00089492 2.77059e-05 0)
(0.00123396 4.17861e-05 0)
(0.00166215 6.1818e-05 0)
(0.00218796 8.98186e-05 0)
(0.00281514 0.000128343 0)
(0.00354058 0.000180619 0)
(0.00435222 0.000250729 0)
(0.00522725 0.000343844 0)
(0.00613128 0.000466502 0)
(0.00701882 0.000626839 0)
(0.00783621 0.000834572 0)
(0.00852752 0.00110034 0)
(0.0090445 0.0014336 0)
(0.00936026 0.00183794 0)
(0.00948522 0.00230157 0)
(0.00948039 0.00278086 0)
(0.00946733 0.00317649 0)
(0.00937074 0.00344442 0)
(0 0 0)
(1.81243e-06 3.14736e-08 0)
(4.27692e-06 7.72228e-08 0)
(8.31936e-06 1.58913e-07 0)
(1.52051e-05 3.09742e-07 0)
(2.67652e-05 5.83474e-07 0)
(4.56573e-05 1.06709e-06 0)
(7.56357e-05 1.8978e-06 0)
(0.000121825 3.2857e-06 0)
(0.000190962 5.5431e-06 0)
(0.000291564 9.12094e-06 0)
(0.000433967 1.46522e-05 0)
(0.00063016 2.3002e-05 0)
(0.000893375 3.53234e-05 0)
(0.00123737 5.31176e-05 0)
(0.00167538 7.83002e-05 0)
(0.00221875 0.000113274 0)
(0.00287533 0.000161019 0)
(0.00364766 0.000225204 0)
(0.00453131 0.000310337 0)
(0.00551343 0.000421969 0)
(0.00657215 0.000566906 0)
(0.00767699 0.000753362 0)
(0.00879101 0.000990787 0)
(0.00987481 0.00128891 0)
(0.0108922 0.00165511 0)
(0.011816 0.00208889 0)
(0.0126296 0.00257149 0)
(0.0133163 0.00304979 0)
(0.0138438 0.00341903 0)
(0.0140947 0.00364767 0)
(0 0 0)
(1.75246e-06 3.79655e-08 0)
(4.14264e-06 9.31833e-08 0)
(8.0746e-06 1.91692e-07 0)
(1.47899e-05 3.73366e-07 0)
(2.60943e-05 7.02696e-07 0)
(4.46202e-05 1.28378e-06 0)
(7.41061e-05 2.28037e-06 0)
(0.000119685 3.94236e-06 0)
(0.000188152 6.63963e-06 0)
(0.000288179 1.09033e-05 0)
(0.000430404 1.74736e-05 0)
(0.000627366 2.73537e-05 0)
(0.000893203 4.18648e-05 0)
(0.0012431 6.27025e-05 0)
(0.00169244 9.1989e-05 0)
(0.0022557 0.000132323 0)
(0.00294515 0.000186828 0)
(0.0037694 0.000259208 0)
(0.00473207 0.000353823 0)
(0.00583071 0.000475782 0)
(0.00705627 0.000631055 0)
(0.0083933 0.000826489 0)
(0.00982089 0.00106954 0)
(0.0113141 0.00136724 0)
(0.0128447 0.00172366 0)
(0.0143781 0.00213469 0)
(0.0158601 0.0025788 0)
(0.0171873 0.00300332 0)
(0.018177 0.00331304 0)
(0.0186888 0.00349824 0)
(0 0 0)
(1.69532e-06 4.39415e-08 0)
(4.01356e-06 1.07822e-07 0)
(7.83778e-06 2.21597e-07 0)
(1.43862e-05 4.31056e-07 0)
(2.54389e-05 8.10079e-07 0)
(4.36034e-05 1.47756e-06 0)
(7.26017e-05 2.61985e-06 0)
(0.000117575 4.52011e-06 0)
(0.000185379 7.59516e-06 0)
(0.000284837 1.24395e-05 0)
(0.000426899 1.9875e-05 0)
(0.000624657 3.10028e-05 0)
(0.000893167 4.72538e-05 0)
(0.00124905 7.04305e-05 0)
(0.00170983 0.000102736 0)
(0.00229311 0.000146781 0)
(0.00301547 0.000205575 0)
(0.00389139 0.000282491 0)
(0.00493215 0.000381225 0)
(0.00614498 0.000505753 0)
(0.00753246 0.000660278 0)
(0.00909226 0.000849136 0)
(0.0108168 0.00107649 0)
(0.0126918 0.00134555 0)
(0.0146924 0.00165663 0)
(0.0167717 0.00200339 0)
(0.018836 0.00236593 0)
(0.0206993 0.00270039 0)
(0.0220478 0.00293135 0)
(0.0227631 0.00305329 0)
(0 0 0)
(1.64102e-06 4.94142e-08 0)
(3.88995e-06 1.21153e-07 0)
(7.60916e-06 2.48622e-07 0)
(1.39934e-05 4.82738e-07 0)
(2.47962e-05 9.05393e-07 0)
(4.25976e-05 1.64788e-06 0)
(7.10992e-05 2.91509e-06 0)
(0.000115443 5.01676e-06 0)
(0.000182534 8.40599e-06 0)
(0.00028133 1.37241e-05 0)
(0.000423063 2.1849e-05 0)
(0.000621336 3.39426e-05 0)
(0.000892052 5.14903e-05 0)
(0.00125316 7.63241e-05 0)
(0.00172417 0.000110617 0)
(0.00232549 0.000156844 0)
(0.0030776 0.000217692 0)
(0.00400011 0.000295925 0)
(0.00511089 0.000394207 0)
(0.00642516 0.000514895 0)
(0.00795477 0.00065982 0)
(0.00970723 0.00083008 0)
(0.0116841 0.00102581 0)
(0.0138772 0.00124581 0)
(0.0162606 0.00148673 0)
(0.0187736 0.00174129 0)
(0.0212868 0.0019945 0)
(0.023547 0.00221688 0)
(0.0251395 0.00235939 0)
(0.0259662 0.00243288 0)
(0 0 0)
(1.58979e-06 5.44166e-08 0)
(3.77231e-06 1.33244e-07 0)
(7.38938e-06 2.72877e-07 0)
(1.36117e-05 5.28586e-07 0)
(2.41642e-05 9.88902e-07 0)
(4.15957e-05 1.79515e-06 0)
(6.95796e-05 3.1668e-06 0)
(0.000113245 5.43371e-06 0)
(0.000179524 9.07512e-06 0)
(0.000277473 1.47636e-05 0)
(0.00041855 2.34101e-05 0)
(0.000616779 3.62044e-05 0)
(0.000888779 5.46405e-05 0)
(0.00125362 8.05168e-05 0)
(0.00173247 0.000115896 0)
(0.00234809 0.000163008 0)
(0.00312412 0.00022409 0)
(0.00408426 0.000301139 0)
(0.00525137 0.000395601 0)
(0.00664646 0.000507997 0)
(0.00828753 0.000637549 0)
(0.0101879 0.000781876 0)
(0.0123535 0.000936881 0)
(0.0147773 0.00109691 0)
(0.0174287 0.00125525 0)
(0.0202333 0.00140457 0)
(0.0230352 0.00153646 0)
(0.0255352 0.00163826 0)
(0.0272553 0.00168991 0)
(0.0281304 0.00169411 0)
(0 0 0)
(1.54199e-06 5.90022e-08 0)
(3.66146e-06 1.44215e-07 0)
(7.17968e-06 2.94588e-07 0)
(1.32424e-05 5.69003e-07 0)
(2.35434e-05 1.06133e-06 0)
(4.05948e-05 1.92069e-06 0)
(6.8031e-05 3.37741e-06 0)
(0.000110951 5.77552e-06 0)
(0.00017628 9.61119e-06 0)
(0.000273125 1.55746e-05 0)
(0.000413089 2.45905e-05 0)
(0.000610497 3.78492e-05 0)
(0.000882495 5.68185e-05 0)
(0.001249 8.322e-05 0)
(0.00173243 0.000118954 0)
(0.0023573 0.000165957 0)
(0.00314953 0.000225962 0)
(0.00413568 0.000300172 0)
(0.00534183 0.000388815 0)
(0.00679238 0.000490635 0)
(0.00850826 0.000602369 0)
(0.0105046 0.00071837 0)
(0.0127869 0.000830595 0)
(0.0153444 0.000929317 0)
(0.0181391 0.00100486 0)
(0.0210848 0.00105032 0)
(0.0240095 0.00106437 0)
(0.0265925 0.00105122 0)
(0.0283324 0.00101864 0)
(0.0291706 0.000979672 0)
(0 0 0)
(1.4982e-06 6.32443e-08 0)
(3.55862e-06 1.54237e-07 0)
(6.98205e-06 3.14086e-07 0)
(1.28883e-05 6.04606e-07 0)
(2.29372e-05 1.12382e-06 0)
(3.95972e-05 2.02659e-06 0)
(6.64519e-05 3.55075e-06 0)
(0.000108547 6.04924e-06 0)
(0.000172765 1.00273e-05 0)
(0.000268202 1.61812e-05 0)
(0.000406511 2.54338e-05 0)
(0.00060217 3.89566e-05 0)
(0.000872639 5.81674e-05 0)
(0.00123836 8.46863e-05 0)
(0.00172255 0.000120233 0)
(0.00235081 0.00016644 0)
(0.00315048 0.00022457 0)
(0.00414968 0.000295107 0)
(0.00537608 0.000377228 0)
(0.0068552 0.000468185 0)
(0.00860809 0.000562661 0)
(0.0106482 0.000652312 0)
(0.0129766 0.000725822 0)
(0.0155752 0.00077002 0)
(0.0183962 0.000772713 0)
(0.0213437 0.00072759 0)
(0.0242399 0.000640155 0)
(0.026765 0.000530663 0)
(0.0284278 0.00043077 0)
(0.0291998 0.000341152 0)
(0 0 0)
(1.45916e-06 6.72361e-08 0)
(3.46546e-06 1.63527e-07 0)
(6.79942e-06 3.31798e-07 0)
(1.2554e-05 6.36198e-07 0)
(2.2352e-05 1.17784e-06 0)
(3.86117e-05 2.11554e-06 0)
(6.48522e-05 3.69174e-06 0)
(0.000106042 6.26378e-06 0)
(0.000168981 1.03393e-05 0)
(0.000262686 1.66119e-05 0)
(0.000398757 2.59908e-05 0)
(0.000591671 3.9615e-05 0)
(0.000858969 5.88392e-05 0)
(0.00122129 8.5174e-05 0)
(0.00170218 0.000120162 0)
(0.00232772 0.000165168 0)
(0.00312577 0.00022106 0)
(0.00412494 0.000287765 0)
(0.00535305 0.000363688 0)
(0.00683502 0.000445025 0)
(0.00858994 0.00052504 0)
(0.0106271 0.000593507 0)
(0.0129407 0.000636731 0)
(0.0155028 0.000638834 0)
(0.0182545 0.000585325 0)
(0.0210917 0.000469921 0)
(0.0238394 0.000304141 0)
(0.0261986 0.000124438 0)
(0.027716 -1.45167e-05 0)
(0.028318 -0.000111115 0)
(0 0 0)
(1.42586e-06 7.10892e-08 0)
(3.38419e-06 1.7235e-07 0)
(6.63575e-06 3.48241e-07 0)
(1.22461e-05 6.64744e-07 0)
(2.17984e-05 1.22516e-06 0)
(3.76543e-05 2.19076e-06 0)
(6.32551e-05 3.80611e-06 0)
(0.000103469 6.42931e-06 0)
(0.000164969 1.05652e-05 0)
(0.000256629 1.68975e-05 0)
(0.00038989 2.63139e-05 0)
(0.000579071 3.99129e-05 0)
(0.000841567 5.89806e-05 0)
(0.00119789 8.49216e-05 0)
(0.00167149 0.000119123 0)
(0.00228833 0.000162735 0)
(0.00307609 0.000216342 0)
(0.00406295 0.000279511 0)
(0.00527585 0.000350202 0)
(0.00673795 0.000424062 0)
(0.00846521 0.000493649 0)
(0.0104618 0.000547786 0)
(0.012714 0.000571405 0)
(0.0151836 0.00054665 0)
(0.0177997 0.000456502 0)
(0.0204504 0.000292655 0)
(0.0229677 6.86759e-05 0)
(0.0250895 -0.00016602 0)
(0.0264325 -0.000331935 0)
(0.0269574 -0.000384373 0)
(0 0 0)
(1.39952e-06 7.49334e-08 0)
(3.31756e-06 1.81009e-07 0)
(6.49614e-06 3.6401e-07 0)
(1.19735e-05 6.91351e-07 0)
(2.1291e-05 1.2678e-06 0)
(3.67481e-05 2.25582e-06 0)
(6.1697e-05 3.90018e-06 0)
(0.000100882 6.55672e-06 0)
(0.000160812 1.07234e-05 0)
(0.000250153 1.70693e-05 0)
(0.000380089 2.64548e-05 0)
(0.00056463 3.99334e-05 0)
(0.000820815 5.87232e-05 0)
(0.00116874 8.41321e-05 0)
(0.00163136 0.00011742 0)
(0.00223404 0.000159584 0)
(0.00300367 0.000211037 0)
(0.00396735 0.000271182 0)
(0.00515046 0.00033785 0)
(0.00657383 0.000406617 0)
(0.00825003 0.000470034 0)
(0.0101783 0.000516894 0)
(0.012338 0.000531828 0)
(0.0146818 0.000495878 0)
(0.017128 0.000389268 0)
(0.0195548 0.0001986 0)
(0.0217938 -6.85487e-05 0)
(0.0236129 -0.000361936 0)
(0.0247163 -0.000580951 0)
(0.0251818 -0.000666622 0)
(0 0 0)
(1.3816e-06 7.89162e-08 0)
(3.26891e-06 1.89848e-07 0)
(6.38681e-06 3.79772e-07 0)
(1.17469e-05 7.17248e-07 0)
(2.08481e-05 1.30796e-06 0)
(3.59238e-05 2.31461e-06 0)
(6.0227e-05 3.9806e-06 0)
(9.83592e-05 6.65732e-06 0)
(0.000156633 1.08328e-05 0)
(0.000243446 1.71577e-05 0)
(0.000369636 2.64617e-05 0)
(0.000548777 3.97515e-05 0)
(0.000797358 5.81794e-05 0)
(0.0011348 8.2968e-05 0)
(0.00158326 0.000115279 0)
(0.00216707 0.000156007 0)
(0.00291187 0.000205494 0)
(0.00384324 0.000263137 0)
(0.00498457 0.000326889 0)
(0.00635428 0.000392645 0)
(0.00796188 0.000453519 0)
(0.00980281 0.000499095 0)
(0.0118521 0.000514821 0)
(0.0140568 0.000481966 0)
(0.0163285 0.000379045 0)
(0.018537 0.00018674 0)
(0.0205025 -9.95073e-05 0)
(0.0219801 -0.000443697 0)
(0.0226886 -0.000737558 0)
(0.0228755 -0.00090798 0)
(0 0 0)
(1.3738e-06 8.32454e-08 0)
(3.24194e-06 1.9934e-07 0)
(6.31442e-06 3.96415e-07 0)
(1.15778e-05 7.44011e-07 0)
(2.04884e-05 1.34835e-06 0)
(3.5211e-05 2.37167e-06 0)
(5.88918e-05 4.05487e-06 0)
(9.59734e-05 6.7431e-06 0)
(0.00015254 1.09122e-05 0)
(0.000236673 1.71915e-05 0)
(0.000358783 2.63773e-05 0)
(0.000531885 3.94283e-05 0)
(0.000771754 5.74327e-05 0)
(0.00109692 8.15371e-05 0)
(0.00152843 0.000112824 0)
(0.00208927 0.000152129 0)
(0.00280346 0.000199784 0)
(0.00369464 0.000255288 0)
(0.00478404 0.000316883 0)
(0.00608765 0.000381029 0)
(0.00761239 0.000441795 0)
(0.00935137 0.00049018 0)
(0.011278 0.000513499 0)
(0.0133385 0.00049507 0)
(0.0154458 0.00041484 0)
(0.0174739 0.000252558 0)
(0.0192507 -1.92619e-06 0)
(0.0205525 -0.000323367 0)
(0.0211052 -0.000597521 0)
(0.0203311 -0.000928931 0)
(0 0 0)
(0.00163009 0 0)
(0.00330158 0 0)
(0.00498261 0 0)
(0.00625033 0 0)
(0.00699717 0 0)
(0.00725017 0 0)
(0.00709594 0 0)
(0.00664013 0 0)
(0.00598594 0 0)
(0.00522374 0 0)
(0.00442674 0 0)
(0.00365021 0 0)
(0.0029325 0 0)
(0.00229707 0 0)
(0.00175506 0 0)
(0.00130812 0 0)
(0.000951048 0 0)
(0.000674299 0 0)
(0.000466056 0 0)
(0.000313874 0 0)
(0.000205855 0 0)
(0.000131394 0 0)
(8.15624e-05 0 0)
(4.91967e-05 0 0)
(2.88018e-05 0 0)
(1.63294e-05 0 0)
(8.90587e-06 0 0)
(4.54891e-06 0 0)
(1.90023e-06 0 0)
(0 0 0)
(0.00175555 -0.00159203 0)
(0.00278359 -0.00135632 0)
(0.00422493 -0.00113643 0)
(0.00567679 -0.00087815 0)
(0.00675334 -0.00064491 0)
(0.0073498 -0.000455031 0)
(0.00748836 -0.00030865 0)
(0.00724941 -0.000200366 0)
(0.00673262 -0.000123347 0)
(0.00603592 -7.07845e-05 0)
(0.00524519 -3.65447e-05 0)
(0.00443004 -1.54565e-05 0)
(0.00364284 -3.3937e-06 0)
(0.00291967 2.77709e-06 0)
(0.00228225 5.32453e-06 0)
(0.00174045 5.81232e-06 0)
(0.00129495 5.26174e-06 0)
(0.000939899 4.29838e-06 0)
(0.00066532 3.27429e-06 0)
(0.000459123 2.36317e-06 0)
(0.00030872 1.63022e-06 0)
(0.000202156 1.08046e-06 0)
(0.000128829 6.90146e-07 0)
(7.98419e-05 4.25665e-07 0)
(4.80806e-05 2.5377e-07 0)
(2.81022e-05 1.46279e-07 0)
(1.59071e-05 8.14347e-08 0)
(8.66324e-06 4.35363e-08 0)
(4.42204e-06 2.17853e-08 0)
(1.85033e-06 8.92442e-09 0)
(0 0 0)
(0.00504357 -0.0025947 0)
(0.00574335 -0.00232458 0)
(0.00670557 -0.00197766 0)
(0.00761392 -0.00155665 0)
(0.00820214 -0.0011585 0)
(0.00839963 -0.000823852 0)
(0.00822792 -0.000560794 0)
(0.0077555 -0.000363962 0)
(0.00706778 -0.00022306 0)
(0.00624915 -0.000126623 0)
(0.00537381 -6.38128e-05 0)
(0.00450178 -2.52741e-05 0)
(0.0036778 -3.43695e-06 0)
(0.00293204 7.49601e-06 0)
(0.00228173 1.17438e-05 0)
(0.00173344 1.22228e-05 0)
(0.00128546 1.08384e-05 0)
(0.000930256 8.75509e-06 0)
(0.000656732 6.62349e-06 0)
(0.000452079 4.75875e-06 0)
(0.000303282 3.27242e-06 0)
(0.000198161 2.16389e-06 0)
(0.000126019 1.37982e-06 0)
(7.79417e-05 8.49915e-07 0)
(4.68437e-05 5.06176e-07 0)
(2.73268e-05 2.91535e-07 0)
(1.54403e-05 1.62203e-07 0)
(8.39646e-06 8.66886e-08 0)
(4.28378e-06 4.3393e-08 0)
(1.7964e-06 1.7814e-08 0)
(0 0 0)
(0.00935505 -0.00307112 0)
(0.0097086 -0.00282328 0)
(0.0101584 -0.00244208 0)
(0.0104065 -0.00195309 0)
(0.0103532 -0.00147053 0)
(0.0100019 -0.00105282 0)
(0.0093905 -0.000718009 0)
(0.00857984 -0.000464379 0)
(0.00763953 -0.000281539 0)
(0.00663692 -0.000156076 0)
(0.00563064 -7.45336e-05 0)
(0.0046675 -2.49201e-05 0)
(0.00378163 2.64964e-06 0)
(0.00299489 1.58382e-05 0)
(0.00231824 2.02654e-05 0)
(0.00175356 1.98319e-05 0)
(0.00129578 1.70877e-05 0)
(0.000935001 1.35841e-05 0)
(0.000658502 1.01765e-05 0)
(0.000452404 7.26511e-06 0)
(0.000303008 4.97463e-06 0)
(0.00019772 3.27986e-06 0)
(0.000125603 2.08723e-06 0)
(7.76187e-05 1.28391e-06 0)
(4.6619e-05 7.63979e-07 0)
(2.71828e-05 4.39801e-07 0)
(1.53545e-05 2.44653e-07 0)
(8.34932e-06 1.30781e-07 0)
(4.26102e-06 6.55203e-08 0)
(1.78794e-06 2.69593e-08 0)
(0 0 0)
(0.0140715 -0.00313898 0)
(0.0141029 -0.00291291 0)
(0.0140337 -0.00254404 0)
(0.0135986 -0.00205601 0)
(0.0128569 -0.00155956 0)
(0.0118973 -0.00111984 0)
(0.0107858 -0.00076159 0)
(0.00958223 -0.000487325 0)
(0.00834344 -0.000288536 0)
(0.00712021 -0.00015212 0)
(0.00595479 -6.40524e-05 0)
(0.00487956 -1.13952e-05 0)
(0.0039166 1.67544e-05 0)
(0.00307818 2.89703e-05 0)
(0.00236782 3.15992e-05 0)
(0.00178183 2.9067e-05 0)
(0.00131105 2.42653e-05 0)
(0.000942671 1.89382e-05 0)
(0.000661951 1.40249e-05 0)
(0.000453663 9.93738e-06 0)
(0.000303238 6.77033e-06 0)
(0.000197542 4.44883e-06 0)
(0.000125322 2.82491e-06 0)