/*--------------------------------*- C++ -*----------------------------------*\
| =========                 |                                                 |
| \\      /  F ield         | OpenFOAM: The Open Source CFD Toolbox           |
|  \\    /   O peration     | Version:  5.x                                   |
|   \\  /    A nd           | Web:      www.OpenFOAM.org                      |
|    \\/     M anipulation  |                                                 |
\*---------------------------------------------------------------------------*/
FoamFile
{
    version     2.0;
    format      ascii;
    class       volVectorField;
    location    "3.8";
    object      cellDisplacement;
}
// * * * * * * * * * * * * * * * * * * * * * * * * * * * * * * * * * * * * * //

dimensions      [0 1 0 0 0 0 0];

internalField   nonuniform List<vector> 
2790
(
(0.00254074 0 -1.57096e-06)
(0.00730654 0 -4.51681e-06)
(0.0114833 0 -7.09403e-06)
(0.0151185 0 -9.32104e-06)
(0.0182578 0 -1.12063e-05)
(0.0209421 0 -1.27448e-05)
(0.0232082 0 -1.39159e-05)
(0.025088 0 -1.46826e-05)
(0.0266098 0 -1.49884e-05)
(0.0277977 0 -1.4755e-05)
(0.0286726 0 -1.38778e-05)
(0.0292519 0 -1.2221e-05)
(0.0295498 0 -9.61006e-06)
(0.0295779 0 -5.8226e-06)
(0.0293452 0 -5.76748e-07)
(0.0288583 0 6.48349e-06)
(0.0281222 0 1.58059e-05)
(0.02714 0 2.79509e-05)
(0.0259141 0 4.36166e-05)
(0.0244464 0 6.36683e-05)
(0.0227394 0 8.91719e-05)
(0.0207988 0 0.000121424)
(0.0186352 0 0.000161961)
(0.0162679 0 0.000212538)
(0.0137295 0 0.000275043)
(0.0110731 0 0.000351301)
(0.00838468 0 0.000442643)
(0.0058061 0 0.000548817)
(0.00358044 0 0.000664769)
(0.00219347 0 0.000769405)
(0.00254248 0 -4.71724e-06)
(0.00731186 0 -1.3564e-05)
(0.0114924 0 -2.13065e-05)
(0.0151318 0 -2.80016e-05)
(0.0182758 0 -3.36762e-05)
(0.0209657 0 -3.83166e-05)
(0.0232381 0 -4.18636e-05)
(0.0251256 0 -4.42085e-05)
(0.0266564 0 -4.51859e-05)
(0.0278551 0 -4.45657e-05)
(0.0287429 0 -4.20414e-05)
(0.0293375 0 -3.72144e-05)
(0.0296537 0 -2.95743e-05)
(0.0297036 0 -1.84713e-05)
(0.0294971 0 -3.0836e-06)
(0.0290416 0 1.76244e-05)
(0.0283431 0 4.4952e-05)
(0.0274062 0 8.05206e-05)
(0.0262348 0 0.000126341)
(0.0248327 0 0.000184891)
(0.0232047 0 0.00025921)
(0.0213588 0 0.000352973)
(0.0193089 0 0.000470489)
(0.0170781 0 0.000616607)
(0.0147043 0 0.000796364)
(0.0122464 0 0.0010142)
(0.00979776 0 0.0012723)
(0.00750866 0 0.00156662)
(0.00562664 0 0.00187645)
(0.00459528 0 0.00213411)
(0.00254612 0 -7.87331e-06)
(0.00732285 0 -2.26421e-05)
(0.0115111 0 -3.55764e-05)
(0.0151588 0 -4.67756e-05)
(0.0183123 0 -5.62891e-05)
(0.0210132 0 -6.40995e-05)
(0.0232985 0 -7.01157e-05)
(0.025201 0 -7.41654e-05)
(0.0267497 0 -7.59858e-05)
(0.0279698 0 -7.52102e-05)
(0.0288828 0 -7.13506e-05)
(0.0295076 0 -6.37743e-05)
(0.0298598 0 -5.16723e-05)
(0.0299528 0 -3.40196e-05)
(0.0297976 0 -9.52477e-06)
(0.0294037 0 2.34326e-05)
(0.0287788 0 6.6875e-05)
(0.0279304 0 0.000123309)
(0.0268654 0 0.000195815)
(0.0255916 0 0.000288148)
(0.024117 0 0.000404849)
(0.0224547 0 0.000551364)
(0.0206241 0 0.00073392)
(0.0186544 0 0.000959321)
(0.0165931 0 0.00123414)
(0.0145065 0 0.00156297)
(0.0124937 0 0.00194533)
(0.0107029 0 0.00236847)
(0.00935365 0 0.00279177)
(0.00878443 0 0.00311108)
(0.00255155 0 -1.10411e-05)
(0.00733926 0 -3.17585e-05)
(0.0115389 0 -4.99206e-05)
(0.0151991 0 -6.56752e-05)
(0.0183666 0 -7.91011e-05)
(0.0210837 0 -9.01851e-05)
(0.0233878 0 -9.88143e-05)
(0.0253127 0 -0.000104767)
(0.0268878 0 -0.000107701)
(0.0281391 0 -0.000107138)
(0.0290894 0 -0.000102441)
(0.0297584 0 -9.27888e-05)
(0.0301634 0 -7.71348e-05)
(0.0303192 0 -5.41608e-05)
(0.0302389 0 -2.22166e-05)
(0.0299343 0 2.07534e-05)
(0.0294162 0 7.72941e-05)
(0.0286953 0 0.000150529)
(0.0277834 0 0.000244239)
(0.026694 0 0.000362939)
(0.0254386 0 0.000511941)
(0.0240373 0 0.000697581)
(0.0225163 0 0.000926744)
(0.020909 0 0.00120665)
(0.0192775 0 0.00154354)
(0.0176918 0 0.00193943)
(0.0162494 0 0.00238857)
(0.0150805 0 0.00286823)
(0.0143491 0 0.0033225)
(0.0142599 0 0.00363279)
(0.00255874 0 -1.42215e-05)
(0.00736088 0 -4.09173e-05)
(0.0115755 0 -6.43497e-05)
(0.015252 0 -8.47232e-05)
(0.0184378 0 -0.000102155)
(0.021176 0 -0.000116646)
(0.0235048 0 -0.000128076)
(0.0254587 0 -0.000136192)
(0.027068 0 -0.000140595)
(0.0283599 0 -0.00014073)
(0.0293583 0 -0.000135853)
(0.0300844 0 -0.000125013)
(0.0305572 0 -0.000107003)
(0.0307936 0 -8.03179e-05)
(0.0308091 0 -4.30901e-05)
(0.0306184 0 6.98172e-06)
(0.0302355 0 7.27157e-05)
(0.0296752 0 0.000157529)
(0.0289547 0 0.00026546)
(0.0280901 0 0.000401004)
(0.0271046 0 0.000569552)
(0.0260232 0 0.000777372)
(0.0248806 0 0.00103048)
(0.0237145 0 0.00133554)
(0.0225909 0 0.00169627)
(0.021583 0 0.0021102)
(0.0207773 0 0.002566)
(0.0202719 0 0.00303385)
(0.0201576 0 0.00345257)
(0.0204954 0 0.00371004)
(0.00256758 0 -1.74131e-05)
(0.00738744 0 -5.01152e-05)
(0.0116203 0 -7.88621e-05)
(0.0153166 0 -0.000103924)
(0.0185248 0 -0.000125467)
(0.0212886 0 -0.000143521)
(0.0236473 0 -0.000157972)
(0.0256362 0 -0.000168558)
(0.0272868 0 -0.000174854)
(0.0286275 0 -0.00017626)
(0.0296837 0 -0.000171981)
(0.0304781 0 -0.000161)
(0.0310317 0 -0.00014204)
(0.0313639 0 -0.000113527)
(0.0314927 0 -7.35347e-05)
(0.0314359 0 -1.97247e-05)
(0.0312111 0 5.07183e-05)
(0.0308366 0 0.000141176)
(0.0303336 0 0.000255252)
(0.029725 0 0.000397084)
(0.0290422 0 0.000571595)
(0.0283171 0 0.000783667)
(0.027591 0 0.00103761)
(0.0269127 0 0.00133754)
(0.0263322 0 0.00168364)
(0.0259222 0 0.00206899)
(0.0257519 0 0.00247779)
(0.0258777 0 0.00287793)
(0.0263118 0 0.00321347)
(0.0269793 0 0.00339489)
(0.00257796 0 -2.06118e-05)
(0.00741852 0 -5.93418e-05)
(0.0116727 0 -9.34433e-05)
(0.015392 0 -0.000123264)
(0.018626 0 -0.00014903)
(0.0214194 0 -0.000170812)
(0.0238125 0 -0.000188524)
(0.0258418 0 -0.000201916)
(0.0275399 0 -0.000210568)
(0.0289365 0 -0.000213877)
(0.0300584 0 -0.000211048)
(0.0309304 0 -0.000201067)
(0.0315754 0 -0.000182681)
(0.0320151 0 -0.000154367)
(0.0322706 0 -0.000114297)
(0.0323627 0 -6.03049e-05)
(0.0323128 0 1.01344e-05)
(0.032143 0 9.99067e-05)
(0.0318771 0 0.000212142)
(0.0315481 0 0.000350034)
(0.0311885 0 0.000517102)
(0.0308358 0 0.000716404)
(0.0305348 0 0.000949928)
(0.0303373 0 0.00121774)
(0.0302854 0 0.00151631)
(0.0304384 0 0.00183537)
(0.0308405 0 0.00215649)
(0.0315028 0 0.00244978)
(0.0323645 0 0.00267207)
(0.0332396 0 0.00276671)
(0.00258969 0 -2.38115e-05)
(0.00745361 0 -6.85787e-05)
(0.0117316 0 -0.000108065)
(0.0154767 0 -0.000142708)
(0.0187396 0 -0.000172804)
(0.021566 0 -0.000198482)
(0.0239975 0 -0.0002197)
(0.0260715 0 -0.000236245)
(0.027822 0 -0.000247731)
(0.02928 0 -0.000253594)
(0.030474 0 -0.000253088)
(0.0314305 0 -0.000245274)
(0.0321745 0 -0.000229005)
(0.0327302 0 -0.00020292)
(0.0331213 0 -0.000165431)
(0.0333716 0 -0.000114722)
(0.0335058 0 -4.87732e-05)
(0.0335503 0 3.45855e-05)
(0.0335338 0 0.00013754)
(0.0334901 0 0.000262118)
(0.0334554 0 0.00041004)
(0.0334691 0 0.000582124)
(0.033575 0 0.000777592)
(0.033818 0 0.000993132)
(0.0342389 0 0.00122156)
(0.0348744 0 0.00145029)
(0.0357384 0 0.00166076)
(0.0367977 0 0.00182876)
(0.0379337 0 0.00192792)
(0.0388896 0 0.00193819)
(0.00260257 0 -2.70032e-05)
(0.00749205 0 -7.78006e-05)
(0.0117961 0 -0.000122688)
(0.0155692 0 -0.000162202)
(0.0188634 0 -0.000196726)
(0.0217256 0 -0.000226457)
(0.0241984 0 -0.000251417)
(0.0263206 0 -0.000271452)
(0.0281272 0 -0.000286238)
(0.0296507 0 -0.000295289)
(0.0309211 0 -0.000297954)
(0.0319666 0 -0.000293425)
(0.0328144 0 -0.000280739)
(0.0334905 0 -0.000258785)
(0.0340212 0 -0.000226325)
(0.034433 0 -0.000182023)
(0.0347534 0 -0.000124511)
(0.0350116 0 -5.24826e-05)
(0.0352393 0 3.51351e-05)
(0.0354711 0 0.000138965)
(0.035744 0 0.000258881)
(0.0360965 0 0.000393481)
(0.0365682 0 0.000539448)
(0.0371956 0 0.000690789)
(0.0380073 0 0.00083806)
(0.039017 0 0.000967982)
(0.0402069 0 0.00106429)
(0.0415061 0 0.00111083)
(0.0427585 0 0.00109886)
(0.0436858 0 0.00104118)
(0.00261635 0 -3.01762e-05)
(0.00753311 0 -8.69762e-05)
(0.0118649 0 -0.000137261)
(0.0156677 0 -0.000181679)
(0.0189951 0 -0.000220708)
(0.0218951 0 -0.000254632)
(0.0244115 0 -0.000283547)
(0.026584 0 -0.000307381)
(0.0284492 0 -0.000325899)
(0.0300406 0 -0.00033872)
(0.0313898 0 -0.000345329)
(0.0325266 0 -0.000345096)
(0.0334796 0 -0.000337294)
(0.034277 0 -0.00032113)
(0.0349469 0 -0.000295784)
(0.0355177 0 -0.000260477)
(0.0360192 0 -0.000214557)
(0.036482 0 -0.000157638)
(0.0369391 0 -8.97841e-05)
(0.0374249 0 -1.17558e-05)
(0.0379747 0 7.46642e-05)
(0.0386238 0 0.00016624)
(0.0394044 0 0.000257803)
(0.0403423 0 0.000341827)
(0.0414498 0 0.000408269)
(0.0427172 0 0.000445129)
(0.0440984 0 0.000440533)
(0.0454942 0 0.000387444)
(0.0467335 0 0.000292697)
(0.0475587 0 0.000192091)
(0.00263075 0 -3.33185e-05)
(0.00757598 0 -9.60698e-05)
(0.0119366 0 -0.000151727)
(0.0157703 0 -0.000201058)
(0.0191321 0 -0.000244647)
(0.0220711 0 -0.000282873)
(0.0246324 0 -0.000315924)
(0.0268567 0 -0.000343824)
(0.0287815 0 -0.000366446)
(0.0304418 0 -0.000383541)
(0.0318702 0 -0.000394756)
(0.0330978 0 -0.000399671)
(0.0341549 0 -0.000397828)
(0.0350709 0 -0.000388783)
(0.0358752 0 -0.000372169)
(0.0365978 0 -0.000347775)
(0.0372691 0 -0.000315663)
(0.0379205 0 -0.000276316)
(0.0385846 0 -0.000230825)
(0.039294 0 -0.000181127)
(0.0400808 0 -0.00013027)
(0.0409746 0 -8.27118e-05)
(0.0419992 0 -4.4549e-05)
(0.0431678 0 -2.35508e-05)
(0.0444767 0 -2.87435e-05)
(0.0458954 0 -6.91346e-05)
(0.0473564 0 -0.000150963)
(0.048744 0 -0.00027262)
(0.0498898 0 -0.000416144)
(0.0505819 0 -0.000534621)
(0.00264547 0 -3.64165e-05)
(0.00761977 0 -0.000105042)
(0.0120097 0 -0.00016602)
(0.015875 0 -0.000220247)
(0.0192717 0 -0.000268422)
(0.0222504 0 -0.000311026)
(0.0248569 0 -0.000348351)
(0.0271332 0 -0.000380529)
(0.0291176 0 -0.000407555)
(0.0308461 0 -0.000429326)
(0.0323524 0 -0.000445669)
(0.0336686 0 -0.000456388)
(0.0348258 0 -0.000461306)
(0.0358546 0 -0.000460334)
(0.0367851 0 -0.000453542)
(0.0376478 0 -0.000441255)
(0.0384731 0 -0.000424174)
(0.0392919 0 -0.000403522)
(0.0401349 0 -0.000381207)
(0.041032 0 -0.000360011)
(0.0420106 0 -0.000343758)
(0.0430935 0 -0.000337435)
(0.0442955 0 -0.000347151)
(0.0456182 0 -0.000379792)
(0.0470441 0 -0.000442139)
(0.0485285 0 -0.000539179)
(0.0499915 0 -0.000671284)
(0.0513128 0 -0.000829984)
(0.0523373 0 -0.000991917)
(0.0529012 0 -0.00111012)
(0.00266021 0 -3.94556e-05)
(0.00766359 0 -0.00011385)
(0.012083 0 -0.00018007)
(0.0159797 0 -0.000239148)
(0.0194114 0 -0.0002919)
(0.0224295 0 -0.00033892)
(0.0250809 0 -0.000380608)
(0.0274084 0 -0.00041721)
(0.0294512 0 -0.000448854)
(0.0312459 0 -0.000475588)
(0.0328271 0 -0.000497424)
(0.0342276 0 -0.000514388)
(0.0354791 0 -0.000526579)
(0.0366124 0 -0.000534235)
(0.037658 0 -0.00053782)
(0.0386459 0 -0.000538118)
(0.039606 0 -0.000536347)
(0.0405674 0 -0.000534282)
(0.0415582 0 -0.000534383)
(0.0426044 0 -0.000539901)
(0.043728 0 -0.000554938)
(0.0449448 0 -0.000584381)
(0.0462611 0 -0.000633626)
(0.0476692 0 -0.000707928)
(0.0491423 0 -0.000811223)
(0.050629 0 -0.000944251)
(0.0520478 0 -0.00110201)
(0.0532855 0 -0.00127096)
(0.0542046 0 -0.00142665)
(0.0546735 0 -0.00153078)
(0.00267462 0 -4.24204e-05)
(0.00770649 0 -0.000122447)
(0.0121547 0 -0.000193801)
(0.0160824 0 -0.000257653)
(0.0195483 0 -0.00031494)
(0.0226051 0 -0.00036637)
(0.0253003 0 -0.000412454)
(0.0276774 0 -0.000453558)
(0.0297762 0 -0.000489941)
(0.0316341 0 -0.000521803)
(0.0332859 0 -0.000549334)
(0.0347649 0 -0.000572768)
(0.0361028 0 -0.000592449)
(0.0373305 0 -0.000608904)
(0.038478 0 -0.000622919)
(0.0395744 0 -0.000635631)
(0.0406479 0 -0.000648623)
(0.0417254 0 -0.000664012)
(0.0428317 0 -0.000684528)
(0.0439883 0 -0.000713534)
(0.0452115 0 -0.000754974)
(0.0465107 0 -0.000813167)
(0.0478849 0 -0.000892353)
(0.0493197 0 -0.000995887)
(0.0507838 0 -0.00112495)
(0.0522262 0 -0.0012767)
(0.053574 0 -0.00144191)
(0.0547329 0 -0.00160286)
(0.0555906 0 -0.00173383)
(0.0560277 0 -0.00180816)
(0.0026884 0 -4.5295e-05)
(0.00774756 0 -0.000130789)
(0.0122235 0 -0.000207138)
(0.0161811 0 -0.000275654)
(0.0196801 0 -0.000337397)
(0.022774 0 -0.000393185)
(0.0255112 0 -0.000443644)
(0.0279355 0 -0.000489256)
(0.0300873 0 -0.000530407)
(0.0320042 0 -0.00056744)
(0.0337212 0 -0.000600705)
(0.0352716 0 -0.000630624)
(0.036687 0 -0.000657748)
(0.0379976 0 -0.000682827)
(0.0392325 0 -0.000706888)
(0.0404194 0 -0.000731302)
(0.0415844 0 -0.000757855)
(0.0427514 0 -0.000788802)
(0.0439417 0 -0.00082688)
(0.045172 0 -0.000875264)
(0.0464533 0 -0.000937418)
(0.0477892 0 -0.0010168)
(0.0491729 0 -0.00111633)
(0.0505859 0 -0.00123762)
(0.0519956 0 -0.0013798)
(0.0533554 0 -0.001538)
(0.0546062 0 -0.00170142)
(0.055681 0 -0.00185079)
(0.0565085 0 -0.00195585)
(0.0569974 0 -0.00198728)
(0.00237732 0 -0.000839462)
(0.00419238 0 -0.000807999)
(0.00705018 0 -0.000740214)
(0.0103685 0 -0.000661182)
(0.0137717 0 -0.00058223)
(0.0170427 0 -0.000508939)
(0.0200654 0 -0.000443668)
(0.0227834 0 -0.00038693)
(0.0251744 0 -0.000338121)
(0.0272362 0 -0.00029632)
(0.0289763 0 -0.000260531)
(0.0304062 0 -0.000229803)
(0.0315376 0 -0.000203405)
(0.0323804 0 -0.000180654)
(0.0329412 0 -0.000160931)
(0.0332239 0 -0.000143704)
(0.0332292 0 -0.000128529)
(0.0329546 0 -0.000115046)
(0.0323947 0 -0.000102951)
(0.0315407 0 -9.19925e-05)
(0.0303806 0 -8.19548e-05)
(0.0288994 0 -7.26491e-05)
(0.0270787 0 -6.39056e-05)
(0.0248972 0 -5.55663e-05)
(0.0223302 0 -4.74783e-05)
(0.0193499 0 -3.94875e-05)
(0.0159254 0 -3.14312e-05)
(0.012023 0 -2.31308e-05)
(0.00760633 0 -1.43818e-05)
(0.00263432 0 -4.93744e-06)
(0.00463769 0 -0.00241974)
(0.00630185 0 -0.00233265)
(0.0089081 0 -0.00214679)
(0.0119522 0 -0.00192536)
(0.0150944 0 -0.00170132)
(0.0181337 0 -0.00149169)
(0.0209589 0 -0.00130396)
(0.0235125 0 -0.0011401)
(0.0257675 0 -0.000998496)
(0.027718 0 -0.000876739)
(0.0293676 0 -0.000772133)
(0.030724 0 -0.000681982)
(0.0317964 0 -0.00060437)
(0.0325915 0 -0.000537353)
(0.0331136 0 -0.000479137)
(0.0333647 0 -0.000428189)
(0.0333442 0 -0.000383237)
(0.0330486 0 -0.000343232)
(0.0324713 0 -0.0003073)
(0.0316031 0 -0.000274706)
(0.0304313 0 -0.00024482)
(0.0289404 0 -0.000217088)
(0.0271117 0 -0.00019101)
(0.0249236 0 -0.000166121)
(0.0223511 0 -0.000141968)
(0.0193661 0 -0.000118092)
(0.0159377 0 -9.4011e-05)
(0.0120317 0 -6.91913e-05)
(0.00761167 0 -4.30238e-05)
(0.00263617 0 -1.47715e-05)
(0.00865228 0 -0.00375642)
(0.0101343 0 -0.00363223)
(0.0123399 0 -0.00336294)
(0.0149093 0 -0.00303443)
(0.0175837 0 -0.00269692)
(0.0202 0 -0.00237751)
(0.022661 0 -0.00208889)
(0.0249088 0 -0.0018354)
(0.0269077 0 -0.00161422)
(0.0286476 0 -0.00142261)
(0.030125 0 -0.00125692)
(0.031341 0 -0.00111299)
(0.0323003 0 -0.000988647)
(0.0330037 0 -0.000880876)
(0.033451 0 -0.000786884)
(0.033641 0 -0.000704315)
(0.0335704 0 -0.000631215)
(0.0332337 0 -0.000565964)
(0.0326227 0 -0.000507204)
(0.0317266 0 -0.00045378)
(0.0305319 0 -0.000404695)
(0.0290221 0 -0.000359067)
(0.0271778 0 -0.000316095)
(0.0249766 0 -0.000275025)
(0.0223931 0 -0.000235123)
(0.0193989 0 -0.000195639)
(0.0159625 0 -0.000155783)
(0.0120493 0 -0.000114677)
(0.00762245 0 -7.13175e-05)
(0.00263987 0 -2.4488e-05)
(0.0139861 0 -0.00481051)
(0.015226 0 -0.00465197)
(0.0169321 0 -0.00432667)
(0.0189024 0 -0.00392902)
(0.0209764 0 -0.00351693)
(0.0230412 0 -0.00312273)
(0.0250215 0 -0.00276275)
(0.0268521 0 -0.00244184)
(0.028503 0 -0.00216006)
(0.0299557 0 -0.00191361)
(0.0311966 0 -0.00169876)
(0.0322215 0 -0.00151135)
(0.033023 0 -0.00134712)
(0.0335972 0 -0.00120398)
(0.0339385 0 -0.00107838)
(0.0340412 0 -0.000967408)
(0.0338988 0 -0.000868673)
(0.033503 0 -0.000780153)
(0.0328433 0 -0.000700132)
(0.031907 0 -0.000627134)
(0.030679 0 -0.000559866)
(0.0291416 0 -0.000497174)
(0.0272744 0 -0.000437996)
(0.0250541 0 -0.000381325)
(0.0224547 0 -0.00032617)
(0.0194469 0 -0.000271514)
(0.0159987 0 -0.000216275)
(0.012075 0 -0.000159251)
(0.00763817 0 -9.90586e-05)
(0.00264526 0 -3.40175e-05)
(0.0201438 0 -0.00555814)
(0.0210772 0 -0.00536727)
(0.0222283 0 -0.00501082)
(0.0235452 0 -0.00458139)
(0.0249608 0 -0.00413498)
(0.026412 0 -0.00370326)
(0.0278389 0 -0.00330349)
(0.0291912 0 -0.00294198)
(0.0304443 0 -0.00262113)
(0.0315614 0 -0.00233728)
(0.0325224 0 -0.00208662)
(0.0333178 0 -0.00186692)
(0.0339295 0 -0.0016727)
(0.0343458 0 -0.00150097)
(0.0345558 0 -0.00134895)
(0.0345498 0 -0.00121363)
(0.0343175 0 -0.00109245)
(0.0338473 0 -0.00098318)
(0.0331259 0 -0.000883913)
(0.0321384 0 -0.000792963)
(0.030868 0 -0.000708832)
(0.0292954 0 -0.00063016)
(0.0273988 0 -0.000555677)
(0.025154 0 -0.000484166)
(0.022534 0 -0.000414413)
(0.0195087 0 -0.000345161)
(0.0160454 0 -0.000275062)
(0.0121081 0 -0.000202608)
(0.00765835 0 -0.00012606)
(0.00265217 0 -4.32963e-05)
(0.0266242 0 -0.005981)
(0.0271994 0 -0.00577061)
(0.0277868 0 -0.00541298)
(0.02846 0 -0.00498958)
(0.0292267 0 -0.00454782)
(0.0300639 0 -0.00411537)
(0.0309311 0 -0.0037074)
(0.0317977 0 -0.00333234)
(0.0326259 0 -0.00299348)
(0.0333825 0 -0.00269007)
(0.0340428 0 -0.00241851)
(0.0345831 0 -0.00217632)
(0.0349821 0 -0.00196084)
(0.035219 0 -0.00176797)
(0.0352792 0 -0.00159528)
(0.0351485 0 -0.00144014)
(0.0348122 0 -0.00130011)
(0.0342553 0 -0.00117298)
(0.0334618 0 -0.0010568)
(0.0324142 0 -0.000949794)
(0.0310937 0 -0.000850349)
(0.0294792 0 -0.000756977)
(0.0275477 0 -0.000668262)
(0.0252737 0 -0.00058282)
(0.022629 0 -0.000499253)
(0.0195827 0 -0.000416098)
(0.0161012 0 -0.000331769)
(0.0121476 0 -0.000244479)
(0.00768239 0 -0.000152156)
(0.00266038 0 -5.22679e-05)
(0.0329403 0 -0.00607645)
(0.0331484 0 -0.0058758)
(0.0332204 0 -0.00555386)
(0.033318 0 -0.0051734)
(0.033501 0 -0.00477078)
(0.033778 0 -0.00436869)
(0.0341301 0 -0.00398119)
(0.0345297 0 -0.00361678)
(0.034941 0 -0.00327959)
(0.0353385 0 -0.00297179)
(0.0356916 0 -0.00269247)
(0.035966 0 -0.00243916)
(0.0361378 0 -0.00221018)
(0.0361836 0 -0.00200298)
(0.036083 0 -0.00181535)
(0.0358169 0 -0.00164507)
(0.035367 0 -0.00148998)
(0.0347148 0 -0.00134809)
(0.0338412 0 -0.0012175)
(0.0327266 0 -0.0010965)
(0.0313499 0 -0.000983445)
(0.0296883 0 -0.000876792)
(0.0277173 0 -0.000775039)
(0.02541 0 -0.000676686)
(0.0227372 0 -0.000580192)
(0.019667 0 -0.000483921)
(0.0161647 0 -0.00038608)
(0.0121925 0 -0.000284633)
(0.00770964 0 -0.000177205)
(0.00266967 0 -6.08837e-05)
(0.0386745 0 -0.00588961)
(0.0385696 0 -0.00573215)
(0.0382296 0 -0.00547947)
(0.0378647 0 -0.00517144)
(0.0375674 0 -0.00483385)
(0.0373699 0 -0.00448511)
(0.0372707 0 -0.00413836)
(0.0372517 0 -0.00380274)
(0.0372853 0 -0.00348411)
(0.0373433 0 -0.00318599)
(0.0373949 0 -0.00290959)
(0.0374079 0 -0.00265463)
(0.0373539 0 -0.00242036)
(0.0372064 0 -0.00220544)
(0.0369408 0 -0.00200837)
(0.0365346 0 -0.0018275)
(0.0359657 0 -0.00166113)
(0.0352127 0 -0.00150757)
(0.0342541 0 -0.00136516)
(0.0330676 0 -0.00123229)
(0.0316302 0 -0.00110741)
(0.0299175 0 -0.000988979)
(0.0279033 0 -0.000875461)
(0.0255596 0 -0.000765293)
(0.022856 0 -0.000656831)
(0.0197595 0 -0.000548301)
(0.0162343 0 -0.000437735)
(0.0122415 0 -0.00032288)
(0.00773939 0 -0.000201089)
(0.00267979 0 -6.9103e-05)
(0.0435525 0 -0.00551788)
(0.0432383 0 -0.00542225)
(0.0426234 0 -0.00525588)
(0.0419321 0 -0.00503509)
(0.041276 0 -0.0047761)
(0.0407059 0 -0.00449363)
(0.0402368 0 -0.00420005)
(0.0398625 0 -0.00390514)
(0.0395643 0 -0.00361615)
(0.0393173 0 -0.00333809)
(0.0390929 0 -0.003074)
(0.0388607 0 -0.00282538)
(0.0385911 0 -0.00259278)
(0.0382556 0 -0.00237604)
(0.0378274 0 -0.00217453)
(0.0372811 0 -0.0019873)
(0.036592 0 -0.00181322)
(0.0357362 0 -0.00165099)
(0.0346898 0 -0.00149928)
(0.0334287 0 -0.00135669)
(0.0319279 0 -0.00122178)
(0.0301613 0 -0.0010931)
(0.0281016 0 -0.000969128)
(0.0257192 0 -0.000848286)
(0.0229827 0 -0.000728861)
(0.019858 0 -0.000608979)
(0.0163083 0 -0.000486527)
(0.0122937 0 -0.000359066)
(0.0077709 0 -0.00022371)
(0.00269049 0 -7.68918e-05)
(0.0474869 0 -0.00507594)
(0.0470752 0 -0.00503905)
(0.0463204 0 -0.00495489)
(0.0454348 0 -0.00481916)
(0.0445391 0 -0.00463907)
(0.0436994 0 -0.00442551)
(0.0429464 0 -0.00418958)
(0.0422868 0 -0.00394112)
(0.0417118 0 -0.00368816)
(0.0412029 0 -0.00343688)
(0.0407357 0 -0.00319167)
(0.0402823 0 -0.00295547)
(0.0398142 0 -0.00273008)
(0.0393024 0 -0.00251643)
(0.0387191 0 -0.00231479)
(0.0380371 0 -0.00212497)
(0.0372302 0 -0.00194642)
(0.0362725 0 -0.00177833)
(0.0351382 0 -0.00161971)
(0.0338016 0 -0.00146944)
(0.0322362 0 -0.00132627)
(0.0304145 0 -0.00118886)
(0.0283077 0 -0.00105576)
(0.0258853 0 -0.000925402)
(0.0231145 0 -0.000796047)
(0.0199604 0 -0.00066575)
(0.0163851 0 -0.000532288)
(0.0123476 0 -0.000393063)
(0.00780343 0 -0.000244988)
(0.00270151 0 -8.42224e-05)
(0.0505486 0 -0.00465443)
(0.0501216 0 -0.00465932)
(0.0493292 0 -0.00463812)
(0.0483547 0 -0.00457209)
(0.0473202 0 -0.0044605)
(0.0463032 0 -0.00430998)
(0.0453476 0 -0.00412943)
(0.0444724 0 -0.00392779)
(0.0436786 0 -0.00371304)
(0.042955 0 -0.00349185)
(0.0422825 0 -0.00326945)
(0.0416373 0 -0.00304979)
(0.0409927 0 -0.00283566)
(0.040321 0 -0.00262892)
(0.0395942 0 -0.00243069)
(0.0387849 0 -0.00224146)
(0.0378656 0 -0.00206129)
(0.0368094 0 -0.00188985)
(0.0355894 0 -0.00172653)
(0.0341784 0 -0.00157051)
(0.0325486 0 -0.00142077)
(0.0306716 0 -0.0012761)
(0.0285173 0 -0.00113518)
(0.0260541 0 -0.000996458)
(0.0232485 0 -0.000858214)
(0.0200644 0 -0.000718458)
(0.016463 0 -0.000574884)
(0.0124022 0 -0.000424772)
(0.00783622 0 -0.000264858)
(0.0027126 0 -9.10719e-05)
(0.0528886 0 -0.00430154)
(0.0524869 0 -0.00432984)
(0.0517137 0 -0.00434726)
(0.0507183 0 -0.00432921)
(0.0496191 0 -0.00426972)
(0.0484998 0 -0.00417106)
(0.0474131 0 -0.00403903)
(0.0463869 0 -0.00388063)
(0.0454307 0 -0.00370292)
(0.0445403 0 -0.00351233)
(0.0437023 0 -0.00331439)
(0.0428972 0 -0.00311356)
(0.0421014 0 -0.00291332)
(0.0412893 0 -0.00271625)
(0.040434 0 -0.00252412)
(0.0395082 0 -0.00233807)
(0.0384847 0 -0.00215867)
(0.0373357 0 -0.00198607)
(0.0360339 0 -0.00182004)
(0.034551 0 -0.00166004)
(0.0328587 0 -0.00150529)
(0.0309272 0 -0.00135478)
(0.0287259 0 -0.00120729)
(0.0262223 0 -0.00106134)
(0.0233819 0 -0.000915242)
(0.0201678 0 -0.000766988)
(0.0165402 0 -0.000614216)
(0.0124561 0 -0.000454111)
(0.00786853 0 -0.000283268)
(0.00272349 0 -9.7422e-05)
(0.0546681 0 -0.00403657)
(0.0542966 0 -0.00407066)
(0.0535551 0 -0.00410242)
(0.0525713 0 -0.00411036)
(0.0514561 0 -0.00408564)
(0.050292 0 -0.00402605)
(0.0491339 0 -0.00393356)
(0.0480142 0 -0.00381253)
(0.046948 0 -0.00366842)
(0.0459368 0 -0.00350688)
(0.0449727 0 -0.00333318)
(0.0440405 0 -0.00315194)
(0.0431204 0 -0.00296698)
(0.0421893 0 -0.00278131)
(0.0412223 0 -0.00259721)
(0.0401933 0 -0.00241631)
(0.0390754 0 -0.00223963)
(0.0378412 0 -0.00206771)
(0.036463 0 -0.00190067)
(0.0349124 0 -0.00173828)
(0.0331602 0 -0.00157998)
(0.0311764 0 -0.00142495)
(0.0289295 0 -0.00127208)
(0.0263864 0 -0.00112)
(0.0235119 0 -0.000967063)
(0.0202682 0 -0.000811265)
(0.016615 0 -0.000650214)
(0.0125081 0 -0.000481022)
(0.00789958 0 -0.000300179)
(0.00273393 0 -0.000103259)
(0.0560221 0 -0.00385898)
(0.0556467 0 -0.00387811)
(0.054917 0 -0.00390351)
(0.0539553 0 -0.00392093)
(0.0528574 0 -0.00391745)
(0.0516939 0 -0.00388575)
(0.0505144 0 -0.00382387)
(0.0493511 0 -0.00373348)
(0.0482219 0 -0.00361828)
(0.0471326 0 -0.00348285)
(0.0460797 0 -0.00333188)
(0.0450525 0 -0.00316978)
(0.044035 0 -0.00300042)
(0.0430071 0 -0.00282703)
(0.0419464 0 -0.00265218)
(0.0408284 0 -0.00247783)
(0.0396275 0 -0.00230535)
(0.0383169 0 -0.00213561)
(0.0368691 0 -0.00196903)
(0.0352558 0 -0.00180563)
(0.0334477 0 -0.00164509)
(0.0314144 0 -0.00148673)
(0.0291241 0 -0.00132961)
(0.0265431 0 -0.00117246)
(0.0236357 0 -0.00101366)
(0.0203636 0 -0.000851254)
(0.0166857 0 -0.000682835)
(0.012557 0 -0.000505469)
(0.00792861 0 -0.000315565)
(0.00274365 0 -0.000108573)
(0.0569887 0 -0.0037319)
(0.0565463 0 -0.00371772)
(0.0558149 0 -0.00373268)
(0.054895 0 -0.00375645)
(0.0538487 0 -0.00376795)
(0.0527264 0 -0.00375623)
(0.0515684 0 -0.0037172)
(0.0504044 0 -0.00365079)
(0.0492533 0 -0.00355931)
(0.0481238 0 -0.00344627)
(0.0470164 0 -0.00331563)
(0.0459243 0 -0.00317137)
(0.0448352 0 -0.00301715)
(0.0437324 0 -0.0028562)
(0.0425962 0 -0.0026912)
(0.0414043 0 -0.0025243)
(0.0401324 0 -0.0023571)
(0.0387549 0 -0.00219071)
(0.0372452 0 -0.00202579)
(0.0355752 0 -0.00186257)
(0.0337159 0 -0.00170091)
(0.0316368 0 -0.00154034)
(0.0293058 0 -0.00138001)
(0.0266892 0 -0.00121876)
(0.0237507 0 -0.00105505)
(0.0204518 0 -0.000886952)
(0.0167506 0 -0.000712065)
(0.0126016 0 -0.000527432)
(0.00795487 0 -0.000329409)
(0.00275239 0 -0.000113357)
(0.00270144 0 -4.81161e-05)
(0.00778657 0 -0.00013898)
(0.0122892 0 -0.000220251)
(0.0162756 0 -0.000293376)
(0.0198065 0 -0.000359541)
(0.0229363 0 -0.000419677)
(0.0257138 0 -0.000474519)
(0.0281832 0 -0.000524662)
(0.0303851 0 -0.000570612)
(0.0323571 0 -0.000612845)
(0.0341344 0 -0.000651854)
(0.0357496 0 -0.000688215)
(0.037234 0 -0.000722644)
(0.0386169 0 -0.000756056)
(0.0399258 0 -0.00078963)
(0.0411867 0 -0.000824856)
(0.0424231 0 -0.000863578)
(0.0436559 0 -0.000908007)
(0.0449023 0 -0.000960681)
(0.0461746 0 -0.00102437)
(0.047479 0 -0.00110184)
(0.0488141 0 -0.00119557)
(0.050169 0 -0.00130723)
(0.0515224 0 -0.001437)
(0.0528424 0 -0.00158291)
(0.054087 0 -0.00174023)
(0.0552082 0 -0.00190149)
(0.0561565 0 -0.00205927)
(0.0568973 0 -0.00221345)
(0.0574106 0 -0.00238355)
(0.00271348 0 -5.08942e-05)
(0.0078228 0 -0.000147053)
(0.0123506 0 -0.000233189)
(0.0163645 0 -0.000310887)
(0.0199261 0 -0.000381456)
(0.0230903 0 -0.000445936)
(0.0259062 0 -0.000505169)
(0.0284183 0 -0.000559857)
(0.0306672 0 -0.00061062)
(0.0326904 0 -0.000658046)
(0.0345226 0 -0.000702752)
(0.036196 0 -0.000745436)
(0.0377409 0 -0.00078693)
(0.0391854 0 -0.000828252)
(0.0405553 0 -0.00087065)
(0.0418743 0 -0.000915629)
(0.0431633 0 -0.000964966)
(0.04444 0 -0.00102068)
(0.0457179 0 -0.00108497)
(0.0470053 0 -0.00116008)
(0.0483041 0 -0.001248)
(0.0496094 0 -0.00135027)
(0.0509078 0 -0.00146754)
(0.052177 0 -0.001599)
(0.0533874 0 -0.00174224)
(0.0545029 0 -0.00189341)
(0.0554883 0 -0.00204796)
(0.0563038 0 -0.00220145)
(0.0569194 0 -0.00235387)
(0.05734 0 -0.00251934)
(0.00272401 0 -5.35885e-05)
(0.00785484 0 -0.000154891)
(0.0124056 0 -0.000245765)
(0.0164449 0 -0.000327934)
(0.0200351 0 -0.00040282)
(0.0232314 0 -0.00047157)
(0.0260831 0 -0.000535126)
(0.0286346 0 -0.000594288)
(0.0309266 0 -0.000649773)
(0.032996 0 -0.000702267)
(0.0348769 0 -0.000752482)
(0.036601 0 -0.000801203)
(0.0381972 0 -0.000849332)
(0.0396921 0 -0.000897931)
(0.0411098 0 -0.000948244)
(0.0424718 0 -0.00100171)
(0.0437961 0 -0.00105994)
(0.0450974 0 -0.00112468)
(0.0463861 0 -0.00119772)
(0.0476673 0 -0.00128076)
(0.0489396 0 -0.00137508)
(0.0501963 0 -0.0014814)
(0.0514237 0 -0.00159985)
(0.0525993 0 -0.00172894)
(0.0537 0 -0.00186661)
(0.0546948 0 -0.00200935)
(0.0555518 0 -0.00215327)
(0.0562464 0 -0.00229547)
(0.0567658 0 -0.00243825)
(0.0571135 0 -0.00259422)
(0.00273264 0 -5.61752e-05)
(0.00788157 0 -0.000162424)
(0.0124525 0 -0.000257872)
(0.0165146 0 -0.000344368)
(0.0201308 0 -0.000423444)
(0.0233563 0 -0.000496346)
(0.0262406 0 -0.000564106)
(0.0288279 0 -0.000627611)
(0.0311584 0 -0.00068766)
(0.0332686 0 -0.000745016)
(0.0351919 0 -0.000800458)
(0.0369588 0 -0.000854824)
(0.0385971 0 -0.000909047)
(0.0401318 0 -0.000964179)
(0.0415851 0 -0.00102141)
(0.0429762 0 -0.00108204)
(0.0443207 0 -0.00114748)
(0.0456305 0 -0.00121913)
(0.0469137 0 -0.00129836)
(0.0481736 0 -0.00138651)
(0.0494056 0 -0.00148413)
(0.0506045 0 -0.00159165)
(0.0517561 0 -0.00170846)
(0.0528389 0 -0.0018328)
(0.0538327 0 -0.0019626)
(0.0547143 0 -0.00209482)
(0.0554625 0 -0.00222702)
(0.0560627 0 -0.00235809)
(0.0565081 0 -0.00249035)
(0.0567988 0 -0.00263081)
(0.00273899 0 -5.86288e-05)
(0.00790189 0 -0.000169579)
(0.0124895 0 -0.000269392)
(0.0165713 0 -0.00036003)
(0.0202103 0 -0.000443127)
(0.0234619 0 -0.000520017)
(0.0263751 0 -0.000591812)
(0.028994 0 -0.000659471)
(0.0313582 0 -0.000723859)
(0.0335035 0 -0.000785797)
(0.0354625 0 -0.000846104)
(0.0372645 0 -0.000905642)
(0.0389361 0 -0.000965335)
(0.0405005 0 -0.00102619)
(0.0419784 0 -0.0010893)
(0.0433866 0 -0.0011558)
(0.0447388 0 -0.00122687)
(0.046044 0 -0.00130358)
(0.0473109 0 -0.0013871)
(0.0485402 0 -0.00147816)
(0.0497254 0 -0.00157688)
(0.0508604 0 -0.00168321)
(0.051932 0 -0.00179601)
(0.0529246 0 -0.00191387)
(0.0538217 0 -0.00203487)
(0.0546069 0 -0.0021569)
(0.0552664 0 -0.00227833)
(0.0557915 0 -0.0023987)
(0.0561785 0 -0.00251938)
(0.0564274 0 -0.00264311)
(0.00274269 0 -6.09318e-05)
(0.00791485 0 -0.000176307)
(0.0125151 0 -0.000280248)
(0.0166131 0 -0.000374818)
(0.0202715 0 -0.000461741)
(0.0235455 0 -0.000542427)
(0.0264838 0 -0.000618056)
(0.02913 0 -0.000689647)
(0.0315229 0 -0.000758112)
(0.0336977 0 -0.000824308)
(0.0356859 0 -0.000889075)
(0.0375157 0 -0.000953267)
(0.0392122 0 -0.00101777)
(0.0407973 0 -0.00108352)
(0.0422898 0 -0.00115149)
(0.0437051 0 -0.00122264)
(0.0450551 0 -0.00129791)
(0.046348 0 -0.00137817)
(0.0475892 0 -0.00146417)
(0.0487781 0 -0.00155607)
(0.0499105 0 -0.00165388)
(0.0509797 0 -0.00175718)
(0.0519755 0 -0.00186495)
(0.0528859 0 -0.00197586)
(0.0536988 0 -0.00208836)
(0.0544029 0 -0.0022009)
(0.0549898 0 -0.00231237)
(0.0554543 0 -0.00242238)
(0.0557949 0 -0.00253136)
(0.0560129 0 -0.00263986)
(0.00274359 0 -6.30599e-05)
(0.0079198 0 -0.000182536)
(0.0125283 0 -0.000290319)
(0.0166383 0 -0.000388564)
(0.0203122 0 -0.00047907)
(0.0236046 0 -0.000563311)
(0.0265638 0 -0.000642523)
(0.0292326 0 -0.000717767)
(0.0316492 0 -0.00078999)
(0.0338477 0 -0.000860064)
(0.0358587 0 -0.000928827)
(0.0377091 0 -0.000997105)
(0.0394228 0 -0.00106573)
(0.0410204 0 -0.00113553)
(0.042519 0 -0.00120735)
(0.0439326 0 -0.00128197)
(0.0452719 0 -0.00136012)
(0.0465439 0 -0.00144239)
(0.0477526 0 -0.00152918)
(0.0488978 0 -0.00162053)
(0.0499762 0 -0.00171622)
(0.0509822 0 -0.00181567)
(0.0519082 0 -0.00191798)
(0.0527456 0 -0.00202198)
(0.0534859 0 -0.00212644)
(0.054122 0 -0.0022302)
(0.0546488 0 -0.00233239)