/*--------------------------------*- C++ -*----------------------------------*\
| =========                 |                                                 |
| \\      /  F ield         | OpenFOAM: The Open Source CFD Toolbox           |
|  \\    /   O peration     | Version:  4.1                                   |
|   \\  /    A nd           | Web:      www.OpenFOAM.org                      |
|    \\/     M anipulation  |                                                 |
\*---------------------------------------------------------------------------*/
FoamFile
{
    version     2.0;
    format      ascii;
    class       surfaceScalarField;
    location    "3.8";
    object      phi;
}
// * * * * * * * * * * * * * * * * * * * * * * * * * * * * * * * * * * * * * //

dimensions      [0 3 -1 0 0 0 0];

internalField   nonuniform List<scalar> 
5457
(
0.198289
0.00165146
0.19625
0.0019851
0.193883
0.00232
0.191142
0.00270231
0.188025
0.00308577
0.184535
0.00346594
0.180667
0.00385096
0.176408
0.00424798
0.171742
0.00466182
0.166647
0.00509614
0.1611
0.00555407
0.155074
0.00603815
0.148541
0.00655015
0.141472
0.00709072
0.133838
0.00765898
0.125613
0.00825195
0.116779
0.00886382
0.107323
0.00948513
0.0972507
0.0101018
0.0865831
0.0106939
0.0753687
0.0112353
0.0636883
0.011693
0.051662
0.0120274
0.0394543
0.0121941
0.0272715
0.0121511
0.0153127
0.0119074
0.00350674
0.0117355
-0.00488601
0.00831132
-0.0062168
0.00126464
-0.00637531
0.199863
0.0017287
0.199045
0.00274857
0.197785
0.00353374
0.196118
0.00432978
0.194042
0.00513049
0.191554
0.00592927
0.188649
0.00673792
0.185317
0.00756954
0.18154
0.00843389
0.177298
0.00933862
0.172569
0.0102903
0.167324
0.0112944
0.161536
0.0123548
0.155174
0.0134737
0.148207
0.01465
0.140607
0.0158787
0.132351
0.0171494
0.123421
0.0184446
0.113815
0.0197375
0.103546
0.0209896
0.0926552
0.0221492
0.0812138
0.02315
0.0693377
0.0239093
0.0571979
0.0243269
0.0450484
0.0242785
0.0333354
0.0235814
0.0231836
0.0218328
0.014127
0.0173037
0.00484114
0.0104927
-0.00162746
0.199715
0.00195289
0.198959
0.00344934
0.19777
0.00467548
0.196202
0.00585841
0.194261
0.00703902
0.191946
0.00821968
0.189251
0.00941406
0.18617
0.0106394
0.182688
0.01191
0.178789
0.0132375
0.174453
0.0146319
0.169656
0.0161019
0.164372
0.0176541
0.158573
0.0192928
0.152228
0.0210183
0.145307
0.0228258
0.137782
0.024703
0.129627
0.0266283
0.120828
0.0285671
0.111378
0.0304679
0.101295
0.0322592
0.0906184
0.0338472
0.0794322
0.0351095
0.0678722
0.0358919
0.0561546
0.0359904
0.044607
0.0351116
0.0335965
0.032815
0.0226216
0.0282414
0.0118962
0.0211736
0.010234
0.199634
0.00225738
0.198876
0.00415086
0.197706
0.00579765
0.196161
0.00736291
0.194255
0.0089115
0.191989
0.0104597
0.18936
0.012024
0.186362
0.0136244
0.182986
0.0152788
0.17922
0.0170021
0.175049
0.0188072
0.170455
0.0207053
0.165418
0.0227055
0.159915
0.0248139
0.153922
0.0270329
0.147413
0.0293589
0.140363
0.0317802
0.132745
0.0342744
0.124538
0.0368046
0.115724
0.0393138
0.106293
0.0417199
0.0962557
0.0439124
0.0856468
0.0457425
0.0745363
0.047022
0.0630327
0.0475082
0.0512686
0.0468837
0.0393287
0.0447559
0.0270212
0.0405397
0.0141008
0.0340623
0.0243427
0.199594
0.00260013
0.198827
0.00486099
0.197673
0.00690187
0.196154
0.00884056
0.194283
0.0107479
0.192063
0.0126525
0.189491
0.0145755
0.186562
0.016539
0.183268
0.0185637
0.1796
0.0206672
0.175545
0.0228647
0.171088
0.0251694
0.166213
0.0275921
0.160902
0.0301408
0.155136
0.0328191
0.148893
0.0356252
0.14215
0.0385492
0.134881
0.0415701
0.127063
0.0446524
0.118669
0.0477406
0.109671
0.0507518
0.100047
0.05357
0.0897859
0.0560381
0.0788906
0.0579513
0.0673789
0.0590533
0.0552713
0.059023
0.0425733
0.0574809
0.0291927
0.0539339
0.0150106
0.0482221
0.0393895
0.199576
0.00295965
0.198805
0.00557347
0.197671
0.00798448
0.196185
0.0102836
0.194358
0.0125394
0.192192
0.0147893
0.189686
0.0170594
0.186834
0.0193742
0.18363
0.0217568
0.180065
0.0242272
0.176127
0.0268027
0.171804
0.0294982
0.167079
0.0323261
0.161937
0.035296
0.15636
0.0384133
0.150328
0.0416781
0.143818
0.0450829
0.136805
0.0486099
0.129257
0.0522283
0.121141
0.0558885
0.112415
0.059513
0.103032
0.0629915
0.0929385
0.0661723
0.082088
0.0688466
0.0704378
0.0707514
0.0579522
0.0715577
0.0446145
0.0708642
0.0304169
0.0681612
0.0154626
0.0631638
0.0549039
0.199569
0.00332375
0.198802
0.00627989
0.197693
0.00904099
0.196247
0.0116854
0.194471
0.0142776
0.192369
0.0168605
0.18994
0.0194647
0.187178
0.0221177
0.184077
0.0248446
0.180629
0.0276677
0.176823
0.0306064
0.172645
0.0336775
0.168082
0.0368953
0.163117
0.0402712
0.157731
0.0438128
0.151904
0.0475228
0.14561
0.0513976
0.138821
0.0554242
0.131497
0.0595787
0.123593
0.0638196
0.11506
0.0680805
0.105826
0.0722637
0.0958125
0.0762292
0.0849315
0.0797769
0.0730973
0.0826406
0.0602438
0.0844693
0.0463517
0.0848114
0.0314847
0.0830678
0.0159014
0.0787489
0.0708583
0.19957
0.00368482
0.198815
0.00697262
0.197735
0.0100662
0.196334
0.0130397
0.194618
0.0159544
0.192589
0.0188563
0.190247
0.0217804
0.187587
0.0247567
0.184604
0.0278127
0.181288
0.0309728
0.17763
0.0342586
0.173617
0.037689
0.169234
0.0412804
0.164465
0.0450466
0.159289
0.0489981
0.153683
0.0531414
0.14762
0.0574777
0.141063
0.0620012
0.133967
0.0666959
0.126279
0.0715313
0.117932
0.0764564
0.10884
0.0813906
0.0988997
0.0862103
0.0879923
0.0907315
0.0759975
0.0946889
0.0628206
0.0977035
0.0484303
0.099257
0.0329167
0.0986254
0.0165991
0.0950864
0.0874952
0.199576
0.00403777
0.198838
0.00764528
0.197793
0.0110547
0.196444
0.0143405
0.194794
0.0175621
0.192847
0.0207679
0.190603
0.023996
0.188057
0.0272793
0.185204
0.0306474
0.182036
0.0341271
0.178543
0.0377418
0.174714
0.041513
0.170533
0.0454594
0.165984
0.0495978
0.161044
0.0539422
0.155689
0.0585038
0.149887
0.06329
0.143598
0.0683029
0.136772
0.0735371
0.129344
0.0789762
0.121236
0.0845868
0.112343
0.0903095
0.102541
0.0960441
0.091683
0.101628
0.0796118
0.106804
0.0661873
0.111176
0.0513311
0.114161
0.0350945
0.114904
0.0177665
0.112448
0.105283
0.199585
0.00437889
0.198871
0.00829253
0.197865
0.0120012
0.196572
0.0155819
0.194997
0.0190938
0.19314
0.0225867
0.191003
0.0261017
0.188582
0.0296741
0.185872
0.0333358
0.182867
0.0371155
0.179556
0.0410389
0.17593
0.0451297
0.171974
0.0494095
0.16767
0.0538982
0.162997
0.058614
0.157928
0.0635734
0.152431
0.0687906
0.146462
0.074277
0.139966
0.0800394
0.132873
0.0860773
0.125093
0.0923782
0.116508
0.0989083
0.106973
0.105598
0.0963069
0.112316
0.0843041
0.118834
0.0707485
0.124762
0.0554568
0.129486
0.0383555
0.13204
0.0196096
0.131229
0.124917
0.199597
0.00470536
0.19891
0.00890996
0.197948
0.0129008
0.196718
0.0167585
0.195223
0.0205428
0.193464
0.024305
0.191443
0.0280884
0.189157
0.0319307
0.186602
0.0358657
0.183773
0.039924
0.180662
0.0441335
0.177257
0.0485202
0.173547
0.0531084
0.169515
0.0579212
0.165141
0.0629812
0.160398
0.0683104
0.155254
0.0739304
0.149665
0.0798623
0.143575
0.0861258
0.136912
0.092738
0.129579
0.0997093
0.12145
0.107037
0.11236
0.114689
0.102092
0.122587
0.0903748
0.130556
0.0768775
0.138268
0.0612337
0.145143
0.0431178
0.150174
0.0224238
0.151945
0.147389
0.199611
0.00501495
0.198954
0.00949386
0.198042
0.013749
0.196879
0.0178652
0.195469
0.0219032
0.193815
0.0259157
0.191918
0.0299478
0.189777
0.0340393
0.187389
0.0382258
0.184749
0.0425396
0.181851
0.0470105
0.178686
0.0516666
0.175244
0.0565346
0.171509
0.0616409
0.167465
0.067012
0.163088
0.0726752
0.158346
0.0786592
0.153202
0.0849944
0.1476
0.0917135
0.141473
0.098851
0.134725
0.106442
0.127228
0.114517
0.118804
0.123095
0.109206
0.132164
0.0980908
0.141651
0.0849792
0.151361
0.0692315
0.160876
0.0500728
0.169325
0.0267995
0.175214
0.174255
0.199626
0.00530586
0.199003
0.0100411
0.198143
0.0145421
0.197052
0.0188976
0.195734
0.0231698
0.194191
0.0274126
0.192425
0.0316727
0.190437
0.0359917
0.188225
0.0404064
0.185786
0.0449509
0.183115
0.0496564
0.180206
0.0545526
0.17705
0.0596686
0.173638
0.0650333
0.169953
0.0706766
0.165979
0.0766302
0.161689
0.0829289
0.15705
0.0896111
0.152019
0.0967209
0.146535
0.104309
0.140515
0.112433
0.13384
0.121159
0.126338
0.13056
0.117751
0.140709
0.107685
0.151672
0.0955186
0.163478
0.0802807
0.176065
0.0604841
0.189076
0.0340941
0.201563
0.208388
0.199643
0.00557663
0.199057
0.0105492
0.198252
0.0152767
0.197236
0.0198518
0.196013
0.0243379
0.194587
0.0287903
0.192959
0.0332568
0.191132
0.0377803
0.189104
0.042399
0.186875
0.0471478
0.184443
0.0520593
0.181804
0.0571644
0.178952
0.0624936
0.175882
0.0680777
0.172584
0.0739491
0.169045
0.0801426
0.165249
0.0866971
0.161173
0.0936571
0.156786
0.101075
0.152045
0.109013
0.146887
0.117549
0.141223
0.126776
0.13491
0.136818
0.127725
0.147832
0.119292
0.160036
0.108952
0.173742
0.0955037
0.189431
0.0766383
0.207857
0.0477099
0.23041
0.256021
0.199661
0.00582625
0.199112
0.0110162
0.198366
0.0159503
0.197429
0.0207245
0.196305
0.0254039
0.194999
0.0300445
0.193515
0.0346952
0.191853
0.0393996
0.190017
0.044197
0.188006
0.0491229
0.185821
0.0542104
0.183462
0.0594913
0.180928
0.0649968
0.178216
0.0707586
0.175324
0.0768101
0.172246
0.0831877
0.168976
0.0899322
0.165505
0.0970909
0.161818
0.10472
0.157896
0.112888
0.15371
0.121682
0.149212
0.131215
0.144327
0.141636
0.138924
0.153159
0.132767
0.166108
0.125408
0.181007
0.115919
0.198822
0.102068
0.221612
0.0768443
0.255564
0.33255
0.00329011
-0.00327287
0.0071012
-0.00389531
0.0107423
-0.0037285
0.013877
-0.00324119
0.0164568
-0.00270382
0.0185129
-0.00219015
0.0200855
-0.00170869
0.0212126
-0.00125931
0.0219336
-0.000845328
0.0222891
-0.000469563
0.0223263
-0.000139647
0.0220918
0.000144283
0.0216591
0.000354617
0.0210878
0.000504879
0.0204288
0.000603739
0.0197262
0.000658293
0.0190314
0.00066116
0.0183988
0.000609347
0.0178642
0.000521305
0.0174342
0.00042649
0.0170969
0.000343252
0.0168491
0.000263051
0.0167173
0.000156024
0.0167478
2.75327e-06
0.0169691
-0.000179174
0.0173727
-0.000352587
0.0179416
-0.00050914
0.0186622
-0.000652182
0.0195051
-0.00076599
-0.000754721
0.00359037
-0.00692246
0.00732433
-0.00770425
0.0107525
-0.00724575
0.0137378
-0.00633493
0.016275
-0.00536497
0.0183967
-0.00444402
0.0201383
-0.00358283
0.0215326
-0.00278124
0.022614
-0.00204679
0.0234131
-0.00137868
0.0239414
-0.00076659
0.0242236
-0.000224683
0.0242797
0.00022347
0.0241752
0.000545314
0.0239609
0.000764725
0.0236759
0.000900718
0.0233697
0.000935198
0.0230906
0.000866437
0.0228603
0.000739453
0.0226701
0.000614033
0.0224995
0.000520645
0.0223408
0.000437585
0.0221965
0.000325101
0.0220599
0.00017312
0.0219393
-1.60554e-05
0.0218583
-0.000220189
0.0218462
-0.000436988
0.0219387
-0.000675915
0.0221907
-0.000940707
-0.00109488
0.00335957
-0.0103758
0.00662862
-0.0110368
0.00943937
-0.0101483
0.0118382
-0.00884455
0.0138811
-0.0075306
0.0156084
-0.00629989
0.0170508
-0.00515057
0.0182292
-0.0040783
0.0191688
-0.00309846
0.0198996
-0.00221156
0.0204357
-0.00139448
0.0207789
-0.000648163
0.0209691
-3.58379e-05
0.0210198
0.000434916
0.020961
0.000773962
0.0208084
0.00101393
0.0205962
0.001118
0.020357
0.00108606
0.0200922
0.000994026
0.0197779
0.000927486
0.0193802
0.000926574
0.0188824
0.000952482
0.0182991
0.000934236
0.0176756
0.000831274
0.0170625
0.00064044
0.0164918
0.000402605
0.0159742
0.000141356
0.0155482
-0.000180588
0.0153511
-0.00066565
-0.00119673
0.00293626
-0.01342
0.00552662
-0.0136842
0.00754756
-0.0122619
0.00920232
-0.0106088
0.010591
-0.00903703
0.0117662
-0.00759611
0.0127597
-0.00625919
0.0135831
-0.00501022
0.0142518
-0.0038695
0.0147927
-0.00284315
0.0152122
-0.00189588
0.0155128
-0.00102102
0.0156779
-0.000263187
0.0157039
0.000354918
0.015553
0.000880355
0.0152034
0.00132866
0.0146605
0.00163544
0.0139293
0.00180086
0.0130367
0.00187937
0.0120435
0.00192224
0.0110284
0.00195189
0.0100673
0.00193248
0.00921439
0.00181458
0.0085017
0.00157993
0.00795763
0.00122903
0.00759875
0.000814583
0.00737419
0.00042764
0.00724702
1.69025e-05
0.00721939
-0.000559136
-0.00127313
0.00231925
-0.0158424
0.00403077
-0.0154487
0.00513674
-0.0134553
0.00594089
-0.0115137
0.00655606
-0.00975758
0.00704819
-0.00819263
0.00744715
-0.0067591
0.00776184
-0.00542416
0.00801833
-0.00421747
0.00825433
-0.00315779
0.00845412
-0.00216583
0.00839099
-0.00102142
0.00799841
7.33976e-05
0.00739315
0.000912804
0.00673655
0.00149877
0.00606212
0.00197377
0.00532314
0.00235377
0.00454321
0.00256866
0.00377433
0.00264452
0.00304183
0.00265933
0.00237148
0.00263509
0.00177617
0.00254888
0.00126379
0.0023563
0.000854178
0.00202717
0.000515673
0.00161353
0.000226855
0.00115784
-2.33795e-07
0.000717694
-0.00023222
0.000320434
-0.000505187
-0.000206029
-0.00104328
0.00148649
-0.017409
0.00214522
-0.0161521
0.00226231
-0.0136453
0.00215741
-0.0114921
0.00191415
-0.00960025
0.00160375
-0.00796405
0.00128029
-0.00651696
0.000950285
-0.00517593
0.000545204
-0.00388684
2.83595e-05
-0.00270826
-0.000639667
-0.00155739
-0.00121853
-0.000495756
-0.00158136
0.000388727
-0.00187338
0.00116576
-0.0022274
0.00182204
-0.00263182
0.00235539
-0.00305456
0.0027615
-0.00349853
0.00300535
-0.00396993
0.00311635
-0.00444953
0.00314706
-0.00491689
0.00311833
-0.00535566
0.00301133
-0.00576272
0.00279494
-0.00615399
0.00245804
-0.00652766
0.00203493
-0.00688493
0.00157113
-0.00721992
0.00111714
-0.0075101
0.000683624
-0.00775259
0.000118122
-0.000643953
0.000426852
-0.0178741
-5.85483e-05
-0.0156967
-0.000941094
-0.0128135
-0.00198071
-0.0105127
-0.00309157
-0.00855249
-0.00420287
-0.00691339
-0.00527891
-0.00550068
-0.00627212
-0.00423988
-0.00712529
-0.00308626
-0.00785233
-0.00203376
-0.00838863
-0.00106897
-0.00874005
-0.000185478
-0.0090269
0.000639684
-0.00926915
0.00137892
-0.00949608
0.00202669
-0.00973213
0.00257593
-0.00998872
0.00300936
-0.0102936
0.00330837
-0.0106613
0.00348906
-0.011081
0.00357885
-0.0115281
0.0035847
-0.0119802
0.00349012
-0.0124247
0.00327346
-0.0128568
0.00293197
-0.0132675
0.00249538
-0.0136525
0.00201392
-0.0140106
0.0015414
-0.0143285
0.00107622
-0.0146188
0.000491918
-0.00017691
-0.000856329
-0.0170031
-0.00246955
-0.0140956
-0.00429218
-0.0110167
-0.00616682
-0.00867315
-0.00794896
-0.00680971
-0.00957595
-0.00532608
-0.0110106
-0.0041047
-0.0122241
-0.00306227
-0.0131949
-0.00214888
-0.0139375
-0.00132537
-0.0144971
-0.000541506
-0.0149076
0.000197419
-0.0152046
0.000913373
-0.0154404
0.00159638
-0.0156516
0.00222472
-0.0158688
0.00278544
-0.0161219
0.0032605
-0.0164417
0.00363212
-0.0168401
0.0038975
-0.0173035
0.00405867
-0.0178038
0.00410794
-0.0183118
0.00402793
-0.0188058
0.00380433
-0.0192726
0.00344308
-0.019706
0.00298063
-0.02011
0.00247781
-0.0204917
0.00199117
-0.0208458
0.00150699
-0.02119
0.000921506
0.000327243
-0.00218665
-0.0147618
-0.0049641
-0.0113133
-0.00772246
-0.00826193
-0.0103007
-0.00610649
-0.0125905
-0.00453593
-0.014554
-0.00338006
-0.0161783
-0.00249776
-0.0174748
-0.00178222
-0.0184845
-0.00115494
-0.0192696
-0.000556278
-0.0198647
3.83463e-05
-0.0203187
0.000638257
-0.0206713
0.00125535
-0.0209612
0.0018789
-0.0212289
0.00248885
-0.0215113
0.0030684
-0.0218414
0.00359568
-0.0222441
0.00404488
-0.0227245
0.00439326
-0.0232651
0.00462023
-0.0238346
0.00470434
-0.0244
0.00462658
-0.024936
0.00438022
-0.0254294
0.00398334
-0.0258807
0.0034862
-0.026304
0.00296314
-0.0267172
0.00247459
-0.027133
0.00200149
-0.0275769
0.00145295
0.000918378
-0.00372807
-0.0109725
-0.00773298
-0.00728789
-0.0114332
-0.00454698
-0.0146064
-0.0029236
-0.0172199
-0.00191568
-0.0193263
-0.00126842
-0.0210106
-0.000809078
-0.022354
-0.000435158
-0.0234116
-9.45687e-05
-0.0242298
0.000263529
-0.0248609
0.000670429
-0.025365
0.00114348
-0.025784
0.00167643
-0.0261526
0.0022512
-0.0265085
0.00285069
-0.0268881
0.003457
-0.0273229
0.00404277
-0.0278313
0.00456961
-0.0284117
0.00499446
-0.0290419
0.00527612
-0.0296875
0.00538094
-0.0303135
0.00528938
-0.0308943
0.00500412
-0.0314194
0.00455815
-0.0318945
0.00401809
-0.0323382
0.00347122
-0.0327722
0.00298107
-0.0332155
0.00252567
-0.0336922
0.00201953
0.00154508
-0.00561698
-0.00531861
-0.011062
-0.00180532
-0.0155576
-1.90109e-05
-0.0190698
0.000619715
-0.0218384
0.000882859
-0.0240219
0.000943543
-0.0257449
0.00094016
-0.0270988
0.000942575
-0.0281586
0.000986443
-0.0289901
0.00111358
-0.0296595
0.00135612
-0.0302191
0.00171801
-0.0307086
0.00218019
-0.0311619
0.00271897
-0.0316137
0.00331795
-0.0320996
0.00396006
-0.0326495
0.00461224
-0.0332783
0.00522097
-0.033979
0.00572141
-0.0347242
0.00605185
-0.0354751
0.00616701
-0.036193
0.00604779
-0.0368498
0.00570716
-0.0374328
0.00519374
-0.0379463
0.00459101
-0.0384087
0.00400049
-0.0388467
0.00349378
-0.0392899
0.00305217
-0.0397699
0.00259193
0.00218413
-0.00795222
0.00264419
-0.0146213
0.00492268
-0.0195812
0.00499577
-0.0234071
0.00450112
-0.0263361
0.00386642
-0.0285819
0.00324093
-0.0303253
0.00273128
-0.0316958
0.00235618
-0.032773
0.00210217
-0.0336216
0.00199641
-0.0343127
0.00207781
-0.0349096
0.00234252
-0.0354536
0.00274986
-0.0359735
0.00326339
-0.0364994
0.00386824
-0.0370668
0.00455255
-0.0377069
0.00527882
-0.0384329
0.00597563
-0.0392326
0.00655278
-0.0400715
0.00692584
-0.0409029
0.00703783
-0.0416827
0.00687168
-0.042379
0.00645297
-0.0429777
0.00584799
-0.0434837
0.00515914
-0.0439198
0.00450587
-0.044323
0.00397417
-0.0447375
0.00355243
-0.0452012
0.00315052
0.00280823
-0.0100821
0.0127497
-0.0181845
0.0131108
-0.0238915
0.0107871
-0.0279538
0.00864629
-0.0309447
0.00693632
-0.0331615
0.00553093
-0.0348483
0.00448491
-0.0361793
0.00374733
-0.0372226
0.00319931
-0.0380308
0.00285257
-0.0386901
0.00278008
-0.0392807
0.00297205
-0.0398413
0.00334632
-0.0403883
0.00384405
-0.0409451
0.00445755
-0.0415504
0.00519014
-0.0422417
0.00600315
-0.0430342
0.00680252
-0.0439106
0.00746585
-0.0448263
0.00788122
-0.0457241
0.00797902
-0.0465518
0.00774708
-0.0472737
0.00722762
-0.0478744
0.00650706
-0.0483589
0.00570842
-0.0487542
0.00497303
-0.049109
0.00440866
-0.0494842
0.00401569
-0.0499245
0.00368836
0.0034132
-0.0134851
0.026352
-0.0234927
0.0232298
-0.0293354
0.0167412
-0.0330186
0.012435
-0.0357524
0.00976819
-0.0377031
0.00757162
-0.039133
0.00599632
-0.0403085
0.00499635
-0.0412396
0.0041962
-0.0419204
0.00359245
-0.0424629
0.00337586
-0.0429866
0.00354399
-0.0435189
0.00392302
-0.0440494
0.00441619
-0.0445906
0.00503843
-0.0451903
0.0058286
-0.0459005
0.00675216
-0.0467412
0.007683
-0.0476882
0.00845425
-0.0486815
0.0089184
-0.0496471
0.00899171
-0.050521
0.00867213
-0.0512632
0.0080256
-0.0518571
0.00716227
-0.0523083
0.006227
-0.0526479
0.00538696
-0.052938
0.00478074
-0.0532604
0.00442871
-0.0536715
0.00419958
0.00400426
-0.0191567
0.0458421
-0.0312522
0.0354082
-0.0364224
0.0220193
-0.0384767
0.0145997
-0.0406022
0.0119995
-0.0419739
0.00904179
-0.0428351
0.00694784
-0.0437557
0.00599904
-0.0445439
0.00505858
-0.0450043
0.00411989
-0.0453176
0.00375011
-0.0457163
0.00399842
-0.0461919
0.00445013
-0.0466766
0.00494907
-0.0471636
0.00557123
-0.047721
0.00643056
-0.048429
0.00750411
-0.049316
0.00861448
-0.050346
0.00953
-0.0514352
0.0100555
-0.0524842
0.0100914
-0.0534128
0.00965516
-0.0541776
0.00884916
-0.0547631
0.00781181
-0.0551748
0.00670872
-0.055447
0.00573597
-0.0556555
0.00507372
-0.05591
0.00477625
-0.05629
0.00468231
0.00458594
0.207328
0.00606159
0.206801
0.0114553
0.206091
0.0165821
0.205204
0.0215411
0.204147
0.0263984
0.202924
0.0312108
0.20154
0.0360279
0.199998
0.0408941
0.198303
0.0458487
0.196457
0.0509278
0.194464
0.0561645
0.192327
0.0615906
0.19005
0.0672373
0.187635
0.0731359
0.185087
0.0793196
0.182411
0.0858243
0.17961
0.0926903
0.176691
0.0999637
0.173661
0.1077
0.170528
0.115965
0.167302
0.124846
0.163995
0.134451
0.160622
0.144929
0.157204
0.156489
0.153777
0.169438
0.15043
0.18425
0.147493
0.201652
0.146494
0.222512
0.15754
0.24445
0.257274
0.232706
0.212365
0.00627698
0.211871
0.0118558
0.211213
0.0171567
0.210398
0.0222815
0.209432
0.027297
0.208321
0.0322607
0.20707
0.0372224
0.205686
0.0422266
0.204174
0.0473127
0.20254
0.0525165
0.20079
0.0578706
0.198932
0.063406
0.196973
0.069153
0.194925
0.0751415
0.192797
0.0814027
0.190605
0.0879701
0.188367
0.0948803
0.186103
0.102175
0.183843
0.109902
0.181625
0.11812
0.179501
0.126899
0.177547
0.136328
0.175874
0.146518
0.174662
0.157609
0.174229
0.169773
0.175206
0.183169
0.178948
0.197805
0.187956
0.213406
0.203165
0.229155
0.244263
0.216108
0.217526
0.00646997
0.217069
0.012213
0.21647
0.0176677
0.215734
0.0229375
0.214869
0.0280899
0.213881
0.0331825
0.212778
0.0382652
0.211566
0.043382
0.210254
0.0485719
0.208851
0.0538699
0.207365
0.0593074
0.205809
0.0649142
0.204196
0.0707182
0.202542
0.0767469
0.200867
0.0830283
0.199194
0.0895912
0.197553
0.0964665
0.195983
0.103687
0.194532
0.111291
0.193263
0.11932
0.192266
0.127822
0.191661
0.136852
0.191628
0.146464
0.192433
0.156713
0.194476
0.167634
0.198349
0.1792
0.204782
0.191279
0.21438
0.203724
0.226835
0.216629
0.22747
0.243587
0.222814
0.00663823
0.222398
0.0125229
0.221863
0.0181089
0.221214
0.0235012
0.22046
0.0287676
0.219606
0.0339652
0.218663
0.0391435
0.217638
0.044346
0.216542
0.0496105
0.215386
0.0549706
0.214184
0.0604563
0.212951
0.0660948
0.211705
0.0719114
0.210468
0.0779301
0.209268
0.0841739
0.208136
0.0906657
0.207115
0.0974285
0.206256
0.104486
0.205619
0.111862
0.20529
0.119578
0.20538
0.127656
0.206036
0.136116
0.207455
0.14496
0.209899
0.154181
0.213705
0.163739
0.219272
0.173547
0.227016
0.183454
0.237473
0.193197
0.251548
0.2025
0.209113
0.269877
0.22823
0.00677961
0.22786
0.0127813
0.227395
0.0184747
0.22684
0.0239656
0.226205
0.0293213
0.225496
0.0345985
0.224724
0.0398459
0.223899
0.0451057
0.223033
0.0504144
0.22214
0.0558037
0.221237
0.0613014
0.220343
0.0669317
0.219481
0.0727166
0.218678
0.0786754
0.217967
0.0848259
0.217387
0.0911836
0.216991
0.0977629
0.216837
0.104577
0.216997
0.111634
0.217565
0.118936
0.218662
0.126482
0.220439
0.13426
0.223078
0.14224
0.226805
0.150373
0.231888
0.158575
0.23864
0.166719
0.247417
0.174609
0.258646
0.181911
0.272802
0.188302
0.192669
0.289224
0.23378
0.00689214
0.233459
0.0129845
0.233068
0.0187599
0.232614
0.0243239
0.232105
0.0297431
0.23155
0.0350735
0.230959
0.0403622
0.230345
0.0456501
0.229721
0.0509719
0.229104
0.056357
0.228512
0.0618304
0.22797
0.0674131
0.227502
0.073123
0.227142
0.0789746
0.226926
0.0849795
0.226899
0.091146
0.227118
0.0974798
0.227647
0.103982
0.228563
0.110648
0.229962
0.117463
0.231961
0.124409
0.234696
0.131449
0.238329
0.138531
0.243046
0.145581
0.249058
0.152492
0.256593
0.159119
0.26588
0.165264
0.277091
0.170654
0.290324
0.175035
0.177853
0.305124
0.239464
0.00697393
0.239195
0.0131292
0.238884
0.0189597
0.238537
0.0245701
0.238162
0.030026
0.237768
0.035382
0.237368
0.0406838
0.236973
0.0459701
0.236601
0.0512736
0.236268
0.0566212
0.235998
0.0620348
0.235814
0.0675318
0.235747
0.0731259
0.23583
0.0788264
0.236106
0.0846389
0.236621
0.090565
0.237433
0.0966016
0.238608
0.10274
0.240222
0.108963
0.242367
0.115247
0.245147
0.121557
0.248681
0.127843
0.253102
0.13404
0.258553
0.140062
0.265182
0.1458
0.27313
0.151113
0.28251
0.155836
0.293363
0.159763
0.305681
0.16269
0.164309
0.319213
0.245287
0.00702332
0.245074
0.0132124
0.244846
0.0190699
0.244611
0.0246991
0.244376
0.0301641
0.24415
0.0355177
0.243946
0.0408036
0.243779
0.0460587
0.243665
0.051313
0.243623
0.0565906
0.243678
0.0619103
0.243855
0.0672859
0.244187
0.0727266
0.244709
0.078237
0.245463
0.0838172
0.246498
0.0894623
0.24787
0.0951619
0.249643
0.100899
0.251887
0.10665
0.254685
0.11238
0.258126
0.118047
0.262308
0.123594
0.26733
0.128952
0.273296
0.134035
0.280298
0.138741
0.288411
0.14295
0.297677
0.146528
0.308083
0.149324
0.319563
0.151188
0.151946
0.331915
0.251252
0.00703891
0.251096
0.0132315
0.250956
0.0190871
0.250836
0.0247068
0.250745
0.0301527
0.250693
0.0354756
0.250691
0.0407171
0.250755
0.0459115
0.250903
0.0510864
0.251154
0.0562631
0.251534
0.061457
0.25207
0.0666784
0.252794
0.0719325
0.253742
0.0772196
0.254955
0.0825346
0.256481
0.0878676
0.258373
0.0932024
0.260687
0.0985166
0.263489
0.10378
0.266847
0.108955
0.270834
0.113994
0.275525
0.11884
0.280991
0.123426
0.287298
0.127673
0.294498
0.131492
0.302619
0.134786
0.31166
0.137451
0.321574
0.139383
0.332263
0.140481
0.140649
0.343553
0.257362
0.00701959
0.257265
0.0131848
0.257215
0.0190088
0.257214
0.0245902
0.257271
0.0299887
0.257394
0.0352527
0.257598
0.0404214
0.257895
0.0455267
0.258305
0.0505935
0.258849
0.0556402
0.25955
0.0606792
0.260437
0.0657174
0.26154
0.0707564
0.262896
0.0757927
0.264543
0.0808175
0.266525
0.0858166
0.268889
0.09077
0.271687
0.0956516
0.274972
0.100429
0.278801
0.105062
0.283229
0.109504
0.288309
0.113701
0.294088
0.117591
0.300603
0.121107
0.307875
0.124176
0.315902
0.126721
0.324653
0.128668
0.334065
0.129948
0.344031
0.130499
0.130266
0.354408
0.26362
0.00696454
0.263584
0.0130707
0.263625
0.0188333
0.263745
0.0243475
0.263951
0.0296703
0.264253
0.0348476
0.264661
0.0399161
0.265192
0.0449051
0.265862
0.0498369
0.266693
0.0547269
0.267708
0.059585
0.268934
0.0644149
0.2704
0.0692155
0.27214
0.0739799
0.27419
0.0786966
0.276589
0.0833487
0.279377
0.0879138
0.282598
0.0923645
0.286295
0.0966674
0.290512
0.100784
0.295287
0.10467
0.300655
0.108277
0.306643
0.111552
0.313266
0.114439
0.320521
0.11688
0.328387
0.118821
0.33682
0.120208
0.345749
0.121
0.355074
0.121161
0.120662
0.364673
0.270029
0.00687327
0.270055
0.0128886
0.270189
0.0185598
0.270431
0.0239779
0.270787
0.0291973
0.271265
0.0342608
0.271878
0.0392028
0.272638
0.0440499
0.273564
0.0488217
0.274674
0.0535313
0.275992
0.0581858
0.277541
0.0627868
0.27935
0.0673304
0.281448
0.071808
0.283868
0.0762057
0.286642
0.0805054
0.289804
0.0846839
0.29339
0.0887138
0.297432
0.0925632
0.301961
0.0961962
0.307002
0.0995734
0.312575
0.102653
0.31869
0.10539
0.325345
0.107742
0.332523
0.109665
0.340193
0.111121
0.348302
0.112075
0.356781
0.112503
0.36554
0.112391
0.111722
0.374476
0.276593
0.0067456
0.276682
0.0126383
0.276907
0.0181883
0.277271
0.023482
0.277776
0.0285707
0.27843
0.0334946
0.279243
0.0382851
0.280228
0.0429664
0.281401
0.0475558
0.282781
0.0520641
0.284386
0.0564962
0.286241
0.0608516
0.288369
0.065125
0.290797
0.069306
0.293551
0.0733802
0.296658
0.0773288
0.300147
0.0811292
0.304042
0.0847552
0.308367
0.0881776
0.313142
0.0913644
0.318381
0.0942818
0.32409
0.0968949
0.330268
0.0991688
0.336901
0.10107
0.343965
0.102568
0.35142
0.103638
0.359214
0.104259
0.367281
0.10442
0.375543
0.104119
0.103348
0.383913
0.283315
0.00658167
0.283466
0.0123204
0.283783
0.0177196
0.284267
0.0228613
0.284918
0.0277932
0.285744
0.0325526
0.286752
0.0371684
0.287955
0.0416623
0.289366
0.0460494
0.291002
0.0503385
0.292879
0.0545327
0.295019
0.0586302
0.297441
0.0626244
0.300168
0.0665045
0.30322
0.0702557
0.306621
0.0738599
0.310389
0.0772959
0.314542
0.0805397
0.319096
0.0835654
0.32406
0.0863456
0.32944
0.0888522
0.335231
0.0910574
0.341424
0.0929347
0.347998
0.0944599
0.354923
0.0956125
0.362159
0.0963771
0.369653
0.0967441
0.377347
0.0967114
0.385173
0.0962836
0.0954596
0.393058
0.290199
0.00638192
0.290411
0.0119358
0.290819
0.0171557
0.29142
0.0221185
0.292214
0.0268686
0.293207
0.0314403
0.294404
0.03586
0.295815
0.0401469
0.297452
0.0443143
0.299329
0.0483693
0.30146
0.0523137
0.303863
0.0561446
0.306553
0.059855
0.309548
0.0634339
0.312865
0.0668673
0.316519
0.0701381
0.320523
0.0732272
0.324889
0.0761133
0.329623
0.0787744
0.334729
0.0811877
0.340202
0.0833307
0.346034
0.0851822
0.352207
0.0867227
0.358697
0.087936
0.365471
0.0888094
0.37249
0.0893351
0.379704
0.0895107
0.387062
0.0893399
0.394505
0.0888318
0.0879887
0.401973
0.297248
0.00614706
0.29752
0.011486
0.298017
0.0164989
0.298732
0.0212572
0.299664
0.0258018
0.300817
0.0301642
0.302194
0.0343681
0.303803
0.0384309
0.305654
0.0423638
0.307756
0.0461727
0.310122
0.0498584
0.312765
0.0534176
0.315697
0.056843
0.318931
0.0601243
0.322479
0.0632483
0.32635
0.0661999
0.330552
0.0689619
0.335089
0.0715166
0.339963
0.0738455
0.34517
0.0759305
0.3507
0.0777542
0.356539
0.079301
0.362668
0.0805576
0.369058
0.0815139
0.375677
0.0821632
0.382486
0.0825034
0.389442
0.0825369
0.396498
0.0822709
0.403605
0.081717
0.0808792
0.41071
0.304467
0.00587805
0.304798
0.0109731
0.305379
0.0157523
0.306204
0.0202817
0.30727
0.0245987
0.308575
0.0287318
0.310123
0.0327024
0.311919
0.0365259
0.313968
0.040212
0.316279
0.0437656
0.318861
0.0471867
0.321722
0.0504718
0.32487
0.0536142
0.328315
0.0566041
0.332062
0.0594299
0.336117
0.0620782
0.340482
0.0645348
0.345156
0.0667846
0.350135
0.0688131
0.35541
0.0706062
0.360968
0.0721512
0.366792
0.0734372
0.372859
0.0744558
0.37914
0.0752017
0.385605
0.0756728
0.392216
0.0758707
0.398936
0.0758009
0.405721
0.0754727
0.412531
0.0748988
0.0740841
0.419323
0.311859
0.00557603
0.312246
0.0103994
0.312909
0.0149196
0.31384
0.0191971
0.315032
0.0232657
0.316482
0.0271513
0.318191
0.030873
0.320161
0.0344443
0.322395
0.0378736
0.324898
0.0411649
0.327676
0.044318
0.330733
0.0473294
0.334074
0.0501928
0.337702
0.0528998
0.341621
0.0554402
0.345831
0.0578027
0.350329
0.0599755
0.35511
0.0619468
0.360165
0.0637052
0.365484
0.0652402
0.371048
0.0665432
0.37684
0.067607
0.382835
0.0684273
0.389005
0.0690022
0.39532
0.0693329
0.401747
0.0694234
0.40825
0.0692811
0.414795
0.0689164
0.421343
0.0683419
0.0675631
0.42786
0.319428
0.00524229
0.319869
0.00976749
0.320611
0.0140047
0.321642
0.0180086
0.322953
0.0218099
0.32454
0.0254316
0.3264
0.0288905
0.328532
0.0321986
0.330936
0.0353631
0.333615
0.0383874
0.336569
0.041271
0.339802
0.0440108
0.343312
0.0466014
0.347101
0.0490353
0.351167
0.0513042
0.355506
0.0533987
0.360111
0.0553094
0.364975
0.0570272
0.370085
0.0585437
0.375427
0.0598517
0.380983
0.0609453
0.386732
0.0618209
0.39265
0.0624768
0.39871
0.0629138
0.404884
0.0631351
0.411141
0.0631465
0.41745
0.0629563
0.42378
0.062575
0.430099
0.0620148
0.0612813
0.436376
0.327178
0.00487819
0.327672
0.00908012
0.328488
0.0130116
0.329614
0.0167221
0.331038
0.0202386
0.332752
0.0235815
0.334752
0.0267655
0.337033
0.0298012
0.339594
0.0326948
0.342433
0.0354489
0.345547
0.0380634
0.348936
0.0405354
0.352596
0.0428602
0.356524
0.0450319
0.360715
0.0470434
0.365161
0.0488875
0.369854
0.0505569
0.374782
0.0520449
0.37993