/*--------------------------------*- C++ -*----------------------------------*\
| =========                 |                                                 |
| \\      /  F ield         | OpenFOAM: The Open Source CFD Toolbox           |
|  \\    /   O peration     | Version:  5.x                                   |
|   \\  /    A nd           | Web:      www.OpenFOAM.org                      |
|    \\/     M anipulation  |                                                 |
\*---------------------------------------------------------------------------*/
FoamFile
{
    version     2.0;
    format      ascii;
    class       volVectorField;
    location    "0.4";
    object      cellDisplacement;
}
// * * * * * * * * * * * * * * * * * * * * * * * * * * * * * * * * * * * * * //

dimensions      [0 1 0 0 0 0 0];

internalField   nonuniform List<vector> 
2790
(
(0.00386197 2.74486e-06 0)
(0.0110962 8.00809e-06 0)
(0.0174189 1.29498e-05 0)
(0.0229064 1.77789e-05 0)
(0.0276321 2.26708e-05 0)
(0.0316611 2.77792e-05 0)
(0.0350505 3.32467e-05 0)
(0.0378503 3.92142e-05 0)
(0.0401035 4.58282e-05 0)
(0.0418473 5.32487e-05 0)
(0.0431133 6.16572e-05 0)
(0.0439284 7.1263e-05 0)
(0.0443148 8.23034e-05 0)
(0.0442911 9.5035e-05 0)
(0.0438725 0.000109754 0)
(0.0430723 0.000126919 0)
(0.0419019 0.000147093 0)
(0.0403698 0.000170719 0)
(0.0384847 0.000198646 0)
(0.0362556 0.000231868 0)
(0.0336937 0.000271624 0)
(0.0308135 0.000319504 0)
(0.0276354 0.000377578 0)
(0.0241889 0.000448618 0)
(0.0205189 0.000536502 0)
(0.0166978 0.000646938 0)
(0.0128343 0.000786587 0)
(0.00910356 0.000962991 0)
(0.00582047 0.00117869 0)
(0.00373199 0.00140394 0)
(0.00386443 8.21787e-06 0)
(0.011104 2.39765e-05 0)
(0.0174325 3.87727e-05 0)
(0.0229266 5.32298e-05 0)
(0.0276599 6.78718e-05 0)
(0.0316978 8.31572e-05 0)
(0.0350978 9.95114e-05 0)
(0.0379099 0.000117354 0)
(0.0401778 0.000137119 0)
(0.0419388 0.000159281 0)
(0.0432253 0.000184378 0)
(0.0440646 0.000213033 0)
(0.0444798 0.000245954 0)
(0.0444899 0.000283896 0)
(0.0441111 0.000327672 0)
(0.0433577 0.000378656 0)
(0.0422436 0.000438635 0)
(0.0407783 0.000508625 0)
(0.0389724 0.000591225 0)
(0.0368378 0.000689272 0)
(0.0343891 0.000806274 0)
(0.0316453 0.00094666 0)
(0.0286324 0.00111606 0)
(0.0253876 0.00132173 0)
(0.0219626 0.00157307 0)
(0.0184516 0.00188492 0)
(0.0149896 0.00227075 0)
(0.0117926 0.00274204 0)
(0.0092115 0.00328756 0)
(0.00791222 0.00380215 0)
(0.0038703 1.36427e-05 0)
(0.0111219 3.98056e-05 0)
(0.0174632 6.4369e-05 0)
(0.0229713 8.83617e-05 0)
(0.0277203 0.000112649 0)
(0.0317762 0.000137986 0)
(0.0351972 0.000165073 0)
(0.0380339 0.000194595 0)
(0.0403306 0.000227264 0)
(0.0421257 0.000263848 0)
(0.0434523 0.000305219 0)
(0.0443391 0.000352392 0)
(0.0448106 0.000406547 0)
(0.0448874 0.000468907 0)
(0.0445866 0.000540512 0)
(0.0439246 0.000623614 0)
(0.0429182 0.000720363 0)
(0.0415827 0.000833534 0)
(0.0399307 0.000966744 0)
(0.0379794 0.00112415 0)
(0.0357495 0.00131091 0)
(0.0332682 0.00153339 0)
(0.0305726 0.00179938 0)
(0.0277151 0.00211826 0)
(0.0247597 0.00250218 0)
(0.0218124 0.00296352 0)
(0.0190444 0.00351153 0)
(0.0167078 0.00414417 0)
(0.0151281 0.00481455 0)
(0.0147577 0.00536383 0)
(0.00387923 1.89854e-05 0)
(0.011149 5.53947e-05 0)
(0.0175094 8.95704e-05 0)
(0.0230382 0.000122933 0)
(0.0278105 0.000156676 0)
(0.0318932 0.000191839 0)
(0.0353452 0.000229382 0)
(0.0382182 0.000270238 0)
(0.0405575 0.000315367 0)
(0.0424028 0.000365803 0)
(0.0437885 0.000422707 0)
(0.0447452 0.000487442 0)
(0.0452995 0.000561672 0)
(0.0454715 0.000646227 0)
(0.0452844 0.000743318 0)
(0.0447574 0.000855498 0)
(0.0439085 0.000985205 0)
(0.0427597 0.00113668 0)
(0.0413294 0.00131388 0)
(0.0396406 0.00152173 0)
(0.0377218 0.00176617 0)
(0.0356097 0.00205421 0)
(0.0333532 0.00239393 0)
(0.0310183 0.00279419 0)
(0.0286937 0.00326399 0)
(0.0264896 0.00380681 0)
(0.0245762 0.00442078 0)
(0.0232011 0.00507941 0)
(0.0226071 0.00570448 0)
(0.0229922 0.00613598 0)
(0.00389116 2.42071e-05 0)
(0.011185 7.06282e-05 0)
(0.0175705 0.000114185 0)
(0.0231265 0.00015667 0)
(0.0279295 0.000199588 0)
(0.0320471 0.000244244 0)
(0.0355397 0.000291834 0)
(0.0384601 0.000343517 0)
(0.040855 0.000400467 0)
(0.0427654 0.000463936 0)
(0.0442278 0.000535307 0)
(0.0452748 0.000616199 0)
(0.0459337 0.000708238 0)
(0.0462284 0.000812569 0)
(0.0461873 0.000932275 0)
(0.0458332 0.00106992 0)
(0.0451883 0.00122851 0)
(0.0442781 0.00141207 0)
(0.0431284 0.00162496 0)
(0.0417694 0.0018722 0)
(0.0402374 0.00215947 0)
(0.0385784 0.00249304 0)
(0.0368511 0.00287926 0)
(0.0351314 0.00332361 0)
(0.0335161 0.00382867 0)
(0.0321251 0.00438997 0)
(0.0311051 0.00499147 0)
(0.0306365 0.00558784 0)
(0.0308481 0.00609365 0)
(0.0317298 0.00638512 0)
(0.00390595 2.9269e-05 0)
(0.0112295 8.53907e-05 0)
(0.0176458 0.00013802 0)
(0.0232352 0.000189299 0)
(0.0280754 0.00024102 0)
(0.0322357 0.000294729 0)
(0.0357775 0.000351837 0)
(0.0387555 0.000413689 0)
(0.0412176 0.000481639 0)
(0.0432069 0.000557098 0)
(0.0447616 0.000641592 0)
(0.0459162 0.000736817 0)
(0.0466987 0.000844174 0)
(0.0471431 0.000966202 0)
(0.0472765 0.00110517 0)
(0.0471277 0.00126398 0)
(0.046723 0.00144563 0)
(0.0460929 0.00165395 0)
(0.0452705 0.00189302 0)
(0.0442928 0.00216722 0)
(0.0432027 0.0024811 0)
(0.0420534 0.00283905 0)
(0.04091 0.00324442 0)
(0.039852 0.00369809 0)
(0.0389751 0.00419606 0)
(0.0383869 0.00472594 0)
(0.0382014 0.00526285 0)
(0.0385058 0.00575696 0)
(0.0393172 0.00613579 0)
(0.0404938 0.00631889 0)
(0.00392342 3.41335e-05 0)
(0.011282 9.95712e-05 0)
(0.0177342 0.000160893 0)
(0.0233624 0.000220559 0)
(0.028246 0.000280626 0)
(0.0324557 0.000342854 0)
(0.0360547 0.000408834 0)
(0.0390991 0.000480068 0)
(0.0416389 0.000558039 0)
(0.0437188 0.000644267 0)
(0.0453792 0.000740345 0)
(0.0466567 0.000847951 0)
(0.0475833 0.000968702 0)
(0.0481949 0.00110506 0)
(0.0485245 0.00125938 0)
(0.0486068 0.00143458 0)
(0.0484695 0.00163302 0)
(0.0481498 0.00185821 0)
(0.0476868 0.00211346 0)
(0.0471242 0.00240196 0)
(0.0465085 0.00272642 0)
(0.0458973 0.00308872 0)
(0.0453571 0.00348867 0)
(0.0449635 0.00392249 0)
(0.044803 0.00438058 0)
(0.0449545 0.00484535 0)
(0.0454993 0.00528838 0)
(0.0464196 0.00566643 0)
(0.0476484 0.00592896 0)
(0.0489615 0.00603178 0)
(0.00394332 3.87653e-05 0)
(0.0113416 0.000113065 0)
(0.0178344 0.000182628 0)
(0.0235062 0.000250205 0)
(0.0284384 0.000318083 0)
(0.0327035 0.000388208 0)
(0.0363664 0.000462318 0)
(0.0394848 0.000542033 0)
(0.0421107 0.000628922 0)
(0.0442909 0.000724559 0)
(0.0460683 0.000830555 0)
(0.0474819 0.00094857 0)
(0.0485681 0.00108031 0)
(0.0493627 0.00122775 0)
(0.0499059 0.0013936 0)
(0.0502321 0.00157975 0)
(0.050379 0.00178848 0)
(0.0503871 0.00202264 0)
(0.0503 0.0022844 0)
(0.0501688 0.00257535 0)
(0.0500369 0.00289586 0)
(0.0499653 0.00324531 0)
(0.0500165 0.00362001 0)
(0.0502529 0.00401232 0)
(0.0507529 0.00440843 0)
(0.0515607 0.0047884 0)
(0.0526859 0.00512419 0)
(0.0540557 0.00538272 0)
(0.0555404 0.00553622 0)
(0.0568687 0.00557179 0)
(0.00396531 4.31316e-05 0)
(0.0114073 0.000125774 0)
(0.0179446 0.000203067 0)
(0.0236641 0.000278014 0)
(0.0286494 0.000353101 0)
(0.0329747 0.000430428 0)
(0.0367067 0.000511847 0)
(0.0399052 0.000599054 0)
(0.0426239 0.000693663 0)
(0.0449119 0.00079725 0)
(0.0468142 0.00091139 0)
(0.048373 0.00103767 0)
(0.0496281 0.00117772 0)
(0.0506189 0.0013333 0)
(0.0513861 0.00150639 0)
(0.0519666 0.00169848 0)
(0.0524073 0.00191167 0)
(0.0527499 0.00214746 0)
(0.0530405 0.00240698 0)
(0.0533285 0.00268969 0)
(0.0536671 0.00299415 0)
(0.0541122 0.00331749 0)
(0.0547191 0.00365281 0)
(0.05554 0.00399021 0)
(0.0566139 0.00431384 0)
(0.0579522 0.00460186 0)
(0.0594976 0.00483025 0)
(0.0611537 0.0049759 0)
(0.0627453 0.00502808 0)
(0.0639942 0.00500077 0)
(0.00398901 4.7204e-05 0)
(0.0114779 0.000137616 0)
(0.0180629 0.000222073 0)
(0.0238334 0.000303796 0)
(0.028875 0.000385435 0)
(0.0332643 0.000469213 0)
(0.0370695 0.000557059 0)
(0.0403523 0.000650711 0)
(0.0431684 0.000751783 0)
(0.045569 0.000861809 0)
(0.0476014 0.000982271 0)
(0.0493102 0.00111462 0)
(0.0507384 0.00126027 0)
(0.0519283 0.00142067 0)
(0.0529226 0.00159721 0)
(0.0537635 0.001791 0)
(0.0544972 0.00200308 0)
(0.055169 0.00223395 0)
(0.0558258 0.00248328 0)
(0.0565139 0.00274933 0)
(0.0572938 0.0030292 0)
(0.0582125 0.00331764 0)
(0.0593153 0.00360625 0)
(0.0606387 0.00388313 0)
(0.0621775 0.00413256 0)
(0.0639075 0.00433494 0)
(0.0657448 0.00447036 0)
(0.0675518 0.00452391 0)
(0.0691303 0.00449682 0)
(0.0702288 0.00442273 0)
(0.00401397 5.09589e-05 0)
(0.0115523 0.000148522 0)
(0.0181871 0.000239535 0)
(0.0240108 0.000327397 0)
(0.0291113 0.000414894 0)
(0.033567 0.000504334 0)
(0.037448 0.000597692 0)
(0.0408177 0.000696713 0)
(0.0437338 0.000802972 0)
(0.0462492 0.000917918 0)
(0.0484134 0.0010429 0)
(0.0502734 0.00117915 0)
(0.0518742 0.00132783 0)
(0.0532607 0.00148997 0)
(0.0544775 0.00166641 0)
(0.0555695 0.00185767 0)
(0.0565834 0.00206388 0)
(0.0575658 0.0022845 0)
(0.0585644 0.00251804 0)
(0.0596266 0.00276166 0)
(0.0608026 0.00301106 0)
(0.0621339 0.0032598 0)
(0.0636527 0.00349895 0)
(0.0653724 0.00371694 0)
(0.0672725 0.00389979 0)
(0.0692951 0.00403206 0)
(0.0713273 0.00409966 0)
(0.0732017 0.0040948 0)
(0.0747094 0.00402563 0)
(0.0756424 0.00393392 0)
(0.00403972 5.43781e-05 0)
(0.0116289 0.000158439 0)
(0.018315 0.000255368 0)
(0.0241933 0.000348708 0)
(0.029354 0.000441343 0)
(0.0338773 0.000535638 0)
(0.0378353 0.000633583 0)
(0.041293 0.000736896 0)
(0.0443095 0.000847082 0)
(0.0469396 0.000965472 0)
(0.0492345 0.00109323 0)
(0.0512429 0.00123137 0)
(0.0530118 0.00138071 0)
(0.0545875 0.00154185 0)
(0.056016 0.00171509 0)
(0.0573434 0.0019003 0)
(0.0586164 0.00209681 0)
(0.0598815 0.00230319 0)
(0.0611849 0.00251697 0)
(0.0625716 0.00273447 0)
(0.0640839 0.00295055 0)
(0.0657551 0.00315844 0)
(0.0676053 0.00334967 0)
(0.0696326 0.00351442 0)
(0.0718019 0.00364231 0)
(0.0740367 0.00372382 0)
(0.0762072 0.00375235 0)
(0.0781295 0.00372697 0)
(0.0795868 0.00365729 0)
(0.0804001 0.00357691 0)
(0.00406577 5.74491e-05 0)
(0.0117064 0.00016733 0)
(0.0184442 0.000269518 0)
(0.0243775 0.000367659 0)
(0.0295987 0.000464705 0)
(0.0341899 0.000563046 0)
(0.0382248 0.000664662 0)
(0.0417696 0.000771218 0)
(0.0448852 0.000884122 0)
(0.0476275 0.00100456 0)
(0.0500493 0.0011335 0)
(0.0522003 0.00127167 0)
(0.0541289 0.00141957 0)
(0.0558822 0.00157737 0)
(0.0575067 0.00174485 0)
(0.0590484 0.00192127 0)
(0.0605532 0.00210527 0)
(0.062066 0.00229469 0)
(0.06363 0.00248637 0)
(0.0652858 0.00267607 0)
(0.0670682 0.00285836 0)
(0.0690023 0.00302672 0)
(0.0710983 0.00317383 0)
(0.0733442 0.00329243 0)
(0.0756981 0.0033766 0)
(0.0780795 0.00342366 0)
(0.0803611 0.00343598 0)
(0.0823628 0.00342131 0)
(0.0838625 0.00338951 0)
(0.0846599 0.00335118 0)
(0.00409161 6.01648e-05 0)
(0.0117832 0.000175178 0)
(0.0185724 0.000281957 0)
(0.0245602 0.00038422 0)
(0.0298413 0.000484953 0)
(0.0344994 0.000586549 0)
(0.0386096 0.000690951 0)
(0.0422396 0.00079975 0)
(0.0454511 0.000914237 0)
(0.0483013 0.00103544 0)
(0.0508436 0.0011641 0)
(0.0531289 0.0013007 0)
(0.0552059 0.00144539 0)
(0.0571217 0.00159793 0)
(0.0589226 0.00175765 0)
(0.0606535 0.00192329 0)
(0.0623585 0.00209294 0)
(0.0640796 0.0022639 0)
(0.065856 0.00243258 0)
(0.0677224 0.00259448 0)
(0.0697066 0.00274423 0)
(0.0718258 0.00287591 0)
(0.0740823 0.00298361 0)
(0.0764585 0.00306247 0)
(0.0789121 0.00311041 0)
(0.0813714 0.00313054 0)
(0.0837314 0.0031338 0)
(0.0858466 0.00313974 0)
(0.0875179 0.00316768 0)
(0.0884801 0.00320358 0)
(0.00411675 6.25227e-05 0)
(0.011858 0.000181975 0)
(0.0186972 0.000292682 0)
(0.0247382 0.000398395 0)
(0.0300776 0.000502111 0)
(0.0348007 0.000606198 0)
(0.0389837 0.000712547 0)
(0.0426953 0.000822655 0)
(0.0459982 0.000937689 0)
(0.0489501 0.0010585 0)
(0.051605 0.00118563 0)
(0.054014 0.00131929 0)
(0.0562255 0.00145932 0)
(0.0582864 0.00160514 0)
(0.0602415 0.00175567 0)
(0.0621341 0.00190926 0)
(0.0640053 0.0020636 0)
(0.0658934 0.00221563 0)
(0.0678325 0.00236158 0)
(0.0698513 0.00249693 0)
(0.0719703 0.00261665 0)
(0.0741992 0.0027155 0)
(0.0765337 0.00278872 0)
(0.0789522 0.00283305 0)
(0.0814143 0.00284821 0)
(0.0838601 0.00283903 0)
(0.0862123 0.00281875 0)
(0.0883792 0.00281427 0)
(0.0902431 0.00287102 0)
(0.0915738 0.00300677 0)
(0.00450522 -0.00136734 0)
(0.00769247 -0.0012483 0)
(0.0123828 -0.00106083 0)
(0.017654 -0.000881234 0)
(0.0229636 -0.000728375 0)
(0.0280079 -0.000604004 0)
(0.0326297 -0.000501566 0)
(0.0367713 -0.000417868 0)
(0.0404136 -0.000349638 0)
(0.0435573 -0.00029395 0)
(0.0462117 -0.000248356 0)
(0.0483899 -0.000210865 0)
(0.0501049 -0.000179858 0)
(0.0513687 -0.000153731 0)
(0.0521904 -0.000132186 0)
(0.0525726 -0.000114089 0)
(0.0525154 -9.87307e-05 0)
(0.0520148 -8.55272e-05 0)
(0.0510627 -7.41925e-05 0)
(0.0496474 -6.44121e-05 0)
(0.0477523 -5.58834e-05 0)
(0.0453565 -4.8352e-05 0)
(0.042434 -4.16077e-05 0)
(0.0389543 -3.54719e-05 0)
(0.0348823 -2.97866e-05 0)
(0.030178 -2.44051e-05 0)
(0.0247972 -1.91847e-05 0)
(0.018691 -1.3979e-05 0)
(0.0118073 -8.62947e-06 0)
(0.00408502 -2.95062e-06 0)
(0.0084727 -0.0037696 0)
(0.0112498 -0.00345725 0)
(0.015373 -0.00297713 0)
(0.0201127 -0.0025028 0)
(0.024978 -0.00208864 0)
(0.029642 -0.00174023 0)
(0.033951 -0.00145209 0)
(0.0378437 -0.00121486 0)
(0.0412871 -0.00102017 0)
(0.0442707 -0.00086034 0)
(0.0467957 -0.000728828 0)
(0.0488686 -0.000620232 0)
(0.0504973 -0.000530226 0)
(0.0516921 -0.000455122 0)
(0.0524568 -0.000392009 0)
(0.0527914 -0.000338753 0)
(0.0526951 -0.000293465 0)
(0.0521619 -0.000254379 0)
(0.0511828 -0.00022082 0)
(0.0497451 -0.000191843 0)
(0.0478316 -0.000166543 0)
(0.0454206 -0.000144172 0)
(0.0424856 -0.000124117 0)
(0.0389955 -0.000105853 0)
(0.0349148 -8.89146e-05 0)
(0.0302033 -7.28695e-05 0)
(0.0248163 -5.72948e-05 0)
(0.0187047 -4.17554e-05 0)
(0.0118158 -2.57798e-05 0)
(0.00408806 -8.8156e-06 0)
(0.0151113 -0.00536005 0)
(0.0173861 -0.00499396 0)
(0.0206923 -0.00439977 0)
(0.0245876 -0.00377268 0)
(0.0286819 -0.00319707 0)
(0.0326765 -0.0026951 0)
(0.0364383 -0.00227014 0)
(0.0398822 -0.0019145 0)
(0.0429594 -0.00161861 0)
(0.0456442 -0.00137291 0)
(0.0479251 -0.00116875 0)
(0.0497982 -0.000998768 0)
(0.0512638 -0.000856862 0)
(0.0523245 -0.000738246 0)
(0.0529773 -0.000637728 0)
(0.0532202 -0.000552393 0)
(0.053049 -0.000479625 0)
(0.0524546 -0.00041701 0)
(0.0514229 -0.000362493 0)
(0.0499418 -0.000315359 0)
(0.0479926 -0.000274093 0)
(0.0455519 -0.000237513 0)
(0.0425922 -0.000204645 0)
(0.0390815 -0.000174656 0)
(0.0349836 -0.000146796 0)
(0.0302573 -0.000120366 0)
(0.0248574 -9.46785e-05 0)
(0.0187342 -6.90225e-05 0)
(0.0118341 -4.2625e-05 0)
(0.00409437 -1.45783e-05 0)
(0.02321 -0.00617152 0)
(0.0250063 -0.00584691 0)
(0.0274821 -0.00527435 0)
(0.0304363 -0.0046228 0)
(0.0336122 -0.00398851 0)
(0.0367962 -0.00341538 0)
(0.0398629 -0.00291438 0)
(0.0427214 -0.00248478 0)
(0.04531 -0.00212026 0)
(0.047589 -0.00181259 0)
(0.0495336 -0.00155344 0)
(0.0511283 -0.00133512 0)
(0.0523638 -0.00115096 0)
(0.0532328 -0.00099528 0)
(0.0537275 -0.000862888 0)
(0.0538396 -0.000749834 0)
(0.0535602 -0.00065293 0)
(0.0528776 -0.000569526 0)
(0.0517725 -0.000496556 0)
(0.0502286 -0.000432884 0)
(0.0482276 -0.000376886 0)
(0.0457438 -0.000327055 0)
(0.0427482 -0.000282137 0)
(0.0392075 -0.000241037 0)
(0.0350841 -0.000202763 0)
(0.0303362 -0.000166375 0)
(0.0249175 -0.000130944 0)
(0.0187771 -9.55046e-05 0)
(0.0118605 -5.89989e-05 0)
(0.00410349 -2.01826e-05 0)
(0.031859 -0.00645749 0)
(0.0332615 -0.00618565 0)
(0.0350011 -0.00568613 0)
(0.037059 -0.00508494 0)
(0.0393133 -0.00447019 0)
(0.0416477 -0.00389262 0)
(0.0439587 -0.00337078 0)
(0.0461612 -0.00291074 0)
(0.0481885 -0.0025112 0)
(0.0499917 -0.00216726 0)
(0.0515353 -0.00187263 0)
(0.0527934 -0.00162079 0)
(0.0537474 -0.00140566 0)
(0.0543812 -0.00122175 0)
(0.0546797 -0.00106405 0)
(0.0546281 -0.000928301 0)
(0.0542127 -0.000811166 0)
(0.0534162 -0.000709481 0)
(0.0522186 -0.000620887 0)
(0.0505962 -0.000542739 0)
(0.0485294 -0.00047356 0)
(0.0459907 -0.000411694 0)
(0.042949 -0.000355697 0)
(0.0393696 -0.000304276 0)
(0.0352136 -0.00025624 0)
(0.0304378 -0.000210446 0)
(0.0249946 -0.000165752 0)
(0.0188322 -0.000120961 0)
(0.0118943 -7.47556e-05 0)
(0.00411511 -2.55788e-05 0)
(0.0405706 -0.0064128 0)
(0.0416118 -0.00617134 0)
(0.0427108 -0.00574972 0)
(0.0439726 -0.00523171 0)
(0.0453768 -0.00468284 0)
(0.0469016 -0.00414761 0)
(0.048464 -0.00364773 0)
(0.0499972 -0.00319376 0)
(0.0514359 -0.00278914 0)
(0.0527289 -0.00243294 0)
(0.0538346 -0.00212183 0)
(0.0547191 -0.00185133 0)
(0.0553572 -0.00161689 0)
(0.0557247 -0.00141394 0)
(0.0557991 -0.00123808 0)
(0.0555581 -0.00108512 0)
(0.0549855 -0.000952192 0)
(0.0540571 -0.000836044 0)
(0.0527485 -0.000734078 0)
(0.0510343 -0.00064365 0)
(0.0488897 -0.000563034 0)
(0.0462856 -0.000490531 0)
(0.043189 -0.000424586 0)
(0.0395635 -0.000363771 0)
(0.0353684 -0.000306743 0)
(0.0305591 -0.000252195 0)
(0.0250867 -0.000198808 0)
(0.0188978 -0.000145182 0)
(0.0119345 -8.9768e-05 0)
(0.00412889 -3.07239e-05 0)
(0.0490199 -0.00611748 0)
(0.0496895 -0.00590236 0)
(0.0502326 -0.00556034 0)
(0.0508209 -0.0051402 0)
(0.0514999 -0.00468156 0)
(0.0522872 -0.00421703 0)
(0.0531498 -0.00376803 0)
(0.0540429 -0.00334694 0)
(0.0549013 -0.00296093 0)
(0.0556796 -0.00261256 0)
(0.0563354 -0.00230169 0)
(0.0568284 -0.00202608 0)
(0.0571328 -0.00178332 0)
(0.0572155 -0.00157023 0)
(0.0570484 -0.00138344 0)
(0.0566043 -0.0012193 0)
(0.055857 -0.0010749 0)
(0.0547821 -0.000947868 0)
(0.0533492 -0.000835199 0)
(0.051531 -0.000734692 0)
(0.0492989 -0.00064449 0)
(0.046621 -0.000562866 0)
(0.0434623 -0.000488215 0)
(0.0397842 -0.00041903 0)
(0.0355446 -0.000353868 0)
(0.0306972 -0.000291301 0)
(0.0251914 -0.000229865 0)
(0.0189721 -0.00016799 0)
(0.0119799 -0.000103927 0)
(0.00414444 -3.55806e-05 0)
(0.0569198 -0.00561682 0)
(0.0572315 -0.00544775 0)
(0.0573135 -0.00519549 0)
(0.0573582 -0.00488055 0)
(0.0574475 -0.00452298 0)
(0.0576067 -0.00414402 0)
(0.0578475 -0.00376151 0)
(0.0581413 -0.00339013 0)
(0.0584498 -0.00303936 0)
(0.0587319 -0.00271396 0)
(0.058947 -0.00241686 0)
(0.0590563 -0.00214797 0)
(0.0590229 -0.00190651 0)
(0.0588127 -0.0016913 0)
(0.0583934 -0.00149995 0)
(0.0577353 -0.00133002 0)
(0.0568037 -0.00117872 0)
(0.0555705 -0.001044 0)
(0.0540043 -0.000923519 0)
(0.0520738 -0.000815247 0)
(0.0497467 -0.00071737 0)
(0.0469885 -0.000628203 0)
(0.0437619 -0.00054615 0)
(0.0400264 -0.000469684 0)
(0.0357379 -0.000397307 0)
(0.0308485 -0.000327511 0)
(0.0253059 -0.000258724 0)
(0.0190534 -0.000189242 0)
(0.0120295 -0.000117144 0)
(0.00416135 -4.01185e-05 0)
(0.0640252 -0.00497933 0)
(0.0640614 -0.00488027 0)
(0.0638006 -0.00472716 0)
(0.0634294 -0.0045177 0)
(0.0630445 -0.00426005 0)
(0.0626955 -0.00396884 0)
(0.0624059 -0.00365971 0)
(0.0621685 -0.00334671 0)
(0.0619764 -0.00304037 0)
(0.0617966 -0.00274793 0)
(0.0615937 -0.002474 0)
(0.0613328 -0.00222087 0)
(0.0609688 -0.00198912 0)
(0.0604678 -0.00177872 0)
(0.0597952 -0.00158865 0)
(0.0589166 -0.0014174 0)
(0.0577964 -0.00126316 0)
(0.0564013 -0.00112422 0)
(0.0546971 -0.000998749 0)
(0.0526493 -0.000885009 0)
(0.0502225 -0.000781362 0)
(0.0473797 -0.000686236 0)
(0.0440811 -0.000598107 0)
(0.0402845 -0.000515476 0)
(0.0359439 -0.000436836 0)
(0.0310096 -0.000360638 0)
(0.0254277 -0.000285237 0)
(0.0191396 -0.000208826 0)
(0.0120818 -0.000129349 0)
(0.0041792 -4.43134e-05 0)
(0.0702381 -0.00432074 0)
(0.0701123 -0.00429107 0)
(0.0696302 -0.0042273 0)
(0.0689554 -0.00410983 0)
(0.0681968 -0.00394016 0)
(0.0674273 -0.00372928 0)
(0.0666917 -0.00349079 0)
(0.066008 -0.00323755 0)
(0.0653776 -0.00298009 0)
(0.0647828 -0.00272639 0)
(0.0641959 -0.0024821 0)
(0.0635835 -0.00225084 0)
(0.0629066 -0.00203466 0)
(0.062128 -0.00183457 0)
(0.0612107 -0.00165068 0)
(0.0601174 -0.00148243 0)
(0.0588108 -0.00132886 0)
(0.0572543 -0.00118881 0)
(0.0554112 -0.00106097 0)
(0.0532443 -0.000943946 0)
(0.0507156 -0.000836363 0)
(0.0477857 -0.000736825 0)
(0.0444129 -0.00064393 0)
(0.0405528 -0.000556249 0)
(0.0361579 -0.000472307 0)
(0.0311767 -0.00039055 0)
(0.0255538 -0.000309293 0)
(0.0192287 -0.00022666 0)
(0.0121359 -0.00014049 0)
(0.00419757 -4.81472e-05 0)
(0.0756393 -0.00374425 0)
(0.0754371 -0.00375919 0)
(0.0748136 -0.00375483 0)
(0.0739087 -0.0037024 0)
(0.0728486 -0.00359987 0)
(0.0717316 -0.0034553 0)
(0.0706241 -0.00327937 0)
(0.0695619 -0.00308254 0)
(0.0685574 -0.00287396 0)
(0.0676028 -0.00266111 0)
(0.0666772 -0.00244985 0)
(0.065751 -0.00224449 0)
(0.0647887 -0.002048 0)
(0.0637531 -0.0018623 0)
(0.0626061 -0.00168843 0)
(0.0613091 -0.00152669 0)
(0.0598234 -0.00137687 0)
(0.0581102 -0.00123843 0)
(0.0561307 -0.00111055 0)
(0.0538458 -0.000992256 0)
(0.0512154 -0.000882454 0)
(0.0481979 -0.000779975 0)
(0.04475 -0.000683574 0)
(0.0408255 -0.000591933 0)
(0.0363753 -0.00050364 0)
(0.0313464 -0.000417167 0)
(0.0256816 -0.000330822 0)
(0.0193188 -0.000242686 0)
(0.0121903 -0.00015053 0)
(0.00421604 -5.16067e-05 0)
(0.0803966 -0.00329026 0)
(0.0801444 -0.00332234 0)
(0.0793912 -0.00334066 0)
(0.0782783 -0.0033211 0)
(0.0769582 -0.00326196 0)
(0.0755516 -0.00316765 0)
(0.0741392 -0.00304417 0)
(0.0727669 -0.00289802 0)
(0.0714538 -0.00273568 0)
(0.0701986 -0.00256325 0)
(0.0689851 -0.00238608 0)
(0.0677876 -0.0022086 0)
(0.0665736 -0.00203431 0)
(0.0653074 -0.00186575 0)
(0.0639512 -0.00170468 0)
(0.062466 -0.00155214 0)
(0.0608124 -0.00140857 0)
(0.0589506 -0.00127401 0)
(0.0568404 -0.00114812 0)
(0.0544412 -0.00103033 0)
(0.0517114 -0.00091987 0)
(0.0486078 -0.00081581 0)
(0.0450855 -0.000717093 0)
(0.0410969 -0.000622534 0)
(0.0365915 -0.000530815 0)
(0.0315149 -0.000440457 0)
(0.0258082 -0.000349786 0)
(0.0194077 -0.000256873 0)
(0.012244 -0.000159446 0)
(0.0042342 -5.46837e-05 0)
(0.0846701 -0.00296858 0)
(0.0843144 -0.00298346 0)
(0.0833698 -0.00298559 0)
(0.0820302 -0.00297008 0)
(0.0804755 -0.00293521 0)
(0.0788329 -0.00287836 0)
(0.0771829 -0.00279847 0)
(0.0755713 -0.00269692 0)
(0.0740178 -0.00257696 0)
(0.0725239 -0.00244284 0)
(0.0710767 -0.00229906 0)
(0.069654 -0.00214982 0)
(0.0682264 -0.00199878 0)
(0.0667602 -0.0018489 0)
(0.0652191 -0.00170244 0)
(0.0635648 -0.001561 0)
(0.061758 -0.00142557 0)
(0.0597587 -0.00129669 0)
(0.0575261 -0.00117447 0)
(0.0550187 -0.00105872 0)
(0.0521937 -0.000948973 0)
(0.049007 -0.000844562 0)
(0.0454125 -0.000744625 0)
(0.0413615 -0.000648129 0)
(0.036802 -0.000553864 0)
(0.0316784 -0.000460425 0)
(0.0259307 -0.000366179 0)
(0.0194935 -0.000269208 0)
(0.0122955 -0.000167227 0)
(0.00425161 -5.73741e-05 0)
(0.0885105 -0.00274583 0)
(0.0878953 -0.00269934 0)
(0.086657 -0.00265681 0)
(0.0850783 -0.00263413 0)
(0.0833322 -0.00261799 0)
(0.0815223 -0.00259345 0)
(0.0797116 -0.00255169 0)
(0.0779365 -0.00248956 0)
(0.0762137 -0.00240765 0)
(0.0745449 -0.00230868 0)
(0.0729202 -0.00219629 0)
(0.0713202 -0.00207433 0)
(0.0697192 -0.00194642 0)
(0.0680863 -0.00181571 0)
(0.0663874 -0.00168477 0)
(0.0645856 -0.0015556 0)
(0.0626429 -0.00142962 0)
(0.0605195 -0.00130777 0)
(0.0581749 -0.00119055 0)
(0.0555671 -0.00107809 0)
(0.052653 -0.000970238 0)
(0.0493879 -0.000866556 0)
(0.0457246 -0.000766387 0)
(0.0416136 -0.000668855 0)
(0.0370022 -0.000572871 0)
(0.0318336 -0.000477118 0)
(0.0260464 -0.000380023 0)
(0.0195742 -0.0002797 0)
(0.0123437 -0.000173876 0)
(0.00426783 -5.96783e-05 0)
(0.0915562 -0.00249902 0)
(0.0905356 -0.00235526 0)
(0.0890158 -0.00229282 0)
(0.0872878 -0.00229115 0)
(0.0854552 -0.00230766 0)
(0.0835782 -0.00231832 0)
(0.0816978 -0.00231204 0)
(0.0798404 -0.00228472 0)
(0.0780206 -0.00223614 0)
(0.076241 -0.00216833 0)
(0.0744943 -0.00208436 0)
(0.0727652 -0.00198771 0)
(0.0710317 -0.00188183 0)
(0.0692664 -0.0017699 0)
(0.067438 -0.00165464 0)
(0.0655121 -0.00153828 0)
(0.0634522 -0.00142253 0)
(0.0612199 -0.00130862 0)
(0.0587752 -0.00119738 0)
(0.0560765 -0.00108921 0)
(0.0530808 -0.000984217 0)
(0.0497429 -0.000882189 0)
(0.0460154 -0.000782658 0)
(0.0418482 -0.000684904 0)
(0.0371878 -0.000587964 0)
(0.0319767 -0.000490619 0)
(0.0261525 -0.000391369 0)
(0.0196476 -0.000288378 0)
(0.0123873 -0.000179407 0)
(0.00428242 -6.16e-05 0)
(0.0041411 6.45614e-05 0)
(0.0119305 0.000187836 0)
(0.0188185 0.000301874 0)
(0.0249115 0.000410434 0)
(0.0303077 0.000516494 0)
(0.035094 0.000622382 0)
(0.0393475 0.000729914 0)
(0.0431376 0.000840487 0)
(0.0465275 0.000955129 0)
(0.0495752 0.00107452 0)
(0.052335 0.001199 0)
(0.0548574 0.00132854 0)
(0.0571903 0.0014627 0)
(0.0593793 0.0016006 0)
(0.0614674 0.00174086 0)
(0.0634952 0.00188153 0)
(0.0655005 0.00202004 0)
(0.0675168 0.0021532 0)
(0.0695728 0.0022772 0)
(0.0716906 0.00238775 0)
(0.0738836 0.00248024 0)
(0.0761544 0.00255013 0)
(0.0784925 0.0025935 0)
(0.0808722 0.00260763 0)
(0.0832526 0.00259171 0)
(0.0855785 0.00254677 0)
(0.0877825 0.00247367 0)
(0.0897893 0.00236524 0)
(0.0915301 0.00218412 0)
(0.0929291 0.00182802 0)
(0.0041642 6.6272e-05 0)
(0.0119996 0.000192735 0)
(0.0189346 0.0003095 0)
(0.0250777 0.000420296 0)
(0.030529 0.000528061 0)
(0.0353764 0.00063506 0)
(0.0396975 0.000743022 0)
(0.0435624 0.000853234 0)
(0.0470345 0.000966585 0)
(0.0501717 0.00108359 0)
(0.0530278 0.0012044 0)
(0.0556527 0.00132875 0)
(0.0580931 0.00145599 0)
(0.0603927 0.00158501 0)
(0.0625921 0.00171419 0)
(0.0647289 0.00184141 0)
(0.0668365 0.001964 0)
(0.0689439 0.00207875 0)
(0.0710738 0.00218201 0)
(0.0732419 0.00226982 0)
(0.0754551 0.0023381 0)
(0.0777096 0.00238293 0)
(0.0799894 0.00240093 0)
(0.0822659 0.00238939 0)
(0.0844962 0.00234651 0)
(0.0866276 0.0022701 0)
(0.0885996 0.00215467 0)
(0.0903433 0.00198753 0)
(0.091781 0.00174215 0)
(0.0928701 0.00136439 0)
(0.00418521 6.76217e-05 0)
(0.0120628 0.000196582 0)
(0.0190415 0.000315422 0)
(0.0252319 0.00042781 0)
(0.0307352 0.000536621 0)
(0.03564 0.000644039 0)
(0.0400246 0.0007517 0)
(0.0439592 0.000860773 0)
(0.0475069 0.000972011 0)
(0.0507254 0.00108578 0)
(0.0536677 0.00120204 0)
(0.0563826 0.00132038 0)
(0.0589151 0.00143994 0)
(0.0613066 0.00155945 0)
(0.0635951 0.00167717 0)
(0.0658146 0.00179089 0)
(0.0679945 0.00189796 0)
(0.0701589 0.00199528 0)
(0.0723251 0.00207945 0)
(0.074503 0.00214692 0)
(0.076694 0.00219414 0)
(0.0788899 0.00221768 0)
(0.0810715 0.00221469 0)
(0.0832098 0.00218209 0)
(0.0852618 0.00211766 0)
(0.0871818 0.00201802 0)
(0.0889111 0.00187783 0)
(0.0903879 0.00168794 0)
(0.0915659 0.00143047 0)
(0.0924174 0.00106376 0)
(0.00420344 6.85963e-05 0)
(0.0121183 0.000199339 0)
(0.0191365 0.000319586 0)
(0.0253701 0.000432918 0)
(0.0309214 0.000542122 0)
(0.0358793 0.000649291 0)
(0.0403223 0.000755957 0)
(0.0443203 0.000863172 0)
(0.0479364 0.000971563 0)
(0.0512273 0.00108135 0)
(0.054245 0.00119237 0)
(0.0570368 0.00130404 0)
(0.0596457 0.0014154 0)
(0.0621109 0.00152506 0)
(0.0644671 0.00163123 0)
(0.0667449 0.00173172 0)
(0.0689701 0.001824 0)
(0.0711625 0.00190511 0)
(0.0733342 0.00197199 0)
(0.0754903 0.00202152 0)
(0.077629 0.00205072 0)
(0.0797388 0.00205637 0)
(0.0818031 0.00203598 0)
(0.0837908 0.00198716 0)
(0.0856586 0.0019077 0)
(0.0873664 0.0017948 0)
(0.0888692 0.00164476 0)
(0.0901259 0.00145026 0)
(0.0911053 0.00119861 0)
(0.0917811 0.000868181 0)
(0.00421825 6.91863e-05 0)
(0.0121641 0.00020098 0)
(0.0192166 0.00032196 0)
(0.0254887 0.00043559 0)
(0.031083 0.00054455 0)
(0.0360887 0.000650829 0)
(0.0405842 0.000755853 0)
(0.044639 0.000860563 0)
(0.0483153 0.000965467 0)
(0.051669 0.00107067 0)
(0.0547508 0.00117589 0)
(0.0576063 0.00128044 0)
(0.0602764 0.00138328 0)
(0.0627977 0.00148299 0)
(0.0652019 0.00157776 0)
(0.067516 0.00166551 0)
(0.0697629 0.00174397 0)
(0.0719598 0.00181028 0)
(0.0741131 0.00186172 0)
(0.0762244 0.00189558 0)
(0.0782933 0.00190931 0)
(0.0803063 0.00190043 0)
(0.0822405 0.00186669 0)
(0.0840681 0.00180676 0)
(0.085757 0.00171863 0)
(0.0872741 0.00160015 0)
(0.0885868 0.0014484 0)
(0.0896671 0.00125867 0)
(0.0904933 0.00102414 0)
(0.0910469 0.000737473 0)
(0.00422901 6.93863e-05 0)
(0.0121986 0.000201492 0)
(0.0192791 0.000322532 0)
(0.0255839 0.000435823 0)
(0.0312155 0.000543924 0)
(0.0362631 0.000648712 0)
(0.0408045 0.000751503 0)
(0.0449085 0.000853135 0)
(0.0486365 0.000954011 0)
(0.0520433 0.00105414 0)
(0.0551778 0.00115315 0)
(0.058084 0.00125031 0)
(0.0608007 0.00134452 0)
(0.0633618 0.00143436 0)
(0.0657963 0.00151811 0)
(0.068127 0.00159373 0)
(0.0703781 0.00165921 0)
(0.0725617 0.00171216 0)
(0.0746792 0.00175007 0)
(0.0767323 0.00177066 0)
(0.0787168 0.00177173 0)
(0.0806188 0.0017517 0)
(0.0824195 0.00170882 0)
(0.0840962 0.00164183 0)
(0.0856233 0.00154937 0)
(0.086976 0.00143002 0)
(0.0881312 0.00128196 0)
(0.0890699 0.00110289 0)
(0.0897782 0.000890464 0)
(0.0902462 0.000644565 0)
(0.00423513 6.91952e-05 0)
(0.01222 0.000200875 0)
(0.0193215 0.000321306 0)
(0.0256526 0.000433636 0)
(0.0313154 0.000540285 0)
(0.0363984 0.000643013 0)
(0.0409787 0.000743028 0)
(0.0451243 0.00084107 0)
(0.0488953 0.000937455 0)
(0.0523452 0.00103212 0)
(0.0555214 0.00112463 0)
(0.058466 0.00121423 0)
(0.0612157 0.00129983 0)
(0.0638021 0.00138007 0)
(0.066252 0.00145332 0)
(0.0685871 0.00151774 0)
(0.0708256 0.00157136 0)
(0.0729765 0.00161238 0)
(0.0750433 0.00163867 0)
(0.0770257 0.00164832 0)
(0.078918 0.00163966 0)
(0.0807088 0.00161134 0)
(0.0823825 0.00156217 0)
(0.0839212 0.00149123 0)
(0.0853059 0.0013977 0)
(0.0865184 0.00128086 0)
(0.087543 0.00113999 0)
(0.0883677 0.000974578 0)
(0.0889845 0.000784971 0)
(0.0893898 0.000573806 0)
(0.00423634 6.86223e-05 0)
(0.0122275 0.000199155 0)
(0.0193421 0.000318326 0)
(0.0256922 0.000429097 0)
(0.0313792 0.000533738 0)
(0.0364905 0.000633887 0)
(0.0411023 0.000730648 0)
(0.0452813 0.000824671 0)
(0.0490864 0.0009162 0)
(0.0525697 0.00100512 0)
(0.0557768 0.00109097 0)
(0.0587479 0.00117299 0)
(0.0615178 0.00125016 0)
(0.0641162 0.00132118 0)
(0.0665676 0.00138459 0)
(0.0688917 0.00143876 0)
(0.0711034 0.00148201 0)
(0.0732111 0.00151271 0)
(0.0752182 0.00152918 0)
(0.077124 0.00152993 0)
(0.0789233 0.00151365 0)
(0.080607 0.00147935 0)
(0.082163 0.00142623 0)
(0.083578 0.00135374 0)
(0.0848384 0.00126155 0)