/*--------------------------------*- C++ -*----------------------------------*\
| =========                 |                                                 |
| \\      /  F ield         | OpenFOAM: The Open Source CFD Toolbox           |
|  \\    /   O peration     | Version:  2006                                  |
|   \\  /    A nd           | Website:  www.openfoam.com                      |
|    \\/     M anipulation  |                                                 |
\*---------------------------------------------------------------------------*/
FoamFile
{
    version     2.0;
    format      ascii;
    class       surfaceScalarField;
    location    "0.4";
    object      meshPhi;
}
// * * * * * * * * * * * * * * * * * * * * * * * * * * * * * * * * * * * * * //

dimensions      [0 3 -1 0 0 0 0];
oriented        oriented;


internalField   nonuniform List<scalar> 
5457
(
4.21753e-05
1.11573e-07
8.3783e-05
3.18055e-07
0.000128265
4.99521e-07
0.000178411
6.60272e-07
0.000236215
8.02891e-07
0.000303043
9.30236e-07
0.000379652
1.04914e-06
0.000466168
1.17514e-06
0.000562043
1.3379e-06
0.000665997
1.58674e-06
0.00077599
1.99552e-06
0.000889222
2.66541e-06
0.00100216
3.72398e-06
0.00111061
5.31801e-06
0.00120994
7.60078e-06
0.00129526
1.07165e-05
0.00136135
1.47725e-05
0.00140422
1.95665e-05
0.00142313
2.47998e-05
0.00141793
3.03869e-05
0.00138868
3.59951e-05
0.00133698
4.1175e-05
0.00126358
4.5861e-05
0.00116679
5.06572e-05
0.00104238
5.7417e-05
0.000884921
6.97128e-05
0.000693219
9.26475e-05
0.000482832
0.000131296
0.000309119
0.000185022
0.00024479
4.16497e-05
2.22505e-07
8.28442e-05
6.34297e-07
0.000126974
9.96177e-07
0.000176796
1.31649e-06
0.000234314
1.5999e-06
0.000300912
1.85137e-06
0.000377378
2.08349e-06
0.000463881
2.32592e-06
0.000559924
2.63629e-06
0.00066429
3.11143e-06
0.000775006
3.89738e-06
0.000889349
5.19544e-06
0.00100387
7.26113e-06
0.00111445
1.03896e-05
0.00121657
1.48891e-05
0.00130563
2.10552e-05
0.00137551
2.9019e-05
0.00142188
3.84961e-05
0.00144558
4.91633e-05
0.00144606
6.06991e-05
0.00142265
7.22269e-05
0.00137773
8.27825e-05
0.00131305
9.19526e-05
0.00122847
0.000100351
0.00112215
0.00011049
0.000991943
0.00012728
0.0008412
0.00015781
0.00069071
0.00020932
0.000592112
0.000281162
0.000371004
4.12538e-05
3.31426e-07
8.21478e-05
9.44642e-07
0.000126032
1.48294e-06
0.000175649
1.95811e-06
0.000233021
2.37613e-06
0.000299565
2.74302e-06
0.000376121
3.07578e-06
0.000462928
3.4165e-06
0.000559581
3.84861e-06
0.000664977
4.51405e-06
0.000777266
5.62874e-06
0.000893877
7.4921e-06
0.00101152
1.04848e-05
0.00112621
1.50482e-05
0.00123362
2.16443e-05
0.00132943
3.06922e-05
0.0014065
4.23065e-05
0.00146115
5.64092e-05
0.00149523
7.28325e-05
0.00150667
9.0701e-05
0.00149427
0.000108529
0.00146081
0.000124861
0.00140893
0.000138602
0.00134065
0.000149644
0.00125728
0.000159415
0.00116184
0.000170906
0.00106535
0.000188302
0.000994811
0.000214691
0.000991011
0.000246958
0.00028548
4.10567e-05
4.36817e-07
8.18095e-05
1.24455e-06
0.000125596
1.95205e-06
0.000175166
2.57359e-06
0.00023257
3.11547e-06
0.00029927
3.58358e-06
0.000376177
3.99783e-06
0.000463622
4.41071e-06
0.000561328
4.92895e-06
0.000668364
5.73653e-06
0.000783039
7.11534e-06
0.000902979
9.45773e-06
0.00102516
1.3265e-05
0.00114584
1.91255e-05
0.00126083
2.76597e-05
0.0013657
3.9418e-05
0.00145402
5.46793e-05
0.00152311
7.35629e-05
0.00157288
9.5804e-05
0.00160014
0.000120175
0.00160389
0.000144845
0.00158595
0.000167811
0.00154879
0.000187147
0.00149514
0.000201543
0.00142756
0.000210424
0.00135173
0.000213544
0.00128216
0.000210108
0.00124602
0.000196474
0.0012734
0.000167103
9.95991e-05
4.08842e-05
5.37385e-07
8.1511e-05
1.53022e-06
0.00012522
2.39711e-06
0.000174777
3.15362e-06
0.000232266
3.80515e-06
0.00029921
4.35606e-06
0.000376603
4.82735e-06
0.000464895
5.27949e-06
0.000563967
5.83922e-06
0.000673105
6.72824e-06
0.00079082
8.28854e-06
0.000914979
1.09999e-05
0.00104298
1.54843e-05
0.00117146
2.24795e-05
0.00129631
3.27662e-05
0.00141303
4.70676e-05
0.00151697
6.59192e-05
0.00160528
8.95426e-05
0.00167547
0.00011757
0.00172426
0.000148756
0.00174998
0.000181091
0.00175256
0.000212105
0.0017329
0.000239197
0.00169198
0.000260005
0.00163037
0.000272579
0.00155119
0.00027518
0.00146494
0.000265586
0.00139166
0.000240249
0.00135647
0.000198485
0.000119551
4.07316e-05
6.31998e-07
8.12475e-05
1.79832e-06
0.000124896
2.81257e-06
0.000174465
3.69026e-06
0.000232082
4.43456e-06
0.000299336
5.04674e-06
0.000377319
5.54691e-06
0.000466618
6.00084e-06
0.00056729
6.55152e-06
0.000678854
7.45305e-06
0.000800102
9.10169e-06
0.000929299
1.20613e-05
0.00106431
1.70709e-05
0.00120226
2.5014e-05
0.00133905
3.68252e-05
0.00147023
5.33966e-05
0.00159293
7.55232e-05
0.00170414
0.000103658
0.00179996
0.000137527
0.00187683
0.000175922
0.00193107
0.000216777
0.00196028
0.000257452
0.00196291
0.000295058
0.00193706
0.000326714
0.00187914
0.000349998
0.00178737
0.000363655
0.00166718
0.000367688
0.00153522
0.000363998
0.00142784
0.000358841
0.000369344
4.0596e-05
7.19718e-07
8.10144e-05
2.04612e-06
0.000124616
3.19397e-06
0.000174216
4.1773e-06
0.000231987
4.99566e-06
0.000299593
5.64571e-06
0.000378234
6.14464e-06
0.000468645
6.56075e-06
0.000571079
7.0494e-06
0.000685291
7.89182e-06
0.000810447
9.53241e-06
0.000945317
1.26101e-05
0.00108825
1.79703e-05
0.00123719
2.66529e-05
0.00138735
3.97242e-05
0.00153424
5.81985e-05
0.00167821
8.32058e-05
0.00181629
0.000115572
0.00194309
0.000155221
0.00205482
0.000201057
0.00214483
0.000251066
0.00220791
0.00030273
0.00224007
0.000353389
0.00223794
0.000400106
0.00219487
0.000440064
0.00210474
0.000472199
0.00197146
0.000497415
0.00181812
0.000518021
0.00170546
0.000535527
0.000549117
4.04754e-05
7.99774e-07
8.08074e-05
2.27138e-06
0.000124371
3.53773e-06
0.00017401
4.60992e-06
0.000231947
5.48255e-06
0.000299923
6.14624e-06
0.000379252
6.61335e-06
0.000470826
6.95198e-06
0.00057511
7.32598e-06
0.000692125
8.03839e-06
0.000821439
9.57377e-06
0.000962288
1.26331e-05
0.00111355
1.81517e-05
0.00127403
2.72952e-05
0.00143827
4.12865e-05
0.00160283
6.13425e-05
0.0017707
8.88622e-05
0.00193849
0.000125007
0.00210095
0.000170171
0.00225297
0.00022364
0.00238396
0.000283412
0.00248771
0.000346995
0.002561
0.000412196
0.0026005
0.000476603
0.00259561
0.000536954
0.00253555
0.000590578
0.0024248
0.000636524
0.00229335
0.000673625
0.00221188
0.000695705
0.000674089
4.03683e-05
8.71551e-07
8.06232e-05
2.47236e-06
0.000124154
3.84112e-06
0.000173832
4.98464e-06
0.00023193
5.89135e-06
0.000300268
6.54453e-06
0.000380276
6.95008e-06
0.000473007
7.17336e-06
0.000579148
7.38288e-06
0.000699011
7.89768e-06
0.000832555
9.2337e-06
0.000979446
1.21421e-05
0.00113907
1.76302e-05
0.00131053
2.69487e-05
0.00148969
4.15012e-05
0.00167501
6.2777e-05
0.00186841
9.23433e-05
0.00206673
0.000131599
0.00226669
0.000181464
0.00246031
0.000241902
0.00263628
0.000311449
0.00279083
0.000387819
0.00292367
0.000468757
0.00302808
0.000551867
0.00308643
0.000633578
0.00308588
0.000709264
0.0030311
0.000774872
0.0029519
0.000826204
0.00290974
0.000855603
0.000875923
4.0274e-05
9.34647e-07
8.04592e-05
2.64793e-06
0.000123957
4.10252e-06
0.000173665
5.29965e-06
0.000231904
6.2206e-06
0.000300572
6.84031e-06
0.000381209
7.15682e-06
0.000475033
7.23056e-06
0.000582951
7.23104e-06
0.000705571
7.48752e-06
0.000843232
8.53857e-06
0.000996037
1.11734e-05
0.00116386
1.64559e-05
0.00134615
2.57174e-05
0.00154095
4.05006e-05
0.0017477
6.24912e-05
0.00196666
9.34491e-05
0.00219583
0.000135023
0.00243277
0.000188482
0.00266944
0.000254414
0.00289863
0.000332336
0.00311831
0.000420709
0.00332688
0.000517264
0.00351204
0.00061902
0.00365328
0.000721617
0.00373898
0.000818534
0.00377034
0.000901646
0.00376899
0.000961903
0.00378088
0.0009891
0.000976542
4.01929e-05
9.88875e-07
8.0315e-05
2.79762e-06
0.000123776
4.32143e-06
0.000173498
5.55485e-06
0.000231844
6.47127e-06
0.000300785
7.03663e-06
0.000381967
7.24012e-06
0.000476763
7.13546e-06
0.000586295
6.8899e-06
0.000711456
6.83735e-06
0.000852946
7.53032e-06
0.00101131
9.78361e-06
0.00118694
1.47014e-05
0.00137992
2.36761e-05
0.00158979
3.835e-05
0.00181648
6.05539e-05
0.00206024
9.22211e-05
0.00232029
0.00013523
0.00259469
0.000191183
0.00287864
0.000261153
0.00316821
0.000345384
0.00346056
0.000443163
0.00375078
0.000552781
0.00402587
0.000671186
0.00426824
0.000793044
0.00446505
0.000909598
0.00460952
0.00100863
0.00470691
0.00107634
0.00477993
0.00110104
0.00108575
4.01266e-05
1.03422e-06
8.01927e-05
2.9215e-06
0.000123612
4.49821e-06
0.000173325
5.75142e-06
0.000231733
6.64614e-06
0.00030087
7.13904e-06
0.00038248
7.20999e-06
0.000478078
6.9047e-06
0.000588983
6.38542e-06
0.000716353
5.98564e-06
0.000861227
6.26349e-06
0.00102456
8.04689e-06
0.00120725
1.24626e-05
0.00141005
2.09402e-05
0.00163349
3.51843e-05
0.0018783
5.71196e-05
0.00214527
8.8805e-05
0.00243472
0.000132297
0.00274614
0.000189464
0.00307762
0.000261763
0.00342677
0.000350003
0.00379065
0.000454142
0.00416401
0.000573047
0.00453682
0.00070391
0.00489501
0.000841013
0.00522326
0.00097408
0.0055053
0.00108777
0.00572476
0.00116499
0.00587257
0.00119479
0.0011957
4.00781e-05
1.07083e-06
8.00971e-05
3.02005e-06
0.000123469
4.634e-06
0.000173147
5.89163e-06
0.000231563
6.74948e-06
0.000300804
7.15511e-06
0.000382698
7.07907e-06
0.000478886
6.55846e-06
0.00059086
5.74842e-06
0.000720013
4.97768e-06
0.000867684
4.80232e-06
0.00103521
6.05123e-06
0.00122393
9.85597e-06
0.00143521
1.76574e-05
0.00167037
3.11842e-05
0.0019309
5.24027e-05
0.00221834
8.34362e-05
0.00253408
0.000126442
0.00287898
0.00018345
0.00325316
0.000256165
0.00365601
0.000345748
0.00408605
0.000452604
0.00453989
0.000576065
0.00501087
0.000713729
0.00548854
0.000860064
0.00595814
0.00100431
0.00639689
0.00112925
0.00676677
0.00121474
0.00701763
0.00124812
0.00123914
4.00523e-05
1.09895e-06
8.00366e-05
3.09409e-06
0.000123358
4.73043e-06
0.000172975
5.97847e-06
0.00023134
6.78653e-06
0.000300582
7.09362e-06
0.000382599
6.86163e-06
0.000479133
6.11905e-06
0.000591824
5.01271e-06
0.00072226
3.8631e-06
0.000872038
3.21753e-06
0.00104281
3.89473e-06
0.00123631
7.01383e-06
0.0014544
1.40016e-05
0.00169904
2.65732e-05
0.00197238
4.6685e-05
0.00227669
7.64571e-05
0.00261424
0.00011806
0.00298711
0.000173563
0.00339694
0.00024475
0.00384479
0.000332914
0.00433092
0.00043864
0.00485432
0.000561505
0.00541177
0.000699458
0.00599699
0.000847478
0.00659912
0.000995325
0.00719666
0.00112583
0.00774248
0.0012183
0.00814941
0.0012603
0.00126027
4.00561e-05
1.11901e-06
8.00233e-05
3.14487e-06
0.000123294
4.78965e-06
0.000172825
6.01528e-06
0.000231079
6.76233e-06
0.000300215
6.96236e-06
0.000382182
6.5697e-06
0.000478801
5.60502e-06
0.000591826
4.20649e-06
0.000723005
2.68394e-06
0.000874132
1.57043e-06
0.00104711
1.66464e-06
0.00124399
4.05762e-06
0.00146703
1.01384e-05
0.00171866
2.15738e-05
0.00200155
4.02614e-05
0.00231853
6.8253e-05
0.00267252
0.000107644
0.00306648
0.000160426
0.00350313
0.000228302
0.00398468
0.000312482
0.00451253
0.000413467
0.0050875
0.00053079
0.00570863
0.000662492
0.00637235
0.000803946
0.0070713
0.000945662
0.00778919
0.00107109
0.00848236
0.00115901
0.0090421
0.00119405
0.00121343
0.00031811
-0.00022608
0.000613923
-0.000172681
0.000950656
-0.000122963
0.00126477
-8.5972e-05
0.00152822
-6.77227e-05
0.00173423
-6.10172e-05
0.00188886
-5.79849e-05
0.00199723
-5.5242e-05
0.00205806
-5.23374e-05
0.00207358
-4.88891e-05
0.00204685
-4.4751e-05
0.00198137
-3.99923e-05
0.00188501
-3.49046e-05
0.00176695
-2.98474e-05
0.00162976
-2.4885e-05
0.00147532
-2.00578e-05
0.00131402
-1.55935e-05
0.00115605
-1.16703e-05
0.0010019
-8.34766e-06
0.000852713
-5.64381e-06
0.000713216
-3.54545e-06
0.000586073
-1.9907e-06
0.000472732
-8.97899e-07
0.000373719
-1.80651e-07
0.000288745
2.44668e-07
0.00021637
4.51287e-07
0.000154363
4.99619e-07
0.00010005
4.39305e-07
4.98701e-05
3.03518e-07
1.10488e-07
0.000622178
-0.000315066
0.000827392
-0.000233484
0.00109257
-0.000173733
0.00136439
-0.000135001
0.00160297
-0.000116661
0.00179599
-0.000109848
0.00194502
-0.000107752
0.00204708
-0.000105325
0.00210107
-0.000100913
0.00210969
-9.47841e-05
0.00207629
-8.70655e-05
0.00200422
-7.80194e-05
0.00190144
-6.80247e-05
0.00177859
-5.77728e-05
0.00163817
-4.79244e-05
0.00148148
-3.86571e-05
0.00131861
-3.01155e-05
0.00115858
-2.25881e-05
0.00100206
-1.62071e-05
0.000851312
-1.0991e-05
0.000711151
-6.91896e-06
0.000583756
-3.89376e-06
0.000470411
-1.76124e-06
0.000371552
-3.57922e-07
0.000286845
4.76333e-07
0.000214783
8.87997e-07
0.000153028
9.93674e-07
9.90526e-05
8.78448e-07
4.94038e-05
6.06999e-07
2.20994e-07
0.00102965
-0.000182889
0.00111831
-0.000151155
0.00130202
-0.000145376
0.0015279
-0.000145845
0.00174043
-0.000148542
0.00191921
-0.000150699
0.0020579
-0.000151871
0.00214764
-0.000150281
0.00218883
-0.000145053
0.00218445
-0.000136812
0.00213851
-0.000126052
0.00205537
-0.000113294
0.00194223
-9.9099e-05
0.00180907
-8.43022e-05
0.00166029
-6.98649e-05
0.00149792
-5.62822e-05
0.00133085
-4.38225e-05
0.00116698
-3.2844e-05
0.00100685
-2.35407e-05
0.000853454
-1.59282e-05
0.000711771
-9.97021e-06
0.000583489
-5.54348e-06
0.000469668
-2.43017e-06
0.0003706
-3.90237e-07
0.000285798
8.12139e-07
0.000213755
1.39255e-06
0.000152159
1.52491e-06
9.84207e-05
1.33498e-06
4.91042e-05
9.16499e-07
3.32305e-07
0.00129367
7.05915e-05
0.0013511
-3.43629e-05
0.00151606
-0.00010137
0.00172971
-0.000148838
0.00193366
-0.000175985
0.00210191
-0.000188924
0.00222447
-0.000193267
0.00229622
-0.000191628
0.00231878
-0.000185231
0.00229551
-0.000174961
0.00223127
-0.000161454
0.00213189
-0.000145363
0.00200444
-0.000127482
0.00185716
-0.000108773
0.00169616
-9.02353e-05
0.00152522
-7.2631e-05
0.00135102
-5.64867e-05
0.00118054
-4.22339e-05
0.00101569
-3.01564e-05
0.000859267
-2.0316e-05
0.000715355
-1.26296e-05
0.000585556
-6.91734e-06
0.000470772
-2.90934e-06
0.000371107
-2.96314e-07
0.000285881
1.22882e-06
0.000213575
1.94371e-06
0.000151951
2.07654e-06
9.82782e-05
1.79815e-06
4.9034e-05
1.22863e-06
4.44475e-07
0.00137404
4.63132e-05
0.00151665
-4.22278e-05
0.00173568
-0.000120391
0.00197118
-0.000178281
0.00218053
-0.00021202
0.00233956
-0.000228004
0.00244037
-0.000232706
0.0024883
-0.000229868
0.00248634
-0.000221653
0.00243839
-0.000209215
0.00235005
-0.000193111
0.00222841
-0.000173952
0.00208149
-0.000152642
0.00191684
-0.000130304
0.00174142
-0.000108085
0.00155983
-8.69497e-05
0.00137652
-6.75673e-05
0.00119759
-5.04221e-05
0.00102677
-3.58718e-05
0.000866713
-2.40395e-05
0.000720101
-1.48235e-05
0.000588421
-7.98384e-06
0.000472418
-3.19439e-06
0.000371984
-8.58985e-08
0.000286262
1.71107e-06
0.000213655
2.53014e-06
0.000151923
2.64723e-06
9.82434e-05
2.2709e-06
4.90165e-05
1.54477e-06
5.57774e-07
0.00149543
-0.000145057
0.0017392
-0.000157314
0.00201921
-0.00020007
0.00227486
-0.000236558
0.00248249
-0.000259159
0.0026271
-0.000269789
0.00270118
-0.000271272
0.00271883
-0.000265394
0.00268707
-0.000254438
0.00260922
-0.000239642
0.00249134
-0.000221073
0.00234185
-0.000199048
0.00217063
-0.000174527
0.00198488
-0.000148832
0.0017928
-0.000123315
0.0015993
-9.91344e-05
0.00140564
-7.69677e-05
0.00121743
-5.72888e-05
0.00103989
-4.05827e-05
0.000875353
-2.70291e-05
0.000725639
-1.64945e-05
0.000591844
-8.69534e-06
0.00047445
-3.25022e-06
0.000373132
2.65662e-07
0.000286854
2.27552e-06
0.000213922
3.16185e-06
0.000152035
3.24171e-06
9.82916e-05
2.75516e-06
4.90376e-05
1.8657e-06
6.72368e-07
0.00185369
-0.000253577
0.00212911
-0.000274926
0.00242194
-0.000290825
0.00266791
-0.000304252
0.00284777
-0.000311221
0.00296113
-0.000312238
0.00300097
-0.000307556
0.0029792
-0.000297377
0.00291142
-0.000283477
0.00280045
-0.000266548
0.00265023
-0.000245776
0.0024689
-0.000220965
0.00226945
-0.000193271
0.00206009
-0.000164465
0.00184893
-0.000136045
0.0016416
-0.000109164
0.00143676
-8.4545e-05
0.00123893
-6.27202e-05
0.00105441
-4.42217e-05
0.000884914
-2.92374e-05
0.000731772
-1.76122e-05
0.000595679
-9.02786e-06
0.000476771
-3.05799e-06
0.000374485
7.71602e-07
0.000287606
2.9308e-06
0.000214319
3.84379e-06
0.000152239
3.8621e-06
9.83976e-05
3.25157e-06
4.90866e-05
2.19154e-06
7.88235e-07
0.00242661
-0.000379987
0.00268715
-0.00038221
0.0029524
-0.000376623
0.00316053
-0.000369875
0.00328994
-0.000361757
0.00334994
-0.000352235
0.00334037
-0.000340609
0.00326688
-0.000326318
0.00315182
-0.000309589
0.00300171
-0.000290023
0.00281723
-0.000266573
0.00260364
-0.000239028
0.0023746
-0.000208616
0.00214106
-0.000177206
0.00190931
-0.000146301
0.00168501
-0.00011703
0.00146797
-9.02766e-05
0.00126106
-6.67025e-05
0.00106951
-4.67792e-05
0.000894913
-3.06522e-05
0.000738193
-1.81668e-05
0.0005997
-8.97561e-06
0.000479222
-2.61362e-06
0.000375938
1.43473e-06
0.000288443
3.67854e-06
0.000214788
4.57648e-06
0.000152502
4.50811e-06
9.85427e-05
3.75953e-06
4.91555e-05
2.52179e-06
9.05175e-07
0.0031537
-0.000498286
0.00338383
-0.000474979
0.00359776
-0.000449929
0.00374447
-0.000426226
0.00380796
-0.000405376
0.00379781
-0.000387015
0.00372179
-0.000369747
0.0035866
-0.000351933
0.00341288
-0.000332247
0.0032121
-0.000309551
0.00298651
-0.00028312
0.00273976
-0.000253092
0.0024819
-0.000220541
0.00222394
-0.000187021
0.00197145
-0.000154011
0.00172917
-0.000122775
0.00149897
-9.4309e-05
0.00128303
-6.9337e-05
0.00108451
-4.8296e-05
0.000904825
-3.12995e-05
0.00074455
-1.8176e-05
0.000603674
-8.55095e-06
0.000481649
-1.92597e-06
0.000377389
2.24876e-06
0.000289297
4.51422e-06
0.000215289
5.35662e-06
0.000152796
5.17726e-06
9.87135e-05
4.27725e-06
4.92386e-05
2.85535e-06
1.02281e-06
0.00402492
-0.000547977
0.00420467
-0.00053102
0.00434333
-0.000498722
0.00440384
-0.000466617
0.00438126
-0.000438367
0.00428634
-0.000414335
0.0041316
-0.000393076
0.00392809
-0.000372373
0.00369114
-0.000350159
0.00343282
-0.000324968
0.00315916
-0.000296155
0.00287508
-0.000263977
0.00258753
-0.000229469
0.0023046
-0.000194087
0.00203158
-0.000159329
0.00177234
-0.000126527
0.00152918
-9.67392e-05
0.00130404
-7.0707e-05
0.00109873
-4.88428e-05
0.000914166
-3.12323e-05
0.000750512
-1.76797e-05
0.000607385
-7.78327e-06
0.000483913
-1.01642e-06
0.000378752
3.19845e-06
0.000290116
5.42723e-06
0.000215787
6.1769e-06
0.000153105
5.86459e-06
9.89012e-05
4.80154e-06
4.93326e-05
3.19041e-06
1.14055e-06
0.00500761
-0.000577163
0.00512174
-0.000558773
0.00516393
-0.000523247
0.00511576
-0.000488613
0.00498625
-0.000458113
0.0047921
-0.000432115
0.00454917
-0.000409217
0.00427048
-0.000387032
0.0039681
-0.000363248
0.00365207
-0.00033631
0.00332955
-0.000305663
0.00300626
-0.000271696
0.00268796
-0.000235507
0.00238022
-0.000198575
0.00208729
-0.000162431
0.00181225
-0.000128444
0.00155708
-9.76947e-05
0.00132318
-7.09224e-05
0.00111154
-4.85143e-05
0.000922491
-3.05265e-05
0.000755775
-1.67361e-05
0.000610636
-6.71655e-06
0.00048589
8.27854e-08
0.000379953
4.26078e-06
0.000290858
6.4015e-06
0.00021626
7.02641e-06
0.000153417
6.5629e-06
9.91012e-05
5.32788e-06
4.94359e-05
3.52447e-06
1.25758e-06
0.0060687
-0.0005891
0.00610022
-0.000551347
0.00602359
-0.000520345
0.00584664
-0.000489897
0.00559505
-0.000462559
0.00529208
-0.000438689
0.00495536
-0.000416993
0.0045976
-0.000395193
0.00422874
-0.00037109
0.00385677
-0.000343294
0.00348793
-0.000311464
0.00312729
-0.000276193
0.00277935
-0.000238728
0.00244813
-0.000200631
0.00213674
-0.000163487
0.00184737
-0.00012869
0.0015814
-9.73252e-05
0.00133963
-7.01172e-05
0.00112237
-4.74251e-05
0.000929414
-2.92753e-05
0.000760084
-1.54186e-05
0.000613264
-5.40626e-06
0.000487483
1.33078e-06
0.000380935
5.40645e-06
0.000291491
7.41663e-06
0.000216695
7.89132e-06
0.000153726
7.26315e-06
9.93131e-05
5.85064e-06
4.95494e-05
3.85444e-06
1.37289e-06
0.00717273
-0.00049947
0.00709284
-0.000512524
0.00687052
-0.000493011
0.00654919
-0.000471733
0.00616908
-0.000451857
0.00575641
-0.00043373
0.00532778
-0.000415979
0.00489382
-0.000396499
0.00446206
-0.000373421
0.00403835
-0.000345734
0.00362732
-0.000313455
0.00323277
-0.000277467
0.00285801
-0.000239222
0.00250578
-0.000200408
0.00217812
-0.000162676
0.00187634
-0.000127446
0.00160114
-9.58006e-05
0.0013527
-6.84435e-05
0.00113075
-4.5706e-05
0.000934629
-2.75861e-05
0.00076324
-1.38118e-05
0.000615148
-3.91699e-06
0.000488622
2.67978e-06
0.000381664
6.60117e-06
0.000292004
8.44871e-06
0.000217088
8.75547e-06
0.000154037
7.95477e-06
9.95409e-05
6.36328e-06
4.96757e-05
4.17673e-06
1.48533e-06
0.00826176
-0.000494825
0.0080169
-0.000472137
0.00762585
-0.000453351
0.00715999
-0.000439256
0.00666099
-0.000428511
0.00615089
-0.000418502
0.00564213
-0.000406776
0.00514212
-0.000391204
0.00465611
-0.000370327
0.00418816
-0.000343655
0.0037413
-0.000311668
0.00331806
-0.000275594
0.00292068
-0.000237118
0.00255092
-0.000198074
0.00220987
-0.000160188
0.00189806
-0.000124904
0.00161552
-9.33018e-05
0.00136187
-6.6064e-05
0.00113636
-4.34967e-05
0.00093792
-2.55742e-05
0.000765113
-1.20071e-05
0.000616215
-2.31881e-06
0.000489275
4.07779e-06
0.00038213
7.8075e-06
0.000292398
9.47159e-06
0.00021745
9.60117e-06
0.000154359
8.62624e-06
9.97934e-05
6.85868e-06
4.98198e-05
4.48744e-06
1.59362e-06
0.00914301
-0.000434052
0.00871977
-0.000380327
0.00818317
-0.000384692
0.00760823
-0.000389435
0.00702384
-0.000393331
0.00644397
-0.00039428
0.00587699
-0.000390269
0.00532773
-0.000379767
0.00480055
-0.000361981
0.00429897
-0.000337087
0.00382478
-0.000306097
0.00337952
-0.000270586
0.00296482
-0.000232466
0.00258182
-0.000193715
0.00223084
-0.000156133
0.00191174
-0.000121187
0.00162401
-8.99509e-05
0.0013668
-6.30921e-05
0.00113898
-4.08967e-05
0.000939153
-2.33225e-05
0.000765627
-1.00702e-05
0.000616432
-6.61045e-07
0.000489433
5.48959e-06
0.000382342
9.00162e-06
0.00029269
1.04701e-05
0.000217798
1.04195e-05
0.000154711
9.27278e-06
0.000100084
7.33457e-06
4.99884e-05
4.78565e-06
1.69753e-06
4.1617e-05
1.13158e-06
8.31074e-05
3.17417e-06
0.000127973
4.81484e-06
0.000179273
6.007e-06
0.000239566
6.68422e-06
0.000311107
6.77169e-06
0.000395954
6.21752e-06
0.000496056
5.03539e-06
0.00061332
3.35446e-06
0.000749677
1.4716e-06
0.000907143
-9.9779e-08
0.00108788
-5.90722e-07
0.00129425
1.04653e-06
0.00152886
6.14061e-06
0.00179463
1.6278e-05
0.00209468
3.32522e-05
0.00243225
5.89861e-05
0.00281076
9.5421e-05
0.00323372
0.000144367
0.00370464
0.000207313
0.00422623
0.000285208
0.00479984
0.000378241
0.00542703
0.00048564
0.00610716
0.000605224
0.00683538
0.000732449
0.00760182
0.000858448
0.00838897
0.000967611
0.00915386
0.00103819
0.00977684
0.00105131
0.000997801
0.0102939
4.2637e-05
1.13723e-06
8.5099e-05
3.18392e-06
0.000130941
4.81002e-06
0.000183273
5.96086e-06
0.000244702
6.56384e-06
0.000317537
6.53899e-06
0.000403899
5.82924e-06
0.000505814
4.44177e-06
0.000625288
2.49591e-06
0.000764372
2.72622e-07
0.000925224
-1.74037e-06
0.00111017
-2.81379e-06
0.00132173
-1.95824e-06
0.00156272
2.0734e-06
0.00183642
1.07584e-05
0.00214623
2.57468e-05
0.00249548
4.87799e-05
0.00288762
8.15802e-05
0.00332608
0.000125699
0.00381496
0.000182322
0.00435687
0.00025202
0.00495045
0.000334509
0.00559783
0.000428586
0.0062975
0.000531694
0.00703902
0.000639167
0.00780607
0.000742984
0.00857346
0.000829724
0.00929746
0.000880469
0.00987883
0.000877096
0.000803613
0.0102156
4.36228e-05
1.13657e-06
8.70131e-05
3.1762e-06
0.000133764
4.77949e-06
0.000187022
5.88444e-06
0.00024943
6.41336e-06
0.00032333
6.28241e-06
0.000410887
5.43038e-06
0.000514176
3.8583e-06
0.000635266
1.6747e-06
0.00077628
-8.58418e-07
0.000939465
-3.28479e-06
0.00112722
-4.92419e-06
0.00134213
-4.85917e-06
0.00158696
-1.94197e-06
0.00186533
5.17388e-06
0.00218097
1.79647e-05
0.00253689
3.79495e-05
0.0029361
6.65869e-05
0.00338076
0.000105123
0.00387621
0.000154424
0.00442617
0.000214663
0.00502192
0.000285046
0.00566368
0.000363898
0.00635387
0.000448322
0.00707489
0.000533566
0.00780269
0.00061253
0.00850621
0.000674494
0.0091426
0.000704543
0.00964394
0.000686345
0.000608155
0.00991512
4.45363e-05
1.13032e-06
8.87742e-05
3.15335e-06
0.000136328
4.72773e-06
0.000190364
5.78521e-06
0.000253542
6.24435e-06
0.00032822
6.01872e-06
0.00041658
5.04411e-06
0.000520717
3.31573e-06
0.000642723
9.3041e-07
0.000784753
-1.8715e-06
0.000949081
-4.67027e-06
0.00113813
-6.84266e-06
0.00135441
-7.55464e-06
0.00160009
-5.77208e-06
0.00187936
-2.88611e-07
0.0021967
1.01814e-05
0.00255423
2.69039e-05
0.00295457
5.10507e-05
0.00339641
8.35741e-05
0.00388506
0.000125031
0.0044294
0.000175227
0.00501453
0.000233005
0.00563157
0.000296308
0.00628767
0.000362018
0.00696374
0.000425615
0.00762899
0.000480965
0.00825274
0.000519793
0.00879524
0.000531206
0.00920618
0.000503323
0.000431428
0.00941443
4.53399e-05
1.11929e-06
9.03088e-05
3.11792e-06
0.000138521
4.65948e-06
0.000193146
5.67089e-06
0.000256838
6.06832e-06
0.000331952
5.76423e-06
0.000420658
4.69247e-06
0.000525043
2.84287e-06
0.000647181
2.99876e-07
0.000789208
-2.71994e-06
0.000953381
-5.83716e-06
0.00114212
-8.49129e-06
0.00135806
-9.94089e-06
0.00160171
-9.26612e-06
0.0018772
-5.40736e-06
0.00219155
2.70575e-06
0.00254557
1.60907e-05
0.0029404
3.56695e-05
0.00337266
6.21196e-05
0.00384389
9.56731e-05
0.00436589
0.000135851
0.0049272
0.000181358
0.0055102
0.000230036
0.00611583
0.000278779
0.00672894
0.000323538
0.00731981
0.000359255
0.00785951
0.000379703
0.00831313
0.000377523
0.00864127
0.000345504
0.000284016
0.00879864
4.59948e-05
1.10428e-06
9.15408e-05
3.07237e-06
0.00014023
4.57924e-06
0.00019521
5.54847e-06
0.000259115
5.89548e-06
0.000334267
5.53299e-06
0.000422805
4.39406e-06
0.000526766
2.46366e-06
0.000648172
-1.86489e-07
0.000789087
-3.36493e-06
0.00095168
-6.73471e-06
0.0011383
-9.80017e-06
0.00135172
-1.19114e-05
0.00159131
-1.22677e-05
0.00185973
-9.98014e-06
0.00216574
-4.18068e-06
0.00250991
5.9521e-06
0.00289078
2.11198e-05
0.00330695
4.17361e-05
0.00375628
6.77678e-05
0.00424457
9.85904e-05
0.0047663
0.000132908
0.00530515
0.00016868
0.00585263
0.000203108
0.00639472
0.000232746
0.00690735
0.000253598
0.00736392
0.000261229
0.00773521
0.00025107
0.00799137
0.000219357
0.000168952
0.00810529
4.64648e-05
1.08609e-06
9.23988e-05
3.01911e-06
0.000141346
4.49111e-06
0.000196412
5.42412e-06
0.000260183
5.73434e-06
0.000334931
5.33629e-06
0.00042273
4.16337e-06
0.000525541
2.1964e-06
0.000645288
-5.05503e-07
0.00078391
-3.77643e-06
0.000943403
-7.32257e-06
0.00112587
-1.07131e-05
0.00133365
-1.33867e-05
0.0015671
-1.46706e-05
0.00182753
-1.38398e-05
0.00212092
-1.01835e-05
0.00244867
-3.0511e-06
0.00280895
8.0471e-06
0.00320131
2.33213e-05
0.00362292
4.2593e-05
0.00407278
6.51942e-05
0.00454608
8.99075e-05
0.00503103
0.000114934
0.00551596
0.000137934
0.00598596
0.000156163
0.00642101
0.000166648
0.00679873
0.000166421
0.00709582
0.000152866
0.00729021
0.000124341
8.44881e-05
0.00736625
4.67187e-05
1.06557e-06
9.28209e-05
2.96061e-06
0.000141777
4.39923e-06
0.000196629
5.30374e-06
0.000259892
5.59278e-06
0.000333763
5.18405e-06
0.000420226
4.01252e-06
0.000521138
2.05574e-06
0.000638286
-6.39146e-07
0.000773439
-3.93126e-06
0.000928363
-7.56912e-06
0.00110483
-1.11854e-05
0.00130462
-1.43063e-05
0.00152899
-1.63756e-05
0.00177893
-1.68007e-05
0.00205693
-1.50103e-05
0.0023643
-1.05156e-05
0.00270006
-2.9891e-06
0.00306283
7.64892e-06
0.00344975
2.11505e-05
0.00385737
3.68749e-05
0.00427967
5.37557e-05
0.00470677
7.03068e-05
0.00512699
8.46895e-05
0.0055262
9.48503e-05
0.00588769
9.87122e-05
0.00619342
9.44112e-05
0.00642564
8.0584e-05
0.00656868
5.67295e-05
2.63324e-05
0.00661517
4.67275e-05
1.04339e-06
9.27522e-05
2.89884e-06
0.000141447
4.30679e-06
0.000195762
5.1917e-06
0.000258125
5.4762e-06
0.000330634
5.0825e-06
0.000415164
3.94832e-06
0.000513436
2.04899e-06
0.000627079
-5.79234e-07
0.000757661
-3.81901e-06
0.000906695
-7.45879e-06
0.00107564
-1.11904e-05
0.00126589
-1.46199e-05
0.00147855
-1.72916e-05
0.00171444
-1.87283e-05
0.00197458
-1.84815e-05
0.00225934
-1.61881e-05
0.00256771
-1.16335e-05
0.00289776
-4.81419e-06
0.0032463
4.00815e-06
0.00360888
1.42698e-05
0.00397904
2.50958e-05
0.00434788
3.53283e-05
0.00470467
4.3601e-05
0.00503701
4.84653e-05
0.00533116
4.85552e-05
0.00557311
4.27778e-05
0.00574988
3.05104e-05
0.00585102
1.17875e-05
-1.04797e-05
0.00587558
4.64673e-05
1.01999e-06
9.21479e-05
2.835e-06
0.000140291
4.21552e-06
0.000193735
5.08992e-06
0.000254798
5.38624e-06
0.000325462
5.03244e-06
0.000407471
3.97009e-06
0.000502396
2.17352e-06
0.000611685
-3.30413e-07
0.000736687
-3.44563e-06
0.000878656
-6.99682e-06
0.00103874
-1.0729e-05
0.00121796
-1.43185e-05
0.00141709
-1.7396e-05
0.00163658
-1.95807e-05
0.00187665
-2.05236e-05
0.00213692
-1.99549e-05
0.00241603
-1.77329e-05
0.00271166
-1.38881e-05
0.00302031
-8.6574e-06
0.00333723
-2.50035e-06
0.00365605
3.90761e-06
0.00396876
9.71217e-06
0.00426597
1.3951e-05
0.00453722
1.56569e-05
0.00477158
1.3984e-05
0.00495843
8.33992e-06
0.00508855
-1.49428e-06
0.00515525
-1.52814e-05
-3.07919e-05
0.00516185
4.59211e-05
9.95609e-07
9.09766e-05
2.76967e-06
0.000138268
4.126e-06
0.000190502
4.99845e-06
0.000249867
5.32168e-06
0.000318214
5.03045e-06
0.000397143
4.07123e-06
0.00048806
2.41856e-06
0.00059222
9.16626e-08
0.000710748
-2.83186e-06
0.000844634
-6.2085e-06
0.000994722
-9.82958e-06
0.00116167
-1.34318e-05
0.00134589
-1.67177e-05
0.00154744
-1.93846e-05
0.00176598
-2.11603e-05
0.00200061
-2.1841e-05
0.00224962
-2.13275e-05
0.00251041
-1.96555e-05
0.00277939
-1.70152e-05
0.00305183
-1.3755e-05
0.00332183
-1.03665e-05
0.00358234
-7.4472e-06
0.00382541
-5.64079e-06
0.00404255
-5.5595e-06
0.00422527
-7.69651e-06
0.00436573
-1.23425e-05
0.00445755
-1.95216e-05
0.00449647
-2.8962e-05
-3.90778e-05
0.00448818
4.50787e-05
9.70283e-07
8.92205e-05
2.70279e-06
0.000135357
4.03759e-06
0.000186044
4.91533e-06
0.000243328
5.27828e-06
0.000308914
5.06883e-06
0.000384247
4.23918e-06
0.000470562
2.76524e-06
0.000568918
6.6049e-07
0.000680214
-2.01297e-06
0.000805185
-5.13866e-06
0.000944385
-8.54716e-06
0.00109815
-1.20256e-05
0.00126653
-1.53349e-05
0.00144925
-1.82343e-05
0.00164556
-2.05089e-05
0.0018542
-2.19995e-05
0.00207323
-2.26286e-05
0.00229993
-2.24205e-05
0.00253075
-2.15113e-05
0.00276128
-2.0146e-05
0.00298624
-1.86614e-05