/*--------------------------------*- C++ -*----------------------------------*\
| =========                 |                                                 |
| \\      /  F ield         | OpenFOAM: The Open Source CFD Toolbox           |
|  \\    /   O peration     | Version:  5.x                                   |
|   \\  /    A nd           | Web:      www.OpenFOAM.org                      |
|    \\/     M anipulation  |                                                 |
\*---------------------------------------------------------------------------*/
FoamFile
{
    version     2.0;
    format      ascii;
    class       surfaceScalarField;
    location    "0.4";
    object      phi;
}
// * * * * * * * * * * * * * * * * * * * * * * * * * * * * * * * * * * * * * //

dimensions      [0 3 -1 0 0 0 0];

internalField   nonuniform List<scalar> 
5457
(
0.197796
0.00158536
0.195354
0.00188033
0.192685
0.00218193
0.189733
0.00253297
0.18649
0.00288592
0.182953
0.00323675
0.179113
0.00359352
0.174951
0.00396297
0.170447
0.00434948
0.165577
0.00475637
0.160315
0.00518641
0.154632
0.00564181
0.1485
0.006124
0.141888
0.00663307
0.134769
0.00716754
0.127117
0.00772374
0.118916
0.00829499
0.110157
0.00887177
0.100846
0.00943942
0.0910097
0.00997732
0.0807003
0.0104589
0.0700041
0.0108501
0.0590491
0.0111085
0.0480153
0.0111818
0.0371457
0.0110058
0.0267621
0.0105009
0.0172819
0.00956871
0.00924198
0.00808441
0.00316195
0.00604398
0.003212
0.199388
0.00157796
0.198176
0.00253046
0.196617
0.00325207
0.194742
0.00398755
0.192541
0.00472902
0.190007
0.00547013
0.18713
0.00622256
0.183894
0.00699882
0.180279
0.00780796
0.176263
0.00865698
0.17182
0.00955176
0.166921
0.010497
0.161537
0.0114964
0.155638
0.0125511
0.149192
0.0136588
0.142171
0.0148134
0.134552
0.0160037
0.12632
0.0172121
0.117471
0.0184116
0.108019
0.0195653
0.0979969
0.0206249
0.0874657
0.0215293
0.0765167
0.0222042
0.0652762
0.0225626
0.0539012
0.0225081
0.042567
0.0219413
0.0314392
0.020772
0.0206063
0.0189493
0.0100052
0.0166137
0.0131976
0.199239
0.00171815
0.198085
0.00311986
0.196592
0.00425491
0.194808
0.0053499
0.192733
0.00644467
0.190358
0.00754164
0.187676
0.00865427
0.184673
0.00979903
0.181332
0.0109893
0.177635
0.0122358
0.173557
0.0135476
0.169073
0.0149325
0.164157
0.0163967
0.158779
0.0179432
0.152905
0.019571
0.146506
0.0212744
0.139551
0.0230413
0.132013
0.0248499
0.123873
0.0266672
0.115117
0.0284477
0.105746
0.0301306
0.0957743
0.0316384
0.085236
0.0328783
0.074183
0.0337437
0.0626812
0.0341237
0.0507982
0.0339159
0.038577
0.033054
0.0260261
0.0315231
0.0131288
0.0294984
0.0262796
0.199154
0.00194026
0.197996
0.00371149
0.196517
0.00524112
0.19475
0.00669223
0.192703
0.00812961
0.190369
0.00956964
0.187741
0.0110285
0.184807
0.0125255
0.181556
0.0140773
0.17797
0.0156979
0.174031
0.017399
0.169718
0.0191913
0.16501
0.021083
0.15988
0.0230787
0.1543
0.0251802
0.148242
0.0273841
0.141676
0.0296793
0.13457
0.0320446
0.126892
0.0344477
0.118611
0.036842
0.109698
0.039164
0.100129
0.0413316
0.0898834
0.0432458
0.0789471
0.0447935
0.0673144
0.0458556
0.0549911
0.0463171
0.0419931
0.0461013
0.0283737
0.0451604
0.0143055
0.0435663
0.0405385
0.19911
0.00220301
0.197938
0.00431416
0.19647
0.00621288
0.194722
0.00801241
0.192701
0.00978422
0.190403
0.0115575
0.18782
0.0133529
0.184942
0.0151918
0.181757
0.0170939
0.178249
0.0190758
0.174401
0.0211516
0.170197
0.0233338
0.165616
0.0256327
0.160634
0.0280554
0.155225
0.030606
0.149365
0.0332835
0.143022
0.0360798
0.136163
0.0389776
0.128747
0.041949
0.120732
0.0449524
0.112069
0.0479292
0.102705
0.0508021
0.0925805
0.0534744
0.081639
0.0558324
0.0698312
0.057748
0.0571335
0.0590805
0.0435829
0.0596913
0.0293176
0.0594324
0.0146632
0.058197
0.055183
0.199086
0.00248535
0.197904
0.00492262
0.19645
0.00716745
0.194727
0.00930368
0.192739
0.0114009
0.190484
0.0134976
0.187954
0.0156193
0.185138
0.0177901
0.182024
0.020032
0.178597
0.0223641
0.174843
0.024803
0.170742
0.0273628
0.166276
0.0300563
0.16142
0.0328935
0.156148
0.0358803
0.150435
0.0390191
0.14425
0.0423061
0.137552
0.0457299
0.130296
0.0492693
0.12243
0.0528915
0.113891
0.0565479
0.104607
0.0601705
0.0944946
0.063671
0.0834697
0.0669356
0.0714658
0.0698206
0.0584521
0.0721479
0.044499
0.0736746
0.0298205
0.074105
0.0148304
0.0731266
0.0700144
0.199074
0.00277547
0.197889
0.00552933
0.19645
0.00810132
0.194757
0.0105605
0.192809
0.0129725
0.190605
0.0153816
0.188136
0.0178182
0.185392
0.0203093
0.182361
0.0228793
0.179028
0.0255497
0.175379
0.0283395
0.171394
0.0312655
0.167053
0.0343427
0.16233
0.0375836
0.157198
0.0409975
0.151631
0.0445909
0.145594
0.0483657
0.139038
0.0523174
0.131913
0.0564337
0.124156
0.0606931
0.115697
0.0650579
0.106455
0.0694725
0.0963241
0.0738618
0.0852024
0.0781111
0.0730169
0.0820534
0.0597453
0.0854557
0.0454794
0.0879577
0.030464
0.0891039
0.0151466
0.0883634
0.0851891
0.199068
0.00306615
0.197886
0.00612737
0.196467
0.00901016
0.194808
0.0117775
0.192907
0.0144918
0.190761
0.0172009
0.188362
0.0199398
0.185701
0.0227382
0.182764
0.025623
0.179539
0.0286182
0.176009
0.0317452
0.172157
0.035024
0.167958
0.0384721
0.163386
0.0421049
0.158417
0.0459359
0.153016
0.0499771
0.147143
0.0542367
0.140749
0.0587181
0.133776
0.0634192
0.126152
0.0683309
0.117798
0.0734302
0.108622
0.0786767
0.0985052
0.0840055
0.0873352
0.0893012
0.0750282
0.094375
0.0615666
0.0989239
0.0470282
0.10249
0.0316268
0.104471
0.0157592
0.104135
0.100982
0.199066
0.00335261
0.197893
0.00671092
0.196498
0.00988926
0.194878
0.0129494
0.193029
0.015952
0.190949
0.0189476
0.188629
0.0219745
0.186061
0.0250657
0.183231
0.0282503
0.180127
0.0315549
0.176733
0.0350036
0.173029
0.0386191
0.168993
0.0424221
0.164599
0.0464319
0.159819
0.0506667
0.154615
0.0551443
0.148942
0.0598798
0.142754
0.0648858
0.135985
0.0701717
0.128561
0.0757404
0.120389
0.0815888
0.111355
0.0876951
0.101342
0.0939977
0.0902337
0.100385
0.0779217
0.106657
0.0643479
0.112463
0.0495261
0.117268
0.0335977
0.120334
0.0168563
0.120759
0.117793
0.199066
0.00363147
0.197906
0.00727514
0.19654
0.0107339
0.194963
0.014071
0.193174
0.0173469
0.191166
0.0206138
0.188935
0.0239134
0.186469
0.0272811
0.183758
0.0307488
0.180788
0.0343454
0.177545
0.0380975
0.174009
0.0420308
0.170159
0.0461694
0.165969
0.0505365
0.16141
0.0551558
0.156443
0.0600507
0.151023
0.0652439
0.145101
0.070758
0.138611
0.0766147
0.131475
0.0828318
0.12359
0.0894234
0.114835
0.0963855
0.105085
0.103673
0.0942014
0.111191
0.0820316
0.118744
0.0684332
0.125974
0.0533051
0.132306
0.0366543
0.136881
0.0186423
0.138635
0.13641
0.199069
0.00390017
0.197926
0.00781596
0.196592
0.0115397
0.195064
0.0151374
0.193338
0.0186703
0.191411
0.0221923
0.189275
0.0257476
0.186922
0.0293743
0.184341
0.0331065
0.18152
0.0369754
0.178444
0.0410103
0.175096
0.0452393
0.171456
0.04969
0.167498
0.0543896
0.163194
0.0593668
0.158509
0.0646509
0.153399
0.0702723
0.147814
0.0762635
0.14169
0.0826586
0.134947
0.0894915
0.127484
0.0967926
0.119181
0.104578
0.109894
0.112836
0.0994453
0.121506
0.087616
0.130431
0.0741454
0.139297
0.0587468
0.147554
0.0411723
0.154306
0.0213195
0.15833
0.157664
0.199074
0.0041567
0.19795
0.00832996
0.196652
0.0123025
0.195177
0.0161438
0.193521
0.0199165
0.19168
0.0236762
0.189648
0.0274691
0.187417
0.0313357
0.184977
0.0353122
0.182318
0.0394317
0.179426
0.0437258
0.176285
0.0482252
0.172877
0.0529603
0.16918
0.0579622
0.165169
0.0632637
0.160811
0.0688998
0.156068
0.0749079
0.150892
0.0813296
0.145227
0.0882101
0.138997
0.0955982
0.132111
0.103543
0.124446
0.112088
0.115849
0.121261
0.106107
0.131059
0.0949235
0.141412
0.0818823
0.152125
0.0664196
0.162802
0.047853
0.172665
0.0255679
0.180424
0.183111
0.19908
0.00439941
0.197979
0.0088142
0.19672
0.0130187
0.195302
0.017086
0.193721
0.0210805
0.191972
0.0250593
0.190051
0.0290706
0.187951
0.0331566
0.185663
0.0373553
0.183177
0.0417016
0.180483
0.0462291
0.177568
0.0509704
0.174415
0.0559583
0.171008
0.0612269
0.167323
0.0668126
0.163337
0.0727545
0.159015
0.0790961
0.154322
0.0858859
0.149208
0.0931785
0.143612
0.101035
0.137456
0.109524
0.130632
0.118717
0.122987
0.128689
0.114295
0.139513
0.104201
0.151246
0.0921383
0.163912
0.0772046
0.177455
0.058021
0.19158
0.0327545
0.205463
0.215697
0.199087
0.00462695
0.19801
0.0092662
0.196794
0.0136849
0.195437
0.0179601
0.193935
0.0221577
0.192285
0.0263362
0.190481
0.0305453
0.18852
0.034829
0.186392
0.0392266
0.184092
0.0437743
0.18161
0.048507
0.178937
0.0534588
0.17606
0.0586643
0.172967
0.0641596
0.169641
0.0699831
0.166065
0.076177
0.162217
0.0827883
0.15807
0.0898702
0.153592
0.0974834
0.148741
0.105698
0.143461
0.114596
0.137674
0.124275
0.131259
0.134851
0.124017
0.146477
0.115608
0.159354
0.105422
0.173778
0.0923237
0.190223
0.0741235
0.209461
0.0464965
0.23282
0.261903
0.199095
0.00483822
0.198045
0.00968379
0.196874
0.0142984
0.195581
0.0187626
0.194162
0.0231439
0.192615
0.027502
0.190935
0.0318879
0.189118
0.0363467
0.187159
0.0409185
0.185053
0.0456407
0.182794
0.0505489
0.180376
0.0556779
0.177791
0.0610631
0.175032
0.0667413
0.17209
0.072752
0.168956
0.0791382
0.16562
0.085948
0.16207
0.0932358
0.158293
0.101064
0.154273
0.109506
0.149987
0.11865
0.145403
0.128606
0.140462
0.139516
0.135059
0.15158
0.128992
0.165098
0.121862
0.18057
0.112816
0.198927
0.0997646
0.222195
0.0761687
0.256179
0.337454
-0.00770206
0.00754278
-0.020953
0.0131613
-0.0377354
0.0166215
-0.0566224
0.0186689
-0.0767249
0.0198439
-0.0974417
0.020435
-0.118325
0.0205923
-0.139002
0.0203874
-0.159127
0.0198486
-0.178362
0.0189794
-0.196362
0.0177688
-0.212758
0.0161979
-0.227167
0.0142474
-0.239196
0.0119019
-0.248448
0.00916068
-0.254543
0.00604429
-0.257126
0.00257227
-0.25591
-0.00118493
-0.250666
-0.00516859
-0.241333
-0.00921185
-0.228003
-0.0131633
-0.210871
-0.0169158
-0.190214
-0.0203896
-0.166353
-0.0235394
-0.139608
-0.0263684
-0.110203
-0.0289693
-0.0779864
-0.0317186
-0.0416445
-0.0357798
0.0023332
-0.0433486
-0.0573024
-0.012703
0.0201493
-0.0278057
0.0281565
-0.0448987
0.0335438
-0.0635265
0.037072
-0.0831589
0.0392134
-0.103325
0.0403174
-0.123628
0.0406038
-0.143711
0.0401819
-0.163231
0.0390948
-0.18185
0.0373448
-0.199214
0.0349068
-0.214951
0.031741
-0.228669
0.0278062
-0.239966
0.0230744
-0.248437
0.0175432
-0.253688
0.0112465
-0.255391
0.00426739
-0.253292
-0.00325006
-0.247259
-0.0111242
-0.237281
-0.0190664
-0.223452
-0.0268237
-0.205959
-0.0341915
-0.185067
-0.0410131
-0.161091
-0.0471932
-0.134349
-0.0527326
-0.105069
-0.0578128
-0.0732004
-0.0630882
-0.0381265
-0.0702908
0.00165693
-0.0825021
-0.10205
-0.0152611
0.0353918
-0.0314803
0.0442435
-0.0484878
0.0503698
-0.0663295
0.0546824
-0.0848162
0.0574341
-0.103684
0.0589011
-0.12265
0.059281
-0.14142
0.0586694
-0.159693
0.0571007
-0.177152
0.0545606
-0.193462
0.0510001
-0.208256
0.0463506
-0.221143
0.0405429
-0.231715
0.033529
-0.239554
0.0253014
-0.244265
0.015916
-0.245506
0.0055062
-0.243041
-0.00567699
-0.236727
-0.0173559
-0.226579
-0.0290877
-0.212714
-0.0405165
-0.19533
-0.0513549
-0.174696
-0.0613758
-0.151137
-0.0704283
-0.124989
-0.0785006
-0.0965318
-0.0858318
-0.0659173
-0.0932026
-0.0331217
-0.102522
0.00202215
-0.117014
-0.137419
-0.0163584
0.0516906
-0.032961
0.0607095
-0.049529
0.0667501
-0.0663488
0.0712661
-0.0834802
0.0742984
-0.100851
0.0759914
-0.118302
0.0764508
-0.135623
0.0757198
-0.152567
0.0737915
-0.168846
0.0706111
-0.184135
0.0660872
-0.198062
0.0601083
-0.210222
0.0525653
-0.220177
0.0433793
-0.227479
0.0325339
-0.231703
0.0201085
-0.232498
0.0063075
-0.229639
-0.00848994
-0.223042
-0.023865
-0.212763
-0.0392341
-0.198948
-0.0541545
-0.181801
-0.0682765
-0.161592
-0.0813107
-0.13865
-0.0930422
-0.113341
-0.103428
-0.0860099
-0.112721
-0.0569745
-0.121736
-0.0266976
-0.132232
0.00403339
-0.147111
-0.165807
-0.0164406
0.0680925
-0.0326299
0.0767778
-0.0483447
0.0822743
-0.063944
0.0866262
-0.0796205
0.0897098
-0.0954318
0.09153
-0.111316
0.0920674
-0.12714
0.0912904
-0.142706
0.0891237
-0.157753
0.0854494
-0.171962
0.0801157
-0.184959
0.0729538
-0.196318
0.0638042
-0.205579
0.0525507
-0.212264
0.0391651
-0.215931
0.0237582
-0.216215
0.00660777
-0.212948
-0.0117023
-0.206092
-0.030624
-0.195759
-0.0494268
-0.182123
-0.0676077
-0.165387
-0.0847814
-0.145809
-0.10061
-0.123718
-0.114802
-0.0995015
-0.127257
-0.0735819
-0.138197
-0.0464174
-0.148394
-0.0187942
-0.159285
0.00788951
-0.173158
-0.18896
-0.0156338
0.0835984
-0.0307129
0.0917333
-0.045158
0.0965209
-0.0593221
0.100551
-0.0734319
0.103563
-0.0876086
0.105449
-0.101863
0.106075
-0.11612
0.105318
-0.130223
0.103018
-0.143938
0.0989815
-0.15696
0.0929815
-0.168915
0.0847802
-0.179367
0.0741572
-0.187837
0.0609506
-0.193825
0.0451164
-0.196866
0.0267976
-0.196611
0.00638342
-0.192919
-0.0153288
-0.185847
-0.0375895
-0.175568
-0.0595578
-0.162274
-0.0807101
-0.146158
-0.100661
-0.127442
-0.11904
-0.106449
-0.135459
-0.0835797
-0.149735
-0.059323
-0.162005
-0.0342599
-0.172948
-0.00945593
-0.183516
0.0136442
-0.195617
-0.208116
-0.0140019
0.097419
-0.0274049
0.104991
-0.040188
0.109097
-0.0526748
0.112804
-0.0650638
0.115712
-0.0774903
0.117642
-0.0900141
0.11838
-0.102598
0.117702
-0.115121
0.115364
-0.127378
0.111086
-0.139083
0.10456
-0.14987
0.0954667
-0.159302
0.0835154
-0.166884
0.0684868
-0.1721
0.0503146
-0.174477
0.0291886
-0.173619
0.00557191
-0.169511
-0.0193565
-0.1623
-0.0446841
-0.152218
-0.0694817
-0.139468
-0.0932606
-0.124206
-0.115679
-0.106605
-0.136349
-0.0869613
-0.154761
-0.0656862
-0.170615
-0.0433159
-0.183922
-0.0204894
-0.195261
0.0015051
-0.204933
0.021268
-0.214735
-0.22414
-0.0117386
0.109035
-0.0229204
0.116021
-0.0336746
0.119649
-0.0442068
0.123118
-0.0546741
0.125966
-0.0652003
0.127969
-0.0758525
0.12885
-0.0866219
0.128311
-0.0974183
0.126022
-0.108068
0.121619
-0.118308
0.114707
-0.12779
0.104879
-0.136082
0.0917619
-0.142681
0.0750663
-0.147049
0.0546877
-0.148705
0.0308761
-0.147271
0.00420105
-0.142792
-0.0237393
-0.135553
-0.0517932
-0.125848
-0.0790187
-0.113865
-0.105034
-0.0997033
-0.129589
-0.0834705
-0.152283
-0.0654183
-0.172465
-0.0459705
-0.189661
-0.0256892
-0.203745
-0.00537897
-0.215053
0.0137602
-0.22349
0.0307847
-0.231109
-0.237547
-0.0089294
0.117818
-0.0175195
0.12446
-0.0259119
0.127855
-0.0341956
0.131213
-0.0424903
0.134085
-0.050908
0.13623
-0.0595076
0.137314
-0.0682934
0.136981
-0.077198
0.134831
-0.0860753
0.130421
-0.0946934
0.123268
-0.102728
0.112877
-0.109762
0.0987805
-0.115294
0.0806051
-0.118763
0.0581853
-0.119631
0.0317969
-0.117687
0.00233757
-0.112938
-0.0283769
-0.105836
-0.0587511
-0.0967183
-0.0879564
-0.0857383
-0.115795
-0.0729134
-0.142152
-0.0582849
-0.166605
-0.0420387
-0.188355
-0.0246305
-0.206661
-0.00660886
-0.221303
0.0109322
-0.23207
0.0273421
-0.239312
0.0420333
-0.245145
-0.24869
-0.00577887
0.123454
-0.0115035
0.13004
-0.0172254
0.133419
-0.0229718
0.136813
-0.0288294
0.139817
-0.0349044
0.142201
-0.0412497
0.143576
-0.0478661
0.143533
-0.0546971
0.141614
-0.0616216
0.137313
-0.068441
0.13007
-0.0748656
0.119299
-0.0805084
0.104438
-0.0848879
0.0850176
-0.0874451
0.060795
-0.0875624
0.0319885
-0.0851162
-9.11118e-06
-0.0802424
-0.0331233
-0.0735085
-0.0653268
-0.0652247
-0.0960479
-0.0554863
-0.125304
-0.0442051
-0.153163
-0.031364
-0.179132
-0.0170827
-0.202274
-0.00190947
-0.221421
0.0134187
-0.236162
0.0282941
-0.246417
0.0424189
-0.252844
0.054839
-0.256904
-0.257772
-0.00247349
0.125797
-0.00508801
0.132533
-0.00792151
0.136142
-0.010861
0.139666
-0.0140425
0.142937
-0.0175682
0.145687
-0.0214757
0.147459
-0.0257464
0.147793
-0.030322
0.14619
-0.0351009
0.142102
-0.0399159
0.134906
-0.0445171
0.123933
-0.0485618
0.108528
-0.0516313
0.0881467
-0.0532093
0.0624491
-0.0527154
0.0315901
-0.0498793
-0.00272727
-0.0451184
-0.0377407
-0.0390343
-0.0712385
-0.0318831
-0.102994
-0.0236167
-0.133329
-0.0140104
-0.16249
-0.00306791
-0.189751
0.00893765
-0.21391
0.0215192
-0.233582
0.0343321
-0.248499
0.0469442
-0.258494
0.0587691
-0.264071
0.0689662
-0.266434
-0.26491
0.000860599
0.124858
0.00139423
0.131918
0.00172785
0.135765
0.00182311
0.139561
0.00150021
0.143273
0.000677317
0.146537
-0.000660842
0.148835
-0.00246804
0.149643
-0.00467807
0.148448
-0.00716057
0.144637
-0.00976586
0.137569
-0.0123325
0.126564
-0.0146112
0.11088
-0.0162054
0.0898258
-0.0165234
0.062866
-0.0150582
0.0302406
-0.0118524
-0.00579726
-0.00770576
-0.041728
-0.00299656
-0.0757613
0.00264804
-0.108422
0.00926451
-0.139695
0.0169735
-0.169909
0.0257554
-0.198202
0.0354114
-0.223189
0.0457668
-0.24351
0.0563243
-0.258575
0.0666236
-0.268253
0.0761345
-0.272978
0.0841425
-0.27377
-0.270166
0.0041951
0.120591
0.00803016
0.128067
0.0116296
0.132209
0.0148525
0.136413
0.0174302
0.140785
0.0193235
0.144739
0.0205752
0.147678
0.0212749
0.149037
0.0215315
0.148283
0.0214535
0.144806
0.0211734
0.137941
0.0208509
0.126982
0.0206748
0.111157
0.0209547
0.0896545
0.0221009
0.0618397
0.024223
0.0282531
0.0269852
-0.00840681
0.0300129
-0.0445813
0.0334973
-0.079046
0.0374239
-0.11212
0.0422418
-0.144251
0.0480841
-0.175453
0.0549249
-0.204704
0.0625675
-0.230447
0.0707484
-0.251257
0.0790423
-0.266382
0.0870176
-0.275682
0.0942199
-0.279571
0.10007
-0.278942
-0.273583
0.00784135
0.112929
0.0148609
0.121127
0.0218003
0.125406
0.0281313
0.130237
0.0335198
0.135553
0.0380231
0.140387
0.0417715
0.144073
0.0448962
0.146048
0.0475323
0.145776
0.0498091
0.142653
0.0518566
0.136015
0.0538145
0.125144
0.0558469
0.109248
0.058171
0.08746
0.0608427
0.0593069
0.0634374
0.0258101
0.0655836
-0.0103849
0.0674463
-0.0462557
0.0693702
-0.0807575
0.0717272
-0.114237
0.0749283
-0.14718
0.0791167
-0.179334
0.084208
-0.209448
0.0899559
-0.235804
0.0960497
-0.256911
0.102116
-0.271955
0.107788
-0.280803
0.112707
-0.283875
0.116436
-0.281987
-0.275193
0.0121224
0.101294
0.0216717
0.111679
0.0321569
0.1151
0.0414954
0.121098
0.0494779
0.127769
0.0563824
0.133671
0.0624396
0.138193
0.0678238
0.14083
0.0726943
0.141061
0.0771913
0.138305
0.0814399
0.13191
0.0855582
0.121168
0.0896464
0.105303
0.0937003
0.0835535
0.097429
0.0557336
0.100328
0.0230776
0.102112
-0.011987
0.103029
-0.0469708
0.103699
-0.0812042
0.104774
-0.11506
0.106696
-0.148821
0.109551
-0.181873
0.113147
-0.212689
0.117167
-0.239425
0.121283
-0.26058
0.125183
-0.275355
0.128593
-0.283656
0.13127
-0.285932
0.132922
-0.282949
-0.275038
0.20673
0.00503926
0.20567
0.0100793
0.204505
0.0148772
0.203234
0.0195169
0.201853
0.0240675
0.200361
0.0285898
0.198754
0.0331355
0.19703
0.0377504
0.195186
0.0424755
0.193218
0.0473482
0.191125
0.0524044
0.188904
0.0576789
0.186553
0.063207
0.18407
0.0690249
0.181456
0.0751713
0.17871
0.081688
0.175836
0.0886215
0.172838
0.0960236
0.169727
0.103953
0.166516
0.11248
0.163223
0.121687
0.159874
0.131678
0.156501
0.142591
0.153148
0.154615
0.149879
0.168032
0.146828
0.183278
0.144375
0.201045
0.144074
0.222196
0.155615
0.244423
0.257759
0.235052
0.211742
0.00522489
0.21069
0.0104425
0.209553
0.0154065
0.208328
0.0202038
0.207015
0.0249052
0.20561
0.0295719
0.204112
0.0342563
0.202521
0.0390043
0.200834
0.0438568
0.199054
0.0488513
0.19718
0.0540229
0.195215
0.0594058
0.193163
0.0650339
0.191029
0.0709416
0.188821
0.0771649
0.186551
0.0837425
0.184237
0.0907163
0.1819
0.0981317
0.179575
0.106039
0.177304
0.114497
0.17515
0.123571
0.1732
0.133343
0.171578
0.14391
0.170479
0.155397
0.170238
0.167949
0.171505
0.181689
0.175648
0.196595
0.185213
0.212359
0.20116
0.228259
0.243682
0.21509
0.216877
0.00539296
0.215837
0.0107691
0.214733
0.01588
0.213563
0.0208155
0.212325
0.0256473
0.211019
0.0304369
0.209644
0.0352367
0.2082
0.0400925
0.20669
0.0450448
0.205117
0.05013
0.203485
0.0553821
0.201802
0.0608335
0.200077
0.0665158
0.198324
0.0724604
0.196559
0.0786991
0.194805
0.0852653
0.193092
0.092194
0.19146
0.0995212
0.189963
0.107285
0.18867
0.115526
0.18768
0.124286
0.187123
0.133612
0.187184
0.143552
0.188136
0.154141
0.19039
0.165392
0.19453
0.177257
0.201261
0.189596
0.211128
0.202264
0.223677
0.215535
0.227055
0.240206
0.222138
0.00554132
0.221113
0.011055
0.220048
0.016292
0.21894
0.0213442
0.217787
0.0262842
0.216591
0.0311734
0.215351
0.0360639
0.21407
0.0410006
0.212752
0.046023
0.211405
0.0511661
0.210036
0.0564619
0.208657
0.0619403
0.207284
0.0676297
0.205937
0.0735572
0.204643
0.0797493
0.203431
0.0862328
0.202343
0.0930337
0.201435
0.100176
0.200776
0.107684
0.200454
0.11558
0.200587
0.123877
0.20133
0.132587
0.202883
0.141712
0.205515
0.151224
0.209558
0.161072
0.215389
0.171167
0.223384
0.181372
0.234009
0.19145
0.248142
0.201263
0.208623
0.266502
0.227529
0.0056679
0.226522
0.0112962
0.225501
0.0166365
0.224462
0.0217826
0.223403
0.0268072
0.222326
0.0317713
0.221233
0.036726
0.220129
0.0417153
0.219019
0.0467769
0.217913
0.0519438
0.216825
0.0572456
0.215769
0.0627088
0.214766
0.0683579
0.213845
0.0742148
0.213038
0.0803008
0.212381
0.0866351
0.211925
0.0932316
0.211738
0.100103
0.211898
0.10726
0.212504
0.114705
0.213682
0.122427
0.215587
0.13041
0.218408
0.13862
0.22237
0.146999
0.227731
0.155461
0.234787
0.163883
0.243871
0.172091
0.255384
0.179779
0.269821
0.186711
0.191807
0.286581
0.233051
0.0057707
0.232067
0.011489
0.231095
0.0169084
0.230131
0.022124
0.229175
0.0272081
0.228227
0.0322211
0.227291
0.0372126
0.226374
0.042225
0.225485
0.0472941
0.224635
0.0524504
0.22384
0.0577203
0.223121
0.0631266
0.222501
0.0686893
0.222016
0.0744254
0.221703
0.08035
0.221601
0.0864726
0.221769
0.0927971
0.222282
0.099326
0.223222
0.106056
0.224691
0.112971
0.226809
0.120045
0.229717
0.127242
0.233579
0.134504
0.238582
0.141755
0.244931
0.148889
0.252846
0.155768
0.262552
0.162216
0.274212
0.167983
0.287955
0.172873
0.176338
0.303377
0.238709
0.00584785
0.237751
0.0116299
0.236832
0.0171029
0.23595
0.0223622
0.235102
0.0274799
0.234292
0.0325147
0.233523
0.0375148
0.232803
0.0425204
0.232144
0.047565
0.23156
0.0526763
0.231069
0.0578772
0.230695
0.0631866
0.230465
0.0686199
0.230418
0.0741886
0.230593
0.0799007
0.231037
0.0857571
0.231811
0.0917541
0.232987
0.0978843
0.23465
0.104132
0.236893
0.110469
0.239826
0.116858
0.243574
0.123248
0.248271
0.129572
0.254062
0.135743
0.261096
0.141654
0.269514
0.147174
0.279431
0.15215
0.2909
0.156399
0.303945
0.159747
0.161868
0.318374
0.244506
0.00589771
0.243577
0.0117159
0.242716
0.0172156
0.24192
0.0224921
0.241187
0.0276164
0.240521
0.0326456
0.239926
0.0376255
0.239412
0.0425944
0.23899
0.0475829
0.238679
0.0526157
0.238497
0.0577122
0.238471
0.0628871
0.238631
0.0681511
0.239016
0.0735105
0.239668
0.0789662
0.240636
0.0845129
0.24198
0.09014
0.243769
0.0958313
0.246081
0.101562
0.249002
0.107297
0.252627
0.112991
0.257057
0.118586
0.262398
0.124012
0.268755
0.129184
0.276226
0.134001
0.284892
0.138351
0.294805
0.142107
0.305972
0.145131
0.31836
0.147287
0.148372
0.33182
0.250445
0.00591884
0.249547
0.0117443
0.248748
0.017243
0.248043
0.0225094
0.247431
0.027613
0.246914
0.0326085
0.246498
0.0375399
0.246194
0.0424425
0.246015
0.0473443
0.245978
0.0522667
0.246106
0.0572256
0.246426
0.0622318
0.246968
0.0672914
0.247772
0.0724056
0.24888
0.0775698
0.250341
0.0827735
0.252211
0.0880005
0.254553
0.0932282
0.257437
0.0984263
0.260936
0.103555
0.26513
0.108566
0.270097
0.113401
0.275914
0.117991
0.282654
0.122259
0.290375
0.126117
0.299115
0.12947
0.308887
0.132219
0.319665
0.134264
0.33138
0.135509
0.135822
0.343899
0.256529
0.00591005
0.255665
0.0117132
0.254931
0.0171824
0.254321
0.0224109
0.253832
0.0274661
0.253468
0.0324004
0.253235
0.0372552
0.253143
0.042063
0.253207
0.046849
0.253445
0.0516314
0.253878
0.0564226
0.254535
0.0612299
0.255447
0.0660551
0.25665
0.0708952
0.258187
0.0757413
0.260102
0.0805789
0.262446
0.0853876
0.265277
0.090141
0.268652
0.0948058
0.272632
0.099341
0.27728
0.103698
0.282653
0.107823
0.288804
0.111651
0.295778
0.115116
0.303603
0.118143
0.312287
0.120658
0.321816
0.122586
0.332144
0.123858
0.343189
0.124408
0.124148
0.354834
0.262762
0.00587041
0.261935
0.0116209
0.261267
0.0170319
0.260754
0.0221945
0.260392
0.0271739
0.260183
0.0320199
0.260133
0.036771
0.260254
0.041457
0.260558
0.0461001
0.261064
0.0507156
0.261795
0.0553128
0.262777
0.0598954
0.264039
0.064462
0.265616
0.0690062
0.267547
0.0735159
0.269873
0.0779737
0.272638
0.0823568
0.275889
0.0866372
0.279676
0.0907807
0.284044
0.0947476
0.289041
0.0984924
0.294705
0.101965
0.30107
0.105111
0.308157
0.107872
0.315972
0.110191
0.324504
0.11201
0.333721
0.113275
0.343568
0.11394
0.353961
0.113965
0.113286
0.364798
0.269147
0.00579929
0.268358
0.0114665
0.267759
0.0167904
0.267344
0.0218594
0.267109
0.0267362
0.267055
0.0314675
0.267188
0.0360891
0.267517
0.0406281
0.268057
0.0451038
0.268824
0.0495287
0.26984
0.0539092
0.271128
0.0582463
0.272718
0.0625361
0.27464
0.0667693
0.276928
0.070932
0.279618
0.0750051
0.282746
0.0789651
0.286353
0.0827836
0.290474
0.0864279
0.295145
0.0898607
0.300396
0.0930413
0.306252
0.095926
0.31273
0.098469
0.319832
0.100624
0.327551
0.102346
0.335863
0.103594
0.344724
0.104329
0.354076
0.104523
0.363842
0.104155
0.103179
0.373927
0.275688
0.00569637
0.274938
0.0112497
0.274409
0.0164578
0.274093
0.021406
0.273984
0.026154
0.274083
0.0307457
0.274395
0.0352137
0.274928
0.0395826
0.275694
0.043869
0.276711
0.0480829
0.277995
0.0522284
0.279571
0.0563043
0.281462
0.0603045
0.283696
0.0642182
0.286301
0.0680305
0.289307
0.0717218
0.292743
0.0752688
0.29664
0.0786446
0.301024
0.0818187
0.305919
0.084758
0.311342
0.0874271
0.317307
0.0897892
0.323814
0.0918075
0.330856
0.0934462
0.338415
0.0946718
0.346456
0.0954551
0.354935
0.0957725
0.363792
0.095608
0.372954
0.094952
0.0937738
0.38234
0.282388
0.00556164
0.281678
0.0109708
0.281219
0.0160349
0.281001
0.0208359
0.281016
0.0254301
0.281265
0.0298585
0.28175
0.0341508
0.282479
0.038329
0.283462
0.0424072
0.284713
0.0463933
0.286249
0.0502896
0.288088
0.054093
0.290252
0.0577964
0.292763
0.0613881
0.295644
0.0648527
0.298919
0.0681715
0.302609
0.0713223
0.306736
0.0742803
0.311318
0.0770186
0.316367
0.0795084
0.321892
0.0817201
0.327893
0.083624
0.334364
0.0851915
0.341288
0.0863958
0.348638
0.0872136
0.356378
0.0876259
0.36446
0.0876193
0.372827
0.0871871
0.381415
0.0863285
0.0850224
0.390149
0.289251
0.0053954
0.288581
0.0106306
0.288192
0.0155234
0.288069
0.0201516
0.288206
0.0245685
0.288599
0.0288117
0.289251
0.0329082
0.290166
0.0368775
0.291353
0.0407317
0.292822
0.0444769
0.294589
0.0481136
0.296667
0.0516381
0.299074
0.0550422
0.301827
0.0583143
0.304944
0.0614396
0.308442
0.0644003
0.312335
0.0671763
0.316637
0.0697458
0.321358
0.0720855
0.326501
0.0741714
0.332067
0.0759795
0.338048
0.0774869
0.34443
0.0786721
0.351191
0.0795163
0.3583
0.0800042
0.365718
0.080125
0.373399
0.0798729
0.381289
0.0792477
0.389331
0.0782545
0.0768793
0.397459
0.296281
0.00519823
0.295651
0.0102306
0.295329
0.0149256
0.2953
0.019357
0.295553
0.0235744
0.296085
0.0276124
0.296894
0.0314953
0.297984
0.0352402
0.299361
0.0388576
0.301031
0.0423518
0.303007
0.0457227
0.305298
0.0489656
0.307918
0.0520724
0.310879
0.0550319
0.314193
0.0578302
0.317871
0.0604513
0.32192
0.0628776
0.326348
0.0650903
0.331157
0.06707
0.336343
0.0687976
0.341901
0.0702542
0.347816
0.0714229
0.354069
0.0722884
0.360635
0.0728386
0.36748
0.0730646
0.374567
0.0729616
0.38185
0.0725293
0.389281
0.0717724
0.396807
0.0706994
0.0693013
0.404373
0.303481
0.00497099
0.302891
0.00977264
0.302634
0.0142448
0.302695
0.0184566
0.303059
0.0224541
0.303722
0.0262687
0.30468
0.0299224
0.305932
0.0334301
0.307482
0.0368006
0.309336
0.0400373
0.311498
0.0431393
0.313977
0.0461017
0.316781
0.0489167
0.319917
0.0515739
0.323392
0.054061
0.327209
0.0563639
0.331374
0.0584676
0.335884
0.0603565
0.340737
0.0620152
0.345925
0.0634287
0.351434
0.0645831
0.357248
0.0654665
0.363344
0.0660689
0.369693
0.0663833
0.376263
0.066406
0.383016
0.0661366
0.389911
0.0655788
0.396903
0.0647401
0.403945
0.0636313
0.062247
0.41099
0.310856
0.00471473
0.310304
0.00925908
0.310111
0.0134845
0.310256
0.0174555
0.310726
0.0212144
0.311511
0.0247896
0.312606
0.0282007
0.314008
0.0314607
0.315717
0.0345771
0.317734
0.0375526
0.320062
0.0403856
0.322704
0.0430715
0.325664
0.0456032
0.328944
0.0479714
0.332546
0.0501653
0.336469
0.0521731
0.340712
0.0539824
0.345268
0.0555808
0.35013
0.0569563
0.355284
0.058098
0.360715
0.058996
0.366402
0.0596427
0.37232
0.0600324
0.378441
0.0601622
0.384732
0.0600319
0.391157
0.0596446
0.397678
0.0590065
0.404254
0.0581269
0.410846
0.0570176
0.0556757
0.417409
0.318409
0.00443066
0.317895
0.00869248
0.317761
0.0126489
0.317987
0.0163594
0.318555
0.0198627
0.319455
0.0231845
0.320676
0.0263417
0.322214
0.029346
0.324066
0.0322035
0.326228
0.0349163
0.3287
0.0374828
0.331482
0.0398988
0.334572
0.0421579
0.337968
0.0442522
0.341668
0.0461724
0.345666
0.0479091
0.349957
0.0494524
0.354529
0.0507928
0.359371
0.0519215
0.364467
0.0528308
0.369797
0.0535144
0.37534
0.0539681
0.38107
0.0541896
0.386957
0.054179
0.392972
0.0539389
0.399079
0.0534745
0.405245
0.0527934
0.411433
0.051906
0.417607
0.0508243
0.0495473
0.42373
0.326145
0.0041201
0.325666
0.00807559
0.325589
0.0117421
0.32589
0.0151741
0.32655
0.0184069
0.327555
0.0214629
0.328892
0.0243571
0.330553
0.0270995
0.332531
0.0296954
0.334822
0.0321463
0.337419
0.0344508
0.340319
0.0366052
0.343516
0.038604
0.347004
0.0404405
0.350777
0.0421074
0.354825
0.0435972
0.359138
0.0449023
0.363703
0.0460158
0.368503
0.0469316
0.373522
0.0476448
0.378738
0.0481521
0.384127
0.0484518
0.389665
0.0485441
0.395321
0.0484313
0.401068
0.0481179
0.406874
0.0476102
0.412707
0.046917
0.418535
0.0460486
0.424326
0.0450169
0.043822
0.430049
0.334067
0.00378441
0.333622
0.00741118
0.333599
0.0107685
0.33397
0.0139057
0.334715
0.0168544
0.335815
0.0196341
0.337257
0.0222579
0.339029
0.0247341
0.34112
0.0270674
0.343522
0.0292589
0.346227
0.0313074
0.349226
0.0332097
0.35251
0.0349613
0.35607
0.0365569
0.359894
0.0379908
0.363972
0.0392572
0.368289
0.0403507
0.372829
0.0412665
0.377574
0.0420008
0.382505
0.042551
0.387599
0.0429159
0.392832
0.0430958
0.398179
0.0430927
0.403613
0.0429105
0.409107
0.0425545
0.41463
0.042032
0.420156
0.0413517
0.425654
0.0405238
0.431098
0.0395596
0.0384599
0.43646
0.342181
0.00342485
0.341768
0.00670188
0.341795
0.00973206
0.342231
0.0125597