/*--------------------------------*- C++ -*----------------------------------*\
| =========                 |                                                 |
| \\      /  F ield         | OpenFOAM: The Open Source CFD Toolbox           |
|  \\    /   O peration     | Version:  2006                                  |
|   \\  /    A nd           | Website:  www.openfoam.com                      |
|    \\/     M anipulation  |                                                 |
\*---------------------------------------------------------------------------*/
FoamFile
{
    version     2.0;
    format      ascii;
    class       volVectorField;
    location    "0.4";
    object      Stress;
}
// * * * * * * * * * * * * * * * * * * * * * * * * * * * * * * * * * * * * * //

dimensions      [1 -1 -2 0 0 0 0];


internalField   uniform (0 0 0);

boundaryField
{
    inlet
    {
        type            calculated;
        value           uniform (0 0 0);
    }
    outlet
    {
        type            calculated;
        value           uniform (0 0 0);
    }
    flap
    {
        type            calculated;
        value           nonuniform List<vector> 
33
(
(112.865 -5.92795 2.11509e-15)
(112.812 -10.5552 4.20335e-14)
(112.432 -13.608 3.91337e-14)
(111.723 -15.261 -1.05823e-13)
(110.672 -15.5999 -1.04608e-13)
(109.108 -15.1227 2.84935e-13)
(107.011 -13.8154 3.59133e-13)
(104.397 -11.6762 1.38472e-13)
(100.968 -9.42115 4.46256e-13)
(96.4443 -7.46382 3.82394e-13)
(90.5539 -5.65715 -6.11601e-13)
(82.5809 -4.36765 -9.39007e-13)
(71.5203 -3.24029 -2.33254e-13)
(54.8887 -2.18058 8.06401e-13)
(25.7485 -0.793131 7.02706e-13)
(6.10416 127.61 8.10609e-17)
(5.057 108.387 6.19078e-17)
(3.82533 87.5521 -6.5143e-17)
(58.6927 -3.38761 9.56038e-13)
(58.284 -5.79002 1.39374e-12)
(58.2079 -7.28328 4.51493e-13)
(58.8543 -8.10787 6.69989e-14)
(60.4269 -8.494 3.94499e-14)
(62.8233 -8.54159 -6.9678e-13)
(65.8345 -8.27631 -9.71957e-13)
(69.2584 -7.46382 -1.81642e-15)
(72.5093 -6.54581 2.84911e-13)
(75.1768 -5.62948 1.41164e-14)
(77.0083 -4.73535 4.71778e-13)
(77.7985 -4.08847 9.77883e-13)
(77.6228 -3.61417 6.26658e-13)
(76.55 -3.3109 1.35445e-13)
(74.7015 -3.19482 1.53083e-14)
)
;
    }
    upperWall
    {
        type            calculated;
        value           uniform (0 0 0);
    }
    lowerWall
    {
        type            calculated;
        value           uniform (0 0 0);
    }
    frontAndBack
    {
        type            empty;
    }
}


// ************************************************************************* //
