/*--------------------------------*- C++ -*----------------------------------*\
| =========                 |                                                 |
| \\      /  F ield         | OpenFOAM: The Open Source CFD Toolbox           |
|  \\    /   O peration     | Version:  5.x                                   |
|   \\  /    A nd           | Web:      www.OpenFOAM.org                      |
|    \\/     M anipulation  |                                                 |
\*---------------------------------------------------------------------------*/
FoamFile
{
    version     2.0;
    format      ascii;
    class       volVectorField;
    location    "0.4";
    object      Stress;
}
// * * * * * * * * * * * * * * * * * * * * * * * * * * * * * * * * * * * * * //

dimensions      [1 -1 -2 0 0 0 0];

internalField   uniform (0 0 0);

boundaryField
{
    inlet
    {
        type            calculated;
        value           uniform (0 0 0);
    }
    outlet
    {
        type            calculated;
        value           uniform (0 0 0);
    }
    flap
    {
        type            calculated;
        value           nonuniform List<vector> 
33
(
(111.602 -5.86978 8.71805e-17)
(111.557 -10.4502 7.33821e-17)
(111.185 -13.473 3.21732e-19)
(110.48 -15.1071 1.48065e-16)
(109.429 -15.438 8.18956e-17)
(107.866 -14.9601 4.40694e-19)
(105.772 -13.6605 -8.05595e-17)
(103.155 -11.5384 3.01419e-16)
(99.7223 -9.30259 8.02106e-17)
(95.1938 -7.3621 7.52316e-37)
(89.2992 -5.57179 6.08359e-17)
(81.3235 -4.29239 1.12271e-19)
(70.2575 -3.17278 5.3468e-20)
(53.6016 -2.11712 -1.17922e-21)
(24.4922 -0.732226 7.95176e-17)
(6.08347 127.361 5.99127e-17)
(5.00799 107.726 -8.02844e-17)
(3.83089 88.1703 1.43636e-16)
(60.9316 -3.52297 7.54644e-17)
(60.5187 -6.0209 -1.5466e-19)
(60.4238 -7.57252 -7.90262e-17)
(61.024 -8.41977 8.04076e-17)
(62.5269 -8.80186 2.13911e-19)
(64.8465 -8.82762 8.74947e-17)
(67.7824 -8.53003 -1.73399e-16)
(71.1407 -7.67314 1.06798e-19)
(74.351 -6.71645 -4.96282e-17)
(77.0142 -5.76977 2.17276e-16)
(78.88 -4.85192 1.88556e-21)
(79.7499 -4.19141 2.87865e-17)
(79.6905 -3.70976 8.2422e-17)
(78.7658 -3.40443 6.52039e-20)
(77.1105 -3.29149 8.37807e-17)
)
;
    }
    upperWall
    {
        type            calculated;
        value           uniform (0 0 0);
    }
    lowerWall
    {
        type            calculated;
        value           uniform (0 0 0);
    }
    frontAndBack
    {
        type            empty;
    }
}


// ************************************************************************* //
