/*--------------------------------*- C++ -*----------------------------------*\
| =========                 |                                                 |
| \\      /  F ield         | OpenFOAM: The Open Source CFD Toolbox           |
|  \\    /   O peration     | Version:  2006                                  |
|   \\  /    A nd           | Website:  www.openfoam.com                      |
|    \\/     M anipulation  |                                                 |
\*---------------------------------------------------------------------------*/
FoamFile
{
    version     2.0;
    format      ascii;
    class       volVectorField;
    location    "0.4";
    object      U;
}
// * * * * * * * * * * * * * * * * * * * * * * * * * * * * * * * * * * * * * //

dimensions      [0 1 -1 0 0 0 0];


internalField   nonuniform List<vector> 
2790
(
(9.94433 0.0198537 0)
(9.88031 0.0282138 -2.03836e-21)
(9.78668 0.0339036 2.07445e-21)
(9.67006 0.0397403 -4.27676e-21)
(9.53614 0.045802 5.45194e-21)
(9.38586 0.052023 -9.0842e-21)
(9.2184 0.0585187 9.27193e-21)
(9.03288 0.0654372 -2.41668e-21)
(8.8285 0.0729041 0)
(8.60431 0.0810326 2.61765e-21)
(8.35916 0.0899381 0)
(8.0917 0.0997414 0)
(7.80045 0.110568 -1.20506e-20)
(7.48383 0.122542 2.57335e-20)
(7.14025 0.135782 -1.29616e-20)
(6.76817 0.150384 -1.40903e-20)
(6.36629 0.166403 0)
(5.93376 0.18381 -3.28447e-20)
(5.47037 0.202466 3.4352e-20)
(4.97696 0.222054 7.47725e-20)
(4.4557 0.241998 0)
(3.91056 0.261373 -1.75135e-19)
(3.34767 0.278792 0)
(2.77572 0.292254 0)
(2.20629 0.29894 4.60641e-19)
(1.65431 0.294959 -9.8968e-19)
(1.1387 0.275135 -2.18164e-18)
(0.684635 0.23241 1.17167e-18)
(0.298035 0.164264 -5.68583e-18)
(0.12217 0.0654594 6.68091e-18)
(9.99891 0.0386346 9.96819e-22)
(9.98617 0.0582472 -2.02443e-21)
(9.94743 0.0729423 2.05337e-21)
(9.88508 0.0883344 -4.21976e-21)
(9.80342 0.104663 3.2089e-21)
(9.70344 0.121737 -1.11105e-20)
(9.58454 0.139775 1.59554e-20)
(9.44588 0.159102 -6.98839e-21)
(9.28668 0.180003 1.96607e-20)
(9.10602 0.202735 -2.25793e-20)
(8.90276 0.227559 -3.17806e-20)
(8.67556 0.254741 2.17418e-20)
(8.42291 0.284548 1.14961e-20)
(8.14321 0.317228 1.52458e-21)
(7.83477 0.35299 -2.68674e-20)
(7.49593 0.391964 0)
(7.12523 0.43414 5.64598e-20)
(6.72154 0.479285 0)
(6.28421 0.526862 1.27554e-19)
(5.81353 0.575907 -6.83623e-20)
(5.31096 0.624883 0)
(4.77938 0.671553 1.57529e-19)
(4.22348 0.712867 -1.37079e-18)
(3.64986 0.744868 1.82451e-18)
(3.06694 0.76259 3.99315e-19)
(2.48451 0.76003 -3.49465e-18)
(1.91256 0.730423 4.72638e-18)
(1.36131 0.666795 1.03769e-18)
(0.817371 0.567803 5.66839e-19)
(0.389253 0.422736 7.50899e-18)
(9.99598 0.0397139 9.91411e-22)
(9.98015 0.0683627 2.01368e-21)
(9.94315 0.093028 0)
(9.88515 0.118583 2.08865e-21)
(9.8091 0.145671 2.13726e-21)
(9.7161 0.174215 2.19739e-21)
(9.60583 0.204504 2.26029e-21)
(9.47765 0.236994 -6.99687e-21)
(9.33091 0.272124 4.81508e-21)
(9.16484 0.310315 -2.47104e-21)
(8.97849 0.352001 1.03647e-20)
(8.77068 0.39763 2.14944e-20)
(8.54008 0.447658 -3.11215e-22)
(8.28523 0.502522 -2.43017e-20)
(8.00454 0.562606 -7.53938e-20)
(7.69634 0.628178 1.53665e-19)
(7.35908 0.699309 -5.45365e-20)
(6.9913 0.775748 4.65206e-19)
(6.59178 0.856767 -1.09448e-18)
(6.15992 0.940988 -7.91131e-19)
(5.69586 1.02617 1.08586e-18)
(5.20062 1.10904 -1.18436e-18)
(4.67645 1.18509 1.24321e-18)
(4.12672 1.24861 -3.38191e-19)
(3.55584 1.2927 0)
(2.96864 1.30964 0)
(2.36901 1.29194 -8.59882e-19)
(1.76103 1.23424 9.37162e-19)
(1.12863 1.14138 -1.65588e-17)
(0.562601 1.01145 1.95796e-17)
(9.9944 0.0446551 -3.96906e-21)
(9.97631 0.0836499 -3.01782e-21)
(9.939 0.119329 -4.9455e-24)
(9.88207 0.155208 -1.04581e-21)
(9.80754 0.192512 -4.23843e-21)
(9.71646 0.231572 -2.16862e-21)
(9.60873 0.272837 -4.47112e-21)
(9.48385 0.316904 4.61907e-21)
(9.34134 0.364378 0)
(9.18061 0.415851 4.85276e-21)
(9.0009 0.471931 -5.25099e-21)
(8.80132 0.533247 -1.07423e-20)
(8.58081 0.600445 -2.20964e-20)
(8.33822 0.674169 4.58099e-20)
(8.07225 0.755012 -4.90297e-20)
(7.78154 0.843444 4.89414e-20)
(7.46471 0.939727 -3.21878e-19)
(7.12035 1.04377 9.96699e-19)
(6.7471 1.15491 -6.93392e-19)
(6.34384 1.27172 -7.49431e-19)
(5.90971 1.39171 2.08528e-18)
(5.44422 1.51113 1.1408e-18)
(4.94736 1.62476 -2.33227e-18)
(4.41954 1.72586 -2.53692e-18)
(3.86162 1.8064 2.67811e-18)
(3.27448 1.85754 -7.23783e-19)
(2.65822 1.8709 -5.55721e-18)
(2.01521 1.84065 5.13904e-18)
(1.33265 1.77122 1.51818e-17)
(0.685122 1.65804 -1.7441e-17)
(9.99365 0.0510429 1.98051e-21)
(9.97431 0.0987947 -1.00214e-21)
(9.93675 0.143989 -4.96837e-24)
(9.88075 0.189201 3.08333e-21)
(9.80776 0.235988 4.21205e-21)
(9.71861 0.28503 2.15194e-21)
(9.61327 0.336903 -6.64655e-21)
(9.49134 0.392283 2.26695e-21)
(9.35238 0.451874 -9.38358e-21)
(9.19586 0.516377 -2.9109e-20)
(9.02116 0.586514 0)
(8.82754 0.663033 -2.07575e-20)
(8.61409 0.74671 0)
(8.37984 0.838335 -1.80894e-19)
(8.12375 0.938661 9.26881e-20)
(7.84467 1.04833 -9.73054e-20)
(7.5414 1.16781 2.09392e-19)
(7.21266 1.29721 -3.10306e-19)
(6.85712 1.43609 -2.18221e-19)
(6.47336 1.58321 -2.34346e-19)
(6.0599 1.73622 0)
(5.61517 1.89142 -2.11928e-18)
(5.1375 2.04345 2.19952e-18)
(4.6251 2.18527 -4.75963e-18)
(4.07609 2.30826 4.99605e-18)
(3.48857 2.40269 6.7909e-19)
(2.86044 2.45877 -7.32888e-19)
(2.19385 2.46831 7.96985e-19)
(1.48115 2.43117 1.30911e-17)
(0.781127 2.33553 -1.55205e-17)
(9.99333 0.0580803 4.42166e-21)
(9.97344 0.11401 -4.97401e-22)
(9.93602 0.168252 0)
(9.88117 0.222729 -4.11807e-21)
(9.81005 0.278999 0)
(9.72326 0.337941 -2.15736e-21)
(9.62077 0.400245 1.09956e-20)
(9.50224 0.466662 9.0028e-21)
(9.36727 0.537983 5.26103e-23)
(9.21539 0.615016 1.9206e-20)
(9.04603 0.69859 0)
(8.85852 0.789573 1.51441e-22)
(8.65203 0.888868 -8.56486e-20)
(8.42571 0.997397 1.74929e-19)
(8.17858 1.11606 0)
(7.90961 1.24568 9.55021e-20)
(7.61766 1.38691 9.95377e-20)
(7.30148 1.54012 2.07777e-19)
(6.95967 1.70518 0)
(6.59058 1.8812 -6.85963e-19)
(6.19225 2.06624 9.37035e-19)
(5.76233 2.25695 -4.93102e-19)
(5.29792 2.44833 2.11517e-18)
(4.79562 2.63345 -1.64682e-18)
(4.25157 2.80342 -5.82166e-19)
(3.66191 2.94757 0)
(3.02327 3.05393 0)
(2.33789 3.11051 -7.23463e-19)
(1.60414 3.10995 -1.16253e-17)
(0.864382 3.03042 2.94207e-17)
(9.99324 0.0653759 4.72401e-22)
(9.9733 0.129186 -4.94668e-22)
(9.93641 0.192011 4.00474e-21)
(9.88298 0.255391 2.02223e-21)
(9.81402 0.320792 2.07175e-21)
(9.72999 0.389234 0)
(9.63082 0.461535 1.09456e-21)
(9.51624 0.538536 -1.1621e-21)
(9.38589 0.621119 9.19302e-21)
(9.23934 0.710185 9.51291e-21)
(9.07606 0.806666 -9.63906e-21)
(8.8954 0.911533 1.72542e-22)
(8.69662 1.0258 0)
(8.47887 1.15052 -4.31272e-20)
(8.24125 1.28673 0)
(7.98272 1.43543 -1.86506e-19)
(7.70208 1.59747 9.44604e-20)
(7.398 1.77352 4.026e-19)
(7.06894 1.96382 -6.1557e-19)
(6.71296 2.16795 -6.58666e-19)
(6.32768 2.38456 -9.28261e-19)
(5.91001 2.61095 2.34077e-18)
(5.45608 2.84276 0)
(4.96114 3.07354 -5.23626e-19)
(4.41978 3.2944 5.52809e-19)
(3.82649 3.49358 -4.67798e-18)
(3.17688 3.65637 4.32725e-18)
(2.47292 3.76585 1.54336e-20)
(1.71844 3.80547 -1.21307e-17)
(0.941715 3.73702 1.25413e-17)
(9.99329 0.0727024 -3.9066e-21)
(9.97364 0.144148 9.85804e-22)
(9.93764 0.215124 -3.99213e-21)
(9.8859 0.287003 1.00181e-21)
(9.81941 0.361169 6.16875e-21)
(9.73851 0.438733 0)
(9.64314 0.520625 0)
(9.53305 0.607775 -8.83695e-21)
(9.40794 0.701141 1.79979e-20)
(9.26741 0.801715 -1.84815e-20)
(9.11097 0.910521 -1.90032e-20)
(8.93802 1.02863 -3.95014e-20)
(8.74786 1.15717 -4.16954e-20)
(8.53967 1.29732 -1.60997e-21)
(8.31256 1.45026 8.56501e-20)
(8.06549 1.6172 8.87558e-20)
(7.79713 1.79923 9.31901e-20)
(7.50605 1.99731 3.87164e-19)
(7.19048 2.21214 -1.92974e-19)
(6.84818 2.44386 -2.07848e-19)
(6.47632 2.69185 -1.72689e-18)
(6.07112 2.95431 1.76275e-18)
(5.62772 3.22781 4.57365e-19)
(5.14011 3.50669 0)
(4.60129 3.78233 -4.08987e-18)
(4.00403 4.04205 4.73368e-19)
(3.3424 4.26823 5.10961e-18)
(2.61665 4.43821 6.21133e-19)
(1.83252 4.52557 0)
(1.01444 4.46878 1.20147e-17)
(9.99343 0.0799161 0)
(9.97433 0.158737 4.3882e-21)
(9.93951 0.237464 -4.43977e-21)
(9.88974 0.317425 -4.02787e-21)
(9.82601 0.399956 -8.19453e-21)
(9.74862 0.486224 8.29692e-21)
(9.65748 0.577253 1.06896e-21)
(9.55239 0.674054 -1.08e-21)
(9.43309 0.777663 -1.4913e-22)
(9.29924 0.889149 3.64956e-20)
(9.15039 1.00963 1.88258e-20)
(8.98599 1.14027 3.84993e-20)
(8.8054 1.28232 0)
(8.60782 1.43706 0)
(8.39238 1.60586 0)
(8.15801 1.79014 -8.72047e-20)
(7.90336 1.99126 -3.60392e-19)
(7.62686 2.21054 7.36451e-19)
(7.32653 2.44914 5.78263e-19)
(6.99984 2.7079 -7.77225e-19)
(6.6435 2.98709 -1.99916e-19)
(6.25302 3.28598 0)
(5.82258 3.60239 -8.65859e-19)
(5.34488 3.93189 0)
(4.81115 4.26664 -3.76891e-18)
(4.21177 4.5936 3.40383e-18)
(3.53795 4.89268 4.16605e-18)
(2.78648 5.13522 3.07653e-20)
(1.96055 5.285 -4.89439e-18)
(1.08869 5.2526 -2.67215e-21)
(9.99364 0.0869191 0)
(9.97528 0.172823 -3.89381e-21)
(9.94189 0.258904 7.85219e-21)
(9.89436 0.346515 -8.93401e-21)
(9.83368 0.436974 1.00767e-21)
(9.76012 0.531488 -6.04492e-23)
(9.67361 0.631157 8.36001e-21)
(9.57399 0.737066 0)
(9.46104 0.850321 -3.55919e-20)
(9.33448 0.972067 -3.53055e-20)
(9.19391 1.1035 -1.82687e-20)
(9.03887 1.24589 -1.89468e-20)
(8.86874 1.40058 7.7374e-20)
(8.68281 1.569 -8.00185e-20)
(8.48023 1.75268 4.03967e-20)
(8.25994 1.95325 0)
(8.02062 2.17239 0)
(7.76063 2.4118 0)
(7.47784 2.67318 -3.62536e-19)
(7.16951 2.95814 0)
(6.83194 3.26797 9.64134e-19)
(6.46007 3.60326 -7.79902e-19)
(6.04723 3.96343 2.03408e-18)
(5.58479 4.34586 -1.65223e-18)
(5.06181 4.74439 3.44833e-18)
(4.46537 5.14682 2.87559e-20)
(3.78197 5.5319 -7.24506e-18)
(3.0027 5.86559 4.20345e-18)
(2.12301 6.10118 -4.17544e-18)
(1.1769 6.11761 4.77557e-18)
(9.9939 0.0936404 4.04852e-21)
(9.97642 0.186298 3.59881e-21)
(9.94469 0.279329 -3.90662e-21)
(9.89963 0.374142 7.91547e-21)
(9.84226 0.472061 0)
(9.77284 0.574327 -8.17012e-21)
(9.69133 0.682102 -1.04031e-20)
(9.5976 0.796534 1.0507e-20)
(9.49149 0.918794 1.73248e-20)
(9.37278 1.05009 1.77054e-20)
(9.24115 1.19171 1.81093e-20)
(9.09618 1.34498 -3.68521e-20)
(8.93737 1.51137 -1.92468e-20)
(8.76408 1.69243 -3.82592e-20)
(8.57552 1.88985 6.31029e-22)
(8.37071 2.10549 -1.62969e-19)
(8.1484 2.34133 -2.53795e-21)
(7.90697 2.59949 5.08766e-19)
(7.64429 2.88226 -1.68301e-19)
(7.35753 3.19205 0)
(7.04281 3.53129 1.77259e-19)
(6.69479 3.90213 0)
(6.30614 4.30601 0)
(5.86697 4.74285 1.53208e-18)
(5.36399 5.20948 -1.74658e-18)
(4.78017 5.6966 -1.94615e-19)
(4.09504 6.18449 -3.33633e-18)
(3.29008 6.63612 3.16352e-18)
(2.34424 6.99407 3.69637e-18)
(1.29323 7.0991 -2.00769e-22)
(9.9942 0.100026 -3.57009e-21)
(9.97772 0.199071 -4.55234e-21)
(9.94782 0.298632 4.81692e-22)
(9.90546 0.400184 0)
(9.85163 0.505072 -5.89863e-21)
(9.78664 0.614566 -4.02193e-21)
(9.71045 0.729878 2.03479e-21)
(9.62298 0.85221 -8.30142e-23)
(9.52415 0.98279 4.26434e-21)
(9.41379 1.12289 -6.47114e-21)
(9.29166 1.27383 2.19071e-21)
(9.15744 1.43706 1.35894e-20)
(9.01073 1.61411 -1.36622e-20)
(8.85098 1.80666 3.78034e-20)
(8.67754 2.01655 3.78932e-20)
(8.48955 2.24584 0)
(8.28589 2.49681 1.60077e-19)
(8.0651 2.77198 -3.2374e-19)
(7.82519 3.07422 1.63604e-19)
(7.56347 3.40679 0)
(7.2762 3.77328 -1.721e-19)
(6.95811 4.17758 5.19098e-19)
(6.60171 4.62353 -1.21374e-18)
(6.19632 5.11447 8.66931e-19)
(5.72676 5.6518 3.51506e-19)
(5.17172 6.2321 -1.23619e-18)
(4.50178 6.84206 1.44198e-18)
(3.68341 7.44798 9.75644e-20)
(2.6668 7.98547 0)
(1.46715 8.24959 3.4821e-18)
(9.99453 0.106034 -1.17699e-22)
(9.97915 0.21107 1.18357e-22)
(9.95124 0.316722 0)
(9.91174 0.424534 -9.69408e-22)
(9.86167 0.535876 8.83936e-21)
(9.80134 0.652047 -1.99355e-21)
(9.73076 0.774297 2.00733e-21)
(9.64989 0.903873 -1.23536e-20)
(9.55871 1.04205 8.33521e-21)
(9.45713 1.19013 -4.21712e-21)
(9.34501 1.34952 0)
(9.22213 1.52171 1.74417e-20)
(9.08819 1.70829 1.80366e-20)
(8.9428 1.91107 1.80406e-20)
(8.78546 2.132 -3.73958e-20)
(8.6155 2.37332 3.78496e-20)
(8.43202 2.63756 -3.79773e-20)
(8.23382 2.92762 7.77618e-20)
(8.01925 3.2469 -7.79084e-20)
(7.78602 3.5994 -8.07601e-20)
(7.53089 3.98988 3.98816e-19)
(7.24917 4.42394 -3.11525e-19)
(6.93398 4.90809 -1.62998e-19)
(6.57502 5.44969 -1.62903e-19)
(6.15663 6.05636 -1.62465e-19)
(5.65475 6.73415 1.49437e-19)
(5.03119 7.48357 -1.62135e-19)
(4.23219 8.28838 0)
(3.15835 9.0966 1.26046e-18)
(1.75119 9.66422 -1.3817e-18)
(9.99488 0.111632 0)
(9.98067 0.222235 3.73985e-21)
(9.95487 0.333523 7.06642e-21)
(9.9184 0.447099 4.77154e-22)
(9.87227 0.564364 1.94135e-21)
(9.81681 0.686641 -1.9534e-21)
(9.75207 0.815209 -3.99107e-21)
(9.67808 0.951349 1.20335e-20)
(9.59487 1.09636 0)
(9.50244 1.25161 -8.25954e-21)
(9.40074 1.4185 8.49293e-21)
(9.28968 1.59858 -6.45078e-23)
(9.16909 1.79352 -2.5964e-20)
(9.03874 2.00516 -9.09073e-21)
(8.89834 2.23558 0)
(8.74743 2.48713 0)
(8.58545 2.76255 0)
(8.41155 3.06501 3.87668e-20)
(8.22459 3.39833 -2.31768e-21)
(8.02295 3.76713 -3.85711e-20)
(7.80426 4.17714 3.87379e-20)
(7.56506 4.63547 1.51384e-19)
(7.30008 5.15111 -7.41627e-20)
(7.0011 5.73549 1.47554e-19)
(6.65486 6.40323 -1.41254e-19)
(6.23913 7.17266 -5.87846e-21)
(5.71337 8.06651 -2.63785e-19)
(5.00748 9.10943 -1.10336e-19)
(3.95096 10.3237 0)
(2.26757 11.5595 0)
(9.99525 0.116795 7.23093e-24)
(9.98227 0.232519 -3.74372e-21)
(9.95868 0.348966 -7.29537e-21)
(9.92537 0.467793 7.29535e-21)
(9.88332 0.590426 -7.60927e-21)
(9.8329 0.718207 0)
(9.77419 0.852435 -3.93165e-21)
(9.7073 0.994415 3.85843e-21)
(9.63231 1.14547 0)
(9.54932 1.30698 -8.17231e-21)
(9.45838 1.48038 1.64547e-20)
(9.35952 1.66724 8.3833e-21)
(9.25273 1.86925 -1.6728e-20)
(9.13795 2.0883 2.57988e-20)
(9.01512 2.32652 2.77788e-22)
(8.88409 2.58634 -1.0502e-19)
(8.74461 2.87059 -4.00345e-22)
(8.59635 3.18265 1.05409e-19)
(8.43878 3.52655 1.04465e-22)
(8.27115 3.90733 -7.04268e-20)
(8.09234 4.33131 3.41538e-20)
(7.90066 4.80664 0)
(7.69348 5.34405 -2.01675e-19)
(7.46664 5.95808 3.90545e-19)
(7.21314 6.66909 0)
(6.92082 7.50681 2.31893e-19)
(6.5648 8.51787 -1.56481e-19)
(6.09736 9.78381 -2.59486e-20)
(5.33304 11.4981 5.03656e-20)
(3.36352 14.4537 -3.60123e-19)
(-0.0828494 0.185846 -2.07829e-18)
(-0.62031 0.39208 2.44644e-18)
(-1.42951 0.478643 -1.674e-18)
(-2.34901 0.509686 1.25686e-18)
(-3.32714 0.514317 4.98188e-19)
(-4.33362 0.504848 -4.53525e-19)
(-5.34769 0.486487 -4.79762e-19)
(-6.35371 0.461574 3.27761e-19)
(-7.33828 0.431221 2.42221e-19)
(-8.28828 0.395942 -2.26779e-19)
(-9.18992 0.355983 1.20665e-19)
(-10.0281 0.311474 0)
(-10.7859 0.262524 -1.59874e-20)
(-11.4451 0.209294 -4.85097e-20)
(-11.9858 0.152085 -3.14152e-20)
(-12.3879 0.0912516 0)
(-12.6307 0.0271338 1.57401e-20)
(-12.6947 -0.0400728 0)
(-12.5639 -0.110518 -2.08095e-20)
(-12.228 -0.181329 -4.63692e-21)
(-11.6843 -0.249577 3.78364e-20)
(-10.9378 -0.313204 -1.6543e-21)
(-9.99924 -0.370809 -1.90413e-20)
(-8.88386 -0.421729 8.9912e-21)
(-7.60902 -0.466231 0)
(-6.19059 -0.506369 0)
(-4.63896 -0.549385 5.36089e-22)
(-2.96969 -0.613757 -5.78179e-22)
(-1.19026 -0.719656 4.67939e-23)
(2.09708 -0.966006 -1.55513e-23)
(-0.261279 0.624405 -6.32984e-19)
(-0.890065 0.929507 0)
(-1.72874 1.0893 -3.03158e-21)
(-2.64137 1.17948 -2.27859e-19)
(-3.60266 1.22597 -1.36192e-18)
(-4.58874 1.24207 3.14532e-19)
(-5.58098 1.23455 2.95506e-18)
(-6.56444 1.20693 -7.18025e-19)
(-7.52568 1.16097 0)
(-8.45142 1.09739 0)
(-9.32765 1.01634 -1.14452e-19)
(-10.1389 0.9177 0)
(-10.868 0.801356 -1.24293e-19)
(-11.4961 0.667532 5.73131e-20)
(-12.003 0.517044 3.12628e-20)
(-12.3679 0.351504 3.17305e-20)
(-12.5701 0.173268 -1.5361e-20)
(-12.59 -0.0146163 -7.5637e-21)
(-12.4164 -0.207259 -1.39444e-20)
(-12.0446 -0.395631 7.08383e-21)
(-11.4722 -0.573011 0)
(-10.7042 -0.734636 0)
(-9.75098 -0.877355 -8.66213e-21)
(-8.62709 -0.999752 9.25349e-21)
(-7.34949 -1.10266 0)
(-5.93463 -1.1909 -1.81051e-21)
(-4.39492 -1.28001 1.36627e-21)
(-2.74365 -1.40898 7.85081e-22)
(-1.00956 -1.63189 -1.11142e-22)
(1.792 -2.01051 6.68759e-24)
(-0.280779 1.31435 9.18057e-18)
(-0.943858 1.66282 -4.03266e-18)
(-1.80073 1.86235 4.02376e-18)
(-2.68926 1.98307 3.49858e-18)
(-3.60933 2.04533 -3.20196e-18)
(-4.54553 2.06218 -4.03338e-19)
(-5.48439 2.04146 -4.05025e-19)
(-6.41407 1.98779 -2.15419e-18)
(-7.32295 1.90365 1.63765e-18)
(-8.19904 1.79014 2.22698e-19)
(-9.02919 1.64752 2.30217e-19)
(-9.79852 1.47565 -2.47408e-19)
(-10.4901 1.27443 3.47624e-19)
(-11.0848 1.04439 3.78715e-19)
(-11.5625 0.787139 -1.21304e-19)
(-11.9017 0.505926 -1.30303e-19)
(-12.0813 0.205849 3.18246e-20)
(-12.0811 -0.106092 -3.13192e-20)
(-11.8923 -0.421717 1.54559e-21)
(-11.5096 -0.729379 5.62697e-20)
(-10.9321 -1.01835 0)
(-10.1661 -1.28073 -2.54303e-21)
(-9.2223 -1.51111 2.57119e-21)
(-8.11555 -1.70667 -4.79049e-22)
(-6.86334 -1.86825 7.83645e-22)
(-5.48434 -2.00269 2.29791e-22)
(-3.99608 -2.13035 -1.02155e-21)
(-2.41208 -2.2992 -1.92564e-22)
(-0.795649 -2.57805 7.02018e-23)
(1.56352 -3.00154 0)
(-0.219403 2.10438 -8.46023e-18)
(-0.873256 2.45032 4.73578e-19)
(-1.73168 2.65075 0)
(-2.58305 2.77457 3.37731e-18)
(-3.45078 2.83568 -3.52134e-18)
(-4.32674 2.84459 -4.07034e-19)
(-5.20336 2.80816 4.11458e-19)
(-6.07255 2.73061 -1.73561e-18)
(-6.92518 2.614 1.20504e-18)
(-7.75079 2.45892 -6.88005e-19)
(-8.53699 2.26495 6.57154e-19)
(-9.26902 2.03119 -7.28851e-19)
(-9.92945 1.7568 1.11238e-18)
(-10.4983 1.44176 -5.00371e-19)
(-10.9538 1.08755 -1.30751e-19)
(-11.2729 0.698104 0)
(-11.4329 0.28041 2.04888e-19)
(-11.4122 -0.1554 -1.37477e-19)
(-11.2073 -0.5952 -3.19757e-20)
(-10.8144 -1.02123 -1.30235e-21)
(-10.2348 -1.41967 -2.69033e-20)
(-9.47575 -1.7805 8.06302e-21)
(-8.54853 -2.09669 -7.39495e-21)
(-7.46797 -2.3641 3.21266e-21)
(-6.25214 -2.58336 -2.35836e-21)
(-4.9223 -2.76259 -5.97197e-23)
(-3.50207 -2.92441 8.82814e-22)
(-2.0001 -3.11651 -7.97492e-23)
(-0.523055 -3.40685 2.33588e-22)
(1.45787 -3.79659 4.95668e-24)
(-0.119773 2.93531 7.72569e-18)
(-0.732988 3.24668 1.58194e-20)
(-1.56827 3.4231 0)
(-2.36537 3.53294 -4.15008e-19)
(-3.17008 3.58279 0)
(-3.97824 3.57917 -1.52271e-20)
(-4.78707 3.52632 1.50931e-20)
(-5.59153 3.42656 4.12421e-19)
(-6.38464 3.28047 -1.49744e-20)
(-7.1571 3.08718 -4.44568e-19)
(-7.89697 2.84484 -9.76703e-19)
(-8.58934 2.55119 1.45828e-18)
(-9.21614 2.20435 -4.97969e-19)
(-9.75636 1.80374 0)
(-10.1866 1.3512 0)
(-10.4825 0.852344 0)
(-10.6196 0.31777 0)
(-10.5759 -0.237407 1.42858e-19)
(-10.355 -0.794364 -3.24229e-20)
(-9.95415 -1.33069 2.8099e-20)
(-9.37716 -1.82992 -2.79527e-20)
(-8.63261 -2.28065 1.09949e-22)
(-7.73148 -2.67465 0)
(-6.6883 -3.00624 -9.93155e-22)
(-5.52145 -3.27551 1.90956e-21)
(-4.25452 -3.4907 -3.55781e-22)
(-2.91714 -3.67502 0)
(-1.51031 -3.86938 5.98815e-24)
(-0.185082 -4.13336 -2.25135e-22)
(1.4811 -4.44938 -3.46436e-23)
(-0.00291661 3.75192 -7.45929e-18)
(-0.550891 4.01617 -7.39047e-18)
(-1.33714 4.1583 6.62799e-18)
(-2.06138 4.24642 4.0247e-19)
(-2.79108 4.28023 4.1667e-19)
(-3.52238 4.2624 3.81028e-18)
(-4.25603 4.19407 -3.65046e-18)
(-4.98912 4.07497 0)
(-5.71627 3.90363 4.40614e-19)
(-6.42919 3.67724 9.72502e-19)
(-7.11638 3.39209 -1.95947e-18)
(-7.76297 3.04425 7.30949e-19)
(-8.35052 2.63046 -5.53655e-19)
(-8.85724 2.14923 5.50646e-19)
(-9.25841 1.60228 -1.50496e-19)
(-9.52765 0.996525 1.56902e-19)
(-9.63891 0.346382 0)
(-9.56975 -0.326775 -7.55269e-20)
(-9.33332 -0.997579 -6.81297e-20)
(-8.92767 -1.63831 8.09314e-20)
(-8.35989 -2.23119 0)
(-7.63913 -2.76476 -4.33408e-22)
(-6.77529 -3.23026 -4.26602e-21)
(-5.78195 -3.62011 0)
(-4.67725 -3.93342 3.45419e-21)
(-3.48667 -4.17723 0)
(-2.24386 -4.37356 0)
(-0.943618 -4.55097 0)
(0.219746 -4.76673 6.07114e-22)
(1.62998 -4.99197 2.958e-23)
(0.118121 4.5126 1.21237e-19)
(-0.344066 4.72478 -4.43446e-19)
(-1.05569 4.8314 0)
(-1.68809 4.89695 0)
(-2.3295 4.91471 -3.46014e-18)
(-2.97299 4.88393 3.30728e-18)
(-3.62178 4.80283 0)
(-4.27444 4.66836 0)
(-4.92673 4.47654 0)
(-5.57133 4.22234 0)
(-6.19739 3.89983 0)
(-6.79033 3.50303 2.66838e-19)
(-7.33172 3.02694 -2.9661e-19)
(-7.79933 2.46884 5.88374e-19)
(-8.1672 1.8301 3.18543e-19)
(-8.40639 1.11912 -3.35323e-19)
(-8.48811 0.355465 -8.95668e-20)
(-8.39044 -0.430924 0)
(-8.14051 -1.20834 -7.34504e-20)
(-7.73523 -1.94391 3.74521e-20)
(-7.18524 -2.62032 3.11349e-20)
(-6.49943 -3.22758 9.11585e-21)
(-5.68536 -3.75717 -9.36885e-21)
(-4.75526 -4.19875 1.14579e-20)
(-3.72576 -4.55011 -5.41993e-21)
(-2.62454 -4.8156 0)
(-1.48356 -5.01414 -4.91629e-23)
(-0.303715 -5.16092 4.8957e-23)
(0.689927 -5.3119 -5.67579e-22)
(1.8969 -5.44755 -2.69743e-24)
(0.231051 5.17499 3.65858e-18)
(-0.127653 5.34013 -3.34431e-18)
(-0.736756 5.41703 -2.24925e-19)
(-1.25837 5.46435 3.59583e-18)
(-1.79752 5.47004 -3.86053e-18)
(-2.34104 5.43044 0)
(-2.89389 5.34101 1.90583e-18)
(-3.45543 5.19629 -2.31853e-18)
(-4.02229 4.98967 0)
(-4.58811 4.71378 -1.08031e-18)
(-5.14293 4.36033 1.05663e-18)
(-5.67295 3.92109 0)
(-6.16025 3.389 3.28996e-19)
(-6.5827 2.75972 3.03641e-20)
(-6.91325 2.03398 -1.20245e-18)
(-7.11944 1.22146 7.2913e-19)
(-7.16797 0.347436 -2.95475e-19)
(-7.03983 -0.548349 -3.22603e-21)
(-6.78023 -1.42364 -8.39873e-20)
(-6.38243 -2.2424 0)
(-5.8606 -2.99052 -2.31389e-20)
(-5.22212 -3.66132 1.44863e-20)
(-4.47064 -4.24734 -2.80383e-21)
(-3.61744 -4.73459 -4.58268e-21)
(-2.67532 -5.11847 0)
(-1.67581 -5.39908 2.936e-21)
(-0.641214 -5.58962 1.05432e-22)
(0.379824 -5.6957 -1.02076e-22)
(1.24857 -5.78189 6.81408e-22)
(2.27035 -5.83144 0)
(0.333585 5.6946 7.37764e-20)
(0.0951311 5.83266 -3.75438e-18)
(-0.388343 5.89203 3.83212e-18)
(-0.782993 5.92952 0)
(-1.20665 5.92989 0)
(-1.63779 5.8878 -2.39883e-19)
(-2.08314 5.79611 -2.26687e-18)
(-2.54213 5.64728 4.55048e-18)
(-3.01218 5.43242 -4.23582e-18)
(-3.48781 5.14181 1.86123e-18)
(-3.96018 4.76478 -2.98066e-19)
(-4.41674 4.29074 3.16604e-19)
(-4.84086 3.71011 0)
(-5.21108 3.01647 -3.6154e-19)
(-5.49913 2.20932 0)
(-5.66765 1.29949 -3.91644e-21)
(-5.67801 0.318398 2.22596e-19)
(-5.52469 -0.678114 1.04006e-19)
(-5.26172 -1.64001 1.36011e-19)
(-4.88117 -2.52755 -2.88684e-21)
(-4.39947 -3.33418 -2.73986e-20)
(-3.82111 -4.05813 -1.85427e-21)
(-3.14433 -4.69299 -6.20889e-21)
(-2.38102 -5.22023 -1.12565e-21)
(-1.53691 -5.63183 1.10996e-21)
(-0.649073 -5.92056 -2.93254e-21)
(0.261982 -6.09304 0)
(1.1194 -6.15826 0)
(1.88674 -6.18747 5.82601e-23)
(2.73789 -6.1535 0)
(0.427586 6.04934 -3.95791e-18)
(0.325214 6.18208 -9.01204e-20)
(-0.0169861 6.23834 3.75906e-18)
(-0.272343 6.27631 0)
(-0.569426 6.27951 -2.01776e-18)
(-0.876738 6.24236 4.0238e-18)
(-1.20357 6.15544 -1.75573e-18)
(-1.54885 6.00944 0)
(-1.91067 5.7936 1.17995e-18)
(-2.28446 5.49601 -8.59156e-19)
(-2.66241 5.10353 -7.33789e-21)
(-3.03386 4.60371 -1.37997e-18)
(-3.38452 3.9839 7.06449e-19)
(-3.69497 3.23486 5.87214e-19)
(-3.9365 2.3542 -2.16804e-19)
(-4.06499 1.35338 2.25471e-19)
(-4.03199 0.271807 1.30487e-19)
(-3.8529 -0.818444 -1.1329e-19)
(-3.60004 -1.85156 4.85355e-20)
(-3.25031 -2.79029 -2.27868e-20)
(-2.82231 -3.64206 0)
(-2.31642 -4.41021 -5.41127e-21)
(-1.72473 -5.08841 2.00304e-20)
(-1.06096 -5.65009 1.20111e-21)
(-0.324737 -6.08454 -9.63899e-21)
(0.440549 -6.37261 -6.23353e-21)
(1.19613 -6.5214 -1.08589e-22)
(1.9349 -6.55667 3.94604e-23)
(2.59541 -6.53273 1.09161e-22)
(3.28687 -6.4201 0)
(0.513805 6.22799 4.00942e-18)
(0.561903 6.37812 -3.87486e-18)
(0.370194 6.44553 -4.05538e-18)
(0.262512 6.49301 3.97577e-18)
(0.0999729 6.50763 0)
(-0.0740212 6.48332 5.3528e-19)
(-0.273116 6.40848 -2.80326e-19)
(-0.495068 6.27223 0)
(-0.738426 6.06219 1.27571e-18)
(-0.999534 5.76482 9.73091e-20)
(-1.2707 5.36538 -2.0637e-18)
(-1.54367 4.84927 1.08919e-18)
(-1.80756 4.19959 -4.14575e-19)
(-2.04656 3.40283 -1.10961e-20)
(-2.23316 2.4541 -2.39568e-19)
(-2.31292 1.36853 6.73887e-19)
(-2.22972 0.204274 -3.00903e-19)
(-2.04222 -0.965653 6.40951e-20)
(-1.81571 -2.0502 -2.88437e-20)
(-1.51523 -3.02187 -6.7267e-22)
(-1.15651 -3.90669 -2.36676e-20)
(-0.733973 -4.71111 1.25305e-20)
(-0.2359 -5.4299 3.47588e-21)
(0.325812 -6.02312 0)
(0.92726 -6.46308 1.77768e-22)
(1.55822 -6.7486 5.38689e-21)
(2.19671 -6.88554 -1.074e-22)
(2.81346 -6.8935 -2.58405e-21)
(3.36415 -6.81866 -6.87048e-22)
(3.90351 -6.63487 0)
(0.597539 6.23321 -4.00871e-18)
(0.803834 6.41841 3.93018e-18)
(0.766494 6.5075 0)
(0.806751 6.57127 0)
(0.785438 6.6055 0)
(0.750675 6.60225 -2.75064e-19)
(0.68566 6.54804 -1.96974e-21)
(0.593965 6.43047 3.06709e-19)
(0.477127 6.2362 6.79507e-19)
(0.338161 5.95106 5.28688e-20)
(0.183562 5.55199 -3.56053e-19)
(0.0212357 5.03137 0)
(-0.142357 4.36726 0)
(-0.298905 3.5453 2.47225e-19)
(-0.425082 2.55776 -2.82679e-19)
(-0.436772 1.4091 1.56663e-19)
(-0.256972 0.158388 9.30767e-20)
(-0.122927 -1.08549 -7.63758e-20)
(0.0598007 -2.21856 -4.61673e-20)
(0.290831 -3.21989 3.8193e-21)
(0.565544 -4.13018 7.96805e-21)
(0.896479 -4.96282 -8.24375e-21)
(1.28439 -5.70105 2.53529e-22)
(1.72644 -6.3129 1.0453e-20)
(2.21439 -6.77154 7.6406e-21)
(2.72928 -7.06139 5.6718e-21)
(3.2484 -7.18653 1.49559e-22)
(3.74154 -7.16784 2.62465e-21)
(4.18035 -7.04588 -3.35461e-23)
(4.57313 -6.7999 -2.83651e-23)
(0.686518 6.07411 -2.06148e-18)
(1.04731 6.30614 3.96647e-18)
(1.16669 6.42089 -1.96355e-18)
(1.34947 6.50517 0)
(1.47381 6.56599 0)
(1.57809 6.59064 0)
(1.64775 6.56322 5.4427e-19)
(1.68703 6.46934 3.08062e-19)
(1.69876 6.29483 -2.81282e-19)
(1.68646 6.02484 0)
(1.65658 5.63801 1.74204e-19)
(1.61463 5.12181 0)
(1.56641 4.45554 0)
(1.51722 3.62283 -1.18433e-19)
(1.4941 2.60456 1.93082e-19)
(1.57346 1.40356 -3.57589e-20)
(1.76307 0.101252 -2.01614e-19)
(1.86484 -1.15636 -8.16217e-21)
(1.96474 -2.29781 -4.70488e-23)
(2.10458 -3.33156 -3.05067e-21)
(2.28892 -4.27369 9.46964e-21)
(2.52527 -5.13813 1.9091e-20)
(2.81604 -5.90849 -1.56125e-20)
(3.15672 -6.54687 -9.66959e-21)
(3.53614 -7.01941 0)
(3.93569 -7.31028 -5.5083e-21)
(4.33446 -7.42333 -2.0671e-22)
(4.70389 -7.37934 7.49885e-23)
(5.02976 -7.21501 1.24028e-22)
(5.28054 -6.91644 0)
(0.786953 5.75918 -2.21745e-20)
(1.2905 6.05047 1.94809e-18)
(1.5615 6.18415 0)
(1.88455 6.29094 0)
(2.15607 6.38704 -5.07342e-19)
(2.39601 6.44848 4.85369e-19)
(2.59621 6.45509 -5.25141e-19)
(2.76244 6.39082 1.25242e-19)
(2.89941 6.24078 -2.82153e-19)
(3.01168 5.9893 0)
(3.1053 5.61637 -1.2434e-21)
(3.18509 5.10679 0)
(3.25729 4.44136 1.86941e-19)
(3.32737 3.60089 2.05251e-19)
(3.41564 2.56817 -5.8011e-20)
(3.55419 1.36359 6.31089e-20)
(3.71854 0.0698263 -6.79321e-20)
(3.79198 -1.1988 5.83436e-20)
(3.83345 -2.35868 1.22825e-20)
(3.89341 -3.40895 0)
(3.99275 -4.37489 -8.67849e-21)
(4.14335 -5.26737 -7.5668e-21)
(4.34661 -6.06419 -3.52634e-21)
(4.59387 -6.72294 -2.51507e-21)
(4.87038 -7.20607 -7.19322e-21)
(5.1576 -7.49582 -5.3564e-21)
(5.43715 -7.59615 0)
(5.68414 -7.52842 0)
(5.89712 -7.32693 1.41398e-21)
(6.01033 -6.98545 0)
(0.901634 5.31794 2.05689e-18)
(1.5194 5.68656 3.00705e-20)
(1.93175 5.81126 0)
(2.40413 5.93847 0)
(2.82442 6.0778 0)
(3.19344 6.1843 3.64335e-19)
(3.51526 6.23175 -3.55699e-19)
(3.79978 6.20284 2.63541e-19)
(4.05368 6.08204 -2.53404e-19)
(4.28249 5.85315 0)
(4.49189 5.49742 -2.14454e-21)
(4.68644 4.99848 0)
(4.87141 4.3378 -1.7221e-19)
(5.05063 3.49608 -2.79793e-19)
(5.22979 2.46333 2.07225e-19)
(5.40925 1.271 -2.22691e-19)
(5.56446 0.00378798 -1.17594e-19)
(5.61513 -1.23336 1.03136e-19)
(5.60933 -2.37955 -3.75592e-20)
(5.60474 -3.4373 2.42543e-21)
(5.63633 -4.42697 2.1258e-21)
(5.7192 -5.34869 1.40574e-20)
(5.85047 -6.17094 0)
(6.01569 -6.84626 0)
(6.19674 -7.33521 2.04661e-23)
(6.37594 -7.62017 4.86794e-21)
(6.53869 -7.70633 6.63503e-22)
(6.66553 -7.61626 2.20546e-21)
(6.76669 -7.38281 -1.55282e-21)
(6.74725 -7.00784 5.75641e-23)
(9.99563 0.121585 7.03246e-21)
(9.98395 0.242058 -6.94391e-24)
(9.9627 0.363274 7.12548e-21)
(9.93272 0.486934 -7.25168e-21)
(9.89496 0.614486 1.45733e-20)
(9.84983 0.747285 -7.32373e-21)
(9.79748 0.88664 0)
(9.73805 1.03387 -7.58698e-21)
(9.67173 1.1903 -7.57629e-21)
(9.59869 1.35732 1.55069e-20)
(9.51911 1.53637 -1.55692e-20)
(9.43314 1.72901 7.83031e-21)
(9.34094 1.93695 8.06321e-21)
(9.24268 2.16206 -6.46719e-20)
(9.13853 2.40648 6.47514e-20)
(9.02865 2.67266 1.30869e-19)
(8.91323 2.96345 -2.61871e-19)
(8.79246 3.28223 1.30834e-19)
(8.66656 3.6331 2.60189e-19)
(8.5358 4.02116 -2.5882e-19)
(8.40056 4.45289 -1.47014e-21)
(8.26132 4.93671 4.90538e-19)
(8.11885 5.4838 -4.84806e-19)
(7.97453 6.10962 -5.62269e-19)
(7.83101 6.83637 3.34673e-19)
(7.69456 7.69747 -9.02689e-20)
(7.58122 8.74695 8.86462e-20)
(7.56617 10.0775 1.23706e-19)
(8.11298 11.8306 -4.32409e-20)
(8.4352 14.6028 0)
(9.99604 0.126012 -6.80376e-23)
(9.98574 0.250856 1.07391e-22)
(9.96695 0.376434 -7.05544e-21)
(9.94045 0.504479 0)
(9.90717 0.636453 -7.97143e-23)
(9.86756 0.773715 7.14177e-21)
(9.82179 0.917578 0)
(9.7701 1.06936 -7.19762e-21)
(9.71274 1.23038 1.09447e-22)
(9.64998 1.40202 -2.23603e-20)
(9.58212 1.5857 2.98046e-20)
(9.50946 1.78296 -7.61471e-21)
(9.43232 1.99547 -6.09789e-20)
(9.3511 2.22508 1.22289e-19)
(9.26623 2.47385 -1.84529e-19)
(9.17821 2.74417 1.19288e-19)
(9.08765 3.03881 -3.78813e-21)
(8.99532 3.36101 0)
(8.90218 3.71468 0)
(8.80955 4.10464 0)
(8.71926 4.53695 -2.99293e-20)
(8.63399 5.01941 -4.17521e-19)
(8.55768 5.56204 4.3894e-19)
(8.49688 6.17831 -8.31004e-19)
(8.46277 6.88652 8.63007e-19)
(8.47631 7.71147 -5.04421e-19)
(8.57594 8.68552 5.71427e-19)
(8.80463 9.84287 -4.98352e-20)
(9.45272 11.1339 0)
(10.0281 12.2505 0)
(9.99647 0.129997 -6.53451e-21)
(9.9876 0.258767 -1.03631e-22)
(9.97137 0.388242 -8.35507e-22)
(9.9485 0.520178 9.20898e-21)
(9.91988 0.656043 -8.51251e-21)
(9.88596 0.797191 -6.79506e-21)
(9.84701 0.944926 6.85392e-21)
(9.80329 1.10055 7.01587e-21)
(9.75514 1.26536 7.08357e-21)
(9.70294 1.4407 -7.1496e-21)
(9.64708 1.62797 -6.08333e-20)
(9.58802 1.82865 5.74317e-20)
(9.52627 2.04434 -5.7743e-20)
(9.46241 2.2768 -5.81686e-20)
(9.39715 2.52799 -9.75517e-23)
(9.33132 2.80014 -1.05129e-19)
(9.26596 3.09582 2.4241e-19)
(9.20234 3.41799 -7.03654e-21)
(9.14212 3.77017 -4.48961e-19)
(9.08749 4.15651 4.45647e-19)
(9.0415 4.58219 0)
(9.00854 5.05363 -3.9085e-20)
(8.99461 5.57846 0)
(9.00888 6.16598 2.52337e-20)
(9.06537 6.82727 -3.90096e-20)
(9.18475 7.57321 3.332e-20)
(9.39745 8.40929 0)
(9.70578 9.32509 0)
(10.2341 10.2781 -2.52415e-19)
(10.9262 11.0738 2.42219e-19)
(9.99692 0.133493 1.99322e-22)