/*--------------------------------*- C++ -*----------------------------------*\
| =========                 |                                                 |
| \\      /  F ield         | OpenFOAM: The Open Source CFD Toolbox           |
|  \\    /   O peration     | Version:  2006                                  |
|   \\  /    A nd           | Website:  www.openfoam.com                      |
|    \\/     M anipulation  |                                                 |
\*---------------------------------------------------------------------------*/
FoamFile
{
    version     2.0;
    format      ascii;
    class       volVectorField;
    location    "0.4";
    object      U;
}
// * * * * * * * * * * * * * * * * * * * * * * * * * * * * * * * * * * * * * //

dimensions      [0 1 -1 0 0 0 0];


internalField   nonuniform List<vector> 
2790
(
(9.94433 0.0198537 0)
(9.88031 0.0282138 0)
(9.78668 0.0339036 4.16779e-21)
(9.67006 0.0397403 -4.244e-21)
(9.53614 0.045802 0)
(9.38586 0.052023 -1.12769e-21)
(9.2184 0.0585187 -1.16574e-21)
(9.03288 0.0654372 0)
(8.8285 0.0729041 2.51176e-21)
(8.60431 0.0810326 0)
(8.35916 0.0899381 0)
(8.0917 0.0997414 0)
(7.80045 0.110568 1.235e-20)
(7.48383 0.122542 -3.7842e-20)
(7.14025 0.135782 0)
(6.76817 0.150384 0)
(6.36629 0.166403 0)
(5.93376 0.18381 -6.48068e-20)
(5.47037 0.202466 0)
(4.97696 0.222054 7.47725e-20)
(4.4557 0.241998 0)
(3.91056 0.261373 0)
(3.34767 0.278792 1.90536e-19)
(2.77572 0.292254 -8.38381e-19)
(2.20628 0.29894 4.48548e-19)
(1.65431 0.294959 0)
(1.1387 0.275135 0)
(0.684634 0.23241 -2.36483e-18)
(0.298034 0.164262 2.51816e-18)
(0.12217 0.0654558 -1.33895e-18)
(9.99891 0.0386346 0)
(9.98617 0.0582472 0)
(9.94743 0.0729423 1.02751e-21)
(9.88508 0.0883344 2.12084e-21)
(9.80342 0.104663 -4.28544e-21)
(9.70344 0.121737 1.00074e-20)
(9.58454 0.139775 1.26351e-21)
(9.44588 0.159102 -4.64213e-21)
(9.28668 0.180003 -2.43682e-21)
(9.10602 0.202735 -2.04242e-20)
(8.90276 0.227559 4.21213e-20)
(8.67556 0.254741 -2.17418e-20)
(8.42291 0.284548 2.28125e-20)
(8.14321 0.317228 4.80334e-20)
(7.83477 0.35299 0)
(7.49593 0.391964 5.33714e-20)
(7.12523 0.43414 5.64598e-20)
(6.72154 0.479285 6.0115e-20)
(6.28421 0.526862 -2.58955e-19)
(5.81353 0.575907 2.01621e-19)
(5.31096 0.624883 -2.91964e-19)
(4.77938 0.671552 3.13933e-19)
(4.22348 0.712867 -1.6993e-19)
(3.64986 0.744868 0)
(3.06694 0.762589 -3.97222e-19)
(2.48451 0.760029 0)
(1.91255 0.730421 0)
(1.3613 0.666793 -1.03713e-18)
(0.817369 0.5678 9.09309e-18)
(0.38925 0.42273 -1.87505e-17)
(9.99598 0.0397139 -1.98822e-21)
(9.98015 0.0683627 -1.00971e-21)
(9.94315 0.093028 -2.30655e-24)
(9.88515 0.118583 2.09254e-21)
(9.8091 0.145671 0)
(9.7161 0.174215 2.20957e-21)
(9.60583 0.204504 -6.75441e-21)
(9.47765 0.236994 -9.31088e-21)
(9.33091 0.272124 9.60911e-21)
(9.16484 0.310315 0)
(8.97849 0.352001 0)
(8.77068 0.39763 -1.08884e-20)
(8.54008 0.447658 -1.13873e-20)
(8.28523 0.502522 4.74228e-20)
(8.00454 0.562606 -1.4827e-19)
(7.69634 0.628178 5.0355e-20)
(7.35908 0.699309 1.65848e-19)
(6.9913 0.775748 2.38247e-19)
(6.59178 0.856767 -4.80408e-19)
(6.15992 0.940988 0)
(5.69585 1.02617 2.75329e-19)
(5.20062 1.10904 -2.93905e-19)
(4.67644 1.18509 0)
(4.12672 1.24861 0)
(3.55584 1.2927 -1.47652e-18)
(2.96864 1.30964 3.13481e-18)
(2.36901 1.29193 0)
(1.76103 1.23424 9.40389e-19)
(1.12863 1.14138 -1.03042e-18)
(0.5626 1.01145 1.15147e-18)
(9.9944 0.0446551 2.484e-21)
(9.97631 0.0836499 -2.50806e-21)
(9.939 0.119329 0)
(9.88207 0.155208 0)
(9.80754 0.192512 -2.13836e-21)
(9.71646 0.231572 -2.18401e-21)
(9.60873 0.272837 4.48534e-21)
(9.48385 0.316904 -4.58738e-21)
(9.34134 0.364378 -9.53476e-21)
(9.18061 0.415851 0)
(9.0009 0.471931 1.03053e-20)
(8.80132 0.533247 -1.07765e-20)
(8.58081 0.600445 -1.59769e-22)
(8.33822 0.674169 -2.30414e-20)
(8.07225 0.755012 0)
(7.78154 0.843444 0)
(7.46471 0.939727 -1.04949e-19)
(7.12035 1.04377 -5.58808e-19)
(6.7471 1.15491 -1.10924e-20)
(6.34384 1.27172 1.72876e-18)
(5.90971 1.39171 -1.29029e-18)
(5.44422 1.51113 2.23554e-18)
(4.94735 1.62476 -2.33227e-18)
(4.41954 1.72586 -6.25389e-19)
(3.86162 1.8064 -1.34859e-18)
(3.27448 1.85754 0)
(2.65822 1.8709 -7.85162e-19)
(2.01521 1.84064 0)
(1.33265 1.77122 9.48897e-19)
(0.685122 1.65803 -1.85387e-17)
(9.99365 0.0510429 0)
(9.97431 0.0987947 2.0037e-21)
(9.93675 0.143989 -4.05483e-21)
(9.88075 0.189201 -4.12959e-21)
(9.80776 0.235988 -2.12378e-21)
(9.71861 0.28503 2.16802e-21)
(9.61327 0.336903 -2.23509e-21)
(9.49134 0.392283 1.08392e-20)
(9.35238 0.451874 -1.78862e-21)
(9.19586 0.516377 2.40841e-21)
(9.02116 0.586514 -2.02963e-20)
(8.82754 0.663033 -4.23478e-20)
(8.61409 0.74671 6.45034e-20)
(8.37984 0.838335 4.47931e-20)
(8.12375 0.938661 0)
(7.84467 1.04833 0)
(7.5414 1.16781 1.02649e-19)
(7.21266 1.29721 3.20305e-19)
(6.85712 1.43609 -9.08415e-19)
(6.47336 1.58321 6.95828e-19)
(6.0599 1.73622 2.49814e-19)
(5.61517 1.89142 0)
(5.1375 2.04345 0)
(4.6251 2.18527 5.35308e-18)
(4.07609 2.30825 -4.36287e-18)
(3.48857 2.40269 5.43723e-18)
(2.86044 2.45877 -5.78951e-18)
(2.19384 2.46831 0)
(1.48115 2.43117 -1.39553e-17)
(0.781126 2.33553 1.60146e-17)
(9.99333 0.0580803 3.92914e-21)
(9.97344 0.11401 0)
(9.93602 0.168252 4.04675e-21)
(9.88117 0.222729 2.05422e-21)
(9.81005 0.278999 2.08846e-21)
(9.72326 0.337941 4.29774e-21)
(9.62077 0.400245 1.10642e-21)
(9.50224 0.466662 -1.12107e-21)
(9.36727 0.537983 0)
(9.21539 0.615016 -1.90877e-20)
(9.04603 0.69859 2.61776e-22)
(8.85852 0.789573 6.83981e-22)
(8.65203 0.888868 4.36839e-20)
(8.42571 0.997397 -8.74242e-20)
(8.17858 1.11606 0)
(7.90961 1.24568 -1.92247e-19)
(7.61766 1.38691 1.95852e-19)
(7.30148 1.54012 -2.57852e-21)
(6.95967 1.70518 8.73078e-19)
(6.59057 1.8812 -8.93614e-19)
(6.19225 2.06624 0)
(5.76232 2.25695 2.00949e-18)
(5.29792 2.44833 -4.19098e-18)
(4.79561 2.63344 2.74397e-18)
(4.25157 2.80342 0)
(3.66191 2.94757 4.42939e-18)
(3.02327 3.05393 -4.68032e-18)
(2.33789 3.11051 0)
(1.60414 3.10995 0)
(0.864381 3.03041 2.20819e-19)
(9.99324 0.0653759 -4.41688e-21)
(9.9733 0.129186 -3.45583e-21)
(9.93641 0.192011 -1.00665e-21)
(9.88298 0.255391 -5.10285e-21)
(9.81402 0.320792 2.07175e-21)
(9.72999 0.389234 1.06118e-20)
(9.63082 0.461535 -2.16244e-21)
(9.51624 0.538536 8.89194e-21)
(9.38589 0.621119 0)
(9.23934 0.710185 1.89255e-20)
(9.07606 0.806666 1.95117e-20)
(8.8954 0.911533 1.72542e-22)
(8.69662 1.0258 0)
(8.47887 1.15052 -4.31272e-20)
(8.24125 1.28673 0)
(7.98272 1.43543 0)
(7.70208 1.59747 0)
(7.398 1.77352 -2.0048e-19)
(7.06894 1.96382 -6.32283e-19)
(6.71296 2.16795 1.06863e-18)
(6.32767 2.38456 -1.8203e-18)
(5.91001 2.61095 2.33178e-18)
(5.45608 2.84276 4.47109e-18)
(4.96114 3.07354 -4.54044e-19)
(4.41978 3.2944 -4.34517e-18)
(3.82649 3.49358 1.16072e-18)
(3.17688 3.65637 0)
(2.47292 3.76585 -1.07762e-17)
(1.71844 3.80547 1.16995e-17)
(0.941714 3.73702 1.28702e-17)
(9.99329 0.0727024 -4.87485e-22)
(9.97364 0.144148 4.43716e-21)
(9.93764 0.215124 0)
(9.8859 0.287003 8.09873e-21)
(9.81941 0.361169 -2.07168e-21)
(9.73851 0.438733 -6.34417e-21)
(9.64314 0.520625 0)
(9.53305 0.607775 -8.83695e-21)
(9.40794 0.701141 0)
(9.26741 0.801715 0)
(9.11097 0.910521 0)
(8.93802 1.02863 3.93182e-20)
(8.74786 1.15717 0)
(8.53967 1.29732 -8.45409e-20)
(8.31256 1.45026 8.56501e-20)
(8.06549 1.6172 2.69428e-19)
(7.79713 1.79923 -5.57125e-19)
(7.50605 1.99731 1.89491e-19)
(7.19048 2.21214 -2.00262e-19)
(6.84818 2.44386 -4.00853e-21)
(6.47632 2.69185 1.72688e-18)
(6.07112 2.95431 -2.21212e-18)
(5.62772 3.22781 -4.68446e-19)
(5.1401 3.50669 -3.90193e-18)
(4.60129 3.78233 4.03183e-18)
(4.00403 4.04205 3.76854e-18)
(3.3424 4.26823 -4.53237e-18)
(2.61665 4.43821 0)
(1.83252 4.52557 0)
(1.01444 4.46878 -2.859e-21)
(9.99343 0.0799161 0)
(9.97433 0.158737 0)
(9.93951 0.237464 0)
(9.88974 0.317425 9.84028e-22)
(9.82601 0.399956 -1.01753e-21)
(9.74862 0.486224 8.29692e-21)
(9.65748 0.577253 0)
(9.55239 0.674054 5.46877e-22)
(9.43309 0.777663 -2.0516e-20)
(9.29924 0.889149 2.96277e-20)
(9.15039 1.00963 -2.81906e-20)
(8.98599 1.14027 -2.55271e-22)
(8.8054 1.28232 0)
(8.60782 1.43706 4.04924e-20)
(8.39238 1.60586 0)
(8.15801 1.79014 -8.72047e-20)
(7.90336 1.99126 -3.60392e-19)
(7.62686 2.21054 5.50517e-19)
(7.32653 2.44914 0)
(6.99984 2.7079 -1.98112e-19)
(6.6435 2.98709 1.99916e-19)
(6.25302 3.28598 -1.68781e-18)
(5.82258 3.60239 1.71988e-18)
(5.34488 3.93189 -4.423e-19)
(4.81115 4.26664 -3.76891e-18)
(4.21177 4.5936 3.90226e-18)
(3.53795 4.89268 0)
(2.78648 5.13522 -4.45364e-18)
(1.96055 5.285 4.82056e-18)
(1.08869 5.2526 2.67215e-21)
(9.99364 0.0869191 3.83702e-21)
(9.97528 0.172823 0)
(9.94189 0.258904 9.84339e-22)
(9.89436 0.346515 -4.98631e-21)
(9.83368 0.436974 8.0606e-21)
(9.76012 0.531488 -1.64654e-20)
(9.67361 0.631157 0)
(9.57399 0.737066 0)
(9.46104 0.850321 1.70496e-20)
(9.33448 0.972067 -1.74645e-20)
(9.19391 1.1035 0)
(9.03887 1.24589 0)
(8.86874 1.40058 -3.83911e-20)
(8.68281 1.569 -3.99534e-20)
(8.48023 1.75268 4.04108e-20)
(8.25994 1.95325 0)
(8.02062 2.17239 0)
(7.76063 2.4118 -8.7343e-20)
(7.47784 2.67318 5.52167e-19)
(7.16951 2.95814 -1.48966e-18)
(6.83194 3.26797 1.33579e-18)
(6.46007 3.60326 -7.79901e-19)
(6.04723 3.96343 -1.62422e-18)
(5.58479 4.34586 2.07472e-18)
(5.06181 4.74439 -3.44833e-18)
(4.46537 5.14682 7.12868e-18)
(3.78197 5.5319 -3.72428e-18)
(3.0027 5.86559 -3.98073e-18)
(2.12301 6.10118 4.29759e-18)
(1.1769 6.11761 0)
(9.9939 0.0936404 2.13724e-22)
(9.97642 0.186298 -2.40661e-22)
(9.94469 0.279329 0)
(9.89963 0.374142 9.89424e-22)
(9.84226 0.472061 -9.03231e-21)
(9.77284 0.574327 8.17011e-21)
(9.69133 0.682102 -2.08281e-21)
(9.5976 0.796534 -2.38685e-23)
(9.49149 0.918794 1.92943e-20)
(9.37278 1.05009 0)
(9.24115 1.19171 -1.78944e-20)
(9.09618 1.34498 1.8294e-20)
(8.93737 1.51137 7.59469e-20)
(8.76408 1.69243 -3.76759e-20)
(8.57552 1.88985 -1.5864e-19)
(8.37071 2.10549 -1.22774e-19)
(8.1484 2.34133 1.64171e-19)
(7.90697 2.59949 5.09964e-19)
(7.64429 2.88226 -1.68301e-19)
(7.35753 3.19205 7.1071e-19)
(7.04281 3.53129 -5.38699e-19)
(6.69479 3.90213 0)
(6.30614 4.30601 0)
(5.86697 4.74285 0)
(5.36399 5.20948 -1.90195e-19)
(4.78016 5.6966 0)
(4.09504 6.18449 -2.00805e-19)
(3.29008 6.63612 0)
(2.34423 6.99407 -3.81322e-18)
(1.29323 7.0991 2.00886e-22)
(9.9942 0.100026 -3.57009e-21)
(9.97772 0.199071 -4.04632e-21)
(9.94782 0.298632 0)
(9.90546 0.400184 -7.78038e-21)
(9.85163 0.505072 9.87378e-21)
(9.78664 0.614566 -2.0026e-21)
(9.71045 0.729878 0)
(9.62298 0.85221 -8.27816e-21)
(9.52415 0.98279 -2.13082e-20)
(9.41379 1.12289 4.29643e-21)
(9.29166 1.27383 1.77451e-20)
(9.15744 1.43706 -1.81197e-20)
(9.01073 1.61411 -3.67224e-20)
(8.85098 1.80666 5.64229e-20)
(8.67754 2.01655 -3.78932e-20)
(8.48955 2.24584 3.94028e-20)
(8.28589 2.49681 3.92987e-20)
(8.0651 2.77198 -2.00718e-21)
(7.82519 3.07422 3.31014e-19)
(7.56347 3.40679 -4.14577e-19)
(7.2762 3.77328 -5.74256e-21)
(6.95811 4.17758 -1.67907e-19)
(6.6017 4.62353 8.61955e-19)
(6.19632 5.11447 8.68724e-19)
(5.72676 5.6518 -1.39841e-18)
(5.17171 6.2321 -1.71787e-19)
(4.50178 6.84206 -1.25691e-18)
(3.68341 7.44798 1.50666e-18)
(2.6668 7.98547 3.21812e-18)
(1.46715 8.24959 -3.49251e-18)
(9.99453 0.106034 -1.17699e-22)
(9.97915 0.21107 3.92188e-21)
(9.95124 0.316722 8.57421e-21)
(9.91174 0.424534 6.79859e-21)
(9.86167 0.535876 -6.79345e-23)
(9.80134 0.652047 -1.99355e-21)
(9.73076 0.774297 -2.04277e-21)
(9.64989 0.903873 8.19598e-21)
(9.55871 1.04205 5.16047e-23)
(9.45713 1.19013 -4.21712e-21)
(9.34501 1.34952 1.71429e-20)
(9.22213 1.52171 0)
(9.08819 1.70829 1.80365e-20)
(8.9428 1.91107 0)
(8.78546 2.132 3.73958e-20)
(8.6155 2.37332 -3.78496e-20)
(8.43202 2.63756 -3.83861e-20)
(8.23382 2.92762 -6.44846e-22)
(8.01925 3.2469 -3.93659e-20)
(7.78602 3.5994 8.02438e-20)
(7.53089 3.98988 -1.61782e-19)
(7.24917 4.42394 3.25416e-19)
(6.93398 4.90809 -4.81551e-19)
(6.57502 5.44969 -3.16922e-19)
(6.15663 6.05636 7.87501e-19)
(5.65475 6.73415 -1.70172e-18)
(5.03119 7.48357 1.25318e-18)
(4.23219 8.28838 1.22403e-18)
(3.15835 9.0966 -1.3665e-18)
(1.75119 9.66422 1.36653e-18)
(9.99488 0.111632 0)
(9.98067 0.222235 3.97489e-21)
(9.95487 0.333523 -7.84074e-21)
(9.9184 0.447099 0)
(9.87227 0.564364 -1.74186e-20)
(9.81681 0.686641 1.9534e-21)
(9.75207 0.815209 3.99107e-21)
(9.67808 0.951349 -4.01547e-21)
(9.59487 1.09636 8.23694e-21)
(9.50244 1.25161 8.25954e-21)
(9.40074 1.4185 -1.70149e-20)
(9.28968 1.59858 8.51036e-21)
(9.16909 1.79352 -8.63396e-21)
(9.03874 2.00516 8.75289e-21)
(8.89834 2.23558 0)
(8.74743 2.48713 0)
(8.58545 2.76255 4.63362e-20)
(8.41155 3.06501 -6.89105e-21)
(8.22459 3.39833 -4.00955e-20)
(8.02295 3.76713 -3.73192e-20)
(7.80426 4.17714 3.72153e-20)
(7.56506 4.63547 1.51384e-19)
(7.30008 5.15111 -2.16519e-19)
(7.0011 5.73549 1.50434e-19)
(6.65486 6.40323 2.756e-19)
(6.23913 7.17266 3.91568e-19)
(5.71337 8.06651 -2.63785e-19)
(5.00748 9.10943 1.04791e-18)
(3.95096 10.3237 -8.09304e-19)
(2.26757 11.5595 9.26111e-19)
(9.99525 0.116795 0)
(9.98227 0.232519 -3.73645e-21)
(9.95868 0.348966 7.22891e-21)
(9.92537 0.467793 -7.1226e-22)
(9.88332 0.590426 8.63712e-21)
(9.8329 0.718207 0)
(9.77419 0.852435 -7.78878e-21)
(9.7073 0.994415 0)
(9.63231 1.14547 0)
(9.54932 1.30698 -1.14179e-22)
(9.45838 1.48038 -8.20024e-21)
(9.35952 1.66724 -1.39777e-22)
(9.25273 1.86925 -2.5517e-20)
(9.13795 2.0883 2.55014e-20)
(9.01512 2.32652 0)
(8.88409 2.58634 0)
(8.74461 2.87059 -7.05786e-20)
(8.59635 3.18265 1.23869e-19)
(8.43878 3.52655 -5.32217e-20)
(8.27115 3.90733 -1.40618e-19)
(8.09234 4.33131 1.39842e-19)
(7.90066 4.80664 0)
(7.69348 5.34405 -1.28832e-19)
(7.46664 5.95808 1.31195e-19)
(7.21314 6.66909 -2.50566e-19)
(6.92082 7.50681 1.1537e-19)
(6.5648 8.51787 0)
(6.09736 9.78381 -1.80292e-19)
(5.33304 11.4981 -6.64041e-21)
(3.36352 14.4537 -1.24126e-20)
(-0.0828516 0.185851 0)
(-0.620311 0.392081 -3.06714e-19)
(-1.42951 0.478644 -5.70515e-19)
(-2.34901 0.509687 1.25686e-18)
(-3.32714 0.514318 4.98187e-19)
(-4.33362 0.504849 -4.53524e-19)
(-5.34769 0.486487 0)
(-6.35371 0.461574 -2.40085e-19)
(-7.33828 0.431221 2.23318e-19)
(-8.28828 0.395942 0)
(-9.18992 0.355983 0)
(-10.0281 0.311474 0)
(-10.7859 0.262524 -1.59874e-20)
(-11.4451 0.209294 7.87481e-20)
(-11.9858 0.152085 -3.19019e-20)
(-12.3879 0.0912516 0)
(-12.6307 0.0271338 1.57401e-20)
(-12.6947 -0.0400728 0)
(-12.5639 -0.110518 2.81074e-20)
(-12.228 -0.181329 -5.40313e-20)
(-11.6843 -0.249577 2.61565e-20)
(-10.9378 -0.313204 -1.02393e-20)
(-9.99924 -0.370809 1.05214e-20)
(-8.88386 -0.421729 7.27005e-21)
(-7.60902 -0.466231 -4.67871e-21)
(-6.19059 -0.506369 -3.10531e-21)
(-4.63896 -0.549385 5.36089e-22)
(-2.96969 -0.613757 -5.78179e-22)
(-1.19026 -0.719656 -4.67939e-23)
(2.09708 -0.966006 1.55513e-23)
(-0.261282 0.624413 -1.0133e-17)
(-0.890067 0.929511 4.61658e-18)
(-1.72874 1.0893 -4.90012e-19)
(-2.64137 1.17948 -2.09901e-18)
(-3.60266 1.22597 3.06472e-18)
(-4.58874 1.24207 -3.85912e-18)
(-5.58098 1.23455 2.0699e-18)
(-6.56444 1.20693 0)
(-7.52568 1.16097 0)
(-8.45142 1.09739 -2.25638e-19)
(-9.32765 1.01634 0)
(-10.1389 0.9177 -2.43743e-19)
(-10.868 0.801357 1.10298e-19)
(-11.4961 0.667532 5.89094e-20)
(-12.003 0.517044 9.46143e-20)
(-12.3679 0.351504 9.55845e-20)
(-12.5701 0.173268 -5.11517e-20)
(-12.59 -0.0146163 3.50068e-20)
(-12.4164 -0.207259 0)
(-12.0446 -0.395631 -7.40264e-22)
(-11.4722 -0.573011 -1.29653e-20)
(-10.7042 -0.734636 -1.14886e-20)
(-9.75098 -0.877355 1.03009e-20)
(-8.62709 -0.999752 -2.41357e-22)
(-7.34949 -1.10266 -2.6085e-21)
(-5.93462 -1.1909 3.00427e-21)
(-4.39492 -1.28001 0)
(-2.74365 -1.40898 0)
(-1.00956 -1.63189 2.66691e-23)
(1.792 -2.01051 0)
(-0.28078 1.31436 9.18055e-18)
(-0.943859 1.66282 0)
(-1.80073 1.86235 0)
(-2.68926 1.98307 0)
(-3.60933 2.04533 3.81252e-18)
(-4.54553 2.06218 -2.33851e-18)
(-5.48439 2.04146 -2.10688e-18)
(-6.41407 1.98779 2.02045e-18)
(-7.32295 1.90365 4.32083e-19)
(-8.19904 1.79014 -6.96617e-19)
(-9.02919 1.64752 8.74692e-19)
(-9.79852 1.47565 4.85521e-19)
(-10.49 1.27443 -5.93513e-19)
(-11.0848 1.04439 0)
(-11.5625 0.787139 -6.34001e-20)
(-11.9017 0.505926 -6.44268e-20)
(-12.0813 0.205849 0)
(-12.0811 -0.106092 6.92965e-22)
(-11.8923 -0.421717 -2.9029e-20)
(-11.5096 -0.729379 4.14631e-20)
(-10.9321 -1.01835 -1.31081e-20)
(-10.1661 -1.28073 1.36069e-21)
(-9.2223 -1.51111 -1.49774e-22)
(-8.11555 -1.70667 2.14736e-22)
(-6.86334 -1.86825 -2.20955e-22)
(-5.48434 -2.00269 2.29791e-22)
(-3.99608 -2.13035 -3.11482e-22)
(-2.41208 -2.2992 7.48907e-23)
(-0.795649 -2.57805 1.84626e-24)
(1.56352 -3.00154 -1.69625e-24)
(-0.219402 2.10439 8.19225e-18)
(-0.873256 2.45032 4.73578e-19)
(-1.73168 2.65075 0)
(-2.58305 2.77457 0)
(-3.45078 2.83568 0)
(-4.32674 2.84459 2.92389e-18)
(-5.20336 2.80816 -4.39053e-18)
(-6.07255 2.73061 7.62676e-19)
(-6.92518 2.614 1.35532e-18)
(-7.75079 2.45892 -1.24943e-18)
(-8.53699 2.26495 -2.33205e-19)
(-9.26902 2.03119 4.93002e-19)
(-9.92945 1.7568 -1.11918e-18)
(-10.4983 1.44176 7.62285e-19)
(-10.9538 1.08755 -5.27463e-19)
(-11.2729 0.698104 4.04021e-19)
(-11.4329 0.28041 -1.37473e-19)
(-11.4122 -0.1554 -3.3108e-20)
(-11.2073 -0.5952 0)
(-10.8144 -1.02123 2.86101e-20)
(-10.2348 -1.41967 -1.20685e-20)
(-9.47575 -1.7805 9.13764e-21)
(-8.54853 -2.09669 1.4723e-22)
(-7.46797 -2.3641 1.01026e-21)
(-6.25214 -2.58336 -2.09319e-23)
(-4.9223 -2.76259 2.15418e-23)
(-3.50207 -2.92441 -7.46454e-22)
(-2.0001 -3.11651 -7.97492e-23)
(-0.523055 -3.40685 0)
(1.45787 -3.79659 -4.95668e-24)
(-0.119773 2.93531 -7.73385e-18)
(-0.732987 3.24668 -4.41918e-19)
(-1.56827 3.4231 4.30002e-19)
(-2.36537 3.53295 3.75847e-18)
(-3.17008 3.5828 -6.42941e-18)
(-3.97824 3.57917 -2.20404e-19)
(-4.78707 3.52632 2.33406e-18)
(-5.59153 3.42656 -1.33398e-18)
(-6.38464 3.28047 2.11127e-18)
(-7.1571 3.08718 -1.84291e-18)
(-7.89697 2.84484 2.11603e-18)
(-8.58934 2.55119 -9.50248e-19)
(-9.21614 2.20435 5.19355e-19)
(-9.75636 1.80374 -5.21497e-19)
(-10.1866 1.3512 -2.81211e-19)
(-10.4825 0.852344 2.81612e-19)
(-10.6196 0.31777 -2.93207e-19)
(-10.5759 -0.237407 1.43785e-19)
(-10.355 -0.794364 0)
(-9.95414 -1.33069 -1.4715e-20)
(-9.37716 -1.82992 1.25641e-20)
(-8.63261 -2.28065 -6.57536e-21)
(-7.73148 -2.67465 -6.31082e-22)
(-6.68829 -3.00624 -8.78487e-23)
(-5.52145 -3.27551 -9.17806e-22)
(-4.25452 -3.4907 -3.14956e-23)
(-2.91714 -3.67502 1.68974e-21)
(-1.51031 -3.86938 1.07372e-23)
(-0.185082 -4.13336 0)
(1.4811 -4.44937 4.6622e-24)
(-0.00291642 3.75192 -7.94129e-18)
(-0.55089 4.01617 0)
(-1.33714 4.1583 -4.12749e-19)
(-2.06138 4.24642 2.97507e-18)
(-2.79107 4.28023 -3.17414e-18)
(-3.52238 4.2624 0)
(-4.25603 4.19407 4.11402e-19)
(-4.98912 4.07498 0)
(-5.71627 3.90363 -8.97708e-19)
(-6.42919 3.67724 9.36703e-19)
(-7.11638 3.39209 2.49453e-19)
(-7.76297 3.04425 0)
(-8.35052 2.63046 2.65201e-19)
(-8.85724 2.14923 0)
(-9.25841 1.60228 -2.99197e-19)
(-9.52765 0.996525 4.5601e-19)
(-9.63891 0.346382 0)
(-9.56975 -0.326775 -7.5405e-20)
(-9.33332 -0.997579 7.16412e-20)
(-8.92767 -1.63831 3.22333e-20)
(-8.35989 -2.23119 1.32248e-20)
(-7.63913 -2.76476 -1.28219e-20)
(-6.77529 -3.23026 2.97965e-21)
(-5.78195 -3.62011 -1.73892e-22)
(-4.67725 -3.93342 3.65889e-22)
(-3.48667 -4.17723 -3.71334e-22)
(-2.24386 -4.37356 -8.50371e-22)
(-0.943617 -4.55097 -1.20445e-21)
(0.219746 -4.76673 0)
(1.62998 -4.99197 -9.88845e-23)
(0.118122 4.5126 -7.33982e-18)
(-0.344065 4.72478 0)
(-1.05569 4.8314 -4.37885e-19)
(-1.68809 4.89695 -3.03455e-18)
(-2.3295 4.91471 -1.96897e-19)
(-2.97299 4.88393 3.74245e-18)
(-3.62178 4.80283 -2.25819e-18)
(-4.27444 4.66836 2.19835e-18)
(-4.92673 4.47654 -1.7158e-20)
(-5.57133 4.22234 -4.8226e-19)
(-6.19738 3.89983 -2.53351e-19)
(-6.79033 3.50303 0)
(-7.33172 3.02694 0)
(-7.79933 2.46884 6.16237e-19)
(-8.1672 1.8301 -3.01982e-19)
(-8.40639 1.11912 -4.96752e-19)
(-8.48811 0.355465 3.50902e-19)
(-8.39044 -0.430924 -8.21048e-20)
(-8.14051 -1.20834 7.72083e-20)
(-7.73523 -1.94391 -1.59936e-20)
(-7.18524 -2.62032 0)
(-6.49943 -3.22758 -3.14337e-21)
(-5.68536 -3.75717 -4.95478e-21)
(-4.75525 -4.19875 1.81469e-22)
(-3.72576 -4.55011 -1.99526e-21)
(-2.62454 -4.8156 0)
(-1.48356 -5.01414 0)
(-0.303715 -5.16092 2.42641e-21)
(0.689927 -5.3119 0)
(1.8969 -5.44755 -3.50753e-23)
(0.231052 5.17499 0)
(-0.127652 5.34013 0)
(-0.736755 5.41703 4.03499e-18)
(-1.25837 5.46435 -2.61237e-19)
(-1.79752 5.47004 -3.42945e-18)
(-2.34104 5.43044 -4.38528e-19)
(-2.89389 5.34101 9.17933e-19)
(-3.45543 5.19629 -2.44358e-18)
(-4.02229 4.98967 2.39824e-18)
(-4.5881 4.71378 1.08031e-18)
(-5.14293 4.36033 7.90564e-20)
(-5.67295 3.92109 -2.3162e-18)
(-6.16025 3.389 5.6005e-19)
(-6.5827 2.75972 1.63349e-18)
(-6.91325 2.03398 -8.56913e-19)
(-7.11944 1.22146 -1.81519e-19)
(-7.16796 0.347436 0)
(-7.03983 -0.548349 9.35533e-20)
(-6.78023 -1.42364 0)
(-6.38243 -2.2424 -1.79033e-20)
(-5.8606 -2.99052 8.09048e-21)
(-5.22212 -3.66132 0)
(-4.47064 -4.24734 5.25834e-21)
(-3.61744 -4.73459 1.52822e-21)
(-2.67532 -5.11847 -2.9233e-21)
(-1.6758 -5.39908 1.13031e-21)
(-0.641214 -5.58962 -3.06824e-22)
(0.379824 -5.6957 -1.22019e-21)
(1.24857 -5.78189 0)
(2.27035 -5.83144 1.23591e-22)
(0.333586 5.6946 -3.8297e-18)
(0.0951317 5.83266 3.872e-18)
(-0.388343 5.89203 -3.37546e-18)
(-0.782993 5.92952 0)
(-1.20665 5.92989 3.81736e-18)
(-1.63779 5.8878 -3.67156e-18)
(-2.08314 5.79611 -4.78816e-19)
(-2.54213 5.64728 0)
(-3.01218 5.43242 0)
(-3.48781 5.14181 0)
(-3.96018 4.76478 -2.98066e-19)
(-4.41674 4.29074 -3.16604e-19)
(-4.84086 3.71011 0)
(-5.21108 3.01647 -3.50874e-19)
(-5.49913 2.20932 3.82676e-19)
(-5.66764 1.29949 0)
(-5.67801 0.318398 0)
(-5.52469 -0.678114 -2.01017e-19)
(-5.26172 -1.64001 9.01845e-20)
(-4.88117 -2.52755 -2.07811e-20)
(-4.39947 -3.33418 1.21541e-20)
(-3.82111 -4.05813 -1.36237e-20)
(-3.14433 -4.69299 0)
(-2.38102 -5.22023 3.95779e-21)
(-1.5369 -5.63183 1.10996e-21)
(-0.649072 -5.92056 -3.42726e-21)
(0.261983 -6.09304 3.14814e-22)
(1.1194 -6.15826 0)
(1.88674 -6.18747 7.04209e-22)
(2.73789 -6.1535 0)
(0.427586 6.04934 3.92761e-18)
(0.325214 6.18208 -3.95075e-18)
(-0.0169862 6.23834 -2.34398e-19)
(-0.272343 6.27631 0)
(-0.569426 6.27951 0)
(-0.876737 6.24236 1.82383e-18)
(-1.20357 6.15544 -2.01199e-18)
(-1.54885 6.00944 0)
(-1.91067 5.7936 -1.17995e-18)
(-2.28446 5.49601 -8.957e-20)
(-2.66241 5.10353 2.22422e-19)
(-3.03386 4.60371 2.34899e-18)
(-3.38452 3.9839 -7.06449e-19)
(-3.69497 3.23486 -4.01879e-19)
(-3.9365 2.3542 2.08021e-19)
(-4.06499 1.35338 -4.71423e-19)
(-4.03199 0.271807 3.87805e-19)
(-3.8529 -0.818444 3.45662e-21)
(-3.60004 -1.85156 1.00753e-19)
(-3.25031 -2.79029 -2.13459e-20)
(-2.82231 -3.64206 -2.22354e-21)
(-2.31642 -4.41021 -1.32484e-20)
(-1.72473 -5.08841 1.36278e-20)
(-1.06096 -5.65009 -1.59866e-20)
(-0.324736 -6.08454 4.61416e-22)
(0.44055 -6.37261 8.93383e-21)
(1.19613 -6.5214 -1.55278e-22)
(1.9349 -6.55667 0)
(2.59541 -6.53273 -1.38899e-21)
(3.28687 -6.4201 0)
(0.513805 6.22799 -3.99414e-18)
(0.561903 6.37812 7.91652e-18)
(0.370193 6.44552 -7.97637e-18)
(0.262511 6.49301 1.89681e-18)
(0.0999725 6.50763 1.76755e-18)
(-0.0740214 6.48332 2.65509e-19)
(-0.273116 6.40848 -2.80326e-19)
(-0.495068 6.27223 2.93274e-19)
(-0.738426 6.06219 -1.27571e-18)
(-0.999534 5.76482 1.25401e-18)
(-1.2707 5.36538 0)
(-1.54367 4.84927 -3.75198e-19)
(-1.80756 4.19959 4.14575e-19)
(-2.04656 3.40283 -4.27948e-19)
(-2.23316 2.4541 0)
(-2.31292 1.36853 -3.742e-21)
(-2.22972 0.204274 3.06709e-19)
(-2.04222 -0.965653 -1.2921e-19)
(-1.81571 -2.0502 2.71054e-20)
(-1.51523 -3.02187 3.49449e-20)
(-1.15651 -3.90669 -2.61657e-20)
(-0.733972 -4.71111 -4.37917e-21)
(-0.235899 -5.4299 -6.83142e-21)
(0.325813 -6.02312 1.0669e-20)
(0.92726 -6.46308 4.53263e-22)
(1.55822 -6.7486 -6.23697e-21)
(2.19671 -6.88554 0)
(2.81346 -6.8935 6.41797e-23)
(3.36415 -6.81866 -8.24543e-22)
(3.90351 -6.63487 0)
(0.597539 6.23321 0)
(0.803832 6.4184 2.04335e-18)
(0.766493 6.5075 1.32662e-19)
(0.80675 6.57127 9.33879e-20)
(0.785438 6.6055 -1.81679e-18)
(0.750674 6.60225 0)
(0.68566 6.54804 -9.1239e-19)
(0.593965 6.43047 1.1848e-18)
(0.477127 6.2362 0)
(0.338161 5.95106 0)
(0.183562 5.55199 0)
(0.0212358 5.03137 8.37219e-19)
(-0.142357 4.36726 -9.00176e-19)
(-0.298904 3.5453 -1.97101e-20)
(-0.425082 2.55776 2.75924e-19)
(-0.436772 1.4091 -4.75337e-19)
(-0.256972 0.158388 -4.57633e-19)
(-0.122926 -1.08549 1.13538e-19)
(0.0598012 -2.21856 1.43094e-20)
(0.290831 -3.21989 -2.28921e-20)
(0.565544 -4.13018 -2.83523e-21)
(0.89648 -4.96282 -8.39791e-21)
(1.28439 -5.70105 1.31985e-20)
(1.72644 -6.3129 0)
(2.21439 -6.77154 0)
(2.72928 -7.06139 -5.82809e-21)
(3.2484 -7.18653 -1.05642e-22)
(3.74154 -7.16784 -2.48871e-21)
(4.18035 -7.04588 1.32972e-21)
(4.57313 -6.7999 0)
(0.686517 6.07411 0)
(1.04731 6.30614 -2.01535e-18)
(1.16669 6.42089 1.90128e-18)
(1.34947 6.50517 2.0679e-18)
(1.47381 6.56599 -1.99937e-18)
(1.57809 6.59064 0)
(1.64775 6.56322 0)
(1.68703 6.46934 -3.60909e-22)
(1.69876 6.29483 0)
(1.68646 6.02484 0)
(1.65658 5.63801 -1.74204e-19)
(1.61463 5.12181 6.68794e-21)
(1.56641 4.45554 -2.02176e-19)
(1.51722 3.62283 -1.34103e-22)
(1.4941 2.60456 6.36693e-20)
(1.57346 1.40356 2.19676e-19)
(1.76308 0.101252 1.66305e-19)
(1.86484 -1.15636 -4.19048e-21)
(1.96474 -2.29781 -1.3777e-20)
(2.10458 -3.33156 -2.87709e-21)
(2.28892 -4.27369 0)
(2.52527 -5.13813 1.89573e-20)
(2.81605 -5.90849 -1.70461e-20)
(3.15672 -6.54687 1.32888e-21)
(3.53614 -7.01941 7.58789e-21)
(3.93569 -7.31028 1.10679e-20)
(4.33446 -7.42333 0)
(4.70389 -7.37934 2.54269e-21)
(5.02976 -7.21501 -1.46487e-21)
(5.28054 -6.91644 2.87199e-23)
(0.786951 5.75917 2.02398e-18)
(1.29049 6.05047 -2.05917e-18)
(1.5615 6.18415 1.92927e-18)
(1.88455 6.29094 -1.20946e-19)
(2.15606 6.38704 0)
(2.39601 6.44848 1.24096e-19)
(2.59621 6.45509 -3.94722e-19)
(2.76244 6.39082 -1.02116e-20)
(2.89941 6.24078 7.31131e-20)
(3.01168 5.9893 -2.20415e-19)
(3.1053 5.61637 1.60291e-19)
(3.18509 5.10679 1.28469e-19)
(3.25729 4.44136 -1.89788e-19)
(3.32737 3.60088 2.57139e-19)
(3.41564 2.56817 1.14704e-19)
(3.55419 1.36359 0)
(3.71854 0.0698262 -6.79886e-20)
(3.79198 -1.1988 5.68731e-20)
(3.83345 -2.35868 -3.62072e-20)
(3.89341 -3.40895 1.55203e-20)
(3.99275 -4.37489 0)
(4.14335 -5.26737 -6.74317e-21)
(4.34661 -6.06419 6.22075e-21)
(4.59387 -6.72294 0)
(4.87038 -7.20607 -7.14825e-21)
(5.1576 -7.49582 -5.31134e-21)
(5.43715 -7.59615 0)
(5.68414 -7.52842 -1.24002e-22)
(5.89712 -7.32693 1.51311e-21)
(6.01033 -6.98545 0)
(0.901634 5.31794 -1.04076e-18)
(1.5194 5.68656 1.05475e-18)
(1.93175 5.81126 0)
(2.40413 5.93847 2.41216e-19)
(2.82442 6.07779 -2.31079e-19)
(3.19344 6.1843 -1.20006e-19)
(3.51526 6.23175 -1.30056e-19)
(3.79978 6.20284 2.42733e-19)
(4.05368 6.08204 1.43024e-19)
(4.28249 5.85315 1.60639e-19)
(4.49189 5.49742 -7.37222e-19)
(4.68644 4.99848 6.26441e-19)
(4.87141 4.3378 6.49525e-21)
(5.05063 3.49608 9.22472e-20)
(5.2298 2.46333 0)
(5.40925 1.271 0)
(5.56446 0.00378785 5.96037e-20)
(5.61513 -1.23336 1.2669e-20)
(5.60933 -2.37955 -1.38803e-21)
(5.60474 -3.4373 -9.50695e-21)
(5.63633 -4.42697 0)
(5.7192 -5.34869 -2.65461e-20)
(5.85048 -6.17094 0)
(6.01569 -6.84626 -1.74078e-20)
(6.19674 -7.33521 0)
(6.37594 -7.62017 2.80822e-22)
(6.53869 -7.70633 -2.73648e-22)
(6.66553 -7.61626 -2.46824e-21)
(6.76669 -7.38281 5.73935e-23)
(6.74725 -7.00784 -5.10599e-22)
(9.99563 0.121585 0)
(9.98395 0.242058 -6.94391e-24)
(9.9627 0.363274 -7.18066e-21)
(9.93272 0.486934 -6.27499e-21)
(9.89496 0.614487 -9.08894e-22)
(9.84983 0.747285 -7.32372e-21)
(9.79748 0.88664 7.49425e-21)
(9.73805 1.03387 -7.48939e-21)
(9.67173 1.1903 0)
(9.59869 1.35732 -7.78091e-21)
(9.51911 1.53637 -2.35024e-20)
(9.43314 1.72901 2.35165e-20)
(9.34094 1.93695 -3.95246e-21)
(9.24268 2.16206 -6.46718e-20)
(9.13853 2.40648 6.47513e-20)
(9.02865 2.67266 0)
(8.91323 2.96345 0)
(8.79246 3.28223 1.26083e-20)
(8.66656 3.6331 -2.84781e-19)
(8.5358 4.02116 2.43006e-19)
(8.40056 4.45289 0)
(8.26132 4.93671 0)
(8.11885 5.4838 1.1986e-19)
(7.97453 6.10962 5.49391e-20)
(7.83101 6.83637 2.96287e-19)
(7.69456 7.69747 -4.89052e-19)
(7.58122 8.74695 0)
(7.56617 10.0775 0)
(8.11298 11.8306 -1.06288e-20)
(8.4352 14.6028 -1.02605e-18)
(9.99604 0.126012 0)
(9.98574 0.250856 6.83129e-21)
(9.96695 0.376434 -6.87595e-21)
(9.94045 0.504479 7.511e-23)
(9.90717 0.636453 5.22858e-21)
(9.86756 0.773715 8.91257e-21)
(9.82179 0.917578 -7.12589e-21)
(9.7701 1.06936 1.00212e-22)
(9.71274 1.23038 1.46977e-20)
(9.64998 1.40202 -7.4156e-21)
(9.58212 1.5857 0)
(9.50946 1.78296 0)
(9.43232 1.99547 5.72175e-21)
(9.3511 2.22508 0)
(9.26623 2.47385 1.89717e-21)
(9.17821 2.74417 0)
(9.08765 3.03881 -3.78813e-21)
(8.99532 3.36101 2.48415e-19)
(8.90218 3.71468 6.08358e-21)
(8.80955 4.10464 -2.17559e-19)
(8.71926 4.53695 -1.42513e-20)
(8.63399 5.01941 -4.45012e-19)
(8.55768 5.56204 4.093e-19)
(8.49688 6.17831 -5.26457e-20)
(8.46277 6.88652 -4.42251e-20)
(8.47631 7.71147 8.58588e-20)
(8.57594 8.68552 0)
(8.80463 9.84287 4.94246e-19)
(9.45272 11.1339 -4.43105e-19)
(10.0281 12.2505 0)
(9.99647 0.129997 0)
(9.9876 0.258767 -1.28519e-20)
(9.97137 0.388242 6.29472e-21)
(9.9485 0.520178 6.76276e-21)
(9.91988 0.656043 -6.82036e-21)
(9.88596 0.797191 -6.79506e-21)
(9.84701 0.944926 6.94835e-21)
(9.80329 1.10055 1.40683e-20)
(9.75514 1.26536 1.41634e-20)
(9.70294 1.4407 -5.68343e-20)
(9.64708 1.62797 -2.87813e-20)
(9.58802 1.82865 1.15105e-19)
(9.52627 2.04434 -5.93743e-20)
(9.46241 2.2768 0)
(9.39715 2.52799 -1.84282e-21)
(9.33132 2.80014 -7.15722e-21)
(9.26596 3.09582 3.67449e-21)
(9.20234 3.41799 0)
(9.14212 3.77017 -4.45499e-19)
(9.08749 4.15651 3.78691e-22)
(9.0415 4.58219 4.47823e-19)
(9.00854 5.05363 0)
(8.99461 5.57846 7.09461e-19)
(9.00888 6.16598 -7.66656e-19)
(9.06537 6.82727 -1.17981e-18)
(9.18475 7.57321 1.19122e-18)
(9.39745 8.40929 0)
(9.70578 9.32509 -1.99113e-20)
(10.2341 10.2781 5.54227e-22)
(10.9262 11.0738 8.57161e-22)
(9.99692 0.133493 0)
(9.98953 0.265691 7.24291e-21)
(9.97594 0.398547 -8.04809e-22)
(9.9568 0.533822 6.44618e-21)
(9.93297 0.672984 0)
(9.90491 0.81737 1.32267e-20)
(9.87292 0.968264 -3.67742e-23)
(9.83735 1.12694 -6.66394e-21)
(9.79861 1.29466 1.34545e-20)
(9.75714 1.47272 -6.84791e-21)
(9.71348 1.66244 -3.37991e-21)
(9.6682 1.86525 0)
(9.62198 2.08264 -2.17574e-22)
(9.5756 2.31623 -3.40057e-21)
(9.52999 2.56781 2.19844e-19)
(9.48629 2.83938 -2.125e-19)
(9.44592 3.13324 2.09701e-19)