# vtk DataFile Version 2.0

ASCII

DATASET UNSTRUCTURED_GRID

POINTS 100 float 

0.0000000000000000e+00  0.0000000000000000e+00  0.0000000000000000e+00
1.0000000000000000e+00  0.0000000000000000e+00  0.0000000000000000e+00
2.0000000000000000e+00  0.0000000000000000e+00  0.0000000000000000e+00
3.0000000000000000e+00  0.0000000000000000e+00  0.0000000000000000e+00
4.0000000000000000e+00  0.0000000000000000e+00  0.0000000000000000e+00
5.0000000000000000e+00  0.0000000000000000e+00  0.0000000000000000e+00
6.0000000000000000e+00  0.0000000000000000e+00  0.0000000000000000e+00
7.0000000000000000e+00  0.0000000000000000e+00  0.0000000000000000e+00
8.0000000000000000e+00  0.0000000000000000e+00  0.0000000000000000e+00
9.0000000000000000e+00  0.0000000000000000e+00  0.0000000000000000e+00
1.0000000000000000e+01  0.0000000000000000e+00  0.0000000000000000e+00
1.1000000000000000e+01  0.0000000000000000e+00  0.0000000000000000e+00
1.2000000000000000e+01  0.0000000000000000e+00  0.0000000000000000e+00
1.3000000000000000e+01  0.0000000000000000e+00  0.0000000000000000e+00
1.4000000000000000e+01  0.0000000000000000e+00  0.0000000000000000e+00
1.5000000000000000e+01  0.0000000000000000e+00  0.0000000000000000e+00
1.6000000000000000e+01  0.0000000000000000e+00  0.0000000000000000e+00
1.7000000000000000e+01  0.0000000000000000e+00  0.0000000000000000e+00
1.8000000000000000e+01  0.0000000000000000e+00  0.0000000000000000e+00
1.9000000000000000e+01  0.0000000000000000e+00  0.0000000000000000e+00
2.0000000000000000e+01  0.0000000000000000e+00  0.0000000000000000e+00
2.1000000000000000e+01  0.0000000000000000e+00  0.0000000000000000e+00
2.2000000000000000e+01  0.0000000000000000e+00  0.0000000000000000e+00
2.3000000000000000e+01  0.0000000000000000e+00  0.0000000000000000e+00
2.4000000000000000e+01  0.0000000000000000e+00  0.0000000000000000e+00
2.5000000000000000e+01  0.0000000000000000e+00  0.0000000000000000e+00
2.6000000000000000e+01  0.0000000000000000e+00  0.0000000000000000e+00
2.7000000000000000e+01  0.0000000000000000e+00  0.0000000000000000e+00
2.8000000000000000e+01  0.0000000000000000e+00  0.0000000000000000e+00
2.9000000000000000e+01  0.0000000000000000e+00  0.0000000000000000e+00
3.0000000000000000e+01  0.0000000000000000e+00  0.0000000000000000e+00
3.1000000000000000e+01  0.0000000000000000e+00  0.0000000000000000e+00
3.2000000000000000e+01  0.0000000000000000e+00  0.0000000000000000e+00
3.3000000000000000e+01  0.0000000000000000e+00  0.0000000000000000e+00
3.4000000000000000e+01  0.0000000000000000e+00  0.0000000000000000e+00
3.5000000000000000e+01  0.0000000000000000e+00  0.0000000000000000e+00
3.6000000000000000e+01  0.0000000000000000e+00  0.0000000000000000e+00
3.7000000000000000e+01  0.0000000000000000e+00  0.0000000000000000e+00
3.8000000000000000e+01  0.0000000000000000e+00  0.0000000000000000e+00
3.9000000000000000e+01  0.0000000000000000e+00  0.0000000000000000e+00
4.0000000000000000e+01  0.0000000000000000e+00  0.0000000000000000e+00
4.1000000000000000e+01  0.0000000000000000e+00  0.0000000000000000e+00
4.2000000000000000e+01  0.0000000000000000e+00  0.0000000000000000e+00
4.3000000000000000e+01  0.0000000000000000e+00  0.0000000000000000e+00
4.4000000000000000e+01  0.0000000000000000e+00  0.0000000000000000e+00
4.5000000000000000e+01  0.0000000000000000e+00  0.0000000000000000e+00
4.6000000000000000e+01  0.0000000000000000e+00  0.0000000000000000e+00
4.7000000000000000e+01  0.0000000000000000e+00  0.0000000000000000e+00
4.8000000000000000e+01  0.0000000000000000e+00  0.0000000000000000e+00
4.9000000000000000e+01  0.0000000000000000e+00  0.0000000000000000e+00
5.0000000000000000e+01  0.0000000000000000e+00  0.0000000000000000e+00
5.1000000000000000e+01  0.0000000000000000e+00  0.0000000000000000e+00
5.2000000000000000e+01  0.0000000000000000e+00  0.0000000000000000e+00
5.3000000000000000e+01  0.0000000000000000e+00  0.0000000000000000e+00
5.4000000000000000e+01  0.0000000000000000e+00  0.0000000000000000e+00
5.5000000000000000e+01  0.0000000000000000e+00  0.0000000000000000e+00
5.6000000000000000e+01  0.0000000000000000e+00  0.0000000000000000e+00
5.7000000000000000e+01  0.0000000000000000e+00  0.0000000000000000e+00
5.8000000000000000e+01  0.0000000000000000e+00  0.0000000000000000e+00
5.9000000000000000e+01  0.0000000000000000e+00  0.0000000000000000e+00
6.0000000000000000e+01  0.0000000000000000e+00  0.0000000000000000e+00
6.1000000000000000e+01  0.0000000000000000e+00  0.0000000000000000e+00
6.2000000000000000e+01  0.0000000000000000e+00  0.0000000000000000e+00
6.3000000000000000e+01  0.0000000000000000e+00  0.0000000000000000e+00
6.4000000000000000e+01  0.0000000000000000e+00  0.0000000000000000e+00
6.5000000000000000e+01  0.0000000000000000e+00  0.0000000000000000e+00
6.6000000000000000e+01  0.0000000000000000e+00  0.0000000000000000e+00
6.7000000000000000e+01  0.0000000000000000e+00  0.0000000000000000e+00
6.8000000000000000e+01  0.0000000000000000e+00  0.0000000000000000e+00
6.9000000000000000e+01  0.0000000000000000e+00  0.0000000000000000e+00
7.0000000000000000e+01  0.0000000000000000e+00  0.0000000000000000e+00
7.1000000000000000e+01  0.0000000000000000e+00  0.0000000000000000e+00
7.2000000000000000e+01  0.0000000000000000e+00  0.0000000000000000e+00
7.3000000000000000e+01  0.0000000000000000e+00  0.0000000000000000e+00
7.4000000000000000e+01  0.0000000000000000e+00  0.0000000000000000e+00
7.5000000000000000e+01  0.0000000000000000e+00  0.0000000000000000e+00
7.6000000000000000e+01  0.0000000000000000e+00  0.0000000000000000e+00
7.7000000000000000e+01  0.0000000000000000e+00  0.0000000000000000e+00
7.8000000000000000e+01  0.0000000000000000e+00  0.0000000000000000e+00
7.9000000000000000e+01  0.0000000000000000e+00  0.0000000000000000e+00
8.0000000000000000e+01  0.0000000000000000e+00  0.0000000000000000e+00
8.1000000000000000e+01  0.0000000000000000e+00  0.0000000000000000e+00
8.2000000000000000e+01  0.0000000000000000e+00  0.0000000000000000e+00
8.3000000000000000e+01  0.0000000000000000e+00  0.0000000000000000e+00
8.4000000000000000e+01  0.0000000000000000e+00  0.0000000000000000e+00
8.5000000000000000e+01  0.0000000000000000e+00  0.0000000000000000e+00
8.6000000000000000e+01  0.0000000000000000e+00  0.0000000000000000e+00
8.7000000000000000e+01  0.0000000000000000e+00  0.0000000000000000e+00
8.8000000000000000e+01  0.0000000000000000e+00  0.0000000000000000e+00
8.9000000000000000e+01  0.0000000000000000e+00  0.0000000000000000e+00
9.0000000000000000e+01  0.0000000000000000e+00  0.0000000000000000e+00
9.1000000000000000e+01  0.0000000000000000e+00  0.0000000000000000e+00
9.2000000000000000e+01  0.0000000000000000e+00  0.0000000000000000e+00
9.3000000000000000e+01  0.0000000000000000e+00  0.0000000000000000e+00
9.4000000000000000e+01  0.0000000000000000e+00  0.0000000000000000e+00
9.5000000000000000e+01  0.0000000000000000e+00  0.0000000000000000e+00
9.6000000000000000e+01  0.0000000000000000e+00  0.0000000000000000e+00
9.7000000000000000e+01  0.0000000000000000e+00  0.0000000000000000e+00
9.8000000000000000e+01  0.0000000000000000e+00  0.0000000000000000e+00
9.9000000000000000e+01  0.0000000000000000e+00  0.0000000000000000e+00

POINT_DATA 100

VECTORS velocity float
1.0018128800512551e-02  0.0000000000000000e+00  0.0000000000000000e+00
1.0018127862516759e-02  0.0000000000000000e+00  0.0000000000000000e+00
1.0018126939413903e-02  0.0000000000000000e+00  0.0000000000000000e+00
1.0018126022988887e-02  0.0000000000000000e+00  0.0000000000000000e+00
1.0018125109711194e-02  0.0000000000000000e+00  0.0000000000000000e+00
1.0018124198066055e-02  0.0000000000000000e+00  0.0000000000000000e+00
1.0018123287404536e-02  0.0000000000000000e+00  0.0000000000000000e+00
1.0018122377449059e-02  0.0000000000000000e+00  0.0000000000000000e+00
1.0018121468081011e-02  0.0000000000000000e+00  0.0000000000000000e+00
1.0018120559249773e-02  0.0000000000000000e+00  0.0000000000000000e+00
1.0018119650933782e-02  0.0000000000000000e+00  0.0000000000000000e+00
1.0018118743123855e-02  0.0000000000000000e+00  0.0000000000000000e+00
1.0018117835816097e-02  0.0000000000000000e+00  0.0000000000000000e+00
1.0018116929008884e-02  0.0000000000000000e+00  0.0000000000000000e+00
1.0018116022701494e-02  0.0000000000000000e+00  0.0000000000000000e+00
1.0018115116893652e-02  0.0000000000000000e+00  0.0000000000000000e+00
1.0018114211585256e-02  0.0000000000000000e+00  0.0000000000000000e+00
1.0018113306776188e-02  0.0000000000000000e+00  0.0000000000000000e+00
1.0018112402466448e-02  0.0000000000000000e+00  0.0000000000000000e+00
1.0018111498656048e-02  0.0000000000000000e+00  0.0000000000000000e+00
1.0018110595345008e-02  0.0000000000000000e+00  0.0000000000000000e+00
1.0018109692533318e-02  0.0000000000000000e+00  0.0000000000000000e+00
1.0018108790221001e-02  0.0000000000000000e+00  0.0000000000000000e+00
1.0018107888408064e-02  0.0000000000000000e+00  0.0000000000000000e+00
1.0018106987094471e-02  0.0000000000000000e+00  0.0000000000000000e+00
1.0018106086280239e-02  0.0000000000000000e+00  0.0000000000000000e+00
1.0018105185965378e-02  0.0000000000000000e+00  0.0000000000000000e+00
1.0018104286149918e-02  0.0000000000000000e+00  0.0000000000000000e+00
1.0018103386833847e-02  0.0000000000000000e+00  0.0000000000000000e+00
1.0018102488017188e-02  0.0000000000000000e+00  0.0000000000000000e+00
1.0018101589699924e-02  0.0000000000000000e+00  0.0000000000000000e+00
1.0018100691882036e-02  0.0000000000000000e+00  0.0000000000000000e+00
1.0018099794563584e-02  0.0000000000000000e+00  0.0000000000000000e+00
1.0018098897744578e-02  0.0000000000000000e+00  0.0000000000000000e+00
1.0018098001424974e-02  0.0000000000000000e+00  0.0000000000000000e+00
1.0018097105604782e-02  0.0000000000000000e+00  0.0000000000000000e+00
1.0018096210284034e-02  0.0000000000000000e+00  0.0000000000000000e+00
1.0018095315462716e-02  0.0000000000000000e+00  0.0000000000000000e+00
1.0018094421140817e-02  0.0000000000000000e+00  0.0000000000000000e+00
1.0018093527318361e-02  0.0000000000000000e+00  0.0000000000000000e+00
1.0018092633995392e-02  0.0000000000000000e+00  0.0000000000000000e+00
1.0018091741171907e-02  0.0000000000000000e+00  0.0000000000000000e+00
1.0018090848847900e-02  0.0000000000000000e+00  0.0000000000000000e+00
1.0018089957023359e-02  0.0000000000000000e+00  0.0000000000000000e+00
1.0018089065698293e-02  0.0000000000000000e+00  0.0000000000000000e+00
1.0018088174872703e-02  0.0000000000000000e+00  0.0000000000000000e+00
1.0018087284546560e-02  0.0000000000000000e+00  0.0000000000000000e+00
1.0018086394719905e-02  0.0000000000000000e+00  0.0000000000000000e+00
1.0018085505392748e-02  0.0000000000000000e+00  0.0000000000000000e+00
1.0018084616565122e-02  0.0000000000000000e+00  0.0000000000000000e+00
1.0018083728237023e-02  0.0000000000000000e+00  0.0000000000000000e+00
1.0018082840408438e-02  0.0000000000000000e+00  0.0000000000000000e+00
1.0018081953079384e-02  0.0000000000000000e+00  0.0000000000000000e+00
1.0018081066249830e-02  0.0000000000000000e+00  0.0000000000000000e+00
1.0018080179919819e-02  0.0000000000000000e+00  0.0000000000000000e+00
1.0018079294089361e-02  0.0000000000000000e+00  0.0000000000000000e+00
1.0018078408758424e-02  0.0000000000000000e+00  0.0000000000000000e+00
1.0018077523927050e-02  0.0000000000000000e+00  0.0000000000000000e+00
1.0018076639595242e-02  0.0000000000000000e+00  0.0000000000000000e+00
1.0018075755762966e-02  0.0000000000000000e+00  0.0000000000000000e+00
1.0018074872430267e-02  0.0000000000000000e+00  0.0000000000000000e+00
1.0018073989597144e-02  0.0000000000000000e+00  0.0000000000000000e+00
1.0018073107263581e-02  0.0000000000000000e+00  0.0000000000000000e+00
1.0018072225429586e-02  0.0000000000000000e+00  0.0000000000000000e+00
1.0018071344095209e-02  0.0000000000000000e+00  0.0000000000000000e+00
1.0018070463260437e-02  0.0000000000000000e+00  0.0000000000000000e+00
1.0018069582925254e-02  0.0000000000000000e+00  0.0000000000000000e+00
1.0018068703089666e-02  0.0000000000000000e+00  0.0000000000000000e+00
1.0018067823753656e-02  0.0000000000000000e+00  0.0000000000000000e+00
1.0018066944917277e-02  0.0000000000000000e+00  0.0000000000000000e+00
1.0018066066580523e-02  0.0000000000000000e+00  0.0000000000000000e+00
1.0018065188743418e-02  0.0000000000000000e+00  0.0000000000000000e+00
1.0018064311405957e-02  0.0000000000000000e+00  0.0000000000000000e+00
1.0018063434568115e-02  0.0000000000000000e+00  0.0000000000000000e+00
1.0018062558229908e-02  0.0000000000000000e+00  0.0000000000000000e+00
1.0018061682391367e-02  0.0000000000000000e+00  0.0000000000000000e+00
1.0018060807052500e-02  0.0000000000000000e+00  0.0000000000000000e+00
1.0018059932213273e-02  0.0000000000000000e+00  0.0000000000000000e+00
1.0018059057873709e-02  0.0000000000000000e+00  0.0000000000000000e+00
1.0018058184033826e-02  0.0000000000000000e+00  0.0000000000000000e+00
1.0018057310693645e-02  0.0000000000000000e+00  0.0000000000000000e+00
1.0018056437853138e-02  0.0000000000000000e+00  0.0000000000000000e+00
1.0018055565512322e-02  0.0000000000000000e+00  0.0000000000000000e+00
1.0018054693671225e-02  0.0000000000000000e+00  0.0000000000000000e+00
1.0018053822329814e-02  0.0000000000000000e+00  0.0000000000000000e+00
1.0018052951488110e-02  0.0000000000000000e+00  0.0000000000000000e+00
1.0018052081146119e-02  0.0000000000000000e+00  0.0000000000000000e+00
1.0018051211303875e-02  0.0000000000000000e+00  0.0000000000000000e+00
1.0018050341961347e-02  0.0000000000000000e+00  0.0000000000000000e+00
1.0018049473118563e-02  0.0000000000000000e+00  0.0000000000000000e+00
1.0018048604775412e-02  0.0000000000000000e+00  0.0000000000000000e+00
1.0018047736932182e-02  0.0000000000000000e+00  0.0000000000000000e+00
1.0018046869588211e-02  0.0000000000000000e+00  0.0000000000000000e+00
1.0018046002745147e-02  0.0000000000000000e+00  0.0000000000000000e+00
1.0018045136399107e-02  0.0000000000000000e+00  0.0000000000000000e+00
1.0018044270559306e-02  0.0000000000000000e+00  0.0000000000000000e+00
1.0018043405203793e-02  0.0000000000000000e+00  0.0000000000000000e+00
1.0018042540385089e-02  0.0000000000000000e+00  0.0000000000000000e+00
1.0018041675977942e-02  0.0000000000000000e+00  0.0000000000000000e+00
1.0018040812280620e-02  0.0000000000000000e+00  0.0000000000000000e+00

SCALARS pressure float
LOOKUP_TABLE default
1.5554559008415895e-05
1.5579394949560846e-05
1.5604230890705794e-05
1.5629067037740595e-05
1.5653903479126956e-05
1.5678740252885134e-05
1.5703577375403383e-05
1.5728414853806949e-05
1.5753252691260047e-05
1.5778090889234992e-05
1.5802929448482302e-05
1.5827768369444808e-05
1.5852607652434823e-05
1.5877447297709004e-05
1.5902287305500616e-05
1.5927127676033047e-05
1.5951968409525598e-05
1.5976809506195164e-05
1.6001650966257798e-05
1.6026492789929175e-05
1.6051334977425141e-05
1.6076177528961814e-05
1.6101020444755166e-05
1.6125863725021602e-05
1.6150707369976761e-05
1.6175551379836435e-05
1.6200395754816238e-05
1.6225240495132287e-05
1.6250085601000570e-05
1.6274931072637192e-05
1.6299776910258207e-05
1.6324623114079247e-05
1.6349469684316243e-05
1.6374316621185714e-05
1.6399163924903477e-05
1.6424011595685347e-05
1.6448859633747302e-05
1.6473708039305395e-05
1.6498556812575289e-05
1.6523405953772738e-05
1.6548255463113813e-05
1.6573105340815218e-05
1.6597955587093179e-05
1.6622806202164063e-05
1.6647657186243659e-05
1.6672508539548087e-05
1.6697360262292962e-05
1.6722212354694193e-05
1.6747064816967522e-05
1.6771917649329336e-05
1.6796770851995872e-05
1.6821624425183500e-05
1.6846478369108554e-05
1.6871332683986945e-05
1.6896187370034726e-05
1.6921042427468198e-05
1.6945897856503533e-05
1.6970753657356800e-05
1.6995609830244082e-05
1.7020466375381486e-05
1.7045323292985255e-05
1.7070180583271688e-05
1.7095038246456679e-05
1.7119896282756367e-05
1.7144754692386967e-05
1.7169613475565098e-05
1.7194472632507121e-05
1.7219332163429048e-05
1.7244192068546725e-05
1.7269052348076198e-05
1.7293913002233812e-05
1.7318774031235939e-05
1.7343635435299231e-05
1.7368497214639934e-05
1.7393359369474186e-05
1.7418221900018307e-05
1.7443084806488809e-05
1.7467948089102039e-05
1.7492811748074196e-05
1.7517675783621410e-05
1.7542540195960445e-05
1.7567404985307764e-05
1.7592270151879752e-05
1.7617135695892945e-05
1.7642001617563662e-05
1.7666867917108320e-05
1.7691734594743230e-05
1.7716601650684817e-05
1.7741469085149865e-05
1.7766336898354878e-05
1.7791205090515442e-05
1.7816073661848868e-05
1.7840942612568453e-05
1.7865811942897444e-05
1.7890681653036259e-05
1.7915551743238930e-05
1.7940422213631896e-05
1.7965293064646849e-05
1.7990164295988471e-05
1.8015035909091723e-05

SCALARS diameter float
LOOKUP_TABLE default
1.0000132483208759e+00
1.0000132719469059e+00
1.0000132955729351e+00
1.0000133191991512e+00
1.0000133428256333e+00
1.0000133664524169e+00
1.0000133900795145e+00
1.0000134137069367e+00
1.0000134373346832e+00
1.0000134609627569e+00
1.0000134845911577e+00
1.0000135082198875e+00
1.0000135318489445e+00
1.0000135554783303e+00
1.0000135791080449e+00
1.0000136027380888e+00
1.0000136263684614e+00
1.0000136499991648e+00
1.0000136736301966e+00
1.0000136972615585e+00
1.0000137208932509e+00
1.0000137445252744e+00
1.0000137681576278e+00
1.0000137917903118e+00
1.0000138154233278e+00
1.0000138390566751e+00
1.0000138626903547e+00
1.0000138863243646e+00
1.0000139099587071e+00
1.0000139335933822e+00
1.0000139572283899e+00
1.0000139808637312e+00
1.0000140044994046e+00
1.0000140281354115e+00
1.0000140517717520e+00
1.0000140754084259e+00
1.0000140990454345e+00
1.0000141226827768e+00
1.0000141463204533e+00
1.0000141699584653e+00
1.0000141935968119e+00
1.0000142172354933e+00
1.0000142408745112e+00
1.0000142645138643e+00
1.0000142881535532e+00
1.0000143117935778e+00
1.0000143354339390e+00
1.0000143590746373e+00
1.0000143827156718e+00
1.0000144063570433e+00
1.0000144299987523e+00
1.0000144536407991e+00
1.0000144772831843e+00
1.0000145009259060e+00
1.0000145245689676e+00
1.0000145482123668e+00
1.0000145718561049e+00
1.0000145955001805e+00
1.0000146191445969e+00
1.0000146427893533e+00
1.0000146664344485e+00
1.0000146900798836e+00
1.0000147137256588e+00
1.0000147373717747e+00
1.0000147610182306e+00
1.0000147846650282e+00
1.0000148083121667e+00
1.0000148319596467e+00
1.0000148556074673e+00
1.0000148792556309e+00
1.0000149029041352e+00
1.0000149265529830e+00
1.0000149502021727e+00
1.0000149738517052e+00
1.0000149975015811e+00
1.0000150211517993e+00
1.0000150448023624e+00
1.0000150684532680e+00
1.0000150921045172e+00
1.0000151157561126e+00
1.0000151394080508e+00
1.0000151630603342e+00
1.0000151867129621e+00
1.0000152103659343e+00
1.0000152340192532e+00
1.0000152576729175e+00
1.0000152813269265e+00
1.0000153049812832e+00
1.0000153286359854e+00
1.0000153522910340e+00
1.0000153759464299e+00
1.0000153996021723e+00
1.0000154232582623e+00
1.0000154469146996e+00
1.0000154705714843e+00
1.0000154942286175e+00
1.0000155178860988e+00
1.0000155415439287e+00
1.0000155652021068e+00
1.0000155888606341e+00

