# vtk DataFile Version 2.0

ASCII

DATASET UNSTRUCTURED_GRID

POINTS 100 float 

0.0000000000000000e+00  0.0000000000000000e+00  0.0000000000000000e+00
1.0000000000000000e+00  0.0000000000000000e+00  0.0000000000000000e+00
2.0000000000000000e+00  0.0000000000000000e+00  0.0000000000000000e+00
3.0000000000000000e+00  0.0000000000000000e+00  0.0000000000000000e+00
4.0000000000000000e+00  0.0000000000000000e+00  0.0000000000000000e+00
5.0000000000000000e+00  0.0000000000000000e+00  0.0000000000000000e+00
6.0000000000000000e+00  0.0000000000000000e+00  0.0000000000000000e+00
7.0000000000000000e+00  0.0000000000000000e+00  0.0000000000000000e+00
8.0000000000000000e+00  0.0000000000000000e+00  0.0000000000000000e+00
9.0000000000000000e+00  0.0000000000000000e+00  0.0000000000000000e+00
1.0000000000000000e+01  0.0000000000000000e+00  0.0000000000000000e+00
1.1000000000000000e+01  0.0000000000000000e+00  0.0000000000000000e+00
1.2000000000000000e+01  0.0000000000000000e+00  0.0000000000000000e+00
1.3000000000000000e+01  0.0000000000000000e+00  0.0000000000000000e+00
1.4000000000000000e+01  0.0000000000000000e+00  0.0000000000000000e+00
1.5000000000000000e+01  0.0000000000000000e+00  0.0000000000000000e+00
1.6000000000000000e+01  0.0000000000000000e+00  0.0000000000000000e+00
1.7000000000000000e+01  0.0000000000000000e+00  0.0000000000000000e+00
1.8000000000000000e+01  0.0000000000000000e+00  0.0000000000000000e+00
1.9000000000000000e+01  0.0000000000000000e+00  0.0000000000000000e+00
2.0000000000000000e+01  0.0000000000000000e+00  0.0000000000000000e+00
2.1000000000000000e+01  0.0000000000000000e+00  0.0000000000000000e+00
2.2000000000000000e+01  0.0000000000000000e+00  0.0000000000000000e+00
2.3000000000000000e+01  0.0000000000000000e+00  0.0000000000000000e+00
2.4000000000000000e+01  0.0000000000000000e+00  0.0000000000000000e+00
2.5000000000000000e+01  0.0000000000000000e+00  0.0000000000000000e+00
2.6000000000000000e+01  0.0000000000000000e+00  0.0000000000000000e+00
2.7000000000000000e+01  0.0000000000000000e+00  0.0000000000000000e+00
2.8000000000000000e+01  0.0000000000000000e+00  0.0000000000000000e+00
2.9000000000000000e+01  0.0000000000000000e+00  0.0000000000000000e+00
3.0000000000000000e+01  0.0000000000000000e+00  0.0000000000000000e+00
3.1000000000000000e+01  0.0000000000000000e+00  0.0000000000000000e+00
3.2000000000000000e+01  0.0000000000000000e+00  0.0000000000000000e+00
3.3000000000000000e+01  0.0000000000000000e+00  0.0000000000000000e+00
3.4000000000000000e+01  0.0000000000000000e+00  0.0000000000000000e+00
3.5000000000000000e+01  0.0000000000000000e+00  0.0000000000000000e+00
3.6000000000000000e+01  0.0000000000000000e+00  0.0000000000000000e+00
3.7000000000000000e+01  0.0000000000000000e+00  0.0000000000000000e+00
3.8000000000000000e+01  0.0000000000000000e+00  0.0000000000000000e+00
3.9000000000000000e+01  0.0000000000000000e+00  0.0000000000000000e+00
4.0000000000000000e+01  0.0000000000000000e+00  0.0000000000000000e+00
4.1000000000000000e+01  0.0000000000000000e+00  0.0000000000000000e+00
4.2000000000000000e+01  0.0000000000000000e+00  0.0000000000000000e+00
4.3000000000000000e+01  0.0000000000000000e+00  0.0000000000000000e+00
4.4000000000000000e+01  0.0000000000000000e+00  0.0000000000000000e+00
4.5000000000000000e+01  0.0000000000000000e+00  0.0000000000000000e+00
4.6000000000000000e+01  0.0000000000000000e+00  0.0000000000000000e+00
4.7000000000000000e+01  0.0000000000000000e+00  0.0000000000000000e+00
4.8000000000000000e+01  0.0000000000000000e+00  0.0000000000000000e+00
4.9000000000000000e+01  0.0000000000000000e+00  0.0000000000000000e+00
5.0000000000000000e+01  0.0000000000000000e+00  0.0000000000000000e+00
5.1000000000000000e+01  0.0000000000000000e+00  0.0000000000000000e+00
5.2000000000000000e+01  0.0000000000000000e+00  0.0000000000000000e+00
5.3000000000000000e+01  0.0000000000000000e+00  0.0000000000000000e+00
5.4000000000000000e+01  0.0000000000000000e+00  0.0000000000000000e+00
5.5000000000000000e+01  0.0000000000000000e+00  0.0000000000000000e+00
5.6000000000000000e+01  0.0000000000000000e+00  0.0000000000000000e+00
5.7000000000000000e+01  0.0000000000000000e+00  0.0000000000000000e+00
5.8000000000000000e+01  0.0000000000000000e+00  0.0000000000000000e+00
5.9000000000000000e+01  0.0000000000000000e+00  0.0000000000000000e+00
6.0000000000000000e+01  0.0000000000000000e+00  0.0000000000000000e+00
6.1000000000000000e+01  0.0000000000000000e+00  0.0000000000000000e+00
6.2000000000000000e+01  0.0000000000000000e+00  0.0000000000000000e+00
6.3000000000000000e+01  0.0000000000000000e+00  0.0000000000000000e+00
6.4000000000000000e+01  0.0000000000000000e+00  0.0000000000000000e+00
6.5000000000000000e+01  0.0000000000000000e+00  0.0000000000000000e+00
6.6000000000000000e+01  0.0000000000000000e+00  0.0000000000000000e+00
6.7000000000000000e+01  0.0000000000000000e+00  0.0000000000000000e+00
6.8000000000000000e+01  0.0000000000000000e+00  0.0000000000000000e+00
6.9000000000000000e+01  0.0000000000000000e+00  0.0000000000000000e+00
7.0000000000000000e+01  0.0000000000000000e+00  0.0000000000000000e+00
7.1000000000000000e+01  0.0000000000000000e+00  0.0000000000000000e+00
7.2000000000000000e+01  0.0000000000000000e+00  0.0000000000000000e+00
7.3000000000000000e+01  0.0000000000000000e+00  0.0000000000000000e+00
7.4000000000000000e+01  0.0000000000000000e+00  0.0000000000000000e+00
7.5000000000000000e+01  0.0000000000000000e+00  0.0000000000000000e+00
7.6000000000000000e+01  0.0000000000000000e+00  0.0000000000000000e+00
7.7000000000000000e+01  0.0000000000000000e+00  0.0000000000000000e+00
7.8000000000000000e+01  0.0000000000000000e+00  0.0000000000000000e+00
7.9000000000000000e+01  0.0000000000000000e+00  0.0000000000000000e+00
8.0000000000000000e+01  0.0000000000000000e+00  0.0000000000000000e+00
8.1000000000000000e+01  0.0000000000000000e+00  0.0000000000000000e+00
8.2000000000000000e+01  0.0000000000000000e+00  0.0000000000000000e+00
8.3000000000000000e+01  0.0000000000000000e+00  0.0000000000000000e+00
8.4000000000000000e+01  0.0000000000000000e+00  0.0000000000000000e+00
8.5000000000000000e+01  0.0000000000000000e+00  0.0000000000000000e+00
8.6000000000000000e+01  0.0000000000000000e+00  0.0000000000000000e+00
8.7000000000000000e+01  0.0000000000000000e+00  0.0000000000000000e+00
8.8000000000000000e+01  0.0000000000000000e+00  0.0000000000000000e+00
8.9000000000000000e+01  0.0000000000000000e+00  0.0000000000000000e+00
9.0000000000000000e+01  0.0000000000000000e+00  0.0000000000000000e+00
9.1000000000000000e+01  0.0000000000000000e+00  0.0000000000000000e+00
9.2000000000000000e+01  0.0000000000000000e+00  0.0000000000000000e+00
9.3000000000000000e+01  0.0000000000000000e+00  0.0000000000000000e+00
9.4000000000000000e+01  0.0000000000000000e+00  0.0000000000000000e+00
9.5000000000000000e+01  0.0000000000000000e+00  0.0000000000000000e+00
9.6000000000000000e+01  0.0000000000000000e+00  0.0000000000000000e+00
9.7000000000000000e+01  0.0000000000000000e+00  0.0000000000000000e+00
9.8000000000000000e+01  0.0000000000000000e+00  0.0000000000000000e+00
9.9000000000000000e+01  0.0000000000000000e+00  0.0000000000000000e+00

POINT_DATA 100

VECTORS velocity float
1.0065450849718733e-02  0.0000000000000000e+00  0.0000000000000000e+00
1.0065450786643469e-02  0.0000000000000000e+00  0.0000000000000000e+00
1.0065450751366627e-02  0.0000000000000000e+00  0.0000000000000000e+00
1.0065450727992416e-02  0.0000000000000000e+00  0.0000000000000000e+00
1.0065450709903620e-02  0.0000000000000000e+00  0.0000000000000000e+00
1.0065450694346259e-02  0.0000000000000000e+00  0.0000000000000000e+00
1.0065450680174941e-02  0.0000000000000000e+00  0.0000000000000000e+00
1.0065450666913705e-02  0.0000000000000000e+00  0.0000000000000000e+00
1.0065450654363685e-02  0.0000000000000000e+00  0.0000000000000000e+00
1.0065450642443210e-02  0.0000000000000000e+00  0.0000000000000000e+00
1.0065450631118413e-02  0.0000000000000000e+00  0.0000000000000000e+00
1.0065450620374474e-02  0.0000000000000000e+00  0.0000000000000000e+00
1.0065450610205993e-02  0.0000000000000000e+00  0.0000000000000000e+00
1.0065450600610372e-02  0.0000000000000000e+00  0.0000000000000000e+00
1.0065450591586275e-02  0.0000000000000000e+00  0.0000000000000000e+00
1.0065450583133640e-02  0.0000000000000000e+00  0.0000000000000000e+00
1.0065450575252202e-02  0.0000000000000000e+00  0.0000000000000000e+00
1.0065450567942176e-02  0.0000000000000000e+00  0.0000000000000000e+00
1.0065450561203370e-02  0.0000000000000000e+00  0.0000000000000000e+00
1.0065450555035622e-02  0.0000000000000000e+00  0.0000000000000000e+00
1.0065450549438974e-02  0.0000000000000000e+00  0.0000000000000000e+00
1.0065450544413488e-02  0.0000000000000000e+00  0.0000000000000000e+00
1.0065450539959353e-02  0.0000000000000000e+00  0.0000000000000000e+00
1.0065450536076393e-02  0.0000000000000000e+00  0.0000000000000000e+00
1.0065450532764792e-02  0.0000000000000000e+00  0.0000000000000000e+00
1.0065450530024844e-02  0.0000000000000000e+00  0.0000000000000000e+00
1.0065450527856134e-02  0.0000000000000000e+00  0.0000000000000000e+00
1.0065450526258624e-02  0.0000000000000000e+00  0.0000000000000000e+00
1.0065450525232666e-02  0.0000000000000000e+00  0.0000000000000000e+00
1.0065450524777858e-02  0.0000000000000000e+00  0.0000000000000000e+00
1.0065450524894132e-02  0.0000000000000000e+00  0.0000000000000000e+00
1.0065450525582033e-02  0.0000000000000000e+00  0.0000000000000000e+00
1.0065450526841433e-02  0.0000000000000000e+00  0.0000000000000000e+00
1.0065450528672299e-02  0.0000000000000000e+00  0.0000000000000000e+00
1.0065450531074497e-02  0.0000000000000000e+00  0.0000000000000000e+00
1.0065450534048132e-02  0.0000000000000000e+00  0.0000000000000000e+00
1.0065450537593123e-02  0.0000000000000000e+00  0.0000000000000000e+00
1.0065450541709420e-02  0.0000000000000000e+00  0.0000000000000000e+00
1.0065450546397519e-02  0.0000000000000000e+00  0.0000000000000000e+00
1.0065450551656958e-02  0.0000000000000000e+00  0.0000000000000000e+00
1.0065450557487836e-02  0.0000000000000000e+00  0.0000000000000000e+00
1.0065450563890301e-02  0.0000000000000000e+00  0.0000000000000000e+00
1.0065450570864162e-02  0.0000000000000000e+00  0.0000000000000000e+00
1.0065450578409702e-02  0.0000000000000000e+00  0.0000000000000000e+00
1.0065450586526515e-02  0.0000000000000000e+00  0.0000000000000000e+00
1.0065450595214994e-02  0.0000000000000000e+00  0.0000000000000000e+00
1.0065450604475347e-02  0.0000000000000000e+00  0.0000000000000000e+00
1.0065450614307095e-02  0.0000000000000000e+00  0.0000000000000000e+00
1.0065450624710577e-02  0.0000000000000000e+00  0.0000000000000000e+00
1.0065450635685735e-02  0.0000000000000000e+00  0.0000000000000000e+00
1.0065450647232318e-02  0.0000000000000000e+00  0.0000000000000000e+00
1.0065450659350616e-02  0.0000000000000000e+00  0.0000000000000000e+00
1.0065450672040593e-02  0.0000000000000000e+00  0.0000000000000000e+00
1.0065450685302017e-02  0.0000000000000000e+00  0.0000000000000000e+00
1.0065450699135463e-02  0.0000000000000000e+00  0.0000000000000000e+00
1.0065450713540647e-02  0.0000000000000000e+00  0.0000000000000000e+00
1.0065450728517406e-02  0.0000000000000000e+00  0.0000000000000000e+00
1.0065450744065937e-02  0.0000000000000000e+00  0.0000000000000000e+00
1.0065450760186303e-02  0.0000000000000000e+00  0.0000000000000000e+00
1.0065450776878570e-02  0.0000000000000000e+00  0.0000000000000000e+00
1.0065450794142811e-02  0.0000000000000000e+00  0.0000000000000000e+00
1.0065450811978714e-02  0.0000000000000000e+00  0.0000000000000000e+00
1.0065450830386067e-02  0.0000000000000000e+00  0.0000000000000000e+00
1.0065450849365679e-02  0.0000000000000000e+00  0.0000000000000000e+00
1.0065450868916961e-02  0.0000000000000000e+00  0.0000000000000000e+00
1.0065450889039998e-02  0.0000000000000000e+00  0.0000000000000000e+00
1.0065450909735119e-02  0.0000000000000000e+00  0.0000000000000000e+00
1.0065450931001876e-02  0.0000000000000000e+00  0.0000000000000000e+00
1.0065450952840567e-02  0.0000000000000000e+00  0.0000000000000000e+00
1.0065450975251451e-02  0.0000000000000000e+00  0.0000000000000000e+00
1.0065450998234105e-02  0.0000000000000000e+00  0.0000000000000000e+00
1.0065451021788702e-02  0.0000000000000000e+00  0.0000000000000000e+00
1.0065451045915469e-02  0.0000000000000000e+00  0.0000000000000000e+00
1.0065451070614229e-02  0.0000000000000000e+00  0.0000000000000000e+00
1.0065451095884760e-02  0.0000000000000000e+00  0.0000000000000000e+00
1.0065451121727520e-02  0.0000000000000000e+00  0.0000000000000000e+00
1.0065451148142257e-02  0.0000000000000000e+00  0.0000000000000000e+00
1.0065451175128859e-02  0.0000000000000000e+00  0.0000000000000000e+00
1.0065451202687543e-02  0.0000000000000000e+00  0.0000000000000000e+00
1.0065451230818688e-02  0.0000000000000000e+00  0.0000000000000000e+00
1.0065451259521727e-02  0.0000000000000000e+00  0.0000000000000000e+00
1.0065451288796547e-02  0.0000000000000000e+00  0.0000000000000000e+00
1.0065451318643800e-02  0.0000000000000000e+00  0.0000000000000000e+00
1.0065451349062820e-02  0.0000000000000000e+00  0.0000000000000000e+00
1.0065451380054274e-02  0.0000000000000000e+00  0.0000000000000000e+00
1.0065451411617826e-02  0.0000000000000000e+00  0.0000000000000000e+00
1.0065451443753507e-02  0.0000000000000000e+00  0.0000000000000000e+00
1.0065451476461299e-02  0.0000000000000000e+00  0.0000000000000000e+00
1.0065451509741155e-02  0.0000000000000000e+00  0.0000000000000000e+00
1.0065451543593484e-02  0.0000000000000000e+00  0.0000000000000000e+00
1.0065451578018152e-02  0.0000000000000000e+00  0.0000000000000000e+00
1.0065451613015317e-02  0.0000000000000000e+00  0.0000000000000000e+00
1.0065451648584110e-02  0.0000000000000000e+00  0.0000000000000000e+00
1.0065451684726213e-02  0.0000000000000000e+00  0.0000000000000000e+00
1.0065451721437885e-02  0.0000000000000000e+00  0.0000000000000000e+00
1.0065451758728245e-02  0.0000000000000000e+00  0.0000000000000000e+00
1.0065451796575146e-02  0.0000000000000000e+00  0.0000000000000000e+00
1.0065451835033778e-02  0.0000000000000000e+00  0.0000000000000000e+00
1.0065451873968716e-02  0.0000000000000000e+00  0.0000000000000000e+00
1.0065451913710445e-02  0.0000000000000000e+00  0.0000000000000000e+00

SCALARS pressure float
LOOKUP_TABLE default
6.2493212219807536e-05
6.2522762960895046e-05
6.2552313701982556e-05
6.2581864828435783e-05
6.2611416500531412e-05
6.2640968784850759e-05
6.2670521708987515e-05
6.2700075284325126e-05
6.2729629515499003e-05
6.2759184404341664e-05
6.2788739951527483e-05
6.2818296157244366e-05
6.2847853021478760e-05
6.2877410544136679e-05
6.2906968725083667e-05
6.2936527564172153e-05
6.2966087061249953e-05
6.2995647216164779e-05
6.3025208028763880e-05
6.3054769498890561e-05
6.3084331626387370e-05
6.3113894411097449e-05
6.3143457852865364e-05
6.3173021951536183e-05
6.3202586706954608e-05
6.3232152118969351e-05
6.3261718187427555e-05
6.3291284912172523e-05
6.3320852293050436e-05
6.3350420329905859e-05
6.3379989022578601e-05
6.3409558370913771e-05
6.3439128374759201e-05
6.3468699033960825e-05
6.3498270348362912e-05
6.3527842317809852e-05
6.3557414942146047e-05
6.3586988221213395e-05
6.3616562154858425e-05
6.3646136742926803e-05
6.3675711985261603e-05
6.3705287881707907e-05
6.3734864432109630e-05
6.3764441636311094e-05
6.3794019494155550e-05
6.3823598005486223e-05
6.3853177170151041e-05
6.3882756987995165e-05
6.3912337458862822e-05
6.3941918582600111e-05
6.3971500359050120e-05
6.4001082788056303e-05
6.4030665869463512e-05
6.4060249603114497e-05
6.4089833988854568e-05
6.4119419026530746e-05
6.4149004715986931e-05
6.4178591057067081e-05
6.4208178049616357e-05
6.4237765693481467e-05
6.4267353988509959e-05
6.4296942934547049e-05
6.4326532531432654e-05
6.4356122779012656e-05
6.4385713677133139e-05
6.4415305225636458e-05
6.4444897424368510e-05
6.4474490273172855e-05
6.4504083771892680e-05
6.4533677920375300e-05
6.4563272718466393e-05
6.4592868166009318e-05
6.4622464262851042e-05
6.4652061008837756e-05
6.4681658403812955e-05
6.4711256447621017e-05
6.4740855140108837e-05
6.4770454481118665e-05
6.4800054470494673e-05
6.4829655108084884e-05
6.4859256393736236e-05
6.4888858327288604e-05
6.4918460908588074e-05
6.4948064137478032e-05
6.4977668013803708e-05
6.5007272537411309e-05
6.5036877708145291e-05
6.5066483525849788e-05
6.5096089990367414e-05
6.5125697101544618e-05
6.5155304859229260e-05
6.5184913263270229e-05
6.5214522313508744e-05
6.5244132009794684e-05
6.5273742351956569e-05
6.5303353339875731e-05
6.5332964973303348e-05
6.5362577252320314e-05
6.5392190176204889e-05
6.5421803746186938e-05

SCALARS diameter float
LOOKUP_TABLE default
1.0000594304474326e+00
1.0000594606717348e+00
1.0000594908960379e+00
1.0000595211207270e+00
1.0000595513459642e+00
1.0000595815718147e+00
1.0000596117983063e+00
1.0000596420254522e+00
1.0000596722532544e+00
1.0000597024817168e+00
1.0000597327108400e+00
1.0000597629406229e+00
1.0000597931710669e+00
1.0000598234021707e+00
1.0000598536339349e+00
1.0000598838663599e+00
1.0000599140994439e+00
1.0000599443331883e+00
1.0000599745675922e+00
1.0000600048026567e+00
1.0000600350383806e+00
1.0000600652747629e+00
1.0000600955118055e+00
1.0000601257495059e+00
1.0000601559878659e+00
1.0000601862268850e+00
1.0000602164665624e+00
1.0000602467068989e+00
1.0000602769478935e+00
1.0000603071895466e+00
1.0000603374318580e+00
1.0000603676748270e+00
1.0000603979184539e+00
1.0000604281627388e+00
1.0000604584076820e+00
1.0000604886532818e+00
1.0000605188995397e+00
1.0000605491464545e+00
1.0000605793940265e+00
1.0000606096422546e+00
1.0000606398911405e+00
1.0000606701406833e+00
1.0000607003908826e+00
1.0000607306417382e+00
1.0000607608932497e+00
1.0000607911454180e+00
1.0000608213982423e+00
1.0000608516517222e+00
1.0000608819058583e+00
1.0000609121606492e+00
1.0000609424160962e+00
1.0000609726721994e+00
1.0000610029289563e+00
1.0000610331863689e+00
1.0000610634444362e+00
1.0000610937031595e+00
1.0000611239625363e+00
1.0000611542225686e+00
1.0000611844832543e+00
1.0000612147445955e+00
1.0000612450065902e+00
1.0000612752692386e+00
1.0000613055325422e+00
1.0000613357964991e+00
1.0000613660611086e+00
1.0000613963263729e+00
1.0000614265922902e+00
1.0000614568588606e+00
1.0000614871260840e+00
1.0000615173939604e+00
1.0000615476624906e+00
1.0000615779316728e+00
1.0000616082015072e+00
1.0000616384719954e+00
1.0000616687431343e+00
1.0000616990149269e+00
1.0000617292873701e+00
1.0000617595604668e+00
1.0000617898342146e+00
1.0000618201086136e+00
1.0000618503836645e+00
1.0000618806593669e+00
1.0000619109357203e+00
1.0000619412127252e+00
1.0000619714903816e+00
1.0000620017686885e+00
1.0000620320476457e+00
1.0000620623272538e+00
1.0000620926075126e+00
1.0000621228884214e+00
1.0000621531699800e+00
1.0000621834521901e+00
1.0000622137350490e+00
1.0000622440185587e+00
1.0000622743027165e+00
1.0000623045875257e+00
1.0000623348729833e+00
1.0000623651590907e+00
1.0000623954458467e+00
1.0000624257332524e+00

