# vtk DataFile Version 2.0

ASCII

DATASET UNSTRUCTURED_GRID

POINTS 100 float 

0.0000000000000000e+00  0.0000000000000000e+00  0.0000000000000000e+00
1.0000000000000000e+00  0.0000000000000000e+00  0.0000000000000000e+00
2.0000000000000000e+00  0.0000000000000000e+00  0.0000000000000000e+00
3.0000000000000000e+00  0.0000000000000000e+00  0.0000000000000000e+00
4.0000000000000000e+00  0.0000000000000000e+00  0.0000000000000000e+00
5.0000000000000000e+00  0.0000000000000000e+00  0.0000000000000000e+00
6.0000000000000000e+00  0.0000000000000000e+00  0.0000000000000000e+00
7.0000000000000000e+00  0.0000000000000000e+00  0.0000000000000000e+00
8.0000000000000000e+00  0.0000000000000000e+00  0.0000000000000000e+00
9.0000000000000000e+00  0.0000000000000000e+00  0.0000000000000000e+00
1.0000000000000000e+01  0.0000000000000000e+00  0.0000000000000000e+00
1.1000000000000000e+01  0.0000000000000000e+00  0.0000000000000000e+00
1.2000000000000000e+01  0.0000000000000000e+00  0.0000000000000000e+00
1.3000000000000000e+01  0.0000000000000000e+00  0.0000000000000000e+00
1.4000000000000000e+01  0.0000000000000000e+00  0.0000000000000000e+00
1.5000000000000000e+01  0.0000000000000000e+00  0.0000000000000000e+00
1.6000000000000000e+01  0.0000000000000000e+00  0.0000000000000000e+00
1.7000000000000000e+01  0.0000000000000000e+00  0.0000000000000000e+00
1.8000000000000000e+01  0.0000000000000000e+00  0.0000000000000000e+00
1.9000000000000000e+01  0.0000000000000000e+00  0.0000000000000000e+00
2.0000000000000000e+01  0.0000000000000000e+00  0.0000000000000000e+00
2.1000000000000000e+01  0.0000000000000000e+00  0.0000000000000000e+00
2.2000000000000000e+01  0.0000000000000000e+00  0.0000000000000000e+00
2.3000000000000000e+01  0.0000000000000000e+00  0.0000000000000000e+00
2.4000000000000000e+01  0.0000000000000000e+00  0.0000000000000000e+00
2.5000000000000000e+01  0.0000000000000000e+00  0.0000000000000000e+00
2.6000000000000000e+01  0.0000000000000000e+00  0.0000000000000000e+00
2.7000000000000000e+01  0.0000000000000000e+00  0.0000000000000000e+00
2.8000000000000000e+01  0.0000000000000000e+00  0.0000000000000000e+00
2.9000000000000000e+01  0.0000000000000000e+00  0.0000000000000000e+00
3.0000000000000000e+01  0.0000000000000000e+00  0.0000000000000000e+00
3.1000000000000000e+01  0.0000000000000000e+00  0.0000000000000000e+00
3.2000000000000000e+01  0.0000000000000000e+00  0.0000000000000000e+00
3.3000000000000000e+01  0.0000000000000000e+00  0.0000000000000000e+00
3.4000000000000000e+01  0.0000000000000000e+00  0.0000000000000000e+00
3.5000000000000000e+01  0.0000000000000000e+00  0.0000000000000000e+00
3.6000000000000000e+01  0.0000000000000000e+00  0.0000000000000000e+00
3.7000000000000000e+01  0.0000000000000000e+00  0.0000000000000000e+00
3.8000000000000000e+01  0.0000000000000000e+00  0.0000000000000000e+00
3.9000000000000000e+01  0.0000000000000000e+00  0.0000000000000000e+00
4.0000000000000000e+01  0.0000000000000000e+00  0.0000000000000000e+00
4.1000000000000000e+01  0.0000000000000000e+00  0.0000000000000000e+00
4.2000000000000000e+01  0.0000000000000000e+00  0.0000000000000000e+00
4.3000000000000000e+01  0.0000000000000000e+00  0.0000000000000000e+00
4.4000000000000000e+01  0.0000000000000000e+00  0.0000000000000000e+00
4.5000000000000000e+01  0.0000000000000000e+00  0.0000000000000000e+00
4.6000000000000000e+01  0.0000000000000000e+00  0.0000000000000000e+00
4.7000000000000000e+01  0.0000000000000000e+00  0.0000000000000000e+00
4.8000000000000000e+01  0.0000000000000000e+00  0.0000000000000000e+00
4.9000000000000000e+01  0.0000000000000000e+00  0.0000000000000000e+00
5.0000000000000000e+01  0.0000000000000000e+00  0.0000000000000000e+00
5.1000000000000000e+01  0.0000000000000000e+00  0.0000000000000000e+00
5.2000000000000000e+01  0.0000000000000000e+00  0.0000000000000000e+00
5.3000000000000000e+01  0.0000000000000000e+00  0.0000000000000000e+00
5.4000000000000000e+01  0.0000000000000000e+00  0.0000000000000000e+00
5.5000000000000000e+01  0.0000000000000000e+00  0.0000000000000000e+00
5.6000000000000000e+01  0.0000000000000000e+00  0.0000000000000000e+00
5.7000000000000000e+01  0.0000000000000000e+00  0.0000000000000000e+00
5.8000000000000000e+01  0.0000000000000000e+00  0.0000000000000000e+00
5.9000000000000000e+01  0.0000000000000000e+00  0.0000000000000000e+00
6.0000000000000000e+01  0.0000000000000000e+00  0.0000000000000000e+00
6.1000000000000000e+01  0.0000000000000000e+00  0.0000000000000000e+00
6.2000000000000000e+01  0.0000000000000000e+00  0.0000000000000000e+00
6.3000000000000000e+01  0.0000000000000000e+00  0.0000000000000000e+00
6.4000000000000000e+01  0.0000000000000000e+00  0.0000000000000000e+00
6.5000000000000000e+01  0.0000000000000000e+00  0.0000000000000000e+00
6.6000000000000000e+01  0.0000000000000000e+00  0.0000000000000000e+00
6.7000000000000000e+01  0.0000000000000000e+00  0.0000000000000000e+00
6.8000000000000000e+01  0.0000000000000000e+00  0.0000000000000000e+00
6.9000000000000000e+01  0.0000000000000000e+00  0.0000000000000000e+00
7.0000000000000000e+01  0.0000000000000000e+00  0.0000000000000000e+00
7.1000000000000000e+01  0.0000000000000000e+00  0.0000000000000000e+00
7.2000000000000000e+01  0.0000000000000000e+00  0.0000000000000000e+00
7.3000000000000000e+01  0.0000000000000000e+00  0.0000000000000000e+00
7.4000000000000000e+01  0.0000000000000000e+00  0.0000000000000000e+00
7.5000000000000000e+01  0.0000000000000000e+00  0.0000000000000000e+00
7.6000000000000000e+01  0.0000000000000000e+00  0.0000000000000000e+00
7.7000000000000000e+01  0.0000000000000000e+00  0.0000000000000000e+00
7.8000000000000000e+01  0.0000000000000000e+00  0.0000000000000000e+00
7.9000000000000000e+01  0.0000000000000000e+00  0.0000000000000000e+00
8.0000000000000000e+01  0.0000000000000000e+00  0.0000000000000000e+00
8.1000000000000000e+01  0.0000000000000000e+00  0.0000000000000000e+00
8.2000000000000000e+01  0.0000000000000000e+00  0.0000000000000000e+00
8.3000000000000000e+01  0.0000000000000000e+00  0.0000000000000000e+00
8.4000000000000000e+01  0.0000000000000000e+00  0.0000000000000000e+00
8.5000000000000000e+01  0.0000000000000000e+00  0.0000000000000000e+00
8.6000000000000000e+01  0.0000000000000000e+00  0.0000000000000000e+00
8.7000000000000000e+01  0.0000000000000000e+00  0.0000000000000000e+00
8.8000000000000000e+01  0.0000000000000000e+00  0.0000000000000000e+00
8.9000000000000000e+01  0.0000000000000000e+00  0.0000000000000000e+00
9.0000000000000000e+01  0.0000000000000000e+00  0.0000000000000000e+00
9.1000000000000000e+01  0.0000000000000000e+00  0.0000000000000000e+00
9.2000000000000000e+01  0.0000000000000000e+00  0.0000000000000000e+00
9.3000000000000000e+01  0.0000000000000000e+00  0.0000000000000000e+00
9.4000000000000000e+01  0.0000000000000000e+00  0.0000000000000000e+00
9.5000000000000000e+01  0.0000000000000000e+00  0.0000000000000000e+00
9.6000000000000000e+01  0.0000000000000000e+00  0.0000000000000000e+00
9.7000000000000000e+01  0.0000000000000000e+00  0.0000000000000000e+00
9.8000000000000000e+01  0.0000000000000000e+00  0.0000000000000000e+00
9.9000000000000000e+01  0.0000000000000000e+00  0.0000000000000000e+00

POINT_DATA 100

VECTORS velocity float
1.0065450849718754e-02  0.0000000000000000e+00  0.0000000000000000e+00
1.0065451533084014e-02  0.0000000000000000e+00  0.0000000000000000e+00
1.0065452193249757e-02  0.0000000000000000e+00  0.0000000000000000e+00
1.0065452843254169e-02  0.0000000000000000e+00  0.0000000000000000e+00
1.0065453488633497e-02  0.0000000000000000e+00  0.0000000000000000e+00
1.0065454131724666e-02  0.0000000000000000e+00  0.0000000000000000e+00
1.0065454773509940e-02  0.0000000000000000e+00  0.0000000000000000e+00
1.0065455414401068e-02  0.0000000000000000e+00  0.0000000000000000e+00
1.0065456054570380e-02  0.0000000000000000e+00  0.0000000000000000e+00
1.0065456694089932e-02  0.0000000000000000e+00  0.0000000000000000e+00
1.0065457332989811e-02  0.0000000000000000e+00  0.0000000000000000e+00
1.0065457971282551e-02  0.0000000000000000e+00  0.0000000000000000e+00
1.0065458608973314e-02  0.0000000000000000e+00  0.0000000000000000e+00
1.0065459246064177e-02  0.0000000000000000e+00  0.0000000000000000e+00
1.0065459882555925e-02  0.0000000000000000e+00  0.0000000000000000e+00
1.0065460518448793e-02  0.0000000000000000e+00  0.0000000000000000e+00
1.0065461153742799e-02  0.0000000000000000e+00  0.0000000000000000e+00
1.0065461788437853e-02  0.0000000000000000e+00  0.0000000000000000e+00
1.0065462422533830e-02  0.0000000000000000e+00  0.0000000000000000e+00
1.0065463056030590e-02  0.0000000000000000e+00  0.0000000000000000e+00
1.0065463688927984e-02  0.0000000000000000e+00  0.0000000000000000e+00
1.0065464321225856e-02  0.0000000000000000e+00  0.0000000000000000e+00
1.0065464952924052e-02  0.0000000000000000e+00  0.0000000000000000e+00
1.0065465584022423e-02  0.0000000000000000e+00  0.0000000000000000e+00
1.0065466214520813e-02  0.0000000000000000e+00  0.0000000000000000e+00
1.0065466844419071e-02  0.0000000000000000e+00  0.0000000000000000e+00
1.0065467473717043e-02  0.0000000000000000e+00  0.0000000000000000e+00
1.0065468102414573e-02  0.0000000000000000e+00  0.0000000000000000e+00
1.0065468730511510e-02  0.0000000000000000e+00  0.0000000000000000e+00
1.0065469358007704e-02  0.0000000000000000e+00  0.0000000000000000e+00
1.0065469984903000e-02  0.0000000000000000e+00  0.0000000000000000e+00
1.0065470611197247e-02  0.0000000000000000e+00  0.0000000000000000e+00
1.0065471236890295e-02  0.0000000000000000e+00  0.0000000000000000e+00
1.0065471861981987e-02  0.0000000000000000e+00  0.0000000000000000e+00
1.0065472486472174e-02  0.0000000000000000e+00  0.0000000000000000e+00
1.0065473110360707e-02  0.0000000000000000e+00  0.0000000000000000e+00
1.0065473733647431e-02  0.0000000000000000e+00  0.0000000000000000e+00
1.0065474356332198e-02  0.0000000000000000e+00  0.0000000000000000e+00
1.0065474978414854e-02  0.0000000000000000e+00  0.0000000000000000e+00
1.0065475599895252e-02  0.0000000000000000e+00  0.0000000000000000e+00
1.0065476220773242e-02  0.0000000000000000e+00  0.0000000000000000e+00
1.0065476841048675e-02  0.0000000000000000e+00  0.0000000000000000e+00
1.0065477460721403e-02  0.0000000000000000e+00  0.0000000000000000e+00
1.0065478079791274e-02  0.0000000000000000e+00  0.0000000000000000e+00
1.0065478698258140e-02  0.0000000000000000e+00  0.0000000000000000e+00
1.0065479316121853e-02  0.0000000000000000e+00  0.0000000000000000e+00
1.0065479933382269e-02  0.0000000000000000e+00  0.0000000000000000e+00
1.0065480550039240e-02  0.0000000000000000e+00  0.0000000000000000e+00
1.0065481166092615e-02  0.0000000000000000e+00  0.0000000000000000e+00
1.0065481781542249e-02  0.0000000000000000e+00  0.0000000000000000e+00
1.0065482396387992e-02  0.0000000000000000e+00  0.0000000000000000e+00
1.0065483010629702e-02  0.0000000000000000e+00  0.0000000000000000e+00
1.0065483624267232e-02  0.0000000000000000e+00  0.0000000000000000e+00
1.0065484237300436e-02  0.0000000000000000e+00  0.0000000000000000e+00
1.0065484849729174e-02  0.0000000000000000e+00  0.0000000000000000e+00
1.0065485461553296e-02  0.0000000000000000e+00  0.0000000000000000e+00
1.0065486072772665e-02  0.0000000000000000e+00  0.0000000000000000e+00
1.0065486683387128e-02  0.0000000000000000e+00  0.0000000000000000e+00
1.0065487293396548e-02  0.0000000000000000e+00  0.0000000000000000e+00
1.0065487902800783e-02  0.0000000000000000e+00  0.0000000000000000e+00
1.0065488511599692e-02  0.0000000000000000e+00  0.0000000000000000e+00
1.0065489119793129e-02  0.0000000000000000e+00  0.0000000000000000e+00
1.0065489727380954e-02  0.0000000000000000e+00  0.0000000000000000e+00
1.0065490334363027e-02  0.0000000000000000e+00  0.0000000000000000e+00
1.0065490940739203e-02  0.0000000000000000e+00  0.0000000000000000e+00
1.0065491546509348e-02  0.0000000000000000e+00  0.0000000000000000e+00
1.0065492151673324e-02  0.0000000000000000e+00  0.0000000000000000e+00
1.0065492756230986e-02  0.0000000000000000e+00  0.0000000000000000e+00
1.0065493360182205e-02  0.0000000000000000e+00  0.0000000000000000e+00
1.0065493963526836e-02  0.0000000000000000e+00  0.0000000000000000e+00
1.0065494566264745e-02  0.0000000000000000e+00  0.0000000000000000e+00
1.0065495168395796e-02  0.0000000000000000e+00  0.0000000000000000e+00
1.0065495769919853e-02  0.0000000000000000e+00  0.0000000000000000e+00
1.0065496370836776e-02  0.0000000000000000e+00  0.0000000000000000e+00
1.0065496971146434e-02  0.0000000000000000e+00  0.0000000000000000e+00
1.0065497570848693e-02  0.0000000000000000e+00  0.0000000000000000e+00
1.0065498169943420e-02  0.0000000000000000e+00  0.0000000000000000e+00
1.0065498768430482e-02  0.0000000000000000e+00  0.0000000000000000e+00
1.0065499366309743e-02  0.0000000000000000e+00  0.0000000000000000e+00
1.0065499963581075e-02  0.0000000000000000e+00  0.0000000000000000e+00
1.0065500560244344e-02  0.0000000000000000e+00  0.0000000000000000e+00
1.0065501156299417e-02  0.0000000000000000e+00  0.0000000000000000e+00
1.0065501751746173e-02  0.0000000000000000e+00  0.0000000000000000e+00
1.0065502346584477e-02  0.0000000000000000e+00  0.0000000000000000e+00
1.0065502940814201e-02  0.0000000000000000e+00  0.0000000000000000e+00
1.0065503534435220e-02  0.0000000000000000e+00  0.0000000000000000e+00
1.0065504127447403e-02  0.0000000000000000e+00  0.0000000000000000e+00
1.0065504719850623e-02  0.0000000000000000e+00  0.0000000000000000e+00
1.0065505311644773e-02  0.0000000000000000e+00  0.0000000000000000e+00
1.0065505902829669e-02  0.0000000000000000e+00  0.0000000000000000e+00
1.0065506493405320e-02  0.0000000000000000e+00  0.0000000000000000e+00
1.0065507083371296e-02  0.0000000000000000e+00  0.0000000000000000e+00
1.0065507672728211e-02  0.0000000000000000e+00  0.0000000000000000e+00
1.0065508261474157e-02  0.0000000000000000e+00  0.0000000000000000e+00
1.0065508849613330e-02  0.0000000000000000e+00  0.0000000000000000e+00
1.0065509437135188e-02  0.0000000000000000e+00  0.0000000000000000e+00
1.0065510024064795e-02  0.0000000000000000e+00  0.0000000000000000e+00
1.0065510610341095e-02  0.0000000000000000e+00  0.0000000000000000e+00
1.0065511196111477e-02  0.0000000000000000e+00  0.0000000000000000e+00
1.0065511781018832e-02  0.0000000000000000e+00  0.0000000000000000e+00

SCALARS pressure float
LOOKUP_TABLE default
6.8531966933818060e-05
6.8501792248679421e-05
6.8471617563540795e-05
6.8441442556707404e-05
6.8411267092197690e-05
6.8381091112750667e-05
6.8350914594294675e-05
6.8320737526699160e-05
6.8290559905676861e-05
6.8260381729387399e-05
6.8230202997015304e-05
6.8200023708174642e-05
6.8169843862659753e-05
6.8139663460341021e-05
6.8109482501120785e-05
6.8079300984915278e-05
6.8049118911646600e-05
6.8018936281239616e-05
6.7988753093620627e-05
6.7958569348716694e-05
6.7928385046455418e-05
6.7898200186765025e-05
6.7868014769574040e-05
6.7837828794811461e-05
6.7807642262406598e-05
6.7777455172289317e-05
6.7747267524389672e-05
6.7717079318638452e-05
6.7686890554966619e-05
6.7656701233305489e-05
6.7626511353587016e-05
6.7596320915743369e-05
6.7566129919707191e-05
6.7535938365411683e-05
6.7505746252790368e-05
6.7475553581777085e-05
6.7445360352306360e-05
6.7415166564312924e-05
6.7384972217732024e-05
6.7354777312499421e-05
6.7324581848551309e-05
6.7294385825824140e-05
6.7264189244254922e-05
6.7233992103781220e-05
6.7203794404340988e-05
6.7173596145872618e-05
6.7143397328314920e-05
6.7113197951607057e-05
6.7082998015689018e-05
6.7052797520500955e-05
6.7022596465983629e-05
6.6992394852078414e-05
6.6962192678726869e-05
6.6931989945871235e-05
6.6901786653454225e-05
6.6871582801418959e-05
6.6841378389709125e-05
6.6811173418268984e-05
6.6780967887043321e-05
6.6750761795977248e-05
6.6720555145016597e-05
6.6690347934107564e-05
6.6660140163196983e-05
6.6629931832232350e-05
6.6599722941161447e-05
6.6569513489932763e-05
6.6539303478495285e-05
6.6509092906798543e-05
6.6478881774792597e-05
6.6448670082428209e-05
6.6418457829656510e-05
6.6388245016429348e-05
6.6358031642699193e-05
6.6327817708418952e-05
6.6297603213542327e-05
6.6267388158023526e-05
6.6237172541817351e-05
6.6206956364879132e-05
6.6176739627164918e-05
6.6146522328631627e-05
6.6116304469236351e-05
6.6086086048937118e-05
6.6055867067692537e-05
6.6025647525461736e-05
6.5995427422204679e-05
6.5965206757881862e-05
6.5934985532454537e-05
6.5904763745884635e-05
6.5874541398134725e-05
6.5844318489167875e-05
6.5814095018948741e-05
6.5783870987440581e-05
6.5753646394611738e-05
6.5723421240421065e-05
6.5693195524853194e-05
6.5662969247832448e-05
6.5632742409431604e-05
6.5602515009366695e-05
6.5572287048220278e-05
6.5542058524480404e-05

SCALARS diameter float
LOOKUP_TABLE default
1.0000714779841209e+00
1.0000714483564082e+00
1.0000714187286976e+00
1.0000713891006918e+00
1.0000713594722619e+00
1.0000713298433559e+00
1.0000713002139472e+00
1.0000712705840284e+00
1.0000712409535932e+00
1.0000712113226422e+00
1.0000711816911720e+00
1.0000711520591827e+00
1.0000711224266756e+00
1.0000710927936485e+00
1.0000710631601024e+00
1.0000710335260377e+00
1.0000710038914526e+00
1.0000709742563489e+00
1.0000709446207250e+00
1.0000709149845812e+00
1.0000708853479177e+00
1.0000708557107336e+00
1.0000708260730300e+00
1.0000707964348046e+00
1.0000707667960604e+00
1.0000707371567938e+00
1.0000707075170077e+00
1.0000706778766990e+00
1.0000706482358703e+00
1.0000706185945207e+00
1.0000705889526484e+00
1.0000705593102550e+00
1.0000705296673398e+00
1.0000705000239034e+00
1.0000704703799426e+00
1.0000704407354624e+00
1.0000704110904579e+00
1.0000703814449314e+00
1.0000703517988816e+00
1.0000703221523093e+00
1.0000702925052134e+00
1.0000702628575939e+00
1.0000702332094518e+00
1.0000702035607854e+00
1.0000701739115954e+00
1.0000701442618816e+00
1.0000701146116420e+00
1.0000700849608792e+00
1.0000700553095914e+00
1.0000700256577792e+00
1.0000699960054422e+00
1.0000699663525783e+00
1.0000699366991914e+00
1.0000699070452774e+00
1.0000698773908376e+00
1.0000698477358723e+00
1.0000698180803811e+00
1.0000697884243626e+00
1.0000697587678171e+00
1.0000697291107450e+00
1.0000696994531471e+00
1.0000696697950207e+00
1.0000696401363673e+00
1.0000696104771860e+00
1.0000695808174769e+00
1.0000695511572393e+00
1.0000695214964739e+00
1.0000694918351791e+00
1.0000694621733572e+00
1.0000694325110042e+00
1.0000694028481232e+00
1.0000693731847128e+00
1.0000693435207724e+00
1.0000693138563022e+00
1.0000692841913019e+00
1.0000692545257701e+00
1.0000692248597083e+00
1.0000691951931164e+00
1.0000691655259937e+00
1.0000691358583389e+00
1.0000691061901525e+00
1.0000690765214340e+00
1.0000690468521842e+00
1.0000690171824016e+00
1.0000689875120869e+00
1.0000689578412394e+00
1.0000689281698585e+00
1.0000688984979438e+00
1.0000688688254975e+00
1.0000688391525157e+00
1.0000688094790007e+00
1.0000687798049503e+00
1.0000687501303669e+00
1.0000687204552481e+00
1.0000686907795948e+00
1.0000686611034055e+00
1.0000686314266802e+00
1.0000686017494202e+00
1.0000685720716236e+00
1.0000685423932909e+00

