# vtk DataFile Version 2.0

ASCII

DATASET UNSTRUCTURED_GRID

POINTS 100 float 

0.0000000000000000e+00  0.0000000000000000e+00  0.0000000000000000e+00
1.0000000000000000e+00  0.0000000000000000e+00  0.0000000000000000e+00
2.0000000000000000e+00  0.0000000000000000e+00  0.0000000000000000e+00
3.0000000000000000e+00  0.0000000000000000e+00  0.0000000000000000e+00
4.0000000000000000e+00  0.0000000000000000e+00  0.0000000000000000e+00
5.0000000000000000e+00  0.0000000000000000e+00  0.0000000000000000e+00
6.0000000000000000e+00  0.0000000000000000e+00  0.0000000000000000e+00
7.0000000000000000e+00  0.0000000000000000e+00  0.0000000000000000e+00
8.0000000000000000e+00  0.0000000000000000e+00  0.0000000000000000e+00
9.0000000000000000e+00  0.0000000000000000e+00  0.0000000000000000e+00
1.0000000000000000e+01  0.0000000000000000e+00  0.0000000000000000e+00
1.1000000000000000e+01  0.0000000000000000e+00  0.0000000000000000e+00
1.2000000000000000e+01  0.0000000000000000e+00  0.0000000000000000e+00
1.3000000000000000e+01  0.0000000000000000e+00  0.0000000000000000e+00
1.4000000000000000e+01  0.0000000000000000e+00  0.0000000000000000e+00
1.5000000000000000e+01  0.0000000000000000e+00  0.0000000000000000e+00
1.6000000000000000e+01  0.0000000000000000e+00  0.0000000000000000e+00
1.7000000000000000e+01  0.0000000000000000e+00  0.0000000000000000e+00
1.8000000000000000e+01  0.0000000000000000e+00  0.0000000000000000e+00
1.9000000000000000e+01  0.0000000000000000e+00  0.0000000000000000e+00
2.0000000000000000e+01  0.0000000000000000e+00  0.0000000000000000e+00
2.1000000000000000e+01  0.0000000000000000e+00  0.0000000000000000e+00
2.2000000000000000e+01  0.0000000000000000e+00  0.0000000000000000e+00
2.3000000000000000e+01  0.0000000000000000e+00  0.0000000000000000e+00
2.4000000000000000e+01  0.0000000000000000e+00  0.0000000000000000e+00
2.5000000000000000e+01  0.0000000000000000e+00  0.0000000000000000e+00
2.6000000000000000e+01  0.0000000000000000e+00  0.0000000000000000e+00
2.7000000000000000e+01  0.0000000000000000e+00  0.0000000000000000e+00
2.8000000000000000e+01  0.0000000000000000e+00  0.0000000000000000e+00
2.9000000000000000e+01  0.0000000000000000e+00  0.0000000000000000e+00
3.0000000000000000e+01  0.0000000000000000e+00  0.0000000000000000e+00
3.1000000000000000e+01  0.0000000000000000e+00  0.0000000000000000e+00
3.2000000000000000e+01  0.0000000000000000e+00  0.0000000000000000e+00
3.3000000000000000e+01  0.0000000000000000e+00  0.0000000000000000e+00
3.4000000000000000e+01  0.0000000000000000e+00  0.0000000000000000e+00
3.5000000000000000e+01  0.0000000000000000e+00  0.0000000000000000e+00
3.6000000000000000e+01  0.0000000000000000e+00  0.0000000000000000e+00
3.7000000000000000e+01  0.0000000000000000e+00  0.0000000000000000e+00
3.8000000000000000e+01  0.0000000000000000e+00  0.0000000000000000e+00
3.9000000000000000e+01  0.0000000000000000e+00  0.0000000000000000e+00
4.0000000000000000e+01  0.0000000000000000e+00  0.0000000000000000e+00
4.1000000000000000e+01  0.0000000000000000e+00  0.0000000000000000e+00
4.2000000000000000e+01  0.0000000000000000e+00  0.0000000000000000e+00
4.3000000000000000e+01  0.0000000000000000e+00  0.0000000000000000e+00
4.4000000000000000e+01  0.0000000000000000e+00  0.0000000000000000e+00
4.5000000000000000e+01  0.0000000000000000e+00  0.0000000000000000e+00
4.6000000000000000e+01  0.0000000000000000e+00  0.0000000000000000e+00
4.7000000000000000e+01  0.0000000000000000e+00  0.0000000000000000e+00
4.8000000000000000e+01  0.0000000000000000e+00  0.0000000000000000e+00
4.9000000000000000e+01  0.0000000000000000e+00  0.0000000000000000e+00
5.0000000000000000e+01  0.0000000000000000e+00  0.0000000000000000e+00
5.1000000000000000e+01  0.0000000000000000e+00  0.0000000000000000e+00
5.2000000000000000e+01  0.0000000000000000e+00  0.0000000000000000e+00
5.3000000000000000e+01  0.0000000000000000e+00  0.0000000000000000e+00
5.4000000000000000e+01  0.0000000000000000e+00  0.0000000000000000e+00
5.5000000000000000e+01  0.0000000000000000e+00  0.0000000000000000e+00
5.6000000000000000e+01  0.0000000000000000e+00  0.0000000000000000e+00
5.7000000000000000e+01  0.0000000000000000e+00  0.0000000000000000e+00
5.8000000000000000e+01  0.0000000000000000e+00  0.0000000000000000e+00
5.9000000000000000e+01  0.0000000000000000e+00  0.0000000000000000e+00
6.0000000000000000e+01  0.0000000000000000e+00  0.0000000000000000e+00
6.1000000000000000e+01  0.0000000000000000e+00  0.0000000000000000e+00
6.2000000000000000e+01  0.0000000000000000e+00  0.0000000000000000e+00
6.3000000000000000e+01  0.0000000000000000e+00  0.0000000000000000e+00
6.4000000000000000e+01  0.0000000000000000e+00  0.0000000000000000e+00
6.5000000000000000e+01  0.0000000000000000e+00  0.0000000000000000e+00
6.6000000000000000e+01  0.0000000000000000e+00  0.0000000000000000e+00
6.7000000000000000e+01  0.0000000000000000e+00  0.0000000000000000e+00
6.8000000000000000e+01  0.0000000000000000e+00  0.0000000000000000e+00
6.9000000000000000e+01  0.0000000000000000e+00  0.0000000000000000e+00
7.0000000000000000e+01  0.0000000000000000e+00  0.0000000000000000e+00
7.1000000000000000e+01  0.0000000000000000e+00  0.0000000000000000e+00
7.2000000000000000e+01  0.0000000000000000e+00  0.0000000000000000e+00
7.3000000000000000e+01  0.0000000000000000e+00  0.0000000000000000e+00
7.4000000000000000e+01  0.0000000000000000e+00  0.0000000000000000e+00
7.5000000000000000e+01  0.0000000000000000e+00  0.0000000000000000e+00
7.6000000000000000e+01  0.0000000000000000e+00  0.0000000000000000e+00
7.7000000000000000e+01  0.0000000000000000e+00  0.0000000000000000e+00
7.8000000000000000e+01  0.0000000000000000e+00  0.0000000000000000e+00
7.9000000000000000e+01  0.0000000000000000e+00  0.0000000000000000e+00
8.0000000000000000e+01  0.0000000000000000e+00  0.0000000000000000e+00
8.1000000000000000e+01  0.0000000000000000e+00  0.0000000000000000e+00
8.2000000000000000e+01  0.0000000000000000e+00  0.0000000000000000e+00
8.3000000000000000e+01  0.0000000000000000e+00  0.0000000000000000e+00
8.4000000000000000e+01  0.0000000000000000e+00  0.0000000000000000e+00
8.5000000000000000e+01  0.0000000000000000e+00  0.0000000000000000e+00
8.6000000000000000e+01  0.0000000000000000e+00  0.0000000000000000e+00
8.7000000000000000e+01  0.0000000000000000e+00  0.0000000000000000e+00
8.8000000000000000e+01  0.0000000000000000e+00  0.0000000000000000e+00
8.9000000000000000e+01  0.0000000000000000e+00  0.0000000000000000e+00
9.0000000000000000e+01  0.0000000000000000e+00  0.0000000000000000e+00
9.1000000000000000e+01  0.0000000000000000e+00  0.0000000000000000e+00
9.2000000000000000e+01  0.0000000000000000e+00  0.0000000000000000e+00
9.3000000000000000e+01  0.0000000000000000e+00  0.0000000000000000e+00
9.4000000000000000e+01  0.0000000000000000e+00  0.0000000000000000e+00
9.5000000000000000e+01  0.0000000000000000e+00  0.0000000000000000e+00
9.6000000000000000e+01  0.0000000000000000e+00  0.0000000000000000e+00
9.7000000000000000e+01  0.0000000000000000e+00  0.0000000000000000e+00
9.8000000000000000e+01  0.0000000000000000e+00  0.0000000000000000e+00
9.9000000000000000e+01  0.0000000000000000e+00  0.0000000000000000e+00

POINT_DATA 100

VECTORS velocity float
1.0004758647376700e-02  0.0000000000000000e+00  0.0000000000000000e+00
1.0004757947109956e-02  0.0000000000000000e+00  0.0000000000000000e+00
1.0004757381050904e-02  0.0000000000000000e+00  0.0000000000000000e+00
1.0004756842104933e-02  0.0000000000000000e+00  0.0000000000000000e+00
1.0004756303765679e-02  0.0000000000000000e+00  0.0000000000000000e+00
1.0004755762059322e-02  0.0000000000000000e+00  0.0000000000000000e+00
1.0004755217811570e-02  0.0000000000000000e+00  0.0000000000000000e+00
1.0004754672147554e-02  0.0000000000000000e+00  0.0000000000000000e+00
1.0004754125750207e-02  0.0000000000000000e+00  0.0000000000000000e+00
1.0004753578950918e-02  0.0000000000000000e+00  0.0000000000000000e+00
1.0004753031893679e-02  0.0000000000000000e+00  0.0000000000000000e+00
1.0004752484638151e-02  0.0000000000000000e+00  0.0000000000000000e+00
1.0004751937210019e-02  0.0000000000000000e+00  0.0000000000000000e+00
1.0004751389622436e-02  0.0000000000000000e+00  0.0000000000000000e+00
1.0004750841884371e-02  0.0000000000000000e+00  0.0000000000000000e+00
1.0004750294003556e-02  0.0000000000000000e+00  0.0000000000000000e+00
1.0004749745987428e-02  0.0000000000000000e+00  0.0000000000000000e+00
1.0004749197843416e-02  0.0000000000000000e+00  0.0000000000000000e+00
1.0004748649578975e-02  0.0000000000000000e+00  0.0000000000000000e+00
1.0004748101201609e-02  0.0000000000000000e+00  0.0000000000000000e+00
1.0004747552718830e-02  0.0000000000000000e+00  0.0000000000000000e+00
1.0004747004138182e-02  0.0000000000000000e+00  0.0000000000000000e+00
1.0004746455467209e-02  0.0000000000000000e+00  0.0000000000000000e+00
1.0004745906713469e-02  0.0000000000000000e+00  0.0000000000000000e+00
1.0004745357884514e-02  0.0000000000000000e+00  0.0000000000000000e+00
1.0004744808987907e-02  0.0000000000000000e+00  0.0000000000000000e+00
1.0004744260031190e-02  0.0000000000000000e+00  0.0000000000000000e+00
1.0004743711021894e-02  0.0000000000000000e+00  0.0000000000000000e+00
1.0004743161967554e-02  0.0000000000000000e+00  0.0000000000000000e+00
1.0004742612875666e-02  0.0000000000000000e+00  0.0000000000000000e+00
1.0004742063753711e-02  0.0000000000000000e+00  0.0000000000000000e+00
1.0004741514609145e-02  0.0000000000000000e+00  0.0000000000000000e+00
1.0004740965449380e-02  0.0000000000000000e+00  0.0000000000000000e+00
1.0004740416281809e-02  0.0000000000000000e+00  0.0000000000000000e+00
1.0004739867113787e-02  0.0000000000000000e+00  0.0000000000000000e+00
1.0004739317952612e-02  0.0000000000000000e+00  0.0000000000000000e+00
1.0004738768805537e-02  0.0000000000000000e+00  0.0000000000000000e+00
1.0004738219679770e-02  0.0000000000000000e+00  0.0000000000000000e+00
1.0004737670582442e-02  0.0000000000000000e+00  0.0000000000000000e+00
1.0004737121520637e-02  0.0000000000000000e+00  0.0000000000000000e+00
1.0004736572501366e-02  0.0000000000000000e+00  0.0000000000000000e+00
1.0004736023531566e-02  0.0000000000000000e+00  0.0000000000000000e+00
1.0004735474618104e-02  0.0000000000000000e+00  0.0000000000000000e+00
1.0004734925767766e-02  0.0000000000000000e+00  0.0000000000000000e+00
1.0004734376987240e-02  0.0000000000000000e+00  0.0000000000000000e+00
1.0004733828283128e-02  0.0000000000000000e+00  0.0000000000000000e+00
1.0004733279661938e-02  0.0000000000000000e+00  0.0000000000000000e+00
1.0004732731130070e-02  0.0000000000000000e+00  0.0000000000000000e+00
1.0004732182693829e-02  0.0000000000000000e+00  0.0000000000000000e+00
1.0004731634359396e-02  0.0000000000000000e+00  0.0000000000000000e+00
1.0004731086132845e-02  0.0000000000000000e+00  0.0000000000000000e+00
1.0004730538020127e-02  0.0000000000000000e+00  0.0000000000000000e+00
1.0004729990027066e-02  0.0000000000000000e+00  0.0000000000000000e+00
1.0004729442159362e-02  0.0000000000000000e+00  0.0000000000000000e+00
1.0004728894422575e-02  0.0000000000000000e+00  0.0000000000000000e+00
1.0004728346822121e-02  0.0000000000000000e+00  0.0000000000000000e+00
1.0004727799363273e-02  0.0000000000000000e+00  0.0000000000000000e+00
1.0004727252051159e-02  0.0000000000000000e+00  0.0000000000000000e+00
1.0004726704890754e-02  0.0000000000000000e+00  0.0000000000000000e+00
1.0004726157886869e-02  0.0000000000000000e+00  0.0000000000000000e+00
1.0004725611044152e-02  0.0000000000000000e+00  0.0000000000000000e+00
1.0004725064367085e-02  0.0000000000000000e+00  0.0000000000000000e+00
1.0004724517859982e-02  0.0000000000000000e+00  0.0000000000000000e+00
1.0004723971526974e-02  0.0000000000000000e+00  0.0000000000000000e+00
1.0004723425372009e-02  0.0000000000000000e+00  0.0000000000000000e+00
1.0004722879398856e-02  0.0000000000000000e+00  0.0000000000000000e+00
1.0004722333611089e-02  0.0000000000000000e+00  0.0000000000000000e+00
1.0004721788012087e-02  0.0000000000000000e+00  0.0000000000000000e+00
1.0004721242605036e-02  0.0000000000000000e+00  0.0000000000000000e+00
1.0004720697392914e-02  0.0000000000000000e+00  0.0000000000000000e+00
1.0004720152378500e-02  0.0000000000000000e+00  0.0000000000000000e+00
1.0004719607564347e-02  0.0000000000000000e+00  0.0000000000000000e+00
1.0004719062952801e-02  0.0000000000000000e+00  0.0000000000000000e+00
1.0004718518545999e-02  0.0000000000000000e+00  0.0000000000000000e+00
1.0004717974345845e-02  0.0000000000000000e+00  0.0000000000000000e+00
1.0004717430354020e-02  0.0000000000000000e+00  0.0000000000000000e+00
1.0004716886571971e-02  0.0000000000000000e+00  0.0000000000000000e+00
1.0004716343000906e-02  0.0000000000000000e+00  0.0000000000000000e+00
1.0004715799641819e-02  0.0000000000000000e+00  0.0000000000000000e+00
1.0004715256495442e-02  0.0000000000000000e+00  0.0000000000000000e+00
1.0004714713562277e-02  0.0000000000000000e+00  0.0000000000000000e+00
1.0004714170842571e-02  0.0000000000000000e+00  0.0000000000000000e+00
1.0004713628336324e-02  0.0000000000000000e+00  0.0000000000000000e+00
1.0004713086043291e-02  0.0000000000000000e+00  0.0000000000000000e+00
1.0004712543962952e-02  0.0000000000000000e+00  0.0000000000000000e+00
1.0004712002094540e-02  0.0000000000000000e+00  0.0000000000000000e+00
1.0004711460437021e-02  0.0000000000000000e+00  0.0000000000000000e+00
1.0004710918989124e-02  0.0000000000000000e+00  0.0000000000000000e+00
1.0004710377749228e-02  0.0000000000000000e+00  0.0000000000000000e+00
1.0004709836715626e-02  0.0000000000000000e+00  0.0000000000000000e+00
1.0004709295886004e-02  0.0000000000000000e+00  0.0000000000000000e+00
1.0004708755258291e-02  0.0000000000000000e+00  0.0000000000000000e+00
1.0004708214829686e-02  0.0000000000000000e+00  0.0000000000000000e+00
1.0004707674596160e-02  0.0000000000000000e+00  0.0000000000000000e+00
1.0004707134560569e-02  0.0000000000000000e+00  0.0000000000000000e+00
1.0004706594697710e-02  0.0000000000000000e+00  0.0000000000000000e+00
1.0004706055067970e-02  0.0000000000000000e+00  0.0000000000000000e+00
1.0004705515503816e-02  0.0000000000000000e+00  0.0000000000000000e+00
1.0004704976352382e-02  0.0000000000000000e+00  0.0000000000000000e+00
1.0004704437051362e-02  0.0000000000000000e+00  0.0000000000000000e+00

SCALARS pressure float
LOOKUP_TABLE default
5.9422416640828805e-06
5.9297865026525710e-06
5.9173313412222616e-06
5.9048777973296667e-06
5.8924261523048477e-06
5.8799763822311601e-06
5.8675284312215563e-06
5.8550822624097398e-06
5.8426378565282054e-06
5.8301952039742388e-06
5.8177542994211413e-06
5.8053151391004464e-06
5.7928777196171569e-06
5.7804420374834624e-06
5.7680080889493005e-06
5.7555758699464645e-06
5.7431453760716552e-06
5.7307166025816236e-06
5.7182895443913912e-06
5.7058641960733251e-06
5.6934405518560274e-06
5.6810186056229978e-06
5.6685983509112977e-06
5.6561797809103843e-06
5.6437628884603168e-06
5.6313476660503388e-06
5.6189341058177418e-06
5.6065221995463254e-06
5.5941119386649719e-06
5.5817033142459854e-06
5.5692963170042346e-06
5.5568909372955685e-06
5.5444871651153235e-06
5.5320849900973494e-06
5.5196844015124316e-06
5.5072853882672979e-06
5.4948879389033231e-06
5.4824920415957867e-06
5.4700976841522584e-06
5.4577048540119350e-06
5.4453135382446968e-06
5.4329237235498234e-06
5.4205353962554483e-06
5.4081485423176001e-06
5.3957631473196511e-06
5.3833791964718189e-06
5.3709966746099233e-06
5.3586155661951697e-06
5.3462358553141339e-06
5.3338575256775093e-06
5.3214805606204402e-06
5.3091049431018561e-06
5.2967306557046031e-06
5.2843576806349465e-06
5.2719859997228929e-06
5.2596155944219241e-06
5.2472464458095993e-06
5.2348785345873580e-06
5.2225118410807346e-06
5.2101463452396216e-06
5.1977820266392247e-06
5.1854188644803585e-06
5.1730568375896091e-06
5.1606959244208894e-06
5.1483361030550289e-06
5.1359773512015847e-06
5.1236196461994634e-06
5.1112629650176868e-06
5.0989072842568536e-06
5.0865525801499893e-06
5.0741988285638826e-06
5.0618460050005289e-06
5.0494940845983625e-06
5.0371430421341350e-06
5.0247928520236098e-06
5.0124434883240831e-06
5.0000949247357248e-06
4.9877471346035701e-06
4.9754000909191747e-06
4.9630537663222835e-06
4.9507081331035587e-06
4.9383631632061148e-06
4.9260188282278900e-06
4.9136750994239489e-06
4.9013319477085506e-06
4.8889893436581040e-06
4.8766472575128588e-06
4.8643056591797171e-06
4.8519645182348777e-06
4.8396238039266247e-06
4.8272834851769465e-06
4.8149435305860024e-06
4.8026039084357677e-06
4.7902645866785926e-06
4.7779255330023749e-06
4.7655867146275053e-06
4.7532480988905004e-06
4.7409096518295826e-06
4.7285713410615116e-06
4.7162331318415779e-06

SCALARS diameter float
LOOKUP_TABLE default
1.0000074073600218e+00
1.0000073931066038e+00
1.0000073788531865e+00
1.0000073646038612e+00
1.0000073503600770e+00
1.0000073361222863e+00
1.0000073218906067e+00
1.0000073076650551e+00
1.0000072934456261e+00
1.0000072792323107e+00
1.0000072650251011e+00
1.0000072508239910e+00
1.0000072366289736e+00
1.0000072224400434e+00
1.0000072082571922e+00
1.0000071940804149e+00
1.0000071799097032e+00
1.0000071657450511e+00
1.0000071515864493e+00
1.0000071374338919e+00
1.0000071232873693e+00
1.0000071091468743e+00
1.0000070950123980e+00
1.0000070808839321e+00
1.0000070667614667e+00
1.0000070526449936e+00
1.0000070385345037e+00
1.0000070244299875e+00
1.0000070103314336e+00
1.0000069962388349e+00
1.0000069821521800e+00
1.0000069680714581e+00
1.0000069539966596e+00
1.0000069399277725e+00
1.0000069258647875e+00
1.0000069118076913e+00
1.0000068977564764e+00
1.0000068837111284e+00
1.0000068696716367e+00
1.0000068556379897e+00
1.0000068416101737e+00
1.0000068275881779e+00
1.0000068135719895e+00
1.0000067995615955e+00
1.0000067855569843e+00
1.0000067715581409e+00
1.0000067575650520e+00
1.0000067435777058e+00
1.0000067295960877e+00
1.0000067156201820e+00
1.0000067016499758e+00
1.0000066876854543e+00
1.0000066737266029e+00
1.0000066597734052e+00
1.0000066458258479e+00
1.0000066318839129e+00
1.0000066179475859e+00
1.0000066040168498e+00
1.0000065900916875e+00
1.0000065761720829e+00
1.0000065622580188e+00
1.0000065483494778e+00
1.0000065344464417e+00
1.0000065205488911e+00
1.0000065066568087e+00
1.0000064927701766e+00
1.0000064788889733e+00
1.0000064650131810e+00
1.0000064511427778e+00
1.0000064372777453e+00
1.0000064234180610e+00
1.0000064095637042e+00
1.0000063957146543e+00
1.0000063818708878e+00
1.0000063680323825e+00
1.0000063541991164e+00
1.0000063403710673e+00
1.0000063265482086e+00
1.0000063127305168e+00
1.0000062989179697e+00
1.0000062851105382e+00
1.0000062713082005e+00
1.0000062575109281e+00
1.0000062437186958e+00
1.0000062299314758e+00
1.0000062161492407e+00
1.0000062023719627e+00
1.0000061885996132e+00
1.0000061748321623e+00
1.0000061610695807e+00
1.0000061473118391e+00
1.0000061335589057e+00
1.0000061198107488e+00
1.0000061060673382e+00
1.0000060923286400e+00
1.0000060785946214e+00
1.0000060648652485e+00
1.0000060511404882e+00
1.0000060374203028e+00
1.0000060237046666e+00

