# vtk DataFile Version 2.0

ASCII

DATASET UNSTRUCTURED_GRID

POINTS 100 float 

0.0000000000000000e+00  0.0000000000000000e+00  0.0000000000000000e+00
1.0000000000000000e+00  0.0000000000000000e+00  0.0000000000000000e+00
2.0000000000000000e+00  0.0000000000000000e+00  0.0000000000000000e+00
3.0000000000000000e+00  0.0000000000000000e+00  0.0000000000000000e+00
4.0000000000000000e+00  0.0000000000000000e+00  0.0000000000000000e+00
5.0000000000000000e+00  0.0000000000000000e+00  0.0000000000000000e+00
6.0000000000000000e+00  0.0000000000000000e+00  0.0000000000000000e+00
7.0000000000000000e+00  0.0000000000000000e+00  0.0000000000000000e+00
8.0000000000000000e+00  0.0000000000000000e+00  0.0000000000000000e+00
9.0000000000000000e+00  0.0000000000000000e+00  0.0000000000000000e+00
1.0000000000000000e+01  0.0000000000000000e+00  0.0000000000000000e+00
1.1000000000000000e+01  0.0000000000000000e+00  0.0000000000000000e+00
1.2000000000000000e+01  0.0000000000000000e+00  0.0000000000000000e+00
1.3000000000000000e+01  0.0000000000000000e+00  0.0000000000000000e+00
1.4000000000000000e+01  0.0000000000000000e+00  0.0000000000000000e+00
1.5000000000000000e+01  0.0000000000000000e+00  0.0000000000000000e+00
1.6000000000000000e+01  0.0000000000000000e+00  0.0000000000000000e+00
1.7000000000000000e+01  0.0000000000000000e+00  0.0000000000000000e+00
1.8000000000000000e+01  0.0000000000000000e+00  0.0000000000000000e+00
1.9000000000000000e+01  0.0000000000000000e+00  0.0000000000000000e+00
2.0000000000000000e+01  0.0000000000000000e+00  0.0000000000000000e+00
2.1000000000000000e+01  0.0000000000000000e+00  0.0000000000000000e+00
2.2000000000000000e+01  0.0000000000000000e+00  0.0000000000000000e+00
2.3000000000000000e+01  0.0000000000000000e+00  0.0000000000000000e+00
2.4000000000000000e+01  0.0000000000000000e+00  0.0000000000000000e+00
2.5000000000000000e+01  0.0000000000000000e+00  0.0000000000000000e+00
2.6000000000000000e+01  0.0000000000000000e+00  0.0000000000000000e+00
2.7000000000000000e+01  0.0000000000000000e+00  0.0000000000000000e+00
2.8000000000000000e+01  0.0000000000000000e+00  0.0000000000000000e+00
2.9000000000000000e+01  0.0000000000000000e+00  0.0000000000000000e+00
3.0000000000000000e+01  0.0000000000000000e+00  0.0000000000000000e+00
3.1000000000000000e+01  0.0000000000000000e+00  0.0000000000000000e+00
3.2000000000000000e+01  0.0000000000000000e+00  0.0000000000000000e+00
3.3000000000000000e+01  0.0000000000000000e+00  0.0000000000000000e+00
3.4000000000000000e+01  0.0000000000000000e+00  0.0000000000000000e+00
3.5000000000000000e+01  0.0000000000000000e+00  0.0000000000000000e+00
3.6000000000000000e+01  0.0000000000000000e+00  0.0000000000000000e+00
3.7000000000000000e+01  0.0000000000000000e+00  0.0000000000000000e+00
3.8000000000000000e+01  0.0000000000000000e+00  0.0000000000000000e+00
3.9000000000000000e+01  0.0000000000000000e+00  0.0000000000000000e+00
4.0000000000000000e+01  0.0000000000000000e+00  0.0000000000000000e+00
4.1000000000000000e+01  0.0000000000000000e+00  0.0000000000000000e+00
4.2000000000000000e+01  0.0000000000000000e+00  0.0000000000000000e+00
4.3000000000000000e+01  0.0000000000000000e+00  0.0000000000000000e+00
4.4000000000000000e+01  0.0000000000000000e+00  0.0000000000000000e+00
4.5000000000000000e+01  0.0000000000000000e+00  0.0000000000000000e+00
4.6000000000000000e+01  0.0000000000000000e+00  0.0000000000000000e+00
4.7000000000000000e+01  0.0000000000000000e+00  0.0000000000000000e+00
4.8000000000000000e+01  0.0000000000000000e+00  0.0000000000000000e+00
4.9000000000000000e+01  0.0000000000000000e+00  0.0000000000000000e+00
5.0000000000000000e+01  0.0000000000000000e+00  0.0000000000000000e+00
5.1000000000000000e+01  0.0000000000000000e+00  0.0000000000000000e+00
5.2000000000000000e+01  0.0000000000000000e+00  0.0000000000000000e+00
5.3000000000000000e+01  0.0000000000000000e+00  0.0000000000000000e+00
5.4000000000000000e+01  0.0000000000000000e+00  0.0000000000000000e+00
5.5000000000000000e+01  0.0000000000000000e+00  0.0000000000000000e+00
5.6000000000000000e+01  0.0000000000000000e+00  0.0000000000000000e+00
5.7000000000000000e+01  0.0000000000000000e+00  0.0000000000000000e+00
5.8000000000000000e+01  0.0000000000000000e+00  0.0000000000000000e+00
5.9000000000000000e+01  0.0000000000000000e+00  0.0000000000000000e+00
6.0000000000000000e+01  0.0000000000000000e+00  0.0000000000000000e+00
6.1000000000000000e+01  0.0000000000000000e+00  0.0000000000000000e+00
6.2000000000000000e+01  0.0000000000000000e+00  0.0000000000000000e+00
6.3000000000000000e+01  0.0000000000000000e+00  0.0000000000000000e+00
6.4000000000000000e+01  0.0000000000000000e+00  0.0000000000000000e+00
6.5000000000000000e+01  0.0000000000000000e+00  0.0000000000000000e+00
6.6000000000000000e+01  0.0000000000000000e+00  0.0000000000000000e+00
6.7000000000000000e+01  0.0000000000000000e+00  0.0000000000000000e+00
6.8000000000000000e+01  0.0000000000000000e+00  0.0000000000000000e+00
6.9000000000000000e+01  0.0000000000000000e+00  0.0000000000000000e+00
7.0000000000000000e+01  0.0000000000000000e+00  0.0000000000000000e+00
7.1000000000000000e+01  0.0000000000000000e+00  0.0000000000000000e+00
7.2000000000000000e+01  0.0000000000000000e+00  0.0000000000000000e+00
7.3000000000000000e+01  0.0000000000000000e+00  0.0000000000000000e+00
7.4000000000000000e+01  0.0000000000000000e+00  0.0000000000000000e+00
7.5000000000000000e+01  0.0000000000000000e+00  0.0000000000000000e+00
7.6000000000000000e+01  0.0000000000000000e+00  0.0000000000000000e+00
7.7000000000000000e+01  0.0000000000000000e+00  0.0000000000000000e+00
7.8000000000000000e+01  0.0000000000000000e+00  0.0000000000000000e+00
7.9000000000000000e+01  0.0000000000000000e+00  0.0000000000000000e+00
8.0000000000000000e+01  0.0000000000000000e+00  0.0000000000000000e+00
8.1000000000000000e+01  0.0000000000000000e+00  0.0000000000000000e+00
8.2000000000000000e+01  0.0000000000000000e+00  0.0000000000000000e+00
8.3000000000000000e+01  0.0000000000000000e+00  0.0000000000000000e+00
8.4000000000000000e+01  0.0000000000000000e+00  0.0000000000000000e+00
8.5000000000000000e+01  0.0000000000000000e+00  0.0000000000000000e+00
8.6000000000000000e+01  0.0000000000000000e+00  0.0000000000000000e+00
8.7000000000000000e+01  0.0000000000000000e+00  0.0000000000000000e+00
8.8000000000000000e+01  0.0000000000000000e+00  0.0000000000000000e+00
8.9000000000000000e+01  0.0000000000000000e+00  0.0000000000000000e+00
9.0000000000000000e+01  0.0000000000000000e+00  0.0000000000000000e+00
9.1000000000000000e+01  0.0000000000000000e+00  0.0000000000000000e+00
9.2000000000000000e+01  0.0000000000000000e+00  0.0000000000000000e+00
9.3000000000000000e+01  0.0000000000000000e+00  0.0000000000000000e+00
9.4000000000000000e+01  0.0000000000000000e+00  0.0000000000000000e+00
9.5000000000000000e+01  0.0000000000000000e+00  0.0000000000000000e+00
9.6000000000000000e+01  0.0000000000000000e+00  0.0000000000000000e+00
9.7000000000000000e+01  0.0000000000000000e+00  0.0000000000000000e+00
9.8000000000000000e+01  0.0000000000000000e+00  0.0000000000000000e+00
9.9000000000000000e+01  0.0000000000000000e+00  0.0000000000000000e+00

POINT_DATA 100

VECTORS velocity float
1.0011474337861198e-02  0.0000000000000000e+00  0.0000000000000000e+00
1.0011473318779853e-02  0.0000000000000000e+00  0.0000000000000000e+00
1.0011472309912976e-02  0.0000000000000000e+00  0.0000000000000000e+00
1.0011471305759264e-02  0.0000000000000000e+00  0.0000000000000000e+00
1.0011470303901983e-02  0.0000000000000000e+00  0.0000000000000000e+00
1.0011469303283328e-02  0.0000000000000000e+00  0.0000000000000000e+00
1.0011468303441835e-02  0.0000000000000000e+00  0.0000000000000000e+00
1.0011467304176720e-02  0.0000000000000000e+00  0.0000000000000000e+00
1.0011466305400939e-02  0.0000000000000000e+00  0.0000000000000000e+00
1.0011465307076809e-02  0.0000000000000000e+00  0.0000000000000000e+00
1.0011464309188058e-02  0.0000000000000000e+00  0.0000000000000000e+00
1.0011463311727668e-02  0.0000000000000000e+00  0.0000000000000000e+00
1.0011462314692625e-02  0.0000000000000000e+00  0.0000000000000000e+00
1.0011461318081633e-02  0.0000000000000000e+00  0.0000000000000000e+00
1.0011460321894153e-02  0.0000000000000000e+00  0.0000000000000000e+00
1.0011459326129941e-02  0.0000000000000000e+00  0.0000000000000000e+00
1.0011458330788864e-02  0.0000000000000000e+00  0.0000000000000000e+00
1.0011457335870916e-02  0.0000000000000000e+00  0.0000000000000000e+00
1.0011456341376106e-02  0.0000000000000000e+00  0.0000000000000000e+00
1.0011455347304410e-02  0.0000000000000000e+00  0.0000000000000000e+00
1.0011454353655809e-02  0.0000000000000000e+00  0.0000000000000000e+00
1.0011453360430330e-02  0.0000000000000000e+00  0.0000000000000000e+00
1.0011452367627956e-02  0.0000000000000000e+00  0.0000000000000000e+00
1.0011451375248667e-02  0.0000000000000000e+00  0.0000000000000000e+00
1.0011450383292491e-02  0.0000000000000000e+00  0.0000000000000000e+00
1.0011449391759443e-02  0.0000000000000000e+00  0.0000000000000000e+00
1.0011448400649525e-02  0.0000000000000000e+00  0.0000000000000000e+00
1.0011447409962706e-02  0.0000000000000000e+00  0.0000000000000000e+00
1.0011446419698998e-02  0.0000000000000000e+00  0.0000000000000000e+00
1.0011445429858401e-02  0.0000000000000000e+00  0.0000000000000000e+00
1.0011444440440935e-02  0.0000000000000000e+00  0.0000000000000000e+00
1.0011443451446635e-02  0.0000000000000000e+00  0.0000000000000000e+00
1.0011442462875437e-02  0.0000000000000000e+00  0.0000000000000000e+00
1.0011441474727344e-02  0.0000000000000000e+00  0.0000000000000000e+00
1.0011440487002409e-02  0.0000000000000000e+00  0.0000000000000000e+00
1.0011439499700632e-02  0.0000000000000000e+00  0.0000000000000000e+00
1.0011438512821994e-02  0.0000000000000000e+00  0.0000000000000000e+00
1.0011437526366490e-02  0.0000000000000000e+00  0.0000000000000000e+00
1.0011436540334153e-02  0.0000000000000000e+00  0.0000000000000000e+00
1.0011435554724996e-02  0.0000000000000000e+00  0.0000000000000000e+00
1.0011434569538990e-02  0.0000000000000000e+00  0.0000000000000000e+00
1.0011433584776122e-02  0.0000000000000000e+00  0.0000000000000000e+00
1.0011432600436373e-02  0.0000000000000000e+00  0.0000000000000000e+00
1.0011431616519781e-02  0.0000000000000000e+00  0.0000000000000000e+00
1.0011430633026371e-02  0.0000000000000000e+00  0.0000000000000000e+00
1.0011429649956138e-02  0.0000000000000000e+00  0.0000000000000000e+00
1.0011428667309101e-02  0.0000000000000000e+00  0.0000000000000000e+00
1.0011427685085231e-02  0.0000000000000000e+00  0.0000000000000000e+00
1.0011426703284539e-02  0.0000000000000000e+00  0.0000000000000000e+00
1.0011425721907016e-02  0.0000000000000000e+00  0.0000000000000000e+00
1.0011424740952665e-02  0.0000000000000000e+00  0.0000000000000000e+00
1.0011423760421512e-02  0.0000000000000000e+00  0.0000000000000000e+00
1.0011422780313540e-02  0.0000000000000000e+00  0.0000000000000000e+00
1.0011421800628782e-02  0.0000000000000000e+00  0.0000000000000000e+00
1.0011420821367216e-02  0.0000000000000000e+00  0.0000000000000000e+00
1.0011419842528808e-02  0.0000000000000000e+00  0.0000000000000000e+00
1.0011418864113612e-02  0.0000000000000000e+00  0.0000000000000000e+00
1.0011417886121636e-02  0.0000000000000000e+00  0.0000000000000000e+00
1.0011416908552855e-02  0.0000000000000000e+00  0.0000000000000000e+00
1.0011415931407301e-02  0.0000000000000000e+00  0.0000000000000000e+00
1.0011414954684947e-02  0.0000000000000000e+00  0.0000000000000000e+00
1.0011413978385798e-02  0.0000000000000000e+00  0.0000000000000000e+00
1.0011413002509890e-02  0.0000000000000000e+00  0.0000000000000000e+00
1.0011412027057244e-02  0.0000000000000000e+00  0.0000000000000000e+00
1.0011411052027809e-02  0.0000000000000000e+00  0.0000000000000000e+00
1.0011410077421580e-02  0.0000000000000000e+00  0.0000000000000000e+00
1.0011409103238576e-02  0.0000000000000000e+00  0.0000000000000000e+00
1.0011408129478793e-02  0.0000000000000000e+00  0.0000000000000000e+00
1.0011407156142269e-02  0.0000000000000000e+00  0.0000000000000000e+00
1.0011406183228974e-02  0.0000000000000000e+00  0.0000000000000000e+00
1.0011405210738922e-02  0.0000000000000000e+00  0.0000000000000000e+00
1.0011404238672108e-02  0.0000000000000000e+00  0.0000000000000000e+00
1.0011403267028537e-02  0.0000000000000000e+00  0.0000000000000000e+00
1.0011402295808226e-02  0.0000000000000000e+00  0.0000000000000000e+00
1.0011401325011170e-02  0.0000000000000000e+00  0.0000000000000000e+00
1.0011400354637370e-02  0.0000000000000000e+00  0.0000000000000000e+00
1.0011399384686800e-02  0.0000000000000000e+00  0.0000000000000000e+00
1.0011398415159507e-02  0.0000000000000000e+00  0.0000000000000000e+00
1.0011397446055491e-02  0.0000000000000000e+00  0.0000000000000000e+00
1.0011396477374736e-02  0.0000000000000000e+00  0.0000000000000000e+00
1.0011395509117241e-02  0.0000000000000000e+00  0.0000000000000000e+00
1.0011394541283032e-02  0.0000000000000000e+00  0.0000000000000000e+00
1.0011393573872110e-02  0.0000000000000000e+00  0.0000000000000000e+00
1.0011392606884455e-02  0.0000000000000000e+00  0.0000000000000000e+00
1.0011391640320107e-02  0.0000000000000000e+00  0.0000000000000000e+00
1.0011390674179041e-02  0.0000000000000000e+00  0.0000000000000000e+00
1.0011389708461266e-02  0.0000000000000000e+00  0.0000000000000000e+00
1.0011388743166793e-02  0.0000000000000000e+00  0.0000000000000000e+00
1.0011387778295584e-02  0.0000000000000000e+00  0.0000000000000000e+00
1.0011386813847714e-02  0.0000000000000000e+00  0.0000000000000000e+00
1.0011385849823095e-02  0.0000000000000000e+00  0.0000000000000000e+00
1.0011384886221974e-02  0.0000000000000000e+00  0.0000000000000000e+00
1.0011383923043739e-02  0.0000000000000000e+00  0.0000000000000000e+00
1.0011382960289800e-02  0.0000000000000000e+00  0.0000000000000000e+00
1.0011381997956773e-02  0.0000000000000000e+00  0.0000000000000000e+00
1.0011381036052812e-02  0.0000000000000000e+00  0.0000000000000000e+00
1.0011380074558618e-02  0.0000000000000000e+00  0.0000000000000000e+00
1.0011379113519764e-02  0.0000000000000000e+00  0.0000000000000000e+00
1.0011378152828446e-02  0.0000000000000000e+00  0.0000000000000000e+00
1.0011377192739706e-02  0.0000000000000000e+00  0.0000000000000000e+00

SCALARS pressure float
LOOKUP_TABLE default
9.2958979882030517e-06
9.3166887973293391e-06
9.3374796064556265e-06
9.3582705566346379e-06
9.3790617097581559e-06
9.3998530929808592e-06
9.4206447182685991e-06
9.4414365909663620e-06
9.4622287135415447e-06
9.4830210872143743e-06
9.5038137126656503e-06
9.5246065903432497e-06
9.5453997205949762e-06
9.5661931037252144e-06
9.5869867400201937e-06
9.6077806297581983e-06
9.6285747732135432e-06
9.6493691706591272e-06
9.6701638223680812e-06
9.6909587286130683e-06
9.7117538896665097e-06
9.7325493058006333e-06
9.7533449772879483e-06
9.7741409044004944e-06
9.7949370874101355e-06
9.8157335265892568e-06
9.8365302222102847e-06
9.8573271745454131e-06
9.8781243838667209e-06
9.8989218504462750e-06
9.9197195745561052e-06
9.9405175564689476e-06
9.9613157964572385e-06
9.9821142947925857e-06
1.0002913051747083e-05
1.0023712067593629e-05
1.0044511342604538e-05
1.0065310877051870e-05
1.0086110671208078e-05
1.0106910725345941e-05
1.0127711039738169e-05
1.0148511614656864e-05
1.0169312450373714e-05
1.0190113547160759e-05
1.0210914905290377e-05
1.0231716525035132e-05
1.0252518406667784e-05
1.0273320550460880e-05
1.0294122956686752e-05
1.0314925625617913e-05
1.0335728557526393e-05
1.0356531752684685e-05
1.0377335211365333e-05
1.0398138933840863e-05
1.0418942920384069e-05
1.0439747171266875e-05
1.0460551686761544e-05
1.0481356467140934e-05
1.0502161512677704e-05
1.0522966823644329e-05
1.0543772400313360e-05
1.0564578242957142e-05
1.0585384351848365e-05
1.0606190727260154e-05
1.0626997369465438e-05
1.0647804278736577e-05
1.0668611455345653e-05
1.0689418899565191e-05
1.0710226611667893e-05
1.0731034591926421e-05
1.0751842840613392e-05
1.0772651358001379e-05
1.0793460144362820e-05
1.0814269199970445e-05
1.0835078525097024e-05
1.0855888120015222e-05
1.0876697984997293e-05
1.0897508120315677e-05
1.0918318526243389e-05
1.0939129203053212e-05
1.0959940151017554e-05
1.0980751370409135e-05
1.1001562861500845e-05
1.1022374624565231e-05
1.1043186659875244e-05
1.1063998967703713e-05
1.1084811548323242e-05
1.1105624402006780e-05
1.1126437529026918e-05
1.1147250929656535e-05
1.1168064604168143e-05
1.1188878552835979e-05
1.1209692775930432e-05
1.1230507273729843e-05
1.1251322046492987e-05
1.1272137094526034e-05
1.1292952418023782e-05
1.1313768017443745e-05
1.1334583892620958e-05
1.1355400044862815e-05

SCALARS diameter float
LOOKUP_TABLE default
1.0000074364648990e+00
1.0000074557741758e+00
1.0000074750834544e+00
1.0000074943928521e+00
1.0000075137024198e+00
1.0000075330121834e+00
1.0000075523221528e+00
1.0000075716323327e+00
1.0000075909427228e+00
1.0000076102533280e+00
1.0000076295641467e+00
1.0000076488751812e+00
1.0000076681864289e+00
1.0000076874978927e+00
1.0000077068095716e+00
1.0000077261214666e+00
1.0000077454335781e+00
1.0000077647459058e+00
1.0000077840584489e+00
1.0000078033712108e+00
1.0000078226841889e+00
1.0000078419973846e+00
1.0000078613107983e+00
1.0000078806244308e+00
1.0000078999382809e+00
1.0000079192523494e+00
1.0000079385666369e+00
1.0000079578811447e+00
1.0000079771958719e+00
1.0000079965108177e+00
1.0000080158259852e+00
1.0000080351413723e+00
1.0000080544569803e+00
1.0000080737728092e+00
1.0000080930888595e+00
1.0000081124051312e+00
1.0000081317216256e+00
1.0000081510383414e+00
1.0000081703552790e+00
1.0000081896724411e+00
1.0000082089898259e+00
1.0000082283074325e+00
1.0000082476252643e+00
1.0000082669433199e+00
1.0000082862615991e+00
1.0000083055801028e+00
1.0000083248988307e+00
1.0000083442177852e+00
1.0000083635369648e+00
1.0000083828563686e+00
1.0000084021759994e+00
1.0000084214958562e+00
1.0000084408159400e+00
1.0000084601362507e+00
1.0000084794567869e+00
1.0000084987775519e+00
1.0000085180985450e+00
1.0000085374197658e+00
1.0000085567412138e+00
1.0000085760628914e+00
1.0000085953847972e+00
1.0000086147069327e+00
1.0000086340292973e+00
1.0000086533518915e+00
1.0000086726747162e+00
1.0000086919977709e+00
1.0000087113210556e+00
1.0000087306445722e+00
1.0000087499683190e+00
1.0000087692922977e+00
1.0000087886165083e+00
1.0000088079409513e+00
1.0000088272656256e+00
1.0000088465905335e+00
1.0000088659156732e+00
1.0000088852410467e+00
1.0000089045666529e+00
1.0000089238924943e+00
1.0000089432185690e+00
1.0000089625448785e+00
1.0000089818714220e+00
1.0000090011982010e+00
1.0000090205252150e+00
1.0000090398524639e+00
1.0000090591799493e+00
1.0000090785076710e+00
1.0000090978356286e+00
1.0000091171638235e+00
1.0000091364922543e+00
1.0000091558209221e+00
1.0000091751498288e+00
1.0000091944789729e+00
1.0000092138083543e+00
1.0000092331379746e+00
1.0000092524678339e+00
1.0000092717979325e+00
1.0000092911282699e+00
1.0000093104588479e+00
1.0000093297896635e+00
1.0000093491207207e+00

