# vtk DataFile Version 2.0

ASCII

DATASET UNSTRUCTURED_GRID

POINTS 100 float 

0.0000000000000000e+00  0.0000000000000000e+00  0.0000000000000000e+00
1.0000000000000000e+00  0.0000000000000000e+00  0.0000000000000000e+00
2.0000000000000000e+00  0.0000000000000000e+00  0.0000000000000000e+00
3.0000000000000000e+00  0.0000000000000000e+00  0.0000000000000000e+00
4.0000000000000000e+00  0.0000000000000000e+00  0.0000000000000000e+00
5.0000000000000000e+00  0.0000000000000000e+00  0.0000000000000000e+00
6.0000000000000000e+00  0.0000000000000000e+00  0.0000000000000000e+00
7.0000000000000000e+00  0.0000000000000000e+00  0.0000000000000000e+00
8.0000000000000000e+00  0.0000000000000000e+00  0.0000000000000000e+00
9.0000000000000000e+00  0.0000000000000000e+00  0.0000000000000000e+00
1.0000000000000000e+01  0.0000000000000000e+00  0.0000000000000000e+00
1.1000000000000000e+01  0.0000000000000000e+00  0.0000000000000000e+00
1.2000000000000000e+01  0.0000000000000000e+00  0.0000000000000000e+00
1.3000000000000000e+01  0.0000000000000000e+00  0.0000000000000000e+00
1.4000000000000000e+01  0.0000000000000000e+00  0.0000000000000000e+00
1.5000000000000000e+01  0.0000000000000000e+00  0.0000000000000000e+00
1.6000000000000000e+01  0.0000000000000000e+00  0.0000000000000000e+00
1.7000000000000000e+01  0.0000000000000000e+00  0.0000000000000000e+00
1.8000000000000000e+01  0.0000000000000000e+00  0.0000000000000000e+00
1.9000000000000000e+01  0.0000000000000000e+00  0.0000000000000000e+00
2.0000000000000000e+01  0.0000000000000000e+00  0.0000000000000000e+00
2.1000000000000000e+01  0.0000000000000000e+00  0.0000000000000000e+00
2.2000000000000000e+01  0.0000000000000000e+00  0.0000000000000000e+00
2.3000000000000000e+01  0.0000000000000000e+00  0.0000000000000000e+00
2.4000000000000000e+01  0.0000000000000000e+00  0.0000000000000000e+00
2.5000000000000000e+01  0.0000000000000000e+00  0.0000000000000000e+00
2.6000000000000000e+01  0.0000000000000000e+00  0.0000000000000000e+00
2.7000000000000000e+01  0.0000000000000000e+00  0.0000000000000000e+00
2.8000000000000000e+01  0.0000000000000000e+00  0.0000000000000000e+00
2.9000000000000000e+01  0.0000000000000000e+00  0.0000000000000000e+00
3.0000000000000000e+01  0.0000000000000000e+00  0.0000000000000000e+00
3.1000000000000000e+01  0.0000000000000000e+00  0.0000000000000000e+00
3.2000000000000000e+01  0.0000000000000000e+00  0.0000000000000000e+00
3.3000000000000000e+01  0.0000000000000000e+00  0.0000000000000000e+00
3.4000000000000000e+01  0.0000000000000000e+00  0.0000000000000000e+00
3.5000000000000000e+01  0.0000000000000000e+00  0.0000000000000000e+00
3.6000000000000000e+01  0.0000000000000000e+00  0.0000000000000000e+00
3.7000000000000000e+01  0.0000000000000000e+00  0.0000000000000000e+00
3.8000000000000000e+01  0.0000000000000000e+00  0.0000000000000000e+00
3.9000000000000000e+01  0.0000000000000000e+00  0.0000000000000000e+00
4.0000000000000000e+01  0.0000000000000000e+00  0.0000000000000000e+00
4.1000000000000000e+01  0.0000000000000000e+00  0.0000000000000000e+00
4.2000000000000000e+01  0.0000000000000000e+00  0.0000000000000000e+00
4.3000000000000000e+01  0.0000000000000000e+00  0.0000000000000000e+00
4.4000000000000000e+01  0.0000000000000000e+00  0.0000000000000000e+00
4.5000000000000000e+01  0.0000000000000000e+00  0.0000000000000000e+00
4.6000000000000000e+01  0.0000000000000000e+00  0.0000000000000000e+00
4.7000000000000000e+01  0.0000000000000000e+00  0.0000000000000000e+00
4.8000000000000000e+01  0.0000000000000000e+00  0.0000000000000000e+00
4.9000000000000000e+01  0.0000000000000000e+00  0.0000000000000000e+00
5.0000000000000000e+01  0.0000000000000000e+00  0.0000000000000000e+00
5.1000000000000000e+01  0.0000000000000000e+00  0.0000000000000000e+00
5.2000000000000000e+01  0.0000000000000000e+00  0.0000000000000000e+00
5.3000000000000000e+01  0.0000000000000000e+00  0.0000000000000000e+00
5.4000000000000000e+01  0.0000000000000000e+00  0.0000000000000000e+00
5.5000000000000000e+01  0.0000000000000000e+00  0.0000000000000000e+00
5.6000000000000000e+01  0.0000000000000000e+00  0.0000000000000000e+00
5.7000000000000000e+01  0.0000000000000000e+00  0.0000000000000000e+00
5.8000000000000000e+01  0.0000000000000000e+00  0.0000000000000000e+00
5.9000000000000000e+01  0.0000000000000000e+00  0.0000000000000000e+00
6.0000000000000000e+01  0.0000000000000000e+00  0.0000000000000000e+00
6.1000000000000000e+01  0.0000000000000000e+00  0.0000000000000000e+00
6.2000000000000000e+01  0.0000000000000000e+00  0.0000000000000000e+00
6.3000000000000000e+01  0.0000000000000000e+00  0.0000000000000000e+00
6.4000000000000000e+01  0.0000000000000000e+00  0.0000000000000000e+00
6.5000000000000000e+01  0.0000000000000000e+00  0.0000000000000000e+00
6.6000000000000000e+01  0.0000000000000000e+00  0.0000000000000000e+00
6.7000000000000000e+01  0.0000000000000000e+00  0.0000000000000000e+00
6.8000000000000000e+01  0.0000000000000000e+00  0.0000000000000000e+00
6.9000000000000000e+01  0.0000000000000000e+00  0.0000000000000000e+00
7.0000000000000000e+01  0.0000000000000000e+00  0.0000000000000000e+00
7.1000000000000000e+01  0.0000000000000000e+00  0.0000000000000000e+00
7.2000000000000000e+01  0.0000000000000000e+00  0.0000000000000000e+00
7.3000000000000000e+01  0.0000000000000000e+00  0.0000000000000000e+00
7.4000000000000000e+01  0.0000000000000000e+00  0.0000000000000000e+00
7.5000000000000000e+01  0.0000000000000000e+00  0.0000000000000000e+00
7.6000000000000000e+01  0.0000000000000000e+00  0.0000000000000000e+00
7.7000000000000000e+01  0.0000000000000000e+00  0.0000000000000000e+00
7.8000000000000000e+01  0.0000000000000000e+00  0.0000000000000000e+00
7.9000000000000000e+01  0.0000000000000000e+00  0.0000000000000000e+00
8.0000000000000000e+01  0.0000000000000000e+00  0.0000000000000000e+00
8.1000000000000000e+01  0.0000000000000000e+00  0.0000000000000000e+00
8.2000000000000000e+01  0.0000000000000000e+00  0.0000000000000000e+00
8.3000000000000000e+01  0.0000000000000000e+00  0.0000000000000000e+00
8.4000000000000000e+01  0.0000000000000000e+00  0.0000000000000000e+00
8.5000000000000000e+01  0.0000000000000000e+00  0.0000000000000000e+00
8.6000000000000000e+01  0.0000000000000000e+00  0.0000000000000000e+00
8.7000000000000000e+01  0.0000000000000000e+00  0.0000000000000000e+00
8.8000000000000000e+01  0.0000000000000000e+00  0.0000000000000000e+00
8.9000000000000000e+01  0.0000000000000000e+00  0.0000000000000000e+00
9.0000000000000000e+01  0.0000000000000000e+00  0.0000000000000000e+00
9.1000000000000000e+01  0.0000000000000000e+00  0.0000000000000000e+00
9.2000000000000000e+01  0.0000000000000000e+00  0.0000000000000000e+00
9.3000000000000000e+01  0.0000000000000000e+00  0.0000000000000000e+00
9.4000000000000000e+01  0.0000000000000000e+00  0.0000000000000000e+00
9.5000000000000000e+01  0.0000000000000000e+00  0.0000000000000000e+00
9.6000000000000000e+01  0.0000000000000000e+00  0.0000000000000000e+00
9.7000000000000000e+01  0.0000000000000000e+00  0.0000000000000000e+00
9.8000000000000000e+01  0.0000000000000000e+00  0.0000000000000000e+00
9.9000000000000000e+01  0.0000000000000000e+00  0.0000000000000000e+00

POINT_DATA 100

VECTORS velocity float
1.0025912316294900e-02  0.0000000000000000e+00  0.0000000000000000e+00
1.0025911492534786e-02  0.0000000000000000e+00  0.0000000000000000e+00
1.0025910687813029e-02  0.0000000000000000e+00  0.0000000000000000e+00
1.0025909891497934e-02  0.0000000000000000e+00  0.0000000000000000e+00
1.0025909099071020e-02  0.0000000000000000e+00  0.0000000000000000e+00
1.0025908308613770e-02  0.0000000000000000e+00  0.0000000000000000e+00
1.0025907519312349e-02  0.0000000000000000e+00  0.0000000000000000e+00
1.0025906730821856e-02  0.0000000000000000e+00  0.0000000000000000e+00
1.0025905942996216e-02  0.0000000000000000e+00  0.0000000000000000e+00
1.0025905155773597e-02  0.0000000000000000e+00  0.0000000000000000e+00
1.0025904369127904e-02  0.0000000000000000e+00  0.0000000000000000e+00
1.0025903583048116e-02  0.0000000000000000e+00  0.0000000000000000e+00
1.0025902797529563e-02  0.0000000000000000e+00  0.0000000000000000e+00
1.0025902012570320e-02  0.0000000000000000e+00  0.0000000000000000e+00
1.0025901228169548e-02  0.0000000000000000e+00  0.0000000000000000e+00
1.0025900444326882e-02  0.0000000000000000e+00  0.0000000000000000e+00
1.0025899661042203e-02  0.0000000000000000e+00  0.0000000000000000e+00
1.0025898878315433e-02  0.0000000000000000e+00  0.0000000000000000e+00
1.0025898096146546e-02  0.0000000000000000e+00  0.0000000000000000e+00
1.0025897314535565e-02  0.0000000000000000e+00  0.0000000000000000e+00
1.0025896533482506e-02  0.0000000000000000e+00  0.0000000000000000e+00
1.0025895752987369e-02  0.0000000000000000e+00  0.0000000000000000e+00
1.0025894973050155e-02  0.0000000000000000e+00  0.0000000000000000e+00
1.0025894193670866e-02  0.0000000000000000e+00  0.0000000000000000e+00
1.0025893414849526e-02  0.0000000000000000e+00  0.0000000000000000e+00
1.0025892636586131e-02  0.0000000000000000e+00  0.0000000000000000e+00
1.0025891858880672e-02  0.0000000000000000e+00  0.0000000000000000e+00
1.0025891081733159e-02  0.0000000000000000e+00  0.0000000000000000e+00
1.0025890305143626e-02  0.0000000000000000e+00  0.0000000000000000e+00
1.0025889529112085e-02  0.0000000000000000e+00  0.0000000000000000e+00
1.0025888753638522e-02  0.0000000000000000e+00  0.0000000000000000e+00
1.0025887978722964e-02  0.0000000000000000e+00  0.0000000000000000e+00
1.0025887204365392e-02  0.0000000000000000e+00  0.0000000000000000e+00
1.0025886430565806e-02  0.0000000000000000e+00  0.0000000000000000e+00
1.0025885657324259e-02  0.0000000000000000e+00  0.0000000000000000e+00
1.0025884884640743e-02  0.0000000000000000e+00  0.0000000000000000e+00
1.0025884112515282e-02  0.0000000000000000e+00  0.0000000000000000e+00
1.0025883340947839e-02  0.0000000000000000e+00  0.0000000000000000e+00
1.0025882569938442e-02  0.0000000000000000e+00  0.0000000000000000e+00
1.0025881799487107e-02  0.0000000000000000e+00  0.0000000000000000e+00
1.0025881029593824e-02  0.0000000000000000e+00  0.0000000000000000e+00
1.0025880260258609e-02  0.0000000000000000e+00  0.0000000000000000e+00
1.0025879491481466e-02  0.0000000000000000e+00  0.0000000000000000e+00
1.0025878723262429e-02  0.0000000000000000e+00  0.0000000000000000e+00
1.0025877955601501e-02  0.0000000000000000e+00  0.0000000000000000e+00
1.0025877188498669e-02  0.0000000000000000e+00  0.0000000000000000e+00
1.0025876421953931e-02  0.0000000000000000e+00  0.0000000000000000e+00
1.0025875655967300e-02  0.0000000000000000e+00  0.0000000000000000e+00
1.0025874890538787e-02  0.0000000000000000e+00  0.0000000000000000e+00
1.0025874125668414e-02  0.0000000000000000e+00  0.0000000000000000e+00
1.0025873361356222e-02  0.0000000000000000e+00  0.0000000000000000e+00
1.0025872597602202e-02  0.0000000000000000e+00  0.0000000000000000e+00
1.0025871834406317e-02  0.0000000000000000e+00  0.0000000000000000e+00
1.0025871071768585e-02  0.0000000000000000e+00  0.0000000000000000e+00
1.0025870309689036e-02  0.0000000000000000e+00  0.0000000000000000e+00
1.0025869548167674e-02  0.0000000000000000e+00  0.0000000000000000e+00
1.0025868787204524e-02  0.0000000000000000e+00  0.0000000000000000e+00
1.0025868026799582e-02  0.0000000000000000e+00  0.0000000000000000e+00
1.0025867266952848e-02  0.0000000000000000e+00  0.0000000000000000e+00
1.0025866507664330e-02  0.0000000000000000e+00  0.0000000000000000e+00
1.0025865748934045e-02  0.0000000000000000e+00  0.0000000000000000e+00
1.0025864990761992e-02  0.0000000000000000e+00  0.0000000000000000e+00
1.0025864233148154e-02  0.0000000000000000e+00  0.0000000000000000e+00
1.0025863476092547e-02  0.0000000000000000e+00  0.0000000000000000e+00
1.0025862719595196e-02  0.0000000000000000e+00  0.0000000000000000e+00
1.0025861963656115e-02  0.0000000000000000e+00  0.0000000000000000e+00
1.0025861208275299e-02  0.0000000000000000e+00  0.0000000000000000e+00
1.0025860453452778e-02  0.0000000000000000e+00  0.0000000000000000e+00
1.0025859699188566e-02  0.0000000000000000e+00  0.0000000000000000e+00
1.0025858945482632e-02  0.0000000000000000e+00  0.0000000000000000e+00
1.0025858192334985e-02  0.0000000000000000e+00  0.0000000000000000e+00
1.0025857439745683e-02  0.0000000000000000e+00  0.0000000000000000e+00
1.0025856687714706e-02  0.0000000000000000e+00  0.0000000000000000e+00
1.0025855936242044e-02  0.0000000000000000e+00  0.0000000000000000e+00
1.0025855185327733e-02  0.0000000000000000e+00  0.0000000000000000e+00
1.0025854434971776e-02  0.0000000000000000e+00  0.0000000000000000e+00
1.0025853685174195e-02  0.0000000000000000e+00  0.0000000000000000e+00
1.0025852935934962e-02  0.0000000000000000e+00  0.0000000000000000e+00
1.0025852187254094e-02  0.0000000000000000e+00  0.0000000000000000e+00
1.0025851439131593e-02  0.0000000000000000e+00  0.0000000000000000e+00
1.0025850691567478e-02  0.0000000000000000e+00  0.0000000000000000e+00
1.0025849944561772e-02  0.0000000000000000e+00  0.0000000000000000e+00
1.0025849198114454e-02  0.0000000000000000e+00  0.0000000000000000e+00
1.0025848452225546e-02  0.0000000000000000e+00  0.0000000000000000e+00
1.0025847706895050e-02  0.0000000000000000e+00  0.0000000000000000e+00
1.0025846962122996e-02  0.0000000000000000e+00  0.0000000000000000e+00
1.0025846217909385e-02  0.0000000000000000e+00  0.0000000000000000e+00
1.0025845474254218e-02  0.0000000000000000e+00  0.0000000000000000e+00
1.0025844731157498e-02  0.0000000000000000e+00  0.0000000000000000e+00
1.0025843988619273e-02  0.0000000000000000e+00  0.0000000000000000e+00
1.0025843246639429e-02  0.0000000000000000e+00  0.0000000000000000e+00
1.0025842505218272e-02  0.0000000000000000e+00  0.0000000000000000e+00
1.0025841764355066e-02  0.0000000000000000e+00  0.0000000000000000e+00
1.0025841024051583e-02  0.0000000000000000e+00  0.0000000000000000e+00
1.0025840284303634e-02  0.0000000000000000e+00  0.0000000000000000e+00
1.0025839545121252e-02  0.0000000000000000e+00  0.0000000000000000e+00
1.0025838806480451e-02  0.0000000000000000e+00  0.0000000000000000e+00
1.0025838068438883e-02  0.0000000000000000e+00  0.0000000000000000e+00
1.0025837330858328e-02  0.0000000000000000e+00  0.0000000000000000e+00
1.0025836594069713e-02  0.0000000000000000e+00  0.0000000000000000e+00

SCALARS pressure float
LOOKUP_TABLE default
2.3033439181590378e-05
2.3061440428408552e-05
2.3089441675226729e-05
2.3117443185431885e-05
2.3145445070943692e-05
2.3173447379326229e-05
2.3201450130826032e-05
2.3229453334104516e-05
2.3257456992914367e-05
2.3285461108929595e-05
2.3313465682944983e-05
2.3341470715384130e-05
2.3369476206513495e-05
2.3397482156533449e-05
2.3425488565616735e-05
2.3453495433923674e-05
2.3481502761609713e-05
2.3509510548828279e-05
2.3537518795731650e-05
2.3565527502471607e-05
2.3593536669200388e-05
2.3621546296070321e-05
2.3649556383233475e-05
2.3677566930841733e-05
2.3705577939047033e-05
2.3733589408001475e-05
2.3761601337856949e-05
2.3789613728765246e-05
2.3817626580878341e-05
2.3845639894348432e-05
2.3873653669327660e-05
2.3901667905968089e-05
2.3929682604421857e-05
2.3957697764840574e-05
2.3985713387376405e-05
2.4013729472181619e-05
2.4041746019408659e-05
2.4069763029209416e-05
2.4097780501735945e-05
2.4125798437140294e-05
2.4153816835574617e-05
2.4181835697190615e-05
2.4209855022140500e-05
2.4237874810576489e-05
2.4265895062650803e-05
2.4293915778515713e-05
2.4321936958323105e-05
2.4349958602225024e-05
2.4377980710373378e-05
2.4406003282920292e-05
2.4434026320018281e-05
2.4462049821819976e-05
2.4490073788477794e-05
2.4518098220143381e-05
2.4546123116968858e-05
2.4574148479106498e-05
2.4602174306708677e-05
2.4630200599928022e-05
2.4658227358916951e-05
2.4686254583827503e-05
2.4714282274812070e-05
2.4742310432022916e-05
2.4770339055612235e-05
2.4798368145731882e-05
2.4826397702533875e-05
2.4854427726170579e-05
2.4882458216794284e-05
2.4910489174557473e-05
2.4938520599612817e-05
2.4966552492112591e-05
2.4994584852208663e-05
2.5022617680053598e-05
2.5050650975800079e-05
2.5078684739600391e-05
2.5106718971606883e-05
2.5134753671972142e-05
2.5162788840848780e-05
2.5190824478389438e-05
2.5218860584746207e-05
2.5246897160071320e-05
2.5274934204517102e-05
2.5302971718236057e-05
2.5331009701380726e-05
2.5359048154103459e-05
2.5387087076556658e-05
2.5415126468892704e-05
2.5443166331264490e-05
2.5471206663824197e-05
2.5499247466724434e-05
2.5527288740118052e-05
2.5555330484157007e-05
2.5583372698995108e-05
2.5611415384781577e-05
2.5639458541676004e-05
2.5667502169813531e-05
2.5695546269387625e-05
2.5723590840452099e-05
2.5751635883397063e-05
2.5779681397807033e-05
2.5807727385193445e-05

SCALARS diameter float
LOOKUP_TABLE default
1.0000203621910830e+00
1.0000203892970219e+00
1.0000204164029602e+00
1.0000204435091460e+00
1.0000204706156834e+00
1.0000204977226166e+00
1.0000205248299656e+00
1.0000205519377365e+00
1.0000205790459360e+00
1.0000206061545631e+00
1.0000206332636199e+00
1.0000206603731061e+00
1.0000206874830226e+00
1.0000207145933699e+00
1.0000207417041469e+00
1.0000207688153548e+00
1.0000207959269933e+00
1.0000208230390633e+00
1.0000208501515644e+00
1.0000208772644963e+00
1.0000209043778610e+00
1.0000209314916564e+00
1.0000209586058828e+00
1.0000209857205429e+00
1.0000210128356342e+00
1.0000210399511589e+00
1.0000210670671152e+00
1.0000210941835048e+00
1.0000211213003265e+00
1.0000211484175829e+00
1.0000211755352710e+00
1.0000212026533937e+00
1.0000212297719493e+00
1.0000212568909390e+00
1.0000212840103631e+00
1.0000213111302205e+00
1.0000213382505119e+00
1.0000213653712391e+00
1.0000213924924002e+00
1.0000214196139967e+00
1.0000214467360269e+00
1.0000214738584940e+00
1.0000215009813953e+00
1.0000215281047327e+00
1.0000215552285052e+00
1.0000215823527134e+00
1.0000216094773593e+00
1.0000216366024404e+00
1.0000216637279584e+00
1.0000216908539126e+00
1.0000217179803035e+00
1.0000217451071314e+00
1.0000217722343963e+00
1.0000217993620986e+00
1.0000218264902379e+00
1.0000218536188146e+00
1.0000218807478309e+00
1.0000219078772841e+00
1.0000219350071751e+00
1.0000219621375050e+00
1.0000219892682729e+00
1.0000220163994804e+00
1.0000220435311262e+00
1.0000220706632108e+00
1.0000220977957350e+00
1.0000221249286978e+00
1.0000221520621015e+00
1.0000221791959440e+00
1.0000222063302271e+00
1.0000222334649491e+00
1.0000222606001126e+00
1.0000222877357166e+00
1.0000223148717606e+00
1.0000223420082450e+00
1.0000223691451713e+00
1.0000223962825376e+00
1.0000224234203461e+00
1.0000224505585962e+00
1.0000224776972875e+00
1.0000225048364206e+00
1.0000225319759957e+00
1.0000225591160137e+00
1.0000225862564736e+00
1.0000226133973764e+00
1.0000226405387209e+00
1.0000226676805093e+00
1.0000226948227400e+00
1.0000227219654143e+00
1.0000227491085323e+00
1.0000227762520937e+00
1.0000228033960989e+00
1.0000228305405479e+00
1.0000228576854409e+00
1.0000228848307784e+00
1.0000229119765605e+00
1.0000229391227871e+00
1.0000229662694577e+00
1.0000229934165747e+00
1.0000230205641354e+00
1.0000230477121428e+00

