# vtk DataFile Version 2.0

ASCII

DATASET UNSTRUCTURED_GRID

POINTS 100 float 

0.0000000000000000e+00  0.0000000000000000e+00  0.0000000000000000e+00
1.0000000000000000e+00  0.0000000000000000e+00  0.0000000000000000e+00
2.0000000000000000e+00  0.0000000000000000e+00  0.0000000000000000e+00
3.0000000000000000e+00  0.0000000000000000e+00  0.0000000000000000e+00
4.0000000000000000e+00  0.0000000000000000e+00  0.0000000000000000e+00
5.0000000000000000e+00  0.0000000000000000e+00  0.0000000000000000e+00
6.0000000000000000e+00  0.0000000000000000e+00  0.0000000000000000e+00
7.0000000000000000e+00  0.0000000000000000e+00  0.0000000000000000e+00
8.0000000000000000e+00  0.0000000000000000e+00  0.0000000000000000e+00
9.0000000000000000e+00  0.0000000000000000e+00  0.0000000000000000e+00
1.0000000000000000e+01  0.0000000000000000e+00  0.0000000000000000e+00
1.1000000000000000e+01  0.0000000000000000e+00  0.0000000000000000e+00
1.2000000000000000e+01  0.0000000000000000e+00  0.0000000000000000e+00
1.3000000000000000e+01  0.0000000000000000e+00  0.0000000000000000e+00
1.4000000000000000e+01  0.0000000000000000e+00  0.0000000000000000e+00
1.5000000000000000e+01  0.0000000000000000e+00  0.0000000000000000e+00
1.6000000000000000e+01  0.0000000000000000e+00  0.0000000000000000e+00
1.7000000000000000e+01  0.0000000000000000e+00  0.0000000000000000e+00
1.8000000000000000e+01  0.0000000000000000e+00  0.0000000000000000e+00
1.9000000000000000e+01  0.0000000000000000e+00  0.0000000000000000e+00
2.0000000000000000e+01  0.0000000000000000e+00  0.0000000000000000e+00
2.1000000000000000e+01  0.0000000000000000e+00  0.0000000000000000e+00
2.2000000000000000e+01  0.0000000000000000e+00  0.0000000000000000e+00
2.3000000000000000e+01  0.0000000000000000e+00  0.0000000000000000e+00
2.4000000000000000e+01  0.0000000000000000e+00  0.0000000000000000e+00
2.5000000000000000e+01  0.0000000000000000e+00  0.0000000000000000e+00
2.6000000000000000e+01  0.0000000000000000e+00  0.0000000000000000e+00
2.7000000000000000e+01  0.0000000000000000e+00  0.0000000000000000e+00
2.8000000000000000e+01  0.0000000000000000e+00  0.0000000000000000e+00
2.9000000000000000e+01  0.0000000000000000e+00  0.0000000000000000e+00
3.0000000000000000e+01  0.0000000000000000e+00  0.0000000000000000e+00
3.1000000000000000e+01  0.0000000000000000e+00  0.0000000000000000e+00
3.2000000000000000e+01  0.0000000000000000e+00  0.0000000000000000e+00
3.3000000000000000e+01  0.0000000000000000e+00  0.0000000000000000e+00
3.4000000000000000e+01  0.0000000000000000e+00  0.0000000000000000e+00
3.5000000000000000e+01  0.0000000000000000e+00  0.0000000000000000e+00
3.6000000000000000e+01  0.0000000000000000e+00  0.0000000000000000e+00
3.7000000000000000e+01  0.0000000000000000e+00  0.0000000000000000e+00
3.8000000000000000e+01  0.0000000000000000e+00  0.0000000000000000e+00
3.9000000000000000e+01  0.0000000000000000e+00  0.0000000000000000e+00
4.0000000000000000e+01  0.0000000000000000e+00  0.0000000000000000e+00
4.1000000000000000e+01  0.0000000000000000e+00  0.0000000000000000e+00
4.2000000000000000e+01  0.0000000000000000e+00  0.0000000000000000e+00
4.3000000000000000e+01  0.0000000000000000e+00  0.0000000000000000e+00
4.4000000000000000e+01  0.0000000000000000e+00  0.0000000000000000e+00
4.5000000000000000e+01  0.0000000000000000e+00  0.0000000000000000e+00
4.6000000000000000e+01  0.0000000000000000e+00  0.0000000000000000e+00
4.7000000000000000e+01  0.0000000000000000e+00  0.0000000000000000e+00
4.8000000000000000e+01  0.0000000000000000e+00  0.0000000000000000e+00
4.9000000000000000e+01  0.0000000000000000e+00  0.0000000000000000e+00
5.0000000000000000e+01  0.0000000000000000e+00  0.0000000000000000e+00
5.1000000000000000e+01  0.0000000000000000e+00  0.0000000000000000e+00
5.2000000000000000e+01  0.0000000000000000e+00  0.0000000000000000e+00
5.3000000000000000e+01  0.0000000000000000e+00  0.0000000000000000e+00
5.4000000000000000e+01  0.0000000000000000e+00  0.0000000000000000e+00
5.5000000000000000e+01  0.0000000000000000e+00  0.0000000000000000e+00
5.6000000000000000e+01  0.0000000000000000e+00  0.0000000000000000e+00
5.7000000000000000e+01  0.0000000000000000e+00  0.0000000000000000e+00
5.8000000000000000e+01  0.0000000000000000e+00  0.0000000000000000e+00
5.9000000000000000e+01  0.0000000000000000e+00  0.0000000000000000e+00
6.0000000000000000e+01  0.0000000000000000e+00  0.0000000000000000e+00
6.1000000000000000e+01  0.0000000000000000e+00  0.0000000000000000e+00
6.2000000000000000e+01  0.0000000000000000e+00  0.0000000000000000e+00
6.3000000000000000e+01  0.0000000000000000e+00  0.0000000000000000e+00
6.4000000000000000e+01  0.0000000000000000e+00  0.0000000000000000e+00
6.5000000000000000e+01  0.0000000000000000e+00  0.0000000000000000e+00
6.6000000000000000e+01  0.0000000000000000e+00  0.0000000000000000e+00
6.7000000000000000e+01  0.0000000000000000e+00  0.0000000000000000e+00
6.8000000000000000e+01  0.0000000000000000e+00  0.0000000000000000e+00
6.9000000000000000e+01  0.0000000000000000e+00  0.0000000000000000e+00
7.0000000000000000e+01  0.0000000000000000e+00  0.0000000000000000e+00
7.1000000000000000e+01  0.0000000000000000e+00  0.0000000000000000e+00
7.2000000000000000e+01  0.0000000000000000e+00  0.0000000000000000e+00
7.3000000000000000e+01  0.0000000000000000e+00  0.0000000000000000e+00
7.4000000000000000e+01  0.0000000000000000e+00  0.0000000000000000e+00
7.5000000000000000e+01  0.0000000000000000e+00  0.0000000000000000e+00
7.6000000000000000e+01  0.0000000000000000e+00  0.0000000000000000e+00
7.7000000000000000e+01  0.0000000000000000e+00  0.0000000000000000e+00
7.8000000000000000e+01  0.0000000000000000e+00  0.0000000000000000e+00
7.9000000000000000e+01  0.0000000000000000e+00  0.0000000000000000e+00
8.0000000000000000e+01  0.0000000000000000e+00  0.0000000000000000e+00
8.1000000000000000e+01  0.0000000000000000e+00  0.0000000000000000e+00
8.2000000000000000e+01  0.0000000000000000e+00  0.0000000000000000e+00
8.3000000000000000e+01  0.0000000000000000e+00  0.0000000000000000e+00
8.4000000000000000e+01  0.0000000000000000e+00  0.0000000000000000e+00
8.5000000000000000e+01  0.0000000000000000e+00  0.0000000000000000e+00
8.6000000000000000e+01  0.0000000000000000e+00  0.0000000000000000e+00
8.7000000000000000e+01  0.0000000000000000e+00  0.0000000000000000e+00
8.8000000000000000e+01  0.0000000000000000e+00  0.0000000000000000e+00
8.9000000000000000e+01  0.0000000000000000e+00  0.0000000000000000e+00
9.0000000000000000e+01  0.0000000000000000e+00  0.0000000000000000e+00
9.1000000000000000e+01  0.0000000000000000e+00  0.0000000000000000e+00
9.2000000000000000e+01  0.0000000000000000e+00  0.0000000000000000e+00
9.3000000000000000e+01  0.0000000000000000e+00  0.0000000000000000e+00
9.4000000000000000e+01  0.0000000000000000e+00  0.0000000000000000e+00
9.5000000000000000e+01  0.0000000000000000e+00  0.0000000000000000e+00
9.6000000000000000e+01  0.0000000000000000e+00  0.0000000000000000e+00
9.7000000000000000e+01  0.0000000000000000e+00  0.0000000000000000e+00
9.8000000000000000e+01  0.0000000000000000e+00  0.0000000000000000e+00
9.9000000000000000e+01  0.0000000000000000e+00  0.0000000000000000e+00

POINT_DATA 100

VECTORS velocity float
1.0068406227634221e-02  0.0000000000000000e+00  0.0000000000000000e+00
1.0068406231883808e-02  0.0000000000000000e+00  0.0000000000000000e+00
1.0068406263915803e-02  0.0000000000000000e+00  0.0000000000000000e+00
1.0068406307822603e-02  0.0000000000000000e+00  0.0000000000000000e+00
1.0068406356988678e-02  0.0000000000000000e+00  0.0000000000000000e+00
1.0068406408664259e-02  0.0000000000000000e+00  0.0000000000000000e+00
1.0068406461706788e-02  0.0000000000000000e+00  0.0000000000000000e+00
1.0068406515641587e-02  0.0000000000000000e+00  0.0000000000000000e+00
1.0068406570271695e-02  0.0000000000000000e+00  0.0000000000000000e+00
1.0068406625515378e-02  0.0000000000000000e+00  0.0000000000000000e+00
1.0068406681338730e-02  0.0000000000000000e+00  0.0000000000000000e+00
1.0068406737727700e-02  0.0000000000000000e+00  0.0000000000000000e+00
1.0068406794676490e-02  0.0000000000000000e+00  0.0000000000000000e+00
1.0068406852182694e-02  0.0000000000000000e+00  0.0000000000000000e+00
1.0068406910245326e-02  0.0000000000000000e+00  0.0000000000000000e+00
1.0068406968864022e-02  0.0000000000000000e+00  0.0000000000000000e+00
1.0068407028038538e-02  0.0000000000000000e+00  0.0000000000000000e+00
1.0068407087768783e-02  0.0000000000000000e+00  0.0000000000000000e+00
1.0068407148054745e-02  0.0000000000000000e+00  0.0000000000000000e+00
1.0068407208896410e-02  0.0000000000000000e+00  0.0000000000000000e+00
1.0068407270293874e-02  0.0000000000000000e+00  0.0000000000000000e+00
1.0068407332247167e-02  0.0000000000000000e+00  0.0000000000000000e+00
1.0068407394756345e-02  0.0000000000000000e+00  0.0000000000000000e+00
1.0068407457821338e-02  0.0000000000000000e+00  0.0000000000000000e+00
1.0068407521442146e-02  0.0000000000000000e+00  0.0000000000000000e+00
1.0068407585618753e-02  0.0000000000000000e+00  0.0000000000000000e+00
1.0068407650351215e-02  0.0000000000000000e+00  0.0000000000000000e+00
1.0068407715639723e-02  0.0000000000000000e+00  0.0000000000000000e+00
1.0068407781484170e-02  0.0000000000000000e+00  0.0000000000000000e+00
1.0068407847884426e-02  0.0000000000000000e+00  0.0000000000000000e+00
1.0068407914840549e-02  0.0000000000000000e+00  0.0000000000000000e+00
1.0068407982352583e-02  0.0000000000000000e+00  0.0000000000000000e+00
1.0068408050420528e-02  0.0000000000000000e+00  0.0000000000000000e+00
1.0068408119044478e-02  0.0000000000000000e+00  0.0000000000000000e+00
1.0068408188224501e-02  0.0000000000000000e+00  0.0000000000000000e+00
1.0068408257960527e-02  0.0000000000000000e+00  0.0000000000000000e+00
1.0068408328252553e-02  0.0000000000000000e+00  0.0000000000000000e+00
1.0068408399100597e-02  0.0000000000000000e+00  0.0000000000000000e+00
1.0068408470504640e-02  0.0000000000000000e+00  0.0000000000000000e+00
1.0068408542464812e-02  0.0000000000000000e+00  0.0000000000000000e+00
1.0068408614981058e-02  0.0000000000000000e+00  0.0000000000000000e+00
1.0068408688053383e-02  0.0000000000000000e+00  0.0000000000000000e+00
1.0068408761681812e-02  0.0000000000000000e+00  0.0000000000000000e+00
1.0068408835866325e-02  0.0000000000000000e+00  0.0000000000000000e+00
1.0068408910607035e-02  0.0000000000000000e+00  0.0000000000000000e+00
1.0068408985903936e-02  0.0000000000000000e+00  0.0000000000000000e+00
1.0068409061756878e-02  0.0000000000000000e+00  0.0000000000000000e+00
1.0068409138166045e-02  0.0000000000000000e+00  0.0000000000000000e+00
1.0068409215131453e-02  0.0000000000000000e+00  0.0000000000000000e+00
1.0068409292652937e-02  0.0000000000000000e+00  0.0000000000000000e+00
1.0068409370730703e-02  0.0000000000000000e+00  0.0000000000000000e+00
1.0068409449364721e-02  0.0000000000000000e+00  0.0000000000000000e+00
1.0068409528554985e-02  0.0000000000000000e+00  0.0000000000000000e+00
1.0068409608301517e-02  0.0000000000000000e+00  0.0000000000000000e+00
1.0068409688604304e-02  0.0000000000000000e+00  0.0000000000000000e+00
1.0068409769463476e-02  0.0000000000000000e+00  0.0000000000000000e+00
1.0068409850878989e-02  0.0000000000000000e+00  0.0000000000000000e+00
1.0068409932850823e-02  0.0000000000000000e+00  0.0000000000000000e+00
1.0068410015379026e-02  0.0000000000000000e+00  0.0000000000000000e+00
1.0068410098463529e-02  0.0000000000000000e+00  0.0000000000000000e+00
1.0068410182104286e-02  0.0000000000000000e+00  0.0000000000000000e+00
1.0068410266301366e-02  0.0000000000000000e+00  0.0000000000000000e+00
1.0068410351054928e-02  0.0000000000000000e+00  0.0000000000000000e+00
1.0068410436364942e-02  0.0000000000000000e+00  0.0000000000000000e+00
1.0068410522231395e-02  0.0000000000000000e+00  0.0000000000000000e+00
1.0068410608654297e-02  0.0000000000000000e+00  0.0000000000000000e+00
1.0068410695633658e-02  0.0000000000000000e+00  0.0000000000000000e+00
1.0068410783169531e-02  0.0000000000000000e+00  0.0000000000000000e+00
1.0068410871261807e-02  0.0000000000000000e+00  0.0000000000000000e+00
1.0068410959910569e-02  0.0000000000000000e+00  0.0000000000000000e+00
1.0068411049115855e-02  0.0000000000000000e+00  0.0000000000000000e+00
1.0068411138877683e-02  0.0000000000000000e+00  0.0000000000000000e+00
1.0068411229196073e-02  0.0000000000000000e+00  0.0000000000000000e+00
1.0068411320071030e-02  0.0000000000000000e+00  0.0000000000000000e+00
1.0068411411502583e-02  0.0000000000000000e+00  0.0000000000000000e+00
1.0068411503490731e-02  0.0000000000000000e+00  0.0000000000000000e+00
1.0068411596035521e-02  0.0000000000000000e+00  0.0000000000000000e+00
1.0068411689136884e-02  0.0000000000000000e+00  0.0000000000000000e+00
1.0068411782794778e-02  0.0000000000000000e+00  0.0000000000000000e+00
1.0068411877009310e-02  0.0000000000000000e+00  0.0000000000000000e+00
1.0068411971780520e-02  0.0000000000000000e+00  0.0000000000000000e+00
1.0068412067108424e-02  0.0000000000000000e+00  0.0000000000000000e+00
1.0068412162993038e-02  0.0000000000000000e+00  0.0000000000000000e+00
1.0068412259434363e-02  0.0000000000000000e+00  0.0000000000000000e+00
1.0068412356432459e-02  0.0000000000000000e+00  0.0000000000000000e+00
1.0068412453987232e-02  0.0000000000000000e+00  0.0000000000000000e+00
1.0068412552098734e-02  0.0000000000000000e+00  0.0000000000000000e+00
1.0068412650767038e-02  0.0000000000000000e+00  0.0000000000000000e+00
1.0068412749992036e-02  0.0000000000000000e+00  0.0000000000000000e+00
1.0068412849773854e-02  0.0000000000000000e+00  0.0000000000000000e+00
1.0068412950112430e-02  0.0000000000000000e+00  0.0000000000000000e+00
1.0068413051008016e-02  0.0000000000000000e+00  0.0000000000000000e+00
1.0068413152460038e-02  0.0000000000000000e+00  0.0000000000000000e+00
1.0068413254469982e-02  0.0000000000000000e+00  0.0000000000000000e+00
1.0068413357034244e-02  0.0000000000000000e+00  0.0000000000000000e+00
1.0068413460161678e-02  0.0000000000000000e+00  0.0000000000000000e+00
1.0068413563830390e-02  0.0000000000000000e+00  0.0000000000000000e+00
1.0068413668094044e-02  0.0000000000000000e+00  0.0000000000000000e+00
1.0068413772821512e-02  0.0000000000000000e+00  0.0000000000000000e+00
1.0068413878333751e-02  0.0000000000000000e+00  0.0000000000000000e+00

SCALARS pressure float
LOOKUP_TABLE default
6.5527784616461251e-05
6.5556609511910663e-05
6.5585434407360090e-05
6.5614259688021506e-05
6.5643085513915686e-05
6.5671911951442247e-05
6.5700739028072108e-05
6.5729566755099334e-05
6.5758395137118625e-05
6.5787224175924933e-05
6.5816053872160281e-05
6.5844884225986473e-05
6.5873715237367241e-05
6.5902546906182756e-05
6.5931379232279263e-05
6.5960212215489822e-05
6.5989045855639728e-05
6.6017880152554668e-05
6.6046715106062416e-05
6.6075550715983253e-05
6.6104386982143829e-05
6.6133223904362972e-05
6.6162061482463050e-05
6.6190899716265508e-05
6.6219738605594001e-05
6.6248578150274745e-05
6.6277418350128454e-05
6.6306259204980733e-05
6.6335100714644599e-05
6.6363942878946674e-05
6.6392785697715558e-05
6.6421629170773972e-05
6.6450473297941803e-05
6.6479318079045076e-05
6.6508163513902838e-05
6.6537009602336182e-05
6.6565856344168818e-05
6.6594703739227069e-05
6.6623551787330348e-05
6.6652400488305833e-05
6.6681249841970904e-05
6.6710099848149337e-05
6.6738950506667119e-05
6.6767801817343633e-05
6.6796653780005694e-05
6.6825506394471316e-05
6.6854359660563207e-05
6.6883213578110075e-05
6.6912068146932581e-05
6.6940923366846464e-05
6.6969779237687413e-05
6.6998635759269514e-05
6.7027492931415216e-05
6.7056350753951372e-05
6.7085209226697164e-05
6.7114068349479202e-05
6.7142928122115040e-05
6.7171788544427588e-05
6.7200649616243373e-05
6.7229511337381565e-05
6.7258373707668935e-05
6.7287236726930818e-05
6.7316100394989838e-05
6.7344964711663077e-05
6.7373829676773539e-05
6.7402695290147156e-05
6.7431561551603962e-05
6.7460428460969701e-05
6.7489296018063120e-05
6.7518164222712468e-05
6.7547033074739937e-05
6.7575902573964802e-05
6.7604772720212834e-05
6.7633643513303443e-05
6.7662514953062847e-05
6.7691387039310187e-05
6.7720259771871408e-05
6.7749133150565665e-05
6.7778007175219959e-05
6.7806881845659084e-05
6.7835757161704635e-05
6.7864633123175834e-05
6.7893509729898463e-05
6.7922386981692220e-05
6.7951264878383157e-05
6.7980143419789862e-05
6.8009022605739511e-05
6.8037902436055570e-05
6.8066782910556394e-05
6.8095664029070029e-05
6.8124545791418029e-05
6.8153428197420538e-05
6.8182311246901196e-05
6.8211194939685367e-05
6.8240079275583531e-05
6.8268964254452805e-05
6.8297849876028250e-05
6.8326736140358790e-05
6.8355623046715882e-05
6.8384510596266129e-05

SCALARS diameter float
LOOKUP_TABLE default
1.0000625207238294e+00
1.0000625503377401e+00
1.0000625799516512e+00
1.0000626095659511e+00
1.0000626391807996e+00
1.0000626687962630e+00
1.0000626984123711e+00
1.0000627280291323e+00
1.0000627576465542e+00
1.0000627872646368e+00
1.0000628168833816e+00
1.0000628465027881e+00
1.0000628761228576e+00
1.0000629057435875e+00
1.0000629353649806e+00
1.0000629649870350e+00
1.0000629946097517e+00
1.0000630242331283e+00
1.0000630538571678e+00
1.0000630834818662e+00
1.0000631131072266e+00
1.0000631427332483e+00
1.0000631723599307e+00
1.0000632019872731e+00
1.0000632316152762e+00
1.0000632612439391e+00
1.0000632908732621e+00
1.0000633205032450e+00
1.0000633501338880e+00
1.0000633797651899e+00
1.0000634093971512e+00
1.0000634390297720e+00
1.0000634686630510e+00
1.0000634982969903e+00
1.0000635279315881e+00
1.0000635575668435e+00
1.0000635872027583e+00
1.0000636168393311e+00
1.0000636464765629e+00
1.0000636761144510e+00
1.0000637057529986e+00
1.0000637353922024e+00
1.0000637650320650e+00
1.0000637946725839e+00
1.0000638243137607e+00
1.0000638539555951e+00
1.0000638835980848e+00
1.0000639132412328e+00
1.0000639428850362e+00
1.0000639725294971e+00
1.0000640021746132e+00
1.0000640318203862e+00
1.0000640614668153e+00
1.0000640911138992e+00
1.0000641207616394e+00
1.0000641504100349e+00
1.0000641800590859e+00
1.0000642097087924e+00
1.0000642393591537e+00
1.0000642690101698e+00
1.0000642986618398e+00
1.0000643283141661e+00
1.0000643579671458e+00
1.0000643876207804e+00
1.0000644172750677e+00
1.0000644469300100e+00
1.0000644765856059e+00
1.0000645062418558e+00
1.0000645358987588e+00
1.0000645655563156e+00
1.0000645952145244e+00
1.0000646248733864e+00
1.0000646545329024e+00
1.0000646841930703e+00
1.0000647138538916e+00
1.0000647435153645e+00
1.0000647731774899e+00
1.0000648028402677e+00
1.0000648325036960e+00
1.0000648621677770e+00
1.0000648918325101e+00
1.0000649214978941e+00
1.0000649511639288e+00
1.0000649808306168e+00
1.0000650104979543e+00
1.0000650401659419e+00
1.0000650698345810e+00
1.0000650995038711e+00
1.0000651291738110e+00
1.0000651588444007e+00
1.0000651885156415e+00
1.0000652181875320e+00
1.0000652478600718e+00
1.0000652775332615e+00
1.0000653072071000e+00
1.0000653368815886e+00
1.0000653665567261e+00
1.0000653962325119e+00
1.0000654259089465e+00
1.0000654555860311e+00

