# vtk DataFile Version 2.0

ASCII

DATASET UNSTRUCTURED_GRID

POINTS 100 float 

0.0000000000000000e+00  0.0000000000000000e+00  0.0000000000000000e+00
1.0000000000000000e+00  0.0000000000000000e+00  0.0000000000000000e+00
2.0000000000000000e+00  0.0000000000000000e+00  0.0000000000000000e+00
3.0000000000000000e+00  0.0000000000000000e+00  0.0000000000000000e+00
4.0000000000000000e+00  0.0000000000000000e+00  0.0000000000000000e+00
5.0000000000000000e+00  0.0000000000000000e+00  0.0000000000000000e+00
6.0000000000000000e+00  0.0000000000000000e+00  0.0000000000000000e+00
7.0000000000000000e+00  0.0000000000000000e+00  0.0000000000000000e+00
8.0000000000000000e+00  0.0000000000000000e+00  0.0000000000000000e+00
9.0000000000000000e+00  0.0000000000000000e+00  0.0000000000000000e+00
1.0000000000000000e+01  0.0000000000000000e+00  0.0000000000000000e+00
1.1000000000000000e+01  0.0000000000000000e+00  0.0000000000000000e+00
1.2000000000000000e+01  0.0000000000000000e+00  0.0000000000000000e+00
1.3000000000000000e+01  0.0000000000000000e+00  0.0000000000000000e+00
1.4000000000000000e+01  0.0000000000000000e+00  0.0000000000000000e+00
1.5000000000000000e+01  0.0000000000000000e+00  0.0000000000000000e+00
1.6000000000000000e+01  0.0000000000000000e+00  0.0000000000000000e+00
1.7000000000000000e+01  0.0000000000000000e+00  0.0000000000000000e+00
1.8000000000000000e+01  0.0000000000000000e+00  0.0000000000000000e+00
1.9000000000000000e+01  0.0000000000000000e+00  0.0000000000000000e+00
2.0000000000000000e+01  0.0000000000000000e+00  0.0000000000000000e+00
2.1000000000000000e+01  0.0000000000000000e+00  0.0000000000000000e+00
2.2000000000000000e+01  0.0000000000000000e+00  0.0000000000000000e+00
2.3000000000000000e+01  0.0000000000000000e+00  0.0000000000000000e+00
2.4000000000000000e+01  0.0000000000000000e+00  0.0000000000000000e+00
2.5000000000000000e+01  0.0000000000000000e+00  0.0000000000000000e+00
2.6000000000000000e+01  0.0000000000000000e+00  0.0000000000000000e+00
2.7000000000000000e+01  0.0000000000000000e+00  0.0000000000000000e+00
2.8000000000000000e+01  0.0000000000000000e+00  0.0000000000000000e+00
2.9000000000000000e+01  0.0000000000000000e+00  0.0000000000000000e+00
3.0000000000000000e+01  0.0000000000000000e+00  0.0000000000000000e+00
3.1000000000000000e+01  0.0000000000000000e+00  0.0000000000000000e+00
3.2000000000000000e+01  0.0000000000000000e+00  0.0000000000000000e+00
3.3000000000000000e+01  0.0000000000000000e+00  0.0000000000000000e+00
3.4000000000000000e+01  0.0000000000000000e+00  0.0000000000000000e+00
3.5000000000000000e+01  0.0000000000000000e+00  0.0000000000000000e+00
3.6000000000000000e+01  0.0000000000000000e+00  0.0000000000000000e+00
3.7000000000000000e+01  0.0000000000000000e+00  0.0000000000000000e+00
3.8000000000000000e+01  0.0000000000000000e+00  0.0000000000000000e+00
3.9000000000000000e+01  0.0000000000000000e+00  0.0000000000000000e+00
4.0000000000000000e+01  0.0000000000000000e+00  0.0000000000000000e+00
4.1000000000000000e+01  0.0000000000000000e+00  0.0000000000000000e+00
4.2000000000000000e+01  0.0000000000000000e+00  0.0000000000000000e+00
4.3000000000000000e+01  0.0000000000000000e+00  0.0000000000000000e+00
4.4000000000000000e+01  0.0000000000000000e+00  0.0000000000000000e+00
4.5000000000000000e+01  0.0000000000000000e+00  0.0000000000000000e+00
4.6000000000000000e+01  0.0000000000000000e+00  0.0000000000000000e+00
4.7000000000000000e+01  0.0000000000000000e+00  0.0000000000000000e+00
4.8000000000000000e+01  0.0000000000000000e+00  0.0000000000000000e+00
4.9000000000000000e+01  0.0000000000000000e+00  0.0000000000000000e+00
5.0000000000000000e+01  0.0000000000000000e+00  0.0000000000000000e+00
5.1000000000000000e+01  0.0000000000000000e+00  0.0000000000000000e+00
5.2000000000000000e+01  0.0000000000000000e+00  0.0000000000000000e+00
5.3000000000000000e+01  0.0000000000000000e+00  0.0000000000000000e+00
5.4000000000000000e+01  0.0000000000000000e+00  0.0000000000000000e+00
5.5000000000000000e+01  0.0000000000000000e+00  0.0000000000000000e+00
5.6000000000000000e+01  0.0000000000000000e+00  0.0000000000000000e+00
5.7000000000000000e+01  0.0000000000000000e+00  0.0000000000000000e+00
5.8000000000000000e+01  0.0000000000000000e+00  0.0000000000000000e+00
5.9000000000000000e+01  0.0000000000000000e+00  0.0000000000000000e+00
6.0000000000000000e+01  0.0000000000000000e+00  0.0000000000000000e+00
6.1000000000000000e+01  0.0000000000000000e+00  0.0000000000000000e+00
6.2000000000000000e+01  0.0000000000000000e+00  0.0000000000000000e+00
6.3000000000000000e+01  0.0000000000000000e+00  0.0000000000000000e+00
6.4000000000000000e+01  0.0000000000000000e+00  0.0000000000000000e+00
6.5000000000000000e+01  0.0000000000000000e+00  0.0000000000000000e+00
6.6000000000000000e+01  0.0000000000000000e+00  0.0000000000000000e+00
6.7000000000000000e+01  0.0000000000000000e+00  0.0000000000000000e+00
6.8000000000000000e+01  0.0000000000000000e+00  0.0000000000000000e+00
6.9000000000000000e+01  0.0000000000000000e+00  0.0000000000000000e+00
7.0000000000000000e+01  0.0000000000000000e+00  0.0000000000000000e+00
7.1000000000000000e+01  0.0000000000000000e+00  0.0000000000000000e+00
7.2000000000000000e+01  0.0000000000000000e+00  0.0000000000000000e+00
7.3000000000000000e+01  0.0000000000000000e+00  0.0000000000000000e+00
7.4000000000000000e+01  0.0000000000000000e+00  0.0000000000000000e+00
7.5000000000000000e+01  0.0000000000000000e+00  0.0000000000000000e+00
7.6000000000000000e+01  0.0000000000000000e+00  0.0000000000000000e+00
7.7000000000000000e+01  0.0000000000000000e+00  0.0000000000000000e+00
7.8000000000000000e+01  0.0000000000000000e+00  0.0000000000000000e+00
7.9000000000000000e+01  0.0000000000000000e+00  0.0000000000000000e+00
8.0000000000000000e+01  0.0000000000000000e+00  0.0000000000000000e+00
8.1000000000000000e+01  0.0000000000000000e+00  0.0000000000000000e+00
8.2000000000000000e+01  0.0000000000000000e+00  0.0000000000000000e+00
8.3000000000000000e+01  0.0000000000000000e+00  0.0000000000000000e+00
8.4000000000000000e+01  0.0000000000000000e+00  0.0000000000000000e+00
8.5000000000000000e+01  0.0000000000000000e+00  0.0000000000000000e+00
8.6000000000000000e+01  0.0000000000000000e+00  0.0000000000000000e+00
8.7000000000000000e+01  0.0000000000000000e+00  0.0000000000000000e+00
8.8000000000000000e+01  0.0000000000000000e+00  0.0000000000000000e+00
8.9000000000000000e+01  0.0000000000000000e+00  0.0000000000000000e+00
9.0000000000000000e+01  0.0000000000000000e+00  0.0000000000000000e+00
9.1000000000000000e+01  0.0000000000000000e+00  0.0000000000000000e+00
9.2000000000000000e+01  0.0000000000000000e+00  0.0000000000000000e+00
9.3000000000000000e+01  0.0000000000000000e+00  0.0000000000000000e+00
9.4000000000000000e+01  0.0000000000000000e+00  0.0000000000000000e+00
9.5000000000000000e+01  0.0000000000000000e+00  0.0000000000000000e+00
9.6000000000000000e+01  0.0000000000000000e+00  0.0000000000000000e+00
9.7000000000000000e+01  0.0000000000000000e+00  0.0000000000000000e+00
9.8000000000000000e+01  0.0000000000000000e+00  0.0000000000000000e+00
9.9000000000000000e+01  0.0000000000000000e+00  0.0000000000000000e+00

POINT_DATA 100

VECTORS velocity float
1.0037565505641742e-02  0.0000000000000000e+00  0.0000000000000000e+00
1.0037564878643419e-02  0.0000000000000000e+00  0.0000000000000000e+00
1.0037564275134163e-02  0.0000000000000000e+00  0.0000000000000000e+00
1.0037563681866129e-02  0.0000000000000000e+00  0.0000000000000000e+00
1.0037563093257649e-02  0.0000000000000000e+00  0.0000000000000000e+00
1.0037562506959325e-02  0.0000000000000000e+00  0.0000000000000000e+00
1.0037561921982607e-02  0.0000000000000000e+00  0.0000000000000000e+00
1.0037561337911581e-02  0.0000000000000000e+00  0.0000000000000000e+00
1.0037560754572284e-02  0.0000000000000000e+00  0.0000000000000000e+00
1.0037560171891880e-02  0.0000000000000000e+00  0.0000000000000000e+00
1.0037559589838803e-02  0.0000000000000000e+00  0.0000000000000000e+00
1.0037559008399781e-02  0.0000000000000000e+00  0.0000000000000000e+00
1.0037558427570150e-02  0.0000000000000000e+00  0.0000000000000000e+00
1.0037557847346374e-02  0.0000000000000000e+00  0.0000000000000000e+00
1.0037557267727848e-02  0.0000000000000000e+00  0.0000000000000000e+00
1.0037556688715102e-02  0.0000000000000000e+00  0.0000000000000000e+00
1.0037556110307036e-02  0.0000000000000000e+00  0.0000000000000000e+00
1.0037555532504430e-02  0.0000000000000000e+00  0.0000000000000000e+00
1.0037554955307554e-02  0.0000000000000000e+00  0.0000000000000000e+00
1.0037554378715721e-02  0.0000000000000000e+00  0.0000000000000000e+00
1.0037553802728695e-02  0.0000000000000000e+00  0.0000000000000000e+00
1.0037553227346523e-02  0.0000000000000000e+00  0.0000000000000000e+00
1.0037552652569332e-02  0.0000000000000000e+00  0.0000000000000000e+00
1.0037552078397068e-02  0.0000000000000000e+00  0.0000000000000000e+00
1.0037551504828972e-02  0.0000000000000000e+00  0.0000000000000000e+00
1.0037550931865891e-02  0.0000000000000000e+00  0.0000000000000000e+00
1.0037550359508970e-02  0.0000000000000000e+00  0.0000000000000000e+00
1.0037549787757193e-02  0.0000000000000000e+00  0.0000000000000000e+00
1.0037549216609924e-02  0.0000000000000000e+00  0.0000000000000000e+00
1.0037548646067354e-02  0.0000000000000000e+00  0.0000000000000000e+00
1.0037548076129877e-02  0.0000000000000000e+00  0.0000000000000000e+00
1.0037547506797063e-02  0.0000000000000000e+00  0.0000000000000000e+00
1.0037546938070142e-02  0.0000000000000000e+00  0.0000000000000000e+00
1.0037546369949205e-02  0.0000000000000000e+00  0.0000000000000000e+00
1.0037545802432870e-02  0.0000000000000000e+00  0.0000000000000000e+00
1.0037545235521431e-02  0.0000000000000000e+00  0.0000000000000000e+00
1.0037544669214521e-02  0.0000000000000000e+00  0.0000000000000000e+00
1.0037544103513494e-02  0.0000000000000000e+00  0.0000000000000000e+00
1.0037543538416965e-02  0.0000000000000000e+00  0.0000000000000000e+00
1.0037542973924922e-02  0.0000000000000000e+00  0.0000000000000000e+00
1.0037542410039270e-02  0.0000000000000000e+00  0.0000000000000000e+00
1.0037541846759524e-02  0.0000000000000000e+00  0.0000000000000000e+00
1.0037541284085384e-02  0.0000000000000000e+00  0.0000000000000000e+00
1.0037540722015825e-02  0.0000000000000000e+00  0.0000000000000000e+00
1.0037540160551613e-02  0.0000000000000000e+00  0.0000000000000000e+00
1.0037539599692962e-02  0.0000000000000000e+00  0.0000000000000000e+00
1.0037539039439105e-02  0.0000000000000000e+00  0.0000000000000000e+00
1.0037538479790682e-02  0.0000000000000000e+00  0.0000000000000000e+00
1.0037537920748227e-02  0.0000000000000000e+00  0.0000000000000000e+00
1.0037537362311251e-02  0.0000000000000000e+00  0.0000000000000000e+00
1.0037536804479018e-02  0.0000000000000000e+00  0.0000000000000000e+00
1.0037536247251287e-02  0.0000000000000000e+00  0.0000000000000000e+00
1.0037535690629273e-02  0.0000000000000000e+00  0.0000000000000000e+00
1.0037535134613277e-02  0.0000000000000000e+00  0.0000000000000000e+00
1.0037534579202792e-02  0.0000000000000000e+00  0.0000000000000000e+00
1.0037534024397700e-02  0.0000000000000000e+00  0.0000000000000000e+00
1.0037533470197247e-02  0.0000000000000000e+00  0.0000000000000000e+00
1.0037532916601638e-02  0.0000000000000000e+00  0.0000000000000000e+00
1.0037532363611237e-02  0.0000000000000000e+00  0.0000000000000000e+00
1.0037531811226465e-02  0.0000000000000000e+00  0.0000000000000000e+00
1.0037531259446678e-02  0.0000000000000000e+00  0.0000000000000000e+00
1.0037530708272457e-02  0.0000000000000000e+00  0.0000000000000000e+00
1.0037530157704481e-02  0.0000000000000000e+00  0.0000000000000000e+00
1.0037529607742944e-02  0.0000000000000000e+00  0.0000000000000000e+00
1.0037529058387035e-02  0.0000000000000000e+00  0.0000000000000000e+00
1.0037528509636125e-02  0.0000000000000000e+00  0.0000000000000000e+00
1.0037527961491009e-02  0.0000000000000000e+00  0.0000000000000000e+00
1.0037527413951100e-02  0.0000000000000000e+00  0.0000000000000000e+00
1.0037526867016179e-02  0.0000000000000000e+00  0.0000000000000000e+00
1.0037526320687133e-02  0.0000000000000000e+00  0.0000000000000000e+00
1.0037525774964444e-02  0.0000000000000000e+00  0.0000000000000000e+00
1.0037525229846370e-02  0.0000000000000000e+00  0.0000000000000000e+00
1.0037524685334011e-02  0.0000000000000000e+00  0.0000000000000000e+00
1.0037524141427574e-02  0.0000000000000000e+00  0.0000000000000000e+00
1.0037523598125965e-02  0.0000000000000000e+00  0.0000000000000000e+00
1.0037523055429784e-02  0.0000000000000000e+00  0.0000000000000000e+00
1.0037522513338152e-02  0.0000000000000000e+00  0.0000000000000000e+00
1.0037521971852646e-02  0.0000000000000000e+00  0.0000000000000000e+00
1.0037521430973032e-02  0.0000000000000000e+00  0.0000000000000000e+00
1.0037520890698686e-02  0.0000000000000000e+00  0.0000000000000000e+00
1.0037520351030203e-02  0.0000000000000000e+00  0.0000000000000000e+00
1.0037519811967158e-02  0.0000000000000000e+00  0.0000000000000000e+00
1.0037519273510183e-02  0.0000000000000000e+00  0.0000000000000000e+00
1.0037518735658958e-02  0.0000000000000000e+00  0.0000000000000000e+00
1.0037518198413625e-02  0.0000000000000000e+00  0.0000000000000000e+00
1.0037517661773928e-02  0.0000000000000000e+00  0.0000000000000000e+00
1.0037517125739970e-02  0.0000000000000000e+00  0.0000000000000000e+00
1.0037516590312242e-02  0.0000000000000000e+00  0.0000000000000000e+00
1.0037516055489705e-02  0.0000000000000000e+00  0.0000000000000000e+00
1.0037515521272836e-02  0.0000000000000000e+00  0.0000000000000000e+00
1.0037514987661554e-02  0.0000000000000000e+00  0.0000000000000000e+00
1.0037514454655871e-02  0.0000000000000000e+00  0.0000000000000000e+00
1.0037513922255721e-02  0.0000000000000000e+00  0.0000000000000000e+00
1.0037513390462778e-02  0.0000000000000000e+00  0.0000000000000000e+00
1.0037512859273123e-02  0.0000000000000000e+00  0.0000000000000000e+00
1.0037512328696898e-02  0.0000000000000000e+00  0.0000000000000000e+00
1.0037511798707485e-02  0.0000000000000000e+00  0.0000000000000000e+00
1.0037511269366760e-02  0.0000000000000000e+00  0.0000000000000000e+00
1.0037510740528409e-02  0.0000000000000000e+00  0.0000000000000000e+00
1.0037510212547703e-02  0.0000000000000000e+00  0.0000000000000000e+00

SCALARS pressure float
LOOKUP_TABLE default
3.4440393002076827e-05
3.4471057226766100e-05
3.4501721451455381e-05
3.4532386001349598e-05
3.4563051013379902e-05
3.4593716545228004e-05
3.4624382621158829e-05
3.4655049251397678e-05
3.4685716440279279e-05
3.4716384189659291e-05
3.4747052500353136e-05
3.4777721372766591e-05
3.4808390807076597e-05
3.4839060803402775e-05
3.4869731361825289e-05
3.4900402482417289e-05
3.4931074165196379e-05
3.4961746410275743e-05
3.4992419217697624e-05
3.5023092587504917e-05
3.5053766519779810e-05
3.5084441014591231e-05
3.5115116071985972e-05
3.5145791692027863e-05
3.5176467874762171e-05
3.5207144620250295e-05
3.5237821928543315e-05
3.5268499799712666e-05
3.5299178233808031e-05
3.5329857230898428e-05
3.5360536791032970e-05
3.5391216914264559e-05
3.5421897600653579e-05
3.5452578850247491e-05
3.5483260663101854e-05
3.5513943039339330e-05
3.5544625978974077e-05
3.5575309482070997e-05
3.5605993548677835e-05
3.5636678178848835e-05
3.5667363372669671e-05
3.5698049130161293e-05
3.5728735451423002e-05
3.5759422336490955e-05
3.5790109785443209e-05
3.5820797798333960e-05
3.5851486375205870e-05
3.5882175516124217e-05
3.5912865221148895e-05
3.5943555490345587e-05
3.5974246323773978e-05
3.6004937721506580e-05
3.6035629683578354e-05
3.6066322210048095e-05
3.6097015300982219e-05
3.6127708956448426e-05
3.6158403176487084e-05
3.6189097961179203e-05
3.6219793310567411e-05
3.6250489224711516e-05
3.6281185703664537e-05
3.6311882747486719e-05
3.6342580356249344e-05
3.6373278529987512e-05
3.6403977268779956e-05
3.6434676572693734e-05
3.6465376441784195e-05
3.6496076876115334e-05
3.6526777875766671e-05
3.6557479440776951e-05
3.6588181571200616e-05
3.6618884267104283e-05
3.6649587528561617e-05
3.6680291355617849e-05
3.6710995748306318e-05
3.6741700706722882e-05
3.6772406230900867e-05
3.6803112320906685e-05
3.6833818976771522e-05
3.6864526198550530e-05
3.6895233986334843e-05
3.6925942340174496e-05
3.6956651260155149e-05
3.6987360746300586e-05
3.7018070798674849e-05
3.7048781417365271e-05
3.7079492602426733e-05
3.7110204353909630e-05
3.7140916671856640e-05
3.7171629556349496e-05
3.7202343007440255e-05
3.7233057025191475e-05
3.7263771609652704e-05
3.7294486760882726e-05
3.7325202478952143e-05
3.7355918763945149e-05
3.7386635615821136e-05
3.7417353034900966e-05
3.7448071020616550e-05
3.7478789574491254e-05

SCALARS diameter float
LOOKUP_TABLE default
1.0000314316372942e+00
1.0000314618730917e+00
1.0000314921088891e+00
1.0000315223450018e+00
1.0000315525815584e+00
1.0000315828186155e+00
1.0000316130561981e+00
1.0000316432943137e+00
1.0000316735329682e+00
1.0000317037721622e+00
1.0000317340118978e+00
1.0000317642521748e+00
1.0000317944929928e+00
1.0000318247343536e+00
1.0000318549762555e+00
1.0000318852187000e+00
1.0000319154616855e+00
1.0000319457052140e+00
1.0000319759492844e+00
1.0000320061938965e+00
1.0000320364390518e+00
1.0000320666847498e+00
1.0000320969309897e+00
1.0000321271777732e+00
1.0000321574250981e+00
1.0000321876729665e+00
1.0000322179213776e+00
1.0000322481703314e+00
1.0000322784198286e+00
1.0000323086698688e+00
1.0000323389204533e+00
1.0000323691715789e+00
1.0000323994232487e+00
1.0000324296754624e+00
1.0000324599282189e+00
1.0000324901815203e+00
1.0000325204353644e+00
1.0000325506897525e+00
1.0000325809446844e+00
1.0000326112001601e+00
1.0000326414561795e+00
1.0000326717127430e+00
1.0000327019698514e+00
1.0000327322275042e+00
1.0000327624857011e+00
1.0000327927444430e+00
1.0000328230037283e+00
1.0000328532635598e+00
1.0000328835239340e+00
1.0000329137848545e+00
1.0000329440463198e+00
1.0000329743083294e+00
1.0000330045708843e+00
1.0000330348339856e+00
1.0000330650976301e+00
1.0000330953618208e+00
1.0000331256265569e+00
1.0000331558918392e+00
1.0000331861576663e+00
1.0000332164240382e+00
1.0000332466909569e+00
1.0000332769584206e+00
1.0000333072264311e+00
1.0000333374949868e+00
1.0000333677640887e+00
1.0000333980337373e+00
1.0000334283039316e+00
1.0000334585746737e+00
1.0000334888459599e+00
1.0000335191177947e+00
1.0000335493901751e+00
1.0000335796631028e+00
1.0000336099365763e+00
1.0000336402105974e+00
1.0000336704851653e+00
1.0000337007602798e+00
1.0000337310359431e+00
1.0000337613121517e+00
1.0000337915889075e+00
1.0000338218662108e+00
1.0000338521440617e+00
1.0000338824224597e+00
1.0000339127014057e+00
1.0000339429808984e+00
1.0000339732609400e+00
1.0000340035415296e+00
1.0000340338226663e+00
1.0000340641043515e+00
1.0000340943865851e+00
1.0000341246693660e+00
1.0000341549526959e+00
1.0000341852365739e+00
1.0000342155210000e+00
1.0000342458059748e+00
1.0000342760914975e+00
1.0000343063775703e+00
1.0000343366641911e+00
1.0000343669513612e+00
1.0000343972390793e+00
1.0000344275273485e+00

