# vtk DataFile Version 2.0

ASCII

DATASET UNSTRUCTURED_GRID

POINTS 100 float 

0.0000000000000000e+00  0.0000000000000000e+00  0.0000000000000000e+00
1.0000000000000000e+00  0.0000000000000000e+00  0.0000000000000000e+00
2.0000000000000000e+00  0.0000000000000000e+00  0.0000000000000000e+00
3.0000000000000000e+00  0.0000000000000000e+00  0.0000000000000000e+00
4.0000000000000000e+00  0.0000000000000000e+00  0.0000000000000000e+00
5.0000000000000000e+00  0.0000000000000000e+00  0.0000000000000000e+00
6.0000000000000000e+00  0.0000000000000000e+00  0.0000000000000000e+00
7.0000000000000000e+00  0.0000000000000000e+00  0.0000000000000000e+00
8.0000000000000000e+00  0.0000000000000000e+00  0.0000000000000000e+00
9.0000000000000000e+00  0.0000000000000000e+00  0.0000000000000000e+00
1.0000000000000000e+01  0.0000000000000000e+00  0.0000000000000000e+00
1.1000000000000000e+01  0.0000000000000000e+00  0.0000000000000000e+00
1.2000000000000000e+01  0.0000000000000000e+00  0.0000000000000000e+00
1.3000000000000000e+01  0.0000000000000000e+00  0.0000000000000000e+00
1.4000000000000000e+01  0.0000000000000000e+00  0.0000000000000000e+00
1.5000000000000000e+01  0.0000000000000000e+00  0.0000000000000000e+00
1.6000000000000000e+01  0.0000000000000000e+00  0.0000000000000000e+00
1.7000000000000000e+01  0.0000000000000000e+00  0.0000000000000000e+00
1.8000000000000000e+01  0.0000000000000000e+00  0.0000000000000000e+00
1.9000000000000000e+01  0.0000000000000000e+00  0.0000000000000000e+00
2.0000000000000000e+01  0.0000000000000000e+00  0.0000000000000000e+00
2.1000000000000000e+01  0.0000000000000000e+00  0.0000000000000000e+00
2.2000000000000000e+01  0.0000000000000000e+00  0.0000000000000000e+00
2.3000000000000000e+01  0.0000000000000000e+00  0.0000000000000000e+00
2.4000000000000000e+01  0.0000000000000000e+00  0.0000000000000000e+00
2.5000000000000000e+01  0.0000000000000000e+00  0.0000000000000000e+00
2.6000000000000000e+01  0.0000000000000000e+00  0.0000000000000000e+00
2.7000000000000000e+01  0.0000000000000000e+00  0.0000000000000000e+00
2.8000000000000000e+01  0.0000000000000000e+00  0.0000000000000000e+00
2.9000000000000000e+01  0.0000000000000000e+00  0.0000000000000000e+00
3.0000000000000000e+01  0.0000000000000000e+00  0.0000000000000000e+00
3.1000000000000000e+01  0.0000000000000000e+00  0.0000000000000000e+00
3.2000000000000000e+01  0.0000000000000000e+00  0.0000000000000000e+00
3.3000000000000000e+01  0.0000000000000000e+00  0.0000000000000000e+00
3.4000000000000000e+01  0.0000000000000000e+00  0.0000000000000000e+00
3.5000000000000000e+01  0.0000000000000000e+00  0.0000000000000000e+00
3.6000000000000000e+01  0.0000000000000000e+00  0.0000000000000000e+00
3.7000000000000000e+01  0.0000000000000000e+00  0.0000000000000000e+00
3.8000000000000000e+01  0.0000000000000000e+00  0.0000000000000000e+00
3.9000000000000000e+01  0.0000000000000000e+00  0.0000000000000000e+00
4.0000000000000000e+01  0.0000000000000000e+00  0.0000000000000000e+00
4.1000000000000000e+01  0.0000000000000000e+00  0.0000000000000000e+00
4.2000000000000000e+01  0.0000000000000000e+00  0.0000000000000000e+00
4.3000000000000000e+01  0.0000000000000000e+00  0.0000000000000000e+00
4.4000000000000000e+01  0.0000000000000000e+00  0.0000000000000000e+00
4.5000000000000000e+01  0.0000000000000000e+00  0.0000000000000000e+00
4.6000000000000000e+01  0.0000000000000000e+00  0.0000000000000000e+00
4.7000000000000000e+01  0.0000000000000000e+00  0.0000000000000000e+00
4.8000000000000000e+01  0.0000000000000000e+00  0.0000000000000000e+00
4.9000000000000000e+01  0.0000000000000000e+00  0.0000000000000000e+00
5.0000000000000000e+01  0.0000000000000000e+00  0.0000000000000000e+00
5.1000000000000000e+01  0.0000000000000000e+00  0.0000000000000000e+00
5.2000000000000000e+01  0.0000000000000000e+00  0.0000000000000000e+00
5.3000000000000000e+01  0.0000000000000000e+00  0.0000000000000000e+00
5.4000000000000000e+01  0.0000000000000000e+00  0.0000000000000000e+00
5.5000000000000000e+01  0.0000000000000000e+00  0.0000000000000000e+00
5.6000000000000000e+01  0.0000000000000000e+00  0.0000000000000000e+00
5.7000000000000000e+01  0.0000000000000000e+00  0.0000000000000000e+00
5.8000000000000000e+01  0.0000000000000000e+00  0.0000000000000000e+00
5.9000000000000000e+01  0.0000000000000000e+00  0.0000000000000000e+00
6.0000000000000000e+01  0.0000000000000000e+00  0.0000000000000000e+00
6.1000000000000000e+01  0.0000000000000000e+00  0.0000000000000000e+00
6.2000000000000000e+01  0.0000000000000000e+00  0.0000000000000000e+00
6.3000000000000000e+01  0.0000000000000000e+00  0.0000000000000000e+00
6.4000000000000000e+01  0.0000000000000000e+00  0.0000000000000000e+00
6.5000000000000000e+01  0.0000000000000000e+00  0.0000000000000000e+00
6.6000000000000000e+01  0.0000000000000000e+00  0.0000000000000000e+00
6.7000000000000000e+01  0.0000000000000000e+00  0.0000000000000000e+00
6.8000000000000000e+01  0.0000000000000000e+00  0.0000000000000000e+00
6.9000000000000000e+01  0.0000000000000000e+00  0.0000000000000000e+00
7.0000000000000000e+01  0.0000000000000000e+00  0.0000000000000000e+00
7.1000000000000000e+01  0.0000000000000000e+00  0.0000000000000000e+00
7.2000000000000000e+01  0.0000000000000000e+00  0.0000000000000000e+00
7.3000000000000000e+01  0.0000000000000000e+00  0.0000000000000000e+00
7.4000000000000000e+01  0.0000000000000000e+00  0.0000000000000000e+00
7.5000000000000000e+01  0.0000000000000000e+00  0.0000000000000000e+00
7.6000000000000000e+01  0.0000000000000000e+00  0.0000000000000000e+00
7.7000000000000000e+01  0.0000000000000000e+00  0.0000000000000000e+00
7.8000000000000000e+01  0.0000000000000000e+00  0.0000000000000000e+00
7.9000000000000000e+01  0.0000000000000000e+00  0.0000000000000000e+00
8.0000000000000000e+01  0.0000000000000000e+00  0.0000000000000000e+00
8.1000000000000000e+01  0.0000000000000000e+00  0.0000000000000000e+00
8.2000000000000000e+01  0.0000000000000000e+00  0.0000000000000000e+00
8.3000000000000000e+01  0.0000000000000000e+00  0.0000000000000000e+00
8.4000000000000000e+01  0.0000000000000000e+00  0.0000000000000000e+00
8.5000000000000000e+01  0.0000000000000000e+00  0.0000000000000000e+00
8.6000000000000000e+01  0.0000000000000000e+00  0.0000000000000000e+00
8.7000000000000000e+01  0.0000000000000000e+00  0.0000000000000000e+00
8.8000000000000000e+01  0.0000000000000000e+00  0.0000000000000000e+00
8.9000000000000000e+01  0.0000000000000000e+00  0.0000000000000000e+00
9.0000000000000000e+01  0.0000000000000000e+00  0.0000000000000000e+00
9.1000000000000000e+01  0.0000000000000000e+00  0.0000000000000000e+00
9.2000000000000000e+01  0.0000000000000000e+00  0.0000000000000000e+00
9.3000000000000000e+01  0.0000000000000000e+00  0.0000000000000000e+00
9.4000000000000000e+01  0.0000000000000000e+00  0.0000000000000000e+00
9.5000000000000000e+01  0.0000000000000000e+00  0.0000000000000000e+00
9.6000000000000000e+01  0.0000000000000000e+00  0.0000000000000000e+00
9.7000000000000000e+01  0.0000000000000000e+00  0.0000000000000000e+00
9.8000000000000000e+01  0.0000000000000000e+00  0.0000000000000000e+00
9.9000000000000000e+01  0.0000000000000000e+00  0.0000000000000000e+00

POINT_DATA 100

VECTORS velocity float
1.0018128800512551e-02  0.0000000000000000e+00  0.0000000000000000e+00
1.0018127862530540e-02  0.0000000000000000e+00  0.0000000000000000e+00
1.0018126939416052e-02  0.0000000000000000e+00  0.0000000000000000e+00
1.0018126022968428e-02  0.0000000000000000e+00  0.0000000000000000e+00
1.0018125109663267e-02  0.0000000000000000e+00  0.0000000000000000e+00
1.0018124197988794e-02  0.0000000000000000e+00  0.0000000000000000e+00
1.0018123287297032e-02  0.0000000000000000e+00  0.0000000000000000e+00
1.0018122377310741e-02  0.0000000000000000e+00  0.0000000000000000e+00
1.0018121467911955e-02  0.0000000000000000e+00  0.0000000000000000e+00
1.0018120559049994e-02  0.0000000000000000e+00  0.0000000000000000e+00
1.0018119650703259e-02  0.0000000000000000e+00  0.0000000000000000e+00
1.0018118742862675e-02  0.0000000000000000e+00  0.0000000000000000e+00
1.0018117835524394e-02  0.0000000000000000e+00  0.0000000000000000e+00
1.0018116928686713e-02  0.0000000000000000e+00  0.0000000000000000e+00
1.0018116022348729e-02  0.0000000000000000e+00  0.0000000000000000e+00
1.0018115116510445e-02  0.0000000000000000e+00  0.0000000000000000e+00
1.0018114211171675e-02  0.0000000000000000e+00  0.0000000000000000e+00
1.0018113306331993e-02  0.0000000000000000e+00  0.0000000000000000e+00
1.0018112401991816e-02  0.0000000000000000e+00  0.0000000000000000e+00
1.0018111498151161e-02  0.0000000000000000e+00  0.0000000000000000e+00
1.0018110594809761e-02  0.0000000000000000e+00  0.0000000000000000e+00
1.0018109691967871e-02  0.0000000000000000e+00  0.0000000000000000e+00
1.0018108789625342e-02  0.0000000000000000e+00  0.0000000000000000e+00
1.0018107887782157e-02  0.0000000000000000e+00  0.0000000000000000e+00
1.0018106986438586e-02  0.0000000000000000e+00  0.0000000000000000e+00
1.0018106085594254e-02  0.0000000000000000e+00  0.0000000000000000e+00
1.0018105185249341e-02  0.0000000000000000e+00  0.0000000000000000e+00
1.0018104285403950e-02  0.0000000000000000e+00  0.0000000000000000e+00
1.0018103386057915e-02  0.0000000000000000e+00  0.0000000000000000e+00
1.0018102487211324e-02  0.0000000000000000e+00  0.0000000000000000e+00
1.0018101588864100e-02  0.0000000000000000e+00  0.0000000000000000e+00
1.0018100691016267e-02  0.0000000000000000e+00  0.0000000000000000e+00
1.0018099793668016e-02  0.0000000000000000e+00  0.0000000000000000e+00
1.0018098896819179e-02  0.0000000000000000e+00  0.0000000000000000e+00
1.0018098000469685e-02  0.0000000000000000e+00  0.0000000000000000e+00
1.0018097104619742e-02  0.0000000000000000e+00  0.0000000000000000e+00
1.0018096209269094e-02  0.0000000000000000e+00  0.0000000000000000e+00
1.0018095314418067e-02  0.0000000000000000e+00  0.0000000000000000e+00
1.0018094420066749e-02  0.0000000000000000e+00  0.0000000000000000e+00
1.0018093526214834e-02  0.0000000000000000e+00  0.0000000000000000e+00
1.0018092632862328e-02  0.0000000000000000e+00  0.0000000000000000e+00
1.0018091740009344e-02  0.0000000000000000e+00  0.0000000000000000e+00
1.0018090847655823e-02  0.0000000000000000e+00  0.0000000000000000e+00
1.0018089955801699e-02  0.0000000000000000e+00  0.0000000000000000e+00
1.0018089064447249e-02  0.0000000000000000e+00  0.0000000000000000e+00
1.0018088173592255e-02  0.0000000000000000e+00  0.0000000000000000e+00
1.0018087283236818e-02  0.0000000000000000e+00  0.0000000000000000e+00
1.0018086393380799e-02  0.0000000000000000e+00  0.0000000000000000e+00
1.0018085504024318e-02  0.0000000000000000e+00  0.0000000000000000e+00
1.0018084615167504e-02  0.0000000000000000e+00  0.0000000000000000e+00
1.0018083726810033e-02  0.0000000000000000e+00  0.0000000000000000e+00
1.0018082838952199e-02  0.0000000000000000e+00  0.0000000000000000e+00
1.0018081951593993e-02  0.0000000000000000e+00  0.0000000000000000e+00
1.0018081064735358e-02  0.0000000000000000e+00  0.0000000000000000e+00
1.0018080178376175e-02  0.0000000000000000e+00  0.0000000000000000e+00
1.0018079292516635e-02  0.0000000000000000e+00  0.0000000000000000e+00
1.0018078407156810e-02  0.0000000000000000e+00  0.0000000000000000e+00
1.0018077522296606e-02  0.0000000000000000e+00  0.0000000000000000e+00
1.0018076637935946e-02  0.0000000000000000e+00  0.0000000000000000e+00
1.0018075754074903e-02  0.0000000000000000e+00  0.0000000000000000e+00
1.0018074870713385e-02  0.0000000000000000e+00  0.0000000000000000e+00
1.0018073987851298e-02  0.0000000000000000e+00  0.0000000000000000e+00
1.0018073105488873e-02  0.0000000000000000e+00  0.0000000000000000e+00
1.0018072223626219e-02  0.0000000000000000e+00  0.0000000000000000e+00
1.0018071342263056e-02  0.0000000000000000e+00  0.0000000000000000e+00
1.0018070461399343e-02  0.0000000000000000e+00  0.0000000000000000e+00
1.0018069581035202e-02  0.0000000000000000e+00  0.0000000000000000e+00
1.0018068701170694e-02  0.0000000000000000e+00  0.0000000000000000e+00
1.0018067821806056e-02  0.0000000000000000e+00  0.0000000000000000e+00
1.0018066942941108e-02  0.0000000000000000e+00  0.0000000000000000e+00
1.0018066064575944e-02  0.0000000000000000e+00  0.0000000000000000e+00
1.0018065186710615e-02  0.0000000000000000e+00  0.0000000000000000e+00
1.0018064309344748e-02  0.0000000000000000e+00  0.0000000000000000e+00
1.0018063432478389e-02  0.0000000000000000e+00  0.0000000000000000e+00
1.0018062556111764e-02  0.0000000000000000e+00  0.0000000000000000e+00
1.0018061680244812e-02  0.0000000000000000e+00  0.0000000000000000e+00
1.0018060804877582e-02  0.0000000000000000e+00  0.0000000000000000e+00
1.0018059930009987e-02  0.0000000000000000e+00  0.0000000000000000e+00
1.0018059055642153e-02  0.0000000000000000e+00  0.0000000000000000e+00
1.0018058181774167e-02  0.0000000000000000e+00  0.0000000000000000e+00
1.0018057308405826e-02  0.0000000000000000e+00  0.0000000000000000e+00
1.0018056435537080e-02  0.0000000000000000e+00  0.0000000000000000e+00
1.0018055563168033e-02  0.0000000000000000e+00  0.0000000000000000e+00
1.0018054691298873e-02  0.0000000000000000e+00  0.0000000000000000e+00
1.0018053819929337e-02  0.0000000000000000e+00  0.0000000000000000e+00
1.0018052949059376e-02  0.0000000000000000e+00  0.0000000000000000e+00
1.0018052078689207e-02  0.0000000000000000e+00  0.0000000000000000e+00
1.0018051208818870e-02  0.0000000000000000e+00  0.0000000000000000e+00
1.0018050339448468e-02  0.0000000000000000e+00  0.0000000000000000e+00
1.0018049470577757e-02  0.0000000000000000e+00  0.0000000000000000e+00
1.0018048602206652e-02  0.0000000000000000e+00  0.0000000000000000e+00
1.0018047734335591e-02  0.0000000000000000e+00  0.0000000000000000e+00
1.0018046866963849e-02  0.0000000000000000e+00  0.0000000000000000e+00
1.0018046000093031e-02  0.0000000000000000e+00  0.0000000000000000e+00
1.0018045133719271e-02  0.0000000000000000e+00  0.0000000000000000e+00
1.0018044267851862e-02  0.0000000000000000e+00  0.0000000000000000e+00
1.0018043402468594e-02  0.0000000000000000e+00  0.0000000000000000e+00
1.0018042537622064e-02  0.0000000000000000e+00  0.0000000000000000e+00
1.0018041673187148e-02  0.0000000000000000e+00  0.0000000000000000e+00
1.0018040809462100e-02  0.0000000000000000e+00  0.0000000000000000e+00

SCALARS pressure float
LOOKUP_TABLE default
1.5554597981591917e-05
1.5579433535716900e-05
1.5604269089841879e-05
1.5629104849486927e-05
1.5653940902954224e-05
1.5678777288200108e-05
1.5703614021578413e-05
1.5728451110194507e-05
1.5753288557226622e-05
1.5778126364123911e-05
1.5802964531639686e-05
1.5827803060221735e-05
1.5852641950180154e-05
1.5877481201767469e-05
1.5902320815218386e-05
1.5927160790762380e-05
1.5952001128615826e-05
1.5976841828984333e-05
1.6001682892108185e-05
1.6026524318190595e-05
1.6051366107438212e-05
1.6076208260079873e-05
1.6101050776326405e-05
1.6125893656389736e-05
1.6150736900497114e-05
1.6175580508848494e-05
1.6200424481670948e-05
1.6225268819183125e-05
1.6250113521587555e-05
1.6274958589112185e-05
1.6299804021967756e-05
1.6324649820373128e-05
1.6349495984546157e-05
1.6374342514696557e-05
1.6399189411040895e-05
1.6424036673805408e-05
1.6448884303195231e-05
1.6473732299433196e-05
1.6498580662733384e-05
1.6523429393295871e-05
1.6548278491353650e-05
1.6573127957121466e-05
1.6597977790814547e-05
1.6622827992645392e-05
1.6647678562839420e-05
1.6672529501600961e-05
1.6697380809149618e-05
1.6722232485706112e-05
1.6747084531481784e-05
1.6771936946701447e-05
1.6796789731563347e-05
1.6821642886303112e-05
1.6846496411127751e-05
1.6871350306248820e-05
1.6896204571887854e-05
1.6921059208262512e-05
1.6945914215588870e-05
1.6970769594072452e-05
1.6995625343937222e-05
1.7020481465396695e-05
1.7045337958672566e-05
1.7070194823975177e-05
1.7095052061534474e-05
1.7119909671554144e-05
1.7144767654249850e-05
1.7169626009838854e-05
1.7194484738551736e-05
1.7219343840592238e-05
1.7244203316182937e-05
1.7269063165526046e-05
1.7293923388844095e-05
1.7318783986351288e-05
1.7343644958258566e-05
1.7368506304792491e-05
1.7393368026177768e-05
1.7418230122617042e-05
1.7443092594330385e-05
1.7467955441532912e-05
1.7492818664443190e-05
1.7517682263276625e-05
1.7542546238242632e-05
1.7567410589563437e-05
1.7592275317461443e-05
1.7617140422149177e-05
1.7642005903836205e-05
1.7666871762742465e-05
1.7691737999096862e-05
1.7716604613102854e-05
1.7741471604978765e-05
1.7766338974933442e-05
1.7791206723191529e-05
1.7816074849975885e-05
1.7840943355489860e-05
1.7865812239960345e-05
1.7890681503587114e-05
1.7915551146626558e-05
1.7940421169201576e-05
1.7965291571748619e-05
1.7990162353976267e-05
1.8015033517311586e-05

SCALARS diameter float
LOOKUP_TABLE default
1.0000132483522022e+00
1.0000132719779198e+00
1.0000132956036389e+00
1.0000133192295437e+00
1.0000133428557145e+00
1.0000133664821858e+00
1.0000133901089723e+00
1.0000134137360801e+00
1.0000134373635139e+00
1.0000134609912736e+00
1.0000134846193589e+00
1.0000135082477724e+00
1.0000135318765135e+00
1.0000135555055829e+00
1.0000135791349793e+00
1.0000136027647053e+00
1.0000136263947605e+00
1.0000136500251438e+00
1.0000136736558560e+00
1.0000136972868980e+00
1.0000137209182696e+00
1.0000137445499715e+00
1.0000137681820034e+00
1.0000137918143652e+00
1.0000138154470573e+00
1.0000138390800806e+00
1.0000138627134358e+00
1.0000138863471209e+00
1.0000139099811385e+00
1.0000139336154865e+00
1.0000139572501676e+00
1.0000139808851811e+00
1.0000140045205268e+00
1.0000140281562049e+00
1.0000140517922165e+00
1.0000140754285609e+00
1.0000140990652393e+00
1.0000141227022503e+00
1.0000141463395964e+00
1.0000141699772755e+00
1.0000141936152889e+00
1.0000142172536379e+00
1.0000142408923209e+00
1.0000142645313401e+00
1.0000142881706937e+00
1.0000143118103835e+00
1.0000143354504081e+00
1.0000143590907693e+00
1.0000143827314665e+00
1.0000144063725005e+00
1.0000144300138709e+00
1.0000144536555782e+00
1.0000144772976232e+00
1.0000145009400052e+00
1.0000145245827248e+00
1.0000145482257834e+00
1.0000145718691791e+00
1.0000145955129132e+00
1.0000146191569865e+00
1.0000146428013976e+00
1.0000146664461487e+00
1.0000146900912388e+00
1.0000147137366682e+00
1.0000147373824380e+00
1.0000147610285475e+00
1.0000147846749974e+00
1.0000148083217877e+00
1.0000148319689186e+00
1.0000148556163904e+00
1.0000148792642043e+00
1.0000149029123588e+00
1.0000149265608549e+00
1.0000149502096938e+00
1.0000149738588742e+00
1.0000149975083967e+00
1.0000150211582626e+00
1.0000150448084710e+00
1.0000150684590221e+00
1.0000150921099178e+00
1.0000151157611556e+00
1.0000151394127383e+00
1.0000151630646634e+00
1.0000151867169347e+00
1.0000152103695501e+00
1.0000152340225101e+00
1.0000152576758152e+00
1.0000152813294643e+00
1.0000153049834604e+00
1.0000153286378017e+00
1.0000153522924884e+00
1.0000153759475228e+00
1.0000153996029026e+00
1.0000154232586289e+00
1.0000154469147025e+00
1.0000154705711228e+00
1.0000154942278909e+00
1.0000155178850059e+00
1.0000155415424692e+00
1.0000155652002809e+00
1.0000155888584417e+00

