# vtk DataFile Version 2.0

ASCII

DATASET UNSTRUCTURED_GRID

POINTS 100 float 

0.0000000000000000e+00  0.0000000000000000e+00  0.0000000000000000e+00
1.0000000000000000e+00  0.0000000000000000e+00  0.0000000000000000e+00
2.0000000000000000e+00  0.0000000000000000e+00  0.0000000000000000e+00
3.0000000000000000e+00  0.0000000000000000e+00  0.0000000000000000e+00
4.0000000000000000e+00  0.0000000000000000e+00  0.0000000000000000e+00
5.0000000000000000e+00  0.0000000000000000e+00  0.0000000000000000e+00
6.0000000000000000e+00  0.0000000000000000e+00  0.0000000000000000e+00
7.0000000000000000e+00  0.0000000000000000e+00  0.0000000000000000e+00
8.0000000000000000e+00  0.0000000000000000e+00  0.0000000000000000e+00
9.0000000000000000e+00  0.0000000000000000e+00  0.0000000000000000e+00
1.0000000000000000e+01  0.0000000000000000e+00  0.0000000000000000e+00
1.1000000000000000e+01  0.0000000000000000e+00  0.0000000000000000e+00
1.2000000000000000e+01  0.0000000000000000e+00  0.0000000000000000e+00
1.3000000000000000e+01  0.0000000000000000e+00  0.0000000000000000e+00
1.4000000000000000e+01  0.0000000000000000e+00  0.0000000000000000e+00
1.5000000000000000e+01  0.0000000000000000e+00  0.0000000000000000e+00
1.6000000000000000e+01  0.0000000000000000e+00  0.0000000000000000e+00
1.7000000000000000e+01  0.0000000000000000e+00  0.0000000000000000e+00
1.8000000000000000e+01  0.0000000000000000e+00  0.0000000000000000e+00
1.9000000000000000e+01  0.0000000000000000e+00  0.0000000000000000e+00
2.0000000000000000e+01  0.0000000000000000e+00  0.0000000000000000e+00
2.1000000000000000e+01  0.0000000000000000e+00  0.0000000000000000e+00
2.2000000000000000e+01  0.0000000000000000e+00  0.0000000000000000e+00
2.3000000000000000e+01  0.0000000000000000e+00  0.0000000000000000e+00
2.4000000000000000e+01  0.0000000000000000e+00  0.0000000000000000e+00
2.5000000000000000e+01  0.0000000000000000e+00  0.0000000000000000e+00
2.6000000000000000e+01  0.0000000000000000e+00  0.0000000000000000e+00
2.7000000000000000e+01  0.0000000000000000e+00  0.0000000000000000e+00
2.8000000000000000e+01  0.0000000000000000e+00  0.0000000000000000e+00
2.9000000000000000e+01  0.0000000000000000e+00  0.0000000000000000e+00
3.0000000000000000e+01  0.0000000000000000e+00  0.0000000000000000e+00
3.1000000000000000e+01  0.0000000000000000e+00  0.0000000000000000e+00
3.2000000000000000e+01  0.0000000000000000e+00  0.0000000000000000e+00
3.3000000000000000e+01  0.0000000000000000e+00  0.0000000000000000e+00
3.4000000000000000e+01  0.0000000000000000e+00  0.0000000000000000e+00
3.5000000000000000e+01  0.0000000000000000e+00  0.0000000000000000e+00
3.6000000000000000e+01  0.0000000000000000e+00  0.0000000000000000e+00
3.7000000000000000e+01  0.0000000000000000e+00  0.0000000000000000e+00
3.8000000000000000e+01  0.0000000000000000e+00  0.0000000000000000e+00
3.9000000000000000e+01  0.0000000000000000e+00  0.0000000000000000e+00
4.0000000000000000e+01  0.0000000000000000e+00  0.0000000000000000e+00
4.1000000000000000e+01  0.0000000000000000e+00  0.0000000000000000e+00
4.2000000000000000e+01  0.0000000000000000e+00  0.0000000000000000e+00
4.3000000000000000e+01  0.0000000000000000e+00  0.0000000000000000e+00
4.4000000000000000e+01  0.0000000000000000e+00  0.0000000000000000e+00
4.5000000000000000e+01  0.0000000000000000e+00  0.0000000000000000e+00
4.6000000000000000e+01  0.0000000000000000e+00  0.0000000000000000e+00
4.7000000000000000e+01  0.0000000000000000e+00  0.0000000000000000e+00
4.8000000000000000e+01  0.0000000000000000e+00  0.0000000000000000e+00
4.9000000000000000e+01  0.0000000000000000e+00  0.0000000000000000e+00
5.0000000000000000e+01  0.0000000000000000e+00  0.0000000000000000e+00
5.1000000000000000e+01  0.0000000000000000e+00  0.0000000000000000e+00
5.2000000000000000e+01  0.0000000000000000e+00  0.0000000000000000e+00
5.3000000000000000e+01  0.0000000000000000e+00  0.0000000000000000e+00
5.4000000000000000e+01  0.0000000000000000e+00  0.0000000000000000e+00
5.5000000000000000e+01  0.0000000000000000e+00  0.0000000000000000e+00
5.6000000000000000e+01  0.0000000000000000e+00  0.0000000000000000e+00
5.7000000000000000e+01  0.0000000000000000e+00  0.0000000000000000e+00
5.8000000000000000e+01  0.0000000000000000e+00  0.0000000000000000e+00
5.9000000000000000e+01  0.0000000000000000e+00  0.0000000000000000e+00
6.0000000000000000e+01  0.0000000000000000e+00  0.0000000000000000e+00
6.1000000000000000e+01  0.0000000000000000e+00  0.0000000000000000e+00
6.2000000000000000e+01  0.0000000000000000e+00  0.0000000000000000e+00
6.3000000000000000e+01  0.0000000000000000e+00  0.0000000000000000e+00
6.4000000000000000e+01  0.0000000000000000e+00  0.0000000000000000e+00
6.5000000000000000e+01  0.0000000000000000e+00  0.0000000000000000e+00
6.6000000000000000e+01  0.0000000000000000e+00  0.0000000000000000e+00
6.7000000000000000e+01  0.0000000000000000e+00  0.0000000000000000e+00
6.8000000000000000e+01  0.0000000000000000e+00  0.0000000000000000e+00
6.9000000000000000e+01  0.0000000000000000e+00  0.0000000000000000e+00
7.0000000000000000e+01  0.0000000000000000e+00  0.0000000000000000e+00
7.1000000000000000e+01  0.0000000000000000e+00  0.0000000000000000e+00
7.2000000000000000e+01  0.0000000000000000e+00  0.0000000000000000e+00
7.3000000000000000e+01  0.0000000000000000e+00  0.0000000000000000e+00
7.4000000000000000e+01  0.0000000000000000e+00  0.0000000000000000e+00
7.5000000000000000e+01  0.0000000000000000e+00  0.0000000000000000e+00
7.6000000000000000e+01  0.0000000000000000e+00  0.0000000000000000e+00
7.7000000000000000e+01  0.0000000000000000e+00  0.0000000000000000e+00
7.8000000000000000e+01  0.0000000000000000e+00  0.0000000000000000e+00
7.9000000000000000e+01  0.0000000000000000e+00  0.0000000000000000e+00
8.0000000000000000e+01  0.0000000000000000e+00  0.0000000000000000e+00
8.1000000000000000e+01  0.0000000000000000e+00  0.0000000000000000e+00
8.2000000000000000e+01  0.0000000000000000e+00  0.0000000000000000e+00
8.3000000000000000e+01  0.0000000000000000e+00  0.0000000000000000e+00
8.4000000000000000e+01  0.0000000000000000e+00  0.0000000000000000e+00
8.5000000000000000e+01  0.0000000000000000e+00  0.0000000000000000e+00
8.6000000000000000e+01  0.0000000000000000e+00  0.0000000000000000e+00
8.7000000000000000e+01  0.0000000000000000e+00  0.0000000000000000e+00
8.8000000000000000e+01  0.0000000000000000e+00  0.0000000000000000e+00
8.9000000000000000e+01  0.0000000000000000e+00  0.0000000000000000e+00
9.0000000000000000e+01  0.0000000000000000e+00  0.0000000000000000e+00
9.1000000000000000e+01  0.0000000000000000e+00  0.0000000000000000e+00
9.2000000000000000e+01  0.0000000000000000e+00  0.0000000000000000e+00
9.3000000000000000e+01  0.0000000000000000e+00  0.0000000000000000e+00
9.4000000000000000e+01  0.0000000000000000e+00  0.0000000000000000e+00
9.5000000000000000e+01  0.0000000000000000e+00  0.0000000000000000e+00
9.6000000000000000e+01  0.0000000000000000e+00  0.0000000000000000e+00
9.7000000000000000e+01  0.0000000000000000e+00  0.0000000000000000e+00
9.8000000000000000e+01  0.0000000000000000e+00  0.0000000000000000e+00
9.9000000000000000e+01  0.0000000000000000e+00  0.0000000000000000e+00

POINT_DATA 100

VECTORS velocity float
1.0081871199487440e-02  0.0000000000000000e+00  0.0000000000000000e+00
1.0081872139466845e-02  0.0000000000000000e+00  0.0000000000000000e+00
1.0081873064396533e-02  0.0000000000000000e+00  0.0000000000000000e+00
1.0081873982553847e-02  0.0000000000000000e+00  0.0000000000000000e+00
1.0081874897515169e-02  0.0000000000000000e+00  0.0000000000000000e+00
1.0081875810820394e-02  0.0000000000000000e+00  0.0000000000000000e+00
1.0081876723130821e-02  0.0000000000000000e+00  0.0000000000000000e+00
1.0081877634729897e-02  0.0000000000000000e+00  0.0000000000000000e+00
1.0081878545738927e-02  0.0000000000000000e+00  0.0000000000000000e+00
1.0081879456209772e-02  0.0000000000000000e+00  0.0000000000000000e+00
1.0081880366164560e-02  0.0000000000000000e+00  0.0000000000000000e+00
1.0081881275612731e-02  0.0000000000000000e+00  0.0000000000000000e+00
1.0081882184558284e-02  0.0000000000000000e+00  0.0000000000000000e+00
1.0081883093002899e-02  0.0000000000000000e+00  0.0000000000000000e+00
1.0081884000947273e-02  0.0000000000000000e+00  0.0000000000000000e+00
1.0081884908391681e-02  0.0000000000000000e+00  0.0000000000000000e+00
1.0081885815336214e-02  0.0000000000000000e+00  0.0000000000000000e+00
1.0081886721780890e-02  0.0000000000000000e+00  0.0000000000000000e+00
1.0081887627725692e-02  0.0000000000000000e+00  0.0000000000000000e+00
1.0081888533170586e-02  0.0000000000000000e+00  0.0000000000000000e+00
1.0081889438115544e-02  0.0000000000000000e+00  0.0000000000000000e+00
1.0081890342560521e-02  0.0000000000000000e+00  0.0000000000000000e+00
1.0081891246505485e-02  0.0000000000000000e+00  0.0000000000000000e+00
1.0081892149950394e-02  0.0000000000000000e+00  0.0000000000000000e+00
1.0081893052895205e-02  0.0000000000000000e+00  0.0000000000000000e+00
1.0081893955339883e-02  0.0000000000000000e+00  0.0000000000000000e+00
1.0081894857284389e-02  0.0000000000000000e+00  0.0000000000000000e+00
1.0081895758728679e-02  0.0000000000000000e+00  0.0000000000000000e+00
1.0081896659672716e-02  0.0000000000000000e+00  0.0000000000000000e+00
1.0081897560116461e-02  0.0000000000000000e+00  0.0000000000000000e+00
1.0081898460059871e-02  0.0000000000000000e+00  0.0000000000000000e+00
1.0081899359502915e-02  0.0000000000000000e+00  0.0000000000000000e+00
1.0081900258445547e-02  0.0000000000000000e+00  0.0000000000000000e+00
1.0081901156887728e-02  0.0000000000000000e+00  0.0000000000000000e+00
1.0081902054829424e-02  0.0000000000000000e+00  0.0000000000000000e+00
1.0081902952270592e-02  0.0000000000000000e+00  0.0000000000000000e+00
1.0081903849211189e-02  0.0000000000000000e+00  0.0000000000000000e+00
1.0081904745651186e-02  0.0000000000000000e+00  0.0000000000000000e+00
1.0081905641590535e-02  0.0000000000000000e+00  0.0000000000000000e+00
1.0081906537029204e-02  0.0000000000000000e+00  0.0000000000000000e+00
1.0081907431967152e-02  0.0000000000000000e+00  0.0000000000000000e+00
1.0081908326404338e-02  0.0000000000000000e+00  0.0000000000000000e+00
1.0081909220340730e-02  0.0000000000000000e+00  0.0000000000000000e+00
1.0081910113776283e-02  0.0000000000000000e+00  0.0000000000000000e+00
1.0081911006710961e-02  0.0000000000000000e+00  0.0000000000000000e+00
1.0081911899144730e-02  0.0000000000000000e+00  0.0000000000000000e+00
1.0081912791077546e-02  0.0000000000000000e+00  0.0000000000000000e+00
1.0081913682509375e-02  0.0000000000000000e+00  0.0000000000000000e+00
1.0081914573440180e-02  0.0000000000000000e+00  0.0000000000000000e+00
1.0081915463869917e-02  0.0000000000000000e+00  0.0000000000000000e+00
1.0081916353798554e-02  0.0000000000000000e+00  0.0000000000000000e+00
1.0081917243226053e-02  0.0000000000000000e+00  0.0000000000000000e+00
1.0081918132152376e-02  0.0000000000000000e+00  0.0000000000000000e+00
1.0081919020577486e-02  0.0000000000000000e+00  0.0000000000000000e+00
1.0081919908501347e-02  0.0000000000000000e+00  0.0000000000000000e+00
1.0081920795923916e-02  0.0000000000000000e+00  0.0000000000000000e+00
1.0081921682845160e-02  0.0000000000000000e+00  0.0000000000000000e+00
1.0081922569265045e-02  0.0000000000000000e+00  0.0000000000000000e+00
1.0081923455183533e-02  0.0000000000000000e+00  0.0000000000000000e+00
1.0081924340600578e-02  0.0000000000000000e+00  0.0000000000000000e+00
1.0081925225516160e-02  0.0000000000000000e+00  0.0000000000000000e+00
1.0081926109930237e-02  0.0000000000000000e+00  0.0000000000000000e+00
1.0081926993842768e-02  0.0000000000000000e+00  0.0000000000000000e+00
1.0081927877253715e-02  0.0000000000000000e+00  0.0000000000000000e+00
1.0081928760163049e-02  0.0000000000000000e+00  0.0000000000000000e+00
1.0081929642570738e-02  0.0000000000000000e+00  0.0000000000000000e+00
1.0081930524476739e-02  0.0000000000000000e+00  0.0000000000000000e+00
1.0081931405881015e-02  0.0000000000000000e+00  0.0000000000000000e+00
1.0081932286783536e-02  0.0000000000000000e+00  0.0000000000000000e+00
1.0081933167184261e-02  0.0000000000000000e+00  0.0000000000000000e+00
1.0081934047083161e-02  0.0000000000000000e+00  0.0000000000000000e+00
1.0081934926480197e-02  0.0000000000000000e+00  0.0000000000000000e+00
1.0081935805375341e-02  0.0000000000000000e+00  0.0000000000000000e+00
1.0081936683768552e-02  0.0000000000000000e+00  0.0000000000000000e+00
1.0081937561659796e-02  0.0000000000000000e+00  0.0000000000000000e+00
1.0081938439049039e-02  0.0000000000000000e+00  0.0000000000000000e+00
1.0081939315936251e-02  0.0000000000000000e+00  0.0000000000000000e+00
1.0081940192321403e-02  0.0000000000000000e+00  0.0000000000000000e+00
1.0081941068204448e-02  0.0000000000000000e+00  0.0000000000000000e+00
1.0081941943585360e-02  0.0000000000000000e+00  0.0000000000000000e+00
1.0081942818464104e-02  0.0000000000000000e+00  0.0000000000000000e+00
1.0081943692840647e-02  0.0000000000000000e+00  0.0000000000000000e+00
1.0081944566714960e-02  0.0000000000000000e+00  0.0000000000000000e+00
1.0081945440087005e-02  0.0000000000000000e+00  0.0000000000000000e+00
1.0081946312956750e-02  0.0000000000000000e+00  0.0000000000000000e+00
1.0081947185324167e-02  0.0000000000000000e+00  0.0000000000000000e+00
1.0081948057189219e-02  0.0000000000000000e+00  0.0000000000000000e+00
1.0081948928551871e-02  0.0000000000000000e+00  0.0000000000000000e+00
1.0081949799412114e-02  0.0000000000000000e+00  0.0000000000000000e+00
1.0081950669769866e-02  0.0000000000000000e+00  0.0000000000000000e+00
1.0081951539625208e-02  0.0000000000000000e+00  0.0000000000000000e+00
1.0081952408977836e-02  0.0000000000000000e+00  0.0000000000000000e+00
1.0081953277828383e-02  0.0000000000000000e+00  0.0000000000000000e+00
1.0081954146175218e-02  0.0000000000000000e+00  0.0000000000000000e+00
1.0081955014022148e-02  0.0000000000000000e+00  0.0000000000000000e+00
1.0081955881359963e-02  0.0000000000000000e+00  0.0000000000000000e+00
1.0081956748210571e-02  0.0000000000000000e+00  0.0000000000000000e+00
1.0081957614521525e-02  0.0000000000000000e+00  0.0000000000000000e+00
1.0081958480418009e-02  0.0000000000000000e+00  0.0000000000000000e+00
1.0081959345600994e-02  0.0000000000000000e+00  0.0000000000000000e+00

SCALARS pressure float
LOOKUP_TABLE default
8.4444548033630988e-05
8.4419714057861741e-05
8.4394880082092495e-05
8.4370045897907837e-05
8.4345211415410263e-05
8.4320376595857261e-05
8.4295541422515550e-05
8.4270705888098493e-05
8.4245869989367240e-05
8.4221033724815603e-05
8.4196197093677836e-05
8.4171360095504838e-05
8.4146522729982770e-05
8.4121684996855560e-05
8.4096846895891905e-05
8.4072008426871265e-05
8.4047169589577506e-05
8.4022330383796645e-05
8.3997490809315637e-05
8.3972650865921870e-05
8.3947810553403260e-05
8.3922969871547685e-05
8.3898128820143194e-05
8.3873287398978166e-05
8.3848445607841141e-05
8.3823603446520794e-05
8.3798760914805827e-05
8.3773918012485134e-05
8.3749074739347985e-05
8.3724231095183679e-05
8.3699387079781530e-05
8.3674542692931133e-05
8.3649697934422358e-05
8.3624852804045112e-05
8.3600007301589494e-05
8.3575161426845563e-05
8.3550315179603876e-05
8.3525468559654968e-05
8.3500621566789626e-05
8.3475774200798681e-05
8.3450926461473032e-05
8.3426078348603982e-05
8.3401229861983095e-05
8.3376381001401702e-05
8.3351531766651622e-05
8.3326682157524744e-05
8.3301832173812980e-05
8.3276981815308545e-05
8.3252131081803908e-05
8.3227279973091526e-05
8.3202428488964207e-05
8.3177576629214707e-05
8.3152724393636160e-05
8.3127871782021740e-05
8.3103018794164962e-05
8.3078165429859352e-05
8.3053311688898669e-05
8.3028457571076886e-05
8.3003603076188114e-05
8.2978748204026639e-05
8.2953892954386896e-05
8.2929037327063375e-05
8.2904181321850944e-05
8.2879324938544771e-05
8.2854468176939874e-05
8.2829611036831555e-05
8.2804753518015442e-05
8.2779895620287218e-05
8.2755037343442903e-05
8.2730178687278545e-05
8.2705319651590341e-05
8.2680460236174855e-05
8.2655600440828582e-05
8.2630740265348328e-05
8.2605879709531349e-05
8.2581018773174734e-05
8.2556157456075902e-05
8.2531295758032539e-05
8.2506433678842281e-05
8.2481571218303247e-05
8.2456708376213561e-05
8.2431845152371641e-05
8.2406981546576056e-05
8.2382117558625498e-05
8.2357253188319077e-05
8.2332388435455876e-05
8.2307523299835359e-05
8.2282657781257058e-05
8.2257791879520814e-05
8.2232925594426376e-05
8.2208058925774467e-05
8.2183191873364360e-05
8.2158324436999369e-05
8.2133456616473793e-05
8.2108588411604387e-05
8.2083719822154729e-05
8.2058850848016371e-05
8.2033981488775906e-05
8.2009111744748634e-05
8.1984241614511594e-05

SCALARS diameter float
LOOKUP_TABLE default
1.0000867565610962e+00
1.0000867329343628e+00
1.0000867093076309e+00
1.0000866856807140e+00
1.0000866620535311e+00
1.0000866384260469e+00
1.0000866147982455e+00
1.0000865911701218e+00
1.0000865675416701e+00
1.0000865439128910e+00
1.0000865202837823e+00
1.0000864966543448e+00
1.0000864730245773e+00
1.0000864493944803e+00
1.0000864257640532e+00
1.0000864021332956e+00
1.0000863785022072e+00
1.0000863548707883e+00
1.0000863312390378e+00
1.0000863076069564e+00
1.0000862839745435e+00
1.0000862603417973e+00
1.0000862367087198e+00
1.0000862130753110e+00
1.0000861894415682e+00
1.0000861658074935e+00
1.0000861421730853e+00
1.0000861185383438e+00
1.0000860949032691e+00
1.0000860712678601e+00
1.0000860476321174e+00
1.0000860239960394e+00
1.0000860003596279e+00
1.0000859767228811e+00
1.0000859530857997e+00
1.0000859294483835e+00
1.0000859058106304e+00
1.0000858821725422e+00
1.0000858585341175e+00
1.0000858348953572e+00
1.0000858112562603e+00
1.0000857876168268e+00
1.0000857639770548e+00
1.0000857403369465e+00
1.0000857166965011e+00
1.0000856930557174e+00
1.0000856694145952e+00
1.0000856457731355e+00
1.0000856221313374e+00
1.0000855984892003e+00
1.0000855748467232e+00
1.0000855512039082e+00
1.0000855275607523e+00
1.0000855039172576e+00
1.0000854802734227e+00
1.0000854566292472e+00
1.0000854329847315e+00
1.0000854093398743e+00
1.0000853856946761e+00
1.0000853620491372e+00
1.0000853384032560e+00
1.0000853147570332e+00
1.0000852911104694e+00
1.0000852674635616e+00
1.0000852438163119e+00
1.0000852201687191e+00
1.0000851965207829e+00
1.0000851728725042e+00
1.0000851492238816e+00
1.0000851255749144e+00
1.0000851019256038e+00
1.0000850782759481e+00
1.0000850546259479e+00
1.0000850309756029e+00
1.0000850073249128e+00
1.0000849836738768e+00
1.0000849600224953e+00
1.0000849363707676e+00
1.0000849127186950e+00
1.0000848890662750e+00
1.0000848654135075e+00
1.0000848417603936e+00
1.0000848181069322e+00
1.0000847944531235e+00
1.0000847707989662e+00
1.0000847471444620e+00
1.0000847234896089e+00
1.0000846998344071e+00
1.0000846761788567e+00
1.0000846525229572e+00
1.0000846288667078e+00
1.0000846052101091e+00
1.0000845815531605e+00
1.0000845578958617e+00
1.0000845342382121e+00
1.0000845105802127e+00
1.0000844869218621e+00
1.0000844632631600e+00
1.0000844396041066e+00
1.0000844159446998e+00

