# vtk DataFile Version 2.0

ASCII

DATASET UNSTRUCTURED_GRID

POINTS 100 float 

0.0000000000000000e+00  0.0000000000000000e+00  0.0000000000000000e+00
1.0000000000000000e+00  0.0000000000000000e+00  0.0000000000000000e+00
2.0000000000000000e+00  0.0000000000000000e+00  0.0000000000000000e+00
3.0000000000000000e+00  0.0000000000000000e+00  0.0000000000000000e+00
4.0000000000000000e+00  0.0000000000000000e+00  0.0000000000000000e+00
5.0000000000000000e+00  0.0000000000000000e+00  0.0000000000000000e+00
6.0000000000000000e+00  0.0000000000000000e+00  0.0000000000000000e+00
7.0000000000000000e+00  0.0000000000000000e+00  0.0000000000000000e+00
8.0000000000000000e+00  0.0000000000000000e+00  0.0000000000000000e+00
9.0000000000000000e+00  0.0000000000000000e+00  0.0000000000000000e+00
1.0000000000000000e+01  0.0000000000000000e+00  0.0000000000000000e+00
1.1000000000000000e+01  0.0000000000000000e+00  0.0000000000000000e+00
1.2000000000000000e+01  0.0000000000000000e+00  0.0000000000000000e+00
1.3000000000000000e+01  0.0000000000000000e+00  0.0000000000000000e+00
1.4000000000000000e+01  0.0000000000000000e+00  0.0000000000000000e+00
1.5000000000000000e+01  0.0000000000000000e+00  0.0000000000000000e+00
1.6000000000000000e+01  0.0000000000000000e+00  0.0000000000000000e+00
1.7000000000000000e+01  0.0000000000000000e+00  0.0000000000000000e+00
1.8000000000000000e+01  0.0000000000000000e+00  0.0000000000000000e+00
1.9000000000000000e+01  0.0000000000000000e+00  0.0000000000000000e+00
2.0000000000000000e+01  0.0000000000000000e+00  0.0000000000000000e+00
2.1000000000000000e+01  0.0000000000000000e+00  0.0000000000000000e+00
2.2000000000000000e+01  0.0000000000000000e+00  0.0000000000000000e+00
2.3000000000000000e+01  0.0000000000000000e+00  0.0000000000000000e+00
2.4000000000000000e+01  0.0000000000000000e+00  0.0000000000000000e+00
2.5000000000000000e+01  0.0000000000000000e+00  0.0000000000000000e+00
2.6000000000000000e+01  0.0000000000000000e+00  0.0000000000000000e+00
2.7000000000000000e+01  0.0000000000000000e+00  0.0000000000000000e+00
2.8000000000000000e+01  0.0000000000000000e+00  0.0000000000000000e+00
2.9000000000000000e+01  0.0000000000000000e+00  0.0000000000000000e+00
3.0000000000000000e+01  0.0000000000000000e+00  0.0000000000000000e+00
3.1000000000000000e+01  0.0000000000000000e+00  0.0000000000000000e+00
3.2000000000000000e+01  0.0000000000000000e+00  0.0000000000000000e+00
3.3000000000000000e+01  0.0000000000000000e+00  0.0000000000000000e+00
3.4000000000000000e+01  0.0000000000000000e+00  0.0000000000000000e+00
3.5000000000000000e+01  0.0000000000000000e+00  0.0000000000000000e+00
3.6000000000000000e+01  0.0000000000000000e+00  0.0000000000000000e+00
3.7000000000000000e+01  0.0000000000000000e+00  0.0000000000000000e+00
3.8000000000000000e+01  0.0000000000000000e+00  0.0000000000000000e+00
3.9000000000000000e+01  0.0000000000000000e+00  0.0000000000000000e+00
4.0000000000000000e+01  0.0000000000000000e+00  0.0000000000000000e+00
4.1000000000000000e+01  0.0000000000000000e+00  0.0000000000000000e+00
4.2000000000000000e+01  0.0000000000000000e+00  0.0000000000000000e+00
4.3000000000000000e+01  0.0000000000000000e+00  0.0000000000000000e+00
4.4000000000000000e+01  0.0000000000000000e+00  0.0000000000000000e+00
4.5000000000000000e+01  0.0000000000000000e+00  0.0000000000000000e+00
4.6000000000000000e+01  0.0000000000000000e+00  0.0000000000000000e+00
4.7000000000000000e+01  0.0000000000000000e+00  0.0000000000000000e+00
4.8000000000000000e+01  0.0000000000000000e+00  0.0000000000000000e+00
4.9000000000000000e+01  0.0000000000000000e+00  0.0000000000000000e+00
5.0000000000000000e+01  0.0000000000000000e+00  0.0000000000000000e+00
5.1000000000000000e+01  0.0000000000000000e+00  0.0000000000000000e+00
5.2000000000000000e+01  0.0000000000000000e+00  0.0000000000000000e+00
5.3000000000000000e+01  0.0000000000000000e+00  0.0000000000000000e+00
5.4000000000000000e+01  0.0000000000000000e+00  0.0000000000000000e+00
5.5000000000000000e+01  0.0000000000000000e+00  0.0000000000000000e+00
5.6000000000000000e+01  0.0000000000000000e+00  0.0000000000000000e+00
5.7000000000000000e+01  0.0000000000000000e+00  0.0000000000000000e+00
5.8000000000000000e+01  0.0000000000000000e+00  0.0000000000000000e+00
5.9000000000000000e+01  0.0000000000000000e+00  0.0000000000000000e+00
6.0000000000000000e+01  0.0000000000000000e+00  0.0000000000000000e+00
6.1000000000000000e+01  0.0000000000000000e+00  0.0000000000000000e+00
6.2000000000000000e+01  0.0000000000000000e+00  0.0000000000000000e+00
6.3000000000000000e+01  0.0000000000000000e+00  0.0000000000000000e+00
6.4000000000000000e+01  0.0000000000000000e+00  0.0000000000000000e+00
6.5000000000000000e+01  0.0000000000000000e+00  0.0000000000000000e+00
6.6000000000000000e+01  0.0000000000000000e+00  0.0000000000000000e+00
6.7000000000000000e+01  0.0000000000000000e+00  0.0000000000000000e+00
6.8000000000000000e+01  0.0000000000000000e+00  0.0000000000000000e+00
6.9000000000000000e+01  0.0000000000000000e+00  0.0000000000000000e+00
7.0000000000000000e+01  0.0000000000000000e+00  0.0000000000000000e+00
7.1000000000000000e+01  0.0000000000000000e+00  0.0000000000000000e+00
7.2000000000000000e+01  0.0000000000000000e+00  0.0000000000000000e+00
7.3000000000000000e+01  0.0000000000000000e+00  0.0000000000000000e+00
7.4000000000000000e+01  0.0000000000000000e+00  0.0000000000000000e+00
7.5000000000000000e+01  0.0000000000000000e+00  0.0000000000000000e+00
7.6000000000000000e+01  0.0000000000000000e+00  0.0000000000000000e+00
7.7000000000000000e+01  0.0000000000000000e+00  0.0000000000000000e+00
7.8000000000000000e+01  0.0000000000000000e+00  0.0000000000000000e+00
7.9000000000000000e+01  0.0000000000000000e+00  0.0000000000000000e+00
8.0000000000000000e+01  0.0000000000000000e+00  0.0000000000000000e+00
8.1000000000000000e+01  0.0000000000000000e+00  0.0000000000000000e+00
8.2000000000000000e+01  0.0000000000000000e+00  0.0000000000000000e+00
8.3000000000000000e+01  0.0000000000000000e+00  0.0000000000000000e+00
8.4000000000000000e+01  0.0000000000000000e+00  0.0000000000000000e+00
8.5000000000000000e+01  0.0000000000000000e+00  0.0000000000000000e+00
8.6000000000000000e+01  0.0000000000000000e+00  0.0000000000000000e+00
8.7000000000000000e+01  0.0000000000000000e+00  0.0000000000000000e+00
8.8000000000000000e+01  0.0000000000000000e+00  0.0000000000000000e+00
8.9000000000000000e+01  0.0000000000000000e+00  0.0000000000000000e+00
9.0000000000000000e+01  0.0000000000000000e+00  0.0000000000000000e+00
9.1000000000000000e+01  0.0000000000000000e+00  0.0000000000000000e+00
9.2000000000000000e+01  0.0000000000000000e+00  0.0000000000000000e+00
9.3000000000000000e+01  0.0000000000000000e+00  0.0000000000000000e+00
9.4000000000000000e+01  0.0000000000000000e+00  0.0000000000000000e+00
9.5000000000000000e+01  0.0000000000000000e+00  0.0000000000000000e+00
9.6000000000000000e+01  0.0000000000000000e+00  0.0000000000000000e+00
9.7000000000000000e+01  0.0000000000000000e+00  0.0000000000000000e+00
9.8000000000000000e+01  0.0000000000000000e+00  0.0000000000000000e+00
9.9000000000000000e+01  0.0000000000000000e+00  0.0000000000000000e+00

POINT_DATA 100

VECTORS velocity float
1.0076791339748956e-02  0.0000000000000000e+00  0.0000000000000000e+00
1.0076792205764712e-02  0.0000000000000000e+00  0.0000000000000000e+00
1.0076793054079975e-02  0.0000000000000000e+00  0.0000000000000000e+00
1.0076793894552814e-02  0.0000000000000000e+00  0.0000000000000000e+00
1.0076794731374895e-02  0.0000000000000000e+00  0.0000000000000000e+00
1.0076795566330742e-02  0.0000000000000000e+00  0.0000000000000000e+00
1.0076796400180445e-02  0.0000000000000000e+00  0.0000000000000000e+00
1.0076797233248570e-02  0.0000000000000000e+00  0.0000000000000000e+00
1.0076798065673832e-02  0.0000000000000000e+00  0.0000000000000000e+00
1.0076798897515388e-02  0.0000000000000000e+00  0.0000000000000000e+00
1.0076799728797811e-02  0.0000000000000000e+00  0.0000000000000000e+00
1.0076800559532162e-02  0.0000000000000000e+00  0.0000000000000000e+00
1.0076801389723297e-02  0.0000000000000000e+00  0.0000000000000000e+00
1.0076802219372922e-02  0.0000000000000000e+00  0.0000000000000000e+00
1.0076803048482045e-02  0.0000000000000000e+00  0.0000000000000000e+00
1.0076803877050733e-02  0.0000000000000000e+00  0.0000000000000000e+00
1.0076804705079431e-02  0.0000000000000000e+00  0.0000000000000000e+00
1.0076805532567899e-02  0.0000000000000000e+00  0.0000000000000000e+00
1.0076806359516105e-02  0.0000000000000000e+00  0.0000000000000000e+00
1.0076807185924540e-02  0.0000000000000000e+00  0.0000000000000000e+00
1.0076808011792981e-02  0.0000000000000000e+00  0.0000000000000000e+00
1.0076808837121587e-02  0.0000000000000000e+00  0.0000000000000000e+00
1.0076809661910076e-02  0.0000000000000000e+00  0.0000000000000000e+00
1.0076810486158464e-02  0.0000000000000000e+00  0.0000000000000000e+00
1.0076811309867182e-02  0.0000000000000000e+00  0.0000000000000000e+00
1.0076812133036361e-02  0.0000000000000000e+00  0.0000000000000000e+00
1.0076812955665591e-02  0.0000000000000000e+00  0.0000000000000000e+00
1.0076813777754698e-02  0.0000000000000000e+00  0.0000000000000000e+00
1.0076814599304524e-02  0.0000000000000000e+00  0.0000000000000000e+00
1.0076815420314605e-02  0.0000000000000000e+00  0.0000000000000000e+00
1.0076816240784811e-02  0.0000000000000000e+00  0.0000000000000000e+00
1.0076817060715691e-02  0.0000000000000000e+00  0.0000000000000000e+00
1.0076817880107350e-02  0.0000000000000000e+00  0.0000000000000000e+00
1.0076818698959111e-02  0.0000000000000000e+00  0.0000000000000000e+00
1.0076819517270940e-02  0.0000000000000000e+00  0.0000000000000000e+00
1.0076820335043406e-02  0.0000000000000000e+00  0.0000000000000000e+00
1.0076821152276035e-02  0.0000000000000000e+00  0.0000000000000000e+00
1.0076821968969063e-02  0.0000000000000000e+00  0.0000000000000000e+00
1.0076822785122402e-02  0.0000000000000000e+00  0.0000000000000000e+00
1.0076823600736022e-02  0.0000000000000000e+00  0.0000000000000000e+00
1.0076824415810044e-02  0.0000000000000000e+00  0.0000000000000000e+00
1.0076825230344998e-02  0.0000000000000000e+00  0.0000000000000000e+00
1.0076826044340731e-02  0.0000000000000000e+00  0.0000000000000000e+00
1.0076826857796629e-02  0.0000000000000000e+00  0.0000000000000000e+00
1.0076827670713533e-02  0.0000000000000000e+00  0.0000000000000000e+00
1.0076828483091391e-02  0.0000000000000000e+00  0.0000000000000000e+00
1.0076829294929651e-02  0.0000000000000000e+00  0.0000000000000000e+00
1.0076830106228370e-02  0.0000000000000000e+00  0.0000000000000000e+00
1.0076830916988131e-02  0.0000000000000000e+00  0.0000000000000000e+00
1.0076831727208987e-02  0.0000000000000000e+00  0.0000000000000000e+00
1.0076832536890032e-02  0.0000000000000000e+00  0.0000000000000000e+00
1.0076833346032009e-02  0.0000000000000000e+00  0.0000000000000000e+00
1.0076834154635063e-02  0.0000000000000000e+00  0.0000000000000000e+00
1.0076834962698728e-02  0.0000000000000000e+00  0.0000000000000000e+00
1.0076835770223710e-02  0.0000000000000000e+00  0.0000000000000000e+00
1.0076836577210089e-02  0.0000000000000000e+00  0.0000000000000000e+00
1.0076837383657620e-02  0.0000000000000000e+00  0.0000000000000000e+00
1.0076838189566119e-02  0.0000000000000000e+00  0.0000000000000000e+00
1.0076838994935212e-02  0.0000000000000000e+00  0.0000000000000000e+00
1.0076839799765137e-02  0.0000000000000000e+00  0.0000000000000000e+00
1.0076840604056687e-02  0.0000000000000000e+00  0.0000000000000000e+00
1.0076841407808609e-02  0.0000000000000000e+00  0.0000000000000000e+00
1.0076842211021595e-02  0.0000000000000000e+00  0.0000000000000000e+00
1.0076843013696499e-02  0.0000000000000000e+00  0.0000000000000000e+00
1.0076843815832164e-02  0.0000000000000000e+00  0.0000000000000000e+00
1.0076844617429087e-02  0.0000000000000000e+00  0.0000000000000000e+00
1.0076845418487142e-02  0.0000000000000000e+00  0.0000000000000000e+00
1.0076846219006131e-02  0.0000000000000000e+00  0.0000000000000000e+00
1.0076847018986562e-02  0.0000000000000000e+00  0.0000000000000000e+00
1.0076847818428825e-02  0.0000000000000000e+00  0.0000000000000000e+00
1.0076848617332291e-02  0.0000000000000000e+00  0.0000000000000000e+00
1.0076849415697010e-02  0.0000000000000000e+00  0.0000000000000000e+00
1.0076850213523243e-02  0.0000000000000000e+00  0.0000000000000000e+00
1.0076851010810836e-02  0.0000000000000000e+00  0.0000000000000000e+00
1.0076851807559628e-02  0.0000000000000000e+00  0.0000000000000000e+00
1.0076852603769714e-02  0.0000000000000000e+00  0.0000000000000000e+00
1.0076853399441419e-02  0.0000000000000000e+00  0.0000000000000000e+00
1.0076854194574337e-02  0.0000000000000000e+00  0.0000000000000000e+00
1.0076854989168686e-02  0.0000000000000000e+00  0.0000000000000000e+00
1.0076855783225008e-02  0.0000000000000000e+00  0.0000000000000000e+00
1.0076856576742689e-02  0.0000000000000000e+00  0.0000000000000000e+00
1.0076857369721474e-02  0.0000000000000000e+00  0.0000000000000000e+00
1.0076858162162436e-02  0.0000000000000000e+00  0.0000000000000000e+00
1.0076858954065024e-02  0.0000000000000000e+00  0.0000000000000000e+00
1.0076859745429425e-02  0.0000000000000000e+00  0.0000000000000000e+00
1.0076860536256140e-02  0.0000000000000000e+00  0.0000000000000000e+00
1.0076861326543878e-02  0.0000000000000000e+00  0.0000000000000000e+00
1.0076862116293104e-02  0.0000000000000000e+00  0.0000000000000000e+00
1.0076862905504452e-02  0.0000000000000000e+00  0.0000000000000000e+00
1.0076863694177396e-02  0.0000000000000000e+00  0.0000000000000000e+00
1.0076864482312698e-02  0.0000000000000000e+00  0.0000000000000000e+00
1.0076865269909684e-02  0.0000000000000000e+00  0.0000000000000000e+00
1.0076866056968670e-02  0.0000000000000000e+00  0.0000000000000000e+00
1.0076866843488829e-02  0.0000000000000000e+00  0.0000000000000000e+00
1.0076867629474438e-02  0.0000000000000000e+00  0.0000000000000000e+00
1.0076868414915112e-02  0.0000000000000000e+00  0.0000000000000000e+00
1.0076869199834073e-02  0.0000000000000000e+00  0.0000000000000000e+00
1.0076869984175596e-02  0.0000000000000000e+00  0.0000000000000000e+00
1.0076870768073341e-02  0.0000000000000000e+00  0.0000000000000000e+00
1.0076871551208896e-02  0.0000000000000000e+00  0.0000000000000000e+00

SCALARS pressure float
LOOKUP_TABLE default
7.9578817982279868e-05
7.9551766384841234e-05
7.9524714787402600e-05
7.9497662945189049e-05
7.9470610753933982e-05
7.9443558169113162e-05
7.9416505171624733e-05
7.9389451753252965e-05
7.9362397910382517e-05
7.9335343641361554e-05
7.9308288945391790e-05
7.9281233822050835e-05
7.9254178271063612e-05
7.9227122292177055e-05
7.9200065885230012e-05
7.9173009050022839e-05
7.9145951786401255e-05
7.9118894094184469e-05
7.9091835973206843e-05
7.9064777423318525e-05
7.9037718444325024e-05
7.9010659036070417e-05
7.8983599198388212e-05
7.8956538931111619e-05
7.8929478234093171e-05
7.8902417107138472e-05
7.8875355550088089e-05
7.8848293562778227e-05
7.8821231145071097e-05
7.8794168296762056e-05
7.8767105017698341e-05
7.8740041307737933e-05
7.8712977166686042e-05
7.8685912594380012e-05
7.8658847590671631e-05
7.8631782155420916e-05
7.8604716288430446e-05
7.8577649989563058e-05
7.8550583258658451e-05
7.8523516095547476e-05
7.8496448500089906e-05
7.8469380472109639e-05
7.8442312011446863e-05
7.8415243117921479e-05
7.8388173791423197e-05
7.8361104031753770e-05
7.8334033838751556e-05
7.8306963212284529e-05
7.8279892152196954e-05
7.8252820658311918e-05
7.8225748730463836e-05
7.8198676368530464e-05
7.8171603572350066e-05
7.8144530341729058e-05
7.8117456676561758e-05
7.8090382576649254e-05
7.8063308041838105e-05
7.8036233071975737e-05
7.8009157666919632e-05
7.7982081826521985e-05
7.7955005550638828e-05
7.7927928839075845e-05
7.7900851691719086e-05
7.7873774108429354e-05
7.7846696088978165e-05
7.7819617633281645e-05
7.7792538741169070e-05
7.7765459412480997e-05
7.7738379647092159e-05
7.7711299444824895e-05
7.7684218805518771e-05
7.7657137729031663e-05
7.7630056215236378e-05
7.7602974263947194e-05
7.7575891875043181e-05
7.7548809048361776e-05
7.7521725783775018e-05
7.7494642081101978e-05
7.7467557940224684e-05
7.7440473360983810e-05
7.7413388343216402e-05
7.7386302886781039e-05
7.7359216991566645e-05
7.7332130657372560e-05
7.7305043884066200e-05
7.7277956671514169e-05
7.7250869019527421e-05
7.7223780928011035e-05
7.7196692396824755e-05
7.7169603425773290e-05
7.7142514014748979e-05
7.7115424163577535e-05
7.7088333872117674e-05
7.7061243140249118e-05
7.7034151967806484e-05
7.7007060354589114e-05
7.6979968300570906e-05
7.6952875805387784e-05
7.6925782869433600e-05
7.6898689491256483e-05

SCALARS diameter float
LOOKUP_TABLE default
1.0000821436679463e+00
1.0000821176180807e+00
1.0000820915682156e+00
1.0000820655181206e+00
1.0000820394676935e+00
1.0000820134168951e+00
1.0000819873657074e+00
1.0000819613141205e+00
1.0000819352621322e+00
1.0000819092097415e+00
1.0000818831569465e+00
1.0000818571037473e+00
1.0000818310501443e+00
1.0000818049961362e+00
1.0000817789417220e+00
1.0000817528869042e+00
1.0000817268316804e+00
1.0000817007760521e+00
1.0000816747200176e+00
1.0000816486635760e+00
1.0000816226067295e+00
1.0000815965494771e+00
1.0000815704918173e+00
1.0000815444337527e+00
1.0000815183752794e+00
1.0000814923163994e+00
1.0000814662571140e+00
1.0000814401974201e+00
1.0000814141373193e+00
1.0000813880768105e+00
1.0000813620158941e+00
1.0000813359545702e+00
1.0000813098928374e+00
1.0000812838306969e+00
1.0000812577681484e+00
1.0000812317051908e+00
1.0000812056418247e+00
1.0000811795780504e+00
1.0000811535138654e+00
1.0000811274492722e+00
1.0000811013842701e+00
1.0000810753188576e+00
1.0000810492530365e+00
1.0000810231868051e+00
1.0000809971201632e+00
1.0000809710531118e+00
1.0000809449856507e+00
1.0000809189177777e+00
1.0000808928494958e+00
1.0000808667808019e+00
1.0000808407116977e+00
1.0000808146421827e+00
1.0000807885722560e+00
1.0000807625019186e+00
1.0000807364311703e+00
1.0000807103600093e+00
1.0000806842884369e+00
1.0000806582164530e+00
1.0000806321440567e+00
1.0000806060712479e+00
1.0000805799980281e+00
1.0000805539243944e+00
1.0000805278503497e+00
1.0000805017758911e+00
1.0000804757010195e+00
1.0000804496257358e+00
1.0000804235500391e+00
1.0000803974739290e+00
1.0000803713974054e+00
1.0000803453204681e+00
1.0000803192431178e+00
1.0000802931653534e+00
1.0000802670871753e+00
1.0000802410085825e+00
1.0000802149295760e+00
1.0000801888501565e+00
1.0000801627703217e+00
1.0000801366900722e+00
1.0000801106094084e+00
1.0000800845283302e+00
1.0000800584468363e+00
1.0000800323649282e+00
1.0000800062826043e+00
1.0000799801998668e+00
1.0000799541167127e+00
1.0000799280331436e+00
1.0000799019491591e+00
1.0000798758647593e+00
1.0000798497799430e+00
1.0000798236947110e+00
1.0000797976090623e+00
1.0000797715229994e+00
1.0000797454365189e+00
1.0000797193496229e+00
1.0000796932623099e+00
1.0000796671745804e+00
1.0000796410864345e+00
1.0000796149978719e+00
1.0000795889088931e+00
1.0000795628194954e+00

