# vtk DataFile Version 2.0

ASCII

DATASET UNSTRUCTURED_GRID

POINTS 100 float 

0.0000000000000000e+00  0.0000000000000000e+00  0.0000000000000000e+00
1.0000000000000000e+00  0.0000000000000000e+00  0.0000000000000000e+00
2.0000000000000000e+00  0.0000000000000000e+00  0.0000000000000000e+00
3.0000000000000000e+00  0.0000000000000000e+00  0.0000000000000000e+00
4.0000000000000000e+00  0.0000000000000000e+00  0.0000000000000000e+00
5.0000000000000000e+00  0.0000000000000000e+00  0.0000000000000000e+00
6.0000000000000000e+00  0.0000000000000000e+00  0.0000000000000000e+00
7.0000000000000000e+00  0.0000000000000000e+00  0.0000000000000000e+00
8.0000000000000000e+00  0.0000000000000000e+00  0.0000000000000000e+00
9.0000000000000000e+00  0.0000000000000000e+00  0.0000000000000000e+00
1.0000000000000000e+01  0.0000000000000000e+00  0.0000000000000000e+00
1.1000000000000000e+01  0.0000000000000000e+00  0.0000000000000000e+00
1.2000000000000000e+01  0.0000000000000000e+00  0.0000000000000000e+00
1.3000000000000000e+01  0.0000000000000000e+00  0.0000000000000000e+00
1.4000000000000000e+01  0.0000000000000000e+00  0.0000000000000000e+00
1.5000000000000000e+01  0.0000000000000000e+00  0.0000000000000000e+00
1.6000000000000000e+01  0.0000000000000000e+00  0.0000000000000000e+00
1.7000000000000000e+01  0.0000000000000000e+00  0.0000000000000000e+00
1.8000000000000000e+01  0.0000000000000000e+00  0.0000000000000000e+00
1.9000000000000000e+01  0.0000000000000000e+00  0.0000000000000000e+00
2.0000000000000000e+01  0.0000000000000000e+00  0.0000000000000000e+00
2.1000000000000000e+01  0.0000000000000000e+00  0.0000000000000000e+00
2.2000000000000000e+01  0.0000000000000000e+00  0.0000000000000000e+00
2.3000000000000000e+01  0.0000000000000000e+00  0.0000000000000000e+00
2.4000000000000000e+01  0.0000000000000000e+00  0.0000000000000000e+00
2.5000000000000000e+01  0.0000000000000000e+00  0.0000000000000000e+00
2.6000000000000000e+01  0.0000000000000000e+00  0.0000000000000000e+00
2.7000000000000000e+01  0.0000000000000000e+00  0.0000000000000000e+00
2.8000000000000000e+01  0.0000000000000000e+00  0.0000000000000000e+00
2.9000000000000000e+01  0.0000000000000000e+00  0.0000000000000000e+00
3.0000000000000000e+01  0.0000000000000000e+00  0.0000000000000000e+00
3.1000000000000000e+01  0.0000000000000000e+00  0.0000000000000000e+00
3.2000000000000000e+01  0.0000000000000000e+00  0.0000000000000000e+00
3.3000000000000000e+01  0.0000000000000000e+00  0.0000000000000000e+00
3.4000000000000000e+01  0.0000000000000000e+00  0.0000000000000000e+00
3.5000000000000000e+01  0.0000000000000000e+00  0.0000000000000000e+00
3.6000000000000000e+01  0.0000000000000000e+00  0.0000000000000000e+00
3.7000000000000000e+01  0.0000000000000000e+00  0.0000000000000000e+00
3.8000000000000000e+01  0.0000000000000000e+00  0.0000000000000000e+00
3.9000000000000000e+01  0.0000000000000000e+00  0.0000000000000000e+00
4.0000000000000000e+01  0.0000000000000000e+00  0.0000000000000000e+00
4.1000000000000000e+01  0.0000000000000000e+00  0.0000000000000000e+00
4.2000000000000000e+01  0.0000000000000000e+00  0.0000000000000000e+00
4.3000000000000000e+01  0.0000000000000000e+00  0.0000000000000000e+00
4.4000000000000000e+01  0.0000000000000000e+00  0.0000000000000000e+00
4.5000000000000000e+01  0.0000000000000000e+00  0.0000000000000000e+00
4.6000000000000000e+01  0.0000000000000000e+00  0.0000000000000000e+00
4.7000000000000000e+01  0.0000000000000000e+00  0.0000000000000000e+00
4.8000000000000000e+01  0.0000000000000000e+00  0.0000000000000000e+00
4.9000000000000000e+01  0.0000000000000000e+00  0.0000000000000000e+00
5.0000000000000000e+01  0.0000000000000000e+00  0.0000000000000000e+00
5.1000000000000000e+01  0.0000000000000000e+00  0.0000000000000000e+00
5.2000000000000000e+01  0.0000000000000000e+00  0.0000000000000000e+00
5.3000000000000000e+01  0.0000000000000000e+00  0.0000000000000000e+00
5.4000000000000000e+01  0.0000000000000000e+00  0.0000000000000000e+00
5.5000000000000000e+01  0.0000000000000000e+00  0.0000000000000000e+00
5.6000000000000000e+01  0.0000000000000000e+00  0.0000000000000000e+00
5.7000000000000000e+01  0.0000000000000000e+00  0.0000000000000000e+00
5.8000000000000000e+01  0.0000000000000000e+00  0.0000000000000000e+00
5.9000000000000000e+01  0.0000000000000000e+00  0.0000000000000000e+00
6.0000000000000000e+01  0.0000000000000000e+00  0.0000000000000000e+00
6.1000000000000000e+01  0.0000000000000000e+00  0.0000000000000000e+00
6.2000000000000000e+01  0.0000000000000000e+00  0.0000000000000000e+00
6.3000000000000000e+01  0.0000000000000000e+00  0.0000000000000000e+00
6.4000000000000000e+01  0.0000000000000000e+00  0.0000000000000000e+00
6.5000000000000000e+01  0.0000000000000000e+00  0.0000000000000000e+00
6.6000000000000000e+01  0.0000000000000000e+00  0.0000000000000000e+00
6.7000000000000000e+01  0.0000000000000000e+00  0.0000000000000000e+00
6.8000000000000000e+01  0.0000000000000000e+00  0.0000000000000000e+00
6.9000000000000000e+01  0.0000000000000000e+00  0.0000000000000000e+00
7.0000000000000000e+01  0.0000000000000000e+00  0.0000000000000000e+00
7.1000000000000000e+01  0.0000000000000000e+00  0.0000000000000000e+00
7.2000000000000000e+01  0.0000000000000000e+00  0.0000000000000000e+00
7.3000000000000000e+01  0.0000000000000000e+00  0.0000000000000000e+00
7.4000000000000000e+01  0.0000000000000000e+00  0.0000000000000000e+00
7.5000000000000000e+01  0.0000000000000000e+00  0.0000000000000000e+00
7.6000000000000000e+01  0.0000000000000000e+00  0.0000000000000000e+00
7.7000000000000000e+01  0.0000000000000000e+00  0.0000000000000000e+00
7.8000000000000000e+01  0.0000000000000000e+00  0.0000000000000000e+00
7.9000000000000000e+01  0.0000000000000000e+00  0.0000000000000000e+00
8.0000000000000000e+01  0.0000000000000000e+00  0.0000000000000000e+00
8.1000000000000000e+01  0.0000000000000000e+00  0.0000000000000000e+00
8.2000000000000000e+01  0.0000000000000000e+00  0.0000000000000000e+00
8.3000000000000000e+01  0.0000000000000000e+00  0.0000000000000000e+00
8.4000000000000000e+01  0.0000000000000000e+00  0.0000000000000000e+00
8.5000000000000000e+01  0.0000000000000000e+00  0.0000000000000000e+00
8.6000000000000000e+01  0.0000000000000000e+00  0.0000000000000000e+00
8.7000000000000000e+01  0.0000000000000000e+00  0.0000000000000000e+00
8.8000000000000000e+01  0.0000000000000000e+00  0.0000000000000000e+00
8.9000000000000000e+01  0.0000000000000000e+00  0.0000000000000000e+00
9.0000000000000000e+01  0.0000000000000000e+00  0.0000000000000000e+00
9.1000000000000000e+01  0.0000000000000000e+00  0.0000000000000000e+00
9.2000000000000000e+01  0.0000000000000000e+00  0.0000000000000000e+00
9.3000000000000000e+01  0.0000000000000000e+00  0.0000000000000000e+00
9.4000000000000000e+01  0.0000000000000000e+00  0.0000000000000000e+00
9.5000000000000000e+01  0.0000000000000000e+00  0.0000000000000000e+00
9.6000000000000000e+01  0.0000000000000000e+00  0.0000000000000000e+00
9.7000000000000000e+01  0.0000000000000000e+00  0.0000000000000000e+00
9.8000000000000000e+01  0.0000000000000000e+00  0.0000000000000000e+00
9.9000000000000000e+01  0.0000000000000000e+00  0.0000000000000000e+00

POINT_DATA 100

VECTORS velocity float
1.0046860474023520e-02  0.0000000000000000e+00  0.0000000000000000e+00
1.0046860021180992e-02  0.0000000000000000e+00  0.0000000000000000e+00
1.0046859594208098e-02  0.0000000000000000e+00  0.0000000000000000e+00
1.0046859178437216e-02  0.0000000000000000e+00  0.0000000000000000e+00
1.0046858767717539e-02  0.0000000000000000e+00  0.0000000000000000e+00
1.0046858359470983e-02  0.0000000000000000e+00  0.0000000000000000e+00
1.0046857952617436e-02  0.0000000000000000e+00  0.0000000000000000e+00
1.0046857546704598e-02  0.0000000000000000e+00  0.0000000000000000e+00
1.0046857141543157e-02  0.0000000000000000e+00  0.0000000000000000e+00
1.0046856737053907e-02  0.0000000000000000e+00  0.0000000000000000e+00
1.0046856333203740e-02  0.0000000000000000e+00  0.0000000000000000e+00
1.0046855929978811e-02  0.0000000000000000e+00  0.0000000000000000e+00
1.0046855527373348e-02  0.0000000000000000e+00  0.0000000000000000e+00
1.0046855125384946e-02  0.0000000000000000e+00  0.0000000000000000e+00
1.0046854724012611e-02  0.0000000000000000e+00  0.0000000000000000e+00
1.0046854323255932e-02  0.0000000000000000e+00  0.0000000000000000e+00
1.0046853923114735e-02  0.0000000000000000e+00  0.0000000000000000e+00
1.0046853523588970e-02  0.0000000000000000e+00  0.0000000000000000e+00
1.0046853124678618e-02  0.0000000000000000e+00  0.0000000000000000e+00
1.0046852726383681e-02  0.0000000000000000e+00  0.0000000000000000e+00
1.0046852328704175e-02  0.0000000000000000e+00  0.0000000000000000e+00
1.0046851931640106e-02  0.0000000000000000e+00  0.0000000000000000e+00
1.0046851535191479e-02  0.0000000000000000e+00  0.0000000000000000e+00
1.0046851139358303e-02  0.0000000000000000e+00  0.0000000000000000e+00
1.0046850744140601e-02  0.0000000000000000e+00  0.0000000000000000e+00
1.0046850349538365e-02  0.0000000000000000e+00  0.0000000000000000e+00
1.0046849955551627e-02  0.0000000000000000e+00  0.0000000000000000e+00
1.0046849562180401e-02  0.0000000000000000e+00  0.0000000000000000e+00
1.0046849169424688e-02  0.0000000000000000e+00  0.0000000000000000e+00
1.0046848777284496e-02  0.0000000000000000e+00  0.0000000000000000e+00
1.0046848385759847e-02  0.0000000000000000e+00  0.0000000000000000e+00
1.0046847994850753e-02  0.0000000000000000e+00  0.0000000000000000e+00
1.0046847604557228e-02  0.0000000000000000e+00  0.0000000000000000e+00
1.0046847214879282e-02  0.0000000000000000e+00  0.0000000000000000e+00
1.0046846825816936e-02  0.0000000000000000e+00  0.0000000000000000e+00
1.0046846437370196e-02  0.0000000000000000e+00  0.0000000000000000e+00
1.0046846049539081e-02  0.0000000000000000e+00  0.0000000000000000e+00
1.0046845662323596e-02  0.0000000000000000e+00  0.0000000000000000e+00
1.0046845275723758e-02  0.0000000000000000e+00  0.0000000000000000e+00
1.0046844889739580e-02  0.0000000000000000e+00  0.0000000000000000e+00
1.0046844504371067e-02  0.0000000000000000e+00  0.0000000000000000e+00
1.0046844119618229e-02  0.0000000000000000e+00  0.0000000000000000e+00
1.0046843735481089e-02  0.0000000000000000e+00  0.0000000000000000e+00
1.0046843351959654e-02  0.0000000000000000e+00  0.0000000000000000e+00
1.0046842969053938e-02  0.0000000000000000e+00  0.0000000000000000e+00
1.0046842586763957e-02  0.0000000000000000e+00  0.0000000000000000e+00
1.0046842205089718e-02  0.0000000000000000e+00  0.0000000000000000e+00
1.0046841824031238e-02  0.0000000000000000e+00  0.0000000000000000e+00
1.0046841443588526e-02  0.0000000000000000e+00  0.0000000000000000e+00
1.0046841063761592e-02  0.0000000000000000e+00  0.0000000000000000e+00
1.0046840684550458e-02  0.0000000000000000e+00  0.0000000000000000e+00
1.0046840305955132e-02  0.0000000000000000e+00  0.0000000000000000e+00
1.0046839927975627e-02  0.0000000000000000e+00  0.0000000000000000e+00
1.0046839550611950e-02  0.0000000000000000e+00  0.0000000000000000e+00
1.0046839173864119e-02  0.0000000000000000e+00  0.0000000000000000e+00
1.0046838797732143e-02  0.0000000000000000e+00  0.0000000000000000e+00
1.0046838422216034e-02  0.0000000000000000e+00  0.0000000000000000e+00
1.0046838047315806e-02  0.0000000000000000e+00  0.0000000000000000e+00
1.0046837673031469e-02  0.0000000000000000e+00  0.0000000000000000e+00
1.0046837299363041e-02  0.0000000000000000e+00  0.0000000000000000e+00
1.0046836926310523e-02  0.0000000000000000e+00  0.0000000000000000e+00
1.0046836553873945e-02  0.0000000000000000e+00  0.0000000000000000e+00
1.0046836182053322e-02  0.0000000000000000e+00  0.0000000000000000e+00
1.0046835810848658e-02  0.0000000000000000e+00  0.0000000000000000e+00
1.0046835440259966e-02  0.0000000000000000e+00  0.0000000000000000e+00
1.0046835070287249e-02  0.0000000000000000e+00  0.0000000000000000e+00
1.0046834700930521e-02  0.0000000000000000e+00  0.0000000000000000e+00
1.0046834332189801e-02  0.0000000000000000e+00  0.0000000000000000e+00
1.0046833964065102e-02  0.0000000000000000e+00  0.0000000000000000e+00
1.0046833596556434e-02  0.0000000000000000e+00  0.0000000000000000e+00
1.0046833229663817e-02  0.0000000000000000e+00  0.0000000000000000e+00
1.0046832863387261e-02  0.0000000000000000e+00  0.0000000000000000e+00
1.0046832497726782e-02  0.0000000000000000e+00  0.0000000000000000e+00
1.0046832132682381e-02  0.0000000000000000e+00  0.0000000000000000e+00
1.0046831768254067e-02  0.0000000000000000e+00  0.0000000000000000e+00
1.0046831404441858e-02  0.0000000000000000e+00  0.0000000000000000e+00
1.0046831041245768e-02  0.0000000000000000e+00  0.0000000000000000e+00
1.0046830678665809e-02  0.0000000000000000e+00  0.0000000000000000e+00
1.0046830316701992e-02  0.0000000000000000e+00  0.0000000000000000e+00
1.0046829955354332e-02  0.0000000000000000e+00  0.0000000000000000e+00
1.0046829594622842e-02  0.0000000000000000e+00  0.0000000000000000e+00
1.0046829234507540e-02  0.0000000000000000e+00  0.0000000000000000e+00
1.0046828875008443e-02  0.0000000000000000e+00  0.0000000000000000e+00
1.0046828516125558e-02  0.0000000000000000e+00  0.0000000000000000e+00
1.0046828157858890e-02  0.0000000000000000e+00  0.0000000000000000e+00
1.0046827800208448e-02  0.0000000000000000e+00  0.0000000000000000e+00
1.0046827443174255e-02  0.0000000000000000e+00  0.0000000000000000e+00
1.0046827086756329e-02  0.0000000000000000e+00  0.0000000000000000e+00
1.0046826730954656e-02  0.0000000000000000e+00  0.0000000000000000e+00
1.0046826375769298e-02  0.0000000000000000e+00  0.0000000000000000e+00
1.0046826021200148e-02  0.0000000000000000e+00  0.0000000000000000e+00
1.0046825667247522e-02  0.0000000000000000e+00  0.0000000000000000e+00
1.0046825313910693e-02  0.0000000000000000e+00  0.0000000000000000e+00
1.0046824961191457e-02  0.0000000000000000e+00  0.0000000000000000e+00
1.0046824609085516e-02  0.0000000000000000e+00  0.0000000000000000e+00
1.0046824257603337e-02  0.0000000000000000e+00  0.0000000000000000e+00
1.0046823906719571e-02  0.0000000000000000e+00  0.0000000000000000e+00
1.0046823556495688e-02  0.0000000000000000e+00  0.0000000000000000e+00
1.0046823206782881e-02  0.0000000000000000e+00  0.0000000000000000e+00
1.0046822857941340e-02  0.0000000000000000e+00  0.0000000000000000e+00

SCALARS pressure float
LOOKUP_TABLE default
4.3679120703195980e-05
4.3710522381946246e-05
4.3741924060696512e-05
4.3773326097772723e-05
4.3804728643358536e-05
4.3836131760365915e-05
4.3867535475132183e-05
4.3898939798673357e-05
4.3930344735590275e-05
4.3961750287798946e-05
4.3993156456092152e-05
4.4024563240793067e-05
4.4055970642028739e-05
4.4087378659843762e-05
4.4118787294248776e-05
4.4150196545239891e-05
4.4181606412807287e-05
4.4213016896938755e-05
4.4244427997621080e-05
4.4275839714840602e-05
4.4307252048583361e-05
4.4338664998835723e-05
4.4370078565583757e-05
4.4401492748813585e-05
4.4432907548511078e-05
4.4464322964662338e-05
4.4495738997253406e-05
4.4527155646270404e-05
4.4558572911699299e-05
4.4589990793526111e-05
4.4621409291736799e-05
4.4652828406317365e-05
4.4684248137253991e-05
4.4715668484532860e-05
4.4747089448140095e-05
4.4778511028061871e-05
4.4809933224284170e-05
4.4841356036793174e-05
4.4872779465575140e-05
4.4904203510616171e-05
4.4935628171902389e-05
4.4967053449419869e-05
4.4998479343154855e-05
4.5029905853093374e-05
4.5061332979221596e-05
4.5092760721525629e-05
4.5124189079991610e-05
4.5155618054605593e-05
4.5187047645353862e-05
4.5218477852222458e-05
4.5249908675197742e-05
4.5281340114265950e-05
4.5312772169413326e-05
4.5344204840625898e-05
4.5375638127889958e-05
4.5407072031191722e-05
4.5438506550517299e-05
4.5469941685852791e-05
4.5501377437184429e-05
4.5532813804498145e-05
4.5564250787780258e-05
4.5595688387017067e-05
4.5627126602194923e-05
4.5658565433300071e-05
4.5690004880318932e-05
4.5721444943237709e-05
4.5752885622042571e-05
4.5784326916719621e-05
4.5815768827255170e-05
4.5847211353635450e-05
4.5878654495846805e-05
4.5910098253875609e-05
4.5941542627708133e-05
4.5972987617330710e-05
4.6004433222729597e-05
4.6035879443890957e-05
4.6067326280801149e-05
4.6098773733446330e-05
4.6130221801812743e-05
4.6161670485886823e-05
4.6193119785654733e-05
4.6224569701102933e-05
4.6256020232217783e-05
4.6287471378985743e-05
4.6318923141393222e-05
4.6350375519426544e-05
4.6381828513072048e-05
4.6413282122316066e-05
4.6444736347144925e-05
4.6476191187545206e-05
4.6507646643502722e-05
4.6539102715005212e-05
4.6570559402036049e-05
4.6602016704588862e-05
4.6633474622632136e-05
4.6664933156195733e-05
4.6696392305160587e-05
4.6727852069768504e-05
4.6759312449387629e-05
4.6790773445500054e-05

SCALARS diameter float
LOOKUP_TABLE default
1.0000405407763517e+00
1.0000405721192058e+00
1.0000406034620610e+00
1.0000406348052677e+00
1.0000406661489709e+00
1.0000406974932337e+00
1.0000407288380813e+00
1.0000407601835246e+00
1.0000407915295684e+00
1.0000408228762137e+00
1.0000408542234624e+00
1.0000408855713137e+00
1.0000409169197682e+00
1.0000409482688268e+00
1.0000409796184879e+00
1.0000410109687532e+00
1.0000410423196215e+00
1.0000410736710943e+00
1.0000411050231706e+00
1.0000411363758492e+00
1.0000411677291321e+00
1.0000411990830185e+00
1.0000412304375081e+00
1.0000412617926013e+00
1.0000412931482985e+00
1.0000413245046000e+00
1.0000413558615038e+00
1.0000413872190110e+00
1.0000414185771231e+00
1.0000414499358379e+00
1.0000414812951564e+00
1.0000415126550790e+00
1.0000415440156050e+00
1.0000415753767355e+00
1.0000416067384688e+00
1.0000416381008050e+00
1.0000416694637455e+00
1.0000417008272904e+00
1.0000417321914385e+00
1.0000417635561905e+00
1.0000417949215470e+00
1.0000418262875059e+00
1.0000418576540691e+00
1.0000418890212364e+00
1.0000419203890067e+00
1.0000419517573813e+00
1.0000419831263589e+00
1.0000420144959414e+00
1.0000420458661279e+00
1.0000420772369181e+00
1.0000421086083113e+00
1.0000421399803088e+00
1.0000421713529102e+00
1.0000422027261164e+00
1.0000422340999249e+00
1.0000422654743384e+00
1.0000422968493554e+00
1.0000423282249766e+00
1.0000423596012005e+00
1.0000423909780300e+00
1.0000424223554627e+00
1.0000424537334993e+00
1.0000424851121403e+00
1.0000425164913858e+00
1.0000425478712347e+00
1.0000425792516867e+00
1.0000426106327440e+00
1.0000426420144048e+00
1.0000426733966692e+00
1.0000427047795384e+00
1.0000427361630115e+00
1.0000427675470887e+00
1.0000427989317693e+00
1.0000428303170552e+00
1.0000428617029438e+00
1.0000428930894376e+00
1.0000429244765350e+00
1.0000429558642372e+00
1.0000429872525429e+00
1.0000430186414526e+00
1.0000430500309672e+00
1.0000430814210854e+00
1.0000431128118079e+00
1.0000431442031350e+00
1.0000431755950667e+00
1.0000432069876017e+00
1.0000432383807412e+00
1.0000432697744848e+00
1.0000433011688328e+00
1.0000433325637854e+00
1.0000433639593420e+00
1.0000433953555028e+00
1.0000434267522675e+00
1.0000434581496376e+00
1.0000434895476109e+00
1.0000435209461900e+00
1.0000435523453719e+00
1.0000435837451587e+00
1.0000436151455496e+00
1.0000436465465463e+00

