# vtk DataFile Version 2.0

ASCII

DATASET UNSTRUCTURED_GRID

POINTS 161 double 

1.2479480269999997e-03  0.0000000000000000e+00  2.0000000000000004e-01
3.7564605215000004e-03  0.0000000000000000e+00  2.0000000000000001e-01
6.2903334465000014e-03  0.0000000000000000e+00  2.0000000000000004e-01
8.8498231920000007e-03  0.0000000000000000e+00  2.0000000000000004e-01
1.1435188734999997e-02  0.0000000000000000e+00  2.0000000000000001e-01
1.4046691670000002e-02  0.0000000000000000e+00  2.0000000000000001e-01
1.6684596245000002e-02  0.0000000000000000e+00  2.0000000000000001e-01
1.9349169374999996e-02  0.0000000000000000e+00  1.9999999999999998e-01
2.2040680664999996e-02  0.0000000000000000e+00  2.0000000000000001e-01
2.4759402454999999e-02  0.0000000000000000e+00  1.9999999999999998e-01
2.7505609844999997e-02  0.0000000000000000e+00  2.0000000000000001e-01
3.0279580699999999e-02  0.0000000000000000e+00  2.0000000000000001e-01
3.3081595699999994e-02  0.0000000000000000e+00  2.0000000000000001e-01
3.5911938370000000e-02  0.0000000000000000e+00  2.0000000000000004e-01
3.8770895094999994e-02  0.0000000000000000e+00  2.0000000000000004e-01
4.1658755154999998e-02  0.0000000000000000e+00  2.0000000000000001e-01
4.4575810750000000e-02  0.0000000000000000e+00  2.0000000000000004e-01
4.7522357044999998e-02  0.0000000000000000e+00  2.0000000000000001e-01
5.0498692184999992e-02  0.0000000000000000e+00  2.0000000000000001e-01
5.3505117319999997e-02  0.0000000000000000e+00  2.0000000000000001e-01
5.6541936659999993e-02  0.0000000000000000e+00  2.0000000000000004e-01
5.9609457479999996e-02  0.0000000000000000e+00  2.0000000000000001e-01
6.2707990165000005e-02  0.0000000000000000e+00  2.0000000000000001e-01
6.5837848234999982e-02  0.0000000000000000e+00  1.9999999999999998e-01
6.8999348380000006e-02  0.0000000000000000e+00  2.0000000000000001e-01
7.2192810504999996e-02  0.0000000000000000e+00  2.0000000000000004e-01
7.5418557725000002e-02  0.0000000000000000e+00  2.0000000000000004e-01
7.8676916434999994e-02  0.0000000000000000e+00  2.0000000000000004e-01
8.1968216339999997e-02  0.0000000000000000e+00  2.0000000000000001e-01
8.5292790460000004e-02  0.0000000000000000e+00  2.0000000000000001e-01
8.8650975185000008e-02  0.0000000000000000e+00  2.0000000000000001e-01
9.2043110309999981e-02  0.0000000000000000e+00  2.0000000000000001e-01
9.5469539070000012e-02  0.0000000000000000e+00  2.0000000000000004e-01
9.8930608189999977e-02  0.0000000000000000e+00  2.0000000000000004e-01
1.0242666780000000e-01  0.0000000000000000e+00  2.0000000000000004e-01
1.0595807170000000e-01  0.0000000000000000e+00  1.9999999999999998e-01
1.0952517724999998e-01  0.0000000000000000e+00  2.0000000000000001e-01
1.1312834529999997e-01  0.0000000000000000e+00  2.0000000000000001e-01
1.1676794049999999e-01  0.0000000000000000e+00  2.0000000000000001e-01
1.2044433110000000e-01  0.0000000000000000e+00  2.0000000000000001e-01
1.2415788905000000e-01  0.0000000000000000e+00  2.0000000000000001e-01
1.2790899015000001e-01  0.0000000000000000e+00  2.0000000000000004e-01
1.3169801395000000e-01  0.0000000000000000e+00  1.9999999999999998e-01
1.3552534380000000e-01  0.0000000000000000e+00  2.0000000000000004e-01
1.3939136699999999e-01  0.0000000000000000e+00  2.0000000000000001e-01
1.4329647475000001e-01  0.0000000000000000e+00  2.0000000000000004e-01
1.4724106214999999e-01  0.0000000000000000e+00  1.9999999999999998e-01
1.5122552830000000e-01  0.0000000000000000e+00  2.0000000000000001e-01
1.5525027640000000e-01  0.0000000000000000e+00  2.0000000000000001e-01
1.5931571375000000e-01  0.0000000000000000e+00  1.9999999999999998e-01
1.6342225165000002e-01  0.0000000000000000e+00  2.0000000000000004e-01
1.6757030559999997e-01  0.0000000000000000e+00  2.0000000000000001e-01
1.7176029529999998e-01  0.0000000000000000e+00  2.0000000000000004e-01
1.7599264474999998e-01  0.0000000000000000e+00  2.0000000000000004e-01
1.8026778220000000e-01  0.0000000000000000e+00  2.0000000000000001e-01
1.8458614020000003e-01  0.0000000000000000e+00  2.0000000000000004e-01
1.8894815575000001e-01  0.0000000000000000e+00  2.0000000000000001e-01
1.9335427015000003e-01  0.0000000000000000e+00  2.0000000000000001e-01
1.9780492924999996e-01  0.0000000000000000e+00  2.0000000000000001e-01
2.0230058344999999e-01  0.0000000000000000e+00  2.0000000000000001e-01
2.0684168754999999e-01  0.0000000000000000e+00  2.0000000000000001e-01
2.1142870105000000e-01  0.0000000000000000e+00  2.0000000000000001e-01
2.1606208815000000e-01  0.0000000000000000e+00  2.0000000000000001e-01
2.2074231759999996e-01  0.0000000000000000e+00  1.9999999999999998e-01
2.2546986299999996e-01  0.0000000000000000e+00  2.0000000000000001e-01
2.3024520269999998e-01  0.0000000000000000e+00  2.0000000000000004e-01
2.3506881985000003e-01  0.0000000000000000e+00  1.9999999999999998e-01
2.3994120254999998e-01  0.0000000000000000e+00  2.0000000000000001e-01
2.4486284384999998e-01  0.0000000000000000e+00  2.0000000000000001e-01
2.4983424174999996e-01  0.0000000000000000e+00  1.9999999999999998e-01
2.5485589919999996e-01  0.0000000000000000e+00  2.0000000000000004e-01
2.5992832429999996e-01  0.0000000000000000e+00  2.0000000000000004e-01
2.6505203035000002e-01  0.0000000000000000e+00  2.0000000000000001e-01
2.7022753580000008e-01  0.0000000000000000e+00  2.0000000000000004e-01
2.7545536429999989e-01  0.0000000000000000e+00  2.0000000000000001e-01
2.8073604484999998e-01  0.0000000000000000e+00  2.0000000000000001e-01
2.8607011174999997e-01  0.0000000000000000e+00  2.0000000000000001e-01
2.9145810470000000e-01  0.0000000000000000e+00  2.0000000000000001e-01
2.9690056894999994e-01  0.0000000000000000e+00  2.0000000000000004e-01
3.0239805515000001e-01  0.0000000000000000e+00  2.0000000000000001e-01
3.0795111949999998e-01  0.0000000000000000e+00  2.0000000000000001e-01
3.1356032395000000e-01  0.0000000000000000e+00  2.0000000000000001e-01
3.1922623605000000e-01  0.0000000000000000e+00  2.0000000000000004e-01
3.2494942910000002e-01  0.0000000000000000e+00  2.0000000000000001e-01
3.3073048220000001e-01  0.0000000000000000e+00  2.0000000000000001e-01
3.3656998030000002e-01  0.0000000000000000e+00  2.0000000000000001e-01
3.4246851424999997e-01  0.0000000000000000e+00  2.0000000000000001e-01
3.4842668090000001e-01  0.0000000000000000e+00  1.9999999999999998e-01
3.5444508315000001e-01  0.0000000000000000e+00  1.9999999999999998e-01
3.6052432990000000e-01  0.0000000000000000e+00  2.0000000000000001e-01
3.6666503630000002e-01  0.0000000000000000e+00  2.0000000000000004e-01
3.7286782369999993e-01  0.0000000000000000e+00  2.0000000000000001e-01
3.7913331969999992e-01  0.0000000000000000e+00  2.0000000000000001e-01
3.8546215830000002e-01  0.0000000000000000e+00  2.0000000000000001e-01
3.9185497989999996e-01  0.0000000000000000e+00  2.0000000000000001e-01
3.9831243130000005e-01  0.0000000000000000e+00  2.0000000000000001e-01
4.0483516589999996e-01  0.0000000000000000e+00  2.0000000000000001e-01
4.1142384369999990e-01  0.0000000000000000e+00  2.0000000000000004e-01
4.1807913139999997e-01  0.0000000000000000e+00  2.0000000000000001e-01
4.2480170239999998e-01  0.0000000000000000e+00  1.9999999999999998e-01
4.3159223684999998e-01  0.0000000000000000e+00  2.0000000000000001e-01
4.3845142189999992e-01  0.0000000000000000e+00  2.0000000000000001e-01
4.4537995159999993e-01  0.0000000000000000e+00  1.9999999999999998e-01
4.5237852700000009e-01  0.0000000000000000e+00  2.0000000000000004e-01
4.5944785625000001e-01  0.0000000000000000e+00  2.0000000000000004e-01
4.6658865464999993e-01  0.0000000000000000e+00  2.0000000000000001e-01
4.7380164474999992e-01  0.0000000000000000e+00  2.0000000000000001e-01
4.8108755635000006e-01  0.0000000000000000e+00  2.0000000000000004e-01
4.8844712664999984e-01  0.0000000000000000e+00  1.9999999999999998e-01
4.9588110034999994e-01  0.0000000000000000e+00  2.0000000000000001e-01
5.0339022965000002e-01  0.0000000000000000e+00  2.0000000000000001e-01
5.1097527440000001e-01  0.0000000000000000e+00  1.9999999999999998e-01
5.1863700204999996e-01  0.0000000000000000e+00  1.9999999999999998e-01
5.2637618780000006e-01  0.0000000000000000e+00  2.0000000000000004e-01
5.3419361479999994e-01  0.0000000000000000e+00  2.0000000000000001e-01
5.4209007400000009e-01  0.0000000000000000e+00  2.0000000000000001e-01
5.5006636439999990e-01  0.0000000000000000e+00  2.0000000000000004e-01
5.5812329314999998e-01  0.0000000000000000e+00  2.0000000000000004e-01
5.6626167539999994e-01  0.0000000000000000e+00  1.9999999999999998e-01
5.7448233464999998e-01  0.0000000000000000e+00  2.0000000000000004e-01
5.8278610269999997e-01  0.0000000000000000e+00  2.0000000000000001e-01
5.9117381974999994e-01  0.0000000000000000e+00  2.0000000000000001e-01
5.9964633454999994e-01  0.0000000000000000e+00  2.0000000000000001e-01
6.0820450430000006e-01  0.0000000000000000e+00  2.0000000000000004e-01
6.1684919499999991e-01  0.0000000000000000e+00  2.0000000000000004e-01
6.2558128135000002e-01  0.0000000000000000e+00  2.0000000000000001e-01
6.3440164689999989e-01  0.0000000000000000e+00  1.9999999999999998e-01
6.4331118415000010e-01  0.0000000000000000e+00  2.0000000000000004e-01
6.5231079455000007e-01  0.0000000000000000e+00  2.0000000000000004e-01
6.6140138875000010e-01  0.0000000000000000e+00  2.0000000000000001e-01
6.7058388660000001e-01  0.0000000000000000e+00  2.0000000000000004e-01
6.7985921719999987e-01  0.0000000000000000e+00  2.0000000000000001e-01
6.8922831899999992e-01  0.0000000000000000e+00  2.0000000000000001e-01
6.9869214009999991e-01  0.0000000000000000e+00  2.0000000000000001e-01
7.0825163804999991e-01  0.0000000000000000e+00  1.9999999999999998e-01
7.1790778009999989e-01  0.0000000000000000e+00  2.0000000000000004e-01
7.2766154335000000e-01  0.0000000000000000e+00  2.0000000000000004e-01
7.3751391470000005e-01  0.0000000000000000e+00  2.0000000000000001e-01
7.4746589105000005e-01  0.0000000000000000e+00  2.0000000000000004e-01
7.5751847934999994e-01  0.0000000000000000e+00  1.9999999999999998e-01
7.6767269680000005e-01  0.0000000000000000e+00  2.0000000000000004e-01
7.7792957085000014e-01  0.0000000000000000e+00  2.0000000000000004e-01
7.8829013930000025e-01  0.0000000000000000e+00  2.0000000000000007e-01
7.9875545049999996e-01  0.0000000000000000e+00  2.0000000000000001e-01
8.0932656339999998e-01  0.0000000000000000e+00  2.0000000000000004e-01
8.2000454754999996e-01  0.0000000000000000e+00  2.0000000000000001e-01
8.3079048344999984e-01  0.0000000000000000e+00  2.0000000000000001e-01
8.4168546244999998e-01  0.0000000000000000e+00  1.9999999999999998e-01
8.5269058695000000e-01  0.0000000000000000e+00  2.0000000000000001e-01
8.6380697049999988e-01  0.0000000000000000e+00  2.0000000000000001e-01
8.7503573784999988e-01  0.0000000000000000e+00  2.0000000000000001e-01
8.8637802524999998e-01  0.0000000000000000e+00  1.9999999999999998e-01
8.9783498034999998e-01  0.0000000000000000e+00  2.0000000000000001e-01
9.0940776234999998e-01  0.0000000000000000e+00  2.0000000000000001e-01
9.2109754224999985e-01  0.0000000000000000e+00  2.0000000000000004e-01
9.3290550294999997e-01  0.0000000000000000e+00  2.0000000000000001e-01
9.4483283914999994e-01  0.0000000000000000e+00  2.0000000000000001e-01
9.5688075770000003e-01  0.0000000000000000e+00  1.9999999999999998e-01
9.6905047765000007e-01  0.0000000000000000e+00  2.0000000000000001e-01
9.8134323039999993e-01  0.0000000000000000e+00  2.0000000000000001e-01
9.9376025984999994e-01  0.0000000000000000e+00  1.9999999999999998e-01

CELLS 0 0


CELL_TYPES 0


POINT_DATA 161

VECTORS VertexNormals double

0.0000000000000000e+00 0.0000000000000000e+00 0.0000000000000000e+00 
0.0000000000000000e+00 0.0000000000000000e+00 0.0000000000000000e+00 
0.0000000000000000e+00 0.0000000000000000e+00 0.0000000000000000e+00 
0.0000000000000000e+00 0.0000000000000000e+00 0.0000000000000000e+00 
0.0000000000000000e+00 0.0000000000000000e+00 0.0000000000000000e+00 
0.0000000000000000e+00 0.0000000000000000e+00 0.0000000000000000e+00 
0.0000000000000000e+00 0.0000000000000000e+00 0.0000000000000000e+00 
0.0000000000000000e+00 0.0000000000000000e+00 0.0000000000000000e+00 
0.0000000000000000e+00 0.0000000000000000e+00 0.0000000000000000e+00 
0.0000000000000000e+00 0.0000000000000000e+00 0.0000000000000000e+00 
0.0000000000000000e+00 0.0000000000000000e+00 0.0000000000000000e+00 
0.0000000000000000e+00 0.0000000000000000e+00 0.0000000000000000e+00 
0.0000000000000000e+00 0.0000000000000000e+00 0.0000000000000000e+00 
0.0000000000000000e+00 0.0000000000000000e+00 0.0000000000000000e+00 
0.0000000000000000e+00 0.0000000000000000e+00 0.0000000000000000e+00 
0.0000000000000000e+00 0.0000000000000000e+00 0.0000000000000000e+00 
0.0000000000000000e+00 0.0000000000000000e+00 0.0000000000000000e+00 
0.0000000000000000e+00 0.0000000000000000e+00 0.0000000000000000e+00 
0.0000000000000000e+00 0.0000000000000000e+00 0.0000000000000000e+00 
0.0000000000000000e+00 0.0000000000000000e+00 0.0000000000000000e+00 
0.0000000000000000e+00 0.0000000000000000e+00 0.0000000000000000e+00 
0.0000000000000000e+00 0.0000000000000000e+00 0.0000000000000000e+00 
0.0000000000000000e+00 0.0000000000000000e+00 0.0000000000000000e+00 
0.0000000000000000e+00 0.0000000000000000e+00 0.0000000000000000e+00 
0.0000000000000000e+00 0.0000000000000000e+00 0.0000000000000000e+00 
0.0000000000000000e+00 0.0000000000000000e+00 0.0000000000000000e+00 
0.0000000000000000e+00 0.0000000000000000e+00 0.0000000000000000e+00 
0.0000000000000000e+00 0.0000000000000000e+00 0.0000000000000000e+00 
0.0000000000000000e+00 0.0000000000000000e+00 0.0000000000000000e+00 
0.0000000000000000e+00 0.0000000000000000e+00 0.0000000000000000e+00 
0.0000000000000000e+00 0.0000000000000000e+00 0.0000000000000000e+00 
0.0000000000000000e+00 0.0000000000000000e+00 0.0000000000000000e+00 
0.0000000000000000e+00 0.0000000000000000e+00 0.0000000000000000e+00 
0.0000000000000000e+00 0.0000000000000000e+00 0.0000000000000000e+00 
0.0000000000000000e+00 0.0000000000000000e+00 0.0000000000000000e+00 
0.0000000000000000e+00 0.0000000000000000e+00 0.0000000000000000e+00 
0.0000000000000000e+00 0.0000000000000000e+00 0.0000000000000000e+00 
0.0000000000000000e+00 0.0000000000000000e+00 0.0000000000000000e+00 
0.0000000000000000e+00 0.0000000000000000e+00 0.0000000000000000e+00 
0.0000000000000000e+00 0.0000000000000000e+00 0.0000000000000000e+00 
0.0000000000000000e+00 0.0000000000000000e+00 0.0000000000000000e+00 
0.0000000000000000e+00 0.0000000000000000e+00 0.0000000000000000e+00 
0.0000000000000000e+00 0.0000000000000000e+00 0.0000000000000000e+00 
0.0000000000000000e+00 0.0000000000000000e+00 0.0000000000000000e+00 
0.0000000000000000e+00 0.0000000000000000e+00 0.0000000000000000e+00 
0.0000000000000000e+00 0.0000000000000000e+00 0.0000000000000000e+00 
0.0000000000000000e+00 0.0000000000000000e+00 0.0000000000000000e+00 
0.0000000000000000e+00 0.0000000000000000e+00 0.0000000000000000e+00 
0.0000000000000000e+00 0.0000000000000000e+00 0.0000000000000000e+00 
0.0000000000000000e+00 0.0000000000000000e+00 0.0000000000000000e+00 
0.0000000000000000e+00 0.0000000000000000e+00 0.0000000000000000e+00 
0.0000000000000000e+00 0.0000000000000000e+00 0.0000000000000000e+00 
0.0000000000000000e+00 0.0000000000000000e+00 0.0000000000000000e+00 
0.0000000000000000e+00 0.0000000000000000e+00 0.0000000000000000e+00 
0.0000000000000000e+00 0.0000000000000000e+00 0.0000000000000000e+00 
0.0000000000000000e+00 0.0000000000000000e+00 0.0000000000000000e+00 
0.0000000000000000e+00 0.0000000000000000e+00 0.0000000000000000e+00 
0.0000000000000000e+00 0.0000000000000000e+00 0.0000000000000000e+00 
0.0000000000000000e+00 0.0000000000000000e+00 0.0000000000000000e+00 
0.0000000000000000e+00 0.0000000000000000e+00 0.0000000000000000e+00 
0.0000000000000000e+00 0.0000000000000000e+00 0.0000000000000000e+00 
0.0000000000000000e+00 0.0000000000000000e+00 0.0000000000000000e+00 
0.0000000000000000e+00 0.0000000000000000e+00 0.0000000000000000e+00 
0.0000000000000000e+00 0.0000000000000000e+00 0.0000000000000000e+00 
0.0000000000000000e+00 0.0000000000000000e+00 0.0000000000000000e+00 
0.0000000000000000e+00 0.0000000000000000e+00 0.0000000000000000e+00 
0.0000000000000000e+00 0.0000000000000000e+00 0.0000000000000000e+00 
0.0000000000000000e+00 0.0000000000000000e+00 0.0000000000000000e+00 
0.0000000000000000e+00 0.0000000000000000e+00 0.0000000000000000e+00 
0.0000000000000000e+00 0.0000000000000000e+00 0.0000000000000000e+00 
0.0000000000000000e+00 0.0000000000000000e+00 0.0000000000000000e+00 
0.0000000000000000e+00 0.0000000000000000e+00 0.0000000000000000e+00 
0.0000000000000000e+00 0.0000000000000000e+00 0.0000000000000000e+00 
0.0000000000000000e+00 0.0000000000000000e+00 0.0000000000000000e+00 
0.0000000000000000e+00 0.0000000000000000e+00 0.0000000000000000e+00 
0.0000000000000000e+00 0.0000000000000000e+00 0.0000000000000000e+00 
0.0000000000000000e+00 0.0000000000000000e+00 0.0000000000000000e+00 
0.0000000000000000e+00 0.0000000000000000e+00 0.0000000000000000e+00 
0.0000000000000000e+00 0.0000000000000000e+00 0.0000000000000000e+00 
0.0000000000000000e+00 0.0000000000000000e+00 0.0000000000000000e+00 
0.0000000000000000e+00 0.0000000000000000e+00 0.0000000000000000e+00 
0.0000000000000000e+00 0.0000000000000000e+00 0.0000000000000000e+00 
0.0000000000000000e+00 0.0000000000000000e+00 0.0000000000000000e+00 
0.0000000000000000e+00 0.0000000000000000e+00 0.0000000000000000e+00 
0.0000000000000000e+00 0.0000000000000000e+00 0.0000000000000000e+00 
0.0000000000000000e+00 0.0000000000000000e+00 0.0000000000000000e+00 
0.0000000000000000e+00 0.0000000000000000e+00 0.0000000000000000e+00 
0.0000000000000000e+00 0.0000000000000000e+00 0.0000000000000000e+00 
0.0000000000000000e+00 0.0000000000000000e+00 0.0000000000000000e+00 
0.0000000000000000e+00 0.0000000000000000e+00 0.0000000000000000e+00 
0.0000000000000000e+00 0.0000000000000000e+00 0.0000000000000000e+00 
0.0000000000000000e+00 0.0000000000000000e+00 0.0000000000000000e+00 
0.0000000000000000e+00 0.0000000000000000e+00 0.0000000000000000e+00 
0.0000000000000000e+00 0.0000000000000000e+00 0.0000000000000000e+00 
0.0000000000000000e+00 0.0000000000000000e+00 0.0000000000000000e+00 
0.0000000000000000e+00 0.0000000000000000e+00 0.0000000000000000e+00 
0.0000000000000000e+00 0.0000000000000000e+00 0.0000000000000000e+00 
0.0000000000000000e+00 0.0000000000000000e+00 0.0000000000000000e+00 
0.0000000000000000e+00 0.0000000000000000e+00 0.0000000000000000e+00 
0.0000000000000000e+00 0.0000000000000000e+00 0.0000000000000000e+00 
0.0000000000000000e+00 0.0000000000000000e+00 0.0000000000000000e+00 
0.0000000000000000e+00 0.0000000000000000e+00 0.0000000000000000e+00 
0.0000000000000000e+00 0.0000000000000000e+00 0.0000000000000000e+00 
0.0000000000000000e+00 0.0000000000000000e+00 0.0000000000000000e+00 
0.0000000000000000e+00 0.0000000000000000e+00 0.0000000000000000e+00 
0.0000000000000000e+00 0.0000000000000000e+00 0.0000000000000000e+00 
0.0000000000000000e+00 0.0000000000000000e+00 0.0000000000000000e+00 
0.0000000000000000e+00 0.0000000000000000e+00 0.0000000000000000e+00 
0.0000000000000000e+00 0.0000000000000000e+00 0.0000000000000000e+00 
0.0000000000000000e+00 0.0000000000000000e+00 0.0000000000000000e+00 
0.0000000000000000e+00 0.0000000000000000e+00 0.0000000000000000e+00 
0.0000000000000000e+00 0.0000000000000000e+00 0.0000000000000000e+00 
0.0000000000000000e+00 0.0000000000000000e+00 0.0000000000000000e+00 
0.0000000000000000e+00 0.0000000000000000e+00 0.0000000000000000e+00 
0.0000000000000000e+00 0.0000000000000000e+00 0.0000000000000000e+00 
0.0000000000000000e+00 0.0000000000000000e+00 0.0000000000000000e+00 
0.0000000000000000e+00 0.0000000000000000e+00 0.0000000000000000e+00 
0.0000000000000000e+00 0.0000000000000000e+00 0.0000000000000000e+00 
0.0000000000000000e+00 0.0000000000000000e+00 0.0000000000000000e+00 
0.0000000000000000e+00 0.0000000000000000e+00 0.0000000000000000e+00 
0.0000000000000000e+00 0.0000000000000000e+00 0.0000000000000000e+00 
0.0000000000000000e+00 0.0000000000000000e+00 0.0000000000000000e+00 
0.0000000000000000e+00 0.0000000000000000e+00 0.0000000000000000e+00 
0.0000000000000000e+00 0.0000000000000000e+00 0.0000000000000000e+00 
0.0000000000000000e+00 0.0000000000000000e+00 0.0000000000000000e+00 
0.0000000000000000e+00 0.0000000000000000e+00 0.0000000000000000e+00 
0.0000000000000000e+00 0.0000000000000000e+00 0.0000000000000000e+00 
0.0000000000000000e+00 0.0000000000000000e+00 0.0000000000000000e+00 
0.0000000000000000e+00 0.0000000000000000e+00 0.0000000000000000e+00 
0.0000000000000000e+00 0.0000000000000000e+00 0.0000000000000000e+00 
0.0000000000000000e+00 0.0000000000000000e+00 0.0000000000000000e+00 
0.0000000000000000e+00 0.0000000000000000e+00 0.0000000000000000e+00 
0.0000000000000000e+00 0.0000000000000000e+00 0.0000000000000000e+00 
0.0000000000000000e+00 0.0000000000000000e+00 0.0000000000000000e+00 
0.0000000000000000e+00 0.0000000000000000e+00 0.0000000000000000e+00 
0.0000000000000000e+00 0.0000000000000000e+00 0.0000000000000000e+00 
0.0000000000000000e+00 0.0000000000000000e+00 0.0000000000000000e+00 
0.0000000000000000e+00 0.0000000000000000e+00 0.0000000000000000e+00 
0.0000000000000000e+00 0.0000000000000000e+00 0.0000000000000000e+00 
0.0000000000000000e+00 0.0000000000000000e+00 0.0000000000000000e+00 
0.0000000000000000e+00 0.0000000000000000e+00 0.0000000000000000e+00 
0.0000000000000000e+00 0.0000000000000000e+00 0.0000000000000000e+00 
0.0000000000000000e+00 0.0000000000000000e+00 0.0000000000000000e+00 
0.0000000000000000e+00 0.0000000000000000e+00 0.0000000000000000e+00 
0.0000000000000000e+00 0.0000000000000000e+00 0.0000000000000000e+00 
0.0000000000000000e+00 0.0000000000000000e+00 0.0000000000000000e+00 
0.0000000000000000e+00 0.0000000000000000e+00 0.0000000000000000e+00 
0.0000000000000000e+00 0.0000000000000000e+00 0.0000000000000000e+00 
0.0000000000000000e+00 0.0000000000000000e+00 0.0000000000000000e+00 
0.0000000000000000e+00 0.0000000000000000e+00 0.0000000000000000e+00 
0.0000000000000000e+00 0.0000000000000000e+00 0.0000000000000000e+00 
0.0000000000000000e+00 0.0000000000000000e+00 0.0000000000000000e+00 
0.0000000000000000e+00 0.0000000000000000e+00 0.0000000000000000e+00 
0.0000000000000000e+00 0.0000000000000000e+00 0.0000000000000000e+00 
0.0000000000000000e+00 0.0000000000000000e+00 0.0000000000000000e+00 
0.0000000000000000e+00 0.0000000000000000e+00 0.0000000000000000e+00 
0.0000000000000000e+00 0.0000000000000000e+00 0.0000000000000000e+00 
0.0000000000000000e+00 0.0000000000000000e+00 0.0000000000000000e+00 
0.0000000000000000e+00 0.0000000000000000e+00 0.0000000000000000e+00 
0.0000000000000000e+00 0.0000000000000000e+00 0.0000000000000000e+00 
0.0000000000000000e+00 0.0000000000000000e+00 0.0000000000000000e+00 

SCALARS Temperature double
LOOKUP_TABLE default
3.0209281660186753e+02
3.0220876309640880e+02
3.0230658804371836e+02
3.0239216709452916e+02
3.0246842604846370e+02
3.0253697868671850e+02
3.0259875150108917e+02
3.0265424040615937e+02
3.0270360354226267e+02
3.0274664198538500e+02
3.0278262275634330e+02
3.0280970122826091e+02
3.0281034365533839e+02
3.0283142873717287e+02
3.0285562107277093e+02
3.0288103578168756e+02
3.0290675546557719e+02
3.0293224627398575e+02
3.0295713647404119e+02
3.0298110530285322e+02
3.0300378783987611e+02
3.0302460353425283e+02
3.0303963130353907e+02
3.0305913894332105e+02
3.0307928963715358e+02
3.0309957704129346e+02
3.0311973534194078e+02
3.0313959120144222e+02
3.0315900664648245e+02
3.0317784592144272e+02
3.0319593780636501e+02
3.0321299076031534e+02
3.0322713530056740e+02
3.0324332694083716e+02
3.0325973359642052e+02
3.0327608982179964e+02
3.0329225383033969e+02
3.0330812814551103e+02
3.0332362809282802e+02
3.0333865826830311e+02
3.0335306943745866e+02
3.0336602825869858e+02
3.0337971918070576e+02
3.0339332554314217e+02
3.0340670886599713e+02
3.0341978460574495e+02
3.0343247978975279e+02
3.0344470704514868e+02
3.0345631726034810e+02
3.0346644616158187e+02
3.0347742676150966e+02
3.0348841407339597e+02
3.0349927321332990e+02
3.0350993348990266e+02
3.0352034417146228e+02
3.0353045181672508e+02
3.0354006192784055e+02
3.0354964571594087e+02
3.0355901679404047e+02
3.0356813371721074e+02
3.0357696586722125e+02
3.0358547851179668e+02
3.0359361148895641e+02
3.0360102696875140e+02
3.0360866141777291e+02
3.0361618723007535e+02
3.0362355496209369e+02
3.0363074551370960e+02
3.0363775382158980e+02
3.0364458853180963e+02
3.0365133914513939e+02
3.0365773991659739e+02
3.0366388153903586e+02
3.0366977864265027e+02
3.0367543784115304e+02
3.0368086147502595e+02
3.0368603332775592e+02
3.0369101832895876e+02
3.0369579980468649e+02
3.0370037744726926e+02
3.0370474931469283e+02
3.0370887842852534e+02
3.0371289929566461e+02
3.0371677947647629e+02
3.0372052590584201e+02
3.0372415611085472e+02
3.0372770651038286e+02
3.0373135977450903e+02
3.0373462173364896e+02
3.0373767417712219e+02
3.0374055920649914e+02
3.0374331065167536e+02
3.0374602136559730e+02
3.0374847970917403e+02
3.0375077431014807e+02
3.0375293137279039e+02
3.0375497351642287e+02
3.0375695127750458e+02
3.0375877574294361e+02
3.0376050125537898e+02
3.0376216566044906e+02
3.0376391027788753e+02
3.0376536793243201e+02
3.0376667587322152e+02
3.0376786744060507e+02
3.0376896906439379e+02
3.0377005343100348e+02
3.0377094646776294e+02
3.0377171451219061e+02
3.0377237071313493e+02
3.0377290835468602e+02
3.0377337993275529e+02
3.0377377580334763e+02
3.0377410089245706e+02
3.0377438680265863e+02
3.0377453641158235e+02
3.0377457686381126e+02
3.0377450399181583e+02
3.0377427947304005e+02
3.0377400149069206e+02
3.0377362504463372e+02
3.0377312590787386e+02
3.0377243729959895e+02
3.0377169917836494e+02
3.0377083906917744e+02
3.0376980811919594e+02
3.0376862777967432e+02
3.0376723929314272e+02
3.0376557402749876e+02
3.0376341031452102e+02
3.0376121736478200e+02
3.0375872501650088e+02
3.0375554108455196e+02
3.0375254877998100e+02
3.0374938010260945e+02
3.0374592702312492e+02
3.0374218402789029e+02
3.0373773675888935e+02
3.0373252372365670e+02
3.0372612489946493e+02
3.0371937392084573e+02
3.0371179042393652e+02
3.0370297046617139e+02
3.0369333672960789e+02
3.0368250606310482e+02
3.0367027350008510e+02
3.0365637302445856e+02
3.0364074630507383e+02
3.0362444541354370e+02
3.0360235351982078e+02
3.0357374366779516e+02
3.0354420941879789e+02
3.0351224623135892e+02
3.0348106501257035e+02
3.0343876713503602e+02
3.0339031006584412e+02
3.0334792185575941e+02
3.0327719618035087e+02
3.0321978464279778e+02
3.0305138005744260e+02
3.0277998176897444e+02

SCALARS Heat-Flux double
LOOKUP_TABLE default
0.0000000000000000e+00
0.0000000000000000e+00
0.0000000000000000e+00
0.0000000000000000e+00
0.0000000000000000e+00
0.0000000000000000e+00
0.0000000000000000e+00
0.0000000000000000e+00
0.0000000000000000e+00
0.0000000000000000e+00
0.0000000000000000e+00
0.0000000000000000e+00
0.0000000000000000e+00
0.0000000000000000e+00
0.0000000000000000e+00
0.0000000000000000e+00
0.0000000000000000e+00
0.0000000000000000e+00
0.0000000000000000e+00
0.0000000000000000e+00
0.0000000000000000e+00
0.0000000000000000e+00
0.0000000000000000e+00
0.0000000000000000e+00
0.0000000000000000e+00
0.0000000000000000e+00
0.0000000000000000e+00
0.0000000000000000e+00
0.0000000000000000e+00
0.0000000000000000e+00
0.0000000000000000e+00
0.0000000000000000e+00
0.0000000000000000e+00
0.0000000000000000e+00
0.0000000000000000e+00
0.0000000000000000e+00
0.0000000000000000e+00
0.0000000000000000e+00
0.0000000000000000e+00
0.0000000000000000e+00
0.0000000000000000e+00
0.0000000000000000e+00
0.0000000000000000e+00
0.0000000000000000e+00
0.0000000000000000e+00
0.0000000000000000e+00
0.0000000000000000e+00
0.0000000000000000e+00
0.0000000000000000e+00
0.0000000000000000e+00
0.0000000000000000e+00
0.0000000000000000e+00
0.0000000000000000e+00
0.0000000000000000e+00
0.0000000000000000e+00
0.0000000000000000e+00
0.0000000000000000e+00
0.0000000000000000e+00
0.0000000000000000e+00
0.0000000000000000e+00
0.0000000000000000e+00
0.0000000000000000e+00
0.0000000000000000e+00
0.0000000000000000e+00
0.0000000000000000e+00
0.0000000000000000e+00
0.0000000000000000e+00
0.0000000000000000e+00
0.0000000000000000e+00
0.0000000000000000e+00
0.0000000000000000e+00
0.0000000000000000e+00
0.0000000000000000e+00
0.0000000000000000e+00
0.0000000000000000e+00
0.0000000000000000e+00
0.0000000000000000e+00
0.0000000000000000e+00
0.0000000000000000e+00
0.0000000000000000e+00
0.0000000000000000e+00
0.0000000000000000e+00
0.0000000000000000e+00
0.0000000000000000e+00
0.0000000000000000e+00
0.0000000000000000e+00
0.0000000000000000e+00
0.0000000000000000e+00
0.0000000000000000e+00
0.0000000000000000e+00
0.0000000000000000e+00
0.0000000000000000e+00
0.0000000000000000e+00
0.0000000000000000e+00
0.0000000000000000e+00
0.0000000000000000e+00
0.0000000000000000e+00
0.0000000000000000e+00
0.0000000000000000e+00
0.0000000000000000e+00
0.0000000000000000e+00
0.0000000000000000e+00
0.0000000000000000e+00
0.0000000000000000e+00
0.0000000000000000e+00
0.0000000000000000e+00
0.0000000000000000e+00
0.0000000000000000e+00
0.0000000000000000e+00
0.0000000000000000e+00
0.0000000000000000e+00
0.0000000000000000e+00
0.0000000000000000e+00
0.0000000000000000e+00
0.0000000000000000e+00
0.0000000000000000e+00
0.0000000000000000e+00
0.0000000000000000e+00
0.0000000000000000e+00
0.0000000000000000e+00
0.0000000000000000e+00
0.0000000000000000e+00
0.0000000000000000e+00
0.0000000000000000e+00
0.0000000000000000e+00
0.0000000000000000e+00
0.0000000000000000e+00
0.0000000000000000e+00
0.0000000000000000e+00
0.0000000000000000e+00
0.0000000000000000e+00
0.0000000000000000e+00
0.0000000000000000e+00
0.0000000000000000e+00
0.0000000000000000e+00
0.0000000000000000e+00
0.0000000000000000e+00
0.0000000000000000e+00
0.0000000000000000e+00
0.0000000000000000e+00
0.0000000000000000e+00
0.0000000000000000e+00
0.0000000000000000e+00
0.0000000000000000e+00
0.0000000000000000e+00