# vtk DataFile Version 2.0

ASCII

DATASET UNSTRUCTURED_GRID

POINTS 161 double 

1.2479480269999997e-03  0.0000000000000000e+00  2.0000000000000004e-01
3.7564605215000004e-03  0.0000000000000000e+00  2.0000000000000001e-01
6.2903334465000014e-03  0.0000000000000000e+00  2.0000000000000004e-01
8.8498231920000007e-03  0.0000000000000000e+00  2.0000000000000004e-01
1.1435188734999997e-02  0.0000000000000000e+00  2.0000000000000001e-01
1.4046691670000002e-02  0.0000000000000000e+00  2.0000000000000001e-01
1.6684596245000002e-02  0.0000000000000000e+00  2.0000000000000001e-01
1.9349169374999996e-02  0.0000000000000000e+00  1.9999999999999998e-01
2.2040680664999996e-02  0.0000000000000000e+00  2.0000000000000001e-01
2.4759402454999999e-02  0.0000000000000000e+00  1.9999999999999998e-01
2.7505609844999997e-02  0.0000000000000000e+00  2.0000000000000001e-01
3.0279580699999999e-02  0.0000000000000000e+00  2.0000000000000001e-01
3.3081595699999994e-02  0.0000000000000000e+00  2.0000000000000001e-01
3.5911938370000000e-02  0.0000000000000000e+00  2.0000000000000004e-01
3.8770895094999994e-02  0.0000000000000000e+00  2.0000000000000004e-01
4.1658755154999998e-02  0.0000000000000000e+00  2.0000000000000001e-01
4.4575810750000000e-02  0.0000000000000000e+00  2.0000000000000004e-01
4.7522357044999998e-02  0.0000000000000000e+00  2.0000000000000001e-01
5.0498692184999992e-02  0.0000000000000000e+00  2.0000000000000001e-01
5.3505117319999997e-02  0.0000000000000000e+00  2.0000000000000001e-01
5.6541936659999993e-02  0.0000000000000000e+00  2.0000000000000004e-01
5.9609457479999996e-02  0.0000000000000000e+00  2.0000000000000001e-01
6.2707990165000005e-02  0.0000000000000000e+00  2.0000000000000001e-01
6.5837848234999982e-02  0.0000000000000000e+00  1.9999999999999998e-01
6.8999348380000006e-02  0.0000000000000000e+00  2.0000000000000001e-01
7.2192810504999996e-02  0.0000000000000000e+00  2.0000000000000004e-01
7.5418557725000002e-02  0.0000000000000000e+00  2.0000000000000004e-01
7.8676916434999994e-02  0.0000000000000000e+00  2.0000000000000004e-01
8.1968216339999997e-02  0.0000000000000000e+00  2.0000000000000001e-01
8.5292790460000004e-02  0.0000000000000000e+00  2.0000000000000001e-01
8.8650975185000008e-02  0.0000000000000000e+00  2.0000000000000001e-01
9.2043110309999981e-02  0.0000000000000000e+00  2.0000000000000001e-01
9.5469539070000012e-02  0.0000000000000000e+00  2.0000000000000004e-01
9.8930608189999977e-02  0.0000000000000000e+00  2.0000000000000004e-01
1.0242666780000000e-01  0.0000000000000000e+00  2.0000000000000004e-01
1.0595807170000000e-01  0.0000000000000000e+00  1.9999999999999998e-01
1.0952517724999998e-01  0.0000000000000000e+00  2.0000000000000001e-01
1.1312834529999997e-01  0.0000000000000000e+00  2.0000000000000001e-01
1.1676794049999999e-01  0.0000000000000000e+00  2.0000000000000001e-01
1.2044433110000000e-01  0.0000000000000000e+00  2.0000000000000001e-01
1.2415788905000000e-01  0.0000000000000000e+00  2.0000000000000001e-01
1.2790899015000001e-01  0.0000000000000000e+00  2.0000000000000004e-01
1.3169801395000000e-01  0.0000000000000000e+00  1.9999999999999998e-01
1.3552534380000000e-01  0.0000000000000000e+00  2.0000000000000004e-01
1.3939136699999999e-01  0.0000000000000000e+00  2.0000000000000001e-01
1.4329647475000001e-01  0.0000000000000000e+00  2.0000000000000004e-01
1.4724106214999999e-01  0.0000000000000000e+00  1.9999999999999998e-01
1.5122552830000000e-01  0.0000000000000000e+00  2.0000000000000001e-01
1.5525027640000000e-01  0.0000000000000000e+00  2.0000000000000001e-01
1.5931571375000000e-01  0.0000000000000000e+00  1.9999999999999998e-01
1.6342225165000002e-01  0.0000000000000000e+00  2.0000000000000004e-01
1.6757030559999997e-01  0.0000000000000000e+00  2.0000000000000001e-01
1.7176029529999998e-01  0.0000000000000000e+00  2.0000000000000004e-01
1.7599264474999998e-01  0.0000000000000000e+00  2.0000000000000004e-01
1.8026778220000000e-01  0.0000000000000000e+00  2.0000000000000001e-01
1.8458614020000003e-01  0.0000000000000000e+00  2.0000000000000004e-01
1.8894815575000001e-01  0.0000000000000000e+00  2.0000000000000001e-01
1.9335427015000003e-01  0.0000000000000000e+00  2.0000000000000001e-01
1.9780492924999996e-01  0.0000000000000000e+00  2.0000000000000001e-01
2.0230058344999999e-01  0.0000000000000000e+00  2.0000000000000001e-01
2.0684168754999999e-01  0.0000000000000000e+00  2.0000000000000001e-01
2.1142870105000000e-01  0.0000000000000000e+00  2.0000000000000001e-01
2.1606208815000000e-01  0.0000000000000000e+00  2.0000000000000001e-01
2.2074231759999996e-01  0.0000000000000000e+00  1.9999999999999998e-01
2.2546986299999996e-01  0.0000000000000000e+00  2.0000000000000001e-01
2.3024520269999998e-01  0.0000000000000000e+00  2.0000000000000004e-01
2.3506881985000003e-01  0.0000000000000000e+00  1.9999999999999998e-01
2.3994120254999998e-01  0.0000000000000000e+00  2.0000000000000001e-01
2.4486284384999998e-01  0.0000000000000000e+00  2.0000000000000001e-01
2.4983424174999996e-01  0.0000000000000000e+00  1.9999999999999998e-01
2.5485589919999996e-01  0.0000000000000000e+00  2.0000000000000004e-01
2.5992832429999996e-01  0.0000000000000000e+00  2.0000000000000004e-01
2.6505203035000002e-01  0.0000000000000000e+00  2.0000000000000001e-01
2.7022753580000008e-01  0.0000000000000000e+00  2.0000000000000004e-01
2.7545536429999989e-01  0.0000000000000000e+00  2.0000000000000001e-01
2.8073604484999998e-01  0.0000000000000000e+00  2.0000000000000001e-01
2.8607011174999997e-01  0.0000000000000000e+00  2.0000000000000001e-01
2.9145810470000000e-01  0.0000000000000000e+00  2.0000000000000001e-01
2.9690056894999994e-01  0.0000000000000000e+00  2.0000000000000004e-01
3.0239805515000001e-01  0.0000000000000000e+00  2.0000000000000001e-01
3.0795111949999998e-01  0.0000000000000000e+00  2.0000000000000001e-01
3.1356032395000000e-01  0.0000000000000000e+00  2.0000000000000001e-01
3.1922623605000000e-01  0.0000000000000000e+00  2.0000000000000004e-01
3.2494942910000002e-01  0.0000000000000000e+00  2.0000000000000001e-01
3.3073048220000001e-01  0.0000000000000000e+00  2.0000000000000001e-01
3.3656998030000002e-01  0.0000000000000000e+00  2.0000000000000001e-01
3.4246851424999997e-01  0.0000000000000000e+00  2.0000000000000001e-01
3.4842668090000001e-01  0.0000000000000000e+00  1.9999999999999998e-01
3.5444508315000001e-01  0.0000000000000000e+00  1.9999999999999998e-01
3.6052432990000000e-01  0.0000000000000000e+00  2.0000000000000001e-01
3.6666503630000002e-01  0.0000000000000000e+00  2.0000000000000004e-01
3.7286782369999993e-01  0.0000000000000000e+00  2.0000000000000001e-01
3.7913331969999992e-01  0.0000000000000000e+00  2.0000000000000001e-01
3.8546215830000002e-01  0.0000000000000000e+00  2.0000000000000001e-01
3.9185497989999996e-01  0.0000000000000000e+00  2.0000000000000001e-01
3.9831243130000005e-01  0.0000000000000000e+00  2.0000000000000001e-01
4.0483516589999996e-01  0.0000000000000000e+00  2.0000000000000001e-01
4.1142384369999990e-01  0.0000000000000000e+00  2.0000000000000004e-01
4.1807913139999997e-01  0.0000000000000000e+00  2.0000000000000001e-01
4.2480170239999998e-01  0.0000000000000000e+00  1.9999999999999998e-01
4.3159223684999998e-01  0.0000000000000000e+00  2.0000000000000001e-01
4.3845142189999992e-01  0.0000000000000000e+00  2.0000000000000001e-01
4.4537995159999993e-01  0.0000000000000000e+00  1.9999999999999998e-01
4.5237852700000009e-01  0.0000000000000000e+00  2.0000000000000004e-01
4.5944785625000001e-01  0.0000000000000000e+00  2.0000000000000004e-01
4.6658865464999993e-01  0.0000000000000000e+00  2.0000000000000001e-01
4.7380164474999992e-01  0.0000000000000000e+00  2.0000000000000001e-01
4.8108755635000006e-01  0.0000000000000000e+00  2.0000000000000004e-01
4.8844712664999984e-01  0.0000000000000000e+00  1.9999999999999998e-01
4.9588110034999994e-01  0.0000000000000000e+00  2.0000000000000001e-01
5.0339022965000002e-01  0.0000000000000000e+00  2.0000000000000001e-01
5.1097527440000001e-01  0.0000000000000000e+00  1.9999999999999998e-01
5.1863700204999996e-01  0.0000000000000000e+00  1.9999999999999998e-01
5.2637618780000006e-01  0.0000000000000000e+00  2.0000000000000004e-01
5.3419361479999994e-01  0.0000000000000000e+00  2.0000000000000001e-01
5.4209007400000009e-01  0.0000000000000000e+00  2.0000000000000001e-01
5.5006636439999990e-01  0.0000000000000000e+00  2.0000000000000004e-01
5.5812329314999998e-01  0.0000000000000000e+00  2.0000000000000004e-01
5.6626167539999994e-01  0.0000000000000000e+00  1.9999999999999998e-01
5.7448233464999998e-01  0.0000000000000000e+00  2.0000000000000004e-01
5.8278610269999997e-01  0.0000000000000000e+00  2.0000000000000001e-01
5.9117381974999994e-01  0.0000000000000000e+00  2.0000000000000001e-01
5.9964633454999994e-01  0.0000000000000000e+00  2.0000000000000001e-01
6.0820450430000006e-01  0.0000000000000000e+00  2.0000000000000004e-01
6.1684919499999991e-01  0.0000000000000000e+00  2.0000000000000004e-01
6.2558128135000002e-01  0.0000000000000000e+00  2.0000000000000001e-01
6.3440164689999989e-01  0.0000000000000000e+00  1.9999999999999998e-01
6.4331118415000010e-01  0.0000000000000000e+00  2.0000000000000004e-01
6.5231079455000007e-01  0.0000000000000000e+00  2.0000000000000004e-01
6.6140138875000010e-01  0.0000000000000000e+00  2.0000000000000001e-01
6.7058388660000001e-01  0.0000000000000000e+00  2.0000000000000004e-01
6.7985921719999987e-01  0.0000000000000000e+00  2.0000000000000001e-01
6.8922831899999992e-01  0.0000000000000000e+00  2.0000000000000001e-01
6.9869214009999991e-01  0.0000000000000000e+00  2.0000000000000001e-01
7.0825163804999991e-01  0.0000000000000000e+00  1.9999999999999998e-01
7.1790778009999989e-01  0.0000000000000000e+00  2.0000000000000004e-01
7.2766154335000000e-01  0.0000000000000000e+00  2.0000000000000004e-01
7.3751391470000005e-01  0.0000000000000000e+00  2.0000000000000001e-01
7.4746589105000005e-01  0.0000000000000000e+00  2.0000000000000004e-01
7.5751847934999994e-01  0.0000000000000000e+00  1.9999999999999998e-01
7.6767269680000005e-01  0.0000000000000000e+00  2.0000000000000004e-01
7.7792957085000014e-01  0.0000000000000000e+00  2.0000000000000004e-01
7.8829013930000025e-01  0.0000000000000000e+00  2.0000000000000007e-01
7.9875545049999996e-01  0.0000000000000000e+00  2.0000000000000001e-01
8.0932656339999998e-01  0.0000000000000000e+00  2.0000000000000004e-01
8.2000454754999996e-01  0.0000000000000000e+00  2.0000000000000001e-01
8.3079048344999984e-01  0.0000000000000000e+00  2.0000000000000001e-01
8.4168546244999998e-01  0.0000000000000000e+00  1.9999999999999998e-01
8.5269058695000000e-01  0.0000000000000000e+00  2.0000000000000001e-01
8.6380697049999988e-01  0.0000000000000000e+00  2.0000000000000001e-01
8.7503573784999988e-01  0.0000000000000000e+00  2.0000000000000001e-01
8.8637802524999998e-01  0.0000000000000000e+00  1.9999999999999998e-01
8.9783498034999998e-01  0.0000000000000000e+00  2.0000000000000001e-01
9.0940776234999998e-01  0.0000000000000000e+00  2.0000000000000001e-01
9.2109754224999985e-01  0.0000000000000000e+00  2.0000000000000004e-01
9.3290550294999997e-01  0.0000000000000000e+00  2.0000000000000001e-01
9.4483283914999994e-01  0.0000000000000000e+00  2.0000000000000001e-01
9.5688075770000003e-01  0.0000000000000000e+00  1.9999999999999998e-01
9.6905047765000007e-01  0.0000000000000000e+00  2.0000000000000001e-01
9.8134323039999993e-01  0.0000000000000000e+00  2.0000000000000001e-01
9.9376025984999994e-01  0.0000000000000000e+00  1.9999999999999998e-01

CELLS 0 0


CELL_TYPES 0


POINT_DATA 161

VECTORS VertexNormals double

0.0000000000000000e+00 0.0000000000000000e+00 0.0000000000000000e+00 
0.0000000000000000e+00 0.0000000000000000e+00 0.0000000000000000e+00 
0.0000000000000000e+00 0.0000000000000000e+00 0.0000000000000000e+00 
0.0000000000000000e+00 0.0000000000000000e+00 0.0000000000000000e+00 
0.0000000000000000e+00 0.0000000000000000e+00 0.0000000000000000e+00 
0.0000000000000000e+00 0.0000000000000000e+00 0.0000000000000000e+00 
0.0000000000000000e+00 0.0000000000000000e+00 0.0000000000000000e+00 
0.0000000000000000e+00 0.0000000000000000e+00 0.0000000000000000e+00 
0.0000000000000000e+00 0.0000000000000000e+00 0.0000000000000000e+00 
0.0000000000000000e+00 0.0000000000000000e+00 0.0000000000000000e+00 
0.0000000000000000e+00 0.0000000000000000e+00 0.0000000000000000e+00 
0.0000000000000000e+00 0.0000000000000000e+00 0.0000000000000000e+00 
0.0000000000000000e+00 0.0000000000000000e+00 0.0000000000000000e+00 
0.0000000000000000e+00 0.0000000000000000e+00 0.0000000000000000e+00 
0.0000000000000000e+00 0.0000000000000000e+00 0.0000000000000000e+00 
0.0000000000000000e+00 0.0000000000000000e+00 0.0000000000000000e+00 
0.0000000000000000e+00 0.0000000000000000e+00 0.0000000000000000e+00 
0.0000000000000000e+00 0.0000000000000000e+00 0.0000000000000000e+00 
0.0000000000000000e+00 0.0000000000000000e+00 0.0000000000000000e+00 
0.0000000000000000e+00 0.0000000000000000e+00 0.0000000000000000e+00 
0.0000000000000000e+00 0.0000000000000000e+00 0.0000000000000000e+00 
0.0000000000000000e+00 0.0000000000000000e+00 0.0000000000000000e+00 
0.0000000000000000e+00 0.0000000000000000e+00 0.0000000000000000e+00 
0.0000000000000000e+00 0.0000000000000000e+00 0.0000000000000000e+00 
0.0000000000000000e+00 0.0000000000000000e+00 0.0000000000000000e+00 
0.0000000000000000e+00 0.0000000000000000e+00 0.0000000000000000e+00 
0.0000000000000000e+00 0.0000000000000000e+00 0.0000000000000000e+00 
0.0000000000000000e+00 0.0000000000000000e+00 0.0000000000000000e+00 
0.0000000000000000e+00 0.0000000000000000e+00 0.0000000000000000e+00 
0.0000000000000000e+00 0.0000000000000000e+00 0.0000000000000000e+00 
0.0000000000000000e+00 0.0000000000000000e+00 0.0000000000000000e+00 
0.0000000000000000e+00 0.0000000000000000e+00 0.0000000000000000e+00 
0.0000000000000000e+00 0.0000000000000000e+00 0.0000000000000000e+00 
0.0000000000000000e+00 0.0000000000000000e+00 0.0000000000000000e+00 
0.0000000000000000e+00 0.0000000000000000e+00 0.0000000000000000e+00 
0.0000000000000000e+00 0.0000000000000000e+00 0.0000000000000000e+00 
0.0000000000000000e+00 0.0000000000000000e+00 0.0000000000000000e+00 
0.0000000000000000e+00 0.0000000000000000e+00 0.0000000000000000e+00 
0.0000000000000000e+00 0.0000000000000000e+00 0.0000000000000000e+00 
0.0000000000000000e+00 0.0000000000000000e+00 0.0000000000000000e+00 
0.0000000000000000e+00 0.0000000000000000e+00 0.0000000000000000e+00 
0.0000000000000000e+00 0.0000000000000000e+00 0.0000000000000000e+00 
0.0000000000000000e+00 0.0000000000000000e+00 0.0000000000000000e+00 
0.0000000000000000e+00 0.0000000000000000e+00 0.0000000000000000e+00 
0.0000000000000000e+00 0.0000000000000000e+00 0.0000000000000000e+00 
0.0000000000000000e+00 0.0000000000000000e+00 0.0000000000000000e+00 
0.0000000000000000e+00 0.0000000000000000e+00 0.0000000000000000e+00 
0.0000000000000000e+00 0.0000000000000000e+00 0.0000000000000000e+00 
0.0000000000000000e+00 0.0000000000000000e+00 0.0000000000000000e+00 
0.0000000000000000e+00 0.0000000000000000e+00 0.0000000000000000e+00 
0.0000000000000000e+00 0.0000000000000000e+00 0.0000000000000000e+00 
0.0000000000000000e+00 0.0000000000000000e+00 0.0000000000000000e+00 
0.0000000000000000e+00 0.0000000000000000e+00 0.0000000000000000e+00 
0.0000000000000000e+00 0.0000000000000000e+00 0.0000000000000000e+00 
0.0000000000000000e+00 0.0000000000000000e+00 0.0000000000000000e+00 
0.0000000000000000e+00 0.0000000000000000e+00 0.0000000000000000e+00 
0.0000000000000000e+00 0.0000000000000000e+00 0.0000000000000000e+00 
0.0000000000000000e+00 0.0000000000000000e+00 0.0000000000000000e+00 
0.0000000000000000e+00 0.0000000000000000e+00 0.0000000000000000e+00 
0.0000000000000000e+00 0.0000000000000000e+00 0.0000000000000000e+00 
0.0000000000000000e+00 0.0000000000000000e+00 0.0000000000000000e+00 
0.0000000000000000e+00 0.0000000000000000e+00 0.0000000000000000e+00 
0.0000000000000000e+00 0.0000000000000000e+00 0.0000000000000000e+00 
0.0000000000000000e+00 0.0000000000000000e+00 0.0000000000000000e+00 
0.0000000000000000e+00 0.0000000000000000e+00 0.0000000000000000e+00 
0.0000000000000000e+00 0.0000000000000000e+00 0.0000000000000000e+00 
0.0000000000000000e+00 0.0000000000000000e+00 0.0000000000000000e+00 
0.0000000000000000e+00 0.0000000000000000e+00 0.0000000000000000e+00 
0.0000000000000000e+00 0.0000000000000000e+00 0.0000000000000000e+00 
0.0000000000000000e+00 0.0000000000000000e+00 0.0000000000000000e+00 
0.0000000000000000e+00 0.0000000000000000e+00 0.0000000000000000e+00 
0.0000000000000000e+00 0.0000000000000000e+00 0.0000000000000000e+00 
0.0000000000000000e+00 0.0000000000000000e+00 0.0000000000000000e+00 
0.0000000000000000e+00 0.0000000000000000e+00 0.0000000000000000e+00 
0.0000000000000000e+00 0.0000000000000000e+00 0.0000000000000000e+00 
0.0000000000000000e+00 0.0000000000000000e+00 0.0000000000000000e+00 
0.0000000000000000e+00 0.0000000000000000e+00 0.0000000000000000e+00 
0.0000000000000000e+00 0.0000000000000000e+00 0.0000000000000000e+00 
0.0000000000000000e+00 0.0000000000000000e+00 0.0000000000000000e+00 
0.0000000000000000e+00 0.0000000000000000e+00 0.0000000000000000e+00 
0.0000000000000000e+00 0.0000000000000000e+00 0.0000000000000000e+00 
0.0000000000000000e+00 0.0000000000000000e+00 0.0000000000000000e+00 
0.0000000000000000e+00 0.0000000000000000e+00 0.0000000000000000e+00 
0.0000000000000000e+00 0.0000000000000000e+00 0.0000000000000000e+00 
0.0000000000000000e+00 0.0000000000000000e+00 0.0000000000000000e+00 
0.0000000000000000e+00 0.0000000000000000e+00 0.0000000000000000e+00 
0.0000000000000000e+00 0.0000000000000000e+00 0.0000000000000000e+00 
0.0000000000000000e+00 0.0000000000000000e+00 0.0000000000000000e+00 
0.0000000000000000e+00 0.0000000000000000e+00 0.0000000000000000e+00 
0.0000000000000000e+00 0.0000000000000000e+00 0.0000000000000000e+00 
0.0000000000000000e+00 0.0000000000000000e+00 0.0000000000000000e+00 
0.0000000000000000e+00 0.0000000000000000e+00 0.0000000000000000e+00 
0.0000000000000000e+00 0.0000000000000000e+00 0.0000000000000000e+00 
0.0000000000000000e+00 0.0000000000000000e+00 0.0000000000000000e+00 
0.0000000000000000e+00 0.0000000000000000e+00 0.0000000000000000e+00 
0.0000000000000000e+00 0.0000000000000000e+00 0.0000000000000000e+00 
0.0000000000000000e+00 0.0000000000000000e+00 0.0000000000000000e+00 
0.0000000000000000e+00 0.0000000000000000e+00 0.0000000000000000e+00 
0.0000000000000000e+00 0.0000000000000000e+00 0.0000000000000000e+00 
0.0000000000000000e+00 0.0000000000000000e+00 0.0000000000000000e+00 
0.0000000000000000e+00 0.0000000000000000e+00 0.0000000000000000e+00 
0.0000000000000000e+00 0.0000000000000000e+00 0.0000000000000000e+00 
0.0000000000000000e+00 0.0000000000000000e+00 0.0000000000000000e+00 
0.0000000000000000e+00 0.0000000000000000e+00 0.0000000000000000e+00 
0.0000000000000000e+00 0.0000000000000000e+00 0.0000000000000000e+00 
0.0000000000000000e+00 0.0000000000000000e+00 0.0000000000000000e+00 
0.0000000000000000e+00 0.0000000000000000e+00 0.0000000000000000e+00 
0.0000000000000000e+00 0.0000000000000000e+00 0.0000000000000000e+00 
0.0000000000000000e+00 0.0000000000000000e+00 0.0000000000000000e+00 
0.0000000000000000e+00 0.0000000000000000e+00 0.0000000000000000e+00 
0.0000000000000000e+00 0.0000000000000000e+00 0.0000000000000000e+00 
0.0000000000000000e+00 0.0000000000000000e+00 0.0000000000000000e+00 
0.0000000000000000e+00 0.0000000000000000e+00 0.0000000000000000e+00 
0.0000000000000000e+00 0.0000000000000000e+00 0.0000000000000000e+00 
0.0000000000000000e+00 0.0000000000000000e+00 0.0000000000000000e+00 
0.0000000000000000e+00 0.0000000000000000e+00 0.0000000000000000e+00 
0.0000000000000000e+00 0.0000000000000000e+00 0.0000000000000000e+00 
0.0000000000000000e+00 0.0000000000000000e+00 0.0000000000000000e+00 
0.0000000000000000e+00 0.0000000000000000e+00 0.0000000000000000e+00 
0.0000000000000000e+00 0.0000000000000000e+00 0.0000000000000000e+00 
0.0000000000000000e+00 0.0000000000000000e+00 0.0000000000000000e+00 
0.0000000000000000e+00 0.0000000000000000e+00 0.0000000000000000e+00 
0.0000000000000000e+00 0.0000000000000000e+00 0.0000000000000000e+00 
0.0000000000000000e+00 0.0000000000000000e+00 0.0000000000000000e+00 
0.0000000000000000e+00 0.0000000000000000e+00 0.0000000000000000e+00 
0.0000000000000000e+00 0.0000000000000000e+00 0.0000000000000000e+00 
0.0000000000000000e+00 0.0000000000000000e+00 0.0000000000000000e+00 
0.0000000000000000e+00 0.0000000000000000e+00 0.0000000000000000e+00 
0.0000000000000000e+00 0.0000000000000000e+00 0.0000000000000000e+00 
0.0000000000000000e+00 0.0000000000000000e+00 0.0000000000000000e+00 
0.0000000000000000e+00 0.0000000000000000e+00 0.0000000000000000e+00 
0.0000000000000000e+00 0.0000000000000000e+00 0.0000000000000000e+00 
0.0000000000000000e+00 0.0000000000000000e+00 0.0000000000000000e+00 
0.0000000000000000e+00 0.0000000000000000e+00 0.0000000000000000e+00 
0.0000000000000000e+00 0.0000000000000000e+00 0.0000000000000000e+00 
0.0000000000000000e+00 0.0000000000000000e+00 0.0000000000000000e+00 
0.0000000000000000e+00 0.0000000000000000e+00 0.0000000000000000e+00 
0.0000000000000000e+00 0.0000000000000000e+00 0.0000000000000000e+00 
0.0000000000000000e+00 0.0000000000000000e+00 0.0000000000000000e+00 
0.0000000000000000e+00 0.0000000000000000e+00 0.0000000000000000e+00 
0.0000000000000000e+00 0.0000000000000000e+00 0.0000000000000000e+00 
0.0000000000000000e+00 0.0000000000000000e+00 0.0000000000000000e+00 
0.0000000000000000e+00 0.0000000000000000e+00 0.0000000000000000e+00 
0.0000000000000000e+00 0.0000000000000000e+00 0.0000000000000000e+00 
0.0000000000000000e+00 0.0000000000000000e+00 0.0000000000000000e+00 
0.0000000000000000e+00 0.0000000000000000e+00 0.0000000000000000e+00 
0.0000000000000000e+00 0.0000000000000000e+00 0.0000000000000000e+00 
0.0000000000000000e+00 0.0000000000000000e+00 0.0000000000000000e+00 
0.0000000000000000e+00 0.0000000000000000e+00 0.0000000000000000e+00 
0.0000000000000000e+00 0.0000000000000000e+00 0.0000000000000000e+00 
0.0000000000000000e+00 0.0000000000000000e+00 0.0000000000000000e+00 
0.0000000000000000e+00 0.0000000000000000e+00 0.0000000000000000e+00 
0.0000000000000000e+00 0.0000000000000000e+00 0.0000000000000000e+00 
0.0000000000000000e+00 0.0000000000000000e+00 0.0000000000000000e+00 
0.0000000000000000e+00 0.0000000000000000e+00 0.0000000000000000e+00 
0.0000000000000000e+00 0.0000000000000000e+00 0.0000000000000000e+00 
0.0000000000000000e+00 0.0000000000000000e+00 0.0000000000000000e+00 
0.0000000000000000e+00 0.0000000000000000e+00 0.0000000000000000e+00 
0.0000000000000000e+00 0.0000000000000000e+00 0.0000000000000000e+00 
0.0000000000000000e+00 0.0000000000000000e+00 0.0000000000000000e+00 
0.0000000000000000e+00 0.0000000000000000e+00 0.0000000000000000e+00 

SCALARS Temperature double
LOOKUP_TABLE default
3.0118819118581450e+02
3.0128871236706368e+02
3.0137138267069514e+02
3.0144209701807898e+02
3.0150382482880013e+02
3.0155824049780426e+02
3.0160634820554907e+02
3.0164874383318096e+02
3.0168571994503350e+02
3.0171727289408926e+02
3.0174298829439078e+02
3.0176163475024140e+02
3.0176071978408203e+02
3.0177390897129050e+02
3.0178884557016477e+02
3.0180424262436765e+02
3.0181950519766838e+02
3.0183431508960166e+02
3.0184847670383635e+02
3.0186184564829802e+02
3.0187427905728464e+02
3.0188556404301238e+02
3.0189424141003320e+02
3.0190417936025665e+02
3.0191396082959017e+02
3.0192342123204554e+02
3.0193248947799054e+02
3.0194113307243919e+02
3.0194933825253651e+02
3.0195710110832277e+02
3.0196442228419119e+02
3.0197130131798929e+02
3.0197767263042954e+02
3.0198376724664138e+02
3.0198952578057504e+02
3.0199495854788745e+02
3.0200008368369697e+02
3.0200492461446561e+02
3.0200951079893150e+02
3.0201388206262482e+02
3.0201810311302734e+02
3.0202251002084887e+02
3.0202625382317376e+02
3.0202966590111549e+02
3.0203281161917653e+02
3.0203573529364229e+02
3.0203847625503181e+02
3.0204107789112993e+02
3.0204360288342616e+02
3.0204633823003269e+02
3.0204856975434797e+02
3.0205057931685150e+02
3.0205242819956726e+02
3.0205416108873521e+02
3.0205582400088912e+02
3.0205748415554996e+02
3.0205945778019856e+02
3.0206093256709937e+02
3.0206221720165235e+02
3.0206337365889243e+02
3.0206444233137506e+02
3.0206546084356995e+02
3.0206648019754596e+02
3.0206772015720298e+02
3.0206862259323049e+02
3.0206940113052053e+02
3.0207010134757610e+02
3.0207075380437334e+02
3.0207138820832137e+02
3.0207204703987361e+02
3.0207291816717304e+02
3.0207351518480039e+02
3.0207402116740394e+02
3.0207447551973098e+02
3.0207490569056239e+02
3.0207534363381211e+02
3.0207591032655273e+02
3.0207630330806222e+02
3.0207664007232552e+02
3.0207694998451399e+02
3.0207725952417258e+02
3.0207765573128910e+02
3.0207792568387345e+02
3.0207815234475856e+02
3.0207835580398620e+02
3.0207855098747353e+02
3.0207875650687146e+02
3.0207904455787991e+02
3.0207923103562302e+02
3.0207938612546309e+02
3.0207952728464602e+02
3.0207966977500001e+02
3.0207986143977524e+02
3.0207998574957372e+02
3.0208008828651754e+02
3.0208018100027124e+02
3.0208027445365099e+02
3.0208040073401412e+02
3.0208048338330377e+02
3.0208055360028328e+02
3.0208062196756975e+02
3.0208071420643859e+02
3.0208076994933208e+02
3.0208081289097890e+02
3.0208084914367629e+02
3.0208088370725284e+02
3.0208093051263563e+02
3.0208095643650063e+02
3.0208097439170626e+02
3.0208098777603357e+02
3.0208100174251933e+02
3.0208100588516430e+02
3.0208100425802746e+02
3.0208099743740087e+02
3.0208098462576032e+02
3.0208096759037107e+02
3.0208094420868633e+02
3.0208091126543258e+02
3.0208085436940951e+02
3.0208080986511152e+02
3.0208076186273087e+02
3.0208070232417651e+02
3.0208060780967179e+02
3.0208052943663716e+02
3.0208043956796467e+02
3.0208030118947136e+02
3.0208019151747413e+02
3.0208007191653724e+02
3.0207991920415617e+02
3.0207966237939439e+02
3.0207945740056385e+02
3.0207921901374613e+02
3.0207882526092658e+02
3.0207854740881777e+02
3.0207826416985847e+02
3.0207791839883174e+02
3.0207736849631721e+02
3.0207688591476079e+02
3.0207629439072053e+02
3.0207532195815111e+02
3.0207450585994212e+02
3.0207352828972881e+02
3.0207196657754366e+02
3.0207059926872023e+02
3.0206893549969624e+02
3.0206632968073336e+02
3.0206388695524294e+02
3.0206087117517518e+02
3.0205658715336398e+02
3.0205114919070706e+02
3.0204238435997581e+02
3.0203403155091002e+02
3.0202391189609017e+02
3.0201072702071650e+02
3.0199395950744162e+02
3.0197266122816524e+02
3.0194990852623607e+02
3.0191038844541299e+02
3.0187743124376158e+02
3.0175415401556347e+02
3.0153467641009337e+02

SCALARS Heat-Flux double
LOOKUP_TABLE default
0.0000000000000000e+00
0.0000000000000000e+00
0.0000000000000000e+00
0.0000000000000000e+00
0.0000000000000000e+00
0.0000000000000000e+00
0.0000000000000000e+00
0.0000000000000000e+00
0.0000000000000000e+00
0.0000000000000000e+00
0.0000000000000000e+00
0.0000000000000000e+00
0.0000000000000000e+00
0.0000000000000000e+00
0.0000000000000000e+00
0.0000000000000000e+00
0.0000000000000000e+00
0.0000000000000000e+00
0.0000000000000000e+00
0.0000000000000000e+00
0.0000000000000000e+00
0.0000000000000000e+00
0.0000000000000000e+00
0.0000000000000000e+00
0.0000000000000000e+00
0.0000000000000000e+00
0.0000000000000000e+00
0.0000000000000000e+00
0.0000000000000000e+00
0.0000000000000000e+00
0.0000000000000000e+00
0.0000000000000000e+00
0.0000000000000000e+00
0.0000000000000000e+00
0.0000000000000000e+00
0.0000000000000000e+00
0.0000000000000000e+00
0.0000000000000000e+00
0.0000000000000000e+00
0.0000000000000000e+00
0.0000000000000000e+00
0.0000000000000000e+00
0.0000000000000000e+00
0.0000000000000000e+00
0.0000000000000000e+00
0.0000000000000000e+00
0.0000000000000000e+00
0.0000000000000000e+00
0.0000000000000000e+00
0.0000000000000000e+00
0.0000000000000000e+00
0.0000000000000000e+00
0.0000000000000000e+00
0.0000000000000000e+00
0.0000000000000000e+00
0.0000000000000000e+00
0.0000000000000000e+00
0.0000000000000000e+00
0.0000000000000000e+00
0.0000000000000000e+00
0.0000000000000000e+00
0.0000000000000000e+00
0.0000000000000000e+00
0.0000000000000000e+00
0.0000000000000000e+00
0.0000000000000000e+00
0.0000000000000000e+00
0.0000000000000000e+00
0.0000000000000000e+00
0.0000000000000000e+00
0.0000000000000000e+00
0.0000000000000000e+00
0.0000000000000000e+00
0.0000000000000000e+00
0.0000000000000000e+00
0.0000000000000000e+00
0.0000000000000000e+00
0.0000000000000000e+00
0.0000000000000000e+00
0.0000000000000000e+00
0.0000000000000000e+00
0.0000000000000000e+00
0.0000000000000000e+00
0.0000000000000000e+00
0.0000000000000000e+00
0.0000000000000000e+00
0.0000000000000000e+00
0.0000000000000000e+00
0.0000000000000000e+00
0.0000000000000000e+00
0.0000000000000000e+00
0.0000000000000000e+00
0.0000000000000000e+00
0.0000000000000000e+00
0.0000000000000000e+00
0.0000000000000000e+00
0.0000000000000000e+00
0.0000000000000000e+00
0.0000000000000000e+00
0.0000000000000000e+00
0.0000000000000000e+00
0.0000000000000000e+00
0.0000000000000000e+00
0.0000000000000000e+00
0.0000000000000000e+00
0.0000000000000000e+00
0.0000000000000000e+00
0.0000000000000000e+00
0.0000000000000000e+00
0.0000000000000000e+00
0.0000000000000000e+00
0.0000000000000000e+00
0.0000000000000000e+00
0.0000000000000000e+00
0.0000000000000000e+00
0.0000000000000000e+00
0.0000000000000000e+00
0.0000000000000000e+00
0.0000000000000000e+00
0.0000000000000000e+00
0.0000000000000000e+00
0.0000000000000000e+00
0.0000000000000000e+00
0.0000000000000000e+00
0.0000000000000000e+00
0.0000000000000000e+00
0.0000000000000000e+00
0.0000000000000000e+00
0.0000000000000000e+00
0.0000000000000000e+00
0.0000000000000000e+00
0.0000000000000000e+00
0.0000000000000000e+00
0.0000000000000000e+00
0.0000000000000000e+00
0.0000000000000000e+00
0.0000000000000000e+00
0.0000000000000000e+00
0.0000000000000000e+00
0.0000000000000000e+00
0.0000000000000000e+00
0.0000000000000000e+00
0.0000000000000000e+00
0.0000000000000000e+00
0.0000000000000000e+00