# vtk DataFile Version 2.0

ASCII

DATASET UNSTRUCTURED_GRID

POINTS 32 float 

1.5625000000000000e-02  0.0000000000000000e+00  2.0000000000000004e-01
4.6874999999999993e-02  0.0000000000000000e+00  2.0000000000000004e-01
7.8125000000000000e-02  0.0000000000000000e+00  2.0000000000000004e-01
1.0937499999999999e-01  0.0000000000000000e+00  2.0000000000000004e-01
1.4062500000000000e-01  0.0000000000000000e+00  2.0000000000000004e-01
1.7187500000000000e-01  0.0000000000000000e+00  2.0000000000000004e-01
2.0312500000000000e-01  0.0000000000000000e+00  2.0000000000000004e-01
2.3437500000000000e-01  0.0000000000000000e+00  2.0000000000000004e-01
2.6562500000000000e-01  0.0000000000000000e+00  2.0000000000000004e-01
2.9687499999999994e-01  0.0000000000000000e+00  2.0000000000000004e-01
3.2812500000000000e-01  0.0000000000000000e+00  2.0000000000000004e-01
3.5937499999999994e-01  0.0000000000000000e+00  2.0000000000000004e-01
3.9062500000000000e-01  0.0000000000000000e+00  2.0000000000000004e-01
4.2187499999999994e-01  0.0000000000000000e+00  2.0000000000000004e-01
4.5312500000000006e-01  0.0000000000000000e+00  2.0000000000000004e-01
4.8437500000000000e-01  0.0000000000000000e+00  2.0000000000000004e-01
5.1562499999999989e-01  0.0000000000000000e+00  2.0000000000000004e-01
5.4687500000000000e-01  0.0000000000000000e+00  2.0000000000000004e-01
5.7812499999999989e-01  0.0000000000000000e+00  2.0000000000000004e-01
6.0937500000000000e-01  0.0000000000000000e+00  2.0000000000000004e-01
6.4062499999999989e-01  0.0000000000000000e+00  2.0000000000000004e-01
6.7187499999999989e-01  0.0000000000000000e+00  2.0000000000000004e-01
7.0312500000000000e-01  0.0000000000000000e+00  2.0000000000000004e-01
7.3437499999999989e-01  0.0000000000000000e+00  2.0000000000000004e-01
7.6562500000000000e-01  0.0000000000000000e+00  2.0000000000000004e-01
7.9687499999999989e-01  0.0000000000000000e+00  2.0000000000000004e-01
8.2812499999999989e-01  0.0000000000000000e+00  2.0000000000000004e-01
8.5937500000000000e-01  0.0000000000000000e+00  2.0000000000000004e-01
8.9062500000000000e-01  0.0000000000000000e+00  2.0000000000000004e-01
9.2187500000000000e-01  0.0000000000000000e+00  2.0000000000000004e-01
9.5312499999999989e-01  0.0000000000000000e+00  2.0000000000000004e-01
9.8437500000000011e-01  0.0000000000000000e+00  2.0000000000000004e-01

CELLS 0 0


CELL_TYPES 0


POINT_DATA 32

VECTORS VertexNormals float

0.0000000000000000e+00 0.0000000000000000e+00 0.0000000000000000e+00 
0.0000000000000000e+00 0.0000000000000000e+00 0.0000000000000000e+00 
0.0000000000000000e+00 0.0000000000000000e+00 0.0000000000000000e+00 
0.0000000000000000e+00 0.0000000000000000e+00 0.0000000000000000e+00 
0.0000000000000000e+00 0.0000000000000000e+00 0.0000000000000000e+00 
0.0000000000000000e+00 0.0000000000000000e+00 0.0000000000000000e+00 
0.0000000000000000e+00 0.0000000000000000e+00 0.0000000000000000e+00 
0.0000000000000000e+00 0.0000000000000000e+00 0.0000000000000000e+00 
0.0000000000000000e+00 0.0000000000000000e+00 0.0000000000000000e+00 
0.0000000000000000e+00 0.0000000000000000e+00 0.0000000000000000e+00 
0.0000000000000000e+00 0.0000000000000000e+00 0.0000000000000000e+00 
0.0000000000000000e+00 0.0000000000000000e+00 0.0000000000000000e+00 
0.0000000000000000e+00 0.0000000000000000e+00 0.0000000000000000e+00 
0.0000000000000000e+00 0.0000000000000000e+00 0.0000000000000000e+00 
0.0000000000000000e+00 0.0000000000000000e+00 0.0000000000000000e+00 
0.0000000000000000e+00 0.0000000000000000e+00 0.0000000000000000e+00 
0.0000000000000000e+00 0.0000000000000000e+00 0.0000000000000000e+00 
0.0000000000000000e+00 0.0000000000000000e+00 0.0000000000000000e+00 
0.0000000000000000e+00 0.0000000000000000e+00 0.0000000000000000e+00 
0.0000000000000000e+00 0.0000000000000000e+00 0.0000000000000000e+00 
0.0000000000000000e+00 0.0000000000000000e+00 0.0000000000000000e+00 
0.0000000000000000e+00 0.0000000000000000e+00 0.0000000000000000e+00 
0.0000000000000000e+00 0.0000000000000000e+00 0.0000000000000000e+00 
0.0000000000000000e+00 0.0000000000000000e+00 0.0000000000000000e+00 
0.0000000000000000e+00 0.0000000000000000e+00 0.0000000000000000e+00 
0.0000000000000000e+00 0.0000000000000000e+00 0.0000000000000000e+00 
0.0000000000000000e+00 0.0000000000000000e+00 0.0000000000000000e+00 
0.0000000000000000e+00 0.0000000000000000e+00 0.0000000000000000e+00 
0.0000000000000000e+00 0.0000000000000000e+00 0.0000000000000000e+00 
0.0000000000000000e+00 0.0000000000000000e+00 0.0000000000000000e+00 
0.0000000000000000e+00 0.0000000000000000e+00 0.0000000000000000e+00 
0.0000000000000000e+00 0.0000000000000000e+00 0.0000000000000000e+00 

SCALARS Temperature float
LOOKUP_TABLE default
3.0272658521050272e+02
3.0307059780530005e+02
3.0328868495042695e+02
3.0345206504912551e+02
3.0357698229995083e+02
3.0368029964736911e+02
3.0375905455396048e+02
3.0382410171680175e+02
3.0387268196947593e+02
3.0391212378538938e+02
3.0394355341583247e+02
3.0396595843486011e+02
3.0398353130795783e+02
3.0399694768830909e+02
3.0400572250194381e+02
3.0401202318757652e+02
3.0401649121254349e+02
3.0401816446467745e+02
3.0401791729849072e+02
3.0401551149705188e+02
3.0401036246640837e+02
3.0400325580988715e+02
3.0399299131396231e+02
3.0397555639849168e+02
3.0395426187978865e+02
3.0392452449288498e+02
3.0388303648437585e+02
3.0382359593451469e+02
3.0376067711974650e+02
3.0364851255051695e+02
3.0348009052324494e+02
3.0324955646865197e+02

SCALARS Heat-Flux float
LOOKUP_TABLE default
3.9516609810612854e+03
2.8385665086825611e+03
2.6022572115893126e+03
2.4931516475626267e+03
2.4453239043337817e+03
2.3958449807585566e+03
2.3825980868052284e+03
2.3611501989063981e+03
2.3617005565363797e+03
2.3571321605028061e+03
2.3515246765018674e+03
2.3567522648205340e+03
2.3579144366784021e+03
2.3575083532879944e+03
2.3618653636782255e+03
2.3636255387893470e+03
2.3621709863880824e+03
2.3632504071094445e+03
2.3624822809098987e+03
2.3609990243130596e+03
2.3610719963151496e+03
2.3567054942250252e+03
2.3488156907391385e+03
2.3533857518013974e+03
2.3467792808762169e+03
2.3440493238980707e+03
2.3474308941440540e+03
2.3841550808756438e+03
2.3459147988214681e+03
2.4329042682700674e+03
2.6812010062792979e+03
3.4061342039589363e+03

