# vtk DataFile Version 2.0

ASCII

DATASET UNSTRUCTURED_GRID

POINTS 32 double 

1.5625000000000000e-02  0.0000000000000000e+00  2.0000000000000004e-01
4.6874999999999993e-02  0.0000000000000000e+00  2.0000000000000004e-01
7.8125000000000000e-02  0.0000000000000000e+00  2.0000000000000004e-01
1.0937499999999999e-01  0.0000000000000000e+00  2.0000000000000004e-01
1.4062500000000000e-01  0.0000000000000000e+00  2.0000000000000004e-01
1.7187500000000000e-01  0.0000000000000000e+00  2.0000000000000004e-01
2.0312500000000000e-01  0.0000000000000000e+00  2.0000000000000004e-01
2.3437500000000000e-01  0.0000000000000000e+00  2.0000000000000004e-01
2.6562500000000000e-01  0.0000000000000000e+00  2.0000000000000004e-01
2.9687499999999994e-01  0.0000000000000000e+00  2.0000000000000004e-01
3.2812500000000000e-01  0.0000000000000000e+00  2.0000000000000004e-01
3.5937499999999994e-01  0.0000000000000000e+00  2.0000000000000004e-01
3.9062500000000000e-01  0.0000000000000000e+00  2.0000000000000004e-01
4.2187499999999994e-01  0.0000000000000000e+00  2.0000000000000004e-01
4.5312500000000006e-01  0.0000000000000000e+00  2.0000000000000004e-01
4.8437500000000000e-01  0.0000000000000000e+00  2.0000000000000004e-01
5.1562499999999989e-01  0.0000000000000000e+00  2.0000000000000004e-01
5.4687500000000000e-01  0.0000000000000000e+00  2.0000000000000004e-01
5.7812499999999989e-01  0.0000000000000000e+00  2.0000000000000004e-01
6.0937500000000000e-01  0.0000000000000000e+00  2.0000000000000004e-01
6.4062499999999989e-01  0.0000000000000000e+00  2.0000000000000004e-01
6.7187499999999989e-01  0.0000000000000000e+00  2.0000000000000004e-01
7.0312500000000000e-01  0.0000000000000000e+00  2.0000000000000004e-01
7.3437499999999989e-01  0.0000000000000000e+00  2.0000000000000004e-01
7.6562500000000000e-01  0.0000000000000000e+00  2.0000000000000004e-01
7.9687499999999989e-01  0.0000000000000000e+00  2.0000000000000004e-01
8.2812499999999989e-01  0.0000000000000000e+00  2.0000000000000004e-01
8.5937500000000000e-01  0.0000000000000000e+00  2.0000000000000004e-01
8.9062500000000000e-01  0.0000000000000000e+00  2.0000000000000004e-01
9.2187500000000000e-01  0.0000000000000000e+00  2.0000000000000004e-01
9.5312499999999989e-01  0.0000000000000000e+00  2.0000000000000004e-01
9.8437500000000011e-01  0.0000000000000000e+00  2.0000000000000004e-01

CELLS 0 0


CELL_TYPES 0


POINT_DATA 32

VECTORS VertexNormals double

0.0000000000000000e+00 0.0000000000000000e+00 0.0000000000000000e+00 
0.0000000000000000e+00 0.0000000000000000e+00 0.0000000000000000e+00 
0.0000000000000000e+00 0.0000000000000000e+00 0.0000000000000000e+00 
0.0000000000000000e+00 0.0000000000000000e+00 0.0000000000000000e+00 
0.0000000000000000e+00 0.0000000000000000e+00 0.0000000000000000e+00 
0.0000000000000000e+00 0.0000000000000000e+00 0.0000000000000000e+00 
0.0000000000000000e+00 0.0000000000000000e+00 0.0000000000000000e+00 
0.0000000000000000e+00 0.0000000000000000e+00 0.0000000000000000e+00 
0.0000000000000000e+00 0.0000000000000000e+00 0.0000000000000000e+00 
0.0000000000000000e+00 0.0000000000000000e+00 0.0000000000000000e+00 
0.0000000000000000e+00 0.0000000000000000e+00 0.0000000000000000e+00 
0.0000000000000000e+00 0.0000000000000000e+00 0.0000000000000000e+00 
0.0000000000000000e+00 0.0000000000000000e+00 0.0000000000000000e+00 
0.0000000000000000e+00 0.0000000000000000e+00 0.0000000000000000e+00 
0.0000000000000000e+00 0.0000000000000000e+00 0.0000000000000000e+00 
0.0000000000000000e+00 0.0000000000000000e+00 0.0000000000000000e+00 
0.0000000000000000e+00 0.0000000000000000e+00 0.0000000000000000e+00 
0.0000000000000000e+00 0.0000000000000000e+00 0.0000000000000000e+00 
0.0000000000000000e+00 0.0000000000000000e+00 0.0000000000000000e+00 
0.0000000000000000e+00 0.0000000000000000e+00 0.0000000000000000e+00 
0.0000000000000000e+00 0.0000000000000000e+00 0.0000000000000000e+00 
0.0000000000000000e+00 0.0000000000000000e+00 0.0000000000000000e+00 
0.0000000000000000e+00 0.0000000000000000e+00 0.0000000000000000e+00 
0.0000000000000000e+00 0.0000000000000000e+00 0.0000000000000000e+00 
0.0000000000000000e+00 0.0000000000000000e+00 0.0000000000000000e+00 
0.0000000000000000e+00 0.0000000000000000e+00 0.0000000000000000e+00 
0.0000000000000000e+00 0.0000000000000000e+00 0.0000000000000000e+00 
0.0000000000000000e+00 0.0000000000000000e+00 0.0000000000000000e+00 
0.0000000000000000e+00 0.0000000000000000e+00 0.0000000000000000e+00 
0.0000000000000000e+00 0.0000000000000000e+00 0.0000000000000000e+00 
0.0000000000000000e+00 0.0000000000000000e+00 0.0000000000000000e+00 
0.0000000000000000e+00 0.0000000000000000e+00 0.0000000000000000e+00 

SCALARS Temperature double
LOOKUP_TABLE default
3.0153417372785248e+02
3.0175207506077953e+02
3.0185015663993107e+02
3.0190208783335152e+02
3.0192979450775221e+02
3.0194585833560160e+02
3.0195460190580724e+02
3.0195988318195413e+02
3.0196293348105115e+02
3.0196496472305103e+02
3.0196628894158147e+02
3.0196707939686377e+02
3.0196761534014257e+02
3.0196796815612629e+02
3.0196816300812361e+02
3.0196826892087370e+02
3.0196830123245280e+02
3.0196825147183256e+02
3.0196814559837929e+02
3.0196792667797894e+02
3.0196757106208020e+02
3.0196709224128074e+02
3.0196638151817507e+02
3.0196508020031985e+02
3.0196320109783011e+02
3.0196009485619464e+02
3.0195469195254503e+02
3.0194417564054470e+02
3.0192971809256983e+02
3.0189471404339167e+02
3.0181834520478571e+02
3.0166967919359746e+02

SCALARS Heat-Flux double
LOOKUP_TABLE default
3.9238289090149910e+03
3.1785579670577135e+03
3.1090531802270561e+03
3.1122655484643474e+03
3.1310526649496751e+03
3.1449156743561616e+03
3.1578015955157753e+03
3.1659889736765763e+03
3.1723193278921826e+03
3.1760621266024827e+03
3.1785679012042237e+03
3.1805546983545355e+03
3.1817711534902628e+03
3.1825408153177705e+03
3.1831109440521686e+03
3.1834107527836750e+03
3.1835063153383089e+03
3.1834834105866321e+03
3.1831870535468624e+03
3.1827585251659912e+03
3.1821159417973831e+03
3.1808926015713951e+03
3.1788820524954644e+03
3.1766724437540688e+03
3.1725970353443699e+03
3.1665654896685737e+03
3.1576555360574275e+03
3.1514804838952841e+03
3.1231490393351123e+03
3.1141274844063446e+03
3.1954918176001229e+03
3.6939571111324767e+03

