/*--------------------------------*- C++ -*----------------------------------*\
| =========                 |                                                 |
| \\      /  F ield         | OpenFOAM: The Open Source CFD Toolbox           |
|  \\    /   O peration     | Version:  4.1                                   |
|   \\  /    A nd           | Web:      www.OpenFOAM.org                      |
|    \\/     M anipulation  |                                                 |
\*---------------------------------------------------------------------------*/
FoamFile
{
    version     2.0;
    format      ascii;
    class       surfaceVectorField;
    location    "2";
    object      Uf;
}
// * * * * * * * * * * * * * * * * * * * * * * * * * * * * * * * * * * * * * //

dimensions      [0 1 -1 0 0 0 0];

internalField   nonuniform List<vector> 
5457
(
(9.90888 0.0234308 7.85637e-20)
(9.96519 0.0369222 -2.3064e-20)
(9.80966 0.0287359 9.43856e-22)
(9.92483 0.041995 1.17412e-20)
(9.70126 0.0330356 1.19986e-20)
(9.85921 0.04819 1.22787e-20)
(9.58076 0.0376036 5.38421e-20)
(9.77342 0.0561758 -1.00401e-19)
(9.44842 0.0423277 5.15559e-20)
(9.67395 0.0645871 1.04819e-19)
(9.30474 0.0472133 0)
(9.56279 0.0733146 -2.14252e-19)
(9.14982 0.0523789 -5.9997e-20)
(9.43938 0.0825611 3.32613e-19)
(8.98337 0.0579558 6.76222e-20)
(9.30312 0.0925499 1.14821e-19)
(8.80484 0.0640544 -8.54859e-21)
(9.15375 0.103482 -3.51436e-19)
(8.61354 0.0707705 -3.27134e-19)
(8.9909 0.115502 3.64842e-19)
(8.4087 0.0782094 -1.97102e-19)
(8.81387 0.128765 -3.88971e-19)
(8.18937 0.0864909 3.6505e-19)
(8.62186 0.143459 -1.58758e-21)
(7.95449 0.095748 -1.07283e-19)
(8.41393 0.159791 4.28553e-19)
(7.70286 0.10613 -4.56608e-20)
(8.18899 0.177986 2.65834e-19)
(7.43315 0.117806 3.84765e-19)
(7.94581 0.198294 -2.74567e-19)
(7.14388 0.13097 8.81943e-20)
(7.68302 0.220996 -1.40686e-18)
(6.83344 0.145832 8.52085e-20)
(7.3991 0.246399 2.7652e-18)
(6.50009 0.162626 -7.89564e-19)
(7.09232 0.27482 -1.34916e-18)
(6.14197 0.181616 8.93e-19)
(6.76089 0.306584 -4.21244e-19)
(5.75716 0.203101 5.13763e-19)
(6.40287 0.342036 2.7651e-18)
(5.34361 0.227397 -1.05695e-18)
(6.0161 0.381505 -2.83275e-18)
(4.89927 0.254846 2.48363e-19)
(5.59831 0.425271 0)
(4.42215 0.285838 -2.41334e-20)
(5.14719 0.473555 4.63499e-19)
(3.91033 0.320822 -2.5864e-19)
(4.66027 0.526482 -4.23786e-18)
(3.36199 0.360292 0)
(4.13491 0.584029 2.93676e-18)
(2.77544 0.404684 0)
(3.56799 0.645919 -8.4489e-18)
(2.14883 0.453851 5.69652e-18)
(2.95545 0.711347 1.90124e-17)
(1.47968 0.505719 -2.13256e-19)
(2.29157 0.77785 -4.99939e-18)
(0.754848 0.538584 1.1016e-17)
(1.54095 0.8432 -6.01764e-18)
(0.856771 0.884298 1.45688e-17)
(10.0026 0.0456509 -8.89639e-20)
(9.99726 0.0359077 -1.15533e-19)
(9.97277 0.0584429 2.30857e-20)
(9.9866 0.0546347 7.08803e-20)
(9.92572 0.069588 -1.0269e-19)
(9.95387 0.0691485 -4.85409e-20)
(9.86355 0.0816886 -4.49071e-20)
(9.90077 0.0852083 -2.73804e-22)
(9.78666 0.0944852 -1.67825e-19)
(9.83266 0.102172 2.58563e-19)
(9.69556 0.107974 1.29761e-19)
(9.75185 0.119869 -2.13414e-19)
(9.59042 0.122424 5.03022e-19)
(9.65806 0.138676 -3.27436e-19)
(9.47112 0.138128 -3.13509e-19)
(9.55072 0.158988 5.92452e-20)
(9.33732 0.155344 3.58514e-20)
(9.42975 0.181153 -1.1813e-18)
(9.18856 0.174309 2.88685e-19)
(9.29498 0.205476 7.32463e-19)
(9.02416 0.195286 -1.86185e-19)
(9.14582 0.23229 -4.41077e-19)
(8.84332 0.218568 6.98164e-20)
(8.9816 0.261978 -2.60308e-19)
(8.64507 0.244481 7.98751e-19)
(8.80151 0.29496 -6.66573e-20)
(8.42829 0.273382 2.73358e-20)
(8.60459 0.331699 5.78288e-19)
(8.19171 0.305673 -2.08649e-18)
(8.38974 0.372713 -6.66625e-19)
(7.93389 0.341803 1.34231e-18)
(8.15569 0.418585 -2.47547e-18)
(7.65319 0.382253 1.26135e-18)
(7.90101 0.469977 2.81914e-18)
(7.3478 0.427513 -9.65606e-19)
(7.62407 0.527585 -4.62167e-20)
(7.0158 0.478102 1.50302e-18)
(7.32303 0.592115 1.25693e-20)
(6.65503 0.534569 -6.69529e-19)
(6.9959 0.664364 1.49422e-18)
(6.26312 0.597435 -1.73307e-18)
(6.6404 0.745163 -1.01292e-18)
(5.83744 0.667169 2.21285e-19)
(6.25386 0.835294 3.15444e-18)
(5.37516 0.744198 -3.81429e-18)
(5.8333 0.935524 -1.00629e-17)
(4.87304 0.828944 -9.60998e-19)
(5.37524 1.04663 3.28928e-18)
(4.32709 0.92193 -5.62471e-18)
(4.87539 1.1695 2.95315e-18)
(3.73171 1.02407 1.07372e-17)
(4.32783 1.30537 -7.53241e-18)
(3.07769 1.13775 8.3445e-18)
(3.72375 1.45669 1.8092e-17)
(2.34562 1.27091 -1.08553e-17)
(3.05027 1.62986 -7.61269e-18)
(1.4895 1.46725 -1.54435e-18)
(2.27462 1.84349 0)
(1.41211 2.18133 9.7659e-19)
(9.99523 0.0482536 4.82024e-20)
(9.99501 0.0378416 -4.60807e-20)
(9.96895 0.0686066 -3.57385e-21)
(9.98171 0.0657511 4.71026e-19)
(9.92521 0.087543 5.50052e-20)
(9.94983 0.0885781 -4.85513e-20)
(9.86753 0.107692 3.08939e-19)
(9.89954 0.112088 1.00793e-19)
(9.79666 0.129009 2.02921e-19)
(9.8349 0.136746 -2.0462e-19)
(9.71299 0.151612 -6.73056e-19)
(9.75816 0.162558 -6.05812e-22)
(9.61661 0.175899 -7.63552e-19)
(9.66934 0.190037 -4.44499e-19)
(9.50746 0.202276 -8.33145e-19)
(9.56797 0.21969 7.87042e-19)
(9.38538 0.231133 -4.47663e-19)
(9.45408 0.251945 -5.31657e-21)
(9.25001 0.262872 -1.96506e-20)
(9.32759 0.287272 7.30439e-19)
(9.1008 0.297937 -5.11887e-19)
(9.18803 0.326185 -1.24204e-18)
(8.93708 0.336817 -3.93306e-19)
(9.0349 0.369229 -2.58705e-21)
(8.75805 0.380058 -2.75663e-19)
(8.86758 0.417016 9.37614e-19)
(8.56276 0.428268 -1.37873e-19)
(8.68531 0.470226 -4.02562e-19)
(8.35011 0.482131 -1.08678e-18)
(8.48722 0.529623 -8.5206e-19)
(8.11886 0.542431 -9.08649e-19)
(8.2723 0.596076 -1.06891e-18)
(7.86755 0.610038 1.4631e-18)
(8.03936 0.670603 1.37894e-19)
(7.59446 0.685856 9.34802e-19)
(7.78715 0.754325 1.30557e-18)
(7.29773 0.770846 2.63305e-20)
(7.51404 0.848375 -3.43477e-19)
(6.97523 0.866072 1.11242e-18)
(7.21817 0.954058 -4.52027e-18)
(6.62443 0.972642 3.93958e-18)
(6.89753 1.07286 6.09887e-18)
(6.24227 1.09169 -7.30936e-18)
(6.54949 1.20634 3.9064e-18)
(5.82513 1.22444 -2.80936e-18)
(6.17083 1.35621 -1.65767e-17)
(5.3685 1.37231 7.22052e-18)
(5.75757 1.52449 1.29271e-17)
(4.86627 1.53736 9.60112e-19)
(5.30451 1.71385 2.52694e-18)
(4.30943 1.72331 -5.93806e-20)
(4.80442 1.92836 -1.39821e-17)
(3.68408 1.93824 2.10933e-18)
(4.24672 2.17516 -2.91642e-18)
(2.9658 2.19332 3.19461e-18)
(3.61366 2.46979 1.60422e-17)
(2.15688 2.55386 2.55644e-18)
(2.92431 2.80717 0)
(1.93369 3.41801 -1.76605e-18)
(9.99076 0.0556351 3.87375e-19)
(9.9937 0.0415893 -9.20908e-20)
(9.96454 0.0848971 4.13918e-19)
(9.97836 0.0768571 9.46066e-20)
(9.92153 0.11229 6.24531e-22)
(9.94608 0.107701 3.8625e-19)
(9.86472 0.140361 -4.19499e-19)
(9.89673 0.138587 1.99625e-19)
(9.79515 0.169622 -4.03897e-19)
(9.83343 0.170722 -4.11177e-19)
(9.71319 0.200474 2.18832e-19)
(9.75815 0.204413 -2.12641e-19)
(9.61906 0.233474 1.13127e-18)
(9.67113 0.24026 -2.20741e-19)
(9.51281 0.269151 1.59972e-18)
(9.57216 0.278852 4.49937e-19)
(9.39437 0.308029 1.18734e-18)
(9.46129 0.320722 1.16284e-18)
(9.26349 0.350679 -5.29322e-19)
(9.33841 0.366484 9.66846e-19)
(9.1198 0.397705 -7.10004e-19)
(9.20322 0.416779 4.92282e-19)
(8.96284 0.449774 1.34592e-18)
(9.05538 0.472289 -1.77854e-18)
(8.79203 0.507629 7.87333e-19)
(8.89445 0.533782 4.23657e-18)
(8.60669 0.572102 -1.12501e-18)
(8.71992 0.602117 -2.15303e-18)
(8.40601 0.644129 -8.38022e-19)
(8.53111 0.678271 -1.13476e-18)
(8.18909 0.724789 -1.35368e-21)
(8.32734 0.763343 -2.34324e-18)
(7.95492 0.815331 -1.31022e-21)
(8.10766 0.858607 5.11755e-18)
(7.70224 0.917123 0)
(7.87141 0.965578 -3.10058e-18)
(7.42949 1.03164 -4.95687e-18)
(7.6174 1.08588 0)
(7.13495 1.16055 6.16314e-19)
(7.34402 1.2213 -5.56148e-18)
(6.81651 1.30576 6.04192e-18)
(7.04984 1.37398 5.36437e-18)
(6.47139 1.4694 -5.61242e-18)
(6.7328 1.54638 2.70714e-20)
(6.096 1.65399 -5.24204e-19)
(6.39016 1.74139 -7.02693e-18)
(5.68566 1.86272 8.14548e-18)
(6.01836 1.96258 6.42497e-18)
(5.23402 2.10002 -1.24963e-17)
(5.61263 2.21471 2.50937e-18)
(4.73206 2.37264 -1.69531e-17)
(5.16656 2.50457 -1.34268e-17)
(4.16772 2.69329 1.08295e-17)
(4.67238 2.84173 -1.88898e-18)
(3.51374 3.06728 1.32498e-17)
(4.10305 3.25062 1.30113e-17)
(2.83419 3.54469 -4.3964e-18)
(3.57656 3.65433 -1.61389e-18)
(2.48888 4.45919 2.65009e-17)
(9.98835 0.063528 -3.81021e-19)
(9.99302 0.0463176 3.20681e-19)
(9.96163 0.100133 7.36982e-20)
(9.97644 0.0881865 -7.04048e-19)
(9.91931 0.134809 5.81119e-19)
(9.94393 0.126547 8.75962e-22)
(9.86342 0.169997 1.94695e-19)
(9.89548 0.164686 -1.97985e-19)
(9.79509 0.206644 -2.15663e-19)
(9.83359 0.204138 4.06712e-19)
(9.71473 0.245365 -6.52499e-19)
(9.75993 0.245516 -2.11232e-19)
(9.62262 0.286806 -8.88972e-19)
(9.67488 0.28949 -5.25583e-21)
(9.51888 0.331586 2.65698e-20)
(9.57839 0.336736 -1.12305e-18)
(9.40342 0.380338 9.38488e-19)
(9.47045 0.387925 1.37428e-18)
(9.27604 0.433741 1.98013e-18)
(9.35097 0.443777 2.4096e-19)
(9.13651 0.492509 -6.17378e-19)
(9.21977 0.505028 1.24065e-18)
(8.98449 0.557425 1.21942e-18)
(9.07659 0.572464 -4.0592e-18)
(8.8196 0.629381 1.18472e-18)
(8.92116 0.646979 3.14338e-18)
(8.64134 0.709383 -2.14626e-18)
(8.7531 0.729599 2.3554e-19)
(8.44914 0.79857 -2.66084e-18)
(8.57194 0.821485 -2.8215e-19)
(8.24234 0.898218 2.89773e-18)
(8.37718 0.923931 -4.07285e-18)
(8.02031 1.00985 1.89231e-18)
(8.16818 1.03836 7.46419e-18)
(7.78232 1.13526 -3.05754e-18)
(7.94449 1.16659 -1.89244e-18)
(7.52725 1.27639 -6.81357e-19)
(7.70556 1.31076 5.04709e-18)
(7.2538 1.43545 -6.63277e-19)
(7.45027 1.4731 -5.81498e-18)
(6.96056 1.6151 -7.29317e-19)
(7.1776 1.65626 -6.62846e-19)
(6.64554 1.81852 -1.45898e-18)
(6.88637 1.86359 -1.31227e-17)
(6.30595 2.04958 4.37414e-20)
(6.57471 2.09912 -1.49867e-19)
(5.93811 2.31325 7.45318e-19)
(6.24022 2.36789 1.08264e-17)
(5.5371 2.6162 1.5801e-18)
(5.87968 2.67644 -2.96302e-18)
(5.09635 2.96698 1.65014e-18)
(5.48868 3.03354 -1.36358e-18)
(4.61056 3.37934 3.29194e-20)
(5.06599 3.44746 3.01212e-18)
(4.0464 3.8479 -1.57825e-18)
(4.56563 3.9543 0)
(3.50474 4.38259 3.08826e-17)
(4.23273 4.37462 1.25093e-18)
(3.065 5.30636 3.07618e-17)
(9.98707 0.0718392 -2.30097e-20)
(9.9927 0.051565 5.30491e-22)
(9.96002 0.115312 -7.60558e-19)
(9.9755 0.0996766 -5.61172e-19)
(9.91848 0.15716 -7.82996e-19)
(9.94305 0.145071 -1.93975e-19)
(9.86381 0.199574 2.7148e-20)
(9.89566 0.190257 -3.97246e-19)
(9.79707 0.243699 3.9821e-19)
(9.83543 0.236843 4.06895e-19)
(9.71872 0.290287 4.40459e-19)
(9.76377 0.285677 0)
(9.62906 0.340062 -2.61367e-19)
(9.68114 0.33752 4.30687e-19)
(9.52822 0.393744 2.73193e-19)
(9.58754 0.393151 -6.71315e-19)
(9.41611 0.45208 6.55333e-19)
(9.48293 0.453368 9.13984e-19)
(9.29262 0.515841 -4.80875e-19)
(9.36729 0.518971 -2.36775e-19)
(9.15758 0.585831 -2.29772e-18)
(9.24055 0.590769 -2.44187e-19)
(9.01079 0.662947 -2.00943e-18)
(9.10254 0.669642 -2.51752e-18)
(8.85197 0.748219 2.1437e-18)
(8.95305 0.756604 2.03014e-18)
(8.68076 0.842819 2.09455e-18)
(8.79181 0.852834 3.94156e-20)
(8.49677 0.948065 -1.75505e-18)
(8.61851 0.959637 2.17825e-18)
(8.29955 1.06542 6.73343e-19)
(8.43283 1.07848 -5.75457e-19)
(8.08864 1.19658 3.53798e-18)
(8.23447 1.21097 -2.22985e-18)
(7.86368 1.34367 6.32334e-18)
(8.02291 1.35909 6.24628e-19)
(7.62416 1.50908 -2.26173e-19)
(7.79812 1.5253 5.06194e-18)
(7.36929 1.6955 -5.76248e-18)
(7.55975 1.71234 -5.15961e-18)
(7.09824 1.90623 -1.32075e-17)
(7.30706 1.92332 -1.2944e-18)
(6.80996 2.14536 -1.17429e-17)
(7.03966 2.1623 -9.83844e-18)
(6.5029 2.41796 1.07108e-17)
(6.75681 2.43424 1.26612e-17)
(6.17507 2.73035 7.12957e-18)
(6.45748 2.74531 6.68588e-19)
(5.82402 3.0905 -5.93649e-18)
(6.14066 3.10317 -2.22461e-19)
(5.4461 3.50726 -7.13743e-20)
(5.80397 3.51765 1.89296e-17)
(5.04378 3.99286 3.06249e-18)
(5.45521 3.99245 -1.99582e-17)
(4.57592 4.53131 2.80885e-18)
(5.01899 4.58095 -1.27603e-18)
(4.14648 5.07803 2.69859e-18)
(4.87671 4.98722 1.60279e-18)
(3.6381 5.99707 -6.74864e-19)
(9.98649 0.0803655 -5.49189e-19)
(9.99259 0.0570499 -2.75308e-19)
(9.95941 0.130355 1.42119e-20)
(9.97521 0.111196 -9.31366e-20)
(9.91879 0.179058 1.87414e-19)
(9.94315 0.163221 7.65404e-19)
(9.8656 0.228441 0)
(9.897 0.215186 -3.91781e-19)
(9.80078 0.279744 0)
(9.83867 0.268679 0)
(9.72483 0.333855 -1.08395e-21)
(9.76935 0.324705 0)
(9.63805 0.391608 -1.04145e-21)
(9.68954 0.384139 -4.27249e-19)
(9.54053 0.453839 0)
(9.5992 0.447883 0)
(9.43224 0.521383 0)
(9.49831 0.516818 0)
(9.31318 0.595084 0)
(9.38701 0.591781 -2.31815e-18)
(9.18327 0.675836 -5.03495e-19)
(9.26533 0.673661 4.27598e-18)
(9.04237 0.764645 1.60275e-18)
(9.13314 0.763463 -1.95058e-18)
(8.89024 0.862666 -1.08015e-19)
(8.99024 0.862318 2.05564e-18)
(8.72669 0.9712 1.54927e-19)
(8.83649 0.971514 -2.0953e-18)
(8.55147 1.0917 3.31954e-18)
(8.67178 1.09246 6.44822e-18)
(8.36437 1.22579 -3.50488e-18)
(8.49588 1.22676 -7.01519e-18)
(8.16511 1.37536 -5.1153e-18)
(8.30884 1.37625 -6.92645e-19)
(7.9535 1.54269 -5.86209e-19)
(8.11024 1.54305 4.59013e-18)
(7.72954 1.73058 0)
(7.90022 1.72979 4.81747e-20)
(7.49302 1.94218 -6.36581e-19)
(7.67906 1.93966 -4.78632e-18)
(7.24366 2.18131 2.02271e-18)
(7.44649 2.17626 6.03293e-19)
(6.98133 2.45272 1.4781e-17)
(7.20286 2.4441 2.61616e-18)
(6.70581 2.76233 2.59307e-18)
(6.94847 2.74882 1.21239e-17)
(6.41693 3.11737 -6.77211e-18)
(6.68375 3.09734 -1.97345e-17)
(6.11495 3.52635 2.4605e-17)
(6.40983 3.49787 -7.46101e-18)
(5.79871 3.99701 -2.2479e-19)
(6.12573 3.96075 4.4757e-17)
(5.47686 4.53908 -2.49473e-17)
(5.84996 4.48235 -2.32291e-17)
(5.10095 5.12898 -2.58418e-18)
(5.46922 5.13901 1.82538e-17)
(4.75 5.66275 -1.92932e-18)
(5.49692 5.51781 -1.95509e-17)
(4.1927 6.56853 -4.50319e-20)
(9.98632 0.0889374 1.84546e-19)
(9.9926 0.0626047 7.26684e-19)
(9.95952 0.145159 6.78351e-19)
(9.97533 0.122614 -7.40467e-19)
(9.91999 0.200397 1.6018e-19)
(9.94395 0.180924 7.63948e-19)
(9.86852 0.256478 -3.83406e-19)
(9.89925 0.239372 -3.9201e-19)
(9.80591 0.314698 0)
(9.843 0.299509 0)
(9.7327 0.376068 -4.3492e-19)
(9.7763 0.362446 0)
(9.64913 0.441541 -4.18019e-19)
(9.69958 0.429192 -4.26494e-19)
(9.55528 0.512038 0)
(9.61281 0.50076 0)
(9.45125 0.588437 -2.36178e-18)
(9.51612 0.578048 -1.78654e-18)
(9.33716 0.671639 2.07633e-18)
(9.40973 0.661917 1.79134e-18)
(9.21299 0.762651 2.72345e-18)
(9.29368 0.753374 1.94374e-18)
(9.07862 0.862595 -1.43224e-18)
(9.16792 0.853562 -1.45745e-18)
(8.93391 0.972725 0)
(9.03231 0.963705 0)
(8.77879 1.09444 4.33581e-18)
(8.88685 1.08515 0)
(8.6132 1.22929 -4.09236e-18)
(8.73158 1.21942 1.01909e-19)
(8.43709 1.37909 -4.11968e-18)
(8.56641 1.36822 -8.76182e-18)
(8.25048 1.5459 9.10416e-18)
(8.39152 1.53357 3.85846e-18)
(8.05332 1.7322 5.18228e-18)
(8.20687 1.71783 4.60071e-18)
(7.84581 1.94099 -4.79592e-18)
(8.01273 1.92378 9.13093e-18)
(7.62831 2.17581 -3.50876e-18)
(7.80966 2.15483 -1.05611e-17)
(7.40122 2.44092 1.21228e-18)
(7.59809 2.41498 7.60613e-20)
(7.16525 2.74155 -3.95346e-20)
(7.37899 2.70913 -1.21527e-18)
(6.92144 3.08416 -1.026e-17)
(7.15364 3.04341 7.15937e-18)
(6.67128 3.47638 -2.05337e-17)
(6.92376 3.42514 -1.98181e-17)
(6.41724 3.92683 1.2013e-17)
(6.69233 3.86255 7.29788e-18)
(6.15979 4.44162 2.31913e-17)
(6.45863 4.36666 2.15595e-17)
(5.91164 5.02755 1.91286e-17)
(6.25296 4.92449 -2.65973e-19)
(5.61855 5.65749 2.83638e-18)
(5.91867 5.63942 3.07636e-18)
(5.31474 6.17393 -1.60598e-17)
(6.08933 5.99273 -3.30515e-17)
(4.72382 7.06928 1.83349e-17)
(9.98638 0.097436 -2.28243e-19)
(9.99267 0.0681404 -8.12872e-19)
(9.96012 0.159631 -6.20179e-19)
(9.97573 0.133821 6.42717e-19)
(9.92185 0.221098 1.85799e-19)
(9.94529 0.198102 5.69156e-19)
(9.87228 0.283596 0)
(9.90223 0.262738 -3.87521e-19)
(9.81209 0.348457 0)
(9.84825 0.329244 7.9794e-19)
(9.74182 0.416794 0)
(9.7844 0.398803 -8.14437e-19)
(9.66174 0.48967 0)
(9.71103 0.472543 1.25761e-18)
(9.57201 0.568063 -1.82068e-18)
(9.62822 0.551556 -8.55778e-19)
(9.47281 0.652873 2.43311e-18)
(9.53626 0.636749 -1.78831e-18)
(9.36428 0.745073 1.663e-18)
(9.43533 0.729038 4.56647e-18)
(9.24646 0.845792 -2.29952e-18)
(9.32546 0.829552 -2.34031e-18)
(9.11929 0.956259 0)
(9.20672 0.93954 -4.72104e-19)
(8.98277 1.0778 0)
(9.07908 1.06029 0)
(8.83695 1.21189 -4.23877e-18)
(8.94267 1.1932 -3.98722e-18)
(8.68191 1.36021 -4.69941e-18)
(8.79763 1.33991 3.64651e-19)
(8.51773 1.52468 -6.07536e-19)
(8.6441 1.50226 -4.73299e-18)
(8.34462 1.70756 -6.51387e-19)
(8.48222 1.68239 4.17039e-18)
(8.16287 1.9115 8.59757e-18)
(8.31237 1.88283 -3.85851e-18)
(7.97292 2.13969 3.20744e-18)
(8.13516 2.10657 4.69071e-18)
(7.77554 2.39592 -6.90593e-18)
(7.95134 2.35714 -4.72406e-18)
(7.57177 2.68478 -2.36899e-18)
(7.76193 2.63887 8.89423e-18)
(7.36313 3.01182 6.00865e-18)
(7.56849 2.95695 -1.20445e-18)
(7.15169 3.38388 -2.2772e-18)
(7.37314 3.31781 8.37068e-18)
(6.9403 3.80869 7.88429e-18)
(7.17869 3.72907 8.15736e-18)
(6.73313 4.29477 1.67205e-17)
(6.9897 4.1987 -7.09715e-19)
(6.531 4.84694 -1.51128e-18)
(6.8044 4.73891 -1.30392e-18)
(6.34846 5.4691 -1.68468e-17)
(6.66522 5.32644 -1.59819e-17)
(6.12781 6.13455 -3.15272e-17)
(6.37046 6.09386 1.27052e-17)
(5.84987 6.64531 7.33735e-18)
(6.65901 6.43509 -3.03516e-17)
(5.23746 7.54676 1.84854e-17)
(9.98661 0.105773 8.77911e-20)
(9.99281 0.0735846 -1.53807e-18)
(9.96112 0.173683 1.83126e-18)
(9.97638 0.14472 8.3392e-19)
(9.92431 0.241081 -2.56048e-20)
(9.94709 0.214677 -3.72566e-19)
(9.87682 0.309705 4.35976e-19)
(9.90587 0.285198 -1.15813e-18)
(9.81929 0.38091 -4.97021e-20)
(9.85439 0.357773 7.98516e-19)
(9.75225 0.455889 4.84378e-19)
(9.79369 0.433633 -2.89071e-21)
(9.67604 0.53579 3.61688e-19)
(9.72401 0.513998 -1.23085e-18)
(9.59089 0.621637 -8.40451e-19)
(9.64558 0.600021 4.14727e-19)
(9.49702 0.71437 4.58189e-19)
(9.55881 0.692638 4.33999e-19)
(9.39459 0.81505 4.42555e-19)
(9.46377 0.792849 1.7917e-18)
(9.28364 0.924908 -4.80183e-19)
(9.36054 0.901883 -1.81549e-18)
(9.16428 1.04525 -4.65092e-19)
(9.24932 1.02104 4.58548e-19)
(9.03661 1.17746 -4.0507e-18)
(9.13024 1.15167 3.8229e-18)
(8.90079 1.32309 6.80395e-19)
(9.0035 1.29525 -7.86808e-18)
(8.75705 1.48393 2.72397e-19)
(8.86938 1.45349 8.04157e-18)
(8.60563 1.66202 1.51765e-19)
(8.72819 1.62838 -1.17435e-17)
(8.44689 1.85973 8.78833e-19)
(8.5802 1.82215 3.17437e-18)
(8.28147 2.07991 -7.71208e-18)
(8.42609 2.03743 2.98354e-18)
(8.11018 2.32591 -3.34386e-18)
(8.26682 2.27738 -8.65314e-18)
(7.93416 2.6017 1.11916e-17)
(8.10341 2.54573 -7.46536e-18)
(7.75496 2.91213 1.00793e-17)
(7.93739 2.84702 1.75898e-17)
(7.57477 3.26302 1.13688e-18)
(7.77085 3.18672 -1.05525e-18)
(7.39662 3.66136 1.8866e-17)
(7.60666 3.57142 1.00266e-19)
(7.22431 4.11506 -2.92601e-19)
(7.44847 4.00899 1.79223e-17)
(7.06319 4.63264 -1.89379e-17)
(7.30227 4.50723 -1.86626e-17)
(6.91369 5.21847 -1.54317e-17)
(7.16424 5.08035 -1.5115e-17)
(6.78965 5.87398 1.31014e-17)
(7.08858 5.69522 -1.35717e-18)
(6.63339 6.5762 1.52852e-17)
(6.8306 6.51278 2.98264e-17)
(6.37391 7.10193 -1.32015e-17)
(7.21854 6.86134 -3.29518e-18)
(5.74799 8.03226 -2.13207e-20)
(9.98701 0.113869 -7.43969e-19)
(9.99304 0.0788692 6.30838e-19)
(9.96249 0.187234 -1.39911e-18)
(9.97725 0.155233 -6.4474e-19)
(9.9273 0.26026 -1.52315e-18)
(9.94928 0.230572 -7.50157e-19)
(9.8821 0.334694 -7.54198e-19)
(9.91009 0.306652 3.81009e-19)
(9.82754 0.411912 8.29081e-19)
(9.8614 0.384951 -3.91812e-19)
(9.7641 0.493172 -1.74275e-18)
(9.80419 0.466752 8.12853e-19)
(9.69214 0.579686 -1.14794e-18)
(9.73851 0.553357 -2.49016e-18)
(9.61196 0.672523 1.69104e-18)
(9.6648 0.645949 8.5126e-19)
(9.52383 0.772685 1.79204e-18)
(9.58355 0.745509 3.59324e-21)
(9.42787 0.881324 -5.27153e-19)
(9.4947 0.853145 1.34299e-18)
(9.32423 0.999733 -8.41024e-19)
(9.39849 0.970138 -3.61931e-18)
(9.21314 1.12926 4.80244e-18)
(9.29525 1.09781 2.2991e-18)
(9.09485 1.27133 -1.59256e-19)
(9.18522 1.23755 3.36512e-18)
(8.96964 1.4276 -2.90741e-19)
(9.06873 1.39092 -3.88099e-18)
(8.83787 1.59994 -4.22815e-18)
(8.94616 1.55971 3.49256e-18)
(8.69998 1.79051 -8.56587e-18)
(8.81798 1.74602 -8.57142e-18)
(8.55655 2.00178 5.27727e-18)
(8.68473 1.95217 9.3656e-19)
(8.40847 2.23672 1.97192e-18)
(8.54733 2.18087 8.28972e-18)
(8.25691 2.4988 -1.2787e-17)
(8.40695 2.43539 -4.22342e-18)
(8.1034 2.79218 -1.02429e-18)
(8.26503 2.71965 -7.56222e-18)
(7.94999 3.12194 6.43362e-18)
(8.12356 3.03836 7.52793e-18)
(7.79948 3.49415 -2.1068e-18)
(7.98517 3.39723 8.99771e-18)
(7.65565 3.91596 -1.05766e-18)
(7.85341 3.80309 -1.06313e-18)
(7.52308 4.39554 2.89173e-20)
(7.73258 4.26412 -7.71282e-18)
(7.40784 4.94194 -1.48621e-17)
(7.63007 4.78818 9.64722e-19)
(7.30995 5.56 -1.3711e-18)
(7.53952 5.39206 -2.89637e-17)
(7.24013 6.25004 1.48928e-17)
(7.52588 6.03517 4.04484e-17)
(7.14523 6.99441 1.23417e-17)
(7.3076 6.90223 -2.43398e-17)
(6.90768 7.56171 8.93291e-18)
(7.78385 7.28219 2.4158e-17)
(6.27487 8.54663 -1.28858e-17)
(9.98755 0.121659 7.04887e-19)
(9.99337 0.0839387 1.43347e-18)
(9.96414 0.200211 2.30182e-21)
(9.97831 0.165294 0)
(9.93074 0.278541 1.18014e-18)
(9.95181 0.245714 4.63853e-21)
(9.8881 0.358429 7.27696e-19)
(9.91486 0.326987 1.9132e-18)
(9.83682 0.441297 -3.8404e-19)
(9.86922 0.410623 -3.92135e-19)
(9.7773 0.528467 1.67479e-21)
(9.81573 0.498013 -7.95168e-19)
(9.70985 0.621182 -4.27779e-19)
(9.75424 0.590493 4.09659e-19)
(9.6349 0.720547 -8.52904e-19)
(9.68551 0.689213 -4.21813e-19)
(9.55273 0.827644 -4.23843e-19)
(9.60997 0.795238 -4.31433e-19)
(9.46355 0.943689 -1.83164e-18)
(9.52758 0.909766 4.32103e-19)
(9.36761 1.07 -3.86466e-19)
(9.43879 1.03408 -1.80388e-18)
(9.26528 1.20794 8.74947e-19)
(9.344 1.16952 -3.14104e-18)
(9.15691 1.35902 -4.59375e-19)
(9.24354 1.31754 7.32206e-18)
(9.04291 1.52497 0)
(9.13784 1.47977 -7.44653e-18)
(8.92377 1.70775 -9.90316e-19)
(9.02739 1.6581 3.7656e-18)
(8.80013 1.90959 1.04551e-18)
(8.91284 1.85467 3.81516e-18)
(8.67285 2.13303 4.01324e-18)
(8.79506 2.07184 -6.6972e-18)
(8.54303 2.38111 2.00513e-18)
(8.67516 2.31241 1.27167e-17)
(8.41217 2.65745 1.01638e-18)
(8.55458 2.57976 -8.75718e-18)
(8.28224 2.96636 1.02994e-18)
(8.43514 2.87793 7.8238e-18)
(8.15579 3.31311 1.00859e-17)
(8.31931 3.21178 9.86281e-19)
(8.03621 3.70401 1.0158e-17)
(8.21029 3.58724 9.13753e-18)
(7.92791 4.14656 -7.66267e-18)
(8.11228 4.0114 -6.5062e-18)
(7.83617 4.64937 -6.95161e-18)
(8.03024 4.49292 -2.19299e-17)
(7.76753 5.22263 -1.25124e-17)
(7.97288 5.04023 2.05075e-18)
(7.72239 5.8724 1.11895e-17)
(7.93175 5.67264 -1.04789e-18)
(7.70612 6.60107 2.02599e-18)
(7.9806 6.3468 3.72893e-17)
(7.67567 7.39687 -1.33835e-17)
(7.81218 7.26276 -2.43573e-17)
(7.47312 8.0469 -2.97889e-18)
(8.37509 7.70645 -8.04347e-18)
(6.84355 9.13147 -1.43448e-18)
(9.98824 0.129083 6.99541e-19)
(9.99375 0.0887319 1.79824e-19)
(9.96606 0.212549 2.43503e-21)
(9.97952 0.174857 -1.80898e-19)
(9.93461 0.295837 7.79848e-19)
(9.95462 0.260037 7.43554e-19)
(9.89472 0.380799 7.44683e-19)
(9.92009 0.346112 -7.54629e-19)
(9.84691 0.468955 -8.11475e-19)
(9.87761 0.434711 7.72128e-19)
(9.79143 0.561681 -3.64321e-19)
(9.82786 0.52736 -7.92658e-19)
(9.72865 0.660192 4.00754e-19)
(9.77077 0.625334 -1.20832e-18)
(9.65911 0.765612 0)
(9.70727 0.729719 1.64208e-18)
(9.58317 0.879107 4.39592e-19)
(9.63769 0.841685 0)
(9.50112 1.00193 4.25586e-19)
(9.56213 0.962489 4.04127e-21)
(9.41337 1.13542 -4.58087e-18)
(9.48121 1.09342 -1.74503e-18)
(9.32031 1.28098 3.4541e-18)
(9.39529 1.23585 -9.84578e-19)
(9.22238 1.44019 1.44757e-19)
(9.30485 1.39131 7.80445e-18)
(9.1201 1.61483 -3.55404e-18)
(9.21036 1.56147 -8.37051e-18)
(9.01413 1.80692 8.58477e-18)
(9.11248 1.74827 4.69226e-18)
(8.90535 2.01871 -4.02691e-18)
(9.01212 1.95382 3.88618e-18)
(8.79489 2.2528 2.13987e-18)
(8.9104 2.18056 -1.2476e-17)
(8.68412 2.51233 1.84764e-18)
(8.80866 2.43135 6.03769e-18)
(8.57486 2.80098 -1.91461e-18)
(8.70863 2.70964 -3.60341e-19)
(8.46948 3.12321 7.80627e-18)
(8.61254 3.01954 6.84363e-18)
(8.37108 3.48443 -8.95442e-21)
(8.52334 3.36604 9.20792e-18)
(8.28363 3.89119 -7.45848e-18)
(8.44481 3.75523 -8.19283e-18)
(8.21223 4.35142 -2.06254e-17)
(8.38186 4.19444 3.5257e-19)
(8.16289 4.87456 -1.33916e-17)
(8.34026 4.69296 -2.09226e-17)
(8.14269 5.47229 1.36903e-17)
(8.33008 5.26013 3.24895e-19)
(8.15375 6.15274 2.41903e-17)
(8.34228 5.91721 1.28422e-17)
(8.19485 6.92508 1.13135e-17)
(8.45651 6.62509 2.20698e-17)
(8.24081 7.78442 -1.90476e-17)
(8.35832 7.58639 -9.78598e-18)
(8.1053 8.5798 -4.35729e-18)
(9.01986 8.13454 -1.97036e-17)
(7.49269 9.83758 1.17107e-17)
(9.98899 0.136097 -7.0875e-19)
(9.99403 0.0932287 1.71276e-19)
(9.96817 0.224192 5.81795e-19)
(9.98081 0.183873 -8.99441e-19)
(9.93882 0.312089 -8.24561e-19)
(9.9577 0.273479 1.47584e-18)
(9.90174 0.401754 -6.96051e-19)
(9.9257 0.364003 -1.51699e-18)
(9.85737 0.494831 7.60474e-19)
(9.88638 0.457228 7.72851e-19)
(9.80603 0.592713 -1.64496e-18)
(9.8404 0.554739 3.41099e-21)
(9.74821 0.696561 8.41742e-20)
(9.78804 0.657728 -2.47687e-20)
(9.68442 0.807516 1.61488e-18)
(9.73007 0.767274 1.64403e-18)
(9.61509 0.926814 -4.35935e-19)
(9.66675 0.884621 8.26205e-19)
(9.5406 1.05575 -2.19563e-18)
(9.5984 1.01106 -2.11909e-18)
(9.46141 1.19566 1.86585e-18)
(9.52562 1.14791 -3.93158e-20)
(9.37797 1.34803 3.4891e-18)
(9.44886 1.29658 6.15188e-18)
(9.29084 1.51445 -9.18442e-19)
(9.36869 1.45863 -3.51337e-18)
(9.20066 1.69672 3.02727e-20)
(9.28575 1.63576 8.72192e-19)
(9.1083 1.89689 -2.59329e-20)
(9.20084 1.82985 1.58299e-20)
(9.01491 2.11722 -4.70437e-18)
(9.11511 2.04304 -1.79618e-20)
(8.92182 2.36036 -8.47221e-18)
(9.0299 2.27781 -4.66362e-18)
(8.83074 2.62946 3.79033e-18)
(8.94682 2.53703 -2.90563e-18)
(8.74379 2.92829 8.44714e-18)
(8.86792 2.82418 9.36642e-18)
(8.66379 3.26138 8.23885e-18)
(8.79585 3.1434 8.82155e-19)
(8.59438 3.63424 1.13738e-18)
(8.73404 3.49971 1.52177e-17)
(8.54019 4.05363 -4.46241e-19)
(8.68693 3.89927 -1.32095e-17)
(8.50709 4.52789 4.30368e-19)
(8.66024 4.34962 6.12956e-18)
(8.5021 5.06745 -7.58994e-18)
(8.66075 4.86055 -6.70388e-18)
(8.53326 5.68523 -8.08338e-19)
(8.70001 5.44204 -7.93719e-19)
(8.60624 6.39258 1.05333e-17)
(8.77092 6.11628 -1.01722e-17)
(8.71447 7.20927 8.01043e-19)
(8.95535 6.85531 2.89023e-17)
(8.86192 8.13646 -9.78479e-18)
(8.95805 7.84677 -1.05788e-17)
(8.85602 9.15607 9.74502e-19)
(9.73323 8.53698 -7.83575e-18)
(8.25589 10.6411 -1.88871e-18)
(9.9897 0.142675 -4.09111e-20)
(9.99421 0.0974448 2.20344e-19)
(9.97043 0.23509 4.91238e-20)
(9.98215 0.192268 -8.99127e-19)
(9.94332 0.327271 7.1825e-19)
(9.96101 0.285981 -6.33588e-19)
(9.90911 0.421305 0)
(9.93165 0.38064 0)
(9.86828 0.518921 1.40023e-22)
(9.89559 0.478133 -7.21468e-19)
(9.82133 0.621507 1.6245e-18)
(9.85362 0.580043 7.33688e-19)
(9.76875 0.730198 1.56629e-18)
(9.80623 0.687544 2.37493e-18)
(9.71102 0.846167 8.4066e-19)
(9.75401 0.801746 -1.52148e-18)
(9.64858 0.970692 -9.04266e-19)
(9.69722 0.923933 6.53754e-20)
(9.58188 1.10509 6.96065e-20)
(9.63629 1.05542 -2.50885e-18)
(9.51144 1.25073 4.33726e-18)
(9.57188 1.19753 1.74367e-18)
(9.43782 1.40909 -9.80867e-19)
(9.50452 1.35169 2.66605e-18)
(9.36172 1.58181 -1.67288e-18)
(9.43492 1.51944 -3.58694e-18)
(9.28398 1.77068 8.51042e-19)
(9.3639 1.70251 -2.32127e-18)
(9.20563 1.97769 2.23791e-20)
(9.29243 1.90274 2.39894e-18)
(9.12799 2.20511 -4.53961e-21)
(9.2218 2.12225 9.96749e-20)
(9.05268 2.45562 9.2683e-19)
(9.15357 2.36348 -9.09267e-19)
(8.9817 2.73234 2.70912e-18)
(9.08964 2.62932 1.84017e-18)
(8.91756 3.03904 1.77977e-18)
(9.03243 2.92319 5.843e-18)
(8.86352 3.38026 7.82052e-18)
(8.985 3.24917 -6.41184e-18)
(8.82378 3.76148 1.06488e-18)
(8.95131 3.61218 7.08456e-18)
(8.80372 4.18952 -6.84984e-18)
(8.93643 4.01827 -8.2194e-19)
(8.81015 4.67303 -8.16788e-19)
(8.94705 4.47497 -9.13572e-19)
(8.8515 5.22279 0)
(8.99104 4.9919 -6.22111e-18)
(8.93731 5.85229 -9.99069e-18)
(9.08173 5.57897 -9.89526e-18)
(9.07884 6.57654 7.48907e-18)
(9.21654 6.25718 -9.80304e-18)
(9.26774 7.42624 1.72652e-17)
(9.4761 7.01278 2.6703e-17)
(9.54694 8.41924 -7.77664e-18)
(9.61932 7.99989 -5.68988e-19)
(9.73968 9.90331 -1.04597e-17)
(10.5947 8.85238 -8.78637e-18)
(10.3929 11.4565 -2.96129e-20)
(0.0677671 -0.0345582 -2.39959e-19)
(0.0172109 -0.0322589 -4.26114e-19)
(0.199581 -0.0482141 -1.16793e-19)
(0.106628 -0.0736557 1.22621e-19)
(0.40217 -0.0545945 7.03331e-20)
(0.278078 -0.0933974 -1.86667e-19)
(0.642505 -0.0554002 5.44577e-20)
(0.498617 -0.100598 2.88425e-20)
(0.872521 -0.0509581 6.57037e-21)
(0.730871 -0.096055 1.61427e-19)
(1.06538 -0.0443431 -8.48136e-20)
(0.938745 -0.0856125 -1.38348e-19)
(1.21829 -0.0376972 -2.58461e-20)
(1.10938 -0.0740171 -1.24615e-19)
(1.33809 -0.0318406 1.20357e-20)
(1.24439 -0.0632041 1.73406e-19)
(1.43274 -0.0270547 0)
(1.35007 -0.0538262 -3.81723e-21)
(1.50953 -0.0231626 0)
(1.43357 -0.0464691 -4.64911e-20)
(1.57262 -0.019472 1.50803e-20)
(1.50128 -0.0400949 0)
(1.62252 -0.0157362 9.43848e-21)
(1.55634 -0.0329781 9.71107e-21)
(1.66052 -0.0126027 -5.10134e-21)
(1.59884 -0.025923 -1.95885e-20)
(1.69059 -0.0106561 0)
(1.62977 -0.021052 0)
(1.71671 -0.00960139 2.14763e-21)
(1.65315 -0.0186617 -4.4212e-21)
(1.73996 -0.00863994 8.60726e-23)
(1.67309 -0.0168871 -4.27707e-21)
(1.75799 -0.0072424 1.88627e-23)
(1.69056 -0.0132845 -2.03866e-21)
(1.76878 -0.00558356 2.71202e-23)
(1.70302 -0.00808728 -8.02565e-21)
(1.77408 -0.00449892 -3.94096e-21)
(1.70819 -0.00407996 6.04756e-21)
(1.77867 -0.00462837 -2.93405e-21)
(1.70713 -0.00357919 5.05034e-23)
(1.78779 -0.00605267 9.44425e-22)
(1.7041 -0.00703637 3.98071e-21)
(1.80531 -0.00850038 1.95844e-21)
(1.70359 -0.0134777 -2.25862e-23)
(1.83285 -0.0115478 0)
(1.70929 -0.0212375 0)
(1.87064 -0.0148975 0)
(1.72351 -0.0292563 -1.9321e-21)
(1.91789 -0.0187467 0)
(1.74716 -0.0367671 9.77209e-23)
(1.97486 -0.0238669 0)
(1.78001 -0.0445355 1.83121e-21)
(2.04305 -0.0309658 -6.26581e-22)
(1.82283 -0.0535603 0)
(2.12531 -0.0398512 -6.25101e-22)
(1.87792 -0.0648877 -1.37718e-21)
(2.22375 -0.048245 2.02423e-22)
(1.94893 -0.0780313 0)
(2.06481 -0.0878365 4.48675e-23)
(0.0437603 -0.0738117 -8.74198e-20)
(0.00150402 -0.0465722 -1.44418e-20)
(0.160538 -0.125791 9.5003e-20)
(0.0685364 -0.14741 3.62839e-20)
(0.355649 -0.148593 -2.41278e-19)
(0.217978 -0.188869 -2.60581e-19)
(0.586928 -0.152303 1.35425e-19)
(0.414839 -0.201361 -2.20101e-19)
(0.809189 -0.141604 7.22315e-22)
(0.622639 -0.191493 3.25114e-19)
(0.99681 -0.124857 -1.805e-19)
(0.807509 -0.17084 5.1982e-20)
(1.14609 -0.107506 8.93699e-20)
(0.956969 -0.148012 -3.2076e-19)