/*--------------------------------*- C++ -*----------------------------------*\
| =========                 |                                                 |
| \\      /  F ield         | OpenFOAM: The Open Source CFD Toolbox           |
|  \\    /   O peration     | Version:  5.x                                   |
|   \\  /    A nd           | Web:      www.OpenFOAM.org                      |
|    \\/     M anipulation  |                                                 |
\*---------------------------------------------------------------------------*/
FoamFile
{
    version     2.0;
    format      ascii;
    class       volScalarField;
    location    "1.7";
    object      p;
}
// * * * * * * * * * * * * * * * * * * * * * * * * * * * * * * * * * * * * * //

dimensions      [0 2 -2 0 0 0 0];

internalField   nonuniform List<scalar> 
2790
(
115.597
115.387
115.507
115.897
116.45
117.128
117.927
118.846
119.882
121.03
122.289
123.656
125.128
126.705
128.383
130.159
132.027
133.981
136.011
138.104
140.243
142.406
144.565
146.684
148.719
150.618
152.32
153.757
154.854
155.547
115.432
115.33
115.469
115.854
116.404
117.08
117.875
118.79
119.82
120.962
122.213
123.571
125.035
126.601
128.268
130.03
131.885
133.825
135.84
137.919
140.045
142.197
144.349
146.466
148.507
150.421
152.152
153.637
154.818
155.701
115.288
115.257
115.411
115.787
116.326
116.993
117.778
118.68
119.695
120.819
122.05
123.385
124.821
126.356
127.987
129.708
131.516
133.403
135.36
137.373
139.427
141.503
143.573
145.606
147.562
149.392
151.038
152.427
153.441
153.873
115.137
115.141
115.308
115.675
116.203
116.858
117.63
118.516
119.511
120.612
121.815
123.117
124.517
126.009
127.59
129.254
130.996
132.807
134.676
136.589
138.53
140.478
142.405
144.278
146.052
147.67
149.052
150.071
150.526
149.568
114.97
114.994
115.171
115.532
116.048
116.688
117.443
118.308
119.277
120.348
121.515
122.777
124.13
125.568
127.086
128.677
130.335
132.049
133.807
135.593
137.388
139.166
140.898
142.543
144.046
145.328
146.27
146.657
146.334
143.382
114.786
114.819
115.001
115.356
115.856
116.479
117.212
118.051
118.99
120.024
121.149
122.363
123.66
125.034
126.478
127.983
129.543
131.145
132.772
134.407
136.026
137.598
139.09
140.448
141.599
142.435
142.797
142.352
141.204
136.047
114.581
114.618
114.802
115.148
115.631
116.233
116.941
117.751
118.654
119.646
120.722
121.88
123.113
124.415
125.774
127.182
128.63
130.103
131.582
133.046
134.463
135.801
137.012
138.032
138.765
139.073
138.765
137.357
135.435
128.188
114.354
114.393
114.574
114.908
115.373
115.951
116.631
117.407
118.27
119.214
120.236
121.331
122.494
123.714
124.979
126.281
127.605
128.934
130.249
131.521
132.718
133.794
134.692
135.331
135.598
135.324
134.301
131.86
129.254
120.251
114.106
114.145
114.32
114.64
115.084
115.635
116.284
117.023
117.84
118.732
119.695
120.722
121.807
122.936
124.1
125.285
126.473
127.648
128.784
129.85
130.806
131.599
132.155
132.383
132.151
131.259
129.51
126.016
122.822
112.502
113.837
113.873
114.04
114.344
114.765
115.287
115.903
116.6
117.368
118.203
119.102
120.056
121.056
122.088
123.142
124.201
125.245
126.254
127.2
128.046
128.745
129.234
129.43
129.226
128.474
126.943
124.468
119.931
116.184
104.766
113.548
113.58
113.737
114.023
114.418
114.91
115.489
116.14
116.855
117.631
118.461
119.337
120.246
121.176
122.113
123.038
123.931
124.766
125.512
126.126
126.554
126.726
126.548
125.897
124.609
122.422
119.217
113.651
109.283
96.7375
113.238
113.266
113.411
113.677
114.045
114.505
115.043
115.646
116.306
117.018
117.776
118.57
119.384
120.206
121.019
121.806
122.541
123.195
123.732
124.106
124.256
124.101
123.538
122.431
120.595
117.739
113.785
107.194
102.037
88.2505
112.91
112.933
113.064
113.308
113.648
114.073
114.57
115.122
115.723
116.37
117.052
117.759
118.474
119.183
119.87
120.514
121.085
121.553
121.878
122.006
121.872
121.386
120.434
118.863
116.474
112.938
108.2
100.581
94.3413
79.0165
112.564
112.582
112.698
112.919
113.229
113.618
114.07
114.57
115.111
115.688
116.293
116.91
117.523
118.117
118.674
119.171
119.576
119.856
119.964
119.846
119.426
118.609
117.269
115.237
112.295
108.082
102.519
93.8611
86.1084
68.6246
112.202
112.213
112.313
112.51
112.791
113.142
113.547
113.992
114.472
114.979
115.502
116.026
116.536
117.014
117.44
117.788
118.026
118.116
118.01
117.646
116.945
115.802
114.083
111.604
108.128
103.266
96.8652
87.222
77.5495
56.5883
5.98357
6.04677
6.07581
6.04595
5.93232
5.73972
5.50057
5.25037
5.01187
4.7958
4.60627
4.44356
4.30204
4.17251
4.05438
3.95507
3.87143
3.78253
3.67441
3.54784
3.40963
3.26107
3.09566
2.90341
2.67452
2.39699
2.05693
1.63781
1.12025
0.488096
5.95703
6.02837
6.05478
6.01854
5.89753
5.69971
5.4587
5.20941
4.97358
4.76092
4.57521
4.41731
4.28049
4.15303
4.03699
3.94346
3.86704
3.77924
3.66879
3.54008
3.40482
3.26368
3.10625
2.9224
2.70237
2.4329
2.09918
1.6828
1.15978
0.501128
5.95641
6.01679
6.03062
5.97939
5.84375
5.63722
5.39472
5.14938
4.92038
4.71496
4.53632
4.3881
4.26105
4.13346
4.0145
3.93057
3.88185
3.81456
3.71288
3.58382
3.44413
3.29728
3.1336
2.94452
2.72053
2.44502
2.10582
1.68514
1.15861
0.492914
5.98147
6.00946
6.00184
5.92928
5.77521
5.56004
5.31924
5.08309
4.86749
4.67421
4.50372
4.36809
4.26543
4.16889
4.06091
3.96436
3.88217
3.81072
3.71909
3.60689
3.47533
3.32873
3.1606
2.96201
2.73098
2.44237
2.0908
1.65762
1.12182
0.451122
5.99751
5.99899
5.96918
5.87379
5.70329
5.48514
5.25266
5.03272
4.83865
4.66999
4.52022
4.39101
4.28463
4.18548
4.09416
4.01442
3.93696
3.85447
3.75579
3.64
3.50538
3.34984
3.17247
2.96404
2.71604
2.4132
2.04543
1.59764
1.0539
0.400569
6.00901
5.98752
5.93722
5.82272
5.642
5.43083
5.2138
5.0139
4.83563
4.68059
4.545
4.42773
4.32389
4.22706
4.1372
4.05633
3.9759
3.88742
3.78386
3.66283
3.52063
3.35569
3.1656
2.94234
2.67702
2.35828
1.97574
1.51686
0.970106
0.337356
6.01913
5.98021
5.91443
5.7875
5.60137
5.39857
5.1972
5.01228
4.84631
4.69866
4.5702
4.45941
4.36009
4.26759
4.18031
4.0969
4.01109
3.91585
3.80559
3.67586
3.52395
3.34802
3.14376
2.90424
2.6215
2.28672
1.89078
1.4233
0.881389
0.293462
6.01387
5.98285
5.90701
5.76618
5.57686
5.37817
5.18659
5.00938
4.85301
4.71597
4.59531
4.48905
4.39292
4.30318
4.21707
4.13138
4.04072
3.93917
3.82144
3.68263
3.52049
3.3326
3.11398
2.85861
2.56
2.21134
1.80454
1.33122
0.799181
0.259128
6.00892
6.00091
5.90915
5.74747
5.5527
5.35266
5.16702
5.00116
4.85391
4.72467
4.61098
4.50996
4.41788
4.33118
4.24646
4.15972
4.06589
3.95948
3.83512
3.68829
3.51663
3.317
3.08465
2.81458
2.50196
2.14159
1.72605
1.24899
0.728596
0.231415
6.02856
6.02964
5.90321
5.71819
5.50984
5.31217
5.13313
4.97587
4.83834
4.71843
4.61331
4.51963
4.43367
4.35173
4.27007
4.18443
4.08982
3.98084
3.85194
3.69892
3.51901
3.30868
3.06371
2.78026
2.45514
2.08444
1.66116
1.1809
0.670907
0.209354
6.07147
6.04938
5.87663
5.65541
5.43419
5.23805
5.06959
4.92551
4.80172
4.69499
4.60201
4.51903
4.44213
4.36755
4.29151
4.20972
4.1172
4.00846
3.8778
3.72086
3.53433
3.31462
3.05811
2.76222
2.42531
2.04459
1.61331
1.12883
0.626116
0.192433
6.11134
6.04112
5.78826
5.52403
5.29777
5.11657
4.97017
4.84817
4.74464
4.65647
4.58037
4.51217
4.44772
4.38342
4.31581
4.24084
4.15348
4.04802
3.91857
3.76014
3.56877
3.34099
3.07373
2.76564
2.41664
2.02503
1.58428
1.09332
0.593782
0.180239
6.14108
5.93119
5.56643
5.28153
5.08156
4.94352
4.8386
4.74974
4.67321
4.60913
4.55499
4.50583
4.45701
4.40555
4.34894
4.28358
4.20437
4.10515
3.97967
3.82215
3.62784
3.39306
3.11536
2.79445
2.43196
2.02742
1.57469
1.07409
0.573131
0.17235
6.05999
5.55705
5.12017
4.88971
4.78242
4.73389
4.69402
4.64523
4.59844
4.56254
4.53544
4.50941
4.47857
4.44142
4.39747
4.34397
4.27547
4.18506
4.06576
3.91136
3.71601
3.47505
3.18666
2.8514
2.47289
2.05234
1.58432
1.07039
0.56325
0.168337
5.78012
4.56854
4.33725
4.33585
4.42648
4.52919
4.57408
4.55559
4.53261
4.52758
4.5335
4.53465
4.52224
4.49874
4.46779
4.42772
4.37211
4.29277
4.18155
4.0313
3.83618
3.59065
3.29056
2.93847
2.54057
2.10012
1.61305
1.08178
0.563335
0.167543
111.819
111.821
111.904
112.077
112.326
112.636
112.992
113.381
113.796
114.23
114.669
115.098
115.501
115.86
116.151
116.348
116.416
116.315
115.993
115.384
114.404
112.943
110.859
107.956
103.984
98.5397
91.3648
80.8675
68.6096
38.0186
111.41
111.401
111.466
111.613
111.828
112.096
112.4
112.73
113.079
113.435
113.786
114.118
114.411
114.646
114.8
114.844
114.741
114.448
113.911
113.062
111.813
110.051
107.63
104.353
99.9699
94.094
86.4247
75.7062
62.9788
51.4312
110.977
110.957
111.002
111.123
111.303
111.525
111.777
112.046
112.324
112.601
112.863
113.094
113.275
113.387
113.402
113.291
113.018
112.537
111.792
110.714
109.216
107.183
104.475
100.907
96.2536
90.2145
82.6266
73.0845
62.7298
56.7224
110.52
110.489
110.514
110.607
110.75
110.926
111.123
111.329
111.536
111.732
111.903
112.032
112.101
112.088
111.965
111.703
111.264
110.602
109.661
108.372
106.651
104.392
101.465
97.7132
92.9679
87.0619
79.9947
71.796
62.7355
54.64
110.041
109.998
110.003
110.066
110.171
110.3
110.441
110.583
110.718
110.832
110.911
110.938
110.895
110.758
110.501
110.092
109.494
108.661
107.541
106.066
104.159
101.725
98.6575
94.8377
90.1632
84.5747
78.1221
70.873
62.7864
54.893
109.54
109.487
109.469
109.502
109.568
109.649
109.733
109.811
109.872
109.904
109.891
109.818
109.664
109.406
109.018
108.47
107.724
106.736
105.456
103.825
101.772
99.2216
96.091
92.3014
87.8057
82.6014
76.7351
70.2786
63.2716
56.4236
109.02
108.955
108.915
108.916
108.942
108.975
109.002
109.016
109.003
108.953
108.85
108.677
108.415
108.042
107.53
106.852
105.97
104.844
103.429
101.673
99.5187
96.9055
93.7773
90.0893
85.83
81.0194
75.7029
69.9596
63.8617
57.8289
108.481
108.405
108.342
108.312
108.297
108.281
108.252
108.201
108.116
107.985
107.793
107.524
107.159
106.675
106.048
105.25
104.247
103.003
101.478
99.631
97.4144
94.7854
91.71
88.1691
84.1691
79.7383
74.9224
69.7922
64.4128
59.0553
107.926
107.838
107.752
107.69
107.635
107.571
107.486
107.37
107.214
107.004
106.726
106.365
105.902
105.315
104.583
103.678
102.57
101.227
99.6193
97.7109
95.4668
92.8595
89.8727
86.5027
82.7643
78.688
74.3172
69.7119
64.9315
60.1734
107.356
107.256
107.148
107.054
106.959
106.847
106.707
106.528
106.302
106.016
105.656
105.208
104.653
103.973
103.145
102.146
100.949
99.5299
97.8625
95.9196
93.6769
91.1198
88.2437
85.0536
81.5676
77.816
73.8385
69.6864
65.4129
61.1681
106.774
106.662
106.531
106.406
106.273
106.114
105.919
105.68
105.386
105.027
104.59
104.06
103.421
102.656
101.744
100.664
99.3966
97.9199
96.2139
94.2589
92.0406
89.5536
86.8
83.7893
80.5408
77.0831
73.4518
69.6907
65.8454
62.0333
106.182
106.058
105.905
105.75
105.579
105.374
105.127
104.829
104.472
104.044
103.534
102.929
102.214
101.372
100.388
99.2425
97.9194
96.4022
94.6756
92.7274
90.5511
88.1467
85.5197
82.6821
79.6532
76.4593
73.1318
69.7078
66.2256
62.7791
105.584
105.448
105.274
105.089
104.881
104.633
104.335
103.982
103.564
103.071
102.494
101.821
101.038
100.131
99.0849
97.8864
96.5223
94.9795
93.2479
91.3218
89.1995
86.8837
84.3823
81.7083
78.8802
75.9219
72.8607
69.7279
66.5553
63.4188
104.982
104.835
104.64
104.427
104.183
103.894
103.548
103.142
102.668
102.116
101.477
100.743
99.9003
98.937
97.8407
96.6008
95.2082
93.6531
91.9297
90.0366
87.9752
85.7499
83.3699
80.8484
78.2027
75.4539
72.626
69.7451
66.8379
63.9654
104.38
104.221
104.006
103.767
103.491
103.161
102.771
102.315
101.789
101.182
100.489
99.7008
98.8065
97.7962
96.6596
95.3891
93.9789
92.4226
90.7176
88.8648
86.8676
84.7317
82.467
80.0864
77.6056
75.0428
72.4191
69.7567
67.0773
64.4309
103.781
103.612
103.377
103.113
102.807
102.44
102.007
101.506
100.932
100.277
99.5352
98.6996
97.7614
96.7123
95.5447
94.2536
92.8354
91.2867
89.6071
87.7989
85.8668
83.8175
81.6608
79.409
77.0764
74.6788
72.2341
69.7613
67.2784
64.8261
103.189
103.009
102.757
102.471
102.136
101.735
101.262
100.719
100.102
99.4042
98.62
97.7438
96.7688
95.6888
94.4988
93.1957
91.7773
90.2427
88.593
86.8314
84.9636
82.9967
80.9403
78.8055
76.6055
74.3542
72.0668
69.759
67.4458
65.1609
102.609
102.418
102.149
101.843
101.483
101.05
100.541
99.9606
99.3051
98.5688
97.7475
96.8372
95.8324
94.7291
93.5242
92.2158
90.8032
89.2872
87.6698
85.9555
84.15
82.2606
80.2963
78.2675
76.1859
74.0639
71.9143
69.7502
67.5841
65.4438
102.046
101.843
101.557
101.234
100.853
100.391
99.8485
99.2337
98.5442
97.7746
96.9221
95.9837
94.9559
93.8359
92.6219
91.3134
89.911
88.4164
86.8329
85.165
83.4188
81.6014
79.7212
77.7879
75.8119
73.804
71.7751
69.7361
67.6975
65.6826
101.502
101.288
100.987
100.65
100.251
99.7611
99.1877
98.5427
97.8237
97.0261
96.1479
95.1873
94.142
93.0104
91.792
90.4875
89.0984
87.6271
86.0775
84.4545
82.7639
81.0127
79.2089
77.3613
75.4791
73.5716
71.6481
69.718
67.7901
65.8839
100.983
100.761
100.445
100.095
99.6795
99.1642
98.5634
97.8925
97.1486
96.3278
95.4288
94.4507
93.3925
92.2536
91.0347
89.7372
88.3633
86.9161
85.3998
83.8191
82.18
80.4893
78.7545
76.9833
75.1839
73.3644
71.5329
69.6975
67.8656
66.0535
100.491
100.265
99.9395
99.5741
99.1392
98.6029
97.9807
97.2883
96.5235
95.6836
94.7679
93.7765
92.7091
91.5665
90.3499
89.0615
87.7039
86.2807
84.7959
83.2547
81.663
80.0271
78.3539
76.6504
74.9237
73.1811
71.4297
69.6763
67.9274
66.1967
100.033
99.8076
99.4751
99.0913
98.6348
98.0823
97.4449
96.7348
95.9526
95.097
94.1682
93.1667
92.0934
90.9497
89.7374
88.4592
87.1182
85.7179
84.2628
82.7579
81.2091
79.6223
78.0037
76.3596
74.6964
73.0206
71.3383
69.6556
67.9782
66.3173
99.6163
99.392
99.0532
98.6511
98.1746
97.609
96.9598
96.2357
95.4393
94.5713
93.6324
92.6238
91.5471
90.4042
89.1975
87.9301
86.6052
85.2265
83.7986
82.3267
80.8163
79.2728
77.7019
76.1094
74.5011
72.8827
71.2598
69.6377
68.0213
66.4202
99.2468
99.023
98.6768
98.2588
97.7662
97.189
96.5295
95.7941
94.9867
94.1091
93.1627
92.1492
91.0709
89.9301
88.7295
87.4726
86.1629
84.804
83.4006
81.9581
80.4812
78.9753
77.4455
75.8972
74.3357
72.7661
71.1934
69.6224
68.0574
66.5065
98.931
98.7058
98.3511
97.9199
97.4145
96.8275
96.1593
95.4153
94.5996
93.715
92.7634
91.747
90.6685
89.5305
88.3361
87.089
85.793
84.4518
83.0702
81.6529
80.2048
78.7307
77.2355
75.7243
74.2019
72.673
71.1422
69.6137
68.0915
66.5826
98.6758
98.4464
98.0816
97.6385
97.1227
96.5271
95.8515
95.1006
94.2787
93.3891
92.434
91.4159
90.3378
89.2031
88.0147
86.7764
85.4924
84.1665
82.8031
81.4068
79.9823
78.5343
77.0673
75.5862
74.0953
72.5991
71.1018
69.6073
68.1191
66.643
98.4896
98.2509
97.8748
97.4232
96.9004
96.2985
95.6171
94.861
94.0347
93.1417
92.1843
91.1651
90.0877
88.9558
87.7726
86.5419
85.2677
83.954
82.6051
81.2255
79.8196
78.392
76.9472
75.4895
74.0233
72.5526
71.0814
69.6134
68.1522
66.7025
98.3838
98.1157
97.7232
97.2662
96.7403
96.1345
95.4494
94.6904
93.8618
92.967
92.0087
90.9894
89.9132
88.7839
87.605
86.3801
85.1131
83.8081
82.4694
81.1014
79.7083
78.2947
76.8648
75.4229
73.9732
72.5194
71.0655
69.6148
68.1708
66.7373
98.4007
98.0736
97.6551
97.1927
96.6642
96.0551
95.3669
94.6056
93.7755
92.8795
91.9204
90.9013
89.8263
88.6991
87.5232
86.3022
85.0401
83.7409
82.4088
81.0483
79.6635
78.2588
76.8384
75.4065
73.9671
72.5239
71.0807
69.6409
68.2076
66.784
-59.7891
-19.859
-2.76773
35.3631
27.4282
15.7244
44.7406
33.7695
24.9413
43.1138
35.7548
30.4696
46.4132
40.7687
36.301
49.6668
44.9098
40.9607
52.0519
47.9979
44.6092
54.0561
50.5751
47.6555
55.8046
52.768
50.2161
57.3033
54.6181
52.3609
58.5802
56.1814
54.1648
59.6681
57.5068
55.6888
60.5948
58.6323
56.9806
61.384
59.5897
58.0783
62.056
60.405
59.0134
62.6282
61.1001
59.8112
63.1154
61.6932
60.4928
63.53
62.1996
61.0756
63.8829
62.6319
61.5743
64.1832
63.0013
62.0011
64.4386
63.3167
62.3664
64.6562
63.5862
62.679
64.8409
63.8157
62.9456
64.9987
64.0119
63.1735
65.1311
64.1768
63.3652
65.2462
64.3188
63.5292
65.3368
64.4312
63.6597
65.4217
64.5328
63.7742
65.4718
64.5949
63.8466
65.5355
64.6704
63.9276
0.499122
1.38673
2.61131
3.35424
3.95631
4.41257
4.56804
4.5147
4.48889
4.51516
4.56425
4.5984
4.60189
4.58831
4.56964
4.54457
4.50381
4.4369
4.33461
4.18932
3.99484
3.74481
3.43386
3.06214
2.63755
2.17069
1.66025
1.10687
0.570741
0.168486
6.16161
4.22811
4.57799
4.7894
4.95924
5.02692
4.70234
4.35921
4.33659
4.4737
4.63743
4.72789
4.73698
4.72342
4.71558
4.70775
4.68244
4.62687
4.53341
4.39455
4.20184
3.947
3.62144
3.22303
2.76559
2.26584
1.72504
1.14447
0.582102
0.168621
15.8948
9.89919
7.69055
6.45909
5.62032
5.11467
4.83271
4.73889
4.80414
4.93625
5.01088
4.97595
4.90093
4.86785
4.88859
4.91889
4.91819
4.87603
4.79139
4.65557
4.45829
4.19722
3.86024
3.4331
2.9312
2.38474
1.81146
1.20239
0.600837
0.164932
23.5923
16.6917
12.6295
10.0279
8.21057
6.98924
6.2175
5.73008
5.43139
5.27794
5.21865
5.21243
5.23408
5.27293
5.30633
5.30447
5.25993
5.18488
5.08392
4.94545
4.75331
4.50388
4.16194
3.6925
3.12349
2.50479
1.8898
1.27635
0.643793
0.158742
30.2934
23.7497
18.7514
15.0603
12.3371
10.3395
8.87833
7.80434
7.03158
6.50662
6.17062
5.95976
5.82229
5.73266
5.68051
5.65202
5.62759
5.58623
5.50491
5.36169
5.14408
4.85019
4.45516
3.93846
3.32106
2.66496
2.05955
1.44322
0.729304
0.134849
35.8856
30.1265
24.8693
20.5182
17.1011
14.4389
12.3601
10.7427
9.50115
8.56547
7.8675
7.3438
6.9469
6.64898
6.43149
6.27212
6.14416
6.02272
5.88621
5.71352
5.48259
5.17079
4.74987
4.20663
3.56006
2.8594
2.1529
1.40978
0.695536
0.0510073
40.4076
35.445
30.3559
25.7886
21.9977
18.8932
16.3443
14.2608
12.5736
11.2189
10.1365
9.27195
8.58088
8.02915
7.58825
7.23049
6.92871
6.65821
6.39602
6.11852
5.80075
5.41779
4.94621
4.37327
3.70658
2.97246
2.19869
1.40032
0.639016
-0.11869
44.097
39.7907
35.0678
30.5851
26.6877
23.3561
20.5017
18.0668
16.0089
14.2831
12.8425
11.6422
10.6418
9.80643
9.10556
8.51083
7.9952
7.53272
7.09813
6.66623
6.21218
5.71272
5.14802
4.50634
3.78968
3.01392
2.20148
1.37369
0.562015
-0.294946
47.127
43.3417
39.0364
34.7894
30.9571
27.5634
24.5541
21.8972
19.5729
17.5559
15.8138
14.3123
13.0185
11.9017
10.9337
10.0874
9.33699
8.65668
8.02141
7.40665
6.78886
6.1466
5.46224
4.72505
3.93452
3.10068
2.24019
1.37024
0.511798
-0.404609
49.633
46.2645
42.3566
38.3988
34.7249
31.3792
28.3301
25.5631
23.0738
20.8517
18.8782
17.13
15.5827
14.2118
12.9932
11.9031
10.9182
10.0148
9.17002
8.36112
7.56677
6.76775
5.94858
5.0995
4.21844
3.31125
2.38965
1.46752
0.563147
-0.389328
51.7252
48.6952
45.1396
41.4735
37.9979
34.7633
31.7506
28.9554
26.3831
24.0333
21.8977
19.9629
18.2123
16.6277
15.1901
13.88
12.6775
11.5625
10.5149
9.51464
8.54314
7.58376
6.62308
5.65234
4.6686
3.67508
2.68017
1.69529
0.737114
-0.249394
53.4856
50.7354
47.4847
44.0905
40.8218
37.7281
34.7963
32.0272
29.4315
27.0152
24.7772
22.711
20.8073
19.0533
17.4347
15.9364
14.5429
13.2378
12.004
10.8248
9.68433
8.5686
7.46621
6.36941
5.27494
4.18437
3.10373
2.04224
1.01461
-0.0199899
54.9747
52.4597
49.4718
46.3228
43.2539
40.3106
37.4826
34.7725
32.1935
29.7552
27.4609
25.3094
23.2966
21.4145
19.6524
17.9996
16.445
14.9755
13.5773
12.2365
10.9402
9.67689
8.43698
7.21373
6.00382
4.80774
3.62961
2.47658
1.36068
0.255789
56.2395
53.9245
51.1639
48.2331
45.3499
42.5557
39.8406
37.2077
34.6705
32.2406
29.9239
27.723
25.6371
23.6613
21.7887
20.0129
18.3261
16.7183
15.1781
13.6947
12.2577
10.8579
9.4872
8.13982
6.81249
5.50484
4.2194
2.9612
1.73915
0.540411
57.317
55.1738
52.6103
49.8729
47.1593
44.507
41.9061
39.3588
36.8783
34.4767
32.1617
29.9377
27.806
25.7642
23.8088
21.9369
20.1436
18.4211
16.7602
15.1526
13.5901
12.0654
10.5718
9.10442
7.65987
6.23712
4.83725
3.46323
2.12068
0.807582
58.2371
56.2421
53.8505
51.284
48.7238
46.2039
43.7138
41.2548
38.8389
36.4782
34.1808
31.9522
29.7951
27.7095
25.6943
23.7486
21.8699
20.0527
18.2899
16.5747
14.9009
13.2627
11.6546
10.0723
8.51248
6.97348
5.45508
3.95831
2.48572
1.04308
59.0241
57.1575
54.9161
52.5007
50.0784
47.6802
45.2952
42.9234
40.5754
38.2627
35.9935
33.7734
31.6063
29.4943
27.4379
25.4367
23.4895
21.5935
19.7445
17.9367
16.1646
14.4236
12.7094
11.018
9.34623
7.692
6.0539
4.43125
2.82394
1.24268
59.6982
57.943
55.8328
53.551
51.2522
48.965
46.6779
44.3899
42.1101
39.8491
37.6145
35.4123
33.2469
31.1215
29.0378
26.9957
24.9943
23.0332
21.1108
19.2229
17.3644
15.5309
13.7187
11.9245
10.1455
8.37888
6.62255
4.87434
3.13201
1.40886
60.2758
58.6175
56.6222
54.4582
52.2696
50.0827
47.886
45.677
43.4636
41.2552
39.0592
36.8811
34.7255
32.5961
30.4955
28.424
26.3812
24.3673
22.3823
20.4246
18.4899
16.5736
14.6718
12.7817
10.9008
9.02635
7.15546
5.28486
3.41074
1.54727
60.7711
59.1969
57.302
55.2417
53.151
51.0544
48.94
46.8045
44.6543
42.498
40.342
38.1917
36.0514
33.9249
31.8151
29.7236
27.65
25.5941
23.5565
21.5377
19.5356
17.5452
15.562
13.5833
11.607
9.63052
7.6505
5.66289
3.66279
1.66416
61.1955
59.6942
57.887
55.9178
53.9137
51.8977
49.8577
47.7896
45.6986
43.5922
41.4762
39.3554
37.2339
35.1154
33.0028
30.8982
28.8019
26.7131
24.6324
22.5611
20.4989
18.4419
16.3851
14.3254
12.261
10.1894
8.10702
6.00935
3.89086
1.76459
61.5591
60.1208
58.3897
56.5002
54.5723
52.6278
50.6545
48.6474
46.6109
44.5515
42.4742
40.3833
38.2825
36.1751
34.0642
31.9519
29.8393
27.7257
25.6104
23.4945
21.3789
19.2615
17.1384
15.0059
12.8614
10.7024
8.52535
6.32566
4.09746
1.85239
61.8697
60.4854
58.8202
56.9999
55.1385
53.2568
51.3425
49.3902
47.4032
45.387
43.3462
41.2844
39.2048
37.1107
35.0046
32.8888
30.7648
28.6323
26.4897
24.3368
22.1747
20.0031
17.8201
15.6222
13.4059
11.168
8.90481
6.61186
4.28334
1.92923
62.1347
60.7965
59.1878
57.4271
55.6233
53.7961
51.9336
50.0295
48.0866
46.1095
44.1023
42.0679
40.0093
37.9291
35.8299
33.7137
31.5821
29.4351
27.271
25.0882
22.8869
20.6683
18.4316
16.1748
13.8945
11.5865
9.24642
6.86959
4.45056
1.9973
62.358
61.0586
59.4977
57.7877
56.0328
54.2524
52.4343
50.5721
48.6677
46.7252
44.748
42.7387
40.6997
38.6334
36.542
34.4274
32.2909
30.1328
27.9517
25.7451
23.5118
21.2529
18.9694
16.6604
14.3234
11.9538
9.54603
7.09523
4.59619
2.05494
62.5474
61.28
59.7589
58.0911
56.3772
54.6359
52.8553
51.0286
49.1571
47.2444
45.2934
43.3063
41.2851
39.2319
37.1485
35.0367
32.8974
30.7307
28.5364
26.3116
24.0529
21.7611
19.4384
17.0847
14.698
12.2746
9.80853
7.29423
4.72586
2.10649
62.6994
61.4575
59.9682
58.3343
56.6534
54.9437
53.1935
51.3957
49.5511
47.6629
45.7336
43.7651
41.759
39.7171
37.6411
35.5323
33.3916
31.2191
29.0145
26.7747
24.4957
22.1784
19.8248
17.4342
15.005
12.5349
10.0197
7.45292
4.82754
2.14412
62.8282
61.6055
60.141
58.5333
56.8778
55.1925
53.4659
51.6907
49.8672
47.9984
46.0864
44.1329
42.1391
40.1068
38.0372
35.9315
33.7907
31.6148
29.4027
27.1513
24.8574
22.5215
20.1448
17.7261
15.2632
12.7552
10.2001
7.5915
4.91997
2.18095
62.9128
61.7021
60.2539
58.6642
57.0261
55.3573
53.6465
51.8865
50.0773
48.2215
46.3212
44.3778
42.3924
40.3664
38.3011
36.1975
34.0564
31.8778
29.6606
27.4017
25.098
22.749
20.356
17.9177
15.4312
12.896
10.3116
7.67258
4.96895
2.19368
62.9929
61.7823
60.3434
58.7654
57.1379
55.4787
53.7773
52.0261
50.2253
48.3772
46.4838
44.5462
42.5658
40.5437
38.481
36.3788
34.2377
32.0578
29.8381
27.5757
25.2668
22.9108
20.509
18.0602
15.5613
13.0109
10.4087
7.74947
5.02072
2.20435
)
;

boundaryField
{
    inlet
    {
        type            zeroGradient;
    }
    outlet
    {
        type            fixedValue;
        value           uniform 0;
    }
    flap
    {
        type            zeroGradient;
    }
    upperWall
    {
        type            zeroGradient;
    }
    lowerWall
    {
        type            zeroGradient;
    }
    frontAndBack
    {
        type            empty;
    }
}


// ************************************************************************* //
