/*--------------------------------*- C++ -*----------------------------------*\
| =========                 |                                                 |
| \\      /  F ield         | OpenFOAM: The Open Source CFD Toolbox           |
|  \\    /   O peration     | Version:  5.x                                   |
|   \\  /    A nd           | Web:      www.OpenFOAM.org                      |
|    \\/     M anipulation  |                                                 |
\*---------------------------------------------------------------------------*/
FoamFile
{
    version     2.0;
    format      ascii;
    class       volScalarField;
    location    "3.9";
    object      p;
}
// * * * * * * * * * * * * * * * * * * * * * * * * * * * * * * * * * * * * * //

dimensions      [0 2 -2 0 0 0 0];

internalField   nonuniform List<scalar> 
2790
(
146.077
145.87
146.021
146.495
147.185
148.052
149.091
150.3
151.676
153.212
154.902
156.738
158.711
160.81
163.02
165.322
167.692
170.1
172.507
174.868
177.133
179.244
181.141
182.766
184.072
185.026
185.627
185.825
185.829
185.982
145.884
145.786
145.96
146.431
147.117
147.981
149.015
150.219
151.588
153.116
154.796
156.622
158.585
160.673
162.872
165.165
167.526
169.927
172.331
174.695
176.967
179.092
181.01
182.662
183.996
184.968
185.55
185.719
185.824
186.065
145.698
145.67
145.862
146.322
146.996
147.848
148.867
150.054
151.402
152.907
154.561
156.356
158.285
160.337
162.496
164.745
167.063
169.42
171.783
174.112
176.359
178.473
180.397
182.078
183.465
184.522
185.247
185.691
186.063
186.475
145.492
145.494
145.699
146.15
146.809
147.645
148.646
149.81
151.131
152.603
154.221
155.975
157.856
159.855
161.956
164.143
166.393
168.682
170.978
173.245
175.441
177.519
179.434
181.139
182.597
183.787
184.726
185.468
186.092
186.699
145.255
145.271
145.483
145.927
146.571
147.386
148.363
149.496
150.782
152.214
153.784
155.485
157.306
159.238
161.265
163.372
165.538
167.739
169.947
172.13
174.253
176.278
178.167
179.886
181.411
182.733
183.864
184.836
185.653
186.404
144.983
145.005
145.219
145.653
146.277
147.067
148.014
149.112
150.355
151.738
153.252
154.89
156.64
158.492
160.433
162.445
164.51
166.606
168.707
170.787
172.815
174.763
176.602
178.309
179.868
181.276
182.534
183.652
184.578
185.391
144.674
144.696
144.907
145.328
145.931
146.692
147.604
148.66
149.854
151.181
152.63
154.195
155.864
157.625
159.466
161.37
163.319
165.293
167.269
169.224
171.134
172.976
174.731
176.382
177.922
179.346
180.649
181.818
182.759
183.54
144.329
144.348
144.551
144.956
145.534
146.263
147.134
148.143
149.283
150.545
151.923
153.405
154.982
156.642
158.372
160.154
161.972
163.808
165.639
167.447
169.21
170.912
172.538
174.079
175.529
176.886
178.136
179.257
180.122
180.773
143.947
143.961
144.153
144.539
145.088
145.781
146.609
147.565
148.644
149.836
151.134
152.526
154.003
155.551
157.156
158.804
160.477
162.155
163.821
165.455
167.04
168.56
170.005
171.367
172.644
173.834
174.924
175.89
176.595
177.043
143.529
143.536
143.714
144.078
144.597
145.25
146.03
146.93
147.942
149.058
150.269
151.564
152.931
154.357
155.829
157.329
158.84
160.344
161.822
163.254
164.623
165.913
167.114
168.218
169.222
170.126
170.923
171.607
172.067
172.284
143.076
143.075
143.238
143.577
144.062
144.673
145.401
146.24
147.181
148.216
149.334
150.525
151.775
153.07
154.397
155.737
157.073
158.384
159.649
160.849
161.963
162.971
163.857
164.609
165.22
165.688
166.018
166.236
166.312
166.272
142.591
142.581
142.726
143.038
143.487
144.053
144.726
145.5
146.367
147.316
148.336
149.416
150.541
151.699
152.871
154.041
155.186
156.287
157.319
158.256
159.074
159.744
160.24
160.536
160.61
160.449
160.059
159.509
158.89
158.415
142.074
142.055
142.18
142.464
142.875
143.393
144.009
144.715
145.503
146.362
147.28
148.244
149.24
150.253
151.263
152.252
153.196
154.071
154.848
155.496
155.98
156.26
156.291
156.022
155.397
154.366
152.896
151.052
149.048
147.491
141.528
141.498
141.603
141.857
142.228
142.697
143.253
143.889
144.596
145.361
146.173
147.018
147.88
148.742
149.585
150.385
151.118
151.755
152.262
152.599
152.719
152.566
152.069
151.137
149.656
147.485
144.46
140.471
135.621
130.986
140.955
140.915
140.997
141.22
141.55
141.968
142.462
143.026
143.649
144.319
145.023
145.745
146.47
147.178
147.849
148.456
148.972
149.364
149.59
149.603
149.342
148.73
147.666
146.01
143.564
140.037
134.981
127.711
117.163
102.472
5.34595
5.31098
5.21762
5.07447
4.90283
4.71978
4.53576
4.35695
4.18723
4.02887
3.8827
3.74843
3.62487
3.5094
3.39828
3.287
3.17148
3.04804
2.91304
2.7632
2.59609
2.41005
2.20391
1.97666
1.72816
1.45839
1.16783
0.857662
0.529415
0.184775
5.3157
5.26925
5.17089
5.02931
4.8631
4.68648
4.50839
4.33456
4.16889
4.01378
3.87029
3.73877
3.61895
3.50608
3.39729
3.2879
3.17403
3.05202
2.91809
2.76891
2.60213
2.41624
2.21011
1.9829
1.73451
1.46422
1.1727
0.861431
0.531664
0.183315
5.27307
5.21479
5.11084
4.97123
4.81139
4.64236
4.47144
4.30389
4.14364
3.99312
3.85328
3.72443
3.60635
3.49928
3.39514
3.28973
3.17961
3.06095
2.92945
2.78152
2.61513
2.42932
2.22336
1.99625
1.74661
1.47464
1.18121
0.868465
0.537035
0.184229
5.22607
5.15798
5.04902
4.91164
4.75817
4.59664
4.43296
4.27188
4.11737
3.97184
3.83621
3.71118
3.59729
3.49338
3.39366
3.29271
3.18739
3.07331
2.94543
2.80001
2.63491
2.4494
2.24301
2.01465
1.76313
1.48849
1.19185
0.875219
0.540541
0.185466
5.18843
5.11456
5.00213
4.86751
4.71986
4.56469
4.40691
4.25098
4.10105
3.95931
3.82615
3.70251
3.59261
3.49524
3.39924
3.30211
3.20106
3.09068
2.96538
2.82176
2.65812
2.47347
2.26679
2.0369
1.78292
1.505
1.20455
0.883923
0.545172
0.185239
5.17401
5.09869
4.98464
4.85286
4.70939
4.5582
4.40386
4.25075
4.10314
3.96358
3.83363
3.71305
3.60328
3.50213
3.41039
3.31814
3.22176
3.11522
2.99261
2.85125
2.68901
2.50438
2.29612
2.06313
1.805
1.52235
1.21696
0.891152
0.545801
0.182646
5.19439
5.12161
5.00667
4.87615
4.73273
4.58099
4.42615
4.27266
4.12441
3.98402
3.85361
3.73444
3.62642
3.52832
3.43491
3.34409
3.25019
3.14652
3.02711
2.88812
2.72688
2.54146
2.33041
2.09295
1.82929
1.54071
1.22922
0.896646
0.544354
0.180267
5.2594
5.18848
5.07397
4.93717
4.78666
4.62828
4.46781
4.30981
4.15786
4.01461
3.88199
3.76135
3.65266
3.55462
3.4637
3.37594
3.28547
3.1855
3.06973
2.93335
2.77284
2.58572
2.37053
2.12696
1.85607
1.55995
1.24075
0.899831
0.540636
0.177619
5.37826
5.30316
5.17946
5.02678
4.86086
4.68952
4.51881
4.35293
4.19501
4.04746
3.91203
3.78999
3.68099
3.58393
3.49636
3.41312
3.32775
3.23303
3.12194
2.98862
2.82853
2.63867
2.41764
2.16584
1.88551
1.57978
1.25101
0.900335
0.534331
0.174141
5.55268
5.45556
5.30723
5.12882
4.94078
4.75249
4.56942
4.39442
4.22976
4.07751
3.93897
3.81502
3.7068
3.61348
3.53147
3.45518
3.37743
3.29015
3.18529
3.05569
2.89575
2.70188
2.47289
2.21022
1.91761
1.59963
1.25913
0.897628
0.525418
0.169875
5.7691
5.61811
5.42904
5.22007
5.01018
4.80572
4.61129
4.42775
4.25658
4.09919
3.9576
3.83372
3.72852
3.64117
3.56777
3.50184
3.4351
3.35822
3.26169
3.13679
2.97669
2.77725
2.53767
2.26078
1.95234
1.61886
1.26428
0.89112
0.513658
0.164606
5.98948
5.77351
5.53361
5.28713
5.05521
4.83969
4.63688
4.44699
4.27107
4.11037
3.96682
3.84347
3.74282
3.66447
3.60378
3.55276
3.50143
3.43873
3.35325
3.23439
3.07382
2.86687
2.61339
2.31804
1.98927
1.63627
1.26488
0.879467
0.498233
0.157971
6.2351
5.89046
5.5842
5.30787
5.06469
4.84618
4.64153
4.44833
4.26951
4.10688
3.96208
3.83985
3.74562
3.68027
3.63779
3.60759
3.57723
3.53348
3.46259
3.35154
3.19022
2.97341
2.70193
2.38283
2.02807
1.65057
1.25921
0.860997
0.477889
0.14944
6.33365
5.78842
5.47143
5.22199
5.00391
4.8093
4.6176
4.42613
4.24713
4.08515
3.93974
3.81804
3.73167
3.68446
3.66766
3.66596
3.66341
3.64451
3.59266
3.49175
3.32942
3.09989
2.80533
2.45592
2.06818
1.66012
1.24504
0.833484
0.450925
0.138328
5.93657
5.20373
5.06662
4.99811
4.86217
4.73709
4.57749
4.3825
4.19955
4.042
3.8973
3.77302
3.69434
3.67188
3.69117
3.72781
3.76107
3.77399
3.7468
3.65909
3.49548
3.24969
2.92583
2.53804
2.10869
1.66263
1.21935
0.793851
0.414865
0.123781
140.346
140.294
140.354
140.544
140.831
141.195
141.626
142.115
142.651
143.222
143.814
144.41
144.993
145.543
146.036
146.446
146.739
146.878
146.817
146.497
145.846
144.767
143.127
140.739
137.315
132.394
125.147
113.859
93.7669
39.3448
139.693
139.629
139.665
139.82
140.062
140.371
140.735
141.146
141.592
142.061
142.536
143.002
143.44
143.827
144.139
144.345
144.411
144.295
143.944
143.293
142.258
140.728
138.551
135.506
131.262
125.288
116.672
103.835
85.8377
59.8551
139.002
138.925
138.936
139.055
139.25
139.501
139.797
140.127
140.481
140.845
141.203
141.536
141.826
142.048
142.177
142.181
142.022
141.654
141.021
140.055
138.664
136.733
134.105
130.566
125.812
119.432
110.904
99.6264
86.2187
70.8185
138.272
138.183
138.169
138.25
138.398
138.589
138.815
139.063
139.324
139.582
139.82
140.02
140.162
140.221
140.169
139.974
139.596
138.987
138.091
136.837
135.134
132.872
129.907
126.055
121.088
114.738
106.749
96.8121
84.9055
70.6828
137.506
137.404
137.364
137.407
137.506
137.638
137.792
137.958
138.125
138.276
138.395
138.463
138.459
138.357
138.13
137.744
137.159
136.328
135.193
133.687
131.727
129.211
126.018
122.003
116.999
110.827
103.314
94.2391
83.456
71.1915
136.706
136.591
136.524
136.529
136.579
136.65
136.733
136.817
136.889
136.935
136.937
136.875
136.728
136.472
136.078
135.512
134.736
133.703
132.36
130.644
128.481
125.785
122.458
118.388
113.458
107.548
100.551
92.3801
83.0277
72.8995
135.874
135.746
135.652
135.619
135.619
135.63
135.642
135.644
135.624
135.566
135.453
135.266
134.982
134.579
134.028
133.297
132.348
131.14
129.621
127.736
125.424
122.614
119.229
115.19
110.417
104.841
98.4168
91.1371
83.0419
74.4577
135.011
134.871
134.751
134.679
134.63
134.582
134.524
134.446
134.335
134.177
133.953
133.645
133.233
132.693
131.998
131.117
130.017
128.658
126.996
124.985
122.573
119.704
116.324
112.377
107.815
102.606
96.7392
90.2358
83.1418
75.7207
134.123
133.97
133.824
133.715
133.617
133.511
133.385
133.228
133.03
132.775
132.446
132.025
131.492
130.826
130.001
128.989
127.758
126.275
124.503
122.402
119.932
117.052
113.722
109.908
105.586
100.744
95.3893
89.5563
83.2944
76.8238
133.211
133.046
132.875
132.729
132.584
132.422
132.229
131.997
131.715
131.368
130.94
130.414
129.772
128.992
128.051
126.925
125.586
124.005
122.151
119.993
117.501
114.644
111.399
107.744
103.67
99.1801
94.2921
89.0442
83.4859
77.7962
132.28
132.104
131.908
131.727
131.537
131.319
131.063
130.76
130.399
129.966
129.446
128.823
128.081
127.2
126.159
124.937
123.511
121.855
119.946
117.759
115.273
112.467
109.327
105.844
102.018
97.8588
93.3908
88.6515
83.6859
78.638
131.335
131.148
130.929
130.713
130.48
130.21
129.894
129.524
129.088
128.575
127.971
127.261
126.43
125.461
124.335
123.035
121.54
119.831
117.889
115.697
113.239
110.503
107.482
104.174
100.586
96.7334
92.6397
88.3405
83.8751
79.3595
130.38
130.182
129.941
129.693
129.419
129.1
128.728
128.295
127.79
127.204
126.524
125.737
124.828
123.783
122.587
121.224
119.678
117.935
115.979
113.8
111.386
108.732
105.837
102.703
99.3403
95.7663
92.0043
88.0858
84.0445
79.9745
129.42
129.213
128.951
128.673
128.36
127.995
127.571
127.08
126.513
125.861
125.113
124.257
123.282
122.174
120.921
119.51
117.929
116.166
114.213
112.06
109.702
107.138
104.369
101.403
98.25
94.928
91.4589
87.87
84.19
80.4953
128.461
128.245
127.965
127.658
127.309
126.902
126.43
125.886
125.263
124.553
123.745
122.83
121.798
120.638
119.341
117.895
116.292
114.524
112.584
110.468
108.174
105.703
103.059
100.251
97.291
94.1954
90.9842
87.6809
84.3099
80.9331
127.509
127.285
126.987
126.654
126.273
125.828
125.312
124.72
124.047
123.285
122.426
121.461
120.382
119.181
117.85
116.381
114.767
113.004
111.087
109.016
106.789
104.411
101.887
99.2274
96.4434
93.5502
90.5658
87.5103
84.4042
81.2983
126.569
126.339
126.025
125.669
125.257
124.778
124.223
123.589
122.872
122.065
121.162
120.156
119.039
117.806
116.451
114.968
113.353
111.603
109.716
107.693
105.536
103.249
100.839
98.316
95.6911
92.9782
90.193
87.3527
84.4744
81.6002
125.649
125.413
125.085
124.707
124.27
123.759
123.17
122.499
121.744
120.899
119.959
118.918
117.772
116.516
115.145
113.657
112.048
110.317
108.464
106.492
104.404
102.204
99.9008
97.503
95.0214
92.4685
89.858
87.2045
84.5227
81.8472
124.755
124.514
124.174
123.778
123.316
122.778
122.159
121.457
120.669
119.792
118.821
117.754
116.585
115.313
113.933
112.445
110.848
109.141
107.325
105.405
103.383
101.266
99.0612
96.7771
94.4239
92.0125
89.555
87.0639
84.5517
82.0469
123.894
123.649
123.298
122.886
122.403
121.842
121.196
120.467
119.652
118.749
117.754
116.665
115.481
114.198
112.816
111.333
109.751
108.07
106.293
104.423
102.466
100.426
98.3109
96.1295
93.8905
91.604
89.2802
86.9301
84.5642
82.2064
123.073
122.825
122.466
122.039
121.539
120.956
120.289
119.537
118.699
117.775
116.761
115.657
114.461
113.173
111.792
110.319
108.755
107.102
105.363
103.542
101.644
99.6755
97.6425
95.5529
93.4152
91.2382
89.031
86.803
84.5633
82.3318
122.3
122.05
121.683
121.244
120.728
120.129
119.443
118.672
117.816
116.875
115.847
114.731
113.529
112.24
110.864
109.403
107.858
106.233
104.531
102.756
100.914
99.0095
97.0499
95.042
92.9934
90.912
88.806
86.6834
84.5523
82.4291
121.583
121.331
120.958
120.508
119.98
119.366
118.665
117.879
117.008
116.053
115.015
113.892
112.687
111.399
110.03
108.582
107.058
105.46
103.793
102.061
100.269
98.4229
96.5283
94.5922
92.6214
90.623
88.6043
86.5722
84.5339
82.5031
120.93
120.677
120.298
119.839
119.3
118.674
117.96
117.162
116.28
115.315
114.269
113.143
111.936
110.652
109.292
107.858
106.354
104.782
103.148
101.454
99.7076
97.9125
96.0752
94.2015
92.2979
90.3708
88.4266
86.4717
84.5123
82.5599
120.349
120.094
119.71
119.244
118.695
118.059
117.336
116.528
115.637
114.665
113.614
112.485
111.28
110.001
108.65
107.23
105.744
104.197
102.591
100.933
99.2255
97.475
95.6868
93.8666
92.0202
90.1534
88.2721
86.3819
84.4885
82.6015
119.849
119.593
119.204
118.73
118.174
117.53
116.799
115.983
115.086
114.11
113.056
111.926
110.724
109.45
108.108
106.701
105.233
103.706
102.126
100.497
98.8242
97.1116
95.365
93.5896
91.7909
89.9743
88.1451
86.3085
84.4697
82.6369
119.44
119.182
118.786
118.305
117.741
117.09
116.353
115.532
114.63
113.65
112.595
111.466
110.266
108.998
107.664
106.269
104.815
103.307
101.749
100.145
98.4992
96.8176
95.1046
93.3653
91.6049
89.8284
88.0406
86.2465
84.4507
82.6598
119.134
118.871
118.466
117.978
117.409
116.754
116.012
115.187
114.282
113.3
112.244
111.116
109.918
108.655
107.329
105.943
104.502
103.008
101.467
99.8828
98.2595
96.6022
94.9156
93.2046
91.474
89.7286
87.9731
86.2121
84.45
82.6929
118.945
118.659
118.238
117.744
117.173
116.515
115.77
114.942
114.036
113.053
111.998
110.871
109.677
108.417
107.097
105.718
104.285
102.802
101.273
99.7021
98.0938
96.4529
94.7839
93.0916
91.3807
89.6557
87.9212
86.1814
84.4406
82.7036
118.932
118.582
118.134
117.634
117.06
116.399
115.651
114.821
113.914
112.931
111.876
110.751
109.558
108.303
106.986
105.613
104.186
102.711
101.19
99.6277
98.0295
96.3993
94.7417
93.0615
91.363
89.6508
87.9293
86.2028
84.4752
82.7507
-41.5683
-20.529
-3.14446
40.4187
32.743
20.0146
54.1743
42.4477
31.4585
55.2014
45.2803
37.5824
59.2301
51.3195
44.8494
63.3087
56.6959
51.0498
66.3504
60.713
55.8701
68.7722
63.9469
59.8065
70.8192
66.6502
63.0795
72.5492
68.9054
65.7926
74.0046
70.7868
68.0453
75.2305
72.3626
69.9244
76.2641
73.6864
71.4983
77.1354
74.8004
72.8206
77.869
75.7389
73.9341
78.4855
76.5296
74.8729
79.0021
77.1952
75.6646
79.4335
77.7544
76.3317
79.7919
78.223
76.8928
80.0881
78.6144
77.3635
80.3314
78.9397
77.757
80.5301
79.2091
78.0848
80.6909
79.4304
78.356
80.8217
79.6127
78.5805
80.925
79.7593
78.7624
81.0122
79.8823
78.9141
81.0749
79.9735
79.029
81.1413
80.0617
79.1335
81.1714
80.1075
79.1928
81.239
80.1888
79.2804
2.14069
2.5397
3.88905
4.81796
4.72432
4.64886
4.51896
4.29272
4.10696
3.97882
3.84109
3.70152
3.62352
3.63398
3.70603
3.79489
3.87341
3.92708
3.93233
3.86225
3.69703
3.4302
3.06873
2.63186
2.14936
1.65531
1.1778
0.737501
0.366012
0.104379
7.14641
4.81876
6.18267
5.43374
4.03246
4.13406
4.53539
4.28396
4.05281
3.93341
3.76582
3.5708
3.48015
3.54832
3.71179
3.87374
4.00551
4.11044
4.15906
4.11304
3.94551
3.65079
3.2405
2.7402
2.18896
1.63323
1.11341
0.657476
0.298905
0.0779967
17.9426
10.0569
7.19943
4.92371
4.63038
5.85359
5.6481
4.03823
3.4697
3.59043
3.70014
3.46175
3.34087
3.4874
3.75803
3.97195
4.15251
4.32222
4.43158
4.4204
4.24955
3.91775
3.44476
2.86356
2.22421
1.58948
1.01734
0.545929
0.207914
0.0423251
27.2547
17.7407
12.0546
8.48744
6.80059
6.11562
4.73998
3.8281
3.85686
4.50593
4.17939
3.12806
2.72765
2.97411
3.61367
4.05651
4.31782
4.57168
4.76657
4.80459
4.6238
4.23938
3.68578
3.00237
2.25109
1.51547
0.878065
0.392716
0.0871113
-0.0057701
35.8679
26.4591
19.415
14.3193
10.7581
8.24026
6.25448
5.03784
4.45911
4.10147
3.38959
2.7512
2.65811
3.41509
4.13809
4.26591
4.42307
4.788
5.1502
5.27485
5.07349
4.61789
3.96644
3.15867
2.26754
1.40221
0.679605
0.181407
-0.0692753
-0.0703705
43.3665
34.7647
27.1542
20.9263
16.1094
12.4733
9.71758
7.66836
6.1721
5.02596
4.08604
3.43005
3.19665
3.458
3.77495
4.18836
4.7286
5.36449
5.8228
5.90031
5.60735
5.04565
4.27461
3.31611
2.24886
1.21609
0.386051
-0.115068
-0.257202
-0.157851
49.4972
41.9658
34.4438
27.7572
22.2612
17.8483
14.2935
11.4419
9.20506
7.47947
6.15077
5.16582
4.57734
4.40836
4.52372
4.84695
5.2736
5.74336
6.11795
6.23381
5.99292
5.39952
4.52081
3.41126
2.17379
0.990642
0.0732608
-0.430105
-0.443473
-0.268089
54.4925
47.9901
40.9595
34.3248
28.5803
23.7103
19.5865
16.1313
13.2965
11.012
9.18858
7.77797
6.79564
6.24144
6.02949
6.03998
6.1789
6.38134
6.53565
6.49313
6.1481
5.48172
4.53448
3.35713
2.05155
0.804044
-0.163911
-0.690969
-0.706005
-0.486286
58.5689
52.9446
46.5613
40.2703
34.594
29.5785
25.1633
21.3212
18.0365
15.2748
12.9887
11.1476
9.74287
8.75304
8.10914
7.71717
7.494
7.35943
7.20506
6.90602
6.37168
5.57423
4.53535
3.30602
1.98755
0.748797
-0.213121
-0.75207
-0.831201
-0.734211
61.8973
56.9927
51.2673
45.4509
40.0376
35.1016
30.6172
26.5866
23.0213
19.9185
17.2615
15.0326
13.217
11.7894
10.6992
9.87651
9.24514
8.72297
8.21438
7.6192
6.86037
5.90458
4.76256
3.4832
2.16117
0.940051
-0.0198941
-0.605504
-0.810799
-0.891892
64.632
60.3116
55.1875
49.8733
44.8128
40.0863
35.6838
31.6217
27.9281
24.6195
21.6979
19.1576
16.9886
15.1713
13.6694
12.4298
11.3881
10.4724
9.60357
8.7018
7.70295
6.57426
5.32044
3.98323
2.64266
1.41299
0.41632
-0.265488
-0.636361
-0.902284
66.8972
63.053
58.4522
53.6128
48.9265
44.4692
40.2363
36.2484
32.5401
29.1372
26.0527
23.2903
20.8472
18.7113
16.8577
15.2475
13.8308
12.5499
11.3419
10.1443
8.9057
7.59731
6.22015
4.80637
3.41849
2.14271
1.06843
0.254154
-0.3027
-0.758135
68.7862
65.3339
61.1794
56.766
52.4387
48.2659
44.2432
40.3901
36.7413
33.3259
30.1624
27.2605
24.6232
22.2451
20.1107
18.1934
16.4569
14.8576
13.3475
11.879
10.4124
8.92405
7.4125
5.90068
4.43452
3.07655
1.89059
0.918722
0.162406
-0.490544
70.3693
67.2429
63.4672
59.4268
55.4278
51.5304
47.7285
44.0382
40.4916
37.1177
33.9367
30.9614
28.1988
25.6487
23.3029
21.1446
19.1488
17.2843
15.516
13.8089
12.1331
10.4701
8.81712
7.18938
5.6191
4.15011
2.82713
1.68054
0.714982
-0.145272
71.701
68.848
65.3941
61.6772
57.9711
54.3286
50.7416
47.2222
43.7987
40.4982
37.3407
34.3403
31.5062
28.8418
26.3445
24.0046
21.8062
19.7281
17.7456
15.8338
13.971
12.143
10.3467
8.59142
6.89891
5.29894
3.8222
2.49039
1.30929
0.232076
72.8237
70.2014
67.022
63.5848
60.137
56.7252
53.3392
49.9874
46.6941
43.4837
40.3752
37.3826
34.5161
31.7818
29.1806
26.7084
24.3557
22.1091
19.9522
17.8677
15.8404
13.8598
11.9228
10.0348
8.20965
6.46704
4.82732
3.30537
1.90614
0.604398
73.7712
71.3446
68.3999
65.2046
61.9833
58.7777
55.5756
52.3823
49.2183
46.1051
43.0599
40.0964
37.225
34.4532
31.7844
29.2183
26.7503
24.3726
22.0749
19.846
17.6754
15.5557
13.484
11.4631
9.50152
7.61137
5.80551
4.09321
2.47711
0.946994
74.5707
72.3107
69.5671
66.5812
63.558
60.5351
57.4993
54.4527
51.4125
48.3974
45.4229
42.5016
39.6438
36.8576
34.148
31.5172
28.9643
26.4854
24.0747
21.7254
19.4306
17.1854
14.9872
12.8372
10.7401
8.70266
6.73217
4.83317
3.00524
1.24762
75.2447
73.1266
70.5558
67.7509
64.9006
62.0391
59.1521
56.2394
53.3151
50.3954
47.4941
44.6224
41.7901
39.0056
36.2747
33.6013
30.9868
28.4302
25.9291
23.4795
21.0777
18.7201
16.4049
14.1322
11.904
9.72333
7.59325
5.5144
3.48312
1.5038
75.8118
73.8146
71.3923
68.744
66.0443
63.3244
60.5696
57.7778
54.9603
52.131
49.302
46.4833
43.684
40.9121
38.1739
35.4743
32.8161
30.2005
27.6271
25.0944
22.6005
20.1432
17.7212
15.3339
12.9814
10.6644
8.38244
6.13313
3.90988
1.71921
76.2875
74.3934
72.0985
69.5853
67.0162
64.4202
61.7822
59.0984
56.3779
53.6327
50.8731
48.1079
45.3454
42.5931
39.8574
37.1436
34.4554
31.7954
29.1646
26.5632
23.9906
21.4457
18.9274
16.4347
13.9667
11.522
9.09797
6.68962
4.28798
1.89991
76.6852
74.8786
72.6929
70.296
67.8399
65.3515
62.8158
60.2277
57.5942
54.9258
52.2311
49.5179
46.7935
44.0648
41.3381
38.6188
35.911
33.2181
30.5421
27.8843
25.2448
22.6235
20.0195
17.4316
14.8579
12.2958
9.74084
7.18633
4.62146
2.05224
77.0157
75.2833
73.1905
70.8931
68.534
66.1386
63.6918
61.1874
58.631
56.0315
53.3963
50.732
48.0451
45.3418
42.6281
39.9092
37.1895
34.4727
31.7614
29.0574
26.3618
23.6747
20.9954
18.3226
15.6538
12.9855
10.312
7.62532
4.91331
2.18063
77.2898
75.6196
73.6054
71.3925
69.1159
66.7999
64.4294
61.9975
59.5085
56.9697
54.3878
51.7683
49.1168
46.439
43.7403
41.0256
38.2995
35.5657
32.8271
30.086
27.3436
24.6005
21.8561
19.109
16.3562
13.5936
10.8147
8.01034
5.16782
2.28962
77.5135
75.8949
73.9463
71.8042
69.5969
67.3477
65.0417
62.6714
60.2401
57.7539
55.2185
52.6388
50.0196
47.3658
44.6825
41.9743
39.2455
36.4998
33.7404
30.9696
28.1889
25.3989
22.5992
19.7881
16.9627
14.118
11.2471
8.34029
5.38422
2.37925
77.6983
76.1216
74.2269
72.143
69.9927
67.7986
65.5461
63.2271
60.8439
58.402
55.9063
53.3608
50.7698
48.1377
45.4691
42.7682
40.0391
37.2855
34.5104
31.7163
28.9047
26.0763
23.2307
20.3662
17.4794
14.5652
11.6162
8.62214
5.5694
2.45523
77.841
76.2973
74.4452
72.4075
70.3025
68.1523
65.9424
63.6644
61.3201
58.914
56.4505
53.9331
51.3655
48.7518
46.0959
43.402
40.6739
37.915
35.1283
32.3163
29.4805
26.6217
23.7393
20.8315
17.8948
14.9239
11.9109
8.8454
5.71359
2.51048
77.9635
76.4442
74.6246
72.6219
70.5512
68.4342
66.2567
64.01
61.6953
59.3166
56.8779
54.3823
51.8331
49.2338
46.5883
43.9003
41.1735
38.4111
35.6161
32.7909
29.937
27.055
24.1445
21.2034
18.2282
15.2133
12.1505
9.02894
5.83458
2.5584
78.0388
76.5347
74.7364
72.7576
70.71
68.6152
66.4593
64.2335
61.9386
59.5784
57.1564
54.6754
52.1386
49.5492
46.9108
44.227
41.5012
38.7367
35.9364
33.1024
30.2364
27.3389
24.4093
21.4457
18.4443
15.3992
12.3019
9.14135
5.90312
2.57675
78.1253
76.6221
74.8356
72.8713
70.8369
68.7541
66.6099
64.3953
62.1109
59.7603
57.3468
54.8732
52.3423
49.7575
47.1221
44.4397
41.7136
38.947
36.1428
33.3031
30.4296
27.5228
24.5821
21.6054
18.589
15.5266
12.4096
9.22565
5.95761
2.58301
)
;

boundaryField
{
    inlet
    {
        type            zeroGradient;
    }
    outlet
    {
        type            fixedValue;
        value           uniform 0;
    }
    flap
    {
        type            zeroGradient;
    }
    upperWall
    {
        type            zeroGradient;
    }
    lowerWall
    {
        type            zeroGradient;
    }
    frontAndBack
    {
        type            empty;
    }
}


// ************************************************************************* //
