/*--------------------------------*- C++ -*----------------------------------*\
| =========                 |                                                 |
| \\      /  F ield         | OpenFOAM: The Open Source CFD Toolbox           |
|  \\    /   O peration     | Version:  5.x                                   |
|   \\  /    A nd           | Web:      www.OpenFOAM.org                      |
|    \\/     M anipulation  |                                                 |
\*---------------------------------------------------------------------------*/
FoamFile
{
    version     2.0;
    format      ascii;
    class       surfaceScalarField;
    location    "0.6";
    object      phi;
}
// * * * * * * * * * * * * * * * * * * * * * * * * * * * * * * * * * * * * * //

dimensions      [1 0 -1 0 0 0 0];

internalField   nonuniform List<scalar> 
23692
(
1.16342e-05
7.26941e-10
1.16307e-05
3.54594e-09
1.16225e-05
8.21821e-09
1.1609e-05
1.34273e-08
1.15914e-05
1.76367e-08
1.15715e-05
1.99543e-08
1.15511e-05
2.04044e-08
1.15315e-05
1.96174e-08
1.15132e-05
1.83436e-08
1.14961e-05
1.71273e-08
1.14799e-05
1.62207e-08
1.14643e-05
1.56543e-08
1.1449e-05
1.5348e-08
1.14339e-05
1.51966e-08
1.14188e-05
1.51144e-08
1.14038e-05
1.50462e-08
1.1389e-05
1.49644e-08
1.13742e-05
1.48589e-08
1.13596e-05
1.47279e-08
1.13452e-05
1.4574e-08
1.13309e-05
1.44009e-08
1.13169e-05
1.42104e-08
1.13031e-05
1.40048e-08
1.12895e-05
1.37851e-08
1.12762e-05
1.35521e-08
1.12631e-05
1.33063e-08
1.12504e-05
1.30488e-08
1.12379e-05
1.27806e-08
1.12257e-05
1.25029e-08
1.12138e-05
1.22174e-08
1.12023e-05
1.19265e-08
1.11911e-05
1.16321e-08
1.11802e-05
1.13366e-08
1.11696e-05
1.10428e-08
1.11593e-05
1.07532e-08
1.11494e-05
1.0471e-08
1.11397e-05
1.01993e-08
1.11304e-05
9.94098e-09
1.11213e-05
9.69935e-09
1.11124e-05
9.47817e-09
1.11038e-05
9.28075e-09
1.10954e-05
9.11117e-09
1.10871e-05
8.97357e-09
1.1079e-05
8.87264e-09
1.10709e-05
8.8135e-09
1.10629e-05
8.80188e-09
1.10549e-05
8.8438e-09
1.10467e-05
8.94658e-09
1.10385e-05
9.11849e-09
1.103e-05
9.36832e-09
1.10212e-05
9.70659e-09
1.10119e-05
1.01453e-08
1.10022e-05
1.06983e-08
1.09917e-05
1.13813e-08
1.09805e-05
1.22131e-08
1.09682e-05
1.32158e-08
1.09548e-05
1.44153e-08
1.09399e-05
1.58427e-08
1.09234e-05
1.75352e-08
1.09049e-05
1.95381e-08
1.0884e-05
2.19067e-08
1.08603e-05
2.47096e-08
1.08333e-05
2.80319e-08
1.08024e-05
3.19815e-08
1.07667e-05
3.66956e-08
1.07254e-05
4.23521e-08
1.06773e-05
4.91841e-08
1.06208e-05
5.75017e-08
1.05542e-05
6.77243e-08
1.04748e-05
8.04291e-08
1.03794e-05
9.64253e-08
1.02636e-05
1.16868e-07
1.01212e-05
1.4344e-07
9.94356e-06
1.78641e-07
9.71834e-06
2.26253e-07
9.42726e-06
2.92097e-07
9.04308e-06
3.85208e-07
8.52428e-06
5.19807e-07
7.80539e-06
7.19897e-07
6.77588e-06
1.03051e-06
1.57131e-06
5.20555e-06
1.24492e-05
1.43587e-09
1.24455e-05
7.24398e-09
1.24369e-05
1.68792e-08
1.24226e-05
2.76469e-08
1.24039e-05
3.63707e-08
1.23827e-05
4.11979e-08
1.2361e-05
4.21666e-08
1.234e-05
4.05709e-08
1.23204e-05
3.79585e-08
1.23021e-05
3.54536e-08
1.22848e-05
3.35809e-08
1.22681e-05
3.24072e-08
1.22518e-05
3.17686e-08
1.22356e-05
3.14498e-08
1.22195e-05
3.12744e-08
1.22035e-05
3.11302e-08
1.21876e-05
3.0959e-08
1.21718e-05
3.07392e-08
1.21562e-05
3.04682e-08
1.21408e-05
3.01509e-08
1.21256e-05
2.97934e-08
1.21105e-05
2.94015e-08
1.20958e-05
2.89785e-08
1.20813e-05
2.85265e-08
1.2067e-05
2.80474e-08
1.20531e-05
2.75424e-08
1.20394e-05
2.70136e-08
1.2026e-05
2.64628e-08
1.2013e-05
2.58929e-08
1.20003e-05
2.53078e-08
1.19879e-05
2.4711e-08
1.19759e-05
2.41077e-08
1.19642e-05
2.35026e-08
1.19528e-05
2.2901e-08
1.19418e-05
2.23088e-08
1.19311e-05
2.17322e-08
1.19207e-05
2.11774e-08
1.19106e-05
2.06507e-08
1.19007e-05
2.01591e-08
1.18912e-05
1.97095e-08
1.18819e-05
1.93094e-08
1.18727e-05
1.89669e-08
1.18638e-05
1.86907e-08
1.1855e-05
1.84906e-08
1.18462e-05
1.83768e-08
1.18375e-05
1.83609e-08
1.18287e-05
1.84561e-08
1.18199e-05
1.86771e-08
1.18109e-05
1.90401e-08
1.18016e-05
1.95641e-08
1.1792e-05
2.02702e-08
1.17819e-05
2.11831e-08
1.17713e-05
2.23307e-08
1.176e-05
2.37457e-08
1.17477e-05
2.54662e-08
1.17344e-05
2.7537e-08
1.17199e-05
3.00108e-08
1.17039e-05
3.29506e-08
1.1686e-05
3.64317e-08
1.16661e-05
4.05456e-08
1.16437e-05
4.54033e-08
1.16184e-05
5.11421e-08
1.15896e-05
5.79322e-08
1.15567e-05
6.59875e-08
1.15189e-05
7.55794e-08
1.14753e-05
8.70565e-08
1.14248e-05
1.00873e-07
1.13658e-05
1.17625e-07
1.12965e-05
1.38114e-07
1.12146e-05
1.63425e-07
1.11171e-05
1.9505e-07
1.1e-05
2.35079e-07
1.08581e-05
2.86468e-07
1.06844e-05
3.53451e-07
1.04696e-05
4.42131e-07
1.02015e-05
5.6127e-07
9.86471e-06
7.23139e-07
9.44157e-06
9.44026e-07
8.91865e-06
1.2439e-06
8.31238e-06
1.63784e-06
2.07435e-06
7.81041e-06
1.33213e-05
2.10664e-09
1.33175e-05
1.10196e-08
1.33086e-05
2.58555e-08
1.32937e-05
4.24999e-08
1.3274e-05
5.60531e-08
1.32516e-05
6.36292e-08
1.32286e-05
6.52502e-08
1.32063e-05
6.28856e-08
1.31854e-05
5.89115e-08
1.31658e-05
5.50675e-08
1.31472e-05
5.21738e-08
1.31293e-05
5.0344e-08
1.31118e-05
4.93362e-08
1.30945e-05
4.88232e-08
1.30773e-05
4.85354e-08
1.30603e-05
4.82993e-08
1.30433e-05
4.80264e-08
1.30265e-05
4.76813e-08
1.30098e-05
4.72599e-08
1.29934e-05
4.67686e-08
1.29771e-05
4.62172e-08
1.29611e-05
4.56134e-08
1.29454e-05
4.49624e-08
1.29299e-05
4.42677e-08
1.29146e-05
4.35317e-08
1.28997e-05
4.27569e-08
1.28851e-05
4.19459e-08
1.28708e-05
4.1102e-08
1.28568e-05
4.02295e-08
1.28432e-05
3.93341e-08
1.28299e-05
3.8422e-08
1.2817e-05
3.75007e-08
1.28044e-05
3.65774e-08
1.27922e-05
3.56609e-08
1.27803e-05
3.47597e-08
1.27688e-05
3.38832e-08
1.27575e-05
3.30414e-08
1.27466e-05
3.22439e-08
1.27359e-05
3.15014e-08
1.27255e-05
3.08246e-08
1.27154e-05
3.02252e-08
1.27054e-05
2.97155e-08
1.26956e-05
2.93091e-08
1.26859e-05
2.90206e-08
1.26763e-05
2.88662e-08
1.26667e-05
2.88636e-08
1.2657e-05
2.90329e-08
1.26473e-05
2.93965e-08
1.26373e-05
2.99797e-08
1.26271e-05
3.08113e-08
1.26164e-05
3.19236e-08
1.26053e-05
3.33541e-08
1.25935e-05
3.51455e-08
1.2581e-05
3.73473e-08
1.25676e-05
4.00173e-08
1.2553e-05
4.32231e-08
1.25371e-05
4.70442e-08
1.25196e-05
5.15751e-08
1.25002e-05
5.69288e-08
1.24787e-05
6.32411e-08
1.24546e-05
7.06771e-08
1.24275e-05
7.94387e-08
1.23968e-05
8.97755e-08
1.2362e-05
1.01998e-07
1.23223e-05
1.16498e-07
1.22768e-05
1.33772e-07
1.22244e-05
1.54458e-07
1.21638e-05
1.79387e-07
1.20935e-05
2.09647e-07
1.20114e-05
2.46685e-07
1.19152e-05
2.92439e-07
1.1802e-05
3.49529e-07
1.16681e-05
4.21511e-07
1.15096e-05
5.13205e-07
1.13218e-05
6.31071e-07
1.11008e-05
7.83482e-07
1.08446e-05
9.80505e-07
1.05575e-05
1.23223e-06
1.02589e-05
1.54363e-06
9.9994e-06
1.89851e-06
2.215e-06
9.85987e-06
1.42545e-05
2.71294e-09
1.42508e-05
1.47767e-08
1.42416e-05
3.4974e-08
1.42264e-05
5.77661e-08
1.4206e-05
7.64693e-08
1.41825e-05
8.70902e-08
1.41582e-05
8.95797e-08
1.41346e-05
8.65644e-08
1.41123e-05
8.12636e-08
1.40913e-05
7.60586e-08
1.40714e-05
7.20945e-08
1.40523e-05
6.95543e-08
1.40335e-05
6.81269e-08
1.40151e-05
6.73784e-08
1.39967e-05
6.6946e-08
1.39785e-05
6.65946e-08
1.39605e-05
6.62006e-08
1.39426e-05
6.57158e-08
1.39249e-05
6.51313e-08
1.39073e-05
6.44552e-08
1.389e-05
6.36997e-08
1.3873e-05
6.28747e-08
1.38562e-05
6.19868e-08
1.38397e-05
6.10406e-08
1.38235e-05
6.00396e-08
1.38076e-05
5.89868e-08
1.3792e-05
5.78862e-08
1.37767e-05
5.67422e-08
1.37618e-05
5.55609e-08
1.37472e-05
5.435e-08
1.37329e-05
5.31182e-08
1.37191e-05
5.18751e-08
1.37055e-05
5.06316e-08
1.36924e-05
4.93987e-08
1.36795e-05
4.8189e-08
1.3667e-05
4.70151e-08
1.36549e-05
4.589e-08
1.3643e-05
4.48275e-08
1.36314e-05
4.38419e-08
1.362e-05
4.29478e-08
1.36089e-05
4.21611e-08
1.35979e-05
4.1499e-08
1.35871e-05
4.09796e-08
1.35764e-05
4.06231e-08
1.35658e-05
4.04511e-08
1.35551e-05
4.04882e-08
1.35444e-05
4.07613e-08
1.35335e-05
4.13011e-08
1.35224e-05
4.21417e-08
1.35109e-05
4.33217e-08
1.34991e-05
4.48852e-08
1.34866e-05
4.68821e-08
1.34735e-05
4.93697e-08
1.34596e-05
5.24145e-08
1.34447e-05
5.60931e-08
1.34286e-05
6.04954e-08
1.34112e-05
6.57264e-08
1.33921e-05
7.19103e-08
1.3371e-05
7.91946e-08
1.33477e-05
8.77561e-08
1.33219e-05
9.78077e-08
1.3293e-05
1.09608e-07
1.32605e-05
1.23473e-07
1.3224e-05
1.39793e-07
1.31827e-05
1.59052e-07
1.31359e-05
1.81856e-07
1.30827e-05
2.08973e-07
1.3022e-05
2.41375e-07
1.29526e-05
2.80312e-07
1.28732e-05
3.27391e-07
1.27822e-05
3.84691e-07
1.26781e-05
4.549e-07
1.25594e-05
5.41467e-07
1.24252e-05
6.48748e-07
1.22754e-05
7.82047e-07
1.21128e-05
9.4735e-07
1.19443e-05
1.15032e-06
1.1784e-05
1.39372e-06
1.16571e-05
1.67182e-06
1.15974e-05
1.95935e-06
2.19357e-06
1.16201e-05
1.52531e-05
3.22321e-09
1.52495e-05
1.83994e-08
1.52405e-05
4.40225e-08
1.52251e-05
7.31661e-08
1.52042e-05
9.7339e-08
1.518e-05
1.11363e-07
1.51545e-05
1.15034e-07
1.51295e-05
1.11583e-07
1.51058e-05
1.0506e-07
1.50834e-05
9.85113e-08
1.50621e-05
9.34396e-08
1.50415e-05
9.01265e-08
1.50215e-05
8.82143e-08
1.50018e-05
8.71729e-08
1.49823e-05
8.655e-08
1.4963e-05
8.60477e-08
1.49438e-05
8.55071e-08
1.49248e-05
8.48626e-08
1.49059e-05
8.41e-08
1.48874e-05
8.32271e-08
1.4869e-05
8.22572e-08
1.48509e-05
8.12016e-08
1.48331e-05
8.0069e-08
1.48155e-05
7.88646e-08
1.47983e-05
7.75925e-08
1.47813e-05
7.6257e-08
1.47647e-05
7.48624e-08
1.47484e-05
7.34153e-08
1.47325e-05
7.19236e-08
1.47169e-05
7.03967e-08
1.47017e-05
6.88462e-08
1.46868e-05
6.72841e-08
1.46723e-05
6.57243e-08
1.46581e-05
6.41815e-08
1.46443e-05
6.2671e-08
1.46308e-05
6.12092e-08
1.46175e-05
5.98128e-08
1.46046e-05
5.8499e-08
1.4592e-05
5.72861e-08
1.45795e-05
5.61933e-08
1.45673e-05
5.52403e-08
1.45553e-05
5.4449e-08
1.45433e-05
5.38426e-08
1.45315e-05
5.34466e-08
1.45196e-05
5.32888e-08
1.45077e-05
5.33999e-08
1.44957e-05
5.38144e-08
1.44836e-05
5.45705e-08
1.44711e-05
5.57114e-08
1.44583e-05
5.72856e-08
1.4445e-05
5.9348e-08
1.44311e-05
6.19611e-08
1.44165e-05
6.51961e-08
1.4401e-05
6.91351e-08
1.43845e-05
7.38728e-08
1.43667e-05
7.95186e-08
1.43475e-05
8.62008e-08
1.43267e-05
9.40696e-08
1.43039e-05
1.03302e-07
1.42789e-05
1.14109e-07
1.42513e-05
1.2674e-07
1.42207e-05
1.41499e-07
1.41868e-05
1.58748e-07
1.4149e-05
1.78931e-07
1.41069e-05
2.02587e-07
1.40597e-05
2.30382e-07
1.40069e-05
2.63135e-07
1.39478e-05
3.01859e-07
1.38817e-05
3.47813e-07
1.38079e-05
4.02559e-07
1.37259e-05
4.68023e-07
1.36356e-05
5.46561e-07
1.35375e-05
6.4099e-07
1.3433e-05
7.54558e-07
1.33257e-05
8.90738e-07
1.32217e-05
1.05269e-06
1.31313e-05
1.24206e-06
1.30696e-05
1.45676e-06
1.30556e-05
1.68711e-06
1.31057e-05
1.91052e-06
2.0866e-06
1.3214e-05
1.63217e-05
3.60073e-09
1.63183e-05
2.17593e-08
1.63096e-05
5.27615e-08
1.62944e-05
8.8379e-08
1.62734e-05
1.18329e-07
1.62486e-05
1.36175e-07
1.62222e-05
1.41445e-07
1.6196e-05
1.3788e-07
1.61707e-05
1.30323e-07
1.61468e-05
1.22496e-07
1.6124e-05
1.16295e-07
1.6102e-05
1.12143e-07
1.60807e-05
1.09667e-07
1.60597e-05
1.08258e-07
1.60389e-05
1.07383e-07
1.60184e-05
1.06682e-07
1.59981e-05
1.0596e-07
1.5978e-05
1.0513e-07
1.59581e-05
1.04171e-07
1.59384e-05
1.03087e-07
1.5919e-05
1.01892e-07
1.58998e-05
1.00598e-07
1.58809e-05
9.92143e-08
1.58624e-05
9.77465e-08
1.58441e-05
9.61999e-08
1.58261e-05
9.45792e-08
1.58085e-05
9.28907e-08
1.57912e-05
9.11417e-08
1.57742e-05
8.93424e-08
1.57576e-05
8.75044e-08
1.57413e-05
8.56416e-08
1.57254e-05
8.37695e-08
1.57098e-05
8.19046e-08
1.56946e-05
8.00646e-08
1.56797e-05
7.82687e-08
1.56651e-05
7.65363e-08
1.56508e-05
7.4888e-08
1.56367e-05
7.3345e-08
1.56229e-05
7.19293e-08
1.56093e-05
7.06639e-08
1.55959e-05
6.95736e-08
1.55826e-05
6.86844e-08
1.55694e-05
6.80247e-08
1.55563e-05
6.76254e-08
1.55431e-05
6.75198e-08
1.55299e-05
6.77455e-08
1.55165e-05
6.83436e-08
1.55028e-05
6.93604e-08
1.54889e-05
7.08472e-08
1.54745e-05
7.28621e-08
1.54597e-05
7.54699e-08
1.54442e-05
7.87448e-08
1.54279e-05
8.27705e-08
1.54107e-05
8.76428e-08
1.53924e-05
9.34717e-08
1.53729e-05
1.00384e-07
1.5352e-05
1.08526e-07
1.53294e-05
1.18068e-07
1.53049e-05
1.2921e-07
1.52782e-05
1.42185e-07
1.52491e-05
1.57269e-07
1.52173e-05
1.74788e-07
1.51823e-05
1.9513e-07
1.5144e-05
2.18758e-07
1.51018e-05
2.46224e-07
1.50554e-05
2.78191e-07
1.50046e-05
3.15453e-07
1.49489e-05
3.5896e-07
1.48884e-05
4.09843e-07
1.4823e-05
4.69442e-07
1.47531e-05
5.39315e-07
1.46799e-05
6.21236e-07
1.46052e-05
7.17138e-07
1.45323e-05
8.28974e-07
1.4466e-05
9.58421e-07
1.44138e-05
1.10632e-06
1.43856e-05
1.27174e-06
1.43933e-05
1.45047e-06
1.44488e-05
1.63307e-06
1.45578e-05
1.80289e-06
1.93597e-06
1.47098e-05
1.74651e-05
3.81e-09
1.74622e-05
2.47289e-08
1.7454e-05
6.09449e-08
1.74393e-05
1.03065e-07
1.74186e-05
1.39075e-07
1.73936e-05
1.61214e-07
1.73664e-05
1.686e-07
1.7339e-05
1.65353e-07
1.73123e-05
1.5704e-07
1.72868e-05
1.48054e-07
1.72624e-05
1.40728e-07
1.7239e-05
1.35673e-07
1.72162e-05
1.3254e-07
1.71939e-05
1.30673e-07
1.71719e-05
1.29469e-07
1.71502e-05
1.28511e-07
1.71287e-05
1.27563e-07
1.71075e-05
1.26516e-07
1.70865e-05
1.25338e-07
1.70658e-05
1.24028e-07
1.70453e-05
1.22597e-07
1.70251e-05
1.21056e-07
1.70052e-05
1.19416e-07
1.69855e-05
1.17682e-07
1.69662e-05
1.1586e-07
1.69472e-05
1.13956e-07
1.69286e-05
1.11976e-07
1.69102e-05
1.09931e-07
1.68922e-05
1.07832e-07
1.68746e-05
1.05693e-07
1.68572e-05
1.03531e-07
1.68402e-05
1.01364e-07
1.68236e-05
9.92115e-08
1.68072e-05
9.70945e-08
1.67912e-05
9.50355e-08
1.67755e-05
9.30576e-08
1.676e-05
9.11848e-08
1.67447e-05
8.94419e-08
1.67297e-05
8.78551e-08
1.67149e-05
8.64513e-08
1.67001e-05
8.52595e-08
1.66855e-05
8.43104e-08
1.6671e-05
8.36373e-08
1.66564e-05
8.3276e-08
1.66418e-05
8.32658e-08
1.66271e-05
8.365e-08
1.66122e-05
8.44766e-08
1.6597e-05
8.57987e-08
1.65814e-05
8.76756e-08
1.65654e-05
9.01733e-08
1.65488e-05
9.33663e-08
1.65316e-05
9.73377e-08
1.65136e-05
1.02182e-07
1.64946e-05
1.08006e-07
1.64746e-05
1.14931e-07
1.64533e-05
1.23097e-07
1.64306e-05
1.32662e-07
1.64064e-05
1.4381e-07
1.63804e-05
1.56751e-07
1.63523e-05
1.7173e-07
1.63221e-05
1.89031e-07
1.62894e-05
2.08983e-07
1.62541e-05
2.31971e-07
1.6216e-05
2.58441e-07
1.61749e-05
2.88913e-07
1.61307e-05
3.23992e-07
1.60833e-05
3.64375e-07
1.6033e-05
4.10862e-07
1.598e-05
4.64358e-07
1.59252e-05
5.25869e-07
1.58696e-05
5.96478e-07
1.58151e-05
6.77298e-07
1.57644e-05
7.69372e-07
1.57214e-05
8.7351e-07
1.56914e-05
9.90015e-07
1.5681e-05
1.11826e-06
1.56982e-05
1.25608e-06
1.57512e-05
1.39901e-06
1.58462e-05
1.5395e-06
1.59841e-05
1.6665e-06
1.76637e-06
1.61552e-05
1.86887e-05
3.82166e-09
1.86862e-05
2.71958e-08
1.86788e-05
6.83491e-08
1.8665e-05
1.16903e-07
1.86449e-05
1.59216e-07
1.862e-05
1.8615e-07
1.85924e-05
1.96253e-07
1.85639e-05
1.93856e-07
1.85358e-05
1.85152e-07
1.85087e-05
1.75189e-07
1.84827e-05
1.6677e-07
1.84577e-05
1.60755e-07
1.84335e-05
1.56871e-07
1.84098e-05
1.54445e-07
1.83866e-05
1.52823e-07
1.83637e-05
1.51536e-07
1.83411e-05
1.5031e-07
1.83188e-05
1.4901e-07
1.82967e-05
1.47587e-07
1.82749e-05
1.46033e-07
1.82534e-05
1.44354e-07
1.82322e-05
1.4256e-07
1.82112e-05
1.4066e-07
1.81906e-05
1.38659e-07
1.81703e-05
1.36563e-07
1.81502e-05
1.3438e-07
1.81305e-05
1.32117e-07
1.81112e-05
1.29786e-07
1.80921e-05
1.274e-07
1.80734e-05
1.24977e-07
1.8055e-05
1.22535e-07
1.80369e-05
1.20094e-07
1.80191e-05
1.17679e-07
1.80016e-05
1.15312e-07
1.79844e-05
1.13019e-07
1.79675e-05
1.10828e-07
1.79508e-05
1.08765e-07
1.79343e-05
1.06859e-07
1.7918e-05
1.05139e-07
1.79018e-05
1.03637e-07
1.78857e-05
1.02385e-07
1.78697e-05
1.01419e-07
1.78537e-05
1.00777e-07
1.78376e-05
1.00498e-07
1.78215e-05
1.00628e-07
1.78051e-05
1.01215e-07
1.77886e-05
1.02313e-07
1.77717e-05
1.03982e-07
1.77545e-05
1.06287e-07
1.77367e-05
1.093e-07
1.77184e-05
1.13104e-07
1.76994e-05
1.17789e-07
1.76796e-05
1.23456e-07
1.76589e-05
1.30221e-07
1.76372e-05
1.3821e-07
1.76142e-05
1.47571e-07
1.759e-05
1.58466e-07
1.75643e-05
1.71082e-07
1.7537e-05
1.85632e-07
1.7508e-05
2.02354e-07
1.74772e-05
2.21523e-07
1.74443e-05
2.43449e-07
1.74095e-05
2.68485e-07
1.73726e-05
2.97029e-07
1.73336e-05
3.2953e-07
1.72928e-05
3.66487e-07
1.72504e-05
4.08449e-07
1.72069e-05
4.56012e-07
1.71632e-05
5.09805e-07
1.71202e-05
5.70463e-07
1.70798e-05
6.38591e-07
1.70441e-05
7.14698e-07
1.7016e-05
7.99097e-07
1.69994e-05
8.91768e-07
1.69989e-05
9.9216e-07
1.70199e-05
1.09893e-06
1.7068e-05
1.20966e-06
1.71481e-05
1.3205e-06
1.72632e-05
1.426e-06
1.74121e-05
1.51926e-06
1.59271e-06
1.75873e-05
1.9998e-05
3.61588e-09
1.99961e-05
2.90792e-08
1.99897e-05
7.48001e-08
1.99769e-05
1.29625e-07
1.99577e-05
1.7843e-07
1.99333e-05
2.10663e-07
1.99054e-05
2.24135e-07
1.98761e-05
2.23198e-07
1.98467e-05
2.14545e-07
1.98181e-05
2.03847e-07
1.97906e-05
1.94409e-07
1.9764e-05
1.87396e-07
1.97383e-05
1.8267e-07
1.97133e-05
1.7958e-07
1.96888e-05
1.77443e-07
1.96647e-05
1.75751e-07
1.9641e-05
1.74188e-07
1.96176e-05
1.72593e-07
1.95945e-05
1.70896e-07
1.95716e-05
1.69079e-07
1.95491e-05
1.67141e-07
1.95269e-05
1.65088e-07
1.95049e-05
1.62926e-07
1.94833e-05
1.6066e-07
1.9462e-05
1.58296e-07
1.94409e-05
1.55843e-07
1.94202e-05
1.53309e-07
1.93998e-05
1.50708e-07
1.93797e-05
1.48054e-07
1.93599e-05
1.45368e-07
1.93404e-05
1.4267e-07
1.93212e-05
1.39985e-07
1.93023e-05
1.37337e-07
1.92836e-05
1.34754e-07
1.92652e-05
1.32265e-07
1.9247e-05
1.29898e-07
1.9229e-05
1.27686e-07
1.92112e-05
1.25658e-07
1.91935e-05
1.23849e-07
1.91759e-05
1.22294e-07
1.91584e-05
1.21028e-07
1.91409e-05
1.20091e-07
1.91233e-05
1.19524e-07
1.91057e-05
1.19373e-07
1.90879e-05
1.19687e-07
1.907e-05
1.20518e-07
1.90517e-05
1.21925e-07
1.90331e-05
1.23973e-07
1.90141e-05
1.26731e-07
1.89947e-05
1.30278e-07
1.89746e-05
1.34699e-07
1.89538e-05
1.40089e-07
1.89323e-05
1.46553e-07
1.89099e-05
1.54208e-07
1.88866e-05
1.63184e-07
1.88622e-05
1.73626e-07
1.88366e-05
1.85694e-07
1.88098e-05
1.99567e-07
1.87817e-05
2.15445e-07
1.87522e-05
2.33551e-07
1.87214e-05
2.54128e-07
1.86891e-05
2.7745e-07
1.86556e-05
3.03813e-07
1.86208e-05
3.33541e-07
1.85852e-05
3.66981e-07
1.85489e-05
4.04499e-07
1.85127e-05
4.46471e-07
1.84772e-05
4.93273e-07
1.84436e-05
5.45252e-07
1.84131e-05
6.02704e-07
1.83877e-05
6.65825e-07
1.83695e-05
7.34655e-07
1.83614e-05
8.09007e-07
1.83666e-05
8.88362e-07
1.83887e-05
9.71765e-07
1.84317e-05
1.0577e-06
1.84992e-05
1.14396e-06
1.85938e-05
1.2276e-06
1.87166e-05
1.30494e-06
1.88658e-05
1.37179e-06
1.42402e-06
1.90362e-05
2.13989e-05
3.18901e-09
2.13977e-05
3.03421e-08
2.13923e-05
8.01993e-08
2.13809e-05
1.41054e-07
2.13629e-05
1.96472e-07
2.13391e-05
2.34476e-07
2.13113e-05
2.51978e-07
2.12813e-05
2.53153e-07
2.12509e-05
2.45053e-07
2.12209e-05
2.33918e-07
2.11918e-05
2.23578e-07
2.11637e-05
2.15559e-07
2.11365e-05
2.09915e-07
2.11102e-05
2.06062e-07
2.10844e-05
2.03316e-07
2.10592e-05
2.01137e-07
2.10343e-05
1.99177e-07
2.10099e-05
1.97242e-07
2.09858e-05
1.95243e-07
2.09619e-05
1.93144e-07
2.09384e-05
1.90936e-07
2.09152e-05
1.88618e-07
2.08923e-05
1.86195e-07
2.08697e-05
1.83669e-07
2.08473e-05
1.81047e-07
2.08253e-05
1.78337e-07
2.08036e-05
1.75549e-07
2.07821e-05
1.72698e-07
2.0761e-05
1.69802e-07
2.07401e-05
1.66881e-07
2.07195e-05
1.6396e-07
2.06991e-05
1.61064e-07
2.0679e-05
1.58221e-07
2.06592e-05
1.55462e-07
2.06395e-05
1.52818e-07
2.062e-05
1.50321e-07
2.06007e-05
1.48004e-07
2.05815e-05
1.45902e-07
2.05623e-05
1.44051e-07
2.05433e-05
1.4249e-07
2.05242e-05
1.41257e-07
2.05052e-05
1.40395e-07
2.0486e-05
1.39949e-07
2.04668e-05
1.39968e-07
2.04473e-05
1.40503e-07
2.04277e-05
1.41612e-07
2.04077e-05
1.43355e-07
2.03874e-05
1.458e-07
2.03666e-05
1.49021e-07
2.03454e-05
1.53096e-07
2.03236e-05
1.58113e-07
2.03011e-05
1.64167e-07
2.0278e-05
1.71363e-07
2.02541e-05
1.79815e-07
2.02294e-05
1.89647e-07
2.02038e-05
2.00996e-07
2.01772e-05
2.1401e-07
2.01497e-05
2.28852e-07
2.01213e-05
2.45697e-07
2.0092e-05
2.64735e-07
2.00618e-05
2.86169e-07
2.00309e-05
3.10215e-07
1.99995e-05
3.37098e-07
1.99679e-05
3.67051e-07
1.99365e-05
4.00307e-07
1.99058e-05
4.37089e-07
1.98766e-05
4.77602e-07
1.98497e-05
5.22011e-07
1.98265e-05
5.70425e-07
1.98082e-05
6.22863e-07
1.97967e-05
6.79223e-07
1.97941e-05
7.39242e-07
1.98025e-05
8.02442e-07
1.98247e-05
8.68088e-07
1.98632e-05
9.3513e-07
1.99206e-05
1.00217e-06
1.99991e-05
1.06742e-06
2.00997e-05
1.12878e-06
2.02227e-05
1.18384e-06
2.03662e-05
1.23015e-06
1.26543e-06
2.05266e-05
2.2898e-05
2.55296e-09
2.28974e-05
3.09952e-08
2.2893e-05
8.45322e-08
2.2883e-05
1.51121e-07
2.28663e-05
2.13196e-07
2.28434e-05
2.57377e-07
2.28159e-05
2.79537e-07
2.27856e-05
2.83479e-07
2.27542e-05
2.76463e-07
2.2723e-05
2.65234e-07
2.26925e-05
2.54156e-07
2.2663e-05
2.45161e-07
2.26344e-05
2.38551e-07
2.26067e-05
2.33853e-07
2.25798e-05
2.30412e-07
2.25534e-05
2.27671e-07
2.25275e-05
2.25253e-07
2.2502e-05
2.22935e-07
2.24769e-05
2.20603e-07
2.24521e-05
2.18204e-07
2.24276e-05
2.15716e-07
2.24034e-05
2.13132e-07
2.23795e-05
2.10451e-07
2.23559e-05
2.07675e-07
2.23326e-05
2.04809e-07
2.23096e-05
2.01861e-07
2.22868e-05
1.98842e-07
2.22643e-05
1.95768e-07
2.22421e-05
1.92659e-07
2.22201e-05
1.89538e-07
2.21984e-05
1.8643e-07
2.21769e-05
1.83364e-07
2.21556e-05
1.8037e-07
2.21344e-05
1.7748e-07
2.21135e-05
1.74728e-07
2.20926e-05
1.72148e-07
2.20719e-05
1.69776e-07
2.20513e-05
1.67649e-07
2.20307e-05
1.65806e-07
2.20101e-05
1.64287e-07
2.19895e-05
1.63133e-07
2.19688e-05
1.6239e-07
2.1948e-05
1.62105e-07
2.1927e-05
1.62329e-07
2.19059e-05
1.63115e-07
2.18845e-05
1.64522e-07
2.18628e-05
1.66613e-07
2.18407e-05
1.69456e-07
2.18183e-05
1.73124e-07
2.17953e-05
1.77696e-07
2.17719e-05
1.83256e-07
2.17479e-05
1.89897e-07
2.17234e-05
1.97716e-07
2.16982e-05
2.0682e-07
2.16724e-05
2.17322e-07
2.16459e-05
2.29342e-07
2.16188e-05
2.4301e-07
2.15911e-05
2.5846e-07
2.15629e-05
2.75836e-07
2.15343e-05
2.95284e-07
2.15055e-05
3.16955e-07
2.14767e-05
3.41e-07
2.14483e-05
3.67564e-07
2.14205e-05
3.96784e-07
2.13941e-05
4.28779e-07
2.13696e-05
4.63639e-07
2.13478e-05
5.01418e-07
2.13297e-05
5.42112e-07
2.13166e-05
5.85644e-07
2.13096e-05
6.31845e-07
2.13105e-05
6.8043e-07
2.13208e-05
7.30972e-07
2.13423e-05
7.82884e-07
2.13771e-05
8.35395e-07
2.14267e-05
8.87541e-07
2.14927e-05
9.38165e-07
2.15762e-05
9.85938e-07
2.16775e-05
1.0294e-06
2.17963e-05
1.06705e-06
2.1931e-05
1.09745e-06
1.11938e-06
2.2079e-05
2.4502e-05
1.73196e-09
2.4502e-05
3.10934e-08
2.44986e-05
8.78649e-08
2.44899e-05
1.59859e-07
2.44746e-05
2.28565e-07
2.44527e-05
2.79239e-07
2.44257e-05
3.06608e-07
2.43953e-05
3.13933e-07
2.43633e-05
3.08534e-07
2.4331e-05
2.97584e-07
2.42992e-05
2.85973e-07
2.42684e-05
2.76077e-07
2.42386e-05
2.68489e-07
2.42097e-05
2.62892e-07
2.41815e-05
2.58686e-07
2.4154e-05
2.55319e-07
2.41271e-05
2.5239e-07
2.41006e-05
2.49649e-07
2.40745e-05
2.46957e-07
2.40487e-05
2.44241e-07
2.40233e-05
2.41467e-07
2.39982e-05
2.38618e-07
2.39733e-05
2.35688e-07
2.39488e-05
2.32675e-07
2.39245e-05
2.29583e-07
2.39004e-05
2.2642e-07
2.38766e-05
2.23199e-07
2.38531e-05
2.19935e-07
2.38298e-05
2.1665e-07
2.38066e-05
2.13368e-07
2.37837e-05
2.10117e-07
2.3761e-05
2.06927e-07
2.37384e-05
2.03829e-07
2.3716e-05
2.00858e-07
2.36937e-05
1.98049e-07
2.36714e-05
1.95437e-07
2.36493e-05
1.93061e-07
2.36271e-05
1.90959e-07
2.3605e-05
1.89172e-07
2.35828e-05
1.8774e-07
2.35606e-05
1.86708e-07
2.35383e-05
1.86122e-07
2.35158e-05
1.86029e-07
2.34931e-05
1.86482e-07
2.34703e-05
1.87534e-07
2.34471e-05
1.89245e-07
2.34237e-05
1.91676e-07
2.34e-05
1.94893e-07
2.33759e-05
1.98966e-07
2.33514e-05
2.0397e-07
2.33265e-05
2.09984e-07
2.33012e-05
2.17091e-07
2.32754e-05
2.2538e-07
2.32492e-05
2.34941e-07
2.32226e-05
2.45872e-07
2.31957e-05
2.58272e-07
2.31685e-05
2.72242e-07
2.31411e-05
2.87884e-07
2.31137e-05
3.05301e-07
2.30865e-05
3.24592e-07
2.30597e-05
3.45849e-07
2.30337e-05
3.69157e-07
2.30088e-05
3.94582e-07
2.29855e-05
4.22172e-07
2.29645e-05
4.51945e-07
2.29464e-05
4.83882e-07
2.29321e-05
5.17917e-07
2.29225e-05
5.53925e-07
2.29186e-05
5.91711e-07
2.29216e-05
6.30996e-07
2.29328e-05
6.7141e-07
2.29535e-05
7.12476e-07
2.29849e-05
7.53609e-07
2.30283e-05
7.94113e-07
2.30849e-05
8.33188e-07
2.31552e-05
8.69947e-07
2.32398e-05
9.03444e-07
2.33387e-05
9.32714e-07
2.3451e-05
9.56831e-07
2.35756e-05
9.74973e-07
9.86495e-07
2.37105e-05
2.62184e-05
7.57892e-10
2.62188e-05
3.0721e-08
2.62163e-05
9.03231e-08
2.62088e-05
1.67391e-07
2.61948e-05
2.42637e-07
2.6174e-05
3.00018e-07
2.61476e-05
3.33045e-07
2.61173e-05
3.44296e-07
2.60849e-05
3.41018e-07
2.60518e-05
3.30733e-07
2.6019e-05
3.18832e-07
2.5987e-05
3.08151e-07
2.5956e-05
2.99615e-07
2.59259e-05
2.93096e-07
2.58967e-05
2.88082e-07
2.58681e-05
2.8404e-07
2.58402e-05
2.80557e-07
2.58127e-05
2.7736e-07
2.57856e-05
2.74285e-07
2.57589e-05
2.71242e-07
2.57326e-05
2.68179e-07
2.57065e-05
2.6507e-07
2.56807e-05
2.61903e-07
2.56551e-05
2.58672e-07
2.56298e-05
2.55379e-07
2.56048e-05
2.52031e-07
2.55799e-05
2.48641e-07
2.55553e-05
2.45226e-07
2.55309e-05
2.41807e-07
2.55066e-05
2.3841e-07
2.54825e-05
2.35063e-07
2.54585e-05
2.31799e-07
2.54346e-05
2.28649e-07
2.54108e-05
2.25649e-07
2.53871e-05
2.22835e-07
2.53634e-05
2.20244e-07
2.53397e-05
2.17914e-07
2.5316e-05
2.15885e-07
2.52923e-05
2.14197e-07
2.52685e-05
2.12894e-07
2.52446e-05
2.12018e-07
2.52206e-05
2.11616e-07
2.51964e-05
2.11736e-07
2.51721e-05
2.12427e-07
2.51475e-05
2.13745e-07
2.51227e-05
2.15743e-07
2.50977e-05
2.18481e-07
2.50724e-05
2.2202e-07
2.50467e-05
2.26425e-07
2.50208e-05
2.31762e-07
2.49947e-05
2.38101e-07
2.49682e-05
2.45513e-07
2.49415e-05
2.54072e-07
2.49147e-05
2.6385e-07
2.48877e-05
2.74922e-07
2.48608e-05
2.87361e-07
2.48339e-05
3.01237e-07
2.48073e-05
3.16615e-07
2.47813e-05
3.33556e-07
2.4756e-05
3.52109e-07
2.47318e-05
3.7231e-07
2.4709e-05
3.94181e-07
2.46881e-05
4.17719e-07
2.46697e-05
4.42897e-07
2.46543e-05
4.69655e-07
2.46425e-05
4.97891e-07
2.46353e-05
5.27462e-07
2.46334e-05
5.58168e-07
2.46376e-05
5.89754e-07
2.46491e-05
6.219e-07
2.46686e-05
6.54219e-07
2.46971e-05
6.86258e-07
2.47355e-05
7.175e-07
2.47845e-05
7.47369e-07
2.48448e-05
7.75248e-07
2.49165e-05
8.00493e-07
2.49998e-05
8.22458e-07
2.50942e-05
8.40528e-07
2.51991e-05
8.54146e-07
2.53135e-05
8.62856e-07
8.66332e-07
2.54359e-05
2.80549e-05
-3.34108e-10
2.80557e-05
2.99759e-08
2.80539e-05
9.2065e-08
2.80474e-05
1.73893e-07
2.80346e-05
2.55541e-07
2.80149e-05
3.19741e-07
2.79892e-05
3.5876e-07
2.79591e-05
3.74389e-07
2.79265e-05
3.73689e-07
2.78929e-05
3.64446e-07
2.78593e-05
3.52518e-07
2.78263e-05
3.41208e-07
2.77943e-05
3.31793e-07
2.77631e-05
3.24368e-07
2.77329e-05
3.18531e-07
2.77033e-05
3.13786e-07
2.76744e-05
3.09721e-07
2.76459e-05
3.06045e-07
2.76179e-05
3.02574e-07
2.75903e-05
2.99196e-07
2.75629e-05
2.95846e-07
2.75359e-05
2.92489e-07
2.75092e-05
2.89102e-07
2.74826e-05
2.85677e-07
2.74563e-05
2.82213e-07
2.74302e-05
2.78715e-07
2.74043e-05
2.75196e-07
2.73786e-05
2.71672e-07
2.7353e-05
2.68167e-07
2.73275e-05
2.64704e-07
2.73021e-05
2.61314e-07
2.72768e-05
2.58028e-07
2.72516e-05
2.54879e-07
2.72264e-05
2.51903e-07
2.72012e-05
2.49136e-07
2.7176e-05
2.46615e-07
2.71508e-05
2.44378e-07
2.71255e-05
2.42465e-07
2.71002e-05
2.40916e-07
2.70747e-05
2.39772e-07
2.70492e-05
2.39077e-07
2.70235e-05
2.38874e-07
2.69977e-05
2.3921e-07
2.69716e-05
2.40133e-07
2.69454e-05
2.41691e-07
2.69191e-05
2.43936e-07
2.68925e-05
2.46922e-07
2.68657e-05
2.50702e-07
2.68387e-05
2.55331e-07
2.68116e-05
2.60867e-07
2.67844e-05
2.67365e-07
2.67572e-05
2.7488e-07
2.67299e-05
2.83469e-07
2.67027e-05
2.93182e-07
2.66758e-05
3.0407e-07
2.66492e-05
3.16176e-07
2.66232e-05
3.29537e-07
2.65979e-05
3.44183e-07
2.65737e-05
3.60131e-07
2.65508e-05
3.77386e-07
2.65295e-05
3.95934e-07
2.65103e-05
4.15743e-07
2.64937e-05
4.36758e-07
2.64801e-05
4.58893e-07
2.64702e-05
4.82036e-07
2.64645e-05
5.06034e-07
2.64637e-05
5.30701e-07
2.64685e-05
5.55807e-07
2.64796e-05
5.81081e-07
2.64978e-05
6.06206e-07
2.65236e-05
6.30829e-07
2.65578e-05
6.54557e-07
2.66008e-05
6.76966e-07
2.6653e-05
6.97614e-07
2.67146e-05
7.16047e-07
2.67857e-05
7.3182e-07
2.68661e-05
7.44512e-07
2.69553e-05
7.53743e-07
2.70526e-05
7.59193e-07
2.71572e-05
7.60621e-07
7.57876e-07
2.7268e-05
3.002e-05
-1.51337e-09
3.0021e-05
2.89551e-08
3.00199e-05
9.32572e-08
3.00142e-05
1.79566e-07
3.00023e-05
2.67447e-07
2.99836e-05
3.38492e-07
2.99587e-05
3.83725e-07
2.9929e-05
4.04082e-07
2.98964e-05
4.0635e-07
2.98625e-05
3.98501e-07
2.98283e-05
3.86821e-07
2.97945e-05
3.75066e-07
2.97615e-05
3.6488e-07
2.97295e-05
3.56598e-07
2.96982e-05
3.4995e-07
2.96677e-05
3.44499e-07
2.96378e-05
3.3984e-07
2.96084e-05
3.35676e-07
2.95795e-05
3.31803e-07
2.95509e-05
3.28093e-07
2.95227e-05
3.24466e-07
2.94947e-05
3.20876e-07
2.9467e-05
3.17293e-07
2.94395e-05
3.13704e-07
2.94121e-05
3.10103e-07
2.9385e-05
3.06496e-07
2.9358e-05
3.02892e-07
2.93311e-05
2.99309e-07
2.93042e-05
2.95766e-07
2.92775e-05
2.92291e-07
2.92508e-05
2.88911e-07
2.92242e-05
2.85657e-07
2.91976e-05
2.82563e-07
2.91709e-05
2.79663e-07
2.91442e-05
2.76992e-07
2.91175e-05
2.74586e-07
2.90907e-05
2.72483e-07
2.90639e-05
2.70721e-07
2.90369e-05
2.69338e-07
2.90098e-05
2.68374e-07
2.89826e-05
2.67869e-07
2.89553e-05
2.67864e-07
2.89278e-05
2.68401e-07
2.89002e-05
2.69524e-07
2.88725e-05
2.71276e-07
2.88446e-05
2.73702e-07
2.88167e-05
2.76846e-07
2.87886e-05
2.80754e-07
2.87606e-05
2.85468e-07
2.87325e-05
2.91033e-07
2.87046e-05
2.97488e-07
2.86768e-05
3.04872e-07
2.86493e-05
3.13219e-07
2.86222e-05
3.22559e-07
2.85957e-05
3.32915e-07
2.857e-05
3.44301e-07
2.85452e-05
3.56725e-07
2.85216e-05
3.7018e-07
2.84996e-05
3.84648e-07
2.84794e-05
4.00095e-07
2.84613e-05
4.16469e-07
2.84459e-05
4.33697e-07
2.84335e-05
4.51686e-07
2.84247e-05
4.70317e-07
2.84198e-05
4.89444e-07
2.84196e-05
5.08894e-07
2.84244e-05
5.28468e-07
2.84349e-05
5.47935e-07
2.84515e-05
5.67039e-07
2.84748e-05
5.855e-07
2.85052e-05
6.03016e-07
2.85431e-05
6.1927e-07
2.85887e-05
6.33938e-07
2.86422e-05
6.46695e-07
2.87037e-05
6.57226e-07
2.87728e-05
6.65238e-07
2.88494e-05
6.70467e-07
2.8933e-05
6.72692e-07
2.9023e-05
6.71742e-07
2.91186e-05
6.67501e-07
6.59914e-07
2.92191e-05
3.21227e-05
-2.75248e-09
3.2124e-05
2.77454e-08
3.21232e-05
9.40544e-08
3.21182e-05
1.84607e-07
3.21071e-05
2.7854e-07
3.20892e-05
3.56386e-07
3.2065e-05
4.07952e-07
3.20359e-05
4.33291e-07
3.20035e-05
4.38844e-07
3.19693e-05
4.32706e-07
3.19347e-05
4.21543e-07