/*--------------------------------*- C++ -*----------------------------------*\
| =========                 |                                                 |
| \\      /  F ield         | OpenFOAM: The Open Source CFD Toolbox           |
|  \\    /   O peration     | Version:  5.x                                   |
|   \\  /    A nd           | Web:      www.OpenFOAM.org                      |
|    \\/     M anipulation  |                                                 |
\*---------------------------------------------------------------------------*/
FoamFile
{
    version     2.0;
    format      ascii;
    class       volVectorField;
    location    "0.6";
    object      U;
}
// * * * * * * * * * * * * * * * * * * * * * * * * * * * * * * * * * * * * * //

dimensions      [0 1 -1 0 0 0 0];

internalField   nonuniform List<vector> 
12013
(
(0.1 5.88611e-07 0)
(0.0999872 2.93393e-06 0)
(0.0999399 6.92833e-06 0)
(0.0998466 1.15416e-05 0)
(0.0997097 1.54595e-05 0)
(0.0995439 1.78381e-05 0)
(0.0993672 1.86033e-05 0)
(0.0991935 1.82424e-05 0)
(0.0990303 1.73996e-05 0)
(0.0988787 1.65732e-05 0)
(0.0987365 1.6014e-05 0)
(0.0986006 1.57694e-05 0)
(0.0984684 1.57762e-05 0)
(0.098338 1.59395e-05 0)
(0.0982086 1.61767e-05 0)
(0.0980798 1.6432e-05 0)
(0.0979519 1.66756e-05 0)
(0.0978248 1.68948e-05 0)
(0.097699 1.70866e-05 0)
(0.0975746 1.72517e-05 0)
(0.0974518 1.73933e-05 0)
(0.0973307 1.75118e-05 0)
(0.0972117 1.76089e-05 0)
(0.0970947 1.76847e-05 0)
(0.0969799 1.77387e-05 0)
(0.0968675 1.77704e-05 0)
(0.0967576 1.778e-05 0)
(0.0966503 1.77678e-05 0)
(0.0965456 1.77343e-05 0)
(0.0964438 1.76806e-05 0)
(0.0963448 1.76093e-05 0)
(0.0962487 1.75224e-05 0)
(0.0961555 1.74229e-05 0)
(0.0960654 1.73148e-05 0)
(0.0959781 1.72018e-05 0)
(0.0958938 1.70889e-05 0)
(0.0958123 1.69816e-05 0)
(0.0957336 1.68858e-05 0)
(0.0956575 1.68079e-05 0)
(0.0955839 1.6756e-05 0)
(0.0955125 1.67379e-05 0)
(0.0954433 1.67635e-05 0)
(0.0953759 1.68432e-05 0)
(0.09531 1.69896e-05 0)
(0.0952453 1.72168e-05 0)
(0.0951815 1.75412e-05 0)
(0.0951181 1.79811e-05 0)
(0.0950545 1.85582e-05 0)
(0.0949904 1.92983e-05 0)
(0.0949249 2.02297e-05 0)
(0.0948575 2.13872e-05 0)
(0.0947872 2.28104e-05 0)
(0.0947133 2.45461e-05 0)
(0.0946345 2.66494e-05 0)
(0.0945499 2.9186e-05 0)
(0.0944578 3.22341e-05 0)
(0.0943569 3.58876e-05 0)
(0.0942453 4.02595e-05 0)
(0.0941208 4.54872e-05 0)
(0.0939811 5.17394e-05 0)
(0.0938232 5.92239e-05 0)
(0.0936437 6.82e-05 0)
(0.0934385 7.89944e-05 0)
(0.0932028 9.20217e-05 0)
(0.0929307 0.000107817 0)
(0.0926148 0.000127077 0)
(0.0922463 0.000150724 0)
(0.0918137 0.000179997 0)
(0.0913028 0.000216589 0)
(0.0906951 0.000262856 0)
(0.0899662 0.000322143 0)
(0.0890837 0.000399297 0)
(0.0880031 0.000501503 0)
(0.0866629 0.000639653 0)
(0.0849754 0.000830659 0)
(0.0828139 0.00110139 0)
(0.0799908 0.00149554 0)
(0.0762092 0.00208791 0)
(0.0710069 0.00302921 0)
(0.0638386 0.00474052 0)
(0.0557732 0.00911777 0)
(0.100001 1.76495e-06 0)
(0.0999881 8.94002e-06 0)
(0.0999417 2.11773e-05 0)
(0.0998495 3.53282e-05 0)
(0.0997139 4.73618e-05 0)
(0.0995491 5.46833e-05 0)
(0.0993731 5.7057e-05 0)
(0.0991999 5.59725e-05 0)
(0.0990368 5.34024e-05 0)
(0.0988853 5.08747e-05 0)
(0.0987431 4.91611e-05 0)
(0.0986072 4.84092e-05 0)
(0.0984749 4.84266e-05 0)
(0.0983446 4.89231e-05 0)
(0.0982152 4.96465e-05 0)
(0.0980866 5.04272e-05 0)
(0.0979588 5.11726e-05 0)
(0.0978319 5.18442e-05 0)
(0.0977062 5.2432e-05 0)
(0.0975819 5.29397e-05 0)
(0.0974593 5.33743e-05 0)
(0.0973384 5.37403e-05 0)
(0.0972194 5.40406e-05 0)
(0.0971025 5.42753e-05 0)
(0.0969878 5.44441e-05 0)
(0.0968754 5.45454e-05 0)
(0.0967655 5.45797e-05 0)
(0.0966581 5.4547e-05 0)
(0.0965534 5.44494e-05 0)
(0.0964515 5.42915e-05 0)
(0.0963523 5.40796e-05 0)
(0.096256 5.38211e-05 0)
(0.0961626 5.35248e-05 0)
(0.0960721 5.3202e-05 0)
(0.0959845 5.28654e-05 0)
(0.0958998 5.25304e-05 0)
(0.0958178 5.22135e-05 0)
(0.0957385 5.19324e-05 0)
(0.0956618 5.17078e-05 0)
(0.0955875 5.15629e-05 0)
(0.0955154 5.15231e-05 0)
(0.0954454 5.16175e-05 0)
(0.095377 5.18794e-05 0)
(0.0953102 5.23471e-05 0)
(0.0952445 5.30637e-05 0)
(0.0951796 5.40784e-05 0)
(0.095115 5.5448e-05 0)
(0.0950502 5.72398e-05 0)
(0.0949847 5.95311e-05 0)
(0.0949179 6.24104e-05 0)
(0.0948491 6.59819e-05 0)
(0.0947774 7.03675e-05 0)
(0.0947019 7.57103e-05 0)
(0.0946217 8.21781e-05 0)
(0.0945355 8.99711e-05 0)
(0.094442 9.93277e-05 0)
(0.0943397 0.000110533 0)
(0.0942267 0.000123931 0)
(0.094101 0.000139937 0)
(0.0939603 0.000159064 0)
(0.0938017 0.000181939 0)
(0.093622 0.000209345 0)
(0.0934171 0.000242264 0)
(0.0931826 0.000281944 0)
(0.0929127 0.000329984 0)
(0.0926007 0.000388462 0)
(0.0922381 0.000460113 0)
(0.0918147 0.000548592 0)
(0.0913173 0.00065886 0)
(0.0907295 0.000797761 0)
(0.0900301 0.000974907 0)
(0.0891915 0.00120405 0)
(0.0881775 0.0015052 0)
(0.08694 0.00190805 0)
(0.0854147 0.00245723 0)
(0.0835167 0.00322062 0)
(0.0811356 0.0043011 0)
(0.0781265 0.00585252 0)
(0.0743287 0.00810024 0)
(0.0697967 0.0113046 0)
(0.0658347 0.0153222 0)
(0.100001 2.89601e-06 0)
(0.0999892 1.51351e-05 0)
(0.0999446 3.6072e-05 0)
(0.099855 6.03552e-05 0)
(0.0997223 8.10769e-05 0)
(0.0995601 9.37618e-05 0)
(0.0993859 9.79679e-05 0)
(0.0992139 9.62188e-05 0)
(0.0990513 9.1883e-05 0)
(0.0988998 8.75817e-05 0)
(0.0987575 8.46479e-05 0)
(0.0986214 8.33463e-05 0)
(0.0984892 8.33573e-05 0)
(0.0983589 8.41897e-05 0)
(0.0982297 8.54145e-05 0)
(0.0981014 8.67423e-05 0)
(0.0979739 8.80151e-05 0)
(0.0978474 8.91645e-05 0)
(0.0977221 9.01743e-05 0)
(0.0975982 9.10497e-05 0)
(0.0974759 9.18013e-05 0)
(0.0973554 9.24381e-05 0)
(0.0972367 9.29637e-05 0)
(0.0971201 9.33786e-05 0)
(0.0970056 9.36821e-05 0)
(0.0968934 9.38723e-05 0)
(0.0967836 9.39492e-05 0)
(0.0966763 9.39136e-05 0)
(0.0965715 9.37695e-05 0)
(0.0964694 9.35246e-05 0)
(0.0963701 9.31891e-05 0)
(0.0962735 9.27767e-05 0)
(0.0961797 9.23027e-05 0)
(0.0960888 9.17864e-05 0)
(0.0960006 9.12503e-05 0)
(0.0959151 9.07199e-05 0)
(0.0958323 9.02236e-05 0)
(0.0957521 8.97927e-05 0)
(0.0956743 8.94628e-05 0)
(0.0955988 8.9273e-05 0)
(0.0955254 8.92675e-05 0)
(0.0954539 8.94961e-05 0)
(0.095384 9.00163e-05 0)
(0.0953154 9.08933e-05 0)
(0.0952479 9.22007e-05 0)
(0.0951809 9.40231e-05 0)
(0.0951142 9.64591e-05 0)
(0.0950471 9.96223e-05 0)
(0.0949793 0.000103644 0)
(0.09491 0.000108677 0)
(0.0948385 0.000114898 0)
(0.0947641 0.000122514 0)
(0.0946859 0.000131769 0)
(0.0946029 0.000142949 0)
(0.0945139 0.000156391 0)
(0.0944176 0.000172498 0)
(0.0943126 0.000191753 0)
(0.094197 0.000214732 0)
(0.0940691 0.000242137 0)
(0.0939264 0.000274821 0)
(0.0937664 0.000313833 0)
(0.093586 0.000360472 0)
(0.0933816 0.000416361 0)
(0.0931488 0.000483548 0)
(0.0928827 0.000564642 0)
(0.0925771 0.000663006 0)
(0.0922248 0.000783027 0)
(0.0918169 0.000930495 0)
(0.0913426 0.00111316 0)
(0.0907886 0.00134153 0)
(0.0901388 0.00163004 0)
(0.0893732 0.00199881 0)
(0.0884677 0.00247613 0)
(0.0873933 0.00310207 0)
(0.0861172 0.00393345 0)
(0.0846058 0.0050498 0)
(0.0828333 0.00655805 0)
(0.0807979 0.00858971 0)
(0.0785654 0.0112756 0)
(0.0764 0.0146236 0)
(0.0750062 0.0180292 0)
(0.100001 3.93785e-06 0)
(0.0999905 2.1383e-05 0)
(0.0999488 5.13656e-05 0)
(0.0998632 8.63036e-05 0)
(0.0997352 0.000116293 0)
(0.0995773 0.000134848 0)
(0.0994065 0.00014124 0)
(0.0992364 0.000139013 0)
(0.0990746 0.000132968 0)
(0.0989232 0.000126872 0)
(0.0987807 0.000122666 0)
(0.0986445 0.000120763 0)
(0.0985122 0.000120729 0)
(0.0983821 0.000121877 0)
(0.0982533 0.000123599 0)
(0.0981254 0.000125481 0)
(0.0979985 0.000127296 0)
(0.0978726 0.000128945 0)
(0.097748 0.000130401 0)
(0.0976248 0.00013167 0)
(0.0975032 0.000132766 0)
(0.0973832 0.000133701 0)
(0.0972652 0.00013448 0)
(0.0971491 0.000135104 0)
(0.0970351 0.000135571 0)
(0.0969232 0.000135879 0)
(0.0968137 0.000136029 0)
(0.0967066 0.000136022 0)
(0.096602 0.000135863 0)
(0.0964999 0.000135566 0)
(0.0964005 0.000135144 0)
(0.0963036 0.000134616 0)
(0.0962095 0.000134007 0)
(0.096118 0.000133344 0)
(0.0960291 0.00013266 0)
(0.0959428 0.000131991 0)
(0.0958591 0.000131378 0)
(0.0957777 0.000130868 0)
(0.0956985 0.00013051 0)
(0.0956215 0.000130363 0)
(0.0955464 0.000130489 0)
(0.095473 0.000130961 0)
(0.095401 0.000131861 0)
(0.0953301 0.000133284 0)
(0.0952601 0.000135334 0)
(0.0951905 0.000138134 0)
(0.095121 0.000141825 0)
(0.0950509 0.000146571 0)
(0.0949799 0.000152558 0)
(0.0949073 0.000160005 0)
(0.0948325 0.000169165 0)
(0.0947545 0.000180332 0)
(0.0946727 0.000193851 0)
(0.094586 0.000210129 0)
(0.0944934 0.000229642 0)
(0.0943936 0.00025296 0)
(0.0942851 0.000280757 0)
(0.0941665 0.000313843 0)
(0.0940359 0.000353194 0)
(0.0938911 0.000399995 0)
(0.0937298 0.000455693 0)
(0.0935493 0.000522067 0)
(0.0933464 0.000601329 0)
(0.0931173 0.00069624 0)
(0.0928577 0.000810288 0)
(0.0925627 0.000947915 0)
(0.0922264 0.00111483 0)
(0.0918419 0.00131845 0)
(0.0914015 0.00156849 0)
(0.0908961 0.00187781 0)
(0.0903155 0.00226356 0)
(0.0896488 0.00274872 0)
(0.0888849 0.00336416 0)
(0.0880143 0.00415102 0)
(0.0870329 0.00516317 0)
(0.0859478 0.00646815 0)
(0.0847886 0.00814271 0)
(0.0836247 0.0102548 0)
(0.0825883 0.0128162 0)
(0.0819009 0.0156673 0)
(0.0818374 0.0182252 0)
(0.100001 4.84925e-06 0)
(0.0999922 2.75087e-05 0)
(0.0999541 6.67294e-05 0)
(0.0998742 0.000112737 0)
(0.0997528 0.000152568 0)
(0.0996011 0.000177599 0)
(0.0994349 0.00018669 0)
(0.0992677 0.000184335 0)
(0.0991073 0.000176761 0)
(0.0989562 0.000168917 0)
(0.0988135 0.000163408 0)
(0.0986771 0.000160839 0)
(0.0985448 0.000160696 0)
(0.0984149 0.000162109 0)
(0.0982866 0.000164297 0)
(0.0981595 0.000166721 0)
(0.0980335 0.00016908 0)
(0.0979086 0.00017124 0)
(0.097785 0.000173161 0)
(0.0976628 0.000174848 0)
(0.0975421 0.000176316 0)
(0.0974232 0.00017758 0)
(0.097306 0.000178644 0)
(0.0971908 0.000179511 0)
(0.0970775 0.000180178 0)
(0.0969664 0.000180643 0)
(0.0968575 0.000180905 0)
(0.0967508 0.000180969 0)
(0.0966465 0.000180844 0)
(0.0965447 0.000180544 0)
(0.0964453 0.00018009 0)
(0.0963483 0.000179507 0)
(0.0962539 0.000178828 0)
(0.096162 0.00017809 0)
(0.0960725 0.000177336 0)
(0.0959853 0.000176615 0)
(0.0959005 0.00017598 0)
(0.0958178 0.000175494 0)
(0.0957372 0.000175223 0)
(0.0956585 0.000175243 0)
(0.0955815 0.000175639 0)
(0.0955059 0.000176505 0)
(0.0954315 0.000177951 0)
(0.0953581 0.0001801 0)
(0.0952853 0.000183092 0)
(0.0952127 0.000187088 0)
(0.0951399 0.000192272 0)
(0.0950664 0.000198859 0)
(0.0949918 0.000207094 0)
(0.0949155 0.000217261 0)
(0.0948367 0.000229689 0)
(0.0947548 0.000244762 0)
(0.094669 0.000262925 0)
(0.0945783 0.000284703 0)
(0.0944817 0.000310709 0)
(0.0943781 0.000341671 0)
(0.0942662 0.00037845 0)
(0.0941446 0.000422072 0)
(0.0940116 0.000473768 0)
(0.0938653 0.000535021 0)
(0.0937038 0.00060763 0)
(0.0935246 0.000693791 0)
(0.0933252 0.000796197 0)
(0.0931026 0.000918182 0)
(0.0928535 0.00106389 0)
(0.092574 0.00123853 0)
(0.0922603 0.00144866 0)
(0.0919078 0.00170262 0)
(0.0915119 0.00201103 0)
(0.0910682 0.00238752 0)
(0.0905726 0.00284959 0)
(0.0900227 0.00341958 0)
(0.0894188 0.00412581 0)
(0.0887669 0.00500335 0)
(0.088082 0.00609379 0)
(0.0873941 0.00744237 0)
(0.0867555 0.00908895 0)
(0.0862486 0.0110474 0)
(0.0859889 0.0132652 0)
(0.0861092 0.0155553 0)
(0.0866868 0.0175111 0)
(0.100001 5.57613e-06 0)
(0.0999941 3.3307e-05 0)
(0.0999605 8.17752e-05 0)
(0.0998877 0.000139129 0)
(0.0997747 0.000189354 0)
(0.099631 0.000221569 0)
(0.0994711 0.000234052 0)
(0.0993078 0.000232107 0)
(0.0991493 0.000223329 0)
(0.0989987 0.000213871 0)
(0.098856 0.000207057 0)
(0.0987195 0.000203751 0)
(0.0985872 0.000203405 0)
(0.0984578 0.000205001 0)
(0.0983302 0.000207592 0)
(0.0982041 0.000210521 0)
(0.0980793 0.000213408 0)
(0.0979557 0.000216079 0)
(0.0978335 0.000218479 0)
(0.0977127 0.000220605 0)
(0.0975934 0.000222473 0)
(0.0974758 0.000224097 0)
(0.0973599 0.000225483 0)
(0.0972459 0.000226632 0)
(0.0971337 0.000227541 0)
(0.0970236 0.000228208 0)
(0.0969156 0.000228635 0)
(0.0968097 0.000228826 0)
(0.0967061 0.000228794 0)
(0.0966047 0.000228558 0)
(0.0965055 0.000228145 0)
(0.0964087 0.000227588 0)
(0.0963142 0.000226928 0)
(0.096222 0.000226212 0)
(0.0961319 0.000225494 0)
(0.0960441 0.000224836 0)
(0.0959582 0.000224306 0)
(0.0958744 0.000223981 0)
(0.0957923 0.000223946 0)
(0.0957118 0.000224296 0)
(0.0956328 0.000225136 0)
(0.095555 0.000226588 0)
(0.0954782 0.000228786 0)
(0.0954021 0.000231884 0)
(0.0953263 0.000236057 0)
(0.0952505 0.000241507 0)
(0.0951744 0.000248462 0)
(0.0950973 0.000257186 0)
(0.095019 0.000267984 0)
(0.0949387 0.000281204 0)
(0.094856 0.000297251 0)
(0.09477 0.000316594 0)
(0.0946802 0.000339776 0)
(0.0945855 0.000367432 0)
(0.0944852 0.000400306 0)
(0.0943782 0.000439267 0)
(0.0942633 0.000485345 0)
(0.0941394 0.000539756 0)
(0.0940049 0.000603948 0)
(0.0938585 0.000679651 0)
(0.0936985 0.000768941 0)
(0.0935229 0.000874324 0)
(0.0933299 0.000998837 0)
(0.0931173 0.00114618 0)
(0.092883 0.00132088 0)
(0.0926246 0.00152849 0)
(0.0923399 0.00177586 0)
(0.0920271 0.00207145 0)
(0.0916847 0.0024257 0)
(0.0913122 0.00285149 0)
(0.0909112 0.00336455 0)
(0.0904857 0.00398393 0)
(0.0900441 0.00473207 0)
(0.0896016 0.00563437 0)
(0.0891826 0.00671734 0)
(0.0888241 0.00800426 0)
(0.0885787 0.00950629 0)
(0.0885152 0.0112067 0)
(0.0887115 0.0130365 0)
(0.0892329 0.0148443 0)
(0.0900813 0.0163786 0)
(0.100001 6.05833e-06 0)
(0.0999962 3.85608e-05 0)
(0.0999677 9.60839e-05 0)
(0.0999031 0.000164899 0)
(0.0998001 0.000226028 0)
(0.0996661 0.000266228 0)
(0.0995138 0.000282975 0)
(0.0993556 0.000282178 0)
(0.0991997 0.000272685 0)
(0.0990501 0.000261848 0)
(0.0989076 0.00025377 0)
(0.0987711 0.000249653 0)
(0.0986392 0.000248989 0)
(0.0985104 0.000250649 0)
(0.0983839 0.000253551 0)
(0.0982591 0.00025692 0)
(0.0981358 0.0002603 0)
(0.0980139 0.00026347 0)
(0.0978934 0.000266352 0)
(0.0977744 0.000268935 0)
(0.0976569 0.000271228 0)
(0.097541 0.000273245 0)
(0.0974268 0.000274992 0)
(0.0973143 0.000276467 0)
(0.0972037 0.000277667 0)
(0.0970949 0.000278593 0)
(0.0969881 0.000279245 0)
(0.0968834 0.000279631 0)
(0.0967806 0.000279768 0)
(0.09668 0.00027968 0)
(0.0965814 0.000279401 0)
(0.096485 0.000278971 0)
(0.0963906 0.00027844 0)
(0.0962983 0.000277867 0)
(0.0962079 0.000277318 0)
(0.0961194 0.000276868 0)
(0.0960328 0.000276599 0)
(0.0959478 0.000276604 0)
(0.0958644 0.000276988 0)
(0.0957823 0.000277863 0)
(0.0957014 0.000279359 0)
(0.0956214 0.000281621 0)
(0.0955422 0.000284812 0)
(0.0954634 0.000289116 0)
(0.0953847 0.000294744 0)
(0.0953058 0.000301935 0)
(0.0952263 0.000310964 0)
(0.0951458 0.000322144 0)
(0.0950638 0.000335834 0)
(0.0949799 0.000352446 0)
(0.0948933 0.000372457 0)
(0.0948036 0.000396414 0)
(0.0947101 0.000424949 0)
(0.094612 0.000458797 0)
(0.0945086 0.000498811 0)
(0.0943989 0.000545987 0)
(0.0942821 0.00060149 0)
(0.094157 0.000666687 0)
(0.0940227 0.000743187 0)
(0.093878 0.000832894 0)
(0.0937217 0.000938063 0)
(0.0935524 0.00106138 0)
(0.0933691 0.00120604 0)
(0.0931704 0.00137587 0)
(0.0929554 0.00157545 0)
(0.0927232 0.00181026 0)
(0.0924733 0.00208687 0)
(0.0922061 0.00241311 0)
(0.091923 0.00279829 0)
(0.0916267 0.00325332 0)
(0.0913225 0.00379085 0)
(0.0910186 0.00442511 0)
(0.0907279 0.00517147 0)
(0.0904689 0.00604527 0)
(0.0902674 0.00705963 0)
(0.0901578 0.00822135 0)
(0.0901825 0.00952452 0)
(0.0903897 0.0109409 0)
(0.090825 0.0124083 0)
(0.0915142 0.0138207 0)
(0.0924377 0.0150305 0)
(0.100002 6.24131e-06 0)
(0.0999984 4.30658e-05 0)
(0.0999753 0.000109249 0)
(0.0999197 0.000189465 0)
(0.0998278 0.000261939 0)
(0.0997048 0.00031099 0)
(0.0995614 0.000333036 0)
(0.0994093 0.000334316 0)
(0.0992569 0.000324766 0)
(0.099109 0.000312897 0)
(0.0989671 0.00030365 0)
(0.0988311 0.000298661 0)
(0.0986997 0.000297544 0)
(0.0985718 0.000299124 0)
(0.0984467 0.000302215 0)
(0.0983235 0.000305936 0)
(0.0982021 0.000309753 0)
(0.0980823 0.000313395 0)
(0.0979639 0.000316756 0)
(0.0978471 0.000319806 0)
(0.0977317 0.00032255 0)
(0.0976179 0.000324994 0)
(0.0975057 0.000327142 0)
(0.0973952 0.000328992 0)
(0.0972864 0.000330541 0)
(0.0971794 0.000331788 0)
(0.0970742 0.000332737 0)
(0.0969708 0.000333399 0)
(0.0968693 0.000333795 0)
(0.0967697 0.000333956 0)
(0.096672 0.000333921 0)
(0.0965762 0.00033374 0)
(0.0964822 0.000333474 0)
(0.09639 0.000333191 0)
(0.0962995 0.000332969 0)
(0.0962107 0.000332897 0)
(0.0961233 0.000333074 0)
(0.0960374 0.000333608 0)
(0.0959528 0.000334622 0)
(0.0958693 0.000336249 0)
(0.0957866 0.000338641 0)
(0.0957047 0.000341967 0)
(0.0956232 0.000346419 0)
(0.0955419 0.000352211 0)
(0.0954605 0.000359587 0)
(0.0953787 0.000368826 0)
(0.0952962 0.000380243 0)
(0.0952125 0.000394198 0)
(0.0951272 0.000411103 0)
(0.0950399 0.000431429 0)
(0.0949501 0.000455711 0)
(0.0948572 0.000484568 0)
(0.0947607 0.000518707 0)
(0.09466 0.000558945 0)
(0.0945544 0.000606223 0)
(0.0944433 0.000661629 0)
(0.0943258 0.000726422 0)
(0.0942014 0.000802068 0)
(0.0940691 0.000890269 0)
(0.0939283 0.000993011 0)
(0.0937783 0.00111261 0)
(0.0936184 0.00125178 0)
(0.0934481 0.00141368 0)
(0.0932671 0.00160201 0)
(0.0930754 0.00182108 0)
(0.0928735 0.00207592 0)
(0.0926625 0.0023723 0)
(0.0924445 0.00271686 0)
(0.0922228 0.00311711 0)
(0.0920024 0.00358136 0)
(0.0917905 0.00411856 0)
(0.0915975 0.00473791 0)
(0.0914369 0.00544809 0)
(0.0913268 0.0062561 0)
(0.0912898 0.00716528 0)
(0.091353 0.00817246 0)
(0.0915466 0.00926407 0)
(0.0919005 0.0104115 0)
(0.0924382 0.0115665 0)
(0.0931667 0.0126599 0)
(0.0940647 0.0136073 0)
(0.100002 6.08374e-06 0)
(0.100001 4.66579e-05 0)
(0.0999829 0.000120926 0)
(0.0999365 0.000212307 0)
(0.0998562 0.000296474 0)
(0.0997449 0.000355261 0)
(0.0996116 0.000383754 0)
(0.0994666 0.000388203 0)
(0.0993186 0.000379408 0)
(0.0991731 0.000366972 0)
(0.0990326 0.00035672 0)
(0.0988975 0.000350825 0)
(0.0987671 0.000349122 0)
(0.0986406 0.000350463 0)
(0.0985171 0.000353598 0)
(0.098396 0.000357561 0)
(0.0982768 0.000361744 0)
(0.0981594 0.00036582 0)
(0.0980435 0.000369646 0)
(0.0979291 0.000373172 0)
(0.0978163 0.000376388 0)
(0.0977049 0.000379294 0)
(0.0975951 0.000381888 0)
(0.0974868 0.000384167 0)
(0.0973802 0.000386127 0)
(0.0972752 0.000387769 0)
(0.0971718 0.000389099 0)
(0.0970702 0.000390131 0)
(0.0969702 0.000390893 0)
(0.0968719 0.000391419 0)
(0.0967753 0.000391759 0)
(0.0966803 0.000391971 0)
(0.0965869 0.000392125 0)
(0.0964951 0.000392301 0)
(0.0964047 0.00039259 0)
(0.0963157 0.000393094 0)
(0.0962279 0.000393927 0)
(0.0961413 0.000395215 0)
(0.0960557 0.000397095 0)
(0.0959709 0.000399725 0)
(0.0958867 0.000403276 0)
(0.095803 0.000407942 0)
(0.0957195 0.00041394 0)
(0.0956361 0.000421514 0)
(0.0955523 0.000430941 0)
(0.0954679 0.000442534 0)
(0.0953827 0.000456646 0)
(0.0952962 0.00047368 0)
(0.0952082 0.000494091 0)
(0.0951182 0.000518399 0)
(0.0950258 0.000547192 0)
(0.0949305 0.000581142 0)
(0.094832 0.000621013 0)
(0.0947298 0.000667678 0)
(0.0946233 0.000722136 0)
(0.0945121 0.000785526 0)
(0.0943957 0.000859157 0)
(0.0942737 0.000944523 0)
(0.0941456 0.00104334 0)
(0.0940112 0.00115758 0)
(0.0938701 0.0012895 0)
(0.0937224 0.00144166 0)
(0.0935682 0.00161702 0)
(0.093408 0.00181892 0)
(0.0932428 0.00205113 0)
(0.093074 0.00231788 0)
(0.0929038 0.00262386 0)
(0.0927357 0.00297416 0)
(0.0925739 0.00337419 0)
(0.0924246 0.00382952 0)
(0.0922956 0.00434553 0)
(0.092197 0.00492698 0)
(0.0921415 0.00557728 0)
(0.0921442 0.00629751 0)
(0.0922225 0.00708507 0)
(0.0923957 0.00793202 0)
(0.0926832 0.00882313 0)
(0.0931016 0.00973408 0)
(0.0936617 0.0106304 0)
(0.0943623 0.0114686 0)
(0.0951862 0.0122005 0)
(0.100002 5.56629e-06 0)
(0.100002 4.92374e-05 0)
(0.0999899 0.000130879 0)
(0.0999524 0.000233035 0)
(0.0998836 0.000329124 0)
(0.0997844 0.000398495 0)
(0.0996616 0.000434634 0)
(0.0995246 0.000443447 0)
(0.0993821 0.000436343 0)
(0.0992401 0.000423914 0)
(0.0991017 0.000412904 0)
(0.0989682 0.000406115 0)
(0.0988394 0.000403712 0)
(0.0987147 0.000404656 0)
(0.0985933 0.000407685 0)
(0.0984745 0.00041177 0)
(0.0983579 0.000416235 0)
(0.0982431 0.000420696 0)
(0.09813 0.000424968 0)
(0.0980184 0.000428974 0)
(0.0979083 0.000432684 0)
(0.0977997 0.000436088 0)
(0.0976925 0.000439178 0)
(0.0975868 0.000441947 0)
(0.0974825 0.000444392 0)
(0.0973798 0.000446513 0)
(0.0972786 0.000448319 0)
(0.0971788 0.000449831 0)
(0.0970806 0.000451079 0)
(0.0969838 0.000452107 0)
(0.0968885 0.000452971 0)
(0.0967946 0.000453739 0)
(0.096702 0.000454491 0)
(0.0966107 0.000455318 0)
(0.0965206 0.000456324 0)
(0.0964316 0.000457624 0)
(0.0963436 0.000459346 0)
(0.0962564 0.000461632 0)
(0.09617 0.000464638 0)
(0.0960842 0.000468539 0)
(0.0959988 0.000473527 0)
(0.0959136 0.000479819 0)
(0.0958285 0.000487655 0)
(0.0957431 0.000497308 0)
(0.0956573 0.000509081 0)
(0.0955709 0.000523317 0)
(0.0954835 0.000540404 0)
(0.0953949 0.000560777 0)
(0.0953047 0.000584927 0)
(0.0952127 0.000613409 0)
(0.0951186 0.000646848 0)
(0.0950219 0.000685951 0)
(0.0949225 0.000731515 0)
(0.09482 0.000784439 0)
(0.094714 0.000845742 0)
(0.0946044 0.000916571 0)
(0.0944908 0.000998222 0)
(0.0943732 0.00109216 0)
(0.0942515 0.00120002 0)
(0.0941256 0.00132366 0)
(0.093996 0.00146514 0)
(0.093863 0.00162678 0)
(0.0937273 0.00181113 0)
(0.0935902 0.002021 0)
(0.0934532 0.00225944 0)
(0.0933185 0.0025297 0)
(0.093189 0.00283521 0)
(0.0930687 0.00317944 0)
(0.0929623 0.00356576 0)
(0.0928759 0.00399723 0)
(0.0928169 0.00447625 0)
(0.0927943 0.00500422 0)
(0.0928183 0.00558091 0)
(0.0929005 0.00620385 0)
(0.0930532 0.00686756 0)
(0.0932888 0.00756275 0)
(0.0936187 0.00827553 0)
(0.0940511 0.00898705 0)
(0.0945898 0.00967371 0)
(0.0952308 0.0103085 0)
(0.0959614 0.0108636 0)
(0.100002 4.69643e-06 0)
(0.100004 5.07843e-05 0)
(0.099996 0.000139016 0)
(0.0999666 0.000251436 0)
(0.0999085 0.000359544 0)
(0.099821 0.000440249 0)
(0.099709 0.000485197 0)
(0.0995808 0.000499602 0)
(0.0994447 0.000495201 0)
(0.0993071 0.000483447 0)
(0.0991718 0.000472011 0)
(0.0990408 0.000464407 0)
(0.0989142 0.000461234 0)
(0.0987918 0.000461647 0)
(0.0986728 0.000464427 0)
(0.0985567 0.000468515 0)
(0.0984429 0.000473176 0)
(0.0983311 0.000477971 0)
(0.098221 0.000482668 0)
(0.0981124 0.000487156 0)
(0.0980053 0.000491384 0)
(0.0978996 0.000495326 0)
(0.0977952 0.000498967 0)
(0.0976923 0.000502296 0)
(0.0975906 0.000505307 0)
(0.0974904 0.000508003 0)
(0.0973914 0.000510397 0)
(0.0972938 0.000512512 0)
(0.0971974 0.000514385 0)
(0.0971023 0.000516069 0)
(0.0970084 0.000517626 0)
(0.0969157 0.000519134 0)
(0.0968241 0.000520682 0)
(0.0967335 0.000522374 0)
(0.0966438 0.000524323 0)
(0.096555 0.000526658 0)
(0.0964669 0.00052952 0)
(0.0963795 0.000533066 0)
(0.0962925 0.000537469 0)
(0.0962059 0.000542919 0)
(0.0961195 0.000549629 0)
(0.0960332 0.000557833 0)
(0.0959467 0.000567795 0)
(0.0958598 0.000579808 0)
(0.0957725 0.000594198 0)
(0.0956845 0.000611333 0)
(0.0955955 0.000631624 0)
(0.0955053 0.00065553 0)
(0.0954138 0.000683565 0)
(0.0953207 0.000716305 0)
(0.0952258 0.000754391 0)
(0.0951288 0.000798542 0)
(0.0950297 0.000849559 0)
(0.0949282 0.000908335 0)
(0.0948243 0.000975866 0)
(0.0947178 0.00105326 0)
(0.0946089 0.00114174 0)
(0.0944975 0.00124266 0)
(0.0943841 0.00135753 0)
(0.0942689 0.00148797 0)
(0.0941526 0.00163577 0)
(0.0940361 0.00180287 0)
(0.0939206 0.00199131 0)
(0.0938076 0.00220326 0)
(0.0936992 0.00244096 0)
(0.0935979 0.00270665 0)
(0.0935069 0.00300249 0)
(0.09343 0.00333046 0)
(0.0933721 0.00369215 0)
(0.0933384 0.00408863 0)
(0.0933355 0.00452014 0)
(0.0933703 0.00498578 0)
(0.0934506 0.00548324 0)
(0.0935844 0.00600834 0)
(0.0937799 0.00655475 0)
(0.0940443 0.00711367 0)
(0.0943835 0.00767371 0)
(0.0948009 0.00822096 0)
(0.0952968 0.00873958 0)
(0.0958667 0.00921277 0)
(0.0965012 0.00962435 0)
(0.100002 3.50527e-06 0)
(0.100005 5.13584e-05 0)
(0.100001 0.000145388 0)
(0.0999783 0.000267487 0)
(0.09993 0.000387579 0)
(0.0998534 0.00048022 0)
(0.099752 0.000535028 0)
(0.099633 0.000556207 0)
(0.099504 0.000555541 0)
(0.0993718 0.000545196 0)
(0.0992406 0.000533747 0)
(0.0991128 0.000525487 0)
(0.0989892 0.000521536 0)
(0.0988696 0.000521328 0)
(0.0987535 0.000523746 0)
(0.0986404 0.000527733 0)
(0.0985296 0.000532511 0)
(0.098421 0.000537591 0)
(0.098314 0.000542693 0)
(0.0982087 0.000547669 0)
(0.0981047 0.000552442 0)
(0.0980021 0.000556969 0)
(0.0979007 0.000561224 0)
(0.0978006 0.000565192 0)
(0.0977017 0.000568864 0)
(0.097604 0.000572246 0)
(0.0975074 0.000575353 0)
(0.0974119 0.000578212 0)
(0.0973176 0.000580869 0)
(0.0972242 0.00058338 0)
(0.0971319 0.000585819 0)
(0.0970405 0.000588269 0)
(0.0969499 0.000590831 0)
(0.0968601 0.000593616 0)
(0.096771 0.000596751 0)
(0.0966825 0.000600375 0)
(0.0965945 0.000604641 0)
(0.096507 0.000609719 0)
(0.0964197 0.000615795 0)
(0.0963325 0.000623075 0)
(0.0962454 0.000631786 0)
(0.0961582 0.000642179 0)
(0.0960708 0.000654533 0)
(0.0959829 0.000669157 0)
(0.0958946 0.000686394 0)
(0.0958055 0.000706628 0)
(0.0957156 0.000730281 0)
(0.0956246 0.000757825 0)
(0.0955326 0.00078978 0)
(0.0954393 0.000826724 0)
(0.0953446 0.000869296 0)
(0.0952485 0.000918197 0)
(0.0951509 0.000974204 0)
(0.0950518 0.00103817 0)
(0.0949513 0.00111102 0)
(0.0948496 0.00119377 0)
(0.0947468 0.00128753 0)
(0.0946434 0.00139349 0)
(0.0945399 0.00151293 0)
(0.0944369 0.0016472 0)
(0.0943353 0.00179773 0)
(0.0942364 0.001966 0)
(0.0941416 0.00215353 0)
(0.0940526 0.00236179 0)
(0.0939717 0.00259221 0)
(0.0939015 0.00284608 0)
(0.0938451 0.00312447 0)
(0.0938059 0.00342808 0)
(0.0937882 0.00375719 0)
(0.0937965 0.00411141 0)
(0.0938357 0.00448958 0)
(0.0939111 0.00488956 0)
(0.094028 0.00530804 0)
(0.0941917 0.0057404 0)
(0.094407 0.00618061 0)
(0.0946778 0.00662117 0)
(0.0950065 0.00705327 0)
(0.095394 0.00746696 0)
(0.0958389 0.00785169 0)
(0.096337 0.00819691 0)
(0.0968815 0.00849298 0)
(0.100002 2.04049e-06 0)
(0.100006 5.10818e-05 0)
(0.100004 0.000150169 0)
(0.0999875 0.000281339 0)
(0.0999474 0.000413259 0)
(0.0998807 0.000518259 0)
(0.0997894 0.000583804 0)
(0.0996795 0.000612825 0)
(0.0995583 0.000616891 0)
(0.0994323 0.000608717 0)
(0.0993061 0.00059774 0)
(0.0991825 0.000589066 0)
(0.0990624 0.000584406 0)
(0.0989461 0.000583548 0)
(0.0988333 0.000585532 0)
(0.0987234 0.000589341 0)
(0.098616 0.000594177 0)
(0.0985107 0.000599505 0)
(0.0984071 0.000605 0)
(0.098305 0.000610477 0)
(0.0982043 0.00061583 0)
(0.0981048 0.000620997 0)
(0.0980065 0.00062594 0)
(0.0979093 0.000630637 0)
(0.0978132 0.00063508 0)
(0.097718 0.000639273 0)
(0.0976239 0.000643234 0)
(0.0975307 0.000646997 0)
(0.0974383 0.000650611 0)
(0.0973468 0.000654141 0)
(0.0972561 0.000657666 0)
(0.097166 0.000661278 0)
(0.0970766 0.000665086 0)
(0.0969877 0.00066921 0)
(0.0968993 0.000673786 0)
(0.0968113 0.000678961 0)
(0.0967235 0.0006849 0)
(0.096636 0.000691783 0)
(0.0965486 0.000699806 0)
(0.0964612 0.000709186 0)
(0.0963737 0.00072016 0)
(0.0962861 0.000732991 0)
(0.0961981 0.000747968 0)
(0.0961097 0.000765409 0)
(0.0960208 0.000785663 0)
(0.0959313 0.000809119 0)
(0.0958412 0.0008362 0)
(0.0957503 0.000867373 0)
(0.0956585 0.000903151 0)
(0.095566 0.000944092 0)
(0.0954726 0.000990806 0)
(0.0953784 0.00104395 0)
(0.0952836 0.00110426 0)
(0.0951882 0.00117248 0)
(0.0950925 0.00124946 0)
(0.0949968 0.00133608 0)
(0.0949016 0.00143327 0)
(0.0948074 0.00154201 0)
(0.094715 0.00166332 0)
(0.0946251 0.00179822 0)
(0.094539 0.00194777 0)
(0.0944578 0.00211297 0)
(0.0943833 0.00229477 0)
(0.0943171 0.00249403 0)
(0.0942615 0.00271145 0)
(0.0942189 0.0029475 0)
(0.0941921 0.00320237 0)
(0.094184 0.00347585 0)
(0.094198 0.00376727 0)
(0.0942377 0.00407538 0)
(0.0943065 0.00439826 0)
(0.0944082 0.00473323 0)
(0.0945463 0.00507678 0)
(0.0947237 0.00542454 0)
(0.0949431 0.00577132 0)
(0.0952062 0.00611112 0)
(0.0955136 0.00643735 0)
(0.0958647 0.00674304 0)
(0.0962577 0.00702116 0)
(0.096689 0.00726501 0)
(0.0971535 0.0074687 0)
(0.100002 3.58231e-07 0)
(0.100006 5.01118e-05 0)
(0.100007 0.00015361 0)
(0.0999942 0.000293262 0)
(0.0999608 0.000436762 0)
(0.0999027 0.000554361 0)
(0.0998208 0.000631316 0)
(0.0997199 0.000669081 0)
(0.0996068 0.000678789 0)
(0.0994876 0.000673545 0)
(0.0993671 0.000663574 0)
(0.0992483 0.000654801 0)
(0.0991324 0.000649583 0)
(0.09902 0.000648114 0)
(0.0989108 0.000649648 0)
(0.0988044 0.000653243 0)
(0.0987005 0.000658102 0)
(0.0985986 0.00066366 0)
(0.0984984 0.000669551 0)
(0.0983997 0.000675553 0)
(0.0983022 0.000681531 0)
(0.098206 0.000687403 0)
(0.0981107 0.00069312 0)
(0.0980165 0.000698653 0)
(0.0979232 0.00070399 0)
(0.0978307 0.000709134 0)
(0.097739 0.000714109 0)
(0.097648 0.000718951 0)
(0.0975577 0.000723714 0)
(0.097468 0.000728469 0)
(0.0973789 0.0007333 0)
(0.0972902 0.000738308 0)
(0.097202 0.000743606 0)
(0.0971141 0.000749323 0)
(0.0970265 0.000755599 0)
(0.0969391 0.000762591 0)
(0.0968518 0.00077047 0)
(0.0967646 0.000779421 0)
(0.0966773 0.00078965 0)
(0.09659 0.000801378 0)
(0.0965025 0.000814848 0)
(0.0964147 0.000830328 0)
(0.0963267 0.000848107 0)
(0.0962383 0.000868504 0)
(0.0961495 0.000891867 0)
(0.0960603 0.000918574 0)
(0.0959706 0.000949038 0)
(0.0958805 0.000983704 0)
(0.09579 0.00102306 0)
(0.0956992 0.00106762 0)
(0.0956081 0.00111794 0)
(0.095517 0.00117463 0)
(0.095426 0.0012383 0)
(0.0953354 0.00130963 0)
(0.0952457 0.00138931 0)
(0.0951572 0.00147806 0)
(0.0950706 0.00157661 0)
(0.0949865 0.0016857 0)
(0.0949058 0.00180605 0)
(0.0948294 0.00193838 0)
(0.0947586 0.00208331 0)
(0.0946947 0.00224144 0)
(0.0946391 0.00241321 0)
(0.0945937 0.00259892 0)
(0.0945603 0.00279868 0)
(0.0945412 0.00301234 0)
(0.0945384 0.00323946 0)
(0.0945546 0.00347922 0)
(0.0945922 0.0037304 0)
(0.0946537 0.00399131 0)
(0.0947417 0.00425975 0)
(0.0948583 0.00453299 0)
(0.0950058 0.00480776 0)
(0.0951856 0.00508027 0)
(0.0953989 0.0053463 0)
(0.0956462 0.00560125 0)
(0.0959271 0.00584032 0)
(0.0962405 0.00605865 0)
(0.0965845 0.00625156 0)
(0.0969561 0.00641473 0)
(0.0973515 0.00654447 0)
(0.100002 -1.48725e-06 0)
(0.100006 4.86139e-05 0)
(0.100008 0.000155994 0)
(0.0999988 0.000303595 0)
(0.0999708 0.000458364 0)
(0.0999199 0.000588637 0)
(0.0998464 0.000677462 0)
(0.0997541 0.000724688 0)