/*--------------------------------*- C++ -*----------------------------------*\
| =========                 |                                                 |
| \\      /  F ield         | OpenFOAM: The Open Source CFD Toolbox           |
|  \\    /   O peration     | Version:  5.x                                   |
|   \\  /    A nd           | Web:      www.OpenFOAM.org                      |
|    \\/     M anipulation  |                                                 |
\*---------------------------------------------------------------------------*/
FoamFile
{
    version     2.0;
    format      ascii;
    class       volVectorField;
    location    "3.2";
    object      Force;
}
// * * * * * * * * * * * * * * * * * * * * * * * * * * * * * * * * * * * * * //

dimensions      [1 1 -2 0 0 0 0];

internalField   uniform (0 0 0);

boundaryField
{
    inlet
    {
        type            calculated;
        value           uniform (0 0 0);
    }
    outlet
    {
        type            calculated;
        value           uniform (0 0 0);
    }
    flap
    {
        type            calculated;
        value           nonuniform List<vector> 
33
(
(3.66776 -0.169726 1.8592e-18)
(3.65766 -0.389194 1.84173e-18)
(3.63878 -0.607655 2.28776e-21)
(3.60151 -0.789665 1.83031e-18)
(3.55254 -0.940347 1.81046e-18)
(3.47814 -1.08545 -7.2008e-18)
(3.36643 -1.20318 1.86516e-18)
(3.2336 -1.27596 -2.06658e-20)
(3.08794 -1.30665 1.85592e-18)
(2.93004 -1.30221 -1.56684e-17)
(2.75155 -1.26614 1.76324e-37)
(2.5483 -1.19665 1.80419e-18)
(2.29813 -1.09715 7.34684e-40)
(1.97253 -0.953911 -1.68454e-18)
(1.51928 -0.738958 -8.19747e-18)
(0.361837 0.732274 1.15928e-18)
(0.191236 0.39013 1.04838e-18)
(0.0612119 0.129663 0)
(-0.0160744 0.000836245 1.83671e-40)
(-0.0164239 0.00192289 1.41373e-18)
(-0.0170013 0.00308436 -1.42982e-18)
(-0.0175804 0.00407928 1.49447e-18)
(-0.0180682 0.00500601 -4.53351e-25)
(-0.018084 0.00584096 -1.88442e-22)
(-0.0170822 0.00621102 1.61116e-18)
(-0.0155704 0.00609638 1.66235e-18)
(-0.0141317 0.00580363 1.74354e-18)
(-0.0136068 0.0058327 1.81424e-18)
(-0.0143631 0.0064141 1.76986e-18)
(-0.0161371 0.00748086 -1.71271e-18)
(-0.0181614 0.00882412 -2.00822e-23)
(-0.017659 0.00896934 1.9809e-18)
(-0.0113524 0.00633696 -5.31363e-22)
)
;
    }
    upperWall
    {
        type            calculated;
        value           uniform (0 0 0);
    }
    lowerWall
    {
        type            calculated;
        value           uniform (0 0 0);
    }
    frontAndBack
    {
        type            empty;
    }
}


// ************************************************************************* //
