/*--------------------------------*- C++ -*----------------------------------*\
| =========                 |                                                 |
| \\      /  F ield         | OpenFOAM: The Open Source CFD Toolbox           |
|  \\    /   O peration     | Version:  5.x                                   |
|   \\  /    A nd           | Web:      www.OpenFOAM.org                      |
|    \\/     M anipulation  |                                                 |
\*---------------------------------------------------------------------------*/
FoamFile
{
    version     2.0;
    format      ascii;
    class       volVectorField;
    location    "3.2";
    object      U;
}
// * * * * * * * * * * * * * * * * * * * * * * * * * * * * * * * * * * * * * //

dimensions      [0 1 -1 0 0 0 0];

internalField   nonuniform List<vector> 
2790
(
(9.94321 0.0206873 1.0827e-19)
(9.86523 0.0284762 -9.70124e-20)
(9.75797 0.0337529 9.9916e-20)
(9.63145 0.0393055 0)
(9.49011 0.0450654 -6.08091e-20)
(9.33417 0.0509767 1.2605e-19)
(9.16311 0.0571706 5.51523e-22)
(8.97654 0.0637746 -1.34812e-19)
(8.77411 0.0709083 1.41098e-19)
(8.55525 0.0786944 -1.45231e-19)
(8.31922 0.087238 0)
(8.06511 0.0966459 7.93477e-20)
(7.79185 0.107047 8.29684e-20)
(7.49833 0.118575 -8.69273e-20)
(7.18333 0.131368 0)
(6.84555 0.145563 -3.87218e-19)
(6.48373 0.161292 2.00008e-19)
(6.0966 0.178675 0)
(5.68306 0.197804 0)
(5.24221 0.218723 9.75486e-19)
(4.7735 0.241393 -1.02664e-18)
(4.27693 0.265653 0)
(3.75327 0.291163 0)
(3.20435 0.317307 -2.58425e-18)
(2.63346 0.342969 2.76965e-18)
(2.04601 0.365993 3.78178e-19)
(1.45063 0.381592 0)
(0.861823 0.375579 -7.18347e-18)
(0.295658 0.29062 7.72175e-18)
(-0.0838151 -0.2074 -1.07826e-18)
(10.006 0.0401612 -1.35085e-19)
(9.98676 0.0586197 1.92959e-19)
(9.94052 0.072358 -1.69519e-19)
(9.87311 0.0870421 1.1656e-19)
(9.78779 0.102588 -5.94314e-20)
(9.68498 0.11884 -6.16347e-20)
(9.56453 0.136068 2.55486e-19)
(9.42617 0.154552 -6.4605e-20)
(9.26963 0.174566 5.46663e-19)
(9.09446 0.19639 -5.60457e-19)
(8.9001 0.220269 -5.88082e-19)
(8.68567 0.246462 5.27923e-19)
(8.45015 0.275265 -7.90594e-20)
(8.19245 0.30697 1.41002e-18)
(7.91136 0.341856 -1.02407e-18)
(7.60556 0.380181 1.81175e-18)
(7.2737 0.422161 -2.83468e-18)
(6.9144 0.46793 1.97394e-18)
(6.52636 0.517492 0)
(6.1084 0.570663 0)
(5.6596 0.626967 3.76957e-18)
(5.17941 0.685507 -3.94788e-18)
(4.66791 0.744825 0)
(4.12599 0.802672 -5.11098e-18)
(3.55572 0.855582 -4.91818e-18)
(2.96069 0.897937 1.00474e-17)
(2.34627 0.920117 -1.127e-17)
(1.7201 0.903598 2.42828e-17)
(1.06188 0.812544 -1.31515e-17)
(0.592832 0.529389 -9.68446e-19)
(10.0033 0.040976 0)
(9.98114 0.0685331 2.19886e-19)
(9.93714 0.0919178 2.25392e-19)
(9.87472 0.116341 -2.3224e-19)
(9.79563 0.142168 4.76191e-19)
(9.70033 0.169374 -2.44131e-19)
(9.589 0.198308 -2.52235e-19)
(9.46153 0.229373 1.29926e-19)
(9.31764 0.262987 0)
(9.1571 0.299574 0)
(8.97951 0.33956 -2.87594e-19)
(8.78406 0.383414 0)
(8.56986 0.431639 -1.24718e-18)
(8.33597 0.484728 1.27961e-18)
(8.08131 0.543169 -3.35455e-19)
(7.80465 0.607439 -3.4971e-19)
(7.50469 0.677962 0)
(7.18001 0.755042 -3.81872e-19)
(6.82916 0.838797 3.98458e-19)
(6.45063 0.929073 0)
(6.04295 1.02527 -7.97878e-18)
(5.60465 1.12613 7.37954e-18)
(5.13444 1.22953 7.89283e-18)
(4.63124 1.33217 -7.7347e-18)
(4.09417 1.42902 1.09818e-18)
(3.52218 1.51238 1.88549e-17)
(2.91266 1.57037 -2.00017e-17)
(2.26091 1.5849 0)
(1.51987 1.53814 0)
(0.865121 1.36366 3.40949e-18)
(10.0016 0.045662 5.38983e-20)
(9.97704 0.0837425 -7.13158e-19)
(9.93281 0.11785 -2.24939e-19)
(9.87169 0.152092 -2.31321e-19)
(9.79422 0.18764 2.3619e-19)
(9.70084 0.224864 0)
(9.59214 0.264252 1.00489e-18)
(9.46808 0.306362 -7.72922e-19)
(9.32848 0.351763 0)
(9.1733 0.401027 0)
(9.00222 0.454766 2.84654e-19)
(8.81466 0.513652 -1.18421e-18)
(8.61005 0.57837 1.21187e-18)
(8.38773 0.649601 -3.15456e-19)
(8.14691 0.728048 0)
(7.88671 0.814418 3.42725e-18)
(7.60612 0.909393 -5.67724e-18)
(7.30403 1.01353 3.67325e-18)
(6.97913 1.1272 3.82132e-19)
(6.63 1.2505 8.02168e-19)
(6.25503 1.38303 7.62155e-18)
(5.85221 1.52367 -7.88162e-18)
(5.41921 1.67028 0)
(4.95294 1.81938 -1.56198e-17)
(4.44961 1.96591 -1.75899e-19)
(3.90383 2.10258 -1.56652e-19)
(3.3062 2.21905 1.8249e-17)
(2.64484 2.30152 -1.95983e-17)
(1.86743 2.34461 2.08775e-17)
(1.09519 2.30602 -1.5089e-18)
(10.0007 0.0517711 -1.07568e-19)
(9.97478 0.0986637 3.28149e-19)
(9.93048 0.142048 -2.24045e-19)
(9.87039 0.185176 9.19447e-19)
(9.79441 0.22975 -4.6991e-19)
(9.70293 0.276467 0)
(9.59666 0.325925 2.48082e-19)
(9.47559 0.378803 -1.54095e-18)
(9.33957 0.435773 1.05063e-18)
(9.18859 0.497498 -5.43316e-19)
(9.02239 0.564712 0)
(8.84057 0.638204 5.79024e-19)
(8.64276 0.718781 0)
(8.42851 0.807262 3.10879e-19)
(8.19724 0.904501 -1.94699e-18)
(7.94836 1.01138 2.64482e-18)
(7.68114 1.1288 -6.89125e-19)
(7.39482 1.25759 -7.19662e-19)
(7.08824 1.39834 -1.49094e-18)
(6.76019 1.55148 -5.71081e-21)
(6.40931 1.71706 0)
(6.03339 1.89446 8.43966e-19)
(5.62959 2.08213 0)
(5.19347 2.27716 0)
(4.7192 2.47546 -1.91238e-18)
(4.19888 2.67192 -1.41133e-17)
(3.61989 2.85983 1.67894e-17)
(2.96765 3.03028 0)
(2.19983 3.17873 3.65239e-17)
(1.34158 3.29469 -4.1226e-17)
(10.0004 0.0585824 -1.07291e-19)
(9.97363 0.113607 1.08972e-19)
(9.92958 0.165846 8.94025e-19)
(9.87083 0.217886 -1.37003e-18)
(9.79681 0.271536 4.70115e-19)
(9.70775 0.327685 9.66202e-19)
(9.60431 0.387061 -1.47837e-18)
(9.48655 0.450462 -5.11666e-19)
(9.35445 0.518651 1.56134e-18)
(9.20798 0.592386 5.38528e-19)
(9.04696 0.672502 0)
(8.8711 0.759897 -2.25199e-21)
(8.68013 0.85549 0)
(8.4737 0.960227 0)
(8.2514 1.07511 3.80753e-18)
(8.01276 1.20116 -5.82513e-18)
(7.75721 1.33947 6.75079e-19)
(7.48427 1.49115 0)
(7.19291 1.65707 7.24032e-19)
(6.88204 1.8379 -6.53186e-21)
(6.55052 2.03425 0)
(6.19619 2.24624 0)
(5.81603 2.47338 -1.65558e-18)
(5.40541 2.7141 0)
(4.95737 2.96569 1.53321e-17)
(4.46268 3.22527 1.50813e-17)
(3.90879 3.49006 -3.28975e-17)
(3.2797 3.75595 3.04931e-17)
(2.56127 4.00329 -6.44999e-17)
(1.62798 4.28 7.44333e-17)
(10.0003 0.0657192 7.46761e-19)
(9.97326 0.128532 5.42895e-19)
(9.92976 0.189137 -4.43838e-19)
(9.87262 0.249758 4.55142e-19)
(9.80091 0.312177 4.65062e-19)
(9.71465 0.377406 4.80289e-19)
(9.61447 0.446317 -1.46491e-18)
(9.50057 0.519823 -1.01003e-18)
(9.37299 0.598784 5.11358e-19)
(9.23174 0.68405 -2.13515e-18)
(9.07666 0.776547 1.6297e-18)
(8.9075 0.877269 -5.63616e-19)
(8.72411 0.987235 -5.77699e-19)
(8.52622 1.1075 0)
(8.31349 1.2392 6.17133e-19)
(8.08557 1.38351 0)
(7.84185 1.54166 0)
(7.58194 1.71501 -5.4367e-18)
(7.30536 1.90482 -7.06362e-18)
(7.01082 2.11202 1.07219e-17)
(6.69708 2.33772 0)
(6.3623 2.58291 0)
(6.00339 2.84826 1.59105e-18)
(5.61621 3.13405 0)
(5.19392 3.43949 0)
(4.72658 3.76318 -3.47089e-18)
(4.2034 4.10479 1.80581e-18)
(3.60475 4.46576 -2.76867e-17)
(2.96508 4.79467 2.85643e-17)
(1.95921 5.21844 0)
(10.0003 0.0729391 -8.52834e-19)
(9.97358 0.14328 -2.1664e-19)
(9.931 0.211825 6.63712e-19)
(9.87552 0.280658 -4.53359e-19)
(9.80632 0.351523 -1.80389e-21)
(9.72323 0.425502 0)
(9.62681 0.503584 4.86155e-19)
(9.51734 0.586789 0)
(9.39494 0.676067 0)
(9.25963 0.772363 0)
(9.11125 0.876694 -1.62503e-18)
(8.94963 0.99013 4.42655e-18)
(8.77469 1.11377 -1.69275e-18)
(8.58625 1.2488 5.82696e-19)
(8.38402 1.39646 0)
(8.16775 1.55816 -6.15904e-19)
(7.9368 1.73524 1.26644e-18)
(7.69078 1.92919 1.3019e-18)
(7.42965 2.14172 2.69039e-18)
(7.15204 2.37425 1.11249e-17)
(6.85644 2.62833 -1.27259e-17)
(6.54144 2.90588 -1.17337e-17)
(6.20399 3.20862 1.19347e-17)
(5.84025 3.53848 2.46748e-17)
(5.44443 3.89703 -5.03726e-17)
(5.00722 4.28453 2.57507e-17)
(4.51977 4.70048 0)
(3.95281 5.15243 2.6803e-17)
(3.4057 5.54686 -2.27863e-19)
(2.32636 6.09319 -3.01605e-17)
(10.0004 0.0800844 0)
(9.97428 0.157695 8.6123e-19)
(9.93289 0.23382 -4.40583e-19)
(9.87932 0.31049 -4.48772e-19)
(9.81303 0.389418 0)
(9.73359 0.471762 4.69151e-19)
(9.6414 0.558603 0)
(9.53687 0.651047 0)
(9.42019 0.750129 1.52392e-18)
(9.29141 0.856895 -4.13881e-18)
(9.15039 0.97245 2.11181e-18)
(8.99707 1.09792 2.18616e-18)
(8.83146 1.23449 2.26489e-18)
(8.65339 1.38345 -4.55908e-18)
(8.46269 1.54621 0)
(8.25899 1.72433 5.44646e-18)
(8.04206 1.91938 -6.1543e-18)
(7.81148 2.13296 -1.27206e-18)
(7.56694 2.36713 -1.30401e-18)
(7.30752 2.62396 -1.19909e-17)
(7.03153 2.90548 1.21839e-17)
(6.73775 3.21451 -1.37657e-18)
(6.42371 3.55402 0)
(6.08549 3.92716 0)
(5.71815 4.33752 0)
(5.31391 4.78775 -2.23407e-17)
(4.86635 5.27543 2.41199e-17)
(4.32952 5.81492 -1.49325e-18)
(3.87572 6.26755 0)
(2.72154 6.9227 0)
(10.0006 0.0870595 1.05563e-18)
(9.97522 0.171674 -2.16862e-19)
(9.93526 0.255004 -8.73945e-19)
(9.88399 0.339087 -4.48251e-19)
(9.82094 0.425655 9.10046e-19)
(9.74547 0.515954 -4.6688e-19)
(9.65791 0.611122 0)
(9.55876 0.712315 1.95673e-18)
(9.44829 0.820658 -1.487e-18)
(9.32654 0.937282 -1.54057e-18)
(9.19352 1.06337 3.65676e-18)
(9.04932 1.20013 -2.66073e-18)
(8.89389 1.34882 1.08991e-18)
(8.7271 1.51083 -5.61776e-19)
(8.54889 1.68774 0)
(8.35887 1.88124 1.16568e-18)
(8.15726 2.0931 -1.19098e-18)
(7.94353 2.32517 1.2159e-18)
(7.71704 2.57982 -1.24011e-18)
(7.47763 2.85985 1.28124e-18)
(7.2235 3.16778 9.11481e-18)
(6.95328 3.50714 -9.16906e-18)
(6.66538 3.8824 0)
(6.35612 4.29807 1.33601e-18)
(6.02094 4.75922 2.18125e-17)
(5.65273 5.27099 -4.5198e-17)
(5.24893 5.82889 2.20366e-17)
(4.7416 6.45603 1.39549e-18)
(4.37578 6.97056 4.2968e-17)
(3.14336 7.73891 -6.91053e-19)
(10.0008 0.0937891 -8.42952e-19)
(9.97646 0.185105 -8.55533e-19)
(9.93823 0.275256 8.7175e-19)
(9.88951 0.366328 -8.85971e-19)
(9.82981 0.460103 -9.08016e-19)
(9.75852 0.557912 1.84884e-18)
(9.67597 0.660927 -9.40846e-19)
(9.58266 0.770343 0)
(9.47889 0.887367 0)
(9.36474 1.01319 4.98698e-19)
(9.24037 1.14905 1.55477e-18)
(9.10597 1.29629 -5.18292e-19)
(8.96143 1.45622 -4.31488e-18)
(8.80677 1.63033 4.35924e-18)
(8.64186 1.82031 0)
(8.46675 2.02801 2.29732e-18)
(8.28177 2.25544 -3.45563e-18)
(8.08609 2.50468 -1.18809e-18)
(7.8794 2.77842 1.20834e-18)
(7.6619 3.08008 0)
(7.43231 3.41306 1.24396e-18)
(7.18891 3.7814 0)
(6.93038 4.19076 1.2417e-18)
(6.65421 4.6476 -2.14433e-17)
(6.35618 5.15854 2.01884e-17)
(6.02868 5.73105 -1.99726e-17)
(5.67414 6.35973 2.00253e-17)
(5.19958 7.0788 -1.95077e-17)
(4.91764 7.66985 2.05246e-17)
(3.60183 8.57733 0)
(10.0011 0.100206 0)
(9.97791 0.197882 -4.25647e-19)
(9.9416 0.294475 1.29569e-18)
(9.89563 0.392124 3.19377e-21)
(9.83949 0.492659 -8.96746e-19)
(9.77266 0.597482 0)
(9.6955 0.70781 0)
(9.60842 0.82488 0)
(9.5118 0.949954 0)
(9.40584 1.08427 -2.98458e-18)
(9.29063 1.22914 3.02888e-18)
(9.16644 1.38597 4.13139e-18)
(9.03346 1.5562 -6.28539e-18)
(8.89169 1.74137 3.23057e-18)
(8.74095 1.94323 -3.25432e-18)
(8.58182 2.16379 2.21297e-18)
(8.41448 2.40532 -9.0215e-18)
(8.23834 2.67025 9.08559e-18)
(8.05346 2.96148 -1.14464e-18)
(7.85974 3.28275 0)
(7.65708 3.63864 9.39995e-18)
(7.44408 4.03403 -9.41301e-18)
(7.21904 4.47527 -1.19178e-18)
(6.98081 4.97091 1.15667e-18)
(6.72628 5.52965 0)
(6.44685 6.16182 -1.58885e-17)
(6.15035 6.86357 1.80783e-17)
(5.71858 7.68276 -1.61823e-17)
(5.52358 8.37758 1.75594e-17)
(4.11728 9.48083 0)
(10.0015 0.106266 0)
(9.97945 0.20994 4.23331e-19)
(9.94521 0.312581 -4.32504e-19)
(9.90221 0.41637 -2.75529e-22)
(9.8499 0.52319 1.77877e-18)
(9.78784 0.634506 9.05789e-19)
(9.71634 0.751589 0)
(9.63582 0.875712 0)
(9.54673 1.00817 9.56703e-19)
(9.44934 1.15026 0)
(9.34368 1.30334 0)
(9.23025 1.46885 -1.01555e-18)
(9.10944 1.64831 4.13825e-18)
(8.98112 1.84337 1.07852e-18)
(8.84554 2.05585 -9.55126e-18)
(8.70334 2.28785 4.27452e-18)
(8.5545 2.5418 0)
(8.3993 2.82056 1.09118e-18)
(8.23791 3.12727 -7.76127e-18)
(8.07012 3.46587 8.89065e-18)
(7.89664 3.84178 0)
(7.71722 4.26109 0)
(7.53045 4.73092 1.76156e-17)
(7.33604 5.26141 -3.59129e-17)
(7.1329 5.86388 -8.34405e-19)
(6.91225 6.55266 -1.75482e-18)
(6.68749 7.329 3.19318e-17)
(6.32004 8.25711 -1.5632e-17)
(6.23331 9.09425 4.44419e-19)
(4.73553 10.5061 0)
(10.0019 0.111943 0)
(9.98108 0.221226 -4.17938e-19)
(9.94909 0.329489 -4.30001e-19)
(9.90925 0.438953 0)
(9.86098 0.551557 -8.86238e-19)
(9.80392 0.668835 -8.97611e-19)
(9.73829 0.7921 -1.83591e-18)
(9.66458 0.922645 -9.39005e-19)
(9.58334 1.06179 9.38929e-19)
(9.49476 1.21089 0)
(9.39913 1.37133 0)
(9.29706 1.54455 -9.89135e-19)
(9.18885 1.73215 1.01205e-18)
(9.07449 1.93583 0)
(8.95478 2.15751 4.14537e-18)
(8.83024 2.39937 -1.35935e-17)
(8.70088 2.66398 -3.66494e-20)
(8.56762 2.95438 7.3964e-18)
(8.4309 3.27403 1.05484e-18)
(8.29105 3.62718 -9.56375e-18)
(8.14917 4.01961 1.135e-20)
(8.00613 4.45831 1.67824e-17)
(7.86231 4.9516 8.16569e-18)
(7.71846 5.51068 -1.52429e-17)
(7.57576 6.1492 3.73101e-20)
(7.42789 6.88638 4.37454e-20)
(7.29504 7.73229 0)
(7.03035 8.76896 -6.56157e-20)
(7.10073 9.79216 -4.07379e-19)
(5.52779 11.7165 0)
(10.0023 0.117219 -1.64718e-18)
(9.9828 0.231691 8.37306e-19)
(9.9532 0.345133 -8.50927e-19)
(9.9167 0.459806 0)
(9.87264 0.577691 -8.79111e-19)
(9.82071 0.700394 2.67275e-18)
(9.76117 0.829255 1.81662e-18)
(9.69452 0.965569 -9.13345e-19)
(9.62134 1.11069 0)
(9.54187 1.266 0)
(9.45664 1.43288 0)
(9.36625 1.61283 9.79075e-19)
(9.27092 1.80743 0)
(9.1711 2.01845 0)
(9.06773 2.24785 0)
(8.96119 2.49787 -8.1335e-18)
(8.85206 2.77119 -1.0368e-18)
(8.74159 3.07091 7.15902e-18)
(8.63056 3.40064 -1.03098e-18)
(8.52011 3.76493 1.01624e-17)
(8.4119 4.16963 -8.07147e-18)
(8.30783 4.62203 0)
(8.21075 5.13141 0)
(8.12337 5.70954 -9.53586e-19)
(8.05004 6.37135 1.41546e-17)
(7.99029 7.13955 3.2347e-19)
(7.97445 8.03399 -1.31899e-17)
(7.86941 9.14951 -7.33526e-19)
(8.18293 10.3825 5.74744e-19)
(6.5606 13.4147 1.41873e-17)
(-0.035116 0.00166885 0)
(0.0500791 -0.0515631 3.56716e-20)
(0.215458 -0.0734181 -3.20781e-20)
(0.385418 -0.0680356 0)
(0.542778 -0.0534143 -1.1141e-21)
(0.670685 -0.0375638 0)
(0.763006 -0.0232969 -8.21209e-22)
(0.822084 -0.0115965 -4.22217e-22)
(0.853982 -0.00271239 2.70095e-22)
(0.865553 0.00387426 4.77727e-22)
(0.862379 0.00841074 7.13118e-22)
(0.848889 0.0107285 0)
(0.829672 0.0112018 0)
(0.808891 0.0107375 -2.91971e-21)
(0.788688 0.0102856 1.93004e-21)
(0.769279 0.0100068 4.54931e-22)
(0.750793 0.00929658 -3.18646e-22)
(0.735057 0.00754814 7.14705e-22)
(0.725105 0.00409044 -4.33856e-23)
(0.724108 -0.000158576 5.54011e-23)
(0.733491 -0.00454238 -1.01834e-22)
(0.752375 -0.00836794 0)
(0.778893 -0.0113508 0)
(0.810841 -0.0133905 0)
(0.846451 -0.0145619 -7.9367e-23)
(0.885024 -0.0153093 7.85589e-23)
(0.926766 -0.016293 0)
(0.972638 -0.0178375 0)
(1.02325 -0.0194978 1.09344e-22)
(1.09087 -0.0200357 0)
(-0.0287786 -0.00737022 -5.10404e-21)
(0.0721784 -0.152855 -2.22544e-21)
(0.216189 -0.190407 1.09808e-19)
(0.371957 -0.17668 -9.95578e-20)
(0.521361 -0.144382 -9.18433e-22)
(0.648681 -0.108936 0)
(0.747595 -0.076303 8.19116e-22)
(0.818977 -0.048855 1.18228e-24)
(0.867435 -0.0276501 -5.12601e-21)
(0.898877 -0.0111645 5.11928e-21)
(0.917374 0.00205585 -5.64245e-21)
(0.925187 0.0109648 1.38821e-20)
(0.925522 0.0147551 -7.38541e-21)
(0.922171 0.0153465 9.77901e-22)
(0.916418 0.0155545 9.93987e-22)
(0.907784 0.0157631 3.91226e-21)
(0.896718 0.0142528 -2.3605e-21)
(0.885898 0.0101123 -9.83832e-22)
(0.879889 0.00400552 -8.70897e-22)
(0.880278 -0.00367531 -1.40483e-22)
(0.88772 -0.0121642 -2.94506e-23)
(0.90172 -0.0192706 -1.7466e-23)
(0.91993 -0.0247121 -2.03194e-22)
(0.940347 -0.0288539 7.5414e-23)
(0.962041 -0.0320134 -1.59946e-22)
(0.984909 -0.0349654 1.58534e-22)
(1.0088 -0.0386373 -3.20242e-22)
(1.03421 -0.0429225 5.04773e-24)
(1.06232 -0.0467944 -6.7598e-23)
(1.10534 -0.0478151 6.7577e-23)
(-0.0103241 -0.0428582 -1.58517e-19)
(0.0701749 -0.243278 -1.28065e-19)
(0.183575 -0.291861 2.19098e-19)
(0.307978 -0.271763 -9.57957e-20)
(0.427581 -0.225201 -4.81444e-20)
(0.529673 -0.173353 2.01493e-20)
(0.608376 -0.124941 2.83581e-20)
(0.663882 -0.0838833 -3.15453e-22)
(0.69977 -0.0528826 -7.40441e-21)
(0.722572 -0.0289758 4.75368e-21)
(0.735488 -0.00948288 1.2879e-20)
(0.73864 0.00507448 -3.0571e-20)
(0.734414 0.013183 1.60519e-20)
(0.728401 0.0174199 -8.36922e-21)
(0.720989 0.0217526 7.315e-21)
(0.708933 0.0257449 -9.50128e-22)
(0.691213 0.0251437 0)
(0.671018 0.0176177 2.05134e-21)
(0.651463 0.00438436 0)
(0.636478 -0.0113867 -1.0989e-22)
(0.623112 -0.0244488 3.89245e-22)
(0.614447 -0.0335728 4.81179e-23)
(0.607865 -0.0388367 0)
(0.602338 -0.0415626 6.9624e-22)
(0.599088 -0.0425107 -2.94695e-22)
(0.599123 -0.0425776 -3.58184e-22)
(0.601642 -0.0436376 1.71828e-22)
(0.608125 -0.0469066 1.5319e-22)
(0.62177 -0.0536288 0)
(0.656359 -0.0637095 -1.1216e-22)
(-0.0313273 -0.116475 0)
(0.0344861 -0.327063 4.08856e-21)
(0.126037 -0.372658 1.84697e-19)
(0.221227 -0.341642 -1.72035e-19)
(0.309147 -0.281595 2.9761e-21)
(0.382178 -0.216362 1.80669e-20)
(0.434611 -0.15482 -2.12903e-20)
(0.468571 -0.10234 0)
(0.484975 -0.0643828 -1.93091e-20)
(0.491689 -0.0308345 2.21692e-20)
(0.493292 -0.00335751 0)
(0.483874 0.0123511 1.78384e-20)
(0.461685 0.0156235 -1.7796e-20)
(0.435266 0.0156958 -9.22481e-21)
(0.407294 0.0221731 9.18348e-21)
(0.371346 0.0322162 8.08209e-21)
(0.320314 0.0393463 -1.00196e-20)
(0.256333 0.039437 -1.43658e-21)
(0.184645 0.0310875 -1.59136e-21)
(0.113076 0.0179496 2.72772e-21)
(0.052252 0.00534185 -7.83594e-22)
(0.00821235 -0.00531777 0)
(-0.0188222 -0.0147495 -1.83886e-22)
(-0.0306532 -0.0237137 -2.86585e-22)
(-0.0242545 -0.0329077 0)
(-0.00390587 -0.0421449 7.55839e-22)
(0.0300138 -0.0532172 -7.19583e-22)
(0.0743256 -0.0677865 2.8312e-23)
(0.119725 -0.0851458 -4.12915e-23)
(0.172907 -0.100407 4.06525e-23)
(-0.100702 -0.211097 -6.44409e-22)
(-0.0383698 -0.410324 -3.96635e-21)
(0.038015 -0.436665 1.91098e-22)
(0.104804 -0.388475 1.09815e-19)
(0.158645 -0.315595 -4.88825e-20)
(0.199417 -0.240283 -6.26077e-20)
(0.21818 -0.168463 1.94122e-21)
(0.226934 -0.105916 1.25777e-20)
(0.218695 -0.0741891 -1.48794e-20)
(0.200385 -0.0515617 -3.29875e-20)
(0.172982 -0.0101236 3.31407e-20)
(0.101053 0.0298313 1.97884e-20)
(0.0145341 0.0491815 -1.98282e-20)
(-0.0821327 0.0548692 -2.59357e-20)
(-0.170441 0.0680259 2.05943e-20)
(-0.210628 0.0853135 9.30256e-21)
(-0.258908 0.0941422 -1.65516e-21)
(-0.307187 0.0923085 -9.42703e-21)
(-0.350466 0.0797441 0)
(-0.386001 0.0584859 -1.47119e-21)
(-0.410346 0.0319262 0)
(-0.421519 0.00523607 4.00273e-22)
(-0.419153 -0.0191169 -5.29031e-22)
(-0.406222 -0.0403513 5.51759e-22)
(-0.38463 -0.0586899 0)
(-0.357189 -0.0743107 0)
(-0.326598 -0.0871188 3.35447e-22)
(-0.297971 -0.0982577 8.27674e-22)
(-0.276663 -0.107221 1.40268e-22)
(-0.264248 -0.112178 0)
(-0.192522 -0.318149 -2.92151e-19)
(-0.139835 -0.483571 5.41883e-20)
(-0.0784891 -0.480715 4.8571e-20)
(-0.0469133 -0.408939 4.68266e-20)
(-0.0349109 -0.322815 9.21596e-20)
(-0.0344974 -0.237648 -1.43831e-20)
(-0.0679134 -0.166471 1.48244e-20)
(-0.0927635 -0.100794 -1.95305e-21)
(-0.140049 -0.0316308 -3.14187e-21)
(-0.340867 0.0286744 0)
(-0.40348 0.0743858 0)
(-0.448503 0.104878 -5.48167e-21)
(-0.509561 0.115278 5.60163e-21)
(-0.57349 0.110748 5.22684e-21)
(-0.628859 0.107075 2.13357e-20)
(-0.667246 0.110232 -1.55957e-20)
(-0.698278 0.112334 -6.11854e-21)
(-0.721194 0.105596 1.46932e-21)
(-0.736468 0.087982 6.38996e-21)
(-0.744979 0.061606 2.12558e-21)
(-0.747511 0.0307937 -8.29243e-22)
(-0.744258 0.000302426 -4.91163e-22)
(-0.735823 -0.0266534 7.05745e-22)
(-0.721778 -0.0500349 -4.37731e-22)
(-0.703908 -0.0700576 0)
(-0.684164 -0.086644 0)
(-0.665461 -0.0991543 6.79883e-22)
(-0.651018 -0.107835 -5.7278e-22)
(-0.643487 -0.113664 -3.833e-22)
(-0.641299 -0.117586 1.24217e-22)
(-0.284114 -0.428989 -2.2026e-21)
(-0.259219 -0.532193 -1.58116e-21)
(-0.222056 -0.490701 1.29384e-19)
(-0.240501 -0.386207 -1.2751e-19)
(-0.283946 -0.281067 -3.98936e-20)
(-0.351555 -0.165203 4.46444e-20)
(-0.476682 -0.0729183 -2.88878e-22)
(-0.60574 0.0112325 2.30143e-20)
(-0.68469 0.0687521 -1.77017e-20)
(-0.745698 0.0905742 -3.67727e-20)
(-0.802096 0.105805 4.12691e-20)
(-0.84841 0.126995 2.74222e-20)
(-0.893202 0.138294 -2.72189e-20)
(-0.937138 0.136728 0)
(-0.976681 0.131704 0)
(-1.00717 0.128306 1.1184e-20)
(-1.02782 0.122659 -1.04405e-20)
(-1.0396 0.109605 1.94447e-21)
(-1.0447 0.0876288 0)
(-1.04517 0.0584678 4.76714e-22)
(-1.04239 0.0256953 -9.78707e-22)
(-1.03665 -0.00679368 0)
(-1.02712 -0.0364949 0)
(-1.01371 -0.0621976 -6.05693e-22)
(-0.997732 -0.0831733 1.16575e-21)
(-0.981284 -0.0988908 1.3903e-21)
(-0.967595 -0.10896 -1.04332e-21)
(-0.959526 -0.114019 -8.02682e-22)
(-0.957832 -0.116301 -3.0132e-22)
(-0.958618 -0.118171 -1.24436e-22)
(-0.364918 -0.51809 2.17105e-21)
(-0.387255 -0.534315 1.57649e-21)
(-0.392451 -0.437112 1.21656e-19)
(-0.483185 -0.284093 -2.08326e-19)
(-0.603847 -0.156334 1.23438e-19)
(-0.731097 -0.0542924 -5.40195e-20)
(-0.847444 0.0179399 2.82354e-20)
(-0.924409 0.0633499 -1.69738e-20)
(-0.990013 0.09864 -3.14218e-21)
(-1.05093 0.124599 -4.23296e-21)
(-1.10434 0.142606 3.75577e-20)
(-1.14875 0.156377 -4.18004e-20)
(-1.1874 0.161789 0)
(-1.223 0.158425 0)
(-1.25483 0.151059 0)
(-1.2801 0.142301 -5.74392e-21)
(-1.29719 0.130212 6.0977e-21)
(-1.30672 0.111866 0)
(-1.31044 0.0863371 0)
(-1.30983 0.0549838 1.27501e-21)
(-1.30579 0.020602 -1.86104e-21)
(-1.2987 -0.0136843 -5.37076e-22)
(-1.28758 -0.0453979 0)
(-1.27324 -0.0727355 -7.54745e-22)
(-1.25705 -0.094246 4.25877e-23)
(-1.2415 -0.108876 -1.3384e-21)
(-1.23008 -0.116152 0)
(-1.22561 -0.117286 3.04223e-22)
(-1.22731 -0.115749 4.8918e-22)
(-1.22954 -0.11504 1.01693e-22)
(-0.43111 -0.554276 -2.36077e-19)
(-0.5131 -0.463221 0)
(-0.587624 -0.304005 0)
(-0.728061 -0.152628 -1.34138e-22)
(-0.868102 -0.0378044 -4.20376e-20)
(-0.989667 0.0420407 4.56109e-20)
(-1.08167 0.0908331 1.64901e-20)
(-1.16376 0.125056 -3.58865e-20)
(-1.23371 0.149388 2.26462e-20)
(-1.29437 0.166097 4.17052e-21)
(-1.34614 0.177648 0)
(-1.38941 0.18445 2.45736e-20)
(-1.42634 0.184535 2.18972e-21)
(-1.45917 0.178149 -4.63559e-20)
(-1.48795 0.167746 2.71528e-20)
(-1.51127 0.154499 1.33935e-20)
(-1.52797 0.137252 -6.94661e-21)
(-1.53805 0.114314 -2.27686e-20)
(-1.54238 0.0852076 5.13543e-21)
(-1.54174 0.0511114 -9.97048e-22)
(-1.53672 0.0143872 2.24256e-21)
(-1.52788 -0.0221959 2.39347e-21)
(-1.51471 -0.0559153 -7.67024e-22)
(-1.49869 -0.08447 -1.18226e-22)
(-1.48153 -0.105797 4.51447e-22)
(-1.46606 -0.118442 -7.1668e-22)
(-1.45598 -0.122113 1.46256e-21)
(-1.4539 -0.118792 -5.60514e-22)
(-1.45794 -0.113112 0)
(-1.46108 -0.109682 -1.01953e-22)
(-0.484073 -0.514573 -2.06595e-20)
(-0.620471 -0.330996 -3.90747e-19)
(-0.749565 -0.151965 -4.68489e-21)
(-0.91671 0.00139378 6.52044e-21)
(-1.05703 0.0879606 -3.99857e-21)
(-1.17571 0.13728 0)
(-1.27856 0.167966 1.38301e-22)
(-1.36495 0.187677 0)
(-1.43657 0.200157 0)
(-1.49658 0.207695 0)
(-1.54711 0.211801 -5.65479e-21)
(-1.58984 0.212111 6.59899e-21)
(-1.62655 0.207326 0)
(-1.65873 0.197527 -1.50999e-20)
(-1.68662 0.183845 0)
(-1.70955 0.166599 0)
(-1.72672 0.144854 -8.26268e-21)
(-1.73776 0.117526 -1.27995e-20)
(-1.74279 0.0845109 1.79976e-20)
(-1.7421 0.0470488 1.89878e-21)
(-1.73609 0.00740072 -5.81314e-21)
(-1.72546 -0.0317526 7.85194e-22)
(-1.71027 -0.0675525 -3.57073e-22)
(-1.69236 -0.0970683 -2.57069e-22)
(-1.67378 -0.117754 0)
(-1.65773 -0.127838 -8.13497e-22)
(-1.64816 -0.127282 6.51442e-23)
(-1.64769 -0.118974 -1.16651e-22)
(-1.65353 -0.108823 0)
(-1.6574 -0.102641 0)
(-0.516231 -0.408318 0)
(-0.696735 -0.164136 -3.56573e-19)
(-0.881694 0.0576743 3.52582e-19)
(-1.05694 0.159871 0)
(-1.21299 0.212229 0)
(-1.34477 0.237936 0)
(-1.4529 0.248454 -1.109e-21)
(-1.53998 0.251178 0)
(-1.61009 0.250474 3.29022e-20)
(-1.66781 0.248539 1.02401e-20)
(-1.71659 0.245528 1.50956e-20)
(-1.75863 0.24004 -8.62578e-20)
(-1.79524 0.230643 2.89425e-20)
(-1.82721 0.217161 5.20508e-20)
(-1.85482 0.20005 -8.05031e-20)
(-1.87786 0.179071 3.58335e-20)
(-1.89574 0.153175 8.16143e-21)
(-1.90775 0.121475 -9.10667e-21)
(-1.91341 0.0841599 -7.99343e-21)
(-1.91259 0.042716 3.2425e-21)
(-1.90558 -0.000452404 4.20474e-21)
(-1.8932 -0.0425798 0)
(-1.87588 -0.080516 1.71685e-22)
(-1.85574 -0.110844 1.58141e-22)
(-1.83528 -0.130522 8.41088e-22)
(-1.81809 -0.137506 -1.13868e-21)
(-1.80851 -0.13205 4.30814e-22)
(-1.80926 -0.118079 -6.22314e-22)
(-1.8168 -0.102995 0)
(-1.82141 -0.0939307 0)
(-0.532366 -0.235334 -1.05442e-18)
(-0.743192 0.127204 4.63921e-19)
(-0.974201 0.271526 0)
(-1.18995 0.332568 0)
(-1.36661 0.347359 0)
(-1.50491 0.341888 1.34312e-21)
(-1.61209 0.32838 -1.4957e-20)
(-1.69504 0.312551 1.12653e-20)
(-1.75985 0.298328 4.10749e-21)
(-1.81278 0.287479 -5.18592e-20)
(-1.85855 0.278484 3.88224e-20)
(-1.89934 0.268204 0)
(-1.93551 0.254503 -4.62541e-20)
(-1.96705 0.237181 1.69858e-20)
(-1.99433 0.216621 9.5732e-21)
(-2.01759 0.192198 -1.16071e-20)
(-2.03635 0.162422 -2.05058e-20)
(-2.04948 0.126267 4.0257e-20)
(-2.05583 0.0841715 7.91671e-21)
(-2.05481 0.0380784 -9.39885e-21)
(-2.04666 -0.00922675 3.81603e-21)
(-2.03218 -0.0547721 -2.1435e-21)
(-2.01243 -0.0949671 1.84009e-21)
(-1.9897 -0.126013 -7.52994e-23)
(-1.96694 -0.144364 -2.41536e-21)
(-1.94822 -0.147727 4.98199e-21)
(-1.93836 -0.136641 -7.04526e-22)
(-1.94032 -0.116177 2.57654e-21)
(-1.94978 -0.0955008 0)
(-1.95534 -0.0832826 -4.96398e-22)
(-0.463766 0.150446 -9.52459e-21)
(-0.758858 0.441043 1.50446e-19)
(-1.08342 0.532838 -1.4962e-19)
(-1.34334 0.525905 3.78952e-20)
(-1.52962 0.484857 -3.71775e-20)
(-1.6624 0.441857 0)
(-1.76024 0.403017 0)
(-1.83313 0.368149 2.95823e-20)
(-1.88797 0.340648 -3.38401e-20)
(-1.93287 0.32252 5.35275e-21)
(-1.97412 0.309693 1.41191e-20)
(-2.01327 0.296031 9.04951e-21)
(-2.0488 0.278289 1.98087e-20)
(-2.07951 0.256916 1.02861e-20)
(-2.10606 0.233063 -2.45792e-20)
(-2.12949 0.205775 4.94016e-20)
(-2.14948 0.17259 -1.37512e-20)
(-2.16413 0.131928 -1.08507e-20)
(-2.17134 0.0844926 0)
(-2.16999 0.0330036 -7.57495e-21)
(-2.16048 -0.0190754 2.37542e-21)
(-2.14343 -0.0684027 2.45933e-21)
(-2.12086 -0.111062 3.28018e-21)
(-2.09516 -0.14278 8.27784e-22)
(-2.06972 -0.159507 1.72282e-21)
(-2.04912 -0.158677 -1.47229e-21)
(-2.03882 -0.141138 -7.55088e-22)
(-2.04221 -0.113132 -1.52048e-21)
(-2.05415 -0.0859216 1.22579e-22)
(-2.06107 -0.0701209 1.05128e-21)
(-0.38777 0.572358 9.47375e-21)
(-0.81261 0.869897 0)
(-1.25962 0.850144 -4.42287e-21)
(-1.54513 0.732031 0)
(-1.71289 0.613143 1.55313e-20)
(-1.81944 0.529374 -3.78684e-20)
(-1.89809 0.466893 2.19794e-20)
(-1.95547 0.412418 3.5659e-21)
(-1.99475 0.372077 0)
(-2.02724 0.350598 0)
(-2.06256 0.338713 -7.37989e-21)
(-2.1006 0.324374 -6.09784e-20)
(-2.13589 0.302893 3.06197e-20)
(-2.1652 0.276953 -3.97817e-20)
(-2.19011 0.250129 3.7654e-20)
(-2.21351 0.221059 -1.35476e-20)
(-2.2353 0.185165 1.36704e-20)
(-2.25225 0.139678 0)
(-2.26063 0.0857463 1.17395e-20)
(-2.25865 0.027486 -2.08605e-20)
(-2.247 -0.0303227 4.85637e-21)
(-2.22698 -0.0838623 -2.48547e-21)
(-2.20104 -0.129117 -7.05406e-22)
(-2.17185 -0.16145 0)
(-2.14334 -0.176186 -1.45453e-21)
(-2.1208 -0.170511 -1.14927e-21)
(-2.11039 -0.14559 6.60404e-21)
(-2.11603 -0.108804 4.2855e-21)
(-2.13156 -0.0737931 0)
(-2.14049 -0.0537105 -7.00639e-22)
(-0.387031 1.36381 1.2391e-20)
(-0.942682 1.76368 4.73576e-20)
(-1.5604 1.3429 -6.78246e-20)
(-1.82931 0.953304 0)
(-1.92795 0.674756 3.52095e-20)
(-1.97521 0.559533 -5.63842e-20)
(-2.02529 0.501205 1.80134e-20)
(-2.06295 0.440171 0)
(-2.07789 0.392979 2.31909e-20)
(-2.09077 0.374528 -2.27803e-20)
(-2.11972 0.3698 0)
(-2.15986 0.355788 1.58282e-20)
(-2.19704 0.327477 5.51007e-20)
(-2.22423 0.293787 -6.00601e-20)
(-2.24573 0.263903 -1.86621e-20)
(-2.26871 0.235125 2.37693e-20)
(-2.2936 0.198025 0)
(-2.31443 0.147576 0)
(-2.32468 0.0858421 0)
(-2.32151 0.019495 1.10652e-20)
(-2.30649 -0.0442024 -6.70956e-21)
(-2.2826 -0.101634 2.47309e-21)
(-2.25269 -0.149331 1.13071e-22)
(-2.21964 -0.182201 -1.117e-22)
(-2.18799 -0.194451 0)
(-2.1639 -0.182979 -3.64678e-21)
(-2.15439 -0.149456 1.98057e-21)
(-2.16399 -0.102336 -4.27734e-21)
(-2.18525 -0.0577064 -3.40842e-21)
(-2.19752 -0.0321261 0)
(10.0028 0.12215 -1.91156e-19)
(9.98466 0.241446 1.99946e-19)
(9.95764 0.359696 8.11597e-19)
(9.92468 0.479204 0)
(9.88499 0.601963 8.37307e-19)
(9.83844 0.729628 -8.54746e-19)
(9.78536 0.863578 1.73524e-18)
(9.72619 1.00511 8.83818e-19)
(9.66152 1.1556 -8.90226e-19)
(9.5917 1.3164 2.72209e-18)
(9.5174 1.48894 -3.65123e-18)
(9.43923 1.67469 3.71113e-18)
(9.35756 1.87524 -3.73375e-18)
(9.2732 2.09237 0)
(9.18706 2.32809 0)
(9.09954 2.58463 -9.49061e-19)
(9.01191 2.86463 1.9157e-18)
(8.92575 3.17123 8.62188e-18)
(8.84219 3.50801 -8.57397e-18)
(8.7632 3.87957 -9.54719e-19)
(8.69134 4.29156 -9.20587e-19)
(8.62977 4.75104 8.99737e-19)
(8.5834 5.26719 0)
(8.55801 5.85135 6.69894e-18)
(8.56272 6.51775 -5.70361e-18)
(8.60598 7.28766 9.09746e-20)
(8.73434 8.18326 3.49593e-19)
(8.8765 9.28112 0)
(9.81318 10.502 -1.4018e-18)
(10.5848 13.5372 1.57191e-18)
(10.0033 0.126743 3.07084e-18)
(9.98666 0.250501 0)
(9.96234 0.373186 -6.22487e-22)
(9.9331 0.497152 2.49258e-21)
(9.89802 0.624352 -8.16553e-19)
(9.85713 0.756458 -1.65443e-18)
(9.81078 0.894922 8.36981e-19)
(9.75935 1.04106 -8.51898e-19)
(9.70345 1.19622 -6.19582e-21)
(9.64361 1.36173 8.74213e-19)
(9.58056 1.53901 -8.76773e-19)
(9.51499 1.7295 -3.56425e-18)
(9.44748 1.93477 3.58271e-18)
(9.37893 2.15658 8.98167e-19)
(9.3103 2.39696 4.53612e-18)
(9.24255 2.65808 -1.00042e-17)
(9.17724 2.94239 5.45764e-18)
(9.116 3.25287 0)
(9.06072 3.59303 8.08666e-18)
(9.0141 3.96711 -7.12277e-18)
(8.9796 4.38025 8.82252e-19)
(8.96162 4.83865 -1.27941e-18)
(8.96672 5.35015 6.47169e-18)
(9.0036 5.9239 -6.32538e-18)
(9.08553 6.57042 0)
(9.22828 7.30293 -8.64515e-20)
(9.48582 8.13134 -2.93358e-19)
(9.80807 9.07934 -4.9845e-19)
(10.5856 10.0722 3.93794e-20)
(11.4399 11.3765 -4.40613e-19)
(10.0038 0.130921 -1.49394e-18)
(9.98872 0.258705 -3.77656e-19)
(9.96717 0.385386 3.82401e-19)
(9.94186 0.513368 -7.78376e-19)
(9.91175 0.644537 -3.28004e-21)
(9.87676 0.780553 0)
(9.83724 0.922946 3.24366e-18)
(9.79374 1.07305 -3.28238e-18)
(9.74689 1.23216 8.2443e-19)
(9.69731 1.40156 0)
(9.64583 1.58261 8.51421e-19)
(9.59321 1.77675 -8.50452e-19)
(9.54017 1.98549 0)
(9.48762 2.21054 -8.69993e-19)
(9.4367 2.45382 -5.20285e-18)
(9.38911 2.71738 3.46873e-18)
(9.3464 3.00346 8.7178e-19)