/*--------------------------------*- C++ -*----------------------------------*\
| =========                 |                                                 |
| \\      /  F ield         | OpenFOAM: The Open Source CFD Toolbox           |
|  \\    /   O peration     | Version:  4.1                                   |
|   \\  /    A nd           | Web:      www.OpenFOAM.org                      |
|    \\/     M anipulation  |                                                 |
\*---------------------------------------------------------------------------*/
FoamFile
{
    version     2.0;
    format      ascii;
    class       volScalarField;
    location    "1.6";
    object      p;
}
// * * * * * * * * * * * * * * * * * * * * * * * * * * * * * * * * * * * * * //

dimensions      [0 2 -2 0 0 0 0];

internalField   nonuniform List<scalar> 
2790
(
78.7787
78.6186
78.7432
79.0834
79.5499
80.1173
80.7858
81.5575
82.4319
83.4078
84.4871
85.6726
86.9656
88.3679
89.8811
91.5068
93.2449
95.0941
97.0504
99.1067
101.251
103.465
105.722
107.988
110.216
112.346
114.305
116.008
117.353
118.252
78.6204
78.565
78.7098
79.047
79.5111
80.0769
80.743
81.511
82.3805
83.3507
84.4235
85.601
86.8848
88.2763
89.7773
91.3891
93.1117
94.9436
96.8811
98.9174
101.041
103.235
105.476
107.729
109.951
112.087
114.069
115.824
117.271
118.386
78.4839
78.5019
78.6642
78.9929
79.4485
80.0072
80.6647
81.4219
82.2783
83.2331
84.2878
85.4442
86.703
88.0653
89.5321
91.1036
92.7792
94.5564
96.4306
98.3941
100.435
102.536
104.674
106.815
108.918
110.929
112.78
114.385
115.61
116.109
78.3469
78.4024
78.579
78.9016
79.3481
79.8978
80.5445
81.2877
82.1269
83.0613
84.0919
85.2196
86.4447
87.7669
89.1863
90.702
92.3115
94.0109
95.7933
97.6493
99.5645
101.519
103.487
105.431
107.303
109.037
110.539
111.654
112.188
110.721
78.201
78.2766
78.4658
78.7853
79.2223
79.7605
80.3928
81.1179
81.9352
82.8436
83.8433
84.9345
86.1165
87.3882
88.748
90.1935
91.7205
93.3225
94.9905
96.7113
98.4671
100.233
101.978
103.655
105.2
106.522
107.473
107.765
107.335
102.728
78.0421
78.1288
78.3264
78.6422
79.068
79.5916
80.206
80.9092
81.7001
82.5775
83.5406
84.5887
85.72
86.9322
88.2224
89.5862
91.0171
92.5063
94.0414
95.6055
97.1756
98.7209
100.2
101.553
102.695
103.494
103.748
102.963
101.548
93.2973
77.8679
77.9607
78.1624
78.4733
78.8866
79.3932
79.9868
80.6648
81.4255
82.2672
83.1884
84.1871
85.2608
86.4057
87.6172
88.8891
90.2126
91.5758
92.963
94.3529
95.7168
97.0162
98.1982
99.1873
99.8723
100.079
99.5612
97.5498
95.2759
83.5996
77.6774
77.7731
77.9756
78.2798
78.6792
79.1667
79.7367
80.3862
81.113
81.9146
82.7889
83.7329
84.7427
85.8134
86.9386
88.11
89.3165
90.5433
91.7708
92.9731
94.1155
95.1512
96.0151
96.6146
96.8137
96.3966
95.0976
91.8188
88.8531
74.4919
77.4704
77.5671
77.7675
78.0631
78.447
78.9134
79.4572
80.0753
80.7648
81.5226
82.3458
83.2302
84.1708
85.1614
86.1939
87.2579
88.3397
89.4218
90.4809
91.4861
92.3966
93.1575
93.6918
93.8905
93.5959
92.5531
90.5117
86.0233
82.4968
66.4233
77.2468
77.3432
77.5395
77.8246
78.1915
78.6349
79.1503
79.7344
80.3835
81.0942
81.8625
82.6832
83.5503
84.4559
85.3905
86.3416
87.2932
88.2248
89.1093
89.9115
90.5847
91.066
91.2678
91.0666
90.287
88.6388
85.9154
80.3421
76.3074
59.4567
77.0072
77.1024
77.2928
77.5659
77.9141
78.3328
78.8179
79.3656
79.9718
80.6325
81.3427
82.0964
82.8863
83.7032
84.536
85.3703
86.188
86.9654
87.6722
88.2691
88.7039
88.9066
88.7803
88.1902
86.9463
84.7282
81.3833
74.8754
70.2831
53.3367
76.7523
76.8455
77.0287
77.2883
77.6165
78.009
78.462
78.9712
79.5324
80.1406
80.7903
81.4744
82.1843
82.9099
83.6383
84.3535
85.035
85.6569
86.1856
86.5783
86.778
86.7081
86.2649
85.3038
83.6243
80.8803
76.9565
69.6623
64.3447
47.5829
76.4828
76.5736
76.7486
76.9933
77.3003
77.6653
78.0845
78.5537
79.068
79.622
80.2092
80.8217
81.45
82.0825
82.7051
83.3002
83.8455
84.3126
84.6656
84.8582
84.8294
84.4979
83.7543
82.4457
80.3645
77.141
72.659
64.7124
58.3853
41.5257
76.1998
76.2878
76.4536
76.6825
76.9671
77.3034
77.6877
78.1156
78.5817
79.08
79.6035
80.1432
80.6886
81.2273
81.7438
82.2195
82.63
82.9451
83.1269
83.1264
82.8795
82.3013
81.2783
79.6522
77.209
73.5577
68.5419
60.07
52.3637
34.3345
75.9043
75.9891
76.1451
76.3573
76.6186
76.9253
77.2739
77.6594
78.0763
78.5181
78.9771
79.4435
79.9061
80.3512
80.7628
81.1207
81.3996
81.5675
81.5849
81.4009
80.9494
80.1437
78.8678
76.9617
74.2053
70.1979
64.7244
55.9004
46.5663
25.1229
2.63849
2.68549
2.6855
2.63179
2.51487
2.35296
2.1737
1.99214
1.81526
1.64711
1.48979
1.34524
1.2148
1.10088
1.00736
0.934448
0.878451
0.841461
0.825607
0.829112
0.849117
0.882811
0.926907
0.974407
1.01455
1.03212
1.00772
0.913604
0.713429
0.368568
2.62231
2.66929
2.66429
2.60831
2.48927
2.32581
2.14557
1.96394
1.78817
1.62196
1.46695
1.32494
1.1966
1.08427
0.993055
0.922744
0.86726
0.831326
0.816314
0.819184
0.839112
0.87454
0.922556
0.977003
1.02543
1.05114
1.03532
0.94819
0.749922
0.386054
2.62776
2.65866
2.63852
2.57307
2.44719
2.28058
2.09978
1.91991
1.74807
1.58705
1.43783
1.30196
1.17856
1.06994
0.984615
0.920505
0.862838
0.828282
0.821158
0.831276
0.851637
0.880736
0.918074
0.96398
1.00945
1.03274
1.01919
0.935736
0.742707
0.37897
2.6459
2.64518
2.60505
2.52617
2.39135
2.2222
2.04336
1.8688
1.70492
1.55313
1.41387
1.28929
1.17482
1.07086
0.993999
0.95289
0.903072
0.854351
0.826302
0.826966
0.840469
0.862332
0.892234
0.929075
0.962045
0.97475
0.962547
0.879277
0.689605
0.328127
2.6532
2.6232
2.56452
2.47121
2.32798
2.15914
1.98642
1.82165
1.67024
1.53197
1.40676
1.29983
1.20556
1.11624
1.03588
0.968541
0.92971
0.887937
0.853558
0.834517
0.826607
0.827718
0.83823
0.854839
0.869924
0.875697
0.855818
0.775488
0.590908
0.244433
2.63872
2.59327
2.5192
2.4126
2.26362
2.09929
1.93711
1.78603
1.65084
1.53089
1.4241
1.33286
1.25308
1.17563
1.10476
1.04067
0.985859
0.930297
0.876943
0.830658
0.792119
0.762413
0.743212
0.732343
0.726901
0.721168
0.697936
0.624712
0.454748
0.161617
2.6131
2.55958
2.47254
2.35545
2.2041
2.04681
1.89672
1.76095
1.64273
1.54257
1.45836
1.38562
1.31984
1.2549
1.18998
1.12366
1.05381
0.976612
0.894741
0.813079
0.735642
0.666545
0.609486
0.56582
0.536507
0.517434
0.492453
0.42951
0.28987
0.0882165
2.58454
2.5239
2.42585
2.30005
2.14884
1.99812
1.85871
1.73859
1.64045
1.56221
1.50075
1.45035
1.40313
1.35135
1.29062
1.21751
1.12907
1.02393
0.90571
0.780861
0.656692
0.540714
0.439574
0.359012
0.303702
0.271925
0.249285
0.205657
0.115253
0.0206058
2.548
2.48402
2.37562
2.24104
2.08931
1.94471
1.81676
1.71228
1.63595
1.58549
1.55273
1.52827
1.50154
1.46284
1.40485
1.32211
1.21124
1.07239
0.910713
0.735135
0.556646
0.386792
0.236216
0.115267
0.0326251
-0.00989447
-0.0240818
-0.0362733
-0.0605942
-0.0431477
2.49705
2.43583
2.31504
2.17195
2.01988
1.87942
1.76211
1.6778
1.62883
1.61065
1.6116
1.61743
1.61405
1.58929
1.53341
1.43911
1.30248
1.12468
0.912834
0.678985
0.438408
0.207526
0.00206916
-0.162996
-0.274336
-0.325282
-0.323847
-0.291677
-0.235919
-0.104334
2.43667
2.37406
2.24187
2.09044
1.93717
1.79675
1.68908
1.62713
1.61256
1.63531
1.67736
1.71885
1.74218
1.73298
1.67946
1.57247
1.4072
1.18549
0.916685
0.616541
0.305346
0.00533172
-0.261615
-0.475406
-0.617357
-0.674588
-0.649953
-0.560624
-0.412494
-0.164298
2.39756
2.29886
2.15587
1.98945
1.82242
1.67908
1.58389
1.55277
1.58451
1.66035
1.75307
1.8364
1.88996
1.89833
1.84822
1.72818
1.53178
1.26116
0.92808
0.552586
0.160814
-0.218245
-0.555362
-0.82413
-0.9996
-1.06175
-1.00614
-0.846473
-0.593481
-0.224381
2.23452
2.21722
2.03579
1.84481
1.65969
1.5121
1.43546
1.4493
1.54567
1.69094
1.8456
1.9766
2.06315
2.09116
2.04628
1.91366
1.68399
1.35915
0.953598
0.492194
0.0079605
-0.462538
-0.881446
-1.2131
-1.42653
-1.49417
-1.39978
-1.15526
-0.782722
-0.285827
2.37967
2.08916
1.85027
1.63349
1.42768
1.2775
1.23186
1.31433
1.50279
1.73767
1.96578
2.14781
2.26791
2.31733
2.28068
2.137
1.87217
1.48737
1.0002
0.440543
-0.149912
-0.726624
-1.24153
-1.64727
-1.90554
-1.98127
-1.84073
-1.49533
-0.98474
-0.349618
1.40237
1.86878
1.54056
1.3714
1.14386
0.992258
0.990956
1.1654
1.47055
1.81437
2.1267
2.35777
2.5081
2.58061
2.55706
2.40497
2.10301
1.65204
1.07391
0.402176
-0.308896
-1.00815
-1.63593
-2.13016
-2.4409
-2.53038
-2.33839
-1.87694
-1.2064
-0.416627
75.5915
75.6729
75.8184
76.0128
76.2496
76.5255
76.8368
77.1786
77.5447
77.9284
78.3214
78.7135
79.0921
79.4429
79.7492
79.9901
80.139
80.163
80.0212
79.6617
79.0177
78.0023
76.5004
74.3543
71.3427
67.0825
61.3171
52.4738
41.9117
13.4011
75.2579
75.3354
75.4697
75.6453
75.8562
76.0997
76.3723
76.6684
76.982
77.3059
77.6315
77.9476
78.241
78.4968
78.6978
78.8226
78.8436
78.7278
78.4335
77.9086
77.0876
75.8859
74.1934
71.8594
68.676
64.3168
58.57
50.4055
41.5003
36.1393
74.9059
74.9793
75.1019
75.2577
75.4416
75.6516
75.8842
76.1337
76.3935
76.6565
76.9139
77.1539
77.3621
77.5233
77.6205
77.6318
77.5297
77.2808
76.8434
76.1669
75.1891
73.8302
71.989
69.5286
66.275
61.9983
56.6296
49.8684
43.0949
40.8832
74.5362
74.6053
74.7157
74.8508
75.0067
75.1826
75.3744
75.5762
75.7815
75.9831
76.1722
76.3366
76.4604
76.5284
76.5242
76.4263
76.2075
75.8341
75.2653
74.4538
73.3419
71.8578
69.9115
67.3889
64.1641
60.1065
55.2374
49.5192
43.1639
37.8188
74.1495
74.2143
74.3122
74.4257
74.5528
74.694
74.8445
74.9982
75.1485
75.2886
75.4102
75.5001
75.5409
75.518
75.416
75.2145
74.8871
74.3993
73.7126
72.7845
71.5632
69.9861
67.978
65.4526
62.3297
58.544
54.1247
49.0798
43.3774
38.0943
73.7467
73.8072
73.8925
73.9835
74.0813
74.1875
74.2965
74.4018
74.4972
74.5764
74.632
74.6489
74.6085
74.4979
74.303
74.005
73.5779
72.987
72.1972
71.1718
69.8657
68.2267
66.1965
63.7153
60.7361
57.2319
53.2322
48.7909
43.9618
39.3913
73.3293
73.3851
73.4577
73.5258
73.5939
73.665
73.7324
73.7894
73.8304
73.8503
73.8417
73.7869
73.668
73.4742
73.1925
72.8061
72.289
71.6066
70.7291
69.6256
68.2581
66.5859
64.5668
62.1619
59.3475
56.1206
52.5151
48.5962
44.4267
40.3435
72.8988
72.9496
73.0086
73.0541
73.0928
73.1288
73.1547
73.1639
73.1513
73.1141
73.0433
72.9187
72.7252
72.4535
72.0918
71.6255
71.0279
70.2665
69.3168
68.1533
66.7462
65.0656
63.0824
60.7738
58.1321
55.1672
51.912
48.4216
44.7499
41.1067
72.4571
72.5023
72.5465
72.5699
72.5802
72.5812
72.5662
72.5283
72.464
72.3719
72.2404
72.0488
71.7853
71.4417
71.0076
70.4697
69.8018
68.9744
67.967
66.7603
65.3326
63.6633
61.7337
59.5327
57.0623
54.3376
51.389
48.2629
45.0089
41.7748
72.0059
72.0448
72.0736
72.0756
72.0579
72.0246
71.9696
71.8863
71.7724
71.627
71.4367
71.182
70.8541
70.4452
69.9458
69.3448
68.6174
67.7357
66.6838
65.449
64.017
62.3741
60.5098
58.4212
56.1149
53.6081
50.9289
48.1167
45.2148
42.3315
71.5467
71.5788
71.5928
71.5736
71.5283
71.4614
71.3677
71.2411
71.0801
70.883
70.6362
70.3236
69.9374
69.4693
68.9116
68.2558
67.4789
66.5544
65.4702
64.2205
62.797
61.1917
59.3999
57.4232
55.2709
52.9605
50.5172
47.9744
45.3679
42.7803
71.0815
71.1064
71.1064
71.0661
70.9939
70.8947
70.7638
70.5962
70.3904
70.1434
69.8437
69.4782
69.0392
68.5187
67.91
67.2075
66.3906
65.4336
64.3279
63.074
61.6692
60.1092
58.3929
56.5246
54.5148
52.3803
50.1434
47.8318
45.475
43.1378
70.6124
70.6302
70.6169
70.5557
70.4573
70.3275
70.1615
69.955
69.7063
69.4122
69.0639
68.6503
68.1645
67.5981
66.9451
66.2041
65.3561
64.3749
63.256
62.0071
60.6289
59.1191
57.4784
55.7131
53.834
51.8565
49.8001
47.6877
45.5432
43.4186
70.1422
70.1526
70.1258
70.0448
69.9218
69.7633
69.5642
69.3207
69.031
68.6934
68.3009
67.8442
67.3179
66.7122
66.0214
65.2486
64.3754
63.3763
62.2529
61.0173
59.6714
58.2138
56.6473
54.9786
53.2185
51.3807
49.4821
47.5416
45.5787
43.6351
69.674
69.6767
69.6349
69.5357
69.3906
69.2053
68.9753
68.6968
68.3682
67.9905
67.5588
67.0645
66.5034
65.8648
65.1435
64.3429
63.446
62.4355
61.3177
60.1024
58.792
57.387
55.8915
54.3125
52.66
50.9463
49.1858
47.394
45.5869
43.7982
69.2102
69.2049
69.1477
69.0315
68.8667
68.6569
68.3979
68.0865
67.7215
67.3067
66.8421
66.318
65.7263
65.0581
64.3103
63.4842
62.5681
61.5544
60.4493
59.2588
57.9856
56.6324
55.204
53.7075
52.152
50.5484
48.9086
47.2458
45.5729
43.9174
68.7531
68.7397
68.6679
68.5355
68.3531
68.1214
67.8352
67.4933
67.0953
66.6481
66.1568
65.6088
64.9889
64.2911
63.5177
62.6709
61.7443
60.735
59.6464
58.4827
57.2473
55.9442
54.5787
53.1577
51.6892
50.1829
48.6489
47.0981
45.5412
44.0006
68.3052
68.2842
68.1989
68.0511
67.8529
67.602
67.2905
66.9209
66.4963
66.0237
65.5081
64.9342
64.2851
63.5604
62.7671
61.9076
60.9782
59.9771
58.9067
57.7705
56.5726
55.3174
54.0103
52.6578
51.2673
49.847
48.4057
46.9524
45.4959
44.0547
67.8689
67.8417
67.744
67.5819
67.3697
67.1032
66.7699
66.3762
65.9302
65.4358
64.8936
64.2892
63.6126
62.8687
62.0637
61.1983
60.2703
59.2795
58.2281
57.1194
55.9577
54.7475
53.4942
52.2037
50.8828
49.5385
48.1784
46.81
45.4405
44.0854
67.4464
67.4153
67.3077
67.1344
66.9094
66.6287
66.2793
65.8658
65.3972
64.8776
64.3065
63.6744
62.9782
62.2229
61.4114
60.5438
59.62
58.6408
57.6086
56.5268
55.3995
54.2312
53.0269
51.7923
50.5332
49.2559
47.9668
46.6722
45.3784
44.098
67.0385
67.0097
66.8969
66.7163
66.4789
66.1824
65.8186
65.3866
64.8928
64.3459
63.7494
63.0978
62.3894
61.6266
60.8113
59.9442
59.0264
58.0597
57.0466
55.9905
54.8953
53.7654
52.6055
51.4207
50.2164
48.9979
47.7709
46.5406
45.3123
44.0966
66.6486
66.6314
66.5198
66.3311
66.0801
65.7671
65.3853
64.9319
64.415
63.8469
63.232
62.5669
61.8496
61.0814
60.2642
59.3995
58.4891
57.5351
56.5405
55.5084
54.4429
53.3478
52.2278
51.0873
49.9312
48.7642
47.5911
46.4166
45.2451
44.0854
66.2853
66.2857
66.1785
65.9794
65.7124
65.3814
64.9784
64.504
63.9707
63.389
62.7611
62.0852
61.3607
60.5887
59.7712
58.9101
58.0076
57.0662
56.089
55.0791
54.0404
52.9766
51.8918
50.7904
49.6764
48.5541
47.4278
46.3014
45.1787
44.0671
65.9585
65.9764
65.8725
65.6609
65.3751
65.0237
64.6013
64.1125
63.569
62.9774
62.3394
61.655
60.9248
60.1503
59.3335
58.4766
57.5822
56.6529
55.6917
54.702
53.6872
52.651
51.5972
50.5296
49.4521
48.3684
47.2822
46.197
45.1161
44.0458
65.6754
65.7066
65.6014
65.3748
65.0686
64.6988
64.2631
63.7656
63.2145
62.6147
61.9686
61.2775
60.5431
59.767
58.9515
58.0991
57.2123
56.2941
55.3474
54.3754
53.3816
52.3694
51.3423
50.3038
49.2574
48.2064
47.1542
46.1038
45.0581
44.0224
65.4429
65.4775
65.3626
65.1207
64.7999
64.4175
63.973
63.4689
62.9112
62.3047
61.6524
60.9565
60.2191
59.4422
58.6285
57.7804
56.9006
55.9922
55.0581
54.1015
53.1256
52.1337
51.1291
50.1151
49.0947
48.0711
47.0473
46.0259
45.0096
44.0029
65.2662
65.2883
65.1578
64.9052
64.5765
64.1854
63.7331
63.2227
62.6593
62.0475
61.3905
60.691
59.9516
59.1746
58.3627
57.5185
56.645
55.7449
54.8215
53.8776
52.9165
51.9412
50.9549
49.9606
48.9612
47.9596
46.9584
45.9601
44.967
43.9829
65.1476
65.1425
64.9964
64.7397
64.4075
64.0105
63.552
63.0363
62.4683
61.8524
61.1919
60.4899
59.7491
58.9722
58.1619
57.321
56.4525
55.5592
54.6441
53.7103
52.7608
51.7986
50.8267
49.8478
48.8648
47.8803
46.8969
45.9168
44.9422
43.9765
65.0929
65.0421
64.8757
64.6169
64.2838
63.8835
63.4212
62.9022
62.3315
61.7134
61.0512
60.348
59.6067
58.8303
58.0215
57.1832
56.3184
55.4299
54.5207
53.5939
52.6523
51.6989
50.7364
49.7678
48.7956
47.8223
46.8503
45.8819
44.9189
43.9643
65.132
65.0172
64.8258
64.5629
64.2278
63.8242
63.3585
62.8368
62.2642
61.6445
60.9811
60.2774
59.5361
58.7604
57.9529
57.1167
56.2546
55.3695
54.4645
53.5424
52.6061
51.6585
50.7024
49.7404
48.7751
47.809
46.8443
45.8831
44.9274
43.9795
-69.3656
-41.9786
-15.8818
28.7921
25.9371
22.6586
32.1107
23.9711
19.027
29.4099
24.2177
21.0342
32.4753
28.705
25.7973
34.9114
31.7092
29.0683
36.4596
33.7294
31.4632
37.7436
35.4036
33.4498
38.8329
36.7874
35.0733
39.7234
37.9101
36.3889
40.4472
38.8249
37.4629
41.0349
39.572
38.3425
41.5096
40.1809
39.0632
41.8906
40.6761
39.6535
42.1944
41.0775
40.1365
42.4344
41.4016
40.5307
42.6219
41.6619
40.8516
42.7663
41.8694
41.1117
42.8756
42.0335
41.3216
42.9564
42.1622
41.4899
43.0144
42.2619
41.6241
43.0548
42.3384
41.7305
43.0811
42.3962
41.814
43.0982
42.4404
41.8803
43.1072
42.4724
41.9311
43.1154
42.4999
41.9739
43.1169
42.5172
42.004
43.1288
42.5413
42.0372
43.128
42.5494
42.0526
43.1558
42.5864
42.0938
6.12504
2.45014
1.14598
0.965353
0.548797
0.375716
0.433703
0.752321
1.27505
1.90192
2.35604
2.62369
2.78939
2.88624
2.88432
2.72773
2.38449
1.85903
1.18153
0.380236
-0.465885
-1.30638
-2.06793
-2.67203
-3.05001
-3.14875
-2.9028
-2.31424
-1.46358
-0.491353
15.0756
4.62291
1.49868
1.0312
0.713421
0.480162
0.575354
1.10751
1.87414
2.43208
2.69041
2.82637
3.00325
3.19188
3.25981
3.10582
2.7125
2.10045
1.30611
0.375903
-0.621292
-1.61612
-2.52342
-3.24892
-3.70892
-3.81333
-3.50694
-2.78917
-1.75823
-0.581653
13.8765
7.44216
4.48386
3.32166
2.51147
1.89216
1.64592
1.77234
2.09285
2.45941
2.86587
3.28571
3.69122
3.9292
3.89769
3.60949
3.09113
2.35924
1.43587
0.364493
-0.787833
-1.94189
-2.99855
-3.8405
-4.3558
-4.44868
-4.06862
-3.22079
-2.03385
-0.678868
17.297
12.7119
9.40159
7.2148
5.65381
4.52641
3.83202
3.52642
3.49882
3.63626
3.84621
4.05035
4.20367
4.25553
4.16255
3.88639
3.37648
2.59509
1.55515
0.32875
-0.984083
-2.28289
-3.45853
-4.38376
-4.92641
-4.98791
-4.50092
-3.52896
-2.21764
-0.752937
22.1463
17.9927
14.3208
11.4381
9.29291
7.71366
6.59821
5.87528
5.45405
5.22924
5.10745
5.02299
4.93155
4.78449
4.52294
4.0899
3.44001
2.5513
1.43872
0.156928
-1.21424
-2.58001
-3.81625
-4.7515
-5.18716
-5.09299
-4.50873
-3.51113
-2.20217
-0.780857
25.8601
22.1851
18.5601
15.4416
12.9783
11.0652
9.5903
8.48154
7.66844
7.07108
6.61409
6.23477
5.87796
5.48683
5.00345
4.37807
3.57562
2.58149
1.40932
0.105232
-1.25527
-2.56912
-3.70402
-4.51157
-4.8611
-4.67439
-4.08009
-3.16
-1.98422
-0.751979
28.748
25.5572
22.1723
19.0638
16.4653
14.3369
12.5926
11.1746
10.0327
9.1085
8.34026
7.66922
7.04049
6.40145
5.70287
4.90311
3.97292
2.90112
1.70146
0.417011
-0.88064
-2.09546
-3.11352
-3.81764
-4.11236
-3.94366
-3.40055
-2.604
-1.63945
-0.660625
31.1062
28.3008
25.1937
22.2075
19.5962
17.3627
15.4488
13.8133
12.422
11.2336
10.1999
9.27172
8.40182
7.54555
6.6618
5.71615
4.68522
3.56185
2.36014
1.11845
-0.101609
-1.21956
-2.14391
-2.78552
-3.07794
-2.99839
-2.58559
-1.96199
-1.24114
-0.533383
33.0129
30.5147
27.6787
24.8668
22.3224
20.0699
18.072
16.3016
14.7377
13.3532
12.1129
10.9788
9.91327
8.87998
7.84581
6.78368
5.67605
4.5189
3.32519
2.12674
0.973177
-0.072192
-0.939852
-1.56553
-1.90488
-1.94712
-1.72049
-1.31487
-0.835096
-0.382365
34.556
32.312
29.7244
27.1017
24.6657
22.4497
20.4299
18.5898
16.9189
15.4006
14.0113
12.7232
11.5078
10.3371
9.1858
8.03335
6.86704
5.68472
4.49728
3.32972
2.22006
1.21576
0.367401
-0.280053
-0.697524
-0.880945
-0.856144
-0.678138
-0.43241
-0.214941
35.8172
33.7864
31.4189
28.9799
26.6691
24.5215
22.5214
20.6595
18.9324
17.3316
15.8424
14.4456
13.1209
11.8479
10.6078
9.38595
8.17304
6.96796
5.77934
4.62604
3.53611
2.54381
1.68488
0.990055
0.477977
0.149107
-0.0172243
-0.060921
-0.0450394
-0.0445564
36.8532
35.0035
32.8289
30.5608
28.3786
26.3162
24.3621
22.5115
20.7654
19.1215
17.5713
16.103
14.7024
13.3553
12.0492
10.7736
9.52196
8.29357
7.09507
5.9403
4.84927
3.84604
2.95521
2.19729
1.58381
1.11318
0.768684
0.519128
0.322472
0.122524
37.7063
36.0115
34.0062
31.8942
29.8375
27.8675
25.9749
24.1572
22.4185
20.7602
19.1788
17.6675
16.217
14.8183
13.4636
12.1463
10.8612
9.60822
8.39229
7.22338
6.11541
5.08482
4.14814
3.31868
2.60312
1.99876
1.49211
1.05937
0.669371
0.281107
38.4095
36.8485
34.992
33.0212
31.0833
29.207
27.384
25.6129
23.8993
22.247
20.6561
19.1232
17.6429
16.21
14.8208
13.4705
12.156
10.8775
9.63874
8.44679
7.31097
6.24227
5.25153
4.34704
3.53218
2.80366
2.15042
1.55393
0.989955
0.427988
38.9895
37.5443
35.8187
33.9751
32.1478
30.3629
28.6127
26.8959
25.2188
23.5867
22.0016
20.4629
18.968
17.5149
16.1016
14.7256
13.3851
12.0809
10.8163
9.59589
8.42559
7.31259
6.2638
5.28405
4.37452
3.53155
2.7459
2.00274
1.28282
0.562136
39.4674
38.1228
36.5126
34.783
33.0575
31.3597
29.682
28.0233
26.3895
24.7867
23.2183
21.6852
20.1873
18.7243
17.2956
15.8998
14.5366
13.2078
11.9163
10.6648
9.45662
8.29646
7.18861
6.13549
5.13679
4.18872
3.28331
2.40841
1.54825
0.683313
39.8605
38.6036
37.0949
35.4674
33.8346
32.2185
30.6111
29.011
27.424
25.8562
24.3116
22.7925
21.3001
19.8352
18.3977
16.9874
15.6049
14.2532
12.9351
11.6519
10.4051
9.19751
8.03164
6.90838
5.82648
4.78211
3.76828
2.77469
1.78817
0.792417
40.1833
39.0026
37.5833
36.0468
34.4981
32.9573
31.4167
29.8741
28.3349
26.8049
25.2887
23.789
22.308
20.8471
19.4068
17.9861
16.587
15.2149
13.8723
12.5585
11.2739
10.0203
8.79886
7.60956
6.45063
5.31826
4.2062
3.10555
2.00503
0.890743
40.4474
39.333
37.9924
36.5368
35.0638
33.5921
32.1136
30.6261
29.1339
27.6429
26.1572
24.6801
23.2142
21.7622
20.3236
18.8954
17.4823
16.0939
14.7302
13.3875
12.0667
10.7692
9.49556
8.2449
7.01518
5.80268
4.60173
3.40447
2.20107
0.979478
40.6628
39.6061
38.3345
36.9505
35.5453
34.1362
32.7151
31.2792
29.8324
28.3797
26.9253
25.4724
24.0239
22.5833
21.1494
19.7176
18.2949
16.8932
15.5102
14.1409
12.7863
11.448
10.1261
8.81918
7.52501
6.23994
4.95876
3.67446
2.37832
1.05967
40.8377
39.8309
38.6197
37.2989
35.9541
34.6013
33.2325
31.8444
30.4402
29.0246
27.6013
26.1733
24.7435
23.3148
21.8861
20.455
19.0284
17.615
16.2134
14.82
13.4352
12.0598
10.6939
9.33607
7.98369
6.63326
5.27999
3.91749
2.53794
1.13176
40.9792
40.0154
38.8569
37.5916
36.3001
34.9975
33.6758
32.3312
30.9665
29.5857
28.1922
26.7887
25.3775
23.9606
22.5382
21.111
19.6841
18.2618
16.844
15.4292
14.0172
12.6086
11.2031
9.7994
8.39482
6.98595
5.56826
4.13587
2.68162
1.1967
41.0928
40.166
39.053
37.8361
36.5914
35.333
34.0531
32.7477
31.4187
30.0698
28.7038
27.3231
25.9296
24.5252
23.1112
21.6897
20.2635
18.835
17.4042
15.9708
14.5349
13.0966
11.6556
10.2108
8.75971
7.29893
5.82407
4.32961
2.80895
1.25398
41.1845
40.2889
39.215
38.0399
36.8357
35.616
34.3728
33.1019
31.8048
30.4845
29.1436
27.784
26.4074
25.0157
23.6107
22.1946
20.7701
19.3379
17.8974
16.4481
14.9911
13.5269
12.055
10.5741
9.08207
7.57567
6.05066
4.50165
2.92246
1.30527
41.2569
40.3875
39.3467
38.2071
37.0375
35.8508
34.6392
33.3982
32.1289
30.8339
29.5154
28.1749
26.8139
25.434
24.037
22.6258
21.2038
19.7706
18.3223
16.859
15.3836
13.8973
12.399
10.887
9.35931
7.8132
6.24461
4.64824
3.01838
1.34776
41.3169
40.4689
39.4555
38.3455
37.2049
36.0459
34.8609
33.6454
32.3999
31.1267
29.8277
28.5043
27.1575
25.7885
24.3983
22.9907
21.5723
20.1399
18.6847
17.2087
15.7182
14.2139
12.6939
11.1558
9.59805
8.01862
6.41322
4.77638
3.10307
1.38601
41.3615
40.5304
39.5387
38.4526
37.3351
36.1985
35.035
33.8399
32.6138
31.3584
30.0754
28.766
27.4312
26.0716
24.6873
23.2829
21.8672
20.4347
18.9739
17.4886
15.9864
14.4675
12.9295
11.3699
9.7872
8.18022
6.54464
4.8748
3.16629
1.41276
41.404
40.5851
39.6103
38.5425
37.4429
36.3234
35.1765
33.9973
32.786
31.5443
30.2737
28.975
27.6492
26.2971
24.9192
23.5199
22.1048
20.6692
19.2053
17.7156
16.2052
14.6745
13.122
11.5455
9.94333
8.31414
6.6546
4.9592
3.2226
1.43793
41.4272
40.6155
39.6515
38.5962
37.5088
36.4007
35.2647
34.096
32.8945
31.6619
30.3994
29.1079
27.7882
26.4415
25.0691
23.6739
22.2576
20.8179
19.3518
17.8602
16.3449
14.8063
13.2436
11.6555
10.0399
8.39519
6.7188
5.0057
3.25004
1.4462
41.467
40.6535
39.6951
38.6477
37.5674
36.4657
35.3357
34.1726
32.9764
31.7485
30.4902
29.2024
27.8859
26.542
25.1721
23.7775
22.3592
20.9165
19.4482
17.9546
16.436
14.8925
13.3237
11.7284
10.1047
8.45064
6.76355
5.03801
3.26648
1.43875
)
;

boundaryField
{
    inlet
    {
        type            zeroGradient;
    }
    outlet
    {
        type            fixedValue;
        value           uniform 0;
    }
    flap
    {
        type            zeroGradient;
    }
    upperWall
    {
        type            zeroGradient;
    }
    lowerWall
    {
        type            zeroGradient;
    }
    frontAndBack
    {
        type            empty;
    }
}


// ************************************************************************* //
