/*--------------------------------*- C++ -*----------------------------------*\
| =========                 |                                                 |
| \\      /  F ield         | OpenFOAM: The Open Source CFD Toolbox           |
|  \\    /   O peration     | Version:  5.x                                   |
|   \\  /    A nd           | Web:      www.OpenFOAM.org                      |
|    \\/     M anipulation  |                                                 |
\*---------------------------------------------------------------------------*/
FoamFile
{
    version     2.0;
    format      ascii;
    class       surfaceScalarField;
    location    "1.6";
    object      phi;
}
// * * * * * * * * * * * * * * * * * * * * * * * * * * * * * * * * * * * * * //

dimensions      [0 3 -1 0 0 0 0];

internalField   nonuniform List<scalar> 
5457
(
0.197555
0.00246613
0.195087
0.00248769
0.19257
0.00253575
0.189933
0.00265705
0.187163
0.00278932
0.184259
0.00292422
0.181212
0.00306747
0.17801
0.00322359
0.174633
0.00339412
0.171063
0.00358181
0.167289
0.00378802
0.163289
0.00401537
0.159034
0.00426829
0.154494
0.00454925
0.149639
0.00486219
0.144429
0.00521176
0.138824
0.0056033
0.132774
0.00604275
0.126224
0.00653707
0.119111
0.00709364
0.111364
0.00772021
0.102903
0.00842538
0.0936392
0.00921861
0.0834721
0.0101108
0.0722889
0.0111138
0.0599654
0.0122376
0.0463697
0.0134912
0.0313879
0.0148599
0.0149336
0.0163312
0.014742
0.199376
0.0031111
0.198254
0.00362916
0.196936
0.0038727
0.195443
0.00416886
0.193765
0.00448675
0.191898
0.00481164
0.189835
0.0051504
0.187569
0.00551131
0.185083
0.00590031
0.182366
0.00631657
0.179405
0.00676732
0.176174
0.00726214
0.172651
0.00780363
0.168811
0.00839931
0.164623
0.00905764
0.160049
0.00978835
0.155048
0.0106029
0.14957
0.0115141
0.143556
0.0125386
0.136938
0.0136937
0.129635
0.0149983
0.121551
0.0164761
0.112572
0.0181555
0.102556
0.0200747
0.0913184
0.0222886
0.07861
0.0248716
0.0640672
0.0279458
0.0470481
0.0317776
0.0258782
0.0373946
0.040511
0.199239
0.00389323
0.198196
0.00469151
0.196952
0.00513569
0.195553
0.00558621
0.193997
0.00606215
0.192274
0.00655397
0.190378
0.00706611
0.188301
0.00760871
0.186028
0.00818978
0.183549
0.00880963
0.180854
0.00947892
0.177921
0.0102103
0.17473
0.0110083
0.171255
0.0118844
0.167469
0.0128514
0.163337
0.0139241
0.158819
0.0151204
0.153867
0.0164602
0.14842
0.0179745
0.142404
0.0196938
0.13573
0.021651
0.128282
0.0238952
0.119915
0.0264865
0.110436
0.0295104
0.0995696
0.0331037
0.0868911
0.0374927
0.071727
0.0430477
0.0530483
0.0503914
0.0293927
0.0609767
0.0698857
0.19915
0.00476476
0.198108
0.0057525
0.196878
0.00638428
0.195494
0.00698801
0.193959
0.00761659
0.192264
0.00826891
0.190401
0.00894773
0.188364
0.00966416
0.186141
0.0104269
0.183722
0.0112411
0.181097
0.0121178
0.178253
0.0130696
0.175168
0.0141069
0.17182
0.0152439
0.168183
0.0164972
0.164226
0.0178863
0.159912
0.0194362
0.155194
0.0211755
0.150015
0.0231447
0.144305
0.0253915
0.137965
0.0279745
0.130865
0.030973
0.122833
0.0344912
0.11362
0.0386912
0.102883
0.0438054
0.0901093
0.0502289
0.0744316
0.0586888
0.0543031
0.0704863
0.0295826
0.0856472
0.099503
0.199102
0.00568463
0.198047
0.0068264
0.196826
0.00762295
0.195454
0.0083777
0.193933
0.00915727
0.192256
0.00996565
0.190415
0.0108073
0.188403
0.0116938
0.18621
0.0126355
0.183825
0.0136402
0.181238
0.0147198
0.178436
0.0158879
0.175398
0.0171587
0.172104
0.0185504
0.168529
0.0200832
0.164643
0.0217806
0.16041
0.0236746
0.155778
0.0258077
0.150697
0.0282223
0.145098
0.0309816
0.138873
0.0341886
0.131877
0.0379547
0.123924
0.0424275
0.114736
0.0478613
0.103891
0.0546328
0.0908002
0.0633038
0.0746885
0.0747877
0.0534986
0.0916571
0.0283198
0.110761
0.127862
0.199077
0.00662875
0.198014
0.00790909
0.1968
0.00885364
0.19544
0.00975609
0.193935
0.010682
0.192278
0.0116418
0.190461
0.0126425
0.188476
0.0136966
0.186312
0.0148152
0.18396
0.016008
0.181408
0.0172882
0.178641
0.0186712
0.175641
0.0201736
0.172386
0.0218193
0.16885
0.0236318
0.165003
0.0256377
0.160812
0.0278748
0.156224
0.030402
0.151173
0.0332756
0.145585
0.0365682
0.139354
0.0404154
0.132328
0.0449757
0.124292
0.0504578
0.114961
0.0571883
0.1039
0.0656931
0.0904094
0.0767993
0.0737208
0.091482
0.0516879
0.113675
0.0263803
0.135962
0.154275
0.199068
0.00758154
0.198003
0.0089932
0.196801
0.010073
0.195459
0.0111171
0.193975
0.0121847
0.192344
0.0132921
0.190557
0.0144481
0.188604
0.0156672
0.186476
0.0169609
0.184162
0.0183392
0.181649
0.0198182
0.178922
0.0214149
0.175965
0.0231475
0.172752
0.0250485
0.169252
0.0271457
0.165438
0.029466
0.161268
0.0320572
0.156697
0.0349844
0.151653
0.0383285
0.146044
0.0421846
0.13976
0.0467037
0.132648
0.0520932
0.124475
0.0586377
0.114919
0.0667537
0.103533
0.0770917
0.0896552
0.0906958
0.0723573
0.108788
0.049503
0.136505
0.024044
0.161267
0.178343
0.199068
0.00853342
0.198008
0.0100724
0.196824
0.0112753
0.195506
0.0124536
0.19405
0.0136596
0.19245
0.014911
0.190699
0.016218
0.188785
0.0175996
0.186698
0.0190668
0.184428
0.0206278
0.181961
0.0223037
0.179281
0.0241143
0.176365
0.0260812
0.173193
0.0282393
0.169736
0.0306201
0.165959
0.0332594
0.161814
0.0362192
0.157257
0.0395582
0.152217
0.0433843
0.146586
0.047831
0.14025
0.0530553
0.133047
0.0593134
0.12472
0.0669828
0.114933
0.0765605
0.103217
0.0888314
0.0888741
0.10506
0.0711602
0.1265
0.0477127
0.159894
0.0217082
0.187055
0.200026
0.199073
0.00947969
0.198024
0.0111406
0.196862
0.0124558
0.195573
0.0137615
0.194149
0.0151025
0.192585
0.0164942
0.19087
0.0179517
0.188996
0.0194934
0.186954
0.0211279
0.184734
0.0228676
0.18232
0.0247384
0.179692
0.0267627
0.176826
0.0289679
0.173703
0.0313824
0.170301
0.0340426
0.16658
0.0370005
0.162487
0.0403326
0.15796
0.0441073
0.152929
0.0484379
0.147288
0.0534962
0.140917
0.0594522
0.13364
0.0666193
0.125184
0.0754672
0.115197
0.0865765
0.10321
0.100847
0.0884084
0.119875
0.0703392
0.144548
0.0463958
0.183726
0.0196776
0.213478
0.219594
0.199083
0.0104156
0.19805
0.0121929
0.196911
0.0136134
0.195651
0.0150405
0.194262
0.0165106
0.192736
0.0180392
0.191061
0.0196462
0.189232
0.0213424
0.187244
0.0231363
0.185082
0.0250508
0.182729
0.0271134
0.180165
0.0293482
0.177374
0.0317814
0.174328
0.0344512
0.170994
0.0374002
0.167333
0.0406849
0.163301
0.0443897
0.158823
0.0486113
0.153833
0.053456
0.148233
0.0591274
0.141866
0.0658543
0.13454
0.0739809
0.126019
0.0840255
0.115939
0.0966922
0.10373
0.113079
0.088646
0.134954
0.0700592
0.163079
0.0454215
0.208178
0.0183037
0.240235
0.237744
0.199099
0.0113353
0.198085
0.0132262
0.196969
0.0147483
0.195739
0.0162888
0.194388
0.0178808
0.192905
0.0195409
0.191284
0.0212876
0.189516
0.0231312
0.18759
0.0250831
0.185496
0.0271673
0.183215
0.029418
0.180726
0.0318604
0.178014
0.0345186
0.175049
0.0374421
0.171797
0.0406778
0.168215
0.0442946
0.164266
0.0483679
0.159887
0.05302
0.154984
0.0583914
0.149459
0.0646881
0.143157
0.0721965
0.13588
0.0812985
0.127381
0.0925652
0.117265
0.106846
0.104969
0.12539
0.0897283
0.150171
0.0703134
0.18239
0.0450289
0.233204
0.0180701
0.266806
0.25572
0.19912
0.0122342
0.19813
0.0142353
0.197043
0.0158534
0.195851
0.0174999
0.194543
0.0192075
0.193112
0.0209917
0.191551
0.0228679
0.189849
0.0248543
0.187992
0.026963
0.185967
0.0292156
0.18376
0.03165
0.181355
0.0342916
0.178725
0.0371756
0.17585
0.0403448
0.172709
0.0438483
0.16925
0.0477843
0.16542
0.0522308
0.161167
0.0573082
0.156397
0.063198
0.151
0.0701246
0.144841
0.0783981
0.137722
0.0884608
0.129372
0.100958
0.119369
0.116882
0.107226
0.137543
0.0918551
0.165501
0.0717499
0.202342
0.0468271
0.257813
0.0206245
0.292631
0.276333
0.199144
0.0131087
0.198184
0.015214
0.197134
0.0169218
0.195985
0.0186682
0.194726
0.020485
0.19335
0.0223865
0.191848
0.0243904
0.190209
0.0265157
0.188423
0.0287724
0.186472
0.0311907
0.18435
0.0337986
0.182045
0.0366249
0.179532
0.0397185
0.176783
0.043124
0.173763
0.0469003
0.17044
0.0511414
0.166755
0.0559521
0.162663
0.0614394
0.158089
0.0678145
0.152907
0.07535
0.146994
0.0843548
0.140167
0.0953326
0.132151
0.109014
0.122595
0.126463
0.110881
0.149258
0.0959315
0.180383
0.076641
0.221437
0.0542453
0.279866
0.0298664
0.316662
0.306153
0.199169
0.0139579
0.198242
0.0161604
0.197231
0.0179512
0.196127
0.0197907
0.19492
0.0217103
0.193603
0.0237238
0.192161
0.025853
0.19059
0.0281081
0.188887
0.0305002
0.187033
0.0330703
0.185021
0.0358389
0.182831
0.0388448
0.180439
0.0421414
0.17782
0.0457756
0.174938
0.0498173
0.171778
0.0543392
0.168296
0.0594732
0.164425
0.0653529
0.160092
0.0721916
0.15521
0.0802773
0.149668
0.0899412
0.143303
0.10174
0.135897
0.116452
0.127147
0.135231
0.116494
0.159896
0.103491
0.193291
0.0875044
0.237207
0.0710851
0.295956
0.0513455
0.336111
0.357329
0.199189
0.014787
0.19829
0.0170782
0.197316
0.0189446
0.196255
0.0208701
0.195098
0.0228853
0.193838
0.0250036
0.192465
0.0272466
0.190975
0.0296208
0.18936
0.0321404
0.187606
0.0348512
0.185695
0.0377791
0.183609
0.0409622
0.18133
0.0444542
0.178844
0.0482963
0.176137
0.0525615
0.173166
0.0573499
0.169892
0.0627896
0.166261
0.0690278
0.162212
0.0762852
0.15769
0.0848436
0.152608
0.095066
0.146847
0.107536
0.14028
0.123045
0.132755
0.142767
0.12414
0.16848
0.11466
0.202655
0.104842
0.246804
0.0993505
0.301147
0.0936628
0.341559
0.450745
0.00228042
-0.00243678
0.00488689
-0.00296815
0.00715487
-0.00298375
0.00924576
-0.00283514
0.0117772
-0.0026946
0.0148834
-0.00272252
0.0181402
-0.00273958
0.0212881
-0.00269358
0.0243162
-0.00265588
0.0272133
-0.00259001
0.0299745
-0.0024987
0.0325609
-0.00235336
0.0349392
-0.00216433
0.037079
-0.00193905
0.0389813
-0.00171056
0.0406557
-0.00148921
0.0420925
-0.00125593
0.0433051
-0.00103475
0.0443292
-0.000848169
0.0452095
-0.000705413
0.0460011
-0.00061737
0.0467723
-0.000597246
0.0476068
-0.000660488
0.0485922
-0.000811487
0.0498224
-0.00105633
0.0513945
-0.00139847
0.0534383
-0.00187074
0.056122
-0.0025119
0.0596427
-0.00335043
-0.00432642
0.0013589
-0.00402024
0.00372635
-0.00567048
0.00615315
-0.00607914
0.00861425
-0.00595333
0.0115019
-0.00570181
0.014716
-0.00558324
0.0178695
-0.00542371
0.0208042
-0.00520818
0.0235271
-0.00502652
0.0260707
-0.00483689
0.028424
-0.00459595
0.0305724
-0.0042729
0.0324969
-0.00387827
0.0341627
-0.00340683
0.0355733
-0.00293181
0.03674
-0.00247279
0.0376267
-0.00196364
0.0382309
-0.00146274
0.0385627
-0.00100546
0.0386285
-0.000597752
0.0384517
-0.000267547
0.0380697
-4.22934e-05
0.0375667
1.544e-05
0.0370765
-0.0001482
0.0367672
-0.000573924
0.0368178
-0.00127603
0.0374592
-0.00233969
0.0389534
-0.00383472
0.0416515
-0.00587855
-0.00860586
0.000794276
-0.00504659
0.00256791
-0.00777863
0.00454092
-0.00867325
0.0066417
-0.00857748
0.00911279
-0.00820255
0.011675
-0.00780184
0.0140209
-0.00734534
0.016071
-0.00688049
0.0178396
-0.00647409
0.0193578
-0.00607856
0.0206218
-0.00561625
0.0216474
-0.00507798
0.0224129
-0.00443928
0.0228531
-0.00365402
0.0229798
-0.0028734
0.0228524
-0.00216579
0.0223323
-0.00126767
0.0211867
-0.00014362
0.0194788
0.00087447
0.0175878
0.00146447
0.0158182
0.0016731
0.0143653
0.00158179
0.0133563
0.00119579
0.0128241
0.000555527
0.0128744
-0.000452302
0.013654
-0.00188367
0.0153022
-0.00381619
0.0178898
-0.00625169
0.0215912
-0.00941066
-0.0135481
0.000525106
-0.00579896
0.0017722
-0.00941971
0.00320719
-0.0106914
0.00475675
-0.0104804
0.00651571
-0.00987448
0.00814403
-0.00908602
0.00945027
-0.00826812
0.0104035
-0.00749644
0.0110359
-0.00681826
0.0113725
-0.00616257
0.0114146
-0.00543113
0.011183
-0.00463744
0.010693
-0.00375358
0.00980453
-0.0025794
0.00808152
-0.000970982
0.00568369
0.000406802
0.00313814
0.00144959
0.0011092
0.00205516
-0.000417082
0.0025696
-0.00168203
0.00289789
-0.00268186
0.00284143
-0.00331468
0.0023834
-0.00348805
0.00153838
-0.0031053
0.000342483
-0.00212442
-0.00126295
-0.000543591
-0.00329382
0.00158759
-0.00577668
0.00435061
-0.00884497
0.00772897
-0.0126207
-0.0173548
0.000386567
-0.00639875
0.00115097
-0.0106645
0.00197005
-0.012032
0.00279411
-0.0114693
0.00356381
-0.0104621
0.00403436
-0.00922244
0.00414478
-0.00804259
0.00387858
-0.00693779
0.0032802
-0.00596665
0.00238119
-0.00503693
0.00112859
-0.0039702
-0.000676277
-0.0026377
-0.00296553
-0.00127951
-0.00527002
-9.74312e-05
-0.00710928
0.00104056
-0.00860993
0.00207624
-0.00998121
0.00298748
-0.0113344
0.00357377
-0.012497
0.00389712
-0.0133504
0.0039163
-0.0138705
0.003527
-0.0140361
0.00271497
-0.0138166
0.00148551
-0.0131729
-0.000133911
-0.0121112
-0.00215647
-0.0106496
-0.00458622
-0.00878149
-0.00747519
-0.00656794
-0.0108897
-0.00427872
-0.0147428
-0.0187958
0.000292561
-0.00685997
0.000530548
-0.0114469
0.000567477
-0.0125344
0.000405717
-0.0113557
-7.86086e-05
-0.00975916
-0.000953245
-0.00804037
-0.00218943
-0.00651786
-0.00368646
-0.00519258
-0.00550968
-0.00392519
-0.00759525
-0.00275135
-0.00973076
-0.00164665
-0.0116752
-0.000514096
-0.0133756
0.000593328
-0.0149021
0.00159666
-0.0163146
0.00261711
-0.01764
0.00356349
-0.0188154
0.00432355
-0.0198554
0.00477411
-0.0206897
0.0048919
-0.0212491
0.00463673
-0.0215175
0.00395726
-0.0214883
0.00284846
-0.0211682
0.00132906
-0.0205671
-0.000570471
-0.0197096
-0.00284834
-0.0186222
-0.00550632
-0.0173591
-0.0085696
-0.0160764
-0.0120042
-0.0150389
-0.0156146
-0.0189499
0.00016372
-0.00710742
-0.000274245
-0.0115236
-0.00126344
-0.0119284
-0.00277287
-0.00987728
-0.00457736
-0.0077629
-0.00666925
-0.00569499
-0.00895264
-0.0039969
-0.0112734
-0.00266379
-0.0134359
-0.00157575
-0.0154064
-0.000605986
-0.0172087
0.000323423
-0.0188029
0.00124292
-0.0202339
0.00218363
-0.0216026
0.00312203
-0.0228717
0.00404131
-0.0240098
0.00485584
-0.0249917
0.00545956
-0.0258159
0.00575292
-0.02645
0.00568151
-0.026863
0.00520631
-0.0270491
0.00430123
-0.0270157
0.0029742
-0.0267806
0.00125421
-0.026372
-0.000817789
-0.0258279
-0.00323002
-0.0251951
-0.00597425
-0.0245579
-0.00903894
-0.0240501
-0.0123438
-0.0238827
-0.0156175
-0.0182908
-0.000140524
-0.00698589
-0.00156036
-0.0105034
-0.00379706
-0.00988905
-0.0065234
-0.00714603
-0.00943938
-0.00470015
-0.0122412
-0.00270571
-0.0147929
-0.00126187
-0.0170727
-0.000214227
-0.0190977
0.00060785
-0.0208734
0.00132149
-0.0224339
0.00203206
-0.0238443
0.00279993
-0.025136
0.0036212
-0.0263298
0.0044613
-0.0274111
0.00526826
-0.0283639
0.00595464
-0.0291783
0.00642091
-0.0298547
0.00657767
-0.0303828
0.0063595
-0.0307495
0.00572462
-0.030955
0.0046601
-0.0310089
0.0031832
-0.030934
0.00133577
-0.0307622
-0.000832063
-0.030538
-0.00329562
-0.0303119
-0.00603901
-0.0301564
-0.00902803
-0.0301776
-0.0121539
-0.0305524
-0.0150787
-0.0172404
-0.000732312
-0.00629507
-0.00336802
-0.00817481
-0.0068009
-0.00648004
-0.010362
-0.00352459
-0.0136898
-0.00126038
-0.0166074
0.000344117
-0.0191221
0.00138916
-0.0212642
0.00206349
-0.0230856
0.00256281
-0.0246613
0.00302857
-0.0260462
0.00354727
-0.0272733
0.00415806
-0.0283661
0.0048464
-0.029346
0.00557516
-0.0302207
0.00627857
-0.0309958
0.00686723
-0.0316734
0.00723777
-0.0322542
0.00729988
-0.0327386
0.00698762
-0.0331214
0.00625358
-0.0334018
0.00508894
-0.0335868
0.00351881
-0.0336929
0.00159425
-0.0337484
-0.000622995
-0.0337956
-0.00309394
-0.0338838
-0.00579397
-0.0340709
-0.008678
-0.0344416
-0.0116154
-0.0351275
-0.0142285
-0.0160406
-0.00155545
-0.00484356
-0.00541392
-0.00457244
-0.00965895
-0.00220495
-0.0135441
0.000433063
-0.0169042
0.00218248
-0.0197112
0.00324418
-0.0220654
0.00384427
-0.0240459
0.00415141
-0.0256935
0.00432218
-0.0270549
0.00450379
-0.0281916
0.00479878
-0.0291636
0.00524676
-0.0300113
0.00581351
-0.0307581
0.00644434
-0.0314247
0.00707065
-0.0320302
0.00760114
-0.0325915
0.00793052
-0.0331173
0.00796021
-0.0336065
0.00761438
-0.0340539
0.00684163
-0.0344513
0.00562971
-0.0347947
0.00400831
-0.0350874
0.0020353
-0.0353467
-0.000213887
-0.0356069
-0.00268294
-0.0359144
-0.0053339
-0.0363225
-0.00811198
-0.0369001
-0.0108736
-0.0377348
-0.0132304
-0.014808
-0.00248058
-0.00244863
-0.00735547
0.000126978
-0.0119605
0.00241481
-0.0157585
0.00428931
-0.0189405
0.00542594
-0.0216416
0.00601322
-0.0238748
0.00615352
-0.0256456
0.00600639
-0.0270041
0.0057727
-0.0280397
0.00563711
-0.0288454
0.00570553
-0.0294987
0.00600405
-0.0300577
0.00648005
-0.030555
0.00705324
-0.031017
0.00764826
-0.0314712
0.00817512
-0.0319456
0.00852872
-0.0324567
0.00859894
-0.0330004
0.00828956
-0.0335637
0.00753995
-0.0341249
0.00632942
-0.0346614
0.0046864
-0.035156
0.00267416
-0.0356038
0.0003802
-0.0360255
-0.00211348
-0.036461
-0.0047491
-0.0369686
-0.00745104
-0.0376223
-0.010061
-0.0384845
-0.0122076
-0.013621
-0.00384214
0.00140766
-0.00893162
0.00516815
-0.0133133
0.00681711
-0.0169724
0.00799385
-0.0200683
0.00857028
-0.0226161
0.00861372
-0.0245959
0.00819241
-0.026015
0.00749177
-0.0269475
0.00677922
-0.0275309
0.00630239
-0.0279097
0.00617221
-0.0281888
0.0063756
-0.028428
0.00681618
-0.0286611
0.00738806
-0.028918
0.00801175
-0.0292379
0.00860652
-0.0296584
0.00906552
-0.0301993
0.00926075
-0.0308538
0.00906929
-0.0315955
0.00841112
-0.0323846
0.00725197
-0.0331718
0.00561052
-0.0339101
0.00355256
-0.0345586
0.00117145
-0.0351125
-0.00141493
-0.0356033
-0.00411178
-0.0360949
-0.00680983
-0.0366839
-0.00931806
-0.037451
-0.0112836
-0.0125503
-0.00498803
0.00648151
-0.00972289
0.00994371
-0.0138744
0.0110152
-0.0173795
0.0115409
-0.0203046
0.0115363
-0.0226018
0.0109536
-0.0241978
0.00983541
-0.0250956
0.0084423
-0.0254238
0.00716714
-0.0254053
0.00635149
-0.0252505
0.00609246
-0.0250978
0.00630424
-0.0249901
0.00679548
-0.0249393
0.00742974
-0.0249762
0.0081467
-0.025158
0.00889188
-0.0255394
0.00955594
-0.0261457
0.00998129
-0.0269662
0.0100089
-0.0279545
0.00952322
-0.0290498
0.0084756
-0.0301721
0.00686511
-0.0312271
0.00474345
-0.0321312
0.00221457
-0.032838
-0.000566729
-0.0333501
-0.00345596
-0.0337279
-0.00628562
-0.0341071
-0.00878883
-0.0346358
-0.0106018
-0.0116717
-0.00522271
0.0118073
-0.00918298
0.0139709
-0.0135558
0.0154394
-0.0168669
0.0148904
-0.0196155
0.0143193
-0.0216237
0.0129961
-0.0227168
0.0109659
-0.0228834
0.00865122
-0.0223589
0.00669126
-0.0215405
0.005589
-0.0207287
0.00534427
-0.02009
0.00573633
-0.0195982
0.00638113
-0.0192137
0.00712898
-0.0189692
0.00799215
-0.018961
0.00897964
-0.0192748
0.0099717
-0.0199439
0.010758
-0.0209517
0.0111298
-0.0222271
0.0109169
-0.0236929
0.0100645
-0.0252366
0.0085364
-0.0267137
0.00635218
-0.0279703
0.00360623
-0.0289068
0.000507793
-0.0294807
-0.00274142
-0.0297123
-0.00591057
-0.0297689
-0.00858567
-0.0298895
-0.0103314
-0.0110859
0.000397521
0.0115374
-0.00795459
0.0223753
-0.0132101
0.0207301
-0.0158589
0.0175682
-0.0185077
0.0169941
-0.0201637
0.0146784
-0.020519
0.0113502
-0.0195738
0.0077399
-0.0177782
0.00493532
-0.0158479
0.00370539
-0.0142323
0.00378284
-0.0131013
0.00466699
-0.0121951
0.0055438
-0.0113738
0.00638343
-0.0106936
0.00739448
-0.0103474
0.00872253
-0.0104753
0.010195
-0.0111193
0.0115036
-0.0122487
0.0123666
-0.0137828
0.0125641
-0.0156027
0.0120027
-0.0175832
0.0106399
-0.019541
0.00843743
-0.0212545
0.00545099
-0.0225209
0.00190874
-0.0232671
-0.00185758
-0.0234399
-0.00559734
-0.0231841
-0.00869808
-0.0227661
-0.0106027
-0.0110106
0.20686
0.0156051
0.205978
0.0179809
0.205023
0.0199186
0.203986
0.0219266
0.202856
0.0240329
0.20163
0.0262492
0.2003
0.0285982
0.198857
0.0310872
0.197288
0.0337347
0.195584
0.0365849
0.193728
0.0396662
0.191715
0.0430092
0.189539
0.0466661
0.187176
0.0506965
0.184602
0.0551756
0.181774
0.060221
0.178681
0.0659258
0.175299
0.0724556
0.171563
0.080066
0.167456
0.0889928
0.162943
0.099617
0.157964
0.112544
0.15255
0.128479
0.14683
0.148487
0.141162
0.174094
0.13681
0.206867
0.136735
0.246642
0.149103
0.288472
0.180474
0.309919
0.292019
0.33899
0.211902
0.0164037
0.211048
0.0188568
0.210127
0.0208597
0.209127
0.0229457
0.20804
0.0251371
0.206862
0.0274464
0.205584
0.0298973
0.204202
0.0324933
0.202702
0.035262
0.201079
0.0382387
0.199332
0.0414469
0.197447
0.0449301
0.195407
0.0487423
0.193196
0.0529476
0.19079
0.0576238
0.188181
0.0628732
0.185363
0.0687886
0.182305
0.0755585
0.178994
0.0834192
0.17545
0.0925755
0.171666
0.103434
0.167723
0.116511
0.163838
0.132378
0.160358
0.151951
0.158301
0.176072
0.160112
0.204898
0.170343
0.236162
0.197484
0.261014
0.243448
0.263658
0.251973
0.283286
0.217073
0.0171756
0.216256
0.0196963
0.215378
0.0217601
0.21442
0.0239216
0.213382
0.0261917
0.21226
0.0285872
0.211051
0.0311276
0.20975
0.0338179
0.208348
0.0366909
0.206843
0.0397762
0.205225
0.0431011
0.203479
0.0467133
0.201591
0.0506686
0.199567
0.0550124
0.197396
0.0598373
0.195073
0.0652411
0.192592
0.0713144
0.18995
0.0782439
0.18718
0.0862285
0.18432
0.0954695
0.181451
0.106331
0.178809
0.11917
0.176701
0.134487
0.175824
0.152786
0.177773
0.174018
0.185182
0.197313
0.201755
0.21933
0.230047
0.232411
0.263253
0.230163
0.215728
0.29929
0.222373
0.0179169
0.221596
0.0204972
0.220763
0.0226162
0.219858
0.0248431
0.218884
0.0271825
0.217837
0.0296515
0.216718
0.0322662
0.215518
0.0350413
0.214227
0.0380085
0.212842
0.0411936
0.211359
0.0446239
0.209778
0.0483348
0.208094
0.0523905
0.206302
0.0568452
0.204394
0.0617877
0.202398
0.0672827
0.200326
0.0734315
0.198185
0.0804245
0.196044
0.0884042
0.193988
0.0975535
0.192211
0.108127
0.190974
0.120414
0.190766
0.134674
0.192636
0.150848
0.198085
0.168447
0.209193
0.186018
0.227998
0.20027
0.253697
0.206423
0.28186
0.20173
0.185799
0.311589
0.227806
0.018621
0.227077
0.0212535
0.226299
0.0234166
0.225463
0.0256941
0.224569
0.0280919
0.223613
0.0306235
0.22259
0.0333077
0.22149
0.0361624
0.220312
0.0392112
0.219065
0.0424726
0.217764
0.0459703
0.216389
0.0497545
0.214927
0.0538878
0.213389
0.0584206
0.211797
0.0634205
0.210189
0.0689374
0.208573
0.0750919
0.206998
0.0820341
0.205567
0.0898622
0.204421
0.0987178
0.203768
0.108786
0.203967
0.120202
0.205719
0.132879
0.20995
0.146531
0.217822
0.16044
0.230763
0.172887
0.249339
0.181453
0.271721
0.18378
0.294513
0.178692
0.164338
0.315786
0.23338
0.0192767
0.232715
0.0219527
0.232003
0.0241497
0.231241
0.0264665
0.230432
0.0289146
0.229565
0.0315043
0.22864
0.0342483
0.22766
0.0371614
0.226629
0.0402628
0.225561
0.0435722
0.224462
0.0471179
0.223295
0.0509625
0.222074
0.0551366
0.220836
0.0596893
0.219603
0.0646906
0.218416
0.070174
0.217306
0.0762471
0.21635
0.0830161
0.215679
0.0905502
0.215441
0.0989622
0.215903
0.108314
0.217566
0.118508
0.221012
0.129371
0.226934
0.140509
0.23626
0.150969
0.249637
0.159321
0.266644
0.164224
0.285528
0.164661
0.303936
0.160063
0.147612
0.320484
0.239095
0.0198733
0.238509
0.0225849
0.237866
0.024812
0.237175
0.0271579
0.236457
0.0296436
0.235697
0.0322766
0.2349
0.0350585
0.234069
0.0380071
0.233204
0.0411438
0.232325
0.0444859
0.231431
0.0480623
0.230499
0.0519254
0.229559
0.0560958
0.228639
0.0606314
0.227786
0.0655755
0.227065
0.0709462
0.226499
0.07685
0.226187
0.0833404
0.226266
0.0904745
0.226912
0.098307
0.228499
0.1067
0.231431
0.115527
0.236124
0.124599
0.243194
0.133325
0.253172
0.140842
0.266021
0.146291
0.281044
0.148997
0.297019
0.148474
0.312467
0.144415
0.133728
0.326187
0.244952
0.0204059
0.244449
0.0231436
0.243887
0.0253938
0.243283
0.0277575
0.242673
0.0302625
0.242042
0.0329167
0.241387
0.0357233
0.240706
0.0386998
0.24001
0.0418572
0.239341
0.0452018
0.238678
0.0487758
0.238003
0.0526241
0.237361
0.0567552
0.236786
0.0612201
0.236354
0.0660377
0.236109
0.0712399
0.23609
0.076893
0.236416
0.0830119
0.237216
0.089663
0.238738
0.0967591
0.241312
0.104084
0.245212
0.111562
0.250831
0.118888
0.258572
0.125463
0.268522
0.130744
0.280378
0.134263
0.293568
0.13562
0.307282
0.134568
0.320536
0.130978
0.121868
0.332244
0.250963
0.02087
0.250536
0.0236192
0.250071
0.0258786
0.249582
0.0282472
0.249092
0.0307598
0.248587
0.0334277
0.248071
0.0362458
0.247552
0.0392244
0.247059
0.0423719
0.24662
0.0456959
0.246194
0.0492455
0.245789
0.0530442
0.245469
0.0570911
0.245269
0.0614338
0.245256
0.0660864
0.245482
0.071063
0.246017
0.0763764
0.246954
0.0820637
0.248449
0.0881417
0.25076
0.0944071
0.254119
0.100667
0.258779
0.106824
0.265021
0.112546
0.272954
0.117405
0.282456
0.121095
0.293246
0.12331
0.304891
0.123802
0.316811
0.122474
0.328337
0.119283
0.111497
0.338566
0.257133
0.0212527
0.256788
0.0239996
0.256424
0.026259
0.256053
0.0286231
0.255688
0.0311306
0.255325
0.0337945
0.254973
0.0365991
0.254641
0.0395549
0.254361
0.0426736
0.254149
0.0459598
0.253973
0.0494536
0.253861
0.0531658
0.253871
0.0570933
0.254044
0.0612748
0.254447
0.065719
0.255162
0.0703978
0.256227
0.0753224
0.257728
0.0805356
0.259865
0.0859634
0.262842
0.0913741
0.266841
0.0965967
0.272047
0.101529
0.278565
0.10592
0.286347
0.109497
0.295259
0.112042
0.305069
0.113347
0.315428
0.113282
0.325915
0.111825
0.336071
0.108972
0.102266
0.345168
0.263448
0.0215482
0.263199
0.0242785
0.262952
0.0265211
0.262708
0.0288707
0.262483
0.0313586
0.262282
0.0339966
0.262104
0.0367749
0.261964
0.0396933
0.2619
0.0427596
0.26192
0.0459826
0.262008
0.0493893
0.262199
0.0529852
0.262545
0.056757
0.26309
0.060735
0.263915
0.0649223
0.265097
0.0692638
0.266646
0.0737768
0.268672
0.0784672
0.271381
0.0831965
0.274925
0.0877607
0.279403
0.092036
0.284898
0.0959372
0.29142
0.0992866
0.298899
0.101892
0.307214
0.10359
0.316156
0.104258
0.325451
0.103836
0.33479
0.102336
0.343847
0.0997697
0.0939485
0.352039
0.269918
0.0217481
0.269784
0.0244441
0.269671
0.0266494
0.269566
0.0289749
0.269483
0.031439
0.269439
0.0340367
0.269445
0.0367657
0.269513
0.0396255
0.26967
0.0426212
0.269924
0.0457568
0.270283
0.0490475
0.270784
0.052495
0.271474
0.0560767
0.272389
0.0598242
0.27361
0.0637285
0.275212
0.0677073
0.277228
0.0717632
0.279757
0.0758871
0.282958
0.0799219
0.286925
0.0837093
0.291685
0.0871829
0.297265
0.0902527
0.303656
0.0927804
0.310788
0.0946339
0.318537
0.0957067
0.326727
0.0959292
0.335141
0.0952794
0.343549
0.0937868
0.351715
0.0914671
0.0863789
0.359166
0.276553
0.0218348
0.276561
0.0244831
0.276575
0.0266482
0.2766
0.0289366
0.276675
0.0313565
0.276807
0.0338966
0.277004
0.03656
0.277283
0.0393432
0.277663
0.0422494
0.278162
0.0452732
0.278795
0.0484241
0.279598
0.051701
0.280619
0.0550677
0.281882
0.0585644
0.283487
0.0621522
0.285538
0.065716
0.288012
0.0692912
0.290957
0.0728642
0.294513
0.0762655
0.298732
0.0793912
0.303619
0.0821929
0.309181
0.0845801
0.315388
0.0864557
0.322165
0.087732
0.329399
0.0883432
0.33694
0.0882538
0.344621
0.0874637
0.352266
0.0860079
0.359701
0.0839024
0.0794286
0.366538
0.283355
0.0218011
0.283505
0.0243917
0.283655
0.0265112
0.283825
0.0287447
0.284068
0.0311015
0.284387
0.0335667
0.284782
0.0361516
0.285265
0.0388479
0.285874
0.0416372
0.286629
0.0445225
0.287529
0.047524
0.288629
0.0506098
0.289979
0.0537382
0.291597
0.0569403
0.293625
0.0601498
0.2961
0.0633084
0.29892
0.0664576
0.302159
0.069519
0.305945
0.0723586
0.310306
0.0749187
0.315238
0.0771492
0.320725
0.0789787
0.326722
0.0803391
0.333156
0.081174
0.339926
0.0814457
0.346911
0.0811399
0.353977
0.0802682
0.360991
0.0788663
0.367822
0.0769487
0.0729966
0.374145
0.290338
0.0216407
0.29061
0.0241622
0.290904
0.0262279
0.291241
0.0283909
0.291666
0.0306654
0.292173
0.0330443
0.29277
0.0355337
0.293473
0.0381223
0.294307
0.0407856
0.295307
0.0435172
0.29648
0.0463396
0.297899
0.0492049
0.299621
0.0520612
0.301635
0.0549324
0.30402
0.0577855
0.306755
0.0606036
0.309803
0.0633534
0.313273
0.0659339
0.317228
0.068282
0.321673
0.0703571
0.326597
0.0721088
0.331973
0.0734851
0.337752
0.07444
0.343865
0.0749386
0.350224
0.0749618
0.35673
0.0745083
0.363278
0.0735955
0.369765
0.0722573
0.376089
0.0705061
0.0670018
0.381979
0.297494
0.0213496
0.297883
0.0237878
0.298335
0.0257796
0.298858
0.0278598
0.299472
0.0300408
0.300175
0.0323233
0.300972
0.0347071
0.301894
0.0371631
0.302952
0.0396899
0.304203
0.0422616
0.305711
0.04485
0.307505
0.0474472
0.309576
0.050041
0.311885
0.052633
0.314482
0.0551843
0.317397
0.0576586
0.320654
0.0600056
0.32431
0.0621629
0.328382
0.0640924
0.332868
0.0657538
0.33775
0.0671081
0.342998
0.0681187
0.348562
0.0687556
0.354379
0.0689993
0.360376
0.0688424
0.366471
0.0682914
0.37258
0.0673657
0.378622
0.0660965
0.38452
0.0644944
0.0613786
0.390041
0.304822
0.0209162
0.305346
0.0232625
0.305962
0.0251587
0.306677
0.0271419
0.307482
0.0292301
0.308384
0.0313994
0.309394
0.0336583
0.310528
0.0359779
0.311832
0.0383328
0.313416
0.0406979
0.315303
0.043047
0.317414
0.0454037
0.319697
0.047774
0.32218
0.05011
0.324954
0.0523541
0.328055
0.0544823
0.331495
0.0564657
0.335287
0.0582595
0.339435
0.0598286
0.34393
0.0611412
0.34875
0.0621686
0.353863
0.0628861
0.359223
0.0632755
0.364774
0.0633276
0.370454
0.0630425
0.376195
0.0624308
0.381931
0.0615125
0.387597
0.0603152
0.393133
0.0588481
0.0560729
0.39834
0.31233
0.0203343
0.313011
0.022567
0.313784
0.0243714
0.314678
0.0262462
0.315698
0.0282179
0.316806
0.0302666
0.318042
0.0323797
0.319458
0.034531
0.32108
0.0366873
0.322994
0.0388391
0.325148
0.040996
0.327427
0.0431629
0.329853
0.0452997
0.33252
0.0473526
0.335484
0.0492966
0.338755
0.0511157
0.342336
0.0527803
0.346226
0.0542575
0.35042
0.0555188
0.354903
0.05654
0.359652
0.0573006
0.364633
0.0577851
0.369805
0.0579837
0.37512
0.0578938
0.380523
0.0575203
0.385961
0.0568759
0.391379
0.0559796
0.396727
0.0548558
0.401954
0.0535125
0.0510388
0.406892
0.320016
0.019605
0.320858
0.0216959
0.321791
0.0234068
0.322871
0.025173
0.324152
0.0269994
0.325528
0.028898
0.327029
0.0308465
0.328753
0.032819
0.330672
0.0347979
0.332792
0.036775
0.33507
0.0387544
0.337475
0.0407097
0.340081
0.0425924
0.342947
0.0443773
0.346088
0.0460506
0.349506
0.0475922
0.353198
0.0489774
0.357161
0.0501812
0.36138
0.0511818
0.36584
0.0519614
0.370515
0.0525063
0.375373
0.0528074
0.380376
0.0528607
0.385483
0.0526682
0.390649
0.0522375
0.395828
0.0515816
0.400976
0.0507185
0.406053
0.0496695
0.411019
0.0484412
0.0462371
0.415725
0.327901
0.0187215
0.328885
0.0206603
0.330033
0.0222395
0.331372
0.023873
0.332933
0.0255578
0.334613
0.0272979
0.336389
0.0290815
0.338327
0.0308952
0.340407
0.0327199
0.342648
0.0345242
0.345048
0.0363011
0.347625
0.0380262
0.350432
0.0396674
0.353484
0.0412105
0.356782
0.0426388
0.360326
0.0439337
0.364113
0.0450756
0.368131
0.0460455
0.372366
0.0468273