/*--------------------------------*- C++ -*----------------------------------*\
| =========                 |                                                 |
| \\      /  F ield         | OpenFOAM: The Open Source CFD Toolbox           |
|  \\    /   O peration     | Version:  5.x                                   |
|   \\  /    A nd           | Web:      www.OpenFOAM.org                      |
|    \\/     M anipulation  |                                                 |
\*---------------------------------------------------------------------------*/
FoamFile
{
    version     2.0;
    format      ascii;
    class       surfaceVectorField;
    location    "1.6";
    object      Uf;
}
// * * * * * * * * * * * * * * * * * * * * * * * * * * * * * * * * * * * * * //

dimensions      [0 1 -1 0 0 0 0];

internalField   nonuniform List<vector> 
5457
(
(9.91485 1.25221e-19 0.0219089)
(9.97027 1.5155e-22 0.0353874)
(9.82414 0 0.0267233)
(9.93397 0 0.0389299)
(9.72614 -7.20658e-20 0.030424)
(9.87594 0 0.043733)
(9.61795 -1.43826e-19 0.0343096)
(9.80178 -1.40066e-19 0.0502006)
(9.49959 -1.3643e-20 0.0382951)
(9.71626 -1.19767e-21 0.0570582)
(9.37138 1.56454e-19 0.0423972)
(9.62035 5.72215e-20 0.0641792)
(9.23317 1.38665e-19 0.0467462)
(9.51359 2.13535e-20 0.0717954)
(9.08447 8.39147e-20 0.0514678)
(9.39545 7.54836e-22 0.0801239)
(8.92459 -3.76935e-21 0.0566643)
(9.26532 1.27217e-21 0.0893318)
(8.75269 -9.2492e-20 0.0624374)
(9.12253 -4.49172e-20 0.0995656)
(8.56777 5.18261e-20 0.0689121)
(8.96631 -2.28123e-19 0.11101)
(8.36859 8.2011e-20 0.0762323)
(8.79552 9.40354e-20 0.123906)
(8.15375 -1.93071e-20 0.0845536)
(8.60892 6.09396e-19 0.138499)
(7.92165 -6.56027e-21 0.0940541)
(8.40509 -3.90913e-19 0.155057)
(7.6705 0 0.104945)
(8.18238 0 0.173904)
(7.39827 2.56198e-19 0.117472)
(7.93892 0 0.195413)
(7.1027 2.52917e-19 0.131917)
(7.67259 2.51859e-19 0.220003)
(6.7813 -2.7604e-19 0.148601)
(7.38104 1.27758e-19 0.248137)
(6.43136 -2.72056e-19 0.167891)
(7.06165 -2.76559e-19 0.280313)
(6.04998 0 0.190207)
(6.71156 1.10329e-18 0.317079)
(5.63406 5.22661e-19 0.21601)
(6.32767 -1.14241e-18 0.358999)
(5.18043 5.23111e-19 0.245794)
(5.90665 6.67375e-19 0.406598)
(4.68589 -3.72033e-19 0.280092)
(5.44497 2.64438e-18 0.460314)
(4.14738 1.34499e-18 0.319457)
(4.93894 -6.70181e-19 0.520423)
(3.56201 3.17488e-19 0.364358)
(4.38465 -1.22879e-18 0.586906)
(2.92732 -1.34282e-18 0.414846)
(3.77789 -2.53387e-18 0.659099)
(2.24152 -2.18226e-18 0.469286)
(3.11345 -6.85611e-18 0.734803)
(1.50485 -3.97164e-18 0.519335)
(2.38419 5.09709e-18 0.807576)
(0.717044 -3.21796e-18 0.506846)
(1.55305 -1.11468e-17 0.862739)
(0.810614 6.75334e-18 0.826116)
(10.0063 -1.24788e-19 0.0417566)
(10.0015 -1.27279e-19 0.0327035)
(9.98388 0 0.0525495)
(9.99459 3.25529e-20 0.0485103)
(9.94708 -7.10202e-20 0.0614988)
(9.9694 2.34726e-19 0.060081)
(9.89766 5.41793e-21 0.0712889)
(9.92822 2.7662e-19 0.0730433)
(9.83562 7.08504e-20 0.0817127)
(9.87465 7.15535e-20 0.0868794)
(9.76113 -7.85812e-20 0.0927597)
(9.80976 7.33892e-20 0.101374)
(9.67417 -1.16938e-19 0.104705)
(9.73337 -7.80106e-20 0.116879)
(9.57442 -8.1877e-20 0.117839)
(9.64508 3.90506e-20 0.133791)
(9.4613 -4.07414e-20 0.132415)
(9.54438 1.23903e-19 0.152452)
(9.33407 -1.83917e-19 0.148688)
(9.43074 -1.69603e-19 0.173193)
(9.19178 -1.80015e-19 0.16696)
(9.30346 -1.80609e-19 0.196376)
(9.03336 6.30714e-19 0.187583)
(9.16153 -2.68599e-21 0.222429)
(8.85755 2.20002e-19 0.210948)
(9.00388 6.4603e-19 0.251848)
(8.66283 -3.7751e-19 0.237509)
(8.82923 -3.96749e-19 0.285204)
(8.44747 0 0.267788)
(8.6361 8.38899e-19 0.323157)
(8.2095 0 0.302385)
(8.42276 -9.14859e-19 0.366467)
(7.94669 1.24542e-19 0.341968)
(8.18728 0 0.416006)
(7.65652 1.20448e-19 0.387273)
(7.92745 1.21776e-19 0.472746)
(7.33621 1.121e-18 0.439108)
(7.64073 2.48099e-19 0.537758)
(6.98265 -7.4289e-20 0.498345)
(7.32432 8.42579e-19 0.612244)
(6.59243 -9.69482e-19 0.565865)
(6.97509 -1.41513e-18 0.697502)
(6.1618 2.8164e-18 0.642495)
(6.58944 2.48964e-18 0.794848)
(5.68664 2.30108e-18 0.728955)
(6.16326 2.6754e-18 0.905554)
(5.16237 -3.2454e-18 0.825802)
(5.69177 -3.47407e-18 1.03078)
(4.58354 -4.09304e-18 0.933304)
(5.16916 -3.59673e-18 1.17154)
(3.94311 -8.06839e-18 1.05118)
(4.58779 -4.56949e-19 1.32858)
(3.23001 4.23043e-19 1.17863)
(3.93654 -6.82794e-18 1.5025)
(2.42157 -1.93771e-18 1.31693)
(3.1977 5.62935e-18 1.69489)
(1.45728 -7.35279e-19 1.48808)
(2.32247 -8.43849e-18 1.91721)
(1.38395 8.08528e-18 2.2178)
(9.99943 3.31901e-20 0.0425123)
(9.99935 -5.04575e-19 0.0329512)
(9.98095 2.71721e-19 0.0592393)
(9.99 3.2559e-20 0.0564864)
(9.94796 5.83355e-19 0.0743788)
(9.96597 -3.2766e-20 0.0748642)
(9.90348 3.38552e-19 0.0906414)
(9.92779 7.0063e-20 0.0937612)
(9.84786 7.41343e-20 0.108026)
(9.87786 1.42586e-19 0.113793)
(9.78109 7.09807e-20 0.126583)
(9.81725 -2.21117e-19 0.134911)
(9.70312 8.02629e-20 0.146687)
(9.746 -6.8689e-22 0.157515)
(9.61368 2.46476e-19 0.168761)
(9.6638 7.94172e-20 0.182128)
(9.51234 -1.04473e-20 0.193212)
(9.57021 3.28402e-19 0.209233)
(9.39849 -1.6651e-19 0.220469)
(9.46485 -1.69654e-19 0.239311)
(9.27134 0 0.251016)
(9.34717 1.74979e-19 0.2729)
(9.12995 2.42573e-20 0.285414)
(9.21633 -3.66373e-19 0.310608)
(8.97322 1.07179e-20 0.324313)
(9.07143 1.20739e-18 0.35314)
(8.79988 8.41261e-19 0.368472)
(8.91143 -7.43165e-19 0.401322)
(8.60844 -1.06135e-19 0.418769)
(8.73512 1.66347e-18 0.456109)
(8.3972 -8.99405e-19 0.476217)
(8.54111 -1.70597e-18 0.518614)
(8.16422 -5.95226e-22 0.541969)
(8.3278 0 0.590127)
(7.90726 2.51522e-19 0.617306)
(8.09344 -1.87151e-18 0.672122)
(7.62379 -2.01961e-20 0.703662)
(7.83586 2.16292e-18 0.766241)
(7.31091 -5.33716e-19 0.802654)
(7.55265 -2.57863e-19 0.87436)
(6.96525 2.10006e-18 0.91602)
(7.2411 -5.33258e-19 0.998645)
(6.58284 2.35439e-18 1.04554)
(6.89789 2.33341e-18 1.14146)
(6.15892 -3.17108e-18 1.19301)
(6.51898 4.96766e-20 1.30535)
(5.68752 -3.82834e-18 1.36027)
(6.09924 -2.56621e-18 1.49309)
(5.16068 5.88543e-20 1.54944)
(5.63191 6.33654e-18 1.70793)
(4.56677 7.17593e-19 1.7636)
(5.10747 -4.54096e-18 1.95417)
(3.88725 -1.58764e-18 2.00881)
(4.51203 9.74539e-18 2.23872)
(3.08755 -7.68954e-19 2.29498)
(3.8216 -4.12109e-20 2.57652)
(2.14129 8.84616e-19 2.70704)
(3.03363 7.9183e-19 2.97113)
(1.93322 -1.31294e-17 3.68209)
(9.99491 -4.94794e-19 0.0472848)
(9.99799 5.32687e-19 0.0350794)
(9.97651 -2.73397e-19 0.0713102)
(9.9866 -3.22536e-20 0.0644333)
(9.94425 -5.43898e-19 0.0933862)
(9.96218 -2.67561e-19 0.0893428)
(9.9006 -1.24432e-19 0.116076)
(9.92483 -2.76234e-19 0.11412)
(9.84628 -1.60008e-19 0.139923)
(9.87612 5.68625e-19 0.140118)
(9.7813 -2.8846e-19 0.165227)
(9.81695 -4.4023e-19 0.1676)
(9.70562 0 0.192494)
(9.74753 -3.02184e-19 0.197019)
(9.61907 1.66033e-19 0.222286)
(9.66766 6.26667e-19 0.228984)
(9.52134 1.59939e-19 0.255156)
(9.57699 1.65988e-19 0.264091)
(9.41198 1.78202e-19 0.291692)
(9.47521 -5.00085e-19 0.302942)
(9.29041 -2.0114e-19 0.332559)
(9.36189 -1.71599e-19 0.346222)
(9.15586 8.4477e-19 0.378511)
(9.23639 3.57221e-19 0.39471)
(9.00746 4.19506e-19 0.430417)
(9.09799 3.50359e-19 0.449284)
(8.84423 1.20435e-19 0.48929)
(8.94587 4.85022e-20 0.510966)
(8.66504 6.06049e-21 0.556308)
(8.77912 -7.82771e-19 0.580947)
(8.46861 -7.77955e-19 0.632843)
(8.59669 3.72323e-20 0.660614)
(8.25348 -1.90126e-18 0.720496)
(8.39741 0 0.751595)
(8.01795 1.03876e-19 0.821079)
(8.18005 -1.98408e-18 0.855807)
(7.76005 1.88746e-18 0.936636)
(7.94305 1.912e-18 0.975415)
(7.47747 -2.61735e-19 1.06956)
(7.68454 2.48237e-19 1.11289)
(7.1675 -2.56472e-19 1.2226)
(7.40252 -3.86188e-18 1.2712)
(6.82673 0 1.39884)
(7.09452 8.4873e-18 1.45384)
(6.45076 6.15679e-19 1.60177)
(6.75726 -4.9226e-18 1.66482)
(6.03365 7.65877e-18 1.8355)
(6.38645 5.22534e-18 1.90893)
(5.56704 1.68032e-18 2.10533)
(5.97614 -8.50096e-18 2.19225)
(5.03855 4.48373e-18 2.41923)
(5.51774 3.31575e-18 2.52315)
(4.43034 1.12955e-17 2.79258)
(5.00029 2.10101e-17 2.91403)
(3.70204 1.65767e-18 3.23435)
(4.38988 8.91414e-19 3.39619)
(2.91887 -1.40731e-17 3.86362)
(3.80847 -2.01448e-17 3.89859)
(2.56971 -1.47629e-18 5.0018)
(9.99251 9.84433e-19 0.0527984)
(9.99726 5.3647e-19 0.038206)
(9.97353 -3.15501e-20 0.0827043)
(9.98461 -3.2264e-20 0.0726333)
(9.94182 0 0.110625)
(9.95988 0 0.103584)
(9.89897 4.34413e-19 0.138956)
(9.92327 4.08856e-19 0.134123)
(9.84577 2.68165e-19 0.168683)
(9.87576 8.47211e-19 0.165923)
(9.78229 -4.51259e-19 0.200322)
(9.81808 -4.38027e-19 0.199561)
(9.70853 3.42344e-19 0.234459)
(9.75051 2.9755e-19 0.235566)
(9.62435 6.18047e-19 0.271742)
(9.6729 3.1637e-19 0.274612)
(9.5295 -5.0651e-19 0.312828)
(9.585 -1.57491e-19 0.317408)
(9.42359 -8.44158e-19 0.358418)
(9.48652 -3.3439e-19 0.364668)
(9.30615 3.96196e-19 0.409308)
(9.37711 -1.7515e-19 0.417189)
(9.17659 -1.37228e-19 0.4664)
(9.25625 7.24099e-19 0.475879)
(9.03425 -2.651e-20 0.530728)
(9.1234 -6.509e-19 0.541769)
(8.87835 -8.68483e-19 0.603492)
(8.97793 6.37255e-19 0.616039)
(8.70807 -7.38794e-19 0.686087)
(8.81916 -1.60806e-18 0.700063)
(8.52247 8.15096e-19 0.780147)
(8.64634 8.28656e-19 0.795442)
(8.32056 -1.15144e-19 0.887609)
(8.45867 0 0.904056)
(8.10121 -1.13813e-19 1.01074)
(8.2553 -1.13351e-19 1.02815)
(7.86305 2.4738e-19 1.15209)
(8.03537 -2.317e-19 1.17037)
(7.60448 -3.40724e-18 1.31468)
(7.79763 4.06689e-18 1.33368)
(7.32364 5.03282e-18 1.50218)
(7.54079 -7.98121e-18 1.52172)
(7.01814 3.41129e-18 1.71895)
(7.2634 8.47054e-18 1.73894)
(6.68481 -2.15106e-19 1.97017)
(6.96347 -1.48136e-19 1.99071)
(6.31914 -1.09612e-17 2.26245)
(6.63833 2.97717e-19 2.28374)
(5.9147 -6.8526e-18 2.60447)
(6.2843 -1.59346e-17 2.62674)
(5.4621 1.97962e-17 3.00809)
(5.89588 9.62457e-18 3.03157)
(4.95213 1.07904e-17 3.49569)
(5.47094 2.69735e-18 3.51192)
(4.33382 -1.98164e-17 4.06518)
(4.95121 8.97441e-18 4.12233)
(3.7774 -6.21958e-18 4.83846)
(4.65543 -1.87643e-17 4.64692)
(3.29702 1.20951e-17 6.07899)
(9.99118 -4.91607e-19 0.0587444)
(9.99685 -5.32647e-19 0.0418854)
(9.97174 0 0.0940091)
(9.9835 3.19423e-20 0.0810325)
(9.94068 4.17655e-19 0.127609)
(9.9588 -5.26349e-19 0.117544)
(9.89888 8.308e-19 0.16165)
(9.92304 -5.41212e-19 0.153656)
(9.84706 1.15215e-19 0.197319)
(9.87691 -2.78724e-19 0.191082)
(9.78538 3.25308e-19 0.235285)
(9.82101 -2.92188e-19 0.230655)
(9.71383 2.72016e-19 0.276194)
(9.75559 8.99363e-19 0.273)
(9.63233 -4.68352e-19 0.320773)
(9.68057 -6.16854e-19 0.318856)
(9.54066 1.14141e-20 0.369781)
(9.59576 -1.60567e-19 0.369025)
(9.4385 3.37785e-19 0.424025)
(9.50095 8.24992e-19 0.424324)
(9.32548 1.68698e-19 0.484413)
(9.39585 -1.63784e-19 0.485646)
(9.20113 1.86357e-19 0.551973)
(9.28006 7.04013e-19 0.554006)
(9.06494 3.5128e-20 0.627881)
(9.15316 -2.35302e-18 0.630553)
(8.91635 -1.40213e-19 0.713492)
(9.01471 -2.55565e-19 0.716599)
(8.75475 0 0.810381)
(8.86421 1.53651e-18 0.813664)
(8.57953 0 0.920387)
(8.70118 0 0.923517)
(8.39003 0 1.04568)
(8.52511 0 1.04823)
(8.18559 -2.32824e-19 1.18889)
(8.33552 1.83255e-18 1.19028)
(7.96551 3.64673e-18 1.35302)
(8.13205 1.58135e-18 1.35264)
(7.72892 -6.65904e-19 1.54164)
(7.91419 3.87195e-18 1.53876)
(7.47478 -4.32987e-18 1.7591)
(7.68136 -7.65129e-18 1.75279)
(7.20191 4.80077e-18 2.01081)
(7.43313 0 1.99988)
(6.90879 3.93407e-19 2.30342)
(7.16897 7.36272e-19 2.28647)
(6.59328 -4.81983e-18 2.64544)
(6.88824 8.4605e-18 2.62069)
(6.25244 5.98434e-19 3.04812)
(6.59029 -7.76087e-18 3.01301)
(5.88162 -7.29438e-18 3.5253)
(6.27327 1.13889e-18 3.4777)
(5.48507 8.10095e-19 4.10285)
(5.94922 -8.97072e-18 4.02449)
(4.996 1.07477e-17 4.76051)
(5.51691 1.72498e-17 4.74153)
(4.66651 2.15859e-18 5.59189)
(5.53427 -7.65794e-18 5.2125)
(4.07563 9.21954e-19 6.88814)
(9.99049 2.01958e-21 0.0649462)
(9.99666 -1.02156e-18 0.0458499)
(9.97091 -5.0676e-19 0.105224)
(9.98304 -9.83964e-19 0.0895008)
(9.94061 -1.48596e-18 0.144214)
(9.95864 -1.33256e-19 0.131175)
(9.90007 -1.64596e-18 0.183751)
(9.92391 -8.14624e-19 0.172622)
(9.84988 -6.86654e-19 0.225102)
(9.87935 -7.00847e-19 0.215478)
(9.79028 3.0509e-19 0.269079)
(9.82548 -2.87644e-19 0.260744)
(9.72127 -1.84028e-20 0.316418)
(9.76252 2.97138e-19 0.309162)
(9.64279 -3.00564e-19 0.367921)
(9.69043 -3.0696e-19 0.361534)
(9.55469 6.71103e-19 0.42444)
(9.6091 -3.13211e-19 0.418731)
(9.45676 3.05883e-19 0.486879)
(9.5184 8.56869e-21 0.481651)
(9.3487 3.8659e-19 0.556241)
(9.41812 -3.3923e-19 0.55128)
(9.23017 -1.88789e-18 0.63366)
(9.30797 1.04811e-18 0.628728)
(9.1008 -2.61006e-18 0.720419)
(9.18767 -2.36006e-18 0.71524)
(8.96019 1.45064e-18 0.817995)
(9.05692 7.11068e-20 0.812229)
(8.80797 1.51288e-18 0.928103)
(8.91542 1.53764e-18 0.921327)
(8.64376 0 1.05274)
(8.7629 0 1.04444)
(8.46725 1.85941e-18 1.19427)
(8.59917 0 1.18378)
(8.27817 3.64337e-18 1.3555)
(8.42407 5.07842e-18 1.34199)
(8.07635 1.84223e-18 1.53984)
(8.23766 -5.0446e-18 1.52225)
(7.86166 -3.25567e-18 1.75124)
(8.04005 3.66603e-18 1.72837)
(7.63397 -3.23737e-18 1.9946)
(7.83148 -3.26967e-18 1.96488)
(7.39334 -4.03768e-18 2.27603)
(7.61251 0 2.23741)
(7.14004 8.80739e-18 2.6032)
(7.38401 -1.15756e-17 2.55304)
(6.87455 5.48674e-18 2.98581)
(7.14749 1.96007e-17 2.9208)
(6.59801 -7.21399e-18 3.43636)
(6.90549 -1.53317e-17 3.35189)
(6.31057 -5.17723e-19 3.9682)
(6.65891 7.62612e-18 3.86185)
(6.03089 7.05686e-18 4.60846)
(6.43809 -7.78483e-18 4.45098)
(5.67649 3.52054e-19 5.31663)
(6.08389 2.81952e-17 5.25105)
(5.53299 -8.07441e-18 6.13539)
(6.39724 -3.0366e-17 5.62036)
(4.85822 1.26072e-17 7.44629)
(9.99023 -2.00729e-18 0.071238)
(9.99663 1.04341e-18 0.0499199)
(9.97079 -5.91863e-19 0.116249)
(9.98302 -6.68018e-20 0.0979155)
(9.9414 5.24167e-19 0.160328)
(9.95917 2.63116e-19 0.144417)
(9.90232 1.33376e-19 0.205118)
(9.92566 8.07085e-19 0.190928)
(9.85403 -2.93451e-19 0.251914)
(9.8829 0 0.238984)
(9.79679 -2.84485e-19 0.301643)
(9.83132 2.79688e-19 0.28969)
(9.73064 -2.82605e-21 0.355128)
(9.77112 -2.96124e-19 0.343892)
(9.65555 -3.1968e-19 0.413235)
(9.70231 1.20706e-18 0.402453)
(9.57146 -9.70597e-19 0.476882)
(9.62486 -1.24432e-18 0.466294)
(9.47823 -6.43274e-19 0.547051)
(9.53872 -1.50942e-20 0.536381)
(9.37568 3.46196e-19 0.624833)
(9.44375 -3.35355e-19 0.613782)
(9.26358 5.19334e-19 0.71145)
(9.33979 -3.48025e-19 0.699689)
(9.14169 3.6272e-19 0.808272)
(9.22668 1.56843e-18 0.795424)
(9.0098 1.81323e-19 0.916867)
(9.10428 1.84304e-19 0.902475)
(8.86772 0 1.03905)
(8.97247 -1.67614e-18 1.02256)
(8.71536 0 1.17696)
(8.83123 -1.87553e-20 1.15766)
(8.55269 3.29113e-18 1.33306)
(8.68062 4.62098e-18 1.31012)
(8.37983 -3.73984e-18 1.51034)
(8.52086 9.04771e-20 1.48269)
(8.19709 -3.11929e-18 1.71237)
(8.35235 -6.8564e-18 1.67866)
(8.00499 3.57349e-18 1.94346)
(8.17575 6.91265e-18 1.90204)
(7.80433 0 2.2088)
(7.99213 -3.44612e-18 2.15765)
(7.59636 -7.61742e-18 2.51489)
(7.803 0 2.45133)
(7.38308 -6.28028e-19 2.86995)
(7.61039 -7.5596e-18 2.79042)
(7.16751 -1.23485e-18 3.28413)
(7.41791 7.11173e-18 3.18435)
(6.9546 -6.39726e-19 3.77006)
(7.23108 -7.89769e-18 3.64416)
(6.74831 5.67764e-19 4.33853)
(7.05191 7.23617e-19 4.18609)
(6.57968 1.26703e-17 5.01573)
(6.93131 -2.128e-18 4.79635)
(6.3554 1.68988e-18 5.74348)
(6.64522 2.02794e-17 5.65495)
(6.33817 -3.32985e-18 6.50817)
(7.20727 -2.44957e-17 5.90758)
(5.60722 1.3121e-17 7.79815)
(9.99025 2.96358e-18 0.077494)
(9.99672 9.91877e-19 0.0539825)
(9.97119 7.95788e-19 0.126998)
(9.98332 1.013e-18 0.106173)
(9.94286 5.57539e-19 0.175871)
(9.96022 -1.30534e-19 0.157197)
(9.90545 6.57417e-19 0.225654)
(9.92811 6.71326e-19 0.208482)
(9.85932 5.78963e-19 0.277641)
(9.88734 0 0.261483)
(9.80472 2.57303e-19 0.332841)
(9.83829 3.23952e-21 0.317353)
(9.74175 9.42121e-19 0.392151)
(9.78114 -1.4549e-18 0.377022)
(9.67044 2.38205e-19 0.456492)
(9.71594 2.40207e-18 0.441411)
(9.59079 -2.66856e-19 0.526832)
(9.64276 -9.26527e-19 0.511481)
(9.50273 2.87955e-19 0.604219)
(9.5616 6.42825e-19 0.588257)
(9.40618 -1.03037e-18 0.689819)
(9.47238 3.2628e-19 0.672871)
(9.30103 7.32253e-19 0.784927)
(9.37509 -2.02314e-18 0.766576)
(9.1872 1.36873e-18 0.89098)
(9.2697 1.39147e-18 0.870753)
(9.06464 -1.70244e-18 1.00961)
(9.15621 -3.50993e-19 0.986943)
(8.9334 -1.67165e-18 1.1427)
(9.03472 -2.59251e-18 1.11691)
(8.79362 4.66829e-18 1.29243)
(8.90542 1.46026e-18 1.2627)
(8.64557 1.36404e-18 1.46142)
(8.76864 4.72124e-18 1.42671)
(8.48974 -3.11924e-18 1.6527)
(8.62491 1.24501e-19 1.61177)
(8.32689 3.33648e-18 1.86996)
(8.47503 -6.38328e-18 1.82124)
(8.15816 -2.0584e-19 2.11769)
(8.32009 6.54101e-18 2.05917)
(7.98523 -3.41956e-18 2.40124)
(8.16201 -3.44549e-18 2.33051)
(7.81038 0 2.72715)
(8.00313 6.68955e-18 2.64119)
(7.63713 2.26819e-19 3.10376)
(7.84648 -6.69998e-18 2.9985)
(7.47073 4.44026e-19 3.54111)
(7.69739 2.26279e-19 3.41173)
(7.31934 -6.55167e-18 4.05112)
(7.56405 -7.27225e-18 3.89117)
(7.18926 -2.05679e-18 4.6413)
(7.44782 1.05548e-18 4.45373)
(7.11967 5.1933e-18 5.3345)
(7.42014 7.98979e-18 5.0693)
(7.01467 -2.74283e-18 6.06088)
(7.19447 0 5.96359)
(7.06244 -1.82641e-18 6.75873)
(7.94441 -2.84729e-18 6.11405)
(6.30147 -1.38388e-18 8.00271)
(9.99045 -9.59428e-19 0.0836208)
(9.99686 -2.01745e-18 0.0579616)
(9.97198 6.14478e-20 0.137389)
(9.98386 6.28408e-20 0.114182)
(9.94486 0 0.190764)
(9.96168 0 0.16945)
(9.90927 0 0.24526)
(9.9311 -1.05557e-18 0.225211)
(9.86549 -5.76057e-19 0.302162)
(9.89249 -2.72562e-19 0.282878)
(9.81379 -1.73759e-18 0.362525)
(9.84616 2.71074e-19 0.343613)
(9.7543 7.58962e-20 0.427307)
(9.79228 -5.86406e-19 0.408408)
(9.68711 1.17779e-18 0.497478)
(9.73098 1.19451e-18 0.478235)
(9.61226 1.09547e-20 0.57405)
(9.6624 5.19792e-21 0.554094)
(9.52977 6.75761e-19 0.658123)
(9.58657 6.2633e-19 0.637055)
(9.43966 -7.04867e-19 0.750917)
(9.50351 1.30673e-18 0.728294)
(9.34195 -1.31017e-18 0.853773)
(9.41332 -4.28607e-18 0.829105)
(9.2367 -3.56586e-19 0.968172)
(9.31612 1.33994e-18 0.940902)
(9.12405 -1.27463e-18 1.09579)
(9.21207 1.38269e-18 1.06526)
(9.00425 5.98127e-19 1.23854)
(9.10142 -4.10049e-18 1.20397)
(8.87767 1.55758e-18 1.39866)
(8.98461 2.92193e-18 1.35911)
(8.74488 3.42025e-18 1.57879)
(8.8622 9.60002e-20 1.53308)
(8.60669 -3.20725e-18 1.78203)
(8.73503 3.09729e-18 1.72876)
(8.4643 -3.05357e-18 2.01205)
(8.60429 -3.3058e-18 1.9495)
(8.31944 3.21426e-18 2.27335)
(8.47151 1.34874e-19 2.19927)
(8.17456 6.72748e-18 2.57135)
(8.33919 0 2.48301)
(8.03292 -3.8471e-20 2.91249)
(8.21051 6.30008e-18 2.80667)
(7.89923 -6.70193e-18 3.30481)
(8.08954 -6.69695e-18 3.17728)
(7.78047 -7.43598e-18 3.75774)
(7.98267 -7.61923e-19 3.60356)
(7.68719 1.85213e-19 4.28226)
(7.90022 -6.70985e-18 4.09478)
(7.62705 1.0898e-17 4.88255)
(7.842 6.39867e-18 4.66861)
(7.64163 3.03012e-18 5.57758)
(7.89692 1.58564e-18 5.2798)
(7.64361 0 6.29287)
(7.72766 8.66228e-18 6.19025)
(7.70659 -2.25318e-18 6.9349)
(8.60622 -8.38303e-18 6.27559)
(6.93862 1.60819e-18 8.12581)
(9.99078 -9.54688e-19 0.0895442)
(9.99705 1.93109e-18 0.0618015)
(9.97309 0 0.147353)
(9.98461 -9.90869e-19 0.121864)
(9.94729 -1.07813e-18 0.204951)
(9.9635 -1.01903e-18 0.181122)
(9.91364 -1.31285e-18 0.263866)
(9.93459 -5.07151e-21 0.241067)
(9.87238 5.85613e-19 0.325381)
(9.89825 -5.43056e-19 0.303094)
(9.82376 1.4075e-18 0.390575)
(9.85481 5.58436e-19 0.368375)
(9.76797 5.65251e-19 0.460451)
(9.80441 1.14305e-18 0.437938)
(9.70515 0 0.536017)
(9.74725 0 0.512787)
(9.63542 6.31589e-19 0.618328)
(9.68351 0 0.593961)
(9.55887 1.26914e-18 0.708522)
(9.61331 5.78244e-21 0.682569)
(9.4756 -2.36582e-18 0.807851)
(9.53676 6.52668e-19 0.779815)
(9.38575 -1.54868e-18 0.91768)
(9.45405 -3.60017e-18 0.887009)
(9.28955 3.08215e-18 1.03952)
(9.36542 6.84871e-19 1.00558)
(9.18728 -1.52109e-18 1.17505)
(9.27119 1.7368e-18 1.13712)
(9.07939 -1.68336e-18 1.32621)
(9.1718 -3.18967e-18 1.28342)
(8.96649 1.42397e-18 1.49525)
(9.06785 -1.38554e-18 1.44655)
(8.84941 -1.92411e-19 1.68479)
(8.9602 2.85871e-18 1.6289)
(8.72931 2.92911e-18 1.89791)
(8.84995 -5.52195e-19 1.8333)
(8.60779 -7.427e-20 2.13822)
(8.73864 3.08879e-18 2.06304)
(8.48703 -3.08834e-18 2.4101)
(8.62828 -3.11172e-18 2.32201)
(8.37015 -3.92002e-19 2.71889)
(8.52168 0 2.61495)
(8.26132 -3.89962e-19 3.07089)
(8.42276 -1.25563e-20 2.94768)
(8.1662 -7.59406e-19 3.47359)
(8.33677 7.26361e-19 3.32695)
(8.09289 -1.06529e-20 3.93553)
(8.27042 -3.13899e-20 3.76082)
(8.05349 -6.52045e-19 4.46691)
(8.23585 -5.82708e-19 4.25737)
(8.05674 -2.79504e-18 5.06881)
(8.23089 3.54598e-18 4.83488)
(8.14045 6.94472e-18 5.75825)
(8.35672 -1.67352e-18 5.43809)
(8.2398 2.3539e-18 6.46204)
(8.24404 4.58312e-18 6.34796)
(8.2881 -3.29067e-18 7.07967)
(9.20247 -1.75771e-18 6.42084)
(7.53534 -4.0457e-18 8.22814)
(9.99124 1.83905e-18 0.0952015)
(9.99729 9.77981e-19 0.0654532)
(9.97448 -2.01127e-18 0.156825)
(9.98552 9.80189e-19 0.129151)
(9.95016 7.56383e-20 0.218377)
(9.96563 2.49309e-19 0.192152)
(9.91855 7.54891e-19 0.281412)
(9.93851 7.92391e-19 0.255991)
(9.87995 -5.49342e-19 0.347216)
(9.90461 1.06403e-18 0.322061)
(9.8346 3.04282e-19 0.416889)
(9.8642 -1.09689e-18 0.391547)
(9.78272 5.57118e-19 0.491461)
(9.81748 -5.57045e-19 0.465497)
(9.72451 0 0.571967)
(9.76466 5.74882e-19 0.544941)
(9.66015 -6.26399e-19 0.659496)
(9.70599 0 0.630942)
(9.58981 -6.01509e-19 0.755218)
(9.64165 -6.16466e-19 0.724637)
(9.51369 -6.48221e-19 0.860399)
(9.57185 6.25752e-19 0.827248)
(9.43204 -1.30034e-18 0.976412)
(9.49688 -1.27854e-18 0.940088)
(9.34521 -6.48163e-19 1.10477)
(9.41711 1.2805e-18 1.06458)
(9.25365 0 1.24715)
(9.33297 1.32554e-18 1.20232)
(9.15799 -2.86734e-18 1.40546)
(9.24509 -3.37366e-18 1.35504)
(9.05905 9.60104e-20 1.58191)
(9.15426 -1.04776e-19 1.52479)
(8.95796 2.46507e-18 1.77909)
(9.06153 2.86443e-18 1.7139)
(8.85618 -3.58792e-19 2)
(8.96834 6.90611e-19 1.92513)
(8.75566 0 2.24817)
(8.87649 0 2.16164)
(8.659 0 2.52778)
(8.78842 -7.05768e-19 2.42721)
(8.56978 3.79249e-19 2.8439)
(8.70724 0 2.72631)
(8.49298 1.10487e-18 3.20262)
(8.63739 1.76917e-18 3.06441)
(8.43502 1.4577e-18 3.61088)
(8.58506 5.50108e-18 3.44802)
(8.40464 -5.93883e-19 4.07642)
(8.55724 -3.32188e-18 3.88462)
(8.41471 3.5315e-18 4.60848)
(8.56752 -6.78626e-20 4.38115)
(8.47532 4.90306e-18 5.2065)
(8.6118 9.47992e-18 4.95622)
(8.61518 -4.49744e-18 5.88838)
(8.79748 -8.3811e-18 5.55244)
(8.80615 2.13724e-18 6.58479)
(8.74692 -5.5049e-19 6.44574)
(8.83822 -2.85808e-18 7.22799)
(9.74834 -4.41819e-18 6.56771)
(8.13032 -6.85688e-18 8.35654)
(9.99177 1.18591e-19 0.100542)
(9.99756 -1.99007e-18 0.0688836)
(9.97607 3.22701e-18 0.165743)
(9.98653 3.13043e-18 0.135993)
(9.95335 9.77863e-19 0.230978)
(9.96797 1.14464e-18 0.20248)
(9.92395 1.10704e-18 0.297828)
(9.9428 -2.60153e-19 0.269916)
(9.88816 4.7555e-19 0.367584)
(9.91146 -7.83186e-19 0.339705)
(9.84625 -1.94945e-18 0.441367)
(9.87424 -2.74548e-19 0.413038)
(9.79848 -5.19891e-19 0.520224)
(9.83135 -1.30792e-20 0.490983)
(9.74508 5.65372e-19 0.605213)
(9.78305 7.62619e-21 0.574588)
(9.68628 0 0.697439)
(9.72962 -5.81193e-19 0.66493)
(9.62236 6.31696e-19 0.798085)
(9.67131 -5.93879e-19 0.763149)
(9.55359 -3.35401e-20 0.908425)
(9.60842 1.22884e-18 0.870474)
(9.48036 1.34179e-18 1.02982)
(9.54138 -6.36669e-19 0.988211)
(9.40311 3.25865e-18 1.16376)
(9.47063 6.70622e-19 1.11776)
(9.32247 -2.11151e-18 1.3119)
(9.39675 1.31985e-18 1.26068)
(9.23922 -5.71568e-19 1.47608)
(9.32052 -5.36458e-18 1.41868)
(9.15438 2.70223e-18 1.65847)
(9.2429 6.05115e-18 1.59369)
(9.06933 1.06456e-18 1.86157)
(9.1651 0 1.78799)
(8.9858 1.0456e-18 2.08825)
(9.08886 3.70832e-19 2.0042)
(8.90607 -7.11074e-19 2.34187)
(9.01624 -2.72853e-18 2.24533)
(8.83307 -7.03844e-19 2.62641)
(8.94996 6.59227e-19 2.51498)
(8.77082 1.39377e-18 2.94659)
(8.89351 -2.68074e-18 2.81728)
(8.7248 6.16391e-18 3.30812)
(8.85168 4.06997e-18 3.15728)
(8.70213 7.94597e-19 3.71751)
(8.83119 8.62829e-18 3.54113)
(8.71209 -2.85049e-18 4.18183)
(8.83969 -7.87813e-18 3.9758)
(8.76764 5.69237e-18 4.70947)
(8.89165 -3.19462e-18 4.46748)
(8.88101 -3.10841e-18 5.30035)
(8.98223 1.27677e-17 5.0345)
(9.06897 -4.77798e-18 5.97496)
(9.21894 -1.15813e-17 5.62514)
(9.3484 -7.02374e-18 6.66903)
(9.2427 3.54612e-18 6.48451)
(9.40248 -6.66151e-18 7.40331)
(10.2614 -1.54832e-17 6.71527)
(8.78297 8.91174e-19 8.54007)
(9.99236 1.12132e-18 0.105531)
(9.99784 -1.95619e-18 0.0720747)
(9.97779 1.00421e-18 0.17406)
(9.9876 1.15022e-18 0.142354)
(9.9568 -1.23075e-19 0.242694)
(9.97048 -3.75733e-19 0.212052)
(9.92973 -2.16229e-18 0.313043)
(9.94736 2.55813e-19 0.282783)
(9.89688 -1.52494e-18 0.38641)
(9.91871 -8.05419e-19 0.355963)
(9.85856 1.66873e-18 0.463923)
(9.88479 2.76481e-19 0.432787)
(9.81503 5.15799e-19 0.546648)
(9.84585 1.11439e-18 0.514331)
(9.76658 -1.1502e-18 0.635653)
(9.80219 -5.68757e-19 0.601659)
(9.71349 -1.17618e-18 0.732043)
(9.75412 -5.8203e-19 0.695847)
(9.65611 3.14602e-20 0.836997)
(9.70197 1.17259e-18 0.798026)
(9.59483 5.97966e-19 0.951777)
(9.64611 -1.18841e-18 0.909408)
(9.53014 -1.29108e-18 1.07772)
(9.58707 1.2242e-18 1.03128)
(9.46261 -1.26468e-18 1.2163)
(9.52543 -1.89474e-18 1.16502)
(9.39298 -2.01938e-18 1.36911)
(9.46186 1.25667e-18 1.31213)
(9.32219 1.39391e-18 1.53794)
(9.39731 -6.99665e-19 1.47426)
(9.25144 3.28532e-18 1.72482)
(9.33287 -5.53404e-19 1.65323)
(9.18226 -6.91873e-19 1.93213)
(9.26986 -1.96539e-18 1.85119)
(9.11668 -3.43325e-18 2.16259)
(9.21025 1.93353e-18 2.07059)
(9.05724 -1.34415e-18 2.41937)
(9.15633 -1.41581e-18 2.31427)
(9.00716 -1.3301e-18 2.70617)
(9.1111 -1.89795e-18 2.58557)
(8.97079 -1.21409e-20 3.02728)
(9.07837 -2.69056e-18 2.88827)
(8.95394 6.52124e-18 3.38795)
(9.06314 3.95944e-18 3.22689)
(8.96429 1.083e-19 3.79424)
(9.07244 7.46588e-18 3.60705)
(9.0117 -8.30212e-18 4.25269)
(9.11474 -6.15464e-18 4.03518)
(9.10917 3.49575e-18 4.77119)
(9.20473 -4.51535e-18 4.517)
(9.272 5.21929e-18 5.3513)
(9.33909 9.3109e-19 5.06901)
(9.50643 -3.62231e-18 6.01567)
(9.61989 2.93003e-18 5.65091)
(9.87359 -4.42718e-18 6.70936)
(9.73403 -7.47082e-18 6.45594)
(10.0323 -4.15705e-18 7.60647)
(10.7556 -1.76928e-18 6.83077)
(9.55031 -5.81466e-19 8.78351)
(9.99297 -1.86831e-18 0.110147)
(9.99814 -1.86989e-18 0.0750134)
(9.97962 -2.63119e-19 0.181736)
(9.98873 -1.78106e-18 0.148205)
(9.96045 1.62431e-20 0.253475)
(9.97311 -1.37335e-19 0.220832)
(9.93581 1.59336e-18 0.327009)
(9.95214 2.6158e-19 0.294551)
(9.906 1.01804e-18 0.403646)
(9.92624 1.09634e-18 0.370794)
(9.87134 -2.63715e-19 0.484518)
(9.89572 2.26337e-19 0.450754)
(9.83216 0 0.570694)
(9.86081 5.14243e-19 0.535502)
(9.78876 0 0.663249)
(9.82187 0 0.626107)
(9.7415 1.79708e-18 0.763274)
(9.7793 1.07713e-18 0.72364)
(9.69077 -8.31455e-20 0.871934)
(9.73342 -3.8715e-19 0.829218)
(9.63705 -5.28046e-19 0.990461)
(9.68471 -7.20413e-19 0.94402)
(9.58094 5.78907e-19 1.12017)
(9.63378 1.2499e-18 1.0693)
(9.52314 6.6965e-19 1.26249)
(9.5813 -5.78836e-20 1.20639)
(9.4645 2.55665e-18 1.41894)
(9.52805 1.26269e-19 1.35673)
(9.40611 -2.64727e-18 1.59121)
(9.47517 1.31613e-18 1.52188)
(9.34927 -5.83057e-18 1.78122)
(9.4238 -3.95268e-18 1.70357)
(9.29566 6.92392e-19 1.99115)
(9.37545 -2.61311e-18 1.90378)
(9.24749 3.93822e-18 2.22354)
(9.33218 2.79853e-19 2.12475)
(9.20755 -1.96959e-18 2.48133)
(9.29642 4.9531e-18 2.36907)
(9.17936 -3.26877e-18 2.76787)
(9.27142 -3.3453e-18 2.63979)
(9.16745 1.27327e-18 3.08699)
(9.26128 -1.14759e-18 2.94028)
(9.1779 4.88143e-18 3.44335)
(9.27109 1.30391e-18 3.27448)
(9.21875 1.35038e-18 3.84244)
(9.30817 1.5115e-18 3.6473)
(9.30033 -2.37343e-18 4.29014)
(9.38147 1.57422e-18 4.06436)
(9.43589 -7.25753e-18 4.7936)
(9.50538 -3.72781e-18 4.53062)
(9.64426 -1.49484e-18 5.35594)
(9.6801 -7.4765e-18 5.05881)
(9.92695 -6.93244e-19 5.99803)
(9.99718 6.93178e-18 5.62131)
(10.3808 -4.94795e-18 6.68017)
(10.2123 7.65846e-19 6.34438)
(10.7591 3.05191e-18 7.78482)
(11.2707 1.03225e-18 6.8057)
(11.2542 -2.12354e-18 8.89399)
(0.103605 -1.81232e-19 -0.0700845)
(0.026274 -4.55913e-19 -0.0828055)
(0.274689 0 -0.0658921)
(0.132306 2.0899e-19 -0.101523)
(0.486611 0 -0.0546568)
(0.33421 -1.74361e-19 -0.0926573)
(0.743715 -3.75465e-20 -0.0490688)
(0.571396 3.08143e-19 -0.087875)
(1.02306 2.95958e-20 -0.0474318)
(0.845712 -3.77405e-20 -0.0871101)
(1.28892 3.43589e-20 -0.0472622)
(1.12541 1.77304e-19 -0.0878531)
(1.52295 5.70886e-22 -0.0466669)
(1.37588 -1.44233e-19 -0.0870467)
(1.72549 3.92178e-20 -0.045264)
(1.58943 3.98513e-20 -0.084216)
(1.90194 1.86041e-20 -0.0432336)
(1.77156 -3.79996e-20 -0.0802352)
(2.05644 -1.54225e-20 -0.0406265)
(1.92767 1.58023e-20 -0.0754035)
(2.19119 -1.52207e-20 -0.0374763)
(2.06173 -3.08992e-20 -0.0696265)
(2.30763 2.8512e-21 -0.033815)
(2.17626 -2.64294e-20 -0.063063)
(2.40618 -1.04146e-20 -0.0296948)
(2.27253 1.5162e-20 -0.0555457)
(2.48695 -1.32817e-20 -0.0254472)
(2.35091 -2.48188e-21 -0.0471742)
(2.5516 -1.03102e-21 -0.0214139)
(2.41183 0 -0.0390434)
(2.60193 -2.36948e-23 -0.0175574)
(2.45702 -1.03805e-21 -0.0314242)
(2.63816 1.01466e-21 -0.0140164)
(2.48763 1.01451e-21 -0.0235083)
(2.6617 -8.83979e-22 -0.0111233)
(2.50354 1.47766e-20 -0.0161199)
(2.67502 -4.68055e-22 -0.00897124)
(2.50581 1.52854e-20 -0.010025)
(2.68085 8.60084e-22 -0.00781689)
(2.49651 -1.3429e-21 -0.00549566)
(2.6823 4.36002e-22 -0.00814183)
(2.47759 4.35428e-22 -0.00287596)
(2.683 -4.75493e-22 -0.010314)
(2.45162 0 -0.0025977)
(2.68718 -2.12574e-23 -0.0144495)
(2.42215 -1.59614e-20 -0.00517227)
(2.69904 -7.43086e-21 -0.020295)
(2.3943 1.66357e-20 -0.0106915)
(2.72283 -7.94093e-21 -0.027338)
(2.37442 -6.71326e-23 -0.0192985)
(2.76269 -7.61816e-21 -0.0353219)
(2.36897 0 -0.0310279)
(2.8241 -1.46255e-20 -0.0444044)
(2.38515 1.31557e-22 -0.0469687)
(2.91403 -6.83852e-21 -0.0548097)
(2.4317 1.35512e-20 -0.0683691)
(3.04007 2.75886e-21 -0.0657573)
(2.51747 3.16391e-22 -0.0960408)
(2.69212 1.99014e-22 -0.126414)
(0.0273488 -1.05063e-19 -0.127748)
(-0.0284029 -5.58118e-20 -0.137557)
(0.179071 6.89226e-20 -0.146543)
(0.0329767 8.11769e-19 -0.187828)
(0.399472 1.01941e-19 -0.138085)
(0.225018 -5.14413e-19 -0.182642)
(0.672582 3.07173e-19 -0.135788)
(0.449178 -2.8132e-21 -0.176985)
(0.963449 1.22354e-19 -0.136817)
(0.712039 3.72582e-21 -0.176782)
(1.22962 -2.35713e-20 -0.137034)
(0.969923 3.16061e-19 -0.17741)
(1.45513 -9.58703e-20 -0.133998)
(1.19065 -1.34399e-19 -0.174194)
(1.64353 -4.03275e-20 -0.128309)
(1.37044 2.18323e-20 -0.167153)
(1.8018 -3.99986e-20 -0.121036)
(1.51596 -5.78855e-20 -0.158153)