/*--------------------------------*- C++ -*----------------------------------*\
| =========                 |                                                 |
| \\      /  F ield         | OpenFOAM: The Open Source CFD Toolbox           |
|  \\    /   O peration     | Version:  5.x                                   |
|   \\  /    A nd           | Web:      www.OpenFOAM.org                      |
|    \\/     M anipulation  |                                                 |
\*---------------------------------------------------------------------------*/
FoamFile
{
    version     2.0;
    format      ascii;
    class       pointVectorField;
    location    "0.5";
    object      pointDisplacement;
}
// * * * * * * * * * * * * * * * * * * * * * * * * * * * * * * * * * * * * * //

dimensions      [0 1 0 0 0 0 0];

internalField   nonuniform List<vector> 
5828
(
(0 0 0)
(0.010225 0 0)
(0.0194403 0 0)
(0.0274112 0 0)
(0.0342423 0 0)
(0.0400312 0 0)
(0.0448643 0 0)
(0.048818 0 0)
(0.0519599 0 0)
(0.0543499 0 0)
(0.05604 0 0)
(0.057075 0 0)
(0.0574937 0 0)
(0.0573304 0 0)
(0.056615 0 0)
(0.055375 0 0)
(0.053635 0 0)
(0.0514184 0 0)
(0.0487496 0 0)
(0.0456551 0 0)
(0.042165 0 0)
(0.0383147 0 0)
(0.0341475 0 0)
(0.0297184 0 0)
(0.0250992 0 0)
(0.0203893 0 0)
(0.0157251 0 0)
(0.0112975 0 0)
(0.00739366 0 0)
(0.00454918 0 0)
(1.08016e-16 0 0)
(0 0 0)
(0.0102294 2.34736e-05 0)
(0.0194499 4.55148e-05 0)
(0.0274266 6.6253e-05 0)
(0.034264 8.64222e-05 0)
(0.0400601 0.000106643 0)
(0.0449014 0.000127451 0)
(0.0488643 0.00014931 0)
(0.0520168 0.00017263 0)
(0.0544191 0.000197863 0)
(0.0561236 0.000225518 0)
(0.0571751 0.000256003 0)
(0.0576131 0.000289773 0)
(0.0574721 0.00032744 0)
(0.0567826 0.000369692 0)
(0.0555725 0.000417421 0)
(0.0538673 0.000471206 0)
(0.0516907 0.000531786 0)
(0.049068 0.000600473 0)
(0.0460267 0.000678612 0)
(0.0425981 0.000767747 0)
(0.0388191 0.00086971 0)
(0.0347347 0.000986714 0)
(0.0304017 0.00112147 0)
(0.0258933 0.00127735 0)
(0.0213129 0.00145979 0)
(0.0168054 0.00167479 0)
(0.0125733 0.00192699 0)
(0.00891983 0.0022156 0)
(0.00637765 0.00251531 0)
(0.00293324 0.00301953 0)
(0 0 0)
(0.0102452 4.68458e-05 0)
(0.0194821 9.08331e-05 0)
(0.0274761 0.000132215 0)
(0.0343326 0.000172452 0)
(0.0401501 0.00021278 0)
(0.0450158 0.000254272 0)
(0.0490064 0.000297848 0)
(0.0521902 0.000344303 0)
(0.0546289 0.000394524 0)
(0.056376 0.000449581 0)
(0.0574768 0.000510234 0)
(0.0579718 0.000577331 0)
(0.0578971 0.000652111 0)
(0.0572838 0.000735848 0)
(0.0561616 0.000830031 0)
(0.0545584 0.000936001 0)
(0.0525 0.00105548 0)
(0.0500134 0.00119082 0)
(0.0471292 0.00134451 0)
(0.0438821 0.00151944 0)
(0.0403131 0.001719 0)
(0.0364726 0.00194717 0)
(0.0324242 0.0022087 0)
(0.0282458 0.00250942 0)
(0.0240457 0.00285702 0)
(0.0199827 0.00325865 0)
(0.016287 0.00371838 0)
(0.0132855 0.00422503 0)
(0.0114737 0.00471863 0)
(0.008912 0.00538955 0)
(0 0 0)
(0.0102724 7.00088e-05 0)
(0.0195368 0.000135743 0)
(0.0275599 0.000197569 0)
(0.0344482 0.000257657 0)
(0.0403015 0.000317849 0)
(0.0452079 0.000379755 0)
(0.049244 0.000444755 0)
(0.0524795 0.000513949 0)
(0.0549781 0.000588611 0)
(0.0567947 0.000670236 0)
(0.0579756 0.000760026 0)
(0.0585641 0.000859367 0)
(0.0585981 0.000969948 0)
(0.0581105 0.00109343 0)
(0.0571324 0.00123154 0)
(0.0556955 0.00138662 0)
(0.0538296 0.00156152 0)
(0.0515645 0.00175914 0)
(0.0489355 0.00198283 0)
(0.0459825 0.00223644 0)
(0.0427526 0.0025243 0)
(0.0393036 0.00285143 0)
(0.0357087 0.00322349 0)
(0.0320575 0.00364701 0)
(0.0284647 0.00412737 0)
(0.0250916 0.00466762 0)
(0.0221772 0.00526474 0)
(0.0200526 0.00589077 0)
(0.0191319 0.00645748 0)
(0.0175816 0.0071667 0)
(0 0 0)
(0.0103103 9.28418e-05 0)
(0.0196132 0.000180006 0)
(0.0276766 0.000261957 0)
(0.0346089 0.000341547 0)
(0.0405118 0.000421204 0)
(0.0454746 0.000503089 0)
(0.0495735 0.000588865 0)
(0.052879 0.000679947 0)
(0.0554591 0.000778083 0)
(0.0573703 0.000884932 0)
(0.0586612 0.00100228 0)
(0.059378 0.00113216 0)
(0.0595609 0.00127647 0)
(0.0592457 0.00143715 0)
(0.0584664 0.00161631 0)
(0.0572579 0.00181696 0)
(0.0556546 0.00204244 0)
(0.0536909 0.00229606 0)
(0.0514076 0.00258177 0)
(0.0488514 0.00290382 0)
(0.0460759 0.00326662 0)
(0.0431463 0.00367498 0)
(0.0401442 0.00413381 0)
(0.0371717 0.0046475 0)
(0.034354 0.00521706 0)
(0.0318513 0.00583892 0)
(0.0298756 0.00649781 0)
(0.0287212 0.00715012 0)
(0.0286935 0.00769643 0)
(0.0281259 0.00833903 0)
(0 0 0)
(0.0103587 0.000115214 0)
(0.0197105 0.000223362 0)
(0.027825 0.000324988 0)
(0.0348127 0.000423588 0)
(0.0407783 0.00052214 0)
(0.0458114 0.00062323 0)
(0.0499872 0.000728711 0)
(0.0533806 0.000840502 0)
(0.0560635 0.000960879 0)
(0.058094 0.00109167 0)
(0.0595238 0.00123504 0)
(0.0604015 0.0013934 0)
(0.0607709 0.00156894 0)
(0.060671 0.00176375 0)
(0.06014 0.00198035 0)
(0.0592172 0.002222 0)
(0.0579412 0.00249203 0)
(0.0563504 0.00279391 0)
(0.0544928 0.00313188 0)
(0.0524237 0.00351002 0)
(0.0502017 0.00393177 0)
(0.0478983 0.00440044 0)
(0.0456005 0.00491839 0)
(0.0434151 0.0054857 0)
(0.0414711 0.00609788 0)
(0.0399224 0.00674305 0)
(0.0389421 0.00739494 0)
(0.038744 0.00800097 0)
(0.0394961 0.00846654 0)
(0.0397784 0.00900238 0)
(0 0 0)
(0.0104172 0.000136988 0)
(0.0198278 0.000265544 0)
(0.0280033 0.00038626 0)
(0.0350568 0.000503231 0)
(0.041096 0.000619914 0)
(0.0462107 0.000739116 0)
(0.0504779 0.000863201 0)
(0.0539775 0.000994645 0)
(0.0567838 0.00113592 0)
(0.0589569 0.00128917 0)
(0.0605512 0.00145667 0)
(0.0616188 0.00164106 0)
(0.0622064 0.00184461 0)
(0.0623576 0.00206953 0)
(0.0621166 0.00231876 0)
(0.0615276 0.00259558 0)
(0.0606346 0.00290308 0)
(0.0594801 0.00324455 0)
(0.0581179 0.00362411 0)
(0.0566104 0.00404477 0)
(0.055021 0.00450818 0)
(0.0534247 0.0050153 0)
(0.05191 0.00556482 0)
(0.0505805 0.00615154 0)
(0.0495555 0.0067642 0)
(0.0489651 0.00738277 0)
(0.048939 0.00797451 0)
(0.0495897 0.00848597 0)
(0.050941 0.00884028 0)
(0.0518133 0.00921419 0)
(0 0 0)
(0.0104851 0.00015803 0)
(0.0199636 0.000306283 0)
(0.0282092 0.000445375 0)
(0.035338 0.000579946 0)
(0.0414594 0.000713853 0)
(0.0466666 0.000850161 0)
(0.0510408 0.000991775 0)
(0.0546632 0.00114156 0)
(0.0576103 0.00130217 0)
(0.0599458 0.00147593 0)
(0.0617262 0.00166511 0)
(0.0630065 0.00187232 0)
(0.0638364 0.00209975 0)
(0.0642669 0.00235007 0)
(0.0643493 0.00262655 0)
(0.064132 0.00293205 0)
(0.0636652 0.00326931 0)
(0.0630001 0.00364149 0)
(0.062191 0.00405154 0)
(0.0613009 0.00450056 0)
(0.0603996 0.00498833 0)
(0.0595629 0.00551303 0)
(0.0588749 0.00606929 0)
(0.0584277 0.00664655 0)
(0.0583174 0.00722716 0)
(0.0586367 0.00778484 0)
(0.0594602 0.00828353 0)
(0.0607953 0.00867581 0)
(0.0625426 0.00891157 0)
(0.06382 0.00916506 0)
(0 0 0)
(0.0105615 0.000178208 0)
(0.0201162 0.000345321 0)
(0.0284402 0.000501951 0)
(0.0356526 0.000653233 0)
(0.041865 0.000803394 0)
(0.0471748 0.000955877 0)
(0.051668 0.00111381 0)
(0.0554273 0.00128036 0)
(0.0585307 0.00145843 0)
(0.0610444 0.00165038 0)
(0.0630282 0.00185843 0)
(0.0645392 0.00208489 0)
(0.0656336 0.00233226 0)
(0.0663694 0.00260355 0)
(0.0668018 0.00290168 0)
(0.0669844 0.00322908 0)
(0.0669736 0.00358811 0)
(0.0668294 0.00398129 0)
(0.0666069 0.00440987 0)
(0.0663671 0.00487311 0)
(0.0661833 0.00536907 0)
(0.0661287 0.0058931 0)
(0.0662779 0.00643614 0)
(0.0667023 0.00698325 0)
(0.0674641 0.00751208 0)
(0.0686048 0.0079926 0)
(0.0701379 0.00838787 0)
(0.0719764 0.00865905 0)
(0.0739338 0.00878406 0)
(0.0754224 0.0088608 0)
(0 0 0)
(0.0106454 0.000197398 0)
(0.0202835 0.000382417 0)
(0.0286929 0.000555632 0)
(0.0359965 0.000722628 0)
(0.0423084 0.000887986 0)
(0.0477299 0.00105549 0)
(0.0523514 0.00122847 0)
(0.0562585 0.00141021 0)
(0.0595298 0.00160364 0)
(0.0622342 0.00181125 0)
(0.0644346 0.00203519 0)
(0.0661925 0.00227763 0)
(0.0675709 0.00254135 0)
(0.0686312 0.00282903 0)
(0.069432 0.00314301 0)
(0.0700325 0.00348536 0)
(0.0704935 0.00385778 0)
(0.0708791 0.00426164 0)
(0.0712492 0.00469676 0)
(0.0716668 0.00516118 0)
(0.0722024 0.00565119 0)
(0.0729233 0.00615983 0)
(0.0738896 0.00667559 0)
(0.0751473 0.00718112 0)
(0.0767174 0.00765226 0)
(0.0785833 0.00805876 0)
(0.0806871 0.00836568 0)
(0.0828656 0.00854233 0)
(0.0848958 0.00858764 0)
(0.0863049 0.00847639 0)
(0 0 0)
(0.0107356 0.000215494 0)
(0.0204631 0.000417359 0)
(0.028964 0.000606109 0)
(0.0363648 0.000787724 0)
(0.0427831 0.000967098 0)
(0.0483238 0.00114829 0)
(0.0530812 0.00133482 0)
(0.0571431 0.00152998 0)
(0.0605903 0.00173669 0)
(0.063494 0.00195742 0)
(0.0659197 0.00219419 0)
(0.067935 0.0024493 0)
(0.069607 0.00272528 0)
(0.0709994 0.00302431 0)
(0.0721753 0.00334825 0)
(0.0731977 0.00369853 0)
(0.074131 0.00407607 0)
(0.0750411 0.00448101 0)
(0.0759924 0.0049121 0)
(0.0770505 0.00536636 0)
(0.078281 0.00583864 0)
(0.0797428 0.00632076 0)
(0.0814805 0.00680051 0)
(0.0835142 0.00726088 0)
(0.085825 0.00767968 0)
(0.0883425 0.00803095 0)
(0.0909302 0.00828587 0)
(0.0933653 0.00842149 0)
(0.0954277 0.00844524 0)
(0.0965619 0.00832425 0)
(0 0 0)
(0.0108308 0.000232404 0)
(0.0206525 0.000449975 0)
(0.0292494 0.000653129 0)
(0.0367522 0.000848189 0)
(0.0432821 0.00104031 0)
(0.0489472 0.00123374 0)
(0.0538453 0.00143215 0)
(0.0580664 0.0016388 0)
(0.0616939 0.00185661 0)
(0.0648003 0.00208781 0)
(0.0674556 0.00233442 0)
(0.0697318 0.00259869 0)
(0.0716975 0.00288265 0)
(0.0734203 0.00318805 0)
(0.0749661 0.00351616 0)
(0.0764014 0.00386771 0)
(0.0777928 0.00424274 0)
(0.0792076 0.00464035 0)
(0.0807125 0.0050583 0)
(0.0823725 0.00549271 0)
(0.0842488 0.00593768 0)
(0.086392 0.00638489 0)
(0.0888332 0.00682318 0)
(0.0915718 0.00723855 0)
(0.0945593 0.00761451 0)
(0.0976864 0.00793372 0)
(0.100757 0.00817738 0)
(0.103497 0.00832875 0)
(0.105675 0.00838744 0)
(0.106756 0.00838707 0)
(0 0 0)
(0.0109297 0.000248058 0)
(0.0208489 0.000480124 0)
(0.0295451 0.000696491 0)
(0.0371533 0.000903762 0)
(0.043798 0.0011073 0)
(0.0495907 0.0013115 0)
(0.0546319 0.00152007 0)
(0.059014 0.00173623 0)
(0.0628221 0.00196281 0)
(0.0661318 0.00220193 0)
(0.0690172 0.00245557 0)
(0.0715511 0.00272551 0)
(0.0738041 0.00301333 0)
(0.0758473 0.00332039 0)
(0.0777489 0.00364732 0)
(0.0795769 0.00399407 0)
(0.0813991 0.00435983 0)
(0.0832832 0.00474275 0)
(0.0852955 0.00513975 0)
(0.0874991 0.00554624 0)
(0.0899503 0.00595608 0)
(0.0926929 0.00636153 0)
(0.0957486 0.00675353 0)
(0.0991053 0.00712259 0)
(0.102702 0.00746009 0)
(0.106416 0.00776026 0)
(0.110029 0.00801736 0)
(0.113223 0.00821974 0)
(0.115694 0.00834499 0)
(0.117073 0.00847592 0)
(0 0 0)
(0.0110307 0.000262397 0)
(0.0210496 0.000507696 0)
(0.0298471 0.000736038 0)
(0.0375623 0.000954248 0)
(0.0443234 0.00116784 0)
(0.0502448 0.00138129 0)
(0.0554296 0.00159833 0)
(0.0599721 0.00182208 0)
(0.0639591 0.00205521 0)
(0.06747 0.00229984 0)
(0.0705796 0.00255762 0)
(0.0733617 0.00282986 0)
(0.0758903 0.00311778 0)
(0.0782372 0.00342223 0)
(0.080472 0.00374319 0)
(0.0826629 0.00407985 0)
(0.0848775 0.00443058 0)
(0.0871822 0.00479271 0)
(0.0896408 0.00516237 0)
(0.0923127 0.00553449 0)
(0.0952491 0.00590282 0)
(0.0984875 0.00626033 0)
(0.102044 0.00660001 0)
(0.105905 0.00691644 0)
(0.110013 0.00720809 0)
(0.114262 0.00748057 0)
(0.118451 0.00774421 0)
(0.122255 0.00800079 0)
(0.125253 0.00820895 0)
(0.127459 0.00846504 0)
(0 0 0)
(0.0111326 0.00027538 0)
(0.0212518 0.000532612 0)
(0.0301509 0.000771661 0)
(0.0379735 0.000999515 0)
(0.0448509 0.00122179 0)
(0.0509002 0.001443 0)
(0.056227 0.00166683 0)
(0.0609271 0.00189631 0)
(0.0650889 0.00213391 0)
(0.0687942 0.00238162 0)
(0.0721181 0.00264078 0)
(0.0751358 0.00291235 0)
(0.0779224 0.00319704 0)
(0.0805499 0.0034951 0)
(0.0830886 0.00380599 0)
(0.0856049 0.00412817 0)
(0.0881644 0.00445924 0)
(0.0908303 0.0047958 0)
(0.0936624 0.00513333 0)
(0.0967141 0.0054663 0)
(0.10003 0.0057883 0)
(0.103641 0.00609259 0)
(0.107559 0.00637304 0)
(0.11177 0.0066258 0)
(0.116227 0.00685187 0)
(0.120854 0.00706147 0)
(0.125497 0.00727794 0)
(0.129891 0.00753465 0)
(0.133603 0.00782577 0)
(0.137701 0.00839035 0)
(0 0 0)
(0.0112346 0.000287061 0)
(0.0214541 0.00055498 0)
(0.0304547 0.000803516 0)
(0.0383841 0.00103977 0)
(0.0453769 0.00126942 0)
(0.0515526 0.00149695 0)
(0.0570185 0.00172599 0)
(0.0618722 0.00195944 0)
(0.0662031 0.00219956 0)
(0.070094 0.00244808 0)
(0.0736218 0.00270614 0)
(0.0768608 0.00297431 0)
(0.0798856 0.00325278 0)
(0.0827691 0.00354127 0)
(0.0855791 0.00383864 0)
(0.0883796 0.00414272 0)
(0.0912324 0.00445047 0)
(0.0941958 0.00475785 0)
(0.097323 0.00505981 0)
(0.10066 0.00535038 0)
(0.104241 0.00562283 0)
(0.10809 0.00587016 0)
(0.112208 0.00608565 0)
(0.116577 0.00626381 0)
(0.121152 0.00640111 0)
(0.125862 0.00649657 0)
(0.130573 0.00655068 0)
(0.135083 0.00655055 0)
(0.139105 0.00640698 0)
(0.147839 0.0083841 0)
(0 0 0)
(0.010225 0 0)
(0.0194403 0 0)
(0.0274112 0 0)
(0.0342423 0 0)
(0.0400312 0 0)
(0.0448643 0 0)
(0.048818 0 0)
(0.0519599 0 0)
(0.0543499 0 0)
(0.05604 0 0)
(0.057075 0 0)
(0.0574937 0 0)
(0.0573304 0 0)
(0.056615 0 0)
(0.055375 0 0)
(0.053635 0 0)
(0.0514184 0 0)
(0.0487496 0 0)
(0.0456551 0 0)
(0.042165 0 0)
(0.0383147 0 0)
(0.0341475 0 0)
(0.0297184 0 0)
(0.0250992 0 0)
(0.0203893 0 0)
(0.0157251 0 0)
(0.0112975 0 0)
(0.00739366 0 0)
(0.00454918 0 0)
(1.08016e-16 0 0)
(0 0 0)
(0.0102294 2.34736e-05 0)
(0.0194499 4.55148e-05 0)
(0.0274266 6.6253e-05 0)
(0.034264 8.64222e-05 0)
(0.0400601 0.000106643 0)
(0.0449014 0.000127451 0)
(0.0488643 0.00014931 0)
(0.0520168 0.00017263 0)
(0.0544191 0.000197863 0)
(0.0561236 0.000225518 0)
(0.0571751 0.000256003 0)
(0.0576131 0.000289773 0)
(0.0574721 0.00032744 0)
(0.0567826 0.000369692 0)
(0.0555725 0.000417421 0)
(0.0538673 0.000471206 0)
(0.0516907 0.000531786 0)
(0.049068 0.000600473 0)
(0.0460267 0.000678612 0)
(0.0425981 0.000767747 0)
(0.0388191 0.00086971 0)
(0.0347347 0.000986714 0)
(0.0304017 0.00112147 0)
(0.0258933 0.00127735 0)
(0.0213129 0.00145979 0)
(0.0168054 0.00167479 0)
(0.0125733 0.00192699 0)
(0.00891983 0.0022156 0)
(0.00637765 0.00251531 0)
(0.00293324 0.00301953 0)
(0 0 0)
(0.0102452 4.68458e-05 0)
(0.0194821 9.08331e-05 0)
(0.0274761 0.000132215 0)
(0.0343326 0.000172452 0)
(0.0401501 0.00021278 0)
(0.0450158 0.000254272 0)
(0.0490064 0.000297848 0)
(0.0521902 0.000344303 0)
(0.0546289 0.000394524 0)
(0.056376 0.000449581 0)
(0.0574768 0.000510234 0)
(0.0579718 0.000577331 0)
(0.0578971 0.000652111 0)
(0.0572838 0.000735848 0)
(0.0561616 0.000830031 0)
(0.0545584 0.000936001 0)
(0.0525 0.00105548 0)
(0.0500134 0.00119082 0)
(0.0471292 0.00134451 0)
(0.0438821 0.00151944 0)
(0.0403131 0.001719 0)
(0.0364726 0.00194717 0)
(0.0324242 0.0022087 0)
(0.0282458 0.00250942 0)
(0.0240457 0.00285702 0)
(0.0199827 0.00325865 0)
(0.016287 0.00371838 0)
(0.0132855 0.00422503 0)
(0.0114737 0.00471863 0)
(0.008912 0.00538955 0)
(0 0 0)
(0.0102724 7.00088e-05 0)
(0.0195368 0.000135743 0)
(0.0275599 0.000197569 0)
(0.0344482 0.000257657 0)
(0.0403015 0.000317849 0)
(0.0452079 0.000379755 0)
(0.049244 0.000444755 0)
(0.0524795 0.000513949 0)
(0.0549781 0.000588611 0)
(0.0567947 0.000670236 0)
(0.0579756 0.000760026 0)
(0.0585641 0.000859367 0)
(0.0585981 0.000969948 0)
(0.0581105 0.00109343 0)
(0.0571324 0.00123154 0)
(0.0556955 0.00138662 0)
(0.0538296 0.00156152 0)
(0.0515645 0.00175914 0)
(0.0489355 0.00198283 0)
(0.0459825 0.00223644 0)
(0.0427526 0.0025243 0)
(0.0393036 0.00285143 0)
(0.0357087 0.00322349 0)
(0.0320575 0.00364701 0)
(0.0284647 0.00412737 0)
(0.0250916 0.00466762 0)
(0.0221772 0.00526474 0)
(0.0200526 0.00589077 0)
(0.0191319 0.00645748 0)
(0.0175816 0.0071667 0)
(0 0 0)
(0.0103103 9.28418e-05 0)
(0.0196132 0.000180006 0)
(0.0276766 0.000261957 0)
(0.0346089 0.000341547 0)
(0.0405118 0.000421204 0)
(0.0454746 0.000503089 0)
(0.0495735 0.000588865 0)
(0.052879 0.000679947 0)
(0.0554591 0.000778083 0)
(0.0573703 0.000884932 0)
(0.0586612 0.00100228 0)
(0.059378 0.00113216 0)
(0.0595609 0.00127647 0)
(0.0592457 0.00143715 0)
(0.0584664 0.00161631 0)
(0.0572579 0.00181696 0)
(0.0556546 0.00204244 0)
(0.0536909 0.00229606 0)
(0.0514076 0.00258177 0)
(0.0488514 0.00290382 0)
(0.0460759 0.00326662 0)
(0.0431463 0.00367498 0)
(0.0401442 0.00413381 0)
(0.0371717 0.0046475 0)
(0.034354 0.00521706 0)
(0.0318513 0.00583892 0)
(0.0298756 0.00649781 0)
(0.0287212 0.00715012 0)
(0.0286935 0.00769643 0)
(0.0281259 0.00833903 0)
(0 0 0)
(0.0103587 0.000115214 0)
(0.0197105 0.000223362 0)
(0.027825 0.000324988 0)
(0.0348127 0.000423588 0)
(0.0407783 0.00052214 0)
(0.0458114 0.00062323 0)
(0.0499872 0.000728711 0)
(0.0533806 0.000840502 0)
(0.0560635 0.000960879 0)
(0.058094 0.00109167 0)
(0.0595238 0.00123504 0)
(0.0604015 0.0013934 0)
(0.0607709 0.00156894 0)
(0.060671 0.00176375 0)
(0.06014 0.00198035 0)
(0.0592172 0.002222 0)
(0.0579412 0.00249203 0)
(0.0563504 0.00279391 0)
(0.0544928 0.00313188 0)
(0.0524237 0.00351002 0)
(0.0502017 0.00393177 0)
(0.0478983 0.00440044 0)
(0.0456005 0.00491839 0)
(0.0434151 0.0054857 0)
(0.0414711 0.00609788 0)
(0.0399224 0.00674305 0)
(0.0389421 0.00739494 0)
(0.038744 0.00800097 0)
(0.0394961 0.00846654 0)
(0.0397784 0.00900238 0)
(0 0 0)
(0.0104172 0.000136988 0)
(0.0198278 0.000265544 0)
(0.0280033 0.00038626 0)
(0.0350568 0.000503231 0)
(0.041096 0.000619914 0)
(0.0462107 0.000739116 0)
(0.0504779 0.000863201 0)
(0.0539775 0.000994645 0)
(0.0567838 0.00113592 0)
(0.0589569 0.00128917 0)
(0.0605512 0.00145667 0)
(0.0616188 0.00164106 0)
(0.0622064 0.00184461 0)
(0.0623576 0.00206953 0)
(0.0621166 0.00231876 0)
(0.0615276 0.00259558 0)
(0.0606346 0.00290308 0)
(0.0594801 0.00324455 0)
(0.0581179 0.00362411 0)
(0.0566104 0.00404477 0)
(0.055021 0.00450818 0)
(0.0534247 0.0050153 0)
(0.05191 0.00556482 0)
(0.0505805 0.00615154 0)
(0.0495555 0.0067642 0)
(0.0489651 0.00738277 0)
(0.048939 0.00797451 0)
(0.0495897 0.00848597 0)
(0.050941 0.00884028 0)
(0.0518133 0.00921419 0)
(0 0 0)
(0.0104851 0.00015803 0)
(0.0199636 0.000306283 0)
(0.0282092 0.000445375 0)
(0.035338 0.000579946 0)
(0.0414594 0.000713853 0)
(0.0466666 0.000850161 0)
(0.0510408 0.000991775 0)
(0.0546632 0.00114156 0)
(0.0576103 0.00130217 0)
(0.0599458 0.00147593 0)
(0.0617262 0.00166511 0)
(0.0630065 0.00187232 0)
(0.0638364 0.00209975 0)
(0.0642669 0.00235007 0)
(0.0643493 0.00262655 0)
(0.064132 0.00293205 0)
(0.0636652 0.00326931 0)
(0.0630001 0.00364149 0)
(0.062191 0.00405154 0)
(0.0613009 0.00450056 0)
(0.0603996 0.00498833 0)
(0.0595629 0.00551303 0)
(0.0588749 0.00606929 0)
(0.0584277 0.00664655 0)
(0.0583174 0.00722716 0)
(0.0586367 0.00778484 0)
(0.0594602 0.00828353 0)
(0.0607953 0.00867581 0)
(0.0625426 0.00891157 0)
(0.06382 0.00916506 0)
(0 0 0)
(0.0105615 0.000178208 0)
(0.0201162 0.000345321 0)
(0.0284402 0.000501951 0)
(0.0356526 0.000653233 0)
(0.041865 0.000803394 0)
(0.0471748 0.000955877 0)
(0.051668 0.00111381 0)
(0.0554273 0.00128036 0)
(0.0585307 0.00145843 0)
(0.0610444 0.00165038 0)
(0.0630282 0.00185843 0)
(0.0645392 0.00208489 0)
(0.0656336 0.00233226 0)
(0.0663694 0.00260355 0)
(0.0668018 0.00290168 0)
(0.0669844 0.00322908 0)
(0.0669736 0.00358811 0)
(0.0668294 0.00398129 0)
(0.0666069 0.00440987 0)
(0.0663671 0.00487311 0)
(0.0661833 0.00536907 0)
(0.0661287 0.0058931 0)
(0.0662779 0.00643614 0)
(0.0667023 0.00698325 0)
(0.0674641 0.00751208 0)
(0.0686048 0.0079926 0)
(0.0701379 0.00838787 0)
(0.0719764 0.00865905 0)
(0.0739338 0.00878406 0)
(0.0754224 0.0088608 0)
(0 0 0)
(0.0106454 0.000197398 0)
(0.0202835 0.000382417 0)
(0.0286929 0.000555632 0)
(0.0359965 0.000722628 0)
(0.0423084 0.000887986 0)
(0.0477299 0.00105549 0)
(0.0523514 0.00122847 0)
(0.0562585 0.00141021 0)
(0.0595298 0.00160364 0)
(0.0622342 0.00181125 0)
(0.0644346 0.00203519 0)
(0.0661925 0.00227763 0)
(0.0675709 0.00254135 0)
(0.0686312 0.00282903 0)
(0.069432 0.00314301 0)
(0.0700325 0.00348536 0)
(0.0704935 0.00385778 0)
(0.0708791 0.00426164 0)
(0.0712492 0.00469676 0)
(0.0716668 0.00516118 0)
(0.0722024 0.00565119 0)
(0.0729233 0.00615983 0)
(0.0738896 0.00667559 0)
(0.0751473 0.00718112 0)
(0.0767174 0.00765226 0)
(0.0785833 0.00805876 0)
(0.0806871 0.00836568 0)
(0.0828656 0.00854233 0)
(0.0848958 0.00858764 0)
(0.0863049 0.00847639 0)
(0 0 0)
(0.0107356 0.000215494 0)
(0.0204631 0.000417359 0)
(0.028964 0.000606109 0)
(0.0363648 0.000787724 0)
(0.0427831 0.000967098 0)
(0.0483238 0.00114829 0)
(0.0530812 0.00133482 0)
(0.0571431 0.00152998 0)
(0.0605903 0.00173669 0)
(0.063494 0.00195742 0)
(0.0659197 0.00219419 0)
(0.067935 0.0024493 0)
(0.069607 0.00272528 0)
(0.0709994 0.00302431 0)
(0.0721753 0.00334825 0)
(0.0731977 0.00369853 0)
(0.074131 0.00407607 0)
(0.0750411 0.00448101 0)
(0.0759924 0.0049121 0)
(0.0770505 0.00536636 0)
(0.078281 0.00583864 0)
(0.0797428 0.00632076 0)
(0.0814805 0.00680051 0)
(0.0835142 0.00726088 0)
(0.085825 0.00767968 0)
(0.0883425 0.00803095 0)
(0.0909302 0.00828587 0)
(0.0933653 0.00842149 0)
(0.0954277 0.00844524 0)
(0.0965619 0.00832425 0)
(0 0 0)
(0.0108308 0.000232404 0)
(0.0206525 0.000449975 0)
(0.0292494 0.000653129 0)
(0.0367522 0.000848189 0)
(0.0432821 0.00104031 0)
(0.0489472 0.00123374 0)
(0.0538453 0.00143215 0)
(0.0580664 0.0016388 0)
(0.0616939 0.00185661 0)
(0.0648003 0.00208781 0)
(0.0674556 0.00233442 0)
(0.0697318 0.00259869 0)
(0.0716975 0.00288265 0)
(0.0734203 0.00318805 0)
(0.0749661 0.00351616 0)
(0.0764014 0.00386771 0)
(0.0777928 0.00424274 0)
(0.0792076 0.00464035 0)
(0.0807125 0.0050583 0)
(0.0823725 0.00549271 0)
(0.0842488 0.00593768 0)
(0.086392 0.00638489 0)
(0.0888332 0.00682318 0)
(0.0915718 0.00723855 0)
(0.0945593 0.00761451 0)
(0.0976864 0.00793372 0)
(0.100757 0.00817738 0)
(0.103497 0.00832875 0)
(0.105675 0.00838744 0)
(0.106756 0.00838707 0)
(0 0 0)
(0.0109297 0.000248058 0)
(0.0208489 0.000480124 0)
(0.0295451 0.000696491 0)
(0.0371533 0.000903762 0)
(0.043798 0.0011073 0)
(0.0495907 0.0013115 0)
(0.0546319 0.00152007 0)
(0.059014 0.00173623 0)
(0.0628221 0.00196281 0)
(0.0661318 0.00220193 0)
(0.0690172 0.00245557 0)
(0.0715511 0.00272551 0)
(0.0738041 0.00301333 0)
(0.0758473 0.00332039 0)
(0.0777489 0.00364732 0)
(0.0795769 0.00399407 0)
(0.0813991 0.00435983 0)
(0.0832832 0.00474275 0)
(0.0852955 0.00513975 0)
(0.0874991 0.00554624 0)
(0.0899503 0.00595608 0)
(0.0926929 0.00636153 0)
(0.0957486 0.00675353 0)
(0.0991053 0.00712259 0)
(0.102702 0.00746009 0)
(0.106416 0.00776026 0)
(0.110029 0.00801736 0)
(0.113223 0.00821974 0)
(0.115694 0.00834499 0)
(0.117073 0.00847592 0)
(0 0 0)
(0.0110307 0.000262397 0)
(0.0210496 0.000507696 0)
(0.0298471 0.000736038 0)
(0.0375623 0.000954248 0)
(0.0443234 0.00116784 0)
(0.0502448 0.00138129 0)
(0.0554296 0.00159833 0)
(0.0599721 0.00182208 0)
(0.0639591 0.00205521 0)
(0.06747 0.00229984 0)
(0.0705796 0.00255762 0)
(0.0733617 0.00282986 0)
(0.0758903 0.00311778 0)
(0.0782372 0.00342223 0)
(0.080472 0.00374319 0)
(0.0826629 0.00407985 0)
(0.0848775 0.00443058 0)
(0.0871822 0.00479271 0)
(0.0896408 0.00516237 0)
(0.0923127 0.00553449 0)
(0.0952491 0.00590282 0)
(0.0984875 0.00626033 0)
(0.102044 0.00660001 0)
(0.105905 0.00691644 0)
(0.110013 0.00720809 0)
(0.114262 0.00748057 0)
(0.118451 0.00774421 0)
(0.122255 0.00800079 0)
(0.125253 0.00820895 0)
(0.127459 0.00846504 0)
(0 0 0)
(0.0111326 0.00027538 0)
(0.0212518 0.000532612 0)
(0.0301509 0.000771661 0)
(0.0379735 0.000999515 0)
(0.0448509 0.00122179 0)
(0.0509002 0.001443 0)
(0.056227 0.00166683 0)
(0.0609271 0.00189631 0)
(0.0650889 0.00213391 0)
(0.0687942 0.00238162 0)
(0.0721181 0.00264078 0)
(0.0751358 0.00291235 0)
(0.0779224 0.00319704 0)
(0.0805499 0.0034951 0)
(0.0830886 0.00380599 0)
(0.0856049 0.00412817 0)
(0.0881644 0.00445924 0)
(0.0908303 0.0047958 0)
(0.0936624 0.00513333 0)
(0.0967141 0.0054663 0)
(0.10003 0.0057883 0)
(0.103641 0.00609259 0)
(0.107559 0.00637304 0)
(0.11177 0.0066258 0)
(0.116227 0.00685187 0)
(0.120854 0.00706147 0)
(0.125497 0.00727794 0)
(0.129891 0.00753465 0)
(0.133603 0.00782577 0)
(0.137701 0.00839035 0)
(0 0 0)
(0.0112346 0.000287061 0)
(0.0214541 0.00055498 0)
(0.0304547 0.000803516 0)
(0.0383841 0.00103977 0)
(0.0453769 0.00126942 0)
(0.0515526 0.00149695 0)
(0.0570185 0.00172599 0)
(0.0618722 0.00195944 0)
(0.0662031 0.00219956 0)
(0.070094 0.00244808 0)
(0.0736218 0.00270614 0)
(0.0768608 0.00297431 0)
(0.0798856 0.00325278 0)
(0.0827691 0.00354127 0)
(0.0855791 0.00383864 0)
(0.0883796 0.00414272 0)
(0.0912324 0.00445047 0)
(0.0941958 0.00475785 0)
(0.097323 0.00505981 0)
(0.10066 0.00535038 0)
(0.104241 0.00562283 0)
(0.10809 0.00587016 0)
(0.112208 0.00608565 0)
(0.116577 0.00626381 0)
(0.121152 0.00640111 0)
(0.125862 0.00649657 0)
(0.130573 0.00655068 0)
(0.135083 0.00655055 0)
(0.139105 0.00640698 0)
(0.147839 0.0083841 0)
(-2.99532e-17 0 0)
(0.00597674 0 0)
(0.0105237 0 0)
(0.0167872 0 0)
(0.0239208 0 0)
(0.0312938 0 0)
(0.0384867 0 0)
(0.0452483 0 0)
(0.0514376 0 0)
(0.0569722 0 0)
(0.0618081 0 0)
(0.065926 0 0)
(0.0693205 0 0)
(0.0719956 0 0)
(0.0739566 0 0)
(0.0752092 0 0)
(0.0757623 0 0)
(0.0756189 0 0)
(0.0747735 0 0)
(0.073216 0 0)
(0.0709293 0 0)
(0.0678889 0 0)
(0.0640635 0 0)
(0.0594156 0 0)
(0.053903 0 0)
(0.0474781 0 0)
(0.0400892 0 0)
(0.0316796 0 0)
(0.0221886 0 0)
(0.011551 0 0)
(0 0 0)
(0.00291565 -0.00293914 0)
(0.00784303 -0.00248878 0)
(0.0122697 -0.00232571 0)
(0.0183534 -0.00208502 0)
(0.0252933 -0.00183393 0)
(0.0324732 -0.00159891 0)
(0.0394855 -0.00138881 0)
(0.0460897 -0.00120454 0)
(0.0521459 -0.00104482 0)
(0.0575675 -0.00090713 0)
(0.0623077 -0.000788607 0)
(0.0663445 -0.00068663 0)
(0.0696702 -0.000598596 0)
(0.0722865 -0.000522063 0)
(0.0741978 -0.00045503 0)
(0.0754093 -0.00039663 0)
(0.0759285 -0.000346107 0)
(0.0757565 -0.000302004 0)
(0.0748872 -0.000263408 0)
(0.0733096 -0.000229698 0)
(0.0710065 -0.000199989 0)
(0.0679525 -0.000173463 0)
(0.0641157 -0.000149595 0)
(0.0594581 -0.000127924 0)
(0.0539371 -0.00010802 0)
(0.0475051 -8.94321e-05 0)
(0.0401099 -7.17233e-05 0)
(0.0316949 -5.4419e-05 0)
(0.0221984 -3.70074e-05 0)
(0.0115551 -1.89232e-05 0)
(0 0 0)
(0.00887838 -0.00522063 0)
(0.0130741 -0.00464571 0)
(0.0172281 -0.00436068 0)
(0.0228408 -0.00393694 0)
(0.0292396 -0.00348687 0)
(0.0358723 -0.00305737 0)
(0.0423804 -0.00266786 0)
(0.0485443 -0.00232405 0)
(0.0542206 -0.00202384 0)
(0.0593164 -0.00176309 0)
(0.0637783 -0.00153713 0)
(0.0675789 -0.00134178 0)
(0.0707031 -0.00117241 0)
(0.073147 -0.00102454 0)
(0.074913 -0.000894851 0)
(0.0760041 -0.000781569 0)
(0.0764233 -0.000683089 0)
(0.0761671 -0.00059677 0)
(0.0752265 -0.000520978 0)
(0.0735896 -0.000454574 0)
(0.0712376 -0.000395959 0)
(0.0681437 -0.000343678 0)
(0.0642731 -0.000296562 0)
(0.0595868 -0.000253726 0)
(0.0540411 -0.000214352 0)
(0.0475874 -0.000177535 0)
(0.0401735 -0.000142433 0)
(0.0317421 -0.000108105 0)
(0.0222306 -7.35386e-05 0)
(0.011572 -3.76093e-05 0)
(0 0 0)
(0.0175466 -0.0069129 0)
(0.0209305 -0.00629753 0)
(0.0247301 -0.00593926 0)
(0.0296841 -0.00540831 0)
(0.035297 -0.00483418 0)
(0.0411344 -0.00427684 0)
(0.0469084 -0.00376254 0)
(0.052417 -0.00330111 0)
(0.0575155 -0.00289244 0)
(0.0621077 -0.00253297 0)
(0.0661346 -0.00221792 0)
(0.0695614 -0.00194301 0)
(0.0723642 -0.00170306 0)
(0.0745338 -0.00149253 0)
(0.0760696 -0.00130749 0)
(0.0769685 -0.00114521 0)
(0.0772272 -0.00100322 0)
(0.0768361 -0.000878256 0)
(0.075782 -0.00076805 0)
(0.0740494 -0.000670895 0)
(0.0716177 -0.000584861 0)
(0.0684582 -0.000508176 0)
(0.0645332 -0.000439038 0)
(0.0598 -0.000376039 0)
(0.0542135 -0.000317903 0)
(0.0477241 -0.000263435 0)
(0.0402788 -0.000211461 0)
(0.0318202 -0.000160568 0)
(0.0222845 -0.00010927 0)
(0.0116013 -5.59032e-05 0)
(0 0 0)
(0.028093 -0.00800688 0)
(0.0306728 -0.00741188 0)
(0.0340295 -0.00702185 0)
(0.0382186 -0.00645454 0)
(0.042924 -0.0058322 0)
(0.0478421 -0.00521723 0)
(0.0527461 -0.00463755 0)
(0.0574551 -0.00410568 0)
(0.0618337 -0.00362529 0)
(0.0657872 -0.00319557 0)
(0.069254 -0.00281342 0)
(0.0721913 -0.00247536 0)
(0.0745712 -0.00217751 0)
(0.0763823 -0.00191496 0)
(0.0776158 -0.00168325 0)
(0.0782606 -0.00147904 0)
(0.0783057 -0.00129928 0)
(0.0777364 -0.00114066 0)
(0.0765325 -0.00100015 0)
(0.074673 -0.000875378 0)
(0.0721339 -0.000764355 0)
(0.0688842 -0.00066507 0)
(0.0648843 -0.000575478 0)
(0.0600892 -0.000493652 0)
(0.0544495 -0.0004178 0)
(0.047911 -0.000346517 0)
(0.0404224 -0.000278339 0)
(0.0319266 -0.000211467 0)
(0.0223567 -0.000143968 0)
(0.0116389 -7.368e-05 0)
(0 0 0)
(0.0397316 -0.00853017 0)
(0.0415749 -0.00802581 0)
(0.0444311 -0.00764476 0)
(0.0478299 -0.00710149 0)
(0.0516084 -0.00649578 0)
(0.0555737 -0.00588241 0)
(0.0595486 -0.00528828 0)
(0.0633807 -0.00472866 0)
(0.0669517 -0.00421144 0)
(0.0701757 -0.0037397 0)
(0.0729927 -0.00331337 0)
(0.0753569 -0.00293059 0)
(0.0772405 -0.00258935 0)
(0.0786283 -0.00228637 0)
(0.0795009 -0.00201734 0)
(0.0798396 -0.00177878 0)
(0.0796259 -0.00156746 0)
(0.0788394 -0.00138028 0)
(0.0774532 -0.00121376 0)
(0.0754395 -0.00106499 0)
(0.0727696 -0.000931894 0)
(0.0694085 -0.000812235 0)
(0.065315 -0.000703869 0)
(0.0604432 -0.000604623 0)
(0.0547381 -0.000512488 0)
(0.0481405 -0.000425644 0)
(0.0405998 -0.000342212 0)
(0.0320583 -0.000260172 0)
(0.0224458 -0.000177216 0)
(0.0116849 -9.07267e-05 0)
(0 0 0)
(0.0517783 -0.00862207 0)
(0.0530108 -0.00822788 0)
(0.0553568 -0.00788972 0)
(0.0580071 -0.00741514 0)
(0.0609084 -0.00687202 0)
(0.0639497 -0.00630244 0)
(0.0669939 -0.00573168 0)
(0.0699228 -0.00517763 0)
(0.0726437 -0.00465246 0)
(0.0750869 -0.00416345 0)
(0.0772004 -0.00371405 0)
(0.0789422 -0.00330493 0)
(0.0802831 -0.00293559 0)
(0.0812004 -0.00260419 0)
(0.0816681 -0.00230754 0)
(0.0816606 -0.00204251 0)
(0.0811521 -0.00180607 0)
(0.0801153 -0.00159524 0)
(0.0785183 -0.00140674 0)
(0.0763271 -0.00123759 0)
(0.0735069 -0.00108545 0)
(0.0700182 -0.000947934 0)
(0.0658167 -0.000822784 0)
(0.0608523 -0.000707792 0)
(0.0550675 -0.000600882 0)
(0.0484033 -0.000499803 0)
(0.0408052 -0.000402286 0)
(0.0322113 -0.000306095 0)
(0.0225491 -0.00020862 0)
(0.0117378 -0.000106845 0)
(0 0 0)
(0.063761 -0.00842242 0)
(0.0645076 -0.00812483 0)
(0.0663768 -0.00785861 0)
(0.0683689 -0.00748055 0)
(0.0704832 -0.00702495 0)
(0.0726616 -0.00652215 0)