/*--------------------------------*- C++ -*----------------------------------*\
| =========                 |                                                 |
| \\      /  F ield         | OpenFOAM: The Open Source CFD Toolbox           |
|  \\    /   O peration     | Version:  5.x                                   |
|   \\  /    A nd           | Web:      www.OpenFOAM.org                      |
|    \\/     M anipulation  |                                                 |
\*---------------------------------------------------------------------------*/
FoamFile
{
    version     2.0;
    format      ascii;
    class       volVectorField;
    location    "0.7";
    object      cellDisplacement;
}
// * * * * * * * * * * * * * * * * * * * * * * * * * * * * * * * * * * * * * //

dimensions      [0 1 0 0 0 0 0];

internalField   nonuniform List<vector> 
2790
(
(0.00785571 1.21417e-05 0)
(0.0224642 3.52335e-05 0)
(0.0350106 5.64338e-05 0)
(0.045653 7.65187e-05 0)
(0.0545618 9.613e-05 0)
(0.061893 0.000115746 0)
(0.0677866 0.000135811 0)
(0.0723659 0.000156705 0)
(0.075739 0.000178763 0)
(0.0780018 0.000202278 0)
(0.0792396 0.000227391 0)
(0.0795298 0.000254411 0)
(0.0789413 0.000283601 0)
(0.0775366 0.000315195 0)
(0.0753739 0.000349404 0)
(0.0725085 0.000386428 0)
(0.0689952 0.000426455 0)
(0.0648895 0.000469677 0)
(0.0602507 0.000516301 0)
(0.0551429 0.000566512 0)
(0.0496317 0.000619675 0)
(0.0437932 0.000675964 0)
(0.0377228 0.000736171 0)
(0.0315315 0.000800124 0)
(0.0253521 0.000867778 0)
(0.0193495 0.000939081 0)
(0.0137354 0.0010136 0)
(0.00879028 0.0010895 0)
(0.0049033 0.0011619 0)
(0.00274134 0.00122459 0)
(0.00786724 3.63747e-05 0)
(0.0224985 0.000105556 0)
(0.0350675 0.000169071 0)
(0.045733 0.000229239 0)
(0.0546662 0.000287993 0)
(0.0620238 0.000346741 0)
(0.0679472 0.000406826 0)
(0.07256 0.000469384 0)
(0.0759711 0.000535425 0)
(0.0782766 0.000605866 0)
(0.0795623 0.000681021 0)
(0.079907 0.000761879 0)
(0.0793802 0.000849234 0)
(0.0780452 0.000943776 0)
(0.0759608 0.00104614 0)
(0.0731832 0.00115692 0)
(0.0697677 0.00127667 0)
(0.0657705 0.00140594 0)
(0.0612514 0.00154538 0)
(0.0562802 0.00169614 0)
(0.0509195 0.00185523 0)
(0.0452411 0.00202303 0)
(0.0393465 0.00220314 0)
(0.0333479 0.00239421 0)
(0.0273776 0.00259606 0)
(0.0216002 0.00280873 0)
(0.0162301 0.00303211 0)
(0.011559 0.00326414 0)
(0.00798372 0.00349398 0)
(0.00615472 0.00369642 0)
(0.00789118 6.04633e-05 0)
(0.0225695 0.000175463 0)
(0.0351842 0.00028104 0)
(0.0458966 0.000381032 0)
(0.0548787 0.000478699 0)
(0.062289 0.000576275 0)
(0.0682716 0.000676048 0)
(0.0729514 0.000779893 0)
(0.076438 0.000889486 0)
(0.0788283 0.00100657 0)
(0.0802089 0.00113117 0)
(0.0806617 0.00126524 0)
(0.0802575 0.00141007 0)
(0.0790609 0.00156681 0)
(0.0771323 0.00173649 0)
(0.0745294 0.00192009 0)
(0.071309 0.00211851 0)
(0.0675282 0.00233255 0)
(0.0632448 0.00256293 0)
(0.058536 0.00280961 0)
(0.053479 0.00307288 0)
(0.0481314 0.00335406 0)
(0.0425893 0.00365287 0)
(0.0369784 0.00396845 0)
(0.031429 0.00430048 0)
(0.0261027 0.00464858 0)
(0.02121 0.00501329 0)
(0.0170744 0.00539987 0)
(0.0141093 0.00579779 0)
(0.0129321 0.00616251 0)
(0.00792713 8.43168e-05 0)
(0.022676 0.000244693 0)
(0.0353589 0.000391915 0)
(0.0461415 0.00053129 0)
(0.0551966 0.00066751 0)
(0.0626847 0.000803394 0)
(0.0687557 0.0009423 0)
(0.0735351 0.0010868 0)
(0.0771343 0.00123913 0)
(0.0796471 0.00140052 0)
(0.0811673 0.00157303 0)
(0.0817797 0.0017588 0)
(0.0815564 0.00195943 0)
(0.0805641 0.00217645 0)
(0.0788655 0.00241129 0)
(0.0765205 0.00266527 0)
(0.0735885 0.00293962 0)
(0.0701297 0.00323534 0)
(0.0662062 0.00355293 0)
(0.0618856 0.00389177 0)
(0.0572522 0.00425559 0)
(0.0523881 0.00464562 0)
(0.0473789 0.00505757 0)
(0.0423489 0.00549164 0)
(0.0374388 0.00594706 0)
(0.0328129 0.00642237 0)
(0.0286599 0.00691706 0)
(0.025285 0.00743081 0)
(0.0232101 0.00796429 0)
(0.0230095 0.00845639 0)
(0.00797504 0.000107842 0)
(0.0228179 0.000312978 0)
(0.0355907 0.000501267 0)
(0.0464664 0.000679359 0)
(0.0556159 0.000852722 0)
(0.0632049 0.00102588 0)
(0.0693922 0.00120285 0)
(0.0743022 0.0013868 0)
(0.078046 0.0015805 0)
(0.0807201 0.00178452 0)
(0.0824262 0.00200326 0)
(0.0832484 0.00223865 0)
(0.0832623 0.0024927 0)
(0.0825377 0.00276731 0)
(0.0811405 0.00306422 0)
(0.0791335 0.00338508 0)
(0.0765793 0.00373143 0)
(0.073543 0.00410465 0)
(0.0700903 0.00450541 0)
(0.0662911 0.00493396 0)
(0.0622177 0.00539118 0)
(0.0579726 0.00587967 0)
(0.0536491 0.00639594 0)
(0.0493693 0.00693863 0)
(0.0452864 0.00750622 0)
(0.0415747 0.00809483 0)
(0.0384334 0.00869848 0)
(0.0360892 0.00930577 0)
(0.0350831 0.00991102 0)
(0.0360638 0.010453 0)
(0.00803451 0.000130825 0)
(0.0229945 0.00037968 0)
(0.0358763 0.000608058 0)
(0.046856 0.000823643 0)
(0.0561218 0.00103303 0)
(0.0638431 0.00124239 0)
(0.0701739 0.00145609 0)
(0.0752449 0.00167796 0)
(0.0791628 0.00191029 0)
(0.082036 0.00215594 0)
(0.0839687 0.00241873 0)
(0.0850471 0.00270117 0)
(0.0853507 0.00300573 0)
(0.0849532 0.0033346 0)
(0.0839242 0.00368985 0)
(0.0823305 0.00407337 0)
(0.080238 0.00448701 0)
(0.0777199 0.00493285 0)
(0.0748461 0.00541158 0)
(0.0716933 0.0059236 0)
(0.0683347 0.00647053 0)
(0.0648577 0.00705121 0)
(0.0613731 0.00766217 0)
(0.0579978 0.00830091 0)
(0.0549064 0.00896539 0)
(0.0522807 0.00964683 0)
(0.0503202 0.010332 0)
(0.0492461 0.0110027 0)
(0.0494424 0.0116287 0)
(0.0516364 0.0121561 0)
(0.00810437 0.000153135 0)
(0.0232041 0.000444432 0)
(0.0362127 0.000711259 0)
(0.0473144 0.000962923 0)
(0.0567183 0.00120756 0)
(0.0645924 0.0014517 0)
(0.0710915 0.00170052 0)
(0.0763471 0.00195844 0)
(0.08047 0.00222737 0)
(0.0835792 0.00251226 0)
(0.0857769 0.00281639 0)
(0.0871541 0.00314275 0)
(0.0877957 0.00349424 0)
(0.0877796 0.00387333 0)
(0.0871801 0.00428233 0)
(0.086069 0.00472334 0)
(0.0845123 0.00519817 0)
(0.0825983 0.00571049 0)
(0.080399 0.00626045 0)
(0.077994 0.006849 0)
(0.0754781 0.0074777 0)
(0.0729225 0.0081418 0)
(0.0704445 0.00883881 0)
(0.068155 0.00956476 0)
(0.0662018 0.0103119 0)
(0.0648183 0.0110695 0)
(0.0641834 0.0118161 0)
(0.0644931 0.012524 0)
(0.0660036 0.0131539 0)
(0.0693824 0.0136541 0)
(0.0081835 0.000174657 0)
(0.0234326 0.00050671 0)
(0.0365858 0.000810583 0)
(0.0478364 0.00109708 0)
(0.0573981 0.00137536 0)
(0.065445 0.0016526 0)
(0.0721356 0.00193465 0)
(0.077598 0.00222578 0)
(0.0819555 0.00252987 0)
(0.0853303 0.00285126 0)
(0.087827 0.00319362 0)
(0.0895407 0.00356024 0)
(0.0905633 0.00395463 0)
(0.090977 0.00437937 0)
(0.0908624 0.004837 0)
(0.090299 0.00532982 0)
(0.0893628 0.00586114 0)
(0.0881337 0.00643301 0)
(0.086696 0.00704564 0)
(0.0851287 0.00770008 0)
(0.0835448 0.00839818 0)
(0.0820295 0.009136 0)
(0.0807007 0.00990987 0)
(0.0796729 0.0107126 0)
(0.0790373 0.0115317 0)
(0.079042 0.0123542 0)
(0.0798638 0.0131502 0)
(0.0816487 0.0138851 0)
(0.0845443 0.01452 0)
(0.0891081 0.015005 0)
(0.00827169 0.000195301 0)
(0.0236917 0.000566516 0)
(0.0370046 0.000905811 0)
(0.0484168 0.00122542 0)
(0.0581536 0.00153562 0)
(0.0663906 0.00184407 0)
(0.0732874 0.00215701 0)
(0.0789802 0.00247909 0)
(0.0836021 0.00281595 0)
(0.087269 0.00317074 0)
(0.0900943 0.00354778 0)
(0.092176 0.00395044 0)
(0.0936167 0.00438321 0)
(0.0945011 0.00484837 0)
(0.0949168 0.0053488 0)
(0.0949502 0.0058873 0)
(0.0946913 0.00646736 0)
(0.0942162 0.0070896 0)
(0.0936217 0.00775539 0)
(0.0930008 0.00846711 0)
(0.0924498 0.00922415 0)
(0.092071 0.0100229 0)
(0.092003 0.0108605 0)
(0.092364 0.0117274 0)
(0.0932485 0.0126113 0)
(0.0947655 0.0134886 0)
(0.0971733 0.0143291 0)
(0.100537 0.0150909 0)
(0.10489 0.0157352 0)
(0.110632 0.0162049 0)
(0.00836845 0.000214983 0)
(0.0239652 0.00062327 0)
(0.0374512 0.00099611 0)
(0.0490483 0.00134727 0)
(0.0589765 0.00168749 0)
(0.0674199 0.00202512 0)
(0.0745425 0.00236687 0)
(0.0804906 0.00271833 0)
(0.0853913 0.00308422 0)
(0.0893712 0.00346895 0)
(0.0925507 0.00387695 0)
(0.0950379 0.0043125 0)
(0.09693 0.00477899 0)
(0.0983193 0.00527886 0)
(0.0993024 0.00581539 0)
(0.0999714 0.0063913 0)
(0.100415 0.00700936 0)
(0.10074 0.00767237 0)
(0.101043 0.00838132 0)
(0.101439 0.0091383 0)
(0.10201 0.00994057 0)
(0.102877 0.0107874 0)
(0.104157 0.0116746 0)
(0.106014 0.0125932 0)
(0.108541 0.0135279 0)
(0.111748 0.0144539 0)
(0.11588 0.0153395 0)
(0.120944 0.0161343 0)
(0.12686 0.0167974 0)
(0.133692 0.0172496 0)
(0.00847492 0.000233659 0)
(0.0242635 0.000676846 0)
(0.037933 0.00108139 0)
(0.0497252 0.00146212 0)
(0.0598581 0.00183034 0)
(0.0685218 0.00219497 0)
(0.0758851 0.00256316 0)
(0.0820985 0.00294078 0)
(0.0872948 0.00333254 0)
(0.0916106 0.00374406 0)
(0.0951667 0.00417947 0)
(0.0980796 0.00464323 0)
(0.100442 0.00513752 0)
(0.102359 0.00566572 0)
(0.103935 0.00623115 0)
(0.105271 0.00683612 0)
(0.106469 0.00748427 0)
(0.107629 0.00817733 0)
(0.108854 0.00891599 0)
(0.110283 0.00970281 0)
(0.112025 0.0105361 0)
(0.114206 0.0114142 0)
(0.116919 0.0123332 0)
(0.120347 0.0132862 0)
(0.124588 0.0142561 0)
(0.129684 0.0152248 0)
(0.135658 0.0161553 0)
(0.142559 0.0169953 0)
(0.150147 0.0176973 0)
(0.158052 0.0181515 0)
(0.00857726 0.000250912 0)
(0.0245702 0.000726849 0)
(0.0384429 0.00116123 0)
(0.0504403 0.00156942 0)
(0.0607888 0.00196349 0)
(0.0696844 0.00235281 0)
(0.0773007 0.0027449 0)
(0.0837938 0.00314596 0)
(0.0893048 0.00356122 0)
(0.0939701 0.00399584 0)
(0.0979152 0.00445414 0)
(0.101259 0.00494008 0)
(0.104105 0.00545637 0)
(0.10656 0.00600613 0)
(0.108744 0.00659306 0)
(0.110759 0.00721908 0)
(0.112727 0.00788729 0)
(0.114738 0.0085977 0)
(0.11692 0.00935308 0)
(0.119392 0.0101544 0)
(0.122309 0.0110005 0)
(0.125803 0.0118891 0)
(0.130006 0.0128188 0)
(0.135022 0.0137827 0)
(0.141029 0.0147675 0)
(0.148067 0.0157585 0)
(0.156024 0.0167268 0)
(0.164918 0.017621 0)
(0.174314 0.0183821 0)
(0.183419 0.018854 0)
(0.00868943 0.000267101 0)
(0.0248965 0.000773499 0)
(0.038976 0.00123536 0)
(0.0511864 0.00166883 0)
(0.0617591 0.00208649 0)
(0.0708953 0.0024981 0)
(0.0787739 0.00291149 0)
(0.085556 0.00333307 0)
(0.0913887 0.00376829 0)
(0.0964107 0.00422208 0)
(0.100751 0.00469872 0)
(0.104535 0.00520202 0)
(0.107872 0.00573448 0)
(0.110884 0.00629989 0)
(0.113679 0.0069006 0)
(0.116366 0.00753789 0)
(0.119082 0.00821467 0)
(0.121933 0.00893109 0)
(0.125061 0.00968829 0)
(0.128581 0.0104867 0)
(0.132635 0.0113257 0)
(0.137401 0.0122022 0)
(0.143028 0.0131131 0)
(0.149603 0.0140553 0)
(0.157329 0.0150204 0)
(0.166247 0.0159968 0)
(0.17628 0.0169748 0)
(0.187301 0.0179109 0)
(0.198702 0.0187417 0)
(0.209171 0.0192365 0)
(0.00879487 0.000281704 0)
(0.0252236 0.00081613 0)
(0.0395262 0.0013035 0)
(0.0519555 0.00175995 0)
(0.0627586 0.00219886 0)
(0.0721417 0.00263028 0)
(0.0802885 0.00306223 0)
(0.0873649 0.00350129 0)
(0.093523 0.00395296 0)
(0.0989039 0.00442194 0)
(0.10364 0.00491233 0)
(0.107865 0.00542812 0)
(0.111693 0.00597159 0)
(0.115254 0.00654588 0)
(0.118649 0.00715165 0)
(0.122008 0.00779153 0)
(0.125454 0.00846649 0)
(0.129103 0.00917583 0)
(0.133112 0.00992021 0)
(0.137622 0.0106978 0)
(0.142757 0.0115071 0)
(0.148684 0.012345 0)
(0.155589 0.0132046 0)
(0.16361 0.0140836 0)
(0.172856 0.0149762 0)
(0.183463 0.0158723 0)
(0.195409 0.0167819 0)
(0.208486 0.0176895 0)
(0.221999 0.0185671 0)
(0.234112 0.019129 0)
(0.00890584 0.000295101 0)
(0.0255643 0.000855267 0)
(0.0400901 0.00136556 0)
(0.0527398 0.00184259 0)
(0.0637776 0.00230039 0)
(0.0734112 0.0027491 0)
(0.081829 0.0031969 0)
(0.0892016 0.0036504 0)
(0.095685 0.00411509 0)
(0.101423 0.00459532 0)
(0.10656 0.00509565 0)
(0.111223 0.00561908 0)
(0.115527 0.00616738 0)
(0.11961 0.00674329 0)
(0.123582 0.00734736 0)
(0.127582 0.00798093 0)
(0.131716 0.00864273 0)
(0.136121 0.00933275 0)
(0.140935 0.01005 0)
(0.146321 0.0107899 0)
(0.152413 0.0115478 0)
(0.159347 0.0123196 0)
(0.167329 0.0130948 0)
(0.176484 0.0138624 0)
(0.186898 0.0146143 0)
(0.198731 0.0153309 0)
(0.212005 0.0160128 0)
(0.226408 0.0166727 0)
(0.241398 0.0173742 0)
(0.255734 0.018012 0)
(0.00348925 -0.00126757 0)
(0.00733562 -0.00132521 0)
(0.0149937 -0.00134438 0)
(0.0260174 -0.00133583 0)
(0.0394892 -0.00130336 0)
(0.0543307 -0.00125095 0)
(0.0694913 -0.00118661 0)
(0.084095 -0.00110961 0)
(0.0975532 -0.0010277 0)
(0.109486 -0.000943766 0)
(0.119706 -0.000862249 0)
(0.12815 -0.000783527 0)
(0.134835 -0.000710608 0)
(0.139813 -0.000641604 0)
(0.143144 -0.000574958 0)
(0.144902 -0.000515558 0)
(0.145156 -0.000463911 0)
(0.143947 -0.000412853 0)
(0.141301 -0.000368541 0)
(0.137226 -0.000325726 0)
(0.131722 -0.000287336 0)
(0.124773 -0.000252184 0)
(0.116349 -0.000219418 0)
(0.106389 -0.000188733 0)
(0.0948418 -0.000159656 0)
(0.0816425 -0.000131496 0)
(0.0667176 -0.00010369 0)
(0.0499922 -7.56178e-05 0)
(0.0313925 -4.66239e-05 0)
(0.0108129 -1.59203e-05 0)
(0.00689845 -0.00383174 0)
(0.011011 -0.00396573 0)
(0.0188555 -0.00400585 0)
(0.0299571 -0.00397702 0)
(0.0433475 -0.00387868 0)
(0.0579835 -0.0037204 0)
(0.0728348 -0.00351904 0)
(0.0870751 -0.00328869 0)
(0.100166 -0.00304684 0)
(0.111735 -0.00279815 0)
(0.121609 -0.00255235 0)
(0.129748 -0.00231914 0)
(0.136161 -0.00209822 0)
(0.140904 -0.00189478 0)
(0.144041 -0.00170301 0)
(0.145642 -0.00152835 0)
(0.145763 -0.00137002 0)
(0.144445 -0.00122189 0)
(0.141714 -0.00109048 0)
(0.13757 -0.000966454 0)
(0.132005 -0.000853502 0)
(0.125006 -0.000748642 0)
(0.116542 -0.000651785 0)
(0.106546 -0.000561002 0)
(0.0949685 -0.000474912 0)
(0.0817447 -0.000391359 0)
(0.0667983 -0.000308757 0)
(0.0500525 -0.000225259 0)
(0.0314302 -0.00013893 0)
(0.0108257 -4.7453e-05 0)
(0.0136602 -0.00636561 0)
(0.0182824 -0.00653542 0)
(0.026487 -0.00657547 0)
(0.0376791 -0.00650939 0)
(0.050845 -0.0063359 0)
(0.0650341 -0.00607204 0)
(0.0792931 -0.00573971 0)
(0.0928599 -0.00536176 0)
(0.105221 -0.00496149 0)
(0.116072 -0.00455796 0)
(0.125284 -0.00415676 0)
(0.132826 -0.00377416 0)
(0.13872 -0.00341366 0)
(0.143017 -0.00307879 0)
(0.145786 -0.00277293 0)
(0.147079 -0.00249126 0)
(0.146945 -0.00223165 0)
(0.145419 -0.00199458 0)
(0.142516 -0.00177869 0)
(0.138237 -0.00157947 0)
(0.132564 -0.00139709 0)
(0.125472 -0.00122709 0)
(0.116923 -0.00106951 0)
(0.106854 -0.00092143 0)
(0.0952184 -0.000780945 0)
(0.0819466 -0.000644038 0)
(0.066957 -0.00050848 0)
(0.0501703 -0.000371183 0)
(0.0315016 -0.000229011 0)
(0.0108488 -7.82532e-05 0)
(0.0236928 -0.00873517 0)
(0.0289606 -0.0089302 0)
(0.0375926 -0.0089656 0)
(0.0487738 -0.00885184 0)
(0.0615756 -0.00860059 0)
(0.0751468 -0.00823725 0)
(0.0885335 -0.00778282 0)
(0.101082 -0.00726867 0)
(0.112405 -0.00672378 0)
(0.122237 -0.00617411 0)
(0.130507 -0.00563584 0)
(0.137214 -0.00511997 0)
(0.142373 -0.00463441 0)
(0.14604 -0.00418106 0)
(0.148281 -0.00376654 0)
(0.149134 -0.00338648 0)
(0.148642 -0.00303827 0)
(0.146823 -0.00272066 0)
(0.143679 -0.00242829 0)
(0.139202 -0.00216088 0)
(0.133367 -0.00191499 0)
(0.126142 -0.00168573 0)
(0.117474 -0.00147139 0)
(0.107298 -0.00126891 0)
(0.0955759 -0.00107569 0)
(0.0822363 -0.000887728 0)
(0.0671838 -0.000701485 0)
(0.050339 -0.000512377 0)
(0.0315991 -0.00031619 0)
(0.0108768 -0.000107956 0)
(0.0366614 -0.0108383 0)
(0.0426535 -0.0110653 0)
(0.0516946 -0.0111023 0)
(0.0627919 -0.0109531 0)
(0.0751251 -0.0106345 0)
(0.0878493 -0.0101781 0)
(0.10007 -0.00960711 0)
(0.111344 -0.00896698 0)
(0.121356 -0.0082967 0)
(0.129905 -0.0076193 0)
(0.137027 -0.00696134 0)
(0.142688 -0.00633143 0)
(0.146937 -0.00573819 0)
(0.149844 -0.00518758 0)
(0.151424 -0.00467722 0)
(0.151736 -0.00421102 0)
(0.150796 -0.00378452 0)
(0.148601 -0.00339308 0)
(0.145149 -0.00303405 0)
(0.140421 -0.00270588 0)
(0.134379 -0.00240124 0)
(0.126986 -0.0021174 0)
(0.118172 -0.00185081 0)
(0.107875 -0.00159802 0)
(0.0960453 -0.00135575 0)
(0.0826026 -0.00111942 0)
(0.0674668 -0.000884614 0)
(0.0505538 -0.000646508 0)
(0.0317457 -0.000399282 0)
(0.0109348 -0.000136409 0)
(0.0521565 -0.0126729 0)
(0.058915 -0.0129331 0)
(0.0683427 -0.0129762 0)
(0.0792986 -0.0127994 0)
(0.0910229 -0.012419 0)
(0.102631 -0.0118676 0)
(0.113458 -0.0111917 0)
(0.123229 -0.0104423 0)
(0.131665 -0.00965765 0)
(0.138755 -0.0088746 0)
(0.144533 -0.00811641 0)
(0.148993 -0.00739169 0)
(0.152229 -0.00671248 0)
(0.15425 -0.00607983 0)
(0.155086 -0.00549326 0)
(0.154783 -0.00495611 0)
(0.153322 -0.00446214 0)
(0.150694 -0.00400714 0)
(0.146878 -0.00358885 0)
(0.141854 -0.00320502 0)
(0.135573 -0.00284796 0)
(0.127973 -0.00251485 0)
(0.118988 -0.00220119 0)
(0.108539 -0.00190264 0)
(0.0965872 -0.0016159 0)
(0.0830519 -0.00133555 0)
(0.0678197 -0.0010558 0)
(0.0508069 -0.000771885 0)
(0.0319085 -0.000476972 0)
(0.0109943 -0.000163068 0)
(0.06987 -0.014315 0)
(0.0774176 -0.0145864 0)
(0.0871825 -0.0146179 0)
(0.0978678 -0.0143976 0)
(0.108747 -0.0139438 0)
(0.118985 -0.013297 0)
(0.128184 -0.0125196 0)
(0.136212 -0.0116725 0)
(0.142912 -0.0107959 0)
(0.148409 -0.00992841 0)
(0.152705 -0.0090887 0)
(0.155883 -0.00829177 0)
(0.15801 -0.00754571 0)
(0.159075 -0.00684924 0)
(0.159115 -0.00620313 0)
(0.15814 -0.00560909 0)
(0.156113 -0.00506045 0)
(0.153016 -0.00455432 0)
(0.148807 -0.00408657 0)
(0.143453 -0.00365444 0)
(0.136905 -0.00325314 0)
(0.129079 -0.00287716 0)
(0.119904 -0.00252198 0)
(0.109295 -0.0021827 0)
(0.0972036 -0.00185491 0)
(0.0835496 -0.00153442 0)
(0.0682083 -0.0012142 0)
(0.0510882 -0.000888232 0)
(0.0320856 -0.000549148 0)
(0.0110569 -0.000187821 0)
(0.0895894 -0.0158148 0)
(0.0979559 -0.016067 0)
(0.107876 -0.0160489 0)
(0.118044 -0.0157537 0)
(0.127752 -0.0152019 0)
(0.13636 -0.0144539 0)
(0.143696 -0.0135802 0)
(0.149786 -0.0126463 0)
(0.154658 -0.0116988 0)
(0.158463 -0.0107701 0)
(0.161237 -0.00987586 0)
(0.163089 -0.00902794 0)
(0.164062 -0.00823356 0)
(0.164157 -0.00749354 0)
(0.163371 -0.00680435 0)
(0.16169 -0.00616674 0)
(0.159082 -0.0055777 0)
(0.155497 -0.00503173 0)
(0.150877 -0.00452473 0)
(0.145174 -0.00405319 0)
(0.138337 -0.00361457 0)
(0.13027 -0.00320225 0)
(0.120893 -0.0028114 0)
(0.110123 -0.00243693 0)
(0.0978829 -0.00207352 0)
(0.0840883 -0.00171682 0)
(0.0686255 -0.00135979 0)
(0.0513901 -0.000995432 0)
(0.0322739 -0.000615751 0)
(0.0111224 -0.000210669 0)
(0.111151 -0.017155 0)
(0.120188 -0.0173652 0)
(0.13002 -0.0172653 0)
(0.139334 -0.016858 0)
(0.147503 -0.0161836 0)
(0.154185 -0.0153267 0)
(0.159451 -0.0143641 0)
(0.163491 -0.0133623 0)
(0.166465 -0.0123658 0)
(0.168543 -0.0113983 0)
(0.169818 -0.0104749 0)
(0.170358 -0.00959974 0)
(0.170193 -0.00877842 0)
(0.169323 -0.00801244 0)
(0.167716 -0.00729664 0)
(0.165332 -0.00663031 0)
(0.162138 -0.0060128 0)
(0.158061 -0.00543812 0)
(0.15303 -0.00490234 0)
(0.146978 -0.00440125 0)
(0.139839 -0.00393254 0)
(0.13152 -0.00349041 0)
(0.121932 -0.00306969 0)
(0.110985 -0.00266514 0)
(0.0985911 -0.00227131 0)
(0.0846533 -0.00188278 0)
(0.0690619 -0.00149269 0)
(0.0517054 -0.00109355 0)
(0.0324692 -0.000676817 0)
(0.01119 -0.000231632 0)
(0.13431 -0.0183249 0)
(0.143779 -0.0184684 0)
(0.153191 -0.018246 0)
(0.161173 -0.0176851 0)
(0.167369 -0.0168654 0)
(0.171835 -0.0158986 0)
(0.174879 -0.0148628 0)
(0.176825 -0.0138176 0)
(0.17792 -0.0127988 0)
(0.178329 -0.0118199 0)
(0.178161 -0.010891 0)
(0.177454 -0.0100114 0)
(0.176203 -0.0091833 0)
(0.174414 -0.00840859 0)
(0.172026 -0.00768235 0)
(0.168975 -0.00700244 0)
(0.165211 -0.00636834 0)
(0.160651 -0.00577566 0)
(0.155213 -0.00522054 0)
(0.148816 -0.00469917 0)
(0.141377 -0.00420816 0)
(0.132804 -0.00374267 0)
(0.123 -0.0032977 0)
(0.111869 -0.00286798 0)
(0.0993136 -0.00244799 0)
(0.0852303 -0.0020318 0)
(0.0695067 -0.00161249 0)
(0.0520257 -0.00118225 0)
(0.0326667 -0.000732124 0)
(0.011258 -0.000250632 0)
(0.15889 -0.0193461 0)
(0.168493 -0.0193686 0)
(0.176855 -0.0189522 0)
(0.182853 -0.0181899 0)
(0.186609 -0.0172127 0)
(0.188632 -0.0161505 0)
(0.189405 -0.0150706 0)
(0.189312 -0.0140154 0)
(0.188637 -0.0130059 0)
(0.187502 -0.012044 0)
(0.186011 -0.0111335 0)
(0.18417 -0.0102713 0)
(0.181945 -0.00945628 0)
(0.179315 -0.00868895 0)
(0.176207 -0.00796647 0)
(0.172541 -0.00728672 0)
(0.168242 -0.00664817 0)
(0.163222 -0.00604777 0)
(0.157388 -0.0054822 0)
(0.150652 -0.00494806 0)
(0.142919 -0.0044418 0)
(0.134092 -0.00395914 0)
(0.124072 -0.00349534 0)
(0.112754 -0.00304528 0)
(0.100036 -0.00260341 0)
(0.085806 -0.00216363 0)
(0.0699493 -0.00171894 0)
(0.0523434 -0.00126132 0)
(0.0328618 -0.000781529 0)
(0.0113248 -0.00026762 0)
(0.184746 -0.0201656 0)
(0.193837 -0.0199941 0)
(0.200161 -0.019297 0)
(0.203421 -0.0183003 0)
(0.204363 -0.0171833 0)
(0.203869 -0.0160666 0)
(0.202478 -0.0149893 0)
(0.200525 -0.0139667 0)
(0.198288 -0.0130015 0)
(0.195829 -0.0120856 0)
(0.1932 -0.0112165 0)
(0.190381 -0.0103906 0)
(0.187317 -0.00960597 0)
(0.183949 -0.00886181 0)
(0.180194 -0.00815643 0)
(0.175965 -0.00748827 0)
(0.171172 -0.00685588 0)
(0.16572 -0.00625706 0)
(0.159512 -0.00568921 0)
(0.152449 -0.00514941 0)
(0.144432 -0.00463442 0)
(0.135359 -0.00414039 0)
(0.125126 -0.00366293 0)
(0.113623 -0.00319717 0)
(0.100743 -0.00273765 0)
(0.0863684 -0.00227827 0)
(0.0703804 -0.00181198 0)
(0.0526516 -0.00133069 0)
(0.03305 -0.000824968 0)
(0.0113891 -0.000282569 0)
(0.211475 -0.0206907 0)
(0.218777 -0.0202053 0)
(0.221742 -0.0191398 0)
(0.221651 -0.0179261 0)
(0.219698 -0.0167405 0)
(0.216869 -0.0156454 0)
(0.213632 -0.0146345 0)
(0.210186 -0.0136921 0)
(0.206697 -0.0128042 0)
(0.203188 -0.0119602 0)
(0.199646 -0.0111543 0)
(0.196022 -0.0103826 0)
(0.192248 -0.00964336 0)
(0.188244 -0.0089358 0)
(0.183924 -0.00825921 0)
(0.179191 -0.00761284 0)
(0.173951 -0.00699586 0)
(0.168103 -0.0064069 0)
(0.161545 -0.00584411 0)
(0.154175 -0.00530522 0)
(0.145889 -0.00478744 0)
(0.13658 -0.00428741 0)
(0.126141 -0.00380116 0)
(0.114459 -0.00332411 0)
(0.101421 -0.00285101 0)
(0.0869063 -0.00237587 0)
(0.070791 -0.00189169 0)
(0.0529438 -0.00139037 0)
(0.0332275 -0.000862444 0)
(0.0114494 -0.000295479 0)
(0.237819 -0.0208118 0)
(0.241178 -0.0197486 0)
(0.239587 -0.0182877 0)
(0.236166 -0.0169853 0)
(0.231859 -0.0158712 0)
(0.227286 -0.0149017 0)
(0.222713 -0.0140257 0)
(0.21822 -0.0132095 0)
(0.213838 -0.0124334 0)
(0.209547 -0.0116863 0)
(0.205303 -0.010963 0)
(0.201041 -0.0102612 0)
(0.196685 -0.00958024 0)
(0.192151 -0.00892057 0)
(0.187347 -0.00828264 0)
(0.182175 -0.00766683 0)
(0.176538 -0.00707318 0)
(0.170332 -0.00650125 0)
(0.163455 -0.00595001 0)
(0.155802 -0.00541788 0)
(0.147264 -0.00490266 0)
(0.137734 -0.00440154 0)
(0.1271 -0.00391099 0)
(0.115248 -0.00342679 0)
(0.102058 -0.002944 0)
(0.0874095 -0.00245677 0)
(0.0711733 -0.00195829 0)
(0.0532142 -0.00144051 0)
(0.0333908 -0.000894025 0)
(0.0115046 -0.000306371 0)
(0.258995 -0.0199797 0)
(0.257588 -0.0179735 0)
(0.252147 -0.0164122 0)
(0.246389 -0.0153619 0)
(0.240692 -0.0145526 0)
(0.235163 -0.013848 0)
(0.229836 -0.013188 0)
(0.224703 -0.0125469 0)
(0.219742 -0.011914 0)
(0.214912 -0.0112855 0)
(0.210158 -0.0106608 0)
(0.205413 -0.0100414 0)
(0.200601 -0.00942918 0)
(0.195636 -0.00882639 0)
(0.190428 -0.00823512 0)
(0.184883 -0.00765704 0)
(0.1789 -0.00709332 0)
(0.17238 -0.00654446 0)
(0.165217 -0.00601034 0)
(0.157305 -0.0054901 0)
(0.148537 -0.00498221 0)
(0.138802 -0.00448439 0)
(0.127986 -0.00399364 0)
(0.115974 -0.00350615 0)
(0.102643 -0.00301728 0)
(0.0878687 -0.00252147 0)
(0.0715198 -0.00201211 0)
(0.0534575 -0.00148132 0)
(0.0335365 -0.000919837 0)
(0.0115535 -0.000315286 0)
(0.00902105 0.000307418 0)
(0.0259047 0.000890788 0)
(0.0406587 0.00142192 0)
(0.0535451 0.00191785 0)
(0.0648245 0.00239248 0)
(0.0747146 0.00285625 0)
(0.0834087 0.0033174 0)
(0.0910809 0.00378251 0)
(0.097892 0.00425704 0)
(0.103993 0.00474544 0)
(0.109529 0.00525156 0)
(0.114619 0.00577722 0)
(0.119399 0.00632506 0)
(0.123992 0.00689635 0)
(0.128511 0.00749085 0)
(0.133101 0.00810911 0)
(0.137881 0.00874875 0)
(0.142982 0.00940712 0)
(0.148524 0.0100823 0)
(0.154673 0.010768 0)
(0.161549 0.0114544 0)
(0.169302 0.0121341 0)
(0.178075 0.0127914 0)
(0.187956 0.0134039 0)
(0.199041 0.0139483 0)
(0.211353 0.0143777 0)
(0.224769 0.0146175 0)
(0.238762 0.0145261 0)
(0.252451 0.0137148 0)
(0.265119 0.011142 0)
(0.00914064 0.000318643 0)
(0.0262592 0.000923173 0)
(0.0412494 0.00147331 0)
(0.0543777 0.00198612 0)
(0.0659068 0.00247555 0)
(0.0760609 0.00295216 0)
(0.0850375 0.00342417 0)
(0.0930133 0.00389799 0)
(0.100153 0.00437901 0)
(0.106615 0.00487166 0)
(0.112537 0.00537884 0)
(0.118052 0.0059026 0)
(0.123294 0.00644434 0)
(0.128372 0.00700365 0)
(0.133417 0.00758099 0)
(0.138556 0.00817565 0)
(0.143921 0.00878323 0)
(0.149625 0.00939886 0)
(0.155804 0.0100185 0)
(0.162566 0.0106343 0)
(0.170039 0.0112317 0)
(0.178353 0.0117977 0)
(0.187561 0.0123127 0)
(0.197712 0.0127425 0)
(0.208823 0.013048 0)
(0.220711 0.0131683 0)
(0.233032 0.0129988 0)
(0.245135 0.0123875 0)
(0.25626 0.0110693 0)
(0.265556 0.008665 0)
(0.0092627 0.000328589 0)
(0.0266211 0.000951834 0)
(0.0418495 0.00151858 0)
(0.0552209 0.0020459 0)
(0.0670017 0.00254774 0)
(0.0774211 0.00303467 0)
(0.0866802 0.0035148 0)
(0.0949561 0.00399417 0)
(0.102428 0.00447854 0)
(0.109244 0.0049716 0)
(0.115538 0.00547551 0)
(0.121457 0.00599237 0)
(0.127125 0.00652233 0)
(0.132659 0.00706446 0)
(0.138182 0.00761738 0)
(0.143813 0.00818011 0)
(0.149686 0.00874745 0)
(0.155893 0.00931167 0)
(0.162555 0.00986537 0)
(0.169758 0.0103998 0)
(0.177614 0.0108983 0)
(0.186178 0.0113409 0)
(0.195456 0.0117053 0)
(0.205427 0.0119551 0)
(0.215971 0.0120434 0)
(0.226808 0.0119122 0)
(0.237558 0.011471 0)
(0.247693 0.010598 0)
(0.256583 0.00913392 0)
(0.263534 0.00691565 0)
(0.00938516 0.000337115 0)
(0.0269842 0.000976357 0)
(0.0424506 0.00155712 0)
(0.0560643 0.00209643 0)
(0.0680958 0.00260814 0)
(0.0787785 0.00310274 0)
(0.0883173 0.00358822 0)
(0.0968956 0.00407062 0)
(0.104688 0.00455494 0)
(0.111836 0.0050439 0)
(0.11849 0.00554032 0)
(0.124787 0.00604574 0)
(0.130851 0.00655898 0)
(0.136793 0.00707829 0)
(0.142729 0.0076011 0)
(0.148787 0.00812549 0)
(0.155069 0.00864533 0)
(0.161655 0.00915109 0)
(0.16864 0.00963334 0)
(0.176111 0.0100806 0)
(0.184104 0.0104767 0)
(0.192631 0.0107993 0)
(0.201664 0.0110227 0)
(0.211101 0.0111143 0)
(0.220777 0.0110306 0)
(0.230419 0.0107191 0)
(0.239682 0.0101104 0)
(0.248137 0.00912274 0)
(0.255275 0.00768581 0)
(0.260641 0.00572477 0)
(0.00950648 0.00034414 0)
(0.0273446 0.000996528 0)
(0.0430472 0.00158864 0)
(0.0569007 0.00213733 0)
(0.0691799 0.0026563 0)
(0.0801217 0.00315588 0)
(0.0899338 0.00364384 0)
(0.0988017 0.00412602 0)
(0.106896 0.00460678 0)
(0.114365 0.00508873 0)
(0.121352 0.00557346 0)
(0.127992 0.00606257 0)
(0.134414 0.00655474 0)
(0.140712 0.00704649 0)
(0.146999 0.00753452 0)
(0.153398 0.00801546 0)
(0.15998 0.00848287 0)
(0.166815 0.00892634 0)
(0.173976 0.00933528 0)
(0.181516 0.0096963 0)
(0.189434 0.00999366 0)
(0.197715 0.0102059 0)
(0.206294 0.010308 0)
(0.215048 0.0102702 0)
(0.223797 0.0100566 0)
(0.232299 0.00962518 0)
(0.240265 0.00892772 0)
(0.247331 0.00792598 0)
(0.253155 0.00659221 0)
(0.257469 0.00490057 0)
(0.00962476 0.00034956 0)
(0.0276966 0.00101205 0)
(0.0436306 0.00161269 0)
(0.0577185 0.00216805 0)
(0.0702392 0.00269158 0)
(0.0814321 0.00319336 0)
(0.0915068 0.00368092 0)
(0.10065 0.00415977 0)
(0.109028 0.0046338 0)
(0.116793 0.00510527 0)
(0.12408 0.00557505 0)
(0.131034 0.00604415 0)
(0.137761 0.00651094 0)
(0.144355 0.00697131 0)
(0.150921 0.00742142 0)
(0.157559 0.00785606 0)
(0.164327 0.00826849 0)
(0.171286 0.00864876 0)
(0.178483 0.00898563 0)
(0.185942 0.00926568 0)
(0.193647 0.00947305 0)
(0.201558 0.00958846 0)
(0.209592 0.00958978 0)
(0.217622 0.00945163 0)
(0.225479 0.00914647 0)
(0.232961 0.00864355 0)
(0.239811 0.00791909 0)
(0.245767 0.00695889 0)
(0.25062 0.00575252 0)
(0.25421 0.0043077 0)
(0.00973785 0.00035328 0)
(0.0280342 0.00102266 0)
(0.0441912 0.00162888 0)
(0.058505 0.0021881 0)
(0.0712574 0.00271341 0)
(0.0826899 0.00321462 0)
(0.0930127 0.00369892 0)
(0.102412 0.00417149 0)
(0.111053 0.00463578 0)
(0.119085 0.0050937 0)
(0.126642 0.00554584 0)
(0.133858 0.00599189 0)
(0.140828 0.00642993 0)
(0.14765 0.00685614 0)
(0.154414 0.00726595 0)
(0.161199 0.00765351 0)
(0.168061 0.00801142 0)
(0.175044 0.0083302 0)
(0.182174 0.00859883 0)
(0.189454 0.00880454 0)
(0.196857 0.00893273 0)
(0.204331 0.00896675 0)
(0.21179 0.00888826 0)
(0.219114 0.00867607 0)
(0.226155 0.00831134 0)
(0.232732 0.00777755 0)
(0.238646 0.00706575 0)
(0.243731 0.00617015 0)
(0.247854 0.00509477 0)
(0.250923 0.00386067 0)
(0.00984341 0.000355228 0)
(0.0283501 0.00102813 0)
(0.0447171 0.00163687 0)
(0.0592436 0.00219705 0)
(0.0722134 0.00272139 0)
(0.0838693 0.00321928 0)
(0.0944211 0.0036976 0)
(0.104053 0.00416113 0)
(0.112929 0.00461295 0)
(0.121194 0.00505461 0)
(0.128979 0.00548633 0)
(0.136404 0.00590717 0)
(0.143565 0.00631479 0)
(0.150553 0.00670537 0)
(0.157445 0.00707403 0)
(0.164308 0.00741468 0)
(0.171187 0.00771986 0)
(0.178113 0.00798058 0)
(0.185098 0.00818657 0)
(0.192133 0.00832626 0)
(0.199182 0.00838699 0)
(0.206188 0.00835504 0)
(0.213087 0.00821439 0)
(0.219757 0.00795183 0)
(0.226052 0.0075562 0)
(0.231841 0.00702047 0)
(0.23699 0.00634077 0)
(0.241385 0.00551938 0)
(0.244945 0.00456728 0)
(0.247618 0.00350824 0)
(0.00993891 0.000355346 0)
(0.0286367 0.00102831 0)
(0.045196 0.00163643 0)
(0.0599179 0.00219469 0)
(0.0730873 0.00271531 0)
(0.0849467 0.00320728 0)
(0.0957049 0.00367707 0)
(0.105544 0.00412911 0)
(0.114625 0.00456612 0)
(0.123087 0.00498931 0)
(0.131059 0.00539857 0)
(0.138649 0.00579259 0)
(0.145952 0.00616875 0)
(0.15305 0.00652321 0)
(0.160011 0.00685105 0)
(0.166889 0.00714623 0)
(0.173722 0.00740163 0)
(0.18053 0.00760895 0)
(0.187317 0.00775905 0)
(0.194065 0.00784172 0)
(0.200736 0.00784669 0)
(0.207291 0.00776181 0)
(0.213649 0.00757672 0)
(0.219696 0.00728504 0)
(0.225331 0.00687972 0)
(0.230456 0.0063579 0)
(0.234978 0.00572078 0)
(0.23882 0.00497499 0)
(0.241933 0.00413386 0)
(0.244294 0.00321939 0)
(0.0100222 0.000353608 0)
(0.0288883 0.00102314 0)
(0.0456193 0.00162751 0)
(0.0605169 0.002181 0)
(0.0738656 0.00269525 0)
(0.0859067 0.00317881 0)
(0.0968471 0.00363775 0)
(0.106866 0.00407614 0)
(0.11612 0.00449635 0)
(0.124746 0.00489933 0)
(0.132864 0.00528471 0)
(0.140578 0.00565093 0)
(0.147977 0.0059953 0)
(0.155135 0.00631401 0)
(0.162112 0.0066023 0)