/*--------------------------------*- C++ -*----------------------------------*\
| =========                 |                                                 |
| \\      /  F ield         | OpenFOAM: The Open Source CFD Toolbox           |
|  \\    /   O peration     | Version:  2006                                  |
|   \\  /    A nd           | Website:  www.openfoam.com                      |
|    \\/     M anipulation  |                                                 |
\*---------------------------------------------------------------------------*/
FoamFile
{
    version     2.0;
    format      ascii;
    class       surfaceScalarField;
    location    "0.7";
    object      phi;
}
// * * * * * * * * * * * * * * * * * * * * * * * * * * * * * * * * * * * * * //

dimensions      [0 3 -1 0 0 0 0];
oriented        oriented;


internalField   nonuniform List<scalar> 
5457
(
0.198338
0.0014837
0.196435
0.00173818
0.194286
0.00199389
0.19184
0.00229839
0.18909
0.00260613
0.186039
0.00291205
0.182679
0.00322403
0.179002
0.003549
0.174992
0.00389173
0.170631
0.00425627
0.165895
0.00464653
0.160759
0.00506626
0.155192
0.00551888
0.14916
0.00600714
0.142627
0.00653242
0.135556
0.00709462
0.12791
0.00769158
0.119655
0.00831839
0.110763
0.0089665
0.101221
0.00962605
0.0910289
0.0102813
0.0802083
0.0109107
0.0688085
0.0114888
0.0569053
0.0119837
0.0446176
0.0123563
0.0321208
0.0125504
0.0196962
0.0124593
0.00800225
0.0117065
-0.000313156
0.00830703
-0.000340069
0.199869
0.00143656
0.199165
0.00227807
0.198105
0.00289879
0.196722
0.00353404
0.195006
0.00417811
0.192954
0.00482345
0.190561
0.0054812
0.187817
0.00616388
0.184708
0.00688112
0.181217
0.00764122
0.17732
0.0084525
0.172992
0.00932287
0.1682
0.0102595
0.162912
0.0112686
0.157088
0.0123538
0.150688
0.0135162
0.143669
0.0147529
0.135993
0.0160559
0.127623
0.0174109
0.118535
0.0187986
0.108717
0.0201884
0.0981779
0.0215386
0.0869547
0.0227989
0.0751112
0.0239047
0.0627637
0.0247675
0.0501092
0.0252529
0.0374787
0.025115
0.025375
0.0237983
0.0133617
0.0202471
0.012934
0.199719
0.00154015
0.199067
0.00276481
0.198067
0.00374417
0.196764
0.00468843
0.195161
0.00563684
0.193253
0.00659065
0.191034
0.00756238
0.188499
0.00856817
0.185637
0.00962189
0.182433
0.0107361
0.178868
0.0119233
0.17492
0.0131954
0.170562
0.0145634
0.165761
0.0160372
0.160484
0.017624
0.154689
0.0193275
0.148334
0.0211466
0.141374
0.023074
0.133763
0.0250951
0.12546
0.0271838
0.116434
0.0293016
0.106661
0.0313958
0.0961372
0.0333993
0.0848818
0.0352265
0.0729391
0.0367592
0.0603927
0.037829
0.0473078
0.038203
0.0335139
0.0375477
0.0180736
0.0355585
0.0308656
0.199638
0.00172446
0.19898
0.00325754
0.197992
0.00457635
0.196704
0.00582713
0.195126
0.00707088
0.193251
0.00832223
0.191077
0.00959612
0.188601
0.010911
0.185815
0.0122843
0.182706
0.0137324
0.17926
0.0152712
0.175459
0.0169157
0.171281
0.0186804
0.166702
0.0205782
0.161691
0.0226201
0.156215
0.0248128
0.150235
0.0271582
0.143707
0.0296521
0.136586
0.032282
0.12882
0.0350214
0.120366
0.0378331
0.11117
0.0406656
0.101181
0.0434489
0.0903601
0.046095
0.0786526
0.0484904
0.0659896
0.0504869
0.0522416
0.0519162
0.0370653
0.0526503
0.0197865
0.0527096
0.0505894
0.199598
0.00194849
0.198925
0.00376446
0.197946
0.00539809
0.196675
0.00694831
0.195121
0.0084805
0.193277
0.0100209
0.191141
0.0115882
0.188713
0.0132031
0.185985
0.014886
0.182945
0.0166567
0.179578
0.0185337
0.175871
0.0205351
0.171804
0.0226778
0.167357
0.0249781
0.162503
0.0274499
0.157212
0.0301031
0.151447
0.0329431
0.145168
0.0359698
0.138328
0.0391743
0.13087
0.0425366
0.122741
0.0460265
0.113867
0.0496002
0.104161
0.053198
0.0935272
0.0567516
0.0818299
0.0601775
0.0688935
0.0633706
0.054498
0.0662168
0.038353
0.0686678
0.0201525
0.0707647
0.0707334
0.199579
0.00219183
0.198896
0.00427984
0.197929
0.0062071
0.19668
0.00804611
0.195154
0.00985902
0.193348
0.0116798
0.191257
0.0135316
0.188884
0.0154374
0.186221
0.0174208
0.183252
0.0195038
0.179965
0.0217081
0.17635
0.0240542
0.172387
0.0265623
0.168055
0.0292515
0.16333
0.0321389
0.158181
0.0352379
0.152572
0.0385584
0.146461
0.0421055
0.139796
0.0458769
0.132517
0.0498628
0.124547
0.0540437
0.115797
0.0583863
0.106165
0.0628495
0.095516
0.067393
0.0836669
0.0719774
0.0703926
0.0765416
0.0554514
0.0809965
0.0386353
0.0852786
0.0200308
0.0891423
0.0906003
0.19957
0.00244317
0.198885
0.00479604
0.197934
0.00700035
0.196711
0.00911602
0.195219
0.0112004
0.193456
0.013292
0.19142
0.015418
0.189112
0.0176047
0.18652
0.0198779
0.183632
0.0222623
0.180438
0.0247822
0.176925
0.0274614
0.173074
0.0303228
0.168865
0.0333892
0.164271
0.0366816
0.159262
0.0402182
0.153795
0.0440145
0.147825
0.0480816
0.141296
0.0524258
0.134137
0.0570517
0.126249
0.0619531
0.117525
0.067115
0.10784
0.0725228
0.0970393
0.0781508
0.0849355
0.0839924
0.0712889
0.0900393
0.0558867
0.096185
0.0385819
0.102319
0.0197841
0.107637
0.110172
0.199567
0.00269571
0.198888
0.00530642
0.197955
0.00777399
0.196763
0.0101536
0.195312
0.0124989
0.193599
0.0148505
0.191625
0.0172397
0.189389
0.0196957
0.186879
0.0222467
0.184083
0.02492
0.180993
0.0277428
0.177596
0.0307417
0.173873
0.0339436
0.1698
0.037375
0.165352
0.0410617
0.160492
0.0450288
0.155178
0.049298
0.149355
0.0538876
0.142957
0.0588181
0.135902
0.0641079
0.128082
0.0697656
0.119366
0.0758064
0.109597
0.0822461
0.0985927
0.0890738
0.086175
0.0962813
0.072127
0.103896
0.0562758
0.111776
0.0385207
0.119756
0.0195458
0.126225
0.129461
0.199568
0.002945
0.1989
0.00580558
0.19799
0.00852386
0.196833
0.0111544
0.195428
0.0137487
0.193773
0.0163488
0.191867
0.0189891
0.189709
0.0217017
0.187292
0.0245172
0.1846
0.0274654
0.181627
0.0305763
0.178362
0.0338806
0.17478
0.0374087
0.17086
0.0411906
0.166575
0.0452582
0.161887
0.0496444
0.156752
0.0543785
0.151106
0.0594919
0.144865
0.0650227
0.13794
0.0710006
0.130212
0.0774551
0.121529
0.0844337
0.111707
0.0919843
0.100529
0.100128
0.0877873
0.108849
0.0733017
0.118143
0.0569621
0.127797
0.0386608
0.137655
0.0194394
0.144935
0.148532
0.199573
0.00318788
0.19892
0.0062891
0.198037
0.00924592
0.196919
0.0121141
0.195565
0.0149446
0.193973
0.0177807
0.192142
0.0206591
0.190072
0.0236144
0.187756
0.0266799
0.185178
0.0298875
0.182335
0.0332705
0.179214
0.0368636
0.175789
0.0407004
0.172042
0.0448146
0.167943
0.0492453
0.163457
0.0540335
0.158537
0.0592206
0.153105
0.0648522
0.147074
0.0709823
0.140345
0.0776614
0.132774
0.0849497
0.124192
0.0929209
0.114395
0.101655
0.103128
0.111223
0.0901194
0.121625
0.075199
0.132761
0.0582922
0.144302
0.0392769
0.156143
0.0195869
0.163978
0.167719
0.19958
0.00342207
0.198946
0.00675339
0.198093
0.00993639
0.197018
0.0130288
0.19572
0.016082
0.194198
0.0191405
0.192449
0.022243
0.190474
0.0254261
0.188266
0.0287257
0.185814
0.0321761
0.183111
0.0358133
0.180145
0.0396753
0.176896
0.0437992
0.173346
0.0482243
0.169461
0.0529963
0.165209
0.0581654
0.160539
0.0637855
0.155367
0.069916
0.149609
0.0766279
0.143162
0.0839999
0.135866
0.092129
0.127518
0.101127
0.117891
0.111104
0.10669
0.122194
0.0935811
0.134431
0.0783045
0.147649
0.0607365
0.16135
0.0408083
0.17539
0.0202731
0.183704
0.187533
0.199588
0.00364583
0.198976
0.00719547
0.198157
0.0105918
0.197129
0.0138947
0.195891
0.0171564
0.194443
0.0204228
0.192783
0.0237345
0.190909
0.0271298
0.188818
0.0306465
0.1865
0.0343213
0.18395
0.0381924
0.181153
0.0423007
0.178099
0.0466878
0.174767
0.0513993
0.171123
0.0564866
0.167136
0.0620066
0.162756
0.0680263
0.157899
0.0746214
0.152493
0.0818789
0.146436
0.0899086
0.139556
0.0988471
0.131635
0.108851
0.122405
0.120094
0.111538
0.13276
0.0986353
0.146949
0.083222
0.162563
0.0650095
0.178894
0.043913
0.195628
0.0218908
0.204716
0.208889
0.199598
0.0038578
0.199009
0.007613
0.198227
0.011209
0.19725
0.0147083
0.196076
0.018164
0.194707
0.0216233
0.193141
0.0251283
0.191375
0.0287189
0.189408
0.0324346
0.187235
0.0363139
0.184848
0.0403971
0.182235
0.044728
0.17939
0.0493523
0.176295
0.054321
0.172915
0.0596888
0.169225
0.0655203
0.16518
0.0718957
0.160709
0.0789032
0.155748
0.0866466
0.150195
0.0952672
0.143891
0.104937
0.136622
0.115861
0.128109
0.128289
0.118017
0.142469
0.10584
0.158647
0.090836
0.176933
0.0723582
0.196534
0.0499256
0.217003
0.0252728
0.228132
0.233493
0.19961
0.00405685
0.199045
0.00800408
0.198302
0.0117856
0.197379
0.0154666
0.196274
0.0191014
0.194988
0.0227379
0.193519
0.0264195
0.191868
0.0301877
0.190033
0.034083
0.188014
0.0381457
0.185801
0.0424185
0.183383
0.0469469
0.180759
0.0517796
0.177914
0.0569704
0.174823
0.062578
0.171465
0.0686746
0.167802
0.0753498
0.163781
0.0827017
0.159347
0.0908492
0.154418
0.0999514
0.148863
0.110218
0.142503
0.121894
0.135124
0.135269
0.126397
0.150718
0.115804
0.168647
0.10251
0.189448
0.085297
0.212736
0.0624326
0.238601
0.0329682
0.256124
0.265658
0.199623
0.00424203
0.199083
0.00836709
0.198381
0.0123194
0.197515
0.0161671
0.196482
0.0199654
0.195282
0.0237629
0.193916
0.0276041
0.192384
0.0315317
0.190687
0.0355868
0.188828
0.0398113
0.186795
0.0442493
0.184581
0.0489472
0.182192
0.0539564
0.179612
0.0593334
0.176829
0.065138
0.173827
0.0714464
0.17058
0.0783543
0.167056
0.0859694
0.163216
0.0944182
0.159006
0.103863
0.154352
0.114533
0.149161
0.126693
0.143294
0.140657
0.136575
0.156858
0.128775
0.175751
0.119483
0.197846
0.107914
0.223176
0.0933847
0.251777
0.07363
0.274454
0.338219
-0.00531964
0.00533334
-0.017818
0.0123903
-0.033776
0.0156955
-0.0517985
0.0176366
-0.0709436
0.0186918
-0.0905215
0.0191221
-0.110036
0.0191134
-0.129149
0.0188009
-0.147635
0.0182735
-0.165334
0.0175863
-0.182122
0.0167657
-0.197885
0.0158214
-0.212509
0.0147505
-0.225873
0.0135411
-0.237826
0.0121747
-0.2482
0.0106263
-0.25679
0.00886546
-0.263358
0.00686499
-0.267641
0.00459718
-0.269343
0.00202683
-0.268097
-0.000923239
-0.263516
-0.00427171
-0.255054
-0.00816655
-0.242145
-0.012623
-0.224091
-0.0177761
-0.20001
-0.0238099
-0.168642
-0.0310958
-0.127396
-0.0409717
-0.0713128
-0.0558022
-0.0655337
-0.010965
0.0163242
-0.0244674
0.0257822
-0.0406509
0.0316161
-0.0586561
0.0352639
-0.0776957
0.0372881
-0.0971511
0.0381319
-0.116553
0.0381259
-0.135575
0.0375231
-0.153998
0.0364973
-0.171666
0.0351526
-0.188454
0.0335437
-0.204249
0.0316852
-0.218928
0.0295673
-0.232368
0.0271681
-0.244419
0.02445
-0.254904
0.0213638
-0.263615
0.0178538
-0.270313
0.0138672
-0.274749
0.00935013
-0.276651
0.00424905
-0.275756
-0.00149519
-0.271744
-0.00797087
-0.264302
-0.0153112
-0.253017
-0.0236191
-0.237426
-0.0330853
-0.216985
-0.0439791
-0.191046
-0.0567633
-0.159284
-0.0724606
-0.123003
-0.0918031
-0.112276
-0.0130336
0.0293252
-0.0278732
0.0404463
-0.0442658
0.0477177
-0.0617773
0.0523896
-0.0799292
0.0549948
-0.0982778
0.0560411
-0.116461
0.0559345
-0.134242
0.0550236
-0.151469
0.0535469
-0.16803
0.0516338
-0.183826
0.0493509
-0.198765
0.0467146
-0.21274
0.0437016
-0.225628
0.0402704
-0.237293
0.0363615
-0.247565
0.031902
-0.256238
0.0268128
-0.26307
0.0210119
-0.267824
0.0144259
-0.270247
0.00699379
-0.270057
-0.00136003
-0.267063
-0.0106465
-0.260983
-0.0210883
-0.251552
-0.0327544
-0.238498
-0.0458534
-0.221535
-0.0606686
-0.200478
-0.0775489
-0.175705
-0.0969611
-0.147811
-0.119416
-0.144164
-0.0141002
0.0433225
-0.0296772
0.0557414
-0.0459634
0.0636523
-0.0626726
0.0686749
-0.0795713
0.071428
-0.0963759
0.0724089
-0.112878
0.0720788
-0.128978
0.0708692
-0.144606
0.0690295
-0.159702
0.0666846
-0.174207
0.0639018
-0.188046
0.060678
-0.201124
0.0569655
-0.21331
0.0526984
-0.22446
0.0477911
-0.234408
0.0421447
-0.242939
0.0356514
-0.249813
0.0282085
-0.254783
0.0197263
-0.257592
0.0101355
-0.258005
-0.000612868
-0.255837
-0.0124923
-0.250939
-0.0256761
-0.243151
-0.0402378
-0.232349
-0.0563653
-0.21843
-0.07431
-0.201449
-0.094258
-0.181861
-0.116276
-0.160326
-0.140669
-0.166101
-0.0145906
0.0576997
-0.030346
0.0711321
-0.0461802
0.0790582
-0.0618566
0.0838693
-0.0772723
0.0863524
-0.0923024
0.0870087
-0.106927
0.0863679
-0.121163
0.0848871
-0.135001
0.0827731
-0.148459
0.0801458
-0.161508
0.0770439
-0.174076
0.0734175
-0.186081
0.0691944
-0.197389
0.0642787
-0.207839
0.0585544
-0.217263
0.0518972
-0.225452
0.0441748
-0.232168
0.0352671
-0.237167
0.0250712
-0.240204
0.0135217
-0.241043
0.000568241
-0.239576
-0.0136331
-0.235703
-0.0292329
-0.229368
-0.0462596
-0.220576
-0.0648588
-0.209364
-0.0852389
-0.195886
-0.107463
-0.180548
-0.13134
-0.164188
-0.156745
-0.181407
-0.014562
0.072046
-0.030065
0.0862215
-0.0451651
0.0936486
-0.0595786
0.0977411
-0.0732934
0.099559
-0.0863686
0.0996751
-0.0989801
0.0986797
-0.111224
0.0969612
-0.123163
0.0946813
-0.134887
0.0919311
-0.146374
0.0886764
-0.157554
0.084825
-0.16837
0.0802786
-0.178686
0.0749003
-0.188321
0.0685417
-0.197114
0.0610533
-0.204859
0.0522813
-0.211311
0.0420843
-0.216215
0.0303468
-0.219334
0.0170083
-0.220488
0.00207025
-0.21955
-0.0142369
-0.216514
-0.0319426
-0.211425
-0.0510272
-0.204401
-0.0715772
-0.195582
-0.0937707
-0.185151
-0.117618
-0.173443
-0.14277
-0.161308
-0.168592
-0.192053
-0.014184
0.0860043
-0.0291102
0.10066
-0.0431054
0.107056
-0.0559231
0.10997
-0.0676825
0.110814
-0.078627
0.110258
-0.0890856
0.108908
-0.0992623
0.107034
-0.109277
0.104729
-0.119216
0.102003
-0.129098
0.0987616
-0.138856
0.094864
-0.148426
0.0901676
-0.157693
0.0845061
-0.166455
0.0776924
-0.17455
0.0695471
-0.181785
0.059899
-0.187892
0.0485823
-0.192612
0.0354665
-0.195722
0.0205058
-0.19706
0.00376592
-0.196525
-0.014426
-0.194154
-0.0339749
-0.190111
-0.0547432
-0.18462
-0.0767566
-0.177904
-0.100194
-0.17015
-0.12509
-0.161607
-0.151032
-0.152968
-0.176941
-0.199197
-0.0136066
0.0993462
-0.0275873
0.114017
-0.0400168
0.118821
-0.0508143
0.120152
-0.0603341
0.119856
-0.0690056
0.118635
-0.0772291
0.116996
-0.0853111
0.115103
-0.0934076
0.11293
-0.101573
0.110381
-0.109857
0.10732
-0.118202
0.103546
-0.12652
0.0988631
-0.134722
0.0930891
-0.142605
0.0859955
-0.149988
0.0773654
-0.156694
0.0670122
-0.162444
0.0547446
-0.166962
0.0404086
-0.17002
0.0239694
-0.171444
0.00556509
-0.171167
-0.0143446
-0.169288
-0.0355033
-0.166083
-0.0576153
-0.161883
-0.0806403
-0.156982
-0.104796
-0.151572
-0.130212
-0.145811
-0.156506
-0.140136
-0.182322
-0.203544
-0.0127197
0.111702
-0.0253233
0.125843
-0.0357516
0.128501
-0.0441176
0.12791
-0.0511181
0.126437
-0.0573757
0.124682
-0.0633415
0.122925
-0.069348
0.121196
-0.0755592
0.119335
-0.0820245
0.117131
-0.0887681
0.114406
-0.0957321
0.110911
-0.102836
0.1064
-0.109991
0.100673
-0.117011
0.0934704
-0.123705
0.0845303
-0.129895
0.0736403
-0.135304
0.0605875
-0.13964
0.0451852
-0.142642
0.0273945
-0.144088
0.00740653
-0.143972
-0.0140874
-0.142445
-0.0366711
-0.139893
-0.0598275
-0.136752
-0.083459
-0.133382
-0.107861
-0.129989
-0.133312
-0.126664
-0.159539
-0.123567
-0.185121
-0.205543
-0.0115552
0.122832
-0.0222657
0.135669
-0.0301135
0.135566
-0.0355939
0.132847
-0.0398097
0.130336
-0.0435548
0.128326
-0.0472996
0.126735
-0.0513225
0.125404
-0.0557464
0.124051
-0.060613
0.122353
-0.0659106
0.120102
-0.0715674
0.117025
-0.0775097
0.112827
-0.0836503
0.107285
-0.0898244
0.10013
-0.09585
0.0910554
-0.10154
0.0798036
-0.106633
0.0661393
-0.110826
0.0498338
-0.113799
0.0308056
-0.115278
0.00929834
-0.115268
-0.0137086
-0.114014
-0.0375567
-0.111994
-0.0614994
-0.109731
-0.0853945
-0.107634
-0.109646
-0.105931
-0.134715
-0.104691
-0.160484
-0.103868
-0.185641
-0.205492
-0.010219
0.132632
-0.0183037
0.142808
-0.0227068
0.139243
-0.024814
0.134545
-0.0260765
0.13143
-0.02735
0.12963
-0.0290203
0.128576
-0.0312452
0.127897
-0.0340602
0.127241
-0.037475
0.126201
-0.0414449
0.12452
-0.0458793
0.121951
-0.0507055
0.118178
-0.0558452
0.112938
-0.0611606
0.105959
-0.0664923
0.0969068
-0.0716576
0.0854711
-0.0764251
0.0713914
-0.0805013
0.0543813
-0.0835238
0.0342797
-0.0850464
0.0112485
-0.0851805
-0.0131718
-0.0842223
-0.0381362
-0.0827257
-0.0626406
-0.0812515
-0.0865342
-0.0802325
-0.110348
-0.0799128
-0.134731
-0.0803819
-0.159714
-0.0815446
-0.184171
-0.203606
-0.00866865
0.1408
-0.0125942
0.145761
-0.0127345
0.138791
-0.0111759
0.132764
-0.00960824
0.129864
-0.00867622
0.128865
-0.00858449
0.128766
-0.00931219
0.128964
-0.0107645
0.129117
-0.0128941
0.128821
-0.015656
0.12778
-0.0189421
0.125756
-0.0226768
0.122461
-0.0267951
0.117603
-0.0311939
0.110899
-0.035733
0.101984
-0.0402405
0.0905024
-0.0445576
0.0762144
-0.0484671
0.058778
-0.051642
0.03792
-0.0533137
0.0133606
-0.0536771
-0.0123942
-0.0531532
-0.038272
-0.0523076
-0.0631229
-0.0516602
-0.0868407
-0.0516186
-0.110068
-0.0524329
-0.133607
-0.0542246
-0.157618
-0.0570308
-0.181053
-0.200072
-0.00562087
0.145869
-0.00402441
0.143331
0.00101866
0.133383
0.00587815
0.127884
0.00960286
0.1263
0.0121471
0.126594
0.0135791
0.127699
0.0140381
0.128909
0.0137097
0.129898
0.0126937
0.130351
0.0110461
0.129961
0.00886392
0.128487
0.00622469
0.125666
0.00318618
0.121209
-0.000186842
0.114836
-0.00381691
0.10617
-0.00760882
0.0948356
-0.0113421
0.0804702
-0.0147738
0.0627111
-0.0174941
0.041118
-0.0195688
0.0158867
-0.0205027
-0.0110364
-0.020798
-0.03758
-0.0208889
-0.0626615
-0.0212274
-0.0861554
-0.0221675
-0.108801
-0.0239506
-0.131511
-0.0267143
-0.154546
-0.0307149
-0.176737
-0.19509
0.000146544
0.145419
0.00976405
0.133264
0.019281
0.123792
0.0262626
0.121044
0.03112
0.121704
0.0345156
0.123533
0.0368061
0.125812
0.0381553
0.128005
0.0387365
0.129801
0.0386726
0.130941
0.038026
0.13116
0.0368708
0.130212
0.0352767
0.127841
0.0333037
0.123766
0.0310281
0.117691
0.0285136
0.109254
0.0258456
0.0980582
0.023124
0.0837271
0.0205262
0.0658218
0.0181365
0.0439954
0.0158675
0.0186163
0.0141449
-0.00888163
0.0127597
-0.035791
0.0114068
-0.0609321
0.00984009
-0.0842366
0.00782675
-0.106456
0.00515834
-0.128525
0.00167231
-0.150747
-0.00300163
-0.171744
-0.189423
0.0203345
0.125346
0.03282
0.120631
0.042211
0.114503
0.0487935
0.114674
0.0537205
0.117073
0.0574572
0.120157
0.0602824
0.123404
0.062325
0.126425
0.063695
0.128933
0.0644842
0.13069
0.0647533
0.131455
0.0645618
0.130984
0.0639697
0.129024
0.0630348
0.125294
0.0618236
0.119491
0.060392
0.111265
0.058791
0.100223
0.0570966
0.0859659
0.0553898
0.06805
0.0536331
0.0462476
0.0516543
0.0210629
0.0493403
-0.00612888
0.0468066
-0.0328474
0.0440915
-0.0578352
0.0411982
-0.0809866
0.0380629
-0.102985
0.0345501
-0.12469
0.0304476
-0.146329
0.0255441
-0.166518
-0.183164
0.207283
0.00441877
0.206752
0.00871294
0.206068
0.0128268
0.20523
0.016831
0.204235
0.0207817
0.203085
0.0247283
0.201782
0.0287163
0.200325
0.0327891
0.198718
0.0369886
0.196964
0.0413567
0.195052
0.0459374
0.192987
0.0507785
0.190772
0.0559339
0.1884
0.0614599
0.185871
0.0674174
0.183171
0.0738829
0.180286
0.0809501
0.177222
0.088731
0.173966
0.097356
0.170485
0.106981
0.166798
0.11781
0.162918
0.130109
0.158818
0.144172
0.154666
0.16032
0.150747
0.178881
0.147591
0.200013
0.146385
0.223191
0.150175
0.246692
0.16353
0.25993
0.256081
0.245005
0.212313
0.00458284
0.211803
0.00903303
0.211151
0.0132955
0.210358
0.0174422
0.209424
0.0215307
0.20835
0.025611
0.207138
0.0297292
0.205791
0.0339288
0.204313
0.0382524
0.202706
0.042742
0.200966
0.04744
0.199098
0.0523939
0.197112
0.0576576
0.195012
0.0632871
0.192814
0.0693448
0.190505
0.0759027
0.188077
0.0830467
0.185579
0.0908817
0.183041
0.0995359
0.180458
0.109146
0.177932
0.119866
0.175583
0.131926
0.173567
0.145524
0.172354
0.160779
0.172663
0.177736
0.175659
0.196012
0.183346
0.214375
0.198669
0.230266
0.218692
0.239024
0.241615
0.232711
0.217467
0.00473274
0.21698
0.00932417
0.216365
0.0137204
0.215625
0.0179944
0.214759
0.0222046
0.213771
0.0264018
0.212662
0.0306317
0.211435
0.034938
0.210099
0.0393631
0.208661
0.0439494
0.207116
0.0487373
0.205469
0.0537712
0.203736
0.0591028
0.201935
0.0647881
0.200098
0.0708868
0.198227
0.0774654
0.196311
0.0845984
0.194426
0.0923723
0.192658
0.1009
0.191057
0.110291
0.189755
0.120649
0.188976
0.132111
0.189047
0.144753
0.190517
0.158527
0.194175
0.173227
0.200996
0.188241
0.21189
0.20249
0.227082
0.214171
0.243851
0.221599
0.223382
0.261807
0.222749
0.00486671
0.222287
0.00958321
0.221714
0.0140965
0.221033
0.0184809
0.220245
0.0227956
0.219351
0.0270913
0.218355
0.0314135
0.21726
0.0358048
0.216078
0.0403073
0.214824
0.0449625
0.213498
0.0498096
0.212098
0.0548893
0.210642
0.0602491
0.209163
0.0659398
0.207711
0.0720174
0.206305
0.0785439
0.204937
0.0855755
0.203697
0.0931757
0.202719
0.101432
0.202105
0.11042
0.202003
0.120194
0.20269
0.130793
0.204544
0.142189
0.208052
0.15424
0.213817
0.166637
0.222418
0.178784
0.234209
0.189852
0.24908
0.198547
0.26652
0.203617
0.203694
0.285963
0.228159
0.00498302
0.227726
0.00980675
0.227201
0.014419
0.226586
0.0188958
0.225882
0.0232962
0.225092
0.0276707
0.22422
0.0320641
0.22327
0.0365179
0.222255
0.0410723
0.221196
0.0457673
0.220106
0.0506409
0.218976
0.0557309
0.217821
0.0610778
0.216688
0.0667242
0.215638
0.0727214
0.214706
0.0791218
0.213906
0.0859632
0.213335
0.0932884
0.213134
0.101156
0.21344
0.109602
0.214427
0.118631
0.216361
0.128219
0.219576
0.138275
0.224467
0.148602
0.231457
0.158875
0.240891
0.16858
0.252958
0.177057
0.267447
0.183422
0.283743
0.186847
0.186748
0.30045
0.2337
0.00508004
0.2333
0.00999141
0.232828
0.0146835
0.232286
0.0192331
0.231674
0.0236994
0.230997
0.0281318
0.23026
0.0325741
0.229468
0.0370663
0.228635
0.0416466
0.227785
0.0463523
0.226936
0.0512195
0.226087
0.0562822
0.225256
0.0615733
0.224492
0.0671283
0.223857
0.0729899
0.223399
0.0791965
0.223166
0.0857713
0.223249
0.0927392
0.223782
0.100128
0.224914
0.107939
0.226824
0.116142
0.229742
0.124671
0.233946
0.133399
0.23973
0.142117
0.24737
0.150524
0.257058
0.158203
0.268809
0.164678
0.282285
0.169407
0.29682
0.171898
0.171838
0.311504
0.239375
0.00515615
0.239014
0.0101341
0.2386
0.0148856
0.238137
0.0194875
0.237624
0.0239984
0.237069
0.0284666
0.236476
0.0329346
0.235854
0.0374406
0.235217
0.0420202
0.234588
0.0467077
0.233986
0.0515356
0.233426
0.0565333
0.232932
0.0617276
0.232549
0.067147
0.232336
0.0728227
0.232351
0.0787792
0.232659
0.0850286
0.233352
0.0915776
0.234553
0.098427
0.236404
0.105555
0.239068
0.112907
0.242731
0.120395
0.247617
0.127876
0.25393
0.135158
0.261824
0.141989
0.271368
0.148051
0.282479
0.153022
0.294843
0.156579
0.307951
0.158432
0.158376
0.321204
0.245189
0.00520988
0.244869
0.0102321
0.244519
0.0150213
0.24414
0.0196539
0.243734
0.0241872
0.243308
0.0286684
0.242868
0.0331381
0.242426
0.0376326
0.241995
0.0421848
0.241596
0.0468251
0.241253
0.0515818
0.240989
0.0564795
0.240834
0.0615401
0.240832
0.0667839
0.241037
0.0722305
0.241512
0.077893
0.242331
0.0837728
0.24358
0.0898616
0.24537
0.0961412
0.24783
0.102573
0.251094
0.109089
0.255306
0.115597
0.260627
0.121958
0.267201
0.127999
0.275096
0.133528
0.284297
0.138321
0.294691
0.142153
0.306031
0.144836
0.317938
0.146211
0.146172
0.329953
0.251147
0.00523982
0.250871
0.0102829
0.250588
0.0150871
0.250299
0.0197276
0.250006
0.0242605
0.249715
0.0287314
0.249436
0.0331786
0.249179
0.0376363
0.248961
0.0421342
0.248802
0.0466992
0.248727
0.0513548
0.248763
0.0561212
0.248945
0.0610146
0.249315
0.066048
0.249926
0.0712313
0.250841
0.0765673
0.252131
0.0820486
0.253878
0.0876562
0.256177
0.0933597
0.259137
0.0991078
0.262869
0.104833
0.267475
0.110446
0.273058
0.115823
0.279711
0.12082
0.287451
0.125291
0.296224
0.129084
0.305914
0.132046
0.316325
0.134074
0.327173
0.135087
0.135055
0.33812
0.257251
0.00524472
0.257022
0.0102843
0.25681
0.0150798
0.256615
0.0197049
0.25644
0.0242141
0.256291
0.0286509
0.256178
0.0330515
0.256113
0.0374473
0.256113
0.0418652
0.256198
0.0463281
0.256394
0.0508552
0.256731
0.0554622
0.257243
0.0601599
0.257974
0.0649549
0.258973
0.0698488
0.260299
0.0748368
0.26202
0.0799047
0.264207
0.0850262
0.266937
0.0901647
0.270298
0.0952664
0.27438
0.100262
0.279255
0.105073
0.284981
0.109599
0.291599
0.113727
0.299101
0.117347
0.307425
0.120351
0.316462
0.122646
0.326052
0.124177
0.335989
0.12491
0.124862
0.34603
0.263504
0.00522353
0.263325
0.0102343
0.263187
0.0149967
0.26309
0.0195826
0.263038
0.0240446
0.263036
0.0284236
0.263093
0.0327536
0.263224
0.0370635
0.263444
0.0413768
0.263776
0.0457127
0.264243
0.0500866
0.264876
0.0545099
0.26571
0.0589887
0.266785
0.063524
0.268148
0.0681115
0.269851
0.0727401
0.271958
0.07739
0.274531
0.082034
0.277622
0.0866324
0.281303
0.0911327
0.285643
0.0954704
0.290687
0.0995786
0.296462
0.10338
0.30298
0.106785
0.310217
0.109714
0.31811
0.112097
0.326563
0.113877
0.335447
0.115028
0.34461
0.115537
0.115458
0.353881
0.269909
0.00517538
0.269783
0.0101314
0.269722
0.014836
0.269728
0.0193586
0.269801
0.0237496
0.269949
0.0280475
0.27018
0.0322837
0.270508
0.0364845
0.27095
0.0406704
0.271526
0.044857
0.27226
0.0490559
0.273181
0.0532752
0.274325
0.0575171
0.275724
0.0617778
0.277426
0.0660485
0.279473
0.0703149
0.281917
0.0745546
0.284819
0.0787384
0.288213
0.0828292
0.292148
0.0867778
0.296673
0.0905308
0.301814
0.0940312
0.307581
0.0972165
0.313967
0.100023
0.320939
0.102394
0.328437
0.104284
0.336378
0.105662
0.344662
0.106516
0.353172
0.106848
0.106728
0.361786
0.276471
0.00509959
0.276399
0.00997452
0.276419
0.0145962
0.276529
0.0190315
0.27673
0.0233281
0.27703
0.027522
0.277435
0.031642
0.27796
0.0357119
0.278623
0.0397497
0.279441
0.0437674
0.280434
0.047773
0.281631
0.0517715
0.283069
0.0557625
0.284775
0.0597397
0.286786
0.0636909
0.289146
0.0675992
0.291887
0.0714425
0.295062
0.0751915
0.298705
0.0788124
0.302838
0.0822643
0.307494
0.0855005
0.312685
0.0884752
0.318411
0.0911409
0.324652
0.0934523
0.331372
0.0953709
0.338517
0.096868
0.346017
0.0979274
0.353792
0.0985477
0.361752
0.0987356
0.0985736
0.369808
0.283193
0.00499569
0.283177
0.00976305
0.283279
0.0142768
0.283495
0.0186007
0.283826
0.02278
0.284278
0.026848
0.284858
0.0308307
0.285577
0.0347493
0.286454
0.0386195
0.287511
0.0424511
0.288758
0.046249
0.290216
0.0500147
0.291927
0.0537455
0.293921
0.0574346
0.296215
0.0610688
0.298851
0.0646293
0.301858
0.0680943
0.305267
0.0714385
0.309106
0.074631
0.313392
0.0776371
0.318138
0.0804196
0.323347
0.0829422
0.329011
0.0851699
0.335105
0.0870711
0.341595
0.0886207
0.34843
0.0898017
0.355552
0.0906072
0.362896
0.0910411
0.370393
0.0911131
0.0909084
0.377978
0.290078
0.00486353
0.29012
0.00949675
0.290304
0.0138776
0.290627
0.0180666
0.291089
0.0221061
0.291694
0.0260271
0.292447
0.029853
0.293355
0.0336019
0.29444
0.0372872
0.295725
0.0409175
0.297217
0.0444959
0.298929
0.0480206
0.300895
0.0514874
0.303148
0.0548887
0.305702
0.0582117
0.308584
0.0614383
0.311819
0.0645481
0.315426
0.0675179
0.319425
0.0703216
0.323826
0.0729309
0.328632
0.0753168
0.333839
0.0774515
0.339432
0.0793099
0.345386
0.0808706
0.351667
0.0821178
0.358232
0.0830426
0.365031
0.0836438
0.37201
0.0839282
0.379116
0.0839063
0.0836616
0.386299
0.297129
0.00470323
0.297229
0.00917583
0.297497
0.0133991
0.297926
0.0174301
0.298517
0.0213082
0.299274
0.0250621
0.300198
0.0287129
0.301295
0.0322758
0.302582
0.035762
0.30408
0.0391787
0.305802
0.0425279
0.307755
0.0458065
0.309962
0.0490087
0.312451
0.0521267
0.315236
0.0551483
0.318335
0.0580571
0.321765
0.0608346
0.32554
0.0634607
0.32967
0.0659139
0.334158
0.0681717
0.339003
0.070212
0.344194
0.0720143
0.349715
0.0735609
0.355539
0.074838
0.361634
0.0758364
0.367964
0.0765525
0.374486
0.0769886
0.381155
0.0771525
0.387927
0.0770552
0.0767748
0.394767
0.304352
0.00451489
0.304511
0.00880086
0.304861
0.0128426
0.305396
0.0166933
0.306114
0.0203896
0.307018
0.0239575
0.308108
0.0274159
0.30939
0.0307783
0.310874
0.0340534
0.312577
0.0372471
0.314512
0.0403605
0.316687
0.0433902
0.319117
0.0463299
0.32182
0.0491714
0.324811
0.0519034
0.3281
0.0545118
0.3317
0.0569806
0.335616
0.0592931
0.339853
0.0614317
0.344409
0.063379
0.349278
0.0651186
0.354446
0.0666358
0.359895
0.0679188
0.3656
0.0689591
0.371532
0.0697522
0.377657
0.0702978
0.383939
0.0706002
0.390342
0.0706678
0.396828
0.0705109
0.0702006
0.40337
0.31175
0.00429875
0.311968
0.00837273
0.312401
0.0122096
0.313041
0.0158587
0.313884
0.0193539
0.314929
0.0227183
0.31618
0.025969
0.317638
0.0291177
0.319311
0.0321718
0.321209
0.0351354
0.323343
0.038009
0.325721
0.0407892
0.328354
0.04347
0.331253
0.0460433
0.334427
0.0484992
0.337884
0.0508255
0.34163
0.0530091
0.345666
0.0550361
0.349991
0.056893
0.3546
0.0585664
0.359482
0.0600446
0.364624
0.0613174
0.370005
0.0623773
0.375602
0.0632197
0.381388
0.0638431
0.387334
0.0642496
0.393409
0.0644444
0.399581
0.0644357
0.405819
0.0642334
0.0639003
0.4121
0.319326
0.00405534
0.319604
0.00789268
0.320119
0.0115023
0.320862
0.0149296
0.321826
0.0182053
0.323009
0.0213503
0.324413
0.0243795
0.326037
0.0273032
0.327887
0.0301276
0.329969
0.0328558
0.33229
0.0354875
0.334856
0.0380197
0.337673
0.0404468
0.340749
0.0427616
0.344088
0.0449552
0.347693
0.0470178
0.351565
0.0489385
0.355703
0.0507066
0.360101
0.0523115
0.364751
0.0537435
0.36964
0.0549944
0.374753
0.0560576
0.380071
0.0569287
0.385571
0.0576057
0.391229
0.0580893
0.397018
0.0583828
0.402911
0.0584918
0.408881
0.0584243
0.414902
0.0581894
0.0578415
0.420953
0.327085
0.00378544
0.327422
0.00736227
0.328017
0.0107231
0.328859
0.0139093
0.329941
0.0169486
0.331257
0.0198596
0.332807
0.022655
0.334589
0.025344
0.336606
0.0279318
0.33886
0.0304206
0.341354
0.0328099
0.344093
0.0350969
0.347078
0.0372767
0.350313
0.039343
0.353799
0.0412885
0.357534
0.043105
0.361517
0.044784
0.365742
0.0463173
0.370202
0.047697
0.374884
0.0489163
0.379776
0.0499696
0.384862
0.050853
0.390122
0.0515643
0.395536
0.0521035
0.40108
0.0524724
0.406731
0.0526751
0.412465
0.0527173
0.418258
0.0526064
0.424086
0.0523508
0.0519966
0.429933
0.335031
0.00348992
0.335425
0.00678324
0.336098
0.00987469
0.337037
0.0128017
0.338231
0.0155889
0.339675
0.0182523
0.341364
0.0208032
0.343295
0.0232492
0.345468
0.0255947
0.347881
0.0278415
0.350537
0.029989
0.353434
0.0320345
0.356573
0.033974
0.359952
0.0358022
0.363569
0.0375131
0.367421
0.0391003
0.371501
0.0405572
0.375802
0.0418776
0.380314
0.043056
0.385024
0.0440877
0.389917
0.0449692
0.394978
0.0456984
0.400186
0.0462749
0.405523
0.0466996
0.410968
0.0469754
0.416498
0.0471064
0.422092
0.0470982
0.427729
0.0469578
0.433388
0.0466925
0.0463408
0.439052
0.343167
0.0031696
0.343617
0.0061573
0.344366