/*--------------------------------*- C++ -*----------------------------------*\
| =========                 |                                                 |
| \\      /  F ield         | OpenFOAM: The Open Source CFD Toolbox           |
|  \\    /   O peration     | Version:  5.x                                   |
|   \\  /    A nd           | Web:      www.OpenFOAM.org                      |
|    \\/     M anipulation  |                                                 |
\*---------------------------------------------------------------------------*/
FoamFile
{
    version     2.0;
    format      ascii;
    class       pointVectorField;
    location    "0.7";
    object      pointDisplacement;
}
// * * * * * * * * * * * * * * * * * * * * * * * * * * * * * * * * * * * * * //

dimensions      [0 1 0 0 0 0 0];

internalField   nonuniform List<vector> 
5828
(
(0 0 0)
(0.0151832 0 0)
(0.0287581 0 0)
(0.0403482 0 0)
(0.0501202 0 0)
(0.0582372 0 0)
(0.0648472 0 0)
(0.0700816 0 0)
(0.0740561 0 0)
(0.0768727 0 0)
(0.0786219 0 0)
(0.079385 0 0)
(0.0792351 0 0)
(0.0782378 0 0)
(0.0764537 0 0)
(0.0739392 0 0)
(0.0707495 0 0)
(0.0669398 0 0)
(0.0625674 0 0)
(0.057694 0 0)
(0.0523846 0 0)
(0.0467098 0 0)
(0.0407554 0 0)
(0.0346248 0 0)
(0.0284397 0 0)
(0.0223491 0 0)
(0.0165412 0 0)
(0.0112621 0 0)
(0.00684657 0 0)
(0.00382136 0 0)
(-2.79637e-15 0 8.9563e-22)
(0 0 0)
(0.0151934 4.73949e-05 0)
(0.0287798 9.16381e-05 0)
(0.0403814 0.000132872 0)
(0.0501654 0.00017252 0)
(0.0582953 0.000211698 0)
(0.0649194 0.000251322 0)
(0.0701698 0.00029222 0)
(0.0741623 0.000335106 0)
(0.0769992 0.000380618 0)
(0.0787711 0.000429171 0)
(0.0795599 0.000481204 0)
(0.0794392 0.000537307 0)
(0.078475 0.000597973 0)
(0.0767279 0.000663646 0)
(0.0742552 0.000734734 0)
(0.0711121 0.000811622 0)
(0.0673541 0.000894681 0)
(0.063039 0.000984309 0)
(0.0582298 0.00108105 0)
(0.0529923 0.00118434 0)
(0.0473954 0.00129341 0)
(0.0415253 0.00140949 0)
(0.0354869 0.0015333 0)
(0.0294024 0.00166441 0)
(0.0234205 0.00180274 0)
(0.0177298 0.00194817 0)
(0.01258 0.00209957 0)
(0.00831045 0.00225205 0)
(0.00544566 0.00239396 0)
(0.0018549 0.00243014 -1.40468e-12)
(0 0 0)
(0.0152287 9.4601e-05 0)
(0.0288496 0.000182911 0)
(0.0404858 0.000265207 0)
(0.0503056 0.00034434 0)
(0.0584735 0.000422517 0)
(0.0651397 0.000501555 0)
(0.0704374 0.000583115 0)
(0.0744835 0.00066862 0)
(0.0773806 0.000759406 0)
(0.0792201 0.00085622 0)
(0.0800853 0.000959884 0)
(0.0800512 0.00107166 0)
(0.0791851 0.00119252 0)
(0.0775486 0.00132334 0)
(0.0752 0.00146493 0)
(0.0721957 0.00161806 0)
(0.0685921 0.00178341 0)
(0.0644471 0.00196167 0)
(0.0598265 0.00215346 0)
(0.0548022 0.00235838 0)
(0.0494416 0.00257618 0)
(0.0438261 0.00280811 0)
(0.0380649 0.00305446 0)
(0.0322829 0.00331454 0)
(0.0266274 0.00358813 0)
(0.021286 0.00387527 0)
(0.0165187 0.00417684 0)
(0.0126817 0.0044883 0)
(0.0102938 0.00478724 0)
(0.00693251 0.00501767 -3.89772e-13)
(0 0 0)
(0.0152881 0.000141439 0)
(0.0289669 0.00027347 0)
(0.0406608 0.000396486 0)
(0.0505404 0.000514781 0)
(0.0587714 0.000631604 0)
(0.0655071 0.000749629 0)
(0.0708834 0.000871376 0)
(0.0750181 0.000998935 0)
(0.0780141 0.00113403 0)
(0.079964 0.00127792 0)
(0.0809547 0.00143215 0)
(0.0810635 0.00159846 0)
(0.0803589 0.00177826 0)
(0.0789045 0.00197282 0)
(0.0767604 0.00218332 0)
(0.0739852 0.00241089 0)
(0.070637 0.0026565 0)
(0.0667754 0.0029209 0)
(0.0624664 0.00320424 0)
(0.0577865 0.00350735 0)
(0.0528111 0.00383187 0)
(0.0476205 0.00417731 0)
(0.0423226 0.00454234 0)
(0.0370476 0.00492653 0)
(0.0319447 0.00532915 0)
(0.0271953 0.00574975 0)
(0.0230561 0.00618956 0)
(0.0199177 0.00664732 0)
(0.0183124 0.00709469 0)
(0.0155763 0.00753945 1.98661e-13)
(0 0 0)
(0.0153713 0.000187729 0)
(0.0291307 0.000362969 0)
(0.040905 0.00052618 0)
(0.0508673 0.000682918 0)
(0.0591848 0.000837555 0)
(0.0660163 0.000993771 0)
(0.0715014 0.00115484 0)
(0.0757579 0.00132345 0)
(0.0788891 0.0015013 0)
(0.0809914 0.00169046 0)
(0.0821558 0.00189355 0)
(0.0824614 0.0021125 0)
(0.0819794 0.00234907 0)
(0.0807758 0.00260489 0)
(0.0789135 0.00288152 0)
(0.0764537 0.00318038 0)
(0.0734582 0.00350276 0)
(0.0699903 0.00384954 0)
(0.0661162 0.00422093 0)
(0.0619096 0.00461798 0)
(0.0574556 0.00504281 0)
(0.0528451 0.00549442 0)
(0.0481844 0.00597058 0)
(0.0436086 0.00647043 0)
(0.0392757 0.00699205 0)
(0.0353673 0.0075325 0)
(0.0321134 0.00808723 0)
(0.0299125 0.00865206 0)
(0.029337 0.00919572 0)
(0.0275439 0.00972685 4.63182e-13)
(0 0 0)
(0.015478 0.00023317 0)
(0.0293399 0.000450815 0)
(0.0412132 0.000653358 0)
(0.0512773 0.000847435 0)
(0.0597058 0.00103873 0)
(0.0666606 0.00123201 0)
(0.0722835 0.00143112 0)
(0.0766926 0.00163907 0)
(0.0799936 0.00185798 0)
(0.0822891 0.00209077 0)
(0.0836731 0.0023406 0)
(0.0842269 0.0026097 0)
(0.0840253 0.0029002 0)
(0.0831377 0.00321409 0)
(0.0816306 0.0035532 0)
(0.0795685 0.00391927 0)
(0.077018 0.00431399 0)
(0.0740476 0.00473858 0)
(0.0707278 0.00519354 0)
(0.0671316 0.00567966 0)
(0.063343 0.00619791 0)
(0.0594602 0.00674693 0)
(0.0555941 0.007324 0)
(0.0518864 0.00792727 0)
(0.0485079 0.00855269 0)
(0.0456473 0.0091923 0)
(0.0435163 0.00983391 0)
(0.0424583 0.0104612 0)
(0.0430509 0.011037 0)
(0.042203 0.0115122 -9.92617e-23)
(0 0 0)
(0.0156071 0.000277421 0)
(0.0295922 0.000536238 0)
(0.0415809 0.0007768 0)
(0.051765 0.00100708 0)
(0.0603284 0.00123394 0)
(0.0674325 0.00146292 0)
(0.0732197 0.00169848 0)
(0.07781 0.00194373 0)
(0.0813145 0.00220166 0)
(0.0838417 0.00247602 0)
(0.0854873 0.00276994 0)
(0.0863369 0.00308613 0)
(0.0864692 0.00342711 0)
(0.0859582 0.00379515 0)
(0.0848744 0.00419232 0)
(0.0832856 0.00462053 0)
(0.081265 0.00508215 0)
(0.0788884 0.00557881 0)
(0.0762304 0.00611106 0)
(0.0733719 0.00668004 0)
(0.0703948 0.00728507 0)
(0.0673955 0.00792316 0)
(0.0644882 0.00859122 0)
(0.0618103 0.00928518 0)
(0.0595459 0.00999775 0)
(0.0578937 0.0107154 0)
(0.0570525 0.0114179 0)
(0.0572871 0.0120766 0)
(0.059111 0.0126482 0)
(0.0590694 0.0130495 4.90885e-13)
(0 0 0)
(0.0157541 0.0003202 0)
(0.0298793 0.000618686 0)
(0.0420035 0.00089584 0)
(0.0523294 0.00116107 0)
(0.0610482 0.00142211 0)
(0.0683235 0.00168515 0)
(0.0742986 0.00195511 0)
(0.0790966 0.00223561 0)
(0.0828364 0.00253042 0)
(0.08563 0.0028436 0)
(0.0875755 0.00317845 0)
(0.0887635 0.00353815 0)
(0.0892784 0.00392556 0)
(0.0891987 0.00434315 0)
(0.0886011 0.00479324 0)
(0.0875589 0.0052782 0)
(0.0861495 0.00580074 0)
(0.0844541 0.00636238 0)
(0.0825514 0.00696372 0)
(0.0805329 0.00760609 0)
(0.0784896 0.00828818 0)
(0.0765194 0.00900628 0)
(0.0747375 0.00975606 0)
(0.0732601 0.0105297 0)
(0.0722671 0.0113162 0)
(0.0719678 0.0120968 0)
(0.072537 0.0128431 0)
(0.0741613 0.0135201 0)
(0.0772551 0.0140833 0)
(0.0779624 0.0144683 4.29133e-13)
(0 0 0)
(0.0159182 0.000361325 0)
(0.0301995 0.000697903 0)
(0.0424773 0.00101015 0)
(0.052964 0.00130875 0)
(0.0618568 0.00160226 0)
(0.0693223 0.0018974 0)
(0.075506 0.00219943 0)
(0.0805381 0.00251295 0)
(0.0845421 0.00284222 0)
(0.087632 0.0031911 0)
(0.0899105 0.00356325 0)
(0.0914744 0.00396235 0)
(0.0924141 0.00439159 0)
(0.0928134 0.00485356 0)
(0.0927557 0.00535088 0)
(0.092324 0.00588652 0)
(0.0915987 0.00646285 0)
(0.0906641 0.00708093 0)
(0.0896084 0.00774201 0)
(0.088527 0.00844726 0)
(0.087519 0.00919509 0)
(0.0866952 0.00998201 0)
(0.0861781 0.0108022 0)
(0.0860722 0.0116452 0)
(0.0865137 0.0124958 0)
(0.0877001 0.0133298 0)
(0.0897934 0.0141132 0)
(0.0928923 0.0148072 0)
(0.0972901 0.0153665 0)
(0.0987754 0.0157669 4.91148e-13)
(0 0 0)
(0.0160979 0.000400606 0)
(0.0305493 0.00077348 0)
(0.0429969 0.00111913 0)
(0.0536618 0.00144937 0)
(0.0627453 0.00177345 0)
(0.0704179 0.00209861 0)
(0.0768311 0.00243065 0)
(0.0821204 0.0027747 0)
(0.0864115 0.00313525 0)
(0.0898233 0.00351638 0)
(0.0924659 0.00392218 0)
(0.0944406 0.00435653 0)
(0.0958416 0.00482258 0)
(0.0967592 0.00532306 0)
(0.0972839 0.00586087 0)
(0.0975052 0.00643898 0)
(0.0975134 0.00705978 0)
(0.0974024 0.00772472 0)
(0.0972724 0.00843553 0)
(0.0972205 0.00919246 0)
(0.0973467 0.0099936 0)
(0.0977705 0.0108361 0)
(0.0986265 0.0117136 0)
(0.100032 0.0126145 0)
(0.102064 0.0135199 0)
(0.104879 0.0144021 0)
(0.108619 0.0152228 0)
(0.113294 0.0159389 0)
(0.119017 0.0164971 0)
(0.121353 0.0168785 8.85182e-14)
(0 0 0)
(0.016292 0.000437835 0)
(0.0309247 0.000845011 0)
(0.0435564 0.00122224 0)
(0.0544153 0.00158226 0)
(0.0637045 0.00193489 0)
(0.0716004 0.00228791 0)
(0.0782603 0.00264764 0)
(0.0838234 0.0030193 0)
(0.0884203 0.00340776 0)
(0.0921771 0.00381766 0)
(0.0952101 0.00425332 0)
(0.0976232 0.00471833 0)
(0.0995127 0.00521552 0)
(0.100978 0.00574801 0)
(0.102119 0.0063187 0)
(0.10303 0.00693044 0)
(0.103811 0.00758597 0)
(0.104564 0.00828686 0)
(0.105401 0.00903466 0)
(0.106434 0.00982945 0)
(0.107774 0.0106695 0)
(0.109533 0.0115522 0)
(0.111851 0.0124716 0)
(0.114862 0.0134155 0)
(0.118627 0.0143652 0)
(0.123228 0.0152928 0)
(0.128745 0.0161556 0)
(0.135113 0.0169056 0)
(0.142189 0.0174743 0)
(0.145273 0.0178594 -8.43724e-22)
(0 0 0)
(0.0164958 0.000472766 0)
(0.0313242 0.000912235 0)
(0.0441526 0.0013191 0)
(0.0552167 0.00170684 0)
(0.0647239 0.00208585 0)
(0.0728563 0.00246437 0)
(0.0797759 0.00284908 0)
(0.0856278 0.00324548 0)
(0.0905487 0.00365875 0)
(0.0946682 0.0040937 0)
(0.0981068 0.00455454 0)
(0.100972 0.0050446 0)
(0.103367 0.00556671 0)
(0.105399 0.00612428 0)
(0.107176 0.0067201 0)
(0.108805 0.00735691 0)
(0.110388 0.00803684 0)
(0.112033 0.00876119 0)
(0.113859 0.0095317 0)
(0.115998 0.0103486 0)
(0.11858 0.01121 0)
(0.121726 0.0121138 0)
(0.125565 0.0130552 0)
(0.130236 0.014023 0)
(0.135829 0.0150015 0)
(0.142344 0.015966 0)
(0.149774 0.0168742 0)
(0.157971 0.0176735 0)
(0.166485 0.0182715 0)
(0.170584 0.0187626 -7.79241e-13)
(0 0 0)
(0.0167081 0.00050534 0)
(0.0317436 0.000974938 0)
(0.044779 0.00140931 0)
(0.0560575 0.00182258 0)
(0.0657928 0.0022257 0)
(0.0741721 0.00262726 0)
(0.0813628 0.00303426 0)
(0.0875159 0.00345252 0)
(0.0927724 0.00388722 0)
(0.0972646 0.00434304 0)
(0.101117 0.00482407 0)
(0.104444 0.00533356 0)
(0.107356 0.00587452 0)
(0.109967 0.00645021 0)
(0.112387 0.00706293 0)
(0.114732 0.00771499 0)
(0.117118 0.00840793 0)
(0.119661 0.00914278 0)
(0.122486 0.00992085 0)
(0.125725 0.010742 0)
(0.129532 0.0116046 0)
(0.134053 0.012506 0)
(0.139407 0.0134427 0)
(0.145736 0.0144066 0)
(0.153157 0.015386 0)
(0.161641 0.0163643 0)
(0.171117 0.0173083 0)
(0.181298 0.0181638 0)
(0.191403 0.0188039 0)
(0.197102 0.0194152 8.35242e-14)
(0 0 0)
(0.0169262 0.000535406 0)
(0.0321781 0.00103287 0)
(0.0454289 0.00149255 0)
(0.0569291 0.00192909 0)
(0.0668999 0.00235394 0)
(0.0755337 0.00277599 0)
(0.0830028 0.00320245 0)
(0.0894636 0.00363931 0)
(0.0950607 0.0040917 0)
(0.0999295 0.00456414 0)
(0.1042 0.00506065 0)
(0.107993 0.00558439 0)
(0.111427 0.00613829 0)
(0.114617 0.00672482 0)
(0.117676 0.00734572 0)
(0.120727 0.00800294 0)
(0.123892 0.00869731 0)
(0.127301 0.00942915 0)
(0.131092 0.0101986 0)
(0.135396 0.0110046 0)
(0.140366 0.0118453 0)
(0.146171 0.0127166 0)
(0.152952 0.0136146 0)
(0.160844 0.0145344 0)
(0.169967 0.0154671 0)
(0.180342 0.0164072 0)
(0.191863 0.0173399 0)
(0.20412 0.0182278 0)
(0.215992 0.0189188 0)
(0.224231 0.0197865 -3.74518e-13)
(0 0 0)
(0.0171477 0.000562891 0)
(0.0326239 0.0010859 0)
(0.0460961 0.00156857 0)
(0.0578224 0.00202603 0)
(0.0680338 0.00247018 0)
(0.0769267 0.00291011 0)
(0.0846782 0.00335315 0)
(0.0914493 0.00380535 0)
(0.0973882 0.00427173 0)
(0.102635 0.00475669 0)
(0.107324 0.00526416 0)
(0.111579 0.0057969 0)
(0.115522 0.00635738 0)
(0.119274 0.00694738 0)
(0.122955 0.0075682 0)
(0.12669 0.00822075 0)
(0.130598 0.00890478 0)
(0.134817 0.00962003 0)
(0.139496 0.0103648 0)
(0.144777 0.011136 0)
(0.150798 0.0119303 0)
(0.157735 0.0127415 0)
(0.165751 0.013562 0)
(0.174961 0.0143849 0)
(0.185487 0.0151995 0)
(0.197406 0.0160009 0)
(0.210587 0.0167909 0)
(0.224595 0.0175775 0)
(0.238293 0.0182718 0)
(0.251746 0.0200147 -2.33157e-12)
(0 0 0)
(0.0173748 0.000588013 0)
(0.0330775 0.00113419 0)
(0.0467766 0.00163765 0)
(0.0587362 0.0021139 0)
(0.0691933 0.00257506 0)
(0.0783497 0.00303036 0)
(0.0863868 0.00348721 0)
(0.09347 0.00395164 0)
(0.0997521 0.00442857 0)
(0.105379 0.00492232 0)
(0.110484 0.00543618 0)
(0.115193 0.00597248 0)
(0.119632 0.00653331 0)
(0.123923 0.00711974 0)
(0.128192 0.00773235 0)
(0.132568 0.00837068 0)
(0.137173 0.00903315 0)
(0.142138 0.00971837 0)
(0.14761 0.0104229 0)
(0.153735 0.0111405 0)
(0.160649 0.0118645 0)
(0.168509 0.0125857 0)
(0.177458 0.013289 0)
(0.187594 0.0139584 0)
(0.199009 0.0145693 0)
(0.211725 0.0150866 0)
(0.225507 0.0154597 0)
(0.23979 0.0155748 0)
(0.253704 0.0150652 0)
(0.279434 0.0200952 1.91906e-22)
(0 0 0)
(0.0151832 0 0)
(0.0287581 0 0)
(0.0403482 0 0)
(0.0501202 0 0)
(0.0582372 0 0)
(0.0648472 0 0)
(0.0700816 0 0)
(0.0740561 0 0)
(0.0768727 0 0)
(0.0786219 0 0)
(0.079385 0 0)
(0.0792351 0 0)
(0.0782378 0 0)
(0.0764537 0 0)
(0.0739392 0 0)
(0.0707495 0 0)
(0.0669398 0 0)
(0.0625674 0 0)
(0.057694 0 0)
(0.0523846 0 0)
(0.0467098 0 0)
(0.0407554 0 0)
(0.0346248 0 0)
(0.0284397 0 0)
(0.0223491 0 0)
(0.0165412 0 0)
(0.0112621 0 0)
(0.00684657 0 0)
(0.00382136 0 0)
(-2.10701e-16 0 6.41862e-23)
(0 0 0)
(0.0151934 4.73949e-05 0)
(0.0287798 9.16381e-05 0)
(0.0403814 0.000132872 0)
(0.0501654 0.00017252 0)
(0.0582953 0.000211698 0)
(0.0649194 0.000251322 0)
(0.0701698 0.00029222 0)
(0.0741623 0.000335106 0)
(0.0769992 0.000380618 0)
(0.0787711 0.000429171 0)
(0.0795599 0.000481204 0)
(0.0794392 0.000537307 0)
(0.078475 0.000597973 0)
(0.0767279 0.000663646 0)
(0.0742552 0.000734734 0)
(0.0711121 0.000811622 0)
(0.0673541 0.000894681 0)
(0.063039 0.000984309 0)
(0.0582298 0.00108105 0)
(0.0529923 0.00118434 0)
(0.0473954 0.00129341 0)
(0.0415253 0.00140949 0)
(0.0354869 0.0015333 0)
(0.0294024 0.00166441 0)
(0.0234205 0.00180274 0)
(0.0177298 0.00194817 0)
(0.01258 0.00209957 0)
(0.00831045 0.00225205 0)
(0.00544566 0.00239396 0)
(0.00185489 0.00243014 -1.40468e-12)
(0 0 0)
(0.0152287 9.4601e-05 0)
(0.0288496 0.000182911 0)
(0.0404858 0.000265207 0)
(0.0503056 0.00034434 0)
(0.0584735 0.000422517 0)
(0.0651397 0.000501555 0)
(0.0704374 0.000583115 0)
(0.0744835 0.00066862 0)
(0.0773806 0.000759406 0)
(0.0792201 0.00085622 0)
(0.0800853 0.000959884 0)
(0.0800512 0.00107166 0)
(0.0791851 0.00119252 0)
(0.0775486 0.00132334 0)
(0.0752 0.00146493 0)
(0.0721957 0.00161806 0)
(0.0685921 0.00178341 0)
(0.0644471 0.00196167 0)
(0.0598265 0.00215346 0)
(0.0548022 0.00235838 0)
(0.0494416 0.00257618 0)
(0.0438261 0.00280811 0)
(0.0380649 0.00305446 0)
(0.0322829 0.00331454 0)
(0.0266274 0.00358813 0)
(0.021286 0.00387527 0)
(0.0165187 0.00417684 0)
(0.0126817 0.0044883 0)
(0.0102938 0.00478724 0)
(0.00693251 0.00501767 -3.89772e-13)
(0 0 0)
(0.0152881 0.000141439 0)
(0.0289669 0.00027347 0)
(0.0406608 0.000396486 0)
(0.0505404 0.000514781 0)
(0.0587714 0.000631604 0)
(0.0655071 0.000749629 0)
(0.0708834 0.000871376 0)
(0.0750181 0.000998935 0)
(0.0780141 0.00113403 0)
(0.079964 0.00127792 0)
(0.0809547 0.00143215 0)
(0.0810635 0.00159846 0)
(0.0803589 0.00177826 0)
(0.0789045 0.00197282 0)
(0.0767604 0.00218332 0)
(0.0739852 0.00241089 0)
(0.070637 0.0026565 0)
(0.0667754 0.0029209 0)
(0.0624664 0.00320424 0)
(0.0577865 0.00350735 0)
(0.0528111 0.00383187 0)
(0.0476205 0.00417731 0)
(0.0423226 0.00454234 0)
(0.0370476 0.00492653 0)
(0.0319447 0.00532915 0)
(0.0271953 0.00574975 0)
(0.0230561 0.00618956 0)
(0.0199177 0.00664732 0)
(0.0183124 0.00709469 0)
(0.0155763 0.00753945 1.98661e-13)
(0 0 0)
(0.0153713 0.000187729 0)
(0.0291307 0.000362969 0)
(0.040905 0.00052618 0)
(0.0508673 0.000682918 0)
(0.0591848 0.000837555 0)
(0.0660163 0.000993771 0)
(0.0715014 0.00115484 0)
(0.0757579 0.00132345 0)
(0.0788891 0.0015013 0)
(0.0809914 0.00169046 0)
(0.0821558 0.00189355 0)
(0.0824614 0.0021125 0)
(0.0819794 0.00234907 0)
(0.0807758 0.00260489 0)
(0.0789135 0.00288152 0)
(0.0764537 0.00318038 0)
(0.0734582 0.00350276 0)
(0.0699903 0.00384954 0)
(0.0661162 0.00422093 0)
(0.0619096 0.00461798 0)
(0.0574556 0.00504281 0)
(0.0528451 0.00549442 0)
(0.0481844 0.00597058 0)
(0.0436086 0.00647043 0)
(0.0392757 0.00699205 0)
(0.0353673 0.0075325 0)
(0.0321134 0.00808723 0)
(0.0299125 0.00865206 0)
(0.029337 0.00919572 0)
(0.0275439 0.00972685 4.63182e-13)
(0 0 0)
(0.015478 0.00023317 0)
(0.0293399 0.000450815 0)
(0.0412132 0.000653358 0)
(0.0512773 0.000847435 0)
(0.0597058 0.00103873 0)
(0.0666606 0.00123201 0)
(0.0722835 0.00143112 0)
(0.0766926 0.00163907 0)
(0.0799936 0.00185798 0)
(0.0822891 0.00209077 0)
(0.0836731 0.0023406 0)
(0.0842269 0.0026097 0)
(0.0840253 0.0029002 0)
(0.0831377 0.00321409 0)
(0.0816306 0.0035532 0)
(0.0795685 0.00391927 0)
(0.077018 0.00431399 0)
(0.0740476 0.00473858 0)
(0.0707278 0.00519354 0)
(0.0671316 0.00567966 0)
(0.063343 0.00619791 0)
(0.0594602 0.00674693 0)
(0.0555941 0.007324 0)
(0.0518864 0.00792727 0)
(0.0485079 0.00855269 0)
(0.0456473 0.0091923 0)
(0.0435163 0.00983391 0)
(0.0424583 0.0104612 0)
(0.0430509 0.011037 0)
(0.0422031 0.0115122 -1.33303e-22)
(0 0 0)
(0.0156071 0.000277421 0)
(0.0295922 0.000536238 0)
(0.0415809 0.0007768 0)
(0.051765 0.00100708 0)
(0.0603284 0.00123394 0)
(0.0674325 0.00146292 0)
(0.0732197 0.00169848 0)
(0.07781 0.00194373 0)
(0.0813145 0.00220166 0)
(0.0838417 0.00247602 0)
(0.0854873 0.00276994 0)
(0.0863369 0.00308613 0)
(0.0864692 0.00342711 0)
(0.0859582 0.00379515 0)
(0.0848744 0.00419232 0)
(0.0832856 0.00462053 0)
(0.081265 0.00508215 0)
(0.0788884 0.00557881 0)
(0.0762304 0.00611106 0)
(0.0733719 0.00668004 0)
(0.0703948 0.00728507 0)
(0.0673955 0.00792316 0)
(0.0644882 0.00859122 0)
(0.0618103 0.00928518 0)
(0.0595459 0.00999775 0)
(0.0578937 0.0107154 0)
(0.0570525 0.0114179 0)
(0.0572871 0.0120766 0)
(0.059111 0.0126482 0)
(0.0590695 0.0130495 4.90885e-13)
(0 0 0)
(0.0157541 0.0003202 0)
(0.0298793 0.000618686 0)
(0.0420035 0.00089584 0)
(0.0523294 0.00116107 0)
(0.0610482 0.00142211 0)
(0.0683235 0.00168515 0)
(0.0742986 0.00195511 0)
(0.0790966 0.00223561 0)
(0.0828364 0.00253042 0)
(0.08563 0.0028436 0)
(0.0875755 0.00317845 0)
(0.0887635 0.00353815 0)
(0.0892784 0.00392556 0)
(0.0891987 0.00434315 0)
(0.0886011 0.00479324 0)
(0.0875589 0.0052782 0)
(0.0861495 0.00580074 0)
(0.0844541 0.00636238 0)
(0.0825514 0.00696372 0)
(0.0805329 0.00760609 0)
(0.0784896 0.00828818 0)
(0.0765194 0.00900628 0)
(0.0747375 0.00975606 0)
(0.0732601 0.0105297 0)
(0.0722671 0.0113162 0)
(0.0719678 0.0120968 0)
(0.072537 0.0128431 0)
(0.0741613 0.0135201 0)
(0.0772551 0.0140833 0)
(0.0779624 0.0144683 4.29133e-13)
(0 0 0)
(0.0159182 0.000361325 0)
(0.0301995 0.000697903 0)
(0.0424773 0.00101015 0)
(0.052964 0.00130875 0)
(0.0618568 0.00160226 0)
(0.0693223 0.0018974 0)
(0.075506 0.00219943 0)
(0.0805381 0.00251295 0)
(0.0845421 0.00284222 0)
(0.087632 0.0031911 0)
(0.0899105 0.00356325 0)
(0.0914744 0.00396235 0)
(0.0924141 0.00439159 0)
(0.0928134 0.00485356 0)
(0.0927557 0.00535088 0)
(0.092324 0.00588652 0)
(0.0915987 0.00646285 0)
(0.0906641 0.00708093 0)
(0.0896084 0.00774201 0)
(0.088527 0.00844726 0)
(0.087519 0.00919509 0)
(0.0866952 0.00998201 0)
(0.0861781 0.0108022 0)
(0.0860722 0.0116452 0)
(0.0865137 0.0124958 0)
(0.0877001 0.0133298 0)
(0.0897934 0.0141132 0)
(0.0928923 0.0148072 0)
(0.0972901 0.0153665 0)
(0.0987755 0.0157669 4.91148e-13)
(0 0 0)
(0.0160979 0.000400606 0)
(0.0305493 0.00077348 0)
(0.0429969 0.00111913 0)
(0.0536618 0.00144937 0)
(0.0627453 0.00177345 0)
(0.0704179 0.00209861 0)
(0.0768311 0.00243065 0)
(0.0821204 0.0027747 0)
(0.0864115 0.00313525 0)
(0.0898233 0.00351638 0)
(0.0924659 0.00392218 0)
(0.0944406 0.00435653 0)
(0.0958416 0.00482258 0)
(0.0967592 0.00532306 0)
(0.0972839 0.00586087 0)
(0.0975052 0.00643898 0)
(0.0975134 0.00705978 0)
(0.0974024 0.00772472 0)
(0.0972724 0.00843553 0)
(0.0972205 0.00919246 0)
(0.0973467 0.0099936 0)
(0.0977705 0.0108361 0)
(0.0986265 0.0117136 0)
(0.100032 0.0126145 0)
(0.102064 0.0135199 0)
(0.104879 0.0144021 0)
(0.108619 0.0152228 0)
(0.113294 0.0159389 0)
(0.119017 0.0164971 0)
(0.121353 0.0168785 8.85182e-14)
(0 0 0)
(0.016292 0.000437835 0)
(0.0309247 0.000845011 0)
(0.0435564 0.00122224 0)
(0.0544153 0.00158226 0)
(0.0637045 0.00193489 0)
(0.0716004 0.00228791 0)
(0.0782603 0.00264764 0)
(0.0838234 0.0030193 0)
(0.0884203 0.00340776 0)
(0.0921771 0.00381766 0)
(0.0952101 0.00425332 0)
(0.0976232 0.00471833 0)
(0.0995127 0.00521552 0)
(0.100978 0.00574801 0)
(0.102119 0.0063187 0)
(0.10303 0.00693044 0)
(0.103811 0.00758597 0)
(0.104564 0.00828686 0)
(0.105401 0.00903466 0)
(0.106434 0.00982945 0)
(0.107774 0.0106695 0)
(0.109533 0.0115522 0)
(0.111851 0.0124716 0)
(0.114862 0.0134155 0)
(0.118627 0.0143652 0)
(0.123228 0.0152928 0)
(0.128745 0.0161556 0)
(0.135113 0.0169056 0)
(0.142189 0.0174743 0)
(0.145273 0.0178594 -9.1747e-22)
(0 0 0)
(0.0164958 0.000472766 0)
(0.0313242 0.000912235 0)
(0.0441526 0.0013191 0)
(0.0552167 0.00170684 0)
(0.0647239 0.00208585 0)
(0.0728563 0.00246437 0)
(0.0797759 0.00284908 0)
(0.0856278 0.00324548 0)
(0.0905487 0.00365875 0)
(0.0946682 0.0040937 0)
(0.0981068 0.00455454 0)
(0.100972 0.0050446 0)
(0.103367 0.00556671 0)
(0.105399 0.00612428 0)
(0.107176 0.0067201 0)
(0.108805 0.00735691 0)
(0.110388 0.00803684 0)
(0.112033 0.00876119 0)
(0.113859 0.0095317 0)
(0.115998 0.0103486 0)
(0.11858 0.01121 0)
(0.121726 0.0121138 0)
(0.125565 0.0130552 0)
(0.130236 0.014023 0)
(0.135829 0.0150015 0)
(0.142344 0.015966 0)
(0.149774 0.0168742 0)
(0.157971 0.0176735 0)
(0.166485 0.0182715 0)
(0.170584 0.0187626 -7.79241e-13)
(0 0 0)
(0.0167081 0.00050534 0)
(0.0317436 0.000974938 0)
(0.044779 0.00140931 0)
(0.0560575 0.00182258 0)
(0.0657928 0.0022257 0)
(0.0741721 0.00262726 0)
(0.0813628 0.00303426 0)
(0.0875159 0.00345252 0)
(0.0927724 0.00388722 0)
(0.0972646 0.00434304 0)
(0.101117 0.00482407 0)
(0.104444 0.00533356 0)
(0.107356 0.00587452 0)
(0.109967 0.00645021 0)
(0.112387 0.00706293 0)
(0.114732 0.00771499 0)
(0.117118 0.00840793 0)
(0.119661 0.00914278 0)
(0.122486 0.00992085 0)
(0.125725 0.010742 0)
(0.129532 0.0116046 0)
(0.134053 0.012506 0)
(0.139407 0.0134427 0)
(0.145736 0.0144066 0)
(0.153157 0.015386 0)
(0.161641 0.0163643 0)
(0.171117 0.0173083 0)
(0.181298 0.0181638 0)
(0.191403 0.0188039 0)
(0.197102 0.0194152 8.35242e-14)
(0 0 0)
(0.0169262 0.000535406 0)
(0.0321781 0.00103287 0)
(0.0454289 0.00149255 0)
(0.0569291 0.00192909 0)
(0.0668999 0.00235394 0)
(0.0755337 0.00277599 0)
(0.0830028 0.00320245 0)
(0.0894636 0.00363931 0)
(0.0950607 0.0040917 0)
(0.0999295 0.00456414 0)
(0.1042 0.00506065 0)
(0.107993 0.00558439 0)
(0.111427 0.00613829 0)
(0.114617 0.00672482 0)
(0.117676 0.00734572 0)
(0.120727 0.00800294 0)
(0.123892 0.00869731 0)
(0.127301 0.00942915 0)
(0.131092 0.0101986 0)
(0.135396 0.0110046 0)
(0.140366 0.0118453 0)
(0.146171 0.0127166 0)
(0.152952 0.0136146 0)
(0.160844 0.0145344 0)
(0.169967 0.0154671 0)
(0.180342 0.0164072 0)
(0.191863 0.0173399 0)
(0.20412 0.0182278 0)
(0.215992 0.0189188 0)
(0.224231 0.0197865 -3.74518e-13)
(0 0 0)
(0.0171477 0.000562891 0)
(0.0326239 0.0010859 0)
(0.0460961 0.00156857 0)
(0.0578224 0.00202603 0)
(0.0680338 0.00247018 0)
(0.0769267 0.00291011 0)
(0.0846782 0.00335315 0)
(0.0914493 0.00380535 0)
(0.0973882 0.00427173 0)
(0.102635 0.00475669 0)
(0.107324 0.00526416 0)
(0.111579 0.0057969 0)
(0.115522 0.00635738 0)
(0.119274 0.00694738 0)
(0.122955 0.0075682 0)
(0.12669 0.00822075 0)
(0.130598 0.00890478 0)
(0.134817 0.00962003 0)
(0.139496 0.0103648 0)
(0.144777 0.011136 0)
(0.150798 0.0119303 0)
(0.157735 0.0127415 0)
(0.165751 0.013562 0)
(0.174961 0.0143849 0)
(0.185487 0.0151995 0)
(0.197406 0.0160009 0)
(0.210587 0.0167909 0)
(0.224595 0.0175775 0)
(0.238293 0.0182718 0)
(0.251746 0.0200147 -2.33157e-12)
(0 0 0)
(0.0173748 0.000588013 0)
(0.0330775 0.00113419 0)
(0.0467766 0.00163765 0)
(0.0587362 0.0021139 0)
(0.0691933 0.00257506 0)
(0.0783497 0.00303036 0)
(0.0863868 0.00348721 0)
(0.09347 0.00395164 0)
(0.0997521 0.00442857 0)
(0.105379 0.00492232 0)
(0.110484 0.00543618 0)
(0.115193 0.00597248 0)
(0.119632 0.00653331 0)
(0.123923 0.00711974 0)
(0.128192 0.00773235 0)
(0.132568 0.00837068 0)
(0.137173 0.00903315 0)
(0.142138 0.00971837 0)
(0.14761 0.0104229 0)
(0.153735 0.0111405 0)
(0.160649 0.0118645 0)
(0.168509 0.0125857 0)
(0.177458 0.013289 0)
(0.187594 0.0139584 0)
(0.199009 0.0145693 0)
(0.211725 0.0150866 0)
(0.225507 0.0154597 0)
(0.23979 0.0155748 0)
(0.253704 0.0150652 0)
(0.279434 0.0200952 7.8455e-23)
(-2.56739e-16 0 -8.582e-23)
(0.00541108 0 0)
(0.0111566 0 0)
(0.0204949 0 0)
(0.0327425 0 0)
(0.0469011 0 0)
(0.0619049 0 0)
(0.0767894 0 0)
(0.0908219 0 0)
(0.103519 0 0)
(0.114595 0 0)
(0.123927 0 0)
(0.131492 0 0)
(0.137324 0 0)
(0.141478 0 0)
(0.144023 0 0)
(0.145029 0 0)
(0.144552 0 0)
(0.142625 0 0)
(0.139265 0 0)
(0.134476 0 0)
(0.12825 0 0)
(0.120563 0 0)
(0.111372 0 0)
(0.100619 0 0)
(0.0882467 0 0)
(0.0741852 0 0)
(0.0583606 0 0)
(0.0406988 0 0)
(0.0211125 0 0)
(0 0 0)
(0.00187653 -0.00251746 1.58094e-12)
(0.00717912 -0.00259728 0)
(0.0130353 -0.00265991 0)
(0.0224369 -0.00266558 0)
(0.0346818 -0.00262375 0)
(0.0487678 -0.00253856 0)
(0.0636432 -0.00241958 0)
(0.0783607 -0.00227636 0)
(0.0922121 -0.00211858 0)
(0.104728 -0.00195445 0)
(0.115629 -0.00178943 0)
(0.124799 -0.00162957 0)
(0.132221 -0.00147808 0)
(0.137926 -0.00133647 0)
(0.141974 -0.00120372 0)
(0.144432 -0.00108058 0)
(0.145366 -0.000969547 0)
(0.144828 -0.000867243 0)
(0.142853 -0.000773504 0)
(0.139454 -0.000687854 0)
(0.134633 -0.000608298 0)
(0.128379 -0.000535454 0)
(0.120671 -0.00046804 0)
(0.11146 -0.000405263 0)
(0.100691 -0.000346102 0)
(0.0883043 -0.000289381 0)
(0.0742313 -0.000233849 0)
(0.0583962 -0.000178354 0)
(0.0407235 -0.00012163 0)
(0.0211253 -6.22627e-05 0)
(0 0 0)
(0.00693883 -0.00519276 4.08916e-13)
(0.0124567 -0.00517405 0)
(0.0186436 -0.00526997 0)
(0.0282255 -0.00526665 0)
(0.0404377 -0.00517536 0)
(0.0542852 -0.00500218 0)
(0.0687724 -0.00476342 0)
(0.0830052 -0.004478 0)
(0.0963227 -0.00416538 0)
(0.108293 -0.00384173 0)
(0.118671 -0.00351685 0)
(0.127364 -0.00320106 0)
(0.134362 -0.00290168 0)
(0.139699 -0.00262167 0)
(0.143436 -0.00236263 0)
(0.145637 -0.00212409 0)
(0.146358 -0.00190549 0)
(0.145644 -0.00170468 0)
(0.143524 -0.00152153 0)
(0.140011 -0.00135388 0)
(0.135096 -0.00119921 0)
(0.128765 -0.00105665 0)
(0.120989 -0.000924321 0)
(0.11172 -0.00080099 0)
(0.100901 -0.000684624 0)
(0.0884745 -0.000572862 0)
(0.0743671 -0.000463205 0)
(0.0585006 -0.000353465 0)
(0.0407953 -0.00024114 0)
(0.0211615 -0.000123473 0)
(0 0 0)
(0.0156106 -0.0077777 -8.24124e-14)
(0.0211403 -0.00764089 0)
(0.0278134 -0.00775089 0)
(0.0376147 -0.00772533 0)
(0.0497015 -0.00757468 0)
(0.0631367 -0.00731206 0)
(0.0769922 -0.00695879 0)
(0.0904359 -0.00653916 0)
(0.102888 -0.00607983 0)
(0.113981 -0.00560516 0)
(0.123523 -0.00513188 0)
(0.131456 -0.00467229 0)
(0.137782 -0.00423605 0)
(0.142537 -0.0038274 0)
(0.145781 -0.00345017 0)
(0.14757 -0.00310458 0)
(0.14795 -0.00278715 0)
(0.146958 -0.00249649 0)
(0.144611 -0.00223072 0)
(0.140911 -0.00198697 0)
(0.135845 -0.00176323 0)
(0.129389 -0.00155633 0)
(0.121506 -0.00136352 0)
(0.112141 -0.00118289 0)
(0.101241 -0.00101182 0)
(0.0887492 -0.000847171 0)
(0.0745864 -0.000685499 0)
(0.0586686 -0.000523447 0)
(0.0409092 -0.000357256 0)
(0.0212166 -0.000182943 0)
(0 0 0)
(0.0275693 -0.0100836 -6.7823e-13)
(0.0329808 -0.00989146 0)
(0.0402071 -0.0100151 0)
(0.0501964 -0.00996802 0)
(0.0620531 -0.00976038 0)
(0.0749152 -0.00941337 0)
(0.0878953 -0.0089523 0)
(0.100256 -0.00840744 0)
(0.111546 -0.00781503 0)
(0.121476 -0.00720438 0)
(0.129919 -0.00659844 0)
(0.136859 -0.00601282 0)
(0.142303 -0.00545657 0)
(0.146299 -0.00493579 0)
(0.148898 -0.0044535 0)
(0.150144 -0.00401065 0)
(0.150078 -0.00360535 0)
(0.148717 -0.00323437 0)
(0.146065 -0.00289422 0)
(0.142115 -0.00258245 0)
(0.136845 -0.0022959 0)
(0.130221 -0.00202997 0)
(0.122197 -0.00178145 0)
(0.112709 -0.00154739 0)
(0.101703 -0.00132469 0)
(0.08912 -0.00110974 0)
(0.0748779 -0.000898399 0)
(0.0588919 -0.00068633 0)
(0.041066 -0.000468674 0)
(0.0212991 -0.000240077 0)
(0 0 0)
(0.0422493 -0.0120041 -4.96308e-22)
(0.0475827 -0.0118765 0)
(0.0553832 -0.0120185 0)
(0.0655175 -0.0119577 0)
(0.0770502 -0.011702 0)
(0.0891537 -0.0112757 0)
(0.101003 -0.0107122 0)
(0.112028 -0.0100531 0)
(0.121902 -0.00934191 0)
(0.130423 -0.00861296 0)
(0.137557 -0.0078937 0)
(0.143312 -0.0072009 0)
(0.147713 -0.00654403 0)
(0.150816 -0.00593002 0)
(0.152652 -0.00535989 0)
(0.153258 -0.00483476 0)
(0.15266 -0.00435376 0)
(0.150855 -0.00391198 0)
(0.147832 -0.00350601 0)
(0.143577 -0.00313365 0)
(0.138059 -0.0027902 0)
(0.131231 -0.00247052 0)
(0.123033 -0.0021712 0)
(0.113397 -0.00188829 0)
(0.102266 -0.0016182 0)
(0.0895767 -0.00135677 0)
(0.0752407 -0.00109895 0)
(0.0591678 -0.000839802 0)
(0.0412602 -0.000573763 0)
(0.0214056 -0.000294073 0)
(0 0 0)
(0.0591246 -0.013652 -4.62868e-13)
(0.064573 -0.013626 0)
(0.0729471 -0.0137779 0)
(0.0831618 -0.0136979 0)
(0.0942299 -0.0133906 0)
(0.105349 -0.0128828 0)
(0.115821 -0.01222 0)
(0.125278 -0.0114575 0)
(0.133511 -0.010643 0)
(0.14044 -0.00981495 0)
(0.146105 -0.00900276 0)
(0.150531 -0.00822277 0)
(0.153781 -0.00748597 0)
(0.155893 -0.0067973 0)
(0.156883 -0.00615678 0)
(0.156783 -0.00556576 0)
(0.155591 -0.00502227 0)
(0.153288 -0.00452129 0)
(0.14985 -0.00405946 0)
(0.14525 -0.00363393 0)
(0.139449 -0.00324033 0)
(0.132386 -0.00287345 0)
(0.123989 -0.00252895 0)
(0.114185 -0.00220227 0)
(0.102911 -0.00188917 0)
(0.090103 -0.00158532 0)
(0.0756628 -0.00128511 0)
(0.0594868 -0.000982645 0)
(0.0414788 -0.000671675 0)
(0.0215211 -0.000344415 0)
(0 0 0)
(0.0780057 -0.0151958 -5.03721e-13)
(0.0836887 -0.0151951 0)
(0.0925931 -0.0153299 0)
(0.102737 -0.0152049 0)
(0.113105 -0.014825 0)
(0.122969 -0.0142251 0)
(0.131817 -0.0134636 0)
(0.13948 -0.0126055 0)
(0.1459 -0.0117041 0)
(0.151117 -0.010799 0)
(0.155209 -0.00991637 0)
(0.158232 -0.00907161 0)
(0.160264 -0.00827524 0)
(0.161329 -0.00753096 0)
(0.161431 -0.00683796 0)
(0.160581 -0.00619618 0)
(0.158758 -0.00560381 0)