/*--------------------------------*- C++ -*----------------------------------*\
| =========                 |                                                 |
| \\      /  F ield         | OpenFOAM: The Open Source CFD Toolbox           |
|  \\    /   O peration     | Version:  4.1                                   |
|   \\  /    A nd           | Web:      www.OpenFOAM.org                      |
|    \\/     M anipulation  |                                                 |
\*---------------------------------------------------------------------------*/
FoamFile
{
    version     2.0;
    format      ascii;
    class       pointVectorField;
    location    "2.4";
    object      pointDisplacement;
}
// * * * * * * * * * * * * * * * * * * * * * * * * * * * * * * * * * * * * * //

dimensions      [0 1 0 0 0 0 0];

internalField   nonuniform List<vector> 
5828
(
(0 0 0)
(0.0269 0 0)
(0.0505847 0 0)
(0.0703532 0 0)
(0.0866114 0 0)
(0.0997539 0 0)
(0.110126 0 0)
(0.118029 0 0)
(0.123726 0 0)
(0.127446 0 0)
(0.129392 0 0)
(0.129744 0 0)
(0.128664 0 0)
(0.126296 0 0)
(0.122768 0 0)
(0.1182 0 0)
(0.1127 0 0)
(0.106372 0 0)
(0.0993171 0 0)
(0.0916321 0 0)
(0.083414 0 0)
(0.0747612 0 0)
(0.0657775 0 0)
(0.0565762 0 0)
(0.0472862 0 0)
(0.0380624 0 0)
(0.0291117 0 0)
(0.0207479 0 0)
(0.0134763 0 0)
(0.00834311 0 0)
(-2.6576e-15 0 0)
(0 0 0)
(0.0269208 0.000114523 0)
(0.0506292 0.000220069 0)
(0.0704207 0.0003164 0)
(0.086702 0.000406816 0)
(0.0998688 0.000493989 0)
(0.110267 0.000579953 0)
(0.118198 0.000666319 0)
(0.123926 0.000754445 0)
(0.127679 0.000845704 0)
(0.12966 0.000941008 0)
(0.130052 0.00104129 0)
(0.129017 0.00114775 0)
(0.126699 0.00126132 0)
(0.123226 0.00138294 0)
(0.11872 0.00151364 0)
(0.113289 0.00165456 0)
(0.107039 0.00180702 0)
(0.100071 0.00197271 0)
(0.0924851 0.00215348 0)
(0.0843805 0.00235133 0)
(0.0758588 0.00256874 0)
(0.0670284 0.00280892 0)
(0.0580093 0.00307612 0)
(0.0489412 0.00337619 0)
(0.0399899 0.00371638 0)
(0.0313694 0.00410777 0)
(0.0234072 0.00457126 0)
(0.0166748 0.00514741 0)
(0.0123358 0.00586063 0)
(0.0055658 0.00655105 0)
(0 0 0)
(0.0269941 0.000228903 0)
(0.0507721 0.000439896 0)
(0.0706299 0.000632481 0)
(0.0869783 0.000813243 0)
(0.100216 0.000987536 0)
(0.11069 0.00115942 0)
(0.118703 0.00133211 0)
(0.12452 0.00150818 0)
(0.128371 0.00168947 0)
(0.13046 0.00187872 0)
(0.130972 0.00207873 0)
(0.130071 0.00229109 0)
(0.127901 0.00251758 0)
(0.124595 0.00276009 0)
(0.120273 0.00302064 0)
(0.115049 0.00330145 0)
(0.10903 0.00360507 0)
(0.102323 0.00393499 0)
(0.0950326 0.00429497 0)
(0.0872658 0.0046889 0)
(0.0791326 0.0051217 0)
(0.0707532 0.0055998 0)
(0.0622641 0.00613205 0)
(0.053837 0.00673223 0)
(0.0456818 0.00741623 0)
(0.0380614 0.00820209 0)
(0.0313433 0.00911535 0)
(0.026168 0.0102033 0)
(0.0239664 0.0114902 0)
(0.0189737 0.012677 0)
(0 0 0)
(0.0271154 0.000342426 0)
(0.0510086 0.000658101 0)
(0.0709753 0.000946204 0)
(0.087434 0.00121655 0)
(0.100789 0.00147719 0)
(0.111388 0.0017342 0)
(0.119537 0.00199235 0)
(0.125501 0.00225551 0)
(0.129515 0.00252662 0)
(0.131784 0.00280965 0)
(0.132497 0.00310852 0)
(0.131818 0.00342567 0)
(0.129895 0.00376381 0)
(0.126864 0.00412574 0)
(0.12285 0.00451447 0)
(0.11797 0.00493319 0)
(0.112336 0.00538528 0)
(0.10606 0.0058764 0)
(0.0992619 0.00641257 0)
(0.0920573 0.006999 0)
(0.0845712 0.00764284 0)
(0.0769427 0.00835341 0)
(0.0693303 0.00914375 0)
(0.061939 0.0100318 0)
(0.0550434 0.0110382 0)
(0.0490253 0.0121903 0)
(0.0443819 0.0135156 0)
(0.0417696 0.0150352 0)
(0.0427076 0.0167248 0)
(0.040213 0.0181361 0)
(0 0 0)
(0.027284 0.000454696 0)
(0.0513372 0.000873625 0)
(0.0714541 0.00125573 0)
(0.0880654 0.00161427 0)
(0.101583 0.0019599 0)
(0.112356 0.00230058 0)
(0.120692 0.00264269 0)
(0.126862 0.00299144 0)
(0.131102 0.00335133 0)
(0.133622 0.00372697 0)
(0.134612 0.0041228 0)
(0.13424 0.00454254 0)
(0.13266 0.00498988 0)
(0.13001 0.00546855 0)
(0.126424 0.00598253 0)
(0.122025 0.00653619 0)
(0.116932 0.00713437 0)
(0.111262 0.00778386 0)
(0.105147 0.00849155 0)
(0.0987231 0.00926461 0)
(0.0921353 0.0101125 0)
(0.0855479 0.0110469 0)
(0.0791635 0.0120846 0)
(0.0732265 0.013242 0)
(0.0680577 0.0145386 0)
(0.0641438 0.0160047 0)
(0.0622132 0.0176687 0)
(0.0630875 0.019531 0)
(0.0680103 0.02148 0)
(0.0682869 0.0228823 0)
(0 0 0)
(0.0274931 0.000565449 0)
(0.0517466 0.00108596 0)
(0.0720588 0.0015605 0)
(0.0888687 0.00200585 0)
(0.102594 0.002435 0)
(0.113588 0.00285781 0)
(0.122165 0.00328221 0)
(0.128596 0.00371477 0)
(0.133124 0.00416121 0)
(0.135963 0.00462694 0)
(0.137305 0.00511707 0)
(0.137324 0.00563645 0)
(0.136178 0.00618974 0)
(0.134015 0.0067815 0)
(0.13097 0.00741669 0)
(0.127182 0.00810128 0)
(0.122782 0.00884234 0)
(0.117891 0.00964569 0)
(0.112649 0.0105176 0)
(0.107218 0.0114687 0)
(0.101775 0.0125108 0)
(0.0965109 0.0136571 0)
(0.0916729 0.0149246 0)
(0.0875744 0.0163286 0)
(0.0846222 0.0178882 0)
(0.083347 0.0196226 0)
(0.0846218 0.0215487 0)
(0.089598 0.02366 0)
(0.0991734 0.0257812 0)
(0.102231 0.0271416 0)
(0 0 0)
(0.027741 0.000674021 0)
(0.0522342 0.00129438 0)
(0.0727863 0.00185995 0)
(0.0898399 0.0023906 0)
(0.103817 0.00290164 0)
(0.11508 0.00340486 0)
(0.123946 0.0039097 0)
(0.130694 0.00442398 0)
(0.135571 0.00495453 0)
(0.138793 0.00550754 0)
(0.14056 0.00608884 0)
(0.14105 0.00670436 0)
(0.140431 0.00735972 0)
(0.138853 0.00806006 0)
(0.136461 0.00881103 0)
(0.133403 0.00962044 0)
(0.12983 0.0104967 0)
(0.12588 0.0114452 0)
(0.121701 0.0124735 0)
(0.117477 0.0135939 0)
(0.113414 0.0148184 0)
(0.109755 0.0161622 0)
(0.106784 0.0176394 0)
(0.104865 0.0192632 0)
(0.104523 0.0210522 0)
(0.106406 0.0230163 0)
(0.111401 0.0251513 0)
(0.120924 0.0274381 0)
(0.135667 0.0296792 0)
(0.141748 0.0311398 0)
(0 0 0)
(0.0280312 0.000779858 0)
(0.0528048 0.00149774 0)
(0.0736343 0.00215222 0)
(0.0909697 0.00276595 0)
(0.10524 0.00335664 0)
(0.116815 0.0039379 0)
(0.126018 0.00452061 0)
(0.133134 0.0051138 0)
(0.138415 0.00572528 0)
(0.142083 0.00636202 0)
(0.144341 0.00703036 0)
(0.145379 0.00773757 0)
(0.14537 0.00849028 0)
(0.144475 0.00929392 0)
(0.142847 0.0101553 0)
(0.140643 0.0110832 0)
(0.138029 0.0120857 0)
(0.135167 0.01317 0)
(0.13223 0.0143455 0)
(0.129419 0.0156239 0)
(0.126969 0.0170173 0)
(0.125169 0.0185407 0)
(0.124363 0.0202056 0)
(0.124983 0.0220238 0)
(0.127611 0.0240071 0)
(0.13306 0.0261591 0)
(0.1423 0.0284607 0)
(0.156852 0.0308693 0)
(0.177111 0.0331622 0)
(0.186492 0.0346721 0)
(0 0 0)
(0.028361 0.000882561 0)
(0.0534524 0.00169498 0)
(0.0745945 0.0024355 0)
(0.0922474 0.00312955 0)
(0.106849 0.00379708 0)
(0.118776 0.00445344 0)
(0.128361 0.00511088 0)
(0.135892 0.00577954 0)
(0.141629 0.00646823 0)
(0.145801 0.00718464 0)
(0.148618 0.00793613 0)
(0.150278 0.00873083 0)
(0.15096 0.00957563 0)
(0.150836 0.0104767 0)
(0.150077 0.0114426 0)
(0.148844 0.0124812 0)
(0.147315 0.0136007 0)
(0.145685 0.0148104 0)
(0.14415 0.0161205 0)
(0.142938 0.0175425 0)
(0.142326 0.0190886 0)
(0.142632 0.0207708 0)
(0.144261 0.0225994 0)
(0.147746 0.024585 0)
(0.153749 0.0267321 0)
(0.163169 0.0290326 0)
(0.17716 0.0314585 0)
(0.19716 0.0339288 0)
(0.223001 0.0361779 0)
(0.235617 0.0376142 0)
(0 0 0)
(0.0287282 0.000981992 0)
(0.0541733 0.00188586 0)
(0.075662 0.00270951 0)
(0.0936672 0.003481 0)
(0.108636 0.00422246 0)
(0.120956 0.00495088 0)
(0.130962 0.00567974 0)
(0.138954 0.00642025 0)
(0.145197 0.00718219 0)
(0.149928 0.00797415 0)
(0.153369 0.00880476 0)
(0.155719 0.00968196 0)
(0.157166 0.0106123 0)
(0.157891 0.0116032 0)
(0.158084 0.0126643 0)
(0.157926 0.0138037 0)
(0.157603 0.0150301 0)
(0.157336 0.0163533 0)
(0.157351 0.0177835 0)
(0.157906 0.0193323 0)
(0.15932 0.0210112 0)
(0.161964 0.0228302 0)
(0.16631 0.0247983 0)
(0.172956 0.026922 0)
(0.182707 0.029201 0)
(0.196522 0.0316137 0)
(0.2157 0.034116 0)
(0.241389 0.0365785 0)
(0.272667 0.0387006 0)
(0.2883 0.0400204 0)
(0 0 0)
(0.0291306 0.00107802 0)
(0.0549632 0.00207015 0)
(0.0768311 0.00297389 0)
(0.0952215 0.00381985 0)
(0.110593 0.00463222 0)
(0.123341 0.00542948 0)
(0.13381 0.00622622 0)
(0.142304 0.00703462 0)
(0.149097 0.00786546 0)
(0.154438 0.0087281 0)
(0.158549 0.00963138 0)
(0.161643 0.0105837 0)
(0.163919 0.0115922 0)
(0.165569 0.0126651 0)
(0.166797 0.0138121 0)
(0.167807 0.0150425 0)
(0.168797 0.016364 0)
(0.170005 0.017786 0)
(0.171698 0.0193198 0)
(0.174167 0.0209761 0)
(0.177784 0.0227659 0)
(0.182976 0.0246979 0)
(0.19028 0.0267782 0)
(0.20039 0.0290096 0)
(0.214194 0.0313839 0)
(0.232755 0.0338681 0)
(0.257388 0.0363937 0)
(0.288814 0.0387862 0)
(0.325355 0.0407297 0)
(0.343914 0.0419435 0)
(0 0 0)
(0.0295643 0.00117005 0)
(0.0558142 0.00224668 0)
(0.0780898 0.00322698 0)
(0.0968943 0.0041439 0)
(0.1127 0.00502364 0)
(0.125909 0.00588606 0)
(0.136873 0.00674667 0)
(0.145904 0.00761845 0)
(0.153289 0.00851325 0)
(0.15928 0.00944099 0)
(0.164109 0.0104105 0)
(0.168 0.0114311 0)
(0.171162 0.0125104 0)
(0.173806 0.0136571 0)
(0.17614 0.0148803 0)
(0.178385 0.0161888 0)
(0.180772 0.017591 0)
(0.183557 0.0190964 0)
(0.187042 0.0207156 0)
(0.191555 0.0224588 0)
(0.19752 0.0243359 0)
(0.205431 0.026353 0)
(0.215891 0.0285135 0)
(0.229708 0.0308172 0)
(0.247804 0.0332454 0)
(0.271376 0.035756 0)
(0.301565 0.038253 0)
(0.338629 0.0405298 0)
(0.380199 0.0422549 0)
(0.401821 0.0434022 0)
(0 0 0)
(0.030025 0.00125751 0)
(0.056718 0.00241439 0)
(0.0794258 0.00346721 0)
(0.0986691 0.00445114 0)
(0.114935 0.00539431 0)
(0.128634 0.00631786 0)
(0.140123 0.00723799 0)
(0.149726 0.00816879 0)
(0.15774 0.00912295 0)
(0.164423 0.0101104 0)
(0.170016 0.0111405 0)
(0.17475 0.0122225 0)
(0.178841 0.0133637 0)
(0.182521 0.0145735 0)
(0.186012 0.0158607 0)
(0.189553 0.017234 0)
(0.193403 0.0187023 0)
(0.197842 0.0202742 0)
(0.203201 0.0219585 0)
(0.209858 0.0237651 0)
(0.218267 0.025701 0)
(0.228987 0.0277699 0)
(0.242737 0.0299737 0)
(0.260379 0.032305 0)
(0.282928 0.0347383 0)
(0.311622 0.0372218 0)
(0.347288 0.0396355 0)
(0.389795 0.0417579 0)
(0.436081 0.0432076 0)
(0.461355 0.0444607 0)
(0 0 0)
(0.0305093 0.00134015 0)
(0.0576682 0.00257278 0)
(0.0808296 0.00369393 0)
(0.100535 0.00474103 0)
(0.117289 0.00574395 0)
(0.131505 0.00672457 0)
(0.143547 0.00769998 0)
(0.153755 0.00868553 0)
(0.162429 0.0096939 0)
(0.169832 0.0107348 0)
(0.176214 0.0118179 0)
(0.181819 0.0129523 0)
(0.186877 0.0141462 0)
(0.19163 0.0154086 0)
(0.19632 0.0167482 0)
(0.201202 0.0181729 0)
(0.206555 0.0196907 0)
(0.21269 0.0213093 0)
(0.219966 0.0230361 0)
(0.228803 0.0248784 0)
(0.239695 0.0268404 0)
(0.253271 0.0289233 0)
(0.270326 0.0311244 0)
(0.291775 0.0334271 0)
(0.318744 0.0357995 0)
(0.352329 0.0381746 0)
(0.393137 0.0404203 0)
(0.440704 0.0423113 0)
(0.491309 0.0433439 0)
(0.522043 0.0451745 0)
(0 0 0)
(0.0310151 0.0014179 0)
(0.058661 0.00272179 0)
(0.0822999 0.00390724 0)
(0.102493 0.00501389 0)
(0.119755 0.00607258 0)
(0.134506 0.0071058 0)
(0.147125 0.00813189 0)
(0.157956 0.0091666 0)
(0.167307 0.0102227 0)
(0.17545 0.0113101 0)
(0.182644 0.0124386 0)
(0.189146 0.0136177 0)
(0.195203 0.0148557 0)
(0.201056 0.01616 0)
(0.206965 0.0175389 0)
(0.213208 0.019 0)
(0.220079 0.0205495 0)
(0.227915 0.0221939 0)
(0.237108 0.0239382 0)
(0.248112 0.0257862 0)
(0.261462 0.0277386 0)
(0.277844 0.0297915 0)
(0.29807 0.0319323 0)
(0.323113 0.0341336 0)
(0.354075 0.0363458 0)
(0.391882 0.0384769 0)
(0.437042 0.0403724 0)
(0.488703 0.0417779 0)
(0.54289 0.0419566 0)
(0.583382 0.045557 0)
(0 0 0)
(0.0315437 0.00149133 0)
(0.0597 0.00286247 0)
(0.0838418 0.00410861 0)
(0.104546 0.00527094 0)
(0.122332 0.00638106 0)
(0.137637 0.00746241 0)
(0.150851 0.0085344 0)
(0.162328 0.00961304 0)
(0.17238 0.0107114 0)
(0.181289 0.0118395 0)
(0.189326 0.0130069 0)
(0.19675 0.0142228 0)
(0.203818 0.0154945 0)
(0.210788 0.0168292 0)
(0.217939 0.0182347 0)
(0.225551 0.0197166 0)
(0.233933 0.021279 0)
(0.243453 0.0229271 0)
(0.254531 0.0246623 0)
(0.267648 0.0264838 0)
(0.283356 0.028386 0)
(0.302349 0.0303559 0)
(0.325451 0.0323672 0)
(0.353594 0.0343712 0)
(0.387699 0.036282 0)
(0.428517 0.0379433 0)
(0.476171 0.0390687 0)
(0.528867 0.039086 0)
(0.581578 0.0365358 0)
(0.64501 0.0456751 0)
(0 0 0)
(0.0269 0 0)
(0.0505847 0 0)
(0.0703532 0 0)
(0.0866114 0 0)
(0.0997539 0 0)
(0.110126 0 0)
(0.118029 0 0)
(0.123726 0 0)
(0.127446 0 0)
(0.129392 0 0)
(0.129744 0 0)
(0.128664 0 0)
(0.126296 0 0)
(0.122768 0 0)
(0.1182 0 0)
(0.1127 0 0)
(0.106372 0 0)
(0.0993171 0 0)
(0.0916321 0 0)
(0.083414 0 0)
(0.0747612 0 0)
(0.0657775 0 0)
(0.0565762 0 0)
(0.0472862 0 0)
(0.0380624 0 0)
(0.0291117 0 0)
(0.0207479 0 0)
(0.0134763 0 0)
(0.00834311 0 0)
(-1.38778e-17 0 0)
(0 0 0)
(0.0269208 0.000114523 0)
(0.0506292 0.000220069 0)
(0.0704207 0.0003164 0)
(0.086702 0.000406816 0)
(0.0998688 0.000493989 0)
(0.110267 0.000579953 0)
(0.118198 0.000666319 0)
(0.123926 0.000754445 0)
(0.127679 0.000845704 0)
(0.12966 0.000941008 0)
(0.130052 0.00104129 0)
(0.129017 0.00114775 0)
(0.126699 0.00126132 0)
(0.123226 0.00138294 0)
(0.11872 0.00151364 0)
(0.113289 0.00165456 0)
(0.107039 0.00180702 0)
(0.100071 0.00197271 0)
(0.0924851 0.00215348 0)
(0.0843805 0.00235133 0)
(0.0758588 0.00256874 0)
(0.0670284 0.00280892 0)
(0.0580093 0.00307612 0)
(0.0489412 0.00337619 0)
(0.0399899 0.00371638 0)
(0.0313694 0.00410777 0)
(0.0234072 0.00457126 0)
(0.0166748 0.00514741 0)
(0.0123358 0.00586063 0)
(0.0055658 0.00655105 0)
(0 0 0)
(0.0269941 0.000228903 0)
(0.0507721 0.000439896 0)
(0.0706299 0.000632481 0)
(0.0869783 0.000813243 0)
(0.100216 0.000987536 0)
(0.11069 0.00115942 0)
(0.118703 0.00133211 0)
(0.12452 0.00150818 0)
(0.128371 0.00168947 0)
(0.13046 0.00187872 0)
(0.130972 0.00207873 0)
(0.130071 0.00229109 0)
(0.127901 0.00251758 0)
(0.124595 0.00276009 0)
(0.120273 0.00302064 0)
(0.115049 0.00330145 0)
(0.10903 0.00360507 0)
(0.102323 0.00393499 0)
(0.0950326 0.00429497 0)
(0.0872658 0.0046889 0)
(0.0791326 0.0051217 0)
(0.0707532 0.0055998 0)
(0.0622641 0.00613205 0)
(0.053837 0.00673223 0)
(0.0456818 0.00741623 0)
(0.0380614 0.00820209 0)
(0.0313433 0.00911535 0)
(0.026168 0.0102033 0)
(0.0239664 0.0114902 0)
(0.0189737 0.012677 0)
(0 0 0)
(0.0271154 0.000342426 0)
(0.0510086 0.000658101 0)
(0.0709753 0.000946204 0)
(0.087434 0.00121655 0)
(0.100789 0.00147719 0)
(0.111388 0.0017342 0)
(0.119537 0.00199235 0)
(0.125501 0.00225551 0)
(0.129515 0.00252662 0)
(0.131784 0.00280965 0)
(0.132497 0.00310852 0)
(0.131818 0.00342567 0)
(0.129895 0.00376381 0)
(0.126864 0.00412574 0)
(0.12285 0.00451447 0)
(0.11797 0.00493319 0)
(0.112336 0.00538528 0)
(0.10606 0.0058764 0)
(0.0992619 0.00641257 0)
(0.0920573 0.006999 0)
(0.0845712 0.00764284 0)
(0.0769427 0.00835341 0)
(0.0693303 0.00914375 0)
(0.061939 0.0100318 0)
(0.0550434 0.0110382 0)
(0.0490253 0.0121903 0)
(0.0443819 0.0135156 0)
(0.0417696 0.0150352 0)
(0.0427076 0.0167248 0)
(0.040213 0.0181361 0)
(0 0 0)
(0.027284 0.000454696 0)
(0.0513372 0.000873625 0)
(0.0714541 0.00125573 0)
(0.0880654 0.00161427 0)
(0.101583 0.0019599 0)
(0.112356 0.00230058 0)
(0.120692 0.00264269 0)
(0.126862 0.00299144 0)
(0.131102 0.00335133 0)
(0.133622 0.00372697 0)
(0.134612 0.0041228 0)
(0.13424 0.00454254 0)
(0.13266 0.00498988 0)
(0.13001 0.00546855 0)
(0.126424 0.00598253 0)
(0.122025 0.00653619 0)
(0.116932 0.00713437 0)
(0.111262 0.00778386 0)
(0.105147 0.00849155 0)
(0.0987231 0.00926461 0)
(0.0921353 0.0101125 0)
(0.0855479 0.0110469 0)
(0.0791635 0.0120846 0)
(0.0732265 0.013242 0)
(0.0680577 0.0145386 0)
(0.0641438 0.0160047 0)
(0.0622132 0.0176687 0)
(0.0630875 0.019531 0)
(0.0680103 0.02148 0)
(0.0682869 0.0228823 0)
(0 0 0)
(0.0274931 0.000565449 0)
(0.0517466 0.00108596 0)
(0.0720588 0.0015605 0)
(0.0888687 0.00200585 0)
(0.102594 0.002435 0)
(0.113588 0.00285781 0)
(0.122165 0.00328221 0)
(0.128596 0.00371477 0)
(0.133124 0.00416121 0)
(0.135963 0.00462694 0)
(0.137305 0.00511707 0)
(0.137324 0.00563645 0)
(0.136178 0.00618974 0)
(0.134015 0.0067815 0)
(0.13097 0.00741669 0)
(0.127182 0.00810128 0)
(0.122782 0.00884234 0)
(0.117891 0.00964569 0)
(0.112649 0.0105176 0)
(0.107218 0.0114687 0)
(0.101775 0.0125108 0)
(0.0965109 0.0136571 0)
(0.0916729 0.0149246 0)
(0.0875744 0.0163286 0)
(0.0846222 0.0178882 0)
(0.083347 0.0196226 0)
(0.0846218 0.0215487 0)
(0.089598 0.02366 0)
(0.0991734 0.0257812 0)
(0.102231 0.0271416 0)
(0 0 0)
(0.027741 0.000674021 0)
(0.0522342 0.00129438 0)
(0.0727863 0.00185995 0)
(0.0898399 0.0023906 0)
(0.103817 0.00290164 0)
(0.11508 0.00340486 0)
(0.123946 0.0039097 0)
(0.130694 0.00442398 0)
(0.135571 0.00495453 0)
(0.138793 0.00550754 0)
(0.14056 0.00608884 0)
(0.14105 0.00670436 0)
(0.140431 0.00735972 0)
(0.138853 0.00806006 0)
(0.136461 0.00881103 0)
(0.133403 0.00962044 0)
(0.12983 0.0104967 0)
(0.12588 0.0114452 0)
(0.121701 0.0124735 0)
(0.117477 0.0135939 0)
(0.113414 0.0148184 0)
(0.109755 0.0161622 0)
(0.106784 0.0176394 0)
(0.104865 0.0192632 0)
(0.104523 0.0210522 0)
(0.106406 0.0230163 0)
(0.111401 0.0251513 0)
(0.120924 0.0274381 0)
(0.135667 0.0296792 0)
(0.141748 0.0311398 0)
(0 0 0)
(0.0280312 0.000779858 0)
(0.0528048 0.00149774 0)
(0.0736343 0.00215222 0)
(0.0909697 0.00276595 0)
(0.10524 0.00335664 0)
(0.116815 0.0039379 0)
(0.126018 0.00452061 0)
(0.133134 0.0051138 0)
(0.138415 0.00572528 0)
(0.142083 0.00636202 0)
(0.144341 0.00703036 0)
(0.145379 0.00773757 0)
(0.14537 0.00849028 0)
(0.144475 0.00929392 0)
(0.142847 0.0101553 0)
(0.140643 0.0110832 0)
(0.138029 0.0120857 0)
(0.135167 0.01317 0)
(0.13223 0.0143455 0)
(0.129419 0.0156239 0)
(0.126969 0.0170173 0)
(0.125169 0.0185407 0)
(0.124363 0.0202056 0)
(0.124983 0.0220238 0)
(0.127611 0.0240071 0)
(0.13306 0.0261591 0)
(0.1423 0.0284607 0)
(0.156852 0.0308693 0)
(0.177111 0.0331622 0)
(0.186492 0.0346721 0)
(0 0 0)
(0.028361 0.000882561 0)
(0.0534524 0.00169498 0)
(0.0745945 0.0024355 0)
(0.0922474 0.00312955 0)
(0.106849 0.00379708 0)
(0.118776 0.00445344 0)
(0.128361 0.00511088 0)
(0.135892 0.00577954 0)
(0.141629 0.00646823 0)
(0.145801 0.00718464 0)
(0.148618 0.00793613 0)
(0.150278 0.00873083 0)
(0.15096 0.00957563 0)
(0.150836 0.0104767 0)
(0.150077 0.0114426 0)
(0.148844 0.0124812 0)
(0.147315 0.0136007 0)
(0.145685 0.0148104 0)
(0.14415 0.0161205 0)
(0.142938 0.0175425 0)
(0.142326 0.0190886 0)
(0.142632 0.0207708 0)
(0.144261 0.0225994 0)
(0.147746 0.024585 0)
(0.153749 0.0267321 0)
(0.163169 0.0290326 0)
(0.17716 0.0314585 0)
(0.19716 0.0339288 0)
(0.223001 0.0361779 0)
(0.235617 0.0376142 0)
(0 0 0)
(0.0287282 0.000981992 0)
(0.0541733 0.00188586 0)
(0.075662 0.00270951 0)
(0.0936672 0.003481 0)
(0.108636 0.00422246 0)
(0.120956 0.00495088 0)
(0.130962 0.00567974 0)
(0.138954 0.00642025 0)
(0.145197 0.00718219 0)
(0.149928 0.00797415 0)
(0.153369 0.00880476 0)
(0.155719 0.00968196 0)
(0.157166 0.0106123 0)
(0.157891 0.0116032 0)
(0.158084 0.0126643 0)
(0.157926 0.0138037 0)
(0.157603 0.0150301 0)
(0.157336 0.0163533 0)
(0.157351 0.0177835 0)
(0.157906 0.0193323 0)
(0.15932 0.0210112 0)
(0.161964 0.0228302 0)
(0.16631 0.0247983 0)
(0.172956 0.026922 0)
(0.182707 0.029201 0)
(0.196522 0.0316137 0)
(0.2157 0.034116 0)
(0.241389 0.0365785 0)
(0.272667 0.0387006 0)
(0.2883 0.0400204 0)
(0 0 0)
(0.0291306 0.00107802 0)
(0.0549632 0.00207015 0)
(0.0768311 0.00297389 0)
(0.0952215 0.00381985 0)
(0.110593 0.00463222 0)
(0.123341 0.00542948 0)
(0.13381 0.00622622 0)
(0.142304 0.00703462 0)
(0.149097 0.00786546 0)
(0.154438 0.0087281 0)
(0.158549 0.00963138 0)
(0.161643 0.0105837 0)
(0.163919 0.0115922 0)
(0.165569 0.0126651 0)
(0.166797 0.0138121 0)
(0.167807 0.0150425 0)
(0.168797 0.016364 0)
(0.170005 0.017786 0)
(0.171698 0.0193198 0)
(0.174167 0.0209761 0)
(0.177784 0.0227659 0)
(0.182976 0.0246979 0)
(0.19028 0.0267782 0)
(0.20039 0.0290096 0)
(0.214194 0.0313839 0)
(0.232755 0.0338681 0)
(0.257388 0.0363937 0)
(0.288814 0.0387862 0)
(0.325355 0.0407297 0)
(0.343914 0.0419435 0)
(0 0 0)
(0.0295643 0.00117005 0)
(0.0558142 0.00224668 0)
(0.0780898 0.00322698 0)
(0.0968943 0.0041439 0)
(0.1127 0.00502364 0)
(0.125909 0.00588606 0)
(0.136873 0.00674667 0)
(0.145904 0.00761845 0)
(0.153289 0.00851325 0)
(0.15928 0.00944099 0)
(0.164109 0.0104105 0)
(0.168 0.0114311 0)
(0.171162 0.0125104 0)
(0.173806 0.0136571 0)
(0.17614 0.0148803 0)
(0.178385 0.0161888 0)
(0.180772 0.017591 0)
(0.183557 0.0190964 0)
(0.187042 0.0207156 0)
(0.191555 0.0224588 0)
(0.19752 0.0243359 0)
(0.205431 0.026353 0)
(0.215891 0.0285135 0)
(0.229708 0.0308172 0)
(0.247804 0.0332454 0)
(0.271376 0.035756 0)
(0.301565 0.038253 0)
(0.338629 0.0405298 0)
(0.380199 0.0422549 0)
(0.401821 0.0434022 0)
(0 0 0)
(0.030025 0.00125751 0)
(0.056718 0.00241439 0)
(0.0794258 0.00346721 0)
(0.0986691 0.00445114 0)
(0.114935 0.00539431 0)
(0.128634 0.00631786 0)
(0.140123 0.00723799 0)
(0.149726 0.00816879 0)
(0.15774 0.00912295 0)
(0.164423 0.0101104 0)
(0.170016 0.0111405 0)
(0.17475 0.0122225 0)
(0.178841 0.0133637 0)
(0.182521 0.0145735 0)
(0.186012 0.0158607 0)
(0.189553 0.017234 0)
(0.193403 0.0187023 0)
(0.197842 0.0202742 0)
(0.203201 0.0219585 0)
(0.209858 0.0237651 0)
(0.218267 0.025701 0)
(0.228987 0.0277699 0)
(0.242737 0.0299737 0)
(0.260379 0.032305 0)
(0.282928 0.0347383 0)
(0.311622 0.0372218 0)
(0.347288 0.0396355 0)
(0.389795 0.0417579 0)
(0.436081 0.0432076 0)
(0.461355 0.0444607 0)
(0 0 0)
(0.0305093 0.00134015 0)
(0.0576682 0.00257278 0)
(0.0808296 0.00369393 0)
(0.100535 0.00474103 0)
(0.117289 0.00574395 0)
(0.131505 0.00672457 0)
(0.143547 0.00769998 0)
(0.153755 0.00868553 0)
(0.162429 0.0096939 0)
(0.169832 0.0107348 0)
(0.176214 0.0118179 0)
(0.181819 0.0129523 0)
(0.186877 0.0141462 0)
(0.19163 0.0154086 0)
(0.19632 0.0167482 0)
(0.201202 0.0181729 0)
(0.206555 0.0196907 0)
(0.21269 0.0213093 0)
(0.219966 0.0230361 0)
(0.228803 0.0248784 0)
(0.239695 0.0268404 0)
(0.253271 0.0289233 0)
(0.270326 0.0311244 0)
(0.291775 0.0334271 0)
(0.318744 0.0357995 0)
(0.352329 0.0381746 0)
(0.393137 0.0404203 0)
(0.440704 0.0423113 0)
(0.491309 0.0433439 0)
(0.522043 0.0451745 0)
(0 0 0)
(0.0310151 0.0014179 0)
(0.058661 0.00272179 0)
(0.0822999 0.00390724 0)
(0.102493 0.00501389 0)
(0.119755 0.00607258 0)
(0.134506 0.0071058 0)
(0.147125 0.00813189 0)
(0.157956 0.0091666 0)
(0.167307 0.0102227 0)
(0.17545 0.0113101 0)
(0.182644 0.0124386 0)
(0.189146 0.0136177 0)
(0.195203 0.0148557 0)
(0.201056 0.01616 0)
(0.206965 0.0175389 0)
(0.213208 0.019 0)
(0.220079 0.0205495 0)
(0.227915 0.0221939 0)
(0.237108 0.0239382 0)
(0.248112 0.0257862 0)
(0.261462 0.0277386 0)
(0.277844 0.0297915 0)
(0.29807 0.0319323 0)
(0.323113 0.0341336 0)
(0.354075 0.0363458 0)
(0.391882 0.0384769 0)
(0.437042 0.0403724 0)
(0.488703 0.0417779 0)
(0.54289 0.0419566 0)
(0.583382 0.045557 0)
(0 0 0)
(0.0315437 0.00149133 0)
(0.0597 0.00286247 0)
(0.0838418 0.00410861 0)
(0.104546 0.00527094 0)
(0.122332 0.00638106 0)
(0.137637 0.00746241 0)
(0.150851 0.0085344 0)
(0.162328 0.00961304 0)
(0.17238 0.0107114 0)
(0.181289 0.0118395 0)
(0.189326 0.0130069 0)
(0.19675 0.0142228 0)
(0.203818 0.0154945 0)
(0.210788 0.0168292 0)
(0.217939 0.0182347 0)
(0.225551 0.0197166 0)
(0.233933 0.021279 0)
(0.243453 0.0229271 0)
(0.254531 0.0246623 0)
(0.267648 0.0264838 0)
(0.283356 0.028386 0)
(0.302349 0.0303559 0)
(0.325451 0.0323672 0)
(0.353594 0.0343712 0)
(0.387699 0.036282 0)
(0.428517 0.0379433 0)
(0.476171 0.0390687 0)
(0.528867 0.039086 0)
(0.581578 0.0365358 0)
(0.64501 0.0456751 0)
(-9.71445e-17 0 0)
(0.0187497 0 0)
(0.0423331 0 0)
(0.0848173 0 0)
(0.144056 0 0)
(0.209869 0 0)
(0.2707 0 0)
(0.320477 0 0)
(0.358447 0 0)
(0.386299 0 0)
(0.406055 0 0)
(0.419317 0 0)
(0.427241 0 0)
(0.430671 0 0)
(0.4302 0 0)
(0.426234 0 0)
(0.419046 0 0)
(0.408789 0 0)
(0.395546 0 0)
(0.379356 0 0)
(0.360227 0 0)
(0.338143 0 0)
(0.313073 0 0)
(0.284975 0 0)
(0.253802 0 0)
(0.219504 0 0)
(0.182029 0 0)
(0.141327 0 0)
(0.0973604 0 0)
(0.0500239 0 0)
(0 0 0)
(0.00559975 -0.00666962 0)
(0.0233769 -0.00659398 0)
(0.0477838 -0.00725568 0)
(0.0907155 -0.00764188 0)
(0.149806 -0.00773104 0)
(0.214944 -0.00748971 0)
(0.274906 -0.00701809 0)
(0.323859 -0.00643017 0)
(0.361148 -0.00581791 0)
(0.388463 -0.00523802 0)
(0.407787 -0.00470361 0)
(0.420701 -0.00421096 0)
(0.428358 -0.00375736 0)
(0.431582 -0.00335068 0)
(0.430949 -0.00298164 0)
(0.426856 -0.00264314 0)
(0.419566 -0.0023401 0)
(0.409227 -0.0020714 0)
(0.395918 -0.00183196 0)
(0.379675 -0.00161759 0)
(0.360501 -0.00142449 0)
(0.338379 -0.00124915 0)
(0.313276 -0.00108836 0)
(0.28515 -0.000939155 0)
(0.253953 -0.000798774 0)
(0.219632 -0.000664608 0)
(0.182135 -0.000534144 0)
(0.141412 -0.000404899 0)
(0.0974227 -0.000274368 0)
(0.0500586 -0.000139701 0)
(0 0 0)
(0.0189872 -0.0128975 0)
(0.0369177 -0.0128454 0)
(0.0637417 -0.0140163 0)
(0.10814 -0.0146809 0)
(0.166976 -0.01478 0)
(0.230185 -0.0142912 0)
(0.287509 -0.0133954 0)
(0.333924 -0.0122989 0)
(0.369121 -0.0111582 0)
(0.394791 -0.0100633 0)
(0.41282 -0.00904416 0)
(0.424724 -0.00810622 0)
(0.431601 -0.00725005 0)
(0.434217 -0.00647376 0)
(0.433106 -0.00576571 0)
(0.428643 -0.00512292 0)
(0.421058 -0.00454713 0)
(0.410482 -0.00403336 0)
(0.396981 -0.0035737 0)
(0.38058 -0.00316077 0)
(0.361275 -0.00278762 0)
(0.339043 -0.00244779 0)
(0.313846 -0.00213529 0)
(0.285639 -0.00184454 0)
(0.25437 -0.00157031 0)
(0.219984 -0.00130763 0)
(0.182426 -0.00105169 0)
(0.141642 -0.000797689 0)
(0.0975876 -0.000540791 0)
(0.0501481 -0.000275448 0)
(0 0 0)
(0.0402244 -0.0184884 0)
(0.058498 -0.0185229 0)
(0.0887853 -0.0200328 0)
(0.135217 -0.0208627 0)
(0.193486 -0.0208899 0)
(0.253719 -0.0201486 0)
(0.307021 -0.0188853 0)
(0.349562 -0.0173719 0)
(0.381531 -0.0158032 0)
(0.404641 -0.014286 0)
(0.420673 -0.0128659 0)
(0.431028 -0.0115588 0)
(0.436689 -0.0103628 0)
(0.438347 -0.00926921 0)
(0.436494 -0.00827279 0)
(0.431451 -0.00737205 0)
(0.423404 -0.0065626 0)
(0.412455 -0.00583618 0)
(0.39865 -0.00518321 0)
(0.381998 -0.00459407 0)
(0.362485 -0.00405953 0)
(0.340078 -0.00357083 0)
(0.314733 -0.00311979 0)
(0.286397 -0.00269869 0)
(0.255015 -0.00230025 0)
(0.220526 -0.00191747 0)
(0.18287 -0.00154353 0)
(0.141989 -0.0011716 0)
(0.0978342 -0.000794737 0)
(0.0502802 -0.000404948 0)
(0 0 0)
(0.0682991 -0.023356 0)
(0.0872814 -0.0235939 0)
(0.121562 -0.0252927 0)
(0.170128 -0.0261711 0)
(0.227284 -0.0260571 0)
(0.283583 -0.0250551 0)
(0.331795 -0.0234716 0)
(0.36948 -0.0216194 0)
(0.397391 -0.0197131 0)
(0.417283 -0.0178685 0)
(0.430804 -0.0161386 0)
(0.439177 -0.0145386 0)
(0.443271 -0.0130651 0)
(0.44371 -0.0117149 0)
(0.440911 -0.0104859 0)
(0.43512 -0.00937325 0)
(0.426473 -0.00836901 0)
(0.415036 -0.00746332 0)
(0.400832 -0.00664527 0)
(0.383851 -0.00590374 0)
(0.364063 -0.0052279 0)
(0.341425 -0.00460737 0)
(0.315883 -0.0040323 0)
(0.287378 -0.00349332 0)
(0.255845 -0.00298149 0)
(0.22122 -0.00248817 0)
(0.183436 -0.00200484 0)
(0.142429 -0.00152293 0)
(0.0981433 -0.00103366 0)
(0.0504439 -0.000526882 0)
(0 0 0)
(0.102247 -0.0276958 0)
(0.122456 -0.0281184 0)
(0.160838 -0.0298554 0)
(0.211178 -0.0306467 0)
(0.266407 -0.0303167 0)
(0.317841 -0.0290412 0)
(0.360153 -0.0271771 0)
(0.392336 -0.0250565 0)
(0.41568 -0.0228971 0)
(0.431942 -0.0208135 0)
(0.44258 -0.018854 0)
(0.448664 -0.0170313 0)
(0.450972 -0.0153477 0)
(0.450026 -0.0138034 0)
(0.446136 -0.012395 0)
(0.439472 -0.0111152 0)
(0.430119 -0.00995508 0)
(0.418106 -0.00890364 0)
(0.403427 -0.0079492 0)
(0.386052 -0.00707978 0)
(0.365936 -0.00628355 0)
(0.343021 -0.00554907 0)
(0.317243 -0.00486534 0)
(0.288533 -0.00422182 0)
(0.25682 -0.00360832 0)
(0.222031 -0.00301488 0)
(0.184095 -0.00243165 0)
(0.142938 -0.00184859 0)
(0.0984974 -0.00125543 0)
(0.0506299 -0.000640153 0)
(0 0 0)
(0.141739 -0.0317515 0)
(0.1633 -0.0321402 0)
(0.205468 -0.0337585 0)
(0.256795 -0.0343344 0)
(0.309026 -0.0337176 0)
(0.354689 -0.032157 0)
(0.390526 -0.0300476 0)
(0.416867 -0.027722 0)
(0.435401 -0.0253854 0)
(0.447789 -0.0231381 0)
(0.455333 -0.0210197 0)
(0.458998 -0.0190441 0)
(0.459429 -0.0172163 0)
(0.457008 -0.0155355 0)
(0.451939 -0.0139972 0)
(0.444322 -0.0125938 0)
(0.434191 -0.0113154 0)
(0.421538 -0.0101511 0)
(0.40633 -0.00908864 0)
(0.388514 -0.00811579 0)
(0.368028 -0.00722026 0)
(0.3448 -0.00639004 0)
(0.318755 -0.00561348 0)
(0.289814 -0.00487927 0)
(0.257897 -0.00417636 0)
(0.222925 -0.00349385 0)
(0.184816 -0.00282084 0)
(0.143491 -0.00214618 0)
(0.0988805 -0.00145837 0)
(0.0508299 -0.000743888 0)
(0 0 0)
(0.186488 -0.0353874 0)
(0.2091 -0.0356359 0)
(0.254349 -0.0370103 0)
(0.305493 -0.0372682 0)
(0.353446 -0.0363077 0)
(0.392504 -0.0344579 0)
(0.421531 -0.032139 0)
(0.441926 -0.0296658 0)
(0.455561 -0.0272169 0)
(0.464011 -0.0248719 0)
(0.468472 -0.0226616 0)
(0.469745 -0.0205979 0)
(0.468299 -0.0186841 0)
(0.464379 -0.0169188 0)
(0.458096 -0.0152969 0)
(0.449486 -0.0138105 0)
(0.438538 -0.0124499 0)
(0.425208 -0.011204 0)
(0.409436 -0.010061 0)
(0.391148 -0.00900864 0)
(0.370263 -0.00803458 0)
(0.346698 -0.00712674 0)
(0.320364 -0.00627324 0)
(0.291174 -0.00546237 0)
(0.259038 -0.00468259 0)
(0.223866 -0.00392238 0)
(0.185572 -0.00317013 0)
(0.144069 -0.00241389 0)
(0.0992777 -0.00164123 0)
(0.051036 -0.000837429 0)
(0 0 0)
(0.235629 -0.0383982 0)
(0.259078 -0.0385721 0)
(0.306412 -0.0396213 0)
(0.355824 -0.0394785 0)
(0.398076 -0.038129 0)
(0.429831 -0.0359942 0)
(0.451915 -0.0335052 0)
(0.466406 -0.0309398 0)
(0.475249 -0.028438 0)
(0.47995 -0.0260561 0)
(0.481516 -0.0238136 0)
(0.480525 -0.0217176 0)
(0.477271 -0.0197695 0)
(0.471883 -0.0179667 0)
(0.464397 -0.0163034 0)
(0.454792 -0.0147718 0)
(0.443016 -0.0133624 0)
(0.428995 -0.0120647 0)
(0.412643 -0.0108672 0)
(0.393866 -0.00975807 0)
(0.372569 -0.00872553 0)
(0.348652 -0.00775773 0)
(0.322018 -0.00684288 0)
(0.292568 -0.00596929 0)
(0.260203 -0.0051252 0)
(0.224824 -0.00429879 0)
(0.186338 -0.00347805 0)
(0.14465 -0.00265052 0)
(0.0996754 -0.00180314 0)
(0.0512413 -0.000920329 0)
(0 0 0)
(0.288309 -0.0408596 0)
(0.312471 -0.0409613 0)
(0.360574 -0.0416137 0)
(0.406284 -0.0409848 0)
(0.441369 -0.0392104 0)
(0.465322 -0.0368086 0)
(0.480495 -0.0341964 0)
(0.489337 -0.0315961 0)
(0.493784 -0.0290982 0)
(0.495125 -0.0267332 0)
(0.494082 -0.0245099 0)
(0.491015 -0.022431 0)
(0.486073 -0.0204947 0)
(0.479294 -0.0186966 0)
(0.470651 -0.0170304 0)