/*--------------------------------*- C++ -*----------------------------------*\
| =========                 |                                                 |
| \\      /  F ield         | OpenFOAM: The Open Source CFD Toolbox           |
|  \\    /   O peration     | Version:  5.x                                   |
|   \\  /    A nd           | Web:      www.OpenFOAM.org                      |
|    \\/     M anipulation  |                                                 |
\*---------------------------------------------------------------------------*/
FoamFile
{
    version     2.0;
    format      ascii;
    class       volVectorField;
    location    "4.7";
    object      cellDisplacement;
}
// * * * * * * * * * * * * * * * * * * * * * * * * * * * * * * * * * * * * * //

dimensions      [0 1 0 0 0 0 0];

internalField   nonuniform List<vector> 
2790
(
(0.00921622 0 -2.15243e-05)
(0.02633 0 -6.17344e-05)
(0.0409812 0 -9.69212e-05)
(0.0533807 0 -0.000127885)
(0.0637514 0 -0.000155178)
(0.0722916 0 -0.000179226)
(0.0791739 0 -0.000200304)
(0.0845463 0 -0.000218659)
(0.088541 0 -0.000233821)
(0.0912764 0 -0.000245761)
(0.092854 0 -0.000254153)
(0.0933625 0 -0.000258551)
(0.0928807 0 -0.000258378)
(0.091479 0 -0.000252915)
(0.0892217 0 -0.000241296)
(0.0861688 0 -0.000222503)
(0.0823776 0 -0.000195354)
(0.0779048 0 -0.000158454)
(0.072808 0 -0.000110194)
(0.0671482 0 -4.87499e-05)
(0.0609928 0 2.79368e-05)
(0.0544176 0 0.000122173)
(0.0475113 0 0.000236544)
(0.0403794 0 0.00037394)
(0.0331518 0 0.00053763)
(0.025994 0 0.000731443)
(0.0191301 0 0.000959928)
(0.0128859 0 0.00122739)
(0.00776288 0 0.00153083)
(0.0048022 0 0.00182829)
(0.00922959 0 -6.46384e-05)
(0.0263673 0 -0.000185415)
(0.0410409 0 -0.000291123)
(0.0534638 0 -0.000384205)
(0.0638595 0 -0.000466287)
(0.0724278 0 -0.000538662)
(0.0793424 0 -0.000602133)
(0.0847503 0 -0.00065767)
(0.0887842 0 -0.000703532)
(0.0915651 0 -0.000739868)
(0.0931945 0 -0.00076566)
(0.093762 0 -0.000779601)
(0.0933474 0 -0.00077999)
(0.0920222 0 -0.000764705)
(0.0898517 0 -0.000731182)
(0.0868973 0 -0.00067642)
(0.0832183 0 -0.00059696)
(0.0788729 0 -0.000488689)
(0.0739208 0 -0.000346881)
(0.0684256 0 -0.000166195)
(0.0624575 0 5.93525e-05)
(0.0560969 0 0.000336408)
(0.0494374 0 0.000672295)
(0.0425921 0 0.00107493)
(0.035701 0 0.0015526)
(0.0289402 0 0.00211374)
(0.0225477 0 0.00276635)
(0.0168944 0 0.00351453)
(0.0125797 0 0.00433402)
(0.010665 0 0.00507196)
(0.00925761 0 -0.00010793)
(0.0264442 0 -0.00030968)
(0.0411625 0 -0.000486299)
(0.0536328 0 -0.000642031)
(0.0640784 0 -0.000779461)
(0.0727027 0 -0.000900815)
(0.0796822 0 -0.00100727)
(0.085159 0 -0.00109915)
(0.0892699 0 -0.00117641)
(0.092141 0 -0.00123833)
(0.0938727 0 -0.00128301)
(0.0945568 0 -0.00130839)
(0.0942749 0 -0.00131176)
(0.0931006 0 -0.0012897)
(0.0911014 0 -0.0012381)
(0.0883411 0 -0.00115216)
(0.0848829 0 -0.00102647)
(0.0807883 0 -0.000854486)
(0.0761208 0 -0.000628748)
(0.0709488 0 -0.000340925)
(0.0653484 0 1.81865e-05)
(0.0594077 0 0.000458582)
(0.0532306 0 0.000990968)
(0.0469449 0 0.00162628)
(0.0407157 0 0.0023744)
(0.0347451 0 0.00324255)
(0.0292811 0 0.0042333)
(0.0246855 0 0.00533245)
(0.0216449 0 0.00646889)
(0.0212767 0 0.0073812)
(0.00930135 0 -0.000151469)
(0.0265602 0 -0.000434153)
(0.0413443 0 -0.000681793)
(0.0538852 0 -0.000900583)
(0.0644045 0 -0.00109376)
(0.0731111 0 -0.00126471)
(0.08018 0 -0.00141487)
(0.0857603 0 -0.00154416)
(0.0899921 0 -0.00165432)
(0.092998 0 -0.00174383)
(0.0948818 0 -0.0018098)
(0.0957391 0 -0.00184969)
(0.0956542 0 -0.00185995)
(0.0947039 0 -0.00183609)
(0.092959 0 -0.00177266)
(0.0904864 0 -0.0016633)
(0.0873556 0 -0.00150134)
(0.0836327 0 -0.00127818)
(0.0793865 0 -0.000984289)
(0.0746918 0 -0.000609223)
(0.0696321 0 -0.000141703)
(0.0643057 0 0.000429963)
(0.0588266 0 0.00111781)
(0.0533352 0 0.0019332)
(0.0480341 0 0.00288349)
(0.0431633 0 0.00396767)
(0.0390118 0 0.00517012)
(0.0359098 0 0.00644864)
(0.034435 0 0.00768311)
(0.0358565 0 0.00852117)
(0.00934511 0 -0.000194846)
(0.0266985 0 -0.000558572)
(0.0415835 0 -0.000877563)
(0.0542174 0 -0.00115873)
(0.0648321 0 -0.00140778)
(0.073647 0 -0.00162885)
(0.0808355 0 -0.00182372)
(0.0865536 0 -0.00199324)
(0.0909422 0 -0.00213829)
(0.0941252 0 -0.00225818)
(0.0962078 0 -0.00234858)
(0.0972918 0 -0.00240709)
(0.097465 0 -0.00242952)
(0.0968082 0 -0.00241054)
(0.0953964 0 -0.00234374)
(0.0932985 0 -0.00222123)
(0.0905963 0 -0.00203641)
(0.0873599 0 -0.00177892)
(0.0836652 0 -0.00143795)
(0.0795958 0 -0.00100209)
(0.0752446 0 -0.000459294)
(0.0707265 0 0.000201606)
(0.0661681 0 0.000991507)
(0.0617136 0 0.0019202)
(0.0575579 0 0.00298932)
(0.054019 0 0.00418118)
(0.0514113 0 0.00545623)
(0.0500845 0 0.00673698)
(0.0504153 0 0.00787981)
(0.0536594 0 0.0084676)
(0.00940417 0 -0.000238116)
(0.0268729 0 -0.000683089)
(0.0418655 0 -0.00107333)
(0.0546145 0 -0.00141726)
(0.0653577 0 -0.00172302)
(0.0743075 0 -0.0019953)
(0.0816441 0 -0.00223622)
(0.0875304 0 -0.00244744)
(0.0921106 0 -0.00262947)
(0.0955048 0 -0.0027808)
(0.0978284 0 -0.00289911)
(0.0991883 0 -0.0029811)
(0.0996757 0 -0.00302204)
(0.099376 0 -0.00301612)
(0.0983715 0 -0.00295657)
(0.096742 0 -0.002836)
(0.0945633 0 -0.00264489)
(0.0919197 0 -0.00237344)
(0.0888957 0 -0.00201072)
(0.0855853 0 -0.00154559)
(0.0820865 0 -0.000966088)
(0.078544 0 -0.00026435)
(0.0750944 0 0.000567446)
(0.0719124 0 0.00153061)
(0.0691659 0 0.00262151)
(0.0671349 0 0.00381081)
(0.0662424 0 0.00502447)
(0.0668201 0 0.00615356)
(0.0691243 0 0.00704832)
(0.0740435 0 0.00728477)
(0.009478 0 -0.000281419)
(0.0270815 0 -0.000807049)
(0.0421996 0 -0.0012684)
(0.0550847 0 -0.00167615)
(0.0659769 0 -0.00203931)
(0.0750857 0 -0.00236401)
(0.0825958 0 -0.00265238)
(0.0886785 0 -0.0029071)
(0.0934788 0 -0.00312859)
(0.0971214 0 -0.00331483)
(0.0997307 0 -0.00346567)
(0.101414 0 -0.00357695)
(0.102268 0 -0.00364377)
(0.102384 0 -0.00366017)
(0.101849 0 -0.00361895)
(0.100763 0 -0.00351507)
(0.0991963 0 -0.00333631)
(0.0972433 0 -0.00307398)
(0.0950003 0 -0.00271812)
(0.09258 0 -0.00226004)
(0.0900926 0 -0.0016895)
(0.0876693 0 -0.000999469)
(0.0854707 0 -0.000189053)
(0.0837076 0 0.000732615)
(0.0825875 0 0.00174534)
(0.082296 0 0.00281503)
(0.0832227 0 0.00385028)
(0.0857633 0 0.00470568)
(0.0900539 0 0.00523187)
(0.0964504 0 0.00506953)
(0.00954972 0 -0.000324259)
(0.0273075 0 -0.000930444)
(0.042582 0 -0.00146346)
(0.0556222 0 -0.00193526)
(0.066684 0 -0.0023564)
(0.0759703 0 -0.00273313)
(0.0836748 0 -0.00307001)
(0.0899797 0 -0.00337008)
(0.0950302 0 -0.00363394)
(0.0989586 0 -0.00386062)
(0.10189 0 -0.00404903)
(0.103938 0 -0.00419589)
(0.105206 0 -0.00429661)
(0.105792 0 -0.00434561)
(0.105797 0 -0.00433744)
(0.105312 0 -0.00426421)
(0.104427 0 -0.0041171)
(0.103247 0 -0.00388825)
(0.101872 0 -0.00356861)
(0.100442 0 -0.0031537)
(0.0990901 0 -0.00263867)
(0.0979359 0 -0.00201892)
(0.0971497 0 -0.00129881)
(0.0969268 0 -0.000494095)
(0.0975323 0 0.000354627)
(0.0991555 0 0.0011977)
(0.10201 0 0.00194761)
(0.106506 0 0.00243743)
(0.112644 0 0.00252595)
(0.120375 0 0.0019505)
(0.00963333 0 -0.000366849)
(0.0275647 0 -0.00105353)
(0.0430105 0 -0.00165829)
(0.0562204 0 -0.00219428)
(0.0674608 0 -0.00267369)
(0.0769448 0 -0.00310355)
(0.0848736 0 -0.00349084)
(0.0914256 0 -0.00383851)
(0.0967536 0 -0.00414785)
(0.100996 0 -0.00441856)
(0.104282 0 -0.00464955)
(0.106731 0 -0.00483852)
(0.108452 0 -0.00498142)
(0.10955 0 -0.00507284)
(0.110144 0 -0.00511077)
(0.110318 0 -0.00508503)
(0.110178 0 -0.00498974)
(0.109845 0 -0.00482014)
(0.109434 0 -0.00457012)
(0.109066 0 -0.00423412)
(0.108915 0 -0.00381626)
(0.109131 0 -0.00332019)
(0.109888 0 -0.00275791)
(0.111338 0 -0.00214685)
(0.113766 0 -0.00154189)
(0.117354 0 -0.00100797)
(0.12222 0 -0.000629258)
(0.128636 0 -0.000567366)
(0.136461 0 -0.000941044)
(0.145373 0 -0.00191501)
(0.00972657 0 -0.00040924)
(0.0278504 0 -0.00117607)
(0.0434794 0 -0.00185165)
(0.0568701 0 -0.00245151)
(0.068307 0 -0.00298974)
(0.0780088 0 -0.00347493)
(0.0861793 0 -0.00391426)
(0.0929993 0 -0.00431175)
(0.0986279 0 -0.00466955)
(0.103208 0 -0.00498803)
(0.106874 0 -0.0052665)
(0.109754 0 -0.00550413)
(0.111964 0 -0.00569773)
(0.113619 0 -0.00584389)
(0.114831 0 -0.00593864)
(0.115705 0 -0.00597617)
(0.116351 0 -0.00595165)
(0.116915 0 -0.00586502)
(0.117532 0 -0.00571546)
(0.118319 0 -0.00549901)
(0.119428 0 -0.00521979)
(0.121069 0 -0.00489563)
(0.123423 0 -0.00454697)
(0.126662 0 -0.0042012)
(0.130964 0 -0.00390675)
(0.136551 0 -0.0037475)
(0.143452 0 -0.00379765)
(0.151742 0 -0.00419434)
(0.16113 0 -0.00502364)
(0.171056 0 -0.00636104)
(0.00982682 0 -0.000451275)
(0.0281464 0 -0.00129722)
(0.043972 0 -0.00204345)
(0.0575668 0 -0.0027077)
(0.0692167 0 -0.0033054)
(0.0791509 0 -0.00384667)
(0.0875783 0 -0.00433947)
(0.0946839 0 -0.00478885)
(0.100632 0 -0.005198)
(0.10557 0 -0.00556797)
(0.109636 0 -0.00589835)
(0.112971 0 -0.00619095)
(0.115694 0 -0.0064431)
(0.11793 0 -0.00665344)
(0.11979 0 -0.00681769)
(0.121395 0 -0.006934)
(0.122876 0 -0.00700151)
(0.12436 0 -0.00701878)
(0.126013 0 -0.00699248)
(0.127993 0 -0.00692888)
(0.13043 0 -0.00683216)
(0.133511 0 -0.00672106)
(0.137482 0 -0.00663328)
(0.142516 0 -0.00660496)
(0.148723 0 -0.00667843)
(0.15632 0 -0.00694183)
(0.165255 0 -0.00745622)
(0.175386 0 -0.00831675)
(0.186267 0 -0.00957332)
(0.197081 0 -0.0112273)
(0.00993295 0 -0.000492853)
(0.0284651 0 -0.00141741)
(0.0444981 0 -0.00223385)
(0.0583043 0 -0.00296222)
(0.0701801 0 -0.00361986)
(0.0803584 0 -0.00421787)
(0.0890551 0 -0.00476539)
(0.0964598 0 -0.00526846)
(0.102743 0 -0.00573168)
(0.108054 0 -0.0061568)
(0.112545 0 -0.00654579)
(0.116355 0 -0.00689939)
(0.119605 0 -0.00721684)
(0.122423 0 -0.00749715)
(0.124945 0 -0.0077417)
(0.127295 0 -0.00794974)
(0.129625 0 -0.0081259)
(0.132057 0 -0.00826996)
(0.134745 0 -0.00838843)
(0.137888 0 -0.00849913)
(0.141648 0 -0.00861689)
(0.146174 0 -0.00875786)
(0.151728 0 -0.00896779)
(0.158484 0 -0.00929094)
(0.166576 0 -0.00977463)
(0.176145 0 -0.0104945)
(0.187109 0 -0.011498)
(0.199055 0 -0.0128125)
(0.211441 0 -0.0144598)
(0.223092 0 -0.0163764)
(0.0100432 0 -0.000533837)
(0.0287868 0 -0.00153553)
(0.0450367 0 -0.0024215)
(0.0590747 0 -0.00321428)
(0.0711875 0 -0.00393218)
(0.0816187 0 -0.00458736)
(0.090594 0 -0.00519065)
(0.0983075 0 -0.00574879)
(0.104938 0 -0.00626851)
(0.110635 0 -0.00675217)
(0.11556 0 -0.00720337)
(0.119846 0 -0.0076224)
(0.123631 0 -0.00801146)
(0.127054 0 -0.00837274)
(0.130244 0 -0.00870705)
(0.133328 0 -0.00901609)
(0.136483 0 -0.00931053)
(0.13985 0 -0.00959681)
(0.143561 0 -0.00988036)
(0.14783 0 -0.0101849)
(0.152832 0 -0.0105337)
(0.158762 0 -0.0109559)
(0.16579 0 -0.0114855)
(0.17415 0 -0.0121836)
(0.183984 0 -0.0130984)
(0.195388 0 -0.0142924)
(0.208251 0 -0.0157943)
(0.222022 0 -0.0175681)
(0.236014 0 -0.019581)
(0.248579 0 -0.0217097)
(0.0101572 0 -0.000574141)
(0.0291233 0 -0.00165203)
(0.0455991 0 -0.00260742)
(0.0598758 0 -0.00346436)
(0.0722298 0 -0.00424149)
(0.0829184 0 -0.00495391)
(0.0921783 0 -0.0056138)
(0.100215 0 -0.00623009)
(0.107201 0 -0.00680863)
(0.113289 0 -0.007353)
(0.118637 0 -0.00786688)
(0.123401 0 -0.00835494)
(0.127721 0 -0.00882069)
(0.131744 0 -0.00926907)
(0.135588 0 -0.00970015)
(0.1394 0 -0.0101204)
(0.143353 0 -0.0105424)
(0.147598 0 -0.0109777)
(0.152302 0 -0.0114414)
(0.157612 0 -0.0119491)
(0.163759 0 -0.0125397)
(0.170927 0 -0.0132474)
(0.179265 0 -0.0141066)
(0.189019 0 -0.0151846)
(0.200329 0 -0.0165329)
(0.21326 0 -0.0182028)
(0.227692 0 -0.0202058)
(0.243135 0 -0.0224701)
(0.258762 0 -0.0248637)
(0.272535 0 -0.0271863)
(0.0102741 0 -0.000613652)
(0.0294701 0 -0.00176645)
(0.0461757 0 -0.00279004)
(0.0606838 0 -0.00370969)
(0.0732833 0 -0.00454562)
(0.0842438 0 -0.00531587)
(0.0938009 0 -0.00603339)
(0.102162 0 -0.00670867)
(0.109499 0 -0.00734679)
(0.115974 0 -0.0079536)
(0.121755 0 -0.00853508)
(0.126991 0 -0.00909488)
(0.131833 0 -0.00964004)
(0.136427 0 -0.0101768)
(0.140904 0 -0.0107096)
(0.145426 0 -0.011249)
(0.150126 0 -0.0118025)
(0.15519 0 -0.0123916)
(0.160776 0 -0.0130346)
(0.167024 0 -0.0137494)
(0.174168 0 -0.0145802)
(0.182359 0 -0.0155624)
(0.191777 0 -0.0167426)
(0.2026 0 -0.0181816)
(0.214963 0 -0.0199375)
(0.228876 0 -0.0220577)
(0.244204 0 -0.0245578)
(0.26054 0 -0.0273651)
(0.277085 0 -0.0302494)
(0.292566 0 -0.0329156)
(0.00593457 0 -0.00207149)
(0.0119983 0 -0.00226317)
(0.0235261 0 -0.00246619)
(0.0395481 0 -0.00268128)
(0.058294 0 -0.00285509)
(0.0780126 0 -0.00297268)
(0.0972099 0 -0.00303167)
(0.114794 0 -0.00301849)
(0.130211 0 -0.00296053)
(0.1433 0 -0.00287413)
(0.154001 0 -0.00274674)
(0.162422 0 -0.0026142)
(0.168731 0 -0.00246749)
(0.173064 0 -0.00230967)
(0.175554 0 -0.00215684)
(0.176325 0 -0.00201173)
(0.175451 0 -0.0018723)
(0.172975 0 -0.00172978)
(0.168941 0 -0.00158603)
(0.163356 0 -0.0014479)
(0.156189 0 -0.00131425)
(0.147432 0 -0.00117783)
(0.137052 0 -0.0010502)
(0.12497 0 -0.00092201)
(0.111118 0 -0.00079407)
(0.0954245 0 -0.000664162)
(0.0778095 0 -0.000530877)
(0.0581874 0 -0.000391198)
(0.0364752 0 -0.000243114)
(0.0125457 0 -8.3526e-05)
(0.0110268 0 -0.00620099)
(0.0173499 0 -0.00676552)
(0.0290037 0 -0.0073977)
(0.0448461 0 -0.00800943)
(0.0631759 0 -0.00850096)
(0.0823855 0 -0.00883806)
(0.100994 0 -0.00898381)
(0.11801 0 -0.00895485)
(0.132926 0 -0.00878369)
(0.145547 0 -0.00850654)
(0.155851 0 -0.00814752)
(0.163942 0 -0.00774176)
(0.169972 0 -0.00731269)
(0.174073 0 -0.00684878)
(0.176381 0 -0.00640251)
(0.176998 0 -0.0059585)
(0.176001 0 -0.00553542)
(0.173429 0 -0.00511556)
(0.169313 0 -0.00468944)
(0.163661 0 -0.00428236)
(0.156449 0 -0.00389103)
(0.147646 0 -0.00349538)
(0.137221 0 -0.0031101)
(0.12511 0 -0.0027305)
(0.111232 0 -0.00235251)
(0.0955164 0 -0.00196806)
(0.0778842 0 -0.00157385)
(0.0582485 0 -0.00115997)
(0.0365173 0 -0.000721011)
(0.0125618 0 -0.000247754)
(0.020498 0 -0.0103052)
(0.027477 0 -0.0112575)
(0.0393764 0 -0.0123175)
(0.0548315 0 -0.0132723)
(0.0724539 0 -0.0140343)
(0.0906932 0 -0.0145294)
(0.108221 0 -0.0147192)
(0.12419 0 -0.0146526)
(0.138113 0 -0.0143585)
(0.149866 0 -0.0138952)
(0.159411 0 -0.0133062)
(0.166868 0 -0.0126451)
(0.172364 0 -0.0119368)
(0.176029 0 -0.011196)
(0.177983 0 -0.0104673)
(0.178306 0 -0.00973774)
(0.177074 0 -0.00903938)
(0.174312 0 -0.00834643)
(0.170042 0 -0.00765909)
(0.164256 0 -0.00699808)
(0.156944 0 -0.00635735)
(0.14807 0 -0.00572165)
(0.137571 0 -0.00509136)
(0.125387 0 -0.00447108)
(0.111457 0 -0.00385507)
(0.0956947 0 -0.00322562)
(0.0780265 0 -0.00257682)
(0.0583658 0 -0.00189941)
(0.036596 0 -0.00118089)
(0.0125908 0 -0.000405837)
(0.0337983 0 -0.0145313)
(0.0416518 0 -0.0158479)
(0.0537845 0 -0.017263)
(0.0687348 0 -0.0184989)
(0.0853997 0 -0.0194642)
(0.1023 0 -0.0200429)
(0.11839 0 -0.0202424)
(0.132879 0 -0.020081)
(0.145442 0 -0.0196396)
(0.155973 0 -0.0189896)
(0.16445 0 -0.0181684)
(0.171023 0 -0.0172685)
(0.175767 0 -0.0162993)
(0.17883 0 -0.0153119)
(0.180273 0 -0.0143093)
(0.180183 0 -0.013321)
(0.178615 0 -0.0123641)
(0.175582 0 -0.0114157)
(0.171087 0 -0.0104892)
(0.165121 0 -0.00959353)
(0.157662 0 -0.00871018)
(0.14867 0 -0.00784516)
(0.138066 0 -0.00698973)
(0.12578 0 -0.00614071)
(0.111777 0 -0.00529435)
(0.0959757 0 -0.00443161)
(0.0782558 0 -0.00353931)
(0.0585321 0 -0.00260887)
(0.0367035 0 -0.00162227)
(0.0126298 0 -0.000557582)
(0.0503281 0 -0.0189997)
(0.0591753 0 -0.0206396)
(0.0714032 0 -0.0223038)
(0.0857334 0 -0.0237288)
(0.101219 0 -0.0247953)
(0.116539 0 -0.025385)
(0.130874 0 -0.0255238)
(0.143582 0 -0.0252333)
(0.154512 0 -0.0246289)
(0.16353 0 -0.0237633)
(0.170721 0 -0.0227256)
(0.176195 0 -0.0215873)
(0.18003 0 -0.0203848)
(0.182335 0 -0.0191618)
(0.183151 0 -0.0179188)
(0.182548 0 -0.0166901)
(0.180559 0 -0.0154901)
(0.177186 0 -0.0143145)
(0.172408 0 -0.0131635)
(0.166218 0 -0.0120464)
(0.158579 0 -0.0109445)
(0.149428 0 -0.00986427)
(0.138693 0 -0.00879614)
(0.126293 0 -0.00773157)
(0.112196 0 -0.00666361)
(0.0963232 0 -0.00557913)
(0.0785332 0 -0.00445889)
(0.0587357 0 -0.00328765)
(0.0368334 0 -0.00204482)
(0.0126764 0 -0.000702877)
(0.0695519 0 -0.0237694)
(0.0792579 0 -0.0256432)
(0.0914513 0 -0.0274619)
(0.105062 0 -0.0289755)
(0.119186 0 -0.0300385)
(0.132716 0 -0.0305499)
(0.145051 0 -0.030545)
(0.155783 0 -0.0300852)
(0.16485 0 -0.0292867)
(0.172184 0 -0.0282114)
(0.177927 0 -0.026958)
(0.182163 0 -0.0255976)
(0.184959 0 -0.0241754)
(0.186394 0 -0.0227277)
(0.186501 0 -0.0212737)
(0.18531 0 -0.0198294)
(0.182835 0 -0.0184126)
(0.179067 0 -0.0170281)
(0.173963 0 -0.0156706)
(0.167505 0 -0.0143448)
(0.159651 0 -0.0130463)
(0.150317 0 -0.0117683)
(0.139431 0 -0.0105024)
(0.126905 0 -0.00923727)
(0.112698 0 -0.00796163)
(0.0967273 0 -0.00666776)
(0.0788496 0 -0.00533135)
(0.0589674 0 -0.00393224)
(0.03698 0 -0.00244631)
(0.0127283 0 -0.000840939)
(0.0909679 0 -0.0288245)
(0.101258 0 -0.0308309)
(0.113327 0 -0.0327273)
(0.126069 0 -0.0342272)
(0.138643 0 -0.035178)
(0.150192 0 -0.0355148)
(0.160354 0 -0.0352969)
(0.168946 0 -0.0346167)
(0.175999 0 -0.0335892)
(0.181563 0 -0.0323058)
(0.18576 0 -0.0308447)
(0.188673 0 -0.0292784)
(0.190356 0 -0.0276556)
(0.190857 0 -0.026008)
(0.190196 0 -0.0243619)
(0.188366 0 -0.0227259)
(0.185363 0 -0.0211166)
(0.181161 0 -0.0195445)
(0.175701 0 -0.0180016)
(0.168944 0 -0.0164872)
(0.160845 0 -0.0150074)
(0.151308 0 -0.0135488)
(0.140254 0 -0.0121014)
(0.1276 0 -0.0106528)
(0.11327 0 -0.0091878)
(0.0971774 0 -0.00769745)
(0.0791979 0 -0.00615727)
(0.0592213 0 -0.00454302)
(0.0371396 0 -0.002827)
(0.0127843 0 -0.000971849)
(0.114111 0 -0.0341049)
(0.124783 0 -0.0361856)
(0.136537 0 -0.0380715)
(0.148184 0 -0.0394438)
(0.158973 0 -0.040167)
(0.168348 0 -0.0402327)
(0.176201 0 -0.0397348)
(0.182557 0 -0.0387933)
(0.187547 0 -0.0375242)
(0.191293 0 -0.0360266)
(0.193912 0 -0.0343674)
(0.195473 0 -0.0326131)
(0.196016 0 -0.0308111)
(0.195559 0 -0.0289881)
(0.194103 0 -0.0271729)
(0.191613 0 -0.0253701)
(0.188055 0 -0.0235909)
(0.183399 0 -0.0218541)
(0.177568 0 -0.0201496)
(0.1705 0 -0.0184729)
(0.162133 0 -0.01683)
(0.152377 0 -0.0152081)
(0.141142 0 -0.0135956)
(0.128338 0 -0.0119787)
(0.113876 0 -0.0103419)
(0.0976592 0 -0.00866948)
(0.0795695 0 -0.00693811)
(0.0594909 0 -0.00512105)
(0.037308 0 -0.00318748)
(0.0128432 0 -0.00109582)
(0.138545 0 -0.0395379)
(0.149422 0 -0.0416519)
(0.160613 0 -0.0434326)
(0.170848 0 -0.0445495)
(0.179568 0 -0.0449248)
(0.18658 0 -0.0446302)
(0.192027 0 -0.0437983)
(0.196119 0 -0.0425696)
(0.199061 0 -0.0410555)
(0.201017 0 -0.0393503)
(0.202087 0 -0.0375093)
(0.20232 0 -0.0355886)
(0.201744 0 -0.0336319)
(0.200337 0 -0.0316571)
(0.198092 0 -0.0296979)
(0.194948 0 -0.0277565)
(0.190841 0 -0.0258385)
(0.185723 0 -0.0239609)
(0.17951 0 -0.0221178)
(0.172123 0 -0.0203044)
(0.163483 0 -0.0185189)
(0.153497 0 -0.0167513)
(0.142071 0 -0.0149894)
(0.129105 0 -0.0132187)
(0.114503 0 -0.0114224)
(0.0981583 0 -0.00958151)
(0.0799536 0 -0.00767185)
(0.0597682 0 -0.00566471)
(0.03748 0 -0.00352668)
(0.012903 0 -0.00121246)
(0.163898 0 -0.0450626)
(0.174802 0 -0.0471639)
(0.185064 0 -0.0487147)
(0.193463 0 -0.0494272)
(0.199795 0 -0.0493366)
(0.204283 0 -0.0486114)
(0.207291 0 -0.0474148)
(0.209168 0 -0.0458945)
(0.210147 0 -0.044147)
(0.210405 0 -0.0422537)
(0.210015 0 -0.040256)
(0.20899 0 -0.0381938)
(0.207359 0 -0.0361125)
(0.205062 0 -0.0340201)
(0.202064 0 -0.0319449)
(0.198287 0 -0.0298918)
(0.193652 0 -0.0278658)
(0.188081 0 -0.0258741)
(0.181485 0 -0.0239144)
(0.173776 0 -0.0219824)
(0.164861 0 -0.020073)
(0.154641 0 -0.0181766)
(0.143017 0 -0.0162809)
(0.129884 0 -0.0143706)
(0.115136 0 -0.0124279)
(0.098661 0 -0.0104318)
(0.0803392 0 -0.0083569)
(0.060045 0 -0.00617274)
(0.0376506 0 -0.00384376)
(0.0129619 0 -0.00132146)
(0.189891 0 -0.0506428)
(0.200541 0 -0.0526406)
(0.209307 0 -0.0537736)
(0.215336 0 -0.0539113)
(0.218973 0 -0.0532553)
(0.220853 0 -0.052064)
(0.221482 0 -0.0505065)
(0.221276 0 -0.0487172)
(0.220447 0 -0.0467656)
(0.219162 0 -0.0447161)
(0.217459 0 -0.0425981)
(0.215318 0 -0.0404346)
(0.212733 0 -0.0382604)
(0.209631 0 -0.0360863)
(0.205938 0 -0.0339275)
(0.201567 0 -0.0317902)
(0.196424 0 -0.0296786)
(0.190417 0 -0.0275959)
(0.183449 0 -0.0255405)
(0.175421 0 -0.0235081)
(0.166233 0 -0.0214923)
(0.155781 0 -0.0194836)
(0.143958 0 -0.0174691)
(0.130655 0 -0.0154333)
(0.11576 0 -0.0133575)
(0.0991546 0 -0.0112193)
(0.080716 0 -0.0089922)
(0.060314 0 -0.00664426)
(0.0378152 0 -0.00413813)
(0.0130184 0 -0.0014226)
(0.216324 0 -0.056251)
(0.226144 0 -0.057946)
(0.232542 0 -0.0583821)
(0.235628 0 -0.0577775)
(0.236365 0 -0.0565069)
(0.235695 0 -0.0548699)
(0.234125 0 -0.0529982)
(0.232076 0 -0.050995)
(0.229702 0 -0.048897)
(0.227103 0 -0.0467405)
(0.224282 0 -0.0445441)
(0.221193 0 -0.0423228)
(0.217779 0 -0.040094)
(0.213957 0 -0.0378678)
(0.209637 0 -0.035654)
(0.204719 0 -0.033458)
(0.199102 0 -0.031283)
(0.192683 0 -0.0291306)
(0.185359 0 -0.026999)
(0.177024 0 -0.0248838)
(0.16757 0 -0.0227782)
(0.15689 0 -0.0206726)
(0.144872 0 -0.018554)
(0.131401 0 -0.0164064)
(0.11636 0 -0.0142106)
(0.0996273 0 -0.0119434)
(0.0810747 0 -0.0095771)
(0.0605682 0 -0.00707871)
(0.0379694 0 -0.00440938)
(0.0130709 0 -0.00151576)
(0.242925 0 -0.0618038)
(0.250686 0 -0.0627807)
(0.253587 0 -0.0621746)
(0.253323 0 -0.0607402)
(0.251191 0 -0.0589048)
(0.248259 0 -0.0569233)
(0.244896 0 -0.0548467)
(0.241376 0 -0.0527167)
(0.237788 0 -0.0505458)
(0.234149 0 -0.0483442)
(0.230421 0 -0.0461187)
(0.226538 0 -0.0438766)
(0.22242 0 -0.041627)
(0.217972 0 -0.0393776)
(0.213096 0 -0.037135)
(0.207686 0 -0.0349037)
(0.201636 0 -0.0326863)
(0.194836 0 -0.0304836)
(0.187178 0 -0.0282937)
(0.178552 0 -0.0261125)
(0.168846 0 -0.0239328)
(0.157947 0 -0.021745)
(0.14574 0 -0.0195362)
(0.132106 0 -0.0172903)
(0.116924 0 -0.0149874)
(0.100068 0 -0.012604)
(0.0814066 0 -0.0101114)
(0.0608013 0 -0.00747582)
(0.0381095 0 -0.00465734)
(0.0131182 0 -0.00160085)
(0.268639 0 -0.0669247)
(0.272237 0 -0.0664686)
(0.270733 0 -0.0646004)
(0.267317 0 -0.0624857)
(0.262947 0 -0.0603218)
(0.258338 0 -0.0581807)
(0.253711 0 -0.0560454)
(0.249156 0 -0.0539009)
(0.244682 0 -0.0517372)
(0.240258 0 -0.0495509)
(0.235824 0 -0.0473427)
(0.231301 0 -0.0451161)
(0.2266 0 -0.0428768)
(0.221623 0 -0.0406305)
(0.216267 0 -0.0383827)
(0.210424 0 -0.0361373)
(0.203985 0 -0.0338967)
(0.19684 0 -0.0316616)
(0.188875 0 -0.0294301)
(0.179979 0 -0.0271982)
(0.170036 0 -0.0249591)
(0.15893 0 -0.0227031)
(0.146544 0 -0.0204174)
(0.132755 0 -0.0180859)
(0.11744 0 -0.0156886)
(0.100467 0 -0.0132013)
(0.081704 0 -0.0105952)
(0.0610077 0 -0.00783565)
(0.0382319 0 -0.00488199)
(0.013159 0 -0.00167787)
(0.289206 0 -0.0700573)
(0.288232 0 -0.0677438)
(0.282938 0 -0.0650584)
(0.277275 0 -0.0627858)
(0.271596 0 -0.0606956)
(0.266052 0 -0.0586659)
(0.260678 0 -0.0566388)
(0.255472 0 -0.0545895)
(0.250406 0 -0.052508)
(0.245427 0 -0.0503918)
(0.240469 0 -0.0482425)
(0.235451 0 -0.0460643)
(0.230285 0 -0.0438625)
(0.224872 0 -0.0416428)
(0.219111 0 -0.0394105)
(0.212896 0 -0.0371699)
(0.206117 0 -0.0349234)
(0.198663 0 -0.0326719)
(0.190422 0 -0.0304139)
(0.181279 0 -0.0281457)
(0.171118 0 -0.0258607)
(0.159821 0 -0.0235495)
(0.147268 0 -0.0211995)
(0.133335 0 -0.0187946)
(0.117895 0 -0.016315)
(0.100816 0 -0.0137361)
(0.0819597 0 -0.0110289)
(0.0611822 0 -0.00815843)
(0.0383336 0 -0.00508346)
(0.0131923 0 -0.00174687)
(0.0103946 0 -0.000652918)
(0.029829 0 -0.00188034)
(0.046772 0 -0.00297205)
(0.06152 0 -0.00395483)
(0.0743741 0 -0.00485112)
(0.0856116 0 -0.00568001)
(0.0954712 0 -0.00645615)
(0.104158 0 -0.00719032)
(0.111851 0 -0.00788985)
(0.11872 0 -0.00856188)
(0.124933 0 -0.00921388)
(0.13064 0 -0.0098502)
(0.135992 0 -0.0104777)
(0.141146 0 -0.0111073)
(0.146234 0 -0.0117455)
(0.151413 0 -0.0124045)
(0.156814 0 -0.0130936)
(0.162626 0 -0.013838)
(0.168983 0 -0.0146564)
(0.176058 0 -0.0155772)
(0.184026 0 -0.0166387)
(0.193017 0 -0.017879)
(0.203202 0 -0.0193503)
(0.214685 0 -0.0211074)
(0.227544 0 -0.0232118)
(0.241669 0 -0.0257081)
(0.256794 0 -0.0286437)
(0.272352 0 -0.0320659)
(0.28715 0 -0.0360965)
(0.300223 0 -0.0415587)
(0.0105198 0 -0.00069235)
(0.0302026 0 -0.0019949)
(0.0473935 0 -0.00315545)
(0.0623904 0 -0.00420237)
(0.075504 0 -0.00515971)
(0.0870238 0 -0.00604821)
(0.0971931 0 -0.0068844)
(0.106213 0 -0.0076796)
(0.114268 0 -0.0084426)
(0.12153 0 -0.00918176)
(0.128168 0 -0.00990522)
(0.134338 0 -0.0106205)
(0.140189 0 -0.0113342)
(0.145886 0 -0.01206)
(0.151549 0 -0.0128049)
(0.157325 0 -0.0135821)
(0.163375 0 -0.0144088)
(0.169847 0 -0.0153058)
(0.176863 0 -0.0162939)
(0.184598 0 -0.0174061)
(0.193179 0 -0.0186765)
(0.202698 0 -0.0201416)
(0.213282 0 -0.0218526)
(0.224945 0 -0.0238525)
(0.237657 0 -0.0261939)
(0.251134 0 -0.0288935)
(0.264926 0 -0.0319783)
(0.278288 0 -0.0354522)
(0.290236 0 -0.0393464)
(0.299815 0 -0.0438122)
(0.0106475 0 -0.000731406)
(0.0305852 0 -0.00210857)
(0.048032 0 -0.00333786)
(0.063278 0 -0.00444787)
(0.0766474 0 -0.00546571)
(0.088455 0 -0.00641518)
(0.0989375 0 -0.00731208)
(0.108292 0 -0.00816932)
(0.116705 0 -0.00899665)
(0.124353 0 -0.00980367)
(0.131403 0 -0.0105994)
(0.13801 0 -0.0113925)
(0.144344 0 -0.0121944)
(0.150545 0 -0.0130158)
(0.15673 0 -0.0138655)
(0.163043 0 -0.0147581)
(0.169649 0 -0.015715)
(0.176665 0 -0.0167539)
(0.184196 0 -0.0178956)
(0.192397 0 -0.0191738)
(0.201346 0 -0.0206165)
(0.21109 0 -0.0222552)
(0.221691 0 -0.0241325)
(0.233062 0 -0.0262715)
(0.245041 0 -0.0286992)
(0.257263 0 -0.0314077)
(0.269259 0 -0.034397)
(0.280396 0 -0.0376534)
(0.289943 0 -0.0411694)
(0.297142 0 -0.0449342)
(0.0107755 0 -0.000769728)
(0.0309717 0 -0.00222038)
(0.0486601 0 -0.00351583)
(0.0641543 0 -0.00468783)
(0.0778039 0 -0.00576737)
(0.089896 0 -0.00677737)
(0.100683 0 -0.00773528)
(0.11037 0 -0.00865487)
(0.119132 0 -0.00954645)
(0.127152 0 -0.010421)
(0.134595 0 -0.0112887)
(0.141618 0 -0.0121592)
(0.148395 0 -0.0130468)
(0.15505 0 -0.0139603)
(0.161694 0 -0.0149095)
(0.168462 0 -0.0159096)
(0.175524 0 -0.0169857)
(0.18295 0 -0.018149)
(0.190834 0 -0.0194207)
(0.199298 0 -0.0208317)
(0.208365 0 -0.0224)
(0.218042 0 -0.0241507)
(0.22831 0 -0.0261102)
(0.239024 0 -0.0282863)
(0.24997 0 -0.0306861)
(0.260806 0 -0.0332967)
(0.271111 0 -0.0361009)
(0.280393 0 -0.0390754)
(0.28808 0 -0.0421622)
(0.293672 0 -0.0453132)
(0.0109007 0 -0.000806869)
(0.0313377 0 -0.00232795)
(0.0492706 0 -0.00368838)
(0.0650297 0 -0.00492318)
(0.0789549 0 -0.00606333)
(0.091335 0 -0.00713288)
(0.102422 0 -0.00815105)
(0.11242 0 -0.0091311)
(0.121516 0 -0.0100857)
(0.129888 0 -0.0110264)
(0.137699 0 -0.011964)
(0.145104 0 -0.0129091)
(0.152281 0 -0.0138787)
(0.159329 0 -0.0148781)
(0.166357 0 -0.0159183)
(0.173507 0 -0.0170178)
(0.180902 0 -0.0181949)
(0.188592 0 -0.0194592)
(0.196663 0 -0.0208314)
(0.205183 0 -0.0223339)
(0.214142 0 -0.0239784)
(0.223518 0 -0.0257824)
(0.233238 0 -0.0277581)
(0.243142 0 -0.0299063)
(0.253007 0 -0.0322206)
(0.262535 0 -0.0346831)
(0.271388 0 -0.0372727)
(0.279154 0 -0.0399388)
(0.285446 0 -0.0426187)
(0.289979 0 -0.0452671)
(0.0110224 0 -0.000842527)
(0.0316985 0 -0.00243173)
(0.0498753 0 -0.00385579)
(0.0658914 0 -0.00515139)
(0.0800843 0 -0.00635041)
(0.0927424 0 -0.00747779)
(0.104114 0 -0.00855326)
(0.114411 0 -0.00959198)
(0.123821 0 -0.0106073)
(0.13252 0 -0.0116115)
(0.140666 0 -0.0126155)
(0.148425 0 -0.013633)
(0.155945 0 -0.0146771)
(0.163316 0 -0.0157529)
(0.170654 0 -0.0168741)
(0.17808 0 -0.0180565)
(0.185671 0 -0.0193115)
(0.193492 0 -0.020652)
(0.201594 0 -0.0220933)
(0.210006 0 -0.0236499)
(0.218709 0 -0.0253312)
(0.22765 0 -0.0271455)
(0.236728 0 -0.0290953)
(0.245787 0 -0.031175)
(0.254622 0 -0.0333717)
(0.262996 0 -0.0356683)
(0.270611 0 -0.0380258)
(0.277165 0 -0.0403911)
(0.282429 0 -0.0427205)
(0.286237 0 -0.0449645)
(0.0111388 0 -0.000876266)
(0.032046 0 -0.00253023)
(0.0504588 0 -0.00401488)
(0.0667208 0 -0.00536835)
(0.081169 0 -0.00662348)
(0.0940912 0 -0.00780602)
(0.105734 0 -0.00893641)
(0.116312 0 -0.010031)
(0.126013 0 -0.0111038)
(0.13501 0 -0.0121674)
(0.143461 0 -0.013234)
(0.15152 0 -0.0143164)
(0.159308 0 -0.0154236)
(0.16693 0 -0.0165652)
(0.174491 0 -0.0177527)
(0.182083 0 -0.0189985)
(0.189775 0 -0.0203131)
(0.197615 0 -0.021707)
(0.205634 0 -0.023191)
(0.213834 0 -0.0247737)
(0.222184 0 -0.0264604)
(0.230616 0 -0.028253)
(0.239026 0 -0.030148)
(0.247266 0 -0.032135)
(0.255174 0 -0.0342015)
(0.262532 0 -0.0363186)
(0.269108 0 -0.0384448)
(0.274714 0 -0.0405429)
(0.279205 0 -0.0425746)
(0.28249 0 -0.0444955)
(0.0112471 0 -0.000907459)
(0.0323715 0 -0.00262153)
(0.0510065 0 -0.00416257)
(0.0674992 0 -0.00556996)
(0.0821863 0 -0.00687743)
(0.0953545 0 -0.00811147)
(0.10725 0 -0.00929312)
(0.118084 0 -0.0104395)
(0.128046 0 -0.011565)
(0.137305 0 -0.0126827)
(0.146013 0 -0.0138043)
(0.15431 0 -0.0149412)
(0.162311 0 -0.0161031)
(0.17012 0 -0.0172991)
(0.177825 0 -0.0185392)
(0.185504 0 -0.0198331)
(0.193212 0 -0.0211896)
(0.200984 0 -0.0226164)
(0.208834 0 -0.0241203)
(0.21675 0 -0.0257054)
(0.224691 0 -0.0273731)
(0.232589 0 -0.0291213)
(0.240344 0 -0.0309432)
(0.247832 0 -0.0328267)
(0.254902 0 -0.0347518)
(0.261377 0 -0.0366867)
(0.267106 0 -0.0386018)
(0.271962 0 -0.0404658)
(0.275856 0 -0.0422462)
(0.278741 0 -0.0439071)
(0.0113442 0 -0.000935436)
(0.0326657 0 -0.00270367)
(0.0515041 0 -0.00429578)
(0.0682084 0 -0.00575212)
(0.0831143 0 -0.0071072)
(0.0965068 0 -0.00838808)
(0.10863 0 -0.00961628)
(0.119694 0 -0.0108093)
(0.129885 0 -0.0119819)
(0.139367 0 -0.013147)
(0.148286 0 -0.014316)
(0.156771 0 -0.0154993)
(0.164933 0 -0.0167062)
(0.172866 0 -0.0179452)
(0.180649 0 -0.0192246)
(0.188346 0 -0.0205521)
(0.196001 0 -0.021934)
(0.203638 0 -0.0233756)
(0.211259 0 -0.0248803)
(0.218845 0 -0.0264488)
(0.226348 0 -0.0280787)
(0.233723 0 -0.0297696)
(0.240869 0 -0.0315089)
(0.247658 0 -0.0332777)
(0.253979 0 -0.0350564)
(0.259709 0 -0.0368211)
(0.264743 0 -0.0385467)
(0.268996 0 -0.0402068)
(0.272416 0 -0.0417753)
(0.274982 0 -0.0432243)
(0.011428 0 -0.000959701)
(0.0329219 0 -0.00277521)
(0.0519417 0 -0.00441225)
(0.0688359 0 -0.00591188)
(0.0839383 0 -0.00730915)
(0.0975315 0 -0.00863152)
(0.109857 0 -0.00990082)
(0.121121 0 -0.0111348)