/*--------------------------------*- C++ -*----------------------------------*\
| =========                 |                                                 |
| \\      /  F ield         | OpenFOAM: The Open Source CFD Toolbox           |
|  \\    /   O peration     | Version:  5.x                                   |
|   \\  /    A nd           | Web:      www.OpenFOAM.org                      |
|    \\/     M anipulation  |                                                 |
\*---------------------------------------------------------------------------*/
FoamFile
{
    version     2.0;
    format      ascii;
    class       surfaceScalarField;
    location    "4.7";
    object      phi;
}
// * * * * * * * * * * * * * * * * * * * * * * * * * * * * * * * * * * * * * //

dimensions      [0 3 -1 0 0 0 0];

internalField   nonuniform List<scalar> 
5457
(
0.197832
0.00194813
0.195512
0.00214118
0.193028
0.00235059
0.190317
0.00261812
0.187367
0.00289002
0.184177
0.0031607
0.180738
0.00343712
0.177035
0.00372357
0.17305
0.00402439
0.168764
0.00434385
0.164154
0.00468344
0.159194
0.00504557
0.153858
0.0054328
0.148115
0.00584736
0.141934
0.00629114
0.135282
0.00676549
0.128126
0.00727085
0.120433
0.00780651
0.112172
0.00837037
0.103318
0.00895834
0.0938516
0.00956348
0.0837637
0.0101752
0.0730612
0.0107786
0.0617713
0.0113532
0.0499494
0.011871
0.0376915
0.012292
0.0251493
0.0125606
0.0125834
0.0125692
0.00150666
0.0110662
0.00149424
0.199567
0.00216018
0.198554
0.0029756
0.19724
0.00353121
0.195652
0.0041126
0.193778
0.0047039
0.191614
0.00529524
0.189153
0.00589521
0.186383
0.00651342
0.183288
0.00715931
0.179849
0.00783989
0.176046
0.00855893
0.171856
0.00932191
0.167251
0.0101343
0.162202
0.0110011
0.156677
0.0119268
0.150641
0.012915
0.144059
0.0139677
0.136895
0.0150847
0.129113
0.0162634
0.120679
0.0174979
0.111564
0.018777
0.101745
0.0200832
0.0912115
0.0213904
0.0799678
0.0226624
0.0680437
0.0238467
0.0555148
0.0248575
0.0425533
0.0255431
0.0295706
0.0255573
0.0166152
0.0240165
0.0180811
0.19942
0.0025175
0.198477
0.0037393
0.197235
0.00464026
0.19574
0.00551218
0.193992
0.00639045
0.191985
0.00727198
0.189714
0.00816361
0.187166
0.00908096
0.184324
0.0100384
0.181177
0.0110432
0.177706
0.0121022
0.173889
0.0132243
0.169702
0.0144181
0.165116
0.0156915
0.160101
0.017052
0.154623
0.0185074
0.148644
0.0200629
0.142123
0.0217208
0.135018
0.0234816
0.127282
0.0253418
0.118868
0.0272925
0.109727
0.0293166
0.0998134
0.0313866
0.0890787
0.0334675
0.0774757
0.0355069
0.0649624
0.0374136
0.0514914
0.0390418
0.0368505
0.0402102
0.0199337
0.0409367
0.0379911
0.199331
0.00296258
0.198386
0.00450309
0.197158
0.00573413
0.195679
0.00689476
0.193955
0.00805164
0.191981
0.00921334
0.189754
0.010387
0.187262
0.0115915
0.18449
0.012845
0.181431
0.0141559
0.178071
0.0155335
0.17439
0.0169905
0.170366
0.0185375
0.165978
0.0201848
0.161197
0.021943
0.155995
0.0238252
0.150334
0.025841
0.144175
0.0279962
0.137475
0.030298
0.130178
0.0327497
0.122225
0.0353519
0.113542
0.0380978
0.10405
0.0409681
0.0936524
0.0439431
0.0822131
0.0470123
0.0695419
0.0501378
0.0553839
0.0532389
0.039374
0.0562436
0.0208633
0.0594546
0.0588549
0.199283
0.00345249
0.198325
0.00527901
0.197108
0.00681601
0.195645
0.00826032
0.193939
0.00969058
0.191992
0.0111255
0.189799
0.0125757
0.187346
0.0140619
0.18462
0.0156034
0.181616
0.0172114
0.178322
0.0188989
0.174715
0.0206808
0.170778
0.0225692
0.16649
0.0245768
0.161826
0.026718
0.156758
0.0290087
0.151254
0.0314635
0.145275
0.0340951
0.138772
0.0369187
0.131691
0.039947
0.123956
0.0431982
0.115475
0.0466848
0.106134
0.0504084
0.0957999
0.0543666
0.0843003
0.0585915
0.071358
0.0631477
0.0566225
0.0680271
0.0397649
0.0731359
0.0207514
0.0784664
0.0796674
0.199257
0.00396484
0.198289
0.00606257
0.197086
0.00788491
0.195641
0.00960508
0.193956
0.0113024
0.19204
0.0130033
0.189887
0.0147234
0.187477
0.0164864
0.184801
0.0183095
0.181856
0.0202086
0.178623
0.0222016
0.175083
0.0243032
0.171218
0.0265276
0.167008
0.0288899
0.162424
0.0314118
0.15744
0.0341089
0.152025
0.036998
0.146137
0.0401053
0.139722
0.0434557
0.132717
0.0470733
0.125043
0.0509904
0.116597
0.0552457
0.107232
0.0598838
0.0967641
0.0649384
0.085014
0.0704381
0.0717273
0.0765204
0.0565474
0.083273
0.0391525
0.0905672
0.0200679
0.0975228
0.0998875
0.199242
0.00448616
0.198271
0.00684705
0.197085
0.00893882
0.195663
0.0109253
0.194004
0.0128813
0.192125
0.0148396
0.190019
0.0168226
0.187659
0.0188552
0.185041
0.0209545
0.182159
0.0231405
0.178993
0.0254337
0.175525
0.0278505
0.171736
0.0304078
0.167604
0.0331242
0.1631
0.0360255
0.158194
0.0391305
0.152851
0.0424625
0.147025
0.0460556
0.140655
0.0499513
0.133661
0.0541935
0.125958
0.0588182
0.117442
0.0638859
0.10796
0.069488
0.0972951
0.0757232
0.0852109
0.0826351
0.071524
0.0903112
0.0559749
0.0988967
0.0382558
0.108308
0.0192948
0.116411
0.119413
0.199234
0.0050086
0.198265
0.0076264
0.197101
0.00997384
0.195706
0.0122159
0.194078
0.0144211
0.192245
0.0166277
0.19019
0.0188662
0.18789
0.0211604
0.185339
0.0235301
0.182528
0.0259972
0.179439
0.0285841
0.176051
0.0313111
0.172352
0.0341972
0.16831
0.037269
0.163891
0.0405503
0.159073
0.0440649
0.153806
0.0478516
0.148039
0.0519496
0.141709
0.0564092
0.134731
0.0613021
0.126989
0.0666898
0.118359
0.0726461
0.108706
0.0792747
0.0978218
0.0867409
0.0854317
0.0951494
0.0713577
0.104496
0.0554661
0.114856
0.0375511
0.126209
0.0187124
0.135117
0.138368
0.199227
0.00552811
0.198266
0.0083931
0.197129
0.0109828
0.195767
0.0134691
0.19418
0.0159151
0.192396
0.0183627
0.190398
0.0208472
0.188165
0.0233946
0.18569
0.026027
0.182961
0.0287673
0.17996
0.0316409
0.176668
0.0346713
0.173069
0.0378815
0.169132
0.0413042
0.164818
0.0449646
0.160105
0.0488927
0.154938
0.0531431
0.149245
0.0577698
0.142964
0.0628202
0.13602
0.0683786
0.12828
0.074562
0.119583
0.0814752
0.109768
0.0892207
0.098671
0.0979778
0.0860417
0.107908
0.0716462
0.118987
0.0554443
0.131093
0.0373447
0.144237
0.0184877
0.153769
0.157027
0.199225
0.00604016
0.198277
0.00914081
0.19717
0.0119611
0.195844
0.0146811
0.194304
0.0173588
0.192575
0.020038
0.19064
0.0227581
0.188483
0.0255492
0.186092
0.028435
0.183457
0.0314387
0.18056
0.0345906
0.17738
0.037917
0.173896
0.041446
0.170077
0.0452117
0.16589
0.0492446
0.161304
0.053588
0.156265
0.058303
0.150697
0.0634625
0.144514
0.0691327
0.137633
0.0753905
0.129948
0.0823799
0.121278
0.0902735
0.111409
0.0992052
0.100199
0.109309
0.0874189
0.120796
0.0727901
0.133661
0.0563337
0.147519
0.038011
0.162412
0.018894
0.172605
0.175977
0.19923
0.00654103
0.198299
0.00986694
0.197219
0.0129061
0.195932
0.0158487
0.194446
0.0187472
0.19278
0.0216469
0.190917
0.0245918
0.188841
0.0276161
0.186543
0.0307448
0.184011
0.0340028
0.181228
0.0374229
0.178176
0.0410343
0.174831
0.0448688
0.171159
0.0489672
0.167128
0.0533676
0.162694
0.0581237
0.157803
0.0632994
0.15241
0.0689751
0.146413
0.0752567
0.139686
0.0822398
0.132141
0.09005
0.12362
0.0989171
0.113897
0.109032
0.102771
0.120517
0.0899907
0.133612
0.075282
0.148326
0.058674
0.164009
0.0401093
0.180749
0.0204057
0.191955
0.196336
0.199242
0.0070275
0.19833
0.010568
0.197275
0.0138143
0.19603
0.0169676
0.194604
0.0200745
0.193009
0.0231826
0.191226
0.0263409
0.189239
0.0295873
0.18704
0.0329484
0.18462
0.0364503
0.181962
0.0401247
0.179052
0.0440038
0.175865
0.0481288
0.172364
0.052547
0.168525
0.0573012
0.164292
0.0624549
0.159598
0.0680809
0.154427
0.0742544
0.148687
0.0811125
0.142239
0.0887913
0.134969
0.097422
0.126763
0.107229
0.117435
0.118456
0.106682
0.131302
0.0942415
0.145998
0.0798264
0.162588
0.0633494
0.180265
0.0445953
0.19919
0.0239337
0.212201
0.220162
0.199262
0.0074961
0.198371
0.0112421
0.197336
0.0146847
0.196134
0.0180324
0.19478
0.0213314
0.193266
0.0246356
0.191568
0.0279977
0.18967
0.0314561
0.187578
0.035036
0.185287
0.0387641
0.182776
0.0426759
0.180026
0.0468083
0.177008
0.0512098
0.173692
0.0559269
0.17007
0.0610086
0.166083
0.0665343
0.16167
0.072579
0.156786
0.0792277
0.151369
0.0866179
0.145326
0.0949147
0.138518
0.104295
0.130868
0.114947
0.122213
0.127163
0.112251
0.141233
0.100738
0.157375
0.0873723
0.175716
0.0717446
0.195569
0.0533034
0.217219
0.0315523
0.233487
0.251551
0.199284
0.00794514
0.198418
0.0118864
0.197406
0.0155119
0.196256
0.019036
0.194978
0.0225128
0.193547
0.0260027
0.191933
0.0295584
0.190131
0.0332134
0.18816
0.0369921
0.18601
0.0409293
0.183655
0.0450637
0.181084
0.0494332
0.178261
0.0540885
0.175164
0.0590775
0.171775
0.0644635
0.168063
0.0703228
0.163992
0.0767352
0.159481
0.0838102
0.154498
0.0916601
0.148992
0.100475
0.142867
0.110455
0.136049
0.121782
0.12841
0.134776
0.119786
0.149747
0.110015
0.166937
0.0988753
0.186562
0.0857459
0.208297
0.0697971
0.232674
0.0483071
0.254479
0.299568
0.199303
0.00837553
0.198462
0.012499
0.197484
0.0162934
0.196391
0.019981
0.195185
0.0236246
0.193831
0.0272882
0.192304
0.0310206
0.190613
0.0348521
0.188771
0.0388119
0.186757
0.0429436
0.184558
0.047283
0.182174
0.051866
0.179564
0.0567484
0.176703
0.0619854
0.173572
0.0676428
0.170169
0.0737839
0.166465
0.0805068
0.162399
0.0879254
0.157951
0.096145
0.153093
0.105358
0.147816
0.115741
0.142066
0.127501
0.135821
0.140921
0.129114
0.156272
0.122005
0.173771
0.114608
0.193602
0.106755
0.21569
0.09836
0.240539
0.0851391
0.267209
0.384125
0.00301554
-0.00306179
0.00661142
-0.00370532
0.00987378
-0.00351625
0.0124852
-0.00302206
0.014478
-0.00248921
0.0160247
-0.00202491
0.0173164
-0.00166383
0.0184933
-0.00139519
0.0196242
-0.00118887
0.0207273
-0.00101765
0.0217855
-0.000851998
0.0227636
-0.000672186
0.023622
-0.000476916
0.024318
-0.000256628
0.0248308
-2.11176e-05
0.025159
0.000218744
0.025327
0.00045393
0.0253782
0.000621638
0.0253477
0.000708679
0.0253093
0.000734649
0.0253159
0.000700673
0.0253839
0.000609067
0.0255563
0.00048137
0.0258702
0.000338765
0.0263259
0.000196404
0.0269563
4.93007e-05
0.0278007
-8.65155e-05
0.0287598
-0.000200255
0.0296943
-0.00029201
-0.000363107
0.00310515
-0.00620189
0.00660273
-0.00732291
0.00976765
-0.00695561
0.0123675
-0.006048
0.014451
-0.00507024
0.0161759
-0.00421761
0.0177084
-0.00355296
0.0191712
-0.00306044
0.0206279
-0.0026908
0.0220946
-0.00239124
0.0235618
-0.00211141
0.0250147
-0.00181969
0.0264214
-0.00150899
0.0277405
-0.00115412
0.0289313
-0.000752479
0.0299407
-0.000307337
0.0307651
0.000147943
0.0314398
0.000496424
0.0320175
0.000697128
0.0325668
0.000781764
0.0331356
0.00074723
0.0337514
0.000605194
0.0344476
0.000394211
0.035221
0.000173364
0.0360543
-3.17766e-05
0.0369524
-0.000216722
0.0379576
-0.000381082
0.0390151
-0.000527027
0.0400219
-0.000650669
-0.000723836
0.00304533
-0.00928214
0.0061709
-0.0105893
0.00883652
-0.00993041
0.0109563
-0.00861301
0.0126402
-0.00724391
0.0140461
-0.00606243
0.0153209
-0.00514678
0.0165636
-0.00447113
0.01782
-0.00396664
0.0191052
-0.00356808
0.0204083
-0.00320856
0.0217222
-0.00284262
0.023018
-0.00245004
0.0242806
-0.00201486
0.025504
-0.00154049
0.0266574
-0.0010171
0.0277393
-0.000477839
0.0287218
-7.93334e-06
0.0295963
0.000332057
0.030406
0.000506399
0.0311781
0.000513361
0.0319487
0.000396168
0.0327322
0.000211551
0.0334993
9.21565e-06
0.0342351
-0.000186278
0.0349776
-0.00036674
0.0357807
-0.00052886
0.0366257
-0.000671191
0.0374418
-0.000795917
-0.000875296
0.00300572
-0.0123604
0.00570781
-0.0134657
0.00779316
-0.012363
0.00933685
-0.010612
0.010521
-0.00889379
0.0115124
-0.00744357
0.0124342
-0.00633022
0.0133502
-0.00550788
0.0142972
-0.00489432
0.015286
-0.0044198
0.0162992
-0.00400868
0.0173301
-0.00359945
0.018353
-0.00315126
0.0193815
-0.0026597
0.0204073
-0.00213729
0.0213928
-0.00157369
0.0223504
-0.00100077
0.0232928
-0.000483744
0.0241834
-6.02783e-05
0.0249851
0.000214366
0.0257072
0.00031047
0.0263819
0.00028041
0.0270314
0.000174627
0.0276157
3.2384e-05
0.0280925
-0.000110918
0.028521
-0.000243907
0.0289889
-0.000367807
0.0294957
-0.000480441
0.0299891
-0.000592451
-0.000735232
0.00291042
-0.0154179
0.00510526
-0.015883
0.00656349
-0.0141972
0.00748993
-0.0119843
0.00813329
-0.00995768
0.0086664
-0.00829854
0.00917884
-0.00703633
0.0097034
-0.00610398
0.0102727
-0.00540866
0.0108878
-0.00487032
0.0115259
-0.00441282
0.0121805
-0.00397283
0.0128403
-0.0035056
0.0135308
-0.00299464
0.0142451
-0.00244491
0.0149527
-0.00186153
0.0156367
-0.00125956
0.0162926
-0.00068279
0.0168981
-0.000190679
0.017428
0.000162691
0.0179098
0.000345324
0.0183721
0.00038385
0.018825
0.000329509
0.0192297
0.000225193
0.0195334
0.000105965
0.019814
-3.64145e-06
0.0201834
-0.000109091
0.0206181
-0.000213737
0.0210599
-0.000328949
-0.000490614
0.0026955
-0.0183234
0.00427197
-0.0177371
0.00506442
-0.015377
0.00534998
-0.0126806
0.0054315
-0.0103895
0.00547644
-0.00858018
0.00553994
-0.00721535
0.00564391
-0.00621354
0.00579895
-0.00547223
0.00599415
-0.00489074
0.00622107
-0.00439699
0.00647312
-0.00393484
0.00674281
-0.00346025
0.00704167
-0.00294781
0.00737219
-0.00239277
0.0077292
-0.00180669
0.00811412
-0.00121601
0.00854579
-0.000661558
0.0090099
-0.00019708
0.00946893
0.000156977
0.00993958
0.000377013
0.0104144
0.000465651
0.0108781
0.000456432
0.0112982
0.00039305
0.0116164
0.000311855
0.0118883
0.000250679
0.0122023
0.000203485
0.0125195
0.000160566
0.0127921
0.000100345
-5.16137e-05
0.00232069
-0.020844
0.00316724
-0.0189088
0.00323282
-0.0158214
0.00285638
-0.012655
0.00235944
-0.0101532
0.00189187
-0.00825531
0.00149098
-0.00684676
0.00118019
-0.00582879
0.000946264
-0.00509214
0.000771696
-0.00452217
0.000665649
-0.00404407
0.000622602
-0.00360408
0.000634322
-0.00315543
0.000705655
-0.00267391
0.000844739
-0.00215863
0.00104998
-0.00161932
0.00132306
-0.00107792
0.00167611
-0.000573274
0.00206962
-0.000138658
0.00246935
0.000203931
0.00288397
0.000449066
0.00330149
0.000586519
0.00368407
0.000641751
0.00400774
0.000645718
0.00423066
0.000637583
0.00438522
0.000650896
0.00450466
0.000705684
0.00455297
0.000786969
0.00451684
0.000833009
0.000584969
0.00174433
-0.0227003
0.00174789
-0.0192676
0.000996793
-0.0154209
-7.83001e-05
-0.011854
-0.00117596
-0.00921905
-0.00216763
-0.00731524
-0.00299516
-0.00597683
-0.00364612
-0.005048
-0.00415006
-0.0043971
-0.00453368
-0.00391354
-0.00480806
-0.00351171
-0.00498858
-0.00313611
-0.00509192
-0.00274665
-0.00512812
-0.00231557
-0.00509092
-0.00184394
-0.00498549
-0.00135201
-0.00482389
-0.000856148
-0.00460502
-0.000376874
-0.00434791
4.83854e-05
-0.00409105
0.000398889
-0.00382608
0.000664241
-0.00356494
0.000846039
-0.00332956
0.000954076
-0.0031471
0.00102622
-0.00303432
0.00108807
-0.0029722
0.00116612
-0.00292831
0.0012819
-0.00289205
0.00141296
-0.00283277
0.00146491
0.00123032
0.000910752
-0.0236087
-8.99456e-05
-0.0186326
-0.00175009
-0.0140654
-0.0035891
-0.0102032
-0.00526478
-0.0076126
-0.00668626
-0.00586463
-0.00784057
-0.00471992
-0.00874304
-0.00398597
-0.00942086
-0.00350631
-0.00991977
-0.00316647
-0.0102857
-0.00287921
-0.010543
-0.00259049
-0.0107124
-0.00227152
-0.0108203
-0.00190108
-0.0108658
-0.00147327
-0.0108499
-0.00100765
-0.0108059
-0.000525317
-0.0107417
-4.29372e-05
-0.0106551
0.000391832
-0.0105526
0.000746302
-0.0104373
0.00102381
-0.0103153
0.00123065
-0.010206
0.0013777
-0.0101115
0.00148381
-0.0100275
0.00156853
-0.00993824
0.00166105
-0.0098213
0.00178362
-0.00968
0.00192686
-0.00951578
0.0019874
0.00181909
-0.000256118
-0.0232822
-0.00247667
-0.0167658
-0.00517746
-0.0116039
-0.00775533
-0.00772242
-0.00997663
-0.00537453
-0.0117738
-0.00397107
-0.0131608
-0.00318407
-0.0142121
-0.00275752
-0.0149841
-0.0025196
-0.0155369
-0.00236293
-0.0159377
-0.00221193
-0.0162226
-0.00202226
-0.0164133
-0.001775
-0.0165503
-0.00145588
-0.0166526
-0.00105614
-0.0167276
-0.000585403
-0.0168108
-7.30514e-05
-0.0168857
0.000421957
-0.0169273
0.000849791
-0.0169429
0.00120179
-0.016934
0.00148073
-0.0169004
0.00169161
-0.0168431
0.0018414
-0.0167557
0.0019395
-0.0166322
0.0020074
-0.0164661
0.00208064
-0.0162637
0.0021981
-0.0160433
0.00235705
-0.0158298
0.00245695
0.00235656
-0.00189782
-0.0213096
-0.0059212
-0.0130529
-0.00965819
-0.00801761
-0.0129535
-0.00443065
-0.0156317
-0.00260591
-0.0176762
-0.00177781
-0.0191728
-0.00150393
-0.0202425
-0.0014902
-0.0209943
-0.00156103
-0.0215074
-0.00162209
-0.02185
-0.00161685
-0.0220855
-0.0015166
-0.0222538
-0.00131606
-0.0223944
-0.00101405
-0.0225354
-0.000604345
-0.0226818
-0.000104705
-0.0228297
0.00043154
-0.0229729
0.000944656
-0.0231039
0.00138538
-0.0232047
0.00173217
-0.0232601
0.00199221
-0.0232624
0.00217777
-0.0232083
0.00229786
-0.0230912
0.00235735
-0.0229087
0.00238329
-0.022668
0.00242407
-0.0223909
0.00253536
-0.0221076
0.00272061
-0.0218499
0.00287913
0.00284649
-0.00421043
-0.0170491
-0.0101092
-0.00737845
-0.0155921
-0.0025782
-0.0196378
-0.000301522
-0.0224499
0.000351606
-0.0243128
0.00026523
-0.0255417
-7.36161e-05
-0.0263618
-0.000456695
-0.0269193
-0.000795703
-0.0272912
-0.00104138
-0.0275266
-0.0011469
-0.0276945
-0.00109475
-0.0278342
-0.000904177
-0.0279668
-0.000594386
-0.0281054
-0.000163685
-0.028265
0.000377784
-0.0284646
0.000976395
-0.0286936
0.00154225
-0.0289095
0.00199495
-0.0290752
0.00231713
-0.0291672
0.00253037
-0.0291797
0.00266394
-0.0291094
0.00272867
-0.0289546
0.00272978
-0.0287141
0.00269597
-0.0284027
0.00269355
-0.0280522
0.002796
-0.0277031
0.00301492
-0.0273911
0.003244
0.00328112
-0.00775482
-0.00922161
-0.0164215
0.00119132
-0.0228363
0.00389165
-0.026747
0.00375102
-0.0291146
0.00289255
-0.0305941
0.0019305
-0.0315013
0.0010305
-0.0320448
0.000291647
-0.0323904
-0.000246618
-0.0325965
-0.000631573
-0.0327013
-0.000820861
-0.0327777
-0.000779299
-0.0328657
-0.000559283
-0.0329669
-0.000219482
-0.0330918
0.000252485
-0.033276
0.000873728
-0.0335387
0.00157327
-0.0338551
0.00221649
-0.034152
0.00267486
-0.0343736
0.00294783
-0.0344831
0.00307617
-0.0344902
0.00313515
-0.0343966
0.00312702
-0.0342013
0.00305413
-0.0339025
0.0029446
-0.0335165
0.00288396
-0.033083
0.00296984
-0.0326553
0.00322695
-0.0322754
0.00353795
0.00365031
-0.0120924
0.00307797
-0.0235838
0.0127037
-0.0300067
0.0104267
-0.0332475
0.00714285
-0.0350898
0.00490222
-0.036248
0.00326002
-0.0368733
0.00183477
-0.0371133
0.00071661
-0.0372418
7.11523e-05
-0.0372505
-0.000427252
-0.0371711
-0.000690911
-0.0371225
-0.000602126
-0.0371548
-0.000283798
-0.0372297
0.000116464
-0.0373375
0.000640208
-0.0375361
0.001373
-0.0378612
0.00222174
-0.0382825
0.00298511
-0.0386716
0.00343652
-0.038939
0.00361439
-0.0390571
0.00362075
-0.0390448
0.0035776
-0.0389204
0.00348589
-0.0386813
0.00332698
-0.0383199
0.00312432
-0.037848
0.00298336
-0.037313
0.00303782
-0.0367865
0.00333627
-0.036323
0.00374501
0.00394461
-0.0166703
0.0202469
-0.0314294
0.0274432
-0.0378208
0.0169026
-0.0399457
0.00938596
-0.0410025
0.00609756
-0.0420074
0.00441361
-0.0417129
0.00169836
-0.0412554
0.000425766
-0.0411884
0.000178792
-0.041078
-0.000353297
-0.0407698
-0.000801565
-0.0405637
-0.000594814
-0.0405549
-6.17386e-05
-0.040609
0.000419862
-0.0406709
0.000971122
-0.0408591
0.00185134
-0.0412599
0.00293567
-0.0418043
0.00386683
-0.0423209
0.00431608
-0.0426428
0.00432596
-0.0427466
0.00414196
-0.0426919
0.00396883
-0.0425261
0.00379516
-0.0422392
0.00354479
-0.0418087
0.00322864
-0.0412346
0.00297522
-0.0405714
0.00297296
-0.0399184
0.00331503
-0.0393543
0.003848
0.00415507
0.206954
0.0087964
0.206109
0.0130945
0.205145
0.0170499
0.204084
0.0208937
0.202915
0.0246956
0.2016
0.028522
0.200127
0.032418
0.198507
0.0364141
0.196743
0.0405451
0.194819
0.0448538
0.19273
0.0493769
0.190482
0.0541507
0.188033
0.0592365
0.185357
0.0646921
0.182463
0.0705705
0.17934
0.0769441
0.175964
0.0839147
0.172331
0.0915766
0.168433
0.100049
0.164285
0.109493
0.159943
0.120044
0.15545
0.131904
0.150934
0.145265
0.146654
0.160292
0.14305
0.177019
0.140864
0.195349
0.141092
0.214931
0.14574
0.235314
0.158594
0.253819
0.267805
0.274374
0.211969
0.00920325
0.211128
0.0136627
0.210196
0.0177646
0.209195
0.0217506
0.208089
0.0257003
0.206838
0.0296777
0.205443
0.0337228
0.20392
0.0378692
0.202268
0.0421541
0.200479
0.0466177
0.198555
0.0512968
0.196498
0.0562352
0.194262
0.0614943
0.191837
0.067122
0.189257
0.0731671
0.186504
0.0797145
0.18357
0.086847
0.180493
0.0946364
0.177307
0.103207
0.174073
0.112672
0.170903
0.123117
0.167958
0.134695
0.165523
0.147466
0.164082
0.161409
0.164368
0.17632
0.167461
0.191769
0.17486
0.206974
0.189047
0.220546
0.211135
0.231188
0.244201
0.234302
0.217108
0.0095924
0.216278
0.0141934
0.215391
0.0184232
0.214457
0.0225396
0.213421
0.0266275
0.212245
0.0307416
0.210938
0.0349195
0.209524
0.0391972
0.208005
0.043613
0.206374
0.0482073
0.204646
0.0530151
0.202811
0.0580883
0.200821
0.0634811
0.198693
0.0692266
0.196472
0.0753769
0.194156
0.0820211
0.191753
0.089213
0.189332
0.0969994
0.186975
0.105496
0.184782
0.114761
0.182924
0.124821
0.181658
0.135747
0.181363
0.147469
0.182588
0.159811
0.186008
0.172453
0.192383
0.184888
0.20234
0.196473
0.216107
0.206237
0.232593
0.214219
0.221152
0.255287
0.222384
0.00995666
0.22158
0.0146776
0.220742
0.0190218
0.219863
0.0232598
0.218894
0.0274697
0.217807
0.0317019
0.216606
0.0359932
0.21532
0.0403792
0.213954
0.0449011
0.212504
0.0495985
0.210997
0.0545061
0.209411
0.0596795
0.2077
0.0651582
0.205912
0.0709618
0.204098
0.0771514
0.202271
0.083805
0.200466
0.090941
0.198779
0.0985908
0.197321
0.106844
0.196223
0.115701
0.195694
0.125141
0.196025
0.135151
0.197581
0.145581
0.200795
0.156197
0.206115
0.166677
0.213921
0.176589
0.224449
0.185437
0.237742
0.192454
0.254128
0.197403
0.199442
0.275529
0.227809
0.0102894
0.227038
0.0151154
0.226238
0.0195634
0.225407
0.023907
0.224509
0.0282178
0.223523
0.032546
0.222451
0.0369269
0.221315
0.0413974
0.220122
0.0459995
0.218877
0.0507697
0.21761
0.0557464
0.216288
0.0609802
0.214892
0.0664889
0.213488
0.0722909
0.212122
0.0784533
0.210831
0.0850177
0.209677
0.0919832
0.208763
0.0993789
0.208213
0.107242
0.208172
0.115536
0.208852
0.124209
0.21052
0.133182
0.213466
0.142279
0.217998
0.15126
0.224393
0.159836
0.232876
0.167637
0.243631
0.174213
0.256612
0.179032
0.271741
0.181892
0.181989
0.288915
0.233366
0.0105902
0.232629
0.0155073
0.23187
0.0200406
0.231096
0.0244681
0.23028
0.0288577
0.229408
0.0332577
0.22848
0.0377049
0.227511
0.0422359
0.226509
0.0468901
0.225491
0.0517028
0.224476
0.0567145
0.223441
0.0619574
0.2224
0.0674378
0.221411
0.0731828
0.220528
0.0792418
0.219804
0.0856278
0.219309
0.0923374
0.219147
0.0993813
0.219445
0.10675
0.220349
0.114391
0.22205
0.122227
0.224768
0.130143
0.228725
0.137961
0.234121
0.145464
0.241129
0.152398
0.249902
0.158422
0.260469
0.163214
0.272595
0.166507
0.285983
0.168158
0.167249
0.300464
0.239039
0.0108562
0.238345
0.0158442
0.237644
0.0204415
0.236941
0.0249301
0.23622
0.0293753
0.235472
0.0338242
0.2347
0.0383135
0.233912
0.0428789
0.233118
0.0475563
0.232341
0.0523799
0.231593
0.0573828
0.230874
0.062582
0.230212
0.0679854
0.229656
0.0736175
0.229265
0.0795033
0.2291
0.0856455
0.229235
0.092032
0.229772
0.0986486
0.230834
0.105461
0.232556
0.112404
0.235095
0.119385
0.238624
0.126282
0.243302
0.132927
0.249247
0.139129
0.256576
0.144654
0.265338
0.149247
0.27543
0.152726
0.286629
0.154944
0.298692
0.155778
0.154276
0.311421
0.244845
0.0110813
0.244199
0.0161163
0.243565
0.020756
0.242945
0.0252832
0.242331
0.0297608
0.241718
0.0342345
0.241109
0.0387406
0.240513
0.0433125
0.239942
0.0479826
0.239416
0.0527807
0.238952
0.0577305
0.238565
0.0628433
0.238286
0.0681262
0.238163
0.0735927
0.238255
0.079252
0.238627
0.0850967
0.239355
0.0911051
0.240534
0.097246
0.242272
0.10347
0.244688
0.109702
0.247896
0.115857
0.252028
0.121813
0.257206
0.127403
0.263495
0.132463
0.270935
0.136818
0.27949
0.140305
0.289044
0.142806
0.299426
0.144226
0.310422
0.144487
0.142701
0.321766
0.250799
0.0112604
0.2502
0.0163181
0.249638
0.0209769
0.249111
0.0255191
0.248613
0.0300052
0.248143
0.0344792
0.247705
0.0389757
0.247308
0.0435254
0.246968
0.0481562
0.246702
0.0528926
0.246533
0.0577513
0.246483
0.0627394
0.246586
0.0678599
0.246889
0.0731161
0.247449
0.0785056
0.24833
0.084012
0.249605
0.0896058
0.251359
0.0952458
0.253682
0.100875
0.256666
0.106421
0.260397
0.111801
0.264982
0.116888
0.270503
0.121538
0.276972
0.125632
0.284367
0.12905
0.292633
0.131678
0.301663
0.133435
0.311309
0.134267
0.321383
0.134136
0.132246
0.331618
0.256901
0.011389
0.256354
0.0164441
0.255868
0.0210979
0.255439
0.0256311
0.255065
0.0301012
0.254744
0.0345503
0.254484
0.0390105
0.254295
0.043509
0.254191
0.048069
0.254193
0.0527099
0.254324
0.0574433
0.25461
0.062272
0.255088
0.0671934
0.255802
0.0722033
0.256806
0.0772898
0.25816
0.0824304
0.259931
0.0875897
0.262186
0.0927256
0.264996
0.0977798
0.268438
0.102674
0.272589
0.107324
0.277518
0.111623
0.283246
0.115467
0.289759
0.118769
0.297024
0.121435
0.304974
0.123389
0.313508
0.124581
0.322497
0.124985
0.331783
0.124587
0.122686
0.341129
0.263156
0.0114628
0.262663
0.0164894
0.262257
0.0211136
0.261932
0.0256129
0.261687
0.0300423
0.261522
0.034441
0.261445
0.0388384
0.261468
0.0432574
0.261606
0.0477165
0.261878
0.052231
0.262308
0.0568087
0.262925
0.0614476
0.263765
0.0661399
0.26487
0.0708756
0.266289
0.0756363
0.268074
0.0803982
0.270275
0.0851247
0.272957
0.0897634
0.276183
0.0942578
0.28001
0.0985355
0.284488
0.10252
0.289642
0.106137
0.295468
0.109304
0.30195
0.11195
0.309042
0.114011
0.316673
0.115438
0.32475
0.116202
0.333162
0.116296
0.341778
0.11572
0.113861
0.350397
0.269565
0.0114779
0.26913
0.0164495
0.268807
0.021019
0.268591
0.0254597
0.26848
0.0298232
0.268475
0.0341461
0.268585
0.0384547
0.268822
0.0427674
0.269204
0.0470978
0.269745
0.0514584
0.270469
0.0558536
0.271407
0.0602773
0.272593
0.0647168
0.274063
0.0691611
0.275855
0.0735895
0.278019
0.0779676
0.280605
0.0822588
0.283664
0.0864119
0.287244
0.0903729
0.291377
0.0940872
0.296083
0.0974906
0.301371
0.100519
0.307232
0.103113
0.313636
0.105219
0.320533
0.106795
0.327856
0.10781
0.335519
0.108252
0.343427
0.108122
0.351473
0.107433
0.105646
0.359487
0.276132
0.011431
0.275757
0.0163207
0.275522
0.0208103
0.275418
0.0251674
0.275444
0.0294401
0.275601
0.0336622
0.275899
0.0378569
0.276352
0.0420383
0.276977
0.0462153
0.277782
0.0503982
0.278792
0.0545873
0.280036
0.0587771
0.281539
0.0629534
0.283339
0.0670947
0.285475
0.0711796
0.287988
0.0751718
0.29092
0.0790339
0.294302
0.082727
0.29816
0.0862033
0.302516
0.089413
0.307379
0.0923049
0.312745
0.0948293
0.318595
0.0969416
0.324894
0.0986048
0.331591
0.0997915
0.338623
0.100486
0.345915
0.100684
0.353384
0.100397
0.360943
0.0996399
0.0979431
0.368449
0.28286
0.011319
0.282549
0.0160996
0.282403
0.0204844
0.282414
0.0247333
0.282578
0.0288909
0.282898
0.0329875
0.283381
0.0370438
0.284052
0.0410701
0.284923
0.0450742
0.285979
0.0490632
0.287252
0.0530293
0.28878
0.0569682
0.290583
0.0608679
0.292695
0.0646974
0.295149
0.0684333
0.297975
0.0720487
0.301195
0.0755085
0.304836
0.0787756
0.308913
0.0818098
0.313437
0.0845698
0.318405
0.0870153
0.323806
0.0891088
0.329614
0.0908184
0.335793
0.0921194
0.342292
0.0929957
0.349054
0.0934409
0.356014
0.0934587
0.363101
0.0930629
0.370243
0.0922709
0.0906729
0.377319
0.289754
0.0111393
0.289509
0.0157837
0.289454
0.020039
0.289581
0.0241557
0.289884
0.0281748
0.290367
0.0321228
0.291032
0.0360171
0.291913
0.0398682
0.293018
0.043684
0.294317
0.0474632
0.295841
0.0511931
0.297638
0.0548685
0.299725
0.0584775
0.302125
0.061994
0.304857
0.0653933
0.307946
0.0686489
0.311409
0.0717305
0.315261
0.0746055
0.31951
0.0772406
0.324156
0.0796029
0.329191
0.0816613
0.334596
0.0833886
0.340342
0.0847627
0.346393
0.0857684
0.352702
0.0863978
0.359218
0.0866509
0.365882
0.0865358
0.372635
0.0860681
0.379418
0.0852659
0.0837712
0.386128
0.296815
0.0108897
0.296639
0.015371
0.296677
0.0194725
0.296921
0.0234337
0.297365
0.0272919
0.298009
0.0310704
0.298858
0.0347836
0.299935
0.0384426
0.301249
0.0420523
0.302784
0.0456046
0.304559
0.0490877
0.306608
0.0524951
0.308951
0.0558139
0.311602
0.0590219
0.314578
0.0620956
0.317894
0.0650104
0.32156
0.0677401
0.325584
0.0702573
0.329965
0.072535
0.334698
0.0745477
0.339769
0.0762723
0.345155
0.0776896
0.350828
0.0787854
0.35675
0.0795513
0.36288
0.0799854
0.369171
0.0800918
0.375573
0.0798811
0.382035
0.0793696
0.388507
0.078575
0.0771851
0.394903
0.304048
0.0105689
0.303942
0.0148604
0.304074
0.0187842
0.304435
0.0225675
0.305017
0.026244
0.305821
0.0298342
0.30685
0.0333503
0.308116
0.0368008
0.309626
0.0401873
0.31138
0.0435014
0.313388
0.046732
0.315671
0.04987
0.318244
0.0529023
0.321119
0.0558101
0.324307
0.0585722
0.327817
0.0611669
0.331652
0.0635719
0.335814
0.0657649
0.340296
0.0677246
0.345088
0.0694317
0.350173
0.0708695
0.355527
0.0720254
0.361119
0.0728912
0.366917
0.0734634
0.37288
0.0737441
0.378968
0.07374
0.385137
0.0734631
0.391344
0.0729295
0.397546
0.0721558
0.0708704
0.403672
0.311457
0.0101757
0.311421
0.0142517
0.311647
0.0179749
0.312123
0.0215591
0.312841
0.0250346
0.313799
0.028419
0.314999
0.0317224
0.316446
0.0349504
0.318147
0.0381023
0.320105
0.0411704
0.322326
0.0441444
0.324821
0.0470138
0.327601
0.049766
0.330675
0.0523846
0.334048
0.0548514
0.337723
0.0571478
0.341698
0.0592553
0.34597
0.0611562
0.350528
0.0628342
0.355358
0.0642751
0.360441
0.0654676
0.365753
0.0664041
0.371264
0.0670805
0.376942
0.0674973
0.382752
0.0676587
0.388657
0.0675735
0.39462
0.0672536
0.400604
0.0667146
0.406573
0.065972
0.0647896
0.412465
0.319045
0.00970948
0.319081
0.013545
0.319399
0.0170458
0.319988
0.020411
0.320838
0.0236674
0.321945
0.02683
0.323307
0.0299067
0.324928
0.0329005
0.32681
0.0358096
0.328957
0.0386268
0.331371
0.0413427
0.334059
0.0439468
0.337026
0.0464269
0.340275
0.048769
0.343808
0.0509577
0.347622
0.0529777
0.351714
0.054814
0.356073
0.0564529
0.360688
0.0578823
0.365541
0.0590923
0.370613
0.0600757
0.375878
0.0608286
0.381309
0.0613501
0.386876
0.0616431
0.392547
0.0617135
0.398289
0.0615707
0.404071
0.0612265
0.40986
0.0606954
0.415626
0.0599915
0.0589104
0.421314
0.326817
0.00916984
0.326924
0.012741
0.327334
0.0159987
0.328033
0.0191262
0.32901
0.0221468
0.330259
0.0250732
0.331776
0.0279108
0.333561
0.0306611
0.335614
0.0333214
0.337936
0.0358852
0.340527
0.0383437
0.343389
0.0406871
0.346522