/*--------------------------------*- C++ -*----------------------------------*\
| =========                 |                                                 |
| \\      /  F ield         | OpenFOAM: The Open Source CFD Toolbox           |
|  \\    /   O peration     | Version:  2006                                  |
|   \\  /    A nd           | Website:  www.openfoam.com                      |
|    \\/     M anipulation  |                                                 |
\*---------------------------------------------------------------------------*/
FoamFile
{
    version     2.0;
    format      ascii;
    class       volScalarField;
    location    "8";
    object      p;
}
// * * * * * * * * * * * * * * * * * * * * * * * * * * * * * * * * * * * * * //

dimensions      [0 2 -2 0 0 0 0];


internalField   nonuniform List<scalar> 
2790
(
146.738
146.645
146.912
147.483
148.263
149.221
150.353
151.66
153.136
154.777
156.577
158.528
160.621
162.846
165.187
167.623
170.127
172.666
175.198
177.672
180.03
182.208
184.138
185.759
187.018
187.892
188.329
188.384
188.435
188.647
146.535
146.552
146.845
147.413
148.189
149.143
150.271
151.572
153.041
154.674
156.464
158.405
160.487
162.701
165.031
167.456
169.952
172.486
175.016
177.494
179.862
182.057
184.012
185.66
186.945
187.819
188.216
188.27
188.403
188.688
146.336
146.424
146.735
147.293
148.056
148.997
150.11
151.393
152.841
154.449
156.211
158.12
160.168
162.344
164.632
167.014
169.466
171.957
174.449
176.896
179.246
181.439
183.411
185.101
186.452
187.427
188.02
188.376
188.691
188.99
146.111
146.229
146.553
147.103
147.851
148.776
149.869
151.128
152.547
154.121
155.845
157.71
159.709
161.83
164.058
166.376
168.761
171.184
173.611
176.001
178.308
180.48
182.462
184.202
185.656
186.808
187.676
188.347
188.899
189.418
145.85
145.983
146.315
146.857
147.589
148.493
149.56
150.787
152.169
153.701
155.375
157.184
159.12
161.171
163.322
165.558
167.856
170.191
172.533
174.846
177.091
179.226
181.209
182.999
184.569
185.912
187.042
188.005
188.815
189.562
145.549
145.688
146.022
146.554
147.266
148.144
149.18
150.369
151.707
153.186
154.801
156.544
158.405
160.373
162.434
164.572
166.767
168.996
171.233
173.449
175.611
177.689
179.651
181.472
183.135
184.636
185.983
187.188
188.208
189.126
145.207
145.346
145.678
146.196
146.886
147.733
148.732
149.878
151.164
152.584
154.131
155.796
157.571
159.444
161.401
163.427
165.503
167.609
169.722
171.818
173.873
175.864
177.772
179.582
181.288
182.889
184.383
185.762
186.926
187.973
144.822
144.959
145.284
145.786
146.449
147.263
148.221
149.316
150.544
151.897
153.367
154.947
156.625
158.391
160.232
162.131
164.072
166.036
168.004
169.956
171.873
173.741
175.548
177.29
178.969
180.588
182.143
183.615
184.865
186.015
144.396
144.529
144.843
145.326
145.96
146.736
147.648
148.688
149.852
151.13
152.517
154.001
155.573
157.222
158.932
160.691
162.481
164.284
166.083
167.862
169.606
171.304
172.952
174.553
176.115
177.649
179.158
180.629
181.9
183.138
143.929
144.057
144.358
144.818
145.421
146.156
147.017
147.998
149.091
150.29
151.585
152.966
154.423
155.943
157.513
159.117
160.738
162.361
163.967
165.54
167.069
168.543
169.961
171.33
172.663
173.982
175.302
176.64
177.841
179.145
143.424
143.546
143.831
144.267
144.835
145.525
146.332
147.249
148.268
149.381
150.578
151.849
153.182
154.565
155.982
157.419
158.856
160.277
161.664
162.999
164.267
165.457
166.564
167.593
168.557
169.486
170.417
171.416
172.379
173.697
142.882
142.997
143.265
143.673
144.204
144.848
145.597
146.446
147.387
148.409
149.503
150.658
151.86
153.097
154.353
155.609
156.848
158.049
159.191
160.253
161.215
162.057
162.766
163.332
163.759
164.07
164.314
164.623
165.005
166.179
142.305
142.412
142.662
143.041
143.533
144.127
144.817
145.595
146.453
147.38
148.367
149.4
150.467
151.551
152.636
153.703
154.73
155.694
156.569
157.328
157.941
158.376
158.598
158.574
158.271
157.675
156.802
155.812
154.867
155.373
141.696
141.794
142.025
142.374
142.825
143.368
143.995
144.7
145.473
146.303
147.178
148.086
149.011
149.938
150.846
151.715
152.521
153.235
153.826
154.258
154.488
154.465
154.127
153.396
152.174
150.346
147.786
144.489
140.547
138.516
141.057
141.146
141.356
141.674
142.083
142.573
143.137
143.766
144.452
145.181
145.943
146.723
147.505
148.27
148.998
149.664
150.242
150.698
150.994
151.085
150.911
150.401
149.456
147.942
145.664
142.334
137.495
130.486
120.038
107.838
0.656877
0.637082
0.568162
0.472766
0.373982
0.283862
0.207157
0.145172
0.097467
0.0623909
0.0385171
0.0234252
0.0147764
0.0107179
0.00973282
0.0105297
0.0120393
0.013451
0.0142128
0.014023
0.0128263
0.0107928
0.00825246
0.00562217
0.00328032
0.00146711
0.000233985
-0.000478523
-0.000768925
-0.000723209
0.608737
0.586383
0.521547
0.433604
0.342573
0.259056
0.187555
0.129595
0.0851949
0.0536524
0.0323849
0.0190703
0.0117691
0.00878486
0.00866795
0.0101454
0.0121436
0.0138592
0.0147555
0.0145549
0.0132422
0.0110417
0.00832161
0.00554907
0.0031368
0.00132218
0.000117853
-0.000558767
-0.000811287
-0.000490523
0.554932
0.528233
0.465972
0.385037
0.302335
0.226434
0.161352
0.108708
0.0686089
0.0399677
0.0214605
0.0107469
0.00579832
0.00488513
0.00659056
0.00960949
0.0128249
0.0153871
0.0167319
0.0165904
0.0150115
0.0123496
0.00911924
0.00587239
0.00314605
0.00122437
2.74363e-06
-0.000638298
-0.000827437
-0.000358982
0.502319
0.471185
0.410655
0.33569
0.260718
0.192109
0.133362
0.0860984
0.0505623
0.0258136
0.00995536
0.0016112
-0.00109745
0.000134264
0.00382462
0.0085368
0.0130826
0.0165744
0.0184101
0.0183292
0.0164779
0.0133016
0.009385
0.00563049
0.00257489
0.000595055
-0.000544947
-0.00112225
-0.00126859
-0.000901331
0.464347
0.42904
0.370064
0.299372
0.230028
0.166596
0.112355
0.0689433
0.0367537
0.0149596
0.00159242
-0.004939
-0.00679882
-0.00431081
0.000834357
0.00690159
0.0125857
0.0169286
0.0192492
0.0192391
0.0170819
0.0133384
0.00911544
0.00522254
0.00229644
0.000368088
-0.000630044
-0.00110492
-0.00124003
-0.00103473
0.453274
0.412841
0.354937
0.285762
0.218563
0.156846
0.10403
0.0617976
0.0306899
0.0097615
-0.0037408
-0.0107837
-0.0112166
-0.00783643
-0.00186131
0.00502575
0.0115527
0.0167018
0.0195877
0.0198332
0.0177029
0.0137629
0.00904539
0.00465251
0.00136835
-0.000543373
-0.0013363
-0.00162931
-0.00174773
-0.00122719
0.479877
0.431649
0.372574
0.300586
0.230411
0.165931
0.110707
0.0665565
0.0341062
0.0125405
-0.000677879
-0.00925587
-0.0125275
-0.00989371
-0.00414138
0.00272715
0.00938054
0.0147456
0.017935
0.0185471
0.0167257
0.0130716
0.0085376
0.0042369
0.00101489
-0.000838583
-0.00164592
-0.00208642
-0.00242859
-0.00145883
0.548617
0.491539
0.423504
0.342762
0.263973
0.192458
0.131701
0.0832043
0.047
0.021576
0.00415768
-0.00646677
-0.0106824
-0.00973806
-0.00537519
0.000595208
0.00676015
0.0119976
0.0153962
0.0164151
0.015007
0.011652
0.00727805
0.0030327
-0.000131022
-0.00186514
-0.00258831
-0.0031249
-0.00350416
-0.00173364
0.660088
0.584902
0.498315
0.401621
0.30926
0.227169
0.158686
0.104545
0.0632498
0.0325984
0.0115075
-0.00143571
-0.00765237
-0.00856963
-0.00592123
-0.0013667
0.00379542
0.00853419
0.011939
0.0132863
0.012252
0.00911614
0.00480202
0.000615531
-0.00232652
-0.00368478
-0.00408243
-0.00449628
-0.00463274
-0.00201406
0.797741
0.691637
0.575952
0.45808
0.351219
0.258696
0.181353
0.120159
0.0741155
0.0408682
0.0176449
0.00285238
-0.00495562
-0.00741327
-0.00637117
-0.0034052
0.000458404
0.00448782
0.00784192
0.00951982
0.00875615
0.00554561
0.000892443
-0.00350992
-0.00617829
-0.0067928
-0.00637653
-0.00619862
-0.0057274
-0.00228275
0.929774
0.781276
0.638118
0.495922
0.372125
0.270779
0.190176
0.127194
0.0795699
0.044833
0.020364
0.00452045
-0.00405479
-0.00726096
-0.0073488
-0.00594245
-0.00358242
-0.000356002
0.00310528
0.00534924
0.00486206
0.00118661
-0.0044636
-0.00962761
-0.012085
-0.0114892
-0.00956507
-0.00818347
-0.00675245
-0.00253181
1.03985
0.836733
0.655585
0.496246
0.364994
0.261096
0.180661
0.119475
0.0742412
0.0412773
0.0175483
0.00194986
-0.00611432
-0.00874781
-0.00911796
-0.00919095
-0.00867027
-0.0063603
-0.0023984
0.000995818
0.00099062
-0.0036358
-0.0112812
-0.0181205
-0.0205584
-0.0180879
-0.0136558
-0.0103401
-0.00767772
-0.00275509
1.068
0.796125
0.587661
0.425332
0.303373
0.213246
0.144658
0.0925605
0.0553644
0.0286216
0.00807578
-0.00610327
-0.0121909
-0.0122657
-0.0115618
-0.0131162
-0.0152008
-0.0141217
-0.00894264
-0.00322938
-0.00218811
-0.00836413
-0.0195008
-0.0294924
-0.0323108
-0.0269824
-0.0185551
-0.0124422
-0.00846535
-0.00294817
0.850174
0.502083
0.348568
0.248564
0.169667
0.119481
0.0800749
0.0453138
0.0222986
0.00724589
-0.00785
-0.0206158
-0.0234025
-0.0177232
-0.0135839
-0.0168829
-0.0233708
-0.0244656
-0.0169622
-0.00681878
-0.00358791
-0.0120918
-0.0289657
-0.0444526
-0.0484062
-0.038735
-0.0240033
-0.0140222
-0.00904026
-0.00310842
0.180544
-0.237086
-0.165037
-0.0557724
-0.0475731
-0.0132772
-0.000581283
-0.020377
-0.0287754
-0.0232981
-0.0287257
-0.0416849
-0.0405874
-0.0243497
-0.0129136
-0.0191989
-0.0341347
-0.0396514
-0.027953
-0.00942621
-0.00172708
-0.0135136
-0.0394112
-0.0640123
-0.0704646
-0.054222
-0.0294752
-0.0141568
-0.0092272
-0.00323456
140.377
140.458
140.647
140.931
141.296
141.731
142.229
142.781
143.376
144.002
144.647
145.295
145.929
146.529
147.071
147.53
147.874
148.065
148.059
147.798
147.212
146.203
144.639
142.326
138.964
134.059
126.692
114.95
92.815
33.1252
139.65
139.722
139.888
140.137
140.456
140.834
141.263
141.734
142.236
142.756
143.28
143.792
144.274
144.704
145.057
145.303
145.409
145.333
145.022
144.412
143.418
141.928
139.782
136.749
132.471
126.365
117.397
103.835
84.314
55.8475
138.881
138.942
139.085
139.299
139.57
139.889
140.247
140.636
141.042
141.453
141.854
142.229
142.557
142.815
142.978
143.013
142.884
142.544
141.938
140.995
139.624
137.704
135.07
131.493
126.647
120.076
111.189
99.3467
85.093
68.4271
138.07
138.121
138.24
138.417
138.64
138.899
139.185
139.489
139.799
140.1
140.378
140.615
140.79
140.878
140.853
140.681
140.324
139.733
138.85
137.604
135.902
133.628
130.629
126.708
121.619
115.068
106.756
96.3504
83.7853
68.6188
137.22
137.261
137.356
137.495
137.669
137.867
138.081
138.3
138.513
138.705
138.86
138.96
138.984
138.907
138.7
138.33
137.757
136.933
135.801
134.29
132.315
129.768
126.522
122.419
117.278
110.9
103.083
93.5835
82.2332
69.2378
136.334
136.364
136.434
136.536
136.66
136.797
136.938
137.073
137.19
137.273
137.308
137.274
137.152
136.915
136.535
135.98
135.208
134.175
132.825
131.094
128.904
126.164
122.769
118.6
113.526
107.412
100.135
91.5944
81.781
71.1065
135.413
135.432
135.478
135.542
135.616
135.693
135.762
135.814
135.836
135.814
135.731
135.569
135.306
134.918
134.378
133.651
132.702
131.485
129.952
128.045
125.697
122.834
119.373
115.228
110.312
104.544
97.8702
90.2792
81.8137
72.8096
134.461
134.47
134.491
134.517
134.543
134.56
134.559
134.529
134.459
134.334
134.139
133.854
133.46
132.932
132.243
131.363
130.257
128.886
127.204
125.164
122.709
119.783
116.323
112.27
107.571
102.187
96.1011
89.3353
81.9388
74.1841
133.481
133.48
133.477
133.467
133.445
133.403
133.334
133.225
133.067
132.844
132.542
132.142
131.625
130.968
130.147
129.132
127.892
126.394
124.598
122.463
119.948
117.007
113.597
109.682
105.231
100.231
94.6857
88.6307
82.1191
75.3788
132.478
132.467
132.44
132.395
132.326
132.228
132.093
131.909
131.666
131.351
130.949
130.442
129.813
129.041
128.102
126.971
125.621
124.022
122.142
119.949
117.41
114.492
111.169
107.418
103.227
98.5956
93.5423
88.1063
82.3406
76.4304
131.456
131.435
131.386
131.306
131.193
131.041
130.842
130.587
130.265
129.864
129.369
128.765
128.036
127.161
126.121
124.894
123.455
121.78
119.843
117.621
115.088
112.223
109.01
105.437
101.504
97.2205
92.6095
87.7104
82.5714
77.341
130.42
130.39
130.319
130.206
130.051
129.848
129.59
129.268
128.872
128.391
127.812
127.121
126.302
125.339
124.214
122.907
121.399
119.671
117.702
115.474
112.971
110.179
107.09
103.701
100.017
96.0546
91.8374
87.4022
82.7909
78.1227
129.376
129.337
129.245
129.102
128.906
128.655
128.342
127.958
127.494
126.941
126.286
125.518
124.621
123.583
122.387
121.018
119.46
117.698
115.716
113.502
111.046
108.34
105.382
102.175
98.7277
95.0575
91.1889
87.1543
82.9896
78.791
128.328
128.282
128.171
127.998
127.765
127.47
127.105
126.665
126.14
125.521
124.8
123.963
123.001
121.9
120.648
119.232
117.64
115.86
113.881
111.697
109.3
106.688
103.863
100.831
97.6031
94.1973
90.6361
86.9479
83.163
79.3593
127.284
127.23
127.101
126.901
126.634
126.298
125.887
125.395
124.815
124.139
123.359
122.465
121.447
120.296
119
117.55
115.938
114.154
112.192
110.047
107.718
105.203
102.509
99.6429
96.6173
93.4488
90.1582
86.7698
83.3092
79.8398
126.25
126.188
126.043
125.819
125.521
125.147
124.694
124.157
123.528
122.802
121.972
121.029
119.966
118.774
117.447
115.976
114.354
112.578
110.642
108.544
106.286
103.87
101.301
98.5903
95.7489
92.7925
89.7397
86.6112
83.4285
80.2434
125.232
125.164
125.004
124.758
124.431
124.024
123.534
122.956
122.285
121.516
120.643
119.661
118.561
117.34
115.99
114.507
112.887
111.126
109.222
107.177
104.992
102.672
100.223
97.6552
94.9805
92.213
89.3689
86.4659
83.5221
80.58
124.237
124.164
123.99
123.724
123.372
122.936
122.413
121.8
121.093
120.287
119.38
118.365
117.238
115.995
114.632
113.145
111.533
109.794
107.928
105.937
103.825
101.596
99.2592
96.8229
94.2983
91.6984
89.0372
86.3301
83.5922
80.8584
123.273
123.194
123.009
122.725
122.351
121.889
121.338
120.695
119.957
119.121
118.185
117.145
115.998
114.741
113.371
111.888
110.29
108.577
106.751
104.815
102.773
100.632
98.3983
96.0813
93.6912
91.2395
88.7386
86.2015
83.6412
81.0865
122.347
122.263
122.068
121.768
121.375
120.891
120.315
119.647
118.883
118.024
117.065
116.006
114.845
113.58
112.21
110.734
109.154
107.47
105.685
103.804
101.829
99.7692
97.6302
95.4208
93.1505
90.8295
88.4686
86.0792
83.6721
81.2715
121.466
121.378
121.174
120.861
120.451
119.948
119.352
118.662
117.878
116.999
116.024
114.951
113.781
112.513
111.146
109.683
108.123
106.47
104.726
102.896
100.985
98.9999
96.9467
94.8336
92.6694
90.4631
88.2243
85.9628
83.6878
81.4196
120.638
120.547
120.335
120.01
119.586
119.067
118.454
117.748
116.947
116.053
115.065
113.984
112.809
111.541
110.182
108.732
107.194
105.572
103.868
102.087
100.235
98.3174
96.3413
94.3139
92.243
90.137
88.0041
85.8529
83.6917
81.537
119.871
119.778
119.558
119.224
118.788
118.256
117.629
116.909
116.095
115.19
114.193
113.106
111.93
110.666
109.316
107.882
106.366
104.774
103.107
101.372
99.573
97.7166
95.8089
93.8568
91.8674
89.8483
87.8068
85.7504
83.6863
81.6286
119.174
119.078
118.853
118.51
118.063
117.52
116.883
116.151
115.328
114.415
113.412
112.323
111.148
109.889
108.549
107.131
105.638
104.073
102.442
100.748
98.9965
97.1941
95.3464
93.4598
91.5409
89.5964
87.6329
85.6573
83.6758
81.7003
118.555
118.456
118.226
117.875
117.42
116.868
116.221
115.482
114.651
113.732
112.726
111.636
110.463
109.211
107.883
106.48
105.007
103.469
101.868
100.211
98.5015
96.7461
94.9501
93.1195
91.2605
89.3791
87.4815
85.5737
83.6613
81.7543
118.024
117.922
117.685
117.328
116.865
116.306
115.653
114.907
114.071
113.148
112.141
111.052
109.883
108.638
107.32
105.932
104.478
102.962
101.389
99.7629
98.0895
96.3739
94.6214
92.8379
91.0288
89.2
87.3569
85.5052
83.65
81.7998
117.589
117.484
117.24
116.874
116.405
115.84
115.181
114.43
113.591
112.666
111.658
110.57
109.406
108.167
106.859
105.484
104.046
102.549
100.999
99.3995
97.7555
96.0724
94.3553
92.6096
90.8407
89.0537
87.254
85.4466
83.6364
81.8303
117.263
117.152
116.899
116.527
116.053
115.484
114.82
114.066
113.224
112.297
111.29
110.204
109.043
107.811
106.51
105.146
103.721
102.241
100.708
99.1297
97.509
95.8514
94.1619
92.4458
90.7079
88.9535
87.1875
85.4146
83.6397
81.8687
117.061
116.926
116.656
116.278
115.802
115.23
114.564
113.808
112.965
112.039
111.032
109.948
108.791
107.563
106.269
104.912
103.497
102.027
100.508
98.9432
97.3382
95.6978
94.0268
92.3302
90.613
88.8799
87.1358
85.3851
83.6324
81.8826
117.043
116.844
116.546
116.161
115.682
115.107
114.438
113.68
112.837
111.91
110.904
109.822
108.667
107.443
106.154
104.803
103.394
101.932
100.421
98.866
97.2714
95.6421
93.9829
92.2988
90.5944
88.8745
87.1438
85.4068
83.6677
81.9308
-50.5119
-30.2507
-11.1506
35.4628
27.9839
15.8793
50.8935
38.7831
27.5416
52.3271
41.8928
33.8351
56.6705
48.3726
41.6047
61.0606
54.1438
48.245
64.3387
58.4515
53.3973
66.9402
61.9109
57.5981
69.1339
64.7982
61.0866
70.986
67.2048
63.9757
72.5438
69.2116
66.3733
73.8566
70.8929
68.3734
74.9651
72.3064
70.0496
75.9014
73.4978
71.4595
76.6922
74.5036
72.6489
77.3593
75.3534
73.654
77.9211
76.0713
74.504
78.3926
76.6769
75.2227
78.7869
77.1868
75.8295
79.1152
77.6146
76.3406
79.3868
77.9722
76.7697
79.6104
78.2699
77.1287
79.7929
78.5158
77.4269
79.9421
78.719
77.6743
80.0606
78.8828
77.8753
80.1603
79.0199
78.0424
80.2324
79.1219
78.1691
80.3054
79.2177
78.2822
80.3397
79.2682
78.3468
80.4089
79.3515
78.4365
-2.97794
-2.89065
-1.43424
-0.294468
-0.25741
-0.158225
-0.098139
-0.126682
-0.10985
-0.0477374
-0.0355403
-0.063519
-0.0680102
-0.0359061
-0.00764873
-0.0179573
-0.0481033
-0.0619883
-0.0427495
-0.00870354
0.00740059
-0.00962863
-0.0500918
-0.0898544
-0.101477
-0.0752974
-0.034145
-0.0110377
-0.0085382
-0.0033298
2.10011
-0.786129
0.807136
0.283811
-1.07677
-0.82514
-0.172072
-0.144497
-0.123655
-0.0221255
-0.0427077
-0.131878
-0.148048
-0.0597108
0.0237732
0.00390123
-0.0604478
-0.0964095
-0.0686171
-0.00671099
0.0254715
0.0001579
-0.0629154
-0.12648
-0.147215
-0.10546
-0.0363256
-0.000824956
-0.00549606
-0.00341247
13.2644
4.90312
2.08521
-0.36848
-0.675275
0.847854
1.00893
-0.374065
-0.733665
-0.364305
-0.021752
-0.120927
-0.152427
0.0112291
0.107168
0.0284131
-0.106655
-0.18161
-0.127929
0.00238064
0.0726102
0.0314284
-0.0672952
-0.168575
-0.207795
-0.146753
-0.0327757
0.0235085
0.00342361
-0.00356464
23.0603
13.1668
7.27753
3.50795
1.79837
1.28304
0.0421579
-0.633628
-0.218665
0.95207
0.811211
-0.279005
-0.653243
-0.420835
0.0929234
0.130827
-0.104165
-0.239321
-0.146079
0.0741103
0.156713
0.0693357
-0.0872416
-0.247282
-0.319665
-0.231801
-0.0228299
0.0723473
0.0244967
-0.00405637
32.2439
22.464
15.1368
9.84827
6.2219
3.75571
1.88296
0.894999
0.645392
0.619642
0.0978472
-0.499907
-0.545069
0.467203
0.983466
0.332987
-0.254693
-0.573745
-0.50681
-0.0436837
0.247641
0.147124
-0.0802767
-0.307825
-0.413948
-0.253535
0.017662
0.16098
0.0652724
-0.00563809
40.2335
31.2956
23.4008
16.9669
12.0435
8.40507
5.73913
3.86297
2.59444
1.67948
0.910281
0.32211
0.127443
0.441165
0.441767
0.169176
-0.296318
-0.583801
-0.294886
0.506056
0.675354
0.214784
-0.128765
-0.448711
-0.674173
-0.595407
-0.014129
0.288949
0.129538
-0.0107308
46.7549
38.9394
31.155
24.2598
18.6353
14.181
10.6631
7.91192
5.81872
4.24625
3.02806
2.07734
1.45648
1.15588
0.894238
0.546841
0.0745536
-0.218551
-0.088964
0.271606
0.405933
0.223483
-0.101403
-0.47599
-0.723008
-0.424166
0.36316
0.554418
0.207003
-0.0237415
52.0662
45.3269
38.0616
31.2268
25.3431
20.3999
16.2624
12.8429
10.0766
7.86537
6.08126
4.64545
3.55757
2.78698
2.18064
1.58438
0.997469
0.595306
0.493083
0.5771
0.59294
0.384322
0.0206255
-0.34669
-0.535169
-0.312445
0.160378
0.396897
0.304354
-0.0641941
56.3988
50.5761
43.9856
37.5077
31.6882
26.5773
22.11
18.2514
14.9722
12.2163
9.90867
7.99244
6.43897
5.20439
4.18643
3.28576
2.49681
1.89624
1.53464
1.34251
1.14614
0.821007
0.411266
0.0429684
-0.146715
-0.0475073
0.235276
0.391732
0.261031
-0.303081
59.9348
54.8628
48.9555
42.967
37.4116
32.3672
27.8045
23.7194
20.1135
16.9682
14.247
11.9122
9.93136
8.26415
6.84681
5.6191
4.56273
3.70038
3.04622
2.55056
2.1043
1.62651
1.13415
0.706901
0.43492
0.372761
0.444498
0.432501
0.172554
-0.517984
62.8391
58.3765
53.093
47.6221
42.4247
37.5842
33.0879
28.9472
25.1834
21.8021
18.7915
16.1316
13.7996
11.7671
9.99551
8.44571
7.09602
5.94498
4.9883
4.18979
3.48297
2.81426
2.18266
1.63165
1.21466
0.95473
0.7913
0.575369
0.170975
-0.593024
65.2448
61.279
56.5386
51.5579
46.7426
42.1716
37.838
33.759
29.9644
26.473
23.2885
20.4054
17.8126
15.4939
13.4266
11.5859
9.95312
8.51852
7.27077
6.18319
5.21377
4.32577
3.51047
2.78746
2.18342
1.70275
1.29753
0.866233
0.306918
-0.522344
67.2517
63.695
59.4184
54.8784
50.432
46.1498
42.0259
38.0774
34.3361
30.8268
27.5621
24.5461
21.7773
19.249
16.9498
14.8652
12.982
11.2894
9.77538
8.42012
7.19607
6.07766
5.05374
4.12931
3.31346
2.60057
1.95329
1.30224
0.576274
-0.331537
68.9353
65.7188
61.8364
57.6834
53.5759
49.5761
45.6768
41.8926
38.254
34.7875
31.5099
28.4312
25.556
22.8849
20.4141
18.1368
16.0447
14.1297
12.3815
10.786
9.32463
7.97925
6.73867
5.59993
4.562
3.61468
2.72905
1.85779
0.953805
-0.0565205
70.3534
67.4224
63.8756
60.0592
56.2554
52.5191
48.8411
45.2329
41.7219
38.3341
35.0879
31.996
29.0672
26.3064
23.7151
21.2918
19.0329
16.9331
14.9854
13.1799
11.504
9.94471
8.49191
7.13903
5.88004
4.70326
3.58629
2.49672
1.40407
0.262787
71.5512
68.8615
65.6011
62.0765
58.5418
55.0453
51.5763
48.1427
44.7687
41.4785
38.2904
35.2183
32.273
29.4622
26.7908
24.261
21.8724
19.623
17.5086
15.5228
13.6573
11.9026
10.25
8.69196
7.22048
5.82406
4.48504
3.18064
1.89059
0.590908
72.5645
70.0796
67.0645
63.7928
60.4948
57.2137
53.9371
50.6701
47.4333
44.2487
41.1335
38.1018
35.1651
32.3328
29.6118
27.0066
24.5195
22.1509
19.899
17.7604
15.7295
13.7997
11.9638
10.2145
8.5435
6.94001
5.38972
3.87563
2.38281
0.902276
73.422
71.1114
68.3069
65.2544
62.1641
59.0747
55.9729
52.8609
49.7562
46.6782
43.643
40.6638
37.7523
34.9184
32.1701
29.5137
26.953
24.4904
22.1261
19.8586
17.6849
15.6003
13.599
11.6745
9.81885
8.02225
6.2725
4.5557
2.85896
1.18248
74.1472
71.9853
69.3619
66.4993
63.5906
60.6709
57.7261
54.756
51.7754
48.8011
45.8476
42.9273
40.0511
37.2292
34.4701
31.7807
29.1663
26.6303
24.1746
21.7993
19.503
17.2825
15.1336
13.0503
11.0256
9.05044
7.1138
5.2032
3.30584
1.42652
74.7594
72.7244
70.2567
67.5587
64.8083
62.038
59.233
56.3914
53.5252
50.6491
47.7758
44.9166
42.0817
39.2808
36.5225
33.814
31.1613
28.5687
26.0392
23.574
21.173
18.8343
16.5545
14.3288
12.1505
10.0114
7.90115
5.80754
3.71695
1.63571
75.2748
73.348
71.0141
68.4581
65.8455
63.206
60.5247
57.798
55.0358
52.2507
49.454
46.6554
43.8644
41.09
38.3405
35.6232
32.9443
30.3087
27.7201
25.1805
22.6906
20.2495
17.8547
15.502
13.1855
10.8972
8.6271
6.36293
4.08997
1.81422
75.7071
73.8724
71.6531
69.2196
66.726
64.2003
61.6276
59.0028
56.3339
53.6318
50.9062
48.1657
45.4188
42.6738
39.9384
37.2197
34.524
31.8563
29.2207
26.6199
24.0551
21.5261
19.031
16.5663
14.1263
11.7035
9.28789
6.86701
4.42515
1.96696
76.0677
74.3109
72.1893
69.8606
67.4694
65.042
62.5635
60.028
57.4417
54.814
52.1533
49.467
46.7627
44.0478
41.3295
38.6145
35.9089
33.2178
30.5454
27.8946
25.2672
22.6633
20.0816
17.5189
14.9698
12.4271
9.88084
7.31816
4.7227
2.09735
76.3673
74.676
72.6371
70.3973
68.0933
65.75
63.3525
60.8942
58.3799
55.8178
53.2149
50.578
47.9133
45.2277
42.5278
39.8197
37.1092
34.4014
31.7004
29.0093
26.3301
23.6632
21.0075
18.3602
15.7161
13.0681
10.4062
7.7174
4.98482
2.20912
76.6122
74.9752
73.0054
70.8402
68.6094
66.3368
64.0078
61.6151
59.1625
56.6569
54.1046
51.5111
48.8822
46.2239
43.5421
40.8425
38.1306
35.4111
32.6882
29.965
27.2435
24.5242
21.8063
19.0871
16.3617
13.6228
10.8606
8.0618
5.20943
2.30186
76.8142
75.2214
73.3083
71.2044
69.0338
66.8195
64.5472
62.2091
59.808
57.35
54.8404
52.2843
49.6865
47.0524
44.3873
41.6967
38.9855
36.2582
33.5189
30.7704
28.0149
25.2531
22.484
19.7051
16.9115
14.0962
11.249
8.35671
5.40216
2.38068
76.9701
75.4122
73.5439
71.4887
69.3658
67.198
64.9709
62.6765
60.3168
57.8972
55.4224
52.8968
50.3247
47.7109
45.0604
42.378
39.6684
36.936
34.1845
31.4167
28.6348
25.8393
23.0294
20.2026
17.354
14.4766
11.5601
8.5913
5.5531
2.43858
77.1022
75.57
73.7358
71.7174
69.6307
67.4979
65.3051
63.0439
60.7157
58.3255
55.8773
53.3752
50.8231
48.2252
45.5862
42.9107
40.203
37.4671
34.7068
31.9248
29.123
26.3021
23.4612
20.5977
17.7069
14.7815
11.8112
8.78264
5.67849
2.48809
77.1835
75.6674
73.8555
71.8622
69.7999
67.6906
65.5207
63.2817
60.9747
58.6042
56.174
53.6877
51.1491
48.5621
45.9311
43.2603
40.5541
37.8162
35.0502
32.2588
29.4439
26.6059
23.7442
20.856
17.9365
14.9784
11.9711
8.90105
5.75076
2.50801
77.2725
75.7575
73.9579
71.9796
69.931
67.8342
65.6765
63.4492
61.1532
58.7927
56.3716
53.8931
51.3609
48.7788
46.1511
43.4819
40.7753
38.0353
35.2651
32.4676
29.6445
26.7965
23.9226
21.0203
18.0846
15.108
12.0799
8.98548
5.80494
2.5144
)
;

boundaryField
{
    inlet
    {
        type            zeroGradient;
    }
    outlet
    {
        type            fixedValue;
        value           uniform 0;
    }
    flap
    {
        type            zeroGradient;
    }
    upperWall
    {
        type            zeroGradient;
    }
    lowerWall
    {
        type            zeroGradient;
    }
    frontAndBack
    {
        type            empty;
    }
}


// ************************************************************************* //
