/*--------------------------------*- C++ -*----------------------------------*\
| =========                 |                                                 |
| \\      /  F ield         | OpenFOAM: The Open Source CFD Toolbox           |
|  \\    /   O peration     | Version:  4.1                                   |
|   \\  /    A nd           | Web:      www.OpenFOAM.org                      |
|    \\/     M anipulation  |                                                 |
\*---------------------------------------------------------------------------*/
FoamFile
{
    version     2.0;
    format      ascii;
    class       surfaceScalarField;
    location    "1.1";
    object      phi;
}
// * * * * * * * * * * * * * * * * * * * * * * * * * * * * * * * * * * * * * //

dimensions      [0 3 -1 0 0 0 0];

internalField   nonuniform List<scalar> 
5457
(
0.198114
0.00155684
0.196042
0.00178586
0.193774
0.002035
0.191255
0.00233363
0.188486
0.0026228
0.18547
0.00290014
0.182204
0.00317615
0.178683
0.00345726
0.174896
0.00374836
0.170816
0.00405312
0.166424
0.00437326
0.161706
0.00471155
0.156638
0.00507094
0.151196
0.005454
0.145351
0.00586327
0.139073
0.00630126
0.132332
0.00676973
0.125094
0.00726887
0.11733
0.00779814
0.109007
0.00835633
0.100098
0.00894061
0.0905803
0.00954661
0.0804343
0.0101681
0.0696513
0.0107959
0.0582337
0.0114185
0.0461995
0.0120217
0.0335781
0.0125898
0.0204155
0.0130968
0.00691745
0.0133512
0.00684201
0.199919
0.00130815
0.199197
0.00222007
0.198132
0.00286617
0.196766
0.0035142
0.195098
0.00414452
0.19313
0.00475301
0.190859
0.00535595
0.188287
0.00596815
0.185402
0.00659672
0.18218
0.00724687
0.178607
0.00792655
0.174669
0.00864212
0.170343
0.00939931
0.165603
0.0102036
0.160423
0.0110605
0.15477
0.011976
0.148611
0.012955
0.14191
0.0139994
0.13463
0.0151104
0.126729
0.0162884
0.118168
0.0175307
0.108908
0.0188322
0.0989086
0.0201867
0.0881261
0.0215864
0.0765124
0.0230237
0.0640166
0.0244879
0.0505829
0.0259649
0.0361489
0.0274297
0.0202869
0.0290112
0.0269995
0.199769
0.00120819
0.199112
0.00258772
0.198111
0.00363178
0.196834
0.0046053
0.195288
0.00554469
0.193471
0.00645487
0.191382
0.00735532
0.18902
0.00826591
0.186377
0.00919784
0.183432
0.0101594
0.180175
0.0111621
0.176592
0.0122161
0.172662
0.0133302
0.16836
0.0145132
0.16366
0.0157743
0.158532
0.0171233
0.152938
0.0185706
0.146841
0.0201224
0.140193
0.0217857
0.13294
0.0235675
0.125023
0.0254711
0.116374
0.0274996
0.106916
0.0296558
0.096546
0.0319526
0.085126
0.034419
0.0724553
0.0371029
0.0582416
0.0400755
0.0420514
0.0434539
0.0228523
0.047932
0.0497202
0.199675
0.00120027
0.199011
0.00295903
0.198019
0.00438687
0.196755
0.00568425
0.19523
0.00692453
0.193442
0.008128
0.19139
0.00931676
0.189076
0.0105134
0.18649
0.0117348
0.18362
0.0129932
0.180458
0.0143017
0.17699
0.015673
0.173198
0.0171194
0.169064
0.0186532
0.164561
0.020287
0.159663
0.0220351
0.154338
0.0239124
0.148546
0.0259337
0.142238
0.0281167
0.135347
0.0304767
0.127803
0.0330295
0.11951
0.0357994
0.110344
0.0388161
0.100147
0.0421241
0.0887105
0.045804
0.0757196
0.0500035
0.060675
0.0549649
0.0429765
0.0609105
0.0225575
0.0680194
0.0721141
0.19962
0.00124437
0.198937
0.0033456
0.197951
0.00513383
0.196699
0.00675083
0.195191
0.00828718
0.193426
0.00977857
0.191402
0.0112504
0.189117
0.0127284
0.186564
0.0142339
0.183736
0.0157828
0.180622
0.0173899
0.177211
0.0190705
0.173485
0.0208404
0.169425
0.0227147
0.165007
0.0247107
0.160203
0.0268468
0.154979
0.0291406
0.149305
0.0316186
0.143127
0.0343118
0.136364
0.0372475
0.128938
0.0404563
0.120736
0.0439911
0.111599
0.0479261
0.101309
0.0523603
0.0895937
0.0574276
0.0761312
0.0633299
0.0604155
0.0704755
0.0417955
0.0792308
0.0212013
0.0882585
0.0931252
0.199584
0.00131914
0.198885
0.00374521
0.197905
0.00587194
0.196668
0.00780138
0.195182
0.00962868
0.193444
0.0114017
0.191451
0.0131516
0.189199
0.014907
0.186682
0.0166928
0.183893
0.0185282
0.180823
0.0204303
0.177459
0.0224169
0.173783
0.0245073
0.169775
0.0267205
0.165407
0.0290789
0.160651
0.0316056
0.155463
0.034323
0.149816
0.0372656
0.143656
0.0404779
0.136893
0.0440058
0.129421
0.0479066
0.121119
0.0522596
0.111822
0.0571726
0.101286
0.0628125
0.0891748
0.0694035
0.0751571
0.0771573
0.0589218
0.0864545
0.0399429
0.0978651
0.0196968
0.108111
0.112563
0.199561
0.00141248
0.198848
0.00415359
0.197873
0.00660095
0.196654
0.00883293
0.195195
0.0109444
0.19349
0.0129923
0.191534
0.0150148
0.18932
0.0170436
0.186844
0.0191053
0.1841
0.0212229
0.18108
0.0234168
0.177767
0.0257075
0.174143
0.0281176
0.170184
0.0306715
0.165861
0.033397
0.161142
0.0363226
0.155984
0.0394778
0.150332
0.0429053
0.144131
0.0466625
0.137297
0.0508137
0.129705
0.0554475
0.121223
0.0606802
0.111656
0.0666656
0.10076
0.0735916
0.0882362
0.0817551
0.0737064
0.0914462
0.0570693
0.102781
0.0380244
0.116508
0.0182693
0.127386
0.130559
0.199545
0.0015174
0.198821
0.00456576
0.197852
0.00731869
0.196658
0.00984252
0.195233
0.0122315
0.193567
0.0145484
0.191654
0.0168371
0.189481
0.0191329
0.18705
0.0214646
0.184359
0.0238586
0.181397
0.0263402
0.178144
0.0289334
0.174577
0.0316646
0.170671
0.0345627
0.166396
0.0376595
0.161715
0.0409922
0.156587
0.0445995
0.150935
0.0485333
0.14469
0.0528653
0.137767
0.057688
0.130028
0.0631075
0.12135
0.0692699
0.111508
0.0764052
0.100224
0.0847244
0.0872822
0.0944949
0.0723612
0.10609
0.055427
0.119356
0.0363823
0.135086
0.0171553
0.146036
0.147469
0.199534
0.00162919
0.198806
0.00497668
0.197849
0.00802194
0.196685
0.010827
0.195296
0.013486
0.193673
0.0160655
0.191804
0.018613
0.189676
0.0211678
0.187297
0.0237622
0.184665
0.0264262
0.181771
0.0291904
0.178589
0.0320847
0.175087
0.0351388
0.171243
0.0383828
0.167026
0.0418539
0.16239
0.0455998
0.157295
0.0496719
0.151662
0.0541334
0.145404
0.0590701
0.138429
0.0646
0.130587
0.0708653
0.121704
0.078037
0.111605
0.0863573
0.100017
0.0961255
0.0867078
0.107568
0.0714713
0.121014
0.0543335
0.136088
0.0353607
0.153539
0.0165598
0.164218
0.1638
0.199528
0.00174429
0.198805
0.00538221
0.197867
0.00870731
0.196727
0.0117812
0.195371
0.0146998
0.193792
0.0175331
0.19197
0.0203322
0.189897
0.0231388
0.187583
0.0259887
0.185023
0.0289167
0.182207
0.0319594
0.179103
0.0351516
0.175679
0.0385256
0.171915
0.0421145
0.167774
0.0459628
0.163206
0.0501263
0.158167
0.0546718
0.152581
0.059677
0.146335
0.06525
0.139338
0.0715195
0.131456
0.0786566
0.122456
0.0868957
0.11217
0.0964524
0.100386
0.107683
0.0868324
0.120836
0.0713731
0.136109
0.0541579
0.152841
0.0353488
0.17179
0.0167343
0.182243
0.180202
0.199524
0.00186032
0.198811
0.00577941
0.197894
0.00937165
0.196776
0.0127011
0.195455
0.0158679
0.193926
0.018946
0.192159
0.0219889
0.190152
0.0250388
0.187915
0.0281356
0.185441
0.0313221
0.18271
0.0346385
0.179689
0.0381215
0.176357
0.0418079
0.172694
0.0457376
0.168658
0.0499619
0.164197
0.0545455
0.159246
0.0595705
0.153726
0.0651267
0.147549
0.0713393
0.140593
0.0783738
0.13272
0.0864061
0.123749
0.0957017
0.113446
0.106541
0.101609
0.119245
0.0880118
0.134074
0.0725652
0.151125
0.0554729
0.169421
0.03685
0.189838
0.01809
0.200492
0.197927
0.199521
0.00197543
0.198818
0.00616496
0.197926
0.0100118
0.196837
0.0135847
0.195556
0.0169897
0.194079
0.0203029
0.192373
0.0235781
0.19044
0.0268598
0.18829
0.0301945
0.185909
0.033632
0.18327
0.0372139
0.180345
0.0409781
0.177122
0.0449673
0.173583
0.0492296
0.169681
0.0538239
0.16536
0.0588245
0.160542
0.0643219
0.155142
0.0704263
0.149093
0.0772718
0.142294
0.0850462
0.134571
0.0939741
0.125774
0.104305
0.115679
0.11639
0.104082
0.130512
0.0907963
0.146929
0.0757542
0.165675
0.0590502
0.185582
0.0406829
0.207651
0.0214933
0.21928
0.219154
0.199516
0.00208844
0.198828
0.00653514
0.197964
0.0106249
0.19691
0.0144303
0.195671
0.0180615
0.194244
0.0215962
0.192606
0.02509
0.19076
0.0285931
0.188702
0.0321576
0.186418
0.0358358
0.183884
0.0396711
0.181077
0.0437055
0.177987
0.0479856
0.174596
0.0525679
0.170851
0.0575194
0.166694
0.0629249
0.162058
0.0688773
0.156871
0.0754982
0.15105
0.0829554
0.144524
0.0914275
0.13715
0.101179
0.128745
0.112478
0.119165
0.125667
0.108254
0.141044
0.095847
0.158874
0.0818395
0.179157
0.0660367
0.200827
0.0484118
0.224785
0.0286451
0.238755
0.247625
0.19951
0.00219874
0.198838
0.00688732
0.19801
0.0112086
0.196993
0.0152356
0.195795
0.0190783
0.194424
0.0228187
0.192864
0.0265186
0.19111
0.030233
0.189151
0.0340172
0.186974
0.0379231
0.184561
0.0419978
0.18189
0.0462874
0.178962
0.0508429
0.175743
0.0557301
0.172172
0.0610186
0.168223
0.0667977
0.163833
0.0731776
0.158936
0.0802743
0.153473
0.0882778
0.147352
0.0973833
0.140494
0.107836
0.132766
0.11993
0.124096
0.133983
0.114426
0.150302
0.103685
0.169154
0.0917719
0.190552
0.0783051
0.213772
0.0633235
0.239375
0.0438798
0.258007
0.291408
0.199506
0.00230497
0.198853
0.00722056
0.198059
0.0117602
0.197081
0.0159954
0.19593
0.0200349
0.194623
0.0239673
0.193144
0.0278615
0.191484
0.0317758
0.189631
0.0357664
0.187572
0.0398854
0.185288
0.0441849
0.182767
0.0487135
0.180013
0.0535269
0.176979
0.0586966
0.173607
0.0642967
0.1699
0.0704139
0.165803
0.0771721
0.161245
0.0846986
0.156209
0.0931655
0.150611
0.102784
0.144432
0.113764
0.137654
0.126398
0.130302
0.140959
0.122474
0.157708
0.11431
0.176867
0.106008
0.198381
0.0975919
0.221754
0.0895157
0.247167
0.0765524
0.270866
0.368008
0.00638437
-0.00684098
0.0117175
-0.00579192
0.0168248
-0.00573765
0.0216912
-0.00558302
0.0260355
-0.00497739
0.0294529
-0.00388213
0.0314862
-0.0023324
0.0318367
-0.000491518
0.0306474
0.00115614
0.0281365
0.00253148
0.0245781
0.00361901
0.0202508
0.00441683
0.0154416
0.00492172
0.0103896
0.00518413
0.00533179
0.00520819
0.000502984
0.00499708
-0.00388378
0.00457328
-0.00771939
0.00404112
-0.0108441
0.00335204
-0.0131172
0.00252479
-0.014411
0.0015707
-0.0145693
0.000463481
-0.0133413
-0.000881941
-0.0104306
-0.00252592
-0.00558762
-0.00444486
0.00157382
-0.00675798
0.0116871
-0.00969273
0.0250938
-0.0129546
0.043189
-0.0176062
-0.02175
0.003608
-0.0108595
0.0073466
-0.0100383
0.0105698
-0.00963869
0.0128248
-0.00858926
0.0137694
-0.00657162
0.0130933
-0.00367912
0.010887
-0.00042422
0.00766317
0.00259695
0.00363044
0.00515227
-0.00108345
0.00725955
-0.00628287
0.00887516
-0.0118183
0.010038
-0.0175312
0.0107438
-0.0232335
0.0110161
-0.0287501
0.0108736
-0.0339194
0.010334
-0.0385925
0.00943288
-0.0425726
0.00822669
-0.0457145
0.00672133
-0.0478827
0.00494467
-0.0489442
0.00290842
-0.0487936
0.000613431
-0.047209
-0.0021183
-0.0441082
-0.00522905
-0.0394644
-0.00868828
-0.0332626
-0.0125613
-0.025574
-0.016961
-0.0161148
-0.0219611
-0.00590458
-0.027327
-0.0307349
0.00181391
-0.0129898
0.00329119
-0.0120716
0.00366633
-0.0107312
0.0025161
-0.00820069
-0.000164244
-0.0045231
-0.00392986
-0.000357703
-0.00824863
0.00363136
-0.013021
0.00724999
-0.0182789
0.0103647
-0.0239025
0.0128925
-0.0297878
0.0148133
-0.0358142
0.0161458
-0.0418603
0.0168954
-0.0477924
0.0170754
-0.0534728
0.0167011
-0.0587634
0.0157922
-0.0635234
0.0143799
-0.0675996
0.0125083
-0.0708523
0.0102014
-0.0731529
0.00749709
-0.0743993
0.00443079
-0.0744659
0.000976791
-0.0733475
-0.00288802
-0.0709926
-0.00717674
-0.0674729
-0.0118053
-0.062888
-0.0167502
-0.0574265
-0.0219993
-0.0514745
-0.0274585
-0.0456615
-0.0326508
-0.0369271
0.000163259
-0.013418
-0.00101206
-0.0114994
-0.00348541
-0.00899143
-0.00753817
-0.00487509
-0.0124665
-0.000156683
-0.0177883
0.00459641
-0.0233742
0.00901886
-0.0291812
0.0129706
-0.035177
0.0163255
-0.0412983
0.0190301
-0.0475036
0.0210706
-0.0537272
0.0224481
-0.0598879
0.0231591
-0.0658877
0.0232015
-0.0716189
0.0225787
-0.0769615
0.0213034
-0.0817922
0.0193989
-0.0859817
0.0169022
-0.0894015
0.0138484
-0.0919365
0.0102846
-0.0934921
0.00626394
-0.0940224
0.00180803
-0.0935085
-0.00305695
-0.092005
-0.00828576
-0.0896145
-0.0137949
-0.0864885
-0.0194729
-0.0828687
-0.02519
-0.0791206
-0.0307486
-0.0754868
-0.0357952
-0.0399786
-0.00158167
-0.0121464
-0.00529895
-0.00843822
-0.0103909
-0.00462306
-0.0163378
0.000419082
-0.0226084
0.00566098
-0.0289661
0.0106861
-0.0353479
0.0152574
-0.0416951
0.019261
-0.0480156
0.0226346
-0.0543139
0.0253547
-0.0605928
0.0274026
-0.0668252
0.0287584
-0.0729608
0.0293965
-0.0789248
0.0292935
-0.0846375
0.0284367
-0.0899908
0.0268254
-0.094871
0.0244739
-0.0991748
0.0214125
-0.102787
0.017687
-0.105604
0.0133553
-0.10755
0.00848968
-0.108597
0.00316252
-0.10876
-0.0025514
-0.108108
-0.00856014
-0.106741
-0.014764
-0.104826
-0.020977
-0.102594
-0.0269864
-0.10032
-0.0325621
-0.0981903
-0.0374339
-0.0412725
-0.00345132
-0.00904976
-0.00956644
-0.00300396
-0.0163961
0.00154424
-0.0236039
0.00709407
-0.0307586
0.0124822
-0.0377123
0.0174565
-0.0444331
0.0218755
-0.0509319
0.0257226
-0.0572738
0.0289798
-0.0635193
0.031631
-0.0697005
0.0336384
-0.0758194
0.0349548
-0.08185
0.0355276
-0.087733
0.0353069
-0.0934068
0.0342584
-0.0987831
0.0323682
-0.103747
0.0296376
-0.10821
0.0260908
-0.112074
0.0217792
-0.115236
0.0167736
-0.117629
0.0111651
-0.119227
0.00506999
-0.120054
-0.00138303
-0.12018
-0.00806223
-0.119709
-0.0148397
-0.118795
-0.0214753
-0.117638
-0.027705
-0.116448
-0.0332877
-0.115412
-0.0379778
-0.0414829
-0.00574847
-0.00368134
-0.0132357
0.00383316
-0.0213425
0.00910954
-0.029317
0.0147018
-0.0369005
0.0198389
-0.044016
0.0244295
-0.0506993
0.0284857
-0.057056
0.0320569
-0.0632037
0.0351384
-0.0692395
0.0377007
-0.0752164
0.0396712
-0.0811573
0.040973
-0.0870506
0.0415187
-0.0928535
0.0412348
-0.0985017
0.040059
-0.103925
0.0379608
-0.109021
0.03493
-0.113695
0.030985
-0.117861
0.0261786
-0.12142
0.020592
-0.124305
0.0143348
-0.126478
0.00755529
-0.127951
0.000430403
-0.128787
-0.00685688
-0.129108
-0.0141237
-0.129042
-0.0211246
-0.12875
-0.0275551
-0.128409
-0.0331618
-0.128194
-0.0376987
-0.0409361
-0.00741216
0.0033934
-0.0162308
0.0120816
-0.0251201
0.0176009
-0.0333877
0.0227558
-0.0409256
0.0272362
-0.0478014
0.0311946
-0.0541454
0.0347797
-0.0601421
0.0380427
-0.0659474
0.04096
-0.0716752
0.043466
-0.0773913
0.0454454
-0.0831292
0.0467893
-0.0888838
0.0473703
-0.0946241
0.0470922
-0.100284
0.0458683
-0.105792
0.0436435
-0.111066
0.0403982
-0.116007
0.0361453
-0.120526
0.0309353
-0.124528
0.0248561
-0.12794
0.0180337
-0.130712
0.0106402
-0.13283
0.00289011
-0.134345
-0.00497329
-0.135384
-0.012691
-0.136051
-0.0200384
-0.136483
-0.0266795
-0.136833
-0.0323431
-0.137261
-0.0367758
-0.039811
-0.00866125
0.0118442
-0.0184078
0.0213744
-0.0275693
0.0264898
-0.0356183
0.0306776
-0.0426584
0.0341941
-0.048943
0.0374149
-0.0547165
0.0405256
-0.0602043
0.0435305
-0.0655774
0.0463551
-0.0709485
0.048879
-0.0763905
0.0509485
-0.0819305
0.0524103
-0.0875694
0.0531091
-0.0932738
0.052915
-0.0989834
0.0517246
-0.104628
0.049462
-0.110128
0.0460939
-0.115389
0.0416248
-0.120315
0.0361007
-0.124808
0.0296124
-0.128784
0.0222985
-0.13218
0.0143513
-0.134967
0.00601859
-0.137164
-0.00240787
-0.138865
-0.0105956
-0.140188
-0.018296
-0.141247
-0.0251761
-0.142178
-0.0309409
-0.143131
-0.0353263
-0.0382179
-0.00945743
0.0211568
-0.019642
0.031266
-0.0284494
0.0351327
-0.0357091
0.0378608
-0.0418407
0.0402804
-0.0472746
0.0428204
-0.0523265
0.0455685
-0.0572268
0.0484414
-0.0621382
0.0512953
-0.0671566
0.0539442
-0.0723444
0.0562017
-0.0777161
0.0578663
-0.0832679
0.0587646
-0.088969
0.0587398
-0.0947667
0.0576702
-0.100597
0.0554645
-0.106379
0.0520715
-0.112019
0.0474829
-0.117413
0.0417364
-0.122457
0.0349211
-0.127052
0.0271832
-0.131117
0.0187316
-0.134595
0.00983913
-0.137471
0.000836779
-0.139799
-0.00787287
-0.141728
-0.0159473
-0.143348
-0.0231097
-0.144788
-0.0290288
-0.14619
-0.0334259
-0.0362231
-0.00993657
0.0311414
-0.0197738
0.0409818
-0.0274318
0.0427191
-0.033338
0.043733
-0.0382519
0.0451759
-0.0426867
0.0472478
-0.0469639
0.0498513
-0.0512742
0.0527721
-0.0557419
0.0557992
-0.0604337
0.0586887
-0.0653837
0.0612218
-0.0706043
0.0631749
-0.0760869
0.0643543
-0.0818086
0.0645888
-0.0877261
0.0637373
-0.0937787
0.0616898
-0.0998865
0.058375
-0.105952
0.0537673
-0.111866
0.0478919
-0.11751
0.0408315
-0.122771
0.0327352
-0.127548
0.0238251
-0.131763
0.0143961
-0.135373
0.00481583
-0.138369
-0.00448139
-0.14088
-0.0130157
-0.143024
-0.0205191
-0.144928
-0.0266524
-0.146734
-0.0311202
-0.0338651
-0.00989309
0.0411091
-0.0183684
0.0494427
-0.024042
0.0483797
-0.0282103
0.0478951
-0.0317954
0.0487603
-0.0352421
0.0507011
-0.0387803
0.0534067
-0.0425333
0.0565544
-0.0465663
0.0598756
-0.0509235
0.0631043
-0.0556255
0.0659984
-0.0606853
0.0683266
-0.0660996
0.0698789
-0.0718504
0.0704696
-0.0779027
0.0699409
-0.0842019
0.0681625
-0.0906709
0.0650401
-0.0972115
0.060527
-0.103709
0.0546316
-0.110033
0.0474226
-0.116049
0.0390429
-0.121628
0.0297215
-0.12666
0.0197702
-0.131052
0.009577
-0.13474
-0.000398021
-0.137806
-0.00952854
-0.140458
-0.0174197
-0.142804
-0.0238329
-0.144993
-0.0284307
-0.03116
-0.00868865
0.0498359
-0.0145765
0.0553565
-0.0178337
0.0516482
-0.0203261
0.0503944
-0.0226928
0.0511372
-0.0252347
0.0532593
-0.0280595
0.0562574
-0.0312327
0.0597643
-0.034792
0.0634843
-0.0387706
0.0671461
-0.0431898
0.0704962
-0.04806
0.073292
-0.0533797
0.0753116
-0.059137
0.0763591
-0.065308
0.0762648
-0.0718495
0.0748784
-0.0786903
0.0720778
-0.0857345
0.0677909
-0.0928627
0.0620031
-0.0999299
0.054757
-0.106769
0.0461743
-0.113213
0.0364829
-0.119113
0.0260126
-0.124347
0.0151809
-0.128861
0.00451061
-0.132613
-0.00535459
-0.135792
-0.0137929
-0.138583
-0.0205691
-0.141157
-0.025356
-0.028103
-0.00411776
0.0539481
-0.00752022
0.0587934
-0.00921746
0.0533631
-0.0102831
0.0514731
-0.0114954
0.0523662
-0.0130887
0.0548756
-0.0151216
0.0583221
-0.0176251
0.0623098
-0.0206344
0.0665475
-0.0241706
0.0707495
-0.0282485
0.0746559
-0.0328704
0.0780119
-0.0380328
0.0805893
-0.0437301
0.0821906
-0.0499551
0.082644
-0.0566837
0.0817825
-0.0638561
0.0794476
-0.0713844
0.0755395
-0.0791558
0.0700181
-0.0870174
0.0628862
-0.0947736
0.0542229
-0.10222
0.0442463
-0.109168
0.0333039
-0.11545
0.0218326
-0.12092
0.0103755
-0.125435
-0.000418017
-0.129142
-0.00963867
-0.132399
-0.0168384
-0.135386
-0.0218693
-0.0246716
0.00622838
0.0477514
0.000579576
0.0644532
0.00033434
0.0536161
0.0010037
0.050816
0.00120974
0.052179
0.000772748
0.055339
-0.000298609
0.0594287
-0.00201655
0.0640732
-0.00439364
0.0689816
-0.00741992
0.0738459
-0.0110738
0.0783942
-0.015359
0.0823973
-0.0202619
0.0856096
-0.0257804
0.0878449
-0.0319299
0.0889491
-0.0387191
0.088748
-0.046101
0.0870275
-0.054008
0.0836671
-0.0623594
0.0786133
-0.0710231
0.0718177
-0.0797802
0.0632724
-0.0883758
0.0531594
-0.0965561
0.0418271
-0.104048
0.0296937
-0.110609
0.0173312
-0.116126
0.0055195
-0.120589
-0.0047287
-0.124374
-0.0125799
-0.127831
-0.0179134
-0.0208218
0.207148
0.0024129
0.206486
0.0075483
0.205688
0.0122956
0.204719
0.016728
0.203588
0.0209574
0.202305
0.0250768
0.200861
0.029157
0.199252
0.033261
0.19746
0.0374479
0.195468
0.04177
0.193263
0.0462811
0.190846
0.0510335
0.188204
0.056088
0.1853
0.0615135
0.182102
0.0673927
0.178589
0.0738144
0.174731
0.0808922
0.170495
0.0887684
0.16589
0.0975838
0.1609
0.107538
0.155561
0.118811
0.149968
0.131651
0.144306
0.146228
0.138883
0.162702
0.134238
0.181069
0.131229
0.200965
0.131128
0.221502
0.136302
0.241779
0.148843
0.258261
0.267671
0.24922
0.212164
0.0025184
0.211503
0.00786089
0.210715
0.0128
0.209776
0.0174157
0.208688
0.0218265
0.207455
0.0261232
0.206078
0.030376
0.204555
0.034656
0.202862
0.0390257
0.200977
0.0435366
0.198897
0.0482409
0.196639
0.0531938
0.194176
0.0584622
0.191467
0.0641134
0.188515
0.0702287
0.185289
0.0768984
0.181787
0.0842166
0.178034
0.092322
0.174061
0.101332
0.169926
0.111408
0.165725
0.122702
0.161677
0.135347
0.158129
0.149386
0.155628
0.164792
0.155113
0.181177
0.157936
0.197773
0.165973
0.213179
0.18197
0.225612
0.206712
0.233458
0.242182
0.232197
0.217298
0.00262004
0.216644
0.00815387
0.215875
0.0132691
0.214968
0.0180547
0.213927
0.0226343
0.212759
0.0270937
0.211471
0.0315044
0.210049
0.0359456
0.208468
0.0404817
0.206709
0.0451618
0.204781
0.0500361
0.202708
0.0551611
0.200458
0.0606095
0.197987
0.0664476
0.195329
0.0727393
0.192486
0.0795745
0.189466
0.0870333
0.186333
0.0952303
0.183144
0.10427
0.180022
0.114247
0.177151
0.125252
0.174852
0.137293
0.173587
0.150274
0.174062
0.163933
0.177219
0.177656
0.184078
0.1906
0.195267
0.201752
0.210554
0.210179
0.227945
0.216002
0.220209
0.249899
0.222555
0.00271546
0.221915
0.00842371
0.221171
0.0136996
0.220297
0.0186387
0.219311
0.0233688
0.218233
0.0279759
0.217046
0.0325314
0.215733
0.0371155
0.214276
0.0417965
0.212667
0.0466207
0.210928
0.0516356
0.209063
0.0569033
0.207043
0.0624923
0.204865
0.0684591
0.202582
0.074855
0.200204
0.0817666
0.19775
0.0892635
0.195318
0.0974191
0.193012
0.106309
0.191
0.115964
0.189542
0.126388
0.189005
0.137485
0.189888
0.149036
0.192805
0.160666
0.198329
0.171811
0.206807
0.181852
0.218101
0.190255
0.231793
0.196355
0.24785
0.199875
0.199974
0.268057
0.227937
0.00280065
0.227321
0.00866747
0.226607
0.0140899
0.225769
0.0191622
0.224848
0.0240197
0.22387
0.0287563
0.222802
0.0334419
0.221606
0.03815
0.220286
0.0429491
0.218861
0.0478865
0.217339
0.0530127
0.215705
0.0583874
0.213959
0.064066
0.212146
0.0700939
0.210295
0.0765246
0.208419
0.0834285
0.206588
0.0908515
0.204919
0.0988303
0.203555
0.107396
0.202696
0.116524
0.202624
0.126143
0.20369
0.136089
0.206292
0.146104
0.210802
0.155842
0.217463
0.164867
0.22631
0.172769
0.237226
0.179159
0.249999
0.18346
0.264375
0.185425
0.184194
0.28012
0.233448
0.00287344
0.232859
0.00887923
0.232189
0.0144338
0.231399
0.019621
0.230543
0.0245817
0.229666
0.0294228
0.228732
0.0342183
0.227671
0.0390304
0.226513
0.0439173
0.225296
0.0489364
0.223999
0.0541414
0.222632
0.0595773
0.221222
0.0652906
0.219817
0.0713178
0.218422
0.0777144
0.217085
0.0845226
0.215927
0.0917566
0.215063
0.0994287
0.214656
0.107523
0.214911
0.115974
0.216079
0.124668
0.218425
0.133433
0.2222
0.142027
0.2276
0.150159
0.234717
0.157499
0.243523
0.163754
0.253924
0.168597
0.265602
0.171668
0.278053
0.1729
0.171223
0.290984
0.239098
0.00293657
0.238524
0.00905352
0.237908
0.0147193
0.237183
0.0200058
0.236402
0.0250492
0.235632
0.0299677
0.234833
0.0348462
0.233929
0.0397352
0.232964
0.044681
0.231958
0.0497512
0.230908
0.0549941
0.229851
0.0604416
0.228815
0.0661371
0.227829
0.072108
0.226913
0.0783966
0.226166
0.0850145
0.225713
0.0919582
0.225659
0.099217
0.226164
0.10674
0.227404
0.114447
0.229565
0.122215
0.23283
0.129879
0.237356
0.137223
0.243247
0.144013
0.250511
0.150011
0.259106
0.154973
0.268896
0.15866
0.279526
0.16093
0.290595
0.161758
0.159931
0.301844
0.244893
0.00299112
0.244328
0.00918938
0.243754
0.0149377
0.24311
0.0203032
0.24243
0.0254113
0.241772
0.0303833
0.241104
0.0353132
0.240381
0.0402471
0.239624
0.0452241
0.238842
0.0503111
0.238073
0.0555462
0.237356
0.0609584
0.236709
0.0665852
0.236157
0.0724406
0.235757
0.0785432
0.235632
0.0848897
0.235874
0.0914698
0.236579
0.0982503
0.237882
0.105166
0.239922
0.11213
0.242839
0.119021
0.246763
0.125686
0.251784
0.131949
0.257936
0.137631
0.2652
0.142545
0.273511
0.146492
0.282697
0.14934
0.29247
0.151055
0.30254
0.151616
0.149838
0.312589
0.250829
0.00303485
0.250275
0.00928595
0.24974
0.0150848
0.249183
0.0205021
0.24862
0.0256543
0.248082
0.0306575
0.247554
0.0356089
0.247023
0.0405537
0.246485
0.0455305
0.245954
0.0505958
0.245497
0.0557789
0.245137
0.0611105
0.244893
0.0666144
0.244803
0.072292
0.244944
0.0781482
0.245417
0.0841745
0.246292
0.0903493
0.247663
0.0966246
0.249636
0.10293
0.252323
0.109178
0.255827
0.115256
0.260228
0.121035
0.265566
0.126378
0.271843
0.131144
0.279036
0.135169
0.287049
0.138326
0.295696
0.140568
0.304769
0.141886
0.314048
0.142266
0.140628
0.323214
0.256905
0.00306544
0.256366
0.00933971
0.255879
0.015158
0.255412
0.020597
0.254968
0.0257674
0.254562
0.0307781
0.254193
0.0357209
0.253861
0.0406425
0.253558
0.0455829
0.253314
0.0505861
0.253185
0.0556778
0.25319
0.0608845
0.253359
0.0662163
0.253738
0.0716704
0.254394
0.0772435
0.255408
0.0829189
0.256848
0.088664
0.258798
0.0944262
0.261342
0.100136
0.264556
0.10571
0.268509
0.111053
0.273248
0.116062
0.278789
0.120625
0.285129
0.124614
0.292216
0.127915
0.299926
0.130475
0.30811
0.132269
0.316612
0.133293
0.325262
0.133548
0.132071
0.333776
0.263124
0.00308145
0.262607
0.00934564
0.262174
0.0151536
0.2618
0.0205837
0.26148
0.0257431
0.26122
0.0307326
0.261027
0.0356351
0.260906
0.0405006
0.260858
0.0453686
0.260915
0.0502731
0.261115
0.055238
0.261484
0.0602807
0.262058
0.0654047
0.262882
0.0706038
0.264015
0.0758659
0.265524
0.0811683
0.267473
0.0864737
0.26993
0.09173
0.272959
0.0968722
0.276596
0.101832
0.280876
0.106527
0.285859
0.110859
0.291553
0.11474
0.297914
0.11808
0.304862
0.120815
0.312292
0.122915
0.320089
0.124364
0.32813
0.125167
0.336282
0.125332
0.124011
0.344299
0.269494
0.00308157
0.269003
0.00930039
0.268631
0.0150672
0.268352
0.0204571
0.268161
0.0255738
0.26806
0.0305101
0.268056
0.0353419
0.268157
0.0401207
0.268371
0.0448834
0.268726
0.0496578
0.26925
0.0544634
0.269976
0.0593105
0.27094
0.0641982
0.272183
0.0691168
0.273758
0.0740491
0.275718
0.0789685
0.27812
0.0838368
0.281015
0.0886052
0.284444
0.0932241
0.288414
0.097633
0.292958
0.101742
0.29814
0.105472
0.303936
0.108772
0.310271
0.111587
0.317074
0.113873
0.324262
0.115608
0.331741
0.116787
0.33941
0.117419
0.347163
0.117518
0.11634
0.354793
0.276023
0.00306283
0.27556
0.00920325
0.27525
0.0148949
0.275072
0.0202114
0.275015
0.0252526
0.275079
0.0301047
0.275271
0.0348375
0.275598
0.0395008
0.276073
0.0441284
0.276719
0.0487436
0.277563
0.0533613
0.278636
0.0579868
0.279972
0.0626162
0.281608
0.067237
0.283588
0.0718296
0.285955
0.0763659
0.288753
0.0808089
0.292015
0.0851211
0.295765
0.0892612
0.300023
0.0931578
0.30481
0.0967343
0.310141
0.0999502
0.31598
0.102771
0.322265
0.105156
0.328935
0.107075
0.335918
0.108515
0.343135
0.109478
0.350502
0.109978
0.357936
0.110027
0.108977
0.365261
0.282712
0.00302322
0.282279
0.00905185
0.282035
0.0146339
0.28196
0.0198432
0.28204
0.0247768
0.282273
0.0295147
0.282663
0.0341207
0.283217
0.038641
0.28395
0.0431064
0.284882
0.0475365
0.286037
0.0519423
0.287442
0.056326
0.289129
0.0606811
0.291129
0.0649941
0.293477
0.0692445
0.296206
0.0734053
0.299346
0.0774452
0.302918
0.0813336
0.30695
0.0850205
0.31146
0.0884433
0.316437
0.0915607
0.321867
0.0943433
0.327723
0.0967608
0.333955
0.0987864
0.340508
0.100402
0.347319
0.101603
0.35432
0.102392
0.361443
0.102786
0.36862
0.102797
0.101862
0.3757
0.289564
0.0029623
0.289164
0.00884258
0.288989
0.0142814
0.289018
0.0193511
0.289237
0.024146
0.289639
0.0287406
0.290226
0.0331926
0.291006
0.0375442
0.291992
0.0418231
0.293201
0.0460458
0.294653
0.0502204
0.296374
0.0543467
0.298388
0.0584173
0.300722
0.0624182
0.303401
0.0663316
0.306447
0.0701332
0.309884
0.0737906
0.313736
0.0772727
0.318019
0.0805376
0.322726
0.0835452
0.32784
0.0862672
0.333344
0.0886765
0.339208
0.0907516
0.345391
0.092476
0.351842
0.0938401
0.358508
0.0948426
0.365332
0.0954905
0.372255
0.0957983
0.379223
0.0957795
0.0949457
0.386107
0.296581
0.00287945
0.296217
0.0085739
0.296114
0.0138361
0.296248
0.0187351
0.296604
0.0233615
0.297173
0.0277845
0.297955
0.0320568
0.298956
0.036216
0.300187
0.0402868
0.301661
0.0442833
0.303397
0.0482114
0.305413
0.0520696
0.307729
0.0558517
0.310362
0.0595448
0.313335
0.0631282
0.316668
0.0665794
0.320377
0.0698703
0.324476
0.0729732
0.328962
0.0758611
0.333823
0.0785047
0.339045
0.0808795
0.344605
0.0829659
0.350472
0.084749
0.356611
0.0862192
0.362976
0.0873722
0.369521
0.0882102
0.376198
0.0887414
0.382959
0.0889794
0.389756
0.0889372
0.0881933
0.396479
0.303769
0.00277423
0.303442
0.00824555
0.30341
0.0132979
0.303649
0.017996
0.30414
0.0224255
0.304873
0.0266506
0.305846
0.0307189
0.307061
0.0346643
0.308526
0.0385084
0.310253
0.0422633
0.312253
0.0459347
0.314539
0.049521
0.317128
0.0530129
0.320038
0.0563976
0.323283
0.0596565
0.326877
0.0627695
0.330826
0.0657176
0.335128
0.0684781
0.33978
0.0710285
0.344769
0.0733475
0.350077
0.075417
0.35568
0.0772228
0.361549
0.0787553
0.367649
0.0800095
0.373942
0.0809846
0.380387
0.081685
0.386943
0.0821192
0.393569
0.0823002
0.400226
0.0822396
0.0815762
0.406817
0.311131
0.00264654
0.310841
0.0078582
0.310881
0.0126682
0.311222
0.0171362
0.311845
0.0213421
0.312737
0.0253444
0.313893
0.0291864
0.315313
0.0328989
0.317
0.0365014
0.318961
0.0400049
0.321204
0.0434116
0.323743
0.0467188
0.326589
0.0499177
0.329755
0.0529964
0.333247
0.0559425
0.337067
0.0587397
0.341217
0.0613707
0.345693
0.0638178
0.350486
0.0660639
0.355582
0.0680934
0.360961
0.0698934
0.366599
0.0714545
0.372468
0.0727708
0.378536
0.0738403
0.384769
0.0746647
0.391131
0.0752492
0.397587
0.0756027
0.404103
0.0757369
0.410644
0.0756626
0.0750715
0.417126
0.318671
0.00249664
0.318417
0.00741324
0.318527
0.0119492
0.318969
0.0161594
0.319719
0.0201167
0.320763
0.0238731
0.322093
0.0274693
0.323704
0.0309339
0.325598
0.0342819
0.327778
0.0375216
0.330253
0.0406547
0.33303
0.0436781
0.336114
0.0465867
0.339507
0.049371
0.343212
0.0520195
0.347229
0.0545188
0.351554
0.0568554
0.35618
0.0590155
0.361094
0.0609865
0.366281
0.0627573
0.371721
0.064319
0.377388
0.0656657
0.383258
0.0667944
0.3893
0.0677051
0.395484
0.0684009
0.401779
0.0688877
0.408154
0.0691739
0.414579
0.0692701
0.421024
0.0691861
0.0686608
0.427417
0.326395
0.00232513
0.326175
0.00691269
0.326353
0.0111444
0.32689
0.0150705
0.32776
0.0187559
0.328948
0.0222465
0.330441
0.0255796
0.332233
0.0287799
0.334323
0.0318594
0.336713
0.0348251
0.339404
0.0376802
0.342395
0.0404229
0.345688
0.0430476
0.349283
0.0455469
0.353178
0.0479111
0.357369
0.05013
0.361848
0.0521931
0.366604
0.05409
0.371624
0.0558117
0.37689
0.0573504
0.382382
0.0587005
0.388077
0.0598586
0.393949
0.0608236
0.399971
0.0615971
0.406117
0.0621828
0.412358
0.0625868
0.418667
0.0628168
0.425018
0.0628826
0.431385
0.0627929
0.0623279
0.437704
0.334304
0.00213319
0.334118
0.00635935
0.334358
0.0102587
0.334985
0.013875
0.335971
0.017266
0.337294
0.0204726
0.338941
0.0235261
0.340905
0.026447
0.343179
0.0292475
0.34576
0.0319348
0.348644
0.034511
0.351828
0.0369745
0.355311
0.0393211
0.359087
0.0415446