/*--------------------------------*- C++ -*----------------------------------*\
| =========                 |                                                 |
| \\      /  F ield         | OpenFOAM: The Open Source CFD Toolbox           |
|  \\    /   O peration     | Version:  5.x                                   |
|   \\  /    A nd           | Web:      www.OpenFOAM.org                      |
|    \\/     M anipulation  |                                                 |
\*---------------------------------------------------------------------------*/
FoamFile
{
    version     2.0;
    format      ascii;
    class       surfaceVectorField;
    location    "1.5";
    object      Uf;
}
// * * * * * * * * * * * * * * * * * * * * * * * * * * * * * * * * * * * * * //

dimensions      [0 1 -1 0 0 0 0];

internalField   nonuniform List<vector> 
5457
(
(9.91053 0.0233573 1.02667e-19)
(9.96822 0.0367192 1.42354e-23)
(9.81257 0.0287439 2.40681e-20)
(9.92713 0.0419363 -1.76583e-19)
(9.705 0.0331401 6.36541e-20)
(9.86112 0.0482874 -1.33274e-19)
(9.58484 0.0378289 4.97082e-20)
(9.77595 0.0564693 1.5055e-19)
(9.45229 0.0427055 -2.7474e-20)
(9.67681 0.0651347 1.4782e-22)
(9.30774 0.0477851 -8.41399e-20)
(9.56497 0.0741821 -2.70538e-20)
(9.15114 0.0531941 6.34544e-20)
(9.44012 0.083847 -5.64936e-20)
(8.98209 0.0590551 1.14239e-19)
(9.3017 0.0943428 -2.82225e-19)
(8.80004 0.0654718 6.42303e-20)
(9.1493 0.105835 1.16635e-19)
(8.60425 0.0725446 6.18466e-20)
(8.98249 0.118472 2.11158e-21)
(8.3939 0.080386 -1.40212e-19)
(8.80055 0.132423 5.08156e-19)
(8.16797 0.089123 9.39789e-21)
(8.60255 0.14789 -6.59238e-19)
(7.92533 0.098896 1.39443e-19)
(8.38751 0.165091 1.42e-19)
(7.66467 0.10986 -3.20538e-19)
(8.15425 0.184259 5.71101e-19)
(7.3846 0.122188 2.20678e-20)
(7.90145 0.205646 -3.06996e-19)
(7.08355 0.13607 6.73866e-19)
(7.62765 0.229526 -2.86871e-19)
(6.75984 0.151709 -1.1749e-19)
(7.33123 0.256182 -9.5222e-19)
(6.4117 0.16933 -4.44225e-19)
(7.01043 0.285898 9.74133e-19)
(6.03726 0.18917 0)
(6.66338 0.318957 0)
(5.63461 0.211477 0)
(6.28809 0.355619 1.50254e-18)
(5.20183 0.236493 -2.33277e-19)
(5.88251 0.396081 -1.95124e-18)
(4.73712 0.264445 -2.26531e-19)
(5.44453 0.440429 -2.27382e-20)
(4.23883 0.295541 0)
(4.97205 0.488591 -3.54093e-18)
(3.70562 0.329918 0)
(4.46299 0.540279 -5.17291e-19)
(3.13663 0.367398 -3.1033e-19)
(3.91564 0.594817 3.94772e-18)
(2.53188 0.406989 -3.04749e-19)
(3.32806 0.65054 4.22403e-18)
(1.89322 0.445261 2.91158e-18)
(2.698 0.703806 -4.51875e-18)
(1.22706 0.469228 -6.36662e-18)
(2.02316 0.74612 2.90769e-18)
(0.545569 0.393158 -2.54171e-18)
(1.278 0.757902 -9.36268e-18)
(0.628426 0.63339 -5.25045e-18)
(10.003 0.0454356 -2.82591e-19)
(9.9998 0.0355101 9.18021e-20)
(9.97382 0.0584421 -3.3295e-19)
(9.98806 0.0544661 -1.93594e-22)
(9.92714 0.0698484 -4.01474e-20)
(9.95471 0.0692815 -3.39147e-19)
(9.86506 0.0822868 9.77814e-20)
(9.90205 0.085694 2.98939e-19)
(9.78775 0.0955305 0)
(9.83416 0.103185 2.05254e-19)
(9.69555 0.109581 0)
(9.75255 0.121569 0)
(9.58856 0.124714 -4.06668e-19)
(9.65721 0.141217 2.18337e-19)
(9.46658 0.141206 -2.72092e-19)
(9.54775 0.162521 -2.85969e-19)
(9.32926 0.159296 5.23337e-20)
(9.4239 0.185787 2.33265e-19)
(9.17607 0.179233 4.5791e-19)
(9.28537 0.211326 1.79861e-19)
(9.00626 0.201303 -3.23688e-20)
(9.13155 0.239514 5.08294e-19)
(8.81892 0.225816 -5.12171e-19)
(8.96165 0.270761 -1.04154e-18)
(8.61299 0.25311 5.81353e-19)
(8.77483 0.305501 5.32592e-19)
(8.38727 0.283551 5.69301e-19)
(8.57004 0.344212 1.96818e-18)
(8.14037 0.317537 -6.1566e-19)
(8.34607 0.38742 -1.13963e-18)
(7.87075 0.355492 -1.92478e-18)
(8.10157 0.435702 -1.82303e-18)
(7.57673 0.397851 1.71575e-19)
(7.83502 0.489665 -5.85444e-20)
(7.25642 0.445056 1.40309e-18)
(7.54469 0.54994 1.427e-18)
(6.90781 0.497536 1.52688e-18)
(7.22866 0.617171 0)
(6.52874 0.555668 -5.0181e-19)
(6.88486 0.691988 1.85864e-18)
(6.11691 0.619717 -1.71254e-18)
(6.51096 0.774939 -1.58009e-18)
(5.66992 0.689781 -3.3875e-18)
(6.10442 0.866423 -2.54767e-18)
(5.18528 0.765733 -4.02324e-18)
(5.66237 0.966604 -2.93235e-19)
(4.66033 0.847158 3.48347e-18)
(5.18152 1.07534 -9.43372e-19)
(4.09221 0.932997 8.49636e-18)
(4.65819 1.19208 1.12613e-17)
(3.47712 1.02093 -4.33989e-20)
(4.08734 1.31543 -3.0607e-18)
(2.80867 1.10708 -4.51891e-18)
(3.46089 1.44263 -5.54265e-18)
(2.07249 1.18729 0)
(2.767 1.57005 0)
(1.22023 1.25258 -1.19373e-17)
(1.96031 1.70227 0)
(1.14951 1.8262 -1.02953e-17)
(9.9956 0.0479011 3.72504e-19)
(9.99741 0.0373198 4.13625e-19)
(9.9699 0.0685514 -1.39279e-20)
(9.98306 0.0654616 1.41405e-19)
(9.92657 0.0878987 1.39548e-20)
(9.95071 0.0887182 -4.52032e-22)
(9.86898 0.108607 4.04415e-19)
(9.90086 0.112752 -1.98954e-19)
(9.79769 0.130694 2.0101e-19)
(9.83641 0.138208 4.09088e-19)
(9.71292 0.154247 2.22776e-19)
(9.75895 0.165068 4.22985e-19)
(9.61479 0.179652 3.29127e-19)
(9.66867 0.19376 -8.6829e-19)
(9.50322 0.207313 2.29541e-19)
(9.56537 0.224803 1.00949e-18)
(9.37795 0.237609 3.59806e-19)
(9.44886 0.258644 1.20827e-19)
(9.23855 0.270961 2.36359e-19)
(9.3189 0.295753 -4.73719e-19)
(9.0844 0.307845 -5.2943e-19)
(9.17503 0.336671 0)
(8.91478 0.348781 3.17274e-20)
(9.01669 0.381984 -2.65149e-19)
(8.7288 0.394335 1.94521e-18)
(8.84321 0.432325 5.32891e-19)
(8.52544 0.445131 2.04917e-19)
(8.65377 0.488401 1.12371e-18)
(8.30352 0.501857 -2.35941e-18)
(8.44744 0.550997 -2.29062e-18)
(8.06167 0.565259 7.35035e-20)
(8.2231 0.620986 2.51653e-19)
(7.79834 0.636126 1.22233e-18)
(7.97953 0.699316 -1.21669e-18)
(7.51176 0.71528 0)
(7.71528 0.787001 2.52024e-18)
(7.19994 0.803564 3.60313e-19)
(7.42864 0.885111 0)
(6.86063 0.901788 7.28435e-19)
(7.11775 0.994761 3.45815e-18)
(6.49124 1.01065 -2.42898e-18)
(6.78036 1.11706 -2.46227e-18)
(6.08879 1.13068 5.77573e-19)
(6.4138 1.25303 -3.8754e-18)
(5.64974 1.26212 2.78773e-18)
(6.01477 1.40358 1.0274e-17)
(5.16972 1.40502 6.96653e-18)
(5.57912 1.56944 -5.2335e-18)
(4.64294 1.55925 -4.19187e-19)
(5.10145 1.75137 1.4946e-17)
(4.06075 1.7245 -8.60593e-18)
(4.57415 1.95045 -1.37609e-17)
(3.40883 1.90148 -1.00818e-18)
(3.98547 2.16878 -9.08784e-20)
(2.6615 2.09545 0)
(3.31879 2.41242 0)
(1.78153 2.34426 1.33377e-18)
(2.54724 2.69273 -1.56056e-17)
(1.60334 3.11759 -1.63417e-17)
(9.9911 0.0551679 1.77079e-19)
(9.99598 0.0409779 -5.04606e-19)
(9.96549 0.0847725 1.51672e-19)
(9.97963 0.0764359 -4.69817e-20)
(9.92298 0.112721 -2.17762e-19)
(9.94704 0.107808 -1.91569e-19)
(9.86629 0.141575 -1.81372e-19)
(9.89818 0.139409 -1.99614e-19)
(9.79636 0.171905 6.31419e-19)
(9.83506 0.172597 -6.11644e-19)
(9.71345 0.204054 -6.94253e-19)
(9.75918 0.207655 8.41209e-19)
(9.61774 0.238546 -1.50978e-19)
(9.67089 0.245064 -1.08702e-18)
(9.50926 0.275931 8.83732e-19)
(9.57011 0.285436 8.96949e-19)
(9.38785 0.316746 -7.24125e-19)
(9.45674 0.329357 -9.17635e-19)
(9.25321 0.361571 -7.01548e-19)
(9.33062 0.377427 1.41475e-18)
(9.10492 0.411048 2.59618e-19)
(9.19142 0.430309 -9.72053e-19)
(8.94249 0.465877 2.50472e-19)
(9.03875 0.488729 -2.49159e-19)
(8.76528 0.526828 -2.78903e-19)
(8.87213 0.553487 0)
(8.57256 0.594762 -1.43156e-18)
(8.69098 0.625476 -2.74257e-19)
(8.36348 0.670636 3.64436e-19)
(8.49463 0.705695 -3.38602e-18)
(8.13706 0.755514 -1.06265e-18)
(8.28228 0.795261 3.46682e-18)
(7.89214 0.850553 1.3996e-19)
(8.05308 0.895427 -2.46354e-18)
(7.62737 0.956992 2.48304e-18)
(7.806 1.00756 3.14005e-18)
(7.34117 1.07616 3.15217e-18)
(7.5398 1.13314 -5.79216e-18)
(7.03164 1.20947 1.83317e-19)
(7.25302 1.27379 7.05298e-18)
(6.69647 1.35834 -3.93137e-18)
(6.94388 1.43129 -2.84348e-18)
(6.3327 1.52419 6.00546e-18)
(6.61007 1.60753 3.0498e-19)
(5.93653 1.70844 2.0852e-18)
(6.24853 1.80452 6.29714e-18)
(5.50278 1.91256 2.9178e-18)
(5.85516 2.02453 -5.59437e-18)
(5.02427 2.13861 1.43581e-18)
(5.42429 2.27034 6.86286e-18)
(4.49037 2.39025 -5.20647e-18)
(4.94794 2.5462 -6.96957e-18)
(3.88533 2.67521 9.27102e-19)
(4.41502 2.8592 9.2629e-19)
(3.18181 3.00024 -1.54384e-17)
(3.80516 3.2252 0)
(2.39952 3.4215 -3.32175e-17)
(3.16164 3.6167 -1.57588e-17)
(2.10871 4.32013 -4.76901e-17)
(9.98869 0.0629556 -7.19893e-19)
(9.9952 0.0456274 -3.67939e-19)
(9.96258 0.0999217 -3.93569e-19)
(9.97771 0.0876376 5.60836e-19)
(9.9208 0.135285 -1.7361e-19)
(9.94499 0.12659 -1.9255e-19)
(9.86512 0.171473 -6.38692e-19)
(9.89705 0.165629 -1.96728e-19)
(9.79652 0.209471 -3.7203e-19)
(9.83536 0.206384 -4.11432e-19)
(9.71533 0.249821 4.09776e-19)
(9.76119 0.249424 4.18264e-19)
(9.62176 0.293128 0)
(9.67498 0.295315 -2.13639e-21)
(9.51586 0.340039 -9.39672e-19)
(9.57673 0.344746 -4.46807e-19)
(9.39757 0.391203 1.2653e-18)
(9.4664 0.398416 -9.30143e-19)
(9.26667 0.447311 1.10117e-18)
(9.34388 0.457039 2.82922e-18)
(9.12288 0.509118 -1.46844e-18)
(9.20897 0.521393 -2.24575e-21)
(8.96581 0.57745 -4.95606e-19)
(9.06135 0.592326 -2.75095e-18)
(8.795 0.653227 0)
(8.90067 0.670772 2.04251e-18)
(8.60993 0.73748 -2.28171e-18)
(8.72651 0.757773 0)
(8.41001 0.831365 -1.70723e-19)
(8.53839 0.854498 -2.79071e-18)
(8.19456 0.936187 1.97199e-18)
(8.33578 0.962259 2.00554e-18)
(7.96283 1.0534 6.25797e-19)
(8.1181 1.08255 0)
(7.71392 1.1846 -5.27724e-18)
(7.88474 1.21704 1.35772e-20)
(7.44674 1.33154 -1.7139e-18)
(7.63488 1.36756 -5.18275e-18)
(7.15991 1.49623 3.89618e-18)
(7.36752 1.53622 4.59723e-18)
(6.85164 1.68089 1.44119e-18)
(7.08147 1.72546 -5.31178e-18)
(6.51958 1.88799 6.59773e-19)
(6.77506 1.93807 6.15029e-18)
(6.16039 2.1204 -1.50931e-18)
(6.44597 2.1773 -4.93989e-20)
(5.76941 2.38164 -1.56151e-18)
(6.091 2.44712 1.07558e-17)
(5.34008 2.67639 -1.61268e-18)
(5.70565 2.75265 -1.10291e-17)
(4.86331 3.0115 -8.21741e-19)
(5.28366 3.10076 -8.22349e-19)
(4.32811 3.39991 0)
(4.81874 3.50041 0)
(3.7047 3.84162 0)
(4.27918 3.97912 0)
(3.07623 4.38333 -3.14913e-17)
(3.82928 4.42451 2.33989e-17)
(2.67883 5.34984 -5.6191e-17)
(9.98746 0.0711564 9.3142e-19)
(9.99478 0.0507826 2.75376e-19)
(9.96104 0.114997 7.45023e-19)
(9.97679 0.0989844 6.53523e-19)
(9.92009 0.157652 -2.15751e-19)
(9.94423 0.145036 -3.81003e-19)
(9.86566 0.201281 2.60648e-20)
(9.89733 0.191304 -1.99487e-19)
(9.79867 0.247032 3.9618e-19)
(9.83728 0.239439 8.08889e-19)
(9.71953 0.295579 -2.17958e-21)
(9.76518 0.290228 -8.2878e-19)
(9.62846 0.347598 -4.57679e-19)
(9.68147 0.344343 4.2127e-19)
(9.52555 0.403815 -4.46353e-19)
(9.58621 0.402543 8.69339e-19)
(9.41079 0.464987 7.03737e-19)
(9.47942 0.465621 -9.04993e-19)
(9.28405 0.531918 1.67427e-18)
(9.36104 0.534402 6.9871e-19)
(9.14511 0.605476 -1.33318e-18)
(9.23092 0.609771 2.88816e-18)
(8.99367 0.686611 -1.29814e-19)
(9.08885 0.692687 -3.21026e-18)
(8.8294 0.776378 2.00929e-18)
(8.93454 0.784201 -1.49431e-18)
(8.65192 0.875951 -5.54353e-19)
(8.76772 0.88548 2.07011e-18)
(8.46084 0.986649 -5.3677e-19)
(8.58808 0.997825 2.68068e-18)
(8.25571 1.10997 0)
(8.39529 1.12271 2.24458e-18)
(8.03606 1.24763 -6.12919e-19)
(8.18897 1.26183 -3.95114e-18)
(7.80138 1.40153 3.70921e-20)
(7.96882 1.4171 -1.18638e-18)
(7.55101 1.57381 1.26814e-18)
(7.73439 1.59068 2.69811e-20)
(7.28409 1.76701 -4.74881e-18)
(7.48513 1.78509 6.45198e-19)
(6.99949 1.98412 -4.82727e-19)
(7.22042 2.00336 -5.3323e-18)
(6.69563 2.22867 5.39336e-18)
(6.93935 2.24911 4.74499e-18)
(6.37028 2.50488 1.23262e-17)
(6.64063 2.52673 1.34414e-18)
(6.02028 2.81813 1.22911e-18)
(6.32245 2.84161 7.74367e-19)
(5.64118 3.17548 -1.02787e-17)
(5.98242 3.20073 -1.17381e-17)
(5.2272 3.58537 0)
(5.6169 3.61307 1.09619e-17)
(4.77587 4.06205 0)
(5.22815 4.08531 -1.34312e-18)
(4.25063 4.5945 2.30648e-17)
(4.75963 4.66148 0)
(3.77915 5.19732 -6.63044e-18)
(4.5332 5.10913 2.36819e-17)
(3.29216 6.20496 -4.96693e-17)
(9.98691 0.0795579 4.76199e-21)
(9.99458 0.056167 -9.14146e-20)
(9.96049 0.129923 -4.96144e-19)
(9.97651 0.110349 -2.79338e-19)
(9.92044 0.179561 -3.60837e-19)
(9.94439 0.163106 5.69141e-19)
(9.86749 0.230371 6.04778e-19)
(9.89869 0.216336 -5.85421e-19)
(9.80246 0.283566 -4.49801e-19)
(9.84055 0.271603 4.02564e-19)
(9.7258 0.339954 -3.80602e-19)
(9.7709 0.329858 -7.82478e-21)
(9.63773 0.400303 1.75757e-18)
(9.69013 0.391889 -8.47585e-19)
(9.53838 0.465427 3.77753e-19)
(9.59837 0.458526 2.18095e-18)
(9.42776 0.536181 -8.81125e-19)
(9.49566 0.530643 -2.48703e-21)
(9.3058 0.613474 1.9518e-18)
(9.382 0.609163 -4.55297e-19)
(9.17236 0.698279 9.05529e-19)
(9.25729 0.695073 4.96722e-19)
(9.02721 0.791656 -4.54703e-18)
(9.12141 0.789431 1.44751e-18)
(8.87013 0.894771 -1.37784e-18)
(8.97417 0.89339 -6.03996e-18)
(8.7009 1.00892 5.31914e-18)
(8.81542 1.00822 5.64955e-18)
(8.51929 1.13555 5.46097e-18)
(8.64501 1.13533 6.18791e-19)
(8.32505 1.27632 -1.79925e-18)
(8.46277 1.27636 2.78559e-18)
(8.11793 1.43316 -4.4908e-18)
(8.26856 1.43315 -5.06587e-18)
(7.8977 1.60821 -1.18126e-18)
(8.06227 1.60783 -4.5729e-18)
(7.66409 1.804 -5.91482e-19)
(7.84378 1.80288 5.18448e-18)
(7.41674 2.0235 0)
(7.61297 2.02116 0)
(7.15521 2.27034 0)
(7.36976 2.26618 0)
(6.87884 2.54894 6.53004e-19)
(7.11404 2.54223 -9.91906e-18)
(6.58674 2.8647 -1.02614e-17)
(6.84565 2.8546 9.37828e-18)
(6.27771 3.22432 -1.23003e-17)
(6.56441 3.2098 -1.2154e-17)
(5.95034 3.63621 9.51152e-18)
(6.27038 3.61579 -1.4395e-18)
(5.60223 4.10902 9.79111e-18)
(5.96226 4.08276 3.11357e-17)
(5.24033 4.6555 -1.37591e-18)
(5.65401 4.61143 -3.29707e-19)
(4.81847 5.25362 0)
(5.25049 5.26979 -3.37603e-19)
(4.48213 5.87165 -2.51065e-17)
(5.24923 5.68347 -1.85456e-17)
(3.92224 6.90067 -2.29638e-17)
(9.98676 0.0879984 -3.79248e-19)
(9.99453 0.0616153 0)
(9.96062 0.144607 8.05331e-19)
(9.97665 0.121613 -3.72041e-19)
(9.92164 0.200908 3.1963e-19)
(9.94519 0.180731 7.64055e-19)
(9.87042 0.258612 -7.67222e-19)
(9.90093 0.240606 -1.17126e-18)
(9.80769 0.31896 8.36427e-19)
(9.84498 0.302714 3.95648e-19)
(9.73391 0.382881 -4.91191e-19)
(9.77809 0.368121 4.12708e-19)
(9.64929 0.451236 -3.66857e-19)
(9.70065 0.43773 -1.27209e-18)
(9.55398 0.524916 1.7603e-18)
(9.61281 0.512439 4.33623e-19)
(9.44803 0.60486 4.15877e-19)
(9.51465 0.593196 1.33632e-18)
(9.33142 0.692066 -1.8951e-18)
(9.40622 0.681007 9.08573e-19)
(9.20409 0.787604 1.05413e-18)
(9.2875 0.776946 -3.73811e-18)
(9.06592 0.892628 -1.66838e-19)
(9.15844 0.882165 1.93861e-18)
(8.91679 1.00839 1.1779e-18)
(9.01899 0.997897 -2.01308e-18)
(8.75662 1.1363 8.68539e-19)
(8.86912 1.12549 4.58351e-18)
(8.58534 1.27793 -2.03252e-18)
(8.70879 1.2665 -2.10759e-18)
(8.4029 1.43509 -5.92628e-19)
(8.53804 1.42265 1.0133e-20)
(8.20926 1.60984 -5.14003e-18)
(8.3569 1.59595 -5.68225e-19)
(8.00442 1.80462 1.91551e-18)
(8.1655 1.78874 -8.41732e-18)
(7.78846 2.02223 5.73147e-18)
(7.964 2.00372 1.42099e-17)
(7.5615 2.26602 0)
(7.75268 2.24409 -3.41428e-18)
(7.32377 2.54012 -1.00187e-17)
(7.53199 2.51372 -9.30752e-18)
(7.0756 2.8496 -1.10564e-18)
(7.30262 2.8174 8.79571e-18)
(6.8175 3.20071 7.48293e-18)
(7.06551 3.16104 -6.48739e-19)
(6.55025 3.60103 -1.25923e-18)
(6.82212 3.55194 1.1038e-18)
(6.27554 4.05928 2.00119e-17)
(6.57486 3.99838 1.87142e-17)
(5.9939 4.58279 2.15412e-17)
(6.32388 4.51109 1.83106e-18)
(5.72042 5.18144 5.67881e-19)
(6.09711 5.08115 1.03925e-18)
(5.39985 5.82592 -1.78011e-17)
(5.75015 5.80779 -3.41814e-19)
(5.16548 6.43123 -1.65575e-17)
(5.95763 6.16953 -1.87456e-17)
(4.54848 7.47217 1.13083e-18)
(9.98687 0.096363 0)
(9.99455 0.0670184 -9.04264e-20)
(9.96123 0.158969 -3.88103e-19)
(9.97706 0.132683 -9.23323e-20)
(9.92348 0.221603 -7.69288e-19)
(9.9465 0.197845 5.6204e-19)
(9.87423 0.285876 2.46758e-20)
(9.90392 0.26401 -7.76777e-19)
(9.81412 0.35306 -2.78921e-20)
(9.8504 0.332627 7.9291e-19)
(9.74352 0.424183 -4.01333e-19)
(9.78657 0.404862 4.03986e-19)
(9.6627 0.500185 -4.38999e-19)
(9.71277 0.481696 -2.07743e-18)
(9.57183 0.582023 2.54568e-20)
(9.62921 0.564085 4.17927e-19)
(9.471 0.670711 1.82179e-18)
(9.53602 0.653043 -1.74798e-18)
(9.36027 0.767329 -1.01407e-18)
(9.43329 0.749653 3.14678e-18)
(9.23965 0.873031 -2.76057e-18)
(9.3211 0.855065 -2.31745e-18)
(9.10913 0.989049 2.74153e-20)
(9.19949 0.970502 -5.5642e-21)
(8.96873 1.11671 1.49706e-18)
(9.06853 1.09727 -1.92021e-18)
(8.81849 1.25751 1.50628e-18)
(8.9283 1.2368 1.9757e-18)
(8.65846 1.41314 -3.11525e-20)
(8.7789 1.39073 8.6844e-21)
(8.48879 1.58554 2.66599e-20)
(8.62052 1.56093 -5.28801e-19)
(8.30967 1.77695 -3.94151e-18)
(8.45343 1.74953 -4.97252e-19)
(8.12135 1.99002 4.13716e-18)
(8.27796 1.95905 -8.70053e-18)
(7.92423 2.22778 4.88854e-18)
(8.09461 2.19242 1.38173e-17)
(7.7189 2.49388 -1.2798e-17)
(7.90403 2.45305 -5.62005e-18)
(7.50624 2.79284 9.64362e-18)
(7.70717 2.74511 -1.04531e-17)
(7.28753 3.13018 9.29131e-18)
(7.50548 3.07379 1.77838e-17)
(7.06461 3.51268 -7.10443e-18)
(7.30096 3.44541 -9.5022e-18)
(6.8401 3.94823 2.10893e-17)
(7.09652 3.86766 1.26795e-18)
(6.61827 4.44548 6.79621e-19)
(6.89674 4.34865 1.68679e-18)
(6.40177 5.00912 -1.88635e-17)
(6.70182 4.89946 -2.83797e-18)
(6.21126 5.64553 0)
(6.55498 5.49903 0)
(5.98628 6.32271 0)
(6.25678 6.28137 0)
(5.82263 6.90652 5.52003e-19)
(6.64566 6.59001 -8.67468e-19)
(5.15977 7.95596 3.26377e-20)
(9.98715 0.104564 -1.82802e-19)
(9.99458 0.0723121 6.28657e-19)
(9.96223 0.172924 8.72907e-19)
(9.9777 0.143463 -9.23967e-20)
(9.92593 0.241558 5.2599e-19)
(9.94837 0.214351 5.6666e-19)
(9.87889 0.312051 2.41813e-20)
(9.90771 0.286443 -7.70948e-19)
(9.82164 0.385735 1.21733e-18)
(9.85682 0.361225 1.576e-18)
(9.75453 0.463712 -1.32044e-18)
(9.79627 0.439946 -1.19776e-18)
(9.67783 0.546975 -1.17424e-18)
(9.72639 0.523628 -8.44779e-19)
(9.59178 0.636538 -1.39509e-18)
(9.64745 0.613269 1.27035e-18)
(9.49652 0.733484 -3.38553e-19)
(9.55962 0.709954 -1.7606e-18)
(9.39216 0.838961 1.75207e-18)
(9.46305 0.81483 1.78305e-18)
(9.27881 0.954186 4.7784e-19)
(9.35788 0.929102 1.81088e-18)
(9.15658 1.08046 -1.98424e-18)
(9.24428 1.05405 -1.36599e-18)
(9.0256 1.21919 -1.38597e-18)
(9.12242 1.19105 -2.41187e-18)
(8.88603 1.37194 4.49045e-19)
(8.99249 1.34163 -2.40091e-18)
(8.73807 1.54053 -4.97262e-19)
(8.85475 1.50749 7.32984e-18)
(8.58206 1.72702 -1.0531e-18)
(8.70955 1.69061 -3.97284e-18)
(8.41843 1.93376 -5.35403e-18)
(8.55737 1.89323 -4.09144e-18)
(8.24772 2.16359 1.20478e-18)
(8.39882 2.11801 -1.20827e-18)
(8.07064 2.41976 3.13408e-18)
(8.23471 2.36809 5.38696e-18)
(7.88826 2.70612 -3.28879e-18)
(8.06609 2.64707 -1.01992e-19)
(7.70206 3.02749 -2.2051e-18)
(7.89438 2.95931 -3.96905e-20)
(7.51419 3.38972 -1.10482e-18)
(7.72175 3.31031 9.41197e-18)
(7.32771 3.79984 -1.11682e-18)
(7.55116 3.70666 -9.38385e-18)
(7.1468 4.26565 -1.82797e-17)
(7.38679 4.15618 -1.14761e-19)
(6.97777 4.79528 -1.85994e-18)
(7.23522 4.66629 -1.63995e-17)
(6.8242 5.39091 1.62105e-17)
(7.0951 5.24866 1.78831e-17)
(6.7089 6.0553 0)
(7.02524 5.86969 -1.48419e-17)
(6.57153 6.75698 -8.57602e-19)
(6.77113 6.69694 1.36284e-18)
(6.45239 7.32902 -1.31429e-18)
(7.3095 6.96863 1.20581e-17)
(5.75661 8.40028 1.24122e-17)
(9.98755 0.112515 7.05265e-19)
(9.99461 0.0774431 9.13898e-20)
(9.96367 0.18636 -3.84248e-19)
(9.97855 0.153821 -9.12037e-20)
(9.92911 0.260663 -7.59644e-19)
(9.95075 0.230119 -2.24554e-21)
(9.88448 0.337035 8.29785e-19)
(9.91225 0.307813 -2.84226e-21)
(9.83028 0.416867 -8.95018e-19)
(9.86413 0.388424 7.95138e-21)
(9.76688 0.501317 -7.15553e-19)
(9.80704 0.473257 -1.61712e-18)
(9.6946 0.591417 1.64065e-18)
(9.74136 0.563367 2.04976e-18)
(9.61372 0.688231 8.51401e-19)
(9.66736 0.659801 1.6766e-18)
(9.52441 0.792906 4.23087e-19)
(9.58523 0.763703 -1.69639e-18)
(9.42687 0.906645 1.84186e-18)
(9.4952 0.876274 4.33991e-19)
(9.32129 1.03071 -8.32097e-20)
(9.3975 0.998757 1.8134e-18)
(9.20789 1.16647 -1.8104e-18)
(9.29239 1.13248 -1.83951e-18)
(9.08691 1.3154 -3.42722e-18)
(9.18015 1.27889 4.16704e-18)
(8.95865 1.47916 4.61401e-18)
(9.0611 1.43958 -8.06603e-18)
(8.82348 1.65961 3.71962e-18)
(8.93567 1.61632 1.07382e-17)
(8.68191 1.85891 -7.02207e-18)
(8.80435 1.81113 -6.88695e-18)
(8.53464 2.07955 8.86358e-20)
(8.66786 2.02637 -7.00221e-18)
(8.38252 2.3245 3.04215e-18)
(8.52707 2.26484 1.1047e-17)
(8.2266 2.59723 2.10285e-18)
(8.38318 2.52985 -6.00965e-18)
(8.06839 2.90171 3.16509e-18)
(8.23764 2.82514 1.09592e-18)
(7.90997 3.24296 1.16335e-17)
(8.0923 3.1552 1.06896e-18)
(7.75427 3.62705 1.18279e-18)
(7.95001 3.52574 9.58294e-18)
(7.60544 4.0611 -8.46822e-18)
(7.81462 3.94349 -1.62526e-17)
(7.46897 4.55273 1.9988e-18)
(7.69145 4.41627 7.69605e-18)
(7.35263 5.10909 2.87755e-18)
(7.58882 4.95062 9.55633e-19)
(7.26007 5.7311 -1.26572e-17)
(7.50293 5.5594 1.04043e-18)
(7.21242 6.41812 -1.3581e-17)
(7.5066 6.19807 -1.41737e-17)
(7.15617 7.14162 1.32816e-17)
(7.29726 7.0609 1.32946e-18)
(7.06886 7.72452 2.58742e-17)
(7.95466 7.3236 3.46416e-18)
(6.35105 8.83359 1.36685e-17)
(9.98809 0.120133 -7.09307e-19)
(9.99469 0.0823569 -6.28867e-19)
(9.96544 0.199162 2.93024e-19)
(9.97958 0.163671 -9.12752e-20)
(9.93282 0.278815 7.5513e-19)
(9.95348 0.245063 3.73994e-19)
(9.89076 0.360734 -8.24879e-19)
(9.91728 0.328043 1.33494e-21)
(9.83977 0.446349 -7.46603e-19)
(9.87208 0.414138 -2.33507e-18)
(9.78031 0.536857 1.21908e-18)
(9.81865 0.504678 1.1903e-18)
(9.71274 0.633334 2.07897e-18)
(9.75743 0.600765 -8.02531e-19)
(9.63734 0.7369 -9.30991e-19)
(9.68864 0.703505 1.31052e-20)
(9.55434 0.848754 -1.65107e-18)
(9.61253 0.814094 -2.13896e-18)
(9.46401 0.970134 4.27303e-19)
(9.5294 0.933763 2.14444e-18)
(9.36662 1.10234 0)
(9.43955 1.06379 4.35971e-19)
(9.26251 1.24679 4.23143e-18)
(9.34334 1.20552 0)
(9.15205 1.40501 -6.37551e-19)
(9.24116 1.36046 3.72024e-18)
(9.03567 1.57873 -1.70359e-18)
(9.13351 1.53025 -4.68508e-18)
(8.91392 1.76986 -8.49626e-20)
(9.02095 1.71673 8.8514e-20)
(8.7875 1.98061 -6.86737e-18)
(8.90413 1.92196 3.6891e-18)
(8.65734 2.2136 4.12869e-18)
(8.78399 2.14836 -1.1577e-17)
(8.52465 2.47194 1.8675e-18)
(8.66163 2.39882 5.09786e-18)
(8.39086 2.75923 -6.99718e-18)
(8.53881 2.67683 1.12891e-17)
(8.25789 3.07956 -1.01237e-18)
(8.4173 2.98623 -1.63736e-17)
(8.12845 3.438 -1.00753e-18)
(8.29934 3.33156 7.62641e-18)
(8.00616 3.84077 -7.80782e-18)
(8.18855 3.71864 -8.35262e-20)
(7.89611 4.29505 -2.44851e-19)
(8.08963 4.15422 4.28638e-19)
(7.80493 4.80815 6.76324e-18)
(8.00867 4.64603 -3.69315e-19)
(7.74134 5.38671 -8.97658e-19)
(7.95546 5.20004 1.22918e-17)
(7.70906 6.03143 -9.65584e-20)
(7.92443 5.83083 -1.42822e-17)
(7.72366 6.73929 7.94056e-19)
(7.99831 6.4866 -1.01875e-17)
(7.74654 7.48616 -9.52903e-18)
(7.841 7.37586 1.95461e-17)
(7.68923 8.11196 -6.07367e-18)
(8.59023 7.6678 -1.94631e-17)
(6.95985 9.27471 -8.44579e-18)
(9.98872 0.127362 0)
(9.9948 0.0870131 7.09054e-19)
(9.96743 0.211266 0)
(9.98073 0.172968 7.21112e-19)
(9.93684 0.295947 -3.88177e-19)
(9.95642 0.259135 0)
(9.89748 0.383075 -1.55702e-18)
(9.92265 0.347071 3.71924e-19)
(9.8499 0.474088 -3.28804e-19)
(9.88053 0.438281 -3.90754e-19)
(9.7946 0.570221 -8.6957e-19)
(9.83099 0.5341 1.58121e-18)
(9.73199 0.672603 -2.85614e-18)
(9.77445 0.635697 -1.61568e-18)
(9.66235 0.78241 -1.23282e-18)
(9.71111 0.744244 -1.33548e-20)
(9.58597 0.900871 1.72969e-18)
(9.64129 0.860967 -2.49866e-18)
(9.50319 1.02924 2.1274e-18)
(9.56534 0.98711 2.13164e-18)
(9.41437 1.16885 4.2983e-19)
(9.48367 1.12396 1.73197e-18)
(9.31995 1.32113 -4.61404e-19)
(9.39671 1.27289 -1.74554e-18)
(9.22045 1.48767 -4.40771e-19)
(9.30497 1.43544 -4.55483e-19)
(9.11646 1.67025 -2.83265e-18)
(9.20913 1.61329 1.67589e-20)
(9.00867 1.87082 3.90318e-18)
(9.1099 1.80832 -2.8107e-18)
(8.89797 2.09164 -1.15645e-18)
(9.0081 2.02264 2.94121e-18)
(8.78551 2.33535 -1.04935e-17)
(8.90483 2.25869 -3.04141e-18)
(8.6729 2.60517 1.45658e-17)
(8.80143 2.51932 -2.90068e-18)
(8.56204 2.90486 1.83817e-18)
(8.70021 2.80819 1.73653e-17)
(8.45521 3.23854 -7.7303e-18)
(8.60347 3.12928 -8.09533e-18)
(8.3557 3.61128 8.59357e-18)
(8.51366 3.48706 1.30656e-18)
(8.26795 4.02936 8.19132e-18)
(8.43521 3.88734 3.64851e-20)
(8.19768 4.49989 3.38615e-19)
(8.37381 4.3369 1.49631e-17)
(8.15241 5.02982 4.94443e-18)
(8.33576 4.84311 -1.37437e-17)
(8.1417 5.62637 -5.63097e-19)
(8.33239 5.41195 1.16603e-17)
(8.17047 6.29052 -2.45508e-17)
(8.35779 6.05919 -1.27628e-17)
(8.24513 7.02017 8.37644e-18)
(8.49897 6.73271 -1.04443e-17)
(8.34963 7.79734 1.06836e-17)
(8.40937 7.63905 1.96122e-17)
(8.32908 8.52163 -1.90593e-17)
(9.23046 8.01359 -9.87177e-18)
(7.61014 9.78495 -9.26206e-18)
(9.98942 0.134167 1.43103e-18)
(9.99495 0.0913868 1.95413e-21)
(9.96955 0.222631 7.05304e-19)
(9.98196 0.18168 1.07868e-18)
(9.94111 0.312008 7.68463e-19)
(9.95951 0.272295 -3.66391e-19)
(9.9046 0.403983 1.52392e-18)
(9.92829 0.364838 -7.4394e-19)
(9.8606 0.499984 1.55861e-18)
(9.88946 0.460765 7.71463e-19)
(9.8097 0.60128 7.76177e-19)
(9.84401 0.561419 7.87556e-19)
(9.75226 0.709069 1.25767e-18)
(9.79231 0.66805 7.94703e-19)
(9.68863 0.824568 -1.32087e-18)
(9.73462 0.781888 1.23313e-18)
(9.61912 0.949018 -2.02417e-18)
(9.6713 0.904167 -8.49151e-19)
(9.54416 1.08368 1.72945e-18)
(9.60279 1.03613 -4.17704e-19)
(9.46421 1.2299 -4.94173e-19)
(9.52955 1.17908 -1.24722e-18)
(9.3798 1.38913 -1.72357e-18)
(9.4521 1.33439 -8.89349e-19)
(9.2916 1.56298 8.55995e-21)
(9.37107 1.50359 3.48954e-18)
(9.20038 1.75327 8.35966e-21)
(9.28737 1.68841 -1.74378e-18)
(9.10699 1.962 -3.71986e-18)
(9.20176 1.89075 0)
(9.01245 2.19142 9.97817e-19)
(9.11533 2.11279 -3.68835e-18)
(8.91815 2.44414 4.5805e-18)
(9.02939 2.3569 4.60673e-18)
(8.82602 2.72339 -1.52456e-20)
(8.94542 2.62583 0)
(8.73854 3.03308 7.35126e-18)
(8.86598 2.92324 6.18794e-18)
(8.65848 3.37736 9.86663e-19)
(8.79416 3.25329 3.29854e-19)
(8.58952 3.76121 -7.29653e-18)
(8.73301 3.62042 -6.40967e-18)
(8.53692 4.19089 6.69706e-18)
(8.6873 4.03016 -9.00899e-19)
(8.5071 4.67321 1.23177e-18)
(8.66378 4.48926 6.86613e-18)
(8.50828 5.21498 -7.47046e-18)
(8.66903 5.00467 -1.8591e-17)
(8.55075 5.82431 -6.18737e-20)
(8.71604 5.58233 4.1087e-19)
(8.64219 6.50271 1.34153e-18)
(8.79961 6.23757 1.30038e-18)
(8.779 7.25461 6.26991e-19)
(9.00566 6.927 9.74525e-18)
(8.97557 8.06972 0)
(9.00843 7.83669 -7.24627e-18)
(9.02638 8.97736 0)
(9.88752 8.35284 7.4189e-18)
(8.34139 10.3992 4.92751e-18)
(9.99017 0.140528 -3.2998e-19)
(9.99512 0.0954617 -7.21741e-19)
(9.97179 0.233236 -2.56006e-20)
(9.98328 0.189782 -3.12515e-19)
(9.94558 0.326965 -1.88789e-18)
(9.96277 0.284508 -1.06138e-18)
(9.91208 0.42341 -1.46717e-18)
(9.93424 0.381277 -8.21597e-19)
(9.87188 0.523979 0)
(9.89889 0.481509 0)
(9.82552 0.629981 8.06106e-19)
(9.85767 0.586566 7.28631e-19)
(9.77342 0.74268 7.7783e-19)
(9.81096 0.697762 -1.42867e-18)
(9.71595 0.863324 1.67133e-18)
(9.75908 0.816366 1.5101e-18)
(9.65352 0.993156 7.66786e-19)
(9.70247 0.943619 1.67113e-18)
(9.58659 1.13344 -3.4103e-18)
(9.64161 1.08076 -7.70706e-20)
(9.51572 1.28551 -1.6395e-18)
(9.57705 1.22908 -1.80217e-18)
(9.44156 1.45081 4.38704e-18)
(9.50942 1.38994 5.68854e-18)
(9.36491 1.63097 1.67741e-18)
(9.43947 1.56486 3.29755e-19)
(9.28668 1.82781 -1.73567e-18)
(9.36817 1.75556 -1.79768e-18)
(9.20791 2.04336 0)
(9.29636 1.96398 0)
(9.12989 2.2799 -1.22091e-20)
(9.22565 2.1923 3.29853e-18)
(9.05418 2.53993 -1.20455e-20)
(9.15743 2.44282 -8.25201e-18)
(8.98276 2.82657 6.23793e-18)
(9.09341 2.7183 9.83915e-18)
(8.91859 3.14366 -8.45539e-19)
(9.03611 3.02207 -9.71771e-19)
(8.86532 3.49548 -7.08144e-18)
(8.98916 3.35821 -7.19535e-18)
(8.8271 3.88686 -1.88455e-20)
(8.95673 3.73127 -1.58027e-18)
(8.80967 4.32377 -8.09505e-19)
(8.94391 4.14644 0)
(8.82035 4.81255 -1.26546e-17)
(8.95804 4.60997 -8.3352e-19)
(8.86833 5.36005 -1.10657e-17)
(9.00669 5.12821 -1.15609e-17)
(8.96431 5.97397 1.75553e-18)
(9.10402 5.70641 5.78712e-19)
(9.11973 6.65729 9.43458e-18)
(9.2469 6.35739 9.21013e-18)
(9.32423 7.42543 2.07787e-18)
(9.5163 7.0529 7.64173e-19)
(9.62932 8.28751 -5.69788e-19)
(9.64488 7.9411 -6.95404e-18)
(9.82112 9.60485 1.2179e-17)
(10.6451 8.62744 7.67549e-18)
(10.3334 11.032 2.96025e-18)
(0.123586 -0.0837854 -3.45945e-21)
(0.0295968 -0.0962025 4.1978e-19)
(0.325055 -0.0885116 -1.38279e-19)
(0.152701 -0.129078 0)
(0.571988 -0.0834215 -3.80802e-20)
(0.382975 -0.129896 -7.36414e-19)
(0.849167 -0.0798495 3.21532e-20)
(0.634528 -0.127327 6.46764e-19)
(1.13372 -0.0773909 3.05682e-20)
(0.901724 -0.124617 -1.06676e-19)
(1.40508 -0.075221 1.27419e-19)
(1.16634 -0.122321 1.54655e-19)
(1.64998 -0.0722089 3.88401e-20)
(1.41025 -0.11843 0)
(1.86279 -0.0678777 1.36557e-20)
(1.62308 -0.11158 3.76685e-20)
(2.04373 -0.0624639 -2.84807e-20)
(1.80204 -0.102242 -3.99739e-20)
(2.19561 -0.0563644 -1.40806e-20)
(1.94912 -0.091414 -1.4619e-20)
(2.32141 -0.0499967 -8.55995e-22)
(2.06807 -0.0796871 5.51892e-22)
(2.42431 -0.0437606 1.00216e-20)
(2.16205 -0.0678685 -5.50384e-22)
(2.50694 -0.0381962 4.54438e-21)
(2.23388 -0.056311 -5.25036e-22)
(2.57321 -0.0336863 0)
(2.28623 -0.0463844 0)
(2.62716 -0.0301167 -3.02548e-21)
(2.32209 -0.0386174 -3.47436e-21)
(2.67155 -0.0276585 1.41995e-21)
(2.34501 -0.0323773 -3.01582e-21)
(2.70783 -0.0269354 4.41411e-21)
(2.35668 -0.0269145 1.03455e-20)
(2.73769 -0.0282306 -3.93189e-23)
(2.35784 -0.0225038 -1.05393e-20)
(2.76454 -0.0308618 1.51738e-21)
(2.3486 -0.0204611 0)
(2.79074 -0.0337253 1.51394e-21)
(2.33516 -0.0201006 -8.55227e-23)
(2.81872 -0.0360138 -8.83191e-22)
(2.32336 -0.0215076 0)
(2.85083 -0.0372572 -8.81643e-22)
(2.31736 -0.0246485 -4.021e-21)
(2.88829 -0.0375576 1.02365e-21)
(2.32173 -0.0287268 6.12313e-21)
(2.93281 -0.0375549 2.75986e-23)
(2.33952 -0.0341029 1.02295e-21)
(2.98733 -0.0381038 -2.07147e-21)
(2.37371 -0.0417231 1.33136e-21)
(3.05666 -0.0401709 -1.05487e-21)
(2.42767 -0.0530384 -2.30006e-21)
(3.14769 -0.04469 -9.22874e-22)
(2.50682 -0.0696262 -1.08786e-21)
(3.26839 -0.0524593 -9.21713e-22)
(2.61777 -0.0923834 -9.50391e-22)
(3.42746 -0.0638334 0)
(2.76643 -0.121983 0)
(3.01292 -0.156892 0)
(0.0311939 -0.156291 4.45338e-19)
(-0.0376713 -0.163071 -3.85185e-19)
(0.19976 -0.193731 -5.3609e-19)
(0.0318632 -0.240392 8.54666e-20)
(0.4291 -0.194494 -1.39901e-19)
(0.241455 -0.250774 -5.57237e-19)
(0.685788 -0.192523 5.2824e-19)
(0.456705 -0.246811 9.74148e-19)
(0.94543 -0.189247 2.41963e-20)
(0.686112 -0.241023 -4.46755e-19)
(1.18686 -0.184025 2.32521e-20)
(0.905559 -0.234396 -3.92512e-19)
(1.39748 -0.174992 0)
(1.09789 -0.223586 5.94888e-19)
(1.57277 -0.161962 -1.85209e-20)
(1.25467 -0.206719 -3.25522e-19)
(1.71423 -0.146256 -2.51236e-20)
(1.37446 -0.185408 6.62934e-21)
(1.82589 -0.128974 -4.80133e-22)
(1.46021 -0.161918 6.27811e-20)