/*--------------------------------*- C++ -*----------------------------------*\
| =========                 |                                                 |
| \\      /  F ield         | OpenFOAM: The Open Source CFD Toolbox           |
|  \\    /   O peration     | Version:  5.x                                   |
|   \\  /    A nd           | Web:      www.OpenFOAM.org                      |
|    \\/     M anipulation  |                                                 |
\*---------------------------------------------------------------------------*/
FoamFile
{
    version     2.0;
    format      ascii;
    class       volVectorField;
    location    "0.8";
    object      U;
}
// * * * * * * * * * * * * * * * * * * * * * * * * * * * * * * * * * * * * * //

dimensions      [0 1 -1 0 0 0 0];

internalField   nonuniform List<vector> 
12013
(
(0.100003 -6.88803e-07 0)
(0.100012 -5.26931e-07 0)
(0.100014 7.07247e-07 0)
(0.0999982 2.98544e-06 0)
(0.0999554 5.91215e-06 0)
(0.0998832 8.8906e-06 0)
(0.0997855 1.13593e-05 0)
(0.0996703 1.29913e-05 0)
(0.0995467 1.37483e-05 0)
(0.0994225 1.38118e-05 0)
(0.0993028 1.34551e-05 0)
(0.0991899 1.29332e-05 0)
(0.099084 1.24231e-05 0)
(0.0989843 1.20145e-05 0)
(0.0988896 1.17296e-05 0)
(0.0987987 1.15495e-05 0)
(0.098711 1.14398e-05 0)
(0.0986258 1.13667e-05 0)
(0.0985431 1.13016e-05 0)
(0.0984628 1.12261e-05 0)
(0.098385 1.11285e-05 0)
(0.0983098 1.10028e-05 0)
(0.0982374 1.08457e-05 0)
(0.098168 1.06567e-05 0)
(0.0981017 1.04349e-05 0)
(0.0980386 1.01808e-05 0)
(0.0979789 9.8937e-06 0)
(0.0979228 9.57408e-06 0)
(0.0978702 9.22184e-06 0)
(0.0978213 8.83695e-06 0)
(0.0977762 8.4203e-06 0)
(0.097735 7.97248e-06 0)
(0.0976978 7.49575e-06 0)
(0.0976645 6.99251e-06 0)
(0.0976352 6.46652e-06 0)
(0.0976098 5.92237e-06 0)
(0.0975884 5.36617e-06 0)
(0.0975709 4.80536e-06 0)
(0.0975571 4.24889e-06 0)
(0.0975468 3.70686e-06 0)
(0.0975399 3.19201e-06 0)
(0.0975361 2.71722e-06 0)
(0.0975351 2.29889e-06 0)
(0.0975365 1.95454e-06 0)
(0.0975399 1.70439e-06 0)
(0.0975446 1.57025e-06 0)
(0.0975503 1.57777e-06 0)
(0.0975561 1.75473e-06 0)
(0.0975614 2.13311e-06 0)
(0.0975654 2.74888e-06 0)
(0.097567 3.64258e-06 0)
(0.0975653 4.86114e-06 0)
(0.0975591 6.45862e-06 0)
(0.0975471 8.49706e-06 0)
(0.0975278 1.10495e-05 0)
(0.0974995 1.42016e-05 0)
(0.0974606 1.8055e-05 0)
(0.0974087 2.27316e-05 0)
(0.0973415 2.83776e-05 0)
(0.0972563 3.51718e-05 0)
(0.0971498 4.33334e-05 0)
(0.0970183 5.31338e-05 0)
(0.0968573 6.49141e-05 0)
(0.0966615 7.91056e-05 0)
(0.0964248 9.6263e-05 0)
(0.0961392 0.000117105 0)
(0.0957955 0.000142582 0)
(0.0953818 0.000173967 0)
(0.0948831 0.000212994 0)
(0.0942803 0.000262073 0)
(0.0935483 0.000324624 0)
(0.0926536 0.000405598 0)
(0.0915507 0.000512341 0)
(0.0901764 0.000656011 0)
(0.0884408 0.000853974 0)
(0.0862141 0.00113392 0)
(0.0833031 0.00154112 0)
(0.0794016 0.00215343 0)
(0.0740307 0.00312844 0)
(0.0666201 0.00490741 0)
(0.0582761 0.00947941 0)
(0.100003 -2.12432e-06 0)
(0.100012 -1.64461e-06 0)
(0.100015 2.12846e-06 0)
(0.0999993 9.10969e-06 0)
(0.0999571 1.80871e-05 0)
(0.0998857 2.72294e-05 0)
(0.0997886 3.48152e-05 0)
(0.0996739 3.98357e-05 0)
(0.0995507 4.21724e-05 0)
(0.0994268 4.23799e-05 0)
(0.0993073 4.12952e-05 0)
(0.0991944 3.96999e-05 0)
(0.0990885 3.81383e-05 0)
(0.0989887 3.68866e-05 0)
(0.0988939 3.6012e-05 0)
(0.098803 3.54588e-05 0)
(0.0987151 3.51221e-05 0)
(0.0986299 3.48965e-05 0)
(0.0985471 3.4697e-05 0)
(0.0984668 3.44657e-05 0)
(0.0983889 3.41675e-05 0)
(0.0983136 3.37833e-05 0)
(0.0982412 3.33041e-05 0)
(0.0981716 3.27268e-05 0)
(0.0981051 3.20501e-05 0)
(0.0980419 3.12742e-05 0)
(0.097982 3.03986e-05 0)
(0.0979256 2.9424e-05 0)
(0.0978727 2.83497e-05 0)
(0.0978235 2.71764e-05 0)
(0.097778 2.59054e-05 0)
(0.0977364 2.45405e-05 0)
(0.0976986 2.30874e-05 0)
(0.0976647 2.15545e-05 0)
(0.0976348 1.99524e-05 0)
(0.0976087 1.82955e-05 0)
(0.0975866 1.66023e-05 0)
(0.0975682 1.48962e-05 0)
(0.0975534 1.32046e-05 0)
(0.0975422 1.1559e-05 0)
(0.0975342 9.99666e-06 0)
(0.0975293 8.55923e-06 0)
(0.097527 7.2957e-06 0)
(0.0975271 6.26007e-06 0)
(0.0975291 5.51378e-06 0)
(0.0975324 5.12472e-06 0)
(0.0975365 5.17059e-06 0)
(0.0975407 5.737e-06 0)
(0.0975443 6.92085e-06 0)
(0.0975465 8.83267e-06 0)
(0.0975463 1.15973e-05 0)
(0.0975427 1.53574e-05 0)
(0.0975346 2.02776e-05 0)
(0.0975207 2.65477e-05 0)
(0.0974995 3.43903e-05 0)
(0.0974694 4.40661e-05 0)
(0.0974286 5.58846e-05 0)
(0.0973751 7.02154e-05 0)
(0.0973064 8.75038e-05 0)
(0.0972198 0.00010829 0)
(0.0971124 0.000133237 0)
(0.0969803 0.000163166 0)
(0.0968194 0.000199102 0)
(0.0966247 0.000242341 0)
(0.0963901 0.000294542 0)
(0.0961084 0.000357852 0)
(0.0957707 0.000435087 0)
(0.0953663 0.000530004 0)
(0.0948814 0.000647686 0)
(0.094299 0.000795134 0)
(0.0935972 0.000982174 0)
(0.0927475 0.00122285 0)
(0.0917128 0.00153762 0)
(0.0904435 0.00195687 0)
(0.0888739 0.00252642 0)
(0.0869169 0.00331616 0)
(0.084459 0.00443262 0)
(0.0813509 0.00603615 0)
(0.077426 0.00836352 0)
(0.0727382 0.0116931 0)
(0.0686403 0.0158936 0)
(0.100003 -3.6797e-06 0)
(0.100012 -2.919e-06 0)
(0.100016 3.51205e-06 0)
(0.100001 1.54652e-05 0)
(0.0999602 3.0872e-05 0)
(0.0998904 4.65933e-05 0)
(0.099795 5.96702e-05 0)
(0.0996817 6.83585e-05 0)
(0.0995596 7.24422e-05 0)
(0.0994364 7.28611e-05 0)
(0.0993172 7.10458e-05 0)
(0.0992045 6.83368e-05 0)
(0.0990985 6.56711e-05 0)
(0.0989986 6.3527e-05 0)
(0.0989037 6.20233e-05 0)
(0.0988126 6.10683e-05 0)
(0.0987246 6.04848e-05 0)
(0.0986393 6.0093e-05 0)
(0.0985565 5.97491e-05 0)
(0.0984761 5.93525e-05 0)
(0.0983981 5.88439e-05 0)
(0.0983228 5.81903e-05 0)
(0.0982502 5.73768e-05 0)
(0.0981805 5.63965e-05 0)
(0.0981138 5.52485e-05 0)
(0.0980503 5.39322e-05 0)
(0.0979901 5.24482e-05 0)
(0.0979333 5.07959e-05 0)
(0.0978799 4.89754e-05 0)
(0.0978301 4.69878e-05 0)
(0.097784 4.48361e-05 0)
(0.0977416 4.25264e-05 0)
(0.097703 4.00686e-05 0)
(0.0976681 3.7477e-05 0)
(0.0976371 3.47704e-05 0)
(0.0976098 3.19738e-05 0)
(0.0975862 2.91196e-05 0)
(0.0975663 2.62473e-05 0)
(0.0975499 2.34037e-05 0)
(0.0975368 2.06436e-05 0)
(0.0975269 1.80303e-05 0)
(0.0975198 1.56368e-05 0)
(0.0975153 1.35457e-05 0)
(0.0975129 1.185e-05 0)
(0.0975122 1.06544e-05 0)
(0.0975127 1.00768e-05 0)
(0.0975139 1.02481e-05 0)
(0.097515 1.1316e-05 0)
(0.0975154 1.34458e-05 0)
(0.0975142 1.68259e-05 0)
(0.0975105 2.16695e-05 0)
(0.0975033 2.82198e-05 0)
(0.0974916 3.67558e-05 0)
(0.0974739 4.76011e-05 0)
(0.097449 6.11318e-05 0)
(0.0974152 7.77896e-05 0)
(0.0973708 9.80971e-05 0)
(0.0973138 0.000122676 0)
(0.097242 0.000152275 0)
(0.0971527 0.000187798 0)
(0.0970431 0.000230352 0)
(0.0969097 0.000281298 0)
(0.0967485 0.000342333 0)
(0.096555 0.000415589 0)
(0.0963238 0.000503771 0)
(0.0960482 0.000610357 0)
(0.0957207 0.000739869 0)
(0.0953318 0.000898258 0)
(0.0948703 0.00109347 0)
(0.0943223 0.00133628 0)
(0.0936711 0.00164143 0)
(0.0928961 0.00202948 0)
(0.0919721 0.00252935 0)
(0.0908696 0.00318204 0)
(0.0895548 0.00404587 0)
(0.0879929 0.00520273 0)
(0.0861575 0.00676347 0)
(0.0840469 0.00886581 0)
(0.0817286 0.0116496 0)
(0.079475 0.0151323 0)
(0.0780177 0.0187016 0)
(0.100003 -5.36331e-06 0)
(0.100012 -4.39132e-06 0)
(0.100017 4.77501e-06 0)
(0.100004 2.19175e-05 0)
(0.0999649 4.40938e-05 0)
(0.0998977 6.67991e-05 0)
(0.099805 8.57646e-05 0)
(0.0996941 9.84536e-05 0)
(0.0995739 0.00010452 0)
(0.099452 0.000105285 0)
(0.0993335 0.000102793 0)
(0.099221 9.89682e-05 0)
(0.099115 9.51665e-05 0)
(0.099015 9.20865e-05 0)
(0.0989198 8.99117e-05 0)
(0.0988286 8.85187e-05 0)
(0.0987405 8.76605e-05 0)
(0.0986552 8.70818e-05 0)
(0.0985723 8.65774e-05 0)
(0.0984919 8.6004e-05 0)
(0.0984139 8.52751e-05 0)
(0.0983386 8.43437e-05 0)
(0.0982659 8.31871e-05 0)
(0.0981962 8.17963e-05 0)
(0.0981293 8.01686e-05 0)
(0.0980656 7.83039e-05 0)
(0.098005 7.62025e-05 0)
(0.0979477 7.38639e-05 0)
(0.0978939 7.12893e-05 0)
(0.0978434 6.84797e-05 0)
(0.0977965 6.54408e-05 0)
(0.0977531 6.2181e-05 0)
(0.0977134 5.87154e-05 0)
(0.0976773 5.50645e-05 0)
(0.0976448 5.12562e-05 0)
(0.0976159 4.73274e-05 0)
(0.0975905 4.33246e-05 0)
(0.0975685 3.93052e-05 0)
(0.0975499 3.53363e-05 0)
(0.0975343 3.14975e-05 0)
(0.0975217 2.78801e-05 0)
(0.0975117 2.45895e-05 0)
(0.097504 2.17443e-05 0)
(0.0974982 1.94786e-05 0)
(0.0974939 1.79428e-05 0)
(0.0974905 1.73059e-05 0)
(0.0974876 1.77559e-05 0)
(0.0974844 1.95043e-05 0)
(0.0974803 2.27885e-05 0)
(0.0974744 2.78772e-05 0)
(0.0974659 3.50745e-05 0)
(0.0974538 4.47268e-05 0)
(0.0974369 5.72314e-05 0)
(0.0974141 7.30463e-05 0)
(0.0973841 9.27041e-05 0)
(0.0973453 0.000116828 0)
(0.097296 0.000146151 0)
(0.0972345 0.000181547 0)
(0.0971585 0.000224057 0)
(0.0970658 0.000274938 0)
(0.0969536 0.000335717 0)
(0.0968189 0.000408265 0)
(0.0966581 0.00049489 0)
(0.0964672 0.000598474 0)
(0.0962417 0.000722636 0)
(0.095976 0.000871973 0)
(0.095664 0.00105238 0)
(0.0952985 0.00127149 0)
(0.0948711 0.00153927 0)
(0.0943723 0.00186892 0)
(0.0937916 0.00227799 0)
(0.0931173 0.00278997 0)
(0.092338 0.00343642 0)
(0.0914437 0.00425947 0)
(0.0904298 0.0053144 0)
(0.0893033 0.00667084 0)
(0.0880946 0.00840865 0)
(0.0868747 0.0106 0)
(0.0857797 0.0132615 0)
(0.0850388 0.0162355 0)
(0.0849393 0.0189272 0)
(0.100003 -7.19504e-06 0)
(0.100013 -6.11696e-06 0)
(0.100018 5.80116e-06 0)
(0.100007 2.8279e-05 0)
(0.0999712 5.7505e-05 0)
(0.0999077 8.75741e-05 0)
(0.0998188 0.000112848 0)
(0.0997115 0.000129932 0)
(0.0995941 0.000138301 0)
(0.0994741 0.000139635 0)
(0.0993567 0.000136592 0)
(0.0992446 0.0001317 0)
(0.0991387 0.000126757 0)
(0.0990385 0.000122707 0)
(0.0989431 0.000119814 0)
(0.0988517 0.000117937 0)
(0.0987636 0.000116763 0)
(0.0986783 0.000115964 0)
(0.0985955 0.000115274 0)
(0.0985152 0.000114505 0)
(0.0984374 0.000113542 0)
(0.0983621 0.000112323 0)
(0.0982896 0.000110817 0)
(0.0982198 0.000109011 0)
(0.0981529 0.000106901 0)
(0.098089 0.000104488 0)
(0.0980282 0.00010177 0)
(0.0979706 9.87496e-05 0)
(0.0979162 9.54268e-05 0)
(0.0978651 9.18051e-05 0)
(0.0978173 8.78916e-05 0)
(0.097773 8.36991e-05 0)
(0.097732 7.92476e-05 0)
(0.0976945 7.45652e-05 0)
(0.0976603 6.969e-05 0)
(0.0976296 6.46714e-05 0)
(0.0976021 5.95714e-05 0)
(0.0975777 5.44657e-05 0)
(0.0975564 4.94444e-05 0)
(0.0975379 4.46121e-05 0)
(0.0975221 4.00904e-05 0)
(0.0975085 3.60177e-05 0)
(0.097497 3.25509e-05 0)
(0.0974871 2.98667e-05 0)
(0.0974784 2.81636e-05 0)
(0.0974704 2.76626e-05 0)
(0.0974625 2.86113e-05 0)
(0.0974541 3.12865e-05 0)
(0.0974445 3.59998e-05 0)
(0.0974329 4.31013e-05 0)
(0.0974186 5.29873e-05 0)
(0.0974005 6.6108e-05 0)
(0.0973775 8.29781e-05 0)
(0.0973487 0.00010419 0)
(0.0973126 0.000130428 0)
(0.097268 0.000162492 0)
(0.0972132 0.000201317 0)
(0.0971466 0.000248012 0)
(0.0970662 0.000303892 0)
(0.09697 0.000370533 0)
(0.0968557 0.000449834 0)
(0.0967205 0.000544105 0)
(0.0965616 0.000656169 0)
(0.0963757 0.000789501 0)
(0.0961592 0.000948418 0)
(0.095908 0.00113831 0)
(0.0956178 0.00136596 0)
(0.0952838 0.00163997 0)
(0.0949009 0.00197127 0)
(0.0944644 0.00237386 0)
(0.0939699 0.00286566 0)
(0.0934145 0.00346958 0)
(0.0927984 0.00421459 0)
(0.0921272 0.00513665 0)
(0.091416 0.00627852 0)
(0.0906952 0.00768698 0)
(0.0900179 0.00940395 0)
(0.0894686 0.0114456 0)
(0.089166 0.0137614 0)
(0.0892479 0.0161634 0)
(0.0897971 0.0182358 0)
(0.100003 -9.19592e-06 0)
(0.100013 -8.16074e-06 0)
(0.100019 6.45028e-06 0)
(0.100011 3.43183e-05 0)
(0.0999791 7.07965e-05 0)
(0.0999204 0.000108572 0)
(0.0998366 0.000140593 0)
(0.099734 0.000162534 0)
(0.0996203 0.000173623 0)
(0.099503 0.000175853 0)
(0.0993871 0.000172473 0)
(0.0992757 0.000166624 0)
(0.0991699 0.00016057 0)
(0.0990696 0.000155527 0)
(0.0989741 0.000151867 0)
(0.0988826 0.000149447 0)
(0.0987945 0.0001479 0)
(0.0987093 0.000146833 0)
(0.0986267 0.000145918 0)
(0.0985467 0.000144925 0)
(0.0984692 0.000143709 0)
(0.0983943 0.00014219 0)
(0.098322 0.000140327 0)
(0.0982524 0.000138104 0)
(0.0981857 0.000135515 0)
(0.0981218 0.00013256 0)
(0.0980609 0.000129238 0)
(0.098003 0.000125551 0)
(0.0979482 0.0001215 0)
(0.0978965 0.000117093 0)
(0.097848 0.000112338 0)
(0.0978026 0.000107253 0)
(0.0977605 0.000101864 0)
(0.0977215 9.62084e-05 0)
(0.0976857 9.03345e-05 0)
(0.0976529 8.43052e-05 0)
(0.0976231 7.82e-05 0)
(0.0975962 7.21139e-05 0)
(0.097572 6.61604e-05 0)
(0.0975503 6.04712e-05 0)
(0.0975308 5.51989e-05 0)
(0.0975134 5.05167e-05 0)
(0.0974976 4.66209e-05 0)
(0.0974831 4.37318e-05 0)
(0.0974694 4.20969e-05 0)
(0.0974562 4.1991e-05 0)
(0.0974427 4.37215e-05 0)
(0.0974285 4.76314e-05 0)
(0.0974128 5.41062e-05 0)
(0.0973949 6.35771e-05 0)
(0.0973741 7.65315e-05 0)
(0.0973494 9.35209e-05 0)
(0.0973198 0.000115173 0)
(0.0972843 0.000142208 0)
(0.0972419 0.000175453 0)
(0.0971911 0.000215871 0)
(0.0971306 0.000264579 0)
(0.097059 0.000322894 0)
(0.0969746 0.000392365 0)
(0.0968757 0.000474834 0)
(0.0967603 0.000572499 0)
(0.0966263 0.000687999 0)
(0.0964716 0.000824522 0)
(0.0962937 0.000985937 0)
(0.0960902 0.00117696 0)
(0.0958585 0.00140337 0)
(0.0955961 0.00167226 0)
(0.0953009 0.00199238 0)
(0.0949712 0.00237451 0)
(0.0946063 0.0028319 0)
(0.0942074 0.00338073 0)
(0.0937783 0.00404057 0)
(0.0933274 0.00483447 0)
(0.0928698 0.00578855 0)
(0.09243 0.00693019 0)
(0.0920455 0.00828373 0)
(0.0917699 0.00986153 0)
(0.0916733 0.011648 0)
(0.0918358 0.0135747 0)
(0.0923254 0.0154886 0)
(0.0931461 0.0171326 0)
(0.100003 -1.13874e-05 0)
(0.100013 -1.05942e-05 0)
(0.100021 6.56435e-06 0)
(0.100016 3.97723e-05 0)
(0.0999884 8.36091e-05 0)
(0.0999354 0.000129382 0)
(0.0998579 0.000168597 0)
(0.0997611 0.000195929 0)
(0.0996522 0.000210262 0)
(0.0995382 0.000213828 0)
(0.0994244 0.000210427 0)
(0.099314 0.000203807 0)
(0.0992086 0.000196717 0)
(0.0991084 0.000190676 0)
(0.0990128 0.000186197 0)
(0.0989213 0.000183162 0)
(0.0988333 0.00018117 0)
(0.0987484 0.000179769 0)
(0.0986662 0.000178577 0)
(0.0985867 0.00017732 0)
(0.0985097 0.000175822 0)
(0.0984353 0.000173985 0)
(0.0983635 0.000171758 0)
(0.0982944 0.000169117 0)
(0.098228 0.000166056 0)
(0.0981643 0.000162571 0)
(0.0981035 0.000158665 0)
(0.0980456 0.000154338 0)
(0.0979905 0.000149596 0)
(0.0979384 0.000144446 0)
(0.0978893 0.000138903 0)
(0.0978431 0.00013299 0)
(0.0977998 0.000126739 0)
(0.0977594 0.000120198 0)
(0.0977219 0.000113427 0)
(0.0976871 0.000106504 0)
(0.097655 9.95271e-05 0)
(0.0976254 9.26109e-05 0)
(0.0975981 8.58938e-05 0)
(0.097573 7.95361e-05 0)
(0.0975498 7.37212e-05 0)
(0.0975283 6.86585e-05 0)
(0.097508 6.45843e-05 0)
(0.0974886 6.17633e-05 0)
(0.0974697 6.04912e-05 0)
(0.0974508 6.10972e-05 0)
(0.0974315 6.39477e-05 0)
(0.0974111 6.94517e-05 0)
(0.0973889 7.8065e-05 0)
(0.0973645 9.02983e-05 0)
(0.0973368 0.000106725 0)
(0.0973053 0.000127991 0)
(0.0972689 0.000154829 0)
(0.0972268 0.000188074 0)
(0.097178 0.00022868 0)
(0.0971212 0.000277749 0)
(0.0970555 0.000336551 0)
(0.0969796 0.000406567 0)
(0.0968921 0.000489526 0)
(0.0967917 0.000587459 0)
(0.096677 0.000702759 0)
(0.0965464 0.000838262 0)
(0.0963986 0.000997336 0)
(0.096232 0.00118399 0)
(0.0960455 0.00140302 0)
(0.0958379 0.00166014 0)
(0.0956087 0.00196218 0)
(0.0953579 0.00231728 0)
(0.0950867 0.00273507 0)
(0.0947979 0.00322687 0)
(0.0944963 0.00380572 0)
(0.0941904 0.00448635 0)
(0.0938928 0.00528463 0)
(0.0936221 0.00621651 0)
(0.0934044 0.00729572 0)
(0.0932743 0.00852976 0)
(0.0932751 0.00991337 0)
(0.0934558 0.0114188 0)
(0.0938631 0.0129839 0)
(0.0945243 0.0145013 0)
(0.0954202 0.0158204 0)
(0.100003 -1.37901e-05 0)
(0.100014 -1.3489e-05 0)
(0.100023 5.98085e-06 0)
(0.100021 4.43639e-05 0)
(0.0999987 9.55563e-05 0)
(0.0999523 0.000149552 0)
(0.099882 0.000196407 0)
(0.099792 0.000229721 0)
(0.0996887 0.00024793 0)
(0.0995789 0.000253393 0)
(0.0994678 0.000250398 0)
(0.0993589 0.000243275 0)
(0.0992542 0.000235273 0)
(0.0991542 0.000228255 0)
(0.0990588 0.00022291 0)
(0.0989675 0.000219181 0)
(0.0988799 0.000216654 0)
(0.0987954 0.000214836 0)
(0.0987138 0.000213298 0)
(0.098635 0.000211723 0)
(0.0985587 0.000209907 0)
(0.0984851 0.000207729 0)
(0.098414 0.000205126 0)
(0.0983455 0.000202068 0)
(0.0982797 0.000198544 0)
(0.0982165 0.00019455 0)
(0.098156 0.000190088 0)
(0.0980982 0.000185161 0)
(0.0980431 0.000179776 0)
(0.0979908 0.000173944 0)
(0.0979411 0.000167686 0)
(0.0978942 0.000161031 0)
(0.0978499 0.000154021 0)
(0.0978082 0.000146713 0)
(0.0977691 0.000139181 0)
(0.0977324 0.00013152 0)
(0.097698 0.000123844 0)
(0.0976657 0.000116293 0)
(0.0976354 0.000109028 0)
(0.0976069 0.00010224 0)
(0.0975799 9.61422e-05 0)
(0.0975541 9.09815e-05 0)
(0.0975292 8.70331e-05 0)
(0.0975048 8.4606e-05 0)
(0.0974805 8.40432e-05 0)
(0.097456 8.57265e-05 0)
(0.0974306 9.00794e-05 0)
(0.0974039 9.75725e-05 0)
(0.0973753 0.000108729 0)
(0.0973442 0.000124131 0)
(0.0973099 0.00014443 0)
(0.0972716 0.000170358 0)
(0.0972287 0.000202736 0)
(0.0971803 0.000242495 0)
(0.0971255 0.000290693 0)
(0.0970636 0.000348535 0)
(0.0969935 0.000417404 0)
(0.0969144 0.000498891 0)
(0.0968252 0.00059483 0)
(0.0967251 0.00070735 0)
(0.0966131 0.000838919 0)
(0.0964884 0.000992411 0)
(0.0963503 0.00117117 0)
(0.0961984 0.0013791 0)
(0.0960324 0.00162072 0)
(0.0958526 0.0019013 0)
(0.0956602 0.00222689 0)
(0.0954569 0.00260444 0)
(0.095246 0.00304176 0)
(0.0950324 0.00354754 0)
(0.0948234 0.00413112 0)
(0.0946291 0.0048021 0)
(0.0944633 0.00556964 0)
(0.0943441 0.00644119 0)
(0.0942942 0.00742055 0)
(0.0943412 0.00850502 0)
(0.0945156 0.00968143 0)
(0.0948479 0.0109213 0)
(0.0953621 0.0121764 0)
(0.096066 0.0133768 0)
(0.096938 0.0144362 0)
(0.100003 -1.64229e-05 0)
(0.100014 -1.69111e-05 0)
(0.100025 4.54812e-06 0)
(0.100026 4.78261e-05 0)
(0.10001 0.000106258 0)
(0.0999703 0.00016862 0)
(0.0999078 0.000223544 0)
(0.0998254 0.00026348 0)
(0.0997286 0.000286285 0)
(0.0996237 0.000294319 0)
(0.0995159 0.000292265 0)
(0.0994091 0.000284995 0)
(0.0993055 0.00027627 0)
(0.0992062 0.000268326 0)
(0.0991112 0.000262079 0)
(0.0990203 0.000257571 0)
(0.0989332 0.000254409 0)
(0.0988494 0.000252078 0)
(0.0987686 0.000250111 0)
(0.0986907 0.000248155 0)
(0.0986154 0.000245974 0)
(0.0985427 0.000243427 0)
(0.0984726 0.000240435 0)
(0.098405 0.00023696 0)
(0.0983399 0.000232987 0)
(0.0982774 0.000228509 0)
(0.0982174 0.000223529 0)
(0.09816 0.000218051 0)
(0.098105 0.000212087 0)
(0.0980526 0.000205653 0)
(0.0980027 0.000198774 0)
(0.0979551 0.000191488 0)
(0.09791 0.000183848 0)
(0.0978671 0.000175921 0)
(0.0978265 0.000167798 0)
(0.0977879 0.00015959 0)
(0.0977513 0.00015143 0)
(0.0977164 0.000143481 0)
(0.0976831 0.000135929 0)
(0.0976512 0.000128993 0)
(0.0976203 0.000122921 0)
(0.0975903 0.000117992 0)
(0.0975609 0.000114521 0)
(0.0975315 0.000112858 0)
(0.097502 0.000113391 0)
(0.0974718 0.000116552 0)
(0.0974405 0.000122817 0)
(0.0974077 0.000132712 0)
(0.0973728 0.000146818 0)
(0.0973353 0.000165783 0)
(0.0972946 0.000190323 0)
(0.0972501 0.000221236 0)
(0.0972011 0.000259416 0)
(0.0971471 0.000305864 0)
(0.0970873 0.000361706 0)
(0.0970212 0.000428213 0)
(0.096948 0.000506827 0)
(0.0968671 0.000599182 0)
(0.096778 0.000707137 0)
(0.0966802 0.000832812 0)
(0.0965732 0.000978621 0)
(0.0964569 0.00114732 0)
(0.0963312 0.00134202 0)
(0.0961967 0.00156629 0)
(0.0960539 0.00182411 0)
(0.0959044 0.00211997 0)
(0.0957503 0.00245879 0)
(0.0955948 0.00284597 0)
(0.0954423 0.00328723 0)
(0.0952987 0.00378846 0)
(0.095172 0.00435541 0)
(0.0950725 0.00499319 0)
(0.0950126 0.0057056 0)
(0.0950077 0.00649409 0)
(0.0950755 0.00735645 0)
(0.0952355 0.00828505 0)
(0.0955073 0.00926496 0)
(0.095908 0.010272 0)
(0.0964484 0.0112716 0)
(0.097128 0.0122198 0)
(0.0979292 0.0130677 0)
(0.100003 -1.92995e-05 0)
(0.100015 -2.09116e-05 0)
(0.100027 2.14348e-06 0)
(0.100031 4.99357e-05 0)
(0.10002 0.00011538 0)
(0.0999882 0.000186169 0)
(0.099934 0.00024955 0)
(0.0998596 0.000296763 0)
(0.09977 0.00032495 0)
(0.0996706 0.000336323 0)
(0.0995668 0.00033584 0)
(0.0994627 0.000328867 0)
(0.0993608 0.000319669 0)
(0.0992625 0.000310895 0)
(0.0991683 0.000303731 0)
(0.0990782 0.000298368 0)
(0.0989919 0.000294468 0)
(0.0989091 0.00029152 0)
(0.0988293 0.000289033 0)
(0.0987525 0.000286623 0)
(0.0986784 0.000284026 0)
(0.0986069 0.000281077 0)
(0.0985379 0.000277683 0)
(0.0984714 0.000273794 0)
(0.0984073 0.00026939 0)
(0.0983456 0.000264462 0)
(0.0982862 0.000259012 0)
(0.0982293 0.000253048 0)
(0.0981746 0.000246584 0)
(0.0981223 0.000239644 0)
(0.0980721 0.00023226 0)
(0.0980241 0.000224479 0)
(0.0979782 0.000216365 0)
(0.0979342 0.000208 0)
(0.0978921 0.000199489 0)
(0.0978518 0.00019096 0)
(0.097813 0.000182568 0)
(0.0977756 0.000174497 0)
(0.0977393 0.00016696 0)
(0.0977041 0.000160203 0)
(0.0976695 0.000154503 0)
(0.0976354 0.000150175 0)
(0.0976014 0.000147568 0)
(0.0975673 0.000147071 0)
(0.0975326 0.000149114 0)
(0.097497 0.000154171 0)
(0.0974601 0.000162764 0)
(0.0974215 0.000175465 0)
(0.0973807 0.000192907 0)
(0.0973372 0.000215784 0)
(0.0972907 0.000244862 0)
(0.0972406 0.000280988 0)
(0.0971865 0.000325098 0)
(0.0971278 0.000378233 0)
(0.0970642 0.000441549 0)
(0.0969951 0.000516335 0)
(0.0969203 0.000604032 0)
(0.0968394 0.000706245 0)
(0.0967522 0.000824772 0)
(0.0966587 0.00096162 0)
(0.0965589 0.00111902 0)
(0.0964532 0.00129946 0)
(0.0963422 0.00150569 0)
(0.096227 0.0017407 0)
(0.096109 0.00200777 0)
(0.0959905 0.0023104 0)
(0.0958743 0.00265224 0)
(0.0957641 0.00303703 0)
(0.0956649 0.00346844 0)
(0.0955828 0.00394981 0)
(0.0955252 0.00448387 0)
(0.0955012 0.00507232 0)
(0.095521 0.00571526 0)
(0.0955965 0.00641055 0)
(0.0957401 0.007153 0)
(0.0959644 0.00793359 0)
(0.0962811 0.00873864 0)
(0.0966988 0.00954944 0)
(0.0972212 0.0103424 0)
(0.0978447 0.0110902 0)
(0.0985566 0.011765 0)
(0.100003 -2.24262e-05 0)
(0.100015 -2.55179e-05 0)
(0.100029 -1.30956e-06 0)
(0.100036 5.05413e-05 0)
(0.10003 0.000122679 0)
(0.100005 0.000201866 0)
(0.099959 0.000274031 0)
(0.099893 0.000329158 0)
(0.0998108 0.00036354 0)
(0.0997176 0.000379075 0)
(0.0996185 0.000380871 0)
(0.0995177 0.000374712 0)
(0.099418 0.000365359 0)
(0.0993214 0.000355899 0)
(0.0992285 0.000347838 0)
(0.0991395 0.000341562 0)
(0.0990543 0.000336832 0)
(0.0989726 0.000333165 0)
(0.0988942 0.000330066 0)
(0.0988187 0.000327128 0)
(0.0987459 0.000324062 0)
(0.0986757 0.000320682 0)
(0.098608 0.000316875 0)
(0.0985426 0.000312582 0)
(0.0984796 0.000307773 0)
(0.0984188 0.000302439 0)
(0.0983603 0.000296581 0)
(0.0983039 0.000290211 0)
(0.0982496 0.000283346 0)
(0.0981973 0.000276019 0)
(0.098147 0.000268269 0)
(0.0980986 0.000260155 0)
(0.0980519 0.000251752 0)
(0.0980069 0.000243159 0)
(0.0979634 0.000234494 0)
(0.0979213 0.000225905 0)
(0.0978804 0.000217568 0)
(0.0978405 0.000209687 0)
(0.0978014 0.000202501 0)
(0.0977629 0.000196282 0)
(0.0977247 0.000191335 0)
(0.0976866 0.000188004 0)
(0.0976483 0.000186672 0)
(0.0976096 0.00018776 0)
(0.09757 0.000191734 0)
(0.0975293 0.000199101 0)
(0.0974872 0.000210421 0)
(0.0974432 0.000226302 0)
(0.097397 0.00024741 0)
(0.0973484 0.000274472 0)
(0.0972968 0.000308282 0)
(0.097242 0.000349709 0)
(0.0971837 0.000399705 0)
(0.0971216 0.000459312 0)
(0.0970553 0.000529674 0)
(0.0969848 0.000612045 0)
(0.09691 0.000707803 0)
(0.0968308 0.000818457 0)
(0.0967473 0.000945657 0)
(0.0966599 0.0010912 0)
(0.0965692 0.00125705 0)
(0.0964758 0.00144529 0)
(0.0963808 0.00165816 0)
(0.0962859 0.00189804 0)
(0.096193 0.00216736 0)
(0.0961045 0.00246857 0)
(0.0960237 0.00280407 0)
(0.0959545 0.00317608 0)
(0.0959015 0.00358645 0)
(0.0958704 0.00403649 0)
(0.0958674 0.00452672 0)
(0.0958999 0.00505653 0)
(0.0959756 0.00562385 0)
(0.0961029 0.00622479 0)
(0.0962898 0.00685326 0)
(0.0965441 0.00750068 0)
(0.0968718 0.00815582 0)
(0.0972767 0.0088049 0)
(0.0977589 0.00943211 0)
(0.0983145 0.0100206 0)
(0.0989341 0.0105542 0)
(0.100003 -2.5801e-05 0)
(0.100015 -3.07306e-05 0)
(0.10003 -5.82896e-06 0)
(0.10004 4.9584e-05 0)
(0.100038 0.00012803 0)
(0.10002 0.000215502 0)
(0.0999817 0.000296702 0)
(0.0999238 0.000360324 0)
(0.0998492 0.000401688 0)
(0.0997625 0.000422223 0)
(0.0996686 0.000427047 0)
(0.0995717 0.000422278 0)
(0.099475 0.000413149 0)
(0.0993806 0.000403202 0)
(0.0992895 0.000394308 0)
(0.099202 0.000387097 0)
(0.0991183 0.000381467 0)
(0.0990381 0.000376997 0)
(0.0989611 0.000373205 0)
(0.0988871 0.000369674 0)
(0.0988158 0.000366095 0)
(0.098747 0.000362259 0)
(0.0986806 0.000358038 0)
(0.0986165 0.000353359 0)
(0.0985546 0.000348187 0)
(0.0984948 0.000342506 0)
(0.0984371 0.00033632 0)
(0.0983812 0.000329642 0)
(0.0983273 0.000322498 0)
(0.0982751 0.000314925 0)
(0.0982246 0.000306975 0)
(0.0981758 0.000298718 0)
(0.0981283 0.000290242 0)
(0.0980822 0.000281659 0)
(0.0980373 0.000273107 0)
(0.0979934 0.000264752 0)
(0.0979504 0.000256786 0)
(0.097908 0.000249439 0)
(0.097866 0.000242968 0)
(0.0978244 0.00023767 0)
(0.0977827 0.000233876 0)
(0.0977408 0.000231955 0)
(0.0976984 0.000232315 0)
(0.0976553 0.000235405 0)
(0.0976112 0.000241715 0)
(0.0975658 0.000251781 0)
(0.0975188 0.000266184 0)
(0.0974701 0.000285555 0)
(0.0974193 0.000310577 0)
(0.0973661 0.000341988 0)
(0.0973104 0.000380587 0)
(0.097252 0.000427237 0)
(0.0971906 0.000482871 0)
(0.0971262 0.000548496 0)
(0.0970588 0.000625197 0)
(0.0969883 0.000714146 0)
(0.096915 0.000816599 0)
(0.096839 0.000933903 0)
(0.0967609 0.00106749 0)
(0.0966812 0.00121889 0)
(0.0966008 0.00138967 0)
(0.0965207 0.00158151 0)
(0.0964424 0.00179607 0)
(0.0963677 0.00203503 0)
(0.0962987 0.0023 0)
(0.0962379 0.00259247 0)
(0.0961886 0.0029137 0)
(0.0961544 0.00326464 0)
(0.0961393 0.00364575 0)
(0.096148 0.00405689 0)
(0.0961856 0.00449712 0)
(0.0962575 0.00496452 0)
(0.0963691 0.00545601 0)
(0.0965259 0.00596718 0)
(0.0967328 0.00649218 0)
(0.0969939 0.00702371 0)
(0.0973121 0.00755305 0)
(0.0976884 0.00807037 0)
(0.0981214 0.00856515 0)
(0.0986075 0.00902687 0)
(0.09914 0.00944594 0)
(0.100003 -2.94134e-05 0)
(0.100015 -3.65219e-05 0)
(0.10003 -1.13722e-05 0)
(0.100043 4.71039e-05 0)
(0.100045 0.000131439 0)
(0.100032 0.000227018 0)
(0.100001 0.00031741 0)
(0.0999507 0.000390017 0)
(0.0998836 0.000439083 0)
(0.0998036 0.000465421 0)
(0.0997153 0.000474024 0)
(0.0996229 0.000471253 0)
(0.0995298 0.000462776 0)
(0.0994382 0.000452602 0)
(0.0993494 0.000442995 0)
(0.0992639 0.000434874 0)
(0.099182 0.000428313 0)
(0.0991035 0.000422985 0)
(0.0990282 0.000418443 0)
(0.0989558 0.000414272 0)
(0.098886 0.00041015 0)
(0.0988187 0.000405851 0)
(0.0987537 0.000401231 0)
(0.0986908 0.000396203 0)
(0.09863 0.000390725 0)
(0.0985711 0.000384778 0)
(0.0985141 0.000378365 0)
(0.0984588 0.000371504 0)
(0.0984051 0.000364227 0)
(0.0983529 0.000356579 0)
(0.0983022 0.000348623 0)
(0.0982527 0.000340441 0)
(0.0982044 0.000332137 0)
(0.0981571 0.000323836 0)
(0.0981107 0.000315693 0)
(0.098065 0.000307891 0)
(0.0980198 0.000300641 0)
(0.0979749 0.00029419 0)
(0.0979302 0.000288818 0)
(0.0978854 0.000284838 0)
(0.0978403 0.000282604 0)
(0.0977948 0.000282502 0)
(0.0977485 0.000284961 0)
(0.0977014 0.000290446 0)
(0.0976531 0.000299465 0)
(0.0976035 0.000312566 0)
(0.0975523 0.00033034 0)
(0.0974995 0.000353421 0)
(0.0974447 0.000382491 0)
(0.0973879 0.000418278 0)
(0.0973291 0.000461559 0)
(0.097268 0.000513162 0)
(0.0972048 0.000573967 0)
(0.0971394 0.000644908 0)
(0.0970721 0.000726972 0)
(0.097003 0.000821199 0)
(0.0969326 0.000928679 0)
(0.0968612 0.00105054 0)
(0.0967897 0.00118797 0)
(0.0967187 0.00134214 0)
(0.0966493 0.00151425 0)
(0.0965829 0.00170548 0)
(0.0965209 0.00191694 0)
(0.0964652 0.00214966 0)
(0.0964179 0.00240451 0)
(0.0963815 0.00268213 0)
(0.0963588 0.0029829 0)
(0.0963529 0.0033068 0)
(0.0963671 0.00365334 0)
(0.0964051 0.00402144 0)
(0.0964707 0.00440939 0)
(0.0965674 0.00481467 0)
(0.0966991 0.00523396 0)
(0.0968689 0.00566304 0)
(0.0970796 0.00609684 0)
(0.0973331 0.00652951 0)
(0.0976303 0.00695454 0)
(0.0979708 0.00736499 0)
(0.0983531 0.00775386 0)
(0.0987737 0.00811448 0)
(0.0992278 0.00844102 0)
(0.100003 -3.32455e-05 0)
(0.100015 -4.28403e-05 0)
(0.100031 -1.78456e-05 0)
(0.100044 4.32282e-05 0)
(0.10005 0.000133035 0)
(0.100042 0.000236491 0)
(0.100016 0.000336142 0)
(0.099973 0.000418109 0)
(0.0999129 0.000475488 0)
(0.0998396 0.000508355 0)
(0.0997572 0.000521452 0)
(0.0996698 0.000521293 0)
(0.0995808 0.000513933 0)
(0.0994925 0.000503841 0)
(0.0994065 0.000493702 0)
(0.0993235 0.000484752 0)
(0.0992437 0.000477281 0)
(0.0991671 0.000471083 0)
(0.0990936 0.000465769 0)
(0.0990229 0.000460942 0)
(0.0989547 0.000456275 0)
(0.0988889 0.00045153 0)
(0.0988252 0.000446549 0)
(0.0987635 0.000441233 0)
(0.0987037 0.000435532 0)
(0.0986456 0.000429426 0)
(0.0985892 0.000422916 0)
(0.0985342 0.000416025 0)
(0.0984807 0.00040879 0)
(0.0984283 0.000401268 0)
(0.0983772 0.000393532 0)
(0.098327 0.000385676 0)
(0.0982777 0.000377818 0)
(0.0982291 0.000370098 0)
(0.0981811 0.000362686 0)
(0.0981335 0.00035578 0)
(0.098086 0.000349609 0)
(0.0980387 0.000344433 0)
(0.0979911 0.000340549 0)
(0.0979433 0.000338286 0)
(0.097895 0.000338008 0)
(0.097846 0.000340117 0)
(0.0977962 0.00034505 0)
(0.0977453 0.000353281 0)
(0.0976933 0.000365321 0)
(0.09764 0.000381716 0)
(0.0975852 0.000403053 0)
(0.097529 0.000429951 0)
(0.0974711 0.000463069 0)
(0.0974117 0.000503101 0)
(0.0973506 0.000550777 0)
(0.097288 0.000606861 0)
(0.097224 0.00067215 0)
(0.0971589 0.000747471 0)
(0.0970929 0.000833678 0)
(0.0970264 0.000931644 0)
(0.0969599 0.00104226 0)
(0.0968942 0.00116641 0)
(0.09683 0.00130498 0)
(0.0967682 0.00145881 0)
(0.0967099 0.0016287 0)
(0.0966567 0.00181538 0)
(0.0966098 0.00201944 0)
(0.0965712 0.00224135 0)
(0.0965428 0.00248136 0)
(0.0965267 0.00273948 0)
(0.0965252 0.00301542 0)
(0.0965409 0.00330852 0)
(0.0965764 0.00361771 0)
(0.0966342 0.00394144 0)
(0.096717 0.00427766 0)
(0.0968273 0.00462378 0)
(0.0969671 0.00497665 0)
(0.0971384 0.0053326 0)
(0.0973424 0.00568749 0)
(0.0975798 0.00603678 0)
(0.0978504 0.00637572 0)
(0.0981534 0.00669945 0)
(0.0984869 0.00700329 0)
(0.0988483 0.0072829 0)
(0.0992341 0.00753467 0)
(0.100003 -3.72743e-05 0)
(0.100014 -4.9618e-05 0)
(0.10003 -2.51195e-05 0)
(0.100045 3.81474e-05 0)
(0.100053 0.000133036 0)
(0.100048 0.000244117 0)
(0.100028 0.00035301 0)
(0.0999904 0.000444588 0)
(0.0999368 0.00051076 0)