/*--------------------------------*- C++ -*----------------------------------*\
| =========                 |                                                 |
| \\      /  F ield         | OpenFOAM: The Open Source CFD Toolbox           |
|  \\    /   O peration     | Version:  2006                                  |
|   \\  /    A nd           | Website:  www.openfoam.com                      |
|    \\/     M anipulation  |                                                 |
\*---------------------------------------------------------------------------*/
FoamFile
{
    version     2.0;
    format      ascii;
    class       volVectorField;
    location    "1";
    object      cellDisplacement;
}
// * * * * * * * * * * * * * * * * * * * * * * * * * * * * * * * * * * * * * //

dimensions      [0 1 0 0 0 0 0];


internalField   nonuniform List<vector> 
2790
(
(0.00276452 5.77421e-06 0)
(0.00778261 1.6555e-05 0)
(0.0124027 2.73038e-05 0)
(0.0167693 3.87647e-05 0)
(0.0209741 5.15752e-05 0)
(0.0250726 6.61748e-05 0)
(0.0290902 8.30953e-05 0)
(0.0330239 0.000102818 0)
(0.0368466 0.000125818 0)
(0.0405106 0.000152549 0)
(0.043952 0.00018333 0)
(0.0470947 0.000218586 0)
(0.0498534 0.000258687 0)
(0.0521383 0.000303967 0)
(0.0538602 0.000354731 0)
(0.0549354 0.000411282 0)
(0.0552904 0.000474074 0)
(0.0548678 0.000544433 0)
(0.0536259 0.000620698 0)
(0.0515464 0.000704591 0)
(0.0486345 0.000797489 0)
(0.0449176 0.0009007 0)
(0.0404475 0.00101596 0)
(0.0352995 0.0011452 0)
(0.0295969 0.00129743 0)
(0.0235013 0.00147863 0)
(0.0172365 0.00170035 0)
(0.0111413 0.00197566 0)
(0.00577205 0.00229051 0)
(0.00228639 0.00249953 0)
(0.00274742 1.72427e-05 0)
(0.00774031 4.94528e-05 0)
(0.0123438 8.1583e-05 0)
(0.0166991 0.000115842 0)
(0.0208969 0.000154177 0)
(0.0249931 0.000197833 0)
(0.0290149 0.000248442 0)
(0.0329598 0.000307441 0)
(0.0368022 0.000376257 0)
(0.0404953 0.0004563 0)
(0.043976 0.000548441 0)
(0.0471703 0.000653994 0)
(0.0499943 0.000774071 0)
(0.0523597 0.000909676 0)
(0.0541789 0.0010617 0)
(0.0553695 0.00123095 0)
(0.055859 0.00141832 0)
(0.0555902 0.00162437 0)
(0.0545275 0.00185062 0)
(0.0526531 0.00209938 0)
(0.0499782 0.00237459 0)
(0.0465362 0.00267963 0)
(0.0423911 0.00301967 0)
(0.0376235 0.00340272 0)
(0.0323631 0.00383829 0)
(0.0268034 0.00433817 0)
(0.0211932 0.00491692 0)
(0.0159295 0.00559156 0)
(0.0117166 0.0063707 0)
(0.00975434 0.00716299 0)
(0.00274806 2.85803e-05 0)
(0.00774634 8.20103e-05 0)
(0.012358 0.000135338 0)
(0.0167263 0.000192169 0)
(0.0209398 0.000255403 0)
(0.0250558 0.000327652 0)
(0.0291066 0.00041145 0)
(0.0330904 0.000509135 0)
(0.0369843 0.000623069 0)
(0.0407426 0.000755791 0)
(0.0443044 0.000908345 0)
(0.0476006 0.00108313 0)
(0.0505503 0.001282 0)
(0.0530687 0.0015066 0)
(0.0550717 0.00175838 0)
(0.0564805 0.00203861 0)
(0.0572263 0.00234823 0)
(0.057254 0.00268723 0)
(0.0565355 0.00306054 0)
(0.0550536 0.00346943 0)
(0.0528335 0.00392203 0)
(0.0499152 0.00442221 0)
(0.0463746 0.00497807 0)
(0.0423261 0.00560162 0)
(0.0379211 0.00630073 0)
(0.0333933 0.00709201 0)
(0.0290321 0.00798803 0)
(0.0252305 0.00899548 0)
(0.0227422 0.0101016 0)
(0.0228615 0.0111673 0)
(0.00275279 3.97245e-05 0)
(0.00776291 0.000114031 0)
(0.0123891 0.000188215 0)
(0.0167742 0.000267168 0)
(0.0210126 0.000354812 0)
(0.0251641 0.000455137 0)
(0.02926 0.000571445 0)
(0.033303 0.000706966 0)
(0.0372748 0.000864914 0)
(0.0411289 0.001048 0)
(0.0448099 0.00125901 0)
(0.0482566 0.0015009 0)
(0.0513915 0.00177612 0)
(0.054135 0.00208692 0)
(0.0564086 0.00243531 0)
(0.058139 0.00282301 0)
(0.0592638 0.00325155 0)
(0.0597363 0.00372244 0)
(0.0595326 0.0042391 0)
(0.0586472 0.00480629 0)
(0.0571042 0.00542945 0)
(0.0549599 0.00611336 0)
(0.0523052 0.00686707 0)
(0.0492768 0.00770238 0)
(0.0460707 0.00863276 0)
(0.0429818 0.00967478 0)
(0.0403685 0.0108323 0)
(0.0386374 0.0120872 0)
(0.0383627 0.0133757 0)
(0.0409825 0.0145359 0)
(0.00276072 5.05485e-05 0)
(0.00778882 0.000145143 0)
(0.0124355 0.000239604 0)
(0.0168452 0.000340039 0)
(0.021118 0.000451684 0)
(0.0253157 0.000579294 0)
(0.0294715 0.000727141 0)
(0.0335918 0.000899291 0)
(0.0376611 0.00109962 0)
(0.0416405 0.00133129 0)
(0.0454822 0.00159886 0)
(0.0491263 0.00190548 0)
(0.0525035 0.00225426 0)
(0.0555414 0.00264805 0)
(0.0581691 0.00308943 0)
(0.0603208 0.00358053 0)
(0.0619419 0.00412334 0)
(0.0629946 0.00472005 0)
(0.0634628 0.00537423 0)
(0.0633549 0.00609114 0)
(0.0627037 0.00687429 0)
(0.0615803 0.00772935 0)
(0.0600968 0.00866529 0)
(0.0584183 0.00969339 0)
(0.0567568 0.0108243 0)
(0.0554293 0.0120656 0)
(0.0549142 0.0134167 0)
(0.0556641 0.0148363 0)
(0.058061 0.0162309 0)
(0.063252 0.0173871 0)
(0.00277134 6.10349e-05 0)
(0.00782379 0.000175304 0)
(0.0124966 0.000289209 0)
(0.0169368 0.000410277 0)
(0.021252 0.000544888 0)
(0.0255058 0.000698607 0)
(0.0297345 0.000876565 0)
(0.0339487 0.00108363 0)
(0.0381379 0.00132443 0)
(0.0422715 0.00160328 0)
(0.0463068 0.00192485 0)
(0.0501905 0.00229314 0)
(0.0538617 0.00271188 0)
(0.057257 0.0031845 0)
(0.0603153 0.00371418 0)
(0.06298 0.00430336 0)
(0.0652065 0.00495427 0)
(0.0669674 0.00566939 0)
(0.0682583 0.00645197 0)
(0.0691034 0.00730783 0)
(0.069542 0.00823924 0)
(0.0696649 0.00925093 0)
(0.0696063 0.0103515 0)
(0.0695761 0.011551 0)
(0.0698136 0.012853 0)
(0.0706152 0.0142561 0)
(0.0724798 0.015749 0)
(0.0760017 0.0172837 0)
(0.0814342 0.0187624 0)
(0.0891358 0.0199165 0)
(0.00278431 7.1123e-05 0)
(0.00786209 0.000204237 0)
(0.012566 0.00033681 0)
(0.0170468 0.000477741 0)
(0.0214123 0.000634293 0)
(0.0257315 0.000812894 0)
(0.0300449 0.00101947 0)
(0.0343683 0.00125964 0)
(0.0386969 0.00153877 0)
(0.0430083 0.001862 0)
(0.0472669 0.00223444 0)
(0.0514276 0.00266071 0)
(0.0554387 0.00314506 0)
(0.0592474 0.00369143 0)
(0.0628053 0.00430376 0)
(0.0660662 0.00498455 0)
(0.0689968 0.00573616 0)
(0.0715826 0.00656114 0)
(0.0738312 0.00746266 0)
(0.0757962 0.00844705 0)
(0.0775151 0.00951272 0)
(0.0791109 0.0106659 0)
(0.0807324 0.0119129 0)
(0.0825876 0.0132567 0)
(0.0849998 0.0146994 0)
(0.0882897 0.0162312 0)
(0.0928335 0.0178251 0)
(0.0993511 0.0194357 0)
(0.108001 0.020961 0)
(0.118352 0.0221195 0)
(0.00279939 8.07105e-05 0)
(0.0079076 0.000231769 0)
(0.0126476 0.000382242 0)
(0.0171735 0.000542045 0)
(0.0215959 0.000719371 0)
(0.0259887 0.000921449 0)
(0.0303969 0.00115493 0)
(0.0348422 0.00142612 0)
(0.0393265 0.00174105 0)
(0.0438356 0.00210555 0)
(0.0483427 0.00252524 0)
(0.0528117 0.00300524 0)
(0.0572009 0.00355015 0)
(0.0614695 0.00416421 0)
(0.0655862 0.00485267 0)
(0.0695145 0.00561753 0)
(0.0732353 0.00646114 0)
(0.0767496 0.00738583 0)
(0.0800929 0.00839648 0)
(0.0833089 0.00949462 0)
(0.086471 0.0106801 0)
(0.0897419 0.0119592 0)
(0.0932827 0.0133321 0)
(0.0973066 0.0147981 0)
(0.102125 0.0163515 0)
(0.108158 0.0179759 0)
(0.115733 0.0196379 0)
(0.125357 0.0212709 0)
(0.137249 0.0227696 0)
(0.150365 0.0238591 0)
(0.00281621 8.97523e-05 0)
(0.00795881 0.000257744 0)
(0.0127384 0.00042503 0)
(0.0173135 0.000602505 0)
(0.0217979 0.000799194 0)
(0.0262701 0.00102305 0)
(0.0307808 0.00128137 0)
(0.0353574 0.00158107 0)
(0.0400092 0.00192876 0)
(0.0447307 0.00233085 0)
(0.0495051 0.00279352 0)
(0.0543062 0.00332228 0)
(0.0591027 0.00392194 0)
(0.0638759 0.0045984 0)
(0.0686008 0.00535583 0)
(0.0732551 0.00619629 0)
(0.0778363 0.00712217 0)
(0.0823641 0.00813617 0)
(0.0869071 0.00924329 0)
(0.091503 0.0104402 0)
(0.0962803 0.0117313 0)
(0.101386 0.0131167 0)
(0.107017 0.014593 0)
(0.113462 0.0161579 0)
(0.120967 0.0177957 0)
(0.129956 0.0194824 0)
(0.140812 0.0211723 0)
(0.153668 0.0227743 0)
(0.16879 0.0241665 0)
(0.184492 0.0250721 0)
(0.00283437 9.82463e-05 0)
(0.00801464 0.00028216 0)
(0.0128374 0.000465204 0)
(0.0174651 0.000659163 0)
(0.0220156 0.000873807 0)
(0.0265724 0.00111773 0)
(0.0311915 0.00139881 0)
(0.035907 0.00172447 0)
(0.0407352 0.00210181 0)
(0.0456806 0.00253774 0)
(0.0507372 0.00303901 0)
(0.0558893 0.00361144 0)
(0.0611214 0.00426056 0)
(0.0664259 0.00499223 0)
(0.0717848 0.00580925 0)
(0.0772074 0.00671581 0)
(0.0827013 0.00771279 0)
(0.0883193 0.00880466 0)
(0.094127 0.00999272 0)
(0.1002 0.0112742 0)
(0.106713 0.0126528 0)
(0.113803 0.0141222 0)
(0.121701 0.0156802 0)
(0.130738 0.0173184 0)
(0.141191 0.0190137 0)
(0.153349 0.0207293 0)
(0.167635 0.0224037 0)
(0.183919 0.023925 0)
(0.202147 0.025135 0)
(0.219967 0.0257803 0)
(0.00285384 0.000106173 0)
(0.00807448 0.000304948 0)
(0.0129431 0.000502642 0)
(0.0176261 0.000711837 0)
(0.0222458 0.000942956 0)
(0.0268905 0.00120515 0)
(0.031622 0.00150679 0)
(0.0364809 0.00185574 0)
(0.0414906 0.00225941 0)
(0.046666 0.00272511 0)
(0.0520134 0.00326031 0)
(0.0575265 0.00387079 0)
(0.0632038 0.00456237 0)
(0.0690455 0.00533999 0)
(0.0750671 0.00620882 0)
(0.0812872 0.00717184 0)
(0.087731 0.00822937 0)
(0.0944743 0.00938491 0)
(0.101595 0.0106372 0)
(0.109227 0.0119866 0)
(0.117528 0.0134314 0)
(0.126717 0.0149643 0)
(0.137062 0.0165808 0)
(0.14882 0.018264 0)
(0.162369 0.019984 0)
(0.177941 0.0216963 0)
(0.195825 0.0233185 0)
(0.215666 0.0247199 0)
(0.236771 0.0257185 0)
(0.256108 0.026136 0)
(0.00287411 0.000113467 0)
(0.00813686 0.00032592 0)
(0.0130529 0.000537037 0)
(0.0177928 0.000760087 0)
(0.022483 0.00100605 0)
(0.0272167 0.00128454 0)
(0.0320619 0.00160436 0)
(0.0370655 0.00197372 0)
(0.0422568 0.00240015 0)
(0.0476666 0.00289197 0)
(0.0533086 0.0034563 0)
(0.0591848 0.00409891 0)
(0.0653108 0.00482609 0)
(0.0717009 0.00564267 0)
(0.0783874 0.00655366 0)
(0.0854037 0.00756116 0)
(0.0927994 0.00866554 0)
(0.100677 0.0098698 0)
(0.109137 0.0111722 0)
(0.118353 0.0125699 0)
(0.128505 0.0140596 0)
(0.139831 0.0156333 0)
(0.152666 0.0172781 0)
(0.167273 0.0189748 0)
(0.184022 0.020689 0)
(0.203232 0.0223678 0)
(0.224835 0.0239142 0)
(0.248318 0.0251921 0)
(0.272134 0.0260263 0)
(0.29262 0.0263178 0)
(0.00289502 0.000120159 0)
(0.00820134 0.00034516 0)
(0.0131662 0.000568529 0)
(0.0179639 0.000804108 0)
(0.0227251 0.00106334 0)
(0.0275479 0.00135621 0)
(0.0325064 0.00169185 0)
(0.037655 0.00207884 0)
(0.0430321 0.00252511 0)
(0.0486736 0.00303886 0)
(0.054599 0.00362662 0)
(0.060831 0.00429513 0)
(0.0673985 0.00505074 0)
(0.0743234 0.00589726 0)
(0.0816624 0.00684033 0)
(0.0894665 0.00788163 0)
(0.097801 0.00902056 0)
(0.106796 0.0102581 0)
(0.116579 0.0115921 0)
(0.12734 0.0130191 0)
(0.139317 0.0145298 0)
(0.152766 0.0161151 0)
(0.168029 0.0177597 0)
(0.185501 0.0194368 0)
(0.205484 0.0211109 0)
(0.228369 0.0227239 0)
(0.253793 0.0241803 0)
(0.281067 0.0253643 0)
(0.307715 0.0261239 0)
(0.329336 0.026362 0)
(0.0029165 0.000126257 0)
(0.00826745 0.000362692 0)
(0.0132819 0.000597152 0)
(0.0181377 0.000843946 0)
(0.0229696 0.00111488 0)
(0.0278796 0.00142018 0)
(0.0329487 0.00176925 0)
(0.0382391 0.00217104 0)
(0.0437947 0.00263344 0)
(0.049656 0.00316426 0)
(0.0558538 0.00377021 0)
(0.062432 0.00445893 0)
(0.0694274 0.0052361 0)
(0.0768717 0.00610489 0)
(0.0848361 0.00707012 0)
(0.0933845 0.0081322 0)
(0.102624 0.00929227 0)
(0.112687 0.0105487 0)
(0.123723 0.0118954 0)
(0.135958 0.0133289 0)
(0.149645 0.0148381 0)
(0.165097 0.0164057 0)
(0.18266 0.0180152 0)
(0.202792 0.019636 0)
(0.225849 0.0212286 0)
(0.252159 0.022735 0)
(0.281355 0.0240803 0)
(0.312642 0.0251988 0)
(0.34276 0.0259939 0)
(0.366048 0.0262777 0)
(0.00293804 0.000131734 0)
(0.0083339 0.000378436 0)
(0.0133979 0.000622788 0)
(0.0183112 0.000879451 0)
(0.0232123 0.0011605 0)
(0.0282051 0.00147622 0)
(0.0333811 0.00183654 0)
(0.0388083 0.00225038 0)
(0.0445339 0.00272542 0)
(0.0506057 0.00326936 0)
(0.0570668 0.00388912 0)
(0.0639699 0.00459191 0)
(0.0713596 0.0053827 0)
(0.0792832 0.00626452 0)
(0.0878318 0.00724203 0)
(0.0970863 0.00831524 0)
(0.107159 0.00948258 0)
(0.118193 0.0107405 0)
(0.130383 0.0120831 0)
(0.143959 0.0135018 0)
(0.159192 0.0149823 0)
(0.176404 0.0165048 0)
(0.196023 0.0180444 0)
(0.218407 0.0195667 0)
(0.244018 0.021026 0)
(0.273075 0.0223646 0)
(0.305325 0.0235307 0)
(0.340264 0.0245354 0)
(0.374669 0.0254908 0)
(0.402586 0.0261758 0)
(0.00231943 -0.00262678 0)
(0.0103494 -0.00274319 0)
(0.0257923 -0.00268425 0)
(0.0462096 -0.00258075 0)
(0.0686546 -0.00245424 0)
(0.0903676 -0.00231235 0)
(0.109403 -0.00215518 0)
(0.124707 -0.00198993 0)
(0.136 -0.00181336 0)
(0.143492 -0.00163844 0)
(0.14761 -0.00147698 0)
(0.14881 -0.00131858 0)
(0.147545 -0.00116889 0)
(0.14424 -0.0010268 0)
(0.139285 -0.000898453 0)
(0.132994 -0.0007822 0)
(0.125659 -0.000675311 0)
(0.117539 -0.000577908 0)
(0.108819 -0.000492935 0)
(0.0997217 -0.000419473 0)
(0.0904079 -0.000350749 0)
(0.0809944 -0.000292104 0)
(0.0715977 -0.000241126 0)
(0.0622589 -0.00019478 0)
(0.0530149 -0.000155578 0)
(0.0438591 -0.00012098 0)
(0.0346926 -9.07979e-05 0)
(0.0253914 -6.37747e-05 0)
(0.0157685 -3.84703e-05 0)
(0.00553403 -1.3193e-05 0)
(0.00981063 -0.00756093 0)
(0.0181279 -0.0078015 0)
(0.0336001 -0.0077485 0)
(0.0535858 -0.00749561 0)
(0.0754241 -0.00713286 0)
(0.0963849 -0.00669351 0)
(0.114574 -0.00622001 0)
(0.129066 -0.00571931 0)
(0.139619 -0.00520469 0)
(0.146464 -0.00470614 0)
(0.150026 -0.00423496 0)
(0.150735 -0.00377686 0)
(0.149064 -0.00334944 0)
(0.145416 -0.00294982 0)
(0.14017 -0.00258448 0)
(0.133642 -0.002253 0)
(0.126106 -0.00194877 0)
(0.117826 -0.00167826 0)
(0.108981 -0.00143457 0)
(0.099782 -0.00121664 0)
(0.0903988 -0.00102301 0)
(0.0809232 -0.000850975 0)
(0.0714832 -0.000701399 0)
(0.0621362 -0.000570024 0)
(0.0528827 -0.000454781 0)
(0.0437299 -0.000354785 0)
(0.0345938 -0.000266626 0)
(0.0253186 -0.00018688 0)
(0.0157259 -0.000112481 0)
(0.00553004 -3.88117e-05 0)
(0.0229056 -0.0118207 0)
(0.0325154 -0.0122447 0)
(0.0483689 -0.012215 0)
(0.0679249 -0.0118701 0)
(0.0888217 -0.0113276 0)
(0.108474 -0.0106411 0)
(0.125179 -0.00987091 0)
(0.13821 -0.00907923 0)
(0.147405 -0.00827438 0)
(0.153025 -0.0074838 0)
(0.155519 -0.00673502 0)
(0.155309 -0.00601588 0)
(0.152858 -0.00534269 0)
(0.148559 -0.00471888 0)
(0.142749 -0.00414098 0)
(0.135762 -0.00361785 0)
(0.127827 -0.00313695 0)
(0.119211 -0.00270511 0)
(0.110103 -0.0023161 0)
(0.100678 -0.00196535 0)
(0.0911134 -0.00165596 0)
(0.0814922 -0.0013805 0)
(0.0719245 -0.00113722 0)
(0.0624826 -0.000925789 0)
(0.0531554 -0.000740194 0)
(0.0439376 -0.000577346 0)
(0.0347538 -0.000434252 0)
(0.0254419 -0.000304994 0)
(0.0158067 -0.0001837 0)
(0.00555991 -6.34987e-05 0)
(0.0410219 -0.0154041 0)
(0.0523114 -0.0159962 0)
(0.0686563 -0.0160087 0)
(0.0878214 -0.0156258 0)
(0.107425 -0.0149324 0)
(0.125316 -0.0140574 0)
(0.139986 -0.0130524 0)
(0.151008 -0.01201 0)
(0.158324 -0.0109646 0)
(0.162256 -0.00993401 0)
(0.163267 -0.00894724 0)
(0.161801 -0.00801135 0)
(0.158257 -0.00712838 0)
(0.153052 -0.00631298 0)
(0.146457 -0.00555342 0)
(0.138803 -0.00486009 0)
(0.130323 -0.0042258 0)
(0.121232 -0.00364778 0)
(0.111748 -0.00312935 0)
(0.101999 -0.00266024 0)
(0.0921623 -0.00224394 0)
(0.0823387 -0.0018741 0)
(0.0725903 -0.00154611 0)
(0.0629979 -0.0012594 0)
(0.0535667 -0.00100861 0)
(0.0442561 -0.000787983 0)
(0.0349901 -0.000593369 0)
(0.0256139 -0.000417369 0)
(0.0159165 -0.000251882 0)
(0.00560079 -8.72047e-05 0)
(0.0632744 -0.0184446 0)
(0.0763783 -0.0191375 0)
(0.0933714 -0.0191882 0)
(0.112047 -0.0187598 0)
(0.130077 -0.0179476 0)
(0.145782 -0.0169098 0)
(0.158029 -0.0157285 0)
(0.166612 -0.0144909 0)
(0.171629 -0.0132463 0)
(0.173566 -0.0120312 0)
(0.172792 -0.0108567 0)
(0.169813 -0.0097465 0)
(0.164955 -0.00869442 0)
(0.158624 -0.00771701 0)
(0.151088 -0.00680833 0)
(0.142608 -0.0059681 0)
(0.133459 -0.00520219 0)
(0.123789 -0.00449992 0)
(0.113819 -0.00386649 0)
(0.103683 -0.00329472 0)
(0.0935092 -0.00278202 0)
(0.0834168 -0.00232728 0)
(0.0734544 -0.00192442 0)
(0.0636767 -0.00156964 0)
(0.0540945 -0.00125901 0)
(0.0446634 -0.00098577 0)
(0.0352943 -0.000743479 0)
(0.0258314 -0.000523725 0)
(0.0160526 -0.00031654 0)
(0.00565098 -0.00010974 0)
(0.0891606 -0.021157 0)
(0.104049 -0.021827 0)
(0.121639 -0.0218337 0)
(0.139543 -0.0213141 0)
(0.155689 -0.0203885 0)
(0.168848 -0.0192163 0)
(0.178333 -0.0178994 0)
(0.184173 -0.0165188 0)
(0.186668 -0.0151299 0)
(0.186352 -0.0137722 0)
(0.183605 -0.0124592 0)
(0.178911 -0.0112115 0)
(0.172597 -0.010031 0)
(0.164993 -0.00892367 0)
(0.156395 -0.00789421 0)
(0.146995 -0.00693644 0)
(0.137065 -0.00605881 0)
(0.126757 -0.00525478 0)
(0.116232 -0.00452238 0)
(0.105649 -0.00386187 0)
(0.0950966 -0.00326746 0)
(0.0846841 -0.00273836 0)
(0.0744648 -0.00226912 0)
(0.0644767 -0.00185498 0)
(0.0547189 -0.00149073 0)
(0.0451439 -0.00116948 0)
(0.0356535 -0.000883522 0)
(0.0260864 -0.000623303 0)
(0.0162106 -0.000377231 0)
(0.00570863 -0.000130938 0)
(0.118375 -0.0235341 0)
(0.1348 -0.0240811 0)
(0.15265 -0.0239603 0)
(0.169339 -0.023313 0)
(0.183221 -0.0222777 0)
(0.193495 -0.020998 0)
(0.199961 -0.019583 0)
(0.202871 -0.0181044 0)
(0.20272 -0.0166215 0)
(0.199998 -0.0151636 0)
(0.195183 -0.0137557 0)
(0.188662 -0.0124083 0)
(0.180797 -0.0111323 0)
(0.171847 -0.00992854 0)
(0.162119 -0.00880693 0)
(0.151763 -0.00776074 0)
(0.140993 -0.00679315 0)
(0.129999 -0.00590632 0)
(0.11889 -0.00509508 0)
(0.10781 -0.00436056 0)
(0.0968499 -0.00369868 0)
(0.0860926 -0.00310672 0)
(0.07559 -0.00258014 0)
(0.0653678 -0.00211394 0)
(0.0554163 -0.00170233 0)
(0.0456808 -0.00133809 0)
(0.0360553 -0.00101266 0)
(0.0263706 -0.000715488 0)
(0.0163857 -0.000433578 0)
(0.005772 -0.000150663 0)
(0.15039 -0.0254349 0)
(0.16792 -0.0258102 0)
(0.18552 -0.0255373 0)
(0.200478 -0.0247672 0)
(0.211688 -0.0236426 0)
(0.218791 -0.0222877 0)
(0.222053 -0.0208095 0)
(0.22193 -0.0192727 0)
(0.219051 -0.0177334 0)
(0.213903 -0.0162176 0)
(0.206988 -0.0147513 0)
(0.198632 -0.013342 0)
(0.189213 -0.0120048 0)
(0.178915 -0.0107368 0)
(0.168016 -0.00954773 0)
(0.156696 -0.00843813 0)
(0.145095 -0.0074061 0)
(0.133386 -0.00645552 0)
(0.121681 -0.00558421 0)
(0.110092 -0.00479144 0)
(0.0987051 -0.00407463 0)
(0.0875897 -0.00343088 0)
(0.0767894 -0.00285613 0)
(0.0663204 -0.00234545 0)
(0.0561639 -0.00189283 0)
(0.0462575 -0.00149081 0)
(0.0364872 -0.00113026 0)
(0.0266759 -0.000799806 0)
(0.016573 -0.000485285 0)
(0.00583938 -0.000168803 0)
(0.184519 -0.0268132 0)
(0.202579 -0.0269861 0)
(0.219356 -0.0265809 0)
(0.232062 -0.0257187 0)
(0.24019 -0.0245305 0)
(0.243883 -0.0231298 0)
(0.243824 -0.0216181 0)
(0.240639 -0.0200557 0)
(0.235054 -0.0184939 0)
(0.227527 -0.0169553 0)
(0.218577 -0.0154651 0)
(0.208454 -0.0140275 0)
(0.197495 -0.0126561 0)
(0.185922 -0.0113553 0)
(0.1739 -0.0101263 0)
(0.16162 -0.00897437 0)
(0.149212 -0.00790026 0)
(0.136806 -0.00690576 0)
(0.124508 -0.00599065 0)
(0.112414 -0.00515431 0)
(0.1006 -0.00439503 0)
(0.0891257 -0.00371027 0)
(0.0780248 -0.00309644 0)
(0.067305 -0.00254888 0)
(0.0569392 -0.00206162 0)
(0.0468573 -0.00162712 0)
(0.0369373 -0.00123588 0)
(0.0269941 -0.000875921 0)
(0.0167679 -0.000532133 0)
(0.00590911 -0.000185275 0)
(0.219986 -0.0276665 0)
(0.238023 -0.0276817 0)
(0.253374 -0.0271824 0)
(0.26325 -0.0262465 0)
(0.267874 -0.0250053 0)
(0.267952 -0.0235742 0)
(0.264532 -0.0220502 0)
(0.25834 -0.0204882 0)
(0.250172 -0.0189334 0)
(0.240413 -0.0174025 0)
(0.229514 -0.015915 0)
(0.217778 -0.0144813 0)
(0.205403 -0.0131046 0)
(0.192615 -0.0117926 0)
(0.179563 -0.0105488 0)
(0.166389 -0.0093772 0)
(0.153214 -0.00828017 0)
(0.140146 -0.0072596 0)
(0.127281 -0.00631628 0)
(0.114703 -0.00545022 0)
(0.102477 -0.00466045 0)
(0.090654 -0.00394505 0)
(0.0792597 -0.00330101 0)
(0.0682937 -0.00272405 0)
(0.057721 -0.00220847 0)
(0.0474643 -0.00174677 0)
(0.037394 -0.00132928 0)
(0.0273173 -0.000943634 0)
(0.0169657 -0.000573986 0)
(0.00597959 -0.000200027 0)
(0.256126 -0.0281482 0)
(0.273703 -0.0280609 0)
(0.28686 -0.0274609 0)
(0.293165 -0.0264281 0)
(0.293851 -0.0251215 0)
(0.290189 -0.0236637 0)
(0.28348 -0.0221435 0)
(0.274476 -0.0206042 0)
(0.263871 -0.0190788 0)
(0.25213 -0.0175855 0)
(0.239512 -0.0161292 0)
(0.226307 -0.0147195 0)
(0.21269 -0.013362 0)
(0.198825 -0.0120622 0)
(0.184842 -0.0108247 0)
(0.170859 -0.00965335 0)
(0.156983 -0.00855129 0)
(0.143308 -0.00752098 0)
(0.129921 -0.006564 0)
(0.116893 -0.00568115 0)
(0.104283 -0.00487224 0)
(0.0921323 -0.00413609 0)
(0.0804608 -0.00347033 0)
(0.0692605 -0.00287123 0)
(0.0584896 -0.00233346 0)
(0.0480638 -0.00184975 0)
(0.0378467 -0.00141042 0)
(0.0276384 -0.00100288 0)
(0.0171623 -0.000610788 0)
(0.00604937 -0.000213033 0)
(0.292632 -0.0284363 0)
(0.309161 -0.0282407 0)
(0.318917 -0.0274709 0)
(0.320744 -0.0262895 0)
(0.317129 -0.0248995 0)
(0.309773 -0.0234221 0)
(0.299961 -0.0219231 0)
(0.288499 -0.0204333 0)
(0.275828 -0.0189644 0)
(0.262353 -0.0175257 0)
(0.2483 -0.0161224 0)
(0.233861 -0.0147598 0)
(0.219181 -0.0134428 0)
(0.20439 -0.0121761 0)
(0.189599 -0.0109641 0)
(0.174912 -0.00981085 0)
(0.16042 -0.00872009 0)
(0.14621 -0.00769489 0)
(0.132357 -0.00673764 0)
(0.118926 -0.00584994 0)
(0.10597 -0.00503247 0)
(0.0935232 -0.00428483 0)
(0.0815987 -0.0036054 0)
(0.0701826 -0.00299107 0)
(0.0592274 -0.00243702 0)
(0.0486427 -0.00193631 0)
(0.038286 -0.00147944 0)
(0.0279509 -0.00105372 0)
(0.0173537 -0.000642562 0)
(0.00611713 -0.000224294 0)
(0.329352 -0.0285786 0)
(0.343543 -0.0282058 0)
(0.348059 -0.0271588 0)
(0.344599 -0.0257898 0)
(0.336592 -0.0243254 0)
(0.325946 -0.0228571 0)
(0.313563 -0.0214086 0)
(0.300055 -0.0199884 0)
(0.285761 -0.0185982 0)
(0.270926 -0.0172388 0)
(0.255721 -0.0159112 0)
(0.240286 -0.0146177 0)
(0.22474 -0.0133616 0)
(0.209189 -0.0121468 0)
(0.19373 -0.0109777 0)
(0.178454 -0.00985866 0)
(0.163445 -0.00879388 0)
(0.148781 -0.00778718 0)
(0.134532 -0.00684177 0)
(0.120756 -0.00596013 0)
(0.107501 -0.0051438 0)
(0.0947954 -0.00439325 0)
(0.0826482 -0.00370765 0)
(0.0710405 -0.0030846 0)
(0.0599195 -0.00251986 0)
(0.0491898 -0.00200694 0)
(0.0387038 -0.00153663 0)
(0.0282494 -0.00109635 0)
(0.0175367 -0.000669406 0)
(0.00618175 -0.000233841 0)
(0.366061 -0.0285697 0)
(0.374854 -0.0278247 0)
(0.371853 -0.0263745 0)
(0.363184 -0.0248372 0)
(0.351539 -0.0233489 0)
(0.338298 -0.0219327 0)
(0.324029 -0.0205768 0)
(0.309051 -0.0192661 0)
(0.293567 -0.0179888 0)
(0.27773 -0.0167382 0)
(0.261665 -0.0155115 0)
(0.245479 -0.014309 0)
(0.229272 -0.0131331 0)
(0.213135 -0.0119876 0)
(0.197156 -0.0108771 0)
(0.181417 -0.00980651 0)
(0.165998 -0.00878075 0)
(0.150972 -0.00780445 0)
(0.136402 -0.00688169 0)
(0.122345 -0.00601587 0)
(0.108844 -0.00520946 0)
(0.0959236 -0.00446381 0)
(0.0835894 -0.00377893 0)
(0.0718184 -0.00315317 0)
(0.0605538 -0.00258296 0)
(0.0496962 -0.00206233 0)
(0.0390936 -0.00158248 0)
(0.0285294 -0.00113107 0)
(0.0177089 -0.000691488 0)
(0.00624237 -0.000241729 0)
(0.402592 -0.0285147 0)
(0.3994 -0.0266031 0)
(0.38837 -0.0247179 0)
(0.375518 -0.0231641 0)
(0.361535 -0.0218112 0)
(0.346743 -0.0205745 0)
(0.331331 -0.0194026 0)
(0.315445 -0.0182658 0)
(0.299204 -0.0171478 0)
(0.282715 -0.0160404 0)
(0.266078 -0.0149412 0)
(0.249384 -0.0138511 0)
(0.232722 -0.0127733 0)
(0.216175 -0.0117126 0)
(0.199826 -0.0106745 0)
(0.183755 -0.00966483 0)
(0.168038 -0.0086894 0)
(0.152743 -0.00775383 0)
(0.137935 -0.00686318 0)
(0.123666 -0.00602179 0)
(0.109976 -0.0052331 0)
(0.0968893 -0.00449934 0)
(0.0844073 -0.0038214 0)
(0.0725045 -0.00319841 0)
(0.0611213 -0.00262751 0)
(0.0501551 -0.00210335 0)
(0.0394506 -0.00161759 0)
(0.0287877 -0.00115827 0)
(0.0178683 -0.00070904 0)
(0.00629838 -0.000248037 0)
(0.00295992 0.000136727 0)
(0.00840173 0.000392796 0)
(0.0135164 0.000646104 0)
(0.0184875 0.000911555 0)
(0.0234572 0.00120142 0)
(0.0285351 0.0015262 0)
(0.0338134 0.00189568 0)
(0.0393663 0.00231859 0)
(0.0452533 0.00280311 0)
(0.051524 0.00335627 0)
(0.0582279 0.0039846 0)
(0.0654328 0.00469546 0)
(0.0731935 0.00549343 0)
(0.0815669 0.00638095 0)
(0.0906558 0.0073613 0)
(0.100542 0.00843252 0)
(0.111367 0.00959342 0)
(0.123288 0.0108392 0)
(0.136499 0.0121586 0)
(0.151236 0.0135415 0)
(0.1678 0.0149684 0)
(0.186483 0.0164157 0)
(0.207707 0.0178488 0)
(0.231743 0.0192257 0)
(0.259043 0.0204901 0)
(0.289506 0.0215706 0)
(0.322757 0.0223744 0)
(0.357515 0.0227693 0)
(0.389448 0.0224779 0)
(0.411327 0.020772 0)
(0.00298053 0.000141169 0)
(0.00846714 0.000405612 0)
(0.0136316 0.000666865 0)
(0.0186587 0.000939916 0)
(0.023694 0.00123714 0)
(0.0288506 0.00156906 0)
(0.0342206 0.00194504 0)
(0.0398926 0.00237449 0)
(0.0459312 0.00286525 0)
(0.0523857 0.00342359 0)
(0.0593178 0.00405609 0)
(0.0667971 0.004769 0)
(0.0748823 0.00556583 0)
(0.0836591 0.00645005 0)
(0.0932263 0.00742343 0)
(0.103681 0.0084825 0)
(0.115156 0.00962253 0)
(0.127825 0.0108387 0)
(0.141886 0.0121172 0)
(0.157569 0.0134427 0)
(0.175138 0.0147918 0)
(0.194886 0.0161345 0)
(0.21711 0.0174287 0)
(0.242022 0.0186218 0)
(0.269758 0.019642 0)
(0.299867 0.0204023 0)
(0.331487 0.0207756 0)
(0.36223 0.0206142 0)
(0.388342 0.0197142 0)
(0.406116 0.0176351 0)
(0.00299739 0.000144872 0)
(0.00852453 0.000416452 0)
(0.0137356 0.000684422 0)
(0.0188136 0.000963637 0)
(0.0239082 0.00126655 0)
(0.0291354 0.00160357 0)
(0.0345923 0.00198407 0)
(0.04037 0.00241711 0)
(0.0465361 0.00291002 0)
(0.0531496 0.00346907 0)
(0.0602743 0.00409997 0)
(0.0679881 0.00480853 0)
(0.076363 0.00559838 0)
(0.0854763 0.00647022 0)
(0.0954361 0.0074253 0)
(0.106356 0.00846091 0)
(0.11835 0.00956756 0)
(0.131606 0.010739 0)
(0.146297 0.0119594 0)
(0.162631 0.0132075 0)
(0.180816 0.0144583 0)
(0.201109 0.0156745 0)
(0.223651 0.0168083 0)
(0.248497 0.0177984 0)
(0.27545 0.0185677 0)
(0.303755 0.0190215 0)
(0.332057 0.0190453 0)
(0.358127 0.0185156 0)
(0.379621 0.0172025 0)
(0.394183 0.0146983 0)
(0.0030157 0.00014809 0)
(0.00857736 0.000425471 0)
(0.0138234 0.000698514 0)
(0.0189447 0.00098233 0)
(0.0240905 0.00128917 0)
(0.0293764 0.00162913 0)
(0.0349024 0.00201128 0)
(0.0407667 0.00244467 0)
(0.0470401 0.00293619 0)
(0.0537836 0.00349155 0)
(0.0610723 0.00411639 0)
(0.0689721 0.0048142 0)
(0.0775672 0.0055886 0)
(0.0869491 0.00644096 0)
(0.0972036 0.00736786 0)
(0.108458 0.00836753 0)
(0.12083 0.00942949 0)
(0.134469 0.0105421 0)
(0.149538 0.0116904 0)
(0.166177 0.0128458 0)
(0.184554 0.0139821 0)
(0.204854 0.0150587 0)
(0.227036 0.0160257 0)
(0.250982 0.0168166 0)
(0.276242 0.0173627 0)
(0.301882 0.0175758 0)
(0.326613 0.0173649 0)
(0.34877 0.0166121 0)
(0.366622 0.0151333 0)
(0.378747 0.0127232 0)
(0.00302776 0.000150438 0)
(0.00861509 0.000432093 0)
(0.0138873 0.000708679 0)
(0.0190425 0.000995471 0)
(0.0242293 0.00130442 0)
(0.0295599 0.00164507 0)
(0.035143 0.00202666 0)
(0.0410741 0.00245741 0)
(0.0474185 0.00294312 0)
(0.0542559 0.00349011 0)
(0.0616656 0.00410375 0)
(0.0697054 0.00478573 0)
(0.0784475 0.00553737 0)
(0.0879992 0.00636086 0)
(0.0984464 0.00725184 0)
(0.109906 0.00820591 0)
(0.122486 0.00921245 0)
(0.136274 0.0102543 0)
(0.151429 0.0113172 0)
(0.168051 0.0123719 0)
(0.186231 0.0133869 0)
(0.206011 0.0143212 0)
(0.227253 0.0151268 0)
(0.249685 0.0157428 0)
(0.272732 0.0161088 0)
(0.295539 0.0161509 0)
(0.316993 0.0157928 0)
(0.335883 0.0149385 0)
(0.350934 0.0134909 0)
(0.361202 0.0113715 0)
(0.00303274 0.000151874 0)
(0.00863551 0.000436249 0)
(0.0139294 0.000715128 0)
(0.0191068 0.00100321 0)
(0.024316 0.00131204 0)
(0.0296717 0.00165092 0)
(0.0352881 0.00202899 0)
(0.041262 0.00245409 0)
(0.0476578 0.00293123 0)
(0.0545447 0.00346516 0)
(0.0620163 0.00406169 0)
(0.070137 0.00472222 0)
(0.0789534 0.00544527 0)
(0.0885843 0.00623272 0)
(0.0991043 0.00707943 0)
(0.110616 0.00797918 0)
(0.123211 0.0089206 0)
(0.136931 0.0098844 0)
(0.151912 0.0108543 0)
(0.168194 0.0118024 0)
(0.18579 0.0126951 0)
(0.204646 0.0134956 0)
(0.22453 0.0141561 0)
(0.245106 0.0146275 0)
(0.265815 0.0148552 0)
(0.285902 0.0147812 0)
(0.30448 0.0143467 0)
(0.320573 0.0134866 0)
(0.333383 0.0121724 0)
(0.342216 0.0103783 0)
(0.00302891 0.00015233 0)
(0.00863373 0.000437744 0)
(0.013936 0.00071722 0)
(0.0191218 0.00100478 0)
(0.0243404 0.00131169 0)
(0.0297081 0.00164695 0)
(0.0353303 0.00201859 0)
(0.0413126 0.00243451 0)
(0.0477259 0.00289961 0)
(0.0546222 0.00341677 0)
(0.0621043 0.00399158 0)
(0.0702336 0.00462486 0)
(0.0790468 0.00531379 0)
(0.0886563 0.00605893 0)
(0.0991246 0.00685447 0)
(0.110536 0.00769279 0)
(0.122961 0.00856219 0)
(0.136407 0.00944258 0)
(0.150963 0.010316 0)
(0.16663 0.0111575 0)
(0.183334 0.0119332 0)
(0.200961 0.0126102 0)
(0.219264 0.013147 0)
(0.237875 0.0135005 0)
(0.256281 0.0136265 0)
(0.273842 0.0134813 0)
(0.289881 0.0130221 0)
(0.303655 0.0122183 0)
(0.314588 0.0110671 0)
(0.322238 0.00957296 0)
(0.00302268 0.000152149 0)
(0.00861386 0.000436841 0)
(0.0139019 0.000714807 0)
(0.0190806 0.00100008 0)
(0.0242928 0.0013032 0)
(0.0296497 0.00163248 0)
(0.0352551 0.00199537 0)
(0.0412169 0.0023993 0)
(0.047605 0.00284866 0)
(0.0544666 0.00334545 0)
(0.0619012 0.00389426 0)
(0.0699658 0.00449536 0)
(0.0786953 0.00514555 0)
(0.0881831 0.00584319 0)
(0.0984774 0.00658232 0)
(0.10964 0.0073539 0)
(0.121721 0.00814698 0)
(0.13471 0.00894207 0)
(0.148628 0.00971967 0)
(0.163441 0.0104572 0)
(0.179051 0.0111248 0)
(0.195295 0.0116914 0)
(0.211917 0.0121222 0)
(0.228565 0.0123819 0)
(0.244789 0.0124358 0)
(0.260069 0.0122522 0)
(0.273848 0.0118029 0)
(0.28564 0.0110823 0)
(0.294998 0.0100934 0)
(0.301634 0.00885486 0)
(0.00300589 0.000150948 0)
(0.008565 0.00043307 0)
(0.0138294 0.000708177 0)
(0.0189854 0.000989469 0)
(0.0241648 0.0012865 0)
(0.0294861 0.00160756 0)
(0.035051 0.00195951 0)
(0.0409592 0.00234871 0)
(0.0472783 0.00277903 0)
(0.0540592 0.00325229 0)
(0.0613876 0.00377139 0)
(0.0693107 0.0043359 0)
(0.0778771 0.00494331 0)
(0.0871504 0.00559029 0)
(0.0971567 0.00626973 0)
(0.107937 0.00697224 0)
(0.119516 0.0076868 0)
(0.13188 0.00839632 0)
(0.145004 0.00908172 0)
(0.158821 0.00972118 0)
(0.173211 0.0102891 0)
(0.187995 0.0107582 0)
(0.202922 0.0110998 0)
(0.217674 0.0112858 0)
(0.231872 0.0112904 0)
(0.245092 0.0110896 0)
(0.256915 0.0106717 0)
(0.266978 0.0100383 0)
(0.274978 0.00919672 0)
(0.280716 0.00816881 0)
(0.00297955 0.000148819 0)
(0.00849284 0.000426854 0)
(0.0137138 0.000697288 0)
(0.0188229 0.000972569 0)
(0.0239479 0.00126162 0)
(0.029207 0.00157227 0)
(0.0347064 0.00191125 0)
(0.0405295 0.00228347 0)
(0.0467315 0.0026916 0)
(0.0533857 0.00313852 0)
(0.0605554 0.00362543 0)
(0.0682755 0.00415089 0)