/*--------------------------------*- C++ -*----------------------------------*\
| =========                 |                                                 |
| \\      /  F ield         | OpenFOAM: The Open Source CFD Toolbox           |
|  \\    /   O peration     | Version:  2006                                  |
|   \\  /    A nd           | Website:  www.openfoam.com                      |
|    \\/     M anipulation  |                                                 |
\*---------------------------------------------------------------------------*/
FoamFile
{
    version     2.0;
    format      ascii;
    class       pointVectorField;
    location    "1";
    object      pointDisplacement;
}
// * * * * * * * * * * * * * * * * * * * * * * * * * * * * * * * * * * * * * //

dimensions      [0 1 0 0 0 0 0];


internalField   nonuniform List<vector> 
5828
(
(0 0 0)
(0.00527941 0 0)
(0.0100977 0 0)
(0.0145904 0 0)
(0.0188757 0 0)
(0.023027 0 0)
(0.0270849 0 0)
(0.0310603 0 0)
(0.0349383 0 0)
(0.0386815 0 0)
(0.042234 0 0)
(0.0455258 0 0)
(0.0484762 0 0)
(0.0509976 0 0)
(0.0530005 0 0)
(0.0543986 0 0)
(0.0551131 0 0)
(0.0550788 0 0)
(0.054246 0 0)
(0.0525849 0 0)
(0.0500887 0 0)
(0.0467739 0 0)
(0.0426802 0 0)
(0.037871 0 0)
(0.0324457 0 0)
(0.0265468 0 0)
(0.0203669 0 0)
(0.0141875 0 0)
(0.00845632 0 0)
(0.00402853 0 0)
(0 0 0)
(0 0 0)
(0.00526428 2.22802e-05 0)
(0.0100721 4.37459e-05 0)
(0.0145579 6.58953e-05 0)
(0.0188386 9.01126e-05 0)
(0.0229876 0.000117464 0)
(0.0270459 0.000148913 0)
(0.0310252 0.000185478 0)
(0.0349109 0.000228115 0)
(0.0386663 0.000277765 0)
(0.0422359 0.000335191 0)
(0.0455504 0.000401126 0)
(0.04853 0.000476372 0)
(0.0510878 0.000561637 0)
(0.0531353 0.000657551 0)
(0.0545866 0.000764692 0)
(0.0553637 0.000883673 0)
(0.0554016 0.0010153 0)
(0.0546523 0.00116001 0)
(0.0530875 0.00131878 0)
(0.0507022 0.00149393 0)
(0.0475158 0.00168797 0)
(0.0435724 0.00190379 0)
(0.0389401 0.0021456 0)
(0.0337209 0.00242049 0)
(0.028067 0.00273754 0)
(0.0221851 0.00310767 0)
(0.0163772 0.0035449 0)
(0.0111419 0.00405533 0)
(0.00738174 0.00457895 0)
(0.00457277 0.00499905 0)
(0 0 0)
(0.00525105 4.43687e-05 0)
(0.0100518 8.71393e-05 0)
(0.0145359 0.000131275 0)
(0.0188192 0.000179441 0)
(0.0229748 0.000233813 0)
(0.0270457 0.000296394 0)
(0.0310459 0.000369171 0)
(0.0349619 0.000454035 0)
(0.0387586 0.000552918 0)
(0.0423819 0.000667287 0)
(0.0457649 0.000798548 0)
(0.0488306 0.000948368 0)
(0.0514947 0.00111815 0)
(0.0536708 0.00130915 0)
(0.0552757 0.00152246 0)
(0.056234 0.00175905 0)
(0.0564821 0.00201953 0)
(0.0559762 0.00230564 0)
(0.0546915 0.00261989 0)
(0.0526285 0.00296619 0)
(0.0498145 0.00334935 0)
(0.0463029 0.00377451 0)
(0.0421776 0.00424996 0)
(0.0375572 0.00478504 0)
(0.0326189 0.00539117 0)
(0.0276038 0.00608219 0)
(0.0228438 0.0068708 0)
(0.0189002 0.00776187 0)
(0.0167616 0.0086983 0)
(0.0149359 0.00932694 0)
(0 0 0)
(0.00525806 6.61569e-05 0)
(0.0100688 0.000129963 0)
(0.014566 0.000195786 0)
(0.018867 0.000267453 0)
(0.0230465 0.000348321 0)
(0.0271499 0.000441496 0)
(0.031193 0.000549831 0)
(0.035166 0.00067611 0)
(0.0390353 0.000823041 0)
(0.0427488 0.00099289 0)
(0.046245 0.00118795 0)
(0.0494516 0.00141064 0)
(0.0522878 0.00166301 0)
(0.054672 0.0019469 0)
(0.0565255 0.0022639 0)
(0.0577775 0.0026154 0)
(0.0583697 0.00300236 0)
(0.0582638 0.00342727 0)
(0.0574409 0.0038937 0)
(0.0559079 0.00440656 0)
(0.0537012 0.00497139 0)
(0.0508863 0.00559463 0)
(0.0475679 0.00628651 0)
(0.0438953 0.00705828 0)
(0.0400873 0.00792354 0)
(0.0364377 0.00889469 0)
(0.0333081 0.00997302 0)
(0.0312304 0.0111366 0)
(0.0312235 0.0122932 0)
(0.0307871 0.0130077 0)
(0 0 0)
(0.00527186 8.74546e-05 0)
(0.0100988 0.000171834 0)
(0.0146151 0.00025884 0)
(0.0189412 0.000353512 0)
(0.0231561 0.000460323 0)
(0.0273061 0.000583353 0)
(0.0314096 0.000726319 0)
(0.0354606 0.000892814 0)
(0.039429 0.00108608 0)
(0.0432678 0.00130942 0)
(0.0469209 0.0015662 0)
(0.0503214 0.00185933 0)
(0.0533944 0.00219147 0)
(0.0560646 0.00256505 0)
(0.0582599 0.00298217 0)
(0.0599164 0.00344467 0)
(0.0609836 0.00395435 0)
(0.0614305 0.00451389 0)
(0.0612476 0.00512752 0)
(0.0604501 0.00579999 0)
(0.059084 0.00653614 0)
(0.0572317 0.00734308 0)
(0.0550193 0.00823105 0)
(0.0526243 0.00921186 0)
(0.0503013 0.0102975 0)
(0.0484117 0.011495 0)
(0.0473793 0.0127901 0)
(0.0476588 0.0141291 0)
(0.050147 0.0153812 0)
(0.0511778 0.0160642 0)
(0 0 0)
(0.00529175 0.000108123 0)
(0.0101409 0.000212421 0)
(0.0146827 0.000319886 0)
(0.0190418 0.000436828 0)
(0.0233014 0.000568731 0)
(0.0275102 0.000720524 0)
(0.0316897 0.000896789 0)
(0.0358378 0.00110189 0)
(0.0399305 0.00133981 0)
(0.0439278 0.00161474 0)
(0.0477787 0.00193076 0)
(0.0514225 0.00229137 0)
(0.0547925 0.00269984 0)
(0.0578218 0.0031592 0)
(0.0604469 0.00367201 0)
(0.0626123 0.00424046 0)
(0.0642769 0.00486678 0)
(0.0654193 0.00555384 0)
(0.0660426 0.0063061 0)
(0.0661728 0.00712778 0)
(0.0658684 0.00802291 0)
(0.0652314 0.00899845 0)
(0.0644168 0.0100642 0)
(0.0636312 0.0112289 0)
(0.0631404 0.0124977 0)
(0.0633416 0.0138693 0)
(0.0647399 0.0153183 0)
(0.0677577 0.0167749 0)
(0.072953 0.0180736 0)
(0.0753262 0.0187101 0)
(0 0 0)
(0.00531599 0.000128061 0)
(0.0101919 0.000251515 0)
(0.0147658 0.000378631 0)
(0.0191658 0.000516925 0)
(0.0234789 0.000672804 0)
(0.0277575 0.000852028 0)
(0.0320273 0.00105998 0)
(0.0362909 0.00130179 0)
(0.0405315 0.00158231 0)
(0.044716 0.00190634 0)
(0.0488004 0.00227849 0)
(0.0527317 0.00270291 0)
(0.0564529 0.00318342 0)
(0.0599075 0.00372366 0)
(0.0630423 0.00432662 0)
(0.0658123 0.0049947 0)
(0.0681875 0.00573028 0)
(0.0701581 0.00653623 0)
(0.0717444 0.00741719 0)
(0.072985 0.00837635 0)
(0.0739524 0.00941661 0)
(0.0747708 0.0105444 0)
(0.0756151 0.0117668 0)
(0.0767301 0.0130884 0)
(0.0784104 0.0145078 0)
(0.0810292 0.0160127 0)
(0.0851328 0.0175703 0)
(0.0911558 0.0191075 0)
(0.099215 0.0204398 0)
(0.102945 0.0211229 0)
(0 0 0)
(0.00534398 0.000147116 0)
(0.0102506 0.000288908 0)
(0.0148627 0.000434849 0)
(0.019311 0.000593506 0)
(0.0236857 0.000772154 0)
(0.0280439 0.000977351 0)
(0.0324163 0.00121522 0)
(0.0368115 0.00149159 0)
(0.0412197 0.00181206 0)
(0.0456161 0.00218203 0)
(0.0499647 0.00260664 0)
(0.0542219 0.00309053 0)
(0.0583409 0.00363795 0)
(0.0622784 0.00425324 0)
(0.0659938 0.00493982 0)
(0.0694532 0.00569999 0)
(0.0726401 0.00653613 0)
(0.075562 0.00745149 0)
(0.0782539 0.00845003 0)
(0.0807676 0.00953324 0)
(0.0832024 0.0107039 0)
(0.0857068 0.0119666 0)
(0.0884635 0.0133237 0)
(0.0917361 0.0147747 0)
(0.0958678 0.0163123 0)
(0.10122 0.0179149 0)
(0.108277 0.0195396 0)
(0.117442 0.0211069 0)
(0.128481 0.0224283 0)
(0.133758 0.0231161 0)
(0 0 0)
(0.00537618 0.00016517 0)
(0.010318 0.000324357 0)
(0.0149725 0.000488112 0)
(0.0194741 0.000665939 0)
(0.0239168 0.000865935 0)
(0.0283625 0.00109538 0)
(0.0328476 0.00136107 0)
(0.037387 0.00166947 0)
(0.0419785 0.00202679 0)
(0.0466063 0.00243904 0)
(0.051244 0.00291183 0)
(0.0558577 0.00345017 0)
(0.0604142 0.00405894 0)
(0.0648846 0.00474304 0)
(0.06924 0.00550581 0)
(0.0734603 0.00634946 0)
(0.0775453 0.00727643 0)
(0.0815261 0.00829044 0)
(0.085449 0.00939349 0)
(0.0893847 0.0105862 0)
(0.093461 0.0118712 0)
(0.0978445 0.0132493 0)
(0.10275 0.014719 0)
(0.108442 0.0162741 0)
(0.11527 0.0178993 0)
(0.123623 0.0195648 0)
(0.133843 0.0212116 0)
(0.146214 0.022744 0)
(0.160226 0.0239692 0)
(0.166972 0.0246022 0)
(0 0 0)
(0.00541172 0.00018217 0)
(0.0103922 0.000357712 0)
(0.0150929 0.000538148 0)
(0.0196519 0.000733844 0)
(0.0241677 0.000953631 0)
(0.0287072 0.00120544 0)
(0.0333125 0.00149665 0)
(0.0380054 0.00183426 0)
(0.042792 0.00222505 0)
(0.0476663 0.00267556 0)
(0.0526122 0.00319185 0)
(0.0576074 0.00377935 0)
(0.0626336 0.00444358 0)
(0.0676735 0.00518922 0)
(0.072713 0.00601956 0)
(0.0777502 0.00693698 0)
(0.0828043 0.00794409 0)
(0.087927 0.00904425 0)
(0.09318 0.0102375 0)
(0.0986673 0.0115243 0)
(0.104535 0.0129052 0)
(0.110962 0.0143772 0)
(0.118209 0.0159362 0)
(0.126561 0.0175698 0)
(0.136328 0.0192534 0)
(0.14789 0.020945 0)
(0.161453 0.0225673 0)
(0.177081 0.0240001 0)
(0.19387 0.0250417 0)
(0.202012 0.025542 0)
(0 0 0)
(0.00545008 0.000198093 0)
(0.0104723 0.000388931 0)
(0.0152223 0.000584898 0)
(0.0198421 0.000797132 0)
(0.0244348 0.00103511 0)
(0.0290727 0.00130734 0)
(0.0338038 0.00162169 0)
(0.0386567 0.00198561 0)
(0.0436463 0.00240629 0)
(0.0487774 0.00289084 0)
(0.0540445 0.0034457 0)
(0.0594379 0.00407662 0)
(0.0649515 0.00478912 0)
(0.0705827 0.0055879 0)
(0.0763379 0.00647674 0)
(0.0822321 0.00745771 0)
(0.0883057 0.00853313 0)
(0.0946265 0.00970497 0)
(0.101283 0.0109726 0)
(0.10841 0.012336 0)
(0.116179 0.0137922 0)
(0.124804 0.0153362 0)
(0.134557 0.0169598 0)
(0.145747 0.0186437 0)
(0.15867 0.0203543 0)
(0.173634 0.0220356 0)
(0.190703 0.0235911 0)
(0.209583 0.0248756 0)
(0.228792 0.0256954 0)
(0.237923 0.0260187 0)
(0 0 0)
(0.00549062 0.000212853 0)
(0.0105568 0.000417843 0)
(0.0153581 0.000628101 0)
(0.0200409 0.000855437 0)
(0.0247128 0.00110989 0)
(0.0294514 0.00140044 0)
(0.0343111 0.0017354 0)
(0.0393269 0.00212253 0)
(0.0445233 0.00256945 0)
(0.0499169 0.00308374 0)
(0.0555114 0.00367191 0)
(0.0613093 0.00433989 0)
(0.0673178 0.00509313 0)
(0.0735523 0.00593664 0)
(0.0800379 0.00687421 0)
(0.086806 0.00790729 0)
(0.0939199 0.00903766 0)
(0.101469 0.0102662 0)
(0.109573 0.0115915 0)
(0.118396 0.0130118 0)
(0.128134 0.0145218 0)
(0.139052 0.0161136 0)
(0.15143 0.0177737 0)
(0.165586 0.019477 0)
(0.181844 0.0211833 0)
(0.200402 0.0228235 0)
(0.221104 0.0242862 0)
(0.243192 0.0254155 0)
(0.264471 0.0260516 0)
(0.274294 0.0262534 0)
(0 0 0)
(0.00553267 0.000226417 0)
(0.0106443 0.000444381 0)
(0.0154984 0.000667652 0)
(0.0202453 0.000908612 0)
(0.024997 0.00117776 0)
(0.0298369 0.00148448 0)
(0.0348258 0.00183746 0)
(0.0400058 0.00224474 0)
(0.0454107 0.00271433 0)
(0.0510653 0.00325377 0)
(0.0569841 0.00386959 0)
(0.0631843 0.00456809 0)
(0.0696861 0.00535457 0)
(0.0765209 0.00623387 0)
(0.0837319 0.00720957 0)
(0.0913688 0.00828258 0)
(0.0995184 0.00945381 0)
(0.108296 0.0107233 0)
(0.117848 0.0120885 0)
(0.128372 0.0135447 0)
(0.140094 0.0150844 0)
(0.153307 0.0166963 0)
(0.168343 0.018362 0)
(0.185536 0.0200525 0)
(0.205231 0.0217226 0)
(0.227504 0.0232966 0)
(0.251953 0.0246633 0)
(0.277292 0.0256777 0)
(0.300528 0.0262087 0)
(0.310945 0.0263821 0)
(0 0 0)
(0.00557596 0.000238821 0)
(0.0107343 0.000468614 0)
(0.0156419 0.000703656 0)
(0.0204532 0.000956795 0)
(0.0252845 0.00123889 0)
(0.0302244 0.00155962 0)
(0.0353409 0.00192802 0)
(0.0406838 0.0023524 0)
(0.0462926 0.00284074 0)
(0.052199 0.00340033 0)
(0.0584323 0.00403809 0)
(0.0650255 0.00476061 0)
(0.0720083 0.00557265 0)
(0.0794261 0.00647856 0)
(0.0873396 0.00748148 0)
(0.0958205 0.00858207 0)
(0.104978 0.00978027 0)
(0.114946 0.0110739 0)
(0.125897 0.0124591 0)
(0.13806 0.0139292 0)
(0.151698 0.0154724 0)
(0.167124 0.0170741 0)
(0.184725 0.0187121 0)
(0.204878 0.0203534 0)
(0.22793 0.0219502 0)
(0.253879 0.0234309 0)
(0.282181 0.0247072 0)
(0.311045 0.0256711 0)
(0.336552 0.0261898 0)
(0.347726 0.0263418 0)
(0 0 0)
(0.00561991 0.000250046 0)
(0.0108254 0.000490508 0)
(0.0157867 0.000736066 0)
(0.0206618 0.00099993 0)
(0.0255706 0.00129319 0)
(0.0306074 0.00162581 0)
(0.035848 0.00200708 0)
(0.0413476 0.00244537 0)
(0.0471512 0.00294844 0)
(0.0532991 0.00352359 0)
(0.0598341 0.00417792 0)
(0.0668007 0.00491781 0)
(0.0742387 0.00574746 0)
(0.0822087 0.00667081 0)
(0.0907873 0.00769033 0)
(0.100065 0.008806 0)
(0.110167 0.0100164 0)
(0.121247 0.0113173 0)
(0.133504 0.0127027 0)
(0.147185 0.0141631 0)
(0.162579 0.0156831 0)
(0.180037 0.017243 0)
(0.199958 0.0188162 0)
(0.22275 0.0203653 0)
(0.248761 0.0218401 0)
(0.277974 0.0231799 0)
(0.309921 0.0243389 0)
(0.342671 0.0253064 0)
(0.371624 0.0259841 0)
(0.38437 0.0262136 0)
(0 0 0)
(0.00566435 0.000260196 0)
(0.0109176 0.000510274 0)
(0.0159328 0.000765203 0)
(0.0208711 0.00103846 0)
(0.0258563 0.00134132 0)
(0.0309874 0.0016839 0)
(0.0363459 0.00207556 0)
(0.0419939 0.00252465 0)
(0.0479826 0.00303884 0)
(0.0543593 0.00362515 0)
(0.0611775 0.00429061 0)
(0.0684918 0.00504123 0)
(0.0763534 0.00588077 0)
(0.0848366 0.00681258 0)
(0.0940306 0.00783817 0)
(0.104039 0.00895634 0)
(0.115002 0.0101643 0)
(0.12709 0.0114558 0)
(0.140517 0.0128217 0)
(0.155542 0.014249 0)
(0.172464 0.0157184 0)
(0.191647 0.0172042 0)
(0.213462 0.0186725 0)
(0.238299 0.0200788 0)
(0.266421 0.0213653 0)
(0.297707 0.0224635 0)
(0.331573 0.0233069 0)
(0.365671 0.0238228 0)
(0.394708 0.0237295 0)
(0.420802 0.0261381 0)
(0 0 0)
(0.00527941 0 0)
(0.0100977 0 0)
(0.0145904 0 0)
(0.0188757 0 0)
(0.023027 0 0)
(0.0270849 0 0)
(0.0310603 0 0)
(0.0349383 0 0)
(0.0386815 0 0)
(0.042234 0 0)
(0.0455258 0 0)
(0.0484762 0 0)
(0.0509976 0 0)
(0.0530005 0 0)
(0.0543986 0 0)
(0.0551131 0 0)
(0.0550788 0 0)
(0.054246 0 0)
(0.0525849 0 0)
(0.0500887 0 0)
(0.0467739 0 0)
(0.0426802 0 0)
(0.037871 0 0)
(0.0324457 0 0)
(0.0265468 0 0)
(0.0203669 0 0)
(0.0141875 0 0)
(0.00845632 0 0)
(0.00402853 0 0)
(0 0 0)
(0 0 0)
(0.00526428 2.22802e-05 0)
(0.0100721 4.37459e-05 0)
(0.0145579 6.58953e-05 0)
(0.0188386 9.01126e-05 0)
(0.0229876 0.000117464 0)
(0.0270459 0.000148913 0)
(0.0310252 0.000185478 0)
(0.0349109 0.000228115 0)
(0.0386663 0.000277765 0)
(0.0422359 0.000335191 0)
(0.0455504 0.000401126 0)
(0.04853 0.000476372 0)
(0.0510878 0.000561637 0)
(0.0531353 0.000657551 0)
(0.0545866 0.000764692 0)
(0.0553637 0.000883673 0)
(0.0554016 0.0010153 0)
(0.0546523 0.00116001 0)
(0.0530875 0.00131878 0)
(0.0507022 0.00149393 0)
(0.0475158 0.00168797 0)
(0.0435724 0.00190379 0)
(0.0389401 0.0021456 0)
(0.0337209 0.00242049 0)
(0.028067 0.00273754 0)
(0.0221851 0.00310767 0)
(0.0163772 0.0035449 0)
(0.0111419 0.00405533 0)
(0.00738174 0.00457895 0)
(0.00457277 0.00499905 0)
(0 0 0)
(0.00525105 4.43687e-05 0)
(0.0100518 8.71393e-05 0)
(0.0145359 0.000131275 0)
(0.0188192 0.000179441 0)
(0.0229748 0.000233813 0)
(0.0270457 0.000296394 0)
(0.0310459 0.000369171 0)
(0.0349619 0.000454035 0)
(0.0387586 0.000552918 0)
(0.0423819 0.000667287 0)
(0.0457649 0.000798548 0)
(0.0488306 0.000948368 0)
(0.0514947 0.00111815 0)
(0.0536708 0.00130915 0)
(0.0552757 0.00152246 0)
(0.056234 0.00175905 0)
(0.0564821 0.00201953 0)
(0.0559762 0.00230564 0)
(0.0546915 0.00261989 0)
(0.0526285 0.00296619 0)
(0.0498145 0.00334935 0)
(0.0463029 0.00377451 0)
(0.0421776 0.00424996 0)
(0.0375572 0.00478504 0)
(0.0326189 0.00539117 0)
(0.0276038 0.00608219 0)
(0.0228438 0.0068708 0)
(0.0189002 0.00776187 0)
(0.0167616 0.0086983 0)
(0.0149359 0.00932694 0)
(0 0 0)
(0.00525806 6.61569e-05 0)
(0.0100688 0.000129963 0)
(0.014566 0.000195786 0)
(0.018867 0.000267453 0)
(0.0230465 0.000348321 0)
(0.0271499 0.000441496 0)
(0.031193 0.000549831 0)
(0.035166 0.00067611 0)
(0.0390353 0.000823041 0)
(0.0427488 0.00099289 0)
(0.046245 0.00118795 0)
(0.0494516 0.00141064 0)
(0.0522878 0.00166301 0)
(0.054672 0.0019469 0)
(0.0565255 0.0022639 0)
(0.0577775 0.0026154 0)
(0.0583697 0.00300236 0)
(0.0582638 0.00342727 0)
(0.0574409 0.0038937 0)
(0.0559079 0.00440656 0)
(0.0537012 0.00497139 0)
(0.0508863 0.00559463 0)
(0.0475679 0.00628651 0)
(0.0438953 0.00705828 0)
(0.0400873 0.00792354 0)
(0.0364377 0.00889469 0)
(0.0333081 0.00997302 0)
(0.0312304 0.0111366 0)
(0.0312235 0.0122932 0)
(0.0307871 0.0130077 0)
(0 0 0)
(0.00527186 8.74546e-05 0)
(0.0100988 0.000171834 0)
(0.0146151 0.00025884 0)
(0.0189412 0.000353512 0)
(0.0231561 0.000460323 0)
(0.0273061 0.000583353 0)
(0.0314096 0.000726319 0)
(0.0354606 0.000892814 0)
(0.039429 0.00108608 0)
(0.0432678 0.00130942 0)
(0.0469209 0.0015662 0)
(0.0503214 0.00185933 0)
(0.0533944 0.00219147 0)
(0.0560646 0.00256505 0)
(0.0582599 0.00298217 0)
(0.0599164 0.00344467 0)
(0.0609836 0.00395435 0)
(0.0614305 0.00451389 0)
(0.0612476 0.00512752 0)
(0.0604501 0.00579999 0)
(0.059084 0.00653614 0)
(0.0572317 0.00734308 0)
(0.0550193 0.00823105 0)
(0.0526243 0.00921186 0)
(0.0503013 0.0102975 0)
(0.0484117 0.011495 0)
(0.0473793 0.0127901 0)
(0.0476588 0.0141291 0)
(0.050147 0.0153812 0)
(0.0511778 0.0160642 0)
(0 0 0)
(0.00529175 0.000108123 0)
(0.0101409 0.000212421 0)
(0.0146827 0.000319886 0)
(0.0190418 0.000436828 0)
(0.0233014 0.000568731 0)
(0.0275102 0.000720524 0)
(0.0316897 0.000896789 0)
(0.0358378 0.00110189 0)
(0.0399305 0.00133981 0)
(0.0439278 0.00161474 0)
(0.0477787 0.00193076 0)
(0.0514225 0.00229137 0)
(0.0547925 0.00269984 0)
(0.0578218 0.0031592 0)
(0.0604469 0.00367201 0)
(0.0626123 0.00424046 0)
(0.0642769 0.00486678 0)
(0.0654193 0.00555384 0)
(0.0660426 0.0063061 0)
(0.0661728 0.00712778 0)
(0.0658684 0.00802291 0)
(0.0652314 0.00899845 0)
(0.0644168 0.0100642 0)
(0.0636312 0.0112289 0)
(0.0631404 0.0124977 0)
(0.0633416 0.0138693 0)
(0.0647399 0.0153183 0)
(0.0677577 0.0167749 0)
(0.072953 0.0180736 0)
(0.0753262 0.0187101 0)
(0 0 0)
(0.00531599 0.000128061 0)
(0.0101919 0.000251515 0)
(0.0147658 0.000378631 0)
(0.0191658 0.000516925 0)
(0.0234789 0.000672804 0)
(0.0277575 0.000852028 0)
(0.0320273 0.00105998 0)
(0.0362909 0.00130179 0)
(0.0405315 0.00158231 0)
(0.044716 0.00190634 0)
(0.0488004 0.00227849 0)
(0.0527317 0.00270291 0)
(0.0564529 0.00318342 0)
(0.0599075 0.00372366 0)
(0.0630423 0.00432662 0)
(0.0658123 0.0049947 0)
(0.0681875 0.00573028 0)
(0.0701581 0.00653623 0)
(0.0717444 0.00741719 0)
(0.072985 0.00837635 0)
(0.0739524 0.00941661 0)
(0.0747708 0.0105444 0)
(0.0756151 0.0117668 0)
(0.0767301 0.0130884 0)
(0.0784104 0.0145078 0)
(0.0810292 0.0160127 0)
(0.0851328 0.0175703 0)
(0.0911558 0.0191075 0)
(0.099215 0.0204398 0)
(0.102945 0.0211229 0)
(0 0 0)
(0.00534398 0.000147116 0)
(0.0102506 0.000288908 0)
(0.0148627 0.000434849 0)
(0.019311 0.000593506 0)
(0.0236857 0.000772154 0)
(0.0280439 0.000977351 0)
(0.0324163 0.00121522 0)
(0.0368115 0.00149159 0)
(0.0412197 0.00181206 0)
(0.0456161 0.00218203 0)
(0.0499647 0.00260664 0)
(0.0542219 0.00309053 0)
(0.0583409 0.00363795 0)
(0.0622784 0.00425324 0)
(0.0659938 0.00493982 0)
(0.0694532 0.00569999 0)
(0.0726401 0.00653613 0)
(0.075562 0.00745149 0)
(0.0782539 0.00845003 0)
(0.0807676 0.00953324 0)
(0.0832024 0.0107039 0)
(0.0857068 0.0119666 0)
(0.0884635 0.0133237 0)
(0.0917361 0.0147747 0)
(0.0958678 0.0163123 0)
(0.10122 0.0179149 0)
(0.108277 0.0195396 0)
(0.117442 0.0211069 0)
(0.128481 0.0224283 0)
(0.133758 0.0231161 0)
(0 0 0)
(0.00537618 0.00016517 0)
(0.010318 0.000324357 0)
(0.0149725 0.000488112 0)
(0.0194741 0.000665939 0)
(0.0239168 0.000865935 0)
(0.0283625 0.00109538 0)
(0.0328476 0.00136107 0)
(0.037387 0.00166947 0)
(0.0419785 0.00202679 0)
(0.0466063 0.00243904 0)
(0.051244 0.00291183 0)
(0.0558577 0.00345017 0)
(0.0604142 0.00405894 0)
(0.0648846 0.00474304 0)
(0.06924 0.00550581 0)
(0.0734603 0.00634946 0)
(0.0775453 0.00727643 0)
(0.0815261 0.00829044 0)
(0.085449 0.00939349 0)
(0.0893847 0.0105862 0)
(0.093461 0.0118712 0)
(0.0978445 0.0132493 0)
(0.10275 0.014719 0)
(0.108442 0.0162741 0)
(0.11527 0.0178993 0)
(0.123623 0.0195648 0)
(0.133843 0.0212116 0)
(0.146214 0.022744 0)
(0.160226 0.0239692 0)
(0.166972 0.0246022 0)
(0 0 0)
(0.00541172 0.00018217 0)
(0.0103922 0.000357712 0)
(0.0150929 0.000538148 0)
(0.0196519 0.000733844 0)
(0.0241677 0.000953631 0)
(0.0287072 0.00120544 0)
(0.0333125 0.00149665 0)
(0.0380054 0.00183426 0)
(0.042792 0.00222505 0)
(0.0476663 0.00267556 0)
(0.0526122 0.00319185 0)
(0.0576074 0.00377935 0)
(0.0626336 0.00444358 0)
(0.0676735 0.00518922 0)
(0.072713 0.00601956 0)
(0.0777502 0.00693698 0)
(0.0828043 0.00794409 0)
(0.087927 0.00904425 0)
(0.09318 0.0102375 0)
(0.0986673 0.0115243 0)
(0.104535 0.0129052 0)
(0.110962 0.0143772 0)
(0.118209 0.0159362 0)
(0.126561 0.0175698 0)
(0.136328 0.0192534 0)
(0.14789 0.020945 0)
(0.161453 0.0225673 0)
(0.177081 0.0240001 0)
(0.19387 0.0250417 0)
(0.202012 0.025542 0)
(0 0 0)
(0.00545008 0.000198093 0)
(0.0104723 0.000388931 0)
(0.0152223 0.000584898 0)
(0.0198421 0.000797132 0)
(0.0244348 0.00103511 0)
(0.0290727 0.00130734 0)
(0.0338038 0.00162169 0)
(0.0386567 0.00198561 0)
(0.0436463 0.00240629 0)
(0.0487774 0.00289084 0)
(0.0540445 0.0034457 0)
(0.0594379 0.00407662 0)
(0.0649515 0.00478912 0)
(0.0705827 0.0055879 0)
(0.0763379 0.00647674 0)
(0.0822321 0.00745771 0)
(0.0883057 0.00853313 0)
(0.0946265 0.00970497 0)
(0.101283 0.0109726 0)
(0.10841 0.012336 0)
(0.116179 0.0137922 0)
(0.124804 0.0153362 0)
(0.134557 0.0169598 0)
(0.145747 0.0186437 0)
(0.15867 0.0203543 0)
(0.173634 0.0220356 0)
(0.190703 0.0235911 0)
(0.209583 0.0248756 0)
(0.228792 0.0256954 0)
(0.237923 0.0260187 0)
(0 0 0)
(0.00549062 0.000212853 0)
(0.0105568 0.000417843 0)
(0.0153581 0.000628101 0)
(0.0200409 0.000855437 0)
(0.0247128 0.00110989 0)
(0.0294514 0.00140044 0)
(0.0343111 0.0017354 0)
(0.0393269 0.00212253 0)
(0.0445233 0.00256945 0)
(0.0499169 0.00308374 0)
(0.0555114 0.00367191 0)
(0.0613093 0.00433989 0)
(0.0673178 0.00509313 0)
(0.0735523 0.00593664 0)
(0.0800379 0.00687421 0)
(0.086806 0.00790729 0)
(0.0939199 0.00903766 0)
(0.101469 0.0102662 0)
(0.109573 0.0115915 0)
(0.118396 0.0130118 0)
(0.128134 0.0145218 0)
(0.139052 0.0161136 0)
(0.15143 0.0177737 0)
(0.165586 0.019477 0)
(0.181844 0.0211833 0)
(0.200402 0.0228235 0)
(0.221104 0.0242862 0)
(0.243192 0.0254155 0)
(0.264471 0.0260516 0)
(0.274294 0.0262534 0)
(0 0 0)
(0.00553267 0.000226417 0)
(0.0106443 0.000444381 0)
(0.0154984 0.000667652 0)
(0.0202453 0.000908612 0)
(0.024997 0.00117776 0)
(0.0298369 0.00148448 0)
(0.0348258 0.00183746 0)
(0.0400058 0.00224474 0)
(0.0454107 0.00271433 0)
(0.0510653 0.00325377 0)
(0.0569841 0.00386959 0)
(0.0631843 0.00456809 0)
(0.0696861 0.00535457 0)
(0.0765209 0.00623387 0)
(0.0837319 0.00720957 0)
(0.0913688 0.00828258 0)
(0.0995184 0.00945381 0)
(0.108296 0.0107233 0)
(0.117848 0.0120885 0)
(0.128372 0.0135447 0)
(0.140094 0.0150844 0)
(0.153307 0.0166963 0)
(0.168343 0.018362 0)
(0.185536 0.0200525 0)
(0.205231 0.0217226 0)
(0.227504 0.0232966 0)
(0.251953 0.0246633 0)
(0.277292 0.0256777 0)
(0.300528 0.0262087 0)
(0.310945 0.0263821 0)
(0 0 0)
(0.00557596 0.000238821 0)
(0.0107343 0.000468614 0)
(0.0156419 0.000703656 0)
(0.0204532 0.000956795 0)
(0.0252845 0.00123889 0)
(0.0302244 0.00155962 0)
(0.0353409 0.00192802 0)
(0.0406838 0.0023524 0)
(0.0462926 0.00284074 0)
(0.052199 0.00340033 0)
(0.0584323 0.00403809 0)
(0.0650255 0.00476061 0)
(0.0720083 0.00557265 0)
(0.0794261 0.00647856 0)
(0.0873396 0.00748148 0)
(0.0958205 0.00858207 0)
(0.104978 0.00978027 0)
(0.114946 0.0110739 0)
(0.125897 0.0124591 0)
(0.13806 0.0139292 0)
(0.151698 0.0154724 0)
(0.167124 0.0170741 0)
(0.184725 0.0187121 0)
(0.204878 0.0203534 0)
(0.22793 0.0219502 0)
(0.253879 0.0234309 0)
(0.282181 0.0247072 0)
(0.311045 0.0256711 0)
(0.336552 0.0261898 0)
(0.347726 0.0263418 0)
(0 0 0)
(0.00561991 0.000250046 0)
(0.0108254 0.000490508 0)
(0.0157867 0.000736066 0)
(0.0206618 0.00099993 0)
(0.0255706 0.00129319 0)
(0.0306074 0.00162581 0)
(0.035848 0.00200708 0)
(0.0413476 0.00244537 0)
(0.0471512 0.00294844 0)
(0.0532991 0.00352359 0)
(0.0598341 0.00417792 0)
(0.0668007 0.00491781 0)
(0.0742387 0.00574746 0)
(0.0822087 0.00667081 0)
(0.0907873 0.00769033 0)
(0.100065 0.008806 0)
(0.110167 0.0100164 0)
(0.121247 0.0113173 0)
(0.133504 0.0127027 0)
(0.147185 0.0141631 0)
(0.162579 0.0156831 0)
(0.180037 0.017243 0)
(0.199958 0.0188162 0)
(0.22275 0.0203653 0)
(0.248761 0.0218401 0)
(0.277974 0.0231799 0)
(0.309921 0.0243389 0)
(0.342671 0.0253064 0)
(0.371624 0.0259841 0)
(0.38437 0.0262136 0)
(0 0 0)
(0.00566435 0.000260196 0)
(0.0109176 0.000510274 0)
(0.0159328 0.000765203 0)
(0.0208711 0.00103846 0)
(0.0258563 0.00134132 0)
(0.0309874 0.0016839 0)
(0.0363459 0.00207556 0)
(0.0419939 0.00252465 0)
(0.0479826 0.00303884 0)
(0.0543593 0.00362515 0)
(0.0611775 0.00429061 0)
(0.0684918 0.00504123 0)
(0.0763534 0.00588077 0)
(0.0848366 0.00681258 0)
(0.0940306 0.00783817 0)
(0.104039 0.00895634 0)
(0.115002 0.0101643 0)
(0.12709 0.0114558 0)
(0.140517 0.0128217 0)
(0.155542 0.014249 0)
(0.172464 0.0157184 0)
(0.191647 0.0172042 0)
(0.213462 0.0186725 0)
(0.238299 0.0200788 0)
(0.266421 0.0213653 0)
(0.297707 0.0224635 0)
(0.331573 0.0233069 0)
(0.365671 0.0238228 0)
(0.394708 0.0237295 0)
(0.420802 0.0261381 0)
(2.08556e-09 0 0)
(0.00632316 0 0)
(0.0180447 0 0)
(0.035976 0 0)
(0.0574186 0 0)
(0.0795103 0 0)
(0.099891 0 0)
(0.117062 0 0)
(0.130358 0 0)
(0.139748 0 0)
(0.145552 0 0)
(0.14821 0 0)
(0.148178 0 0)
(0.145893 0 0)
(0.141763 0 0)
(0.136141 0 0)
(0.129329 0 0)
(0.121602 0 0)
(0.113183 0 0)
(0.104276 0 0)
(0.0950705 0 0)
(0.0857074 0 0)
(0.0763028 0 0)
(0.0669354 0 0)
(0.0576443 0 0)
(0.0484445 0 0)
(0.0392834 0 0)
(0.0300496 0 0)
(0.0205875 0 0)
(0.0106589 0 0)
(0 0 0)
(0.00463886 -0.00525356 0)
(0.0101269 -0.00518104 0)
(0.0219175 -0.00524286 0)
(0.039741 -0.00512712 0)
(0.0609212 -0.00491656 0)
(0.0826762 -0.00464936 0)
(0.102664 -0.00434645 0)
(0.119427 -0.00402222 0)
(0.132342 -0.00368278 0)
(0.141391 -0.00334145 0)
(0.146896 -0.00301478 0)
(0.149295 -0.00270238 0)
(0.14904 -0.00240388 0)
(0.146568 -0.00212409 0)
(0.142281 -0.00186518 0)
(0.136527 -0.00162978 0)
(0.129605 -0.00141503 0)
(0.121788 -0.00122024 0)
(0.113297 -0.00104607 0)
(0.104332 -0.000891037 0)
(0.0950843 -0.000752583 0)
(0.0856882 -0.00062931 0)
(0.076257 -0.000521489 0)
(0.0668765 -0.000426909 0)
(0.0575808 -0.000343858 0)
(0.0483794 -0.000271589 0)
(0.0392265 -0.000208347 0)
(0.0300067 -0.000152063 0)
(0.0205586 -0.000100441 0)
(0.0106471 -5.07758e-05 0)
(0 0 0)
(0.0149824 -0.0098683 0)
(0.020805 -0.0098531 0)
(0.0331009 -0.00999989 0)
(0.0508198 -0.00983193 0)
(0.0714015 -0.00945765 0)
(0.0922551 -0.00895067 0)
(0.111144 -0.00835852 0)
(0.126754 -0.00772432 0)
(0.138574 -0.00707111 0)
(0.146629 -0.00641871 0)
(0.15126 -0.00579119 0)
(0.152899 -0.00519169 0)
(0.151994 -0.00462205 0)
(0.148977 -0.0040909 0)
(0.144228 -0.00359913 0)
(0.138085 -0.00314958 0)
(0.13084 -0.00273958 0)
(0.122748 -0.00236764 0)
(0.114036 -0.00203383 0)
(0.104893 -0.00173345 0)
(0.0955004 -0.00146548 0)
(0.0859895 -0.00122782 0)
(0.0764637 -0.00101771 0)
(0.0670146 -0.000833772 0)
(0.0576723 -0.000672839 0)
(0.0484345 -0.0005319 0)
(0.0392617 -0.000408358 0)
(0.0300348 -0.000298279 0)
(0.020581 -0.000197094 0)
(0.0106632 -9.96962e-05 0)
(0 0 0)
(0.0308288 -0.0137731 0)
(0.0371412 -0.0138617 0)
(0.0504095 -0.0141133 0)
(0.0681505 -0.0139294 0)
(0.0879751 -0.0134404 0)
(0.107503 -0.0127418 0)
(0.124743 -0.0119079 0)
(0.138603 -0.0110054 0)
(0.148744 -0.010084 0)
(0.155258 -0.00916589 0)
(0.158521 -0.00827647 0)
(0.158978 -0.00742858 0)
(0.15706 -0.00662561 0)
(0.153186 -0.0058766 0)
(0.147709 -0.00518231 0)
(0.140948 -0.00454373 0)
(0.133184 -0.00396074 0)
(0.124654 -0.00342941 0)
(0.11558 -0.00295002 0)
(0.106139 -0.00251815 0)
(0.0964953 -0.00213171 0)
(0.086784 -0.00178892 0)
(0.0770941 -0.00148475 0)
(0.0675066 -0.00121736 0)
(0.0580585 -0.000983699 0)
(0.0487368 -0.000778709 0)
(0.0394921 -0.000598389 0)
(0.0302076 -0.000437627 0)
(0.0207023 -0.000289602 0)
(0.0107285 -0.000146678 0)
(0 0 0)
(0.0512151 -0.017035 0)
(0.0581871 -0.0172408 0)
(0.0726265 -0.0175801 0)
(0.0904418 -0.0173954 0)
(0.109335 -0.0168179 0)
(0.12716 -0.015964 0)
(0.142294 -0.0149393 0)
(0.153925 -0.0138226 0)
(0.161907 -0.0126799 0)
(0.166454 -0.0115457 0)
(0.167978 -0.0104437 0)
(0.166925 -0.00939169 0)
(0.163712 -0.00839625 0)
(0.158727 -0.00746414 0)
(0.152311 -0.00659876 0)
(0.144745 -0.00579823 0)
(0.136304 -0.00506469 0)
(0.127207 -0.0043945 0)
(0.117653 -0.0037864 0)
(0.107819 -0.00323817 0)
(0.0978456 -0.00274565 0)
(0.0878644 -0.00230721 0)
(0.0779579 -0.00191831 0)
(0.0681878 -0.00157519 0)
(0.0585919 -0.00127442 0)
(0.0491531 -0.00101057 0)
(0.0398088 -0.000777845 0)
(0.0304401 -0.000569655 0)
(0.0208612 -0.000377529 0)
(0.0108127 -0.000191479 0)
(0 0 0)
(0.0753337 -0.0198542 0)
(0.0831452 -0.0201373 0)
(0.0988114 -0.0204951 0)
(0.116632 -0.0202744 0)
(0.134348 -0.019604 0)
(0.150123 -0.0186174 0)
(0.162774 -0.0174403 0)
(0.17181 -0.0161611 0)
(0.177288 -0.0148481 0)
(0.179567 -0.0135463 0)
(0.179089 -0.0122811 0)
(0.176289 -0.0110696 0)
(0.171576 -0.00992186 0)
(0.165298 -0.00884246 0)
(0.157781 -0.00783664 0)
(0.149278 -0.00690253 0)
(0.140038 -0.00604208 0)
(0.130274 -0.00525455 0)
(0.120156 -0.00453647 0)
(0.109853 -0.00388689 0)
(0.0994919 -0.003302 0)
(0.0891845 -0.00277921 0)
(0.079013 -0.00231519 0)
(0.0690262 -0.00190489 0)
(0.0592498 -0.0015439 0)
(0.0496632 -0.00122652 0)
(0.0401967 -0.000945798 0)
(0.0307242 -0.000693712 0)
(0.0210529 -0.000460381 0)
(0.0109132 -0.000233778 0)
(0 0 0)
(0.102987 -0.0224597 0)
(0.111518 -0.0226467 0)
(0.128248 -0.0229253 0)
(0.145792 -0.0226063 0)
(0.161972 -0.0218247 0)
(0.175348 -0.0207215 0)
(0.185193 -0.0194254 0)
(0.191362 -0.0180275 0)
(0.194128 -0.0165947 0)
(0.19395 -0.0151728 0)
(0.191296 -0.0137886 0)
(0.1866 -0.0124596 0)
(0.180249 -0.0111966 0)
(0.172565 -0.0100047 0)
(0.163845 -0.00888912 0)
(0.154324 -0.00785031 0)
(0.144211 -0.00688798 0)
(0.133711 -0.00600392 0)
(0.122977 -0.00519525 0)
(0.112153 -0.00446054 0)
(0.101359 -0.00379767 0)
(0.0906889 -0.00320329 0)
(0.0802161 -0.00267402 0)
(0.0699831 -0.00220494 0)
(0.0600032 -0.00179084 0)
(0.0502481 -0.00142547 0)
(0.0406414 -0.00110121 0)
(0.0310493 -0.000808979 0)
(0.021271 -0.000537609 0)
(0.0110268 -0.000273295 0)
(0 0 0)
(0.133762 -0.0246086 0)
(0.142791 -0.0247133 0)
(0.160203 -0.0248479 0)
(0.177016 -0.0243956 0)
(0.19122 -0.0235011 0)
(0.201841 -0.0223022 0)
(0.208612 -0.0209201 0)
(0.211732 -0.0194429 0)
(0.211664 -0.0179335 0)
(0.208934 -0.0164346 0)
(0.20403 -0.0149727 0)
(0.197376 -0.013565 0)
(0.189334 -0.0122225 0)
(0.1802 -0.0109513 0)
(0.170231 -0.00975571 0)
(0.159655 -0.00863907 0)
(0.148644 -0.0076002 0)
(0.137376 -0.00664092 0)
(0.125997 -0.0057609 0)
(0.114626 -0.00495841 0)
(0.103372 -0.00423188 0)
(0.0923177 -0.00357824 0)
(0.0815239 -0.00299394 0)
(0.0710254 -0.00247434 0)
(0.0608255 -0.00201402 0)
(0.050888 -0.00160636 0)
(0.0411284 -0.00124326 0)
(0.0314052 -0.000914817 0)
(0.0215091 -0.000608774 0)
(0.0111501 -0.000309798 0)
(0 0 0)
(0.167018 -0.0262612 0)