/*--------------------------------*- C++ -*----------------------------------*\
| =========                 |                                                 |
| \\      /  F ield         | OpenFOAM: The Open Source CFD Toolbox           |
|  \\    /   O peration     | Version:  2006                                  |
|   \\  /    A nd           | Website:  www.openfoam.com                      |
|    \\/     M anipulation  |                                                 |
\*---------------------------------------------------------------------------*/
FoamFile
{
    version     2.0;
    format      ascii;
    class       volVectorField;
    location    "1";
    object      U;
}
// * * * * * * * * * * * * * * * * * * * * * * * * * * * * * * * * * * * * * //

dimensions      [0 1 -1 0 0 0 0];


internalField   nonuniform List<vector> 
2790
(
(9.93911 0.0191012 0)
(9.88088 0.0263389 -4.09969e-20)
(9.79584 0.0309575 -4.177e-20)
(9.68948 0.0357463 -4.26182e-20)
(9.56848 0.0407302 0)
(9.43433 0.0458337 8.90539e-20)
(9.28622 0.0511754 0)
(9.1232 0.0569046 -9.35282e-20)
(8.94443 0.0631456 0)
(8.74907 0.0700086 -3.1011e-21)
(8.53612 0.0776139 3.17604e-21)
(8.30444 0.086099 0)
(8.05277 0.0956091 0)
(7.77974 0.1063 0)
(7.48396 0.118337 0)
(7.16397 0.131899 2.46436e-19)
(6.81834 0.147157 2.58143e-19)
(6.44572 0.164282 -2.71294e-19)
(6.04492 0.183434 0)
(5.61489 0.204736 3.02824e-19)
(5.15499 0.228262 0)
(4.66499 0.254022 6.86471e-19)
(4.14542 0.281957 0)
(3.59745 0.311848 0)
(3.02302 0.343205 0)
(2.42553 0.375305 0)
(1.80966 0.406989 1.00956e-18)
(1.181 0.434785 -6.60924e-18)
(0.533493 0.421637 9.5132e-18)
(-0.122965 -0.255527 0)
(9.99576 0.0360876 -8.03475e-20)
(9.99067 0.0525692 2.039e-20)
(9.96214 0.0642416 4.13924e-20)
(9.9115 0.0766715 6.31546e-20)
(9.84412 0.0899817 -1.07369e-20)
(9.76155 0.103957 -7.65191e-20)
(9.6632 0.118824 0)
(9.5482 0.134913 1.36916e-19)
(9.41577 0.152515 -1.40168e-19)
(9.2651 0.171887 9.54103e-20)
(9.09519 0.193317 -1.97334e-19)
(8.9049 0.217133 6.06021e-19)
(8.69297 0.243674 -4.17075e-19)
(8.45801 0.273293 -4.31071e-19)
(8.19857 0.306354 0)
(7.91314 0.343222 -1.62928e-18)
(7.60022 0.384224 7.20396e-19)
(7.25824 0.429644 2.5258e-19)
(6.88579 0.479682 2.6555e-18)
(6.48152 0.534374 -2.48924e-18)
(6.04434 0.593551 0)
(5.57345 0.656733 -5.59912e-18)
(5.06863 0.723096 5.23212e-18)
(4.53038 0.791313 0)
(3.95959 0.859142 0)
(3.35814 0.92318 0)
(2.72949 0.977898 -2.58602e-18)
(2.07923 1.01122 -1.85916e-18)
(1.37188 0.995993 0)
(0.853298 0.840688 -3.8941e-17)
(9.99279 0.0351486 8.03704e-20)
(9.98454 0.0588686 -1.62827e-19)
(9.95757 0.0786237 -1.65254e-19)
(9.9109 0.0992655 0)
(9.84858 0.121336 0)
(9.7722 0.144726 0)
(9.68146 0.16971 0)
(9.57568 0.196749 0)
(9.45421 0.226293 0)
(9.31644 0.258769 0)
(9.16146 0.294655 0)
(8.98833 0.33449 -3.98997e-19)
(8.79601 0.378837 4.10477e-19)
(8.58331 0.428296 6.72501e-22)
(8.349 0.4835 8.82591e-19)
(8.09172 0.545091 -1.34667e-18)
(7.81007 0.613686 9.35824e-19)
(7.50253 0.689842 0)
(7.16763 0.774012 -5.07801e-19)
(6.80381 0.866432 0)
(6.40941 0.967007 0)
(5.98298 1.07515 -9.35118e-18)
(5.52298 1.18966 9.74384e-18)
(5.02839 1.3087 0)
(4.49759 1.42908 2.1937e-17)
(3.92835 1.54572 -2.31137e-17)
(3.31746 1.65107 1.54654e-18)
(2.65979 1.7325 2.64466e-17)
(1.90007 1.77735 -2.82819e-17)
(1.17124 1.76287 6.21257e-17)
(9.99112 0.0381776 1.50397e-19)
(9.98049 0.0705323 1.72884e-19)
(9.95309 0.0995176 1.65023e-19)
(9.90723 0.128641 8.35824e-20)
(9.84603 0.159076 1.69967e-19)
(9.77108 0.191109 2.60091e-19)
(9.68228 0.225152 -5.2888e-19)
(9.57904 0.26179 3.6084e-19)
(9.46092 0.301637 6.92921e-22)
(9.3274 0.345317 0)
(9.17773 0.39349 0)
(9.01121 0.446871 7.91602e-19)
(8.82709 0.506224 -8.06574e-19)
(8.6245 0.572375 2.08963e-18)
(8.40254 0.646212 -8.49552e-19)
(8.16022 0.728664 -3.55822e-18)
(7.89653 0.820651 -1.8653e-18)
(7.61031 0.923039 -3.75578e-20)
(7.30048 1.03663 4.89263e-18)
(6.96572 1.16206 -1.01878e-18)
(6.60442 1.29958 0)
(6.21492 1.44891 0)
(5.79491 1.60901 0)
(5.34199 1.77827 -1.94759e-17)
(4.85236 1.95386 -1.4878e-19)
(4.31992 2.13102 4.27768e-17)
(3.73564 2.30357 -2.53044e-17)
(3.089 2.46375 0)
(2.33608 2.60537 0)
(1.47374 2.78216 3.53788e-18)
(9.99026 0.0426763 -1.60381e-19)
(9.97821 0.082059 -4.05999e-20)
(9.95041 0.118811 -4.12118e-20)
(9.90518 0.155472 -3.58182e-23)
(9.84506 0.193565 -4.24349e-19)
(9.77153 0.233728 1.7221e-19)
(9.68455 0.276486 -5.86768e-22)
(9.58359 0.322495 3.56817e-19)
(9.46823 0.372474 -3.64946e-19)
(9.33801 0.427189 -7.47184e-19)
(9.19233 0.487428 1.52317e-18)
(9.03063 0.554021 -1.55539e-18)
(8.8523 0.627868 0)
(8.65668 0.709951 0)
(8.4431 0.801349 3.38789e-18)
(8.2109 0.903204 -3.45662e-18)
(7.95938 1.01667 -2.69973e-18)
(7.6878 1.14285 1.83408e-18)
(7.39546 1.28288 -2.86061e-18)
(7.08142 1.43781 9.90062e-19)
(6.74439 1.60835 2.04041e-18)
(6.38297 1.79481 0)
(5.99461 1.99682 -2.19679e-18)
(5.57588 2.21347 -1.84116e-17)
(5.12235 2.4432 3.81924e-17)
(4.62641 2.68299 -1.98465e-17)
(4.07662 2.92911 2.60858e-18)
(3.46003 3.17928 0)
(2.77381 3.41328 -5.64684e-18)
(1.81473 3.78183 0)
(9.98979 0.0478962 3.19894e-19)
(9.97704 0.0937518 0)
(9.94915 0.137878 3.28095e-19)
(9.90469 0.18211 0)
(9.84591 0.227952 -1.68467e-19)
(9.77414 0.276243 5.15522e-19)
(9.68932 0.327624 -3.48388e-19)
(9.59099 0.382821 3.54874e-19)
(9.47874 0.44265 0)
(9.35216 0.507992 7.40349e-19)
(9.21078 0.579754 1.37002e-21)
(9.05412 0.65889 1.54025e-18)
(8.88166 0.746428 -7.86988e-19)
(8.69285 0.843488 -2.43729e-18)
(8.48719 0.951314 4.12672e-18)
(8.26419 1.07123 0)
(8.02339 1.20458 7.02752e-18)
(7.76437 1.35269 -3.56857e-18)
(7.48652 1.51697 1.85855e-18)
(7.1893 1.69888 1.90499e-18)
(6.87189 1.89962 -1.33373e-20)
(6.53318 2.1202 1.63516e-17)
(6.17088 2.36122 -3.15287e-17)
(5.78128 2.62271 1.51575e-17)
(5.36022 2.90467 0)
(4.90077 3.20616 0)
(4.39246 3.52493 4.07731e-17)
(3.81652 3.86418 -3.96046e-17)
(3.23824 4.16633 5.17874e-18)
(2.19751 4.70262 0)
(9.98957 0.0534576 -3.19749e-19)
(9.97659 0.105537 0)
(9.94888 0.156638 -4.09481e-19)
(9.90536 0.208152 2.48939e-19)
(9.84816 0.261459 1.68649e-19)
(9.77843 0.317537 -5.50417e-22)
(9.69612 0.377165 0)
(9.60082 0.441162 -3.53014e-19)
(9.49216 0.510438 1.43675e-18)
(9.36978 0.585964 -2.19271e-18)
(9.2333 0.668758 7.41293e-19)
(9.0823 0.75989 -7.61714e-19)
(8.91636 0.860501 2.50194e-21)
(8.73501 0.971831 -7.95898e-19)
(8.53781 1.09526 -4.08089e-18)
(8.32444 1.23227 1.00113e-17)
(8.09458 1.38435 -1.19627e-17)
(7.84801 1.55308 1.22634e-17)
(7.5841 1.74009 -1.43917e-17)
(7.30268 1.9472 7.34727e-18)
(7.0034 2.17616 -1.90393e-17)
(6.68502 2.4286 1.36026e-17)
(6.34603 2.70615 0)
(5.98359 3.01004 2.21135e-20)
(5.59381 3.34147 4.19606e-18)
(5.17112 3.70107 -4.29846e-18)
(4.70919 4.08646 -2.23097e-18)
(4.1767 4.50779 -3.60932e-17)
(3.72857 4.84992 1.11168e-16)
(2.61446 5.51493 -1.62931e-16)
(9.98952 0.0591372 3.98581e-20)
(9.9766 0.117277 -4.03275e-20)
(9.94934 0.174999 0)
(9.90699 0.23347 0)
(9.85159 0.29396 -3.3543e-19)
(9.7842 0.357536 -7.51283e-22)
(9.70475 0.425096 0)
(9.61289 0.497549 6.99487e-19)
(9.50828 0.575879 -1.4262e-18)
(9.39064 0.661138 1.44716e-18)
(9.25965 0.754439 -7.38124e-19)
(9.11498 0.856959 2.25675e-18)
(8.95628 0.969959 -7.59508e-19)
(8.78311 1.09479 -1.5595e-18)
(8.59514 1.23294 -1.61187e-18)
(8.39219 1.38605 3.24908e-18)
(8.17409 1.55579 -1.67145e-18)
(7.94054 1.74392 -6.84607e-18)
(7.69116 1.95236 1.68434e-18)
(7.42605 2.18323 7.09611e-18)
(7.14491 2.43879 -1.2816e-17)
(6.84676 2.72128 1.67516e-17)
(6.53071 3.03318 -3.79098e-18)
(6.19496 3.37689 1.95683e-18)
(5.83667 3.75466 -7.92577e-18)
(5.45096 4.16783 -2.41782e-17)
(5.03754 4.61184 2.86563e-17)
(4.54437 5.10685 -6.58273e-17)
(4.22501 5.46896 6.99569e-17)
(3.04331 6.21729 1.16013e-18)
(9.98955 0.0648007 -3.17974e-19)
(9.97692 0.128842 0)
(9.9504 0.192865 0)
(9.90942 0.257958 3.28923e-19)
(9.85604 0.325326 0)
(9.79125 0.396081 0)
(9.71499 0.471215 0)
(9.62694 0.551724 -6.95873e-19)
(9.52683 0.638659 0)
(9.41443 0.733141 1.4376e-18)
(9.28947 0.836366 -1.45361e-18)
(9.15174 0.949622 -7.49936e-19)
(9.00089 1.07429 1.50419e-18)
(8.83662 1.2118 6.15576e-18)
(8.65872 1.36375 -3.12755e-18)
(8.46708 1.53193 -6.40315e-18)
(8.26167 1.71822 6.48056e-18)
(8.04211 1.92454 0)
(7.80835 2.15309 -1.69526e-18)
(7.56055 2.40634 1.03691e-17)
(7.29845 2.68697 -1.39738e-17)
(7.02179 2.9979 1.42913e-17)
(6.72978 3.34224 -7.20876e-18)
(6.42124 3.72323 0)
(6.0951 4.14418 3.74001e-18)
(5.74641 4.60694 -7.48355e-18)
(5.38152 5.10264 3.80178e-18)
(4.92028 5.66481 0)
(4.71284 6.04061 -1.95055e-18)
(3.46893 6.83748 -6.70106e-17)
(9.9896 0.070364 6.35034e-19)
(9.97746 0.140115 0)
(9.95191 0.210138 0)
(9.91249 0.281522 -4.9232e-19)
(9.86132 0.355434 1.65756e-19)
(9.79937 0.433016 -3.36463e-19)
(9.72658 0.515335 3.39802e-19)
(9.64269 0.603464 0)
(9.54748 0.698518 0)
(9.44073 0.80168 0)
(9.32229 0.914213 -2.88246e-18)
(9.19198 1.0375 1.45321e-18)
(9.04959 1.17304 0)
(8.89502 1.32233 -1.51347e-18)
(8.72797 1.48707 -1.53853e-18)
(8.54846 1.66922 0)
(8.35668 1.87084 1.57941e-18)
(8.15227 2.09405 -1.6038e-18)
(7.93536 2.3413 1.62762e-18)
(7.7062 2.61542 4.96622e-18)
(7.46477 2.91953 -1.01284e-17)
(7.21106 3.25712 1.69465e-17)
(6.94466 3.63198 -3.45307e-18)
(6.66519 4.04822 -2.42067e-17)
(6.37212 4.5095 2.77419e-17)
(6.0603 5.01888 6.74335e-20)
(5.74307 5.56271 -3.42196e-18)
(5.30702 6.19027 5.47491e-17)
(5.18732 6.59093 -5.65773e-17)
(3.88548 7.42959 -4.72846e-19)
(9.9897 0.0757661 -2.77473e-19)
(9.97819 0.151002 -1.19974e-19)
(9.95379 0.226731 5.65147e-19)
(9.91612 0.30407 -1.63183e-19)
(9.86734 0.384174 0)
(9.80846 0.468203 0)
(9.73941 0.557287 -6.77223e-19)
(9.66 0.65257 -2.43319e-21)
(9.57003 0.755231 -1.74427e-22)
(9.46932 0.866505 1.4081e-18)
(9.3578 0.987694 5.88522e-21)
(9.2354 1.12026 -4.34065e-18)
(9.1021 1.26579 1.45926e-18)
(8.95785 1.42591 0)
(8.80228 1.60237 -6.03449e-18)
(8.6357 1.79727 7.6007e-18)
(8.45847 2.01288 -9.28454e-18)
(8.27025 2.25151 1.40776e-17)
(8.07136 2.51585 4.78335e-18)
(7.86224 2.8091 -1.59533e-17)
(7.64319 3.13489 9.65976e-18)
(7.41409 3.49713 -1.29707e-17)
(7.17532 3.90041 -2.59721e-17)
(6.9273 4.34988 -3.24068e-18)
(6.66911 4.84929 2.26722e-17)
(6.39485 5.40386 6.40468e-18)
(6.12509 5.9962 3.21186e-18)
(5.71227 6.69263 -1.54283e-18)
(5.66454 7.13999 5.04939e-17)
(4.30644 8.05077 -5.68527e-17)
(9.98983 0.0809582 0)
(9.97905 0.161429 0)
(9.95596 0.242559 -3.22265e-19)
(9.92021 0.32551 0)
(9.87402 0.411437 0)
(9.81841 0.501513 0)
(9.75334 0.59692 6.7259e-19)
(9.67866 0.698869 -6.78157e-19)
(9.59422 0.808608 1.37664e-18)
(9.49986 0.9274 -6.99508e-19)
(9.3957 1.05655 -6.2224e-21)
(9.28166 1.19757 -1.43418e-18)
(9.15792 1.35219 2.88245e-18)
(9.02449 1.52211 1.45384e-18)
(8.881 1.70914 -5.91316e-18)
(8.72816 1.91551 4.45119e-18)
(8.56622 2.14362 1.14933e-20)
(8.39503 2.396 0)
(8.21528 2.67562 0)
(8.02752 2.98598 0)
(7.83234 3.33121 3.06367e-18)
(7.63 3.71579 -3.10115e-18)
(7.4213 4.145 -3.04412e-18)
(7.20709 4.62509 0)
(6.98692 5.16094 -2.38553e-17)
(6.75321 5.76047 4.41646e-17)
(6.53341 6.40487 -2.04705e-17)
(6.14928 7.17767 1.44316e-18)
(6.17169 7.69847 4.56694e-17)
(4.75436 8.73678 -1.03458e-16)
(9.98998 0.0859057 -5.90111e-19)
(9.98001 0.171336 -3.97468e-20)
(9.95836 0.257549 0)
(9.92468 0.34576 4.84674e-19)
(9.88125 0.437128 4.90542e-19)
(9.82908 0.53284 -3.29829e-19)
(9.76817 0.634115 0)
(9.69841 0.742227 0)
(9.6197 0.858474 0)
(9.53208 0.984135 -2.75231e-18)
(9.4357 1.12051 -1.38762e-18)
(9.33037 1.26916 1.40164e-18)
(9.21652 1.43192 -1.42193e-18)
(9.09434 1.61057 1.42243e-18)
(8.96351 1.80695 1.44079e-18)
(8.82496 2.02338 0)
(8.67886 2.2624 1.4728e-18)
(8.52556 2.52672 -2.93569e-18)
(8.36605 2.81956 -1.4791e-17)
(8.20083 3.14466 1.18234e-17)
(8.03102 3.50663 -1.47754e-17)
(7.85753 3.91057 1.46373e-17)
(7.68147 4.36251 2.92085e-18)
(7.50408 4.86983 2.82225e-18)
(7.32624 5.43954 2.21985e-17)
(7.13907 6.08307 -2.17794e-17)
(6.97649 6.78449 -2.66986e-18)
(6.63725 7.64295 1.25325e-18)
(6.74371 8.27311 4.07263e-17)
(5.26175 9.52167 -9.2564e-17)
(9.99015 0.0905828 5.89897e-19)
(9.98106 0.180675 3.96179e-20)
(9.96095 0.271639 1.59817e-19)
(9.92947 0.364741 -1.62761e-19)
(9.88897 0.46116 3.25522e-19)
(9.8404 0.562098 -1.31194e-18)
(9.78377 0.668785 3.30894e-19)
(9.7191 0.78253 -6.69654e-19)
(9.64639 0.904673 1.34756e-18)
(9.56581 1.03652 3.43234e-22)
(9.47745 1.1794 2.74991e-18)
(9.38107 1.33485 -6.90071e-21)
(9.27744 1.50477 -1.39403e-18)
(9.16683 1.69101 -2.82235e-18)
(9.04906 1.89545 1.40758e-18)
(8.92513 2.12047 -1.41978e-18)
(8.79549 2.36867 5.73037e-18)
(8.66086 2.64293 -2.84438e-18)
(8.52233 2.94665 1.14898e-17)
(8.38068 3.28378 -2.28031e-17)
(8.23758 3.65926 1.13128e-17)
(8.09469 4.07874 -1.39574e-17)
(7.95377 4.54908 1.09781e-17)
(7.81682 5.07879 -2.69466e-18)
(7.68667 5.67726 2.6095e-18)
(7.55514 6.36002 0)
(7.46255 7.11991 -1.86696e-17)
(7.20123 8.06843 1.7314e-17)
(7.42671 8.86762 0)
(5.87967 10.4849 0)
(9.99035 0.0949668 -6.25843e-19)
(9.98218 0.189406 0)
(9.96369 0.284778 -1.59195e-19)
(9.93452 0.382389 -1.88694e-21)
(9.89704 0.483457 -1.62142e-19)
(9.85219 0.589199 9.79597e-19)
(9.80001 0.700818 -6.58808e-19)
(9.74062 0.819634 1.3272e-18)
(9.67408 0.947034 -2.00837e-18)
(9.60068 1.08437 -6.72358e-19)
(9.52049 1.23299 -1.36119e-18)
(9.43333 1.3944 -1.3707e-18)
(9.34017 1.57048 2.76733e-18)
(9.24134 1.76314 -5.54017e-18)
(9.13688 1.97432 4.16371e-18)
(9.02795 2.20639 1.40022e-18)
(8.91521 2.46197 2.80959e-18)
(8.79959 2.74403 -8.37357e-18)
(8.68243 3.05609 8.33462e-18)
(8.56505 3.40224 -1.09954e-17)
(8.44962 3.7875 8.1707e-18)
(8.33864 4.21796 1.06243e-17)
(8.23489 4.70097 -1.0414e-17)
(8.14174 5.24586 2.24087e-17)
(8.06473 5.86379 -1.93373e-17)
(7.99972 6.57288 -1.12175e-18)
(7.99442 7.37785 0)
(7.86757 8.38685 1.5499e-17)
(8.2622 9.4045 -1.57108e-17)
(6.82049 11.8359 -2.93971e-17)
(0.244125 -0.266636 -4.55748e-18)
(0.495316 -0.127973 -7.89879e-18)
(0.665631 -0.0648002 3.59686e-18)
(0.740912 -0.0308207 3.36269e-18)
(0.721609 0.0110366 -3.6992e-18)
(0.600476 0.0526093 0)
(0.380641 0.0873898 0)
(0.0922127 0.112915 0)
(-0.248014 0.131692 1.44298e-18)
(-0.62528 0.144625 2.9424e-19)
(-1.02753 0.152261 -1.3027e-18)
(-1.44507 0.155146 0)
(-1.86965 0.15375 0)
(-2.2939 0.148452 0)
(-2.71084 0.139547 7.79087e-21)
(-3.11331 0.127229 7.87065e-21)
(-3.49348 0.111638 -8.01931e-20)
(-3.84316 0.0929025 7.716e-20)
(-4.15318 0.0711095 0)
(-4.4136 0.0463194 -5.46579e-20)
(-4.61351 0.0185625 -5.51094e-21)
(-4.73989 -0.0124198 1.48061e-20)
(-4.77885 -0.0483652 -4.3481e-20)
(-4.72211 -0.0962559 0)
(-4.53426 -0.153573 0)
(-4.19257 -0.222179 0)
(-3.65599 -0.307884 9.73699e-21)
(-2.8714 -0.419923 -8.61395e-21)
(-1.80169 -0.543761 0)
(-0.357516 -0.558251 0)
(0.0418901 -0.382148 1.70368e-19)
(0.163809 -0.203759 0)
(0.169125 -0.102379 2.33884e-19)
(0.0665262 -1.08643e-05 0)
(-0.129762 0.104123 1.30379e-17)
(-0.412901 0.198255 -1.20337e-17)
(-0.763068 0.277588 0)
(-1.16324 0.341818 -5.91888e-18)
(-1.5987 0.392943 -4.71104e-19)
(-2.05687 0.431906 3.87872e-18)
(-2.52845 0.459401 -2.11633e-18)
(-3.00617 0.476198 2.03525e-18)
(-3.48339 0.482868 1.75988e-18)
(-3.95407 0.479821 -1.28163e-18)
(-4.41196 0.467304 -5.25652e-19)
(-4.85055 0.445402 8.46341e-19)
(-5.2627 0.414139 0)
(-5.64051 0.373501 0)
(-5.97521 0.323477 1.10191e-19)
(-6.25737 0.264172 4.80763e-20)
(-6.47669 0.195705 8.18288e-20)
(-6.6215 0.117775 0)
(-6.68165 0.0287116 2.22521e-21)
(-6.64827 -0.0752826 6.6458e-20)
(-6.50973 -0.193255 1.18296e-20)
(-6.2574 -0.323244 1.83196e-20)
(-5.87468 -0.468932 -1.02192e-20)
(-5.34715 -0.634486 7.49808e-21)
(-4.71442 -0.791667 1.55382e-21)
(-4.21756 -0.851248 0)
(-0.0212514 -0.372513 1.00862e-19)
(-0.0764069 -0.146684 -3.13889e-17)
(-0.213917 0.0288234 2.75667e-17)
(-0.437831 0.182922 0)
(-0.74688 0.323548 0)
(-1.12228 0.450529 0)
(-1.54549 0.559252 0)
(-2.00149 0.648004 1.79635e-18)
(-2.47875 0.717509 -8.27716e-18)
(-2.96763 0.768436 8.01183e-18)
(-3.46151 0.801544 0)
(-3.95547 0.817736 0)
(-4.44448 0.817615 -3.17253e-18)
(-4.92402 0.801652 2.68794e-18)
(-5.38912 0.770177 -3.34594e-19)
(-5.83432 0.723322 2.96564e-19)
(-6.2536 0.661212 -1.00855e-18)
(-6.64011 0.584051 9.79906e-19)
(-6.98625 0.49217 -4.85522e-19)
(-7.2837 0.386172 5.31893e-19)
(-7.52344 0.266865 -2.52033e-19)
(-7.69521 0.134843 -1.21349e-19)
(-7.78895 -0.00985958 6.59893e-20)
(-7.79792 -0.166227 -4.76336e-20)
(-7.7223 -0.337585 0)
(-7.55378 -0.519831 -1.69284e-20)
(-7.28659 -0.71065 1.28693e-20)
(-6.91476 -0.906822 -1.26786e-20)
(-6.47871 -1.08974 0)
(-6.17961 -1.21795 0)
(-0.0230642 -0.250629 -3.44184e-17)
(-0.200671 0.0296111 0)
(-0.445197 0.240294 -1.60978e-21)
(-0.769105 0.432592 -2.3384e-17)
(-1.15649 0.606667 2.3046e-17)
(-1.59046 0.759926 0)
(-2.05525 0.889558 1.179e-18)
(-2.53881 0.994706 7.63217e-18)
(-3.03293 1.07599 -2.70925e-19)
(-3.53131 1.13426 -6.93812e-18)
(-4.02983 1.17058 7.04164e-18)
(-4.52547 1.186 -4.39901e-18)
(-5.01486 1.18112 -6.07189e-18)
(-5.49463 1.15635 2.85002e-18)
(-5.96089 1.11197 0)
(-6.40896 1.048 7.85015e-19)
(-6.83362 0.964374 -1.97467e-18)
(-7.22866 0.861156 9.1575e-19)
(-7.58704 0.738466 0)
(-7.90091 0.596609 1.65928e-19)
(-8.16186 0.436189 -5.15074e-21)
(-8.36089 0.25795 1.17062e-19)
(-8.48923 0.0624187 -4.2377e-20)
(-8.53928 -0.15 9.26776e-20)
(-8.51484 -0.374577 -6.57119e-20)
(-8.41219 -0.606944 -2.23713e-20)
(-8.2288 -0.839919 4.07407e-21)
(-7.96273 -1.0656 1.27614e-20)
(-7.65194 -1.2732 1.10711e-20)
(-7.45217 -1.43674 -3.77711e-21)
(0.0396018 -0.0107634 5.28422e-19)
(-0.223657 0.296762 0)
(-0.561122 0.535222 3.80463e-19)
(-0.957583 0.75243 2.11698e-17)
(-1.39826 0.945984 -2.16594e-17)
(-1.86757 1.11343 0)
(-2.35313 1.25324 -2.22603e-18)
(-2.84655 1.3654 0)
(-3.34278 1.45058 0)
(-3.83883 1.50982 9.16312e-19)
(-4.33276 1.54425 0)
(-4.82286 1.55463 -5.3307e-18)
(-5.30704 1.54134 5.92695e-18)
(-5.7828 1.50447 -2.52373e-18)
(-6.24697 1.44399 4.71276e-18)
(-6.69535 1.3597 -1.86635e-19)
(-7.12338 1.25134 -2.42184e-18)
(-7.52532 1.11885 -4.03683e-19)
(-7.89454 0.962457 0)
(-8.22362 0.782691 1.50101e-19)
(-8.50467 0.580666 -1.33937e-19)
(-8.72973 0.358193 -1.14062e-19)
(-8.89103 0.11782 0)
(-8.98174 -0.13723 7.3302e-20)
(-9.00399 -0.403284 3.25988e-20)
(-8.95766 -0.67447 7.27076e-20)
(-8.84176 -0.939568 0)
(-8.65788 -1.18788 7.04255e-21)
(-8.44089 -1.41142 -6.89254e-21)
(-8.30653 -1.58435 -6.04697e-21)
(0.148548 0.297693 -3.24709e-17)
(-0.165736 0.637556 5.15105e-17)
(-0.575264 0.898483 -4.55552e-17)
(-1.02389 1.12915 2.1503e-17)
(-1.49814 1.33008 0)
(-1.98461 1.50107 1.78814e-17)
(-2.47516 1.64213 -3.30572e-17)
(-2.9654 1.75393 1.49136e-18)
(-3.45338 1.8374 1.63356e-17)
(-3.93884 1.89374 -8.86957e-19)
(-4.42152 1.92374 -5.58411e-18)
(-4.90093 1.92781 6.20575e-18)
(-5.37584 1.90591 -6.86169e-19)
(-5.8444 1.85777 6.21771e-19)
(-6.30431 1.78303 1.60672e-18)
(-6.75161 1.68114 -2.10709e-18)
(-7.18218 1.55161 1.24816e-20)
(-7.59087 1.39409 7.77082e-19)
(-7.97137 1.20864 0)
(-8.31664 0.995732 1.32665e-19)
(-8.61901 0.756525 -1.17675e-19)
(-8.87078 0.493193 -2.8478e-19)
(-9.06454 0.209404 1.86807e-19)
(-9.194 -0.0895496 -7.29808e-20)
(-9.25814 -0.396825 7.99344e-22)
(-9.26089 -0.705017 -1.76177e-20)
(-9.20191 -1.00055 -1.10272e-20)
(-9.08579 -1.2708 -2.26212e-20)
(-8.94341 -1.50729 0)
(-8.85698 -1.68154 5.99493e-21)
(0.306156 0.676988 0)
(-0.0314729 1.04316 4.76822e-17)
(-0.500161 1.3156 -4.30244e-17)
(-0.983054 1.54771 1.83476e-17)
(-1.47339 1.74546 -1.86683e-17)
(-1.96151 1.91132 0)
(-2.44412 2.04672 1.03441e-18)
(-2.92077 2.15288 -1.64123e-17)
(-3.39248 2.23088 2.85524e-17)
(-3.86099 2.28172 -1.49172e-17)
(-4.32725 2.30566 -8.02993e-19)
(-4.79186 2.3026 5.70762e-18)
(-5.25441 2.27202 -1.00534e-17)
(-5.71332 2.21306 4.42627e-18)
(-6.16713 2.12497 -1.53642e-18)
(-6.61244 2.00668 2.03312e-18)
(-7.04509 1.85736 4.33106e-19)
(-7.46049 1.67639 -4.49731e-20)
(-7.85264 1.46357 -9.92757e-19)
(-8.2147 1.21942 -2.77515e-19)
(-8.53914 0.94527 -8.9439e-20)
(-8.81814 0.643827 4.57172e-20)
(-9.04431 0.319749 1.68414e-19)
(-9.21138 -0.0199022 -5.41218e-20)
(-9.31473 -0.365396 1.95303e-21)
(-9.36154 -0.707325 -3.00005e-20)
(-9.35245 -1.03104 2.92452e-20)
(-9.29431 -1.32162 2.23778e-20)
(-9.21357 -1.56834 0)
(-9.16474 -1.74131 0)
(0.506548 1.13013 5.58659e-17)
(0.16734 1.5018 0)
(-0.347909 1.77149 -6.33464e-19)
(-0.846862 1.99304 -3.64647e-17)
(-1.33676 2.17851 3.63845e-17)
(-1.8126 2.33249 -1.07001e-18)
(-2.27603 2.45735 -1.02542e-18)
(-2.73026 2.55452 1.5209e-17)
(-3.17876 2.62486 -1.48242e-17)
(-3.62474 2.66891 -5.78093e-18)
(-4.0702 2.68628 1.10359e-18)
(-4.51628 2.6762 3.41433e-19)
(-4.96357 2.63771 5.43663e-18)
(-5.41091 2.56927 -2.86782e-18)
(-5.85691 2.46954 2.21721e-18)
(-6.29911 2.33704 -4.61796e-19)
(-6.73347 2.17039 4.02237e-19)
(-7.15562 1.96868 3.62087e-19)
(-7.55983 1.7314 1.15812e-18)
(-7.93935 1.45889 -5.49104e-19)
(-8.28656 1.15254 1.96539e-19)
(-8.59329 0.815411 2.43918e-19)
(-8.85163 0.453022 -1.16347e-19)
(-9.05494 0.0742555 1.17052e-19)
(-9.19866 -0.308851 0)
(-9.28578 -0.683287 8.72432e-21)
(-9.32156 -1.03435 0)
(-9.3142 -1.34444 0)
(-9.28598 -1.60002 -1.40432e-21)
(-9.26822 -1.77134 -9.00464e-22)
(0.741114 1.64043 5.19292e-17)
(0.418902 1.99663 -4.21022e-17)
(-0.128963 2.24944 -3.79607e-17)
(-0.62503 2.44966 6.63609e-19)
(-1.09864 2.61574 3.70567e-17)
(-1.54921 2.75314 2.13549e-18)
(-1.98323 2.86456 1.50503e-17)
(-2.40698 2.95107 -5.35611e-19)
(-2.82582 3.01304 -1.4817e-17)
(-3.24397 3.05028 7.45211e-18)
(-3.66437 3.06179 -1.32952e-17)
(-4.0886 3.04591 5.90491e-18)
(-4.51765 3.00109 0)
(-4.95119 2.92524 1.43556e-20)
(-5.38779 2.81623 -5.1245e-19)
(-5.82543 2.67212 4.65181e-19)
(-6.26065 2.49097 -1.89269e-18)
(-6.68921 2.27143 1.75526e-18)
(-7.10556 2.01258 -1.15928e-18)
(-7.50303 1.71445 9.39003e-19)
(-7.87387 1.37841 -6.17851e-19)
(-8.20951 1.00777 -2.82049e-20)
(-8.50132 0.608886 -2.24695e-19)
(-8.74186 0.192206 6.20884e-20)
(-8.92636 -0.227907 1.06196e-20)
(-9.0512 -0.634856 4.34986e-20)
(-9.12824 -1.01307 0)
(-9.16642 -1.34241 0)
(-9.18434 -1.60632 -1.34836e-21)
(-9.19352 -1.77626 3.42292e-21)
(1.00063 2.18211 4.84998e-17)
(0.71312 2.50776 -4.83555e-19)
(0.147609 2.73166 -5.85724e-19)
(-0.3262 2.90175 -3.7014e-17)
(-0.768178 3.04351 -1.12098e-18)
(-1.18105 3.16166 -1.08435e-18)
(-1.57595 3.25855 1.03883e-18)
(-1.96154 3.33438 0)
(-2.34454 3.38876 0)
(-2.72986 3.42049 -8.60727e-19)
(-3.12091 3.42784 6.11549e-18)
(-3.51982 3.4084 -1.21941e-17)
(-3.92761 3.35967 5.38288e-18)
(-4.34442 3.27904 2.80947e-18)
(-4.76922 3.1637 -3.58463e-18)
(-5.20028 3.01111 1.89637e-18)
(-5.63471 2.81881 -7.18643e-19)
(-6.06858 2.58479 1.03717e-18)
(-6.49664 2.30767 -1.997e-20)
(-6.9124 1.98709 -2.05588e-19)
(-7.30808 1.62427 -1.47711e-19)
(-7.67468 1.22271 1.47092e-19)
(-8.00244 0.789251 0)
(-8.28242 0.335271 0)
(-8.50871 -0.123122 0)
(-8.66938 -0.563473 0)
(-8.78524 -0.968912 0)
(-8.86549 -1.31778 -2.95138e-21)
(-8.92547 -1.59003 1.36686e-21)
(-8.95926 -1.75894 -3.43247e-22)
(1.27798 2.73319 4.58067e-17)
(1.04159 3.01572 -3.78582e-17)
(0.472584 3.20029 7.45092e-17)
(0.0410149 3.33327 -5.4604e-17)
(-0.354241 3.44771 1.95969e-17)
(-0.717305 3.54586 0)
(-1.06375 3.62894 1.05719e-18)
(-1.40395 3.69572 1.00042e-18)
(-1.74524 3.74465 -9.35835e-19)
(-2.09286 3.77351 6.80167e-18)
(-2.45035 3.77949 -3.7008e-19)
(-2.81997 3.75942 -4.55523e-18)
(-3.20288 3.70996 0)
(-3.59938 3.62781 5.74404e-19)
(-4.00888 3.50965 -5.0306e-19)
(-4.43008 3.35232 1.22552e-18)
(-4.86075 3.15275 -1.98212e-18)
(-5.29749 2.90829 -2.69596e-19)
(-5.73562 2.61691 7.54407e-19)
(-6.16906 2.27777 -4.02102e-19)
(-6.59023 1.89174 3.56863e-19)
(-6.98964 1.46208 1.3357e-19)
(-7.35602 0.995584 8.58705e-20)
(-7.67791 0.504011 0)
(-7.94589 0.00617524 0)
(-8.14651 -0.469423 0)
(-8.3002 -0.902619 -1.27839e-20)
(-8.42121 -1.27198 5.92292e-21)
(-8.52137 -1.55302 -9.91191e-22)
(-8.57907 -1.72103 1.49687e-21)
(1.56393 3.2794 3.26999e-19)
(1.39422 3.50364 7.45269e-17)
(0.833906 3.63717 -3.8092e-17)
(0.466938 3.72739 -1.35628e-20)
(0.133423 3.81327 -2.39072e-18)
(-0.16796 3.8926 0)
(-0.457118 3.96442 7.63307e-18)
(-0.745051 4.02562 -1.67947e-17)
(-1.03914 4.07278 8.00729e-18)
(-1.34432 4.10252 0)
(-1.66392 4.11093 0)
(-2.00002 4.09388 1.38329e-18)
(-2.35376 4.04736 -2.17967e-19)
(-2.72551 3.96747 -3.06528e-18)
(-3.11499 3.85039 -1.41603e-18)
(-3.52147 3.69251 2.32714e-18)
(-3.94347 3.49016 3.79489e-19)
(-4.37845 3.23997 5.30623e-19)
(-4.82259 2.9392 -5.3829e-19)
(-5.27057 2.5863 -1.93596e-19)
(-5.71534 2.18143 -1.41326e-19)
(-6.14713 1.72706 -1.58153e-19)
(-6.55295 1.22939 6.31816e-20)
(-6.91802 0.700904 1.649e-21)
(-7.22947 0.163933 -2.2146e-20)
(-7.48365 -0.350298 2.7463e-20)
(-7.67617 -0.813716 2.18033e-20)
(-7.83919 -1.20539 6.74397e-21)
(-7.98029 -1.49617 0)
(-8.06306 -1.66311 0)
(1.84506 3.81721 3.21767e-19)
(1.75658 3.95442 0)
(1.21267 4.02313 1.23903e-18)
(0.939654 4.0649 -1.29477e-18)
(0.682584 4.12303 1.28941e-18)
(0.455153 4.18745 0)
(0.231721 4.2532 0)
(0.00247781 4.31415 -1.11859e-18)
(-0.239231 4.36473 9.1005e-18)
(-0.497499 4.40019 -3.14514e-18)
(-0.774947 4.4156 -6.87942e-18)
(-1.07323 4.40582 3.21845e-18)
(-1.39317 4.36629 2.63191e-18)
(-1.73505 4.29257 -4.82685e-18)
(-2.09872 4.18057 2.21107e-18)
(-2.48398 4.02654 4.35319e-19)
(-2.89035 3.8262 0)
(-3.31629 3.57549 -1.89311e-20)
(-3.75908 3.27089 -1.80834e-19)
(-4.21461 2.90993 3.92803e-19)
(-4.67719 2.49188 -9.96465e-20)
(-5.13795 2.01771 4.91801e-20)
(-5.58342 1.49263 0)
(-5.99666 0.929698 -2.88056e-20)
(-6.36261 0.353602 -1.24164e-20)
(-6.67704 -0.20288 1.10762e-20)
(-6.91131 -0.700937 -1.97601e-20)
(-7.12048 -1.11702 0)
(-7.30697 -1.41922 0)
(-7.41861 -1.58444 0)
(2.08959 4.35509 4.02057e-17)
(2.10257 4.34043 -4.16861e-17)
(1.57112 4.33046 -1.37657e-18)
(1.43935 4.3166 1.10558e-17)
(1.27952 4.35536 -1.10507e-17)
(1.13965 4.41373 0)
(0.990941 4.4824 9.93257e-18)
(0.82635 4.55181 -5.04933e-18)
(0.640363 4.61378 -5.62347e-18)
(0.432352 4.66114 -1.01488e-18)
(0.200576 4.68832 -3.52575e-18)
(-0.0559298 4.68994 1.06838e-18)
(-0.337542 4.66089 9.70942e-19)
(-0.644329 4.59641 1.4515e-18)
(-0.975784 4.49316 1.14224e-18)
(-1.33227 4.34746 -4.60242e-19)
(-1.71445 4.154 -3.62354e-19)
(-2.12182 3.90817 -8.21857e-19)
(-2.55284 3.60565 2.76126e-19)
(-3.00477 3.24313 0)
(-3.4743 2.8194 2.53256e-19)
(-3.95523 2.33311 -1.17344e-19)
(-4.43555 1.78755 0)
(-4.89824 1.19467 5.45282e-20)
(-5.327 0.579233 -4.16535e-22)
(-5.71124 -0.024764 -7.81053e-21)
(-5.99629 -0.560856 5.66801e-20)
(-6.25962 -1.00291 -3.11911e-20)
(-6.50184 -1.31969 0)
(-6.65075 -1.48234 0)
(2.18466 4.98086 4.35684e-17)
(2.28428 4.70634 -7.55905e-18)
(1.93536 4.54629 2.11256e-17)
(1.94319 4.47134 -2.09096e-17)
(1.91221 4.4943 1.52383e-17)
(1.86678 4.55787 -4.91242e-18)
(1.79684 4.64025 -3.37087e-18)
(1.70071 4.72716 8.68367e-18)
(1.57658 4.80772 -3.14706e-18)
(1.42434 4.87364 0)
(1.24401 4.91855 8.74509e-19)
(1.03567 4.93722 -1.54444e-18)
(0.799358 4.92461 -6.01144e-19)
(0.534951 4.87565 2.60758e-18)
(0.237135 4.78379 -1.75565e-18)
(-0.0851545 4.64779 0)
(-0.434935 4.4634 4.4995e-20)
(-0.81337 4.22518 4.37633e-20)
(-1.22034 3.92854 1.80831e-19)
(-1.65378 3.57101 -1.76797e-19)
(-2.11354 3.14984 -8.72203e-20)
(-2.59818 2.66028 0)
(-3.09841 2.10431 0)
(-3.59746 1.49331 -1.19232e-19)
(-4.07746 0.850831 4.0658e-20)
(-4.51979 0.20707 -2.10162e-20)
(-4.91357 -0.379804 -8.81789e-20)
(-5.24242 -0.854069 9.28796e-20)
(-5.55917 -1.19109 -2.14802e-21)
(-5.76275 -1.35118 1.63719e-20)
(9.99058 0.0991098 6.02713e-19)
(9.98338 0.197648 -7.58236e-20)
(9.9666 0.297159 7.64139e-20)
(9.93986 0.398987 -6.16982e-19)
(9.90552 0.504388 -3.09307e-19)
(9.86461 0.614585 4.83585e-22)
(9.81724 0.730753 -3.15163e-19)
(9.76343 0.854207 6.36418e-19)
(9.70334 0.986366 -2.82095e-21)
(9.63742 1.12862 6.4544e-19)
(9.5658 1.28234 1.29686e-18)
(9.48839 1.44896 1.30983e-18)
(9.40623 1.63032 3.94624e-18)
(9.31968 1.82834 -2.6329e-18)
(9.22921 2.045 -1.32645e-18)
(9.13607 2.28264 0)
(9.04102 2.54386 2.65348e-18)
(8.94522 2.83159 -2.67366e-20)
(8.85045 3.1494 -5.21708e-18)
(8.75858 3.50129 5.16159e-18)
(8.67234 3.89219 1.26694e-17)
(8.59513 4.32828 -9.93088e-18)
(8.53097 4.81685 -2.379e-18)
(8.48512 5.3671 -4.67877e-20)
(8.46646 5.99013 -9.72655e-18)
(8.47818 6.70227 1.03715e-17)
(8.57688 7.51424 0)
(8.65922 8.49482 0)
(9.49877 9.52759 -1.02099e-19)
(10.2558 11.6032 0)
(9.99086 0.103019 5.85129e-19)
(9.98465 0.205424 0)
(9.96969 0.3088 1.48726e-19)
(9.94552 0.414538 -2.99665e-19)
(9.91447 0.523915 1.3584e-18)
(9.87773 0.638159 -6.07162e-19)
(9.83537 0.758439 0)
(9.78734 0.886059 6.15602e-19)
(9.73392 1.02242 -2.48376e-18)
(9.67572 1.16892 1.25094e-18)
(9.61291 1.32695 -1.25513e-18)
(9.54553 1.49792 1.25865e-18)
(9.47461 1.68355 1.27369e-18)
(9.4007 1.88575 -2.53774e-18)
(9.32452 2.10646 1.27777e-18)
(9.2474 2.34799 -2.53764e-18)
(9.1703 2.61286 1.25894e-18)
(9.09464 2.90386 -2.52619e-18)
(9.02258 3.22435 0)
(8.95663 3.57815 0)
(8.89992 3.96981 -2.40036e-18)
(8.85656 4.40502 -4.60684e-18)
(8.8319 4.89027 1.0215e-17)
(8.83282 5.43325 -1.07045e-17)
(8.87069 6.04224 1.02674e-17)
(8.95424 6.72637 -4.93869e-19)
(9.13684 7.4885 0)
(9.34508 8.33276 0)
(9.9289 9.13674 1.46714e-18)
(10.5887 9.84617 0)
(9.99114 0.106629 -3.7368e-20)
(9.986 0.212611 3.59259e-20)
(9.97296 0.319529 -1.44691e-19)
(9.95149 0.428824 1.45694e-19)
(9.9239 0.541791 -5.8801e-19)
(9.89146 0.659654 2.9791e-19)
(9.85425 0.783598 -5.94985e-19)
(9.81221 0.914897 -3.00812e-19)
(9.76572 1.05488 1.20706e-18)
(9.71545 1.20496 0)
(9.66163 1.36653 0)
(9.6045 1.54096 -1.22404e-18)
(9.54501 1.72984 8.2276e-21)
(9.48395 1.935 0)
(9.42219 2.15831 2.44679e-18)
(9.36111 2.40202 1.21432e-18)
(9.30197 2.66848 -1.21889e-18)
(9.24641 2.9602 0)
(9.19702 3.28021 0)
(9.15681 3.63198 -4.65143e-18)
(9.1288 4.01933 3.40624e-18)
(9.11779 4.44694 -1.09702e-18)
(9.13001 4.91984 4.24301e-18)
(9.17284 5.44296 -4.09725e-18)
(9.25738 6.02001 -2.86487e-18)
(9.39135 6.65073 1.81426e-18)
(9.60778 7.32537 -1.15624e-20)
(9.8524 8.00652 0)
(10.2082 8.62513 -2.92241e-18)
(10.7376 9.1986 -1.09409e-17)
(9.99137 0.109904 -5.21307e-19)
(9.98744 0.219116 -3.49605e-20)
(9.97644 0.329218 0)
(9.95773 0.44168 5.65854e-19)
(9.93372 0.557805 5.69603e-19)
(9.90571 0.678814 5.75464e-19)
(9.87377 0.805903 -5.7658e-19)
(9.83791 0.940311 0)
(9.79857 1.08329 5.84324e-19)