/*--------------------------------*- C++ -*----------------------------------*\
| =========                 |                                                 |
| \\      /  F ield         | OpenFOAM: The Open Source CFD Toolbox           |
|  \\    /   O peration     | Version:  5.x                                   |
|   \\  /    A nd           | Web:      www.OpenFOAM.org                      |
|    \\/     M anipulation  |                                                 |
\*---------------------------------------------------------------------------*/
FoamFile
{
    version     2.0;
    format      ascii;
    class       surfaceScalarField;
    location    "3.6";
    object      meshPhi;
}
// * * * * * * * * * * * * * * * * * * * * * * * * * * * * * * * * * * * * * //

dimensions      [0 3 -1 0 0 0 0];

internalField   nonuniform List<scalar> 
5457
(
-8.76838e-05
-2.10239e-07
-0.000165507
-6.05666e-07
-0.000230637
-9.66573e-07
-0.000283483
-1.308e-06
-0.00032459
-1.64829e-06
-0.000354538
-2.00457e-06
-0.000373911
-2.39381e-06
-0.000383277
-2.83358e-06
-0.000383178
-3.34256e-06
-0.00037413
-3.94081e-06
-0.000356627
-4.64981e-06
-0.000331154
-5.49226e-06
-0.000298206
-6.49139e-06
-0.000258315
-7.66983e-06
-0.000212082
-9.04754e-06
-0.000160222
-1.06386e-05
-0.000103625
-1.24465e-05
-4.34117e-05
-1.4457e-05
1.8987e-05
-1.66282e-05
8.17699e-05
-1.88784e-05
0.00014269
-2.10711e-05
0.000198966
-2.30001e-05
0.000247259
-2.43698e-05
0.000283811
-2.47717e-05
0.000304763
-2.36675e-05
0.000306769
-2.0372e-05
0.000288195
-1.40357e-05
0.000251559
-3.72782e-06
0.000211217
1.07308e-05
4.1904e-05
-8.8028e-05
-4.17771e-07
-0.000166178
-1.20327e-06
-0.000231625
-1.91956e-06
-0.000284791
-2.59633e-06
-0.000326234
-3.2698e-06
-0.000356543
-3.97374e-06
-0.000376312
-4.74159e-06
-0.000386113
-5.60791e-06
-0.000386496
-6.60941e-06
-0.000377982
-7.78552e-06
-0.000361067
-9.17847e-06
-0.000336238
-1.08329e-05
-0.000303984
-1.27949e-05
-0.000264821
-1.51094e-05
-0.000219326
-1.78169e-05
-0.000168173
-2.09476e-05
-0.000112179
-2.45124e-05
-5.23697e-05
-2.84907e-05
9.96692e-06
-3.28116e-05
7.32313e-05
-3.73314e-05
0.000135479
-4.1806e-05
0.000194334
-4.58658e-05
0.000246948
-4.89855e-05
0.000290171
-5.04475e-05
0.000320894
-4.93441e-05
0.00033673
-4.46431e-05
0.000337294
-3.53547e-05
0.000326494
-2.09799e-05
0.000317305
-2.78011e-06
2.3618e-05
-8.86949e-05
-6.19049e-07
-0.000167479
-1.78247e-06
-0.000233543
-2.84202e-06
-0.000287338
-3.84122e-06
-0.000329444
-4.83319e-06
-0.000360469
-5.86739e-06
-0.000381021
-6.99267e-06
-0.000391688
-8.25947e-06
-0.000393031
-9.7213e-06
-0.000385581
-1.14356e-05
-0.000369843
-1.34638e-05
-0.000346301
-1.58714e-05
-0.000315436
-1.87258e-05
-0.000277741
-2.20942e-05
-0.000233745
-2.60385e-05
-0.000184042
-3.06082e-05
-0.000129326
-3.58295e-05
-7.04325e-05
-4.16891e-05
-8.38785e-06
-4.81119e-05
5.55669e-05
-5.49313e-05
0.000120022
-6.18501e-05
0.000183352
-6.84108e-05
0.000243639
-7.39752e-05
0.000298775
-7.76783e-05
0.000346806
-7.84559e-05
0.000386456
-7.52344e-05
0.000417984
-6.7334e-05
0.000444402
-5.52637e-05
0.000472569
-4.18492e-05
-3.20905e-05
-8.96672e-05
-8.10478e-07
-0.000169382
-2.33283e-06
-0.000236355
-3.71704e-06
-0.000291082
-5.01908e-06
-0.00033417
-6.30758e-06
-0.000366256
-7.64626e-06
-0.000387971
-9.09789e-06
-0.000399923
-1.07272e-05
-0.000402695
-1.26026e-05
-0.00039683
-1.47975e-05
-0.000382846
-1.73908e-05
-0.00036123
-2.04662e-05
-0.000332452
-2.41112e-05
-0.000296979
-2.8414e-05
-0.000255281
-3.34588e-05
-0.000207854
-3.93183e-05
-0.000155229
-4.60423e-05
-9.79947e-05
-5.36428e-05
-3.68229e-05
-6.20709e-05
2.74823e-05
-7.11884e-05
9.41388e-05
-8.07166e-05
0.000162521
-9.02091e-05
0.000231939
-9.90566e-05
0.000301537
-0.000106427
0.00037056
-0.00011127
0.000438423
-0.000112533
0.000504403
-0.000109576
0.00056689
-0.00010295
0.000621863
-9.52746e-05
-9.15357e-05
-9.09358e-05
-9.88796e-07
-0.000171869
-2.84486e-06
-0.000240039
-4.52913e-06
-0.000295989
-6.10835e-06
-0.00034037
-7.66474e-06
-0.000373851
-9.27449e-06
-0.000397095
-1.10124e-05
-0.00041074
-1.29553e-05
-0.00041539
-1.51844e-05
-0.000411616
-1.77865e-05
-0.000399949
-2.08549e-05
-0.000380887
-2.44891e-05
-0.000354896
-2.87939e-05
-0.000322419
-3.38765e-05
-0.000283873
-3.98431e-05
-0.000239652
-4.67918e-05
-0.000190128
-5.48041e-05
-0.000135633
-6.39319e-05
-7.64544e-05
-7.41819e-05
-1.29283e-05
-8.54857e-05
5.47665e-05
-9.76589e-05
0.000127018
-0.000110392
0.000204407
-0.000123246
0.000287337
-0.000135582
0.000376192
-0.000146525
0.000470798
-0.000155028
0.000568769
-0.000160022
0.000662643
-0.00016076
0.000736556
-0.000157657
-0.000147439
-9.24852e-05
-1.15094e-06
-0.000174913
-3.30967e-06
-0.000244551
-5.26384e-06
-0.000302005
-7.08892e-06
-0.000347974
-8.87853e-06
-0.00038317
-1.07191e-05
-0.000408292
-1.26953e-05
-0.000424015
-1.48936e-05
-0.000430976
-1.74051e-05
-0.000429775
-2.0327e-05
-0.000420969
-2.37637e-05
-0.000405075
-2.78269e-05
-0.000382567
-3.26346e-05
-0.000353876
-3.83103e-05
-0.000319384
-4.49792e-05
-0.000279411
-5.27648e-05
-0.0002342
-6.17827e-05
-0.000183881
-7.21335e-05
-0.000128425
-8.38941e-05
-6.77017e-05
-9.7095e-05
-1.35711e-06
-0.00011171
7.16751e-05
-0.000127666
0.000152946
-0.0001448
0.000243979
-0.000162815
0.000346178
-0.000181209
0.000459885
-0.00019913
0.000581899
-0.000215137
0.000701102
-0.000226922
0.000792768
-0.000231816
-0.000220329
-9.42979e-05
-1.29413e-06
-0.000178478
-3.71917e-06
-0.000249843
-5.9081e-06
-0.000309064
-7.94277e-06
-0.000356899
-9.92567e-06
-0.000394108
-1.19511e-05
-0.000421436
-1.4111e-05
-0.000439598
-1.64988e-05
-0.000449274
-1.92123e-05
-0.000451101
-2.23558e-05
-0.000445672
-2.60406e-05
-0.000433534
-3.0386e-05
-0.000415186
-3.5519e-05
-0.000391069
-4.15736e-05
-0.000361559
-4.86895e-05
-0.000326947
-5.70103e-05
-0.000287409
-6.66822e-05
-0.000242966
-7.78521e-05
-0.00019342
-9.06665e-05
-0.000138318
-0.000105267
-7.69313e-05
-0.000121804
-7.95694e-06
-0.000140446
7.05546e-05
-0.000161363
0.000160786
-0.000184701
0.000264765
-0.000210509
0.000383362
-0.000238487
0.0005138
-0.000267481
0.000644768
-0.000294637
0.000747849
-0.000314679
-0.000325712
-9.63549e-05
-1.41592e-06
-0.000182527
-4.06627e-06
-0.000255858
-6.45049e-06
-0.000317092
-8.6543e-06
-0.000367049
-1.07863e-05
-0.000406547
-1.29462e-05
-0.000436381
-1.52302e-05
-0.000457316
-1.7736e-05
-0.000470077
-2.05647e-05
-0.00047535
-2.38238e-05
-0.000473774
-2.76273e-05
-0.000465941
-3.2097e-05
-0.000452391
-3.7363e-05
-0.000433606
-4.3563e-05
-0.000409992
-5.0843e-05
-0.000381866
-5.93578e-05
-0.000349418
-6.92722e-05
-0.000312675
-8.07649e-05
-0.00027144
-9.40349e-05
-0.00022523
-0.000109311
-0.000173266
-0.000126875
-0.000114363
-0.000147081
-4.68116e-05
-0.000170378
3.13785e-05
-0.000197308
0.000122017
-0.000228454
0.000225864
-0.000264219
0.000340653
-0.000304283
0.000456795
-0.000346377
0.00054764
-0.000383761
-0.0004329
-9.86367e-05
-1.5142e-06
-0.000187022
-4.34494e-06
-0.000262537
-6.88141e-06
-0.000326007
-9.21059e-06
-0.000378322
-1.14444e-05
-0.000420358
-1.36849e-05
-0.000452969
-1.60304e-05
-0.000476973
-1.85793e-05
-0.000493152
-2.1433e-05
-0.000502245
-2.46979e-05
-0.000504948
-2.84862e-05
-0.000501914
-3.29171e-05
-0.000493744
-3.81167e-05
-0.000480987
-4.42187e-05
-0.000464123
-5.13653e-05
-0.00044355
-5.97087e-05
-0.000419559
-6.94146e-05
-0.000392303
-8.06681e-05
-0.000361757
-9.36841e-05
-0.000327688
-0.000108723
-0.000289649
-0.000126112
-0.000246961
-0.000146279
-0.000198716
-0.000169773
-0.000143977
-0.000197284
-8.21843e-05
-0.000229608
-1.3855e-05
-0.000267485
5.80988e-05
-0.000311116
0.000125643
-0.000358843
0.000168945
-0.000403541
-0.00047642
-0.000101123
-1.5873e-06
-0.000191922
-4.55036e-06
-0.00026982
-7.1933e-06
-0.000335725
-9.60168e-06
-0.000390603
-1.18878e-05
-0.000435397
-1.41537e-05
-0.000471022
-1.64965e-05
-0.000498355
-1.90127e-05
-0.000518238
-2.18005e-05
-0.000531472
-2.49615e-05
-0.000538819
-2.86018e-05
-0.000541004
-3.2832e-05
-0.000538711
-3.77679e-05
-0.000532578
-4.35306e-05
-0.000523197
-5.02472e-05
-0.0005111
-5.8052e-05
-0.000496751
-6.70902e-05
-0.000480533
-7.75227e-05
-0.000462738
-8.95344e-05
-0.000443574
-0.000103347
-0.000423199
-0.000119233
-0.000401773
-0.000137535
-0.000379561
-0.000158671
-0.000357158
-0.00018313
-0.000335863
-0.000211407
-0.000318173
-0.00024383
-0.000308376
-0.000280122
-0.000312986
-0.000318307
-0.000340544
-0.000351891
-0.000406532
-0.000103795
-1.63403e-06
-0.000197184
-4.6792e-06
-0.000277636
-7.38107e-06
-0.00034615
-9.82124e-06
-0.000403767
-1.21096e-05
-0.000451504
-1.43452e-05
-0.000490338
-1.66219e-05
-0.00052121
-1.90312e-05
-0.000545026
-2.16651e-05
-0.000562653
-2.4617e-05
-0.000574928
-2.79826e-05
-0.000582655
-3.18592e-05
-0.000586611
-3.63461e-05
-0.000587547
-4.15439e-05
-0.000586188
-4.75539e-05
-0.000583236
-5.44787e-05
-0.000579376
-6.24224e-05
-0.000575283
-7.14925e-05
-0.000571643
-8.18019e-05
-0.000569197
-9.3471e-05
-0.000568806
-0.000106627
-0.000571557
-0.000121395
-0.000578909
-0.000137874
-0.000592897
-0.000156072
-0.000616378
-0.000175793
-0.000653155
-0.000196407
-0.000707615
-0.000216483
-0.000782685
-0.000233241
-0.000872992
-0.000242084
-0.000248876
-0.000106627
-1.65378e-06
-0.000202758
-4.72982e-06
-0.000285906
-7.44251e-06
-0.000357167
-9.867e-06
-0.000417664
-1.2108e-05
-0.000468484
-1.42595e-05
-0.000510673
-1.64092e-05
-0.000545236
-1.86417e-05
-0.000573142
-2.104e-05
-0.00059533
-2.36866e-05
-0.000612709
-2.66631e-05
-0.000626168
-3.005e-05
-0.000636584
-3.3925e-05
-0.000644822
-3.83623e-05
-0.000651751
-4.34296e-05
-0.000658255
-4.91869e-05
-0.000665247
-5.56832e-05
-0.000673701
-6.29525e-05
-0.000684693
-7.10085e-05
-0.000699459
-7.98334e-05
-0.000719484
-8.93607e-05
-0.000746602
-9.9441e-05
-0.000783111
-0.000109786
-0.000831849
-0.000119873
-0.000896131
-0.000128807
-0.000979259
-0.000135127
-0.00108302
-0.000136651
-0.00120377
-0.000130678
-0.00132344
-0.000115715
-8.11638e-05
-0.000109591
-1.64652e-06
-0.000208583
-4.70227e-06
-0.000294536
-7.37818e-06
-0.000368645
-9.74071e-06
-0.000432118
-1.1887e-05
-0.000486115
-1.39036e-05
-0.000531747
-1.58704e-05
-0.000570083
-1.78629e-05
-0.000602155
-1.99533e-05
-0.000628969
-2.22109e-05
-0.000651505
-2.47014e-05
-0.000670734
-2.74856e-05
-0.000687624
-3.06172e-05
-0.00070315
-3.41402e-05
-0.000718315
-3.80851e-05
-0.000734161
-4.24645e-05
-0.000751806
-4.72664e-05
-0.000772472
-5.24456e-05
-0.000797536
-5.79104e-05
-0.000828592
-6.35031e-05
-0.000867514
-6.89703e-05
-0.000916518
-7.39184e-05
-0.000978162
-7.77507e-05
-0.00105522
-7.95878e-05
-0.00115022
-7.81886e-05
-0.00126434
-7.19342e-05
-0.00139502
-5.90433e-05
-0.00153158
-3.84221e-05
-0.00164853
-1.20642e-05
3.03586e-05
-0.000112653
-1.61266e-06
-0.000214592
-4.59797e-06
-0.000303422
-7.19091e-06
-0.000380442
-9.4473e-06
-0.000446944
-1.14545e-05
-0.00050416
-1.32899e-05
-0.000553265
-1.50241e-05
-0.000595386
-1.6722e-05
-0.000631616
-1.84437e-05
-0.000663018
-2.02443e-05
-0.000690639
-2.21725e-05
-0.000715518
-2.42686e-05
-0.000738701
-2.65616e-05
-0.000761255
-2.90651e-05
-0.000784281
-3.1773e-05
-0.000808947
-3.46521e-05
-0.000836507
-3.76333e-05
-0.000868339
-4.06001e-05
-0.000905985
-4.33712e-05
-0.000951185
-4.56782e-05
-0.0010059
-4.71352e-05
-0.0010723
-4.72005e-05
-0.00115263
-4.51361e-05
-0.00124886
-3.99825e-05
-0.00136199
-3.05928e-05
-0.00149067
-1.58279e-05
-0.00162878
4.89542e-06
-0.00176209
3.04226e-05
-0.00186518
5.6033e-05
8.22523e-05
-0.000115791
-1.55238e-06
-0.000220739
-4.41756e-06
-0.000312496
-6.88222e-06
-0.000392465
-8.98971e-06
-0.000462022
-1.08157e-05
-0.000522467
-1.24269e-05
-0.000575032
-1.38833e-05
-0.000620902
-1.52384e-05
-0.000661219
-1.65397e-05
-0.000697097
-1.78277e-05
-0.000729636
-1.9134e-05
-0.000759927
-2.0479e-05
-0.000789074
-2.18682e-05
-0.000818201
-2.32877e-05
-0.000848475
-2.46985e-05
-0.000881123
-2.60288e-05
-0.00091746
-2.71641e-05
-0.000958905
-2.79348e-05
-0.001007
-2.81002e-05
-0.00106342
-2.73295e-05
-0.00112993
-2.51812e-05
-0.00120826
-2.10832e-05
-0.00129992
-1.43298e-05
-0.00140572
-4.1163e-06
-0.001525
1.03451e-05
-0.00165446
2.95522e-05
-0.00178655
5.32133e-05
-0.00190793
7.95316e-05
-0.00199933
0.000104776
0.000115477
0.000258492
-0.000148378
0.000330225
-0.000111719
0.000381141
-9.26151e-05
0.000393253
-7.00919e-05
0.000365819
-4.87276e-05
0.000306401
-3.04377e-05
0.000224649
-1.58856e-05
0.000128635
-4.84456e-06
2.60939e-05
3.35489e-06
-7.66558e-05
9.3091e-06
-0.000175079
1.36006e-05
-0.00026547
1.65799e-05
-0.000346275
1.84415e-05
-0.000416711
1.94721e-05
-0.00047637
1.99092e-05
-0.000525057
1.99244e-05
-0.000562694
1.96364e-05
-0.00058925
1.91253e-05
-0.000604697
1.84437e-05
-0.000608977
1.76243e-05
-0.000601987
1.6685e-05
-0.000583575
1.56329e-05
-0.000553536
1.44658e-05
-0.000511625
1.31743e-05
-0.000457574
1.17418e-05
-0.000391107
1.01451e-05
-0.000311973
8.35358e-06
-0.000219983
6.32798e-06
-0.000115
4.01853e-06
1.4018e-06
0.00036173
-0.000231043
0.000406479
-0.000190776
0.000429244
-0.000159619
0.000418038
-0.000121184
0.000373381
-8.36041e-05
0.000302509
-5.08906e-05
0.000214319
-2.47969e-05
0.000114239
-4.99956e-06
9.71458e-06
9.86142e-06
-9.32919e-05
2.06858e-05
-0.000191298
2.85874e-05
-0.000280108
3.4119e-05
-0.000359155
3.74722e-05
-0.000427897
3.92748e-05
-0.000485999
3.9981e-05
-0.000533289
3.99055e-05
-0.000569696
3.9264e-05
-0.000595181
3.82026e-05
-0.000609703
3.6817e-05
-0.000613189
3.5167e-05
-0.000605519
3.32845e-05
-0.000586523
3.1181e-05
-0.00055598
2.88509e-05
-0.000513631
2.62739e-05
-0.000459193
2.34168e-05
-0.000392376
2.02325e-05
-0.000312917
1.66596e-05
-0.000220615
1.26199e-05
-0.000115318
8.01407e-06
2.79551e-06
0.000510642
-0.000261048
0.000518558
-0.000227491
0.000499106
-0.000190068
0.000450736
-0.000142874
0.000377789
-9.58858e-05
0.000287968
-5.44383e-05
0.000188071
-2.09882e-05
8.09625e-05
4.37361e-06
-2.60138e-05
2.32331e-05
-0.000128547
3.68728e-05
-0.000224217
4.66124e-05
-0.000309235
5.33802e-05
-0.000384646
5.75009e-05
-0.000449992
5.96068e-05
-0.000504997
6.0286e-05
-0.000549519
5.99348e-05
-0.000583488
5.88264e-05
-0.000606854
5.71475e-05
-0.000619548
5.50211e-05
-0.000621464
5.25232e-05
-0.000612449
4.96933e-05
-0.000592298
4.65428e-05
-0.000560761
4.30598e-05
-0.000517549
3.92118e-05
-0.00046235
3.49473e-05
-0.000394848
3.01953e-05
-0.000314756
2.48635e-05
-0.000221845
1.88347e-05
-0.000115939
1.19606e-05
4.17212e-06
0.000650482
-0.000262422
0.000620923
-0.000226826
0.000556622
-0.000184067
0.000467421
-0.000132643
0.000362996
-8.24419e-05
0.000251792
-3.84808e-05
0.00013705
-2.59105e-06
2.32251e-05
2.48016e-05
-8.39982e-05
4.47378e-05
-0.000183632
5.88981e-05
-0.000273135
6.84605e-05
-0.000352175
7.47662e-05
-0.00042213
7.86585e-05
-0.000482443
8.04879e-05
-0.000532879
8.07818e-05
-0.00057333
7.99319e-05
-0.000603724
7.82208e-05
-0.000623983
7.58455e-05
-0.000633997
7.29371e-05
-0.000633612
6.95748e-05
-0.000622624
6.57975e-05
-0.000600781
6.16111e-05
-0.000567786
5.69936e-05
-0.000523306
5.18983e-05
-0.000466989
4.62543e-05
-0.000398484
3.99661e-05
-0.000317463
3.29103e-05
-0.000223659
2.49312e-05
-0.000116859
1.58324e-05
5.52267e-06
0.000752377
-0.00023892
0.000682155
-0.000188388
0.000573407
-0.000141583
0.000445985
-9.06382e-05
0.000313573
-4.355e-05
0.000184083
-3.50224e-06
5.85239e-05
2.89067e-05
-5.72036e-05
5.37627e-05
-0.000161138
7.1803e-05
-0.000254695
8.4461e-05
-0.000335892
9.27455e-05
-0.000407698
9.7846e-05
-0.000470627
0.000100736
-0.000524401
0.000101764
-0.000568916
0.000101328
-0.000604108
9.97604e-05
-0.000629894
9.73131e-05
-0.000646153
9.41662e-05
-0.000652717
9.04395e-05
-0.000649369
8.62029e-05
-0.000635839
8.14858e-05
-0.000611811
7.62827e-05
-0.00057693
7.05584e-05
-0.000530809
6.42493e-05
-0.000473045
5.72641e-05
-0.000403235
4.94821e-05
-0.000321006
4.0749e-05
-0.000226039
3.08713e-05
-0.000118068
1.96053e-05
6.83887e-06
0.000791198
-0.000164645
0.000675799
-0.000103103
0.000525805
-6.02879e-05
0.000368335
-1.83838e-05
0.000217547
1.79468e-05
7.91365e-05
4.78475e-05
-4.67681e-05
7.16567e-05
-0.000157655
8.99079e-05
-0.00025438
0.000103267
-0.000338938
0.000112572
-0.000411353
0.000118544
-0.000474488
0.00012192
-0.000528884
0.000123333
-0.000574749
0.00012316
-0.000612145
0.000121713
-0.000641041
0.000119244
-0.000661324
0.00011595
-0.000672811
0.000111972
-0.00067526
0.000107403
-0.000668373
0.000102293
-0.000651802
9.66527e-05
-0.000625156
9.04617e-05
-0.000588011
8.36674e-05
-0.000539915
7.61874e-05
-0.000480404
6.7909e-05
-0.000409019
5.86857e-05
-0.000325326
4.83329e-05
-0.000228947
3.66199e-05
-0.000119547
2.32575e-05
8.11308e-06
0.000723316
-1.21592e-05
0.000568689
3.13086e-05
0.000391354
5.57603e-05
0.000220642
7.73911e-05
6.73705e-05
9.53199e-05
-6.6252e-05
0.000110036
-0.00018178
0.000121971
-0.000280686
0.000131323
-0.000365126
0.000138224
-0.000437316
0.000142877
-0.000498685
0.000145522
-0.000551064
0.000146459
-0.000595407
0.000145987
-0.000632146
0.000144331
-0.000661415
0.000141676
-0.000683163
0.000138179
-0.000697215
0.000133964
-0.000703304
0.000129121
-0.000701094
0.000123704
-0.000690194
0.000117734
-0.000670167
0.0001112
-0.000640539
0.00010406
-0.000600808
9.62415e-05
-0.00055045
8.76424e-05
-0.000488933
7.81274e-05
-0.000415733
6.75247e-05
-0.000330349
5.56194e-05
-0.000232334
4.21452e-05
-0.000121274
2.67688e-05
9.33832e-06
0.000495975
0.000196662
0.000329476
0.000191784
0.000155169
0.000186797
-2.34906e-06
0.000181241
-0.000137355
0.000177199
-0.00025084
0.000174996
-0.000345887
0.000174176
-0.000425461
0.000174055
-0.000492235
0.000174004
-0.000548438
0.000173578
-0.000595702
0.000172516
-0.000635405
0.000170711
-0.000668386
0.000168155
-0.000695031
0.000164877
-0.000715409
0.000160921
-0.000729381
0.000156339
-0.000736668
0.000151178
-0.000736897
0.000145467
-0.000729622
0.000139219
-0.000714349
0.000132421
-0.000690545
0.000125034
-0.000657647
0.000116994
-0.000615069
0.000108206
-0.000562213
9.85486e-05
-0.000498474
8.78623e-05
-0.000423256
7.59505e-05
-0.000335988
6.25693e-05
-0.000236143
4.74178e-05
-0.000123219
3.01206e-05
1.05081e-05
9.1546e-05
0.000385968
-4.33598e-05
0.00033215
-0.000175282
0.000300885
-0.000290262
0.000272335
-0.000386491
0.000250148
-0.000465937
0.000233983
-0.000531448
0.000222481
-0.000585626
0.000214217
-0.000630616
0.000207992
-0.000668086
0.000202906
-0.000699239
0.000198333
-0.000724944
0.000193868
-0.000745691
0.000189267
-0.000761633
0.000184386
-0.000772663
0.000179143
-0.000778491
0.000173494
-0.000778699
0.00016741
-0.000772785
0.000160865
-0.000760188
0.000153827
-0.000740305
0.000146249
-0.000712504
0.000138064
-0.000676131
0.000129184
-0.000630516
0.000119493
-0.000574983
0.000108845
-0.000508852
9.70605e-05
-0.000431454
8.39181e-05
-0.000342141
6.91458e-05
-0.000240307
5.24099e-05
-0.000125348
3.32955e-05
1.16164e-05
-0.00043448
0.00047434
-0.000501758
0.000411619
-0.000562442
0.000371663
-0.000615107
0.000334375
-0.000659605
0.000303973
-0.000696682
0.000280411
-0.000727425
0.000262474
-0.000752901
0.000248777
-0.000774007
0.000238079
-0.000791426
0.000229385
-0.000805605
0.00022194
-0.000816788
0.000215203
-0.000825005
0.000208801
-0.000830076
0.000202479
-0.000831649
0.000196062
-0.000829243
0.000189431
-0.000822284
0.000182496
-0.000810134
0.000175184
-0.000792112
0.000167421
-0.000767508
0.000159129
-0.000735593
0.000150214
-0.000695624
0.000140563
-0.00064685
0.00013004
-0.000588517
0.000118478
-0.000519873
0.000105676
-0.000440176
9.13886e-05
-0.000348699
7.53172e-05
-0.00024475
5.70977e-05
-0.000127622
3.62783e-05
1.26579e-05
-0.000968825
0.000454884
-0.00096317
0.00042471
-0.000950355
0.000395065
-0.000939454
0.000363994
-0.000931456
0.000335783
-0.000925753
0.00031182
-0.000921624
0.000292115
-0.000918504
0.000276087
-0.000915958
0.000262972
-0.000913619
0.000252023
-0.000911128
0.000242594
-0.0009081
0.000234171
-0.000904088
0.000226358
-0.000898561
0.000218859
-0.000890908
0.000211457
-0.00088045
0.000203984
-0.000866452
0.000196311
-0.000848147
0.000188325
-0.000824739
0.000179922
-0.000795419
0.000170996
-0.000759368
0.000161427
-0.000715762
0.000151084
-0.000663773
0.000139807
-0.000602575
0.000127412
-0.000531345
0.000113677
-0.000449268
9.83337e-05
-0.000355543
8.10602e-05
-0.000249391
6.14634e-05
-0.000129999
3.90575e-05
1.36286e-05
-0.00140706
0.000391755
-0.0013539
0.000400918
-0.0012896
0.000388266
-0.00123029
0.000369889
-0.00117975
0.000349472
-0.00113784
0.000329629
-0.00110332
0.000311636
-0.00107477
0.000295867
-0.00105087
0.000282215
-0.0010305
0.00027035
-0.00101266
0.00025988
-0.000996447
0.00025043
-0.000981026
0.000241669
-0.000965556
0.000233325
-0.000949197
0.000225177
-0.000931089
0.000217042
-0.00091036
0.00020877
-0.000886123
0.000200225
-0.000857488
0.000191281
-0.000823556
0.00018181
-0.00078343
0.000171673
-0.000736213
0.000160718
-0.00068101
0.00014877
-0.000616928
0.000135625
-0.00054308
0.000121043
-0.000458582
0.000104737
-0.000362559
8.63607e-05
-0.00025415
6.54958e-05
-0.000132435
4.16258e-05
1.45258e-05
-0.00171215
0.000354319
-0.0016433
0.000374589
-0.00155547
0.000372449
-0.00146853
0.000364054
-0.00139018
0.000351528
-0.00132241
0.000337194
-0.00126478
0.000322653
-0.00121598
0.000308794
-0.00117449
0.000295998
-0.00113886
0.000284326
-0.00110773
0.000273666
-0.00107992
0.000263827
-0.0010543
0.000254593
-0.00102984
0.000245756
-0.00100551
0.000237126
-0.00098033
0.000228532
-0.000953313
0.00021982
-0.000923483
0.000210846
-0.000889869
0.00020147
-0.000851505
0.000191549
-0.000807429
0.000180932
-0.000756684
0.000169451
-0.000698315
0.000156916
-0.000631373
0.000143106
-0.00055491
0.000127766
-0.000467981
0.000110589
-0.000369643
9.12105e-05
-0.000258952
6.91884e-05
-0.000134892
4.39788e-05
1.5348e-05
-0.00190929
0.000351557
-0.00183983
0.000357659
-0.00174638
0.000357242
-0.00164872
0.000353798
-0.00155659
0.000347072
-0.00147387
0.000337844
-0.00140135
0.00032719
-0.00133842
0.000316016
-0.00128387
0.000304922
-0.00123635
0.000294227
-0.0011945
0.000284046
-0.00115703
0.000274364
-0.00112271
0.000265091
-0.00109041
0.000256101
-0.00105902
0.000247255
-0.00102748
0.000238411
-0.00099472
0.000229425
-0.000959721
0.000220158
-0.000921454
0.000210466
-0.000878902
0.000200199
-0.000831055
0.000189194
-0.00077691
0.000177273
-0.000715465
0.000164235
-0.000645722
0.000149846
-0.000566681
0.000133836
-0.000477342
0.000115882
-0.000376698
9.56028e-05
-0.000263732
7.25356e-05
-0.000137334
4.61127e-05
1.60937e-05
-0.00203224
0.000348571
-0.00196208
0.00033289
-0.00187127
0.000338441
-0.00177433
0.000340321
-0.0016796
0.000338651
-0.00159148
0.000333951
-0.00151176
0.00032705
-0.00144071
0.000318777
-0.00137775
0.000309796
-0.0013219
0.00030056
-0.00127204
0.000291333
-0.001227
0.000282237
-0.00118561
0.000273291
-0.00114674
0.000264452
-0.00110928
0.000255638
-0.00107214
0.000246743
-0.00103426
0.000237649
-0.000994558
0.000228225
-0.000952
0.000218331
-0.000905536
0.000207817
-0.000854128
0.000196515
-0.000796737
0.00018424
-0.000732328
0.00017078
-0.000659862
0.000155893
-0.000578299
0.000139296
-0.000486588
0.000120653
-0.000383666
9.95678e-05
-0.000268448
7.55599e-05
-0.00013974
4.80417e-05
1.67679e-05
-0.000123565
-1.46521e-06
-0.000235726
-4.15981e-06
-0.000334092
-6.45038e-06
-0.000420227
-8.36612e-06
-0.000495645
-9.96908e-06
-0.000561761
-1.13142e-05
-0.000619914
-1.24497e-05
-0.00067138
-1.34173e-05
-0.000717391
-1.42516e-05
-0.000759143
-1.49787e-05
-0.000797817
-1.56142e-05
-0.000834583
-1.61602e-05
-0.000870617
-1.66017e-05
-0.000907112
-1.69016e-05
-0.000945296
-1.69949e-05
-0.000986444
-1.67819e-05
-0.00103189
-1.61186e-05
-0.00108304
-1.48068e-05
-0.00114135
-1.25818e-05
-0.00120828
-9.10276e-06
-0.00128523
-3.94684e-06
-0.00137335
3.38902e-06
-0.00147321
1.34586e-05
-0.0015844
2.67897e-05
-0.00170486
4.37592e-05
-0.00183011
6.43939e-05
-0.00195256
8.81096e-05
-0.00206155
0.000113588
-0.00214551
0.000139373
0.000165475
-0.00224292
-0.000130047
-1.35168e-06
-0.000248256
-3.82633e-06
-0.00035222
-5.89845e-06
-0.000443653
-7.58166e-06
-0.000524185
-8.92289e-06
-0.000595332
-9.9641e-06
-0.000658512
-1.07415e-05
-0.000715077
-1.12847e-05
-0.000766321
-1.16159e-05
-0.000813499
-1.17479e-05
-0.00085784
-1.16819e-05
-0.000900559
-1.14046e-05
-0.000942863
-1.08846e-05
-0.000985961
-1.00675e-05
-0.00103108
-8.87173e-06
-0.00107945
-7.18191e-06
-0.00113235
-4.84281e-06
-0.00119103
-1.6524e-06
-0.00125673
2.64468e-06
-0.00133055
8.35644e-06
-0.00141335
1.58318e-05
-0.0015056
2.54492e-05
-0.00160695
3.75702e-05
-0.00171598
5.24474e-05
-0.00182977
7.01312e-05
-0.00194352
9.03413e-05
-0.00205049
0.000112336
-0.00214279
0.000134987
-0.0022143
0.000157419
0.000179251
-0.00226134
-0.000136802
-1.21312e-06
-0.000261314
-3.4212e-06
-0.000371108
-5.23356e-06
-0.000468045
-6.64721e-06
-0.000553875
-7.69279e-06
-0.000630207
-8.39867e-06
-0.00069854
-8.78882e-06
-0.000760289
-8.88134e-06
-0.000816801
-8.68687e-06
-0.000869377
-8.20654e-06
-0.000919281
-7.42974e-06
-0.00096775
-6.33134e-06
-0.00101599
-4.86838e-06
-0.0010652
-2.97656e-06
-0.00111655
-5.66601e-07
-0.00117119
2.47953e-06
-0.00123024
6.31174e-06
-0.00129476
1.11136e-05
-0.00136571
1.71072e-05
-0.00144376
2.45438e-05
-0.00152925
3.36772e-05
-0.00162206
4.47498e-05
-0.00172109
5.79362e-05
-0.0018243
7.32655e-05
-0.00192847
9.05669e-05
-0.00202898
0.00010939
-0.00212023
0.000129004
-0.0021966
0.000148606
-0.00225426
0.000167783
0.00018591
-0.00228851
-0.000143792
-1.05111e-06
-0.000274827
-2.94911e-06
-0.00039065
-4.46376e-06
-0.000493268
-5.57477e-06
-0.000584546
-6.29571e-06
-0.000666182
-6.64107e-06
-0.000739747
-6.62287e-06
-0.000806713
-6.24842e-06
-0.000868469
-5.51826e-06
-0.000926345
-4.42402e-06
-0.000981629
-2.94618e-06
-0.00103556
-1.05161e-06
-0.00108933
1.30873e-06
-0.00114406
4.20225e-06
-0.00120086
7.71694e-06
-0.00126074
1.19629e-05
-0.00132463
1.70718e-05
-0.00139338
2.31973e-05
-0.00146768
3.05166e-05
-0.00154776
3.9208e-05
-0.00163353
4.94255e-05
-0.00172438
6.12796e-05
-0.00181874
7.47801e-05
-0.0019143
8.98012e-05
-0.00200793
0.000106059
-0.00209562
0.000123084
-0.00217312
0.000140304
-0.00223673
0.000157193
-0.00228394
0.000173487
0.000188365
-0.00231069
-0.000150982
-8.67353e-07
-0.000288731
-2.4151e-06
-0.000410757
-3.59749e-06
-0.000519205
-4.37667e-06
-0.000616052
-4.74866e-06
-0.00070308
-4.71413e-06
-0.000781923
-4.27368e-06
-0.0008541
-3.42492e-06
-0.00092103
-2.16002e-06
-0.000984061
-4.63554e-07
-0.00104449
1.68978e-06
-0.00110355
4.33708e-06
-0.00116237
7.52828e-06
-0.001222
1.13274e-05
-0.00128342
1.58136e-05
-0.00134754
2.10813e-05
-0.00141507
2.72369e-05
-0.00148666
3.43996e-05
-0.0015627
4.269e-05
-0.00164307
5.22014e-05
-0.00172732
6.29927e-05
-0.00181447
7.50677e-05
-0.0019028
8.83306e-05
-0.00199004
0.000102582
-0.00207342
0.000117516
-0.00214977
0.000132728
-0.00221606
0.000147781
-0.00226978
0.000162301
-0.00230916
0.00017605
0.000188185
-0.00233116
-0.000158336
-6.64078e-07
-0.00030296
-1.8257e-06
-0.000431336
-2.6455e-06
-0.000545743
-3.06819e-06
-0.000648257
-3.07217e-06
-0.000740739
-2.64462e-06
-0.000824879
-1.77554e-06
-0.000902232
-4.54103e-07
-0.000974238
1.33402e-06
-0.00104225
3.60892e-06
-0.00110756
6.3984e-06
-0.00117137
9.73934e-06
-0.00123473
1.36778e-05
-0.0012986
1.82689e-05
-0.00136386
2.35776e-05
-0.00143126
2.9676e-05
-0.00150134
3.66408e-05
-0.00157454
4.4548e-05
-0.00165095
5.34579e-05
-0.00173019
6.33942e-05
-0.00181159
7.43432e-05
-0.00189401
8.62379e-05
-0.00197579
9.89328e-05
-0.00205492
0.000112205
-0.00212907
0.000125763
-0.00219587
0.000139271
-0.00225311
0.000152392
-0.00229907
0.000164838
-0.00233255
0.000176388
0.00018627
-0.0023513
-0.000165813
-4.45046e-07
-0.000317434
-1.19183e-06
-0.000452277
-1.62569e-06
-0.000572738
-1.67443e-06
-0.000680986
-1.29923e-06
-0.000778951
-4.74475e-07
-0.000868371
8.19391e-07
-0.000950831
2.60013e-06
-0.00102778
4.88671e-06
-0.00110058
7.70147e-06
-0.00117047
1.10717e-05
-0.00123861
1.50302e-05
-0.00130598
1.96152e-05
-0.00137344
2.48697e-05
-0.00144176
3.084e-05
-0.00151155
3.75732e-05
-0.0015832
4.51122e-05
-0.00165691
5.34894e-05
-0.00173257
6.27153e-05
-0.00180968
7.27668e-05
-0.00188746
8.35807e-05
-0.00196477
9.50455e-05
-0.00204012
0.000106993
-0.00211178
0.000119204
-0.00217791
0.00013142
-0.00223671
0.000143364
-0.00228662
0.000154771
-0.00232644
0.00016541
-0.0023554
0.00017509
0.000183144
-0.00237176
-0.000173363
-2.14458e-07
-0.000332058
-5.25735e-07
-0.000473437
-5.57901e-07
-0.000600004
-2.22926e-07
-0.000714012
5.34439e-07
-0.000817447
1.75165e-06
-0.000912088
3.45655e-06
-0.00099954
5.6723e-06
-0.00108126
8.42059e-06
-0.00115858
1.17237e-05
-0.00123272
1.56059e-05
-0.00130474
2.00934e-05
-0.00137558
2.5214e-05
-0.00144601
3.09959e-05
-0.00151669
3.74657e-05
-0.00158807
4.46448e-05
-0.00166044
5.25449e-05
-0.00173383
6.11621e-05
-0.00180799
7.04685e-05
-0.0018824
8.04055e-05
-0.00195624
9.0879e-05
-0.00202846
0.000101756
-0.00209777
0.000112866
-0.00216276
0.000124004
-0.00222198
0.000134949
-0.00227412
0.000145474
-0.00231804
0.000155368
-0.00235294
0.000164446
-0.00237837
0.00017255
0.000179122
-0.0023929
-0.000180933
2.3648e-08
-0.00034673
1.60938e-07
-0.000494673
5.39122e-07
-0.000627358
1.26069e-06
-0.000747109
2.3962e-06
-0.000855963
3.99374e-06
-0.000955729
6.08817e-06
-0.00104802
8.70649e-06
-0.0011343
1.18714e-05
-0.00121586
1.56033e-05
-0.00129387
1.99214e-05
-0.00136935
2.48437e-05
-0.00144316
3.03863e-05
-0.00151599
3.65617e-05
-0.00158839
4.33769e-05
-0.00166074
5.08298e-05
-0.00173318
5.89054e-05
-0.00180565
6.75711e-05
-0.00187786
7.67714e-05
-0.00194927
8.64242e-05
-0.00201913
9.64189e-05
-0.00208649
0.000106617
-0.00215029
0.000116853
-0.0022094
0.000126947
-0.00226272
0.00013671
-0.00230928
0.000145958
-0.00234829
0.000154523
-0.00237922
0.000162259
-0.00240182
0.000169043
0.00017441
-0.0024149
-0.000188472
2.64907e-07
-0.000361352
8.5563e-07
-0.000515845
1.64537e-06
-0.000654623
2.74937e-06
-0.000780069
4.25208e-06
-0.000894261
6.21092e-06
-0.000999027
8.66639e-06
-0.00109599
1.1648e-05
-0.00118659
1.5178e-05
-0.0012721
1.92735e-05
-0.00135364
2.39476e-05
-0.00143217
2.9209e-05
-0.00150849
3.50617e-05
-0.00158322
4.15031e-05
-0.00165684