/*--------------------------------*- C++ -*----------------------------------*\
| =========                 |                                                 |
| \\      /  F ield         | OpenFOAM: The Open Source CFD Toolbox           |
|  \\    /   O peration     | Version:  5.x                                   |
|   \\  /    A nd           | Web:      www.OpenFOAM.org                      |
|    \\/     M anipulation  |                                                 |
\*---------------------------------------------------------------------------*/
FoamFile
{
    version     2.0;
    format      ascii;
    class       pointVectorField;
    location    "3.6";
    object      pointDisplacement;
}
// * * * * * * * * * * * * * * * * * * * * * * * * * * * * * * * * * * * * * //

dimensions      [0 1 0 0 0 0 0];

internalField   nonuniform List<vector> 
5828
(
(0 0 0)
(0.00514031 0 0)
(0.0097998 0 0)
(0.0138662 0 0)
(0.0173884 0 0)
(0.0204119 0 0)
(0.0229779 0 0)
(0.0251232 0 0)
(0.0268803 0 0)
(0.0282776 0 0)
(0.0293399 0 0)
(0.0300885 0 0)
(0.030541 0 0)
(0.0307122 0 0)
(0.0306139 0 0)
(0.0302552 0 0)
(0.0296429 0 0)
(0.0287818 0 0)
(0.0276752 0 0)
(0.0263252 0 0)
(0.0247337 0 0)
(0.0229038 0 0)
(0.0208412 0 0)
(0.0185581 0 0)
(0.0160755 0 0)
(0.01343 0 0)
(0.0106833 0 0)
(0.00794121 0 0)
(0.00539342 0 0)
(0.00343052 0 0)
(0 0 0)
(0 0 0)
(0.00514204 0 -1.2761e-08)
(0.00980356 0 9.55948e-08)
(0.0138721 0 4.24747e-07)
(0.0173967 0 1.06108e-06)
(0.0204228 0 2.09088e-06)
(0.0229919 0 3.60911e-06)
(0.0251407 0 5.72686e-06)
(0.026902 0 8.57878e-06)
(0.0283043 0 1.2331e-05)
(0.0293725 0 1.71906e-05)
(0.030128 0 2.34166e-05)
(0.0305889 0 3.1334e-05)
(0.0307701 0 4.13505e-05)
(0.0306837 0 5.39785e-05)
(0.0303394 0 6.98606e-05)
(0.0297444 0 8.98024e-05)
(0.0289042 0 0.000114811)
(0.0278227 0 0.000146142)
(0.0265031 0 0.000185351)
(0.0249487 0 0.000234362)
(0.0231637 0 0.000295547)
(0.0211557 0 0.00037186)
(0.0189392 0 0.00046692)
(0.0165388 0 0.000585003)
(0.0139953 0 0.000730997)
(0.0113765 0 0.000910004)
(0.00879636 0 0.00112567)
(0.00645294 0 0.00137433)
(0.00472482 0 0.00162433)
(0.00232796 0 0.00214051)
(0 0 0)
(0.00514778 0 -5.57591e-08)
(0.00981517 0 1.2992e-07)
(0.01389 0 7.54034e-07)
(0.0174214 0 1.98624e-06)
(0.0204554 0 3.99575e-06)
(0.0230335 0 6.96842e-06)
(0.0251928 0 1.11214e-05)
(0.0269665 0 1.67172e-05)
(0.0283835 0 2.40794e-05)
(0.0294692 0 3.36102e-05)
(0.0302456 0 4.58116e-05)
(0.0307313 0 6.13117e-05)
(0.0309422 0 8.08967e-05)
(0.0308914 0 0.000105551)
(0.0305897 0 0.000136505)
(0.0300458 0 0.000175293)
(0.0292671 0 0.000223829)
(0.0282599 0 0.000284478)
(0.0270301 0 0.000360155)
(0.0255845 0 0.00045441)
(0.0239312 0 0.000571532)
(0.0220824 0 0.000716785)
(0.0200592 0 0.000896469)
(0.0178952 0 0.00111759)
(0.0156413 0 0.00138735)
(0.0133779 0 0.00171175)
(0.0112317 0 0.00209138)
(0.00940305 0 0.00251005)
(0.0082155 0 0.0029033)
(0.0066524 0 0.00356427)
(0 0 0)
(0.00515717 0 -1.58889e-07)
(0.00983416 0 4.24274e-08)
(0.0139192 0 8.9353e-07)
(0.0174618 0 2.64115e-06)
(0.0205086 0 5.53069e-06)
(0.0231016 0 9.83092e-06)
(0.0252783 0 1.58549e-05)
(0.0270724 0 2.398e-05)
(0.0285136 0 3.46698e-05)
(0.029628 0 4.84982e-05)
(0.0304385 0 6.61788e-05)
(0.0309649 0 8.86005e-05)
(0.0312243 0 0.00011687)
(0.0312315 0 0.000152366)
(0.0309991 0 0.000196799)
(0.0305384 0 0.000252291)
(0.0298593 0 0.000321459)
(0.0289717 0 0.000407515)
(0.027886 0 0.00051436)
(0.0266151 0 0.000646648)
(0.0251721 0 0.000809734)
(0.0235742 0 0.00101005)
(0.0218527 0 0.00125511)
(0.0200525 0 0.00155229)
(0.0182349 0 0.00190749)
(0.0164885 0 0.00232255)
(0.0149402 0 0.00278867)
(0.0137633 0 0.00327276)
(0.0131806 0 0.00368924)
(0.0124556 0 0.00429216)
(0 0 0)
(0.0051702 0 -3.50496e-07)
(0.00986045 0 -2.2429e-07)
(0.0139595 0 7.53786e-07)
(0.0175177 0 2.89841e-06)
(0.0205821 0 6.52132e-06)
(0.0231954 0 1.19625e-05)
(0.025396 0 1.96164e-05)
(0.0272181 0 2.99563e-05)
(0.0286924 0 4.35604e-05)
(0.029846 0 6.11412e-05)
(0.030703 0 8.3579e-05)
(0.0312847 0 0.000111963)
(0.0316099 0 0.00014764)
(0.0316955 0 0.000192272)
(0.0315566 0 0.000247904)
(0.0312074 0 0.000317041)
(0.0306616 0 0.000402737)
(0.029933 0 0.000508684)
(0.0290373 0 0.000639305)
(0.0279942 0 0.000799591)
(0.0268248 0 0.000994937)
(0.0255519 0 0.00123192)
(0.0242146 0 0.0015177)
(0.022868 0 0.00185755)
(0.0215789 0 0.00225331)
(0.0204348 0 0.00269998)
(0.0195447 0 0.00317818)
(0.0190296 0 0.0036425)
(0.0189953 0 0.00400488)
(0.0189299 0 0.00445889)
(0 0 0)
(0.00518669 0 -6.56362e-07)
(0.0098937 0 -7.22436e-07)
(0.0140105 0 2.53526e-07)
(0.0175881 0 2.64242e-06)
(0.0206747 0 6.80979e-06)
(0.0233135 0 1.31521e-05)
(0.0255437 0 2.21266e-05)
(0.0274008 0 3.42788e-05)
(0.0289163 0 5.02706e-05)
(0.0301186 0 7.09115e-05)
(0.0310332 0 9.71939e-05)
(0.0316831 0 0.000130334)
(0.0320893 0 0.000171822)
(0.0322709 0 0.000223471)
(0.0322461 0 0.000287485)
(0.0320324 0 0.000366522)
(0.0316473 0 0.000463759)
(0.0311094 0 0.000582953)
(0.030439 0 0.000728484)
(0.0296614 0 0.000904926)
(0.0288073 0 0.00111702)
(0.0279099 0 0.00137054)
(0.0270101 0 0.00167067)
(0.0261647 0 0.00201912)
(0.0254412 0 0.00241285)
(0.0249152 0 0.00284047)
(0.0246633 0 0.0032757)
(0.0247411 0 0.00367026)
(0.0251433 0 0.00394875)
(0.0255426 0 0.00426151)
(0 0 0)
(0.00520643 0 -1.09902e-06)
(0.00993339 0 -1.49755e-06)
(0.0140712 0 -6.77951e-07)
(0.017672 0 1.77307e-06)
(0.0207846 0 6.26012e-06)
(0.0234535 0 1.32191e-05)
(0.0257189 0 2.31488e-05)
(0.0276171 0 3.66398e-05)
(0.0291808 0 5.44027e-05)
(0.03044 0 7.7298e-05)
(0.0314217 0 0.00010637)
(0.0321508 0 0.000142881)
(0.0326504 0 0.000188358)
(0.0329423 0 0.00024463)
(0.0330478 0 0.000313877)
(0.0329877 0 0.00039867)
(0.0327837 0 0.000501999)
(0.0324589 0 0.000627272)
(0.0320385 0 0.000778263)
(0.0315515 0 0.000958707)
(0.0310361 0 0.00117229)
(0.0305352 0 0.00142278)
(0.0300898 0 0.0017123)
(0.0297516 0 0.00203903)
(0.0295815 0 0.00239591)
(0.0296352 0 0.00276758)
(0.0299498 0 0.00312655)
(0.0305162 0 0.00343059)
(0.0312395 0 0.00362464)
(0.0319621 0 0.00383767)
(0 0 0)
(0.0052291 0 -1.69703e-06)
(0.00997889 0 -2.58707e-06)
(0.0141406 0 -2.09846e-06)
(0.0177677 0 2.09096e-07)
(0.0209101 0 4.76313e-06)
(0.0236131 0 1.20202e-05)
(0.0259181 0 2.24982e-05)
(0.0278626 0 3.68042e-05)
(0.0294805 0 5.56604e-05)
(0.0308033 0 7.99311e-05)
(0.0318596 0 0.00011065)
(0.0326764 0 0.000149047)
(0.0332789 0 0.000196583)
(0.0336916 0 0.000254967)
(0.0339385 0 0.000326187)
(0.0340441 0 0.000412509)
(0.0340338 0 0.000516466)
(0.0339346 0 0.000640792)
(0.0337763 0 0.000788278)
(0.0335921 0 0.000961488)
(0.0334224 0 0.00116254)
(0.0333121 0 0.00139263)
(0.0333033 0 0.00165076)
(0.0334418 0 0.00193224)
(0.033774 0 0.00222741)
(0.0343312 0 0.00251999)
(0.0351121 0 0.00278594)
(0.0360538 0 0.00299446)
(0.0369988 0 0.00311209)
(0.0379731 0 0.00325137)
(0 0 0)
(0.00525429 0 -2.46449e-06)
(0.0100294 0 -4.0192e-06)
(0.0142176 0 -4.05113e-06)
(0.0178737 0 -2.10926e-06)
(0.0210487 0 2.23999e-06)
(0.0237892 0 9.4548e-06)
(0.0261376 0 2.00491e-05)
(0.0281324 0 3.46179e-05)
(0.0298092 0 5.38593e-05)
(0.0312007 0 7.85957e-05)
(0.0323372 0 0.000109792)
(0.0332475 0 0.000148574)
(0.0339591 0 0.000196241)
(0.0344988 0 0.000254269)
(0.0348935 0 0.00032431)
(0.0351704 0 0.000408155)
(0.035358 0 0.000507681)
(0.0354868 0 0.000624726)
(0.0355895 0 0.000760903)
(0.0357024 0 0.000917312)
(0.0358655 0 0.00109418)
(0.0361206 0 0.00129029)
(0.036508 0 0.00150207)
(0.0370654 0 0.00172269)
(0.0378217 0 0.00194134)
(0.0387833 0 0.00214311)
(0.0399156 0 0.00230994)
(0.0411179 0 0.00242377)
(0.0421951 0 0.00247099)
(0.043365 0 0.00254074)
(0 0 0)
(0.00528158 0 -3.41054e-06)
(0.010084 0 -5.81205e-06)
(0.0143007 0 -6.5631e-06)
(0.0179879 0 -5.21849e-06)
(0.0211979 0 -1.35543e-06)
(0.0239785 0 5.46725e-06)
(0.026373 0 1.57376e-05)
(0.0284213 0 3.00118e-05)
(0.0301602 0 4.89314e-05)
(0.0316237 0 7.32361e-05)
(0.0328437 0 0.000103773)
(0.0338509 0 0.000141499)
(0.0346745 0 0.000187481)
(0.0353435 0 0.000242873)
(0.0358869 0 0.000308888)
(0.0363343 0 0.000386731)
(0.0367166 0 0.0004775)
(0.037066 0 0.000582036)
(0.0374172 0 0.000700695)
(0.0378064 0 0.000833053)
(0.038272 0 0.000977525)
(0.0388513 0 0.00113087)
(0.0395783 0 0.00128762)
(0.0404793 0 0.00143966)
(0.0415653 0 0.00157628)
(0.0428198 0 0.00168511)
(0.0441826 0 0.00175448)
(0.045529 0 0.00177783)
(0.0466481 0 0.00175889)
(0.0479212 0 0.00174388)
(0 0 0)
(0.00531043 0 -4.53912e-06)
(0.0101417 0 -7.97311e-06)
(0.0143884 0 -9.64478e-06)
(0.0181083 0 -9.13089e-06)
(0.021355 0 -6.0355e-06)
(0.0241773 0 4.82106e-08)
(0.0266198 0 9.56257e-06)
(0.0287235 0 2.3002e-05)
(0.0305263 0 4.09233e-05)
(0.0320634 0 6.39505e-05)
(0.0333683 0 9.27733e-05)
(0.0344729 0 0.000128137)
(0.0354081 0 0.000170822)
(0.0362046 0 0.000221607)
(0.0368931 0 0.00028121)
(0.0375045 0 0.000350198)
(0.0380711 0 0.000428866)
(0.0386259 0 0.000517058)
(0.0392032 0 0.000613939)
(0.039838 0 0.000717717)
(0.0405645 0 0.00082531)
(0.0414144 0 0.000932012)
(0.0424126 0 0.00103122)
(0.0435723 0 0.00111448)
(0.0448875 0 0.00117208)
(0.0463219 0 0.00119466)
(0.0477964 0 0.00117631)
(0.0491743 0 0.00111968)
(0.0502475 0 0.00104299)
(0.051487 0 0.000935689)
(0 0 0)
(0.00534029 0 -5.84892e-06)
(0.0102013 0 -1.04992e-05)
(0.014479 0 -1.32898e-05)
(0.0182325 0 -1.38347e-05)
(0.0215168 0 -1.17794e-05)
(0.0243819 0 -6.7666e-06)
(0.0268733 0 1.58355e-06)
(0.0290331 0 1.36847e-05)
(0.0309001 0 2.9988e-05)
(0.0325108 0 5.09779e-05)
(0.0338997 0 7.71609e-05)
(0.0350999 0 0.000109043)
(0.0361435 0 0.000147095)
(0.0370623 0 0.000191696)
(0.0378878 0 0.000243064)
(0.0386518 0 0.000301143)
(0.0393866 0 0.000365473)
(0.0401248 0 0.000435009)
(0.0408991 0 0.000507916)
(0.0417411 0 0.000581336)
(0.0426802 0 0.000651161)
(0.0437403 0 0.000711876)
(0.0449365 0 0.000756575)
(0.0462691 0 0.000777347)
(0.0477169 0 0.000766277)
(0.049228 0 0.000717366)
(0.0507106 0 0.000629771)
(0.0520259 0 0.000513013)
(0.0529846 0 0.000395479)
(0.0540503 0 0.000216296)
(0 0 0)
(0.00537053 0 -7.33361e-06)
(0.0102617 0 -1.3377e-05)
(0.0145706 0 -1.7476e-05)
(0.0183582 0 -1.92956e-05)
(0.0216804 0 -1.85354e-05)
(0.0245884 0 -1.49003e-05)
(0.0271287 0 -8.08574e-06)
(0.0293442 0 2.2276e-06)
(0.0312745 0 1.63709e-05)
(0.0329572 0 3.46756e-05)
(0.0344274 0 5.7453e-05)
(0.0357191 0 8.49616e-05)
(0.0368652 0 0.000117361)
(0.0378979 0 0.000154648)
(0.038849 0 0.00019657)
(0.0397502 0 0.000242519)
(0.0406329 0 0.000291395)
(0.0415281 0 0.000341452)
(0.0424655 0 0.000390128)
(0.0434727 0 0.000433891)
(0.0445728 0 0.00046814)
(0.0457817 0 0.000487225)
(0.0471047 0 0.000484716)
(0.0485308 0 0.00045407)
(0.0500271 0 0.000389886)
(0.0515317 0 0.000289937)
(0.0529481 0 0.00015817)
(0.0541435 0 9.08404e-06)
(0.0549575 0 -0.000124803)
(0.055771 0 -0.000335515)
(0 0 0)
(0.00540053 0 -8.98235e-06)
(0.0103216 0 -1.65839e-05)
(0.0146616 0 -2.21671e-05)
(0.0184828 0 -2.54595e-05)
(0.0218426 0 -2.62252e-05)
(0.024793 0 -2.42409e-05)
(0.0273812 0 -1.92863e-05)
(0.029651 0 -1.11444e-05)
(0.0316426 0 3.89488e-07)
(0.0333942 0 1.549e-05)
(0.0349415 0 3.42742e-05)
(0.0363188 0 5.67622e-05)
(0.0375593 0 8.28251e-05)
(0.0386952 0 0.000112116)
(0.039758 0 0.000143985)
(0.0407782 0 0.000177377)
(0.0417858 0 0.000210715)
(0.0428091 0 0.000241779)
(0.0438742 0 0.000267597)
(0.0450036 0 0.000284376)
(0.046214 0 0.000287532)
(0.0475138 0 0.000271873)
(0.0488993 0 0.000232071)
(0.0503511 0 0.000163517)
(0.0518294 0 6.37376e-05)
(0.0532695 0 -6.55384e-05)
(0.0545798 0 -0.000215691)
(0.055643 0 -0.000368229)
(0.0563298 0 -0.000491789)
(0.0569186 0 -0.000676275)
(0 0 0)
(0.00542963 0 -1.07804e-05)
(0.0103798 0 -2.00898e-05)
(0.01475 0 -2.73151e-05)
(0.0186041 0 -3.2256e-05)
(0.0220005 0 -3.4749e-05)
(0.024992 0 -3.46489e-05)
(0.0276265 0 -3.18245e-05)
(0.0299482 0 -2.6164e-05)
(0.0319981 0 -1.75885e-05)
(0.0338143 0 -6.0752e-06)
(0.0354331 0 8.31145e-06)
(0.0368887 0 2.53769e-05)
(0.0382142 0 4.47427e-05)
(0.039441 0 6.57804e-05)
(0.0405997 0 8.75337e-05)
(0.0417195 0 0.000108632)
(0.0428278 0 0.000127204)
(0.0439499 0 0.000140795)
(0.0451077 0 0.000146332)
(0.0463184 0 0.000140136)
(0.0475926 0 0.000118062)
(0.0489317 0 7.58107e-05)
(0.0503255 0 9.50875e-06)
(0.051749 0 -8.33581e-05)
(0.0531602 0 -0.000202555)
(0.0544988 0 -0.000343152)
(0.0556871 0 -0.000493042)
(0.0566346 0 -0.000630405)
(0.0572462 0 -0.000725073)
(0.0577643 0 -0.000826795)
(0 0 0)
(0.00545742 0 -1.27279e-05)
(0.0104354 0 -2.38937e-05)
(0.0148348 0 -3.29147e-05)
(0.0187208 0 -3.96712e-05)
(0.0221525 0 -4.40781e-05)
(0.0251836 0 -4.60722e-05)
(0.0278624 0 -4.56132e-05)
(0.0302335 0 -4.26932e-05)
(0.0323382 0 -3.73542e-05)
(0.0342146 0 -2.97133e-05)
(0.0358989 0 -1.99966e-05)
(0.0374251 0 -8.58099e-06)
(0.0388256 0 3.9547e-06)
(0.0401309 0 1.67716e-05)
(0.0413701 0 2.8707e-05)
(0.0425702 0 3.82112e-05)
(0.0437561 0 4.32931e-05)
(0.0449495 0 4.14904e-05)
(0.046168 0 2.9888e-05)
(0.0474237 0 5.21744e-06)
(0.0487216 0 -3.59309e-05)
(0.0500578 0 -9.67334e-05)
(0.051417 0 -0.00017953)
(0.0527717 0 -0.000284996)
(0.0540813 0 -0.000411087)
(0.055293 0 -0.000551819)
(0.0563464 0 -0.000696383)
(0.0571823 0 -0.000829514)
(0.0577508 0 -0.000936806)
(0.0585685 0 -0.000864236)
(0 0 0)
(0.00514031 0 0)
(0.0097998 0 0)
(0.0138662 0 0)
(0.0173884 0 0)
(0.0204119 0 0)
(0.0229779 0 0)
(0.0251232 0 0)
(0.0268803 0 0)
(0.0282776 0 0)
(0.0293399 0 0)
(0.0300885 0 0)
(0.030541 0 0)
(0.0307122 0 0)
(0.0306139 0 0)
(0.0302552 0 0)
(0.0296429 0 0)
(0.0287818 0 0)
(0.0276752 0 0)
(0.0263252 0 0)
(0.0247337 0 0)
(0.0229038 0 0)
(0.0208412 0 0)
(0.0185581 0 0)
(0.0160755 0 0)
(0.01343 0 0)
(0.0106833 0 0)
(0.00794121 0 0)
(0.00539342 0 0)
(0.00343052 0 0)
(0 0 0)
(0 0 0)
(0.00514204 0 -1.2761e-08)
(0.00980356 0 9.55948e-08)
(0.0138721 0 4.24747e-07)
(0.0173967 0 1.06108e-06)
(0.0204228 0 2.09088e-06)
(0.0229919 0 3.60911e-06)
(0.0251407 0 5.72686e-06)
(0.026902 0 8.57878e-06)
(0.0283043 0 1.2331e-05)
(0.0293725 0 1.71906e-05)
(0.030128 0 2.34166e-05)
(0.0305889 0 3.1334e-05)
(0.0307701 0 4.13505e-05)
(0.0306837 0 5.39785e-05)
(0.0303394 0 6.98606e-05)
(0.0297444 0 8.98024e-05)
(0.0289042 0 0.000114811)
(0.0278227 0 0.000146142)
(0.0265031 0 0.000185351)
(0.0249487 0 0.000234362)
(0.0231637 0 0.000295547)
(0.0211557 0 0.00037186)
(0.0189392 0 0.00046692)
(0.0165388 0 0.000585003)
(0.0139953 0 0.000730997)
(0.0113765 0 0.000910004)
(0.00879636 0 0.00112567)
(0.00645294 0 0.00137433)
(0.00472482 0 0.00162433)
(0.00232796 0 0.00214051)
(0 0 0)
(0.00514778 0 -5.57591e-08)
(0.00981517 0 1.2992e-07)
(0.01389 0 7.54034e-07)
(0.0174214 0 1.98624e-06)
(0.0204554 0 3.99575e-06)
(0.0230335 0 6.96842e-06)
(0.0251928 0 1.11214e-05)
(0.0269665 0 1.67172e-05)
(0.0283835 0 2.40794e-05)
(0.0294692 0 3.36102e-05)
(0.0302456 0 4.58116e-05)
(0.0307313 0 6.13117e-05)
(0.0309422 0 8.08967e-05)
(0.0308914 0 0.000105551)
(0.0305897 0 0.000136505)
(0.0300458 0 0.000175293)
(0.0292671 0 0.000223829)
(0.0282599 0 0.000284478)
(0.0270301 0 0.000360155)
(0.0255845 0 0.00045441)
(0.0239312 0 0.000571532)
(0.0220824 0 0.000716785)
(0.0200592 0 0.000896469)
(0.0178952 0 0.00111759)
(0.0156413 0 0.00138735)
(0.0133779 0 0.00171175)
(0.0112317 0 0.00209138)
(0.00940305 0 0.00251005)
(0.0082155 0 0.0029033)
(0.0066524 0 0.00356427)
(0 0 0)
(0.00515717 0 -1.58889e-07)
(0.00983416 0 4.24274e-08)
(0.0139192 0 8.9353e-07)
(0.0174618 0 2.64115e-06)
(0.0205086 0 5.53069e-06)
(0.0231016 0 9.83092e-06)
(0.0252783 0 1.58549e-05)
(0.0270724 0 2.398e-05)
(0.0285136 0 3.46698e-05)
(0.029628 0 4.84982e-05)
(0.0304385 0 6.61788e-05)
(0.0309649 0 8.86005e-05)
(0.0312243 0 0.00011687)
(0.0312315 0 0.000152366)
(0.0309991 0 0.000196799)
(0.0305384 0 0.000252291)
(0.0298593 0 0.000321459)
(0.0289717 0 0.000407515)
(0.027886 0 0.00051436)
(0.0266151 0 0.000646648)
(0.0251721 0 0.000809734)
(0.0235742 0 0.00101005)
(0.0218527 0 0.00125511)
(0.0200525 0 0.00155229)
(0.0182349 0 0.00190749)
(0.0164885 0 0.00232255)
(0.0149402 0 0.00278867)
(0.0137633 0 0.00327276)
(0.0131806 0 0.00368924)
(0.0124556 0 0.00429216)
(0 0 0)
(0.0051702 0 -3.50496e-07)
(0.00986045 0 -2.2429e-07)
(0.0139595 0 7.53786e-07)
(0.0175177 0 2.89841e-06)
(0.0205821 0 6.52132e-06)
(0.0231954 0 1.19625e-05)
(0.025396 0 1.96164e-05)
(0.0272181 0 2.99563e-05)
(0.0286924 0 4.35604e-05)
(0.029846 0 6.11412e-05)
(0.030703 0 8.3579e-05)
(0.0312847 0 0.000111963)
(0.0316099 0 0.00014764)
(0.0316955 0 0.000192272)
(0.0315566 0 0.000247904)
(0.0312074 0 0.000317041)
(0.0306616 0 0.000402737)
(0.029933 0 0.000508684)
(0.0290373 0 0.000639305)
(0.0279942 0 0.000799591)
(0.0268248 0 0.000994937)
(0.0255519 0 0.00123192)
(0.0242146 0 0.0015177)
(0.022868 0 0.00185755)
(0.0215789 0 0.00225331)
(0.0204348 0 0.00269998)
(0.0195447 0 0.00317818)
(0.0190296 0 0.0036425)
(0.0189953 0 0.00400488)
(0.0189299 0 0.00445889)
(0 0 0)
(0.00518669 0 -6.56362e-07)
(0.0098937 0 -7.22436e-07)
(0.0140105 0 2.53526e-07)
(0.0175881 0 2.64242e-06)
(0.0206747 0 6.80979e-06)
(0.0233135 0 1.31521e-05)
(0.0255437 0 2.21266e-05)
(0.0274008 0 3.42788e-05)
(0.0289163 0 5.02706e-05)
(0.0301186 0 7.09115e-05)
(0.0310332 0 9.71939e-05)
(0.0316831 0 0.000130334)
(0.0320893 0 0.000171822)
(0.0322709 0 0.000223471)
(0.0322461 0 0.000287485)
(0.0320324 0 0.000366522)
(0.0316473 0 0.000463759)
(0.0311094 0 0.000582953)
(0.030439 0 0.000728484)
(0.0296614 0 0.000904926)
(0.0288073 0 0.00111702)
(0.0279099 0 0.00137054)
(0.0270101 0 0.00167067)
(0.0261647 0 0.00201912)
(0.0254412 0 0.00241285)
(0.0249152 0 0.00284047)
(0.0246633 0 0.0032757)
(0.0247411 0 0.00367026)
(0.0251433 0 0.00394875)
(0.0255426 0 0.00426151)
(0 0 0)
(0.00520643 0 -1.09902e-06)
(0.00993339 0 -1.49755e-06)
(0.0140712 0 -6.77951e-07)
(0.017672 0 1.77307e-06)
(0.0207846 0 6.26012e-06)
(0.0234535 0 1.32191e-05)
(0.0257189 0 2.31488e-05)
(0.0276171 0 3.66398e-05)
(0.0291808 0 5.44027e-05)
(0.03044 0 7.7298e-05)
(0.0314217 0 0.00010637)
(0.0321508 0 0.000142881)
(0.0326504 0 0.000188358)
(0.0329423 0 0.00024463)
(0.0330478 0 0.000313877)
(0.0329877 0 0.00039867)
(0.0327837 0 0.000501999)
(0.0324589 0 0.000627272)
(0.0320385 0 0.000778263)
(0.0315515 0 0.000958707)
(0.0310361 0 0.00117229)
(0.0305352 0 0.00142278)
(0.0300898 0 0.0017123)
(0.0297516 0 0.00203903)
(0.0295815 0 0.00239591)
(0.0296352 0 0.00276758)
(0.0299498 0 0.00312655)
(0.0305162 0 0.00343059)
(0.0312395 0 0.00362464)
(0.0319621 0 0.00383767)
(0 0 0)
(0.0052291 0 -1.69703e-06)
(0.00997889 0 -2.58707e-06)
(0.0141406 0 -2.09846e-06)
(0.0177677 0 2.09096e-07)
(0.0209101 0 4.76313e-06)
(0.0236131 0 1.20202e-05)
(0.0259181 0 2.24982e-05)
(0.0278626 0 3.68042e-05)
(0.0294805 0 5.56604e-05)
(0.0308033 0 7.99311e-05)
(0.0318596 0 0.00011065)
(0.0326764 0 0.000149047)
(0.0332789 0 0.000196583)
(0.0336916 0 0.000254967)
(0.0339385 0 0.000326187)
(0.0340441 0 0.000412509)
(0.0340338 0 0.000516466)
(0.0339346 0 0.000640792)
(0.0337763 0 0.000788278)
(0.0335921 0 0.000961488)
(0.0334224 0 0.00116254)
(0.0333121 0 0.00139263)
(0.0333033 0 0.00165076)
(0.0334418 0 0.00193224)
(0.033774 0 0.00222741)
(0.0343312 0 0.00251999)
(0.0351121 0 0.00278594)
(0.0360538 0 0.00299446)
(0.0369988 0 0.00311209)
(0.0379731 0 0.00325137)
(0 0 0)
(0.00525429 0 -2.46449e-06)
(0.0100294 0 -4.0192e-06)
(0.0142176 0 -4.05113e-06)
(0.0178737 0 -2.10926e-06)
(0.0210487 0 2.23999e-06)
(0.0237892 0 9.4548e-06)
(0.0261376 0 2.00491e-05)
(0.0281324 0 3.46179e-05)
(0.0298092 0 5.38593e-05)
(0.0312007 0 7.85957e-05)
(0.0323372 0 0.000109792)
(0.0332475 0 0.000148574)
(0.0339591 0 0.000196241)
(0.0344988 0 0.000254269)
(0.0348935 0 0.00032431)
(0.0351704 0 0.000408155)
(0.035358 0 0.000507681)
(0.0354868 0 0.000624726)
(0.0355895 0 0.000760903)
(0.0357024 0 0.000917312)
(0.0358655 0 0.00109418)
(0.0361206 0 0.00129029)
(0.036508 0 0.00150207)
(0.0370654 0 0.00172269)
(0.0378217 0 0.00194134)
(0.0387833 0 0.00214311)
(0.0399156 0 0.00230994)
(0.0411179 0 0.00242377)
(0.0421951 0 0.00247099)
(0.043365 0 0.00254074)
(0 0 0)
(0.00528158 0 -3.41054e-06)
(0.010084 0 -5.81205e-06)
(0.0143007 0 -6.5631e-06)
(0.0179879 0 -5.21849e-06)
(0.0211979 0 -1.35543e-06)
(0.0239785 0 5.46725e-06)
(0.026373 0 1.57376e-05)
(0.0284213 0 3.00118e-05)
(0.0301602 0 4.89314e-05)
(0.0316237 0 7.32361e-05)
(0.0328437 0 0.000103773)
(0.0338509 0 0.000141499)
(0.0346745 0 0.000187481)
(0.0353435 0 0.000242873)
(0.0358869 0 0.000308888)
(0.0363343 0 0.000386731)
(0.0367166 0 0.0004775)
(0.037066 0 0.000582036)
(0.0374172 0 0.000700695)
(0.0378064 0 0.000833053)
(0.038272 0 0.000977525)
(0.0388513 0 0.00113087)
(0.0395783 0 0.00128762)
(0.0404793 0 0.00143966)
(0.0415653 0 0.00157628)
(0.0428198 0 0.00168511)
(0.0441826 0 0.00175448)
(0.045529 0 0.00177783)
(0.0466481 0 0.00175889)
(0.0479212 0 0.00174388)
(0 0 0)
(0.00531043 0 -4.53912e-06)
(0.0101417 0 -7.97311e-06)
(0.0143884 0 -9.64478e-06)
(0.0181083 0 -9.13089e-06)
(0.021355 0 -6.0355e-06)
(0.0241773 0 4.82106e-08)
(0.0266198 0 9.56257e-06)
(0.0287235 0 2.3002e-05)
(0.0305263 0 4.09233e-05)
(0.0320634 0 6.39505e-05)
(0.0333683 0 9.27733e-05)
(0.0344729 0 0.000128137)
(0.0354081 0 0.000170822)
(0.0362046 0 0.000221607)
(0.0368931 0 0.00028121)
(0.0375045 0 0.000350198)
(0.0380711 0 0.000428866)
(0.0386259 0 0.000517058)
(0.0392032 0 0.000613939)
(0.039838 0 0.000717717)
(0.0405645 0 0.00082531)
(0.0414144 0 0.000932012)
(0.0424126 0 0.00103122)
(0.0435723 0 0.00111448)
(0.0448875 0 0.00117208)
(0.0463219 0 0.00119466)
(0.0477964 0 0.00117631)
(0.0491743 0 0.00111968)
(0.0502475 0 0.00104299)
(0.051487 0 0.000935689)
(0 0 0)
(0.00534029 0 -5.84892e-06)
(0.0102013 0 -1.04992e-05)
(0.014479 0 -1.32898e-05)
(0.0182325 0 -1.38347e-05)
(0.0215168 0 -1.17794e-05)
(0.0243819 0 -6.7666e-06)
(0.0268733 0 1.58355e-06)
(0.0290331 0 1.36847e-05)
(0.0309001 0 2.9988e-05)
(0.0325108 0 5.09779e-05)
(0.0338997 0 7.71609e-05)
(0.0350999 0 0.000109043)
(0.0361435 0 0.000147095)
(0.0370623 0 0.000191696)
(0.0378878 0 0.000243064)
(0.0386518 0 0.000301143)
(0.0393866 0 0.000365473)
(0.0401248 0 0.000435009)
(0.0408991 0 0.000507916)
(0.0417411 0 0.000581336)
(0.0426802 0 0.000651161)
(0.0437403 0 0.000711876)
(0.0449365 0 0.000756575)
(0.0462691 0 0.000777347)
(0.0477169 0 0.000766277)
(0.049228 0 0.000717366)
(0.0507106 0 0.000629771)
(0.0520259 0 0.000513013)
(0.0529846 0 0.000395479)
(0.0540503 0 0.000216296)
(0 0 0)
(0.00537053 0 -7.33361e-06)
(0.0102617 0 -1.3377e-05)
(0.0145706 0 -1.7476e-05)
(0.0183582 0 -1.92956e-05)
(0.0216804 0 -1.85354e-05)
(0.0245884 0 -1.49003e-05)
(0.0271287 0 -8.08574e-06)
(0.0293442 0 2.2276e-06)
(0.0312745 0 1.63709e-05)
(0.0329572 0 3.46756e-05)
(0.0344274 0 5.7453e-05)
(0.0357191 0 8.49616e-05)
(0.0368652 0 0.000117361)
(0.0378979 0 0.000154648)
(0.038849 0 0.00019657)
(0.0397502 0 0.000242519)
(0.0406329 0 0.000291395)
(0.0415281 0 0.000341452)
(0.0424655 0 0.000390128)
(0.0434727 0 0.000433891)
(0.0445728 0 0.00046814)
(0.0457817 0 0.000487225)
(0.0471047 0 0.000484716)
(0.0485308 0 0.00045407)
(0.0500271 0 0.000389886)
(0.0515317 0 0.000289937)
(0.0529481 0 0.00015817)
(0.0541435 0 9.08404e-06)
(0.0549575 0 -0.000124803)
(0.055771 0 -0.000335515)
(0 0 0)
(0.00540053 0 -8.98235e-06)
(0.0103216 0 -1.65839e-05)
(0.0146616 0 -2.21671e-05)
(0.0184828 0 -2.54595e-05)
(0.0218426 0 -2.62252e-05)
(0.024793 0 -2.42409e-05)
(0.0273812 0 -1.92863e-05)
(0.029651 0 -1.11444e-05)
(0.0316426 0 3.89488e-07)
(0.0333942 0 1.549e-05)
(0.0349415 0 3.42742e-05)
(0.0363188 0 5.67622e-05)
(0.0375593 0 8.28251e-05)
(0.0386952 0 0.000112116)
(0.039758 0 0.000143985)
(0.0407782 0 0.000177377)
(0.0417858 0 0.000210715)
(0.0428091 0 0.000241779)
(0.0438742 0 0.000267597)
(0.0450036 0 0.000284376)
(0.046214 0 0.000287532)
(0.0475138 0 0.000271873)
(0.0488993 0 0.000232071)
(0.0503511 0 0.000163517)
(0.0518294 0 6.37376e-05)
(0.0532695 0 -6.55384e-05)
(0.0545798 0 -0.000215691)
(0.055643 0 -0.000368229)
(0.0563298 0 -0.000491789)
(0.0569186 0 -0.000676275)
(0 0 0)
(0.00542963 0 -1.07804e-05)
(0.0103798 0 -2.00898e-05)
(0.01475 0 -2.73151e-05)
(0.0186041 0 -3.2256e-05)
(0.0220005 0 -3.4749e-05)
(0.024992 0 -3.46489e-05)
(0.0276265 0 -3.18245e-05)
(0.0299482 0 -2.6164e-05)
(0.0319981 0 -1.75885e-05)
(0.0338143 0 -6.0752e-06)
(0.0354331 0 8.31145e-06)
(0.0368887 0 2.53769e-05)
(0.0382142 0 4.47427e-05)
(0.039441 0 6.57804e-05)
(0.0405997 0 8.75337e-05)
(0.0417195 0 0.000108632)
(0.0428278 0 0.000127204)
(0.0439499 0 0.000140795)
(0.0451077 0 0.000146332)
(0.0463184 0 0.000140136)
(0.0475926 0 0.000118062)
(0.0489317 0 7.58107e-05)
(0.0503255 0 9.50875e-06)
(0.051749 0 -8.33581e-05)
(0.0531602 0 -0.000202555)
(0.0544988 0 -0.000343152)
(0.0556871 0 -0.000493042)
(0.0566346 0 -0.000630405)
(0.0572462 0 -0.000725073)
(0.0577643 0 -0.000826795)
(0 0 0)
(0.00545742 0 -1.27279e-05)
(0.0104354 0 -2.38937e-05)
(0.0148348 0 -3.29147e-05)
(0.0187208 0 -3.96712e-05)
(0.0221525 0 -4.40781e-05)
(0.0251836 0 -4.60722e-05)
(0.0278624 0 -4.56132e-05)
(0.0302335 0 -4.26932e-05)
(0.0323382 0 -3.73542e-05)
(0.0342146 0 -2.97133e-05)
(0.0358989 0 -1.99966e-05)
(0.0374251 0 -8.58099e-06)
(0.0388256 0 3.9547e-06)
(0.0401309 0 1.67716e-05)
(0.0413701 0 2.8707e-05)
(0.0425702 0 3.82112e-05)
(0.0437561 0 4.32931e-05)
(0.0449495 0 4.14904e-05)
(0.046168 0 2.9888e-05)
(0.0474237 0 5.21744e-06)
(0.0487216 0 -3.59309e-05)
(0.0500578 0 -9.67334e-05)
(0.051417 0 -0.00017953)
(0.0527717 0 -0.000284996)
(0.0540813 0 -0.000411087)
(0.055293 0 -0.000551819)
(0.0563464 0 -0.000696383)
(0.0571823 0 -0.000829514)
(0.0577508 0 -0.000936806)
(0.0585685 0 -0.000864236)
(0 0 0)
(0.00385057 0 0)
(0.00637461 0 0)
(0.00962668 0 0)
(0.0131079 0 0)
(0.0165307 0 0)
(0.0197397 0 0)
(0.0226567 0 0)
(0.0252472 0 0)
(0.0275017 0 0)
(0.0294248 0 0)
(0.0310277 0 0)
(0.0323224 0 0)
(0.0333196 0 0)
(0.0340272 0 0)
(0.0344501 0 0)
(0.0345901 0 0)
(0.0344456 0 0)
(0.0340114 0 0)
(0.0332791 0 0)
(0.0322366 0 0)
(0.0308689 0 0)
(0.0291573 0 0)
(0.0270803 0 0)
(0.0246129 0 0)
(0.0217272 0 0)
(0.0183925 0 0)
(0.014575 0 0)
(0.0102386 0 0)
(0.00534405 0 0)
(0 0 0)
(0.00211632 0 -0.00203818)
(0.00509977 0 -0.0016568)
(0.00747097 0 -0.00150792)
(0.0105499 0 -0.00132243)
(0.0138712 0 -0.00114075)
(0.0171559 0 -0.000976633)
(0.0202493 0 -0.000833829)
(0.0230711 0 -0.000712141)
(0.0255837 0 -0.000609567)
(0.0277745 0 -0.000523425)
(0.0296459 0 -0.000451132)
(0.031207 0 -0.000390515)
(0.0324683 0 -0.000339733)
(0.0334385 0 -0.000297056)
(0.0341241 0 -0.000260993)
(0.0345293 0 -0.000230306)
(0.0346549 0 -0.000203977)
(0.0344986 0 -0.000181175)
(0.0340548 0 -0.000161218)
(0.0333145 0 -0.000143546)
(0.0322656 0 -0.000127693)
(0.0308925 0 -0.000113267)
(0.0291765 0 -9.9932e-05)
(0.0270958 0 -8.73927e-05)
(0.0246253 0 -7.53807e-05)
(0.0217371 0 -6.36427e-05)
(0.0184001 0 -5.19278e-05)
(0.0145806 0 -3.99752e-05)
(0.0102423 0 -2.75003e-05)
(0.00534585 0 -1.41743e-05)
(0 0 0)
(0.00629457 0 -0.00351638)
(0.00851126 0 -0.00304771)
(0.0105246 0 -0.0028042)
(0.0131606 0 -0.00248737)
(0.0160526 0 -0.00216581)
(0.0189559 0 -0.00186802)
(0.0217244 0 -0.00160437)
(0.024276 0 -0.00137708)
(0.0265655 0 -0.00118381)
(0.0285726 0 -0.0010202)
(0.0302939 0 -0.000881945)
(0.0317337 0 -0.000765403)
(0.0328974 0 -0.000667446)
(0.0337885 0 -0.000584825)
(0.03441 0 -0.000514765)
(0.0347629 0 -0.000454955)
(0.0348459 0 -0.00040349)
(0.0346549 0 -0.000358802)
(0.0341826 0 -0.000319597)
(0.0334191 0 -0.000284806)
(0.032351 0 -0.000253536)
(0.0309621 0 -0.00022503)
(0.029233 0 -0.00019864)
(0.0271414 0 -0.000173791)
(0.0246619 0 -0.000149958)
(0.021766 0 -0.000126645)
(0.0184224 0 -0.000103358)
(0.014597 0 -7.95825e-05)
(0.0102533 0 -5.47551e-05)
(0.00535148 0 -2.82245e-05)
(0 0 0)
(0.0119744 0 -0.00449948)
(0.0134172 0 -0.00405735)
(0.0150027 0 -0.00377953)
(0.0170638 0 -0.00339955)
(0.0193651 0 -0.00299684)
(0.0217231 0 -0.00261175)
(0.024014 0 -0.00226264)
(0.0261596 0 -0.00195637)
(0.0281084 0 -0.00169258)
(0.0298328 0 -0.001467)
(0.0313226 0 -0.00127463)
(0.0325744 0 -0.0011111)
(0.0335853 0 -0.000972651)
(0.0343515 0 -0.000855149)
(0.0348709 0 -0.000754927)
(0.0351404 0 -0.000668914)
(0.0351552 0 -0.000594547)
(0.0349082 0 -0.000529692)
(0.0343901 0 -0.000472573)
(0.0335888 0 -0.000421707)
(0.0324896 0 -0.000375843)
(0.031075 0 -0.000333916)
(0.0293246 0 -0.000295002)
(0.0272154 0 -0.000258279)
(0.024721 0 -0.00022299)
(0.0218127 0 -0.000188413)
(0.0184583 0 -0.000153828)
(0.0146235 0 -0.000118479)
(0.0102711 0 -8.15354e-05)
(0.00536055 0 -4.20347e-05)
(0 0 0)
(0.0183899 0 -0.0050697)
(0.0191929 0 -0.00470068)
(0.0203416 0 -0.00442488)
(0.0217972 0 -0.00403318)
(0.0234483 0 -0.00360167)
(0.0251825 0 -0.00317595)
(0.0269103 0 -0.00278021)
(0.028563 0 -0.0024256)
(0.0300913 0 -0.00211523)
(0.0314654 0 -0.00184678)
(0.0326669 0 -0.00161568)
(0.0336817 0 -0.0014172)
(0.0344962 0 -0.00124719)
(0.0351004 0 -0.00110156)
(0.0354864 0 -0.000976328)
(0.0356462 0 -0.000868059)
(0.0355707 0 -0.000773832)
(0.0352495 0 -0.000691167)
(0.0346701 0 -0.000617974)
(0.0338183 0 -0.000552477)
(0.0326773 0 -0.000493165)
(0.0312281 0 -0.000438735)
(0.029449 0 -0.000388042)
(0.0273158 0 -0.000340057)
(0.0248014 0 -0.000293826)
(0.021876 0 -0.000248426)
(0.0185072 0 -0.000202931)
(0.0146595 0 -0.000156362)
(0.0102951 0 -0.000107638)
(0.0053728 0 -5.55019e-05)
(0 0 0)
(0.0250074 0 -0.00534154)
(0.0253165 0 -0.00503653)
(0.0260538 0 -0.00477839)
(0.0269337 0 -0.00440507)
(0.0279466 0 -0.00398249)
(0.0290491 0 -0.00355478)
(0.0301896 0 -0.00314801)
(0.0313162 0 -0.00277566)
(0.0323886 0 -0.00244356)
(0.033377 0 -0.002152)
(0.0342553 0 -0.00189796)
(0.034999 0 -0.00167721)
(0.0355863 0 -0.0014856)
(0.0360014 0 -0.00131951)
(0.0362306 0 -0.0011752)
(0.0362604 0 -0.00104928)
(0.0360774 0 -0.000938781)
(0.035667 0 -0.000841113)
(0.0350137 0 -0.000754051)
(0.0341005 0 -0.00067567)
(0.0329086 0 -0.000604305)
(0.031417 0 -0.000538493)
(0.0296026 0 -0.000476936)
(0.0274399 0 -0.000418446)
(0.0249007 0 -0.000361907)
(0.0219544 0 -0.000306232)
(0.0185674 0 -0.000250311)
(0.0147038 0 -0.000192965)
(0.0103248 0 -0.000132884)
(0.00538787 0 -6.85353e-05)
(0 0 0)
(0.0314762 0 -0.00539136)
(0.0313985 0 -0.00512302)
(0.0317616 0 -0.00488742)
(0.0321227 0 -0.0045487)
(0.0325515 0 -0.00416033)
(0.0330627 0 -0.00375986)