/*--------------------------------*- C++ -*----------------------------------*\
| =========                 |                                                 |
| \\      /  F ield         | OpenFOAM: The Open Source CFD Toolbox           |
|  \\    /   O peration     | Version:  2006                                  |
|   \\  /    A nd           | Website:  www.openfoam.com                      |
|    \\/     M anipulation  |                                                 |
\*---------------------------------------------------------------------------*/
FoamFile
{
    version     2.0;
    format      ascii;
    class       surfaceVectorField;
    location    "8.2";
    object      Uf;
}
// * * * * * * * * * * * * * * * * * * * * * * * * * * * * * * * * * * * * * //

dimensions      [0 1 -1 0 0 0 0];


internalField   nonuniform List<vector> 
5457
(
(9.92088 0.0251098 0)
(9.97125 0.038746 0)
(9.82401 0.0328271 0)
(9.92859 0.0485856 0)
(9.70961 0.0393125 0)
(9.85547 0.0587689 0)
(9.57543 0.0460122 0)
(9.7568 0.0705945 0)
(9.42137 0.0529498 0)
(9.63753 0.0830149 0)
(9.24753 0.0601674 0)
(9.4986 0.0959385 0)
(9.05361 0.0678124 0)
(9.33929 0.109615 0)
(8.83891 0.0760363 0)
(9.15872 0.124292 0)
(8.60249 0.0849724 0)
(8.95607 0.140171 0)
(8.34323 0.0947476 0)
(8.73035 0.157438 0)
(8.0598 0.10549 0)
(8.48037 0.176276 0)
(7.75075 0.117332 0)
(8.20473 0.196864 0)
(7.4145 0.1304 0)
(7.90189 0.219369 0)
(7.04943 0.144816 0)
(7.57024 0.243932 0)
(6.65395 0.160678 0)
(7.20811 0.270643 0)
(6.22662 0.178051 0)
(6.81391 0.299511 0)
(5.76632 0.196935 0)
(6.38623 0.330425 0)
(5.27246 0.21724 0)
(5.92406 0.363095 0)
(4.74525 0.238742 0)
(5.42698 0.396987 0)
(4.18607 0.261038 0)
(4.89552 0.431246 0)
(3.59783 0.283493 0)
(4.3315 0.464627 0)
(2.98542 0.305205 0)
(3.73847 0.495429 0)
(2.35598 0.32507 0)
(3.12213 0.521513 0)
(1.71897 0.342547 0)
(2.49093 0.540554 0)
(1.08423 0.36188 0)
(1.85573 0.551667 0)
(0.451722 0.348653 0)
(1.24537 0.563014 0)
(-0.145909 0.102422 0)
(0.608787 0.54484 0)
(-0.423646 -0.207099 0)
(0.0946248 0.259328 0)
(-0.402165 -0.361246 0)
(-0.133734 -0.0205426 0)
(-0.119682 -0.393895 0)
(9.99641 0.0516729 0)
(9.99705 0.0405051 0)
(9.95879 0.0708624 0)
(9.97851 0.0674554 0)
(9.89824 0.0879882 0)
(9.93377 0.0898714 0)
(9.81658 0.105987 0)
(9.86453 0.113557 0)
(9.71358 0.124924 0)
(9.77437 0.138518 0)
(9.58908 0.144857 0)
(9.66434 0.16465 0)
(9.44273 0.166094 0)
(9.53396 0.192337 0)
(9.27388 0.188972 0)
(9.38248 0.222037 0)
(9.08164 0.213789 0)
(9.20917 0.254156 0)
(8.86487 0.240823 0)
(9.01313 0.289073 0)
(8.62226 0.270346 0)
(8.79328 0.327164 0)
(8.35234 0.302618 0)
(8.54831 0.3688 0)
(8.0535 0.33787 0)
(8.27678 0.414332 0)
(7.72404 0.376276 0)
(7.9771 0.464064 0)
(7.36228 0.417918 0)
(7.64764 0.518209 0)
(6.96662 0.462724 0)
(7.28674 0.576828 0)
(6.53572 0.510403 0)
(6.89285 0.639748 0)
(6.06871 0.560349 0)
(6.4647 0.70645 0)
(5.56546 0.611535 0)
(6.00147 0.77593 0)
(5.02696 0.662397 0)
(5.50313 0.846543 0)
(4.45573 0.710716 0)
(4.97075 0.915821 0)
(3.85635 0.753543 0)
(4.40704 0.980315 0)
(3.23605 0.787194 0)
(3.81689 1.03546 0)
(2.60568 0.807492 0)
(3.20832 1.07548 0)
(1.98267 0.810452 0)
(2.59326 1.09313 0)
(1.40518 0.77687 0)
(1.99609 1.07706 0)
(0.929656 0.64636 0)
(1.41939 0.978361 0)
(0.439766 0.384283 0)
(0.937499 0.716748 0)
(0.0591284 -0.118661 0)
(0.44371 0.343463 0)
(0.174904 -0.335983 0)
(9.98903 0.0594317 0)
(9.99481 0.0458781 0)
(9.95434 0.089478 0)
(9.97368 0.0848556 0)
(9.89729 0.118034 0)
(9.92984 0.119176 0)
(9.82046 0.147901 0)
(9.86357 0.153979 0)
(9.72415 0.179426 0)
(9.77735 0.190412 0)
(9.6082 0.212781 0)
(9.67226 0.228642 0)
(9.47233 0.248399 0)
(9.54809 0.269136 0)
(9.31606 0.286783 0)
(9.4043 0.312505 0)
(9.13866 0.328407 0)
(9.24032 0.359336 0)
(8.93921 0.373734 0)
(9.05546 0.410187 0)
(8.7166 0.42322 0)
(8.84886 0.465614 0)
(8.46955 0.477312 0)
(8.61947 0.52617 0)
(8.19662 0.536417 0)
(8.3661 0.592393 0)
(7.89625 0.600862 0)
(8.08745 0.66476 0)
(7.56684 0.670831 0)
(7.78212 0.743642 0)
(7.20674 0.746278 0)
(7.44865 0.829215 0)
(6.81446 0.826804 0)
(7.08558 0.921346 0)
(6.38876 0.911504 0)
(6.6916 1.01943 0)
(5.92891 0.998777 0)
(6.2656 1.1222 0)
(5.43501 1.08611 0)
(5.80699 1.22745 0)
(4.90841 1.16984 0)
(5.31594 1.33176 0)
(4.35229 1.2449 0)
(4.79384 1.4302 0)
(3.77245 1.30454 0)
(4.24383 1.51588 0)
(3.1786 1.33982 0)
(3.67168 1.57941 0)
(2.58651 1.33809 0)
(3.08619 1.60772 0)
(2.01976 1.27293 0)
(2.50281 1.58154 0)
(1.48686 1.09536 0)
(1.92864 1.46419 0)
(0.958236 0.769106 0)
(1.38518 1.21033 0)
(0.479841 0.202371 0)
(0.829494 0.800955 0)
(0.433707 0.133992 0)
(9.98515 0.071615 0)
(9.99367 0.0531487 0)
(9.95039 0.113632 0)
(9.97087 0.102293 0)
(9.89436 0.154136 0)
(9.9269 0.147956 0)
(9.81882 0.195577 0)
(9.86185 0.193725 0)
(9.72441 0.238817 0)
(9.77746 0.241283 0)
(9.61111 0.284332 0)
(9.67466 0.291171 0)
(9.47873 0.33273 0)
(9.55342 0.343965 0)
(9.32693 0.384685 0)
(9.41334 0.400383 0)
(9.1552 0.44086 0)
(9.25398 0.461153 0)
(8.96288 0.5019 0)
(9.07481 0.526978 0)
(8.74913 0.568447 0)
(8.87517 0.598556 0)
(8.51299 0.641134 0)
(8.65425 0.676585 0)
(8.2534 0.720555 0)
(8.41117 0.761747 0)
(7.96919 0.807217 0)
(8.14493 0.854666 0)
(7.6591 0.901466 0)
(7.85447 0.955851 0)
(7.32183 1.00338 0)
(7.53867 1.0656 0)
(6.95611 1.1126 0)
(7.19636 1.18388 0)
(6.56073 1.22816 0)
(6.82642 1.31011 0)
(6.13477 1.34819 0)
(6.42777 1.44295 0)
(5.67771 1.46962 0)
(5.99954 1.57993 0)
(5.18986 1.58779 0)
(5.54121 1.7171 0)
(4.67273 1.69603 0)
(5.05291 1.84855 0)
(4.12966 1.78514 0)
(4.53582 1.96583 0)
(3.56652 1.8425 0)
(3.99259 2.05729 0)
(2.99193 1.85068 0)
(3.42747 2.1071 0)
(2.41574 1.78243 0)
(2.84752 2.09443 0)
(1.84046 1.60038 0)
(2.25613 1.98865 0)
(1.25933 1.27834 0)
(1.66024 1.75294 0)
(0.666745 0.789439 0)
(1.02392 1.36765 0)
(0.523018 0.787028 0)
(9.98337 0.0844088 0)
(9.99316 0.0612924 0)
(9.94821 0.136839 0)
(9.96958 0.119929 0)
(9.89314 0.188036 0)
(9.92575 0.176243 0)
(9.81906 0.240174 0)
(9.86199 0.232703 0)
(9.72662 0.294474 0)
(9.77963 0.291093 0)
(9.61589 0.351668 0)
(9.67939 0.352282 0)
(9.4867 0.412481 0)
(9.56127 0.416987 0)
(9.33877 0.477689 0)
(9.42495 0.486021 0)
(9.17168 0.548066 0)
(9.27007 0.56022 0)
(8.9849 0.624373 0)
(9.09618 0.640406 0)
(8.77775 0.707366 0)
(8.90271 0.72739 0)
(8.54949 0.79779 0)
(8.68903 0.821983 0)
(8.2993 0.896355 0)
(8.45439 0.924972 0)
(8.02628 1.00368 0)
(8.19801 1.03709 0)
(7.7295 1.12024 0)
(7.91905 1.15895 0)
(7.40796 1.2462 0)
(7.61661 1.29096 0)
(7.06066 1.38131 0)
(7.28976 1.43319 0)
(6.68658 1.52462 0)
(6.93752 1.58515 0)
(6.28473 1.67422 0)
(6.55887 1.74554 0)
(5.85425 1.82682 0)
(6.15274 1.91192 0)
(5.39456 1.97727 0)
(5.71808 2.08019 0)
(4.90561 2.11806 0)
(5.25393 2.2441 0)
(4.3881 2.23859 0)
(4.75958 2.3946 0)
(3.8438 2.32451 0)
(4.2348 2.51917 0)
(3.27531 2.3569 0)
(3.67974 2.60119 0)
(2.68528 2.31051 0)
(3.09559 2.61963 0)
(2.0726 2.1549 0)
(2.48158 2.54722 0)
(1.42931 1.86727 0)
(1.83983 2.35359 0)
(0.742578 1.41943 0)
(1.13131 2.02437 0)
(0.543282 1.51434 0)
(9.98264 0.0974992 0)
(9.99299 0.0697939 0)
(9.94744 0.159777 0)
(9.96925 0.137585 0)
(9.89354 0.221352 0)
(9.92597 0.20393 0)
(9.82133 0.284098 0)
(9.8638 0.270693 0)
(9.73133 0.349355 0)
(9.78385 0.339589 0)
(9.62366 0.418028 0)
(9.68664 0.411706 0)
(9.49818 0.49095 0)
(9.57217 0.487914 0)
(9.35464 0.568989 0)
(9.4402 0.569119 0)
(9.19267 0.653023 0)
(9.29041 0.656252 0)
(9.01181 0.74392 0)
(9.1224 0.750236 0)
(8.81148 0.842543 0)
(8.93568 0.851983 0)
(8.59104 0.94974 0)
(8.72969 0.962397 0)
(8.3498 1.06632 0)
(8.50377 1.08236 0)
(8.087 1.193 0)
(8.25722 1.21269 0)
(7.80185 1.33035 0)
(7.98931 1.35409 0)
(7.49351 1.47864 0)
(7.69921 1.50708 0)
(7.16109 1.63774 0)
(7.38607 1.67182 0)
(6.80361 1.8068 0)
(7.04892 1.84797 0)
(6.41998 1.98401 0)
(6.68663 2.03441 0)
(6.00899 2.16617 0)
(6.29787 2.22888 0)
(5.56926 2.34813 0)
(5.88104 2.42752 0)
(5.0993 2.52222 0)
(5.43418 2.62428 0)
(4.59759 2.67756 0)
(4.95495 2.8103 0)
(4.06254 2.79946 0)
(4.44068 2.9732 0)
(3.49255 2.86904 0)
(3.88835 3.09657 0)
(2.8857 2.86282 0)
(3.29508 3.15981 0)
(2.23791 2.7538 0)
(2.65676 3.13778 0)
(1.54236 2.52088 0)
(1.97474 3.00303 0)
(0.793608 2.13116 0)
(1.20717 2.74041 0)
(0.556707 2.29163 0)
(9.9825 0.110628 0)
(9.99302 0.0783625 0)
(9.9477 0.182327 0)
(9.96954 0.155039 0)
(9.89522 0.253821 0)
(9.92722 0.230889 0)
(9.82524 0.326773 0)
(9.86696 0.307514 0)
(9.73813 0.402563 0)
(9.78977 0.386529 0)
(9.63403 0.482244 0)
(9.69605 0.469158 0)
(9.51285 0.566771 0)
(9.58578 0.55641 0)
(9.37436 0.657109 0)
(9.45879 0.649286 0)
(9.21826 0.754234 0)
(9.31479 0.748807 0)
(9.04411 0.85911 0)
(9.15344 0.855987 0)
(8.85142 0.972693 0)
(8.97431 0.971831 0)
(8.63958 1.09592 0)
(8.77687 1.09733 0)
(8.40797 1.22968 0)
(8.56054 1.23346 0)
(8.15589 1.3748 0)
(8.32464 1.38112 0)
(7.88257 1.53192 0)
(8.06846 1.54113 0)
(7.58718 1.70144 0)
(7.79118 1.71411 0)
(7.2688 1.88336 0)
(7.49187 1.90037 0)
(6.92631 2.07704 0)
(7.16943 2.09977 0)
(6.55838 2.28091 0)
(6.82253 2.31146 0)
(6.16332 2.49211 0)
(6.44945 2.53356 0)
(5.73897 2.70588 0)
(6.04794 2.7627 0)
(5.28256 2.91501 0)
(5.61507 2.9935 0)
(4.79066 3.10915 0)
(5.14706 3.21786 0)
(4.25912 3.27417 0)
(4.6392 3.42426 0)
(3.68322 3.39179 0)
(4.08587 3.59709 0)
(3.05789 3.43957 0)
(3.48114 3.71644 0)
(2.37761 3.39164 0)
(2.81821 3.75798 0)
(1.63782 3.22598 0)
(2.09903 3.69379 0)
(0.839081 2.90063 0)
(1.27884 3.50425 0)
(0.573322 3.11346 0)
(9.98273 0.123583 0)
(9.99316 0.0868186 0)
(9.94873 0.204312 0)
(9.97027 0.172095 0)
(9.89794 0.285257 0)
(9.92926 0.256979 0)
(9.8305 0.367972 0)
(9.87123 0.342993 0)
(9.7467 0.45386 0)
(9.79715 0.431686 0)
(9.64668 0.544089 0)
(9.70734 0.524361 0)
(9.53037 0.639722 0)
(9.6018 0.622149 0)
(9.39761 0.741818 0)
(9.48037 0.726143 0)
(9.24811 0.851438 0)
(9.34285 0.837446 0)
(9.08151 0.969635 0)
(9.18892 0.957159 0)
(8.89734 1.09746 0)
(9.01822 1.08637 0)
(8.69506 1.23592 0)
(8.83026 1.22618 0)
(8.47408 1.38603 0)
(8.62451 1.37763 0)
(8.23371 1.54869 0)
(8.40032 1.54174 0)
(7.97316 1.72466 0)
(8.15695 1.71944 0)
(7.69153 1.91451 0)
(7.89356 1.9115 0)
(7.38776 2.11842 0)
(7.60911 2.11843 0)
(7.06051 2.33604 0)
(7.30232 2.34037 0)
(6.70808 2.56619 0)
(6.97153 2.57684 0)
(6.32822 2.80655 0)
(6.61458 2.82651 0)
(5.91794 3.0531 0)
(6.22855 3.08677 0)
(5.47327 3.29956 0)
(5.80956 3.35322 0)
(4.98912 3.53666 0)
(5.35246 3.61901 0)
(4.45914 3.75138 0)
(4.85067 3.87399 0)
(3.87602 3.92638 0)
(4.29621 4.10389 0)
(3.23214 4.03973 0)
(3.68034 4.28958 0)
(2.52067 4.0648 0)
(2.99331 4.4066 0)
(1.73826 3.9759 0)
(2.23721 4.42435 0)
(0.889409 3.71849 0)
(1.36325 4.31601 0)
(0.598703 3.98458 0)
(9.98321 0.136205 0)
(9.99339 0.0950416 0)
(9.95032 0.225575 0)
(9.97131 0.188592 0)
(9.90151 0.315501 0)
(9.93193 0.282053 0)
(9.83694 0.40751 0)
(9.87643 0.376966 0)
(9.75684 0.503021 0)
(9.80579 0.474848 0)
(9.66135 0.603289 0)
(9.7203 0.57706 0)
(9.55045 0.709475 0)
(9.61995 0.684829 0)
(9.42403 0.822721 0)
(9.50464 0.799334 0)
(9.28183 0.944171 0)
(9.37421 0.921757 0)
(9.12354 1.07496 0)
(9.22842 1.05328 0)
(8.94877 1.21623 0)
(9.06694 1.19507 0)
(8.75702 1.36909 0)
(8.88936 1.34832 0)
(8.54772 1.53464 0)
(8.69517 1.51417 0)
(8.3202 1.7139 0)
(8.48378 1.69377 0)
(8.07364 1.90781 0)
(8.25445 1.88817 0)
(7.80706 2.1171 0)
(8.00629 2.09834 0)
(7.51923 2.34224 0)
(7.73817 2.32505 0)
(7.20857 2.58324 0)
(7.44863 2.56877 0)
(6.87298 2.83947 0)
(7.13573 2.82954 0)
(6.50963 3.10935 0)
(6.79687 3.10673 0)
(6.11471 3.38987 0)
(6.42851 3.3987 0)
(5.68312 3.67607 0)
(6.02586 3.70237 0)
(5.20817 3.96022 0)
(5.58247 4.01253 0)
(4.68143 4.23096 0)
(5.08998 4.32097 0)
(4.09295 4.47223 0)
(4.53791 4.61534 0)
(3.43219 4.66239 0)
(3.91433 4.87775 0)
(2.68984 4.77292 0)
(3.20533 5.08338 0)
(1.86163 4.77209 0)
(2.41097 5.19767 0)
(0.954059 4.58936 0)
(1.47607 5.18392 0)
(0.639096 4.91902 0)
(9.98386 0.148371 0)
(9.99368 0.102945 0)
(9.95235 0.245974 0)
(9.9726 0.204397 0)
(9.90578 0.344404 0)
(9.9351 0.305974 0)
(9.84437 0.445205 0)
(9.88241 0.409276 0)
(9.76833 0.549821 0)
(9.81552 0.515825 0)
(9.6778 0.659572 0)
(9.73471 0.627022 0)
(9.57281 0.775704 0)
(9.63999 0.744173 0)
(9.45327 0.899439 0)
(9.53129 0.868536 0)
(9.31901 1.03199 0)
(9.40853 1.00136 0)
(9.16977 1.17459 0)
(9.27151 1.14391 0)
(9.00521 1.32844 0)
(9.11998 1.29742 0)
(8.8249 1.49476 0)
(8.95359 1.46317 0)
(8.62831 1.67476 0)
(8.77192 1.64242 0)
(8.4148 1.86961 0)
(8.57439 1.83643 0)
(8.18356 2.08041 0)
(8.36033 2.04642 0)
(7.93353 2.30814 0)
(8.12883 2.27358 0)
(7.66339 2.5536 0)
(7.87873 2.51897 0)
(7.37133 2.81728 0)
(7.60845 2.7835 0)
(7.05492 3.09922 0)
(7.31586 3.0678 0)
(6.71086 3.39875 0)
(6.99805 3.37207 0)
(6.33461 3.71416 0)
(6.651 3.69589 0)
(5.92002 4.04216 0)
(6.26918 4.03776 0)
(5.4589 4.3771 0)
(5.84503 4.39459 0)
(4.94065 4.70987 0)
(5.36847 4.76075 0)
(4.35227 5.02644 0)
(4.82633 5.1267 0)
(3.67913 5.306 0)
(4.20267 5.47693 0)
(2.90709 5.51788 0)
(3.47739 5.78722 0)
(2.02732 5.6226 0)
(2.64457 6.01912 0)
(1.04491 5.52895 0)
(1.63739 6.1234 0)
(0.704314 5.94245 0)
(9.98465 0.159983 0)
(9.99402 0.110464 0)
(9.95473 0.265385 0)
(9.97409 0.219403 0)
(9.91065 0.371826 0)
(9.93868 0.328617 0)
(9.85267 0.480892 0)
(9.88905 0.439783 0)
(9.781 0.594056 0)
(9.82619 0.554442 0)
(9.69581 0.712695 0)
(9.75038 0.674037 0)
(9.59716 0.838126 0)
(9.66167 0.799933 0)
(9.48502 0.971639 0)
(9.56003 0.933456 0)
(9.35927 1.11452 0)
(9.44543 1.07592 0)
(9.21972 1.26806 0)
(9.31776 1.22864 0)
(9.06611 1.43356 0)
(9.17683 1.39296 0)
(8.89809 1.61233 0)
(9.02239 1.5702 0)
(8.71519 1.8057 0)
(8.85408 1.76175 0)
(8.51682 2.01497 0)
(8.67143 1.96897 0)
(8.30221 2.24145 0)
(8.47381 2.19329 0)
(8.07033 2.4864 0)
(8.26039 2.4361 0)
(7.8198 2.75101 0)
(8.03005 2.69882 0)
(7.54873 3.0363 0)
(7.78121 2.9828 0)
(7.2545 3.3431 0)
(7.51171 3.28935 0)
(6.93351 3.67183 0)
(7.21853 3.61963 0)
(6.58073 4.02229 0)
(6.89744 3.97454 0)
(6.18921 4.39325 0)
(6.54249 4.35448 0)
(5.74947 4.7817 0)
(6.14541 4.75894 0)
(5.24875 5.18176 0)
(5.69471 5.18565 0)
(4.67052 5.58276 0)
(5.17463 5.62925 0)
(3.99444 5.96639 0)
(4.56457 6.07874 0)
(3.19794 6.30139 0)
(3.83576 6.51336 0)
(2.26135 6.54018 0)
(2.97026 6.89363 0)
(1.18035 6.56443 0)
(1.87868 7.15717 0)
(0.812573 7.09853 0)
(9.98553 0.170965 0)
(9.9944 0.117548 0)
(9.95739 0.283702 0)
(9.97572 0.233522 0)
(9.91601 0.39764 0)
(9.94258 0.349873 0)
(9.86169 0.514419 0)
(9.89624 0.468357 0)
(9.79469 0.635545 0)
(9.83765 0.590549 0)
(9.71517 0.762443 0)
(9.76713 0.717921 0)
(9.62325 0.896486 0)
(9.68476 0.851891 0)
(9.51894 1.03902 0)
(9.59056 0.993839 0)
(9.40221 1.19141 0)
(9.48456 1.14513 0)
(9.27293 1.35498 0)
(9.36674 1.30715 0)
(9.13093 1.53113 0)
(9.23698 1.48127 0)
(8.97595 1.72125 0)
(9.09514 1.66893 0)
(8.80761 1.92677 0)
(8.94095 1.87157 0)
(8.62543 2.14916 0)
(8.77406 2.0907 0)
(8.42873 2.38993 0)
(8.59397 2.3279 0)
(8.21656 2.65062 0)
(8.39998 2.58481 0)
(7.98762 2.93283 0)
(8.19108 2.86316 0)
(7.74007 3.23818 0)
(7.96586 3.16479 0)
(7.47135 3.56831 0)
(7.72232 3.49169 0)
(7.17782 3.92485 0)
(7.45761 3.846 0)
(6.85434 4.30929 0)
(7.16765 4.23005 0)
(6.49362 4.72278 0)
(6.84663 4.64629 0)
(6.08542 5.16564 0)
(6.4862 5.09715 0)
(5.61528 5.63637 0)
(6.07433 5.5846 0)
(5.06312 6.12979 0)
(5.59356 6.10914 0)
(4.40166 6.6336 0)
(5.01902 6.66752 0)
(3.59552 7.12083 0)
(4.31186 7.24829 0)
(2.60375 7.53997 0)
(3.43492 7.81967 0)
(1.39392 7.73951 0)
(2.25579 8.31414 0)
(1.00224 8.46378 0)
(9.9865 0.181254 0)
(9.9948 0.124157 0)
(9.96027 0.300835 0)
(9.97747 0.246682 0)
(9.92177 0.421738 0)
(9.94676 0.36965 0)
(9.87134 0.545657 0)
(9.90388 0.49489 0)
(9.80924 0.674132 0)
(9.84977 0.624011 0)
(9.73568 0.808627 0)
(9.78479 0.758517 0)
(9.65081 0.950561 0)
(9.70903 0.899861 0)
(9.55472 1.10133 0)
(9.62259 1.04947 0)
(9.44743 1.26234 0)
(9.52556 1.20875 0)
(9.32891 1.43499 0)
(9.41799 1.37912 0)
(9.19908 1.62072 0)
(9.29989 1.56202 0)
(9.05779 1.821 0)
(9.17119 1.75893 0)
(8.90479 2.03737 0)
(9.03176 1.97138 0)
(8.73973 2.27143 0)
(8.88141 2.20099 0)
(8.56207 2.52489 0)
(8.71979 2.44948 0)
(8.37106 2.79956 0)
(8.54639 2.71869 0)
(8.16559 3.09743 0)
(8.36046 3.01066 0)
(7.94406 3.42069 0)
(8.16087 3.32766 0)
(7.70419 3.7718 0)
(7.946 3.67231 0)
(7.44269 4.15359 0)
(7.71347 4.04767 0)
(7.15481 4.5693 0)
(7.45983 4.45743 0)
(6.83368 5.02268 0)
(7.18007 4.90608 0)
(6.46922 5.51782 0)
(6.86678 5.39912 0)
(6.04658 6.05886 0)
(6.50892 5.94325 0)
(5.54351 6.6488 0)
(6.08951 6.54637 0)
(4.92638 7.28689 0)
(5.58242 7.21685 0)
(4.14419 7.96105 0)
(4.94161 7.9614 0)
(3.12092 8.63278 0)
(4.10823 8.77511 0)
(1.75562 9.12654 0)
(2.87737 9.61978 0)
(1.36405 10.1833 0)
(9.98754 0.1908 0)
(9.99523 0.130261 0)
(9.96332 0.316709 0)
(9.97932 0.258825 0)
(9.92785 0.444026 0)
(9.95115 0.387871 0)
(9.88148 0.574495 0)
(9.91188 0.519289 0)
(9.82449 0.709688 0)
(9.86244 0.654721 0)
(9.75713 0.851098 0)
(9.80318 0.795693 0)
(9.67959 1.00018 0)
(9.73426 0.943689 0)
(9.59202 1.15837 0)
(9.65583 1.10016 0)
(9.49452 1.3271 0)
(9.56806 1.26655 0)
(9.38716 1.50782 0)
(9.47108 1.44431 0)
(9.26996 1.70201 0)
(9.365 1.63491 0)
(9.1429 1.9112 0)
(9.24987 1.83987 0)
(9.00587 2.13702 0)
(9.12572 2.06078 0)
(8.8587 2.38118 0)
(8.99251 2.29933 0)
(8.70106 2.64554 0)
(8.8501 2.55736 0)
(8.53244 2.93215 0)
(8.69826 2.83687 0)
(8.35207 3.24334 0)
(8.53654 3.14014 0)
(8.15877 3.58178 0)
(8.36426 3.46978 0)
(7.95081 3.95066 0)
(8.18036 3.82891 0)
(7.72563 4.35386 0)
(7.98323 4.22133 0)
(7.47948 4.79624 0)
(7.77052 4.65186 0)
(7.2068 5.28398 0)
(7.53872 5.12667 0)
(6.89919 5.82506 0)
(7.2826 5.65398 0)
(6.54369 6.42981 0)
(6.99415 6.24493 0)
(6.11955 7.11164 0)
(6.66065 6.91499 0)
(5.59203 7.88764 0)
(6.2615 7.68641 0)
(4.89965 8.77759 0)
(5.75627 8.59262 0)
(3.92548 9.80063 0)
(5.08566 9.68471 0)
(2.43202 10.8548 0)
(3.97755 11.048 0)
(2.14481 12.5653 0)
(9.98862 0.199564 0)
(9.99567 0.135836 0)
(9.96652 0.331264 0)
(9.98124 0.269907 0)
(9.9342 0.464422 0)
(9.95571 0.404474 0)
(9.89202 0.600827 0)
(9.92017 0.541479 0)
(9.84031 0.742074 0)
(9.87553 0.682589 0)
(9.77933 0.889682 0)
(9.82217 0.829347 0)
(9.70933 1.04513 0)
(9.76029 0.983256 0)
(9.63052 1.20987 0)
(9.69011 1.14579 0)
(9.54308 1.38537 0)
(9.61186 1.3184 0)
(9.44718 1.5731 0)
(9.52578 1.50255 0)
(9.34296 1.77456 0)
(9.43207 1.69973 0)
(9.23053 1.99134 0)
(9.33093 1.91149 0)
(9.10995 2.22509 0)
(9.22254 2.13944 0)
(8.98125 2.47763 0)
(9.10704 2.38533 0)
(8.84436 2.75092 0)
(8.98456 2.65104 0)
(8.69911 3.04718 0)
(8.85515 2.93868 0)
(8.54512 3.36897 0)
(8.71876 3.25068 0)
(8.3818 3.71933 0)
(8.57525 3.58985 0)
(8.20818 4.10195 0)
(8.42427 3.95964 0)
(8.02282 4.5215 0)
(8.26525 4.36429 0)
(7.82352 4.98403 0)
(8.09726 4.80928 0)
(7.60697 5.49757 0)
(7.91895 5.30185 0)
(7.36815 6.07316 0)
(7.72833 5.85186 0)
(7.09911 6.72646 0)
(7.5225 6.47323 0)
(6.78669 7.48064 0)
(7.29722 7.18652 0)
(6.4073 8.37238 0)
(7.04697 8.02412 0)
(5.91391 9.46603 0)
(6.7615 9.04243 0)
(5.19393 10.9076 0)
(6.45968 10.357 0)
(3.882 13.1759 0)
(6.18605 12.3026 0)
(5.2531 16.3675 0)
(0.191389 -0.114252 0)
(0.112446 -0.187454 0)
(0.374142 -0.0972692 0)
(0.27342 -0.174767 0)
(0.524829 -0.0742114 0)
(0.434317 -0.1407 0)
(0.642086 -0.0531342 0)
(0.569873 -0.106899 0)
(0.729383 -0.0353952 0)
(0.675241 -0.0777061 0)
(0.790623 -0.0207643 0)
(0.753909 -0.0532243 0)
(0.829318 -0.00879425 0)
(0.810326 -0.0328361 0)
(0.848671 0.000814072 0)
(0.8481 -0.0160353 0)
(0.852087 0.00792241 0)
(0.870083 -0.00276328 0)
(0.841903 0.012633 0)
(0.878853 0.00804402 0)
(0.821741 0.0155755 0)
(0.87601 0.0155494 0)
(0.794335 0.0171719 0)
(0.864035 0.0206364 0)
(0.762144 0.0176397 0)
(0.845588 0.0236674 0)
(0.727523 0.0171531 0)
(0.823084 0.0248528 0)
(0.692632 0.0158985 0)
(0.798773 0.0244545 0)
(0.659348 0.0140969 0)
(0.774695 0.0227781 0)
(0.629121 0.0119991 0)
(0.752547 0.0201967 0)
(0.602903 0.00985606 0)
(0.733548 0.0171046 0)
(0.581089 0.00788669 0)
(0.718361 0.0138953 0)
(0.563529 0.00624404 0)
(0.707077 0.0109209 0)
(0.549646 0.00499407 0)
(0.699289 0.00843099 0)
(0.538626 0.00412162 0)
(0.694257 0.00653376 0)
(0.52964 0.00355455 0)
(0.691125 0.00520214 0)
(0.521994 0.00319134 0)
(0.689117 0.00432178 0)
(0.515203 0.00294143 0)
(0.687657 0.00374753 0)
(0.508946 0.00275566 0)
(0.686389 0.00337196 0)
(0.502969 0.00261755 0)
(0.685092 0.00314464 0)
(0.497038 0.00249621 0)
(0.683588 0.00304667 0)
(0.491067 0.00218522 0)
(0.681707 0.00299459 0)
(0.67912 0.00244074 0)
(0.177351 -0.272894 0)
(0.0941652 -0.361158 0)
(0.347957 -0.239406 0)
(0.243359 -0.337918 0)
(0.491902 -0.189728 0)
(0.384423 -0.275104 0)
(0.608437 -0.143526 0)
(0.504759 -0.213141 0)
(0.701004 -0.104292 0)
(0.600856 -0.160103 0)
(0.773167 -0.0716221 0)
(0.676176 -0.115942 0)
(0.828022 -0.0445537 0)
(0.734374 -0.079385 0)
(0.868163 -0.0222858 0)
(0.778298 -0.0492942 0)
(0.895281 -0.00425009 0)
(0.810198 -0.0247011 0)
(0.911414 0.00977009 0)
(0.831933 -0.00469889 0)
(0.917045 0.0200192 0)
(0.845714 0.0112071 0)
(0.91432 0.0269319 0)
(0.851118 0.0226881 0)
(0.905789 0.0308516 0)
(0.850354 0.0299397 0)
(0.89377 0.0321476 0)
(0.845495 0.0334806 0)
(0.880432 0.031243 0)
(0.838449 0.0338034 0)
(0.867662 0.0286331 0)
(0.830954 0.0315169 0)
(0.856897 0.0248787 0)
(0.824456 0.0273897 0)
(0.849064 0.0205719 0)
(0.819974 0.0222144 0)
(0.844532 0.0162793 0)
(0.818033 0.0167826 0)
(0.84312 0.0124607 0)
(0.818642 0.0117988 0)
(0.84424 0.0093936 0)
(0.821355 0.00775082 0)
(0.847091 0.0071402 0)
(0.82542 0.00484329 0)
(0.850865 0.00559716 0)
(0.829929 0.00301764 0)
(0.854916 0.00458973 0)
(0.834208 0.00203179 0)
(0.858856 0.00395444 0)
(0.83804 0.00157305 0)
(0.862476 0.00358844 0)
(0.841448 0.00142164 0)
(0.86565 0.00344139 0)
(0.844559 0.00147444 0)
(0.868257 0.00343991 0)
(0.847454 0.00170742 0)
(0.870213 0.00331649 0)
(0.849982 0.0020136 0)
(0.85223 0.00218599 0)
(0.150429 -0.432676 0)
(0.0739712 -0.508495 0)
(0.290601 -0.380575 0)
(0.199592 -0.471965 0)
(0.407164 -0.304993 0)
(0.30732 -0.383941 0)
(0.50151 -0.235263 0)
(0.399689 -0.299153 0)
(0.577173 -0.176297 0)
(0.47306 -0.227453 0)
(0.637084 -0.127318 0)
(0.531362 -0.168012 0)
(0.683667 -0.0868974 0)
(0.577248 -0.118914 0)
(0.718998 -0.0538078 0)
(0.612672 -0.0785674 0)
(0.745147 -0.0268722 0)
(0.639296 -0.0458553 0)
(0.764405 -0.00501745 0)
(0.658623 -0.0199098 0)
(0.778405 0.0120174 0)
(0.673283 0.000409794 0)
(0.785979 0.0240979 0)
(0.683898 0.0169855 0)
(0.789142 0.031466 0)
(0.689835 0.027614 0)
(0.78943 0.0345777 0)
(0.692638 0.0332735 0)
(0.788399 0.0340793 0)
(0.69362 0.0345265 0)
(0.787363 0.0307869 0)
(0.693958 0.0322257 0)
(0.787319 0.025615 0)
(0.69458 0.0274193 0)
(0.788882 0.0195237 0)
(0.696088 0.0211942 0)
(0.79223 0.0134408 0)
(0.698732 0.0146499 0)
(0.797081 0.0081216 0)
(0.702368 0.00878177 0)
(0.802804 0.00403504 0)
(0.706531 0.00427564 0)
(0.80851 0.00134158 0)
(0.710564 0.00146022 0)
(0.813451 -8.39584e-05 0)
(0.713747 0.00015715 0)
(0.817369 -0.000614061 0)
(0.715742 -0.000182541 0)
(0.820549 -0.000641663 0)
(0.716524 -0.000181892 0)
(0.823394 -0.000396962 0)
(0.716465 -0.000111674 0)
(0.826266 1.06022e-05 0)
(0.716009 -3.63963e-05 0)
(0.829217 0.000544554 0)
(0.715474 0.000191284 0)
(0.831893 0.00117108 0)
(0.714922 0.000671383 0)
(0.714078 0.00152527 0)
(0.120738 -0.557411 0)
(0.0536725 -0.62675 0)
(0.224949 -0.485357 0)
(0.150049 -0.571622 0)
(0.308044 -0.387938 0)
(0.218161 -0.461529 0)
(0.374734 -0.300328 0)
(0.278822 -0.359952 0)
(0.428512 -0.226997 0)
(0.325113 -0.275323 0)
(0.471526 -0.166225 0)
(0.362436 -0.205396 0)
(0.505429 -0.116031 0)
(0.39223 -0.147684 0)
(0.531504 -0.0749291 0)
(0.415644 -0.100171 0)
(0.551047 -0.0419495 0)
(0.433576 -0.0616646 0)
(0.565707 -0.0159658 0)
(0.446967 -0.0314899 0)
(0.577051 0.0041339 0)
(0.456465 -0.00833823 0)
(0.586218 0.0188036 0)
(0.466411 0.0100821 0)
(0.592117 0.0281958 0)
(0.472712 0.0232777 0)
(0.59579 0.0325592 0)
(0.476422 0.0306364 0)
(0.598374 0.0325279 0)
(0.478369 0.0327156 0)
(0.600617 0.0291122 0)
(0.47932 0.0306905 0)
(0.603017 0.0234896 0)
(0.479703 0.0258161 0)
(0.605834 0.0168988 0)
(0.479716 0.0193561 0)
(0.609008 0.0105425 0)
(0.479417 0.0126283 0)
(0.612131 0.00538777 0)
(0.478666 0.00683939 0)
(0.614704 0.00200581 0)
(0.47714 0.00271323 0)
(0.616232 0.000410578 0)
(0.474646 0.000554351 0)
(0.61635 2.86881e-05 0)
(0.470937 8.85871e-05 0)
(0.61497 0.000121378 0)
(0.465391 0.000597357 0)
(0.612356 0.000203474 0)
(0.457854 0.00126072 0)
(0.608913 0.000132409 0)
(0.448771 0.00174394 0)
(0.605109 3.03306e-05 0)
(0.43878 0.00196465 0)
(0.601245 0.000118481 0)
(0.428468 0.00217627 0)
(0.597334 0.000685226 0)
(0.418403 0.00263299 0)
(0.407885 0.00328874 0)
(0.086265 -0.648897 0)
(0.0323739 -0.711241 0)
(0.150362 -0.556066 0)
(0.0941528 -0.632919 0)
(0.196315 -0.441691 0)
(0.117761 -0.504436 0)
(0.232064 -0.342469 0)
(0.144415 -0.392543 0)
(0.260635 -0.260409 0)
(0.160208 -0.300755 0)
(0.283519 -0.192641 0)
(0.173169 -0.225284 0)
(0.301817 -0.13668 0)
(0.183321 -0.163211 0)
(0.316147 -0.090808 0)
(0.191521 -0.112044 0)
(0.327099 -0.0540658 0)
(0.198179 -0.0705248 0)
(0.335695 -0.0252102 0)
(0.203599 -0.0382796 0)
(0.343691 -0.00249773 0)
(0.207415 -0.0145044 0)
(0.351237 0.0144114 0)
(0.213006 0.00440018 0)
(0.355289 0.0251347 0)
(0.214336 0.0202981 0)
(0.357439 0.0301816 0)
(0.213407 0.0290928 0)
(0.358164 0.030484 0)
(0.21005 0.0322077 0)
(0.357634 0.027204 0)
(0.204557 0.0310533 0)
(0.35595 0.0215623 0)
(0.196769 0.0269413 0)
(0.353201 0.0149226 0)
(0.186467 0.0211492 0)
(0.349395 0.00868194 0)
(0.173672 0.0150528 0)
(0.344309 0.00386628 0)
(0.159703 0.0100027 0)
(0.337948 0.00101535 0)
(0.14459 0.00657592 0)
(0.330151 0.00011095 0)
(0.129286 0.00517753 0)
(0.320562 0.000598585 0)
(0.114382 0.00563974 0)
(0.308535 0.00180602 0)
(0.0997429 0.00739533 0)
(0.294242 0.00308743 0)
(0.0852033 0.00914857 0)
(0.278437 0.00399875 0)
(0.0706126 0.0102605 0)
(0.26199 0.00457899 0)
(0.0558224 0.0106182 0)
(0.245649 0.00518623 0)
(0.0407942 0.0105706 0)
(0.23034 0.00568663 0)
(0.0260568 0.0103113 0)
(0.0121508 0.00890755 0)
(0.0469907 -0.702245 0)
(0.0090465 -0.757266 0)
(0.0665785 -0.588409 0)
(0.0309143 -0.651651 0)
(0.0728583 -0.461842 0)
(0.00737361 -0.5103 0)
(0.0751155 -0.356536 0)
(-0.00290595 -0.3946 0)
(0.0749701 -0.270471 0)
(-0.0206664 -0.300626 0)
(0.0738802 -0.199995 0)
(-0.0361749 -0.224337 0)
(0.0725907 -0.142135 0)
(-0.0502364 -0.162117 0)
(0.0716406 -0.0948956 0)
(-0.0619316 -0.111257 0)
(0.0714611 -0.0577192 0)
(-0.0713454 -0.0703796 0)
(0.0729338 -0.0306247 0)
(-0.0799 -0.0394428 0)
(0.0747527 -0.0099819 0)
(-0.0907521 -0.0159071 0)
(0.073535 0.00861447 0)
(-0.103794 0.0053171 0)
(0.0701246 0.0229737 0)
(-0.110761 0.0228055 0)
(0.0638476 0.0305583 0)
(-0.119324 0.0335987 0)
(0.0548899 0.0328495 0)
(-0.130083 0.0384861 0)
(0.0426441 0.0315024 0)
(-0.143296 0.0394336 0)
(0.0266578 0.0277928 0)
(-0.159321 0.037623 0)
(0.00697985 0.0228088 0)
(-0.178278 0.033987 0)
(-0.0153745 0.017804 0)
(-0.199975 0.0292922 0)
(-0.0389281 0.0138639 0)
(-0.22273 0.0246517 0)
(-0.0625677 0.0116007 0)
(-0.246094 0.0209312 0)
(-0.0850756 0.0113016 0)
(-0.268788 0.0185227 0)
(-0.105387 0.0124728 0)
(-0.289783 0.0173979 0)
(-0.12297 0.0141084 0)
(-0.308134 0.0173343 0)
(-0.13837 0.015389 0)
(-0.323661 0.0176473 0)
(-0.152397 0.0159143 0)
(-0.336859 0.0178188 0)
(-0.165738 0.0157862 0)
(-0.348676 0.0176372 0)
(-0.17855 0.0150718 0)
(-0.360012 0.0171525 0)
(-0.190045 0.0132264 0)
(-0.370934 0.0160764 0)
(-0.379541 0.0137721 0)
(-0.00159762 -0.711369 0)
(-0.0187209 -0.755701 0)
(-0.0266709 -0.577693 0)
(-0.0414949 -0.627673 0)
(-0.0611469 -0.444249 0)
(-0.111537 -0.478109 0)
(-0.0958316 -0.338391 0)
(-0.163276 -0.36298 0)
(-0.12895 -0.253495 0)
(-0.217241 -0.271146 0)
(-0.158929 -0.185579 0)
(-0.265369 -0.198282 0)
(-0.184907 -0.131096 0)
(-0.308205 -0.140073 0)
(-0.206821 -0.0871053 0)
(-0.345079 -0.0931001 0)
(-0.226295 -0.0513605 0)
(-0.376356 -0.0546257 0)
(-0.246918 -0.0222817 0)
(-0.40436 -0.0231535 0)
(-0.270056 0.00151754 0)
(-0.431657 0.00193698 0)
(-0.289683 0.0200908 0)
(-0.455717 0.0200963 0)
(-0.303113 0.0328863 0)
(-0.470357 0.0326797 0)
(-0.315542 0.0405808 0)
(-0.484384 0.0425205 0)
(-0.32975 0.0441978 0)
(-0.498743 0.0484446 0)
(-0.346242 0.0446237 0)
(-0.514188 0.0507198 0)
(-0.364845 0.0426641 0)
(-0.531067 0.0500532 0)
(-0.3851 0.0390893 0)
(-0.549333 0.0472015 0)
(-0.406605 0.0347509 0)
(-0.568799 0.0429902 0)
(-0.428762 0.0305383 0)
(-0.589082 0.0384323 0)
(-0.450839 0.0270684 0)
(-0.609748 0.0343372 0)
(-0.472018 0.0245804 0)
(-0.63017 0.0310802 0)
(-0.491449 0.0230029 0)
(-0.64953 0.0286466 0)
(-0.508254 0.0220271 0)
(-0.66679 0.0268332 0)
(-0.522187 0.0213237 0)
(-0.681227 0.0253369 0)
(-0.53362 0.0206695 0)
(-0.6928 0.0239797 0)
(-0.543274 0.0198993 0)
(-0.702164 0.022716 0)
(-0.551656 0.0187128 0)
(-0.710277 0.0214586 0)
(-0.559028 0.0168944 0)
(-0.717558 0.0197738 0)
(-0.722374 0.0177392 0)
(-0.0500349 -0.671312 0)
(-0.0526818 -0.706695 0)
(-0.126454 -0.523823 0)
(-0.122669 -0.554593 0)
(-0.204953 -0.3904 0)
(-0.239884 -0.404813 0)
(-0.280895 -0.288361 0)
(-0.336311 -0.293746 0)
(-0.350658 -0.208712 0)
(-0.42728 -0.209047 0)
(-0.413289 -0.146098 0)
(-0.507278 -0.143848 0)
(-0.468378 -0.0962965 0)
(-0.576594 -0.0933252 0)
(-0.516019 -0.0559507 0)
(-0.635667 -0.0536276 0)
(-0.557186 -0.023116 0)
(-0.685556 -0.0213226 0)
(-0.591708 0.00228444 0)
(-0.72483 0.00411424 0)
(-0.617431 0.0202696 0)
(-0.755641 0.021775 0)
(-0.63674 0.0332423 0)
(-0.777952 0.0346361 0)
(-0.653887 0.0435417 0)
(-0.797452 0.0452861 0)
(-0.669239 0.0509622 0)
(-0.814108 0.053541 0)
(-0.684179 0.0550263 0)
(-0.829367 0.0589164 0)
(-0.699637 0.0560021 0)
(-0.844305 0.0612979 0)
(-0.715905 0.0544374 0)
(-0.859519 0.0609234 0)
(-0.732966 0.0510618 0)
(-0.875224 0.0583322 0)
(-0.750794 0.0467837 0)
(-0.891497 0.0543463 0)
(-0.769267 0.0424883 0)
(-0.908378 0.0499213 0)
(-0.788086 0.0387212 0)
(-0.925826 0.0457649 0)
(-0.806673 0.0355914 0)
(-0.943548 0.0421009 0)
(-0.824147 0.0329259 0)
(-0.960831 0.0387626 0)
(-0.839483 0.0304876 0)
(-0.976587 0.0355015 0)
(-0.852006 0.0281682 0)
(-0.989801 0.0322479 0)
(-0.861707 0.0260324 0)
(-1.00006 0.0292074 0)
(-0.869179 0.0241176 0)
(-1.00783 0.0266471 0)
(-0.875193 0.0222352 0)
(-1.01411 0.024548 0)
(-0.880733 0.0203456 0)
(-1.01945 0.0225525 0)