/*--------------------------------*- C++ -*----------------------------------*\
| =========                 |                                                 |
| \\      /  F ield         | OpenFOAM: The Open Source CFD Toolbox           |
|  \\    /   O peration     | Version:  2006                                  |
|   \\  /    A nd           | Website:  www.openfoam.com                      |
|    \\/     M anipulation  |                                                 |
\*---------------------------------------------------------------------------*/
FoamFile
{
    version     2.0;
    format      ascii;
    class       volVectorField;
    location    "0.8";
    object      flux;
}
// * * * * * * * * * * * * * * * * * * * * * * * * * * * * * * * * * * * * * //

dimensions      [0 1 -1 1 0 0 0];


internalField   nonuniform List<vector> 
512
(
(0.0122313 -27.1906 0)
(0.0346828 -27.0917 0)
(0.0518705 -26.9105 0)
(0.062386 -26.6734 0)
(0.0665217 -26.4082 0)
(0.0655894 -26.1387 0)
(0.0612113 -25.8817 0)
(0.0548248 -25.648 0)
(0.0475675 -25.4427 0)
(0.0402038 -25.2673 0)
(0.0331944 -25.1212 0)
(0.026778 -25.0021 0)
(0.0210382 -24.9073 0)
(0.0159559 -24.8341 0)
(0.0114476 -24.7799 0)
(0.00739049 -24.7427 0)
(0.00364005 -24.7209 0)
(4.08453e-05 -24.7137 0)
(-0.00356524 -24.7206 0)
(-0.0073309 -24.7421 0)
(-0.0113922 -24.7791 0)
(-0.0158509 -24.833 0)
(-0.0207457 -24.9057 0)
(-0.0260099 -24.9988 0)
(-0.0314113 -25.1137 0)
(-0.036482 -25.2503 0)
(-0.0404546 -25.4061 0)
(-0.042253 -25.575 0)
(-0.0406153 -25.7459 0)
(-0.0344361 -25.9022 0)
(-0.0233428 -26.0238 0)
(-0.00829408 -26.091 0)
(0.0372008 -27.2143 0)
(0.105371 -27.1113 0)
(0.157289 -26.9234 0)
(0.18876 -26.6793 0)
(0.200844 -26.4081 0)
(0.197643 -26.1343 0)
(0.184145 -25.8747 0)
(0.164707 -25.6395 0)
(0.142743 -25.4338 0)
(0.120533 -25.2586 0)
(0.0994437 -25.113 0)
(0.0801724 -24.9945 0)
(0.0629568 -24.9004 0)
(0.0477302 -24.8278 0)
(0.0342348 -24.7741 0)
(0.0220986 -24.7373 0)
(0.0108851 -24.7157 0)
(0.00012595 -24.7085 0)
(-0.0106551 -24.7154 0)
(-0.021919 -24.7366 0)
(-0.0340785 -24.7733 0)
(-0.0474456 -24.8268 0)
(-0.0621477 -24.899 0)
(-0.0779991 -24.9918 0)
(-0.0943214 -25.1067 0)
(-0.109726 -25.244 0)
(-0.121914 -25.4014 0)
(-0.127626 -25.5731 0)
(-0.122989 -25.7481 0)
(-0.104545 -25.9095 0)
(-0.0710244 -26.0361 0)
(-0.0252703 -26.1064 0)
(0.0637416 -27.2627 0)
(0.180136 -27.1509 0)
(0.267847 -26.9492 0)
(0.320003 -26.6908 0)
(0.339017 -26.4076 0)
(0.332314 -26.1252 0)
(0.308591 -25.8603 0)
(0.275262 -25.6225 0)
(0.238018 -25.416 0)
(0.200614 -25.2412 0)
(0.165265 -25.0966 0)
(0.133076 -24.9794 0)
(0.104398 -24.8866 0)
(0.079089 -24.8152 0)
(0.0566965 -24.7626 0)
(0.0365871 -24.7265 0)
(0.0180244 -24.7054 0)
(0.000221417 -24.6983 0)
(-0.0176224 -24.705 0)
(-0.0362842 -24.7257 0)
(-0.0564665 -24.7617 0)
(-0.0787129 -24.8143 0)
(-0.103271 -24.8856 0)
(-0.129882 -24.9778 0)
(-0.157476 -25.0927 0)
(-0.183793 -25.2311 0)
(-0.205013 -25.3916 0)
(-0.215609 -25.5689 0)
(-0.20884 -25.7523 0)
(-0.178445 -25.9242 0)
(-0.121782 -26.0611 0)
(-0.0434502 -26.1381 0)
(0.0930809 -27.338 0)
(0.262089 -27.212 0)
(0.387339 -26.9883 0)
(0.459576 -26.7074 0)
(0.483664 -26.4058 0)
(0.471312 -26.1105 0)
(0.435487 -25.8378 0)
(0.386863 -25.5963 0)
(0.333395 -25.3889 0)
(0.280233 -25.2148 0)
(0.230339 -25.0719 0)
(0.18514 -24.9568 0)
(0.145031 -24.8661 0)
(0.109747 -24.7965 0)
(0.0786108 -24.7454 0)
(0.050707 -24.7104 0)
(0.0249868 -24.69 0)
(0.000335003 -24.6831 0)
(-0.0243821 -24.6895 0)
(-0.050271 -24.7095 0)
(-0.0783446 -24.7443 0)
(-0.109413 -24.7956 0)
(-0.143898 -24.8655 0)
(-0.181541 -24.9565 0)
(-0.220976 -25.0712 0)
(-0.259166 -25.2112 0)
(-0.290807 -25.3761 0)
(-0.307976 -25.5617 0)
(-0.300641 -25.7579 0)
(-0.258952 -25.9463 0)
(-0.17798 -26.0997 0)
(-0.0637763 -26.1877 0)
(0.126752 -27.4438 0)
(0.354999 -27.2964 0)
(0.520143 -27.0406 0)
(0.611254 -26.728 0)
(0.63748 -26.4013 0)
(0.61628 -26.0889 0)
(0.565652 -25.8064 0)
(0.499762 -25.5604 0)
(0.42878 -25.3521 0)
(0.359107 -25.1793 0)
(0.294301 -25.0388 0)
(0.235984 -24.9266 0)
(0.184505 -24.8387 0)
(0.139407 -24.7718 0)
(0.0997489 -24.7227 0)
(0.0643058 -24.6892 0)
(0.0316995 -24.6697 0)
(0.000475479 -24.663 0)
(-0.030845 -24.669 0)
(-0.063714 -24.6881 0)
(-0.099483 -24.7214 0)
(-0.139274 -24.7707 0)
(-0.183756 -24.8385 0)
(-0.232781 -24.9279 0)
(-0.284825 -25.042 0)
(-0.336223 -25.1837 0)
(-0.380274 -25.3541 0)
(-0.40653 -25.5506 0)
(-0.401093 -25.7643 0)
(-0.349334 -25.9757 0)
(-0.242504 -26.1535 0)
(-0.0874357 -26.258 0)
(0.1668 -27.5856 0)
(0.463704 -27.4068 0)
(0.671524 -27.1061 0)
(0.779246 -26.7511 0)
(0.803226 -26.3921 0)
(0.768734 -26.0587 0)
(0.699721 -25.7647 0)
(0.614042 -25.5139 0)
(0.523945 -25.3051 0)
(0.436854 -25.1345 0)
(0.356718 -24.9974 0)
(0.285187 -24.8889 0)
(0.222441 -24.8048 0)
(0.167757 -24.7411 0)
(0.119873 -24.6947 0)
(0.0772261 -24.6631 0)
(0.0380884 -24.6447 0)
(0.000652926 -24.6383 0)
(-0.0369164 -24.6438 0)
(-0.0764358 -24.6616 0)
(-0.119628 -24.6929 0)
(-0.167982 -24.7397 0)
(-0.222508 -24.8047 0)
(-0.283305 -24.8916 0)
(-0.348885 -25.0045 0)
(-0.415179 -25.1476 0)
(-0.474261 -25.3241 0)
(-0.513084 -25.5339 0)
(-0.513203 -25.7698 0)
(-0.453548 -26.0124 0)
(-0.319097 -26.2242 0)
(-0.11603 -26.353 0)
(0.21611 -27.771 0)
(0.594707 -27.5467 0)
(0.84801 -27.1843 0)
(0.968295 -26.7741 0)
(0.983681 -26.3753 0)
(0.929976 -26.0175 0)
(0.838064 -25.7109 0)
(0.729555 -25.4556 0)
(0.618485 -25.2472 0)
(0.512973 -25.0799 0)
(0.41708 -24.9473 0)
(0.332275 -24.8438 0)
(0.258433 -24.7642 0)
(0.194466 -24.7046 0)
(0.138737 -24.6614 0)
(0.0893057 -24.6321 0)
(0.0440773 -24.6151 0)
(0.000878842 -24.6091 0)
(-0.0424953 -24.6141 0)
(-0.0882445 -24.6303 0)
(-0.138496 -24.659 0)
(-0.195172 -24.7026 0)
(-0.259728 -24.7639 0)
(-0.332681 -24.8473 0)
(-0.412828 -24.9579 0)
(-0.496014 -25.1017 0)
(-0.573399 -25.2844 0)
(-0.629405 -25.5092 0)
(-0.640345 -25.7724 0)
(-0.576529 -26.0553 0)
(-0.412843 -26.3144 0)
(-0.151845 -26.4789 0)
(0.278941 -28.0116 0)
(0.757073 -27.7202 0)
(1.05785 -27.2734 0)
(1.18372 -26.7931 0)
(1.18152 -26.3472 0)
(1.10096 -25.9623 0)
(0.980689 -25.643 0)
(0.845857 -25.3842 0)
(0.711786 -25.1778 0)
(0.586821 -25.0152 0)
(0.474783 -24.8886 0)
(0.376722 -24.7911 0)
(0.292041 -24.7172 0)
(0.219186 -24.6624 0)
(0.156082 -24.6231 0)
(0.100377 -24.5966 0)
(0.0495885 -24.5811 0)
(0.0011659 -24.5756 0)
(-0.0474753 -24.5798 0)
(-0.0989337 -24.5941 0)
(-0.155776 -24.6199 0)
(-0.220422 -24.6594 0)
(-0.29489 -24.7161 0)
(-0.380316 -24.7947 0)
(-0.476084 -24.9016 0)
(-0.578389 -25.0446 0)
(-0.677986 -25.2326 0)
(-0.757098 -25.4734 0)
(-0.786274 -25.7686 0)
(-0.724548 -26.1028 0)
(-0.530905 -26.4268 0)
(-0.198297 -26.6445 0)
(0.361851 -28.3242 0)
(0.963838 -27.9314 0)
(1.31152 -27.3698 0)
(1.43137 -26.8025 0)
(1.3991 -26.3027 0)
(1.28211 -25.8895 0)
(1.12712 -25.5586 0)
(0.962142 -25.2984 0)
(0.802983 -25.096 0)
(0.657593 -24.9401 0)
(0.529127 -24.821 0)
(0.41794 -24.731 0)
(0.32279 -24.6639 0)
(0.24155 -24.6147 0)
(0.171642 -24.5799 0)
(0.110269 -24.5566 0)
(0.0545421 -24.543 0)
(0.00152722 -24.5381 0)
(-0.051745 -24.5414 0)
(-0.108284 -24.5535 0)
(-0.171126 -24.5757 0)
(-0.24325 -24.6103 0)
(-0.327364 -24.6611 0)
(-0.425433 -24.7333 0)
(-0.537792 -24.8346 0)
(-0.661545 -24.9747 0)
(-0.787811 -25.1662 0)
(-0.897392 -25.4226 0)
(-0.955035 -25.7536 0)
(-0.905618 -26.1514 0)
(-0.6837 -26.5643 0)
(-0.260716 -26.8631 0)
(0.475357 -28.7341 0)
(1.23427 -28.1839 0)
(1.62229 -27.4667 0)
(1.71727 -26.7939 0)
(1.63804 -26.2354 0)
(1.47302 -25.7948 0)
(1.27625 -25.4553 0)
(1.07718 -25.1967 0)
(0.890938 -25.0011 0)
(0.724314 -24.8542 0)
(0.579308 -24.7446 0)
(0.455283 -24.6636 0)
(0.350174 -24.6044 0)
(0.261174 -24.5619 0)
(0.185142 -24.5322 0)
(0.118806 -24.5126 0)
(0.0588561 -24.5011 0)
(0.00197496 -24.4968 0)
(-0.0551914 -24.4991 0)
(-0.116068 -24.5087 0)
(-0.184179 -24.5267 0)
(-0.263121 -24.5555 0)
(-0.356406 -24.5991 0)
(-0.467054 -24.6631 0)
(-0.596751 -24.7562 0)
(-0.744192 -24.8903 0)
(-0.90194 -25.0819 0)
(-1.0508 -25.3516 0)
(-1.15067 -25.7203 0)
(-1.12989 -26.1947 0)
(-0.886774 -26.7287 0)
(-0.347735 -27.1551 0)
(0.636989 -29.2807 0)
(1.59757 -28.4772 0)
(2.00649 -27.5513 0)
(2.04699 -26.7558 0)
(1.89865 -26.1375 0)
(1.67217 -25.6737 0)
(1.4262 -25.3305 0)
(1.18923 -25.0779 0)
(0.974214 -24.8927 0)
(0.785834 -24.7576 0)
(0.624421 -24.6596 0)
(0.488049 -24.5893 0)
(0.373658 -24.5392 0)
(0.277661 -24.5042 0)
(0.196301 -24.4804 0)
(0.125807 -24.4649 0)
(0.0624455 -24.4558 0)
(0.00251821 -24.4521 0)
(-0.0577036 -24.4534 0)
(-0.122052 -24.4601 0)
(-0.19455 -24.4733 0)
(-0.27945 -24.4955 0)
(-0.381172 -24.5303 0)
(-0.504002 -24.5841 0)
(-0.651383 -24.666 0)
(-0.824393 -24.7901 0)
(-1.01844 -24.9766 0)
(-1.21659 -25.2543 0)
(-1.3766 -25.6592 0)
(-1.40985 -26.2217 0)
(-1.16388 -26.9188 0)
(-0.473877 -27.5523 0)
(0.877128 -30.0274 0)
(2.09897 -28.8004 0)
(2.483 -27.6024 0)
(2.42418 -26.6724 0)
(2.17906 -25.9999 0)
(1.87654 -25.5214 0)
(1.57418 -25.1818 0)
(1.29607 -24.941 0)
(1.05108 -24.7705 0)
(0.840836 -24.6503 0)
(0.66347 -24.5664 0)
(0.515486 -24.5084 0)
(0.392685 -24.4689 0)
(0.290602 -24.4424 0)
(0.204834 -24.425 0)
(0.131093 -24.4141 0)
(0.0652215 -24.4077 0)
(0.00316052 -24.4048 0)
(-0.0591777 -24.4049 0)
(-0.126011 -24.4084 0)
(-0.201852 -24.4163 0)
(-0.291624 -24.4307 0)
(-0.400735 -24.4554 0)
(-0.534909 -24.4966 0)
(-0.699731 -24.5639 0)
(-0.899479 -24.6728 0)
(-1.13407 -24.8472 0)
(-1.39206 -25.124 0)
(-1.63436 -25.5572 0)
(-1.75973 -26.2138 0)
(-1.55209 -27.1236 0)
(-0.664495 -28.1069 0)
(1.25047 -31.0799 0)
(2.81006 -29.1158 0)
(3.07049 -27.5854 0)
(2.84823 -26.5237 0)
(2.47414 -25.8127 0)
(2.08121 -25.3332 0)
(1.71642 -25.0073 0)
(1.39493 -24.7852 0)
(1.11953 -24.6343 0)
(0.887864 -24.5327 0)
(0.695385 -24.4652 0)
(0.536808 -24.4215 0)
(0.406681 -24.3938 0)
(0.299586 -24.3767 0)
(0.210454 -24.3666 0)
(0.134481 -24.3606 0)
(0.0670921 -24.3571 0)
(0.00389786 -24.3551 0)
(-0.0595224 -24.354 0)
(-0.127732 -24.3541 0)
(-0.205705 -24.3561 0)
(-0.29902 -24.3619 0)
(-0.414111 -24.3749 0)
(-0.558261 -24.4011 0)
(-0.73948 -24.45 0)
(-0.96601 -24.5377 0)
(-1.24403 -24.6907 0)
(-1.57163 -24.9531 0)
(-1.92152 -25.3982 0)
(-2.19305 -26.1413 0)
(-2.11042 -27.309 0)
(-0.965495 -28.906 0)
(1.85919 -32.6228 0)
(3.84622 -29.3223 0)
(3.77906 -27.4504 0)
(3.31053 -26.2862 0)
(2.7743 -25.5665 0)
(2.27924 -25.1053 0)
(1.84819 -24.8055 0)
(1.4826 -24.6101 0)
(1.17735 -24.4842 0)
(0.925364 -24.4048 0)
(0.719057 -24.3564 0)
(0.551214 -24.3288 0)
(0.415081 -24.3142 0)
(0.304209 -24.3075 0)
(0.212885 -24.3052 0)
(0.135796 -24.3047 0)
(0.0679634 -24.3044 0)
(0.00471823 -24.3034 0)
(-0.0586648 -24.301 0)
(-0.127027 -24.2974 0)
(-0.20576 -24.293 0)
(-0.301032 -24.2895 0)
(-0.420311 -24.2892 0)
(-0.572463 -24.298 0)
(-0.768046 -24.3246 0)
(-1.01984 -24.3845 0)
(-1.34179 -24.5051 0)
(-1.7458 -24.7349 0)
(-2.22846 -25.163 0)
(-2.71513 -25.9611 0)
(-2.93446 -27.3856 0)
(-1.46302 -30.1029 0)
(2.90072 -34.99 0)
(5.39625 -29.1708 0)
(4.58852 -27.1376 0)
(3.79019 -25.9366 0)
(3.06459 -25.2543 0)
(2.46171 -24.8358 0)
(1.96401 -24.5761 0)
(1.55557 -24.4163 0)
(1.22221 -24.3209 0)
(0.951747 -24.2676 0)
(0.733373 -24.2408 0)
(0.557911 -24.2312 0)
(0.417345 -24.231 0)
(0.30409 -24.2355 0)
(0.211868 -24.2417 0)
(0.13488 -24.2469 0)
(0.0677418 -24.2501 0)
(0.00560229 -24.2502 0)
(-0.0565565 -24.2465 0)
(-0.123748 -24.2392 0)
(-0.201721 -24.2281 0)
(-0.297108 -24.2145 0)
(-0.418387 -24.1996 0)
(-0.575934 -24.1888 0)
(-0.782717 -24.1891 0)
(-1.0563 -24.2144 0)
(-1.41924 -24.2907 0)
(-1.90055 -24.4655 0)
(-2.53463 -24.8338 0)
(-3.30434 -25.623 0)
(-4.18133 -27.1376 0)
(-2.32417 -31.978 0)
(4.76876 -38.8116 0)
(7.77241 -28.072 0)
(5.39617 -26.616 0)
(4.25217 -25.4564 0)
(3.32469 -24.8752 0)
(2.61835 -24.5255 0)
(2.05796 -24.3205 0)
(1.61019 -24.205 0)
(1.2517 -24.1458 0)
(0.96543 -24.1223 0)
(0.737237 -24.1194 0)
(0.556114 -24.1298 0)
(0.412969 -24.1451 0)
(0.298861 -24.1614 0)
(0.207156 -24.1769 0)
(0.131582 -24.1881 0)
(0.0663243 -24.1951 0)
(0.00651921 -24.1963 0)
(-0.0531863 -24.1914 0)
(-0.117792 -24.1804 0)
(-0.193373 -24.1621 0)
(-0.286783 -24.1382 0)
(-0.407498 -24.1073 0)
(-0.567229 -24.0753 0)
(-0.780852 -24.0458 0)
(-1.07063 -24.0302 0)
(-1.46733 -24.0501 0)
(-2.01737 -24.1464 0)
(-2.80718 -24.3981 0)
(-3.86703 -25.1022 0)
(-6.11195 -26.0569 0)
(-3.88319 -35.0624 0)
)
;

boundaryField
{
    left
    {
        type            calculated;
        value           nonuniform List<vector> 
16
(
(0 -27.1906 0)
(0 -27.2143 0)
(0 -27.2627 0)
(0 -27.338 0)
(0 -27.4438 0)
(0 -27.5856 0)
(0 -27.771 0)
(0 -28.0116 0)
(0 -28.3242 0)
(0 -28.7341 0)
(0 -29.2807 0)
(0 -30.0274 0)
(0 -31.0799 0)
(0 -32.6228 0)
(0 -34.99 0)
(0 -38.8116 0)
)
;
    }
    right
    {
        type            calculated;
        value           nonuniform List<vector> 
16
(
(0 -26.091 0)
(0 -26.1064 0)
(0 -26.1381 0)
(0 -26.1877 0)
(0 -26.258 0)
(0 -26.353 0)
(0 -26.4789 0)
(0 -26.6445 0)
(0 -26.8631 0)
(0 -27.1551 0)
(0 -27.5523 0)
(0 -28.1069 0)
(0 -28.906 0)
(0 -30.1029 0)
(0 -31.978 0)
(0 -35.0624 0)
)
;
    }
    interface
    {
        type            calculated;
        value           nonuniform List<vector> 
32
(
(4.76876 -41.1894 0)
(7.77241 -27.1824 0)
(5.39617 -26.3028 0)
(4.25217 -25.1818 0)
(3.32469 -24.6691 0)
(2.61835 -24.3603 0)
(2.05796 -24.1863 0)
(1.61019 -24.0951 0)
(1.2517 -24.0553 0)
(0.96543 -24.0477 0)
(0.737237 -24.0573 0)
(0.556114 -24.0781 0)
(0.412969 -24.1015 0)
(0.298861 -24.1239 0)
(0.207156 -24.1442 0)
(0.131582 -24.1584 0)
(0.0663243 -24.1673 0)
(0.00651921 -24.1693 0)
(-0.0531863 -24.1636 0)
(-0.117792 -24.1509 0)
(-0.193373 -24.1289 0)
(-0.286783 -24.0998 0)
(-0.407498 -24.0606 0)
(-0.567229 -24.0177 0)
(-0.780852 -23.9725 0)
(-1.07063 -23.9348 0)
(-1.46733 -23.9237 0)
(-2.01737 -23.9748 0)
(-2.80718 -24.1524 0)
(-3.86703 -24.7963 0)
(-6.11195 -25.2193 0)
(-3.88319 -36.9942 0)
)
;
    }
    bottom
    {
        type            calculated;
        value           nonuniform List<vector> 
32
(
(0.0122313 -27.1847 0)
(0.0346828 -27.0869 0)
(0.0518705 -26.9073 0)
(0.062386 -26.6719 0)
(0.0665217 -26.4082 0)
(0.0655894 -26.1397 0)
(0.0612113 -25.8835 0)
(0.0548248 -25.6501 0)
(0.0475675 -25.4449 0)
(0.0402038 -25.2695 0)
(0.0331944 -25.1232 0)
(0.026778 -25.004 0)
(0.0210382 -24.909 0)
(0.0159559 -24.8357 0)
(0.0114476 -24.7814 0)
(0.00739049 -24.7441 0)
(0.00364005 -24.7222 0)
(4.08453e-05 -24.7149 0)
(-0.00356524 -24.7219 0)
(-0.0073309 -24.7435 0)
(-0.0113922 -24.7806 0)
(-0.0158509 -24.8346 0)
(-0.0207457 -24.9074 0)
(-0.0260099 -25.0006 0)
(-0.0314113 -25.1154 0)
(-0.036482 -25.2519 0)
(-0.0404546 -25.4073 0)
(-0.042253 -25.5755 0)
(-0.0406153 -25.7453 0)
(-0.0344361 -25.9004 0)
(-0.0233428 -26.0208 0)
(-0.00829408 -26.0872 0)
)
;
    }
    defaultFaces
    {
        type            empty;
    }
}


// ************************************************************************* //
