/*--------------------------------*- C++ -*----------------------------------*\
| =========                 |                                                 |
| \\      /  F ield         | OpenFOAM: The Open Source CFD Toolbox           |
|  \\    /   O peration     | Version:  2006                                  |
|   \\  /    A nd           | Website:  www.openfoam.com                      |
|    \\/     M anipulation  |                                                 |
\*---------------------------------------------------------------------------*/
FoamFile
{
    version     2.0;
    format      ascii;
    class       surfaceVectorField;
    location    "5.9";
    object      Uf;
}
// * * * * * * * * * * * * * * * * * * * * * * * * * * * * * * * * * * * * * //

dimensions      [0 1 -1 0 0 0 0];


internalField   nonuniform List<vector> 
5457
(
(9.92088 0.0251095 0)
(9.97125 0.0387456 0)
(9.82402 0.0328267 0)
(9.92859 0.0485849 0)
(9.70961 0.0393118 0)
(9.85548 0.0587678 0)
(9.57544 0.0460113 0)
(9.7568 0.0705929 0)
(9.42138 0.0529487 0)
(9.63754 0.0830129 0)
(9.24755 0.060166 0)
(9.49862 0.0959361 0)
(9.05363 0.0678107 0)
(9.33931 0.109612 0)
(8.83893 0.0760344 0)
(9.15875 0.124288 0)
(8.60253 0.0849701 0)
(8.9561 0.140167 0)
(8.34327 0.0947449 0)
(8.73039 0.157433 0)
(8.05985 0.105487 0)
(8.48041 0.17627 0)
(7.75081 0.117328 0)
(8.20478 0.196858 0)
(7.41457 0.130396 0)
(7.90196 0.219363 0)
(7.04951 0.144811 0)
(7.57031 0.243925 0)
(6.65404 0.160674 0)
(7.20819 0.270635 0)
(6.22672 0.178046 0)
(6.814 0.299503 0)
(5.76643 0.19693 0)
(6.38634 0.330418 0)
(5.27258 0.217235 0)
(5.92417 0.363088 0)
(4.74538 0.238738 0)
(5.42711 0.39698 0)
(4.18621 0.261035 0)
(4.89566 0.431241 0)
(3.59798 0.283491 0)
(4.33165 0.464624 0)
(2.98556 0.305204 0)
(3.73861 0.495428 0)
(2.35612 0.325071 0)
(3.12228 0.521515 0)
(1.71911 0.342549 0)
(2.49107 0.54056 0)
(1.08435 0.361882 0)
(1.85586 0.551675 0)
(0.451838 0.348684 0)
(1.24548 0.563022 0)
(-0.145838 0.102465 0)
(0.608919 0.544881 0)
(-0.42362 -0.207096 0)
(0.0946646 0.259371 0)
(-0.402156 -0.361259 0)
(-0.13367 -0.020526 0)
(-0.119681 -0.393887 0)
(9.99641 0.0516721 0)
(9.99705 0.0405043 0)
(9.95879 0.070861 0)
(9.97851 0.0674539 0)
(9.89824 0.0879862 0)
(9.93377 0.0898692 0)
(9.81659 0.105984 0)
(9.86453 0.113554 0)
(9.71359 0.124921 0)
(9.77438 0.138514 0)
(9.58909 0.144853 0)
(9.66436 0.164645 0)
(9.44275 0.166089 0)
(9.53397 0.192331 0)
(9.27391 0.188967 0)
(9.3825 0.22203 0)
(9.08167 0.213783 0)
(9.2092 0.254148 0)
(8.86491 0.240816 0)
(9.01317 0.289064 0)
(8.62231 0.270338 0)
(8.79332 0.327153 0)
(8.3524 0.302609 0)
(8.54836 0.368788 0)
(8.05356 0.337859 0)
(8.27684 0.414319 0)
(7.72412 0.376265 0)
(7.97718 0.46405 0)
(7.36238 0.417906 0)
(7.64772 0.518194 0)
(6.96673 0.462712 0)
(7.28683 0.576812 0)
(6.53583 0.510392 0)
(6.89296 0.639732 0)
(6.06883 0.560339 0)
(6.46482 0.706435 0)
(5.56559 0.611527 0)
(6.0016 0.775917 0)
(5.0271 0.66239 0)
(5.50326 0.846532 0)
(4.45588 0.710713 0)
(4.97089 0.915814 0)
(3.8565 0.753544 0)
(4.40718 0.980313 0)
(3.2362 0.787199 0)
(3.81704 1.03546 0)
(2.60582 0.807503 0)
(3.20846 1.07549 0)
(1.98279 0.810468 0)
(2.59339 1.09315 0)
(1.40529 0.776897 0)
(1.99621 1.07708 0)
(0.929752 0.646401 0)
(1.4195 0.978409 0)
(0.439855 0.384338 0)
(0.937573 0.716797 0)
(0.059172 -0.118614 0)
(0.443791 0.343524 0)
(0.17492 -0.335932 0)
(9.98903 0.0594303 0)
(9.99481 0.045877 0)
(9.95434 0.0894757 0)
(9.97368 0.0848533 0)
(9.89729 0.118031 0)
(9.92984 0.119173 0)
(9.82047 0.147897 0)
(9.86357 0.153975 0)
(9.72416 0.17942 0)
(9.77736 0.190407 0)
(9.60822 0.212774 0)
(9.67227 0.228635 0)
(9.47235 0.248391 0)
(9.5481 0.269128 0)
(9.31608 0.286773 0)
(9.40432 0.312495 0)
(9.13869 0.328396 0)
(9.24035 0.359324 0)
(8.93925 0.373722 0)
(9.0555 0.410174 0)
(8.71665 0.423206 0)
(8.8489 0.465598 0)
(8.46961 0.477296 0)
(8.61952 0.526153 0)
(8.19668 0.5364 0)
(8.36616 0.592373 0)
(7.89633 0.600843 0)
(8.08752 0.664739 0)
(7.56692 0.670812 0)
(7.7822 0.74362 0)
(7.20684 0.746259 0)
(7.44874 0.829192 0)
(6.81457 0.826785 0)
(7.08569 0.921322 0)
(6.38888 0.911486 0)
(6.69171 1.01941 0)
(5.92904 0.998762 0)
(6.26572 1.12218 0)
(5.43514 1.0861 0)
(5.80712 1.22743 0)
(4.90855 1.16983 0)
(5.31608 1.33175 0)
(4.35243 1.2449 0)
(4.79398 1.4302 0)
(3.77259 1.30455 0)
(4.24398 1.51588 0)
(3.17873 1.33984 0)
(3.67182 1.57943 0)
(2.58663 1.33812 0)
(3.08633 1.60775 0)
(2.01987 1.27297 0)
(2.50293 1.58158 0)
(1.48695 1.09541 0)
(1.92874 1.46425 0)
(0.958301 0.769172 0)
(1.38525 1.21041 0)
(0.47988 0.202453 0)
(0.829545 0.80104 0)
(0.433732 0.134081 0)
(9.98515 0.0716131 0)
(9.99367 0.0531472 0)
(9.95039 0.113629 0)
(9.97088 0.10229 0)
(9.89437 0.154132 0)
(9.92691 0.147952 0)
(9.81882 0.195571 0)
(9.86185 0.193719 0)
(9.72442 0.238809 0)
(9.77746 0.241275 0)
(9.61113 0.284322 0)
(9.67467 0.291161 0)
(9.47875 0.332719 0)
(9.55343 0.343953 0)
(9.32695 0.384673 0)
(9.41336 0.40037 0)
(9.15524 0.440845 0)
(9.25401 0.461138 0)
(8.96292 0.501883 0)
(9.07484 0.52696 0)
(8.74917 0.568427 0)
(8.87521 0.598535 0)
(8.51305 0.641112 0)
(8.6543 0.676562 0)
(8.25347 0.720531 0)
(8.41123 0.761721 0)
(7.96926 0.807192 0)
(8.145 0.854638 0)
(7.65918 0.901439 0)
(7.85455 0.955821 0)
(7.32193 1.00335 0)
(7.53876 1.06557 0)
(6.95621 1.11258 0)
(7.19646 1.18385 0)
(6.56085 1.22814 0)
(6.82653 1.31008 0)
(6.13489 1.34817 0)
(6.42789 1.44292 0)
(5.67785 1.4696 0)
(5.99967 1.57991 0)
(5.19 1.58778 0)
(5.54134 1.71709 0)
(4.67287 1.69603 0)
(5.05306 1.84854 0)
(4.1298 1.78515 0)
(4.53597 1.96584 0)
(3.56666 1.84253 0)
(3.99274 2.05731 0)
(2.99206 1.85073 0)
(3.4276 2.10714 0)
(2.41585 1.78249 0)
(2.84764 2.09448 0)
(1.84055 1.60046 0)
(2.25623 1.98873 0)
(1.25939 1.27843 0)
(1.66032 1.75304 0)
(0.666777 0.789538 0)
(1.02397 1.36776 0)
(0.523037 0.787148 0)
(9.98337 0.0844063 0)
(9.99316 0.0612906 0)
(9.94821 0.136835 0)
(9.96959 0.119925 0)
(9.89315 0.18803 0)
(9.92575 0.176238 0)
(9.81907 0.240166 0)
(9.862 0.232695 0)
(9.72663 0.294464 0)
(9.77964 0.291084 0)
(9.6159 0.351656 0)
(9.6794 0.35227 0)
(9.48672 0.412467 0)
(9.56128 0.416974 0)
(9.33879 0.477673 0)
(9.42497 0.486005 0)
(9.17171 0.548048 0)
(9.2701 0.560201 0)
(8.98493 0.624351 0)
(9.09621 0.640383 0)
(8.77779 0.707341 0)
(8.90275 0.727365 0)
(8.54954 0.797763 0)
(8.68908 0.821954 0)
(8.29936 0.896325 0)
(8.45445 0.92494 0)
(8.02635 1.00365 0)
(8.19808 1.03705 0)
(7.72958 1.12021 0)
(7.91912 1.15891 0)
(7.40806 1.24617 0)
(7.61669 1.29093 0)
(7.06077 1.38127 0)
(7.28986 1.43315 0)
(6.68669 1.52459 0)
(6.93763 1.58511 0)
(6.28485 1.67419 0)
(6.55899 1.74551 0)
(5.85438 1.82679 0)
(6.15287 1.91189 0)
(5.39471 1.97726 0)
(5.71822 2.08017 0)
(4.90575 2.11806 0)
(5.25408 2.24409 0)
(4.38825 2.23861 0)
(4.75973 2.39461 0)
(3.84394 2.32455 0)
(4.23495 2.5192 0)
(3.27544 2.35695 0)
(3.67989 2.60124 0)
(2.6854 2.31059 0)
(3.09572 2.6197 0)
(2.07269 2.155 0)
(2.48169 2.54732 0)
(1.42938 1.8674 0)
(1.83992 2.35372 0)
(0.742613 1.41956 0)
(1.13136 2.02452 0)
(0.543307 1.51449 0)
(9.98264 0.0974962 0)
(9.99299 0.0697917 0)
(9.94744 0.159772 0)
(9.96925 0.137581 0)
(9.89354 0.221345 0)
(9.92597 0.203924 0)
(9.82134 0.284088 0)
(9.86381 0.270684 0)
(9.73134 0.349344 0)
(9.78386 0.339578 0)
(9.62367 0.418014 0)
(9.68665 0.411692 0)
(9.49819 0.490933 0)
(9.57219 0.487898 0)
(9.35466 0.56897 0)
(9.44022 0.569099 0)
(9.1927 0.653 0)
(9.29044 0.656229 0)
(9.01184 0.743894 0)
(9.12243 0.750209 0)
(8.81152 0.842513 0)
(8.93572 0.851953 0)
(8.59109 0.949707 0)
(8.72973 0.962364 0)
(8.34986 1.06628 0)
(8.50382 1.08232 0)
(8.08707 1.19296 0)
(8.25729 1.21265 0)
(7.80193 1.33031 0)
(7.98938 1.35405 0)
(7.4936 1.4786 0)
(7.6993 1.50703 0)
(7.16119 1.63769 0)
(7.38617 1.67177 0)
(6.80372 1.80676 0)
(7.04903 1.84792 0)
(6.42011 1.98398 0)
(6.68675 2.03437 0)
(6.00912 2.16614 0)
(6.29801 2.22885 0)
(5.5694 2.34811 0)
(5.88119 2.42749 0)
(5.09946 2.52221 0)
(5.43433 2.62427 0)
(4.59774 2.67757 0)
(4.95511 2.8103 0)
(4.06269 2.7995 0)
(4.44084 2.97323 0)
(3.4927 2.86911 0)
(3.88851 3.09663 0)
(2.88582 2.86292 0)
(3.29522 3.1599 0)
(2.23801 2.75393 0)
(2.65689 3.13791 0)
(1.54244 2.52103 0)
(1.97484 3.00319 0)
(0.793647 2.13133 0)
(1.20724 2.74059 0)
(0.556735 2.29182 0)
(9.9825 0.110624 0)
(9.99302 0.0783601 0)
(9.94771 0.182321 0)
(9.96954 0.155035 0)
(9.89523 0.253813 0)
(9.92722 0.230882 0)
(9.82524 0.326762 0)
(9.86697 0.307504 0)
(9.73814 0.40255 0)
(9.78978 0.386517 0)
(9.63404 0.482228 0)
(9.69606 0.469142 0)
(9.51286 0.566751 0)
(9.5858 0.556391 0)
(9.37439 0.657087 0)
(9.45881 0.649264 0)
(9.21829 0.754207 0)
(9.31481 0.748781 0)
(9.04415 0.85908 0)
(9.15347 0.855957 0)
(8.85146 0.972659 0)
(8.97435 0.971796 0)
(8.63963 1.09588 0)
(8.77692 1.09729 0)
(8.40803 1.22964 0)
(8.56059 1.23342 0)
(8.15596 1.37475 0)
(8.3247 1.38108 0)
(7.88265 1.53187 0)
(8.06853 1.54108 0)
(7.58728 1.70139 0)
(7.79126 1.71406 0)
(7.2689 1.88331 0)
(7.49196 1.90031 0)
(6.92643 2.07699 0)
(7.16955 2.09971 0)
(6.55851 2.28087 0)
(6.82266 2.31141 0)
(6.16347 2.49207 0)
(6.44959 2.53351 0)
(5.73913 2.70585 0)
(6.04809 2.76266 0)
(5.28273 2.915 0)
(5.61524 2.99348 0)
(4.79083 3.10917 0)
(5.14724 3.21786 0)
(4.25929 3.27421 0)
(4.63938 3.42428 0)
(3.68338 3.39186 0)
(4.08605 3.59715 0)
(3.05804 3.43968 0)
(3.48131 3.71654 0)
(2.37773 3.39179 0)
(2.81836 3.75812 0)
(1.6379 3.22617 0)
(2.09915 3.69398 0)
(0.839129 2.90084 0)
(1.27892 3.50447 0)
(0.573358 3.11369 0)
(9.98273 0.123579 0)
(9.99316 0.0868159 0)
(9.94873 0.204306 0)
(9.97027 0.17209 0)
(9.89794 0.285247 0)
(9.92927 0.256971 0)
(9.83051 0.36796 0)
(9.87124 0.342982 0)
(9.74671 0.453845 0)
(9.79716 0.431672 0)
(9.64669 0.54407 0)
(9.70735 0.524344 0)
(9.53039 0.6397 0)
(9.60181 0.622128 0)
(9.39763 0.741793 0)
(9.48039 0.726118 0)
(9.24814 0.851408 0)
(9.34287 0.837417 0)
(9.08154 0.969601 0)
(9.18895 0.957125 0)
(8.89737 1.09742 0)
(9.01825 1.08634 0)
(8.69511 1.23588 0)
(8.83031 1.22613 0)
(8.47414 1.38598 0)
(8.62456 1.37758 0)
(8.23377 1.54863 0)
(8.40038 1.54168 0)
(7.97323 1.72461 0)
(8.15703 1.71938 0)
(7.69162 1.91445 0)
(7.89365 1.91144 0)
(7.38786 2.11836 0)
(7.60921 2.11837 0)
(7.06063 2.33598 0)
(7.30243 2.3403 0)
(6.70821 2.56614 0)
(6.97166 2.57678 0)
(6.32837 2.8065 0)
(6.61472 2.82645 0)
(5.9181 3.05306 0)
(6.22872 3.08672 0)
(5.47345 3.29955 0)
(5.80974 3.35319 0)
(4.9893 3.53667 0)
(5.35265 3.619 0)
(4.45933 3.75142 0)
(4.85087 3.87401 0)
(3.87621 3.92647 0)
(4.29641 4.10395 0)
(3.23232 4.03986 0)
(3.68054 4.28969 0)
(2.52082 4.06498 0)
(2.9935 4.40677 0)
(1.73837 3.97612 0)
(2.23737 4.42457 0)
(0.889469 3.71874 0)
(1.36335 4.31628 0)
(0.598749 3.98487 0)
(9.98321 0.136201 0)
(9.99339 0.0950386 0)
(9.95032 0.225568 0)
(9.97131 0.188586 0)
(9.90151 0.315491 0)
(9.93193 0.282044 0)
(9.83694 0.407497 0)
(9.87643 0.376954 0)
(9.75684 0.503005 0)
(9.80579 0.474833 0)
(9.66136 0.603269 0)
(9.72031 0.577041 0)
(9.55047 0.70945 0)
(9.61996 0.684805 0)
(9.42404 0.822692 0)
(9.50466 0.799307 0)
(9.28185 0.944137 0)
(9.37423 0.921725 0)
(9.12357 1.07492 0)
(9.22845 1.05324 0)
(8.94881 1.21618 0)
(9.06697 1.19503 0)
(8.75707 1.36904 0)
(8.8894 1.34827 0)
(8.54778 1.53458 0)
(8.69522 1.51411 0)
(8.32026 1.71384 0)
(8.48384 1.6937 0)
(8.07372 1.90774 0)
(8.25452 1.8881 0)
(7.80715 2.11703 0)
(8.00638 2.09827 0)
(7.51934 2.34216 0)
(7.73827 2.32497 0)
(7.20869 2.58317 0)
(7.44874 2.56869 0)
(6.87311 2.8394 0)
(7.13586 2.82946 0)
(6.50978 3.10929 0)
(6.79702 3.10665 0)
(6.11489 3.38982 0)
(6.42869 3.39863 0)
(5.68332 3.67604 0)
(6.02605 3.70232 0)
(5.20838 3.96023 0)
(5.58269 4.01251 0)
(4.68165 4.231 0)
(5.09021 4.32099 0)
(4.09317 4.47232 0)
(4.53816 4.6154 0)
(3.4324 4.66254 0)
(3.91458 4.87787 0)
(2.69003 4.77313 0)
(3.20556 5.08357 0)
(1.86177 4.77236 0)
(2.41117 5.19793 0)
(0.954137 4.58968 0)
(1.4762 5.18425 0)
(0.639157 4.91939 0)
(9.98386 0.148366 0)
(9.99368 0.102942 0)
(9.95235 0.245966 0)
(9.97261 0.20439 0)
(9.90579 0.344393 0)
(9.9351 0.305964 0)
(9.84438 0.445191 0)
(9.88241 0.409263 0)
(9.76833 0.549803 0)
(9.81552 0.515808 0)
(9.67781 0.65955 0)
(9.73472 0.627002 0)
(9.57282 0.775678 0)
(9.64 0.744148 0)
(9.45329 0.899408 0)
(9.53131 0.868506 0)
(9.31903 1.03196 0)
(9.40854 1.00133 0)
(9.1698 1.17455 0)
(9.27153 1.14386 0)
(9.00524 1.32839 0)
(9.12001 1.29737 0)
(8.82494 1.49471 0)
(8.95363 1.46312 0)
(8.62836 1.6747 0)
(8.77196 1.64236 0)
(8.41486 1.86954 0)
(8.57445 1.83636 0)
(8.18363 2.08033 0)
(8.3604 2.04635 0)
(7.93362 2.30806 0)
(8.12891 2.2735 0)
(7.66349 2.55351 0)
(7.87882 2.51888 0)
(7.37145 2.81719 0)
(7.60856 2.78341 0)
(7.05506 3.09913 0)
(7.31599 3.0677 0)
(6.71102 3.39867 0)
(6.99821 3.37198 0)
(6.3348 3.7141 0)
(6.65118 3.6958 0)
(5.92024 4.04212 0)
(6.26939 4.03769 0)
(5.45914 4.37708 0)
(5.84528 4.39455 0)
(4.94091 4.7099 0)
(5.36874 4.76075 0)
(4.35254 5.02654 0)
(4.82662 5.12675 0)
(3.6794 5.30616 0)
(4.20298 5.47706 0)
(2.90733 5.51813 0)
(3.47769 5.78744 0)
(2.02751 5.62293 0)
(2.64484 6.01943 0)
(1.04502 5.52935 0)
(1.63757 6.12382 0)
(0.704401 5.94293 0)
(9.98465 0.159978 0)
(9.99402 0.11046 0)
(9.95473 0.265377 0)
(9.97409 0.219396 0)
(9.91065 0.371814 0)
(9.93868 0.328606 0)
(9.85267 0.480876 0)
(9.88905 0.439769 0)
(9.78101 0.594036 0)
(9.82619 0.554425 0)
(9.69582 0.712671 0)
(9.75039 0.674015 0)
(9.59717 0.838097 0)
(9.66167 0.799906 0)
(9.48503 0.971605 0)
(9.56004 0.933424 0)
(9.35929 1.11448 0)
(9.44544 1.07588 0)
(9.21975 1.26802 0)
(9.31778 1.2286 0)
(9.06614 1.43351 0)
(9.17686 1.39291 0)
(8.89813 1.61227 0)
(9.02242 1.57014 0)
(8.71523 1.80563 0)
(8.85412 1.76168 0)
(8.51688 2.01489 0)
(8.67147 1.9689 0)
(8.30228 2.24136 0)
(8.47387 2.19321 0)
(8.07042 2.48631 0)
(8.26047 2.43601 0)
(7.8199 2.75091 0)
(8.03014 2.69871 0)
(7.54885 3.0362 0)
(7.78132 2.98269 0)
(7.25465 3.343 0)
(7.51184 3.28923 0)
(6.93368 3.67173 0)
(7.21869 3.61951 0)
(6.58093 4.02221 0)
(6.89763 3.97443 0)
(6.18945 4.39318 0)
(6.54272 4.35439 0)
(5.74974 4.78167 0)
(6.14568 4.75886 0)
(5.24905 5.18178 0)
(5.69502 5.18562 0)
(4.67084 5.58284 0)
(5.17498 5.62928 0)
(3.99478 5.96656 0)
(4.56495 6.07885 0)
(3.19826 6.30168 0)
(3.83615 6.51359 0)
(2.26162 6.54058 0)
(2.97062 6.89399 0)
(1.18051 6.56494 0)
(1.87895 7.15769 0)
(0.812707 7.09916 0)
(9.98554 0.17096 0)
(9.9944 0.117544 0)
(9.95739 0.283693 0)
(9.97572 0.233515 0)
(9.91601 0.397628 0)
(9.94259 0.349862 0)
(9.8617 0.514403 0)
(9.89624 0.468343 0)
(9.79469 0.635525 0)
(9.83765 0.59053 0)
(9.71518 0.762417 0)
(9.76714 0.717898 0)
(9.62326 0.896455 0)
(9.68476 0.851863 0)
(9.51896 1.03899 0)
(9.59057 0.993805 0)
(9.40222 1.19136 0)
(9.48457 1.14509 0)
(9.27295 1.35493 0)
(9.36675 1.3071 0)
(9.13096 1.53107 0)
(9.23701 1.48122 0)
(8.97598 1.72118 0)
(9.09517 1.66886 0)
(8.80765 1.92669 0)
(8.94099 1.87149 0)
(8.62548 2.14908 0)
(8.77411 2.09062 0)
(8.42879 2.38984 0)
(8.59403 2.32781 0)
(8.21664 2.65052 0)
(8.40005 2.58471 0)
(7.98771 2.93272 0)
(8.19116 2.86305 0)
(7.74019 3.23806 0)
(7.96597 3.16467 0)
(7.4715 3.56819 0)
(7.72245 3.49156 0)
(7.178 3.92472 0)
(7.45777 3.84587 0)
(6.85455 4.30917 0)
(7.16784 4.22991 0)
(6.49388 4.72269 0)
(6.84687 4.64616 0)
(6.08572 5.16558 0)
(6.48649 5.09704 0)
(5.61563 5.63635 0)
(6.07468 5.58453 0)
(5.06352 6.12985 0)
(5.59397 6.10913 0)
(4.4021 6.63377 0)
(5.0195 6.66761 0)
(3.59596 7.12114 0)
(4.31238 7.24852 0)
(2.60413 7.54046 0)
(3.43544 7.82008 0)
(1.39416 7.74017 0)
(2.25621 8.3148 0)
(1.00246 8.46465 0)
(9.9865 0.181249 0)
(9.9948 0.124153 0)
(9.96027 0.300826 0)
(9.97747 0.246675 0)
(9.92177 0.421725 0)
(9.94676 0.369639 0)
(9.87134 0.54564 0)
(9.90388 0.494875 0)
(9.80924 0.674111 0)
(9.84978 0.623992 0)
(9.73568 0.8086 0)
(9.78479 0.758493 0)
(9.65082 0.950529 0)
(9.70903 0.899831 0)
(9.55473 1.1013 0)
(9.6226 1.04943 0)
(9.44744 1.2623 0)
(9.52557 1.20871 0)
(9.32893 1.43494 0)
(9.41801 1.37907 0)
(9.19911 1.62066 0)
(9.29991 1.56196 0)
(9.05782 1.82093 0)
(9.17121 1.75886 0)
(8.90483 2.03729 0)
(9.03179 1.9713 0)
(8.73978 2.27134 0)
(8.88145 2.2009 0)
(8.56213 2.52478 0)
(8.71984 2.44938 0)
(8.37113 2.79945 0)
(8.54645 2.71858 0)
(8.16568 3.09731 0)
(8.36053 3.01053 0)
(7.94417 3.42055 0)
(8.16097 3.32752 0)
(7.70433 3.77165 0)
(7.94612 3.67216 0)
(7.44287 4.15344 0)
(7.71362 4.04751 0)
(7.15503 4.56915 0)
(7.46003 4.45726 0)
(6.83395 5.02254 0)
(7.18032 4.90591 0)
(6.46956 5.5177 0)
(6.8671 5.39896 0)
(6.04699 6.05879 0)
(6.50931 5.94312 0)
(5.54399 6.64881 0)
(6.08999 6.54629 0)
(4.92694 7.28703 0)
(5.583 7.21686 0)
(4.14479 7.96137 0)
(4.9423 7.96158 0)
(3.1215 8.63337 0)
(4.10898 8.77555 0)
(1.75602 9.12744 0)
(2.87806 9.62061 0)
(1.36446 10.1846 0)
(9.98754 0.190794 0)
(9.99523 0.130257 0)
(9.96333 0.3167 0)
(9.97932 0.258818 0)
(9.92786 0.444013 0)
(9.95115 0.387859 0)
(9.88148 0.574477 0)
(9.91188 0.519274 0)
(9.82449 0.709666 0)
(9.86244 0.654701 0)
(9.75713 0.851071 0)
(9.80318 0.795668 0)
(9.67959 1.00015 0)
(9.73426 0.943659 0)
(9.59202 1.15833 0)
(9.65584 1.10013 0)
(9.49453 1.32706 0)
(9.56807 1.26651 0)
(9.38717 1.50777 0)
(9.47109 1.44426 0)
(9.26998 1.70194 0)
(9.36501 1.63485 0)
(9.14292 1.91113 0)
(9.24989 1.83979 0)
(9.0059 2.13693 0)
(9.12574 2.06069 0)
(8.85874 2.38108 0)
(8.99254 2.29924 0)
(8.70111 2.64543 0)
(8.85014 2.55725 0)
(8.53251 2.93203 0)
(8.69831 2.83675 0)
(8.35216 3.2432 0)
(8.53661 3.14 0)
(8.15888 3.58162 0)
(8.36435 3.46962 0)
(7.95095 3.95048 0)
(8.18047 3.82873 0)
(7.72581 4.35367 0)
(7.98337 4.22114 0)
(7.47971 4.79605 0)
(7.77071 4.65165 0)
(7.20709 5.28379 0)
(7.53897 5.12645 0)
(6.89956 5.82488 0)
(7.28292 5.65376 0)
(6.54415 6.42967 0)
(6.99457 6.24471 0)
(6.12013 7.11156 0)
(6.66119 6.91481 0)
(5.59274 7.88769 0)
(6.2622 7.68631 0)
(4.90048 8.77788 0)
(5.75716 8.59268 0)
(3.92638 9.80131 0)
(5.08677 9.68509 0)
(2.43277 10.8561 0)
(3.97878 11.049 0)
(2.14568 12.5673 0)
(9.98862 0.199558 0)
(9.99567 0.135832 0)
(9.96652 0.331254 0)
(9.98124 0.269899 0)
(9.9342 0.464408 0)
(9.95571 0.404462 0)
(9.89203 0.600809 0)
(9.92017 0.541464 0)
(9.84031 0.742052 0)
(9.87553 0.682568 0)
(9.77933 0.889654 0)
(9.82217 0.829322 0)
(9.70933 1.04509 0)
(9.76029 0.983225 0)
(9.63052 1.20983 0)
(9.69011 1.14575 0)
(9.54309 1.38532 0)
(9.61187 1.31835 0)
(9.44719 1.57304 0)
(9.52579 1.50249 0)
(9.34297 1.77449 0)
(9.43208 1.69967 0)
(9.23054 1.99126 0)
(9.33095 1.91141 0)
(9.10997 2.225 0)
(9.22255 2.13935 0)
(8.98128 2.47753 0)
(9.10707 2.38523 0)
(8.8444 2.7508 0)
(8.98459 2.65092 0)
(8.69916 3.04704 0)
(8.85519 2.93855 0)
(8.54519 3.36882 0)
(8.71882 3.25053 0)
(8.38189 3.71915 0)
(8.57532 3.58968 0)
(8.20831 4.10175 0)
(8.42437 3.95944 0)
(8.02299 4.52128 0)
(8.26538 4.36406 0)
(7.82373 4.98379 0)
(8.09743 4.80903 0)
(7.60725 5.49731 0)
(7.91918 5.30157 0)
(7.36852 6.0729 0)
(7.72864 5.85156 0)
(7.09961 6.72621 0)
(7.52293 6.47291 0)
(6.78734 7.48043 0)
(7.2978 7.1862 0)
(6.40817 8.37227 0)
(7.04777 8.02383 0)
(5.91505 9.46615 0)
(6.7626 9.04224 0)
(5.19537 10.9083 0)
(6.46126 10.3571 0)
(3.88357 13.1779 0)
(6.18854 12.3034 0)
(5.25682 16.371 0)
(0.184601 -0.108854 0)
(0.108304 -0.180805 0)
(0.358632 -0.0914353 0)
(0.263091 -0.166427 0)
(0.500024 -0.0687855 0)
(0.415433 -0.13202 0)
(0.608665 -0.0488715 0)
(0.542054 -0.0990447 0)
(0.689584 -0.0330433 0)
(0.639467 -0.072029 0)
(0.748291 -0.020966 0)
(0.712592 -0.051023 0)
(0.789691 -0.0120044 0)
(0.76727 -0.0351308 0)
(0.81796 -0.0055567 0)
(0.808247 -0.0234223 0)
(0.836584 -0.00109599 0)
(0.839135 -0.0150661 0)
(0.84839 0.00183268 0)
(0.862741 -0.00932526 0)
(0.855599 0.00361048 0)
(0.881265 -0.00555987 0)
(0.85991 0.00454175 0)
(0.896384 -0.00324645 0)
(0.862611 0.00486427 0)
(0.909342 -0.00198558 0)
(0.864666 0.00477125 0)
(0.921057 -0.00147523 0)
(0.866771 0.00442744 0)
(0.932206 -0.00147519 0)
(0.869361 0.00397413 0)
(0.943263 -0.00177241 0)
(0.872593 0.0035348 0)
(0.954507 -0.00215992 0)
(0.876347 0.00322083 0)
(0.966017 -0.00244909 0)
(0.880247 0.00312503 0)
(0.977673 -0.00248422 0)
(0.883731 0.00330223 0)
(0.989184 -0.00216646 0)
(0.886162 0.00373802 0)
(1.00014 -0.00147662 0)
(0.887024 0.00431663 0)
(1.01007 -0.000510758 0)
(0.885944 0.00489295 0)
(1.01854 0.000624789 0)
(0.882776 0.00539238 0)
(1.02525 0.00179108 0)
(0.877556 0.005792 0)
(1.03004 0.00288052 0)
(0.87038 0.00607745 0)
(1.03293 0.00386682 0)
(0.861403 0.00624965 0)
(1.03407 0.00472298 0)
(0.850706 0.00622504 0)
(1.03332 0.00549523 0)
(0.839086 0.00543757 0)
(1.03084 0.00582824 0)
(1.02721 0.00441474 0)
(0.171268 -0.261927 0)
(0.0905888 -0.348551 0)
(0.334091 -0.226935 0)
(0.234121 -0.322136 0)
(0.4694 -0.177531 0)
(0.367438 -0.25836 0)
(0.577376 -0.133387 0)
(0.479398 -0.197483 0)
(0.662746 -0.098078 0)
(0.567382 -0.14802 0)
(0.730346 -0.0709678 0)
(0.636099 -0.109775 0)
(0.784277 -0.0506643 0)
(0.690418 -0.0808965 0)
(0.827898 -0.035835 0)
(0.734099 -0.0595637 0)
(0.863914 -0.0253137 0)
(0.769956 -0.0442024 0)
(0.894455 -0.0180915 0)
(0.800157 -0.0334486 0)
(0.921123 -0.0133247 0)
(0.826372 -0.0261266 0)
(0.945089 -0.0103526 0)
(0.849808 -0.0212922 0)
(0.967213 -0.00867783 0)
(0.871308 -0.018252 0)
(0.988141 -0.00791486 0)
(0.891477 -0.0164983 0)
(1.00834 -0.0077454 0)
(0.910766 -0.015635 0)
(1.02815 -0.00789284 0)
(0.929503 -0.0153261 0)
(1.04776 -0.00810679 0)
(0.947913 -0.0152644 0)
(1.06726 -0.00816077 0)
(0.966124 -0.0151679 0)
(1.08659 -0.00787151 0)
(0.984161 -0.0147972 0)
(1.1056 -0.00713027 0)
(1.00196 -0.0139903 0)
(1.12406 -0.00592991 0)
(1.01936 -0.0126865 0)
(1.1416 -0.00437172 0)
(1.0362 -0.0109104 0)
(1.1578 -0.00261182 0)
(1.05218 -0.00875238 0)
(1.17237 -0.000802199 0)
(1.06705 -0.006444 0)
(1.18525 0.000951797 0)
(1.08071 -0.00422986 0)
(1.19647 0.00264526 0)
(1.09321 -0.00217963 0)
(1.20593 0.00422204 0)
(1.10462 -0.000251426 0)
(1.2133 0.00539783 0)
(1.11496 0.00170567 0)
(1.21905 0.00538458 0)
(1.12401 0.00294629 0)
(1.13326 0.0027232 0)
(0.144957 -0.415162 0)
(0.0707518 -0.490528 0)
(0.278253 -0.36045 0)
(0.191357 -0.449607 0)
(0.386929 -0.284728 0)
(0.2922 -0.359833 0)
(0.472896 -0.217563 0)
(0.376976 -0.275856 0)
(0.540883 -0.164099 0)
(0.442317 -0.208537 0)
(0.595056 -0.12311 0)
(0.49333 -0.156858 0)
(0.638762 -0.0923754 0)
(0.533822 -0.117985 0)
(0.674636 -0.0698341 0)
(0.566505 -0.0892868 0)
(0.704787 -0.0537044 0)
(0.593393 -0.0685936 0)
(0.730871 -0.0424425 0)
(0.61609 -0.0540517 0)
(0.754085 -0.0347541 0)
(0.635871 -0.0440293 0)
(0.775241 -0.0296418 0)
(0.653569 -0.0372229 0)
(0.794925 -0.0263816 0)
(0.669683 -0.0327237 0)
(0.813569 -0.0244353 0)
(0.684575 -0.0298823 0)
(0.831496 -0.0233747 0)
(0.698527 -0.0281995 0)
(0.848937 -0.0228306 0)
(0.711764 -0.0272615 0)
(0.866046 -0.0224666 0)
(0.724456 -0.0266966 0)
(0.882894 -0.0219823 0)
(0.736721 -0.0261597 0)
(0.899466 -0.0211446 0)
(0.748621 -0.0253531 0)
(0.915687 -0.019823 0)
(0.760156 -0.0240787 0)
(0.931462 -0.0179892 0)
(0.771287 -0.0222661 0)
(0.946686 -0.0156918 0)
(0.78196 -0.0199367 0)
(0.96126 -0.013079 0)
(0.792114 -0.0171897 0)
(0.97512 -0.0104018 0)
(0.80169 -0.014278 0)
(0.988361 -0.00785569 0)
(0.810658 -0.0115377 0)
(1.00115 -0.00543071 0)
(0.819123 -0.00906948 0)
(1.01354 -0.00312442 0)
(0.827155 -0.00677138 0)
(1.0256 -0.00115229 0)
(0.835078 -0.00448982 0)
(1.03673 0.000243867 0)
(0.842321 -0.0026362 0)
(0.850276 -0.00106743 0)
(0.115795 -0.534332 0)
(0.0507206 -0.603942 0)
(0.214034 -0.458725 0)
(0.142718 -0.543553 0)
(0.290184 -0.360475 0)
(0.204865 -0.430936 0)
(0.34897 -0.275407 0)
(0.259178 -0.32945 0)
(0.394886 -0.208608 0)
(0.298013 -0.249408 0)
(0.431173 -0.157755 0)
(0.327804 -0.188395 0)
(0.460218 -0.119752 0)
(0.35088 -0.142632 0)
(0.483774 -0.0919111 0)
(0.368808 -0.108804 0)
(0.503277 -0.0719955 0)
(0.382721 -0.0843706 0)
(0.5199 -0.0580511 0)
(0.393658 -0.0671815 0)
(0.534422 -0.0484154 0)
(0.402599 -0.0552294 0)
(0.54726 -0.0418465 0)
(0.409983 -0.0468892 0)
(0.558713 -0.0374813 0)
(0.41596 -0.0411448 0)
(0.569028 -0.034685 0)
(0.420677 -0.0372868 0)
(0.578405 -0.0329581 0)
(0.4243 -0.0347714 0)
(0.587015 -0.0318756 0)
(0.426993 -0.0331537 0)
(0.595001 -0.0310518 0)
(0.428918 -0.0320327 0)
(0.602459 -0.0301395 0)
(0.430241 -0.0310253 0)
(0.60942 -0.0288714 0)
(0.431105 -0.0297876 0)
(0.615886 -0.0271059 0)
(0.431596 -0.0281001 0)
(0.621879 -0.0248134 0)
(0.431758 -0.0259055 0)
(0.627417 -0.0220421 0)
(0.431598 -0.0232199 0)
(0.632446 -0.0189667 0)
(0.431087 -0.0201013 0)
(0.636918 -0.0159161 0)
(0.43019 -0.0168053 0)
(0.641037 -0.0130988 0)
(0.428858 -0.0138111 0)
(0.645012 -0.0104338 0)
(0.42698 -0.0112113 0)
(0.648677 -0.0079695 0)
(0.424559 -0.00869977 0)
(0.651709 -0.00611135 0)
(0.42267 -0.00604748 0)
(0.654412 -0.00443772 0)
(0.418321 -0.00399174 0)
(0.411185 -0.00162846 0)
(0.0817282 -0.621003 0)
(0.0295199 -0.68399 0)
(0.140736 -0.523926 0)
(0.087397 -0.599983 0)
(0.181019 -0.407814 0)
(0.106128 -0.468549 0)
(0.209947 -0.310521 0)
(0.128246 -0.355824 0)
(0.231155 -0.235218 0)
(0.137939 -0.268285 0)
(0.246805 -0.178267 0)
(0.143939 -0.201997 0)
(0.258214 -0.135744 0)
(0.14658 -0.152313 0)
(0.26619 -0.104509 0)
(0.146469 -0.115413 0)
(0.271537 -0.0821334 0)
(0.143898 -0.0886959 0)
(0.275072 -0.0664114 0)
(0.139521 -0.0699742 0)
(0.277191 -0.0553173 0)
(0.13408 -0.0568633 0)
(0.277899 -0.0474355 0)
(0.12768 -0.0474223 0)
(0.277273 -0.0419029 0)
(0.120228 -0.0406844 0)
(0.275433 -0.0380802 0)
(0.111794 -0.0359662 0)
(0.272525 -0.0354659 0)
(0.102517 -0.0327328 0)
(0.268725 -0.0336379 0)
(0.0925637 -0.0305534 0)
(0.264235 -0.0322083 0)
(0.0821415 -0.0290328 0)
(0.259234 -0.0308095 0)
(0.0714848 -0.0277622 0)
(0.253813 -0.0291433 0)
(0.0607534 -0.0263346 0)
(0.248004 -0.0270527 0)
(0.0499768 -0.0244875 0)
(0.24188 -0.0244954 0)
(0.0390818 -0.0221868 0)
(0.235505 -0.021481 0)
(0.0279226 -0.01944 0)
(0.228812 -0.0181638 0)
(0.0163743 -0.0162264 0)
(0.22161 -0.0150424 0)
(0.00448103 -0.0127349 0)
(0.214215 -0.0126508 0)
(-0.00801259 -0.00972969 0)
(0.206805 -0.0106032 0)
(-0.0227432 -0.00721825 0)
(0.198932 -0.00774211 0)
(-0.0382642 -0.00455764 0)
(0.188352 -0.00389963 0)
(-0.0514164 -0.000612758 0)
(0.174324 -0.000578592 0)
(-0.0625878 0.00304431 0)
(-0.0748436 0.00368275 0)
(0.042396 -0.670242 0)
(0.00593322 -0.725514 0)
(0.0578663 -0.551873 0)
(0.0239383 -0.614777 0)
(0.0599955 -0.422791 0)
(-0.00315715 -0.470537 0)
(0.0573985 -0.318406 0)
(-0.015943 -0.353456 0)
(0.0513697 -0.23844 0)
(-0.0376255 -0.262919 0)
(0.0433014 -0.178326 0)
(-0.0585646 -0.194985 0)
(0.0336964 -0.133411 0)
(-0.0796978 -0.144162 0)
(0.0227249 -0.100313 0)
(-0.100943 -0.106323 0)
(0.0106256 -0.0765907 0)
(-0.122565 -0.0789079 0)
(-0.00249929 -0.0600294 0)
(-0.14423 -0.0596073 0)
(-0.0164008 -0.0484111 0)
(-0.165507 -0.0461423 0)
(-0.0309025 -0.0400307 0)
(-0.186327 -0.0365026 0)
(-0.0460451 -0.0340103 0)
(-0.206859 -0.0295513 0)
(-0.0617411 -0.0297976 0)
(-0.227168 -0.0246988 0)
(-0.0778286 -0.026947 0)
(-0.247281 -0.0214572 0)
(-0.0940854 -0.0250767 0)
(-0.267225 -0.0194282 0)
(-0.110273 -0.0237943 0)
(-0.286957 -0.0182166 0)
(-0.126253 -0.0226642 0)
(-0.306393 -0.0173371 0)
(-0.142088 -0.021297 0)
(-0.325547 -0.0162473 0)
(-0.158012 -0.0195094 0)
(-0.344632 -0.0145838 0)
(-0.174202 -0.0172926 0)
(-0.364272 -0.0123557 0)
(-0.190774 -0.0145521 0)
(-0.385013 -0.00961425 0)
(-0.207792 -0.0110685 0)
(-0.40611 -0.00637462 0)
(-0.225722 -0.00693097 0)
(-0.426235 -0.00260022 0)
(-0.2459 -0.00294039 0)
(-0.444441 0.00140613 0)
(-0.267481 0.000276838 0)
(-0.461887 0.0044112 0)
(-0.28764 0.00333013 0)
(-0.478936 0.00604826 0)
(-0.303041 0.00609771 0)
(-0.493727 0.00729855 0)
(-0.312959 0.00670961 0)
(-0.503551 0.00801899 0)
(-0.509484 0.00710905 0)
(-0.00577238 -0.67526 0)
(-0.0226072 -0.719861 0)
(-0.0349782 -0.537477 0)
(-0.0499223 -0.586847 0)
(-0.072111 -0.40193 0)
(-0.1229 -0.435865 0)
(-0.109615 -0.296601 0)
(-0.175299 -0.319265 0)
(-0.14642 -0.216898 0)
(-0.230558 -0.230158 0)
(-0.181684 -0.15769 0)
(-0.281151 -0.164337 0)
(-0.215293 -0.113753 0)
(-0.327459 -0.115642 0)
(-0.247573 -0.0816781 0)
(-0.369713 -0.079577 0)
(-0.278604 -0.0590951 0)
(-0.408962 -0.0538051 0)
(-0.308097 -0.04353 0)
(-0.446139 -0.0363118 0)
(-0.336162 -0.0325535 0)
(-0.481983 -0.0244977 0)
(-0.36297 -0.0246253 0)
(-0.51501 -0.0163169 0)
(-0.388562 -0.0190636 0)
(-0.545104 -0.0107353 0)
(-0.41312 -0.0153985 0)
(-0.572958 -0.00707047 0)
(-0.436873 -0.0131827 0)
(-0.599202 -0.00480829 0)
(-0.460018 -0.0120003 0)
(-0.624387 -0.00358951 0)
(-0.482672 -0.0113679 0)
(-0.648869 -0.00307944 0)
(-0.504953 -0.0106631 0)
(-0.672793 -0.0028016 0)
(-0.527165 -0.0092259 0)
(-0.696168 -0.00209806 0)
(-0.550079 -0.00671668 0)
(-0.718942 -0.00033255 0)
(-0.574506 -0.00345338 0)
(-0.741156 0.00247762 0)
(-0.599875 -0.000104937 0)
(-0.763072 0.00542739 0)
(-0.624181 0.00300153 0)
(-0.784393 0.00769593 0)
(-0.645097 0.0058396 0)
(-0.803951 0.00922245 0)
(-0.661108 0.00805 0)
(-0.82028 0.0102422 0)
(-0.67346 0.00922632 0)
(-0.832846 0.0110671 0)
(-0.684188 0.00967623 0)
(-0.843707 0.0116928 0)
(-0.693695 0.0097616 0)
(-0.85345 0.0121822 0)
(-0.701703 0.00920486 0)
(-0.861477 0.0120355 0)
(-0.865981 0.0109423 0)
(-0.0563084 -0.630421 0)
(-0.0584111 -0.66471 0)
(-0.137039 -0.480862 0)
(-0.135206 -0.509644 0)
(-0.217495 -0.347232 0)
(-0.257294 -0.360742 0)
(-0.293936 -0.246557 0)
(-0.354577 -0.249576 0)
(-0.364025 -0.172266 0)
(-0.446586 -0.167769 0)
(-0.426918 -0.118488 0)
(-0.529224 -0.109675 0)
(-0.482535 -0.0791115 0)
(-0.602358 -0.0684467 0)
(-0.532237 -0.0499359 0)
(-0.666204 -0.038397 0)
(-0.577845 -0.0289099 0)
(-0.719406 -0.0169092 0)
(-0.620956 -0.0146989 0)
(-0.764916 -0.00226008 0)
(-0.661148 -0.00583797 0)
(-0.804903 0.00649927 0)
(-0.697331 -0.000622728 0)
(-0.840355 0.0109285 0)
(-0.729648 0.00249103 0)
(-0.871993 0.013025 0)
(-0.759081 0.00436836 0)
(-0.900702 0.0140575 0)
(-0.786631 0.00541766 0)
(-0.927289 0.0145015 0)
(-0.813033 0.00587345 0)
(-0.9524 0.0144786 0)
(-0.838666 0.0060017 0)
(-0.976412 0.0140478 0)
(-0.863555 0.00622286 0)
(-0.99944 0.013436 0)
(-0.887384 0.00702982 0)
(-1.02144 0.0130807 0)
(-0.909475 0.00863902 0)
(-1.04229 0.0134068 0)
(-0.929294 0.0106714 0)
(-1.0617 0.0145125 0)
(-0.947212 0.0124201 0)
(-1.07963 0.0160516 0)
(-0.963843 0.0134738 0)
(-1.09657 0.0173233 0)
(-0.979027 0.0139279 0)
(-1.11236 0.0178054 0)
(-0.992267 0.0141218 0)
(-1.1263 0.0175491 0)
(-1.0033 0.0142983 0)