/*--------------------------------*- C++ -*----------------------------------*\
| =========                 |                                                 |
| \\      /  F ield         | OpenFOAM: The Open Source CFD Toolbox           |
|  \\    /   O peration     | Version:  5.x                                   |
|   \\  /    A nd           | Web:      www.OpenFOAM.org                      |
|    \\/     M anipulation  |                                                 |
\*---------------------------------------------------------------------------*/
FoamFile
{
    version     2.0;
    format      ascii;
    class       surfaceScalarField;
    location    "2.1";
    object      meshPhi;
}
// * * * * * * * * * * * * * * * * * * * * * * * * * * * * * * * * * * * * * //

dimensions      [0 3 -1 0 0 0 0];

internalField   nonuniform List<scalar> 
5457
(
-8.26936e-05
4.318e-06
-0.000154707
1.21063e-05
-0.000214385
1.85178e-05
-0.000263637
2.38635e-05
-0.000303915
2.84312e-05
-0.000337126
3.22831e-05
-0.000365639
3.55424e-05
-0.000390443
3.84869e-05
-0.00041156
4.10721e-05
-0.000429657
4.30817e-05
-0.000445757
4.46891e-05
-0.000460317
4.62718e-05
-0.000473236
4.79553e-05
-0.000484325
4.96351e-05
-0.000493424
5.12634e-05
-0.000500357
5.28616e-05
-0.000504806
5.43907e-05
-0.000506363
5.57945e-05
-0.000504714
5.70535e-05
-0.000499762
5.8119e-05
-0.000491561
5.8921e-05
-0.000480148
5.93922e-05
-0.000465364
5.93841e-05
-0.000446739
5.86035e-05
-0.000423573
5.6565e-05
-0.000395206
5.25416e-05
-0.00035961
4.53373e-05
-0.000315661
3.29036e-05
-0.000282931
1.41723e-05
-3.10288e-05
-8.27119e-05
8.65245e-06
-0.000154774
2.42589e-05
-0.000214573
3.71089e-05
-0.00026397
4.78364e-05
-0.000304193
5.70093e-05
-0.000337162
6.46845e-05
-0.000365687
7.1147e-05
-0.000390715
7.71006e-05
-0.000411838
8.23965e-05
-0.000429756
8.64216e-05
-0.000445803
8.95493e-05
-0.000460503
9.26395e-05
-0.000473624
9.59397e-05
-0.000484943
9.92693e-05
-0.000494342
0.000102551
-0.000501737
0.00010581
-0.000506877
0.000109018
-0.000509277
0.000112071
-0.000508527
0.000114826
-0.000504609
0.000117158
-0.000497755
0.000119013
-0.000488326
0.000120351
-0.000476609
0.000121011
-0.000462649
0.000120595
-0.000446577
0.000118459
-0.0004312
0.000113887
-0.000421123
0.000106219
-0.000419269
9.43676e-05
-0.000454549
8.01363e-05
5.07732e-05
-8.2796e-05
1.29716e-05
-0.000155031
3.63647e-05
-0.000215141
5.56211e-05
-0.000264907
7.17278e-05
-0.000305031
8.56321e-05
-0.000337455
9.72387e-05
-0.000366062
0.000106855
-0.000391687
0.000115957
-0.000412841
0.000124272
-0.000430307
0.000130324
-0.000446218
0.000134765
-0.000461211
0.000139261
-0.000474711
0.000144161
-0.000486463
0.000149162
-0.000496414
0.000154173
-0.000504613
0.000159194
-0.000511112
0.0001643
-0.000515363
0.000169396
-0.000516484
0.00017406
-0.000514589
0.000178022
-0.000510246
0.000181359
-0.000504512
0.000184236
-0.000498644
0.000186747
-0.00049346
0.000188682
-0.000489874
0.000189562
-0.000492966
0.000189003
-0.000518242
0.000188357
-0.000583516
0.000191823
-0.000721317
0.00020893
0.000221282
-8.29505e-05
1.72468e-05
-0.000155465
4.83386e-05
-0.00021609
7.39084e-05
-0.000266608
9.53348e-05
-0.00030665
0.000114158
-0.000337939
0.000129815
-0.000366684
0.00014233
-0.000393603
0.000154755
-0.000414828
0.000166684
-0.000431309
0.00017473
-0.00044694
0.00018002
-0.000462512
0.000185874
-0.000476612
0.000192647
-0.000488995
0.000199515
-0.000499779
0.000206395
-0.000508994
0.000213294
-0.000517274
0.000220368
-0.000524451
0.000227755
-0.000528385
0.000234785
-0.000529302
0.000240892
-0.000528822
0.0002465
-0.00052858
0.000252169
-0.00053102
0.000258263
-0.000537624
0.000264914
-0.00055172
0.000272401
-0.000578346
0.000281406
-0.000636924
0.00029495
-0.000767028
0.000323871
-0.00100287
0.000385984
0.000436041
-8.31207e-05
2.14685e-05
-0.00015597
6.01508e-05
-0.00021729
9.19035e-05
-0.00026921
0.000118507
-0.00030928
0.000142567
-0.000338213
0.000162425
-0.00036711
0.000177122
-0.0003967
0.000193074
-0.000418042
0.00020983
-0.000432418
0.000219765
-0.000447506
0.0002249
-0.000464273
0.00023203
-0.00047923
0.000241115
-0.00049232
0.000250027
-0.000504266
0.000258915
-0.00051499
0.000268007
-0.000525539
0.000277476
-0.000537089
0.000287827
-0.000544687
0.000297983
-0.000548365
0.000306648
-0.000553088
0.000315149
-0.000560585
0.000324945
-0.000574264
0.00033668
-0.000596375
0.000351132
-0.000632569
0.000369355
-0.000691706
0.000394038
-0.000788204
0.000430123
-0.00096814
0.000491825
-0.00126468
0.000597548
0.000669094
-8.32693e-05
2.56593e-05
-0.00015643
7.18613e-05
-0.000218485
0.00010967
-0.000272949
0.000141144
-0.000312286
0.000168432
-0.000336408
0.000190446
-0.000366591
0.000208279
-0.00039949
0.000227184
-0.000418482
0.000245128
-0.000430623
0.000256986
-0.000447386
0.000266259
-0.000466701
0.000277772
-0.000482714
0.000289975
-0.000496268
0.000300974
-0.000509435
0.000311827
-0.000522277
0.000323353
-0.000535934
0.000335779
-0.00055537
0.000350549
-0.000567696
0.000365261
-0.000572039
0.000376442
-0.000582844
0.000387999
-0.000600052
0.000403238
-0.000627455
0.000422334
-0.000670652
0.00044739
-0.000735174
0.000480999
-0.000832821
0.000527161
-0.00097694
0.000592954
-0.00119657
0.000690897
-0.00150098
0.000827606
0.000899419
-8.33787e-05
2.98451e-05
-0.000156675
8.35396e-05
-0.000218948
0.000127278
-0.000274678
0.000162975
-0.000311817
0.00019095
-0.000332806
0.000213662
-0.000365369
0.000236484
-0.000397486
0.000257002
-0.000411399
0.000271749
-0.000425125
0.000286513
-0.000447739
0.00030517
-0.000470733
0.00032416
-0.000487794
0.000340072
-0.00050111
0.000352943
-0.000515133
0.00036547
-0.000529525
0.000379169
-0.000544714
0.000393761
-0.000569866
0.000410785
-0.000589544
0.000429385
-0.000599218
0.000446608
-0.000618088
0.000464827
-0.000646975
0.000487422
-0.000689873
0.000515807
-0.000756064
0.000553119
-0.000853272
0.000604063
-0.000990067
0.000673958
-0.0011809
0.000771002
-0.00142945
0.000900731
-0.00170142
0.00105056
0.00109828
-8.34625e-05
3.39954e-05
-0.000156644
9.51105e-05
-0.000218228
0.000144686
-0.000271468
0.00018449
-0.000307252
0.000215196
-0.000331822
0.000241117
-0.000365261
0.000267746
-0.000392866
0.000290674
-0.000404945
0.000306988
-0.000422838
0.000324632
-0.000450352
0.000347635
-0.000477359
0.000371756
-0.000495068
0.000391522
-0.000506587
0.000405501
-0.000521412
0.000419278
-0.00053663
0.000435473
-0.000550819
0.000452192
-0.000569922
0.000468883
-0.000598089
0.000489225
-0.000627131
0.000515952
-0.00065831
0.000545349
-0.000700854
0.000577372
-0.000761164
0.000616669
-0.000848894
0.000667608
-0.000973464
0.00073554
-0.00114315
0.000826801
-0.00136638
0.000948252
-0.00162572
0.00109575
-0.00185606
0.00124117
0.00123723
-8.35663e-05
3.80829e-05
-0.000156525
0.000106522
-0.000217019
0.000161923
-0.000267068
0.000206269
-0.000303838
0.000241807
-0.000333895
0.000272357
-0.00036711
0.000301594
-0.000393735
0.000328871
-0.000407544
0.00035088
-0.000425889
0.000369727
-0.00045377
0.000391754
-0.000481825
0.000416302
-0.000499666
0.000437697
-0.000511763
0.000455115
-0.000528782
0.000473148
-0.000546078
0.00049326
-0.000561465
0.000513817
-0.000574468
0.000534019
-0.000608383
0.000558545
-0.000657153
0.000592091
-0.000703512
0.000630719
-0.000760904
0.000673199
-0.000837766
0.000723988
-0.000944321
0.000788406
-0.00108842
0.000872185
-0.00127929
0.000981192
-0.00151456
0.00111648
-0.00176367
0.00126453
-0.00197663
0.00139654
0.00132375
-8.37621e-05
4.21091e-05
-0.000156611
0.000117794
-0.000216148
0.000179034
-0.000264401
0.00022804
-0.000302598
0.000267953
-0.000335881
0.00030248
-0.000370218
0.000334623
-0.000397471
0.000364248
-0.000410958
0.000388733
-0.000428654
0.000410301
-0.000455734
0.00043414
-0.000478069
0.000457101
-0.000496886
0.000478389
-0.000517447
0.000502756
-0.000538461
0.000528216
-0.000559331
0.000552837
-0.000579752
0.000578108
-0.000599621
0.000604939
-0.00063802
0.000636351
-0.00069327
0.000675017
-0.000752569
0.000720443
-0.000824493
0.000773206
-0.000914909
0.000835965
-0.00103323
0.000912642
-0.00118961
0.00100942
-0.0013884
0.00113106
-0.00161588
0.00127149
-0.00184722
0.00141462
-0.00210355
0.00155069
0.00144444
-8.41363e-05
4.61037e-05
-0.000157155
0.000129024
-0.000215931
0.00019617
-0.000262749
0.000249849
-0.000301604
0.000293798
-0.000336823
0.000331895
-0.000372008
0.000366451
-0.000395946
0.000395564
-0.000409158
0.00042075
-0.000431118
0.000448393
-0.000457948
0.000477281
-0.000475037
0.000501937
-0.000496406
0.000525898
-0.000525772
0.000554749
-0.000550856
0.000584828
-0.000575639
0.000613755
-0.000602172
0.000643996
-0.000632611
0.000676915
-0.000675918
0.000714578
-0.000733126
0.000759222
-0.000801106
0.000811848
-0.000884035
0.000874014
-0.000984272
0.000948122
-0.00110742
0.00103655
-0.00126571
0.00114461
-0.00145675
0.00127462
-0.00166537
0.0014199
-0.0019039
0.00157644
-0.00228519
0.00176351
0.00172567
-8.47969e-05
5.00937e-05
-0.000158453
0.000140309
-0.00021666
0.000213506
-0.000261795
0.000271847
-0.000300732
0.000319548
-0.000337207
0.000361075
-0.000371243
0.000398218
-0.000392586
0.000429295
-0.000410003
0.000457878
-0.000437041
0.000489928
-0.000463357
0.00052205
-0.000482528
0.000550699
-0.000506542
0.000579083
-0.000537377
0.000610096
-0.000565702
0.000642711
-0.000594422
0.00067592
-0.000626205
0.000710979
-0.000663533
0.000749397
-0.000711335
0.000793024
-0.000771727
0.000843844
-0.000844586
0.000903348
-0.000932494
0.000973675
-0.00103676
0.00105731
-0.00116071
0.00115696
-0.00131008
0.00127594
-0.00148079
0.00141539
-0.00167929
0.00157933
-0.00197686
0.00178718
-0.00253085
0.0020724
0.00220365
-8.58063e-05
5.40253e-05
-0.000160837
0.000151533
-0.000218694
0.000230947
-0.000261265
0.000293847
-0.000299791
0.00034488
-0.000337726
0.000389829
-0.000371107
0.000430414
-0.000394765
0.000465982
-0.000417372
0.000499234
-0.000445461
0.000533406
-0.000471671
0.000567171
-0.000495124
0.000599231
-0.000521465
0.00063152
-0.000551772
0.000665639
-0.000582633
0.000701388
-0.00061484
0.000738586
-0.000650553
0.000778173
-0.000692652
0.000821788
-0.000744272
0.000871236
-0.000806991
0.000928129
-0.000881582
0.000994285
-0.000969284
0.001072
-0.00107145
0.00116385
-0.00118963
0.00127309
-0.00132163
0.00140209
-0.00147337
0.00155776
-0.0016894
0.00176205
-0.00208877
0.00205423
-0.00278059
0.00244657
0.00279327
-8.70798e-05
5.7821e-05
-0.000164631
0.000162536
-0.000222478
0.00024844
-0.000260619
0.000315713
-0.00029818
0.000369354
-0.000338636
0.000417673
-0.000373097
0.000462228
-0.000400532
0.000501949
-0.000426541
0.00053918
-0.000454603
0.000576136
-0.000481813
0.000612522
-0.000508219
0.000647946
-0.00053676
0.000683726
-0.000568048
0.00072101
-0.000600872
0.000760016
-0.000635877
0.000801091
-0.00067481
0.000845206
-0.000720317
0.000893868
-0.000774486
0.000948719
-0.000838155
0.00101131
-0.000912231
0.00108373
-0.000996467
0.00116806
-0.00109118
0.00126706
-0.00119554
0.00138384
-0.00130986
0.00152374
-0.00146004
0.00170443
-0.0017213
0.00196159
-0.00221179
0.00233506
-0.00292795
0.00279432
0.00342073
-8.83435e-05
6.14416e-05
-0.000170316
0.000173284
-0.000227483
0.000264566
-0.000257603
0.000334482
-0.000294969
0.000391362
-0.000340084
0.000444735
-0.000376413
0.000493944
-0.00040682
0.000537775
-0.000435589
0.000578758
-0.000464803
0.0006187
-0.000493674
0.000657964
-0.000522564
0.000696701
-0.000553061
0.000735852
-0.000585806
0.000776395
-0.000620373
0.000818791
-0.000657686
0.000863624
-0.000699403
0.000912035
-0.000747295
0.000965473
-0.000802601
0.00102529
-0.000865756
0.00109305
-0.000937245
0.00117079
-0.00101616
0.00126096
-0.00110042
0.00136606
-0.00119024
0.00148971
-0.00129929
0.00164364
-0.00147081
0.00185271
-0.00178064
0.00214995
-0.00227789
0.00254103
-0.00279724
0.00292418
0.00427559
-0.000617588
0.000345583
-0.00112226
0.00036836
-0.00172826
0.000419817
-0.00217629
0.000333434
-0.0024194
0.000235057
-0.00258222
0.000280855
-0.00270899
0.000410031
-0.00276792
0.000460513
-0.00276915
0.000439395
-0.00274015
0.000409355
-0.0026975
0.000377661
-0.00264948
0.000348139
-0.00259925
0.000321437
-0.00254603
0.000296153
-0.00248562
0.000270789
-0.00241505
0.000248385
-0.002333
0.000228811
-0.00223854
0.000210803
-0.00213097
0.000193947
-0.00200982
0.000177943
-0.00187474
0.000162549
-0.0017255
0.000147541
-0.00156194
0.000132703
-0.00138394
0.000117815
-0.00119139
0.000102644
-0.000984116
8.69277e-05
-0.000761833
7.03603e-05
-0.000524174
5.25781e-05
-0.000269757
3.30949e-05
1.15263e-05
-0.000779592
0.000595765
-0.00126306
0.000689408
-0.00180698
0.000828548
-0.00222734
0.000795599
-0.00249233
0.000710171
-0.00267877
0.000761073
-0.00279254
0.000889011
-0.00282697
0.000911088
-0.00281601
0.000858154
-0.00277767
0.000801411
-0.00272901
0.000739299
-0.00267772
0.000681753
-0.00262482
0.0006286
-0.0025672
0.000577718
-0.00250259
0.000530387
-0.00242884
0.000488422
-0.00234417
0.000450644
-0.0022475
0.000415657
-0.00213809
0.000382776
-0.00201539
0.000351469
-0.00187901
0.000321279
-0.00172869
0.000291783
-0.00156424
0.000262563
-0.00138551
0.000233195
-0.00119238
0.000203223
-0.000984661
0.000172137
-0.000762067
0.000139341
-0.00052423
0.000104121
-0.000269775
6.55268e-05
2.28161e-05
-0.00102272
0.000790852
-0.00146987
0.000950914
-0.00194013
0.00116012
-0.00233657
0.00123335
-0.00262283
0.0012266
-0.00281641
0.00126289
-0.00289793
0.00132751
-0.00290191
0.00131494
-0.00287643
0.00124715
-0.00282595
0.00116916
-0.00277018
0.00107948
-0.00271414
0.000992385
-0.00265603
0.000913312
-0.00259317
0.000840658
-0.00252398
0.000775234
-0.00244629
0.000716297
-0.00235829
0.000662196
-0.00225879
0.000611718
-0.00214698
0.000564031
-0.00202225
0.000518443
-0.00188419
0.000474331
-0.00173246
0.000431102
-0.00156684
0.000388163
-0.00138716
0.000344903
-0.00119327
0.000300668
-0.000984974
0.000254721
-0.000762001
0.000206195
-0.000523981
0.000154056
-0.000269555
9.69218e-05
3.37347e-05
-0.00127084
0.000967411
-0.00166579
0.00117149
-0.00208769
0.00142323
-0.00248692
0.00158907
-0.00278478
0.00166019
-0.00294648
0.00167062
-0.0029883
0.00166581
-0.00297727
0.00165146
-0.00293763
0.00159594
-0.00287423
0.00149753
-0.00280982
0.00138311
-0.00274747
0.00127255
-0.00268395
0.00117347
-0.00261684
0.00108463
-0.00254379
0.00100416
-0.00246253
0.000930447
-0.00237138
0.000862021
-0.00226917
0.000797705
-0.00215505
0.000736587
-0.00202837
0.000677877
-0.00188867
0.000620833
-0.00173558
0.000564725
-0.00156882
0.000508813
-0.00138821
0.000452324
-0.00119357
0.000394429
-0.000984742
0.000334194
-0.000761457
0.000270512
-0.000523362
0.000202059
-0.000269122
0.000127064
4.42037e-05
-0.00149059
0.00113352
-0.00183502
0.00137454
-0.00225543
0.00167164
-0.00267637
0.00191894
-0.00296534
0.00204474
-0.00307336
0.00204281
-0.00307826
0.00198814
-0.00305739
0.00195203
-0.00299753
0.00189449
-0.00291698
0.00177695
-0.00284449
0.00164183
-0.00277668
0.00151903
-0.00270918
0.00140845
-0.00263848
0.00130797
-0.00256188
0.00121545
-0.00247731
0.0011295
-0.00238322
0.00104888
-0.00227844
0.000972501
-0.00216211
0.000899449
-0.00203356
0.000828887
-0.0018923
0.00076
-0.0017379
0.000691956
-0.00157006
0.000623895
-0.00138854
0.000554907
-0.00119319
0.000484017
-0.000983869
0.000410128
-0.000760349
0.000331931
-0.000522309
0.00024785
-0.000268441
0.000155769
5.41574e-05
-0.00167837
0.00128374
-0.00200729
0.00158285
-0.00247255
0.00193854
-0.00290652
0.00224146
-0.00315478
0.00238167
-0.00320733
0.00236715
-0.00316924
0.00227737
-0.00311857
0.00219007
-0.00303824
0.00210774
-0.00294729
0.00199315
-0.00287202
0.00185943
-0.00280173
0.0017335
-0.00273141
0.00161759
-0.00265756
0.00150951
-0.00257779
0.0014081
-0.00249023
0.00131253
-0.00239343
0.00122189
-0.00228626
0.00113528
-0.00216787
0.00105185
-0.00203758
0.000970774
-0.00189487
0.000891198
-0.00173928
0.000812228
-0.00157043
0.000732901
-0.00138806
0.000652196
-0.00119202
0.000569023
-0.000982251
0.00048216
-0.000758595
0.000390145
-0.000520766
0.00029119
-0.000267485
0.000182886
6.35426e-05
-0.00185089
0.00141844
-0.00222431
0.001823
-0.00274804
0.00223933
-0.00315481
0.0025504
-0.00332871
0.00266034
-0.0033197
0.00261438
-0.00323323
0.00249455
-0.0031376
0.00236038
-0.00304624
0.00224573
-0.00296584
0.00214716
-0.00289348
0.00203748
-0.00282265
0.00191769
-0.00275023
0.00180117
-0.00267373
0.00168908
-0.00259117
0.00158176
-0.00250093
0.00147906
-0.00240167
0.00138052
-0.00229233
0.0012855
-0.00217206
0.00119326
-0.0020402
0.00110302
-0.0018962
0.00101395
-0.00173956
0.000925102
-0.00156982
0.000835438
-0.00138666
0.000743837
-0.00118997
0.00064912
-0.000979792
0.000549993
-0.00075611
0.000444897
-0.000518678
0.000331883
-0.00026623
0.000208289
7.23162e-05
-0.00204189
0.00156657
-0.00251455
0.00211979
-0.00305905
0.00256255
-0.00338051
0.00281898
-0.00345801
0.00286625
-0.00338763
0.00278861
-0.00326501
0.00265902
-0.00313991
0.00251505
-0.00304633
0.00238686
-0.0029799
0.00228701
-0.00291076
0.00218756
-0.00283963
0.00207531
-0.00276549
0.0019607
-0.00268671
0.00184732
-0.00260172
0.00173659
-0.0025091
0.00162902
-0.00240766
0.00152457
-0.00229638
0.00142287
-0.00217445
0.00132334
-0.00204121
0.00122528
-0.00189612
0.00112791
-0.00173863
0.00103026
-0.00156817
0.000931228
-0.00138431
0.00082958
-0.00118696
0.000724071
-0.000976391
0.000613394
-0.000752795
0.000495976
-0.000515985
0.000369764
-0.000264653
0.000231877
8.04444e-05
-0.00229206
0.00179384
-0.00286986
0.00247603
-0.00335322
0.00286871
-0.0035425
0.00301536
-0.00352559
0.00299128
-0.00341402
0.00289421
-0.00327983
0.0027733
-0.00315556
0.00264707
-0.00306339
0.0025284
-0.00299505
0.00242261
-0.00292518
0.00231912
-0.00285291
0.00221024
-0.00277708
0.00209816
-0.0026963
0.00198531
-0.00260919
0.00187322
-0.00251451
0.00176273
-0.00241115
0.00165415
-0.00229819
0.00154736
-0.00217481
0.00144197
-0.00204041
0.00133738
-0.00189447
0.00123288
-0.0017364
0.00112752
-0.00156548
0.00102011
-0.00138103
0.000909289
-0.00118297
0.000793734
-0.000971929
0.00067219
-0.000748522
0.000543201
-0.000512608
0.000404689
-0.000262725
0.000253565
8.79006e-05
-0.00262449
0.00215662
-0.00323755
0.00284689
-0.00357233
0.00310041
-0.00361998
0.00311939
-0.00353377
0.00304233
-0.00340823
0.00294293
-0.00328412
0.00284169
-0.00317448
0.00273823
-0.00308471
0.00263377
-0.0030092
0.00253169
-0.00293642
0.00242955
-0.00286234
0.00232406
-0.00278482
0.00221524
-0.0027023
0.00210431
-0.0026134
0.00199252
-0.00251698
0.00188079
-0.00241199
0.00176964
-0.00229758
0.00165919
-0.00217299
0.00154923
-0.00203764
0.00143929
-0.0018911
0.00132876
-0.0017328
0.00121675
-0.00156179
0.001102
-0.00137696
0.000982954
-0.00117802
0.000858095
-0.000966249
0.000726274
-0.000743087
0.000586395
-0.000508435
0.000436506
-0.000260413
0.000273274
9.46633e-05
-0.00301523
0.00260244
-0.00353815
0.00314121
-0.00368036
0.00320833
-0.00362065
0.00313244
-0.00350433
0.00304035
-0.00338526
0.0029567
-0.00327854
0.00287753
-0.00318219
0.00279523
-0.00309612
0.00270693
-0.00301816
0.00261444
-0.0029431
0.00251831
-0.00286733
0.0024179
-0.00278839
0.00231341
-0.00270447
0.00220562
-0.00261418
0.00209552
-0.00251637
0.00198398
-0.00241006
0.00187164
-0.00229447
0.00175879
-0.00216888
0.00164541
-0.00203276
0.00153118
-0.00188583
0.00141559
-0.00172769
0.00129793
-0.00155718
0.00117688
-0.00137239
0.00105066
-0.0011723
0.000917293
-0.000959126
0.000775609
-0.000736128
0.000625338
-0.000503293
0.000465018
-0.000257695
0.000290927
0.000100722
-0.00338646
0.00296373
-0.00370501
0.00327057
-0.0036794
0.00318434
-0.00357591
0.00308119
-0.00346716
0.00301166
-0.00335943
0.00295364
-0.00326482
0.00289287
-0.00317796
0.00282708
-0.00309669
0.00275382
-0.00301964
0.00267323
-0.00294405
0.00258602
-0.00286746
0.00249255
-0.00278768
0.00239353
-0.0027029
0.00228993
-0.00261169
0.00218267
-0.0025129
0.00207255
-0.00240563
0.00196025
-0.00228911
0.00184618
-0.00216272
0.00173046
-0.00202596
0.00161292
-0.00187876
0.00149323
-0.00172098
0.00137082
-0.00155157
0.00124455
-0.00136775
0.00111254
-0.00116634
0.000971733
-0.000950344
0.000820368
-0.00072701
0.000659759
-0.000496901
0.000489919
-0.000254609
0.000306452
0.000106096
-0.00363987
0.00308155
-0.00372594
0.00322002
-0.00361069
0.00307764
-0.00351149
0.00299567
-0.0034276
0.00296103
-0.00333138
0.00293311
-0.00324262
0.00289108
-0.0031623
0.00283936
-0.00308625
0.00277994
-0.00301229
0.0027115
-0.00293821
0.00263433
-0.0028621
0.00254896
-0.00278232
0.00245639
-0.00269731
0.00235784
-0.0026057
0.00225431
-0.00250642
0.00214662
-0.00239856
0.00203544
-0.00228144
0.00192123
-0.00215449
0.00180422
-0.00201726
0.00168435
-0.00186975
0.00156139
-0.00171216
0.00143493
-0.00154423
0.00130433
-0.00136279
0.00116789
-0.00116091
0.00102123
-0.000940806
0.000861123
-0.000716018
0.000690415
-0.000489353
0.000511652
-0.000251317
0.000320046
0.000110854
-0.00373042
0.00295312
-0.0036755
0.00308077
-0.00353173
0.00294171
-0.00343139
0.00289676
-0.00336187
0.00288796
-0.00328665
0.00288624
-0.00320778
0.00286852
-0.00313555
0.00283476
-0.00306583
0.00278979
-0.00299638
0.00273346
-0.00292519
0.00266647
-0.00285067
0.00258964
-0.00277167
0.00250413
-0.00268699
0.00241124
-0.00259547
0.00231209
-0.00249612
0.00220756
-0.0023881
0.00209831
-0.00227076
0.00198485
-0.00214358
0.00186744
-0.00200616
0.00174611
-0.00185841
0.00162066
-0.00170079
0.00149074
-0.00153383
0.00135604
-0.00135486
0.00121514
-0.00115468
0.00106372
-0.000932943
0.000897746
-0.00070663
0.000719394
-0.000482231
0.000532213
-0.000248116
0.000332477
0.00011512
-0.00390173
0.00287513
-0.00364698
0.00277403
-0.00346634
0.00276194
-0.00334902
0.00278891
-0.0032789
0.00281342
-0.00322473
0.00283167
-0.00316265
0.00283458
-0.00310093
0.00281911
-0.00303832
0.00278803
-0.00297369
0.00274318
-0.00290571
0.002686
-0.00283325
0.00261767
-0.00275545
0.00253944
-0.00267145
0.00245258
-0.00258032
0.00235825
-0.00248121
0.00225738
-0.00237336
0.00215067
-0.00225616
0.00203861
-0.00212913
0.00192152
-0.0019919
0.00179946
-0.0018443
0.00167225
-0.00168669
0.00153957
-0.00151965
0.00140094
-0.0013415
0.00125516
-0.00114477
0.00109921
-0.000927048
0.00092968
-0.000701511
0.000746581
-0.000476947
0.000551993
-0.000244939
0.000343925
0.000118847
-9.23627e-05
6.4835e-05
-0.000180177
0.000182599
-0.000237264
0.000277063
-0.00026362
0.000350089
-0.000305093
0.000413351
-0.000355935
0.000472801
-0.000395667
0.000526134
-0.000429894
0.000573827
-0.000462163
0.000618373
-0.000494037
0.000661401
-0.000525822
0.000703702
-0.000558058
0.000745821
-0.000591601
0.000788453
-0.000626898
0.000832291
-0.000663964
0.000877929
-0.000704425
0.000926358
-0.000749784
0.000978966
-0.000800585
0.00103687
-0.000857348
0.00110114
-0.000920142
0.00117322
-0.000989615
0.00125537
-0.00106503
0.00135087
-0.0011422
0.00146146
-0.00122914
0.00159308
-0.00135552
0.00176267
-0.00156727
0.00199175
-0.00190902
0.00229009
-0.00235157
0.00261408
-0.00269761
0.00282975
0.00277681
-0.00145626
-9.41564e-05
6.8075e-05
-0.000180663
0.00019095
-0.000238044
0.000289515
-0.000272056
0.000368575
-0.000318398
0.000438346
-0.000369631
0.000501902
-0.00041183
0.000558445
-0.000449215
0.000609724
-0.000484517
0.000657796
-0.000519083
0.000704163
-0.000553581
0.000749702
-0.000588588
0.000795042
-0.000624596
0.000840821
-0.000661791
0.000887727
-0.00070095
0.000936619
-0.000744229
0.000988749
-0.000792308
0.00104537
-0.000844701
0.00110724
-0.00090131
0.00117534
-0.000962225
0.00125099
-0.00102945
0.00133715
-0.00110205
0.00143713
-0.00117794
0.00155289
-0.00127694
0.00169347
-0.00143419
0.00187446
-0.00167671
0.00210336
-0.00200492
0.00236161
-0.00236376
0.00258744
-0.00267602
0.00270615
0.00266074
-0.00286559
-9.55147e-05
7.1271e-05
-0.000179099
0.000199718
-0.000239945
0.000304061
-0.000285594
0.000389522
-0.000335314
0.000463872
-0.000385524
0.000530577
-0.000429927
0.000590485
-0.000470326
0.000645332
-0.0005087
0.000696945
-0.000546131
0.000746625
-0.000583272
0.000795278
-0.000620587
0.000843591
-0.000658409
0.000892205
-0.000697312
0.000941995
-0.000738956
0.000994137
-0.000784849
0.0010498
-0.000834651
0.00110983
-0.000887919
0.00117507
-0.000944048
0.0012464
-0.0010042
0.00132543
-0.00107181
0.00141566
-0.00114537
0.00151937
-0.00123045
0.00163981
-0.00135425
0.00178686
-0.00154123
0.00196818
-0.00179217
0.00217544
-0.00208321
0.00237804
-0.00236795
0.00252862
-0.00262555
0.0025953
0.00255374
-0.00280238
-9.71211e-05
7.44104e-05
-0.000180023
0.000208544
-0.000245471
0.000318443
-0.000299386
0.00040959
-0.000352005
0.000488501
-0.000403108
0.000558763
-0.000449883
0.000622117
-0.000493292
0.000680418
-0.000534734
0.000735395
-0.000575046
0.000788279
-0.0006148
0.000839995
-0.000654193
0.000891209
-0.000693378
0.000942472
-0.000733866
0.000994826
-0.00077793
0.00104979
-0.000825732
0.00110837
-0.000876559
0.00117117
-0.000930715
0.00123925
-0.000987619
0.0013135
-0.00105002
0.00139594
-0.00112194
0.00148993
-0.0012033
0.00159699
-0.00130706
0.00172071
-0.00145693
0.00186777
-0.00165941
0.00203646
-0.00190061
0.00221055
-0.00215653
0.00236394
-0.00239784
0.00246977
-0.00261965
0.00251051
0.00247291
-0.00279879
-9.90568e-05
7.74752e-05
-0.000183128
0.000217377
-0.000252896
0.00033273
-0.000313057
0.000429025
-0.000369067
0.000512255
-0.000422114
0.000586085
-0.00047145
0.000652814
-0.000517898
0.000714471
-0.000562495
0.000772731
-0.000605856
0.000828802
-0.000648362
0.000883558
-0.000689796
0.000937559
-0.000729813
0.000991134
-0.000771189
0.00104543
-0.000817078
0.00110258
-0.000866405
0.00116353
-0.000918702
0.0012288
-0.000975117
0.00129958
-0.0010355
0.00137671
-0.0011038
0.00146235
-0.00118478
0.0015594
-0.00128121
0.0016689
-0.00140629
0.00179241
-0.00157262
0.00193126
-0.00177494
0.00207832
-0.00199863
0.00221825
-0.00222699
0.00233379
-0.00244251
0.00240997
-0.00263811
0.00243671
0.00240533
-0.00279708
-0.000101387
8.04403e-05
-0.000188622
0.000226064
-0.000262532
0.000346694
-0.000327278
0.000447622
-0.000386628
0.000534827
-0.000442241
0.000612155
-0.000494401
0.000682211
-0.000543987
0.000747138
-0.000591905
0.000808582
-0.000638599
0.000867748
-0.000684232
0.000925504
-0.000727864
0.000982278
-0.000767339
0.00103762
-0.000808203
0.00109284
-0.000856049
0.0011516
-0.000907798
0.00121496
-0.000963514
0.00128293
-0.00102484
0.00135653
-0.0010921
0.00143651
-0.00117023
0.00152483
-0.00126463
0.00162366
-0.00137832
0.00173267
-0.00151856
0.00185042
-0.00168866
0.0019745
-0.00188112
0.00209737
-0.00208521
0.00220792
-0.00229011
0.00229557
-0.002485
0.00235159
-0.00266202
0.00237006
0.00234381
-0.00280324
-0.000104446
8.32572e-05
-0.000195946
0.00023432
-0.000273887
0.000359908
-0.000342241
0.000465113
-0.000404753
0.000556021
-0.000463315
0.000636717
-0.000518535
0.000709973
-0.000571328
0.000777961
-0.000622755
0.000842393
-0.000673138
0.000904552
-0.000722591
0.000965313
-0.000769339
0.00102515
-0.000805566
0.00108167
-0.000843891
0.0011363
-0.000895821
0.00119633
-0.000952416
0.00126274
-0.00101446
0.00133375
-0.0010836
0.00141011
-0.00116075
0.00149244
-0.00125137
0.00158209
-0.0013595
0.00167992
-0.00148559
0.00178401
-0.00163152
0.00189129
-0.00179695
0.00199837
-0.001976
0.00209921
-0.00216137
0.00218629
-0.00234609
0.00225319
-0.00252305
0.00229484
-0.00268405
0.00230759
0.0022846
-0.00281115
-0.000108431
8.59242e-05
-0.000204467
0.000242056
-0.00028634
0.000372189
-0.000357866
0.000481264
-0.000423381
0.00057551
-0.000485169
0.000659367
-0.000543581
0.00073563
-0.00059951
0.000806407
-0.000654694
0.000873622
-0.000709045
0.000938564
-0.000763175
0.00100215
-0.000809512
0.00106297
-0.000837209
0.00111728
-0.000876422
0.00117172
-0.000938474
0.0012361
-0.00100324
0.00130705
-0.00107392
0.00138092
-0.00115265
0.00145923
-0.00124098
0.00154251
-0.00134319
0.00163109
-0.00146072
0.00172447
-0.00159221
0.0018202
-0.00173755
0.00191527
-0.00189525
0.00200633
-0.0020606
0.00208858
-0.00222929
0.00215721
-0.00239713
0.00220847
-0.00255788
0.00223931
-0.00270422
0.00224759
0.00222638
-0.00281984
-0.000113239
8.83734e-05
-0.000214104
0.000249118
-0.000299803
0.00038333
-0.000373954
0.000495783
-0.000442258
0.000592947
-0.000507634
0.000679732
-0.000569331
0.000758806
-0.00062799
0.000831966
-0.000687332
0.000901631
-0.000745588
0.000969108
-0.000798799
0.00103284
-0.000835417
0.00109004
-0.000860364
0.00114347
-0.000912544
0.00120364
-0.000987553
0.00127385
-0.00106208
0.00134778
-0.00114199
0.00142328
-0.00123027
0.00150193
-0.00132852
0.00158402
-0.00143861
0.001669
-0.0015604
0.0017556
-0.00169259
0.00184166
-0.00183464
0.00192466
-0.00198429
0.00200158
-0.00213717
0.00206879
-0.00229102
0.00212301
-0.00244397
0.00216199
-0.0025903
0.00218424
-0.00272352
0.0021887
0.00216831
-0.00282914
-0.000118704
9.05112e-05
-0.000225028
0.000255396
-0.000314551
0.000393244
-0.000390246
0.00050845
-0.000460846
0.000607979
-0.000530629
0.000697435
-0.000595796
0.000779131
-0.000655851
0.000854063
-0.000720914
0.000925935
-0.000779912
0.00099477
-0.000818944
0.00105483
-0.000850332
0.00110975
-0.000894315
0.00116989
-0.000963894
0.00123779
-0.00104561
0.00130979
-0.00112832
0.00138348
-0.0012166
0.00145882
-0.00131296
0.00153612
-0.00141819
0.00161508
-0.00153237
0.00169472
-0.00165503
0.00177363
-0.0017854
0.00184996
-0.00192269
0.00192165
-0.00206468
0.00198632
-0.00220734
0.00204147
-0.00234852
0.00208459
-0.00248753
0.00211387
-0.0026206
0.00212906
-0.00274225
0.00213005
0.00210981
-0.00283906
-0.000124687
9.22837e-05
-0.000237517
0.000260811
-0.000330903
0.00040185
-0.000405936
0.000518906
-0.000477987
0.00061993
-0.000554509
0.000712075
-0.000623883
0.000796602
-0.000680936
0.000872033
-0.000747596
0.000942907
-0.000803803
0.0010107
-0.000834632
0.00107133
-0.000880231
0.00113172
-0.000948109
0.00119845
-0.00102608
0.00126822
-0.00111006
0.00133912
-0.0011993
0.00141169
-0.00129485
0.00148573
-0.00139721
0.00156047
-0.00150638
0.00163508
-0.00162199
0.00170853
-0.00174365
0.00177956
-0.00187073
0.00184667
-0.00200229
0.00190814
-0.00213676
0.00196232
-0.00227104
0.00200749
-0.00240206
0.00204166
-0.00252881
0.00206351
-0.00264965
0.00207317
-0.00276073
0.002071
0.0020505
-0.00284955
-0.000130959
9.36172e-05
-0.000251958
0.000265226
-0.000348715
0.000408942
-0.000418527
0.000526431
-0.000491646