/*--------------------------------*- C++ -*----------------------------------*\
  =========                 |
  \\      /  F ield         | OpenFOAM: The Open Source CFD Toolbox
   \\    /   O peration     | Website:  https://openfoam.org
    \\  /    A nd           | Version:  6
     \\/     M anipulation  |
\*---------------------------------------------------------------------------*/
FoamFile
{
    version     2.0;
    format      ascii;
    class       surfaceScalarField;
    location    "0.8";
    object      phi;
}
// * * * * * * * * * * * * * * * * * * * * * * * * * * * * * * * * * * * * * //

dimensions      [1 0 -1 0 0 0 0];

internalField   nonuniform List<scalar> 
23692
(
1.16358e-05
-8.2093e-10
1.16363e-05
-5.65108e-10
1.16354e-05
9.77312e-10
1.16317e-05
3.69855e-09
1.16246e-05
7.07351e-09
1.16143e-05
1.03837e-08
1.16013e-05
1.30019e-08
1.15868e-05
1.46021e-08
1.15716e-05
1.51937e-08
1.15567e-05
1.50176e-08
1.15423e-05
1.4394e-08
1.15288e-05
1.36031e-08
1.15161e-05
1.28303e-08
1.1504e-05
1.21625e-08
1.14925e-05
1.1617e-08
1.14814e-05
1.11715e-08
1.14708e-05
1.07924e-08
1.14605e-05
1.04469e-08
1.14506e-05
1.01109e-08
1.1441e-05
9.76962e-09
1.14318e-05
9.41477e-09
1.14229e-05
9.04355e-09
1.14145e-05
8.65567e-09
1.14065e-05
8.25236e-09
1.1399e-05
7.83519e-09
1.13919e-05
7.40614e-09
1.13852e-05
6.96744e-09
1.1379e-05
6.52088e-09
1.13733e-05
6.06888e-09
1.13681e-05
5.61381e-09
1.13634e-05
5.1584e-09
1.13591e-05
4.70507e-09
1.13553e-05
4.25726e-09
1.13519e-05
3.81795e-09
1.1349e-05
3.39064e-09
1.13465e-05
2.9791e-09
1.13445e-05
2.58675e-09
1.13428e-05
2.21819e-09
1.13415e-05
1.87729e-09
1.13405e-05
1.5685e-09
1.13399e-05
1.29622e-09
1.13394e-05
1.06546e-09
1.13392e-05
8.81393e-10
1.13391e-05
7.4969e-10
1.13391e-05
6.76089e-10
1.13391e-05
6.67153e-10
1.13391e-05
7.30122e-10
1.13389e-05
8.72909e-10
1.13386e-05
1.10413e-09
1.13379e-05
1.43375e-09
1.13367e-05
1.87308e-09
1.13351e-05
2.43484e-09
1.13327e-05
3.13377e-09
1.13295e-05
3.98661e-09
1.13253e-05
5.01334e-09
1.13198e-05
6.23689e-09
1.1313e-05
7.68462e-09
1.13044e-05
9.3892e-09
1.12938e-05
1.13892e-08
1.12809e-05
1.37324e-08
1.12652e-05
1.64757e-08
1.12463e-05
1.96902e-08
1.12237e-05
2.34641e-08
1.11966e-05
2.79084e-08
1.11643e-05
3.31646e-08
1.11257e-05
3.9415e-08
1.10796e-05
4.68982e-08
1.10245e-05
5.59314e-08
1.09584e-05
6.69424e-08
1.08787e-05
8.052e-08
1.0782e-05
9.7488e-08
1.06638e-05
1.19024e-07
1.05177e-05
1.46845e-07
1.0335e-05
1.83505e-07
1.01029e-05
2.32882e-07
9.80273e-06
3.00967e-07
9.40641e-06
3.97103e-07
8.87108e-06
5.36098e-07
8.12872e-06
7.43134e-07
7.06375e-06
1.06572e-06
1.63006e-06
5.43445e-06
1.24508e-05
-1.71026e-09
1.24515e-05
-1.20446e-09
1.24505e-05
1.96479e-09
1.24466e-05
7.58003e-09
1.24392e-05
1.45557e-08
1.24282e-05
2.14069e-08
1.24144e-05
2.6836e-08
1.23989e-05
3.01637e-08
1.23827e-05
3.14064e-08
1.23667e-05
3.10586e-08
1.23514e-05
2.97814e-08
1.23369e-05
2.8154e-08
1.23233e-05
2.65598e-08
1.23104e-05
2.51804e-08
1.22981e-05
2.40514e-08
1.22862e-05
2.31301e-08
1.22748e-05
2.23452e-08
1.22638e-05
2.16303e-08
1.22532e-05
2.0936e-08
1.22429e-05
2.02306e-08
1.2233e-05
1.94985e-08
1.22236e-05
1.87333e-08
1.22146e-05
1.79339e-08
1.2206e-05
1.7103e-08
1.21979e-05
1.62438e-08
1.21903e-05
1.53607e-08
1.21831e-05
1.44577e-08
1.21765e-05
1.35394e-08
1.21703e-05
1.26101e-08
1.21647e-05
1.16748e-08
1.21595e-05
1.07387e-08
1.21549e-05
9.80781e-09
1.21507e-05
8.88837e-09
1.2147e-05
7.98706e-09
1.21438e-05
7.11086e-09
1.21411e-05
6.26742e-09
1.21388e-05
5.46462e-09
1.21369e-05
4.71053e-09
1.21354e-05
4.01404e-09
1.21342e-05
3.38396e-09
1.21333e-05
2.82992e-09
1.21327e-05
2.36182e-09
1.21323e-05
1.99051e-09
1.2132e-05
1.7272e-09
1.21318e-05
1.58442e-09
1.21316e-05
1.57519e-09
1.21314e-05
1.71446e-09
1.2131e-05
2.01821e-09
1.21304e-05
2.50469e-09
1.21294e-05
3.19416e-09
1.2128e-05
4.10962e-09
1.2126e-05
5.27727e-09
1.21232e-05
6.7269e-09
1.21195e-05
8.49323e-09
1.21148e-05
1.06165e-08
1.21087e-05
1.31437e-08
1.21011e-05
1.61305e-08
1.20917e-05
1.96425e-08
1.20802e-05
2.37589e-08
1.20663e-05
2.85744e-08
1.20494e-05
3.42049e-08
1.20292e-05
4.07924e-08
1.2005e-05
4.8513e-08
1.19762e-05
5.75873e-08
1.1942e-05
6.82946e-08
1.19013e-05
8.09931e-08
1.18529e-05
9.61474e-08
1.17953e-05
1.14369e-07
1.17267e-05
1.36474e-07
1.16445e-05
1.63569e-07
1.15457e-05
1.97178e-07
1.14261e-05
2.39426e-07
1.12805e-05
2.93333e-07
1.11016e-05
3.63224e-07
1.088e-05
4.55355e-07
1.06031e-05
5.78745e-07
1.02549e-05
7.46104e-07
9.81738e-06
9.74454e-07
9.27637e-06
1.28496e-06
8.64859e-06
1.69432e-06
2.1507e-06
8.12875e-06
1.33229e-05
-2.67346e-09
1.33237e-05
-1.94594e-09
1.33228e-05
2.91743e-09
1.33188e-05
1.15746e-08
1.3311e-05
2.23606e-08
1.32995e-05
3.29824e-08
1.32849e-05
4.14291e-08
1.32685e-05
4.66388e-08
1.32513e-05
4.86237e-08
1.32343e-05
4.81393e-08
1.32179e-05
4.62018e-08
1.32025e-05
4.3707e-08
1.31879e-05
4.125e-08
1.31741e-05
3.91164e-08
1.31609e-05
3.73653e-08
1.31482e-05
3.59326e-08
1.3136e-05
3.47112e-08
1.31242e-05
3.36001e-08
1.31128e-05
3.25222e-08
1.31018e-05
3.14299e-08
1.30913e-05
3.02979e-08
1.30812e-05
2.91161e-08
1.30715e-05
2.78835e-08
1.30623e-05
2.66028e-08
1.30536e-05
2.528e-08
1.30453e-05
2.39212e-08
1.30376e-05
2.25328e-08
1.30304e-05
2.11214e-08
1.30238e-05
1.96941e-08
1.30176e-05
1.82586e-08
1.3012e-05
1.6823e-08
1.30069e-05
1.53964e-08
1.30023e-05
1.39883e-08
1.29982e-05
1.26093e-08
1.29946e-05
1.12703e-08
1.29915e-05
9.98254e-09
1.29888e-05
8.75874e-09
1.29866e-05
7.61127e-09
1.29847e-05
6.55366e-09
1.29831e-05
5.60005e-09
1.29819e-05
4.76457e-09
1.29809e-05
4.0628e-09
1.29801e-05
3.51126e-09
1.29795e-05
3.12754e-09
1.29789e-05
2.93054e-09
1.29783e-05
2.9408e-09
1.29777e-05
3.18073e-09
1.29768e-05
3.67525e-09
1.29757e-05
4.45206e-09
1.29742e-05
5.54218e-09
1.29722e-05
6.98087e-09
1.29696e-05
8.80793e-09
1.29661e-05
1.1069e-08
1.29617e-05
1.38165e-08
1.29561e-05
1.71115e-08
1.29491e-05
2.10251e-08
1.29405e-05
2.56412e-08
1.293e-05
3.10584e-08
1.29173e-05
3.7395e-08
1.2902e-05
4.47925e-08
1.28837e-05
5.34225e-08
1.2862e-05
6.34945e-08
1.28362e-05
7.52666e-08
1.28056e-05
8.90598e-08
1.27696e-05
1.05277e-07
1.27271e-05
1.24428e-07
1.2677e-05
1.47169e-07
1.2618e-05
1.74349e-07
1.25483e-05
2.0708e-07
1.2466e-05
2.46839e-07
1.23685e-05
2.95602e-07
1.22528e-05
3.5604e-07
1.21152e-05
4.31782e-07
1.19516e-05
5.27754e-07
1.17573e-05
6.50577e-07
1.15281e-05
8.08878e-07
1.12619e-05
1.01311e-06
1.09633e-05
1.27394e-06
1.06521e-05
1.59705e-06
1.03807e-05
1.96663e-06
2.29904e-06
1.02332e-05
1.42562e-05
-3.72182e-09
1.4257e-05
-2.81909e-09
1.42562e-05
3.77381e-09
1.42522e-05
1.55869e-08
1.42442e-05
3.03661e-08
1.42323e-05
4.49806e-08
1.42171e-05
5.66659e-08
1.41998e-05
6.39442e-08
1.41817e-05
6.68039e-08
1.41637e-05
6.6257e-08
1.41463e-05
6.36839e-08
1.41297e-05
6.03116e-08
1.41141e-05
5.6961e-08
1.40993e-05
5.40327e-08
1.40852e-05
5.16173e-08
1.40717e-05
4.9634e-08
1.40586e-05
4.79411e-08
1.4046e-05
4.64017e-08
1.40338e-05
4.49126e-08
1.40221e-05
4.34081e-08
1.40108e-05
4.18533e-08
1.39999e-05
4.02336e-08
1.39896e-05
3.85469e-08
1.39797e-05
3.67974e-08
1.39703e-05
3.49923e-08
1.39615e-05
3.31397e-08
1.39531e-05
3.12487e-08
1.39453e-05
2.93281e-08
1.39381e-05
2.73876e-08
1.39314e-05
2.54378e-08
1.39252e-05
2.34897e-08
1.39196e-05
2.15559e-08
1.39145e-05
1.96499e-08
1.39099e-05
1.77853e-08
1.39058e-05
1.59777e-08
1.39021e-05
1.42426e-08
1.38989e-05
1.25967e-08
1.38962e-05
1.10578e-08
1.38938e-05
9.64388e-09
1.38917e-05
8.37399e-09
1.389e-05
7.26812e-09
1.38884e-05
6.34736e-09
1.38871e-05
5.63407e-09
1.38859e-05
5.15239e-09
1.38847e-05
4.92762e-09
1.38835e-05
4.98807e-09
1.38822e-05
5.36425e-09
1.38807e-05
6.08985e-09
1.38788e-05
7.20232e-09
1.38765e-05
8.74365e-09
1.38737e-05
1.07613e-08
1.38701e-05
1.33087e-08
1.38657e-05
1.6447e-08
1.38602e-05
2.02466e-08
1.38535e-05
2.47886e-08
1.38453e-05
3.01676e-08
1.38354e-05
3.64938e-08
1.38236e-05
4.38978e-08
1.38094e-05
5.25336e-08
1.37926e-05
6.25855e-08
1.37728e-05
7.42751e-08
1.37494e-05
8.78707e-08
1.3722e-05
1.037e-07
1.36899e-05
1.22166e-07
1.36524e-05
1.43767e-07
1.36087e-05
1.69128e-07
1.35578e-05
1.99036e-07
1.34987e-05
2.34489e-07
1.343e-05
2.76763e-07
1.33503e-05
3.27502e-07
1.32581e-05
3.88828e-07
1.31517e-05
4.63482e-07
1.30294e-05
5.54987e-07
1.28904e-05
6.67796e-07
1.27346e-05
8.07348e-07
1.25646e-05
9.79828e-07
1.23875e-05
1.19117e-06
1.22179e-05
1.44445e-06
1.20816e-05
1.73426e-06
1.2014e-05
2.03518e-06
2.28307e-06
1.20309e-05
1.52548e-05
-4.86689e-09
1.52558e-05
-3.86003e-09
1.52551e-05
4.45784e-09
1.52513e-05
1.94942e-08
1.52432e-05
3.84131e-08
1.5231e-05
5.72274e-08
1.52154e-05
7.23855e-08
1.51974e-05
8.19556e-08
1.51784e-05
8.58715e-08
1.51593e-05
8.53858e-08
1.51409e-05
8.22426e-08
1.51233e-05
7.80091e-08
1.51066e-05
7.37479e-08
1.50908e-05
6.99887e-08
1.50757e-05
6.68647e-08
1.50612e-05
6.42858e-08
1.50472e-05
6.20796e-08
1.50338e-05
6.00756e-08
1.50207e-05
5.81434e-08
1.50082e-05
5.6199e-08
1.49961e-05
5.41971e-08
1.49845e-05
5.21183e-08
1.49734e-05
4.99588e-08
1.49628e-05
4.77234e-08
1.49528e-05
4.54203e-08
1.49433e-05
4.30602e-08
1.49343e-05
4.06539e-08
1.49258e-05
3.82129e-08
1.49179e-05
3.575e-08
1.49106e-05
3.3278e-08
1.49038e-05
3.0812e-08
1.48976e-05
2.83674e-08
1.48918e-05
2.59615e-08
1.48866e-05
2.36124e-08
1.48819e-05
2.13396e-08
1.48777e-05
1.91631e-08
1.48738e-05
1.71044e-08
1.48704e-05
1.51859e-08
1.48674e-05
1.34309e-08
1.48647e-05
1.18637e-08
1.48622e-05
1.05095e-08
1.486e-05
9.39548e-09
1.48579e-05
8.55006e-09
1.48559e-05
8.00368e-09
1.4854e-05
7.78908e-09
1.48519e-05
7.94149e-09
1.48497e-05
8.49967e-09
1.48472e-05
9.50621e-09
1.48444e-05
1.10083e-08
1.4841e-05
1.30588e-08
1.48371e-05
1.57166e-08
1.48323e-05
1.90489e-08
1.48266e-05
2.31317e-08
1.48199e-05
2.80516e-08
1.48118e-05
3.3909e-08
1.48022e-05
4.08195e-08
1.47908e-05
4.89177e-08
1.47774e-05
5.8361e-08
1.47616e-05
6.9335e-08
1.47432e-05
8.20592e-08
1.47218e-05
9.6795e-08
1.46969e-05
1.13856e-07
1.4668e-05
1.33619e-07
1.46347e-05
1.56543e-07
1.45964e-05
1.83185e-07
1.45524e-05
2.1423e-07
1.45019e-05
2.50521e-07
1.44444e-05
2.93099e-07
1.4379e-05
3.43253e-07
1.4305e-05
4.02581e-07
1.42218e-05
4.73053e-07
1.41293e-05
5.57076e-07
1.40278e-05
6.57531e-07
1.39189e-05
7.77742e-07
1.3806e-05
9.21284e-07
1.36954e-05
1.09144e-06
1.35976e-05
1.29002e-06
1.3528e-05
1.51506e-06
1.35063e-05
1.75698e-06
1.35495e-05
1.9929e-06
2.18149e-06
1.36521e-05
1.63233e-05
-6.12136e-09
1.63246e-05
-5.11049e-09
1.63242e-05
4.88022e-09
1.63205e-05
2.31521e-08
1.63127e-05
4.63094e-08
1.63004e-05
6.9508e-08
1.62845e-05
8.83835e-08
1.6266e-05
1.00508e-07
1.62462e-05
1.05716e-07
1.62262e-05
1.05472e-07
1.62067e-05
1.01872e-07
1.6188e-05
9.68276e-08
1.61702e-05
9.16573e-08
1.61533e-05
8.70375e-08
1.61371e-05
8.31591e-08
1.61216e-05
7.99343e-08
1.61068e-05
7.71662e-08
1.60924e-05
7.46543e-08
1.60785e-05
7.22423e-08
1.60652e-05
6.98279e-08
1.60523e-05
6.73538e-08
1.60399e-05
6.47948e-08
1.60281e-05
6.2145e-08
1.60167e-05
5.94086e-08
1.6006e-05
5.65958e-08
1.59957e-05
5.37181e-08
1.5986e-05
5.07891e-08
1.59769e-05
4.78226e-08
1.59683e-05
4.48336e-08
1.59603e-05
4.1839e-08
1.59528e-05
3.88564e-08
1.59459e-05
3.59054e-08
1.59395e-05
3.30069e-08
1.59336e-05
3.01833e-08
1.59281e-05
2.74581e-08
1.59231e-05
2.48563e-08
1.59186e-05
2.24043e-08
1.59144e-05
2.01291e-08
1.59106e-05
1.80591e-08
1.59071e-05
1.6224e-08
1.59038e-05
1.46551e-08
1.59006e-05
1.33846e-08
1.58977e-05
1.24476e-08
1.58947e-05
1.18809e-08
1.58917e-05
1.17238e-08
1.58886e-05
1.20194e-08
1.58853e-05
1.2814e-08
1.58816e-05
1.4159e-08
1.58775e-05
1.61108e-08
1.58729e-05
1.87323e-08
1.58676e-05
2.20938e-08
1.58614e-05
2.62743e-08
1.58543e-05
3.13633e-08
1.5846e-05
3.74627e-08
1.58363e-05
4.46884e-08
1.5825e-05
5.31743e-08
1.5812e-05
6.30745e-08
1.57969e-05
7.4568e-08
1.57795e-05
8.78634e-08
1.57595e-05
1.03205e-07
1.57366e-05
1.2088e-07
1.57103e-05
1.41228e-07
1.56805e-05
1.64652e-07
1.56465e-05
1.91632e-07
1.56081e-05
2.22738e-07
1.55648e-05
2.58656e-07
1.55163e-05
3.00203e-07
1.54622e-05
3.48357e-07
1.54023e-05
4.04282e-07
1.53367e-05
4.69351e-07
1.52657e-05
5.45161e-07
1.51904e-05
6.33532e-07
1.51126e-05
7.36446e-07
1.50355e-05
8.55913e-07
1.49643e-05
9.93673e-07
1.49062e-05
1.15064e-06
1.48713e-05
1.32595e-06
1.4872e-05
1.51543e-06
1.49205e-05
1.70961e-06
1.50228e-05
1.8916e-06
2.03683e-06
1.51686e-05
1.74667e-05
-7.49834e-09
1.74682e-05
-6.61421e-09
1.74682e-05
4.94498e-09
1.7465e-05
2.6402e-08
1.74575e-05
5.38387e-08
1.74454e-05
8.15753e-08
1.74295e-05
1.04419e-07
1.74106e-05
1.19397e-07
1.73902e-05
1.26193e-07
1.73694e-05
1.26433e-07
1.73488e-05
1.22542e-07
1.73289e-05
1.16776e-07
1.731e-05
1.10721e-07
1.7292e-05
1.0522e-07
1.72748e-05
1.00543e-07
1.72583e-05
9.66169e-08
1.72424e-05
9.32322e-08
1.72271e-05
9.01635e-08
1.72124e-05
8.723e-08
1.71982e-05
8.43114e-08
1.71845e-05
8.13383e-08
1.71714e-05
7.82783e-08
1.71587e-05
7.51222e-08
1.71467e-05
7.18732e-08
1.71351e-05
6.85419e-08
1.71242e-05
6.51415e-08
1.71137e-05
6.16873e-08
1.71039e-05
5.81956e-08
1.70946e-05
5.46845e-08
1.70858e-05
5.11736e-08
1.70776e-05
4.76841e-08
1.70699e-05
4.42394e-08
1.70627e-05
4.08645e-08
1.7056e-05
3.75857e-08
1.70498e-05
3.44312e-08
1.7044e-05
3.14307e-08
1.70385e-05
2.86149e-08
1.70335e-05
2.60164e-08
1.70287e-05
2.36686e-08
1.70242e-05
2.16062e-08
1.70199e-05
1.98661e-08
1.70157e-05
1.84867e-08
1.70116e-05
1.75087e-08
1.70075e-05
1.6975e-08
1.70033e-05
1.6932e-08
1.6999e-05
1.74292e-08
1.69943e-05
1.85209e-08
1.69893e-05
2.02661e-08
1.69838e-05
2.27299e-08
1.69776e-05
2.59842e-08
1.69707e-05
3.01091e-08
1.69629e-05
3.5194e-08
1.69541e-05
4.13394e-08
1.69441e-05
4.86589e-08
1.69327e-05
5.72815e-08
1.69197e-05
6.73535e-08
1.69049e-05
7.90428e-08
1.68881e-05
9.25416e-08
1.68692e-05
1.08071e-07
1.68477e-05
1.25888e-07
1.68235e-05
1.46287e-07
1.67963e-05
1.69613e-07
1.6766e-05
1.96265e-07
1.67321e-05
2.26707e-07
1.66946e-05
2.6148e-07
1.66533e-05
3.01208e-07
1.66081e-05
3.46613e-07
1.65592e-05
3.98521e-07
1.65068e-05
4.57867e-07
1.64517e-05
5.25686e-07
1.6395e-05
6.03097e-07
1.63384e-05
6.91246e-07
1.62849e-05
7.91215e-07
1.62381e-05
9.0385e-07
1.62035e-05
1.02949e-06
1.61878e-05
1.16754e-06
1.6199e-05
1.31586e-06
1.62457e-05
1.46998e-06
1.63342e-05
1.62226e-06
1.64654e-05
1.76149e-06
1.87366e-06
1.66297e-05
1.86902e-05
-9.0105e-09
1.8692e-05
-8.41273e-09
1.86924e-05
4.55873e-09
1.86898e-05
2.90822e-08
1.86829e-05
6.07781e-08
1.86713e-05
9.3168e-08
1.86556e-05
1.20226e-07
1.86366e-05
1.3839e-07
1.86158e-05
1.47121e-07
1.85942e-05
1.48151e-07
1.85726e-05
1.44193e-07
1.85517e-05
1.37836e-07
1.85316e-05
1.30949e-07
1.85124e-05
1.24562e-07
1.84941e-05
1.19043e-07
1.84765e-05
1.1436e-07
1.84597e-05
1.10299e-07
1.84435e-05
1.06619e-07
1.84279e-05
1.03118e-07
1.84128e-05
9.96592e-08
1.83983e-05
9.61589e-08
1.83844e-05
9.25776e-08
1.8371e-05
8.89007e-08
1.83581e-05
8.51303e-08
1.83459e-05
8.12759e-08
1.83341e-05
7.73524e-08
1.83229e-05
7.33763e-08
1.83123e-05
6.93666e-08
1.83022e-05
6.53437e-08
1.82927e-05
6.13309e-08
1.82837e-05
5.73528e-08
1.82752e-05
5.3436e-08
1.82671e-05
4.96098e-08
1.82596e-05
4.59051e-08
1.82524e-05
4.23543e-08
1.82457e-05
3.89915e-08
1.82393e-05
3.58526e-08
1.82332e-05
3.29746e-08
1.82274e-05
3.03961e-08
1.82218e-05
2.81572e-08
1.82163e-05
2.62998e-08
1.82109e-05
2.48677e-08
1.82056e-05
2.39073e-08
1.82001e-05
2.34676e-08
1.81945e-05
2.36009e-08
1.81887e-05
2.43632e-08
1.81825e-05
2.58152e-08
1.81759e-05
2.8023e-08
1.81688e-05
3.10587e-08
1.81609e-05
3.5002e-08
1.81523e-05
3.99403e-08
1.81427e-05
4.59711e-08
1.81321e-05
5.3203e-08
1.81203e-05
6.17573e-08
1.8107e-05
7.17704e-08
1.80923e-05
8.33955e-08
1.80758e-05
9.68061e-08
1.80574e-05
1.12198e-07
1.8037e-05
1.29793e-07
1.80143e-05
1.49844e-07
1.79893e-05
1.72637e-07
1.79617e-05
1.98497e-07
1.79315e-05
2.2779e-07
1.78986e-05
2.60934e-07
1.7863e-05
2.98394e-07
1.78248e-05
3.40689e-07
1.77843e-05
3.88392e-07
1.77421e-05
4.42121e-07
1.76987e-05
5.02529e-07
1.76554e-05
5.70278e-07
1.76138e-05
6.45999e-07
1.75761e-05
7.30226e-07
1.75453e-05
8.23299e-07
1.75252e-05
9.25219e-07
1.75205e-05
1.03545e-06
1.75367e-05
1.15268e-06
1.75793e-05
1.27445e-06
1.76536e-05
1.39691e-06
1.77626e-05
1.51453e-06
1.7905e-05
1.62029e-06
1.7064e-06
1.80735e-05
1.99994e-05
-1.06675e-08
2.00016e-05
-1.05426e-08
2.00025e-05
3.63699e-09
2.00006e-05
3.10473e-08
1.99945e-05
6.69183e-08
1.99836e-05
1.04033e-07
1.99684e-05
1.35538e-07
1.99496e-05
1.5724e-07
1.99285e-05
1.68299e-07
1.99063e-05
1.70477e-07
1.98839e-05
1.66729e-07
1.98619e-05
1.59959e-07
1.98406e-05
1.52323e-07
1.98203e-05
1.45062e-07
1.98009e-05
1.38671e-07
1.97823e-05
1.33174e-07
1.97644e-05
1.28377e-07
1.97473e-05
1.24028e-07
1.97308e-05
1.19912e-07
1.97149e-05
1.15874e-07
1.96996e-05
1.11819e-07
1.96848e-05
1.07696e-07
1.96706e-05
1.03487e-07
1.9657e-05
9.91896e-08
1.9644e-05
9.48126e-08
1.96315e-05
9.03707e-08
1.96195e-05
8.58824e-08
1.96081e-05
8.13684e-08
1.95972e-05
7.68524e-08
1.95868e-05
7.23601e-08
1.95769e-05
6.79195e-08
1.95675e-05
6.35618e-08
1.95586e-05
5.93196e-08
1.95501e-05
5.52279e-08
1.95419e-05
5.13236e-08
1.95341e-05
4.76455e-08
1.95267e-05
4.42336e-08
1.95195e-05
4.11298e-08
1.95125e-05
3.83773e-08
1.95056e-05
3.60212e-08
1.94988e-05
3.41081e-08
1.94921e-05
3.2687e-08
1.94853e-05
3.18093e-08
1.94783e-05
3.15292e-08
1.94712e-05
3.19042e-08
1.94637e-05
3.29957e-08
1.94559e-05
3.48698e-08
1.94475e-05
3.7598e-08
1.94386e-05
4.12581e-08
1.94289e-05
4.59345e-08
1.94184e-05
5.172e-08
1.94069e-05
5.87165e-08
1.93944e-05
6.70366e-08
1.93807e-05
7.68044e-08
1.93657e-05
8.81578e-08
1.93492e-05
1.0125e-07
1.93311e-05
1.1625e-07
1.93113e-05
1.33348e-07
1.92897e-05
1.52753e-07
1.92663e-05
1.74699e-07
1.92409e-05
1.99443e-07
1.92135e-05
2.27269e-07
1.91842e-05
2.58491e-07
1.91531e-05
2.93445e-07
1.91204e-05
3.32496e-07
1.90865e-05
3.76028e-07
1.90518e-05
4.24435e-07
1.90172e-05
4.7811e-07
1.89837e-05
5.37421e-07
1.89527e-05
6.02684e-07
1.8926e-05
6.74113e-07
1.89058e-05
7.51767e-07
1.8895e-05
8.35472e-07
1.88969e-05
9.24722e-07
1.89151e-05
1.01857e-06
1.89537e-05
1.11549e-06
1.90162e-05
1.21327e-06
1.91055e-05
1.30892e-06
1.92226e-05
1.39871e-06
1.93659e-05
1.47838e-06
1.54364e-06
1.95299e-05
2.14003e-05
-1.24761e-08
2.14028e-05
-1.30285e-08
2.14043e-05
2.11911e-09
2.14032e-05
3.21838e-08
2.13981e-05
7.20884e-08
2.13882e-05
1.13949e-07
2.13737e-05
1.50112e-07
2.13553e-05
1.75703e-07
2.13342e-05
1.89511e-07
2.13116e-05
1.9324e-07
2.12884e-05
1.90025e-07
2.12654e-05
1.83061e-07
2.12431e-05
1.74792e-07
2.12217e-05
1.66693e-07
2.12011e-05
1.59411e-07
2.11815e-05
1.53055e-07
2.11626e-05
1.47463e-07
2.11446e-05
1.4239e-07
2.11272e-05
1.37611e-07
2.11104e-05
1.32957e-07
2.10943e-05
1.28319e-07
2.10787e-05
1.23639e-07
2.10638e-05
1.18888e-07
2.10494e-05
1.14062e-07
2.10355e-05
1.09168e-07
2.10222e-05
1.04219e-07
2.10095e-05
9.92349e-08
2.09972e-05
9.42384e-08
2.09855e-05
8.92555e-08
2.09742e-05
8.43148e-08
2.09634e-05
7.94481e-08
2.09531e-05
7.46893e-08
2.09431e-05
7.00755e-08
2.09336e-05
6.56457e-08
2.09243e-05
6.14406e-08
2.09154e-05
5.75032e-08
2.09067e-05
5.38778e-08
2.08982e-05
5.06104e-08
2.08899e-05
4.77487e-08
2.08817e-05
4.5342e-08
2.08734e-05
4.34412e-08
2.08652e-05
4.20997e-08
2.08568e-05
4.1373e-08
2.08482e-05
4.13195e-08
2.08393e-05
4.20007e-08
2.08301e-05
4.34822e-08
2.08204e-05
4.58339e-08
2.08102e-05
4.91308e-08
2.07993e-05
5.34533e-08
2.07877e-05
5.88887e-08
2.07753e-05
6.55314e-08
2.07619e-05
7.34839e-08
2.07475e-05
8.28577e-08
2.07319e-05
9.37746e-08
2.07151e-05
1.06367e-07
2.06971e-05
1.2078e-07
2.06776e-05
1.3717e-07
2.06567e-05
1.55709e-07
2.06343e-05
1.76583e-07
2.06105e-05
1.9999e-07
2.05853e-05
2.26146e-07
2.05588e-05
2.55277e-07
2.05312e-05
2.87622e-07
2.05027e-05
3.23425e-07
2.04738e-05
3.62933e-07
2.04449e-05
4.06383e-07
2.04168e-05
4.53992e-07
2.03905e-05
5.05942e-07
2.03671e-05
5.62353e-07
2.0348e-05
6.23259e-07
2.0335e-05
6.88568e-07
2.03302e-05
7.58026e-07
2.0336e-05
8.31163e-07
2.03549e-05
9.07245e-07
2.03897e-05
9.85221e-07
2.0443e-05
1.06368e-06
2.05169e-05
1.14082e-06
2.06127e-05
1.2145e-06
2.07305e-05
1.28228e-06
2.08687e-05
1.34162e-06
1.39019e-06
2.10235e-05
2.28993e-05
-1.44379e-08
2.29022e-05
-1.58801e-08
2.29043e-05
-2.60387e-11
2.29041e-05
3.24262e-08
2.29001e-05
7.61754e-08
2.28913e-05
1.22758e-07
2.28778e-05
1.63747e-07
2.286e-05
1.93565e-07
2.28391e-05
2.10544e-07
2.28162e-05
2.16247e-07
2.27924e-05
2.13923e-07
2.27686e-05
2.07019e-07
2.27453e-05
1.98268e-07
2.27228e-05
1.89395e-07
2.27012e-05
1.81225e-07
2.26805e-05
1.73977e-07
2.26607e-05
1.67542e-07
2.26417e-05
1.61696e-07
2.26234e-05
1.56209e-07
2.26058e-05
1.50905e-07
2.25889e-05
1.45662e-07
2.25725e-05
1.4041e-07
2.25567e-05
1.35115e-07
2.25415e-05
1.29765e-07
2.25269e-05
1.24365e-07
2.25128e-05
1.18927e-07
2.24991e-05
1.13471e-07
2.2486e-05
1.08022e-07
2.24734e-05
1.02608e-07
2.24612e-05
9.72591e-08
2.24494e-05
9.20108e-08
2.2438e-05
8.69011e-08
2.2427e-05
8.19699e-08
2.24163e-05
7.72598e-08
2.24058e-05
7.28155e-08
2.23957e-05
6.86835e-08
2.23857e-05
6.49121e-08
2.23758e-05
6.15508e-08
2.2366e-05
5.86508e-08
2.23562e-05
5.62652e-08
2.23464e-05
5.44482e-08
2.23364e-05
5.32566e-08
2.23263e-05
5.27488e-08
2.23159e-05
5.29863e-08
2.23052e-05
5.40334e-08
2.22941e-05
5.59577e-08
2.22824e-05
5.88307e-08
2.22702e-05
6.27285e-08
2.22574e-05
6.77321e-08
2.22438e-05
7.39276e-08
2.22293e-05
8.14073e-08
2.2214e-05
9.02698e-08
2.21978e-05
1.00621e-07
2.21805e-05
1.12573e-07
2.21621e-05
1.26248e-07
2.21427e-05
1.41773e-07
2.21221e-05
1.59285e-07
2.21005e-05
1.78928e-07
2.20778e-05
2.00852e-07
2.20541e-05
2.25213e-07
2.20297e-05
2.52171e-07
2.20047e-05
2.81885e-07
2.19794e-05
3.14511e-07
2.19542e-05
3.50194e-07
2.19297e-05
3.89064e-07
2.19065e-05
4.31221e-07
2.18853e-05
4.76725e-07
2.18673e-05
5.25582e-07
2.18535e-05
5.77722e-07
2.18454e-05
6.32983e-07
2.18444e-05
6.91082e-07
2.18524e-05
7.51597e-07
2.18712e-05
8.13937e-07
2.19027e-05
8.77328e-07
2.19487e-05
9.40795e-07
2.20107e-05
1.00317e-06
2.209e-05
1.06309e-06
2.21869e-05
1.11907e-06
2.23012e-05
1.16958e-06
2.24312e-05
1.21311e-06
1.24841e-06
2.25744e-05
2.45033e-05
-1.65496e-08
2.45065e-05
-1.90906e-08
2.45093e-05
-2.79339e-09
2.451e-05
3.17631e-08
2.45071e-05
7.91379e-08
2.44995e-05
1.30373e-07
2.44871e-05
1.76314e-07
2.447e-05
2.10656e-07
2.44495e-05
2.31208e-07
2.44265e-05
2.39308e-07
2.44024e-05
2.38245e-07
2.43779e-05
2.31683e-07
2.43537e-05
2.22633e-07
2.43302e-05
2.13079e-07
2.43076e-05
2.0405e-07
2.42859e-05
1.95897e-07
2.42652e-05
1.88589e-07
2.42452e-05
1.8193e-07
2.42261e-05
1.75702e-07
2.42077e-05
1.69721e-07
2.41899e-05
1.63856e-07
2.41727e-05
1.58026e-07
2.41562e-05
1.52188e-07
2.41401e-05
1.46325e-07
2.41246e-05
1.40438e-07
2.41096e-05
1.34537e-07
2.40951e-05
1.28643e-07
2.40811e-05
1.2278e-07
2.40675e-05
1.16978e-07
2.40542e-05
1.11271e-07
2.40414e-05
1.05696e-07
2.40289e-05
1.00294e-07
2.40167e-05
9.51084e-08
2.40047e-05
9.01847e-08
2.3993e-05
8.5571e-08
2.39814e-05
8.13167e-08
2.39699e-05
7.74729e-08
2.39585e-05
7.40925e-08
2.39471e-05
7.12294e-08
2.39356e-05
6.89386e-08
2.39241e-05
6.72775e-08
2.39123e-05
6.63043e-08
2.39003e-05
6.60797e-08
2.3888e-05
6.6666e-08
2.38753e-05
6.81284e-08
2.38621e-05
7.05347e-08
2.38485e-05
7.39558e-08
2.38342e-05
7.8466e-08
2.38193e-05
8.41432e-08
2.38037e-05
9.10692e-08
2.37873e-05
9.93301e-08
2.37702e-05
1.09016e-07
2.37522e-05
1.20222e-07
2.37333e-05
1.33045e-07
2.37136e-05
1.47589e-07
2.36931e-05
1.63959e-07
2.36717e-05
1.82263e-07
2.36497e-05
2.02611e-07
2.36271e-05
2.2511e-07
2.36042e-05
2.49867e-07
2.35811e-05
2.7698e-07
2.35581e-05
3.06539e-07
2.35357e-05
3.38618e-07
2.35143e-05
3.7327e-07
2.34946e-05
4.10518e-07
2.34772e-05
4.50348e-07
2.34629e-05
4.92696e-07
2.34527e-05
5.37442e-07
2.34478e-05
5.84391e-07
2.34492e-05
6.33263e-07
2.34583e-05
6.83686e-07
2.34764e-05
7.35177e-07
2.35048e-05
7.87145e-07
2.35449e-05
8.3888e-07
2.35978e-05
8.89568e-07
2.36643e-05
9.38301e-07
2.3745e-05
9.84105e-07
2.38397e-05
1.02599e-06
2.39479e-05
1.06298e-06
2.40684e-05
1.09422e-06
1.11904e-06
2.41993e-05
2.62196e-05
-1.88022e-08
2.62232e-05
-2.26368e-08
2.62266e-05
-6.14618e-09
2.62281e-05
3.02384e-08
2.62263e-05
8.10071e-08
2.622e-05
1.3679e-07
2.62086e-05
1.87756e-07
2.61925e-05
2.26865e-07
2.61724e-05
2.51349e-07
2.61496e-05
2.62242e-07
2.61252e-05
2.6281e-07
2.61002e-05
2.56885e-07
2.60753e-05
2.47741e-07
2.60509e-05
2.37631e-07
2.60274e-05
2.27801e-07
2.60048e-05
2.18759e-07
2.59832e-05
2.10566e-07
2.59623e-05
2.03075e-07
2.59423e-05
1.96084e-07
2.59231e-05
1.8941e-07
2.59044e-05
1.82915e-07
2.58864e-05
1.76509e-07
2.5869e-05
1.7014e-07
2.58521e-05
1.63783e-07
2.58357e-05
1.57436e-07
2.58198e-05
1.51108e-07
2.58044e-05
1.44816e-07
2.57893e-05
1.38587e-07
2.57746e-05
1.32452e-07
2.57603e-05
1.26445e-07
2.57463e-05
1.20607e-07
2.57325e-05
1.14981e-07
2.5719e-05
1.09613e-07
2.57056e-05
1.0455e-07
2.56924e-05
9.98428e-08
2.56793e-05
9.55438e-08
2.56663e-05
9.17062e-08
2.56532e-05
8.8384e-08
2.564e-05
8.56333e-08
2.56268e-05
8.35108e-08
2.56133e-05
8.20742e-08
2.55996e-05
8.13827e-08
2.55856e-05
8.14968e-08
2.55712e-05
8.24784e-08
2.55564e-05
8.43912e-08
2.55412e-05
8.73007e-08
2.55254e-05
9.12744e-08
2.55091e-05
9.63821e-08
2.54921e-05
1.02695e-07
2.54746e-05
1.10288e-07
2.54563e-05
1.19235e-07
2.54374e-05
1.29615e-07
2.54178e-05
1.41505e-07
2.53976e-05
1.54986e-07
2.53768e-05
1.70135e-07
2.53554e-05
1.87032e-07
2.53337e-05
2.0575e-07
2.53118e-05
2.2636e-07
2.52897e-05
2.48926e-07
2.52679e-05
2.735e-07
2.52466e-05
3.00123e-07
2.52261e-05
3.28819e-07
2.52069e-05
3.59588e-07
2.51896e-05
3.92404e-07
2.51747e-05
4.27207e-07
2.5163e-05
4.63897e-07
2.51552e-05
5.02325e-07
2.51522e-05
5.42293e-07
2.51548e-05
5.83538e-07
2.51642e-05
6.25734e-07
2.51812e-05
6.68486e-07
2.52068e-05
7.11329e-07
2.5242e-05
7.53731e-07
2.52876e-05
7.95102e-07
2.53441e-05
8.34801e-07
2.5412e-05
8.7216e-07
2.54913e-05
9.06505e-07
2.55819e-05
9.37186e-07
2.5683e-05
9.63612e-07
2.57936e-05
9.85292e-07
1.00188e-06
2.59124e-05
2.80562e-05
-2.1184e-08
2.806e-05
-2.64841e-08
2.80639e-05
-1.00203e-08
2.80663e-05
2.79404e-08
2.80654e-05
8.1875e-08
2.80602e-05
1.42078e-07
2.805e-05
1.98092e-07
2.80348e-05
2.42147e-07
2.80154e-05
2.7086e-07
2.79929e-05
2.849e-07
2.79684e-05
2.87444e-07
2.7943e-05
2.82453e-07
2.79175e-05
2.7344e-07
2.78924e-05
2.62924e-07
2.78681e-05
2.52383e-07
2.78447e-05
2.42495e-07
2.78221e-05
2.33432e-07
2.78004e-05
2.2511e-07
2.77796e-05
2.17354e-07
2.77594e-05
2.09986e-07
2.77399e-05
2.02866e-07
2.77211e-05
1.95896e-07
2.77027e-05
1.89015e-07
2.76849e-05
1.82195e-07
2.76676e-05
1.75426e-07
2.76507e-05
1.68714e-07
2.76342e-05
1.62076e-07
2.7618e-05
1.55539e-07
2.76022e-05
1.49132e-07
2.75866e-05
1.42894e-07
2.75713e-05
1.36866e-07
2.75562e-05
1.31091e-07
2.75412e-05
1.25618e-07
2.75264e-05
1.20496e-07
2.75116e-05
1.15777e-07
2.74968e-05
1.11514e-07
2.7482e-05
1.07762e-07
2.74671e-05
1.04576e-07
2.7452e-05
1.02012e-07
2.74368e-05
1.00126e-07
2.74213e-05
9.89759e-08
2.74055e-05
9.86195e-08
2.73894e-05
9.91153e-08
2.73729e-05
1.00523e-07
2.7356e-05
1.02901e-07
2.73386e-05
1.06313e-07
2.73207e-05
1.10817e-07
2.73023e-05
1.16478e-07
2.72833e-05
1.23355e-07
2.72638e-05
1.31513e-07
2.72438e-05
1.41012e-07
2.72233e-05
1.51914e-07
2.72023e-05
1.64277e-07
2.7181e-05
1.78157e-07
2.71593e-05
1.93607e-07
2.71376e-05
2.10674e-07
2.71158e-05
2.29397e-07
2.70942e-05
2.49808e-07
2.70731e-05
2.71924e-07
2.70528e-05
2.95752e-07
2.70336e-05
3.21279e-07
2.70158e-05
3.48471e-07
2.70001e-05
3.77271e-07
2.69868e-05
4.07591e-07
2.69767e-05
4.39314e-07
2.69702e-05
4.72283e-07
2.69682e-05
5.06305e-07
2.69713e-05
5.41141e-07
2.69802e-05
5.7651e-07
2.69958e-05
6.12086e-07
2.70187e-05
6.47498e-07
2.70496e-05
6.82337e-07
2.70891e-05
7.16163e-07
2.71376e-05
7.4851e-07
2.71953e-05
7.78899e-07
2.72625e-05
8.06859e-07
2.73389e-05
8.31936e-07
2.74243e-05
8.53716e-07
2.75179e-05
8.71846e-07
2.76189e-05
8.86052e-07
8.96165e-07
2.77264e-05
3.00213e-05
-2.36795e-08
3.00254e-05
-3.05899e-08
3.00298e-05
-1.43361e-08
3.00328e-05
2.49847e-08
3.00328e-05
8.1878e-08
3.00286e-05
1.46361e-07
3.00194e-05
2.07402e-07
3.00051e-05
2.56519e-07
2.99864e-05
2.89688e-07
2.99643e-05
3.0717e-07
2.99399e-05
3.12002e-07
2.99143e-05
3.08228e-07
2.98884e-05
2.99578e-07
2.98627e-05
2.88827e-07
2.98377e-05
2.77691e-07
2.98134e-05
2.67031e-07
2.97901e-05
2.57142e-07
2.97675e-05
2.48015e-07
2.97458e-05
2.3951e-07
2.97248e-05
2.31466e-07
2.97044e-05
2.23741e-07
2.96846e-05
2.16232e-07
2.96653e-05
2.08873e-07
2.96466e-05
2.01629e-07
2.96282e-05
1.94485e-07
2.96102e-05
1.87444e-07
2.95925e-05
1.80522e-07
2.95752e-05
1.73742e-07
2.95581e-05
1.67137e-07
2.95412e-05
1.60744e-07
2.95244e-05
1.54604e-07
2.95078e-05
1.48763e-07
2.94913e-05
1.43268e-07
2.94747e-05
1.38172e-07
2.94582e-05
1.33524e-07
2.94416e-05
1.2938e-07
2.94249e-05
1.25792e-07
2.9408e-05
1.22816e-07
2.93909e-05
1.20506e-07
2.93736e-05
1.18917e-07
2.9356e-05
1.18104e-07
2.9338e-05
1.18122e-07
2.93197e-05
1.19026e-07
2.9301e-05
1.20869e-07
2.92819e-05
1.23707e-07
2.92623e-05
1.27592e-07
2.92423e-05
1.32576e-07
2.92218e-05
1.38712e-07
2.92009e-05
1.46049e-07
2.91797e-05
1.54634e-07
2.9158e-05
1.64513e-07
2.91361e-05
1.75727e-07
2.9114e-05
1.88314e-07
2.90918e-05
2.02303e-07
2.90696e-05
2.1772e-07
2.90477e-05
2.3458e-07
2.90262e-05
2.5289e-07
2.90054e-05
2.72643e-07
2.89855e-05
2.93818e-07
2.89669e-05
3.16379e-07
2.895e-05
3.4027e-07
2.89351e-05
3.65415e-07
2.89227e-05
3.91713e-07
2.89133e-05
4.19039e-07
2.89074e-05
4.4724e-07
2.89056e-05
4.76133e-07
2.89085e-05
5.05505e-07
2.89166e-05
5.35115e-07
2.89304e-05
5.64693e-07
2.89506e-05
5.9394e-07
2.89776e-05
6.22537e-07
2.90118e-05
6.50147e-07
2.90536e-05
6.76424e-07
2.91031e-05
7.01016e-07
2.91604e-05
7.23583e-07
2.92255e-05
7.438e-07
2.9298e-05
7.61373e-07
2.93777e-05
7.76045e-07
2.94639e-05
7.87613e-07
2.95559e-05
7.95933e-07
8.00932e-07
2.96531e-05
3.2124e-05
-2.62721e-08
3.21284e-05
-3.49073e-08
3.21331e-05
-1.90068e-08
3.21366e-05
2.15016e-08
3.21374e-05
8.11732e-08
3.2134e-05
1.49797e-07
3.21257e-05
2.15811e-07
3.21123e-05
2.70043e-07
3.20943e-05
3.07829e-07
3.20726e-05
3.28986e-07
3.20484e-05
3.36372e-07
3.20227e-05
3.34075e-07
3.19965e-05
3.26018e-07
3.19704e-05
3.15218e-07
3.19448e-05
3.03628e-07