/*--------------------------------*- C++ -*----------------------------------*\
| =========                 |                                                 |
| \\      /  F ield         | OpenFOAM: The Open Source CFD Toolbox           |
|  \\    /   O peration     | Version:  5.x                                   |
|   \\  /    A nd           | Web:      www.OpenFOAM.org                      |
|    \\/     M anipulation  |                                                 |
\*---------------------------------------------------------------------------*/
FoamFile
{
    version     2.0;
    format      ascii;
    class       volVectorField;
    location    "0.8";
    object      U;
}
// * * * * * * * * * * * * * * * * * * * * * * * * * * * * * * * * * * * * * //

dimensions      [0 1 -1 0 0 0 0];

internalField   nonuniform List<vector> 
12013
(
(0.100003 -6.6158e-07 0)
(0.100011 -4.62897e-07 0)
(0.100013 8.24425e-07 0)
(0.0999953 3.17558e-06 0)
(0.0999502 6.19291e-06 0)
(0.0998748 9.27308e-06 0)
(0.0997729 1.18451e-05 0)
(0.0996527 1.3571e-05 0)
(0.0995234 1.44056e-05 0)
(0.099393 1.45253e-05 0)
(0.0992668 1.42023e-05 0)
(0.0991474 1.36923e-05 0)
(0.0990351 1.31748e-05 0)
(0.0989292 1.2742e-05 0)
(0.0988287 1.24179e-05 0)
(0.0987326 1.21861e-05 0)
(0.0986401 1.2014e-05 0)
(0.0985508 1.18681e-05 0)
(0.0984646 1.17225e-05 0)
(0.0983815 1.15585e-05 0)
(0.0983017 1.1366e-05 0)
(0.0982252 1.11393e-05 0)
(0.0981522 1.0876e-05 0)
(0.098083 1.0576e-05 0)
(0.0980176 1.024e-05 0)
(0.0979562 9.8694e-06 0)
(0.0978989 9.46536e-06 0)
(0.0978458 9.03037e-06 0)
(0.097797 8.56622e-06 0)
(0.0977524 8.07625e-06 0)
(0.0977122 7.56309e-06 0)
(0.0976763 7.03078e-06 0)
(0.0976446 6.4834e-06 0)
(0.0976172 5.9264e-06 0)
(0.0975939 5.36482e-06 0)
(0.0975746 4.80549e-06 0)
(0.0975591 4.25534e-06 0)
(0.0975473 3.72189e-06 0)
(0.097539 3.21405e-06 0)
(0.0975339 2.74112e-06 0)
(0.0975316 2.31433e-06 0)
(0.0975319 1.94546e-06 0)
(0.0975344 1.64793e-06 0)
(0.0975386 1.43702e-06 0)
(0.0975442 1.32991e-06 0)
(0.0975505 1.34595e-06 0)
(0.0975571 1.50724e-06 0)
(0.0975632 1.83929e-06 0)
(0.0975681 2.37063e-06 0)
(0.0975711 3.13485e-06 0)
(0.0975712 4.17053e-06 0)
(0.0975676 5.52218e-06 0)
(0.097559 7.24209e-06 0)
(0.0975442 9.39083e-06 0)
(0.0975218 1.20406e-05 0)
(0.0974903 1.52765e-05 0)
(0.0974479 1.92e-05 0)
(0.0973924 2.39329e-05 0)
(0.0973216 2.96223e-05 0)
(0.0972327 3.64474e-05 0)
(0.0971225 4.46285e-05 0)
(0.0969874 5.44392e-05 0)
(0.0968228 6.62212e-05 0)
(0.0966237 8.04082e-05 0)
(0.0963836 9.75566e-05 0)
(0.096095 0.000118388 0)
(0.0957482 0.000143854 0)
(0.0953316 0.000175231 0)
(0.0948301 0.000214255 0)
(0.0942246 0.000263339 0)
(0.09349 0.000325904 0)
(0.0925927 0.000406905 0)
(0.0914873 0.000513688 0)
(0.0901105 0.000657408 0)
(0.0883725 0.000855423 0)
(0.0861433 0.0011354 0)
(0.0832298 0.00154257 0)
(0.0793263 0.00215466 0)
(0.0739542 0.00312903 0)
(0.0665441 0.00490616 0)
(0.0582012 0.00947165 0)
(0.100003 -2.04171e-06 0)
(0.100011 -1.44877e-06 0)
(0.100013 2.48786e-06 0)
(0.0999964 9.69229e-06 0)
(0.0999519 1.89476e-05 0)
(0.0998773 2.84024e-05 0)
(0.0997761 3.63041e-05 0)
(0.0996564 4.16132e-05 0)
(0.0995276 4.41872e-05 0)
(0.0993975 4.45665e-05 0)
(0.0992715 4.35847e-05 0)
(0.0991521 4.20264e-05 0)
(0.0990398 4.04424e-05 0)
(0.0989339 3.9116e-05 0)
(0.0988334 3.81216e-05 0)
(0.0987372 3.741e-05 0)
(0.0986446 3.68811e-05 0)
(0.0985553 3.64339e-05 0)
(0.0984691 3.59871e-05 0)
(0.098386 3.54856e-05 0)
(0.098306 3.48965e-05 0)
(0.0982295 3.42029e-05 0)
(0.0981564 3.33985e-05 0)
(0.098087 3.24815e-05 0)
(0.0980215 3.14549e-05 0)
(0.0979599 3.03229e-05 0)
(0.0979023 2.90896e-05 0)
(0.0978489 2.77614e-05 0)
(0.0977997 2.63449e-05 0)
(0.0977548 2.48494e-05 0)
(0.0977141 2.32835e-05 0)
(0.0976776 2.16596e-05 0)
(0.0976454 1.99909e-05 0)
(0.0976173 1.82931e-05 0)
(0.0975933 1.65828e-05 0)
(0.0975732 1.48798e-05 0)
(0.0975569 1.32052e-05 0)
(0.0975442 1.15832e-05 0)
(0.0975349 1.00408e-05 0)
(0.0975287 8.60737e-06 0)
(0.0975253 7.31529e-06 0)
(0.0975244 6.20191e-06 0)
(0.0975255 5.30854e-06 0)
(0.0975284 4.68199e-06 0)
(0.0975325 4.37476e-06 0)
(0.0975373 4.44587e-06 0)
(0.0975423 4.96355e-06 0)
(0.0975467 6.00529e-06 0)
(0.0975499 7.65917e-06 0)
(0.0975511 1.0027e-05 0)
(0.0975494 1.32271e-05 0)
(0.0975438 1.73959e-05 0)
(0.0975333 2.26923e-05 0)
(0.0975166 2.93018e-05 0)
(0.0974923 3.7444e-05 0)
(0.0974588 4.73784e-05 0)
(0.0974145 5.94135e-05 0)
(0.0973573 7.39191e-05 0)
(0.0972849 9.13424e-05 0)
(0.0971946 0.000112226 0)
(0.0970834 0.000137237 0)
(0.0969477 0.0001672 0)
(0.0967832 0.000203145 0)
(0.0965849 0.000246375 0)
(0.0963469 0.000298554 0)
(0.0960619 0.000361836 0)
(0.095721 0.000439045 0)
(0.0953135 0.000533944 0)
(0.0948256 0.000651625 0)
(0.0942403 0.000799099 0)
(0.0935357 0.000986198 0)
(0.0926831 0.00122697 0)
(0.0916455 0.00154189 0)
(0.0903733 0.00196133 0)
(0.0888007 0.00253109 0)
(0.0868405 0.00332102 0)
(0.0843793 0.00443754 0)
(0.0812677 0.00604077 0)
(0.0773393 0.00836707 0)
(0.0726478 0.011694 0)
(0.0685444 0.0158895 0)
(0.100003 -3.53945e-06 0)
(0.100012 -2.58355e-06 0)
(0.100014 4.12836e-06 0)
(0.0999982 1.64641e-05 0)
(0.0999551 3.2348e-05 0)
(0.0998821 4.86054e-05 0)
(0.0997826 6.22242e-05 0)
(0.0996644 7.14072e-05 0)
(0.0995367 7.58969e-05 0)
(0.0994074 7.66101e-05 0)
(0.0992819 7.49707e-05 0)
(0.0991627 7.23248e-05 0)
(0.0990505 6.96205e-05 0)
(0.0989445 6.7348e-05 0)
(0.0988439 6.56392e-05 0)
(0.0987476 6.44128e-05 0)
(0.0986551 6.35006e-05 0)
(0.0985657 6.27303e-05 0)
(0.0984795 6.19629e-05 0)
(0.0983963 6.11044e-05 0)
(0.0983163 6.00985e-05 0)
(0.0982396 5.8916e-05 0)
(0.0981664 5.75456e-05 0)
(0.0980969 5.59856e-05 0)
(0.0980311 5.42395e-05 0)
(0.0979692 5.23143e-05 0)
(0.0979112 5.02187e-05 0)
(0.0978573 4.79625e-05 0)
(0.0978075 4.55583e-05 0)
(0.0977619 4.302e-05 0)
(0.0977204 4.03647e-05 0)
(0.097683 3.76127e-05 0)
(0.0976498 3.47874e-05 0)
(0.0976205 3.19151e-05 0)
(0.0975952 2.90253e-05 0)
(0.0975738 2.6151e-05 0)
(0.0975559 2.33294e-05 0)
(0.0975415 2.06023e-05 0)
(0.0975303 1.80153e-05 0)
(0.0975221 1.56195e-05 0)
(0.0975166 1.34706e-05 0)
(0.0975134 1.16325e-05 0)
(0.0975121 1.01764e-05 0)
(0.0975124 9.18214e-06 0)
(0.0975137 8.73974e-06 0)
(0.0975157 8.95114e-06 0)
(0.0975176 9.93254e-06 0)
(0.0975188 1.18159e-05 0)
(0.0975187 1.47528e-05 0)
(0.0975164 1.89166e-05 0)
(0.0975112 2.45092e-05 0)
(0.0975019 3.17625e-05 0)
(0.0974877 4.09468e-05 0)
(0.0974672 5.23781e-05 0)
(0.0974391 6.6428e-05 0)
(0.0974019 8.35351e-05 0)
(0.0973539 0.000104221 0)
(0.0972932 0.000129108 0)
(0.0972176 0.000158947 0)
(0.0971244 0.000194648 0)
(0.0970109 0.000237323 0)
(0.0968737 0.000288342 0)
(0.0967087 0.00034941 0)
(0.0965115 0.000422669 0)
(0.0962766 0.000510834 0)
(0.0959975 0.000617397 0)
(0.0956665 0.000746891 0)
(0.0952742 0.000905282 0)
(0.0948094 0.00110054 0)
(0.0942581 0.00134342 0)
(0.0936036 0.00164873 0)
(0.0928252 0.00203702 0)
(0.0918978 0.00253722 0)
(0.0907916 0.00319035 0)
(0.0894729 0.00405472 0)
(0.0879069 0.00521218 0)
(0.086067 0.00677348 0)
(0.0839511 0.00887615 0)
(0.0816269 0.0116597 0)
(0.0793661 0.015141 0)
(0.0778996 0.0187076 0)
(0.100003 -5.16333e-06 0)
(0.100012 -3.9083e-06 0)
(0.100015 5.66309e-06 0)
(0.100001 2.33569e-05 0)
(0.0999599 4.62201e-05 0)
(0.0998895 6.96965e-05 0)
(0.0997928 8.94417e-05 0)
(0.0996771 0.000102841 0)
(0.0995514 0.000109489 0)
(0.0994235 0.000110677 0)
(0.0992989 0.000108437 0)
(0.0991801 0.000104702 0)
(0.0990679 0.000100844 0)
(0.098962 9.75797e-05 0)
(0.0988613 9.51105e-05 0)
(0.098765 9.33289e-05 0)
(0.0986724 9.19996e-05 0)
(0.0985831 9.0878e-05 0)
(0.0984969 8.97673e-05 0)
(0.0984137 8.85317e-05 0)
(0.0983338 8.70908e-05 0)
(0.0982571 8.54019e-05 0)
(0.0981838 8.3448e-05 0)
(0.0981141 8.1227e-05 0)
(0.0980481 7.87435e-05 0)
(0.0979858 7.60071e-05 0)
(0.0979274 7.30308e-05 0)
(0.0978729 6.98291e-05 0)
(0.0978224 6.64197e-05 0)
(0.0977759 6.28235e-05 0)
(0.0977333 5.90656e-05 0)
(0.0976948 5.5175e-05 0)
(0.0976602 5.11855e-05 0)
(0.0976294 4.71355e-05 0)
(0.0976024 4.30681e-05 0)
(0.097579 3.90308e-05 0)
(0.097559 3.5078e-05 0)
(0.0975423 3.12697e-05 0)
(0.0975286 2.76717e-05 0)
(0.0975177 2.43578e-05 0)
(0.0975092 2.14094e-05 0)
(0.0975028 1.89178e-05 0)
(0.0974982 1.69859e-05 0)
(0.0974948 1.57287e-05 0)
(0.0974924 1.52754e-05 0)
(0.0974903 1.57734e-05 0)
(0.0974879 1.73889e-05 0)
(0.0974847 2.03109e-05 0)
(0.09748 2.47568e-05 0)
(0.097473 3.09753e-05 0)
(0.0974628 3.92534e-05 0)
(0.0974485 4.99216e-05 0)
(0.0974291 6.33646e-05 0)
(0.0974034 8.00302e-05 0)
(0.0973702 0.000100445 0)
(0.0973279 0.000125226 0)
(0.097275 0.000155108 0)
(0.0972096 0.000190963 0)
(0.0971297 0.000233839 0)
(0.097033 0.000285 0)
(0.0969168 0.00034598 0)
(0.0967781 0.000418662 0)
(0.0966133 0.000505369 0)
(0.0964185 0.000608995 0)
(0.096189 0.000733177 0)
(0.0959195 0.00088253 0)
(0.0956037 0.00106297 0)
(0.0952344 0.00128214 0)
(0.0948032 0.00155005 0)
(0.0943006 0.00187992 0)
(0.0937159 0.0022893 0)
(0.0930377 0.00280174 0)
(0.0922542 0.00344881 0)
(0.0913555 0.00427267 0)
(0.0903368 0.00532863 0)
(0.0892051 0.0066863 0)
(0.0879907 0.00842548 0)
(0.0867643 0.0106182 0)
(0.0856618 0.0132809 0)
(0.084912 0.0162557 0)
(0.0848017 0.0189475 0)
(0.100003 -6.93316e-06 0)
(0.100012 -5.47887e-06 0)
(0.100017 6.97508e-06 0)
(0.100004 3.01813e-05 0)
(0.0999663 6.03139e-05 0)
(0.0998997 9.13995e-05 0)
(0.099807 0.0001177 0)
(0.099695 0.000135718 0)
(0.0995722 0.00014485 0)
(0.0994464 0.000146738 0)
(0.099323 0.000144025 0)
(0.0992049 0.000139249 0)
(0.099093 0.000134231 0)
(0.0989871 0.000129939 0)
(0.0988864 0.00012666 0)
(0.0987901 0.000124273 0)
(0.0986976 0.000122481 0)
(0.0986084 0.000120972 0)
(0.0985223 0.000119487 0)
(0.0984394 0.000117851 0)
(0.0983596 0.000115955 0)
(0.098283 0.000113745 0)
(0.0982098 0.000111195 0)
(0.09814 0.000108302 0)
(0.0980738 0.000105073 0)
(0.0980112 0.00010152 0)
(0.0979524 9.76592e-05 0)
(0.0978973 9.35111e-05 0)
(0.097846 8.90985e-05 0)
(0.0977986 8.44507e-05 0)
(0.0977549 7.96004e-05 0)
(0.097715 7.45869e-05 0)
(0.0976789 6.94548e-05 0)
(0.0976463 6.42558e-05 0)
(0.0976173 5.9047e-05 0)
(0.0975916 5.38923e-05 0)
(0.0975691 4.88636e-05 0)
(0.0975496 4.40403e-05 0)
(0.0975328 3.95103e-05 0)
(0.0975186 3.53711e-05 0)
(0.0975065 3.17306e-05 0)
(0.0974963 2.87101e-05 0)
(0.0974875 2.64451e-05 0)
(0.0974798 2.50872e-05 0)
(0.0974727 2.48078e-05 0)
(0.0974657 2.57996e-05 0)
(0.0974582 2.82821e-05 0)
(0.0974496 3.25029e-05 0)
(0.0974393 3.87466e-05 0)
(0.0974265 4.73386e-05 0)
(0.0974104 5.86519e-05 0)
(0.09739 7.3117e-05 0)
(0.0973645 9.12323e-05 0)
(0.0973327 0.000113577 0)
(0.0972933 0.000140827 0)
(0.0972451 0.000173776 0)
(0.0971866 0.00021336 0)
(0.0971161 0.000260689 0)
(0.0970318 0.000317084 0)
(0.0969315 0.00038413 0)
(0.096813 0.000463741 0)
(0.0966737 0.00055824 0)
(0.0965106 0.000670467 0)
(0.0963205 0.000803919 0)
(0.0960998 0.000962935 0)
(0.0958445 0.00115293 0)
(0.09555 0.00138072 0)
(0.0952118 0.00165491 0)
(0.0948246 0.00198649 0)
(0.0943838 0.00238949 0)
(0.0938848 0.00288185 0)
(0.0933247 0.00348653 0)
(0.0927037 0.00423256 0)
(0.0920273 0.00515591 0)
(0.0913106 0.0062994 0)
(0.0905837 0.00770983 0)
(0.0898999 0.00942911 0)
(0.0893432 0.0114734 0)
(0.0890323 0.0137919 0)
(0.0891049 0.0161964 0)
(0.0896432 0.0182712 0)
(0.100003 -8.86935e-06 0)
(0.100013 -7.36033e-06 0)
(0.100018 7.92306e-06 0)
(0.100008 3.67043e-05 0)
(0.0999743 7.43164e-05 0)
(0.0999126 0.000113362 0)
(0.0998251 0.000146661 0)
(0.0997179 0.000169765 0)
(0.0995992 0.000181803 0)
(0.0994763 0.000184718 0)
(0.0993547 0.000181745 0)
(0.0992375 0.000176039 0)
(0.0991261 0.000169891 0)
(0.0990203 0.000164546 0)
(0.0989197 0.000160407 0)
(0.0988235 0.000157354 0)
(0.0987312 0.000155042 0)
(0.0986423 0.000153094 0)
(0.0985566 0.000151196 0)
(0.098474 0.000149129 0)
(0.0983945 0.000146758 0)
(0.0983183 0.000144011 0)
(0.0982452 0.000140858 0)
(0.0981756 0.000137291 0)
(0.0981093 0.000133318 0)
(0.0980466 0.000128954 0)
(0.0979874 0.000124221 0)
(0.0979318 0.000119143 0)
(0.0978798 0.00011375 0)
(0.0978314 0.000108079 0)
(0.0977866 0.000102173 0)
(0.0977453 9.608e-05 0)
(0.0977074 8.98583e-05 0)
(0.0976729 8.35726e-05 0)
(0.0976416 7.7295e-05 0)
(0.0976134 7.11073e-05 0)
(0.0975881 6.50997e-05 0)
(0.0975655 5.93723e-05 0)
(0.0975454 5.40361e-05 0)
(0.0975274 4.92132e-05 0)
(0.0975113 4.50398e-05 0)
(0.0974967 4.16685e-05 0)
(0.0974833 3.92682e-05 0)
(0.0974707 3.80292e-05 0)
(0.0974583 3.81652e-05 0)
(0.0974458 3.99165e-05 0)
(0.0974325 4.35553e-05 0)
(0.0974179 4.93903e-05 0)
(0.0974013 5.77726e-05 0)
(0.0973821 6.91036e-05 0)
(0.0973594 8.38423e-05 0)
(0.0973324 0.000102516 0)
(0.0973001 0.000125733 0)
(0.0972617 0.000154197 0)
(0.0972159 0.000188726 0)
(0.0971616 0.000230276 0)
(0.0970974 0.000279965 0)
(0.0970218 0.000339111 0)
(0.0969334 0.000409274 0)
(0.0968303 0.000492305 0)
(0.0967106 0.00059042 0)
(0.0965723 0.000706278 0)
(0.0964132 0.00084309 0)
(0.0962309 0.00100475 0)
(0.096023 0.001196 0)
(0.0957868 0.00142265 0)
(0.0955199 0.00169184 0)
(0.0952201 0.00201234 0)
(0.0948856 0.00239497 0)
(0.0945159 0.00285302 0)
(0.0941119 0.00340274 0)
(0.0936775 0.00406372 0)
(0.0932212 0.00485909 0)
(0.0927578 0.005815 0)
(0.0923118 0.00695891 0)
(0.0919207 0.00831517 0)
(0.091638 0.00989616 0)
(0.0915337 0.0116863 0)
(0.0916879 0.0136169 0)
(0.0921684 0.0155349 0)
(0.0929791 0.0171829 0)
(0.100003 -1.09934e-05 0)
(0.100013 -9.62379e-06 0)
(0.10002 8.34893e-06 0)
(0.100013 4.26601e-05 0)
(0.0999837 8.7864e-05 0)
(0.0999279 0.000135164 0)
(0.0998468 0.000175913 0)
(0.0997457 0.000204635 0)
(0.0996319 0.000220103 0)
(0.0995127 0.000224484 0)
(0.0993935 0.000221567 0)
(0.0992778 0.000215114 0)
(0.099167 0.000207907 0)
(0.0990616 0.000201505 0)
(0.0989613 0.000196454 0)
(0.0988654 0.000192666 0)
(0.0987734 0.000189763 0)
(0.098685 0.000187313 0)
(0.0985998 0.000184952 0)
(0.0985178 0.000182416 0)
(0.0984389 0.000179546 0)
(0.0983631 0.000176249 0)
(0.0982906 0.000172488 0)
(0.0982212 0.000168251 0)
(0.0981551 0.000163547 0)
(0.0980924 0.000158393 0)
(0.098033 0.000152814 0)
(0.097977 0.000146841 0)
(0.0979243 0.000140512 0)
(0.097875 0.000133871 0)
(0.0978291 0.000126971 0)
(0.0977863 0.000119873 0)
(0.0977468 0.000112646 0)
(0.0977103 0.00010537 0)
(0.0976767 9.81349e-05 0)
(0.0976458 9.10386e-05 0)
(0.0976176 8.41917e-05 0)
(0.0975917 7.77157e-05 0)
(0.0975679 7.17457e-05 0)
(0.0975459 6.64298e-05 0)
(0.0975255 6.19335e-05 0)
(0.0975063 5.84405e-05 0)
(0.0974879 5.61553e-05 0)
(0.09747 5.53068e-05 0)
(0.097452 5.61514e-05 0)
(0.0974336 5.89776e-05 0)
(0.0974141 6.41103e-05 0)
(0.0973931 7.19175e-05 0)
(0.09737 8.28162e-05 0)
(0.0973439 9.72807e-05 0)
(0.0973144 0.000115852 0)
(0.0972805 0.000139147 0)
(0.0972414 0.000167878 0)
(0.0971963 0.000202859 0)
(0.0971442 0.000245035 0)
(0.0970839 0.0002955 0)
(0.0970145 0.000355524 0)
(0.0969346 0.000426594 0)
(0.096843 0.000510448 0)
(0.0967384 0.000609132 0)
(0.0966194 0.000725061 0)
(0.0964844 0.000861095 0)
(0.0963321 0.00102063 0)
(0.096161 0.0012077 0)
(0.0959698 0.00142714 0)
(0.0957574 0.0016847 0)
(0.0955234 0.00198726 0)
(0.0952677 0.00234299 0)
(0.0949914 0.00276157 0)
(0.0946972 0.00325436 0)
(0.0943903 0.00383447 0)
(0.0940787 0.00451667 0)
(0.0937751 0.00531691 0)
(0.0934982 0.00625117 0)
(0.093274 0.00733325 0)
(0.0931371 0.00857068 0)
(0.0931306 0.00995821 0)
(0.0933038 0.0114681 0)
(0.0937031 0.013038 0)
(0.0943559 0.0145605 0)
(0.095243 0.0158846 0)
(0.100003 -1.33264e-05 0)
(0.100013 -1.2342e-05 0)
(0.100022 8.08837e-06 0)
(0.100018 4.77688e-05 0)
(0.0999942 0.000100564 0)
(0.0999452 0.000156344 0)
(0.0998714 0.000204987 0)
(0.0997774 0.000239917 0)
(0.0996696 0.000259439 0)
(0.0995549 0.000265843 0)
(0.0994388 0.000263403 0)
(0.0993249 0.000256468 0)
(0.0992153 0.000248329 0)
(0.0991106 0.000240891 0)
(0.0990107 0.000234883 0)
(0.0989153 0.000230283 0)
(0.098824 0.000226705 0)
(0.0987362 0.000223678 0)
(0.0986518 0.000220791 0)
(0.0985706 0.000217744 0)
(0.0984925 0.000214345 0)
(0.0984175 0.000210486 0)
(0.0983455 0.000206117 0)
(0.0982767 0.000201223 0)
(0.098211 0.00019581 0)
(0.0981484 0.000189899 0)
(0.098089 0.000183519 0)
(0.0980327 0.000176706 0)
(0.0979795 0.000169506 0)
(0.0979294 0.000161974 0)
(0.0978824 0.00015417 0)
(0.0978383 0.00014617 0)
(0.0977971 0.000138056 0)
(0.0977586 0.000129923 0)
(0.0977226 0.000121878 0)
(0.0976891 0.000114038 0)
(0.0976578 0.000106533 0)
(0.0976285 9.9508e-05 0)
(0.0976009 9.31219e-05 0)
(0.0975749 8.75504e-05 0)
(0.09755 8.29881e-05 0)
(0.097526 7.96502e-05 0)
(0.0975024 7.77768e-05 0)
(0.097479 7.76354e-05 0)
(0.0974553 7.95252e-05 0)
(0.0974308 8.3781e-05 0)
(0.0974051 9.07792e-05 0)
(0.0973775 0.000100944 0)
(0.0973477 0.000114754 0)
(0.0973149 0.000132751 0)
(0.0972786 0.00015555 0)
(0.0972379 0.00018385 0)
(0.0971923 0.000218449 0)
(0.0971409 0.000260256 0)
(0.0970829 0.000310317 0)
(0.0970174 0.000369832 0)
(0.0969437 0.000440183 0)
(0.0968607 0.000522968 0)
(0.0967675 0.000620035 0)
(0.0966632 0.000733529 0)
(0.0965469 0.000865943 0)
(0.0964177 0.00102018 0)
(0.0962751 0.00119961 0)
(0.0961185 0.00140818 0)
(0.0959477 0.00165046 0)
(0.0957631 0.00193174 0)
(0.0955656 0.00225812 0)
(0.0953572 0.0026366 0)
(0.0951409 0.00307505 0)
(0.0949218 0.0035822 0)
(0.0947071 0.00416744 0)
(0.0945069 0.00484044 0)
(0.0943349 0.00561041 0)
(0.0942093 0.00648484 0)
(0.0941529 0.00746759 0)
(0.0941931 0.00855598 0)
(0.0943605 0.00973683 0)
(0.0946856 0.0109817 0)
(0.0951925 0.0122421 0)
(0.0958889 0.0134481 0)
(0.0967533 0.0145131 0)
(0.100003 -1.58868e-05 0)
(0.100014 -1.55813e-05 0)
(0.100024 6.98878e-06 0)
(0.100024 5.17603e-05 0)
(0.100005 0.00011203 0)
(0.0999634 0.00017643 0)
(0.0998978 0.000233389 0)
(0.0998117 0.000275156 0)
(0.0997107 0.000299444 0)
(0.0996013 0.000308537 0)
(0.099489 0.000307101 0)
(0.0993776 0.000300038 0)
(0.0992696 0.000291153 0)
(0.099166 0.000282732 0)
(0.0990669 0.000275737 0)
(0.0989724 0.000270249 0)
(0.0988818 0.000265905 0)
(0.098795 0.000262215 0)
(0.0987116 0.000258733 0)
(0.0986315 0.000255124 0)
(0.0985544 0.000251167 0)
(0.0984803 0.000246735 0)
(0.0984092 0.000241763 0)
(0.0983411 0.000236232 0)
(0.0982759 0.000230145 0)
(0.0982137 0.000223526 0)
(0.0981544 0.000216406 0)
(0.098098 0.000208829 0)
(0.0980444 0.000200848 0)
(0.0979937 0.000192527 0)
(0.0979457 0.000183939 0)
(0.0979003 0.000175172 0)
(0.0978574 0.000166322 0)
(0.0978169 0.000157501 0)
(0.0977786 0.000148832 0)
(0.0977424 0.000140451 0)
(0.097708 0.000132512 0)
(0.0976753 0.000125179 0)
(0.097644 0.000118638 0)
(0.0976137 0.00011309 0)
(0.0975843 0.000108761 0)
(0.0975555 0.000105896 0)
(0.0975268 0.00010477 0)
(0.0974978 0.000105689 0)
(0.0974684 0.000108991 0)
(0.0974379 0.000115056 0)
(0.0974059 0.000124308 0)
(0.097372 0.000137222 0)
(0.0973357 0.000154332 0)
(0.0972964 0.000176238 0)
(0.0972536 0.000203618 0)
(0.0972066 0.000237236 0)
(0.097155 0.000277957 0)
(0.097098 0.000326762 0)
(0.0970351 0.000384764 0)
(0.0969655 0.000453228 0)
(0.0968887 0.000533597 0)
(0.0968041 0.000627513 0)
(0.0967111 0.000736852 0)
(0.0966091 0.000863754 0)
(0.0964979 0.00101066 0)
(0.0963772 0.00118035 0)
(0.096247 0.001376 0)
(0.0961078 0.00160118 0)
(0.0959603 0.00185994 0)
(0.0958058 0.00215679 0)
(0.0956466 0.00249673 0)
(0.0954859 0.00288519 0)
(0.0953279 0.00332794 0)
(0.0951787 0.00383093 0)
(0.0950463 0.00439995 0)
(0.0949408 0.00504017 0)
(0.0948748 0.00575543 0)
(0.0948636 0.00654723 0)
(0.0949251 0.00741337 0)
(0.0950786 0.00834625 0)
(0.0953438 0.00933091 0)
(0.0957379 0.0103431 0)
(0.0962718 0.0113482 0)
(0.0969449 0.0123022 0)
(0.0977397 0.0131559 0)
(0.100003 -1.86881e-05 0)
(0.100014 -1.93924e-05 0)
(0.100026 4.92508e-06 0)
(0.100029 5.44066e-05 0)
(0.100016 0.000121919 0)
(0.0999818 0.000194992 0)
(0.0999246 0.000260642 0)
(0.0998469 0.000309889 0)
(0.0997535 0.000339715 0)
(0.0996501 0.00035225 0)
(0.0995423 0.000352442 0)
(0.0994341 0.000345688 0)
(0.0993282 0.000336307 0)
(0.0992261 0.000327002 0)
(0.0991283 0.000319012 0)
(0.0990349 0.000312569 0)
(0.0989455 0.000307371 0)
(0.0988599 0.000302931 0)
(0.0987778 0.000298781 0)
(0.0986989 0.000294558 0)
(0.098623 0.000290014 0)
(0.0985501 0.000285 0)
(0.0984801 0.000279439 0)
(0.0984128 0.000273301 0)
(0.0983484 0.00026659 0)
(0.0982866 0.000259326 0)
(0.0982276 0.000251548 0)
(0.0981712 0.000243304 0)
(0.0981173 0.000234656 0)
(0.098066 0.000225678 0)
(0.098017 0.000216456 0)
(0.0979704 0.000207088 0)
(0.0979259 0.000197688 0)
(0.0978835 0.000188382 0)
(0.0978429 0.000179312 0)
(0.097804 0.000170634 0)
(0.0977666 0.00016252 0)
(0.0977305 0.000155161 0)
(0.0976953 0.000148763 0)
(0.097661 0.000143557 0)
(0.0976271 0.000139795 0)
(0.0975934 0.000137753 0)
(0.0975596 0.00013774 0)
(0.0975253 0.000140095 0)
(0.0974902 0.000145194 0)
(0.0974539 0.000153456 0)
(0.0974159 0.000165346 0)
(0.097376 0.000181384 0)
(0.0973336 0.000202148 0)
(0.0972882 0.000228286 0)
(0.0972395 0.00026052 0)
(0.097187 0.000299662 0)
(0.0971302 0.000346618 0)
(0.0970687 0.000402408 0)
(0.097002 0.000468176 0)
(0.0969296 0.000545205 0)
(0.0968514 0.000634936 0)
(0.0967668 0.000738988 0)
(0.0966758 0.000859174 0)
(0.0965783 0.000997525 0)
(0.0964744 0.0011563 0)
(0.0963644 0.00133803 0)
(0.096249 0.00154549 0)
(0.0961293 0.00178172 0)
(0.0960066 0.00205005 0)
(0.0958832 0.00235401 0)
(0.0957619 0.00269732 0)
(0.0956466 0.00308376 0)
(0.0955421 0.00351703 0)
(0.0954545 0.00400054 0)
(0.0953913 0.00453706 0)
(0.0953614 0.00512832 0)
(0.0953754 0.00577446 0)
(0.0954449 0.00647336 0)
(0.0955825 0.00721985 0)
(0.0958009 0.0080049 0)
(0.0961117 0.00881481 0)
(0.0965235 0.00963081 0)
(0.0970402 0.0104292 0)
(0.0976583 0.0111826 0)
(0.0983649 0.011863 0)
(0.100003 -2.17369e-05 0)
(0.100014 -2.38042e-05 0)
(0.100027 1.8189e-06 0)
(0.100034 5.5552e-05 0)
(0.100026 0.000129982 0)
(0.0999991 0.000211684 0)
(0.0999504 0.000286337 0)
(0.0998813 0.000343681 0)
(0.0997958 0.000379838 0)
(0.099699 0.000396624 0)
(0.0995963 0.00039914 0)
(0.099492 0.000393206 0)
(0.0993889 0.000383645 0)
(0.0992889 0.000373606 0)
(0.0991929 0.00036465 0)
(0.099101 0.00035721 0)
(0.0990131 0.000351081 0)
(0.098929 0.000345811 0)
(0.0988483 0.000340926 0)
(0.0987709 0.000336042 0)
(0.0986964 0.000330887 0)
(0.0986248 0.000325292 0)
(0.098556 0.000319164 0)
(0.0984898 0.000312465 0)
(0.0984261 0.000305193 0)
(0.098365 0.000297369 0)
(0.0983062 0.000289035 0)
(0.0982499 0.000280247 0)
(0.0981958 0.000271073 0)
(0.0981439 0.000261599 0)
(0.0980941 0.000251921 0)
(0.0980462 0.000242152 0)
(0.0980002 0.000232421 0)
(0.0979558 0.000222869 0)
(0.097913 0.000213657 0)
(0.0978714 0.00020496 0)
(0.097831 0.000196969 0)
(0.0977915 0.000189898 0)
(0.0977526 0.000183977 0)
(0.0977142 0.000179461 0)
(0.0976759 0.000176627 0)
(0.0976376 0.000175783 0)
(0.0975988 0.000177263 0)
(0.0975594 0.000181438 0)
(0.0975189 0.000188717 0)
(0.097477 0.000199552 0)
(0.0974335 0.00021444 0)
(0.0973879 0.000233934 0)
(0.0973399 0.000258645 0)
(0.0972892 0.00028925 0)
(0.0972355 0.000326499 0)
(0.0971783 0.000371225 0)
(0.0971173 0.000424348 0)
(0.0970524 0.00048689 0)
(0.0969832 0.000559982 0)
(0.0969095 0.000644874 0)
(0.0968314 0.000742947 0)
(0.0967487 0.000855722 0)
(0.0966616 0.000984868 0)
(0.0965705 0.00113221 0)
(0.0964758 0.00129973 0)
(0.0963783 0.00148956 0)
(0.0962791 0.001704 0)
(0.0961798 0.00194543 0)
(0.0960823 0.00221634 0)
(0.0959892 0.00251924 0)
(0.0959036 0.00285656 0)
(0.0958294 0.00323057 0)
(0.0957713 0.00364316 0)
(0.0957349 0.00409569 0)
(0.0957266 0.0045887 0)
(0.0957537 0.00512161 0)
(0.095824 0.00569238 0)
(0.0959458 0.00629712 0)
(0.0961274 0.00692974 0)
(0.0963764 0.00758165 0)
(0.0966989 0.00824157 0)
(0.0970988 0.00889567 0)
(0.0975763 0.00952807 0)
(0.0981273 0.0101218 0)
(0.0987427 0.0106606 0)
(0.100003 -2.50317e-05 0)
(0.100015 -2.88185e-05 0)
(0.100029 -2.34931e-06 0)
(0.100038 5.51334e-05 0)
(0.100035 0.000136084 0)
(0.100014 0.000226287 0)
(0.0999738 0.00031017 0)
(0.0999132 0.000376169 0)
(0.0998357 0.000419424 0)
(0.0997459 0.00044128 0)
(0.099649 0.000446854 0)
(0.099549 0.00044231 0)
(0.0994494 0.000432948 0)
(0.0993522 0.00042238 0)
(0.0992584 0.000412536 0)
(0.0991685 0.000404091 0)
(0.0990824 0.000396984 0)
(0.099 0.000390824 0)
(0.0989211 0.000385152 0)
(0.0988452 0.000379573 0)
(0.0987723 0.000373796 0)
(0.0987022 0.000367634 0)
(0.0986346 0.000360977 0)
(0.0985694 0.000353779 0)
(0.0985066 0.00034603 0)
(0.0984461 0.000337753 0)
(0.0983878 0.000328991 0)
(0.0983315 0.000319807 0)
(0.0982772 0.000310277 0)
(0.0982247 0.000300496 0)
(0.098174 0.000290574 0)
(0.0981249 0.000280637 0)
(0.0980773 0.000270827 0)
(0.098031 0.000261304 0)
(0.0979858 0.000252242 0)
(0.0979417 0.000243836 0)
(0.0978982 0.000236297 0)
(0.0978554 0.000229859 0)
(0.0978129 0.000224773 0)
(0.0977705 0.000221317 0)
(0.097728 0.000219791 0)
(0.0976851 0.000220526 0)
(0.0976417 0.000223883 0)
(0.0975973 0.000230257 0)
(0.0975518 0.000240081 0)
(0.0975048 0.00025383 0)
(0.0974562 0.000272025 0)
(0.0974056 0.000295238 0)
(0.0973528 0.000324097 0)
(0.0972975 0.00035929 0)
(0.0972395 0.000401571 0)
(0.0971786 0.000451765 0)
(0.0971146 0.000510777 0)
(0.0970475 0.000579591 0)
(0.0969772 0.000659282 0)
(0.0969038 0.000751016 0)
(0.0968273 0.000856056 0)
(0.0967481 0.00097576 0)
(0.0966665 0.00111158 0)
(0.0965833 0.00126507 0)
(0.0964991 0.00143785 0)
(0.0964152 0.00163159 0)
(0.096333 0.00184803 0)
(0.0962541 0.00208888 0)
(0.0961808 0.00235578 0)
(0.0961157 0.00265028 0)
(0.0960618 0.00297367 0)
(0.096023 0.00332693 0)
(0.0960032 0.00371058 0)
(0.0960071 0.00412449 0)
(0.0960398 0.00456775 0)
(0.0961068 0.00503846 0)
(0.0962135 0.00553353 0)
(0.0963655 0.00604857 0)
(0.0965677 0.0065777 0)
(0.0968243 0.0071136 0)
(0.0971382 0.00764751 0)
(0.0975103 0.00816953 0)
(0.0979396 0.00866909 0)
(0.0984221 0.00913556 0)
(0.0989513 0.00955927 0)
(0.100003 -2.85618e-05 0)
(0.100015 -3.44079e-05 0)
(0.100029 -7.54049e-06 0)
(0.100041 5.31858e-05 0)
(0.100042 0.000140224 0)
(0.100027 0.000238729 0)
(0.0999938 0.000331976 0)
(0.0999412 0.000407093 0)
(0.0998715 0.000458141 0)
(0.0997889 0.00048585 0)
(0.0996981 0.00049522 0)
(0.0996032 0.000492667 0)
(0.0995077 0.000483933 0)
(0.0994137 0.000473101 0)
(0.0993227 0.0004625 0)
(0.0992351 0.000453096 0)
(0.0991512 0.000445004 0)
(0.0990709 0.000437926 0)
(0.0989938 0.000431441 0)
(0.0989197 0.000425155 0)
(0.0988484 0.000418767 0)
(0.0987797 0.000412071 0)
(0.0987134 0.000404945 0)
(0.0986493 0.000397331 0)
(0.0985874 0.000389214 0)
(0.0985275 0.000380615 0)
(0.0984695 0.00037158 0)
(0.0984132 0.000362177 0)
(0.0983586 0.000352491 0)
(0.0983056 0.000342627 0)
(0.0982539 0.000332704 0)
(0.0982036 0.000322864 0)
(0.0981543 0.000313261 0)
(0.0981061 0.000304069 0)
(0.0980586 0.000295481 0)
(0.0980118 0.000287706 0)
(0.0979654 0.000280974 0)
(0.0979193 0.000275535 0)
(0.0978732 0.000271661 0)
(0.097827 0.000269646 0)
(0.0977805 0.000269812 0)
(0.0977333 0.000272507 0)
(0.0976854 0.000278111 0)
(0.0976365 0.000287035 0)
(0.0975864 0.000299729 0)
(0.0975348 0.00031668 0)
(0.0974817 0.000338419 0)
(0.0974267 0.000365522 0)
(0.0973698 0.000398615 0)
(0.0973107 0.000438375 0)
(0.0972495 0.000485535 0)
(0.097186 0.000540887 0)
(0.0971202 0.000605283 0)
(0.0970522 0.000679636 0)
(0.0969821 0.000764922 0)
(0.0969102 0.000862178 0)
(0.0968368 0.0009725 0)
(0.0967624 0.00109703 0)
(0.0966876 0.00123697 0)
(0.0966133 0.00139352 0)
(0.0965405 0.00156792 0)
(0.0964705 0.00176137 0)
(0.0964048 0.00197503 0)
(0.0963452 0.00220995 0)
(0.096294 0.00246706 0)
(0.0962536 0.00274702 0)
(0.0962268 0.00305025 0)
(0.0962167 0.00337675 0)
(0.0962267 0.00372606 0)
(0.0962604 0.00409715 0)
(0.0963216 0.00448828 0)
(0.0964142 0.00489696 0)
(0.0965416 0.00531986 0)
(0.0967074 0.00575275 0)
(0.0969142 0.00619055 0)
(0.0971639 0.00662735 0)
(0.0974576 0.00705661 0)
(0.0977949 0.00747135 0)
(0.0981742 0.00786449 0)
(0.0985921 0.00822929 0)
(0.099044 0.00855985 0)
(0.100003 -3.23096e-05 0)
(0.100014 -4.05219e-05 0)
(0.10003 -1.36629e-05 0)
(0.100043 4.98321e-05 0)
(0.100047 0.000142522 0)
(0.100037 0.000249078 0)
(0.10001 0.00035173 0)
(0.0999645 0.000436313 0)
(0.0999023 0.000495739 0)
(0.0998268 0.000530008 0)
(0.0997423 0.000543875 0)
(0.0996529 0.000543919 0)
(0.0995619 0.000536279 0)
(0.0994717 0.000525502 0)
(0.0993839 0.000514338 0)
(0.0992991 0.000504075 0)
(0.0992177 0.000495042 0)
(0.0991395 0.000487065 0)
(0.0990644 0.000479778 0)
(0.0989922 0.000472807 0)
(0.0989226 0.000465846 0)
(0.0988554 0.000458678 0)
(0.0987903 0.000451168 0)
(0.0987273 0.000443248 0)
(0.0986662 0.000434898 0)
(0.0986068 0.000426138 0)
(0.098549 0.000417015 0)
(0.0984927 0.000407602 0)
(0.0984378 0.000397991 0)
(0.0983841 0.000388297 0)
(0.0983314 0.00037865 0)
(0.0982797 0.000369202 0)
(0.0982288 0.000360121 0)
(0.0981786 0.000351595 0)
(0.0981288 0.000343829 0)
(0.0980794 0.000337048 0)
(0.0980301 0.000331495 0)
(0.0979808 0.000327436 0)
(0.0979313 0.000325156 0)
(0.0978814 0.000324965 0)
(0.097831 0.000327197 0)
(0.0977799 0.000332214 0)
(0.0977279 0.000340403 0)
(0.0976748 0.000352187 0)
(0.0976206 0.000368017 0)
(0.097565 0.000388382 0)
(0.097508 0.000413807 0)
(0.0974494 0.000444856 0)
(0.0973892 0.000482132 0)
(0.0973274 0.000526279 0)
(0.0972639 0.000577987 0)
(0.0971988 0.000637982 0)
(0.0971324 0.000707036 0)
(0.0970646 0.000785956 0)
(0.096996 0.000875586 0)
(0.0969268 0.000976797 0)
(0.0968575 0.00109048 0)
(0.0967889 0.00121755 0)
(0.0967217 0.00135888 0)
(0.0966568 0.00151537 0)
(0.0965954 0.00168783 0)
(0.0965388 0.00187701 0)
(0.0964886 0.00208356 0)
(0.0964465 0.00230796 0)
(0.0964145 0.0025505 0)
(0.0963948 0.00281121 0)
(0.0963897 0.00308984 0)
(0.0964017 0.00338575 0)
(0.0964334 0.00369788 0)
(0.0964876 0.00402471 0)
(0.0965668 0.00436417 0)
(0.0966735 0.00471368 0)
(0.0968099 0.00507008 0)
(0.0969779 0.00542968 0)
(0.0971787 0.0057883 0)
(0.0974132 0.00614139 0)
(0.0976811 0.00648415 0)
(0.0979817 0.00681167 0)
(0.0983131 0.0071192 0)
(0.0986727 0.00740237 0)
(0.099057 0.00765751 0)
(0.100003 -3.62526e-05 0)
(0.100014 -4.7094e-05 0)
(0.10003 -2.05893e-05 0)
(0.100043 4.52579e-05 0)
(0.10005 0.000143194 0)
(0.100044 0.000257523 0)
(0.100022 0.000369534 0)
(0.099983 0.000463809 0)
(0.0999276 0.00053207 0)