/*--------------------------------*- C++ -*----------------------------------*\
| =========                 |                                                 |
| \\      /  F ield         | OpenFOAM: The Open Source CFD Toolbox           |
|  \\    /   O peration     | Version:  5.x                                   |
|   \\  /    A nd           | Web:      www.OpenFOAM.org                      |
|    \\/     M anipulation  |                                                 |
\*---------------------------------------------------------------------------*/
FoamFile
{
    version     2.0;
    format      ascii;
    class       surfaceVectorField;
    location    "1.3";
    object      Uf;
}
// * * * * * * * * * * * * * * * * * * * * * * * * * * * * * * * * * * * * * //

dimensions      [0 1 -1 0 0 0 0];

internalField   nonuniform List<vector> 
5457
(
(9.9109 0.0233507 6.73444e-20)
(9.96385 0.0367411 2.52962e-23)
(9.81282 0.028845 -1.04905e-21)
(9.92542 0.0421355 1.39085e-20)
(9.70464 0.0333377 -7.45383e-20)
(9.86073 0.0486576 9.92631e-20)
(9.58347 0.0381262 4.53616e-21)
(9.7748 0.0569908 -7.33935e-22)
(9.44939 0.0431269 5.99992e-20)
(9.67406 0.0658524 -2.40357e-19)
(9.30271 0.048354 6.71908e-20)
(9.56023 0.0751498 2.48629e-19)
(9.14334 0.0539241 -7.42135e-20)
(9.4329 0.0850964 -1.90192e-19)
(8.9709 0.0599531 -6.18386e-20)
(9.29148 0.0958846 -1.36145e-19)
(8.78483 0.066545 6.9019e-20)
(9.13548 0.107675 -2.04685e-19)
(8.58441 0.0738041 0)
(8.96437 0.120628 2.82171e-19)
(8.36878 0.0818424 -8.08511e-20)
(8.77747 0.134914 0)
(8.13697 0.0907818 -7.79724e-20)
(8.57393 0.150721 1.48755e-19)
(7.88787 0.100754 0)
(8.35275 0.168252 1.57872e-19)
(7.62028 0.111903 4.62818e-19)
(8.11281 0.187719 0)
(7.33289 0.124385 -3.33649e-20)
(7.85286 0.209346 3.69385e-19)
(7.0243 0.138374 -4.64001e-19)
(7.57158 0.233375 -2.04885e-19)
(6.69301 0.154056 0)
(7.26751 0.260055 -1.86022e-19)
(6.33749 0.171627 0)
(6.9391 0.289629 0)
(5.95617 0.191287 0)
(6.58474 0.322321 2.03991e-19)
(5.54752 0.213229 0)
(6.20278 0.35831 -4.28511e-19)
(5.11011 0.237635 0)
(5.79158 0.397694 0)
(4.64273 0.264668 0)
(5.34957 0.440465 -4.75892e-19)
(4.14441 0.294465 3.06497e-19)
(4.87529 0.486462 -3.55752e-18)
(3.61462 0.327094 2.98536e-19)
(4.36751 0.535296 -1.51102e-20)
(3.05337 0.362448 0)
(3.82513 0.586225 -6.17101e-19)
(2.46148 0.399911 -3.07287e-18)
(3.24734 0.637901 -4.92007e-18)
(1.84091 0.437202 2.40428e-19)
(2.63326 0.687616 7.26703e-18)
(1.19603 0.464118 3.29293e-18)
(1.98079 0.729071 3.27432e-18)
(0.530232 0.364207 0)
(1.27207 0.746124 0)
(0.608662 0.606747 -2.784e-17)
(10.0027 0.0455892 -5.30792e-20)
(9.99518 0.0356614 -5.41304e-20)
(9.97291 0.0588639 1.16111e-19)
(9.98592 0.0549424 -5.52229e-20)
(9.92536 0.0705157 1.70914e-19)
(9.95375 0.0700791 5.68948e-20)
(9.86206 0.083219 -2.50654e-19)
(9.90023 0.086802 -5.80698e-20)
(9.78308 0.0967964 -4.17485e-20)
(9.83069 0.10469 -1.81569e-19)
(9.68868 0.111239 -1.75145e-20)
(9.74711 0.123573 4.96697e-19)
(9.57893 0.126791 -2.51092e-19)
(9.64938 0.143767 -5.1014e-19)
(9.45365 0.14372 -2.80303e-19)
(9.53706 0.165637 3.95238e-19)
(9.31241 0.162276 1.76141e-20)
(9.40979 0.189512 -4.53214e-22)
(9.15464 0.182707 2.76985e-19)
(9.26716 0.215718 -2.75946e-19)
(8.97959 0.205283 2.3235e-19)
(9.10862 0.2446 -1.44723e-19)
(8.7864 0.230296 3.84828e-19)
(8.93345 0.276542 -6.74169e-19)
(8.57405 0.258058 1.55094e-19)
(8.74077 0.311955 1.869e-18)
(8.34139 0.288897 -8.70489e-20)
(8.52959 0.351281 -1.60184e-18)
(8.08714 0.32317 1.87907e-19)
(8.29875 0.394992 -8.55797e-20)
(7.8099 0.361249 7.36012e-20)
(8.04702 0.443602 -2.52767e-19)
(7.50815 0.403512 -1.82947e-19)
(7.77298 0.497648 -5.34171e-21)
(7.18025 0.450325 2.07396e-19)
(7.4751 0.557674 3.7518e-19)
(6.82448 0.502012 -2.34737e-19)
(7.15174 0.624204 7.68746e-21)
(6.43905 0.558815 -4.21983e-19)
(6.80107 0.697703 -3.31533e-18)
(6.02216 0.62085 -4.83208e-19)
(6.42114 0.77852 6.85066e-18)
(5.572 0.688066 -4.07912e-18)
(6.00989 0.866835 -6.75433e-18)
(5.08679 0.760192 -3.83681e-18)
(5.56508 0.962602 8.21485e-18)
(4.56474 0.836654 -9.41554e-19)
(5.08429 1.06546 -8.18083e-18)
(4.00389 0.916418 -5.58715e-18)
(4.56457 1.17461 -1.13232e-18)
(3.40185 0.997655 5.50242e-18)
(4.00207 1.28861 -4.93358e-18)
(2.75427 1.07726 1.03165e-17)
(3.39101 1.40518 2.89189e-17)
(2.05019 1.15149 0)
(2.72178 1.52094 1.22474e-19)
(1.24911 1.21254 -2.87509e-17)
(1.95915 1.63749 -2.04375e-17)
(1.16821 1.75466 -2.77863e-17)
(9.99531 0.0483324 -5.62953e-20)
(9.99277 0.0375962 0)
(9.96909 0.0693894 -1.11969e-19)
(9.98099 0.0662008 5.47967e-20)
(9.92496 0.0891294 -1.74615e-19)
(9.94989 0.0899254 3.95694e-19)
(9.86621 0.110277 8.45773e-21)
(9.89918 0.114425 -3.49357e-19)
(9.79337 0.132918 3.7075e-19)
(9.8331 0.140465 3.58064e-19)
(9.70657 0.157117 -1.59976e-20)
(9.75373 0.168046 4.93615e-19)
(9.6059 0.183211 1.53861e-19)
(9.66119 0.197529 -1.27284e-19)
(9.49127 0.211604 6.6764e-19)
(9.55515 0.2294 5.25602e-19)
(9.36237 0.242694 -2.99189e-19)
(9.43534 0.264139 5.46412e-19)
(9.21876 0.276891 -6.95426e-19)
(9.3015 0.302219 -5.5363e-19)
(9.05985 0.31464 -1.06102e-18)
(9.1532 0.344144 2.93808e-19)
(8.8849 0.356431 8.55549e-19)
(8.98991 0.390469 -1.93373e-18)
(8.69306 0.402794 5.09891e-20)
(8.81095 0.441801 1.71204e-18)
(8.48334 0.454297 -1.57455e-18)
(8.61555 0.498793 -1.28564e-18)
(8.25462 0.511559 -5.29204e-19)
(8.40278 0.562161 -3.27429e-19)
(8.00564 0.575242 -3.27823e-19)
(8.17162 0.63269 2.55558e-18)
(7.73498 0.646036 5.59323e-19)
(7.92092 0.71122 -2.62231e-18)
(7.44107 0.724632 1.69744e-19)
(7.64937 0.79863 9.03824e-21)
(7.12216 0.811696 -3.12698e-18)
(7.3555 0.895822 -1.96569e-19)
(6.77627 0.907812 4.11268e-18)
(7.03764 1.00369 -4.98947e-19)
(6.40119 1.01342 3.85246e-19)
(6.69377 1.12302 1.02101e-17)
(5.99445 1.12874 5.74578e-18)
(6.32155 1.25449 -6.63813e-18)
(5.55319 1.25374 3.68564e-18)
(5.91823 1.39858 -4.22738e-18)
(5.07393 1.38804 -8.31214e-18)
(5.48039 1.55557 -4.97248e-19)
(4.552 1.53104 -5.11525e-19)
(5.00344 1.72556 -5.06566e-19)
(3.98046 1.68207 1.86698e-17)
(4.48095 1.90865 0)
(3.34799 1.84113 1.8776e-17)
(3.90324 2.10574 1.8652e-17)
(2.63341 2.0102 -2.00423e-17)
(3.2558 2.3205 2.28657e-18)
(1.80946 2.22195 -1.97656e-17)
(2.52345 2.55492 -2.05099e-17)
(1.60569 2.92277 -4.07127e-17)
(9.99086 0.0557557 1.12171e-19)
(9.9913 0.0413704 -3.76826e-19)
(9.96477 0.085898 5.70174e-19)
(9.97761 0.0774159 -5.49704e-20)
(9.92146 0.114395 2.04985e-19)
(9.94635 0.109418 -1.11356e-19)
(9.86359 0.143857 1.49584e-20)
(9.8966 0.14166 -4.64363e-19)
(9.79208 0.174936 4.83706e-19)
(9.83179 0.175617 -2.3892e-19)
(9.70714 0.207953 3.70012e-19)
(9.75399 0.211603 7.34512e-19)
(9.60891 0.243381 2.57156e-19)
(9.66347 0.250039 -1.24833e-19)
(9.49739 0.281762 4.04705e-19)
(9.55998 0.291501 1.29858e-19)
(9.37241 0.323647 2.7151e-19)
(9.44334 0.33659 1.87806e-18)
(9.23367 0.369601 4.51314e-19)
(9.31338 0.385904 -1.09137e-18)
(9.08077 0.420234 -6.18916e-19)
(9.16982 0.440075 1.00598e-18)
(8.91321 0.476211 -1.01302e-18)
(9.01226 0.499797 -7.39437e-19)
(8.73038 0.538257 3.22796e-19)
(8.84025 0.565826 1.21425e-18)
(8.5316 0.607167 -2.12505e-20)
(8.65324 0.638998 1.5849e-18)
(8.31603 0.683815 2.807e-18)
(8.45055 0.720236 -5.16118e-18)
(8.08275 0.769149 1.76523e-19)
(8.23146 0.810551 5.39726e-18)
(7.83072 0.864185 -3.13249e-18)
(7.99515 0.911048 -3.43987e-20)
(7.55872 0.969997 -3.61047e-19)
(7.74068 1.02292 -3.20213e-18)
(7.26536 1.08769 2.43015e-18)
(7.46695 1.14745 -7.35368e-19)
(6.94892 1.21837 5.75921e-18)
(7.17271 1.286 3.16351e-18)
(6.60729 1.36304 2.95599e-18)
(6.8563 1.43995 2.56771e-18)
(6.23788 1.52264 -1.65916e-17)
(6.51549 1.61062 4.67449e-19)
(5.83739 1.698 -8.4156e-18)
(6.14761 1.79943 -1.52344e-17)
(5.40139 1.88985 7.34856e-18)
(5.749 2.0078 6.5433e-18)
(4.92369 2.099 9.15914e-21)
(5.31451 2.23731 9.2088e-19)
(4.39513 2.32716 0)
(4.83694 2.49015 0)
(3.80211 2.57874 2.15579e-18)
(4.30603 2.7701 -1.90256e-18)
(3.12079 2.85423 2.20443e-18)
(3.70207 3.08715 -1.54562e-17)
(2.37007 3.18985 -4.22194e-17)
(3.06915 3.40527 1.7899e-17)
(2.05342 3.96125 -4.06767e-17)
(9.98845 0.0637121 -5.37938e-19)
(9.99046 0.0461378 4.83128e-19)
(9.96193 0.101363 -7.37908e-19)
(9.97566 0.0888322 -1.65075e-19)
(9.9194 0.137467 -7.88412e-19)
(9.94437 0.128583 -5.64214e-19)
(9.86251 0.174462 -7.13682e-19)
(9.89557 0.168465 -1.38537e-21)
(9.79228 0.213405 3.15113e-20)
(9.83214 0.21018 -2.40561e-19)
(9.70907 0.254838 2.22696e-19)
(9.75606 0.254336 2.45437e-19)
(9.61301 0.299326 -2.47334e-19)
(9.66765 0.301469 2.4863e-19)
(9.50412 0.347501 1.63637e-18)
(9.56673 0.352242 -2.57991e-19)
(9.38228 0.400011 4.60438e-19)
(9.45315 0.407355 1.51308e-20)
(9.2473 0.45753 -4.99059e-19)
(9.3268 0.46751 8.10485e-19)
(9.09886 0.520777 8.5469e-19)
(9.18747 0.533452 -8.30082e-19)
(8.9366 0.590537 1.52299e-18)
(9.03488 0.605982 1.16379e-18)
(8.76012 0.667675 2.48367e-18)
(8.86868 0.685983 3.07927e-20)
(8.5689 0.753156 -3.66989e-18)
(8.68847 0.774444 -5.85567e-19)
(8.36237 0.848038 -2.40014e-18)
(8.49378 0.872453 -2.32262e-18)
(8.1399 0.953486 5.10081e-18)
(8.28412 0.981197 3.29838e-18)
(7.90077 1.07078 -1.49384e-19)
(8.05895 1.102 5.48351e-18)
(7.64416 1.20131 -3.54236e-18)
(7.81764 1.23631 -5.60187e-18)
(7.36912 1.3466 5.24549e-20)
(7.55939 1.38576 5.02877e-18)
(7.07443 1.50829 -4.21071e-20)
(7.28348 1.55215 -5.10828e-18)
(6.75836 1.68805 4.69727e-20)
(6.98873 1.73746 -2.52772e-20)
(6.41863 1.88767 1.66981e-18)
(6.67326 1.94379 6.3355e-18)
(6.0522 2.10913 -3.52785e-20)
(6.3349 2.17351 -4.7682e-18)
(5.65472 2.35467 4.99979e-20)
(5.97049 2.42943 -4.17245e-20)
(5.22003 2.62697 9.11909e-19)
(5.57544 2.71481 9.16326e-19)
(4.73949 2.92948 -1.90087e-18)
(5.14325 3.03363 0)
(4.20216 3.26892 -1.94301e-17)
(4.66657 3.38991 -1.41107e-19)
(3.58086 3.6392 -4.94165e-19)
(4.11485 3.80062 -1.60286e-17)
(2.92927 4.05953 1.71462e-17)
(3.62096 4.16617 -1.18231e-17)
(2.52466 4.86608 3.04098e-17)
(9.98719 0.0720791 8.43616e-19)
(9.99002 0.0514292 8.59744e-19)
(9.96036 0.116726 -1.37846e-22)
(9.9747 0.100389 0)
(9.9187 0.160302 2.35024e-19)
(9.94357 0.14738 -1.34897e-22)
(9.8631 0.204937 4.66945e-19)
(9.89584 0.194702 -2.30039e-19)
(9.79451 0.251817 -1.67764e-20)
(9.83409 0.243994 1.65084e-18)
(9.71338 0.301637 2.71375e-19)
(9.76009 0.29608 -7.26629e-19)
(9.61986 0.355061 2.28439e-19)
(9.67418 0.351644 2.51936e-19)
(9.51397 0.412805 -1.87488e-18)
(9.57622 0.411443 -2.8432e-21)
(9.39566 0.475611 3.79235e-19)
(9.46614 0.476257 -1.33049e-18)
(9.26477 0.544251 4.50811e-19)
(9.34385 0.546878 1.90949e-18)
(9.12108 0.619557 -4.86753e-19)
(9.20922 0.624154 -2.51154e-18)
(8.9643 0.702429 -3.48461e-19)
(9.06202 0.708997 2.00672e-18)
(8.7941 0.793863 -3.05187e-18)
(8.90198 0.802402 -1.1859e-18)
(8.61014 0.894964 7.34192e-19)
(8.72879 0.905471 -4.88373e-18)
(8.41203 1.00694 3.47228e-18)
(8.54217 1.01942 4.98893e-18)
(8.19936 1.13114 3.7137e-18)
(8.34181 1.14559 3.39207e-19)
(7.97166 1.26907 -1.35489e-19)
(8.12734 1.28549 2.7119e-18)
(7.72838 1.42238 3.12815e-18)
(7.89838 1.44082 -2.76768e-18)
(7.46891 1.59298 -2.65259e-19)
(7.6544 1.61345 1.20586e-17)
(7.19255 1.78302 -5.03869e-18)
(7.39497 1.80559 -1.15709e-17)
(6.89804 1.99485 6.34459e-18)
(7.1194 2.01985 -5.11489e-18)
(6.5836 2.23112 -2.03247e-19)
(6.82646 2.25905 1.07685e-17)
(6.24691 2.49492 -4.75839e-18)
(6.5145 2.52646 -6.4222e-18)
(5.88457 2.78989 8.33648e-19)
(6.18135 2.82605 1.33922e-17)
(5.4916 3.12034 0)
(5.82375 3.16248 -1.42513e-17)
(5.06102 3.49043 1.76749e-18)
(5.43651 3.54106 -1.58703e-18)
(4.5871 3.90639 3.52605e-18)
(5.01783 3.96338 1.787e-18)
(4.03795 4.3538 -2.76397e-17)
(4.51841 4.4559 2.54538e-17)
(3.48335 4.82454 4.65118e-18)
(4.17671 4.84096 -8.04361e-17)
(3.00918 5.65483 5.93331e-17)
(9.98663 0.0806579 -7.00647e-22)
(9.98984 0.0569502 -8.56239e-19)
(9.95975 0.131939 0)
(9.9744 0.111985 0)
(9.91898 0.18266 -4.70279e-19)
(9.94365 0.165805 2.2342e-19)
(9.8649 0.234671 9.92742e-19)
(9.89715 0.220271 -6.88965e-19)
(9.79829 0.289191 8.93531e-19)
(9.83734 0.276897 9.45541e-19)
(9.71961 0.347058 -7.272e-19)
(9.76576 0.336653 -9.6517e-19)
(9.62903 0.409053 1.56719e-20)
(9.68272 0.400362 1.23233e-18)
(9.52662 0.475987 5.1763e-19)
(9.58816 0.468866 7.91816e-21)
(9.41235 0.548686 2.58705e-19)
(9.48208 0.54302 -7.72328e-19)
(9.28613 0.628017 -1.13197e-18)
(9.36441 0.6237 -8.02131e-19)
(9.14779 0.714916 6.02772e-20)
(9.23505 0.711854 -2.41226e-20)
(8.99709 0.810385 1.11606e-18)
(9.09388 0.808504 3.39128e-18)
(8.8338 0.915521 -3.07827e-18)
(8.94066 0.914734 -2.87079e-18)
(8.6577 1.03154 -4.71955e-19)
(8.77521 1.03173 -3.03134e-18)
(8.46856 1.15979 1.78247e-18)
(8.59738 1.16083 2.47255e-18)
(8.26612 1.30177 -6.30989e-19)
(8.40696 1.30352 -6.4104e-19)
(8.0501 1.45919 0)
(8.20376 1.4615 0)
(7.82015 1.63396 6.36865e-18)
(7.9876 1.63666 0)
(7.57592 1.82826 4.57696e-19)
(7.7582 1.83115 6.29654e-18)
(7.31697 2.0447 -1.15815e-17)
(7.51522 2.0475 -5.69631e-18)
(7.04268 2.2863 -5.55202e-19)
(7.25843 2.28881 -5.90631e-18)
(6.75195 2.55645 4.42463e-18)
(6.98736 2.55861 5.9731e-18)
(6.44325 2.8592 1.18719e-17)
(6.70095 2.8609 -1.24484e-17)
(6.11449 3.19928 -1.71363e-18)
(6.39808 3.20059 1.25809e-17)
(5.7626 3.58188 -1.59466e-17)
(6.0771 3.58316 -2.47749e-18)
(5.3823 4.01106 -1.60789e-18)
(5.73397 4.01466 -2.37798e-17)
(4.97288 4.49095 2.34251e-17)
(5.37425 4.49212 2.49787e-17)
(4.49783 4.99864 -2.50696e-17)
(4.92217 5.05493 4.66896e-17)
(4.02639 5.49032 -1.57188e-17)
(4.72625 5.43985 -5.12986e-17)
(3.49223 6.32802 2.93119e-18)
(9.98649 0.089283 -8.39192e-19)
(9.98979 0.0625289 -5.35732e-19)
(9.95985 0.146924 2.28389e-19)
(9.97455 0.123493 1.08591e-19)
(9.92012 0.204456 -1.45935e-20)
(9.94447 0.183795 -2.20377e-19)
(9.86778 0.263548 -7.02875e-19)
(9.89942 0.245069 -2.28528e-19)
(9.80346 0.325432 -9.51884e-19)
(9.84178 0.308744 -9.36668e-19)
(9.72759 0.391063 1.03737e-18)
(9.77291 0.375884 -5.74519e-21)
(9.64035 0.461324 1.20202e-18)
(9.69311 0.447422 9.89327e-19)
(9.54187 0.537101 -1.29696e-18)
(9.60239 0.524271 7.52816e-19)
(9.43217 0.619299 -1.83462e-18)
(9.50079 0.607357 -5.17548e-19)
(9.3112 0.708877 3.19578e-19)
(9.38828 0.697648 -2.37889e-18)
(9.17882 0.806868 3.36673e-18)
(9.26478 0.796192 1.09086e-18)
(9.0349 0.914369 -6.9934e-19)
(9.13026 0.904095 2.81002e-18)
(8.87929 1.03256 -2.82735e-18)
(8.98458 1.02251 -1.74166e-18)
(8.71186 1.16275 0)
(8.82766 1.15272 0)
(8.5325 1.30643 0)
(8.65942 1.29617 0)
(8.34108 1.46525 0)
(8.47978 1.45452 -6.06107e-19)
(8.1375 1.6411 0)
(8.28872 1.62957 0)
(7.92162 1.83611 0)
(8.08621 1.82345 0)
(7.69324 2.05276 0)
(7.87221 2.03857 -5.85932e-18)
(7.4522 2.29402 0)
(7.64655 2.27778 1.72068e-17)
(7.19837 2.56345 7.27426e-19)
(7.40934 2.54451 -1.07213e-17)
(6.93142 2.8651 -1.1044e-17)
(7.16072 2.84289 -8.85619e-18)
(6.65067 3.20374 -1.17436e-17)
(6.90034 3.17758 -7.56273e-19)
(6.35522 3.58487 1.18352e-17)
(6.628 3.55414 -5.20463e-20)
(6.04384 4.01405 -1.01283e-17)
(6.3435 3.97851 1.19955e-17)
(5.71268 4.49429 2.23779e-18)
(6.04332 4.45714 -2.23631e-17)
(5.36438 5.02675 4.80063e-17)
(5.74117 4.98062 2.38291e-17)
(4.95808 5.58159 2.31613e-17)
(5.32894 5.60404 2.29695e-17)
(4.54363 6.07776 -2.94659e-17)
(5.25862 5.98242 -5.93666e-19)
(3.96115 6.91478 -4.75758e-17)
(9.98661 0.0978265 4.25061e-19)
(9.98981 0.068063 1.16945e-18)
(9.96052 0.161577 -3.4754e-19)
(9.975 0.134781 3.24362e-19)
(9.92206 0.225593 -4.34593e-19)
(9.94588 0.201245 2.19793e-19)
(9.87168 0.29145 -4.76779e-19)
(9.90252 0.268995 4.53337e-19)
(9.80992 0.360396 2.81713e-20)
(9.84727 0.339407 -4.65747e-19)
(9.73718 0.433471 -3.4782e-20)
(9.78141 0.413611 -9.46823e-19)
(9.65368 0.511638 5.35217e-19)
(9.7052 0.492621 -4.95247e-19)
(9.55959 0.595853 1.51029e-18)
(9.61872 0.577412 1.00085e-18)
(9.45496 0.687102 -1.09394e-18)
(9.52206 0.66899 1.02803e-18)
(9.33978 0.786438 -1.54931e-18)
(9.41517 0.76842 -1.05559e-18)
(9.21397 0.89498 5.61054e-19)
(9.29807 0.876826 -2.13671e-18)
(9.07748 1.0139 1.69524e-18)
(9.17081 0.995377 2.17665e-18)
(8.93027 1.14445 1.11671e-18)
(9.03335 1.12531 2.15468e-20)
(8.7723 1.28804 0)
(8.88567 1.26797 0)
(8.60357 1.44628 -6.15213e-19)
(8.72784 1.42494 -5.79204e-19)
(8.42407 1.62097 -5.98864e-19)
(8.55988 1.59798 5.79163e-19)
(8.23386 1.81416 0)
(8.38191 1.78907 0)
(8.033 2.02824 -5.93338e-18)
(8.19406 2.00051 4.94782e-18)
(7.82153 2.26596 1.1589e-17)
(7.99651 2.23501 -8.99912e-18)
(7.59957 2.53058 6.28333e-18)
(7.78941 2.49566 5.80319e-18)
(7.36736 2.82606 -2.03463e-17)
(7.57315 2.78623 7.59181e-19)
(7.12515 3.15707 1.46633e-18)
(7.34822 3.11129 -1.22237e-17)
(6.87313 3.52893 1.10242e-17)
(7.11504 3.47614 1.10552e-17)
(6.61143 3.94764 3.0186e-20)
(6.87418 3.8868 -1.28086e-18)
(6.34005 4.41898 3.05635e-20)
(6.62656 4.34948 1.32653e-18)
(6.05589 4.94432 -1.34908e-18)
(6.36825 4.87108 1.87424e-17)
(5.76278 5.5215 -1.38567e-18)
(6.1211 5.43482 -1.68286e-18)
(5.41614 6.11708 0)
(5.74192 6.11311 -1.83702e-17)
(5.03107 6.62005 -2.32164e-17)
(5.77301 6.49382 -1.81661e-17)
(4.41596 7.47238 -2.14055e-17)
(9.9869 0.106187 1.0528e-18)
(9.98988 0.0734786 1.76636e-21)
(9.96161 0.175792 8.8981e-19)
(9.97568 0.145745 -2.15437e-19)
(9.92463 0.245969 1.11314e-18)
(9.94776 0.218063 6.64339e-19)
(9.87643 0.318265 4.45929e-19)
(9.9063 0.291955 4.53614e-19)
(9.81749 0.393942 -1.45055e-18)
(9.85366 0.368768 1.61282e-21)
(9.74819 0.474105 -1.3993e-18)
(9.79105 0.449682 -1.42469e-18)
(9.6688 0.559784 -2.07149e-21)
(9.71876 0.535771 1.92488e-18)
(9.57951 0.652005 5.1852e-19)
(9.6369 0.62808 5.0955e-21)
(9.48038 0.75184 1.0312e-18)
(9.54553 0.727702 -9.94643e-19)
(9.37144 0.860418 -1.66059e-18)
(9.44468 0.835771 2.58314e-18)
(9.25273 0.978919 -4.52476e-19)
(9.33446 0.953455 -4.23178e-18)
(9.12429 1.10857 4.6909e-19)
(9.21503 1.08199 1.62663e-18)
(8.98616 1.25072 -1.09789e-18)
(9.08642 1.22269 1.08314e-18)
(8.83842 1.40687 -5.87924e-19)
(8.9487 1.37699 -2.77826e-18)
(8.68117 1.57872 6.31468e-19)
(8.80205 1.54655 -1.01006e-20)
(8.51454 1.76825 1.17364e-18)
(8.64666 1.73326 1.18459e-18)
(8.33873 1.97765 5.01068e-18)
(8.48275 1.93925 0)
(8.15401 2.20953 1.75467e-18)
(8.31064 2.16702 3.77796e-18)
(7.96068 2.46691 -1.46922e-17)
(8.13073 2.41948 5.34185e-18)
(7.75918 2.75334 1.97687e-19)
(7.94352 2.70003 -2.2468e-17)
(7.55005 3.07316 8.91044e-18)
(7.74967 3.01278 2.01808e-17)
(7.33406 3.43147 -2.59552e-18)
(7.55004 3.36265 -1.11833e-17)
(7.11208 3.83418 -1.28234e-18)
(7.34565 3.75545 -1.21088e-18)
(6.88503 4.28762 -6.28711e-22)
(7.13773 4.19775 -6.6759e-20)
(6.65365 4.79782 1.99536e-17)
(6.9281 4.69596 1.30591e-18)
(6.41465 5.36479 1.88046e-17)
(6.71145 5.25779 1.78972e-18)
(6.17073 5.98395 -1.87081e-17)
(6.51724 5.85978 1.86927e-17)
(5.87551 6.62181 -3.66164e-17)
(6.16809 6.59179 -2.29343e-18)
(5.50665 7.15142 -1.53101e-17)
(6.28135 6.99427 -1.89799e-17)
(4.86891 8.04538 -3.61038e-17)
(9.98733 0.114288 -1.27144e-18)
(9.98999 0.0787203 -7.42957e-19)
(9.96303 0.18948 -4.21975e-19)
(9.97654 0.156301 -1.18088e-18)
(9.92771 0.265499 0)
(9.95002 0.234171 -2.18923e-19)
(9.88188 0.343891 0)
(9.91065 0.313863 4.481e-19)
(9.82599 0.425942 0)
(9.8608 0.396716 -1.37257e-18)
(9.76042 0.512809 1.96392e-18)
(9.8017 0.483957 1.8685e-18)
(9.68545 0.605581 1.89805e-18)
(9.73362 0.57672 1.45482e-18)
(9.60127 0.705357 -1.5264e-18)
(9.65665 0.676113 -1.9432e-18)
(9.50799 0.813277 6.17314e-19)
(9.57091 0.783295 -5.12097e-19)
(9.40574 0.93052 -9.84473e-20)
(9.47652 0.899438 2.92637e-20)
(9.29466 1.05832 -2.06111e-18)
(9.37366 1.02576 -5.48179e-19)
(9.17486 1.19798 2.23289e-18)
(9.26256 1.16356 -2.64022e-18)
(9.04647 1.35091 -6.50843e-19)
(9.14338 1.31423 7.56974e-18)
(8.90967 1.51871 -2.16538e-18)
(9.01626 1.47928 -3.86935e-18)
(8.76471 1.70319 5.58836e-19)
(8.88153 1.66044 5.71648e-19)
(8.61186 1.90642 -4.97481e-21)
(8.73951 1.85972 -5.70975e-19)
(8.45148 2.13078 -1.20024e-18)
(8.59058 2.07939 0)
(8.28404 2.37906 7.38233e-18)
(8.43525 2.32209 -1.17694e-18)
(8.11014 2.65454 -2.60469e-18)
(8.27419 2.59096 9.66118e-18)
(7.93049 2.9611 -2.26475e-18)
(8.10819 2.8897 -1.0974e-17)
(7.74603 3.30339 -1.89257e-20)
(7.93827 3.22273 -7.22598e-19)
(7.55795 3.68695 -9.82589e-18)
(7.76566 3.59536 9.97967e-18)
(7.36772 4.11821 1.99998e-21)
(7.59198 4.01384 -1.84449e-17)
(7.17682 4.604 1.23702e-18)
(7.41892 4.48535 1.30007e-18)
(6.98638 5.15072 -1.6992e-17)
(7.2493 5.01668 8.80555e-18)
(6.79245 5.75798 1.41393e-18)
(7.07587 5.61684 -1.82619e-17)
(6.5943 6.42119 3.53162e-17)
(6.93478 6.25827 1.81037e-17)
(6.34639 7.10991 1.60075e-17)
(6.61877 7.04661 1.2714e-18)
(5.99369 7.69704 -4.12685e-17)
(6.80494 7.49771 1.48397e-17)
(5.34157 8.66813 -5.21454e-17)
(9.98787 0.122067 -6.608e-19)
(9.99014 0.083742 1.05495e-19)
(9.96472 0.202568 -9.57057e-19)
(9.97757 0.166381 1.05013e-19)
(9.93123 0.2841 2.43273e-19)
(9.9526 0.249494 -2.19071e-19)
(9.88794 0.36823 -9.61409e-19)
(9.91548 0.334634 4.47157e-19)
(9.83531 0.456271 5.58774e-19)
(9.86862 0.423145 -1.82961e-18)
(9.77373 0.549434 1.35178e-18)
(9.81326 0.516309 2.79533e-18)
(9.70345 0.648864 -2.44949e-18)
(9.74964 0.615321 -1.42159e-18)
(9.6247 0.755714 -9.04322e-19)
(9.67786 0.721333 -1.46904e-18)
(9.53766 0.871173 -1.09126e-18)
(9.59809 0.835542 9.97243e-19)
(9.44255 0.99646 -4.3113e-19)
(9.51057 0.959158 -2.03698e-18)
(9.33956 1.13287 -1.1576e-18)
(9.41546 1.09345 2.06009e-18)
(9.22889 1.28176 2.84485e-18)
(9.31311 1.23979 -2.12451e-18)
(9.1108 1.4446 4.19868e-18)
(9.20386 1.39958 6.96156e-18)
(8.9856 1.62307 -1.0729e-18)
(9.08793 1.57441 -3.75753e-18)
(8.85365 1.81907 -5.7322e-19)
(8.96574 1.7661 -4.34739e-18)
(8.71539 2.03476 -5.60801e-19)
(8.8378 1.97673 3.80955e-18)
(8.57137 2.27271 1.35138e-20)
(8.70466 2.20871 -5.54117e-18)
(8.42229 2.53584 1.1796e-18)
(8.56707 2.46482 5.58901e-18)
(8.26905 2.8277 1.16895e-18)
(8.42596 2.74837 1.01118e-17)
(8.11268 3.15247 -9.3926e-18)
(8.28246 3.06336 -1.67625e-17)
(7.9545 3.5151 9.28191e-18)
(8.13797 3.41449 -4.92509e-19)
(7.79619 3.92162 1.48337e-18)
(7.99418 3.80743 1.76196e-17)
(7.63981 4.37891 -1.73223e-17)
(7.85337 4.24886 -1.73293e-17)
(7.48729 4.89462 8.81759e-18)
(7.71772 4.74672 -8.27176e-18)
(7.3401 5.47589 7.90336e-18)
(7.59116 5.30844 3.39874e-17)
(7.19393 6.12346 -2.06766e-18)
(7.46481 5.9449 -1.6557e-17)
(7.04301 6.83611 -1.59672e-17)
(7.38072 6.62893 -1.03155e-18)
(6.84604 7.58952 2.58493e-19)
(7.11006 7.47801 -1.5007e-17)
(6.52354 8.27751 -2.74894e-18)
(7.37306 8.01046 1.5391e-17)
(5.86638 9.36724 -1.58526e-17)
(9.98851 0.129469 8.71626e-19)
(9.99034 0.0885011 -8.3514e-19)
(9.96665 0.214989 8.36516e-19)
(9.97874 0.175927 8.55472e-19)
(9.93513 0.301698 -1.27654e-21)
(9.95545 0.263969 0)
(9.89454 0.391188 -4.66645e-19)
(9.92074 0.354189 -4.4524e-19)
(9.8454 0.484812 4.95958e-19)
(9.87706 0.44795 -1.35921e-18)
(9.78804 0.583847 -5.64714e-20)
(9.82562 0.546612 1.84427e-18)
(9.72272 0.689482 -4.41331e-19)
(9.76668 0.651432 -4.8086e-19)
(9.64971 0.802899 4.75589e-19)
(9.70035 0.763571 4.8377e-19)
(9.56928 0.925327 2.26793e-21)
(9.62687 0.884247 4.89106e-19)
(9.48166 1.05802 5.19217e-19)
(9.54654 1.01473 1.98043e-18)
(9.38711 1.20231 1.0318e-18)
(9.45948 1.15632 -1.4916e-18)
(9.286 1.3596 2.12087e-18)
(9.36628 1.31039 2.56436e-18)
(9.17872 1.53141 -1.14154e-18)
(9.26743 1.47838 -4.75321e-19)
(9.06567 1.71949 -7.04509e-18)
(9.16316 1.66196 -2.67529e-18)
(8.94736 1.92582 1.24054e-19)
(9.05406 1.86304 -4.35767e-18)
(8.82439 2.15266 -1.26047e-18)
(8.9408 2.08375 4.38871e-18)
(8.69755 2.40266 1.22204e-19)
(8.82416 2.32656 -3.40845e-18)
(8.5678 2.67894 1.45752e-17)
(8.70512 2.59435 9.91103e-18)
(8.43635 2.9852 -7.94889e-18)
(8.58491 2.89063 -5.03105e-18)
(8.30461 3.32592 -7.84442e-18)
(8.46508 3.21958 -8.26986e-18)
(8.17434 3.70636 7.85118e-18)
(8.34743 3.58619 8.95235e-18)
(8.0478 4.13292 -1.09729e-18)
(8.23426 3.99634 9.89097e-19)
(7.92778 4.61305 -8.30518e-18)
(8.12856 4.45711 0)
(7.81675 5.15543 1.6503e-17)
(8.03345 4.97734 -8.38425e-18)
(7.71677 5.76835 1.00715e-17)
(7.95404 5.5652 2.47544e-17)
(7.62455 6.45579 -1.5694e-17)
(7.88126 6.23391 -1.46787e-17)
(7.52942 7.22411 0)
(7.86269 6.96258 0)
(7.3995 8.0581 -2.18753e-19)
(7.66203 7.87384 0)
(7.13769 8.90702 -1.99491e-19)
(8.02162 8.52638 1.04256e-17)
(6.48954 10.1702 -1.12069e-17)
(9.98926 0.136445 -8.19402e-19)
(9.99056 0.0929547 -1.06095e-19)
(9.96878 0.226686 0)
(9.98001 0.184896 9.49684e-19)
(9.93935 0.318224 -4.53408e-19)
(9.95852 0.277542 0)
(9.90164 0.412676 -1.35649e-18)
(9.92638 0.372457 -7.26938e-21)
(9.85614 0.511459 4.98807e-20)
(9.88602 0.471051 -1.35155e-18)
(9.80319 0.615922 1.37801e-18)
(9.83862 0.574782 1.82974e-18)
(9.74304 0.727282 4.61715e-19)
(9.78452 0.68495 4.65899e-19)
(9.67602 0.846723 4.97254e-19)
(9.72386 0.802697 -9.45725e-19)
(9.60246 0.975515 2.49241e-18)
(9.6569 0.929261 4.32704e-18)
(9.52261 1.11495 -8.2862e-20)
(9.58394 1.06599 1.99084e-18)
(9.43685 1.26634 9.80539e-20)
(9.50529 1.21415 -5.96242e-18)
(9.34572 1.43113 -7.37746e-20)
(9.4217 1.37508 2.0388e-18)
(9.24971 1.61092 -2.03893e-18)
(9.33361 1.55031 -5.46995e-19)
(9.14929 1.80749 0)
(9.24138 1.7416 -4.10661e-18)
(9.04512 2.0229 0)
(9.14579 1.95087 4.12651e-18)
(8.93802 2.25944 2.17116e-18)
(9.04765 2.18026 0)
(8.82904 2.51981 6.49151e-18)
(8.94806 2.43228 1.10638e-18)
(8.71943 2.80725 -9.81205e-18)
(8.84824 2.70986 1.59703e-19)
(8.61074 3.12567 -5.3794e-18)
(8.74971 3.01663 -5.87454e-19)
(8.50482 3.47968 8.59319e-18)
(8.65443 3.35693 7.56884e-18)
(8.40393 3.87482 2.08453e-18)
(8.56485 3.7359 -8.11077e-18)
(8.31113 4.31762 2.09942e-18)
(8.48391 4.15935 1.09385e-18)
(8.23017 4.81622 0)
(8.4153 4.63462 0)
(8.1645 5.3802 -4.86037e-19)
(8.36396 5.17138 -7.21973e-18)
(8.11744 6.01909 3.91746e-19)
(8.3364 5.7781 1.32674e-17)
(8.08904 6.74215 9.01784e-19)
(8.32565 6.47007 -5.64806e-18)
(8.06662 7.56664 0)
(8.38482 7.23747 0)
(8.03639 8.48996 1.07732e-17)
(8.29166 8.19875 0)
(7.89231 9.58516 -3.73679e-18)
(8.78241 9.0084 1.04108e-17)
(7.26112 11.0834 -1.2822e-17)
(9.99004 0.142964 1.68447e-18)
(9.99072 0.0970936 -3.78884e-20)
(9.97105 0.237619 9.29447e-19)
(9.98132 0.193253 5.69467e-19)
(9.94386 0.333631 4.4631e-19)
(9.96179 0.29016 -4.05166e-19)
(9.90914 0.432652 -2.84836e-20)
(9.93238 0.389385 -3.81755e-19)
(9.86739 0.536175 4.88492e-19)
(9.89543 0.492417 8.05131e-19)
(9.81894 0.645615 8.92875e-19)
(9.85213 0.600788 5.00616e-19)
(9.76412 0.762197 -9.66589e-19)
(9.80306 0.715809 -4.3846e-19)
(9.7033 0.88711 2.97157e-18)
(9.74831 0.83862 3.62715e-19)
(9.63679 1.02166 3.79061e-18)
(9.68808 0.970507 2.12178e-18)
(9.56499 1.16713 -4.00937e-18)
(9.62273 1.11281 -2.27285e-18)
(9.48843 1.32484 -3.91303e-18)
(9.55291 1.26675 -3.41504e-19)
(9.40767 1.49625 1.53201e-18)
(9.47934 1.43369 -1.40901e-18)
(9.32323 1.683 -2.65667e-18)
(9.40231 1.61525 2.02488e-18)
(9.23575 1.88695 1.07525e-19)
(9.3225 1.8132 -3.78669e-19)
(9.14608 2.11011 4.0927e-18)
(9.24083 2.02942 -9.06972e-20)
(9.05527 2.35481 -1.05905e-18)
(9.15833 2.26607 0)
(8.96466 2.62377 -5.24767e-18)
(9.07637 2.5256 -1.54978e-18)
(8.87581 2.92025 9.3996e-18)
(8.99638 2.81096 -4.26193e-18)
(8.79057 3.24826 1.24274e-17)
(8.92025 3.12586 2.04127e-17)
(8.71135 3.61251 -9.16608e-18)
(8.85034 3.47461 -7.64294e-18)
(8.64107 4.01852 -9.14605e-18)
(8.79001 3.86228 -8.29117e-18)
(8.58364 4.47265 -1.00594e-18)
(8.74272 4.29437 5.63349e-18)
(8.54406 4.98356 -7.17547e-18)
(8.713 4.77808 -6.92892e-18)
(8.52762 5.56101 6.35045e-18)
(8.70817 5.32301 -9.2855e-19)
(8.53991 6.21521 7.39383e-18)
(8.73653 5.93713 7.39208e-18)
(8.58694 6.96078 -6.55689e-18)
(8.79618 6.63562 -6.64346e-18)
(8.65976 7.8253 0)
(8.94527 7.4195 -4.88005e-18)
(8.77428 8.83048 -1.25901e-21)
(9.00681 8.39018 4.73315e-18)
(8.83568 10.3819 -1.48353e-18)
(9.75764 9.35088 -1.24416e-21)
(9.42315 12.0782 -7.3102e-20)
(0.24776 -0.135103 1.0465e-18)
(0.0990909 -0.168172 2.42989e-18)
(0.526198 -0.127372 3.75048e-20)
(0.300374 -0.177415 0)
(0.83768 -0.118208 -2.64759e-20)
(0.585435 -0.172326 -1.24374e-18)
(1.17079 -0.113888 5.80145e-19)
(0.884889 -0.170528 2.38604e-18)
(1.5028 -0.110447 2.62e-19)
(1.18892 -0.167173 -5.37143e-19)
(1.81571 -0.10657 -3.86017e-19)
(1.48089 -0.161742 -5.23866e-19)
(2.10019 -0.101836 0)
(1.74745 -0.154129 -1.00016e-18)
(2.35228 -0.0961679 0)
(1.98109 -0.143887 1.01986e-18)
(2.57136 -0.0899174 -5.96678e-20)
(2.17854 -0.131274 0)
(2.7588 -0.0835888 -1.161e-19)
(2.34036 -0.117203 3.39421e-21)
(2.91676 -0.0774876 -4.36408e-22)
(2.4679 -0.102371 2.43449e-19)
(3.04701 -0.0715508 1.10294e-19)
(2.56162 -0.0869567 -2.47284e-19)
(3.15073 -0.0652389 5.41821e-20)
(2.62166 -0.0709989 -6.4473e-20)
(3.22852 -0.0574088 2.59763e-20)
(2.64873 -0.054474 2.90579e-19)
(3.27938 -0.0470888 2.5846e-20)
(2.64753 -0.0365711 -2.3692e-19)
(3.30383 -0.0350795 0)
(2.62985 -0.0185002 0)
(3.30749 -0.0239388 0)
(2.60295 -0.00401225 0)
(3.29952 -0.0159748 -3.41049e-20)
(2.57331 0.00422361 -1.61264e-19)
(3.28922 -0.0119496 -1.1591e-20)
(2.54732 0.00596513 8.59514e-20)
(3.28333 -0.0111529 2.255e-20)
(2.53083 0.00297711 4.79074e-20)
(3.28822 -0.0125978 9.91296e-21)
(2.53018 -0.00456267 0)
(3.30899 -0.0156896 9.92994e-21)
(2.54662 -0.0157115 -1.33236e-21)
(3.34882 -0.0196936 -7.99812e-21)
(2.58153 -0.0291489 -2.09359e-20)
(3.41264 -0.0246799 -4.13208e-21)
(2.6429 -0.0461145 1.09813e-20)
(3.50807 -0.032544 6.97078e-21)
(2.73728 -0.068491 1.22298e-20)
(3.64428 -0.0458868 5.43595e-21)
(2.87121 -0.0974085 2.35842e-20)
(3.83072 -0.0665579 -4.01917e-21)
(3.04938 -0.133113 1.24275e-21)
(4.07812 -0.0952605 -6.23588e-21)
(3.27809 -0.176491 -2.02491e-21)
(4.39885 -0.131566 -1.0049e-21)
(3.56359 -0.2288 2.49362e-22)
(4.00428 -0.288261 -8.95342e-23)
(0.124098 -0.242987 1.46309e-18)
(0.0162087 -0.279211 1.61555e-18)
(0.347918 -0.261504 -1.20988e-18)
(0.138616 -0.323382 2.74092e-18)
(0.617683 -0.259256 1.02599e-18)
(0.379175 -0.324434 -1.32366e-18)
(0.900627 -0.257071 1.3097e-18)
(0.613383 -0.319543 1.0869e-19)
(1.17479 -0.25071 -1.32862e-18)
(0.846874 -0.309659 6.32509e-19)
(1.42346 -0.240007 -1.1456e-18)
(1.06016 -0.294642 -1.99625e-18)
(1.63769 -0.225058 6.0622e-20)
(1.24057 -0.27441 -1.00462e-18)
(1.81385 -0.20609 1.00414e-18)
(1.38215 -0.248515 2.43988e-19)
(1.95152 -0.184 6.25206e-20)
(1.48288 -0.217792 2.13022e-18)
(2.05085 -0.15959 3.64843e-19)
(1.54349 -0.183423 -4.95352e-19)
(2.11183 -0.132833 -7.31567e-21)
(1.56564 -0.146129 -1.09212e-19)
(2.13367 -0.103029 -4.20295e-19)
(1.55115 -0.105971 -7.01154e-19)