/*--------------------------------*- C++ -*----------------------------------*\
| =========                 |                                                 |
| \\      /  F ield         | OpenFOAM: The Open Source CFD Toolbox           |
|  \\    /   O peration     | Version:  4.1                                   |
|   \\  /    A nd           | Web:      www.OpenFOAM.org                      |
|    \\/     M anipulation  |                                                 |
\*---------------------------------------------------------------------------*/
FoamFile
{
    version     2.0;
    format      ascii;
    class       surfaceScalarField;
    location    "2.7";
    object      phi;
}
// * * * * * * * * * * * * * * * * * * * * * * * * * * * * * * * * * * * * * //

dimensions      [0 3 -1 0 0 0 0];

internalField   nonuniform List<scalar> 
5457
(
0.198159
0.00208011
0.196065
0.00229021
0.193707
0.00250528
0.19104
0.00277196
0.188078
0.00303732
0.184834
0.00329322
0.181302
0.00354738
0.177478
0.00380937
0.17336
0.00408257
0.168938
0.00436964
0.164198
0.00467409
0.159121
0.0049982
0.153689
0.00534486
0.147877
0.00571747
0.141661
0.00611831
0.135011
0.00654948
0.127898
0.0070126
0.12029
0.00750937
0.112157
0.0080398
0.103469
0.00860054
0.094204
0.00918684
0.0843464
0.00979001
0.0738945
0.0103973
0.0628628
0.0109924
0.051295
0.0115462
0.0392843
0.0120092
0.0270151
0.0122899
0.0148988
0.0121588
0.00407333
0.0108826
0.00416882
0.199921
0.00239959
0.199149
0.00325918
0.197973
0.00382857
0.196439
0.004409
0.194566
0.00498557
0.192362
0.00554761
0.189817
0.00610739
0.186932
0.00667866
0.183711
0.00726896
0.180143
0.00788527
0.176215
0.00853512
0.171913
0.00922243
0.167217
0.00995335
0.162105
0.0107359
0.15655
0.0115748
0.150524
0.012475
0.143995
0.0134405
0.13693
0.0144748
0.129293
0.0155824
0.121046
0.0167599
0.112155
0.0179978
0.102591
0.0192841
0.0923319
0.0205984
0.081365
0.0219162
0.0696924
0.0231919
0.0573475
0.0243455
0.0444035
0.025246
0.0309326
0.0256638
0.0165519
0.0253183
0.0207885
0.199779
0.00286223
0.199083
0.00415358
0.197984
0.00507598
0.196551
0.0059455
0.194813
0.00679809
0.192777
0.00763611
0.190424
0.00847479
0.187761
0.00932554
0.184794
0.0102008
0.181516
0.0111124
0.177914
0.012071
0.173975
0.0130843
0.169679
0.0141618
0.165007
0.0153141
0.159934
0.0165493
0.154432
0.0178764
0.148466
0.0193039
0.142003
0.0208378
0.135002
0.022487
0.127416
0.0242556
0.119193
0.0261375
0.110278
0.0281248
0.100611
0.0302017
0.0901241
0.0323527
0.0787317
0.0345476
0.0663281
0.0367274
0.0527604
0.0388089
0.0377215
0.0407185
0.0203011
0.0427856
0.0410959
0.199693
0.00341278
0.199001
0.00504593
0.197922
0.0063067
0.19651
0.00746432
0.194799
0.00858627
0.192796
0.00969115
0.19049
0.0107965
0.187888
0.0119138
0.184996
0.01306
0.181808
0.0142503
0.178317
0.015497
0.17451
0.0168147
0.17037
0.0182158
0.16588
0.0197101
0.161021
0.0213104
0.155765
0.02303
0.150083
0.0248826
0.143939
0.0268798
0.137293
0.0290348
0.130092
0.0313619
0.122273
0.0338683
0.113758
0.0365602
0.104452
0.0394363
0.0942408
0.0425036
0.0829578
0.0457811
0.0703594
0.0492884
0.0561096
0.0530354
0.0398098
0.0570137
0.0209693
0.0616644
0.0620058
0.199652
0.00400773
0.198953
0.00594796
0.19789
0.00752403
0.196501
0.00896485
0.194815
0.0103523
0.192839
0.0117182
0.190571
0.0130822
0.188015
0.0144597
0.185174
0.0158706
0.182044
0.0173329
0.178616
0.0188614
0.17488
0.0204747
0.170823
0.022188
0.166427
0.0240126
0.161674
0.025965
0.156538
0.0280627
0.150992
0.0303246
0.144998
0.0327699
0.138512
0.0354183
0.13148
0.0382951
0.12383
0.0414244
0.115463
0.0448403
0.106248
0.0485722
0.096035
0.0526454
0.0846247
0.0571293
0.071717
0.0621434
0.0568973
0.067819
0.0397336
0.0741675
0.0204262
0.0810205
0.0823321
0.199634
0.00462432
0.198932
0.00685672
0.197887
0.00872628
0.196526
0.0104412
0.194872
0.0120883
0.192932
0.013709
0.190709
0.0153257
0.188204
0.0169582
0.185417
0.0186291
0.182346
0.0203589
0.17898
0.0221656
0.175311
0.0240702
0.171324
0.0260905
0.167002
0.0282414
0.162326
0.0305426
0.15727
0.0330162
0.151802
0.0356863
0.145881
0.0385844
0.139458
0.0417359
0.132474
0.0451762
0.124846
0.0489531
0.116468
0.0531236
0.107192
0.0577605
0.096816
0.0629413
0.0851056
0.0687692
0.0718
0.0753874
0.0565273
0.08305
0.0388403
0.0918593
0.019467
0.100485
0.101704
0.19963
0.00524906
0.198933
0.0077641
0.197911
0.00990971
0.196581
0.0118904
0.194963
0.0137906
0.193067
0.0156577
0.190895
0.0175203
0.188448
0.0194017
0.185725
0.0213271
0.182722
0.0233193
0.179431
0.0253984
0.175838
0.0275905
0.171928
0.0299165
0.167686
0.0323925
0.163088
0.0350431
0.158105
0.0378963
0.1527
0.0409835
0.146831
0.0443446
0.140441
0.0480171
0.133459
0.0520507
0.125786
0.0565222
0.117306
0.0615036
0.107878
0.0670952
0.0972828
0.0734502
0.0852456
0.0807344
0.0715213
0.0890597
0.0558576
0.0986785
0.0379097
0.109836
0.0186508
0.1199
0.120289
0.199635
0.00587345
0.198951
0.0086628
0.197956
0.0110707
0.196664
0.0133064
0.195091
0.0154505
0.193248
0.0175562
0.191136
0.0196575
0.188757
0.0217811
0.186108
0.0239546
0.183185
0.0262035
0.179977
0.0285512
0.17647
0.0310268
0.17265
0.0336543
0.1685
0.0364535
0.163993
0.0394543
0.159096
0.0426906
0.153763
0.0462083
0.14795
0.0500472
0.141595
0.0542592
0.134614
0.058921
0.126905
0.064123
0.118329
0.0699779
0.108711
0.0766197
0.0978662
0.0842106
0.0855253
0.0930073
0.0714048
0.103155
0.0554014
0.114684
0.0373238
0.127989
0.018175
0.139276
0.138423
0.199646
0.00649234
0.198981
0.00954719
0.198018
0.0122044
0.19677
0.0146821
0.195251
0.017061
0.193468
0.0193978
0.191425
0.0217296
0.189123
0.0240873
0.186559
0.0265016
0.183727
0.0290007
0.180616
0.0316121
0.177209
0.0343658
0.173493
0.0372885
0.169453
0.0404075
0.165056
0.0437578
0.160265
0.0473815
0.155033
0.0513329
0.149307
0.0556595
0.143016
0.060437
0.136059
0.0657657
0.128338
0.0717349
0.119715
0.078498
0.109986
0.0862611
0.098944
0.0951857
0.0863356
0.105556
0.071882
0.117595
0.0555993
0.131031
0.0373952
0.146361
0.0182216
0.158752
0.156616
0.199662
0.00710077
0.199023
0.0104114
0.198098
0.0133053
0.196898
0.0160143
0.195436
0.0186189
0.19372
0.0211768
0.191755
0.0237293
0.189539
0.026312
0.187069
0.0289581
0.184341
0.031699
0.181342
0.0345668
0.178052
0.0375922
0.174461
0.0408028
0.170553
0.0442342
0.166293
0.0479291
0.161636
0.0519427
0.156536
0.0563279
0.150935
0.0611467
0.144756
0.0664997
0.137903
0.0725082
0.130239
0.0792926
0.121635
0.0870037
0.111904
0.0959144
0.100788
0.106264
0.0880537
0.11826
0.0734667
0.132188
0.0569763
0.147654
0.0385526
0.165057
0.0191172
0.178574
0.175722
0.199683
0.00769511
0.199074
0.0112505
0.198191
0.0143691
0.197045
0.0172981
0.195648
0.0201172
0.194007
0.0228853
0.192128
0.0256485
0.190007
0.0284457
0.187643
0.0313134
0.185029
0.0342868
0.182151
0.0374021
0.178997
0.0406895
0.175558
0.0441769
0.171807
0.0479108
0.167708
0.051944
0.163231
0.0563339
0.158314
0.0611459
0.152881
0.0664661
0.146873
0.072394
0.140209
0.0790639
0.132739
0.0866625
0.124286
0.0953675
0.114696
0.10544
0.103714
0.117223
0.0911018
0.130896
0.0766179
0.146759
0.0600591
0.164424
0.0414065
0.184073
0.0214062
0.199058
0.197142
0.199706
0.00827279
0.199132
0.012061
0.198296
0.0153917
0.19721
0.0185276
0.195885
0.0215492
0.194328
0.0245165
0.192543
0.027479
0.190528
0.0304792
0.188281
0.0335569
0.185791
0.0367515
0.183048
0.0401009
0.180051
0.0436348
0.176789
0.0473854
0.173219
0.0514114
0.169311
0.055774
0.165047
0.0605249
0.160364
0.0657423
0.155186
0.0715385
0.149444
0.0780301
0.143067
0.0853453
0.135924
0.0937126
0.127831
0.103385
0.118641
0.114585
0.108128
0.127725
0.0960007
0.143096
0.0819528
0.160988
0.0656777
0.181
0.0470071
0.203197
0.0261567
0.220497
0.22336
0.199733
0.0088308
0.199198
0.012839
0.198413
0.0163685
0.197392
0.0196979
0.196146
0.0229091
0.194681
0.0260634
0.192999
0.0292128
0.1911
0.0324034
0.188981
0.0356778
0.186629
0.0390805
0.18404
0.0426494
0.181218
0.0464118
0.178144
0.0504127
0.174777
0.0547159
0.171105
0.0593774
0.167092
0.0644706
0.16269
0.0700761
0.157851
0.0762975
0.152496
0.0832961
0.14654
0.0912277
0.139886
0.100294
0.132422
0.110797
0.123976
0.123021
0.114348
0.137387
0.103269
0.154304
0.0903857
0.174124
0.0752251
0.196546
0.0572788
0.221686
0.0356562
0.242807
0.259186
0.199763
0.00936692
0.19927
0.0135811
0.19854
0.0172955
0.19759
0.0208043
0.196429
0.0241916
0.195064
0.0275195
0.193495
0.030842
0.191721
0.0342093
0.189736
0.0376699
0.187531
0.0412675
0.185119
0.0450334
0.182491
0.0490039
0.179615
0.0532406
0.176484
0.0577951
0.173092
0.0627192
0.169382
0.0681141
0.165322
0.074071
0.160897
0.080672
0.156028
0.0880992
0.150638
0.0965547
0.144695
0.106198
0.138139
0.117348
0.130826
0.130374
0.122641
0.145669
0.113438
0.163701
0.102957
0.184925
0.0906503
0.209323
0.0757388
0.237224
0.0550951
0.264213
0.314697
0.199791
0.00988211
0.199341
0.0142865
0.198668
0.0181716
0.197791
0.0218456
0.196719
0.0253943
0.195457
0.0288812
0.194006
0.0323624
0.192359
0.0358936
0.190507
0.0395292
0.188462
0.0433028
0.186238
0.0472441
0.183813
0.0514034
0.181161
0.0558439
0.178297
0.0606162
0.1752
0.0657831
0.171825
0.0714328
0.168173
0.0776652
0.164228
0.0845873
0.159916
0.0923629
0.155228
0.101184
0.15019
0.111229
0.14478
0.122803
0.138987
0.136258
0.132865
0.151953
0.126501
0.170329
0.12002
0.1918
0.113335
0.216561
0.106129
0.245119
0.0933818
0.277715
0.408956
0.000633458
-0.000527257
0.00270746
-0.00182694
0.00560857
-0.00245018
0.00868058
-0.00242258
0.0114343
-0.00202389
0.0136197
-0.00153105
0.015196
-0.0011168
0.0162476
-0.000837551
0.0169115
-0.000679955
0.0172872
-0.000584809
0.0174283
-0.000480666
0.0174217
-0.000405894
0.0173267
-0.000373329
0.0171021
-0.000285225
0.0166775
-0.000112413
0.0160954
1.38732e-05
0.0154587
4.134e-05
0.0147502
9.73869e-05
0.0138113
0.000311693
0.0125942
0.000550622
0.0113139
0.000611086
0.0102229
0.000439681
0.00940708
9.83227e-05
0.00893701
-0.000289148
0.00884468
-0.000609017
0.00906606
-0.000876995
0.00946226
-0.00114673
0.0100522
-0.00148583
0.0110512
-0.00188099
-0.00222761
0.000628495
-0.00100517
0.00268362
-0.00363604
0.00550857
-0.004815
0.00853208
-0.00479684
0.0113288
-0.00410523
0.0136478
-0.00321584
0.0154109
-0.00243661
0.016657
-0.0018821
0.0175029
-0.00153711
0.0180392
-0.00130281
0.0183171
-0.00106328
0.0184139
-0.000884082
0.0184179
-0.000817432
0.0183042
-0.000656402
0.0179798
-0.000305161
0.0174686
-2.58126e-05
0.0168881
2.90525e-05
0.0162601
0.000100642
0.0154064
0.000520859
0.0142864
0.00101101
0.0130708
0.00117683
0.0118537
0.00100174
0.0106014
0.000636978
0.00937292
0.000223999
0.00827616
-0.000171444
0.00742373
-0.000700894
0.00678636
-0.00130539
0.00643402
-0.00203319
0.00661591
-0.00292276
-0.00387834
0.000801878
-0.00162398
0.00265969
-0.00524575
0.00504623
-0.0067307
0.00751802
-0.00662644
0.00977148
-0.00567228
0.0116207
-0.00446905
0.0129961
-0.00339674
0.0139193
-0.00261649
0.0144939
-0.00211861
0.0147982
-0.0017579
0.0148023
-0.00133181
0.0145804
-0.00101527
0.0142624
-0.000926426
0.0138721
-0.000744665
0.0131898
-0.000126441
0.0122466
0.000388501
0.01121
0.000498362
0.0100487
0.000657876
0.00856151
0.00137074
0.00672315
0.00221404
0.00454325
0.00273974
0.00210556
0.00277815
-0.000346207
0.00238269
-0.00241424
0.00163501
-0.00388919
0.000676469
-0.00489902
-0.000401493
-0.00541396
-0.00161923
-0.00540478
-0.00292595
-0.00491224
-0.00424883
-0.0051401
0.00108202
-0.00250713
0.00276234
-0.00665415
0.00465005
-0.00813294
0.00643605
-0.00778758
0.00795623
-0.00655222
0.00911494
-0.00509177
0.0098662
-0.00379427
0.0102358
-0.00282798
0.0103135
-0.00221649
0.010145
-0.00174953
0.00966909
-0.00111584
0.00893302
-0.00062467
0.00802347
-0.000436601
0.00682833
-2.01216e-05
0.00524652
0.000964747
0.00285494
0.00227255
-0.000220299
0.00304471
-0.00331649
0.00320078
-0.00583917
0.00329083
-0.00778407
0.00354923
-0.00939389
0.00376025
-0.010826
0.00355951
-0.0120273
0.00288908
-0.0129069
0.00187469
-0.0135134
0.000650152
-0.0139667
-0.000675883
-0.0143446
-0.00206153
-0.0146527
-0.00347059
-0.0149604
-0.00476646
-0.00568453
0.00126666
-0.0035864
0.00272178
-0.00778239
0.00403132
-0.00892824
0.00500383
-0.00815453
0.00563783
-0.00660878
0.00592392
-0.00492395
0.00586415
-0.00347624
0.00549937
-0.00237667
0.00480304
-0.00157808
0.00383646
-0.000968657
0.00247697
-3.04056e-05
0.0001069
0.00139834
-0.00324492
0.00250615
-0.00646364
0.00274511
-0.00892426
0.00295166
-0.0106542
0.00351608
-0.0121961
0.00408599
-0.0137872
0.00427775
-0.0153499
0.00428849
-0.0167249
0.00433133
-0.0178103
0.00426411
-0.0187395
0.00385788
-0.0196012
0.0030726
-0.0204027
0.00201595
-0.0211911
0.000772729
-0.0219954
-0.000601874
-0.0228074
-0.00204486
-0.0236155
-0.00348812
-0.0244159
-0.00479106
-0.00572822
0.00118168
-0.00461161
0.00230922
-0.00851723
0.0028546
-0.00892677
0.00287742
-0.00759149
0.00244726
-0.0056733
0.00167203
-0.0037902
0.000521223
-0.00215563
-0.00118587
-0.000655972
-0.00369629
0.000827173
-0.00683523
0.00196345
-0.00985723
0.00270851
-0.0121108
0.00330635
-0.0138202
0.00381713
-0.0155691
0.00405562
-0.0172978
0.00422195
-0.0187777
0.00453155
-0.0200088
0.00483444
-0.0211805
0.00495017
-0.0223614
0.004932
-0.0234768
0.00486825
-0.0244723
0.00467133
-0.0254321
0.00419649
-0.0264339
0.00341505
-0.0274662
0.00237789
-0.0285187
0.00113742
-0.0295921
-0.000258814
-0.0306686
-0.00174587
-0.0317309
-0.00323433
-0.0327919
-0.00455235
-0.00542214
0.000963935
-0.00545061
0.00143501
-0.00854198
0.000977738
-0.00790697
-0.000328294
-0.00573734
-0.0022578
-0.00332169
-0.00472644
-0.00106542
-0.0076814
0.000887682
-0.0107742
0.00239002
-0.0133716
0.00327541
-0.0154645
0.00382739
-0.0173439
0.00429793
-0.0190874
0.00471018
-0.020654
0.005
-0.0221417
0.00512267
-0.0235669
0.00520043
-0.0248294
0.00534347
-0.0259444
0.0054791
-0.0270258
0.00553365
-0.0281327
0.00551424
-0.0292529
0.005426
-0.0303667
0.00519839
-0.0315153
0.00473046
-0.0327281
0.00398317
-0.0339835
0.00296712
-0.0352527
0.00171597
-0.0365247
0.000286252
-0.0377819
-0.00125512
-0.0390149
-0.00279896
-0.040263
-0.00412399
-0.00491253
0.000455939
-0.00580792
-0.000207231
-0.00739435
-0.00221821
-0.00534084
-0.00517168
-0.00230496
-0.00859185
0.000416453
-0.0120177
0.00250836
-0.0149005
0.0037718
-0.0171668
0.00454817
-0.0191907
0.00511062
-0.0211178
0.00550666
-0.0229081
0.00579433
-0.0245244
0.00599633
-0.0259813
0.00609181
-0.0273404
0.00608268
-0.0286247
0.00605183
-0.0297985
0.00607057
-0.0308959
0.00611402
-0.0320026
0.00614891
-0.0331648
0.00615975
-0.034393
0.00610686
-0.035681
0.00591115
-0.0370378
0.00548305
-0.0384595
0.00477123
-0.0399172
0.00376458
-0.0413771
0.0024874
-0.0428111
0.000997752
-0.0442061
-0.000618504
-0.045575
-0.00222017
-0.0469622
-0.0035541
-0.00428344
-0.000542176
-0.005178
-0.0028207
-0.00460158
-0.00653792
-0.00110473
-0.0106356
0.00216837
-0.0142835
0.00425774
-0.0171298
0.00539211
-0.0195586
0.00611864
-0.021782
0.00660847
-0.0238251
0.00693296
-0.0257111
0.00713263
-0.027439
0.00722969
-0.0289928
0.0072311
-0.0303881
0.00714102
-0.0316751
0.00699232
-0.0328882
0.00685424
-0.0340366
0.00678482
-0.0351637
0.00678855
-0.036338
0.00684545
-0.0376021
0.00691918
-0.038971
0.0069415
-0.0404393
0.00681587
-0.0419954
0.00644553
-0.0436141
0.0057661
-0.0452571
0.00475445
-0.0468832
0.00342968
-0.0484585
0.00185577
-0.0499791
0.000150208
-0.0514625
-0.00152101
-0.0529531
-0.0028783
-0.00357176
-0.00202577
-0.00304474
-0.00625356
0.000158061
-0.0109855
0.0040661
-0.014916
0.006339
-0.0180795
0.00748101
-0.0208884
0.00813536
-0.0234043
0.00848192
-0.0256571
0.00865684
-0.0276945
0.00873024
-0.0295458
0.00871956
-0.0312209
0.00861986
-0.0327267
0.00842966
-0.0340829
0.0081672
-0.0353324
0.00788336
-0.0365152
0.00764906
-0.0376666
0.00752205
-0.038838
0.00752201
-0.04009
0.00763334
-0.0414655
0.00780257
-0.0429803
0.00793457
-0.0446247
0.00790817
-0.0463708
0.00760851
-0.0481764
0.00695744
-0.0499926
0.00592508
-0.0517731
0.00453239
-0.0534843
0.00285549
-0.0551138
0.00103371
-0.0566837
-0.000730298
-0.0582498
-0.00212426
-0.00280093
-0.00418816
0.00129154
-0.00961513
0.00609381
-0.0141423
0.00889616
-0.0179069
0.0101882
-0.0212522
0.0107608
-0.0241699
0.0109046
-0.0267064
0.0108185
-0.0289267
0.0106493
-0.0309061
0.0104654
-0.0326991
0.0102523
-0.0343233
0.00996956
-0.0357899
0.00960218
-0.0371184
0.00917978
-0.0383464
0.00876955
-0.0395181
0.0084512
-0.0406815
0.00828894
-0.0418951
0.00831276
-0.0432208
0.00850855
-0.0447044
0.00880682
-0.0463625
0.00908306
-0.0481783
0.00918318
-0.050108
0.00896564
-0.052093
0.00833755
-0.0540731
0.00726765
-0.0559966
0.00578495
-0.0578262
0.00397979
-0.0595483
0.00201559
-0.0611927
0.000139674
-0.0628144
-0.00131152
-0.00198396
-0.00602165
0.00746542
-0.0117707
0.0122489
-0.0165351
0.0137797
-0.0206311
0.0142213
-0.0241282
0.0141002
-0.0270569
0.0136338
-0.0294936
0.0130379
-0.0315737
0.0124985
-0.033427
0.0120812
-0.0351317
0.0117075
-0.0367012
0.011276
-0.0381313
0.0107512
-0.0394312
0.0101774
-0.040635
0.0096466
-0.0417922
0.00925509
-0.0429595
0.00907556
-0.0442016
0.00914653
-0.0455864
0.00945642
-0.0471672
0.00992087
-0.0489628
0.0103809
-0.050948
0.0106388
-0.053061
0.0105164
-0.055223
0.00990412
-0.0573606
0.00877595
-0.0594165
0.00717726
-0.0613531
0.00521764
-0.0631583
0.00308646
-0.0648593
0.00107108
-0.0665191
-0.000457388
-0.00114438
-0.00722793
0.0147221
-0.0136637
0.0188997
-0.0188848
0.0189457
-0.0232385
0.0184105
-0.0267631
0.0174285
-0.0295366
0.0161959
-0.0316971
0.0149866
-0.0334846
0.0140673
-0.0351229
0.0134941
-0.0367033
0.0130513
-0.0382016
0.0125237
-0.0395734
0.0118547
-0.0408098
0.0111246
-0.0419474
0.0104714
-0.0430477
0.0100166
-0.044176
0.00983767
-0.0454027
0.00997877
-0.0468059
0.0104358
-0.0484517
0.0111123
-0.0503641
0.0118074
-0.0525078
0.012264
-0.0547971
0.0122538
-0.0571273
0.0116483
-0.0594084
0.0104363
-0.0615788
0.00869169
-0.0636023
0.00654921
-0.0654657
0.00422155
-0.067197
0.00203795
-0.0688685
0.000412182
-0.000313802
-0.00857397
0.0230048
-0.0156272
0.0259643
-0.0213044
0.0244725
-0.0258527
0.0227713
-0.029222
0.02061
-0.0315876
0.018368
-0.033203
0.0164065
-0.0344659
0.015128
-0.0357617
0.0145788
-0.0371702
0.0142365
-0.0385564
0.0136719
-0.0397983
0.0128409
-0.0408656
0.0119155
-0.0418138
0.0111199
-0.0427347
0.0106121
-0.0437073
0.0104576
-0.0448059
0.010696
-0.0461233
0.0113419
-0.0477475
0.0122942
-0.0497117
0.0132971
-0.0519655
0.0140102
-0.0543881
0.0141347
-0.0568369
0.0135207
-0.0592001
0.0121876
-0.0614165
0.01026
-0.063462
0.00790994
-0.0653277
0.00536524
-0.0670439
0.002995
-0.0686862
0.00125659
0.000445956
-0.0102872
0.0324712
-0.018051
0.0338019
-0.0244103
0.0307333
-0.028856
0.0270766
-0.0316159
0.0232141
-0.0331534
0.0197384
-0.0338594
0.0169369
-0.0342431
0.0153266
-0.0350411
0.0151807
-0.0362781
0.0152642
-0.037523
0.0146918
-0.0385219
0.0135967
-0.0392347
0.0123644
-0.039775
0.011373
-0.0403101
0.0108345
-0.0409466
0.010754
-0.0417527
0.0111333
-0.0428432
0.0120332
-0.0443458
0.0133661
-0.0463074
0.0147955
-0.0486514
0.0158571
-0.0512008
0.0161525
-0.0537545
0.0155073
-0.0561694
0.0139992
-0.0583884
0.0118388
-0.0604121
0.00925609
-0.0622414
0.00647901
-0.0638913
0.00389127
-0.0654536
0.00202556
0.00113364
0.207483
0.0103859
0.207071
0.0149699
0.206443
0.019017
0.205621
0.0228469
0.204615
0.0265467
0.203432
0.0301825
0.202063
0.0338147
0.200499
0.0375005
0.198744
0.0412919
0.196822
0.045223
0.194735
0.0493299
0.192465
0.0536601
0.190005
0.0582698
0.187365
0.0632269
0.184525
0.0686005
0.181471
0.0744525
0.178222
0.0808883
0.174759
0.0880426
0.171046
0.0960465
0.167154
0.105052
0.163163
0.115262
0.15914
0.126926
0.155252
0.140308
0.151792
0.155655
0.14926
0.173219
0.14851
0.193047
0.150867
0.214869
0.158596
0.238182
0.176841
0.260322
0.275961
0.310683
0.212543
0.0108716
0.212176
0.0156206
0.211604
0.0198163
0.210856
0.0237885
0.20994
0.0276258
0.208858
0.0313984
0.2076
0.0351706
0.206156
0.0389944
0.204544
0.0429186
0.202784
0.0469871
0.200883
0.0512358
0.198832
0.0557077
0.196629
0.0604589
0.194283
0.0655614
0.191795
0.0710749
0.189167
0.0770654
0.186425
0.0836374
0.183573
0.0909023
0.180639
0.0989735
0.177761
0.107965
0.175077
0.118051
0.172763
0.1294
0.17116
0.142142
0.170816
0.156323
0.17262
0.17186
0.177936
0.188317
0.188794
0.20474
0.208321
0.219482
0.238806
0.230704
0.244714
0.27079
0.217733
0.0113338
0.217417
0.016232
0.216907
0.0205609
0.216245
0.0246603
0.215433
0.0286203
0.214465
0.0325156
0.213337
0.036409
0.212045
0.0403498
0.210597
0.0443912
0.209017
0.048576
0.207339
0.0529316
0.205555
0.0575033
0.20365
0.0623633
0.201651
0.0675666
0.199585
0.0731488
0.19745
0.0792062
0.195296
0.0858196
0.193167
0.0930564
0.191148
0.101019
0.189433
0.109775
0.188212
0.119442
0.187758
0.130082
0.188535
0.14167
0.191192
0.154067
0.196609
0.16696
0.205794
0.17977
0.219537
0.191726
0.237999
0.201788
0.259857
0.209592
0.216292
0.288847
0.223059
0.0117692
0.222794
0.016799
0.222351
0.0212437
0.221788
0.0254533
0.221095
0.0295193
0.220256
0.0335184
0.219281
0.0375104
0.218161
0.041549
0.216887
0.0456926
0.215516
0.049966
0.214105
0.0543891
0.212623
0.0590249
0.211047
0.0639531
0.209446
0.0691956
0.207855
0.0747819
0.206266
0.080825
0.204776
0.0873605
0.20346
0.094431
0.20244
0.102112
0.201956
0.110418
0.20223
0.119403
0.203575
0.129029
0.206446
0.139166
0.211372
0.149598
0.218916
0.159972
0.229527
0.169804
0.243377
0.178561
0.260435
0.185411
0.280962
0.189706
0.190656
0.307079
0.228514
0.0121747
0.228311
0.0173173
0.227944
0.0218556
0.227494
0.0261556
0.226936
0.0303098
0.226242
0.0343922
0.225435
0.0384625
0.224489
0.0425832
0.223406
0.0468025
0.222289
0.0511242
0.221183
0.0555796
0.220017
0.060253
0.218806
0.0651972
0.217656
0.0704077
0.216572
0.0759398
0.215581
0.0818736
0.214822
0.0882087
0.214371
0.0949831
0.214387
0.102225
0.21511
0.109913
0.216756
0.118043
0.219611
0.126517
0.224019
0.135168
0.230336
0.143766
0.23888
0.151986
0.249864
0.159435
0.263412
0.165645
0.279446
0.169984
0.297699
0.172006
0.170837
0.317936
0.234086
0.0125458
0.233968
0.0177784
0.233705
0.022387
0.233378
0.0267555
0.232962
0.0309779
0.232428
0.0351235
0.231791
0.0392563
0.231024
0.0434378
0.230173
0.0476909
0.229354
0.0520211
0.228562
0.0564851
0.227729
0.0611577
0.226931
0.0660528
0.226268
0.0711714
0.225724
0.0765796
0.225382
0.0823059
0.22538
0.088343
0.225796
0.0947146
0.226797
0.101409
0.228585
0.108389
0.231352
0.1156
0.235327
0.12292
0.240749
0.130177
0.24785
0.137152
0.256806
0.143568
0.267725
0.149089
0.280602
0.153345
0.295147
0.155986
0.310862
0.15678
0.154639
0.327434
0.239779
0.012878
0.239766
0.0181701
0.239639
0.0228284
0.239447
0.0272452
0.239177
0.0315153
0.238802
0.0357081
0.238334
0.0398832
0.237777
0.0440861
0.23721
0.0483319
0.236708
0.0526442
0.236234
0.0570861
0.235777
0.0616998
0.235437
0.0664852
0.235274
0.0714621
0.235301
0.0766723
0.235617
0.0821187
0.236336
0.0877938
0.23755
0.0936949
0.239403
0.0997902
0.242063
0.106025
0.245694
0.112318
0.250472
0.118541
0.256538
0.124548
0.264021
0.13014
0.273047
0.135055
0.283632
0.139044
0.295627
0.141879
0.308728
0.143381
0.322557
0.143394
0.14076
0.336778
0.245626
0.0131603
0.245722
0.0184843
0.245735
0.0231726
0.245685
0.0276192
0.245565
0.0319181
0.245357
0.0361341
0.245086
0.0403156
0.244787
0.0444994
0.24453
0.048709
0.244345
0.0529786
0.244215
0.0573536
0.244174
0.0618557
0.244297
0.0664916
0.244629
0.0712807
0.245216
0.0762376
0.246147
0.0813576
0.247518
0.0866265
0.249426
0.0920201
0.251995
0.097494
0.255357
0.102983
0.259644
0.108398
0.264967
0.113631
0.271403
0.118549
0.279041
0.122951
0.287949
0.126635
0.298046
0.129451
0.309144
0.131267
0.321006
0.131971
0.333343
0.131461
0.128667
0.345756
0.251651
0.0133839
0.25185
0.0187191
0.251992
0.023414
0.252086
0.0278672
0.252129
0.0321692
0.25212
0.0363749
0.252086
0.0405285
0.252071
0.0446664
0.252121
0.0488167
0.252256
0.0530105
0.25249
0.0572777
0.252863
0.061634
0.25343
0.0660875
0.25424
0.0706467
0.255352
0.0753125
0.256842
0.0800729
0.258797
0.0849056
0.261305
0.0897757
0.264467
0.0946317
0.268384
0.0994049
0.273139
0.104019
0.278805
0.108378
0.285452
0.112334
0.293118
0.115725
0.301772
0.11844
0.311306
0.120383
0.321564
0.121457
0.332354
0.121597
0.343436
0.120752
0.117971
0.354431
0.257837
0.0135459
0.258147
0.0188679
0.258422
0.0235446
0.25867
0.0279773
0.258895
0.0322525
0.259104
0.0364199
0.259325
0.0405207
0.259593
0.0445895
0.259944
0.0486538
0.260405
0.0527393
0.261002
0.0568667
0.261774
0.0610475
0.262768
0.0652862
0.264035
0.0695832
0.265634
0.073931
0.267631
0.0783115
0.270099
0.0826968
0.273115
0.0870477
0.276757
0.0913102
0.28109
0.0954228
0.286172
0.0993181
0.292068
0.102889
0.298814
0.106011
0.306375
0.108594
0.31469
0.110562
0.323664
0.111841
0.333163
0.112372
0.343024
0.112122
0.353055
0.11107
0.108381
0.362928
0.264172
0.0136397
0.264609
0.0189208
0.265029
0.0235559
0.265443
0.0279429
0.26586
0.0321649
0.266295
0.0362687
0.26677
0.0402926
0.267318
0.0442676
0.267972
0.0482189
0.26876
0.0521674
0.269714
0.0561278
0.27087
0.0601071
0.272272
0.0641058
0.273968
0.0681186
0.276012
0.0721322
0.278459
0.0761249
0.281369
0.0800663
0.284804
0.0839201
0.288817
0.0876328
0.293462
0.0911396
0.298788
0.0943765
0.304824
0.0972562
0.311549
0.0996975
0.318919
0.10164
0.326873
0.103023
0.33532
0.103799
0.344143
0.103935
0.353207
0.103419
0.362359
0.102247
0.0996894
0.37132
0.270662
0.0136601
0.271233
0.0188714
0.271808
0.0234405
0.272398
0.0277577
0.273016
0.031902
0.273678
0.0359186
0.274407
0.0398423
0.275235
0.0437
0.276189
0.0475138
0.2773
0.0513011
0.2786
0.0550717
0.280123
0.0588287
0.28191
0.0625694
0.284002
0.0662848
0.286446
0.069958
0.289281
0.0735691
0.292552
0.0770885
0.296325
0.0804708
0.300645
0.0836662
0.305536
0.0866186
0.311023
0.0892749
0.317098
0.0915781
0.323729
0.093468
0.330874
0.0948962
0.338468
0.0958233
0.34643
0.0962206
0.354657
0.0960726
0.363037
0.0953797
0.371447
0.0941486
0.0917409
0.379655
0.27731
0.0136035
0.278021
0.0187151
0.278758
0.0231932
0.279532
0.0274169
0.280356
0.0314606
0.281246
0.0353676
0.282229
0.0391697
0.283332
0.0428887
0.284582
0.0465436
0.286006
0.0501498
0.287639
0.0537127
0.289509
0.0572321
0.291652
0.0607036
0.294098
0.0641195
0.296882
0.0674627
0.300048
0.0707038
0.303633
0.0738119
0.307696
0.0767461
0.312264
0.0794649
0.317328
0.0819299
0.32289
0.0840971
0.328937
0.0859209
0.335437
0.0873589
0.342343
0.0883771
0.349594
0.0889509
0.357114
0.0890651
0.364817
0.0887157
0.372609
0.087911
0.380392
0.0866633
0.0844132
0.387969
0.284117
0.0134669
0.284973
0.018449
0.285878
0.0228111
0.286841
0.0269177
0.287874
0.0308386
0.288992
0.0346157
0.290223
0.0382768
0.291598
0.0418379
0.293136
0.0453157
0.29486
0.0487261
0.296809
0.0520677
0.299
0.0553413
0.301454
0.058547
0.30421
0.0616663
0.3073
0.0646793
0.310766
0.0675581
0.314639
0.0702731
0.318938
0.0727982
0.323673
0.0751002
0.328836
0.0771441
0.334419
0.0788952
0.340402
0.0803205
0.346751
0.0813909
0.353418
0.0820842
0.360346
0.0823864
0.367469
0.0822918
0.374712
0.0818037
0.381998
0.0809347
0.389247
0.0797001
0.0776086
0.396294
0.291089
0.0132479
0.292092
0.0180713
0.293167
0.0222927
0.294324
0.0262592
0.295568
0.0300363
0.296906
0.0336649
0.298378
0.0371677
0.300024
0.0405529
0.301839
0.0438401
0.303836
0.0470473
0.306076
0.0501631
0.308562
0.0531863
0.3113
0.0561209
0.314347
0.0589428
0.317727
0.0616304
0.321458
0.064167
0.325556
0.066529
0.330026
0.0686906
0.334873
0.0706248
0.340089
0.0723047
0.345658
0.0737043
0.351555
0.0748004
0.357743
0.0755739
0.364179
0.0760118
0.370809
0.0761076
0.377576
0.0758619
0.384416
0.0752825
0.391265
0.0743842
0.398058
0.0731834
0.0712481
0.404655
0.298228
0.0129448
0.299378
0.0175813
0.300626
0.0216375
0.301984
0.0254412
0.303439
0.029056
0.30498
0.0325214
0.306674
0.0358496
0.308581
0.0390469
0.310664
0.0421343
0.312924
0.0451249
0.315435
0.0480089
0.318199
0.0507817
0.321217
0.0534416
0.324532
0.0559734
0.328156
0.0583603
0.332098
0.0605842
0.336366
0.0626253
0.340965
0.0644628
0.345889
0.0660757
0.351126
0.0674438
0.356657
0.0685486
0.362454
0.0693747
0.368481
0.0699105
0.374698
0.0701495
0.381056
0.0700908
0.387505
0.0697391
0.393992
0.0691046
0.400463
0.0682029
0.406865
0.0670503
0.0652669
0.413077
0.305536
0.0125567
0.306832
0.0169796
0.30825
0.020848
0.309801
0.024472
0.311461
0.0279092
0.313205
0.0311904
0.315119
0.0343247
0.317269
0.0373243
0.319611
0.040205
0.32214
0.0429699
0.324909
0.0456171
0.327927
0.0481432
0.331195
0.0505416
0.334737
0.0528004
0.338563
0.054906
0.342677
0.056843
0.347083
0.0585953
0.351778
0.0601465
0.356751
0.061481
0.361987
0.0625842
0.367465
0.0634438
0.373157
0.0640502
0.379028
0.0643975
0.38504
0.064484
0.391152
0.0643123
0.39732
0.0638898
0.403497
0.0632279
0.409641
0.0623421
0.415706
0.0612478
0.0596111
0.42159
0.313017
0.0120832
0.314456
0.0162678
0.316036
0.0199282
0.317761
0.0233559
0.319615
0.0265979
0.32159
0.0296755
0.323741
0.032602
0.326116
0.0353934
0.328696
0.0380596
0.331477
0.0406007
0.334483
0.0430147
0.337725
0.0452989
0.341212
0.047447
0.344952
0.0494493
0.348951
0.0512947
0.35321
0.052971
0.357726
0.0544655
0.362492
0.055766
0.367494
0.0568611
0.372716
0.0577411
0.378133
0.0583984
0.38372
0.0588278
0.389443
0.0590276
0.395269
0.0589994
0.401161
0.0587483
0.40708
0.0582829
0.412988
0.057615
0.418848
0.0567596
0.424624
0.0557306
0.0542353
0.430226
0.320675
0.0115243
0.322254
0.015447
0.323991
0.0188798
0.325885
0.0220908
0.327933
0.025119
0.330137
0.0279827
0.332522
0.0306957
0.335112
0.0332715
0.33791
0.0357175
0.340916
0.0380339
0.34414
0.0402187
0.34759
0.0422691
0.35127
0.0441796
0.355184
0.0459426
0.359333
0.0475494
0.363714
0.0489906
0.36832
0.0502567
0.373139
0.0513391
0.378158
0.05223
0.383356
0.0529234
0.388712
0.0534153
0.394199
0.053704
0.399787
0.0537906
0.405446
0.0536787
0.411143
0.0533751
0.416845
0.052889
0.42252
0.0522319
0.428135
0.0514177
0.433662
0.0504593
0.0491
0.439023
0.328514
0.0108796
0.330232
0.014518
0.332125
0.0177038
0.334191
0.0206805
0.336428
0.0234808
0.338841
0.0261208
0.341441
0.0286131
0.344242
0.0309683
0.347248
0.0331921
0.350462
0.0352852
0.353886
0.0372461
0.357525
0.0390719
0.36138
0.0407583
0.365449
0.0422994
0.369729
0.0436886
0.374214
0.0449191
0.378895
0.0459841
0.383757
0.0468779
0.388784
0.0475958
0.393958
0.0481346
0.399255
0.0484929
0.404651
0.0486716