/*--------------------------------*- C++ -*----------------------------------*\
| =========                 |                                                 |
| \\      /  F ield         | OpenFOAM: The Open Source CFD Toolbox           |
|  \\    /   O peration     | Version:  4.1                                   |
|   \\  /    A nd           | Web:      www.OpenFOAM.org                      |
|    \\/     M anipulation  |                                                 |
\*---------------------------------------------------------------------------*/
FoamFile
{
    version     2.0;
    format      ascii;
    class       volVectorField;
    location    "3.1";
    object      cellDisplacement;
}
// * * * * * * * * * * * * * * * * * * * * * * * * * * * * * * * * * * * * * //

dimensions      [0 1 0 0 0 0 0];

internalField   nonuniform List<vector> 
2790
(
(0.00616601 0 -6.94025e-06)
(0.017661 0 -1.99066e-05)
(0.0275856 0 -3.11927e-05)
(0.0360576 0 -4.0946e-05)
(0.0432029 0 -4.92796e-05)
(0.0491372 0 -5.62523e-05)
(0.0539655 0 -6.18716e-05)
(0.0577813 0 -6.61081e-05)
(0.060668 0 -6.88614e-05)
(0.062699 0 -7.00095e-05)
(0.0639388 0 -6.93103e-05)
(0.064445 0 -6.6528e-05)
(0.0642682 0 -6.13637e-05)
(0.0634533 0 -5.34499e-05)
(0.0620409 0 -4.23481e-05)
(0.0600691 0 -2.7552e-05)
(0.0575717 0 -8.38171e-06)
(0.0545832 0 1.58636e-05)
(0.05114 0 4.59986e-05)
(0.0472813 0 8.29764e-05)
(0.0430511 0 0.000127908)
(0.0385007 0 0.000182104)
(0.0336905 0 0.000247145)
(0.0286947 0 0.00032501)
(0.0236066 0 0.00041827)
(0.0185483 0 0.000530345)
(0.0136878 0 0.000665607)
(0.00925524 0 0.000827553)
(0.00559817 0 0.00101449)
(0.00343281 0 0.00119878)
(0.00617413 0 -2.08454e-05)
(0.0176851 0 -5.97955e-05)
(0.0276254 0 -9.37095e-05)
(0.0361134 0 -0.000123034)
(0.0432757 0 -0.000148112)
(0.0492283 0 -0.000169124)
(0.054077 0 -0.000186094)
(0.0579159 0 -0.000198947)
(0.0608289 0 -0.000207374)
(0.0628899 0 -0.000211052)
(0.0641639 0 -0.000209218)
(0.0647095 0 -0.000201198)
(0.064578 0 -0.000186113)
(0.0638149 0 -0.000162876)
(0.0624616 0 -0.000130191)
(0.0605585 0 -8.66199e-05)
(0.0581392 0 -3.00831e-05)
(0.0552392 0 4.14342e-05)
(0.0518967 0 0.000130301)
(0.0481526 0 0.000239276)
(0.044053 0 0.000371541)
(0.0396519 0 0.000530773)
(0.0350132 0 0.000721292)
(0.0302152 0 0.000948286)
(0.0253561 0 0.0012181)
(0.0205633 0 0.00153858)
(0.0160294 0 0.00191983)
(0.0120189 0 0.00236515)
(0.00891519 0 0.00285756)
(0.0074032 0 0.00330222)
(0.00618962 0 -3.48144e-05)
(0.0177312 0 -9.98812e-05)
(0.0277019 0 -0.000156571)
(0.0362212 0 -0.000205642)
(0.0434166 0 -0.00024768)
(0.0494054 0 -0.000282996)
(0.0542945 0 -0.000311628)
(0.0581793 0 -0.000333518)
(0.0611446 0 -0.000348094)
(0.0632658 0 -0.000355)
(0.0646081 0 -0.000352803)
(0.0652325 0 -0.000340517)
(0.0651915 0 -0.000316724)
(0.0645319 0 -0.000279676)
(0.0632957 0 -0.000227241)
(0.0615253 0 -0.000157021)
(0.0592604 0 -6.62139e-05)
(0.0565351 0 4.86439e-05)
(0.0533912 0 0.000191238)
(0.0498728 0 0.000365822)
(0.0460298 0 0.000577192)
(0.0419218 0 0.000830688)
(0.0376196 0 0.00113226)
(0.0332105 0 0.00148852)
(0.0288037 0 0.00190662)
(0.0245293 0 0.00239468)
(0.0205826 0 0.0029569)
(0.0172909 0 0.00358629)
(0.0150435 0 0.00423629)
(0.0144102 0 0.00475713)
(0.00621281 0 -4.88721e-05)
(0.0178002 0 -0.000140243)
(0.0278161 0 -0.000219922)
(0.0363819 0 -0.000288996)
(0.0436269 0 -0.000348317)
(0.0496692 0 -0.000398353)
(0.0546184 0 -0.00043912)
(0.0585714 0 -0.000470735)
(0.0616144 0 -0.00049216)
(0.0638225 0 -0.000502737)
(0.065265 0 -0.000501344)
(0.0660055 0 -0.000486339)
(0.0660977 0 -0.000455813)
(0.0655912 0 -0.000407479)
(0.0645316 0 -0.000338632)
(0.0629589 0 -0.000245837)
(0.0609194 0 -0.000125784)
(0.0584506 0 2.59952e-05)
(0.0555986 0 0.000214143)
(0.0524108 0 0.000443923)
(0.0489417 0 0.000721078)
(0.0452578 0 0.00105158)
(0.0414383 0 0.00144148)
(0.0375801 0 0.00189655)
(0.033804 0 0.00242133)
(0.0302627 0 0.00301702)
(0.0271294 0 0.00367742)
(0.0247071 0 0.00437491)
(0.0234233 0 0.00503336)
(0.0236712 0 0.00548479)
(0.00624367 0 -6.30345e-05)
(0.0178918 0 -0.000180931)
(0.0279677 0 -0.000283858)
(0.0365948 0 -0.000373252)
(0.0439051 0 -0.000450267)
(0.0500173 0 -0.000515575)
(0.0550455 0 -0.000569047)
(0.0590856 0 -0.000610651)
(0.0622265 0 -0.000639837)
(0.0645492 0 -0.000655358)
(0.0661256 0 -0.000656465)
(0.0670179 0 -0.000640848)
(0.0672838 0 -0.000606256)
(0.0669763 0 -0.000550004)
(0.0661474 0 -0.000469151)
(0.0648378 0 -0.000359478)
(0.0630955 0 -0.000216999)
(0.0609605 0 -3.66478e-05)
(0.0584891 0 0.000186482)
(0.0557309 0 0.000458098)
(0.0527435 0 0.000784173)
(0.0496021 0 0.00117015)
(0.0463933 0 0.00162053)
(0.0432204 0 0.00213799)
(0.04021 0 0.0027214)
(0.0375169 0 0.00336256)
(0.0353274 0 0.00404071)
(0.0338527 0 0.00471091)
(0.0334945 0 0.0052802)
(0.0344889 0 0.00559555)
(0.00628208 0 -7.73078e-05)
(0.0180057 0 -0.000221969)
(0.0281554 0 -0.000348428)
(0.036858 0 -0.000458496)
(0.0442489 0 -0.000553669)
(0.0504441 0 -0.00063435)
(0.0555627 0 -0.000701107)
(0.0597099 0 -0.000753613)
(0.062976 0 -0.000791909)
(0.0654416 0 -0.000814472)
(0.0671819 0 -0.000820301)
(0.0682594 0 -0.00080667)
(0.0687372 0 -0.000771271)
(0.068671 0 -0.000711082)
(0.0681149 0 -0.000622816)
(0.067122 0 -0.000502643)
(0.0657425 0 -0.000346054)
(0.0640229 0 -0.000147713)
(0.0620142 0 9.78062e-05)
(0.0597761 0 0.000395499)
(0.0573643 0 0.000751105)
(0.0548678 0 0.00116849)
(0.0523775 0 0.00164937)
(0.0499985 0 0.00219198)
(0.0478543 0 0.0027884)
(0.0460887 0 0.00342078)
(0.0448625 0 0.00405634)
(0.0443391 0 0.00464272)
(0.0448049 0 0.00508475)
(0.0463934 0 0.00526358)
(0.00632779 0 -9.16907e-05)
(0.0181411 0 -0.000263356)
(0.0283779 0 -0.000413641)
(0.0371689 0 -0.000544753)
(0.0446457 0 -0.000658068)
(0.0509368 0 -0.000754645)
(0.0561686 0 -0.00083563)
(0.0604439 0 -0.000900623)
(0.0638564 0 -0.00094962)
(0.0664879 0 -0.000980881)
(0.0684138 0 -0.000993144)
(0.0697048 0 -0.000984349)
(0.0704274 0 -0.000951851)
(0.0706405 0 -0.000892518)
(0.0703992 0 -0.000802689)
(0.0697684 0 -0.000679104)
(0.0688022 0 -0.000517147)
(0.0675585 0 -0.000312087)
(0.0660847 0 -5.85098e-05)
(0.0644484 0 0.000247663)
(0.0627114 0 0.000611266)
(0.0609426 0 0.0010353)
(0.0592563 0 0.00151707)
(0.0577538 0 0.00205025)
(0.0565468 0 0.00262083)
(0.0557552 0 0.00320388)
(0.0555014 0 0.00376031)
(0.0558906 0 0.00423802)
(0.0570613 0 0.00455591)
(0.0591417 0 0.00462526)
(0.0063804 0 -0.000106175)
(0.018297 0 -0.000305072)
(0.028633 0 -0.000479474)
(0.0375146 0 -0.000631529)
(0.0450899 0 -0.000763443)
(0.0514984 0 -0.000877105)
(0.0568584 0 -0.000973361)
(0.0612782 0 -0.00105189)
(0.0648514 0 -0.00111252)
(0.067665 0 -0.00115429)
(0.0697995 0 -0.00117549)
(0.0713312 0 -0.00117473)
(0.0723271 0 -0.00114915)
(0.0728516 0 -0.00109575)
(0.0729672 0 -0.00101118)
(0.0727391 0 -0.000892006)
(0.0722292 0 -0.000734249)
(0.0714999 0 -0.000533747)
(0.0706116 0 -0.000286308)
(0.0696342 0 1.13508e-05)
(0.0686436 0 0.000361377)
(0.067694 0 0.00076584)
(0.0668737 0 0.0012211)
(0.0663061 0 0.00171475)
(0.0660844 0 0.00222854)
(0.0662927 0 0.00273434)
(0.067003 0 0.00319273)
(0.0682604 0 0.00355604)
(0.0700851 0 0.0037631)
(0.0726085 0 0.00374547)
(0.0064393 0 -0.000120743)
(0.0184721 0 -0.000347069)
(0.0289082 0 -0.000545459)
(0.0378906 0 -0.00071873)
(0.045585 0 -0.000870265)
(0.0521228 0 -0.00100171)
(0.0576196 0 -0.00111362)
(0.0621921 0 -0.00120666)
(0.0659417 0 -0.00128049)
(0.0689595 0 -0.00133493)
(0.0713269 0 -0.00136835)
(0.0731214 0 -0.00137907)
(0.0744148 0 -0.00136461)
(0.0752769 0 -0.00132233)
(0.075776 0 -0.00124929)
(0.0759808 0 -0.00114241)
(0.0759606 0 -0.000998542)
(0.0757839 0 -0.000814502)
(0.0755191 0 -0.000587358)
(0.0752396 0 -0.000315128)
(0.0750216 0 2.67696e-06)
(0.0749418 0 0.000364175)
(0.0750578 0 0.000765686)
(0.0754604 0 0.00119467)
(0.0762571 0 0.00162742)
(0.0774846 0 0.00203657)
(0.0791575 0 0.00238622)
(0.0812543 0 0.0026364)
(0.0837368 0 0.00274001)
(0.0866727 0 0.00264279)
(0.00650362 0 -0.000135368)
(0.0186557 0 -0.00038914)
(0.0292008 0 -0.000611512)
(0.0383018 0 -0.000806714)
(0.0461256 0 -0.000978411)
(0.0527929 0 -0.00112767)
(0.0584352 0 -0.00125601)
(0.0631784 0 -0.00136492)
(0.0671217 0 -0.00145415)
(0.0703587 0 -0.00152344)
(0.0729745 0 -0.00157167)
(0.0750491 0 -0.00159729)
(0.0766576 0 -0.0015981)
(0.0778763 0 -0.00157205)
(0.0787778 0 -0.00151679)
(0.0794349 0 -0.0014298)
(0.0799253 0 -0.00130914)
(0.0803237 0 -0.00115288)
(0.0807044 0 -0.000959482)
(0.0811441 0 -0.000728509)
(0.0817213 0 -0.000461236)
(0.0825129 0 -0.000161395)
(0.0835915 0 0.000163846)
(0.0850019 0 0.00050458)
(0.0868421 0 0.000836598)
(0.089109 0 0.00113447)
(0.0917626 0 0.00136824)
(0.0947179 0 0.00150554)
(0.097862 0 0.00150881)
(0.10117 0 0.00133374)
(0.00657401 0 -0.000150043)
(0.0188463 0 -0.000431067)
(0.0295073 0 -0.000677719)
(0.0387426 0 -0.000895255)
(0.046696 0 -0.00108711)
(0.0534993 0 -0.00125472)
(0.0593042 0 -0.00140098)
(0.0642282 0 -0.00152704)
(0.0683756 0 -0.00163315)
(0.0718428 0 -0.00171931)
(0.0747188 0 -0.00178493)
(0.0770858 0 -0.00182876)
(0.0790207 0 -0.00184876)
(0.0806072 0 -0.0018438)
(0.0819219 0 -0.00181225)
(0.0830386 0 -0.00175209)
(0.0840471 0 -0.00166312)
(0.0850277 0 -0.00154493)
(0.086058 0 -0.00139741)
(0.0872181 0 -0.00122176)
(0.0885891 0 -0.00102105)
(0.0902488 0 -0.000800644)
(0.0922662 0 -0.000568794)
(0.0946963 0 -0.000336027)
(0.0975881 0 -0.000122051)
(0.10091 0 5.21638e-05)
(0.104574 0 0.0001645)
(0.108429 0 0.00019105)
(0.112261 0 0.000101541)
(0.11591 0 -0.000141378)
(0.00664029 0 -0.00016452)
(0.0190422 0 -0.00047273)
(0.0298319 0 -0.000744065)
(0.0392005 0 -0.000983953)
(0.0472901 0 -0.00119612)
(0.0542422 0 -0.00138315)
(0.0602156 0 -0.00154813)
(0.0653278 0 -0.00169245)
(0.069686 0 -0.00181685)
(0.0733907 0 -0.00192169)
(0.0765346 0 -0.00200709)
(0.0791916 0 -0.00207112)
(0.0814545 0 -0.00211362)
(0.0834111 0 -0.00213402)
(0.0851406 0 -0.00213159)
(0.0867258 0 -0.00210566)
(0.0882459 0 -0.00205563)
(0.0898002 0 -0.00198433)
(0.0914655 0 -0.00189288)
(0.0933248 0 -0.00178422)
(0.0954618 0 -0.00166316)
(0.0979559 0 -0.00153661)
(0.100877 0 -0.00141357)
(0.104284 0 -0.00130417)
(0.108198 0 -0.00122327)
(0.112566 0 -0.00118467)
(0.117267 0 -0.00119961)
(0.122085 0 -0.00127925)
(0.12668 0 -0.00144345)
(0.130694 0 -0.00173091)
(0.00670174 0 -0.000178764)
(0.0192425 0 -0.000514334)
(0.0301706 0 -0.000810367)
(0.039671 0 -0.00107258)
(0.0479031 0 -0.0013055)
(0.0550113 0 -0.00151248)
(0.0611579 0 -0.00169688)
(0.0664623 0 -0.00186045)
(0.0710349 0 -0.00200434)
(0.0749799 0 -0.00212936)
(0.0783853 0 -0.00223584)
(0.0813293 0 -0.00232231)
(0.0839197 0 -0.00239029)
(0.0862413 0 -0.0024396)
(0.0883784 0 -0.00247054)
(0.0904192 0 -0.00248409)
(0.0924393 0 -0.00247989)
(0.0945445 0 -0.00246253)
(0.0968104 0 -0.00243492)
(0.0993238 0 -0.00240183)
(0.10217 0 -0.0023699)
(0.10543 0 -0.00234751)
(0.109175 0 -0.00234449)
(0.113468 0 -0.00237073)
(0.118321 0 -0.0024366)
(0.123672 0 -0.00254774)
(0.129394 0 -0.00270158)
(0.135239 0 -0.00288837)
(0.140739 0 -0.00310533)
(0.145256 0 -0.00340479)
(0.00676712 0 -0.000192967)
(0.0194447 0 -0.000555703)
(0.0305097 0 -0.000876132)
(0.0401476 0 -0.00116078)
(0.0485273 0 -0.00141474)
(0.0557967 0 -0.00164213)
(0.062119 0 -0.00184652)
(0.0676171 0 -0.00203012)
(0.0724037 0 -0.0021945)
(0.0765851 0 -0.00234084)
(0.080246 0 -0.0024695)
(0.0834801 0 -0.00258124)
(0.0863904 0 -0.00267718)
(0.0890652 0 -0.00275823)
(0.0915911 0 -0.00282566)
(0.0940551 0 -0.00288131)
(0.0965521 0 -0.00292796)
(0.0991672 0 -0.00296928)
(0.10198 0 -0.00301029)
(0.105078 0 -0.0030577)
(0.108548 0 -0.00311992)
(0.112468 0 -0.00320695)
(0.116908 0 -0.0033298)
(0.121937 0 -0.00349925)
(0.127561 0 -0.00372327)
(0.133728 0 -0.00400234)
(0.140337 0 -0.00432204)
(0.14717 0 -0.00464479)
(0.153717 0 -0.0049158)
(0.159034 0 -0.00518732)
(0.00683395 0 -0.000207025)
(0.0196449 0 -0.000596479)
(0.0308457 0 -0.000941065)
(0.0406242 0 -0.00124816)
(0.0491547 0 -0.00152324)
(0.0565892 0 -0.00177144)
(0.0630869 0 -0.00199623)
(0.0687776 0 -0.00220046)
(0.0737752 0 -0.00238611)
(0.0781869 0 -0.00255472)
(0.0820979 0 -0.00270686)
(0.0856143 0 -0.0028454)
(0.0888307 0 -0.00297099)
(0.0918399 0 -0.00308569)
(0.0947292 0 -0.00319167)
(0.0975845 0 -0.00329158)
(0.100515 0 -0.00339126)
(0.103583 0 -0.00349316)
(0.10687 0 -0.00360426)
(0.110464 0 -0.00373297)
(0.114445 0 -0.00388929)
(0.118886 0 -0.00408479)
(0.123849 0 -0.00433208)
(0.129399 0 -0.00464444)
(0.135528 0 -0.00503062)
(0.142193 0 -0.00549479)
(0.149319 0 -0.00602693)
(0.156744 0 -0.00657967)
(0.16407 0 -0.0070132)
(0.170466 0 -0.00722676)
(0.00399617 0 -0.00144847)
(0.0074606 0 -0.00146833)
(0.0134286 0 -0.00144407)
(0.0211411 0 -0.00141224)
(0.0298553 0 -0.00137821)
(0.0389379 0 -0.00134269)
(0.0478953 0 -0.00129777)
(0.0563956 0 -0.00124558)
(0.0642085 0 -0.0011879)
(0.0711863 0 -0.0011263)
(0.0772477 0 -0.00106247)
(0.0823569 0 -0.000997279)
(0.0865105 0 -0.00093197)
(0.0897185 0 -0.000868537)
(0.0919877 0 -0.000802721)
(0.0933389 0 -0.00074171)
(0.0937874 0 -0.000683813)
(0.0933342 0 -0.000628589)
(0.0919726 0 -0.000575767)
(0.0896888 0 -0.000525253)
(0.0864592 0 -0.000476231)
(0.0822512 0 -0.000428445)
(0.0770233 0 -0.000381387)
(0.0707285 0 -0.000334931)
(0.0633147 0 -0.000288447)
(0.0547245 0 -0.000241367)
(0.0448966 0 -0.000192941)
(0.0337671 0 -0.000142336)
(0.0212727 0 -8.85635e-05)
(0.00734191 0 -3.04519e-05)
(0.00759561 0 -0.00423865)
(0.0109754 0 -0.00429339)
(0.0167131 0 -0.00424447)
(0.0241592 0 -0.00417333)
(0.0325846 0 -0.00408673)
(0.0413537 0 -0.00397815)
(0.0500037 0 -0.00384661)
(0.0582239 0 -0.00369404)
(0.0657823 0 -0.00352509)
(0.0725299 0 -0.00334406)
(0.0783863 0 -0.00315641)
(0.0833144 0 -0.00296411)
(0.0873122 0 -0.00277081)
(0.0903835 0 -0.0025794)
(0.0925397 0 -0.00238978)
(0.0937997 0 -0.00221031)
(0.0941709 0 -0.00203916)
(0.0936527 0 -0.00187549)
(0.0922369 0 -0.00171859)
(0.0899081 0 -0.00156862)
(0.0866417 0 -0.00142265)
(0.0824035 0 -0.00128029)
(0.0771497 0 -0.00113983)
(0.0708327 0 -0.00100123)
(0.0634 0 -0.000862421)
(0.0547931 0 -0.000721784)
(0.0449502 0 -0.000577052)
(0.0338063 0 -0.000425756)
(0.0212946 0 -0.000264916)
(0.00734765 0 -9.09662e-05)
(0.0140806 0 -0.00674787)
(0.0174395 0 -0.00685798)
(0.0228632 0 -0.00683539)
(0.0298691 0 -0.00676757)
(0.0377518 0 -0.00665566)
(0.0459489 0 -0.00649217)
(0.0540538 0 -0.00628717)
(0.0617551 0 -0.0060452)
(0.0688326 0 -0.00577507)
(0.075139 0 -0.00548302)
(0.080601 0 -0.00518057)
(0.0851774 0 -0.00486833)
(0.08887 0 -0.00455415)
(0.0916817 0 -0.00424174)
(0.0936231 0 -0.0039384)
(0.0947019 0 -0.00364701)
(0.0949205 0 -0.00336756)
(0.0942745 0 -0.00309948)
(0.0927513 0 -0.00284157)
(0.0903323 0 -0.00259136)
(0.0869938 0 -0.00235113)
(0.0826966 0 -0.00211698)
(0.0773921 0 -0.00188494)
(0.0710318 0 -0.00165648)
(0.0635623 0 -0.00142718)
(0.0549232 0 -0.00119481)
(0.0450519 0 -0.00095545)
(0.0338813 0 -0.000705106)
(0.0213458 0 -0.000438897)
(0.00736798 0 -0.000150731)
(0.0228415 0 -0.00897574)
(0.0261894 0 -0.00915224)
(0.0312852 0 -0.00919517)
(0.0377557 0 -0.00916228)
(0.0449592 0 -0.00904938)
(0.0524338 0 -0.00885767)
(0.0598059 0 -0.00859603)
(0.066795 0 -0.00827693)
(0.0732039 0 -0.00791767)
(0.0788855 0 -0.00752283)
(0.0837742 0 -0.0071073)
(0.0878478 0 -0.00668261)
(0.0911091 0 -0.00625644)
(0.0935552 0 -0.00583552)
(0.0951877 0 -0.00542581)
(0.0960054 0 -0.00502997)
(0.0960043 0 -0.0046489)
(0.0951746 0 -0.00428242)
(0.0935007 0 -0.0039296)
(0.0909551 0 -0.0035872)
(0.0875081 0 -0.00325667)
(0.0831263 0 -0.00293459)
(0.077749 0 -0.00261604)
(0.0713244 0 -0.00230041)
(0.0638008 0 -0.00198223)
(0.0551141 0 -0.00166005)
(0.0452009 0 -0.00132773)
(0.0339908 0 -0.000980045)
(0.0214166 0 -0.000610164)
(0.00739372 0 -0.000209645)
(0.033239 0 -0.0109877)
(0.0366084 0 -0.0112391)
(0.0414238 0 -0.0113662)
(0.0473452 0 -0.0113839)
(0.0538185 0 -0.0112849)
(0.0604658 0 -0.0110731)
(0.066969 0 -0.0107623)
(0.0730968 0 -0.0103724)
(0.0786702 0 -0.00992691)
(0.0835658 0 -0.00943688)
(0.0877462 0 -0.00891672)
(0.0912053 0 -0.00838792)
(0.0939332 0 -0.00785936)
(0.0959238 0 -0.00733896)
(0.0971698 0 -0.00683238)
(0.0976593 0 -0.00634116)
(0.0973814 0 -0.00586676)
(0.0963194 0 -0.00540945)
(0.0944505 0 -0.00496849)
(0.0917449 0 -0.00454308)
(0.0881641 0 -0.00412852)
(0.0836695 0 -0.00372321)
(0.0782006 0 -0.00332486)
(0.0717024 0 -0.00292657)
(0.0641117 0 -0.00252424)
(0.0553624 0 -0.00211503)
(0.0453956 0 -0.00169184)
(0.0341337 0 -0.00124912)
(0.0215081 0 -0.000777832)
(0.00742628 0 -0.000267301)
(0.044806 0 -0.012892)
(0.048251 0 -0.013213)
(0.0528626 0 -0.0134179)
(0.058235 0 -0.013475)
(0.063949 0 -0.0133821)
(0.0696969 0 -0.0131445)
(0.0752301 0 -0.0127819)
(0.0803829 0 -0.0123239)
(0.0849826 0 -0.0117902)
(0.0889869 0 -0.0112101)
(0.0923728 0 -0.0106)
(0.0951278 0 -0.00997833)
(0.0972425 0 -0.00935772)
(0.0987077 0 -0.00874792)
(0.0995067 0 -0.00815503)
(0.0996134 0 -0.00757766)
(0.0990116 0 -0.00701842)
(0.097677 0 -0.00647798)
(0.095579 0 -0.00595563)
(0.0926811 0 -0.00544978)
(0.0889409 0 -0.00495694)
(0.0843077 0 -0.00447302)
(0.0787266 0 -0.00399783)
(0.0721392 0 -0.0035221)
(0.0644709 0 -0.00304241)
(0.0556586 0 -0.00255153)
(0.0456312 0 -0.0020428)
(0.034306 0 -0.00150884)
(0.0216191 0 -0.000939772)
(0.00746537 0 -0.000322992)
(0.0572783 0 -0.014783)
(0.060835 0 -0.0151505)
(0.0652519 0 -0.015398)
(0.0700775 0 -0.0154674)
(0.0750027 0 -0.0153567)
(0.0797885 0 -0.0150754)
(0.0842704 0 -0.0146495)
(0.0883491 0 -0.0141177)
(0.091906 0 -0.0135028)
(0.0949532 0 -0.012839)
(0.0974766 0 -0.0121462)
(0.0994672 0 -0.0114421)
(0.100915 0 -0.0107401)
(0.101808 0 -0.010052)
(0.102108 0 -0.00937921)
(0.101793 0 -0.00872531)
(0.100834 0 -0.0080906)
(0.0991981 0 -0.00747581)
(0.0968461 0 -0.00688013)
(0.0937346 0 -0.00630168)
(0.0898176 0 -0.00573763)
(0.0850341 0 -0.00518351)
(0.0793234 0 -0.00463519)
(0.0726255 0 -0.00408581)
(0.0648648 0 -0.00353167)
(0.0559788 0 -0.00296424)
(0.0458861 0 -0.00237639)
(0.034503 0 -0.00175662)
(0.0217497 0 -0.00109513)
(0.00751096 0 -0.000376426)
(0.0705205 0 -0.0167023)
(0.0741708 0 -0.0170841)
(0.0783333 0 -0.0173275)
(0.0825836 0 -0.0173721)
(0.08666 0 -0.0172114)
(0.0904137 0 -0.0168622)
(0.093772 0 -0.0163583)
(0.0967075 0 -0.0157435)
(0.0991924 0 -0.015052)
(0.101247 0 -0.014312)
(0.102874 0 -0.0135457)
(0.104071 0 -0.01277)
(0.104822 0 -0.0119971)
(0.105111 0 -0.0112403)
(0.104887 0 -0.0104986)
(0.104128 0 -0.00977759)
(0.102794 0 -0.00907716)
(0.100839 0 -0.00839728)
(0.0982161 0 -0.00773684)
(0.0948755 0 -0.00709375)
(0.0907626 0 -0.00646503)
(0.0858171 0 -0.00584741)
(0.0799752 0 -0.00523381)
(0.0731631 0 -0.00461823)
(0.0652962 0 -0.00399273)
(0.0563156 0 -0.00335266)
(0.0461512 0 -0.00268976)
(0.0347036 0 -0.00199029)
(0.0218804 0 -0.00124172)
(0.00756276 0 -0.000427348)
(0.084418 0 -0.018637)
(0.0880948 0 -0.0190056)
(0.0919167 0 -0.019206)
(0.0954847 0 -0.0191822)
(0.098613 0 -0.0189344)
(0.101255 0 -0.0184913)
(0.103434 0 -0.0178954)
(0.105203 0 -0.017195)
(0.106598 0 -0.0164285)
(0.107654 0 -0.0156203)
(0.108386 0 -0.014791)
(0.108787 0 -0.0139554)
(0.10884 0 -0.0131241)
(0.108516 0 -0.0123084)
(0.107771 0 -0.011512)
(0.106564 0 -0.0107353)
(0.104845 0 -0.00997922)
(0.102561 0 -0.00924348)
(0.0996592 0 -0.00852677)
(0.0960802 0 -0.00782679)
(0.0917635 0 -0.00714031)
(0.0866444 0 -0.0064633)
(0.0806552 0 -0.00578983)
(0.0737265 0 -0.00511452)
(0.0657567 0 -0.00442546)
(0.0566735 0 -0.0037176)
(0.0464195 0 -0.002983)
(0.0349049 0 -0.00220911)
(0.0220082 0 -0.0013789)
(0.00760234 0 -0.000474406)
(0.0988229 0 -0.0205509)
(0.102427 0 -0.020888)
(0.105768 0 -0.0210085)
(0.108496 0 -0.0208712)
(0.110545 0 -0.020499)
(0.111991 0 -0.0199387)
(0.112957 0 -0.0192414)
(0.113561 0 -0.0184568)
(0.113886 0 -0.0176218)
(0.113974 0 -0.0167561)
(0.11384 0 -0.0158762)
(0.113475 0 -0.0149941)
(0.112852 0 -0.0141177)
(0.111936 0 -0.0132571)
(0.110681 0 -0.0124168)
(0.109033 0 -0.0115955)
(0.106933 0 -0.0107939)
(0.104323 0 -0.0100117)
(0.10114 0 -0.00924734)
(0.0973198 0 -0.00849835)
(0.0927962 0 -0.00776136)
(0.0874999 0 -0.00703201)
(0.0813593 0 -0.0063047)
(0.0743032 0 -0.00557347)
(0.066226 0 -0.00482747)
(0.0570425 0 -0.00405769)
(0.0466975 0 -0.00325694)
(0.0351035 0 -0.00241252)
(0.0221345 0 -0.00150698)
(0.00764715 0 -0.000518555)
(0.113571 0 -0.0224208)
(0.116974 0 -0.0227052)
(0.11962 0 -0.0226966)
(0.121292 0 -0.022394)
(0.122109 0 -0.0218628)
(0.12229 0 -0.0211705)
(0.122041 0 -0.0203722)
(0.121521 0 -0.0195127)
(0.120834 0 -0.0186222)
(0.120018 0 -0.0177134)
(0.11908 0 -0.0167979)
(0.118004 0 -0.0158838)
(0.11675 0 -0.0149765)
(0.115279 0 -0.0140842)
(0.113542 0 -0.0132116)
(0.111473 0 -0.0123566)
(0.109007 0 -0.0115197)
(0.10608 0 -0.0107004)
(0.102623 0 -0.00989693)
(0.0985655 0 -0.00910686)
(0.0938369 0 -0.00832666)
(0.0883635 0 -0.00755186)
(0.0820699 0 -0.00677688)
(0.0748816 0 -0.00599556)
(0.0666954 0 -0.00519813)
(0.0574139 0 -0.004372)
(0.0469764 0 -0.00351055)
(0.0352931 0 -0.00260049)
(0.0222569 0 -0.00162528)
(0.00769833 0 -0.000559984)
(0.128514 0 -0.0242423)
(0.131498 0 -0.0244227)
(0.133112 0 -0.0242036)
(0.133452 0 -0.0236781)
(0.132901 0 -0.022966)
(0.1318 0 -0.0221452)
(0.130391 0 -0.021262)
(0.128839 0 -0.0203478)
(0.127242 0 -0.0194217)
(0.12562 0 -0.0184887)
(0.123969 0 -0.0175548)
(0.122258 0 -0.0166245)
(0.120441 0 -0.0157011)
(0.118465 0 -0.0147896)
(0.116285 0 -0.0138963)
(0.113827 0 -0.0130184)
(0.111021 0 -0.0121561)
(0.107794 0 -0.0113088)
(0.104075 0 -0.0104747)
(0.0997901 0 -0.00965141)
(0.0948627 0 -0.00883526)
(0.0892161 0 -0.00802177)
(0.082771 0 -0.00720531)
(0.0754463 0 -0.00637922)
(0.0671524 0 -0.00553529)
(0.0577807 0 -0.00465987)
(0.0472499 0 -0.00374321)
(0.035482 0 -0.00277336)
(0.0223719 0 -0.00173345)
(0.00774025 0 -0.000597544)
(0.143474 0 -0.0259941)
(0.145583 0 -0.0259467)
(0.145668 0 -0.0254018)
(0.144418 0 -0.0246148)
(0.142456 0 -0.0237356)
(0.140156 0 -0.0228203)
(0.137731 0 -0.0218891)
(0.135296 0 -0.0209524)
(0.132934 0 -0.0200175)
(0.13064 0 -0.0190823)
(0.12839 0 -0.0181487)
(0.126143 0 -0.0172188)
(0.123846 0 -0.0162945)
(0.121436 0 -0.0153783)
(0.118866 0 -0.0144754)
(0.116059 0 -0.0135851)
(0.112941 0 -0.012707)
(0.109439 0 -0.0118405)
(0.105476 0 -0.0109838)
(0.100975 0 -0.0101346)
(0.0958579 0 -0.00928939)
(0.0900446 0 -0.00844361)
(0.0834527 0 -0.00759163)
(0.0759972 0 -0.00672654)
(0.0675867 0 -0.00583971)
(0.0581219 0 -0.00491984)
(0.0475104 0 -0.00395444)
(0.0356623 0 -0.00293061)
(0.0224757 0 -0.00183158)
(0.00777381 0 -0.000631304)
(0.157922 0 -0.0275394)
(0.158309 0 -0.0270236)
(0.156369 0 -0.0260671)
(0.153473 0 -0.0250663)
(0.150272 0 -0.0241013)
(0.14702 0 -0.0231656)
(0.143834 0 -0.022245)
(0.140753 0 -0.0213296)
(0.137819 0 -0.0204168)
(0.135011 0 -0.0195036)
(0.132292 0 -0.0185896)
(0.129616 0 -0.0176758)
(0.126926 0 -0.016764)
(0.124159 0 -0.0158564)
(0.121255 0 -0.0149558)
(0.118143 0 -0.014063)
(0.114748 0 -0.013178)
(0.110996 0 -0.0123003)
(0.106808 0 -0.0114285)
(0.102106 0 -0.0105602)
(0.0968103 0 -0.0096922)
(0.0908385 0 -0.00882004)
(0.0841063 0 -0.00793811)
(0.0765261 0 -0.0070394)
(0.0680056 0 -0.00611522)
(0.0584473 0 -0.00515468)
(0.0477548 0 -0.00414523)
(0.0358296 0 -0.00307274)
(0.0225625 0 -0.0019196)
(0.00779533 0 -0.000661006)
(0.169822 0 -0.028304)
(0.167846 0 -0.0270729)
(0.164082 0 -0.0258977)
(0.16005 0 -0.0249197)
(0.156093 0 -0.0240358)
(0.152289 0 -0.0231862)
(0.148655 0 -0.0223427)
(0.145191 0 -0.0214936)
(0.141892 0 -0.0206357)
(0.138732 0 -0.0197681)
(0.135675 0 -0.0188919)
(0.132674 0 -0.0180089)
(0.129672 0 -0.0171215)
(0.126612 0 -0.0162323)
(0.12343 0 -0.0153436)
(0.120056 0 -0.014457)
(0.116419 0 -0.013573)
(0.112443 0 -0.0126914)
(0.108052 0 -0.0118111)
(0.103167 0 -0.01093)
(0.0977051 0 -0.0100451)
(0.0915851 0 -0.00915203)
(0.0847208 0 -0.00824541)
(0.0770232 0 -0.00731825)
(0.0683992 0 -0.00636186)
(0.0587515 0 -0.00536557)
(0.0479807 0 -0.00431676)
(0.0359834 0 -0.00320067)
(0.0226468 0 -0.00199926)
(0.00781982 0 -0.000688086)
(0.00690195 0 -0.000221062)
(0.0198423 0 -0.000637051)
(0.0311805 0 -0.00100604)
(0.0411031 0 -0.00133594)
(0.0497911 0 -0.00163288)
(0.0573947 0 -0.00190218)
(0.0640679 0 -0.00214793)
(0.0699514 0 -0.00237358)
(0.0751585 0 -0.00258146)
(0.0797956 0 -0.00277349)
(0.0839571 0 -0.00295101)
(0.0877437 0 -0.00311713)
(0.0912513 0 -0.0032738)
(0.0945763 0 -0.00342376)
(0.0978036 0 -0.00357001)
(0.101027 0 -0.00371684)
(0.104339 0 -0.00386978)
(0.107795 0 -0.00403238)
(0.11148 0 -0.00421297)
(0.115471 0 -0.00442107)
(0.119838 0 -0.00466777)
(0.124643 0 -0.00496577)
(0.129931 0 -0.00532919)
(0.135746 0 -0.00577441)
(0.142041 0 -0.00631131)
(0.148752 0 -0.00695793)
(0.155774 0 -0.00774009)
(0.162884 0 -0.008711)
(0.169664 0 -0.0100098)
(0.175807 0 -0.0121016)
(0.00697112 0 -0.000235107)
(0.0200461 0 -0.000677782)
(0.0315236 0 -0.00107148)
(0.0415913 0 -0.0014245)
(0.0504322 0 -0.00174373)
(0.0582038 0 -0.00203463)
(0.06506 0 -0.00230227)
(0.071137 0 -0.00255021)
(0.0765521 0 -0.00278131)
(0.0814129 0 -0.00299803)
(0.0858182 0 -0.00320259)
(0.0898637 0 -0.0033976)
(0.0936519 0 -0.00358685)
(0.0972724 0 -0.0037733)
(0.100812 0 -0.00396085)
(0.10436 0 -0.00415477)
(0.107986 0 -0.00435926)
(0.11176 0 -0.00458066)
(0.115753 0 -0.00482737)
(0.120029 0 -0.00510923)
(0.124643 0 -0.00543753)
(0.129637 0 -0.005825)
(0.135031 0 -0.00628582)
(0.14082 0 -0.00683561)
(0.146923 0 -0.00748566)
(0.153235 0 -0.00825823)
(0.15958 0 -0.00918457)
(0.165687 0 -0.010318)
(0.171185 0 -0.0117539)
(0.175636 0 -0.0136397)
(0.00704 0 -0.000248972)
(0.0202503 0 -0.000718058)
(0.0318653 0 -0.00113615)
(0.0420761 0 -0.00151214)
(0.0510687 0 -0.00185358)
(0.0590062 0 -0.00216656)
(0.0660401 0 -0.00245628)
(0.0723053 0 -0.00272681)
(0.0779211 0 -0.00298151)
(0.0829964 0 -0.00322336)
(0.0876318 0 -0.00345523)
(0.0919237 0 -0.00368029)
(0.0959679 0 -0.00390226)
(0.099852 0 -0.00412488)
(0.103659 0 -0.00435248)
(0.107468 0 -0.00459022)
(0.111347 0 -0.00484346)
(0.115359 0 -0.00511892)
(0.119562 0 -0.00542484)
(0.124006 0 -0.00577065)
(0.128726 0 -0.0061669)
(0.133739 0 -0.00662512)
(0.139038 0 -0.00715759)
(0.14458 0 -0.00777707)
(0.150269 0 -0.00849619)
(0.155973 0 -0.0093332)
(0.161507 0 -0.0103152)
(0.166607 0 -0.0114725)
(0.170946 0 -0.0128429)
(0.174223 0 -0.0145021)
(0.00710718 0 -0.000262539)
(0.0204502 0 -0.000757519)
(0.0321992 0 -0.00119954)
(0.0425495 0 -0.00159815)
(0.0516899 0 -0.00196153)
(0.0597865 0 -0.00229628)
(0.0669899 0 -0.00260791)
(0.0734342 0 -0.0029009)
(0.0792396 0 -0.00317907)
(0.0845151 0 -0.00344587)
(0.0893614 0 -0.00370464)
(0.0938736 0 -0.00395892)
(0.0981423 0 -0.00421259)
(0.102251 0 -0.00446976)
(0.106279 0 -0.00473501)
(0.110295 0 -0.00501354)
(0.114362 0 -0.00531106)
(0.118533 0 -0.00563423)
(0.122856 0 -0.00599077)
(0.127362 0 -0.00638922)
(0.13207 0 -0.00683881)
(0.136977 0 -0.00734925)
(0.142052 0 -0.0079304)
(0.147233 0 -0.00859241)
(0.152417 0 -0.00934523)
(0.157485 0 -0.0102052)
(0.162242 0 -0.0111824)
(0.166453 0 -0.0122852)
(0.16991 0 -0.0135324)
(0.172405 0 -0.0149613)
(0.00717122 0 -0.000275678)
(0.0206415 0 -0.000795782)
(0.0325191 0 -0.00126107)
(0.0430033 0 -0.00168176)
(0.0522853 0 -0.00206659)
(0.0605329 0 -0.00242264)
(0.0678961 0 -0.00275576)
(0.0745086 0 -0.00307082)
(0.0804901 0 -0.00337203)
(0.085949 0 -0.0036632)
(0.0909848 0 -0.00394803)
(0.0956899 0 -0.00423031)
(0.100151 0 -0.00451407)
(0.104446 0 -0.00480357)
(0.108647 0 -0.00510347)
(0.112817 0 -0.00541888)
(0.11701 0 -0.00575541)
(0.121272 0 -0.0061193)
(0.125635 0 -0.00651745)
(0.13012 0 -0.00695722)
(0.134728 0 -0.00744621)
(0.139444 0 -0.00799221)
(0.144223 0 -0.00860243)
(0.149 0 -0.00928519)
(0.153677 0 -0.0100475)
(0.158127 0 -0.0108948)
(0.162181 0 -0.0118259)
(0.165686 0 -0.0128458)
(0.168496 0 -0.0139606)
(0.170479 0 -0.0151745)
(0.00723068 0 -0.00028825)
(0.02082 0 -0.000832443)
(0.0328188 0 -0.00132012)
(0.0434294 0 -0.00176211)
(0.052845 0 -0.00216769)
(0.0612341 0 -0.00254438)
(0.0687461 0 -0.00289834)
(0.0755138 0 -0.0032348)
(0.081656 0 -0.00355827)
(0.0872798 0 -0.00387287)
(0.0924823 0 -0.00418254)
(0.0973527 0 -0.00449121)
(0.101973 0 -0.00480295)
(0.106415 0 -0.00512207)
(0.110746 0 -0.00545311)
(0.115022 0 -0.00580093)
(0.119287 0 -0.00617073)
(0.123578 0 -0.00656813)
(0.127919 0 -0.00699899)
(0.132318 0 -0.00746943)
(0.136767 0 -0.00798516)
(0.141242 0 -0.00855267)
(0.145701 0 -0.00917756)
(0.150072 0 -0.00986344)
(0.154252 0 -0.0106114)
(0.158137 0 -0.0114211)
(0.161611 0 -0.0122916)
(0.164562 0 -0.0132214)
(0.166896 0 -0.0142072)
(0.168535 0 -0.0152373)
(0.00728418 0 -0.000300103)
(0.0209817 0 -0.00086707)
(0.0330922 0 -0.001376)
(0.0438201 0 -0.00183829)
(0.0533595 0 -0.00226371)
(0.0618791 0 -0.00266012)
(0.0695274 0 -0.00303403)
(0.076436 0 -0.00339092)
(0.0827223 0 -0.00373559)
(0.0884912 0 -0.00407235)
(0.093837 0 -0.00440526)
(0.0988449 0 -0.00473832)
(0.103592 0 -0.00507556)
(0.108147 0 -0.00542117)
(0.112568 0 -0.0057795)
(0.116904 0 -0.00615493)
(0.121194 0 -0.00655212)
(0.125466 0 -0.00697596)
(0.129736 0 -0.00743107)
(0.134005 0 -0.00792275)
(0.138266 0 -0.00845593)
(0.142486 0 -0.00903412)
(0.14661 0 -0.00965901)
(0.150573 0 -0.0103307)
(0.154298 0 -0.0110492)
(0.157703 0 -0.0118123)
(0.160703 0 -0.0126167)
(0.163222 0 -0.013457)
(0.165199 0 -0.0143248)
(0.166593 0 -0.0152043)
(0.00733039 0 -0.00031108)
(0.0211229 0 -0.000899209)
(0.0333336 0 -0.001428)
(0.0441679 0 -0.00190935)
(0.0538199 0 -0.00235343)
(0.0624578 0 -0.00276844)
(0.0702286 0 -0.00316113)
(0.0772624 0 -0.00353721)
(0.0836752 0 -0.00390169)
(0.0895692 0 -0.00425903)
(0.095035 0 -0.00461329)
(0.100154 0 -0.00496843)
(0.104997 0 -0.00532835)
(0.10963 0 -0.00569705)
(0.114106 0 -0.00607861)
(0.118465 0 -0.00647679)
(0.122742 0 -0.00689553)
(0.126957 0 -0.00733927)
(0.131128 0 -0.00781231)
(0.13525 0 -0.00831801)
(0.139297 0 -0.00885849)
(0.143239 0 -0.00943465)
(0.147033 0 -0.0100474)
(0.150623 0 -0.0106959)
(0.15395 0 -0.0113781)
(0.15695 0 -0.0120907)
(0.159565 0 -0.0128284)
(0.161743 0 -0.0135844)
(0.163447 0 -0.0143485)
(0.164658 0 -0.0151056)
(0.00736812 0 -0.000321018)
(0.0212402 0 -0.000928388)
(0.0335378 0 -0.00147537)