# vtk DataFile Version 2.0

ASCII

DATASET UNSTRUCTURED_GRID

POINTS 86 float 

5.0000000000000003e-02  0.0000000000000000e+00  0.0000000000000000e+00
5.0000000000000003e-02  0.0000000000000000e+00  5.0000000000000003e-02
5.0000000000000003e-02  2.9999999999999999e-01  0.0000000000000000e+00
5.0000000000000003e-02  2.9999999999999999e-01  5.0000000000000003e-02
5.0000000000000003e-02  0.0000000000000000e+00  1.0000000000000001e-01
5.0000000000000003e-02  2.9999999999999999e-01  1.0000000000000001e-01
5.0000000000000003e-02  0.0000000000000000e+00  1.4999999999999999e-01
5.0000000000000003e-02  2.9999999999999999e-01  1.4999999999999999e-01
5.0000000000000003e-02  0.0000000000000000e+00  2.0000000000000001e-01
5.0000000000000003e-02  2.9999999999999999e-01  2.0000000000000001e-01
5.0000000000000003e-02  0.0000000000000000e+00  2.5000000000000000e-01
5.0000000000000003e-02  2.9999999999999999e-01  2.5000000000000000e-01
5.0000000000000003e-02  0.0000000000000000e+00  2.9999999999999999e-01
5.0000000000000003e-02  2.9999999999999999e-01  2.9999999999999999e-01
5.0000000000000003e-02  0.0000000000000000e+00  3.4999999999999998e-01
5.0000000000000003e-02  2.9999999999999999e-01  3.4999999999999998e-01
5.0000000000000003e-02  0.0000000000000000e+00  4.0000000000000002e-01
5.0000000000000003e-02  2.9999999999999999e-01  4.0000000000000002e-01
5.0000000000000003e-02  0.0000000000000000e+00  4.5000000000000001e-01
5.0000000000000003e-02  2.9999999999999999e-01  4.5000000000000001e-01
5.0000000000000003e-02  0.0000000000000000e+00  5.0000000000000000e-01
5.0000000000000003e-02  2.9999999999999999e-01  5.0000000000000000e-01
5.0000000000000003e-02  0.0000000000000000e+00  5.5000000000000004e-01
5.0000000000000003e-02  2.9999999999999999e-01  5.5000000000000004e-01
5.0000000000000003e-02  0.0000000000000000e+00  5.9999999999999998e-01
5.0000000000000003e-02  2.9999999999999999e-01  5.9999999999999998e-01
5.0000000000000003e-02  0.0000000000000000e+00  6.5000000000000002e-01
5.0000000000000003e-02  2.9999999999999999e-01  6.5000000000000002e-01
5.0000000000000003e-02  0.0000000000000000e+00  6.9999999999999996e-01
5.0000000000000003e-02  2.9999999999999999e-01  6.9999999999999996e-01
5.0000000000000003e-02  0.0000000000000000e+00  7.5000000000000000e-01
5.0000000000000003e-02  2.9999999999999999e-01  7.5000000000000000e-01
5.0000000000000003e-02  0.0000000000000000e+00  8.0000000000000004e-01
5.0000000000000003e-02  2.9999999999999999e-01  8.0000000000000004e-01
5.0000000000000003e-02  0.0000000000000000e+00  8.4999999999999998e-01
5.0000000000000003e-02  2.9999999999999999e-01  8.4999999999999998e-01
5.0000000000000003e-02  0.0000000000000000e+00  9.0000000000000002e-01
5.0000000000000003e-02  2.9999999999999999e-01  9.0000000000000002e-01
5.0000000000000003e-02  0.0000000000000000e+00  9.4999999999999996e-01
5.0000000000000003e-02  2.9999999999999999e-01  9.4999999999999996e-01
0.0000000000000000e+00  0.0000000000000000e+00  1.0000000000000000e+00
5.0000000000000003e-02  0.0000000000000000e+00  1.0000000000000000e+00
0.0000000000000000e+00  2.9999999999999999e-01  1.0000000000000000e+00
5.0000000000000003e-02  2.9999999999999999e-01  1.0000000000000000e+00
-5.0000000000000003e-02  0.0000000000000000e+00  0.0000000000000000e+00
-5.0000000000000003e-02  0.0000000000000000e+00  5.0000000000000003e-02
-5.0000000000000003e-02  2.9999999999999999e-01  0.0000000000000000e+00
-5.0000000000000003e-02  2.9999999999999999e-01  5.0000000000000003e-02
-5.0000000000000003e-02  0.0000000000000000e+00  1.0000000000000001e-01
-5.0000000000000003e-02  2.9999999999999999e-01  1.0000000000000001e-01
-5.0000000000000003e-02  0.0000000000000000e+00  1.4999999999999999e-01
-5.0000000000000003e-02  2.9999999999999999e-01  1.4999999999999999e-01
-5.0000000000000003e-02  0.0000000000000000e+00  2.0000000000000001e-01
-5.0000000000000003e-02  2.9999999999999999e-01  2.0000000000000001e-01
-5.0000000000000003e-02  0.0000000000000000e+00  2.5000000000000000e-01
-5.0000000000000003e-02  2.9999999999999999e-01  2.5000000000000000e-01
-5.0000000000000003e-02  0.0000000000000000e+00  2.9999999999999999e-01
-5.0000000000000003e-02  2.9999999999999999e-01  2.9999999999999999e-01
-5.0000000000000003e-02  0.0000000000000000e+00  3.4999999999999998e-01
-5.0000000000000003e-02  2.9999999999999999e-01  3.4999999999999998e-01
-5.0000000000000003e-02  0.0000000000000000e+00  4.0000000000000002e-01
-5.0000000000000003e-02  2.9999999999999999e-01  4.0000000000000002e-01
-5.0000000000000003e-02  0.0000000000000000e+00  4.5000000000000001e-01
-5.0000000000000003e-02  2.9999999999999999e-01  4.5000000000000001e-01
-5.0000000000000003e-02  0.0000000000000000e+00  5.0000000000000000e-01
-5.0000000000000003e-02  2.9999999999999999e-01  5.0000000000000000e-01
-5.0000000000000003e-02  0.0000000000000000e+00  5.5000000000000004e-01
-5.0000000000000003e-02  2.9999999999999999e-01  5.5000000000000004e-01
-5.0000000000000003e-02  0.0000000000000000e+00  5.9999999999999998e-01
-5.0000000000000003e-02  2.9999999999999999e-01  5.9999999999999998e-01
-5.0000000000000003e-02  0.0000000000000000e+00  6.5000000000000002e-01
-5.0000000000000003e-02  2.9999999999999999e-01  6.5000000000000002e-01
-5.0000000000000003e-02  0.0000000000000000e+00  6.9999999999999996e-01
-5.0000000000000003e-02  2.9999999999999999e-01  6.9999999999999996e-01
-5.0000000000000003e-02  0.0000000000000000e+00  7.5000000000000000e-01
-5.0000000000000003e-02  2.9999999999999999e-01  7.5000000000000000e-01
-5.0000000000000003e-02  0.0000000000000000e+00  8.0000000000000004e-01
-5.0000000000000003e-02  2.9999999999999999e-01  8.0000000000000004e-01
-5.0000000000000003e-02  0.0000000000000000e+00  8.4999999999999998e-01
-5.0000000000000003e-02  2.9999999999999999e-01  8.4999999999999998e-01
-5.0000000000000003e-02  0.0000000000000000e+00  9.0000000000000002e-01
-5.0000000000000003e-02  2.9999999999999999e-01  9.0000000000000002e-01
-5.0000000000000003e-02  0.0000000000000000e+00  9.4999999999999996e-01
-5.0000000000000003e-02  2.9999999999999999e-01  9.4999999999999996e-01
-5.0000000000000003e-02  0.0000000000000000e+00  1.0000000000000000e+00
-5.0000000000000003e-02  2.9999999999999999e-01  1.0000000000000000e+00

CELLS 0 0


CELL_TYPES 0


POINT_DATA 86

VECTORS VertexNormals float

0.0000000000000000e+00 0.0000000000000000e+00 0.0000000000000000e+00 
0.0000000000000000e+00 0.0000000000000000e+00 0.0000000000000000e+00 
0.0000000000000000e+00 0.0000000000000000e+00 0.0000000000000000e+00 
0.0000000000000000e+00 0.0000000000000000e+00 0.0000000000000000e+00 
0.0000000000000000e+00 0.0000000000000000e+00 0.0000000000000000e+00 
0.0000000000000000e+00 0.0000000000000000e+00 0.0000000000000000e+00 
0.0000000000000000e+00 0.0000000000000000e+00 0.0000000000000000e+00 
0.0000000000000000e+00 0.0000000000000000e+00 0.0000000000000000e+00 
0.0000000000000000e+00 0.0000000000000000e+00 0.0000000000000000e+00 
0.0000000000000000e+00 0.0000000000000000e+00 0.0000000000000000e+00 
0.0000000000000000e+00 0.0000000000000000e+00 0.0000000000000000e+00 
0.0000000000000000e+00 0.0000000000000000e+00 0.0000000000000000e+00 
0.0000000000000000e+00 0.0000000000000000e+00 0.0000000000000000e+00 
0.0000000000000000e+00 0.0000000000000000e+00 0.0000000000000000e+00 
0.0000000000000000e+00 0.0000000000000000e+00 0.0000000000000000e+00 
0.0000000000000000e+00 0.0000000000000000e+00 0.0000000000000000e+00 
0.0000000000000000e+00 0.0000000000000000e+00 0.0000000000000000e+00 
0.0000000000000000e+00 0.0000000000000000e+00 0.0000000000000000e+00 
0.0000000000000000e+00 0.0000000000000000e+00 0.0000000000000000e+00 
0.0000000000000000e+00 0.0000000000000000e+00 0.0000000000000000e+00 
0.0000000000000000e+00 0.0000000000000000e+00 0.0000000000000000e+00 
0.0000000000000000e+00 0.0000000000000000e+00 0.0000000000000000e+00 
0.0000000000000000e+00 0.0000000000000000e+00 0.0000000000000000e+00 
0.0000000000000000e+00 0.0000000000000000e+00 0.0000000000000000e+00 
0.0000000000000000e+00 0.0000000000000000e+00 0.0000000000000000e+00 
0.0000000000000000e+00 0.0000000000000000e+00 0.0000000000000000e+00 
0.0000000000000000e+00 0.0000000000000000e+00 0.0000000000000000e+00 
0.0000000000000000e+00 0.0000000000000000e+00 0.0000000000000000e+00 
0.0000000000000000e+00 0.0000000000000000e+00 0.0000000000000000e+00 
0.0000000000000000e+00 0.0000000000000000e+00 0.0000000000000000e+00 
0.0000000000000000e+00 0.0000000000000000e+00 0.0000000000000000e+00 
0.0000000000000000e+00 0.0000000000000000e+00 0.0000000000000000e+00 
0.0000000000000000e+00 0.0000000000000000e+00 0.0000000000000000e+00 
0.0000000000000000e+00 0.0000000000000000e+00 0.0000000000000000e+00 
0.0000000000000000e+00 0.0000000000000000e+00 0.0000000000000000e+00 
0.0000000000000000e+00 0.0000000000000000e+00 0.0000000000000000e+00 
0.0000000000000000e+00 0.0000000000000000e+00 0.0000000000000000e+00 
0.0000000000000000e+00 0.0000000000000000e+00 0.0000000000000000e+00 
0.0000000000000000e+00 0.0000000000000000e+00 0.0000000000000000e+00 
0.0000000000000000e+00 0.0000000000000000e+00 0.0000000000000000e+00 
0.0000000000000000e+00 0.0000000000000000e+00 0.0000000000000000e+00 
0.0000000000000000e+00 0.0000000000000000e+00 0.0000000000000000e+00 
0.0000000000000000e+00 0.0000000000000000e+00 0.0000000000000000e+00 
0.0000000000000000e+00 0.0000000000000000e+00 0.0000000000000000e+00 
0.0000000000000000e+00 0.0000000000000000e+00 0.0000000000000000e+00 
0.0000000000000000e+00 0.0000000000000000e+00 0.0000000000000000e+00 
0.0000000000000000e+00 0.0000000000000000e+00 0.0000000000000000e+00 
0.0000000000000000e+00 0.0000000000000000e+00 0.0000000000000000e+00 
0.0000000000000000e+00 0.0000000000000000e+00 0.0000000000000000e+00 
0.0000000000000000e+00 0.0000000000000000e+00 0.0000000000000000e+00 
0.0000000000000000e+00 0.0000000000000000e+00 0.0000000000000000e+00 
0.0000000000000000e+00 0.0000000000000000e+00 0.0000000000000000e+00 
0.0000000000000000e+00 0.0000000000000000e+00 0.0000000000000000e+00 
0.0000000000000000e+00 0.0000000000000000e+00 0.0000000000000000e+00 
0.0000000000000000e+00 0.0000000000000000e+00 0.0000000000000000e+00 
0.0000000000000000e+00 0.0000000000000000e+00 0.0000000000000000e+00 
0.0000000000000000e+00 0.0000000000000000e+00 0.0000000000000000e+00 
0.0000000000000000e+00 0.0000000000000000e+00 0.0000000000000000e+00 
0.0000000000000000e+00 0.0000000000000000e+00 0.0000000000000000e+00 
0.0000000000000000e+00 0.0000000000000000e+00 0.0000000000000000e+00 
0.0000000000000000e+00 0.0000000000000000e+00 0.0000000000000000e+00 
0.0000000000000000e+00 0.0000000000000000e+00 0.0000000000000000e+00 
0.0000000000000000e+00 0.0000000000000000e+00 0.0000000000000000e+00 
0.0000000000000000e+00 0.0000000000000000e+00 0.0000000000000000e+00 
0.0000000000000000e+00 0.0000000000000000e+00 0.0000000000000000e+00 
0.0000000000000000e+00 0.0000000000000000e+00 0.0000000000000000e+00 
0.0000000000000000e+00 0.0000000000000000e+00 0.0000000000000000e+00 
0.0000000000000000e+00 0.0000000000000000e+00 0.0000000000000000e+00 
0.0000000000000000e+00 0.0000000000000000e+00 0.0000000000000000e+00 
0.0000000000000000e+00 0.0000000000000000e+00 0.0000000000000000e+00 
0.0000000000000000e+00 0.0000000000000000e+00 0.0000000000000000e+00 
0.0000000000000000e+00 0.0000000000000000e+00 0.0000000000000000e+00 
0.0000000000000000e+00 0.0000000000000000e+00 0.0000000000000000e+00 
0.0000000000000000e+00 0.0000000000000000e+00 0.0000000000000000e+00 
0.0000000000000000e+00 0.0000000000000000e+00 0.0000000000000000e+00 
0.0000000000000000e+00 0.0000000000000000e+00 0.0000000000000000e+00 
0.0000000000000000e+00 0.0000000000000000e+00 0.0000000000000000e+00 
0.0000000000000000e+00 0.0000000000000000e+00 0.0000000000000000e+00 
0.0000000000000000e+00 0.0000000000000000e+00 0.0000000000000000e+00 
0.0000000000000000e+00 0.0000000000000000e+00 0.0000000000000000e+00 
0.0000000000000000e+00 0.0000000000000000e+00 0.0000000000000000e+00 
0.0000000000000000e+00 0.0000000000000000e+00 0.0000000000000000e+00 
0.0000000000000000e+00 0.0000000000000000e+00 0.0000000000000000e+00 
0.0000000000000000e+00 0.0000000000000000e+00 0.0000000000000000e+00 
0.0000000000000000e+00 0.0000000000000000e+00 0.0000000000000000e+00 
0.0000000000000000e+00 0.0000000000000000e+00 0.0000000000000000e+00 

VECTORS Forces0 float
2.6166535459020329e-01 0.0000000000000000e+00 6.0098487662316926e-03 
8.4763560750290434e-01 0.0000000000000000e+00 -2.3438682112734081e-02 
2.6166535336621416e-01 0.0000000000000000e+00 6.0098487972475891e-03 
8.4763560680313821e-01 0.0000000000000000e+00 -2.3438682005227415e-02 
8.2784021773611505e-01 0.0000000000000000e+00 -2.3842791319394749e-02 
8.2784021721168199e-01 0.0000000000000000e+00 -2.3842791318630891e-02 
7.4957740212625534e-01 0.0000000000000000e+00 -2.5619514158306631e-02 
7.4957740195101885e-01 0.0000000000000000e+00 -2.5619514112745271e-02 
7.6390101236978514e-01 0.0000000000000000e+00 -2.5464606615535932e-02 
7.6390101289408008e-01 0.0000000000000000e+00 -2.5464606585233623e-02 
7.6449912658368113e-01 0.0000000000000000e+00 -2.4417791100359989e-02 
7.6449912675909149e-01 0.0000000000000000e+00 -2.4417791133452871e-02 
8.9045140167243841e-01 0.0000000000000000e+00 -2.2220298812823610e-02 
8.9045140114744825e-01 0.0000000000000000e+00 -2.2220298796689089e-02 
8.0160242210688781e-01 0.0000000000000000e+00 -1.3666168016639647e-02 
8.0160242210581556e-01 0.0000000000000000e+00 -1.3666168047754855e-02 
8.2813735998050064e-01 0.0000000000000000e+00 -7.7173580846078447e-03 
8.2813736085450895e-01 0.0000000000000000e+00 -7.7173581304210434e-03 
8.3940859310617999e-01 0.0000000000000000e+00 -1.6068822872943559e-03 
8.3940859258121947e-01 0.0000000000000000e+00 -1.6068822117055368e-03 
9.9777470513851796e-01 0.0000000000000000e+00 9.3691052513539298e-03 
9.9777470531292689e-01 0.0000000000000000e+00 9.3691051599671411e-03 
9.1280748886379326e-01 0.0000000000000000e+00 1.0879942668957157e-02 
9.1280748956311719e-01 0.0000000000000000e+00 1.0879942653081913e-02 
9.5102297257449619e-01 0.0000000000000000e+00 9.1525880960038018e-03 
9.5102297205051267e-01 0.0000000000000000e+00 9.1525881116412255e-03 
9.7583333004884776e-01 0.0000000000000000e+00 7.0076707079762554e-03 
9.7583333109820669e-01 0.0000000000000000e+00 7.0076707692005077e-03 
1.1762268352442100e+00 0.0000000000000000e+00 4.5331828133703626e-03 
1.1762268343704043e+00 0.0000000000000000e+00 4.5331827210481146e-03 
1.0676022410138677e+00 0.0000000000000000e+00 4.4290900367003139e-03 
1.0676022410139152e+00 0.0000000000000000e+00 4.4290900680298492e-03 
1.0847822521674388e+00 0.0000000000000000e+00 5.1269867821519786e-03 
1.0847822512933751e+00 0.0000000000000000e+00 5.1269868131040798e-03 
1.0919096957820376e+00 0.0000000000000000e+00 6.9254504614710789e-03 
1.0919096956073953e+00 0.0000000000000000e+00 6.9254505854717896e-03 
1.2235644748508328e+00 0.0000000000000000e+00 2.9898983241651318e-03 
1.2235644743265284e+00 0.0000000000000000e+00 2.9898983545005430e-03 
1.1244249183632133e+00 0.0000000000000000e+00 2.6699426640772975e-02 
1.1244249183622037e+00 0.0000000000000000e+00 2.6699426563705553e-02 
1.2622067934221961e-02 0.0000000000000000e+00 1.7974184137174758e+00 
3.9159317974563512e-01 0.0000000000000000e+00 4.4516956867329344e-01 
1.2622068107970355e-02 0.0000000000000000e+00 1.7974184136712457e+00 
3.9159317992141246e-01 0.0000000000000000e+00 4.4516956867329793e-01 
3.1091006775398056e-01 0.0000000000000000e+00 6.2097925702276850e-03 
9.7766098299775717e-01 0.0000000000000000e+00 -2.7365279684932346e-02 
3.1091006827793127e-01 0.0000000000000000e+00 6.2097925850838551e-03 
9.7766098212311348e-01 0.0000000000000000e+00 -2.7365279732141111e-02 
9.5119672536103383e-01 0.0000000000000000e+00 -2.7343004746095627e-02 
9.5119672501097796e-01 0.0000000000000000e+00 -2.7343004746086967e-02 
8.4035098701025690e-01 0.0000000000000000e+00 -2.9003702082228022e-02 
8.4035098701027788e-01 0.0000000000000000e+00 -2.9003702051591900e-02 
8.3885287615071513e-01 0.0000000000000000e+00 -2.8338497473864861e-02 
8.3885287632580341e-01 0.0000000000000000e+00 -2.8338497473818287e-02 
8.2564606647209637e-01 0.0000000000000000e+00 -2.6821136447007780e-02 
8.2564606577280286e-01 0.0000000000000000e+00 -2.6821136477785390e-02 
9.3175844130569463e-01 0.0000000000000000e+00 -2.3537981914272837e-02 
9.3175844095617111e-01 0.0000000000000000e+00 -2.3537981866917985e-02 
8.0414961203061808e-01 0.0000000000000000e+00 -1.4056869011009145e-02 
8.0414961203049096e-01 0.0000000000000000e+00 -1.4056868996041198e-02 
8.0340078833700024e-01 0.0000000000000000e+00 -8.0368965478611453e-03 
8.0340078921118485e-01 0.0000000000000000e+00 -8.0368965326042281e-03 
7.8572715405394566e-01 0.0000000000000000e+00 -1.9459688672227671e-03 
7.8572715352950928e-01 0.0000000000000000e+00 -1.9459689140165679e-03 
8.7915668582121875e-01 0.0000000000000000e+00 7.9287792872208308e-03 
8.7915668564620397e-01 0.0000000000000000e+00 7.9287792714434809e-03 
7.5403963933641016e-01 0.0000000000000000e+00 8.4844058393407831e-03 
7.5403963916140060e-01 0.0000000000000000e+00 8.4844058700496907e-03 
7.4612950038542458e-01 0.0000000000000000e+00 6.8278313318274799e-03 
7.4612950056045590e-01 0.0000000000000000e+00 6.8278313316796468e-03 
7.1704623495554498e-01 0.0000000000000000e+00 4.7518078714271156e-03 
7.1704623460567907e-01 0.0000000000000000e+00 4.7518078714963103e-03 
7.6833264437003401e-01 0.0000000000000000e+00 2.8292307754927454e-03 
7.6833264437031812e-01 0.0000000000000000e+00 2.8292307445812260e-03 
6.2429089787048575e-01 0.0000000000000000e+00 2.7141810001499941e-03 
6.2429089787046088e-01 0.0000000000000000e+00 2.7141810156229721e-03 
5.8464112597355222e-01 0.0000000000000000e+00 2.6598368815506719e-03 
5.8464112597348272e-01 0.0000000000000000e+00 2.6598368659603278e-03 
5.1447516784970160e-01 0.0000000000000000e+00 3.9335979792563995e-03 
5.1447516784969127e-01 0.0000000000000000e+00 3.9335979794444809e-03 
4.4447462656063308e-01 0.0000000000000000e+00 -6.1955084389221865e-03 
4.4447462638597351e-01 0.0000000000000000e+00 -6.1955084236949938e-03 
1.5054764352412844e-01 0.0000000000000000e+00 2.7691619506282478e-02 
1.5054764352411795e-01 0.0000000000000000e+00 2.7691619506286947e-02 
1.0634450248804314e-02 0.0000000000000000e+00 6.7795496847808601e-01 
1.0634450074000261e-02 0.0000000000000000e+00 6.7795496846271053e-01 

VECTORS Displacements0 float
6.9356603532943773e-310 0.0000000000000000e+00 0.0000000000000000e+00 
7.2096049700582786e-04 0.0000000000000000e+00 -6.6721185261764794e-04 
0.0000000000000000e+00 0.0000000000000000e+00 0.0000000000000000e+00 
7.2096049741113960e-04 0.0000000000000000e+00 -6.6721185283686126e-04 
1.9094592043093863e-03 0.0000000000000000e+00 -1.1258489208279437e-03 
1.9094592053189496e-03 0.0000000000000000e+00 -1.1258489209493494e-03 
3.4779548331448956e-03 0.0000000000000000e+00 -1.3496180808725460e-03 
3.4779548342049552e-03 0.0000000000000000e+00 -1.3496180807658399e-03 
5.1797525847567640e-03 0.0000000000000000e+00 -1.3715244993629998e-03 
5.1797525855777670e-03 0.0000000000000000e+00 -1.3715244991240373e-03 
6.8441008791593561e-03 0.0000000000000000e+00 -1.2150589772583103e-03 
6.8441008798151544e-03 0.0000000000000000e+00 -1.2150589769638280e-03 
8.2805182399498765e-03 0.0000000000000000e+00 -9.2504695559143444e-04 
8.2805182402737876e-03 0.0000000000000000e+00 -9.2504695525752988e-04 
9.3905521247241372e-03 0.0000000000000000e+00 -5.5905710080349561e-04 
9.3905521245079161e-03 0.0000000000000000e+00 -5.5905710054282164e-04 
1.0165447443684528e-02 0.0000000000000000e+00 -1.3389536665409975e-04 
1.0165447443287720e-02 0.0000000000000000e+00 -1.3389536665965322e-04 
1.0481233872828320e-02 0.0000000000000000e+00 3.2263032040383537e-04 
1.0481233872783133e-02 0.0000000000000000e+00 3.2263032018474560e-04 
1.0305215066472685e-02 0.0000000000000000e+00 6.9950011207791263e-04 
1.0305215066769026e-02 0.0000000000000000e+00 6.9950011188375143e-04 
9.8185087282386674e-03 0.0000000000000000e+00 8.8725095500357266e-04 
9.8185087286130814e-03 0.0000000000000000e+00 8.8725095487195485e-04 
9.3399066255766394e-03 0.0000000000000000e+00 8.9184407047637857e-04 
9.3399066260201561e-03 0.0000000000000000e+00 8.9184407041230959e-04 
9.0396036632024897e-03 0.0000000000000000e+00 8.1770825254596949e-04 
9.0396036637329265e-03 0.0000000000000000e+00 8.1770825262233678e-04 
8.9142981401092881e-03 0.0000000000000000e+00 7.6565213412503120e-04 
8.9142981404884119e-03 0.0000000000000000e+00 7.6565213431581370e-04 
8.8429705414636503e-03 0.0000000000000000e+00 7.7003727115975416e-04 
8.8429705416323903e-03 0.0000000000000000e+00 7.7003727137915960e-04 
8.7603230245929253e-03 0.0000000000000000e+00 8.1487002095485350e-04 
8.7603230244844271e-03 0.0000000000000000e+00 8.1487002111478362e-04 
8.6315574811077610e-03 0.0000000000000000e+00 8.7178999432057801e-04 
8.6315574808928756e-03 0.0000000000000000e+00 8.7178999433872105e-04 
8.4799469832440647e-03 0.0000000000000000e+00 9.1713758365652377e-04 
8.4799469831408833e-03 0.0000000000000000e+00 9.1713758354177192e-04 
8.3044142538030111e-03 0.0000000000000000e+00 9.4744776139434213e-04 
8.3044142539222716e-03 0.0000000000000000e+00 9.4744776124195621e-04 
8.1270381647900961e-03 0.0000000000000000e+00 8.0449409373219757e-04 
8.1200915846173973e-03 0.0000000000000000e+00 9.6424615612865220e-04 
8.1270381650388104e-03 0.0000000000000000e+00 8.0449409367255430e-04 
8.1200915848969463e-03 0.0000000000000000e+00 9.6424615596245962e-04 
0.0000000000000000e+00 0.0000000000000000e+00 0.0000000000000000e+00 
8.0843389000725702e-04 0.0000000000000000e+00 7.6951141862841271e-04 
0.0000000000000000e+00 0.0000000000000000e+00 0.0000000000000000e+00 
8.0843389041256584e-04 0.0000000000000000e+00 7.6951141898275687e-04 
2.0227766965778128e-03 0.0000000000000000e+00 1.3201463997971586e-03 
2.0227766975150743e-03 0.0000000000000000e+00 1.3201464000390985e-03 
3.6001025430154082e-03 0.0000000000000000e+00 1.6274227991091808e-03 
3.6001025441141283e-03 0.0000000000000000e+00 1.6274227990751970e-03 
5.3103987640092309e-03 0.0000000000000000e+00 1.7324401068445176e-03 
5.3103987648254868e-03 0.0000000000000000e+00 1.7324401066292397e-03 
6.9724806287886779e-03 0.0000000000000000e+00 1.6671696537587473e-03 
6.9724806294129520e-03 0.0000000000000000e+00 1.6671696534390787e-03 
8.3922727083513213e-03 0.0000000000000000e+00 1.4801371198390396e-03 
8.3922727086822458e-03 0.0000000000000000e+00 1.4801371194983451e-03 
9.4823014319003647e-03 0.0000000000000000e+00 1.2234518843556507e-03 
9.4823014317227429e-03 0.0000000000000000e+00 1.2234518841229643e-03 
1.0239112082435121e-02 0.0000000000000000e+00 9.0553240917749529e-04 
1.0239112082050124e-02 0.0000000000000000e+00 9.0553240917965328e-04 
1.0545028857377773e-02 0.0000000000000000e+00 5.4994492255925329e-04 
1.0545028857289789e-02 0.0000000000000000e+00 5.4994492272351133e-04 
1.0361199995869144e-02 0.0000000000000000e+00 2.6237730175897496e-04 
1.0361199996145246e-02 0.0000000000000000e+00 2.6237730188994533e-04 
9.8716382810408333e-03 0.0000000000000000e+00 1.5194343262536571e-04 
9.8716382812633202e-03 0.0000000000000000e+00 1.5194343272262963e-04 
9.3900803138172052e-03 0.0000000000000000e+00 2.2058322158631630e-04 
9.3900803143005685e-03 0.0000000000000000e+00 2.2058322168353858e-04 
9.0910683455079373e-03 0.0000000000000000e+00 3.6909773480662736e-04 
9.0910683460109568e-03 0.0000000000000000e+00 3.6909773481750814e-04 
8.9607639497047923e-03 0.0000000000000000e+00 4.9497794373312568e-04 
8.9607639501032496e-03 0.0000000000000000e+00 4.9497794366292077e-04 
8.8839222363908538e-03 0.0000000000000000e+00 5.5959264677647117e-04 
8.8839222365833560e-03 0.0000000000000000e+00 5.5959264663152982e-04 
8.7965564850963126e-03 0.0000000000000000e+00 5.7877278358771974e-04 
8.7965564850073820e-03 0.0000000000000000e+00 5.7877278347720105e-04 
8.6694510944452605e-03 0.0000000000000000e+00 5.8030823777336835e-04 
8.6694510941967822e-03 0.0000000000000000e+00 5.8030823780192862e-04 
8.5053678146368630e-03 0.0000000000000000e+00 5.8216620319186899e-04 
8.5053678144998805e-03 0.0000000000000000e+00 5.8216620331019166e-04 
8.3229826328176746e-03 0.0000000000000000e+00 5.9378160510547195e-04 
8.3229826329134175e-03 0.0000000000000000e+00 5.9378160523085993e-04 
8.1356623018099677e-03 0.0000000000000000e+00 6.1206493889558655e-04 
8.1356623021656901e-03 0.0000000000000000e+00 6.1206493906422205e-04 

