# vtk DataFile Version 2.0

ASCII

DATASET UNSTRUCTURED_GRID

POINTS 86 float 

5.0000000000000003e-02  0.0000000000000000e+00  0.0000000000000000e+00
5.0000000000000003e-02  0.0000000000000000e+00  5.0000000000000003e-02
5.0000000000000003e-02  2.9999999999999999e-01  0.0000000000000000e+00
5.0000000000000003e-02  2.9999999999999999e-01  5.0000000000000003e-02
5.0000000000000003e-02  0.0000000000000000e+00  1.0000000000000001e-01
5.0000000000000003e-02  2.9999999999999999e-01  1.0000000000000001e-01
5.0000000000000003e-02  0.0000000000000000e+00  1.4999999999999999e-01
5.0000000000000003e-02  2.9999999999999999e-01  1.4999999999999999e-01
5.0000000000000003e-02  0.0000000000000000e+00  2.0000000000000001e-01
5.0000000000000003e-02  2.9999999999999999e-01  2.0000000000000001e-01
5.0000000000000003e-02  0.0000000000000000e+00  2.5000000000000000e-01
5.0000000000000003e-02  2.9999999999999999e-01  2.5000000000000000e-01
5.0000000000000003e-02  0.0000000000000000e+00  2.9999999999999999e-01
5.0000000000000003e-02  2.9999999999999999e-01  2.9999999999999999e-01
5.0000000000000003e-02  0.0000000000000000e+00  3.4999999999999998e-01
5.0000000000000003e-02  2.9999999999999999e-01  3.4999999999999998e-01
5.0000000000000003e-02  0.0000000000000000e+00  4.0000000000000002e-01
5.0000000000000003e-02  2.9999999999999999e-01  4.0000000000000002e-01
5.0000000000000003e-02  0.0000000000000000e+00  4.5000000000000001e-01
5.0000000000000003e-02  2.9999999999999999e-01  4.5000000000000001e-01
5.0000000000000003e-02  0.0000000000000000e+00  5.0000000000000000e-01
5.0000000000000003e-02  2.9999999999999999e-01  5.0000000000000000e-01
5.0000000000000003e-02  0.0000000000000000e+00  5.5000000000000004e-01
5.0000000000000003e-02  2.9999999999999999e-01  5.5000000000000004e-01
5.0000000000000003e-02  0.0000000000000000e+00  5.9999999999999998e-01
5.0000000000000003e-02  2.9999999999999999e-01  5.9999999999999998e-01
5.0000000000000003e-02  0.0000000000000000e+00  6.5000000000000002e-01
5.0000000000000003e-02  2.9999999999999999e-01  6.5000000000000002e-01
5.0000000000000003e-02  0.0000000000000000e+00  6.9999999999999996e-01
5.0000000000000003e-02  2.9999999999999999e-01  6.9999999999999996e-01
5.0000000000000003e-02  0.0000000000000000e+00  7.5000000000000000e-01
5.0000000000000003e-02  2.9999999999999999e-01  7.5000000000000000e-01
5.0000000000000003e-02  0.0000000000000000e+00  8.0000000000000004e-01
5.0000000000000003e-02  2.9999999999999999e-01  8.0000000000000004e-01
5.0000000000000003e-02  0.0000000000000000e+00  8.4999999999999998e-01
5.0000000000000003e-02  2.9999999999999999e-01  8.4999999999999998e-01
5.0000000000000003e-02  0.0000000000000000e+00  9.0000000000000002e-01
5.0000000000000003e-02  2.9999999999999999e-01  9.0000000000000002e-01
5.0000000000000003e-02  0.0000000000000000e+00  9.4999999999999996e-01
5.0000000000000003e-02  2.9999999999999999e-01  9.4999999999999996e-01
0.0000000000000000e+00  0.0000000000000000e+00  1.0000000000000000e+00
5.0000000000000003e-02  0.0000000000000000e+00  1.0000000000000000e+00
0.0000000000000000e+00  2.9999999999999999e-01  1.0000000000000000e+00
5.0000000000000003e-02  2.9999999999999999e-01  1.0000000000000000e+00
-5.0000000000000003e-02  0.0000000000000000e+00  0.0000000000000000e+00
-5.0000000000000003e-02  0.0000000000000000e+00  5.0000000000000003e-02
-5.0000000000000003e-02  2.9999999999999999e-01  0.0000000000000000e+00
-5.0000000000000003e-02  2.9999999999999999e-01  5.0000000000000003e-02
-5.0000000000000003e-02  0.0000000000000000e+00  1.0000000000000001e-01
-5.0000000000000003e-02  2.9999999999999999e-01  1.0000000000000001e-01
-5.0000000000000003e-02  0.0000000000000000e+00  1.4999999999999999e-01
-5.0000000000000003e-02  2.9999999999999999e-01  1.4999999999999999e-01
-5.0000000000000003e-02  0.0000000000000000e+00  2.0000000000000001e-01
-5.0000000000000003e-02  2.9999999999999999e-01  2.0000000000000001e-01
-5.0000000000000003e-02  0.0000000000000000e+00  2.5000000000000000e-01
-5.0000000000000003e-02  2.9999999999999999e-01  2.5000000000000000e-01
-5.0000000000000003e-02  0.0000000000000000e+00  2.9999999999999999e-01
-5.0000000000000003e-02  2.9999999999999999e-01  2.9999999999999999e-01
-5.0000000000000003e-02  0.0000000000000000e+00  3.4999999999999998e-01
-5.0000000000000003e-02  2.9999999999999999e-01  3.4999999999999998e-01
-5.0000000000000003e-02  0.0000000000000000e+00  4.0000000000000002e-01
-5.0000000000000003e-02  2.9999999999999999e-01  4.0000000000000002e-01
-5.0000000000000003e-02  0.0000000000000000e+00  4.5000000000000001e-01
-5.0000000000000003e-02  2.9999999999999999e-01  4.5000000000000001e-01
-5.0000000000000003e-02  0.0000000000000000e+00  5.0000000000000000e-01
-5.0000000000000003e-02  2.9999999999999999e-01  5.0000000000000000e-01
-5.0000000000000003e-02  0.0000000000000000e+00  5.5000000000000004e-01
-5.0000000000000003e-02  2.9999999999999999e-01  5.5000000000000004e-01
-5.0000000000000003e-02  0.0000000000000000e+00  5.9999999999999998e-01
-5.0000000000000003e-02  2.9999999999999999e-01  5.9999999999999998e-01
-5.0000000000000003e-02  0.0000000000000000e+00  6.5000000000000002e-01
-5.0000000000000003e-02  2.9999999999999999e-01  6.5000000000000002e-01
-5.0000000000000003e-02  0.0000000000000000e+00  6.9999999999999996e-01
-5.0000000000000003e-02  2.9999999999999999e-01  6.9999999999999996e-01
-5.0000000000000003e-02  0.0000000000000000e+00  7.5000000000000000e-01
-5.0000000000000003e-02  2.9999999999999999e-01  7.5000000000000000e-01
-5.0000000000000003e-02  0.0000000000000000e+00  8.0000000000000004e-01
-5.0000000000000003e-02  2.9999999999999999e-01  8.0000000000000004e-01
-5.0000000000000003e-02  0.0000000000000000e+00  8.4999999999999998e-01
-5.0000000000000003e-02  2.9999999999999999e-01  8.4999999999999998e-01
-5.0000000000000003e-02  0.0000000000000000e+00  9.0000000000000002e-01
-5.0000000000000003e-02  2.9999999999999999e-01  9.0000000000000002e-01
-5.0000000000000003e-02  0.0000000000000000e+00  9.4999999999999996e-01
-5.0000000000000003e-02  2.9999999999999999e-01  9.4999999999999996e-01
-5.0000000000000003e-02  0.0000000000000000e+00  1.0000000000000000e+00
-5.0000000000000003e-02  2.9999999999999999e-01  1.0000000000000000e+00

CELLS 0 0


CELL_TYPES 0


POINT_DATA 86

VECTORS VertexNormals float

0.0000000000000000e+00 0.0000000000000000e+00 0.0000000000000000e+00 
0.0000000000000000e+00 0.0000000000000000e+00 0.0000000000000000e+00 
0.0000000000000000e+00 0.0000000000000000e+00 0.0000000000000000e+00 
0.0000000000000000e+00 0.0000000000000000e+00 0.0000000000000000e+00 
0.0000000000000000e+00 0.0000000000000000e+00 0.0000000000000000e+00 
0.0000000000000000e+00 0.0000000000000000e+00 0.0000000000000000e+00 
0.0000000000000000e+00 0.0000000000000000e+00 0.0000000000000000e+00 
0.0000000000000000e+00 0.0000000000000000e+00 0.0000000000000000e+00 
0.0000000000000000e+00 0.0000000000000000e+00 0.0000000000000000e+00 
0.0000000000000000e+00 0.0000000000000000e+00 0.0000000000000000e+00 
0.0000000000000000e+00 0.0000000000000000e+00 0.0000000000000000e+00 
0.0000000000000000e+00 0.0000000000000000e+00 0.0000000000000000e+00 
0.0000000000000000e+00 0.0000000000000000e+00 0.0000000000000000e+00 
0.0000000000000000e+00 0.0000000000000000e+00 0.0000000000000000e+00 
0.0000000000000000e+00 0.0000000000000000e+00 0.0000000000000000e+00 
0.0000000000000000e+00 0.0000000000000000e+00 0.0000000000000000e+00 
0.0000000000000000e+00 0.0000000000000000e+00 0.0000000000000000e+00 
0.0000000000000000e+00 0.0000000000000000e+00 0.0000000000000000e+00 
0.0000000000000000e+00 0.0000000000000000e+00 0.0000000000000000e+00 
0.0000000000000000e+00 0.0000000000000000e+00 0.0000000000000000e+00 
0.0000000000000000e+00 0.0000000000000000e+00 0.0000000000000000e+00 
0.0000000000000000e+00 0.0000000000000000e+00 0.0000000000000000e+00 
0.0000000000000000e+00 0.0000000000000000e+00 0.0000000000000000e+00 
0.0000000000000000e+00 0.0000000000000000e+00 0.0000000000000000e+00 
0.0000000000000000e+00 0.0000000000000000e+00 0.0000000000000000e+00 
0.0000000000000000e+00 0.0000000000000000e+00 0.0000000000000000e+00 
0.0000000000000000e+00 0.0000000000000000e+00 0.0000000000000000e+00 
0.0000000000000000e+00 0.0000000000000000e+00 0.0000000000000000e+00 
0.0000000000000000e+00 0.0000000000000000e+00 0.0000000000000000e+00 
0.0000000000000000e+00 0.0000000000000000e+00 0.0000000000000000e+00 
0.0000000000000000e+00 0.0000000000000000e+00 0.0000000000000000e+00 
0.0000000000000000e+00 0.0000000000000000e+00 0.0000000000000000e+00 
0.0000000000000000e+00 0.0000000000000000e+00 0.0000000000000000e+00 
0.0000000000000000e+00 0.0000000000000000e+00 0.0000000000000000e+00 
0.0000000000000000e+00 0.0000000000000000e+00 0.0000000000000000e+00 
0.0000000000000000e+00 0.0000000000000000e+00 0.0000000000000000e+00 
0.0000000000000000e+00 0.0000000000000000e+00 0.0000000000000000e+00 
0.0000000000000000e+00 0.0000000000000000e+00 0.0000000000000000e+00 
0.0000000000000000e+00 0.0000000000000000e+00 0.0000000000000000e+00 
0.0000000000000000e+00 0.0000000000000000e+00 0.0000000000000000e+00 
0.0000000000000000e+00 0.0000000000000000e+00 0.0000000000000000e+00 
0.0000000000000000e+00 0.0000000000000000e+00 0.0000000000000000e+00 
0.0000000000000000e+00 0.0000000000000000e+00 0.0000000000000000e+00 
0.0000000000000000e+00 0.0000000000000000e+00 0.0000000000000000e+00 
0.0000000000000000e+00 0.0000000000000000e+00 0.0000000000000000e+00 
0.0000000000000000e+00 0.0000000000000000e+00 0.0000000000000000e+00 
0.0000000000000000e+00 0.0000000000000000e+00 0.0000000000000000e+00 
0.0000000000000000e+00 0.0000000000000000e+00 0.0000000000000000e+00 
0.0000000000000000e+00 0.0000000000000000e+00 0.0000000000000000e+00 
0.0000000000000000e+00 0.0000000000000000e+00 0.0000000000000000e+00 
0.0000000000000000e+00 0.0000000000000000e+00 0.0000000000000000e+00 
0.0000000000000000e+00 0.0000000000000000e+00 0.0000000000000000e+00 
0.0000000000000000e+00 0.0000000000000000e+00 0.0000000000000000e+00 
0.0000000000000000e+00 0.0000000000000000e+00 0.0000000000000000e+00 
0.0000000000000000e+00 0.0000000000000000e+00 0.0000000000000000e+00 
0.0000000000000000e+00 0.0000000000000000e+00 0.0000000000000000e+00 
0.0000000000000000e+00 0.0000000000000000e+00 0.0000000000000000e+00 
0.0000000000000000e+00 0.0000000000000000e+00 0.0000000000000000e+00 
0.0000000000000000e+00 0.0000000000000000e+00 0.0000000000000000e+00 
0.0000000000000000e+00 0.0000000000000000e+00 0.0000000000000000e+00 
0.0000000000000000e+00 0.0000000000000000e+00 0.0000000000000000e+00 
0.0000000000000000e+00 0.0000000000000000e+00 0.0000000000000000e+00 
0.0000000000000000e+00 0.0000000000000000e+00 0.0000000000000000e+00 
0.0000000000000000e+00 0.0000000000000000e+00 0.0000000000000000e+00 
0.0000000000000000e+00 0.0000000000000000e+00 0.0000000000000000e+00 
0.0000000000000000e+00 0.0000000000000000e+00 0.0000000000000000e+00 
0.0000000000000000e+00 0.0000000000000000e+00 0.0000000000000000e+00 
0.0000000000000000e+00 0.0000000000000000e+00 0.0000000000000000e+00 
0.0000000000000000e+00 0.0000000000000000e+00 0.0000000000000000e+00 
0.0000000000000000e+00 0.0000000000000000e+00 0.0000000000000000e+00 
0.0000000000000000e+00 0.0000000000000000e+00 0.0000000000000000e+00 
0.0000000000000000e+00 0.0000000000000000e+00 0.0000000000000000e+00 
0.0000000000000000e+00 0.0000000000000000e+00 0.0000000000000000e+00 
0.0000000000000000e+00 0.0000000000000000e+00 0.0000000000000000e+00 
0.0000000000000000e+00 0.0000000000000000e+00 0.0000000000000000e+00 
0.0000000000000000e+00 0.0000000000000000e+00 0.0000000000000000e+00 
0.0000000000000000e+00 0.0000000000000000e+00 0.0000000000000000e+00 
0.0000000000000000e+00 0.0000000000000000e+00 0.0000000000000000e+00 
0.0000000000000000e+00 0.0000000000000000e+00 0.0000000000000000e+00 
0.0000000000000000e+00 0.0000000000000000e+00 0.0000000000000000e+00 
0.0000000000000000e+00 0.0000000000000000e+00 0.0000000000000000e+00 
0.0000000000000000e+00 0.0000000000000000e+00 0.0000000000000000e+00 
0.0000000000000000e+00 0.0000000000000000e+00 0.0000000000000000e+00 
0.0000000000000000e+00 0.0000000000000000e+00 0.0000000000000000e+00 
0.0000000000000000e+00 0.0000000000000000e+00 0.0000000000000000e+00 
0.0000000000000000e+00 0.0000000000000000e+00 0.0000000000000000e+00 

VECTORS Forces0 float
5.5485129218263665e-02 0.0000000000000000e+00 1.5027862600627355e-03 
2.7095938638162093e-01 0.0000000000000000e+00 -1.2580511211880190e-02 
5.5485129441192584e-02 0.0000000000000000e+00 1.5027862692936389e-03 
2.7095938649332357e-01 0.0000000000000000e+00 -1.2580511232084677e-02 
2.2985639335701563e-01 0.0000000000000000e+00 -1.7424121443985103e-02 
2.2985639246981593e-01 0.0000000000000000e+00 -1.7424121474683790e-02 
2.1718445330168223e-01 0.0000000000000000e+00 -2.3130296106951949e-02 
2.1718445352388316e-01 0.0000000000000000e+00 -2.3130296147234324e-02 
2.2936651113393064e-01 0.0000000000000000e+00 -2.8628937662176550e-02 
2.2936651091235705e-01 0.0000000000000000e+00 -2.8628937661876609e-02 
2.2229938951627601e-01 0.0000000000000000e+00 -3.1439850466290033e-02 
2.2229938984916772e-01 0.0000000000000000e+00 -3.1439850415844857e-02 
2.5388168692562113e-01 0.0000000000000000e+00 -4.0169416873494304e-02 
2.5388168703632091e-01 0.0000000000000000e+00 -4.0169416903591208e-02 
2.4269650698773260e-01 0.0000000000000000e+00 -4.1094696155565782e-02 
2.4269650754250863e-01 0.0000000000000000e+00 -4.1094696145331615e-02 
2.6288390177869392e-01 0.0000000000000000e+00 -4.5820932340755766e-02 
2.6288390144472445e-01 0.0000000000000000e+00 -4.5820932330621567e-02 
2.6385668255942785e-01 0.0000000000000000e+00 -4.7025937618921695e-02 
2.6385668233720028e-01 0.0000000000000000e+00 -4.7025937609007799e-02 
3.1523120238174829e-01 0.0000000000000000e+00 -5.6405650005141889e-02 
3.1523120249446640e-01 0.0000000000000000e+00 -5.6405650014505621e-02 
3.0267550390987974e-01 0.0000000000000000e+00 -5.2597675083008784e-02 
3.0267550391072523e-01 0.0000000000000000e+00 -5.2597675073077582e-02 
3.2352337727154595e-01 0.0000000000000000e+00 -5.4794305465221002e-02 
3.2352337782642021e-01 0.0000000000000000e+00 -5.4794305484976880e-02 
3.2735587591412396e-01 0.0000000000000000e+00 -5.3985370619233440e-02 
3.2735587591401194e-01 0.0000000000000000e+00 -5.3985370599317864e-02 
3.8666549837732378e-01 0.0000000000000000e+00 -6.1783482525926678e-02 
3.8666549804475847e-01 0.0000000000000000e+00 -6.1783482536257310e-02 
3.5364205436841939e-01 0.0000000000000000e+00 -5.5678013871455906e-02 
3.5364205425711048e-01 0.0000000000000000e+00 -5.5678013891342998e-02 
3.6335709920121123e-01 0.0000000000000000e+00 -5.7671162576439526e-02 
3.6335709920069664e-01 0.0000000000000000e+00 -5.7671162545521237e-02 
3.6128885077929929e-01 0.0000000000000000e+00 -5.7503840979552308e-02 
3.6128885100286851e-01 0.0000000000000000e+00 -5.7503840949144076e-02 
4.0859820954421011e-01 0.0000000000000000e+00 -6.8867225228845294e-02 
4.0859820987739653e-01 0.0000000000000000e+00 -6.8867225249189853e-02 
4.0761321054089278e-01 0.0000000000000000e+00 -6.1824044684176890e-02 
4.0761321053998478e-01 0.0000000000000000e+00 -6.1824044674942708e-02 
1.3442047669608273e-01 0.0000000000000000e+00 7.3525084147634012e-01 
1.6845151882674161e-01 0.0000000000000000e+00 1.4820719878748065e-01 
1.3442047647496028e-01 0.0000000000000000e+00 7.3525084150673881e-01 
1.6845151926990992e-01 0.0000000000000000e+00 1.4820719878675348e-01 
3.4709880806576443e-01 0.0000000000000000e+00 -8.0019441661633682e-03 
1.0224593041394621e+00 0.0000000000000000e+00 -4.0846328143404075e-02 
3.4709880862064857e-01 0.0000000000000000e+00 -8.0019441962601717e-03 
1.0224593039171623e+00 0.0000000000000000e+00 -4.0846328193957310e-02 
1.0215776570490807e+00 0.0000000000000000e+00 -7.7086299618676288e-02 
1.0215776567163604e+00 0.0000000000000000e+00 -7.7086299629637423e-02 
8.9503564033645433e-01 0.0000000000000000e+00 -9.6448229155499277e-02 
8.9503564089076149e-01 0.0000000000000000e+00 -9.6448229115577058e-02 
8.8602505439375612e-01 0.0000000000000000e+00 -1.1126275124417805e-01 
8.8602505383953567e-01 0.0000000000000000e+00 -1.1126275127419796e-01 
8.7846915883127819e-01 0.0000000000000000e+00 -1.2512125742321889e-01 
8.7846915905310918e-01 0.0000000000000000e+00 -1.2512125743321956e-01 
9.9530986640437025e-01 0.0000000000000000e+00 -1.5959064915456617e-01 
9.9530986640441732e-01 0.0000000000000000e+00 -1.5959064916459617e-01 
8.4452475298216267e-01 0.0000000000000000e+00 -1.4525779407314485e-01 
8.4452475309277764e-01 0.0000000000000000e+00 -1.4525779407308911e-01 
8.3002623458184310e-01 0.0000000000000000e+00 -1.4677072023133961e-01 
8.3002623458187719e-01 0.0000000000000000e+00 -1.4677072018085541e-01 
8.1256171758108520e-01 0.0000000000000000e+00 -1.4716396280888672e-01 
8.1256171791355358e-01 0.0000000000000000e+00 -1.4716396280901142e-01 
9.0370145336691055e-01 0.0000000000000000e+00 -1.6430571564134608e-01 
9.0370145303425153e-01 0.0000000000000000e+00 -1.6430571566142521e-01 
7.5558089831481923e-01 0.0000000000000000e+00 -1.3349733584431159e-01 
7.5558089842520515e-01 0.0000000000000000e+00 -1.3349733584416984e-01 
7.3480023631469615e-01 0.0000000000000000e+00 -1.2663405254969251e-01 
7.3480023653651227e-01 0.0000000000000000e+00 -1.2663405254971863e-01 
7.0892211269962591e-01 0.0000000000000000e+00 -1.1888555985076700e-01 
7.0892211236689207e-01 0.0000000000000000e+00 -1.1888555982062783e-01 
7.6708480988172090e-01 0.0000000000000000e+00 -1.2447890453937778e-01 
7.6708480988181871e-01 0.0000000000000000e+00 -1.2447890454953583e-01 
6.1509192295242698e-01 0.0000000000000000e+00 -9.8200976409740293e-02 
6.1509192273070024e-01 0.0000000000000000e+00 -9.8200976419595520e-02 
5.7020999234868408e-01 0.0000000000000000e+00 -9.1594312370819539e-02 
5.7020999257030025e-01 0.0000000000000000e+00 -9.1594312370819109e-02 
5.1574079342045143e-01 0.0000000000000000e+00 -8.3074647337589902e-02 
5.1574079342020840e-01 0.0000000000000000e+00 -8.3074647337455815e-02 
4.7619038342517800e-01 0.0000000000000000e+00 -8.3530799220112736e-02 
4.7619038342534153e-01 0.0000000000000000e+00 -8.3530799230175215e-02 
2.6893816047785346e-01 0.0000000000000000e+00 -3.4529053661436014e-02 
2.6893816047783820e-01 0.0000000000000000e+00 -3.4529053661430359e-02 
1.3744441653935169e-01 0.0000000000000000e+00 2.9376851991389952e-01 
1.3744441642854641e-01 0.0000000000000000e+00 2.9376851992409558e-01 

VECTORS Displacements0 float
6.9356603523157320e-310 0.0000000000000000e+00 0.0000000000000000e+00 
1.3859465184458222e-03 0.0000000000000000e+00 -1.7626585536143142e-03 
0.0000000000000000e+00 0.0000000000000000e+00 0.0000000000000000e+00 
1.3859465185932795e-03 0.0000000000000000e+00 -1.7626585537662391e-03 
4.2184843221314758e-03 0.0000000000000000e+00 -3.4275244067682805e-03 
4.2184843224751618e-03 0.0000000000000000e+00 -3.4275244069963398e-03 
8.6072588962648657e-03 0.0000000000000000e+00 -4.9026955693938353e-03 
8.6072588966833521e-03 0.0000000000000000e+00 -4.9026955696061161e-03 
1.4236605489908634e-02 0.0000000000000000e+00 -6.2657335806214215e-03 
1.4236605490577346e-02 0.0000000000000000e+00 -6.2657335807379342e-03 
2.0909732472862312e-02 0.0000000000000000e+00 -7.5325819902256176e-03 
2.0909732473502689e-02 0.0000000000000000e+00 -7.5325819901496758e-03 
2.8416944085704443e-02 0.0000000000000000e+00 -8.7055560975825876e-03 
2.8416944085886957e-02 0.0000000000000000e+00 -8.7055560973026986e-03 
3.6554436288943996e-02 0.0000000000000000e+00 -9.7828639508496292e-03 
3.6554436288706867e-02 0.0000000000000000e+00 -9.7828639505151624e-03 
4.5146571998762652e-02 0.0000000000000000e+00 -1.0763099476099047e-02 
4.5146571998265078e-02 0.0000000000000000e+00 -1.0763099475880680e-02 
5.4041338210656827e-02 0.0000000000000000e+00 -1.1631107836682723e-02 
5.4041338210191539e-02 0.0000000000000000e+00 -1.1631107836664755e-02 
6.3070828718054098e-02 0.0000000000000000e+00 -1.2358486938585881e-02 
6.3070828717835703e-02 0.0000000000000000e+00 -1.2358486938727748e-02 
7.2036921315264499e-02 0.0000000000000000e+00 -1.2935896606151860e-02 
7.2036921315269523e-02 0.0000000000000000e+00 -1.2935896606321580e-02 
8.0790583270125324e-02 0.0000000000000000e+00 -1.3401454217741374e-02 
8.0790583270351671e-02 0.0000000000000000e+00 -1.3401454217841158e-02 
8.9283970632284423e-02 0.0000000000000000e+00 -1.3821554328881026e-02 
8.9283970632574275e-02 0.0000000000000000e+00 -1.3821554328869817e-02 
9.7546215572284420e-02 0.0000000000000000e+00 -1.4255153715572719e-02 
9.7546215572352546e-02 0.0000000000000000e+00 -1.4255153715476091e-02 
1.0563809490970007e-01 0.0000000000000000e+00 -1.4747962413887332e-02 
1.0563809490962972e-01 0.0000000000000000e+00 -1.4747962413806855e-02 
1.1366365698734719e-01 0.0000000000000000e+00 -1.5341812844380425e-02 
1.1366365698731845e-01 0.0000000000000000e+00 -1.5341812844384749e-02 
1.2175900996773564e-01 0.0000000000000000e+00 -1.6054115055334092e-02 
1.2175900996775685e-01 0.0000000000000000e+00 -1.6054115055413157e-02 
1.3003578333436810e-01 0.0000000000000000e+00 -1.6850765810679999e-02 
1.3003578333457402e-01 0.0000000000000000e+00 -1.6850765810864414e-02 
1.3850099346384304e-01 0.0000000000000000e+00 -1.7656882701396859e-02 
1.3850099346432113e-01 0.0000000000000000e+00 -1.7656882701701116e-02 
1.4776942296778972e-01 0.0000000000000000e+00 -9.8893332935637967e-03 
1.4704020631652412e-01 0.0000000000000000e+00 -1.8419418409817531e-02 
1.4776942296871762e-01 0.0000000000000000e+00 -9.8893332935744201e-03 
1.4704020631741779e-01 0.0000000000000000e+00 -1.8419418410218106e-02 
0.0000000000000000e+00 0.0000000000000000e+00 0.0000000000000000e+00 
1.6059214231853053e-03 0.0000000000000000e+00 1.9278893824308543e-03 
0.0000000000000000e+00 0.0000000000000000e+00 0.0000000000000000e+00 
1.6059214233590804e-03 0.0000000000000000e+00 1.9278893824747252e-03 
4.6226016887137783e-03 0.0000000000000000e+00 3.6364245196523781e-03 
4.6226016890112045e-03 0.0000000000000000e+00 3.6364245197022757e-03 
9.2353223702970593e-03 0.0000000000000000e+00 4.9564414836950933e-03 
9.2353223708334792e-03 0.0000000000000000e+00 4.9564414836993963e-03 
1.5116152529810205e-02 0.0000000000000000e+00 5.9135517863154029e-03 
1.5116152530429796e-02 0.0000000000000000e+00 5.9135517862096620e-03 
2.2033144839627306e-02 0.0000000000000000e+00 6.5159825495355187e-03 
2.2033144840197874e-02 0.0000000000000000e+00 6.5159825492540910e-03 
2.9754988353523280e-02 0.0000000000000000e+00 6.7892449359321832e-03 
2.9754988353691152e-02 0.0000000000000000e+00 6.7892449355738023e-03 
3.8058100713763268e-02 0.0000000000000000e+00 6.7732989666206877e-03 
3.8058100713472098e-02 0.0000000000000000e+00 6.7732989664010153e-03 
4.6768476625994614e-02 0.0000000000000000e+00 6.5095252620462193e-03 
4.6768476625468680e-02 0.0000000000000000e+00 6.5095252620683865e-03 
5.5727396176581165e-02 0.0000000000000000e+00 6.0273446995194142e-03 
5.5727396176102797e-02 0.0000000000000000e+00 6.0273446997420165e-03 
6.4760704493685109e-02 0.0000000000000000e+00 5.3542628015689070e-03 
6.4760704493526541e-02 0.0000000000000000e+00 5.3542628018533357e-03 
7.3676555018915069e-02 0.0000000000000000e+00 4.5485943415176826e-03 
7.3676555019070500e-02 0.0000000000000000e+00 4.5485943417519215e-03 
8.2354590806478306e-02 0.0000000000000000e+00 3.6942393630492961e-03 
8.2354590806768269e-02 0.0000000000000000e+00 3.6942393631715933e-03 
9.0768970543655375e-02 0.0000000000000000e+00 2.8673301776800286e-03 
9.0768970543871855e-02 0.0000000000000000e+00 2.8673301776890327e-03 
9.8969142214325262e-02 0.0000000000000000e+00 2.1110270323311015e-03 
9.8969142214444542e-02 0.0000000000000000e+00 2.1110270323047371e-03 
1.0702432963353602e-01 0.0000000000000000e+00 1.4480806330545862e-03 
1.0702432963351863e-01 0.0000000000000000e+00 1.4480806331054847e-03 
1.1504449773695644e-01 0.0000000000000000e+00 8.8330851341084527e-04 
1.1504449773691970e-01 0.0000000000000000e+00 8.8330851354308151e-04 
1.2316312427706809e-01 0.0000000000000000e+00 3.8586482902038379e-04 
1.2316312427716276e-01 0.0000000000000000e+00 3.8586482921156208e-04 
1.3147768979317243e-01 0.0000000000000000e+00 -1.1656959636958882e-04 
1.3147768979350127e-01 0.0000000000000000e+00 -1.1656959608982995e-04 
1.3996769579879387e-01 0.0000000000000000e+00 -6.9828236496442288e-04 
1.3996769579943347e-01 0.0000000000000000e+00 -6.9828236462565556e-04 
1.4851022413763204e-01 0.0000000000000000e+00 -1.3770541758795305e-03 
1.4851022413862727e-01 0.0000000000000000e+00 -1.3770541755636202e-03 

