# vtk DataFile Version 2.0

ASCII

DATASET UNSTRUCTURED_GRID

POINTS 86 double 

5.0000000000000003e-02  0.0000000000000000e+00  0.0000000000000000e+00
5.0000000000000003e-02  0.0000000000000000e+00  5.0000000000000003e-02
5.0000000000000003e-02  2.9999999999999999e-01  0.0000000000000000e+00
5.0000000000000003e-02  2.9999999999999999e-01  5.0000000000000003e-02
5.0000000000000003e-02  0.0000000000000000e+00  1.0000000000000001e-01
5.0000000000000003e-02  2.9999999999999999e-01  1.0000000000000001e-01
5.0000000000000003e-02  0.0000000000000000e+00  1.4999999999999999e-01
5.0000000000000003e-02  2.9999999999999999e-01  1.4999999999999999e-01
5.0000000000000003e-02  0.0000000000000000e+00  2.0000000000000001e-01
5.0000000000000003e-02  2.9999999999999999e-01  2.0000000000000001e-01
5.0000000000000003e-02  0.0000000000000000e+00  2.5000000000000000e-01
5.0000000000000003e-02  2.9999999999999999e-01  2.5000000000000000e-01
5.0000000000000003e-02  0.0000000000000000e+00  2.9999999999999999e-01
5.0000000000000003e-02  2.9999999999999999e-01  2.9999999999999999e-01
5.0000000000000003e-02  0.0000000000000000e+00  3.4999999999999998e-01
5.0000000000000003e-02  2.9999999999999999e-01  3.4999999999999998e-01
5.0000000000000003e-02  0.0000000000000000e+00  4.0000000000000002e-01
5.0000000000000003e-02  2.9999999999999999e-01  4.0000000000000002e-01
5.0000000000000003e-02  0.0000000000000000e+00  4.5000000000000001e-01
5.0000000000000003e-02  2.9999999999999999e-01  4.5000000000000001e-01
5.0000000000000003e-02  0.0000000000000000e+00  5.0000000000000000e-01
5.0000000000000003e-02  2.9999999999999999e-01  5.0000000000000000e-01
5.0000000000000003e-02  0.0000000000000000e+00  5.5000000000000004e-01
5.0000000000000003e-02  2.9999999999999999e-01  5.5000000000000004e-01
5.0000000000000003e-02  0.0000000000000000e+00  5.9999999999999998e-01
5.0000000000000003e-02  2.9999999999999999e-01  5.9999999999999998e-01
5.0000000000000003e-02  0.0000000000000000e+00  6.5000000000000002e-01
5.0000000000000003e-02  2.9999999999999999e-01  6.5000000000000002e-01
5.0000000000000003e-02  0.0000000000000000e+00  6.9999999999999996e-01
5.0000000000000003e-02  2.9999999999999999e-01  6.9999999999999996e-01
5.0000000000000003e-02  0.0000000000000000e+00  7.5000000000000000e-01
5.0000000000000003e-02  2.9999999999999999e-01  7.5000000000000000e-01
5.0000000000000003e-02  0.0000000000000000e+00  8.0000000000000004e-01
5.0000000000000003e-02  2.9999999999999999e-01  8.0000000000000004e-01
5.0000000000000003e-02  0.0000000000000000e+00  8.4999999999999998e-01
5.0000000000000003e-02  2.9999999999999999e-01  8.4999999999999998e-01
5.0000000000000003e-02  0.0000000000000000e+00  9.0000000000000002e-01
5.0000000000000003e-02  2.9999999999999999e-01  9.0000000000000002e-01
5.0000000000000003e-02  0.0000000000000000e+00  9.4999999999999996e-01
5.0000000000000003e-02  2.9999999999999999e-01  9.4999999999999996e-01
0.0000000000000000e+00  0.0000000000000000e+00  1.0000000000000000e+00
5.0000000000000003e-02  0.0000000000000000e+00  1.0000000000000000e+00
0.0000000000000000e+00  2.9999999999999999e-01  1.0000000000000000e+00
5.0000000000000003e-02  2.9999999999999999e-01  1.0000000000000000e+00
-5.0000000000000003e-02  0.0000000000000000e+00  0.0000000000000000e+00
-5.0000000000000003e-02  0.0000000000000000e+00  5.0000000000000003e-02
-5.0000000000000003e-02  2.9999999999999999e-01  0.0000000000000000e+00
-5.0000000000000003e-02  2.9999999999999999e-01  5.0000000000000003e-02
-5.0000000000000003e-02  0.0000000000000000e+00  1.0000000000000001e-01
-5.0000000000000003e-02  2.9999999999999999e-01  1.0000000000000001e-01
-5.0000000000000003e-02  0.0000000000000000e+00  1.4999999999999999e-01
-5.0000000000000003e-02  2.9999999999999999e-01  1.4999999999999999e-01
-5.0000000000000003e-02  0.0000000000000000e+00  2.0000000000000001e-01
-5.0000000000000003e-02  2.9999999999999999e-01  2.0000000000000001e-01
-5.0000000000000003e-02  0.0000000000000000e+00  2.5000000000000000e-01
-5.0000000000000003e-02  2.9999999999999999e-01  2.5000000000000000e-01
-5.0000000000000003e-02  0.0000000000000000e+00  2.9999999999999999e-01
-5.0000000000000003e-02  2.9999999999999999e-01  2.9999999999999999e-01
-5.0000000000000003e-02  0.0000000000000000e+00  3.4999999999999998e-01
-5.0000000000000003e-02  2.9999999999999999e-01  3.4999999999999998e-01
-5.0000000000000003e-02  0.0000000000000000e+00  4.0000000000000002e-01
-5.0000000000000003e-02  2.9999999999999999e-01  4.0000000000000002e-01
-5.0000000000000003e-02  0.0000000000000000e+00  4.5000000000000001e-01
-5.0000000000000003e-02  2.9999999999999999e-01  4.5000000000000001e-01
-5.0000000000000003e-02  0.0000000000000000e+00  5.0000000000000000e-01
-5.0000000000000003e-02  2.9999999999999999e-01  5.0000000000000000e-01
-5.0000000000000003e-02  0.0000000000000000e+00  5.5000000000000004e-01
-5.0000000000000003e-02  2.9999999999999999e-01  5.5000000000000004e-01
-5.0000000000000003e-02  0.0000000000000000e+00  5.9999999999999998e-01
-5.0000000000000003e-02  2.9999999999999999e-01  5.9999999999999998e-01
-5.0000000000000003e-02  0.0000000000000000e+00  6.5000000000000002e-01
-5.0000000000000003e-02  2.9999999999999999e-01  6.5000000000000002e-01
-5.0000000000000003e-02  0.0000000000000000e+00  6.9999999999999996e-01
-5.0000000000000003e-02  2.9999999999999999e-01  6.9999999999999996e-01
-5.0000000000000003e-02  0.0000000000000000e+00  7.5000000000000000e-01
-5.0000000000000003e-02  2.9999999999999999e-01  7.5000000000000000e-01
-5.0000000000000003e-02  0.0000000000000000e+00  8.0000000000000004e-01
-5.0000000000000003e-02  2.9999999999999999e-01  8.0000000000000004e-01
-5.0000000000000003e-02  0.0000000000000000e+00  8.4999999999999998e-01
-5.0000000000000003e-02  2.9999999999999999e-01  8.4999999999999998e-01
-5.0000000000000003e-02  0.0000000000000000e+00  9.0000000000000002e-01
-5.0000000000000003e-02  2.9999999999999999e-01  9.0000000000000002e-01
-5.0000000000000003e-02  0.0000000000000000e+00  9.4999999999999996e-01
-5.0000000000000003e-02  2.9999999999999999e-01  9.4999999999999996e-01
-5.0000000000000003e-02  0.0000000000000000e+00  1.0000000000000000e+00
-5.0000000000000003e-02  2.9999999999999999e-01  1.0000000000000000e+00

CELLS 0 0


CELL_TYPES 0


POINT_DATA 86

VECTORS VertexNormals double

0.0000000000000000e+00 0.0000000000000000e+00 0.0000000000000000e+00 
0.0000000000000000e+00 0.0000000000000000e+00 0.0000000000000000e+00 
0.0000000000000000e+00 0.0000000000000000e+00 0.0000000000000000e+00 
0.0000000000000000e+00 0.0000000000000000e+00 0.0000000000000000e+00 
0.0000000000000000e+00 0.0000000000000000e+00 0.0000000000000000e+00 
0.0000000000000000e+00 0.0000000000000000e+00 0.0000000000000000e+00 
0.0000000000000000e+00 0.0000000000000000e+00 0.0000000000000000e+00 
0.0000000000000000e+00 0.0000000000000000e+00 0.0000000000000000e+00 
0.0000000000000000e+00 0.0000000000000000e+00 0.0000000000000000e+00 
0.0000000000000000e+00 0.0000000000000000e+00 0.0000000000000000e+00 
0.0000000000000000e+00 0.0000000000000000e+00 0.0000000000000000e+00 
0.0000000000000000e+00 0.0000000000000000e+00 0.0000000000000000e+00 
0.0000000000000000e+00 0.0000000000000000e+00 0.0000000000000000e+00 
0.0000000000000000e+00 0.0000000000000000e+00 0.0000000000000000e+00 
0.0000000000000000e+00 0.0000000000000000e+00 0.0000000000000000e+00 
0.0000000000000000e+00 0.0000000000000000e+00 0.0000000000000000e+00 
0.0000000000000000e+00 0.0000000000000000e+00 0.0000000000000000e+00 
0.0000000000000000e+00 0.0000000000000000e+00 0.0000000000000000e+00 
0.0000000000000000e+00 0.0000000000000000e+00 0.0000000000000000e+00 
0.0000000000000000e+00 0.0000000000000000e+00 0.0000000000000000e+00 
0.0000000000000000e+00 0.0000000000000000e+00 0.0000000000000000e+00 
0.0000000000000000e+00 0.0000000000000000e+00 0.0000000000000000e+00 
0.0000000000000000e+00 0.0000000000000000e+00 0.0000000000000000e+00 
0.0000000000000000e+00 0.0000000000000000e+00 0.0000000000000000e+00 
0.0000000000000000e+00 0.0000000000000000e+00 0.0000000000000000e+00 
0.0000000000000000e+00 0.0000000000000000e+00 0.0000000000000000e+00 
0.0000000000000000e+00 0.0000000000000000e+00 0.0000000000000000e+00 
0.0000000000000000e+00 0.0000000000000000e+00 0.0000000000000000e+00 
0.0000000000000000e+00 0.0000000000000000e+00 0.0000000000000000e+00 
0.0000000000000000e+00 0.0000000000000000e+00 0.0000000000000000e+00 
0.0000000000000000e+00 0.0000000000000000e+00 0.0000000000000000e+00 
0.0000000000000000e+00 0.0000000000000000e+00 0.0000000000000000e+00 
0.0000000000000000e+00 0.0000000000000000e+00 0.0000000000000000e+00 
0.0000000000000000e+00 0.0000000000000000e+00 0.0000000000000000e+00 
0.0000000000000000e+00 0.0000000000000000e+00 0.0000000000000000e+00 
0.0000000000000000e+00 0.0000000000000000e+00 0.0000000000000000e+00 
0.0000000000000000e+00 0.0000000000000000e+00 0.0000000000000000e+00 
0.0000000000000000e+00 0.0000000000000000e+00 0.0000000000000000e+00 
0.0000000000000000e+00 0.0000000000000000e+00 0.0000000000000000e+00 
0.0000000000000000e+00 0.0000000000000000e+00 0.0000000000000000e+00 
0.0000000000000000e+00 0.0000000000000000e+00 0.0000000000000000e+00 
0.0000000000000000e+00 0.0000000000000000e+00 0.0000000000000000e+00 
0.0000000000000000e+00 0.0000000000000000e+00 0.0000000000000000e+00 
0.0000000000000000e+00 0.0000000000000000e+00 0.0000000000000000e+00 
0.0000000000000000e+00 0.0000000000000000e+00 0.0000000000000000e+00 
0.0000000000000000e+00 0.0000000000000000e+00 0.0000000000000000e+00 
0.0000000000000000e+00 0.0000000000000000e+00 0.0000000000000000e+00 
0.0000000000000000e+00 0.0000000000000000e+00 0.0000000000000000e+00 
0.0000000000000000e+00 0.0000000000000000e+00 0.0000000000000000e+00 
0.0000000000000000e+00 0.0000000000000000e+00 0.0000000000000000e+00 
0.0000000000000000e+00 0.0000000000000000e+00 0.0000000000000000e+00 
0.0000000000000000e+00 0.0000000000000000e+00 0.0000000000000000e+00 
0.0000000000000000e+00 0.0000000000000000e+00 0.0000000000000000e+00 
0.0000000000000000e+00 0.0000000000000000e+00 0.0000000000000000e+00 
0.0000000000000000e+00 0.0000000000000000e+00 0.0000000000000000e+00 
0.0000000000000000e+00 0.0000000000000000e+00 0.0000000000000000e+00 
0.0000000000000000e+00 0.0000000000000000e+00 0.0000000000000000e+00 
0.0000000000000000e+00 0.0000000000000000e+00 0.0000000000000000e+00 
0.0000000000000000e+00 0.0000000000000000e+00 0.0000000000000000e+00 
0.0000000000000000e+00 0.0000000000000000e+00 0.0000000000000000e+00 
0.0000000000000000e+00 0.0000000000000000e+00 0.0000000000000000e+00 
0.0000000000000000e+00 0.0000000000000000e+00 0.0000000000000000e+00 
0.0000000000000000e+00 0.0000000000000000e+00 0.0000000000000000e+00 
0.0000000000000000e+00 0.0000000000000000e+00 0.0000000000000000e+00 
0.0000000000000000e+00 0.0000000000000000e+00 0.0000000000000000e+00 
0.0000000000000000e+00 0.0000000000000000e+00 0.0000000000000000e+00 
0.0000000000000000e+00 0.0000000000000000e+00 0.0000000000000000e+00 
0.0000000000000000e+00 0.0000000000000000e+00 0.0000000000000000e+00 
0.0000000000000000e+00 0.0000000000000000e+00 0.0000000000000000e+00 
0.0000000000000000e+00 0.0000000000000000e+00 0.0000000000000000e+00 
0.0000000000000000e+00 0.0000000000000000e+00 0.0000000000000000e+00 
0.0000000000000000e+00 0.0000000000000000e+00 0.0000000000000000e+00 
0.0000000000000000e+00 0.0000000000000000e+00 0.0000000000000000e+00 
0.0000000000000000e+00 0.0000000000000000e+00 0.0000000000000000e+00 
0.0000000000000000e+00 0.0000000000000000e+00 0.0000000000000000e+00 
0.0000000000000000e+00 0.0000000000000000e+00 0.0000000000000000e+00 
0.0000000000000000e+00 0.0000000000000000e+00 0.0000000000000000e+00 
0.0000000000000000e+00 0.0000000000000000e+00 0.0000000000000000e+00 
0.0000000000000000e+00 0.0000000000000000e+00 0.0000000000000000e+00 
0.0000000000000000e+00 0.0000000000000000e+00 0.0000000000000000e+00 
0.0000000000000000e+00 0.0000000000000000e+00 0.0000000000000000e+00 
0.0000000000000000e+00 0.0000000000000000e+00 0.0000000000000000e+00 
0.0000000000000000e+00 0.0000000000000000e+00 0.0000000000000000e+00 
0.0000000000000000e+00 0.0000000000000000e+00 0.0000000000000000e+00 
0.0000000000000000e+00 0.0000000000000000e+00 0.0000000000000000e+00 
0.0000000000000000e+00 0.0000000000000000e+00 0.0000000000000000e+00 

VECTORS Forces0 double
1.8925626491572356e-01 0.0000000000000000e+00 1.1834632336762342e-03 
6.4343084652810845e-01 0.0000000000000000e+00 -2.7164351234236668e-02 
1.8925626549426722e-01 0.0000000000000000e+00 1.1834632210903856e-03 
6.4343084710684662e-01 0.0000000000000000e+00 -2.7164351231100229e-02 
6.1629581067319184e-01 0.0000000000000000e+00 -3.6281262920430178e-02 
6.1629581081757168e-01 0.0000000000000000e+00 -3.6281262916355757e-02 
5.5780768827167049e-01 0.0000000000000000e+00 -4.3047917667495633e-02 
5.5780768754890964e-01 0.0000000000000000e+00 -4.3047917673250405e-02 
5.6823024443308645e-01 0.0000000000000000e+00 -4.9037883056540263e-02 
5.6823024399860422e-01 0.0000000000000000e+00 -4.9037883075937157e-02 
5.6426232502547524e-01 0.0000000000000000e+00 -5.3346731947487555e-02 
5.6426232517017005e-01 0.0000000000000000e+00 -5.3346731940824559e-02 
6.5288045411749562e-01 0.0000000000000000e+00 -6.7254634508022049e-02 
6.5288045296059427e-01 0.0000000000000000e+00 -6.7254634523348122e-02 
5.9256945720447907e-01 0.0000000000000000e+00 -6.1433909148819556e-02 
5.9256945763850033e-01 0.0000000000000000e+00 -6.1433909132601647e-02 
6.1719412877493107e-01 0.0000000000000000e+00 -5.9466631567257046e-02 
6.1719412819625541e-01 0.0000000000000000e+00 -5.9466631582081361e-02 
6.2638360759327083e-01 0.0000000000000000e+00 -5.5276936820853786e-02 
6.2638360744833588e-01 0.0000000000000000e+00 -5.5276936810972357e-02 
7.4540244918469123e-01 0.0000000000000000e+00 -5.1912122836490597e-02 
7.4540244932954836e-01 0.0000000000000000e+00 -5.1912122839312173e-02 
6.7848332558996405e-01 0.0000000000000000e+00 -3.3911791662217201e-02 
6.7848332645756748e-01 0.0000000000000000e+00 -3.3911791660526193e-02 
6.9827625322255249e-01 0.0000000000000000e+00 -2.5505964145137578e-02 
6.9827625307834562e-01 0.0000000000000000e+00 -2.5505964145755042e-02 
7.0315493336774093e-01 0.0000000000000000e+00 -1.6547990989604265e-02 
7.0315493336776147e-01 0.0000000000000000e+00 -1.6547990967034482e-02 
8.1556726411638059e-01 0.0000000000000000e+00 -4.6319522955605083e-03 
8.1556726324771556e-01 0.0000000000000000e+00 -4.6319522814666459e-03 
7.1246716118494680e-01 0.0000000000000000e+00 5.5410464094863016e-03 
7.1246716190829407e-01 0.0000000000000000e+00 5.5410463950108721e-03 
7.1037213185766168e-01 0.0000000000000000e+00 9.8225687239369142e-03 
7.1037213171281599e-01 0.0000000000000000e+00 9.8225687257524931e-03 
6.9870814811066051e-01 0.0000000000000000e+00 1.4239962742302728e-02 
6.9870814825522498e-01 0.0000000000000000e+00 1.4239962729547704e-02 
7.7226158522143962e-01 0.0000000000000000e+00 1.5675034727488851e-02 
7.7226158507561871e-01 0.0000000000000000e+00 1.5675034742767165e-02 
7.3227906422599220e-01 0.0000000000000000e+00 3.1043134909761530e-02 
7.3227906364798867e-01 0.0000000000000000e+00 3.1043134925177955e-02 
-1.4292029926769577e-02 0.0000000000000000e+00 1.1769753324344314e+00 
2.5031604107707373e-01 0.0000000000000000e+00 2.9915401492006238e-01 
-1.4292029058380737e-02 0.0000000000000000e+00 1.1769753324343091e+00 
2.5031604136827329e-01 0.0000000000000000e+00 2.9915401492443461e-01 
3.0175976466355459e-01 0.0000000000000000e+00 -1.1323643241557828e-03 
9.3505655969629031e-01 0.0000000000000000e+00 -3.6299760118980506e-02 
3.0175976451832565e-01 0.0000000000000000e+00 -1.1323643415242742e-03 
9.3505655955073275e-01 0.0000000000000000e+00 -3.6299760117206238e-02 
9.1477406511725379e-01 0.0000000000000000e+00 -5.3898017716296293e-02 
9.1477406540598527e-01 0.0000000000000000e+00 -5.3898017720348121e-02 
8.0613733260426834e-01 0.0000000000000000e+00 -6.2301855187570386e-02 
8.0613733289371836e-01 0.0000000000000000e+00 -6.2301855197794728e-02 
8.0235423045545784e-01 0.0000000000000000e+00 -6.9404795563383664e-02 
8.0235423088911617e-01 0.0000000000000000e+00 -6.9404795558014820e-02 
7.9115455361673670e-01 0.0000000000000000e+00 -7.5136961152889772e-02 
7.9115455376133292e-01 0.0000000000000000e+00 -7.5136961139528127e-02 
8.9157561017707843e-01 0.0000000000000000e+00 -9.2423281437839372e-02 
8.9157560988760609e-01 0.0000000000000000e+00 -9.2423281432867016e-02 
7.6261285852667193e-01 0.0000000000000000e+00 -7.9604027568422303e-02 
7.6261285881634322e-01 0.0000000000000000e+00 -7.9604027567936511e-02 
7.5776166833818237e-01 0.0000000000000000e+00 -7.3927276630547142e-02 
7.5776166848304161e-01 0.0000000000000000e+00 -7.3927276612524365e-02 
7.4111063376925401e-01 0.0000000000000000e+00 -6.6344103764570006e-02 
7.4111063376903785e-01 0.0000000000000000e+00 -6.6344103754787775e-02 
8.2956027811203936e-01 0.0000000000000000e+00 -5.8500786261605327e-02 
8.2956027811230382e-01 0.0000000000000000e+00 -5.8500786265484661e-02 
7.0753090662749885e-01 0.0000000000000000e+00 -3.6012871654229880e-02 
7.0753090677220631e-01 0.0000000000000000e+00 -3.6012871663664472e-02 
6.9832785856289037e-01 0.0000000000000000e+00 -2.6329311263595310e-02 
6.9832785870757796e-01 0.0000000000000000e+00 -2.6329311269092440e-02 
6.7437410406062603e-01 0.0000000000000000e+00 -1.6327678202360689e-02 
6.7437410420536370e-01 0.0000000000000000e+00 -1.6327678193390784e-02 
7.3246609493413839e-01 0.0000000000000000e+00 -4.2483669208944258e-03 
7.3246609522362760e-01 0.0000000000000000e+00 -4.2483669252073057e-03 
5.9767870098018350e-01 0.0000000000000000e+00 4.7194150460605089e-03 
5.9767870083546626e-01 0.0000000000000000e+00 4.7194150550212543e-03 
5.5949578244796416e-01 0.0000000000000000e+00 7.6287950309224320e-03 
5.5949578230318264e-01 0.0000000000000000e+00 7.6287950257999566e-03 
5.0111158633974040e-01 0.0000000000000000e+00 1.0631590907116429e-02 
5.0111158619506313e-01 0.0000000000000000e+00 1.0631590902402451e-02 
4.5077590227449404e-01 0.0000000000000000e+00 5.2609826463329637e-03 
4.5077590241930365e-01 0.0000000000000000e+00 5.2609826459169831e-03 
1.9696224482049340e-01 0.0000000000000000e+00 2.3598805539625359e-02 
1.9696224482048078e-01 0.0000000000000000e+00 2.3598805539623117e-02 
3.8313623486512141e-02 0.0000000000000000e+00 4.5102857129023810e-01 
3.8313623631332970e-02 0.0000000000000000e+00 4.5102857129023832e-01 

VECTORS Displacements0 double
6.9356603532943773e-310 0.0000000000000000e+00 0.0000000000000000e+00 
1.3589595944627302e-03 0.0000000000000000e+00 -1.5283208675937355e-03 
0.0000000000000000e+00 0.0000000000000000e+00 0.0000000000000000e+00 
1.3589595943009367e-03 0.0000000000000000e+00 -1.5283208675763871e-03 
3.6835373228478988e-03 0.0000000000000000e+00 -2.8069244523254099e-03 
3.6835373228052480e-03 0.0000000000000000e+00 -2.8069244523611318e-03 
6.9923414955136275e-03 0.0000000000000000e+00 -3.8011586678717863e-03 
6.9923414955622605e-03 0.0000000000000000e+00 -3.8011586679265138e-03 
1.0982186992368290e-02 0.0000000000000000e+00 -4.6230641344720607e-03 
1.0982186992512440e-02 0.0000000000000000e+00 -4.6230641345447127e-03 
1.5518742823447399e-02 0.0000000000000000e+00 -5.3157617123752591e-03 
1.5518742823552976e-02 0.0000000000000000e+00 -5.3157617124711416e-03 
2.0487597105254898e-02 0.0000000000000000e+00 -5.8629599704537591e-03 
2.0487597105510146e-02 0.0000000000000000e+00 -5.8629599705875479e-03 
2.5707628381467687e-02 0.0000000000000000e+00 -6.1863353345288060e-03 
2.5707628381879698e-02 0.0000000000000000e+00 -6.1863353346908916e-03 
3.0877301574419060e-02 0.0000000000000000e+00 -6.2023549938858011e-03 
3.0877301574948470e-02 0.0000000000000000e+00 -6.2023549940552775e-03 
3.5613237819239058e-02 0.0000000000000000e+00 -5.8990574369835892e-03 
3.5613237819795557e-02 0.0000000000000000e+00 -5.8990574371124600e-03 
3.9635998410568772e-02 0.0000000000000000e+00 -5.3558539729495168e-03 
3.9635998411103789e-02 0.0000000000000000e+00 -5.3558539729912395e-03 
4.2836790456917580e-02 0.0000000000000000e+00 -4.6801392091085680e-03 
4.2836790457419338e-02 0.0000000000000000e+00 -4.6801392090438584e-03 
4.5218058220923264e-02 0.0000000000000000e+00 -3.9478013677814302e-03 
4.5218058221213886e-02 0.0000000000000000e+00 -3.9478013676086414e-03 
4.6794239236213529e-02 0.0000000000000000e+00 -3.2044064029430274e-03 
4.6794239236265252e-02 0.0000000000000000e+00 -3.2044064027249987e-03 
4.7588480069070314e-02 0.0000000000000000e+00 -2.5043973040379873e-03 
4.7588480068822818e-02 0.0000000000000000e+00 -2.5043973038778593e-03 
4.7693132675643436e-02 0.0000000000000000e+00 -1.9154367928205084e-03 
4.7693132675297858e-02 0.0000000000000000e+00 -1.9154367927728517e-03 
4.7293867493909077e-02 0.0000000000000000e+00 -1.4724829167382890e-03 
4.7293867493692208e-02 0.0000000000000000e+00 -1.4724829167852523e-03 
4.6545263636679816e-02 0.0000000000000000e+00 -1.1674979488100284e-03 
4.6545263636609158e-02 0.0000000000000000e+00 -1.1674979488359651e-03 
4.5567638269653488e-02 0.0000000000000000e+00 -9.8450574701188800e-04 
4.5567638269501963e-02 0.0000000000000000e+00 -9.8450574696352065e-04 
4.4483498590640339e-02 0.0000000000000000e+00 -9.0555348563175564e-04 
4.4483498590216525e-02 0.0000000000000000e+00 -9.0555348558834646e-04 
4.3414604635715115e-02 0.0000000000000000e+00 -1.9416579200823300e-03 
4.3403678495138528e-02 0.0000000000000000e+00 -8.9391551806702484e-04 
4.3414604635213544e-02 0.0000000000000000e+00 -1.9416579200693530e-03 
4.3403678494581724e-02 0.0000000000000000e+00 -8.9391551803477622e-04 
0.0000000000000000e+00 0.0000000000000000e+00 0.0000000000000000e+00 
1.3978321835696791e-03 0.0000000000000000e+00 1.4143377637857494e-03 
0.0000000000000000e+00 0.0000000000000000e+00 0.0000000000000000e+00 
1.3978321834793531e-03 0.0000000000000000e+00 1.4143377638400011e-03 
3.8211051048356709e-03 0.0000000000000000e+00 2.5212767272683777e-03 
3.8211051048089436e-03 0.0000000000000000e+00 2.5212767273853024e-03 
7.2329472281888220e-03 0.0000000000000000e+00 3.2546511767981147e-03 
7.2329472282242130e-03 0.0000000000000000e+00 3.2546511769020563e-03 
1.1322154604217221e-02 0.0000000000000000e+00 3.7245622537252572e-03 
1.1322154604343465e-02 0.0000000000000000e+00 3.7245622537962013e-03 
1.5942687642856966e-02 0.0000000000000000e+00 3.9775697651346035e-03 
1.5942687643021567e-02 0.0000000000000000e+00 3.9775697651932666e-03 
2.0971622070440163e-02 0.0000000000000000e+00 4.0098738791712590e-03 
2.0971622070656205e-02 0.0000000000000000e+00 4.0098738792308615e-03 
2.6200912033153442e-02 0.0000000000000000e+00 3.7790777411051951e-03 
2.6200912033483646e-02 0.0000000000000000e+00 3.7790777411573933e-03 
3.1321360939258615e-02 0.0000000000000000e+00 3.2609926147435077e-03 
3.1321360939785332e-02 0.0000000000000000e+00 3.2609926147546958e-03 
3.5970446973315022e-02 0.0000000000000000e+00 2.5131496557388266e-03 
3.5970446973863909e-02 0.0000000000000000e+00 2.5131496556967700e-03 
3.9892154763951568e-02 0.0000000000000000e+00 1.6555199507399547e-03 
3.9892154764504251e-02 0.0000000000000000e+00 1.6555199506368753e-03 
4.3000495939020632e-02 0.0000000000000000e+00 7.9288274619800211e-04 
4.3000495939507541e-02 0.0000000000000000e+00 7.9288274602197885e-04 
4.5310888374399443e-02 0.0000000000000000e+00 -2.6320051164544690e-05 
4.5310888374761368e-02 0.0000000000000000e+00 -2.6320051419717516e-05 
4.6841135667489847e-02 0.0000000000000000e+00 -7.8771031490690942e-04 
4.6841135667512149e-02 0.0000000000000000e+00 -7.8771031514585424e-04 
4.7612122162283901e-02 0.0000000000000000e+00 -1.4676454679636076e-03 
4.7612122162060171e-02 0.0000000000000000e+00 -1.4676454680866238e-03 
4.7705370350811162e-02 0.0000000000000000e+00 -2.0242122909229555e-03 
4.7705370350475944e-02 0.0000000000000000e+00 -2.0242122909025204e-03 
4.7301896906455185e-02 0.0000000000000000e+00 -2.4387571936169603e-03 
4.7301896906243708e-02 0.0000000000000000e+00 -2.4387571934881931e-03 
4.6561510284679843e-02 0.0000000000000000e+00 -2.7275165699266603e-03 
4.6561510284643316e-02 0.0000000000000000e+00 -2.7275165698222976e-03 
4.5591477420071913e-02 0.0000000000000000e+00 -2.9056853826648975e-03 
4.5591477419976129e-02 0.0000000000000000e+00 -2.9056853826620213e-03 
4.4508569325428744e-02 0.0000000000000000e+00 -2.9856754537819258e-03 
4.4508569325060254e-02 0.0000000000000000e+00 -2.9856754537889549e-03 
4.3426192235655935e-02 0.0000000000000000e+00 -3.0049217360975100e-03 
4.3426192235215676e-02 0.0000000000000000e+00 -3.0049217360565675e-03 

