# vtk DataFile Version 2.0

ASCII

DATASET UNSTRUCTURED_GRID

POINTS 86 float 

5.0000000000000003e-02  0.0000000000000000e+00  0.0000000000000000e+00
5.0000000000000003e-02  0.0000000000000000e+00  5.0000000000000003e-02
5.0000000000000003e-02  2.9999999999999999e-01  0.0000000000000000e+00
5.0000000000000003e-02  2.9999999999999999e-01  5.0000000000000003e-02
5.0000000000000003e-02  0.0000000000000000e+00  1.0000000000000001e-01
5.0000000000000003e-02  2.9999999999999999e-01  1.0000000000000001e-01
5.0000000000000003e-02  0.0000000000000000e+00  1.4999999999999999e-01
5.0000000000000003e-02  2.9999999999999999e-01  1.4999999999999999e-01
5.0000000000000003e-02  0.0000000000000000e+00  2.0000000000000001e-01
5.0000000000000003e-02  2.9999999999999999e-01  2.0000000000000001e-01
5.0000000000000003e-02  0.0000000000000000e+00  2.5000000000000000e-01
5.0000000000000003e-02  2.9999999999999999e-01  2.5000000000000000e-01
5.0000000000000003e-02  0.0000000000000000e+00  2.9999999999999999e-01
5.0000000000000003e-02  2.9999999999999999e-01  2.9999999999999999e-01
5.0000000000000003e-02  0.0000000000000000e+00  3.4999999999999998e-01
5.0000000000000003e-02  2.9999999999999999e-01  3.4999999999999998e-01
5.0000000000000003e-02  0.0000000000000000e+00  4.0000000000000002e-01
5.0000000000000003e-02  2.9999999999999999e-01  4.0000000000000002e-01
5.0000000000000003e-02  0.0000000000000000e+00  4.5000000000000001e-01
5.0000000000000003e-02  2.9999999999999999e-01  4.5000000000000001e-01
5.0000000000000003e-02  0.0000000000000000e+00  5.0000000000000000e-01
5.0000000000000003e-02  2.9999999999999999e-01  5.0000000000000000e-01
5.0000000000000003e-02  0.0000000000000000e+00  5.5000000000000004e-01
5.0000000000000003e-02  2.9999999999999999e-01  5.5000000000000004e-01
5.0000000000000003e-02  0.0000000000000000e+00  5.9999999999999998e-01
5.0000000000000003e-02  2.9999999999999999e-01  5.9999999999999998e-01
5.0000000000000003e-02  0.0000000000000000e+00  6.5000000000000002e-01
5.0000000000000003e-02  2.9999999999999999e-01  6.5000000000000002e-01
5.0000000000000003e-02  0.0000000000000000e+00  6.9999999999999996e-01
5.0000000000000003e-02  2.9999999999999999e-01  6.9999999999999996e-01
5.0000000000000003e-02  0.0000000000000000e+00  7.5000000000000000e-01
5.0000000000000003e-02  2.9999999999999999e-01  7.5000000000000000e-01
5.0000000000000003e-02  0.0000000000000000e+00  8.0000000000000004e-01
5.0000000000000003e-02  2.9999999999999999e-01  8.0000000000000004e-01
5.0000000000000003e-02  0.0000000000000000e+00  8.4999999999999998e-01
5.0000000000000003e-02  2.9999999999999999e-01  8.4999999999999998e-01
5.0000000000000003e-02  0.0000000000000000e+00  9.0000000000000002e-01
5.0000000000000003e-02  2.9999999999999999e-01  9.0000000000000002e-01
5.0000000000000003e-02  0.0000000000000000e+00  9.4999999999999996e-01
5.0000000000000003e-02  2.9999999999999999e-01  9.4999999999999996e-01
0.0000000000000000e+00  0.0000000000000000e+00  1.0000000000000000e+00
5.0000000000000003e-02  0.0000000000000000e+00  1.0000000000000000e+00
0.0000000000000000e+00  2.9999999999999999e-01  1.0000000000000000e+00
5.0000000000000003e-02  2.9999999999999999e-01  1.0000000000000000e+00
-5.0000000000000003e-02  0.0000000000000000e+00  0.0000000000000000e+00
-5.0000000000000003e-02  0.0000000000000000e+00  5.0000000000000003e-02
-5.0000000000000003e-02  2.9999999999999999e-01  0.0000000000000000e+00
-5.0000000000000003e-02  2.9999999999999999e-01  5.0000000000000003e-02
-5.0000000000000003e-02  0.0000000000000000e+00  1.0000000000000001e-01
-5.0000000000000003e-02  2.9999999999999999e-01  1.0000000000000001e-01
-5.0000000000000003e-02  0.0000000000000000e+00  1.4999999999999999e-01
-5.0000000000000003e-02  2.9999999999999999e-01  1.4999999999999999e-01
-5.0000000000000003e-02  0.0000000000000000e+00  2.0000000000000001e-01
-5.0000000000000003e-02  2.9999999999999999e-01  2.0000000000000001e-01
-5.0000000000000003e-02  0.0000000000000000e+00  2.5000000000000000e-01
-5.0000000000000003e-02  2.9999999999999999e-01  2.5000000000000000e-01
-5.0000000000000003e-02  0.0000000000000000e+00  2.9999999999999999e-01
-5.0000000000000003e-02  2.9999999999999999e-01  2.9999999999999999e-01
-5.0000000000000003e-02  0.0000000000000000e+00  3.4999999999999998e-01
-5.0000000000000003e-02  2.9999999999999999e-01  3.4999999999999998e-01
-5.0000000000000003e-02  0.0000000000000000e+00  4.0000000000000002e-01
-5.0000000000000003e-02  2.9999999999999999e-01  4.0000000000000002e-01
-5.0000000000000003e-02  0.0000000000000000e+00  4.5000000000000001e-01
-5.0000000000000003e-02  2.9999999999999999e-01  4.5000000000000001e-01
-5.0000000000000003e-02  0.0000000000000000e+00  5.0000000000000000e-01
-5.0000000000000003e-02  2.9999999999999999e-01  5.0000000000000000e-01
-5.0000000000000003e-02  0.0000000000000000e+00  5.5000000000000004e-01
-5.0000000000000003e-02  2.9999999999999999e-01  5.5000000000000004e-01
-5.0000000000000003e-02  0.0000000000000000e+00  5.9999999999999998e-01
-5.0000000000000003e-02  2.9999999999999999e-01  5.9999999999999998e-01
-5.0000000000000003e-02  0.0000000000000000e+00  6.5000000000000002e-01
-5.0000000000000003e-02  2.9999999999999999e-01  6.5000000000000002e-01
-5.0000000000000003e-02  0.0000000000000000e+00  6.9999999999999996e-01
-5.0000000000000003e-02  2.9999999999999999e-01  6.9999999999999996e-01
-5.0000000000000003e-02  0.0000000000000000e+00  7.5000000000000000e-01
-5.0000000000000003e-02  2.9999999999999999e-01  7.5000000000000000e-01
-5.0000000000000003e-02  0.0000000000000000e+00  8.0000000000000004e-01
-5.0000000000000003e-02  2.9999999999999999e-01  8.0000000000000004e-01
-5.0000000000000003e-02  0.0000000000000000e+00  8.4999999999999998e-01
-5.0000000000000003e-02  2.9999999999999999e-01  8.4999999999999998e-01
-5.0000000000000003e-02  0.0000000000000000e+00  9.0000000000000002e-01
-5.0000000000000003e-02  2.9999999999999999e-01  9.0000000000000002e-01
-5.0000000000000003e-02  0.0000000000000000e+00  9.4999999999999996e-01
-5.0000000000000003e-02  2.9999999999999999e-01  9.4999999999999996e-01
-5.0000000000000003e-02  0.0000000000000000e+00  1.0000000000000000e+00
-5.0000000000000003e-02  2.9999999999999999e-01  1.0000000000000000e+00

CELLS 0 0


CELL_TYPES 0


POINT_DATA 86

VECTORS VertexNormals float

0.0000000000000000e+00 0.0000000000000000e+00 0.0000000000000000e+00 
0.0000000000000000e+00 0.0000000000000000e+00 0.0000000000000000e+00 
0.0000000000000000e+00 0.0000000000000000e+00 0.0000000000000000e+00 
0.0000000000000000e+00 0.0000000000000000e+00 0.0000000000000000e+00 
0.0000000000000000e+00 0.0000000000000000e+00 0.0000000000000000e+00 
0.0000000000000000e+00 0.0000000000000000e+00 0.0000000000000000e+00 
0.0000000000000000e+00 0.0000000000000000e+00 0.0000000000000000e+00 
0.0000000000000000e+00 0.0000000000000000e+00 0.0000000000000000e+00 
0.0000000000000000e+00 0.0000000000000000e+00 0.0000000000000000e+00 
0.0000000000000000e+00 0.0000000000000000e+00 0.0000000000000000e+00 
0.0000000000000000e+00 0.0000000000000000e+00 0.0000000000000000e+00 
0.0000000000000000e+00 0.0000000000000000e+00 0.0000000000000000e+00 
0.0000000000000000e+00 0.0000000000000000e+00 0.0000000000000000e+00 
0.0000000000000000e+00 0.0000000000000000e+00 0.0000000000000000e+00 
0.0000000000000000e+00 0.0000000000000000e+00 0.0000000000000000e+00 
0.0000000000000000e+00 0.0000000000000000e+00 0.0000000000000000e+00 
0.0000000000000000e+00 0.0000000000000000e+00 0.0000000000000000e+00 
0.0000000000000000e+00 0.0000000000000000e+00 0.0000000000000000e+00 
0.0000000000000000e+00 0.0000000000000000e+00 0.0000000000000000e+00 
0.0000000000000000e+00 0.0000000000000000e+00 0.0000000000000000e+00 
0.0000000000000000e+00 0.0000000000000000e+00 0.0000000000000000e+00 
0.0000000000000000e+00 0.0000000000000000e+00 0.0000000000000000e+00 
0.0000000000000000e+00 0.0000000000000000e+00 0.0000000000000000e+00 
0.0000000000000000e+00 0.0000000000000000e+00 0.0000000000000000e+00 
0.0000000000000000e+00 0.0000000000000000e+00 0.0000000000000000e+00 
0.0000000000000000e+00 0.0000000000000000e+00 0.0000000000000000e+00 
0.0000000000000000e+00 0.0000000000000000e+00 0.0000000000000000e+00 
0.0000000000000000e+00 0.0000000000000000e+00 0.0000000000000000e+00 
0.0000000000000000e+00 0.0000000000000000e+00 0.0000000000000000e+00 
0.0000000000000000e+00 0.0000000000000000e+00 0.0000000000000000e+00 
0.0000000000000000e+00 0.0000000000000000e+00 0.0000000000000000e+00 
0.0000000000000000e+00 0.0000000000000000e+00 0.0000000000000000e+00 
0.0000000000000000e+00 0.0000000000000000e+00 0.0000000000000000e+00 
0.0000000000000000e+00 0.0000000000000000e+00 0.0000000000000000e+00 
0.0000000000000000e+00 0.0000000000000000e+00 0.0000000000000000e+00 
0.0000000000000000e+00 0.0000000000000000e+00 0.0000000000000000e+00 
0.0000000000000000e+00 0.0000000000000000e+00 0.0000000000000000e+00 
0.0000000000000000e+00 0.0000000000000000e+00 0.0000000000000000e+00 
0.0000000000000000e+00 0.0000000000000000e+00 0.0000000000000000e+00 
0.0000000000000000e+00 0.0000000000000000e+00 0.0000000000000000e+00 
0.0000000000000000e+00 0.0000000000000000e+00 0.0000000000000000e+00 
0.0000000000000000e+00 0.0000000000000000e+00 0.0000000000000000e+00 
0.0000000000000000e+00 0.0000000000000000e+00 0.0000000000000000e+00 
0.0000000000000000e+00 0.0000000000000000e+00 0.0000000000000000e+00 
0.0000000000000000e+00 0.0000000000000000e+00 0.0000000000000000e+00 
0.0000000000000000e+00 0.0000000000000000e+00 0.0000000000000000e+00 
0.0000000000000000e+00 0.0000000000000000e+00 0.0000000000000000e+00 
0.0000000000000000e+00 0.0000000000000000e+00 0.0000000000000000e+00 
0.0000000000000000e+00 0.0000000000000000e+00 0.0000000000000000e+00 
0.0000000000000000e+00 0.0000000000000000e+00 0.0000000000000000e+00 
0.0000000000000000e+00 0.0000000000000000e+00 0.0000000000000000e+00 
0.0000000000000000e+00 0.0000000000000000e+00 0.0000000000000000e+00 
0.0000000000000000e+00 0.0000000000000000e+00 0.0000000000000000e+00 
0.0000000000000000e+00 0.0000000000000000e+00 0.0000000000000000e+00 
0.0000000000000000e+00 0.0000000000000000e+00 0.0000000000000000e+00 
0.0000000000000000e+00 0.0000000000000000e+00 0.0000000000000000e+00 
0.0000000000000000e+00 0.0000000000000000e+00 0.0000000000000000e+00 
0.0000000000000000e+00 0.0000000000000000e+00 0.0000000000000000e+00 
0.0000000000000000e+00 0.0000000000000000e+00 0.0000000000000000e+00 
0.0000000000000000e+00 0.0000000000000000e+00 0.0000000000000000e+00 
0.0000000000000000e+00 0.0000000000000000e+00 0.0000000000000000e+00 
0.0000000000000000e+00 0.0000000000000000e+00 0.0000000000000000e+00 
0.0000000000000000e+00 0.0000000000000000e+00 0.0000000000000000e+00 
0.0000000000000000e+00 0.0000000000000000e+00 0.0000000000000000e+00 
0.0000000000000000e+00 0.0000000000000000e+00 0.0000000000000000e+00 
0.0000000000000000e+00 0.0000000000000000e+00 0.0000000000000000e+00 
0.0000000000000000e+00 0.0000000000000000e+00 0.0000000000000000e+00 
0.0000000000000000e+00 0.0000000000000000e+00 0.0000000000000000e+00 
0.0000000000000000e+00 0.0000000000000000e+00 0.0000000000000000e+00 
0.0000000000000000e+00 0.0000000000000000e+00 0.0000000000000000e+00 
0.0000000000000000e+00 0.0000000000000000e+00 0.0000000000000000e+00 
0.0000000000000000e+00 0.0000000000000000e+00 0.0000000000000000e+00 
0.0000000000000000e+00 0.0000000000000000e+00 0.0000000000000000e+00 
0.0000000000000000e+00 0.0000000000000000e+00 0.0000000000000000e+00 
0.0000000000000000e+00 0.0000000000000000e+00 0.0000000000000000e+00 
0.0000000000000000e+00 0.0000000000000000e+00 0.0000000000000000e+00 
0.0000000000000000e+00 0.0000000000000000e+00 0.0000000000000000e+00 
0.0000000000000000e+00 0.0000000000000000e+00 0.0000000000000000e+00 
0.0000000000000000e+00 0.0000000000000000e+00 0.0000000000000000e+00 
0.0000000000000000e+00 0.0000000000000000e+00 0.0000000000000000e+00 
0.0000000000000000e+00 0.0000000000000000e+00 0.0000000000000000e+00 
0.0000000000000000e+00 0.0000000000000000e+00 0.0000000000000000e+00 
0.0000000000000000e+00 0.0000000000000000e+00 0.0000000000000000e+00 
0.0000000000000000e+00 0.0000000000000000e+00 0.0000000000000000e+00 
0.0000000000000000e+00 0.0000000000000000e+00 0.0000000000000000e+00 
0.0000000000000000e+00 0.0000000000000000e+00 0.0000000000000000e+00 

VECTORS Forces0 float
8.0581621609462264e-02 0.0000000000000000e+00 9.7483539509817018e-04 
3.4010608742117859e-01 0.0000000000000000e+00 -1.6726259896230410e-02 
8.0581621143253207e-02 0.0000000000000000e+00 9.7483539530476230e-04 
3.4010608753659743e-01 0.0000000000000000e+00 -1.6726259984817683e-02 
3.0217496347298467e-01 0.0000000000000000e+00 -2.4449786701030547e-02 
3.0217496324051024e-01 0.0000000000000000e+00 -2.4449786700368074e-02 
2.8120616653372510e-01 0.0000000000000000e+00 -3.1081163768555631e-02 
2.8120616665053488e-01 0.0000000000000000e+00 -3.1081163711332405e-02 
2.9327454729660224e-01 0.0000000000000000e+00 -3.7124476585385584e-02 
2.9327454752917492e-01 0.0000000000000000e+00 -3.7124476593625839e-02 
2.8724116213822160e-01 0.0000000000000000e+00 -4.0462489578454983e-02 
2.8724116190530646e-01 0.0000000000000000e+00 -4.0462489529161268e-02 
3.3057476541003517e-01 0.0000000000000000e+00 -5.1013383128328330e-02 
3.3057476506170186e-01 0.0000000000000000e+00 -5.1013383152696982e-02 
3.1026887095678313e-01 0.0000000000000000e+00 -4.9300223200144121e-02 
3.1026887142324516e-01 0.0000000000000000e+00 -4.9300223159457222e-02 
3.3096792021757854e-01 0.0000000000000000e+00 -5.2299712655078746e-02 
3.3096791998405789e-01 0.0000000000000000e+00 -5.2299712621983734e-02 
3.3330044765731465e-01 0.0000000000000000e+00 -5.2188859312022190e-02 
3.3330044719138185e-01 0.0000000000000000e+00 -5.2188859271547983e-02 
3.9639934539238159e-01 0.0000000000000000e+00 -6.0339151655662247e-02 
3.9639934562486007e-01 0.0000000000000000e+00 -6.0339151671881190e-02 
3.7230145085919314e-01 0.0000000000000000e+00 -5.4171524480815657e-02 
3.7230145097532624e-01 0.0000000000000000e+00 -5.4171524489085958e-02 
3.9224661998756999e-01 0.0000000000000000e+00 -5.4957420756361910e-02 
3.9224662057005538e-01 0.0000000000000000e+00 -5.4957420773443358e-02 
3.9577268274779243e-01 0.0000000000000000e+00 -5.3412729162380601e-02 
3.9577268298037893e-01 0.0000000000000000e+00 -5.3412729137802512e-02 
4.6459584959657824e-01 0.0000000000000000e+00 -6.0338095794742405e-02 
4.6459584924738134e-01 0.0000000000000000e+00 -6.0338095746128848e-02 
4.1961724102353060e-01 0.0000000000000000e+00 -5.4670546129016458e-02 
4.1961724113979443e-01 0.0000000000000000e+00 -5.4670546095848906e-02 
4.2778783971523260e-01 0.0000000000000000e+00 -5.6554838161474032e-02 
4.2778783936634773e-01 0.0000000000000000e+00 -5.6554838202309839e-02 
4.2478498995934066e-01 0.0000000000000000e+00 -5.6566331371988639e-02 
4.2478499042489054e-01 0.0000000000000000e+00 -5.6566331363484219e-02 
4.7776169031891152e-01 0.0000000000000000e+00 -6.6608148658649918e-02 
4.7776168973687616e-01 0.0000000000000000e+00 -6.6608148642261875e-02 
4.6922759157564736e-01 0.0000000000000000e+00 -5.6172379938774629e-02 
4.6922759180860718e-01 0.0000000000000000e+00 -5.6172379930900816e-02 
1.2108227828020225e-01 0.0000000000000000e+00 8.0817345992761036e-01 
1.8884408615049617e-01 0.0000000000000000e+00 1.7117944380935562e-01 
1.2108227874441053e-01 0.0000000000000000e+00 8.0817345992809797e-01 
1.8884408649931858e-01 0.0000000000000000e+00 1.7117944380073685e-01 
3.3635595846559868e-01 0.0000000000000000e+00 -7.9481425768361293e-03 
9.9950877943335226e-01 0.0000000000000000e+00 -4.3390204763141267e-02 
3.3635595858154449e-01 0.0000000000000000e+00 -7.9481425522072262e-03 
9.9950877920096570e-01 0.0000000000000000e+00 -4.3390204721897148e-02 
9.9349134870306333e-01 0.0000000000000000e+00 -7.9999408343767037e-02 
9.9349134893586444e-01 0.0000000000000000e+00 -7.9999408351369511e-02 
8.7003343043233861e-01 0.0000000000000000e+00 -9.6775651876942884e-02 
8.7003342996665078e-01 0.0000000000000000e+00 -9.6775651835989657e-02 
8.6165877043084937e-01 0.0000000000000000e+00 -1.0945652003107736e-01 
8.6165877101313937e-01 0.0000000000000000e+00 -1.0945652008015135e-01 
8.5305597820468804e-01 0.0000000000000000e+00 -1.2080584079269488e-01 
8.5305597762213536e-01 0.0000000000000000e+00 -1.2080584079290194e-01 
9.6520343924483554e-01 0.0000000000000000e+00 -1.5027955871946327e-01 
9.6520343924459306e-01 0.0000000000000000e+00 -1.5027955871128865e-01 
8.2034466798954297e-01 0.0000000000000000e+00 -1.3181640954725324e-01 
8.2034466845535736e-01 0.0000000000000000e+00 -1.3181640957187168e-01 
8.0877019399877659e-01 0.0000000000000000e+00 -1.2947927733721665e-01 
8.0877019399867967e-01 0.0000000000000000e+00 -1.2947927732917847e-01 
7.9251837488421939e-01 0.0000000000000000e+00 -1.2592404731607812e-01 
7.9251837488416832e-01 0.0000000000000000e+00 -1.2592404730786141e-01 
8.8407665971258353e-01 0.0000000000000000e+00 -1.3649911253671773e-01 
8.8407665959588633e-01 0.0000000000000000e+00 -1.3649911253678867e-01 
7.4167609678641533e-01 0.0000000000000000e+00 -1.0954043282464593e-01 
7.4167609666970635e-01 0.0000000000000000e+00 -1.0954043278361254e-01 
7.2294683379583735e-01 0.0000000000000000e+00 -1.0292090570249091e-01 
7.2294683367896939e-01 0.0000000000000000e+00 -1.0292090570236385e-01 
6.9726063258871385e-01 0.0000000000000000e+00 -9.5470557839507572e-02 
6.9726063282157391e-01 0.0000000000000000e+00 -9.5470557855574914e-02 
7.5490433150340674e-01 0.0000000000000000e+00 -9.9309728602887698e-02 
7.5490433138681645e-01 0.0000000000000000e+00 -9.9309728619147691e-02 
6.0592924070220033e-01 0.0000000000000000e+00 -7.9800319189309257e-02 
6.0592924058568387e-01 0.0000000000000000e+00 -7.9800319189029884e-02 
5.6051447018160805e-01 0.0000000000000000e+00 -7.4725664674103048e-02 
5.6051447018153300e-01 0.0000000000000000e+00 -7.4725664665959673e-02 
5.0342496473085152e-01 0.0000000000000000e+00 -6.7562113869152687e-02 
5.0342496484722554e-01 0.0000000000000000e+00 -6.7562113860874004e-02 
4.5724997203604639e-01 0.0000000000000000e+00 -6.6835353702910952e-02 
4.5724997203630846e-01 0.0000000000000000e+00 -6.6835353703066994e-02 
2.4201657595475820e-01 0.0000000000000000e+00 -2.0886276169615470e-02 
2.4201657595462378e-01 0.0000000000000000e+00 -2.0886276169485140e-02 
1.1917154897951393e-01 0.0000000000000000e+00 3.2098638869134433e-01 
1.1917154897952170e-01 0.0000000000000000e+00 3.2098638869134843e-01 

VECTORS Displacements0 float
6.9356603523157320e-310 0.0000000000000000e+00 0.0000000000000000e+00 
1.5427983992042928e-03 0.0000000000000000e+00 -1.9290555726544697e-03 
0.0000000000000000e+00 0.0000000000000000e+00 0.0000000000000000e+00 
1.5427983991360785e-03 0.0000000000000000e+00 -1.9290555725236613e-03 
4.5822503586278466e-03 0.0000000000000000e+00 -3.6956081251495105e-03 
4.5822503583419251e-03 0.0000000000000000e+00 -3.6956081249033077e-03 
9.1929033631516222e-03 0.0000000000000000e+00 -5.1880895242218811e-03 
9.1929033625031201e-03 0.0000000000000000e+00 -5.1880895239587157e-03 
1.4962074575670340e-02 0.0000000000000000e+00 -6.4933422785287964e-03 
1.4962074574919253e-02 0.0000000000000000e+00 -6.4933422783894218e-03 
2.1654490069470348e-02 0.0000000000000000e+00 -7.6448334709689142e-03 
2.1654490068808804e-02 0.0000000000000000e+00 -7.6448334710245407e-03 
2.9046535867834518e-02 0.0000000000000000e+00 -8.6386446966040774e-03 
2.9046535867320988e-02 0.0000000000000000e+00 -8.6386446968148775e-03 
3.6876715253061097e-02 0.0000000000000000e+00 -9.4459534405023516e-03 
3.6876715252928745e-02 0.0000000000000000e+00 -9.4459534407528977e-03 
4.4868504028514694e-02 0.0000000000000000e+00 -1.0064964942302117e-02 
4.4868504028681186e-02 0.0000000000000000e+00 -1.0064964942399592e-02 
5.2822782862785134e-02 0.0000000000000000e+00 -1.0533060165957297e-02 
5.2822782862845218e-02 0.0000000000000000e+00 -1.0533060165823116e-02 
6.0643325360546160e-02 0.0000000000000000e+00 -1.0890225048397234e-02 
6.0643325360224820e-02 0.0000000000000000e+00 -1.0890225048159043e-02 
6.8258681630805118e-02 0.0000000000000000e+00 -1.1152409700978446e-02 
6.8258681630093659e-02 0.0000000000000000e+00 -1.1152409700840749e-02 
7.5592703343893633e-02 0.0000000000000000e+00 -1.1340098805400885e-02 
7.5592703343124956e-02 0.0000000000000000e+00 -1.1340098805498289e-02 
8.2605864222994624e-02 0.0000000000000000e+00 -1.1511553028944067e-02 
8.2605864222511108e-02 0.0000000000000000e+00 -1.1511553029227477e-02 
8.9359331918599724e-02 0.0000000000000000e+00 -1.1746542061882527e-02 
8.9359331918411986e-02 0.0000000000000000e+00 -1.1746542062193839e-02 
9.6000975305735259e-02 0.0000000000000000e+00 -1.2095951525902891e-02 
9.6000975305776962e-02 0.0000000000000000e+00 -1.2095951526141542e-02 
1.0269189012118299e-01 0.0000000000000000e+00 -1.2551995677954316e-02 
1.0269189012142253e-01 0.0000000000000000e+00 -1.2551995678062549e-02 
1.0950730433562191e-01 0.0000000000000000e+00 -1.3060636180936426e-02 
1.0950730433577960e-01 0.0000000000000000e+00 -1.3060636180857964e-02 
1.1642598079605564e-01 0.0000000000000000e+00 -1.3568859076337437e-02 
1.1642598079594953e-01 0.0000000000000000e+00 -1.3568859076067256e-02 
1.2338901687223579e-01 0.0000000000000000e+00 -1.4057769039926156e-02 
1.2338901687175444e-01 0.0000000000000000e+00 -1.4057769039532366e-02 
1.3084242555424869e-01 0.0000000000000000e+00 -7.5754936024272001e-03 
1.3035459703601671e-01 0.0000000000000000e+00 -1.4540323453608339e-02 
1.3084242555328129e-01 0.0000000000000000e+00 -7.5754936023426627e-03 
1.3035459703512076e-01 0.0000000000000000e+00 -1.4540323453151668e-02 
0.0000000000000000e+00 0.0000000000000000e+00 0.0000000000000000e+00 
1.7371778175066081e-03 0.0000000000000000e+00 1.9987639334425409e-03 
0.0000000000000000e+00 0.0000000000000000e+00 0.0000000000000000e+00 
1.7371778174332618e-03 0.0000000000000000e+00 1.9987639333220392e-03 
4.9805296467158077e-03 0.0000000000000000e+00 3.7078082956675151e-03 
4.9805296463487124e-03 0.0000000000000000e+00 3.7078082954943811e-03 
9.8219998600872684e-03 0.0000000000000000e+00 4.9431119475474641e-03 
9.8219998594343549e-03 0.0000000000000000e+00 4.9431119474615155e-03 
1.5828417644286757e-02 0.0000000000000000e+00 5.7621644721138204e-03 
1.5828417643504070e-02 0.0000000000000000e+00 5.7621644721963074e-03 
2.2727862021541787e-02 0.0000000000000000e+00 6.2038063048214928e-03 
2.2727862020841771e-02 0.0000000000000000e+00 6.2038063050400393e-03 
3.0274424930405493e-02 0.0000000000000000e+00 6.2963969389861468e-03 
3.0274424930010153e-02 0.0000000000000000e+00 6.2963969392521206e-03 
3.8186420675292876e-02 0.0000000000000000e+00 6.0748740541270311e-03 
3.8186420675284230e-02 0.0000000000000000e+00 6.0748740543026813e-03 
4.6198317933144120e-02 0.0000000000000000e+00 5.6150561393332101e-03 
4.6198317933305783e-02 0.0000000000000000e+00 5.6150561392918595e-03 
5.4128994308335163e-02 0.0000000000000000e+00 5.0139818486593570e-03 
5.4128994308323491e-02 0.0000000000000000e+00 5.0139818484259240e-03 
6.1897296326533138e-02 0.0000000000000000e+00 4.3399992935192712e-03 
6.1897296326104884e-02 0.0000000000000000e+00 4.3399992932889571e-03 
6.9439341377677211e-02 0.0000000000000000e+00 3.6294158715928821e-03 
6.9439341376909172e-02 0.0000000000000000e+00 3.6294158715615560e-03 
7.6692630490836119e-02 0.0000000000000000e+00 2.9203350714597492e-03 
7.6692630490095157e-02 0.0000000000000000e+00 2.9203350716448667e-03 
8.3629925284002538e-02 0.0000000000000000e+00 2.2734727228302166e-03 
8.3629925283573242e-02 0.0000000000000000e+00 2.2734727230819267e-03 
9.0333652917691312e-02 0.0000000000000000e+00 1.7413189111486038e-03 
9.0333652917615137e-02 0.0000000000000000e+00 1.7413189113291028e-03 
9.6958234698991758e-02 0.0000000000000000e+00 1.3303131267586323e-03 
9.6958234699139709e-02 0.0000000000000000e+00 1.3303131268179991e-03 
1.0365628463523993e-01 0.0000000000000000e+00 9.9051621917914260e-04 
1.0365628463545028e-01 0.0000000000000000e+00 9.9051621907228428e-04 
1.1048562657516993e-01 0.0000000000000000e+00 6.5113044002111100e-04 
1.1048562657528510e-01 0.0000000000000000e+00 6.5113043973728379e-04 
1.1741340325530600e-01 0.0000000000000000e+00 2.6748829028155907e-04 
1.1741340325515406e-01 0.0000000000000000e+00 2.6748828988399915e-04 
1.2437442428525215e-01 0.0000000000000000e+00 -1.6325944589940189e-04 
1.2437442428465416e-01 0.0000000000000000e+00 -1.6325944630800527e-04 
1.3133272113286043e-01 0.0000000000000000e+00 -6.2719853945435730e-04 
1.3133272113180927e-01 0.0000000000000000e+00 -6.2719853982420479e-04 

