# vtk DataFile Version 2.0

ASCII

DATASET UNSTRUCTURED_GRID

POINTS 86 double 

5.0000000000000003e-02  0.0000000000000000e+00  0.0000000000000000e+00
5.0000000000000003e-02  0.0000000000000000e+00  5.0000000000000003e-02
5.0000000000000003e-02  2.9999999999999999e-01  0.0000000000000000e+00
5.0000000000000003e-02  2.9999999999999999e-01  5.0000000000000003e-02
5.0000000000000003e-02  0.0000000000000000e+00  1.0000000000000001e-01
5.0000000000000003e-02  2.9999999999999999e-01  1.0000000000000001e-01
5.0000000000000003e-02  0.0000000000000000e+00  1.4999999999999999e-01
5.0000000000000003e-02  2.9999999999999999e-01  1.4999999999999999e-01
5.0000000000000003e-02  0.0000000000000000e+00  2.0000000000000001e-01
5.0000000000000003e-02  2.9999999999999999e-01  2.0000000000000001e-01
5.0000000000000003e-02  0.0000000000000000e+00  2.5000000000000000e-01
5.0000000000000003e-02  2.9999999999999999e-01  2.5000000000000000e-01
5.0000000000000003e-02  0.0000000000000000e+00  2.9999999999999999e-01
5.0000000000000003e-02  2.9999999999999999e-01  2.9999999999999999e-01
5.0000000000000003e-02  0.0000000000000000e+00  3.4999999999999998e-01
5.0000000000000003e-02  2.9999999999999999e-01  3.4999999999999998e-01
5.0000000000000003e-02  0.0000000000000000e+00  4.0000000000000002e-01
5.0000000000000003e-02  2.9999999999999999e-01  4.0000000000000002e-01
5.0000000000000003e-02  0.0000000000000000e+00  4.5000000000000001e-01
5.0000000000000003e-02  2.9999999999999999e-01  4.5000000000000001e-01
5.0000000000000003e-02  0.0000000000000000e+00  5.0000000000000000e-01
5.0000000000000003e-02  2.9999999999999999e-01  5.0000000000000000e-01
5.0000000000000003e-02  0.0000000000000000e+00  5.5000000000000004e-01
5.0000000000000003e-02  2.9999999999999999e-01  5.5000000000000004e-01
5.0000000000000003e-02  0.0000000000000000e+00  5.9999999999999998e-01
5.0000000000000003e-02  2.9999999999999999e-01  5.9999999999999998e-01
5.0000000000000003e-02  0.0000000000000000e+00  6.5000000000000002e-01
5.0000000000000003e-02  2.9999999999999999e-01  6.5000000000000002e-01
5.0000000000000003e-02  0.0000000000000000e+00  6.9999999999999996e-01
5.0000000000000003e-02  2.9999999999999999e-01  6.9999999999999996e-01
5.0000000000000003e-02  0.0000000000000000e+00  7.5000000000000000e-01
5.0000000000000003e-02  2.9999999999999999e-01  7.5000000000000000e-01
5.0000000000000003e-02  0.0000000000000000e+00  8.0000000000000004e-01
5.0000000000000003e-02  2.9999999999999999e-01  8.0000000000000004e-01
5.0000000000000003e-02  0.0000000000000000e+00  8.4999999999999998e-01
5.0000000000000003e-02  2.9999999999999999e-01  8.4999999999999998e-01
5.0000000000000003e-02  0.0000000000000000e+00  9.0000000000000002e-01
5.0000000000000003e-02  2.9999999999999999e-01  9.0000000000000002e-01
5.0000000000000003e-02  0.0000000000000000e+00  9.4999999999999996e-01
5.0000000000000003e-02  2.9999999999999999e-01  9.4999999999999996e-01
0.0000000000000000e+00  0.0000000000000000e+00  1.0000000000000000e+00
5.0000000000000003e-02  0.0000000000000000e+00  1.0000000000000000e+00
0.0000000000000000e+00  2.9999999999999999e-01  1.0000000000000000e+00
5.0000000000000003e-02  2.9999999999999999e-01  1.0000000000000000e+00
-5.0000000000000003e-02  0.0000000000000000e+00  0.0000000000000000e+00
-5.0000000000000003e-02  0.0000000000000000e+00  5.0000000000000003e-02
-5.0000000000000003e-02  2.9999999999999999e-01  0.0000000000000000e+00
-5.0000000000000003e-02  2.9999999999999999e-01  5.0000000000000003e-02
-5.0000000000000003e-02  0.0000000000000000e+00  1.0000000000000001e-01
-5.0000000000000003e-02  2.9999999999999999e-01  1.0000000000000001e-01
-5.0000000000000003e-02  0.0000000000000000e+00  1.4999999999999999e-01
-5.0000000000000003e-02  2.9999999999999999e-01  1.4999999999999999e-01
-5.0000000000000003e-02  0.0000000000000000e+00  2.0000000000000001e-01
-5.0000000000000003e-02  2.9999999999999999e-01  2.0000000000000001e-01
-5.0000000000000003e-02  0.0000000000000000e+00  2.5000000000000000e-01
-5.0000000000000003e-02  2.9999999999999999e-01  2.5000000000000000e-01
-5.0000000000000003e-02  0.0000000000000000e+00  2.9999999999999999e-01
-5.0000000000000003e-02  2.9999999999999999e-01  2.9999999999999999e-01
-5.0000000000000003e-02  0.0000000000000000e+00  3.4999999999999998e-01
-5.0000000000000003e-02  2.9999999999999999e-01  3.4999999999999998e-01
-5.0000000000000003e-02  0.0000000000000000e+00  4.0000000000000002e-01
-5.0000000000000003e-02  2.9999999999999999e-01  4.0000000000000002e-01
-5.0000000000000003e-02  0.0000000000000000e+00  4.5000000000000001e-01
-5.0000000000000003e-02  2.9999999999999999e-01  4.5000000000000001e-01
-5.0000000000000003e-02  0.0000000000000000e+00  5.0000000000000000e-01
-5.0000000000000003e-02  2.9999999999999999e-01  5.0000000000000000e-01
-5.0000000000000003e-02  0.0000000000000000e+00  5.5000000000000004e-01
-5.0000000000000003e-02  2.9999999999999999e-01  5.5000000000000004e-01
-5.0000000000000003e-02  0.0000000000000000e+00  5.9999999999999998e-01
-5.0000000000000003e-02  2.9999999999999999e-01  5.9999999999999998e-01
-5.0000000000000003e-02  0.0000000000000000e+00  6.5000000000000002e-01
-5.0000000000000003e-02  2.9999999999999999e-01  6.5000000000000002e-01
-5.0000000000000003e-02  0.0000000000000000e+00  6.9999999999999996e-01
-5.0000000000000003e-02  2.9999999999999999e-01  6.9999999999999996e-01
-5.0000000000000003e-02  0.0000000000000000e+00  7.5000000000000000e-01
-5.0000000000000003e-02  2.9999999999999999e-01  7.5000000000000000e-01
-5.0000000000000003e-02  0.0000000000000000e+00  8.0000000000000004e-01
-5.0000000000000003e-02  2.9999999999999999e-01  8.0000000000000004e-01
-5.0000000000000003e-02  0.0000000000000000e+00  8.4999999999999998e-01
-5.0000000000000003e-02  2.9999999999999999e-01  8.4999999999999998e-01
-5.0000000000000003e-02  0.0000000000000000e+00  9.0000000000000002e-01
-5.0000000000000003e-02  2.9999999999999999e-01  9.0000000000000002e-01
-5.0000000000000003e-02  0.0000000000000000e+00  9.4999999999999996e-01
-5.0000000000000003e-02  2.9999999999999999e-01  9.4999999999999996e-01
-5.0000000000000003e-02  0.0000000000000000e+00  1.0000000000000000e+00
-5.0000000000000003e-02  2.9999999999999999e-01  1.0000000000000000e+00

CELLS 0 0


CELL_TYPES 0


POINT_DATA 86

VECTORS VertexNormals double

0.0000000000000000e+00 0.0000000000000000e+00 0.0000000000000000e+00 
0.0000000000000000e+00 0.0000000000000000e+00 0.0000000000000000e+00 
0.0000000000000000e+00 0.0000000000000000e+00 0.0000000000000000e+00 
0.0000000000000000e+00 0.0000000000000000e+00 0.0000000000000000e+00 
0.0000000000000000e+00 0.0000000000000000e+00 0.0000000000000000e+00 
0.0000000000000000e+00 0.0000000000000000e+00 0.0000000000000000e+00 
0.0000000000000000e+00 0.0000000000000000e+00 0.0000000000000000e+00 
0.0000000000000000e+00 0.0000000000000000e+00 0.0000000000000000e+00 
0.0000000000000000e+00 0.0000000000000000e+00 0.0000000000000000e+00 
0.0000000000000000e+00 0.0000000000000000e+00 0.0000000000000000e+00 
0.0000000000000000e+00 0.0000000000000000e+00 0.0000000000000000e+00 
0.0000000000000000e+00 0.0000000000000000e+00 0.0000000000000000e+00 
0.0000000000000000e+00 0.0000000000000000e+00 0.0000000000000000e+00 
0.0000000000000000e+00 0.0000000000000000e+00 0.0000000000000000e+00 
0.0000000000000000e+00 0.0000000000000000e+00 0.0000000000000000e+00 
0.0000000000000000e+00 0.0000000000000000e+00 0.0000000000000000e+00 
0.0000000000000000e+00 0.0000000000000000e+00 0.0000000000000000e+00 
0.0000000000000000e+00 0.0000000000000000e+00 0.0000000000000000e+00 
0.0000000000000000e+00 0.0000000000000000e+00 0.0000000000000000e+00 
0.0000000000000000e+00 0.0000000000000000e+00 0.0000000000000000e+00 
0.0000000000000000e+00 0.0000000000000000e+00 0.0000000000000000e+00 
0.0000000000000000e+00 0.0000000000000000e+00 0.0000000000000000e+00 
0.0000000000000000e+00 0.0000000000000000e+00 0.0000000000000000e+00 
0.0000000000000000e+00 0.0000000000000000e+00 0.0000000000000000e+00 
0.0000000000000000e+00 0.0000000000000000e+00 0.0000000000000000e+00 
0.0000000000000000e+00 0.0000000000000000e+00 0.0000000000000000e+00 
0.0000000000000000e+00 0.0000000000000000e+00 0.0000000000000000e+00 
0.0000000000000000e+00 0.0000000000000000e+00 0.0000000000000000e+00 
0.0000000000000000e+00 0.0000000000000000e+00 0.0000000000000000e+00 
0.0000000000000000e+00 0.0000000000000000e+00 0.0000000000000000e+00 
0.0000000000000000e+00 0.0000000000000000e+00 0.0000000000000000e+00 
0.0000000000000000e+00 0.0000000000000000e+00 0.0000000000000000e+00 
0.0000000000000000e+00 0.0000000000000000e+00 0.0000000000000000e+00 
0.0000000000000000e+00 0.0000000000000000e+00 0.0000000000000000e+00 
0.0000000000000000e+00 0.0000000000000000e+00 0.0000000000000000e+00 
0.0000000000000000e+00 0.0000000000000000e+00 0.0000000000000000e+00 
0.0000000000000000e+00 0.0000000000000000e+00 0.0000000000000000e+00 
0.0000000000000000e+00 0.0000000000000000e+00 0.0000000000000000e+00 
0.0000000000000000e+00 0.0000000000000000e+00 0.0000000000000000e+00 
0.0000000000000000e+00 0.0000000000000000e+00 0.0000000000000000e+00 
0.0000000000000000e+00 0.0000000000000000e+00 0.0000000000000000e+00 
0.0000000000000000e+00 0.0000000000000000e+00 0.0000000000000000e+00 
0.0000000000000000e+00 0.0000000000000000e+00 0.0000000000000000e+00 
0.0000000000000000e+00 0.0000000000000000e+00 0.0000000000000000e+00 
0.0000000000000000e+00 0.0000000000000000e+00 0.0000000000000000e+00 
0.0000000000000000e+00 0.0000000000000000e+00 0.0000000000000000e+00 
0.0000000000000000e+00 0.0000000000000000e+00 0.0000000000000000e+00 
0.0000000000000000e+00 0.0000000000000000e+00 0.0000000000000000e+00 
0.0000000000000000e+00 0.0000000000000000e+00 0.0000000000000000e+00 
0.0000000000000000e+00 0.0000000000000000e+00 0.0000000000000000e+00 
0.0000000000000000e+00 0.0000000000000000e+00 0.0000000000000000e+00 
0.0000000000000000e+00 0.0000000000000000e+00 0.0000000000000000e+00 
0.0000000000000000e+00 0.0000000000000000e+00 0.0000000000000000e+00 
0.0000000000000000e+00 0.0000000000000000e+00 0.0000000000000000e+00 
0.0000000000000000e+00 0.0000000000000000e+00 0.0000000000000000e+00 
0.0000000000000000e+00 0.0000000000000000e+00 0.0000000000000000e+00 
0.0000000000000000e+00 0.0000000000000000e+00 0.0000000000000000e+00 
0.0000000000000000e+00 0.0000000000000000e+00 0.0000000000000000e+00 
0.0000000000000000e+00 0.0000000000000000e+00 0.0000000000000000e+00 
0.0000000000000000e+00 0.0000000000000000e+00 0.0000000000000000e+00 
0.0000000000000000e+00 0.0000000000000000e+00 0.0000000000000000e+00 
0.0000000000000000e+00 0.0000000000000000e+00 0.0000000000000000e+00 
0.0000000000000000e+00 0.0000000000000000e+00 0.0000000000000000e+00 
0.0000000000000000e+00 0.0000000000000000e+00 0.0000000000000000e+00 
0.0000000000000000e+00 0.0000000000000000e+00 0.0000000000000000e+00 
0.0000000000000000e+00 0.0000000000000000e+00 0.0000000000000000e+00 
0.0000000000000000e+00 0.0000000000000000e+00 0.0000000000000000e+00 
0.0000000000000000e+00 0.0000000000000000e+00 0.0000000000000000e+00 
0.0000000000000000e+00 0.0000000000000000e+00 0.0000000000000000e+00 
0.0000000000000000e+00 0.0000000000000000e+00 0.0000000000000000e+00 
0.0000000000000000e+00 0.0000000000000000e+00 0.0000000000000000e+00 
0.0000000000000000e+00 0.0000000000000000e+00 0.0000000000000000e+00 
0.0000000000000000e+00 0.0000000000000000e+00 0.0000000000000000e+00 
0.0000000000000000e+00 0.0000000000000000e+00 0.0000000000000000e+00 
0.0000000000000000e+00 0.0000000000000000e+00 0.0000000000000000e+00 
0.0000000000000000e+00 0.0000000000000000e+00 0.0000000000000000e+00 
0.0000000000000000e+00 0.0000000000000000e+00 0.0000000000000000e+00 
0.0000000000000000e+00 0.0000000000000000e+00 0.0000000000000000e+00 
0.0000000000000000e+00 0.0000000000000000e+00 0.0000000000000000e+00 
0.0000000000000000e+00 0.0000000000000000e+00 0.0000000000000000e+00 
0.0000000000000000e+00 0.0000000000000000e+00 0.0000000000000000e+00 
0.0000000000000000e+00 0.0000000000000000e+00 0.0000000000000000e+00 
0.0000000000000000e+00 0.0000000000000000e+00 0.0000000000000000e+00 
0.0000000000000000e+00 0.0000000000000000e+00 0.0000000000000000e+00 
0.0000000000000000e+00 0.0000000000000000e+00 0.0000000000000000e+00 
0.0000000000000000e+00 0.0000000000000000e+00 0.0000000000000000e+00 

VECTORS Forces0 double
2.4495148494815763e-01 0.0000000000000000e+00 1.0214987917255952e-02 
7.9258839550830185e-01 0.0000000000000000e+00 -2.4012658599654072e-02 
2.4495148511950066e-01 0.0000000000000000e+00 1.0214987983866036e-02 
7.9258839533682035e-01 0.0000000000000000e+00 -2.4012658554735004e-02 
7.7516863425401239e-01 0.0000000000000000e+00 -1.6469516837707580e-02 
7.7516863357315768e-01 0.0000000000000000e+00 -1.6469517015887628e-02 
7.0697725198852024e-01 0.0000000000000000e+00 -1.7157207672059051e-02 
7.0697725130658629e-01 0.0000000000000000e+00 -1.7157207629533891e-02 
7.2391729711715047e-01 0.0000000000000000e+00 -1.3835127116173140e-02 
7.2391729541374317e-01 0.0000000000000000e+00 -1.3835127182101991e-02 
7.2606855457605279e-01 0.0000000000000000e+00 -9.9916517678324528e-03 
7.2606855372443846e-01 0.0000000000000000e+00 -9.9916516567123831e-03 
8.4728151475318536e-01 0.0000000000000000e+00 -8.7233301220390118e-04 
8.4728151373131311e-01 0.0000000000000000e+00 -8.7233312207899848e-04 
7.6623961353744274e-01 0.0000000000000000e+00 3.2136321309326026e-03 
7.6623961302633270e-01 0.0000000000000000e+00 3.2136321328638125e-03 
7.9639211665400444e-01 0.0000000000000000e+00 3.3810514883348486e-03 
7.9639211682422095e-01 0.0000000000000000e+00 3.3810516473999435e-03 
8.1097671007504213e-01 0.0000000000000000e+00 3.1226722045911998e-03 
8.1097670973338842e-01 0.0000000000000000e+00 3.1226721157157147e-03 
9.7663727269220224e-01 0.0000000000000000e+00 2.9764388738218787e-03 
9.7663727235086328e-01 0.0000000000000000e+00 2.9764388727893357e-03 
9.1402713846599459e-01 0.0000000000000000e+00 2.9866863926086176e-03 
9.1402713795600621e-01 0.0000000000000000e+00 2.9866863938848675e-03 
9.7216468536334055e-01 0.0000000000000000e+00 2.9580575560675063e-03 
9.7216468553262914e-01 0.0000000000000000e+00 2.9580576015627268e-03 
1.0184473135014065e+00 0.0000000000000000e+00 3.0321324540628736e-03 
1.0184473138423233e+00 0.0000000000000000e+00 3.0321324315566952e-03 
1.2770556303378342e+00 0.0000000000000000e+00 4.2107789987245762e-03 
1.2770556299984757e+00 0.0000000000000000e+00 4.2107791989534106e-03 
1.2180735319436538e+00 0.0000000000000000e+00 5.2395336030305710e-03 
1.2180735319431579e+00 0.0000000000000000e+00 5.2395334914580715e-03 
1.2809670999824188e+00 0.0000000000000000e+00 5.6481463753188764e-03 
1.2809671004935075e+00 0.0000000000000000e+00 5.6481464873143795e-03 
1.3341228933394333e+00 0.0000000000000000e+00 7.4169072592911297e-03 
1.3341228935097476e+00 0.0000000000000000e+00 7.4169073477394609e-03 
1.5597139084480482e+00 0.0000000000000000e+00 1.9195381126902386e-03 
1.5597139081072493e+00 0.0000000000000000e+00 1.9195381576442828e-03 
1.4695801383789169e+00 0.0000000000000000e+00 3.3432466616406170e-02 
1.4695801380385130e+00 0.0000000000000000e+00 3.3432466682784052e-02 
2.2230183625057430e-02 0.0000000000000000e+00 2.4524078409953947e+00 
5.0932033356495143e-01 0.0000000000000000e+00 6.0401046328100572e-01 
2.2230183624076107e-02 0.0000000000000000e+00 2.4524078410166608e+00 
5.0932033407672583e-01 0.0000000000000000e+00 6.0401046332547192e-01 
3.2841824935874114e-01 0.0000000000000000e+00 1.0965761865346521e-02 
1.0120665746376742e+00 0.0000000000000000e+00 -2.7968108487456969e-02 
3.2841824935878305e-01 0.0000000000000000e+00 1.0965761821524620e-02 
1.0120665749788456e+00 0.0000000000000000e+00 -2.7968108465697850e-02 
9.9059360043377664e-01 0.0000000000000000e+00 -2.1273869828226308e-02 
9.9059360026381660e-01 0.0000000000000000e+00 -2.1273869872149256e-02 
8.7400093623673647e-01 0.0000000000000000e+00 -2.1362704462179232e-02 
8.7400093640700738e-01 0.0000000000000000e+00 -2.1362704462320727e-02 
8.7155757919987065e-01 0.0000000000000000e+00 -1.6983884427147083e-02 
8.7155757902913478e-01 0.0000000000000000e+00 -1.6983884406198385e-02 
8.5894541690572690e-01 0.0000000000000000e+00 -1.2109980862778509e-02 
8.5894541707599870e-01 0.0000000000000000e+00 -1.2109980906460651e-02 
9.7355392174502720e-01 0.0000000000000000e+00 -1.2346005978058870e-03 
9.7355392157479748e-01 0.0000000000000000e+00 -1.2346005748146169e-03 
8.4482818568126539e-01 0.0000000000000000e+00 3.0609072472973331e-03 
8.4482818687370609e-01 0.0000000000000000e+00 3.0609072464206082e-03 
8.4534785350649833e-01 0.0000000000000000e+00 3.1197296705137868e-03 
8.4534785350650976e-01 0.0000000000000000e+00 3.1197296709054578e-03 
8.2992103233096326e-01 0.0000000000000000e+00 2.7014222468961478e-03 
8.2992103250149574e-01 0.0000000000000000e+00 2.7014222249774548e-03 
9.2643336245417118e-01 0.0000000000000000e+00 2.2496798272379588e-03 
9.2643336262426645e-01 0.0000000000000000e+00 2.2496798268086295e-03 
7.8951299796760221e-01 0.0000000000000000e+00 1.9344690889390884e-03 
7.8951299830792931e-01 0.0000000000000000e+00 1.9344691116954815e-03 
7.7999431014906684e-01 0.0000000000000000e+00 1.8489313677019911e-03 
7.7999431048979939e-01 0.0000000000000000e+00 1.8489313670854266e-03 
7.4919800914060108e-01 0.0000000000000000e+00 1.8310977004116727e-03 
7.4919800931115110e-01 0.0000000000000000e+00 1.8310976781740821e-03 
8.0295836306191382e-01 0.0000000000000000e+00 2.4337895317380156e-03 
8.0295836306244239e-01 0.0000000000000000e+00 2.4337895540808563e-03 
6.5336729032726515e-01 0.0000000000000000e+00 2.8673002663605874e-03 
6.5336729032717167e-01 0.0000000000000000e+00 2.8673002434502536e-03 
6.1188924665730904e-01 0.0000000000000000e+00 2.5087928975661491e-03 
6.1188924648699017e-01 0.0000000000000000e+00 2.5087928977707659e-03 
5.3425193581023156e-01 0.0000000000000000e+00 3.8691867725637167e-03 
5.3425193546941940e-01 0.0000000000000000e+00 3.8691867722811103e-03 
4.4721861560945558e-01 0.0000000000000000e+00 -1.0207922076440685e-02 
4.4721861560968451e-01 0.0000000000000000e+00 -1.0207922076638010e-02 
1.1237892948921116e-01 0.0000000000000000e+00 3.5698734910509795e-02 
1.1237892948921414e-01 0.0000000000000000e+00 3.5698734910546780e-02 
-2.1427534479542671e-02 0.0000000000000000e+00 9.1186889080006472e-01 
-2.1427534138653271e-02 0.0000000000000000e+00 9.1186889077792621e-01 

VECTORS Displacements0 double
6.9356603532943773e-310 0.0000000000000000e+00 0.0000000000000000e+00 
6.5551372011119543e-04 0.0000000000000000e+00 -5.4371650530565569e-04 
0.0000000000000000e+00 0.0000000000000000e+00 0.0000000000000000e+00 
6.5551371967880118e-04 0.0000000000000000e+00 -5.4371650499547553e-04 
1.5789182089991011e-03 0.0000000000000000e+00 -8.6954555564297726e-04 
1.5789182080655009e-03 0.0000000000000000e+00 -8.6954555531002290e-04 
2.6976795608493510e-03 0.0000000000000000e+00 -9.6560409571697537e-04 
2.6976795595821191e-03 0.0000000000000000e+00 -9.6560409567572321e-04 
3.8194011870468568e-03 0.0000000000000000e+00 -8.4623320073547289e-04 
3.8194011858856455e-03 0.0000000000000000e+00 -8.4623320108277180e-04 
4.6414996316443873e-03 0.0000000000000000e+00 -5.3125255172605413e-04 
4.6414996312733291e-03 0.0000000000000000e+00 -5.3125255215701365e-04 
4.9502838971160184e-03 0.0000000000000000e+00 -1.6962237981823732e-04 
4.9502838972227048e-03 0.0000000000000000e+00 -1.6962238000667104e-04 
4.8651410647836115e-03 0.0000000000000000e+00 7.5011772552418092e-05 
4.8651410649401304e-03 0.0000000000000000e+00 7.5011772520963151e-05 
4.6570461311554699e-03 0.0000000000000000e+00 1.6699938010531607e-04 
4.6570461313558227e-03 0.0000000000000000e+00 1.6699938016154385e-04 
4.5007955206268456e-03 0.0000000000000000e+00 1.7874498721260831e-04 
4.5007955206859728e-03 0.0000000000000000e+00 1.7874498739576009e-04 
4.4026106447309843e-03 0.0000000000000000e+00 1.8415850704969812e-04 
4.4026106444817080e-03 0.0000000000000000e+00 1.8415850723259975e-04 
4.3201281853942177e-03 0.0000000000000000e+00 2.0301943485562832e-04 
4.3201281848727208e-03 0.0000000000000000e+00 2.0301943494027491e-04 
4.2525415370405478e-03 0.0000000000000000e+00 2.3016723446760265e-04 
4.2525415364340485e-03 0.0000000000000000e+00 2.3016723442692308e-04 
4.2134987457771644e-03 0.0000000000000000e+00 2.7156979772411017e-04 
4.2134987453192252e-03 0.0000000000000000e+00 2.7156979756019209e-04 
4.1774226742758679e-03 0.0000000000000000e+00 3.3421006428724885e-04 
4.1774226740559266e-03 0.0000000000000000e+00 3.3421006409640780e-04 
4.1114139242321079e-03 0.0000000000000000e+00 4.0546710149614332e-04 
4.1114139242617465e-03 0.0000000000000000e+00 4.0546710133926062e-04 
4.0230433452759272e-03 0.0000000000000000e+00 4.6724949932139259e-04 
4.0230433454930522e-03 0.0000000000000000e+00 4.6724949926476493e-04 
3.9302701452446111e-03 0.0000000000000000e+00 5.1693298999347837e-04 
3.9302701453924616e-03 0.0000000000000000e+00 5.1693299003799170e-04 
3.8218250497038305e-03 0.0000000000000000e+00 5.6079484275130612e-04 
3.8218250497569243e-03 0.0000000000000000e+00 5.6079484286210887e-04 
3.6981894860004718e-03 0.0000000000000000e+00 5.9474187208642031e-04 
3.6981894859011485e-03 0.0000000000000000e+00 5.9474187222001678e-04 
3.5811583114946427e-03 0.0000000000000000e+00 5.2202778406466161e-04 
3.5905297193276615e-03 0.0000000000000000e+00 6.0737710243835834e-04 
3.5811583112010104e-03 0.0000000000000000e+00 5.2202778409899992e-04 
3.5905297190967421e-03 0.0000000000000000e+00 6.0737710254465547e-04 
0.0000000000000000e+00 0.0000000000000000e+00 0.0000000000000000e+00 
6.4998123511112327e-04 0.0000000000000000e+00 5.4128123662138482e-04 
0.0000000000000000e+00 0.0000000000000000e+00 0.0000000000000000e+00 
6.4998123479424080e-04 0.0000000000000000e+00 5.4128123628238343e-04 
1.5769303147117977e-03 0.0000000000000000e+00 8.6430684809804699e-04 
1.5769303138243988e-03 0.0000000000000000e+00 8.6430684774755956e-04 
2.7063200938977996e-03 0.0000000000000000e+00 9.5635812064705597e-04 
2.7063200925059477e-03 0.0000000000000000e+00 9.5635812059042754e-04 
3.8267692529717419e-03 0.0000000000000000e+00 8.3693655303338974e-04 
3.8267692517763817e-03 0.0000000000000000e+00 8.3693655338357641e-04 
4.6385934363749578e-03 0.0000000000000000e+00 5.3253077750616570e-04 
4.6385934360705554e-03 0.0000000000000000e+00 5.3253077796077124e-04 
4.9404259771146019e-03 0.0000000000000000e+00 1.9275185715401561e-04 
4.9404259771773477e-03 0.0000000000000000e+00 1.9275185738175073e-04 
4.8576287479529202e-03 0.0000000000000000e+00 -2.2163797365643186e-05 
4.8576287480429940e-03 0.0000000000000000e+00 -2.2163797277610205e-05 
4.6558208154571078e-03 0.0000000000000000e+00 -7.6674323152151771e-05 
4.6558208156701579e-03 0.0000000000000000e+00 -7.6674323129633949e-05 
4.5008019291300520e-03 0.0000000000000000e+00 -4.1672001038666322e-05 
4.5008019292093696e-03 0.0000000000000000e+00 -4.1672001163068926e-05 
4.4049339954292614e-03 0.0000000000000000e+00 1.0691939177339976e-05 
4.4049339951547726e-03 0.0000000000000000e+00 1.0691938991674993e-05 
4.3300165699041186e-03 0.0000000000000000e+00 6.3078429040551657e-05 
4.3300165694703050e-03 0.0000000000000000e+00 6.3078428909500359e-05 
4.2710433317013291e-03 0.0000000000000000e+00 1.2204724912883566e-04 
4.2710433311786483e-03 0.0000000000000000e+00 1.2204724909186753e-04 
4.2336408297023531e-03 0.0000000000000000e+00 1.7943250419495444e-04 
4.2336408292856812e-03 0.0000000000000000e+00 1.7943250427578252e-04 
4.1950589894333536e-03 0.0000000000000000e+00 2.2258311350876605e-04 
4.1950589892334579e-03 0.0000000000000000e+00 2.2258311364782682e-04 
4.1279564934035102e-03 0.0000000000000000e+00 2.5612326605392349e-04 
4.1279564934395465e-03 0.0000000000000000e+00 2.5612326620093123e-04 
4.0339270807167810e-03 0.0000000000000000e+00 2.8932314754974257e-04 
4.0339270808826605e-03 0.0000000000000000e+00 2.8932314763219588e-04 
3.9294214532746962e-03 0.0000000000000000e+00 3.2061894530059935e-04 
3.9294214534567745e-03 0.0000000000000000e+00 3.2061894528643745e-04 
3.8169964418927225e-03 0.0000000000000000e+00 3.4845730039363438e-04 
3.8169964419740615e-03 0.0000000000000000e+00 3.4845730031379292e-04 
3.6975797701056887e-03 0.0000000000000000e+00 3.7942678190339645e-04 
3.6975797699893417e-03 0.0000000000000000e+00 3.7942678176265752e-04 
3.5821583883193960e-03 0.0000000000000000e+00 4.0197031479236148e-04 
3.5821583878447136e-03 0.0000000000000000e+00 4.0197031456077497e-04 

