# vtk DataFile Version 2.0

ASCII

DATASET UNSTRUCTURED_GRID

POINTS 86 float 

5.0000000000000003e-02  0.0000000000000000e+00  0.0000000000000000e+00
5.0000000000000003e-02  0.0000000000000000e+00  5.0000000000000003e-02
5.0000000000000003e-02  2.9999999999999999e-01  0.0000000000000000e+00
5.0000000000000003e-02  2.9999999999999999e-01  5.0000000000000003e-02
5.0000000000000003e-02  0.0000000000000000e+00  1.0000000000000001e-01
5.0000000000000003e-02  2.9999999999999999e-01  1.0000000000000001e-01
5.0000000000000003e-02  0.0000000000000000e+00  1.4999999999999999e-01
5.0000000000000003e-02  2.9999999999999999e-01  1.4999999999999999e-01
5.0000000000000003e-02  0.0000000000000000e+00  2.0000000000000001e-01
5.0000000000000003e-02  2.9999999999999999e-01  2.0000000000000001e-01
5.0000000000000003e-02  0.0000000000000000e+00  2.5000000000000000e-01
5.0000000000000003e-02  2.9999999999999999e-01  2.5000000000000000e-01
5.0000000000000003e-02  0.0000000000000000e+00  2.9999999999999999e-01
5.0000000000000003e-02  2.9999999999999999e-01  2.9999999999999999e-01
5.0000000000000003e-02  0.0000000000000000e+00  3.4999999999999998e-01
5.0000000000000003e-02  2.9999999999999999e-01  3.4999999999999998e-01
5.0000000000000003e-02  0.0000000000000000e+00  4.0000000000000002e-01
5.0000000000000003e-02  2.9999999999999999e-01  4.0000000000000002e-01
5.0000000000000003e-02  0.0000000000000000e+00  4.5000000000000001e-01
5.0000000000000003e-02  2.9999999999999999e-01  4.5000000000000001e-01
5.0000000000000003e-02  0.0000000000000000e+00  5.0000000000000000e-01
5.0000000000000003e-02  2.9999999999999999e-01  5.0000000000000000e-01
5.0000000000000003e-02  0.0000000000000000e+00  5.5000000000000004e-01
5.0000000000000003e-02  2.9999999999999999e-01  5.5000000000000004e-01
5.0000000000000003e-02  0.0000000000000000e+00  5.9999999999999998e-01
5.0000000000000003e-02  2.9999999999999999e-01  5.9999999999999998e-01
5.0000000000000003e-02  0.0000000000000000e+00  6.5000000000000002e-01
5.0000000000000003e-02  2.9999999999999999e-01  6.5000000000000002e-01
5.0000000000000003e-02  0.0000000000000000e+00  6.9999999999999996e-01
5.0000000000000003e-02  2.9999999999999999e-01  6.9999999999999996e-01
5.0000000000000003e-02  0.0000000000000000e+00  7.5000000000000000e-01
5.0000000000000003e-02  2.9999999999999999e-01  7.5000000000000000e-01
5.0000000000000003e-02  0.0000000000000000e+00  8.0000000000000004e-01
5.0000000000000003e-02  2.9999999999999999e-01  8.0000000000000004e-01
5.0000000000000003e-02  0.0000000000000000e+00  8.4999999999999998e-01
5.0000000000000003e-02  2.9999999999999999e-01  8.4999999999999998e-01
5.0000000000000003e-02  0.0000000000000000e+00  9.0000000000000002e-01
5.0000000000000003e-02  2.9999999999999999e-01  9.0000000000000002e-01
5.0000000000000003e-02  0.0000000000000000e+00  9.4999999999999996e-01
5.0000000000000003e-02  2.9999999999999999e-01  9.4999999999999996e-01
0.0000000000000000e+00  0.0000000000000000e+00  1.0000000000000000e+00
5.0000000000000003e-02  0.0000000000000000e+00  1.0000000000000000e+00
0.0000000000000000e+00  2.9999999999999999e-01  1.0000000000000000e+00
5.0000000000000003e-02  2.9999999999999999e-01  1.0000000000000000e+00
-5.0000000000000003e-02  0.0000000000000000e+00  0.0000000000000000e+00
-5.0000000000000003e-02  0.0000000000000000e+00  5.0000000000000003e-02
-5.0000000000000003e-02  2.9999999999999999e-01  0.0000000000000000e+00
-5.0000000000000003e-02  2.9999999999999999e-01  5.0000000000000003e-02
-5.0000000000000003e-02  0.0000000000000000e+00  1.0000000000000001e-01
-5.0000000000000003e-02  2.9999999999999999e-01  1.0000000000000001e-01
-5.0000000000000003e-02  0.0000000000000000e+00  1.4999999999999999e-01
-5.0000000000000003e-02  2.9999999999999999e-01  1.4999999999999999e-01
-5.0000000000000003e-02  0.0000000000000000e+00  2.0000000000000001e-01
-5.0000000000000003e-02  2.9999999999999999e-01  2.0000000000000001e-01
-5.0000000000000003e-02  0.0000000000000000e+00  2.5000000000000000e-01
-5.0000000000000003e-02  2.9999999999999999e-01  2.5000000000000000e-01
-5.0000000000000003e-02  0.0000000000000000e+00  2.9999999999999999e-01
-5.0000000000000003e-02  2.9999999999999999e-01  2.9999999999999999e-01
-5.0000000000000003e-02  0.0000000000000000e+00  3.4999999999999998e-01
-5.0000000000000003e-02  2.9999999999999999e-01  3.4999999999999998e-01
-5.0000000000000003e-02  0.0000000000000000e+00  4.0000000000000002e-01
-5.0000000000000003e-02  2.9999999999999999e-01  4.0000000000000002e-01
-5.0000000000000003e-02  0.0000000000000000e+00  4.5000000000000001e-01
-5.0000000000000003e-02  2.9999999999999999e-01  4.5000000000000001e-01
-5.0000000000000003e-02  0.0000000000000000e+00  5.0000000000000000e-01
-5.0000000000000003e-02  2.9999999999999999e-01  5.0000000000000000e-01
-5.0000000000000003e-02  0.0000000000000000e+00  5.5000000000000004e-01
-5.0000000000000003e-02  2.9999999999999999e-01  5.5000000000000004e-01
-5.0000000000000003e-02  0.0000000000000000e+00  5.9999999999999998e-01
-5.0000000000000003e-02  2.9999999999999999e-01  5.9999999999999998e-01
-5.0000000000000003e-02  0.0000000000000000e+00  6.5000000000000002e-01
-5.0000000000000003e-02  2.9999999999999999e-01  6.5000000000000002e-01
-5.0000000000000003e-02  0.0000000000000000e+00  6.9999999999999996e-01
-5.0000000000000003e-02  2.9999999999999999e-01  6.9999999999999996e-01
-5.0000000000000003e-02  0.0000000000000000e+00  7.5000000000000000e-01
-5.0000000000000003e-02  2.9999999999999999e-01  7.5000000000000000e-01
-5.0000000000000003e-02  0.0000000000000000e+00  8.0000000000000004e-01
-5.0000000000000003e-02  2.9999999999999999e-01  8.0000000000000004e-01
-5.0000000000000003e-02  0.0000000000000000e+00  8.4999999999999998e-01
-5.0000000000000003e-02  2.9999999999999999e-01  8.4999999999999998e-01
-5.0000000000000003e-02  0.0000000000000000e+00  9.0000000000000002e-01
-5.0000000000000003e-02  2.9999999999999999e-01  9.0000000000000002e-01
-5.0000000000000003e-02  0.0000000000000000e+00  9.4999999999999996e-01
-5.0000000000000003e-02  2.9999999999999999e-01  9.4999999999999996e-01
-5.0000000000000003e-02  0.0000000000000000e+00  1.0000000000000000e+00
-5.0000000000000003e-02  2.9999999999999999e-01  1.0000000000000000e+00

CELLS 0 0


CELL_TYPES 0


POINT_DATA 86

VECTORS VertexNormals float

0.0000000000000000e+00 0.0000000000000000e+00 0.0000000000000000e+00 
0.0000000000000000e+00 0.0000000000000000e+00 0.0000000000000000e+00 
0.0000000000000000e+00 0.0000000000000000e+00 0.0000000000000000e+00 
0.0000000000000000e+00 0.0000000000000000e+00 0.0000000000000000e+00 
0.0000000000000000e+00 0.0000000000000000e+00 0.0000000000000000e+00 
0.0000000000000000e+00 0.0000000000000000e+00 0.0000000000000000e+00 
0.0000000000000000e+00 0.0000000000000000e+00 0.0000000000000000e+00 
0.0000000000000000e+00 0.0000000000000000e+00 0.0000000000000000e+00 
0.0000000000000000e+00 0.0000000000000000e+00 0.0000000000000000e+00 
0.0000000000000000e+00 0.0000000000000000e+00 0.0000000000000000e+00 
0.0000000000000000e+00 0.0000000000000000e+00 0.0000000000000000e+00 
0.0000000000000000e+00 0.0000000000000000e+00 0.0000000000000000e+00 
0.0000000000000000e+00 0.0000000000000000e+00 0.0000000000000000e+00 
0.0000000000000000e+00 0.0000000000000000e+00 0.0000000000000000e+00 
0.0000000000000000e+00 0.0000000000000000e+00 0.0000000000000000e+00 
0.0000000000000000e+00 0.0000000000000000e+00 0.0000000000000000e+00 
0.0000000000000000e+00 0.0000000000000000e+00 0.0000000000000000e+00 
0.0000000000000000e+00 0.0000000000000000e+00 0.0000000000000000e+00 
0.0000000000000000e+00 0.0000000000000000e+00 0.0000000000000000e+00 
0.0000000000000000e+00 0.0000000000000000e+00 0.0000000000000000e+00 
0.0000000000000000e+00 0.0000000000000000e+00 0.0000000000000000e+00 
0.0000000000000000e+00 0.0000000000000000e+00 0.0000000000000000e+00 
0.0000000000000000e+00 0.0000000000000000e+00 0.0000000000000000e+00 
0.0000000000000000e+00 0.0000000000000000e+00 0.0000000000000000e+00 
0.0000000000000000e+00 0.0000000000000000e+00 0.0000000000000000e+00 
0.0000000000000000e+00 0.0000000000000000e+00 0.0000000000000000e+00 
0.0000000000000000e+00 0.0000000000000000e+00 0.0000000000000000e+00 
0.0000000000000000e+00 0.0000000000000000e+00 0.0000000000000000e+00 
0.0000000000000000e+00 0.0000000000000000e+00 0.0000000000000000e+00 
0.0000000000000000e+00 0.0000000000000000e+00 0.0000000000000000e+00 
0.0000000000000000e+00 0.0000000000000000e+00 0.0000000000000000e+00 
0.0000000000000000e+00 0.0000000000000000e+00 0.0000000000000000e+00 
0.0000000000000000e+00 0.0000000000000000e+00 0.0000000000000000e+00 
0.0000000000000000e+00 0.0000000000000000e+00 0.0000000000000000e+00 
0.0000000000000000e+00 0.0000000000000000e+00 0.0000000000000000e+00 
0.0000000000000000e+00 0.0000000000000000e+00 0.0000000000000000e+00 
0.0000000000000000e+00 0.0000000000000000e+00 0.0000000000000000e+00 
0.0000000000000000e+00 0.0000000000000000e+00 0.0000000000000000e+00 
0.0000000000000000e+00 0.0000000000000000e+00 0.0000000000000000e+00 
0.0000000000000000e+00 0.0000000000000000e+00 0.0000000000000000e+00 
0.0000000000000000e+00 0.0000000000000000e+00 0.0000000000000000e+00 
0.0000000000000000e+00 0.0000000000000000e+00 0.0000000000000000e+00 
0.0000000000000000e+00 0.0000000000000000e+00 0.0000000000000000e+00 
0.0000000000000000e+00 0.0000000000000000e+00 0.0000000000000000e+00 
0.0000000000000000e+00 0.0000000000000000e+00 0.0000000000000000e+00 
0.0000000000000000e+00 0.0000000000000000e+00 0.0000000000000000e+00 
0.0000000000000000e+00 0.0000000000000000e+00 0.0000000000000000e+00 
0.0000000000000000e+00 0.0000000000000000e+00 0.0000000000000000e+00 
0.0000000000000000e+00 0.0000000000000000e+00 0.0000000000000000e+00 
0.0000000000000000e+00 0.0000000000000000e+00 0.0000000000000000e+00 
0.0000000000000000e+00 0.0000000000000000e+00 0.0000000000000000e+00 
0.0000000000000000e+00 0.0000000000000000e+00 0.0000000000000000e+00 
0.0000000000000000e+00 0.0000000000000000e+00 0.0000000000000000e+00 
0.0000000000000000e+00 0.0000000000000000e+00 0.0000000000000000e+00 
0.0000000000000000e+00 0.0000000000000000e+00 0.0000000000000000e+00 
0.0000000000000000e+00 0.0000000000000000e+00 0.0000000000000000e+00 
0.0000000000000000e+00 0.0000000000000000e+00 0.0000000000000000e+00 
0.0000000000000000e+00 0.0000000000000000e+00 0.0000000000000000e+00 
0.0000000000000000e+00 0.0000000000000000e+00 0.0000000000000000e+00 
0.0000000000000000e+00 0.0000000000000000e+00 0.0000000000000000e+00 
0.0000000000000000e+00 0.0000000000000000e+00 0.0000000000000000e+00 
0.0000000000000000e+00 0.0000000000000000e+00 0.0000000000000000e+00 
0.0000000000000000e+00 0.0000000000000000e+00 0.0000000000000000e+00 
0.0000000000000000e+00 0.0000000000000000e+00 0.0000000000000000e+00 
0.0000000000000000e+00 0.0000000000000000e+00 0.0000000000000000e+00 
0.0000000000000000e+00 0.0000000000000000e+00 0.0000000000000000e+00 
0.0000000000000000e+00 0.0000000000000000e+00 0.0000000000000000e+00 
0.0000000000000000e+00 0.0000000000000000e+00 0.0000000000000000e+00 
0.0000000000000000e+00 0.0000000000000000e+00 0.0000000000000000e+00 
0.0000000000000000e+00 0.0000000000000000e+00 0.0000000000000000e+00 
0.0000000000000000e+00 0.0000000000000000e+00 0.0000000000000000e+00 
0.0000000000000000e+00 0.0000000000000000e+00 0.0000000000000000e+00 
0.0000000000000000e+00 0.0000000000000000e+00 0.0000000000000000e+00 
0.0000000000000000e+00 0.0000000000000000e+00 0.0000000000000000e+00 
0.0000000000000000e+00 0.0000000000000000e+00 0.0000000000000000e+00 
0.0000000000000000e+00 0.0000000000000000e+00 0.0000000000000000e+00 
0.0000000000000000e+00 0.0000000000000000e+00 0.0000000000000000e+00 
0.0000000000000000e+00 0.0000000000000000e+00 0.0000000000000000e+00 
0.0000000000000000e+00 0.0000000000000000e+00 0.0000000000000000e+00 
0.0000000000000000e+00 0.0000000000000000e+00 0.0000000000000000e+00 
0.0000000000000000e+00 0.0000000000000000e+00 0.0000000000000000e+00 
0.0000000000000000e+00 0.0000000000000000e+00 0.0000000000000000e+00 
0.0000000000000000e+00 0.0000000000000000e+00 0.0000000000000000e+00 
0.0000000000000000e+00 0.0000000000000000e+00 0.0000000000000000e+00 
0.0000000000000000e+00 0.0000000000000000e+00 0.0000000000000000e+00 
0.0000000000000000e+00 0.0000000000000000e+00 0.0000000000000000e+00 

VECTORS Forces0 float
2.6084037358468176e-01 0.0000000000000000e+00 4.8699048642232576e-03 
8.4639659234818543e-01 0.0000000000000000e+00 -2.3761982876117645e-02 
2.6084037375528280e-01 0.0000000000000000e+00 4.8699049192147273e-03 
8.4639659166725278e-01 0.0000000000000000e+00 -2.3761982970884058e-02 
8.2574369744039644e-01 0.0000000000000000e+00 -2.7023861424728929e-02 
8.2574369726993513e-01 0.0000000000000000e+00 -2.7023861411221088e-02 
7.4655411837047947e-01 0.0000000000000000e+00 -2.9211356352183519e-02 
7.4655411888039203e-01 0.0000000000000000e+00 -2.9211356502231299e-02 
7.5954924803620139e-01 0.0000000000000000e+00 -2.9823131729429259e-02 
7.5954924650646116e-01 0.0000000000000000e+00 -2.9823131743279264e-02 
7.5916310120775554e-01 0.0000000000000000e+00 -2.9436583707115840e-02 
7.5916310171756551e-01 0.0000000000000000e+00 -2.9436583611670956e-02 
8.8271931759185496e-01 0.0000000000000000e+00 -3.0305768391003129e-02 
8.8271931776102996e-01 0.0000000000000000e+00 -3.0305768337120530e-02 
7.9348638073046673e-01 0.0000000000000000e+00 -2.0478182570592036e-02 
7.9348638022082585e-01 0.0000000000000000e+00 -2.0478182626581388e-02 
8.1844977660644491e-01 0.0000000000000000e+00 -1.5357668290721943e-02 
8.1844977660580553e-01 0.0000000000000000e+00 -1.5357668291707356e-02 
8.2846008215958977e-01 0.0000000000000000e+00 -9.7691778691957783e-03 
8.2846008181951303e-01 0.0000000000000000e+00 -9.7691778171518553e-03 
9.8342287355859348e-01 0.0000000000000000e+00 -2.0549838701285775e-03 
9.8342287355957725e-01 0.0000000000000000e+00 -2.0549838703866818e-03 
8.9649004383287345e-01 0.0000000000000000e+00 8.2230530927333463e-03 
8.9649004383258057e-01 0.0000000000000000e+00 8.2230530387833074e-03 
9.2711055858366020e-01 0.0000000000000000e+00 1.2034175493795813e-02 
9.2711055790345831e-01 0.0000000000000000e+00 1.2034175560358124e-02 
9.4396567782929119e-01 0.0000000000000000e+00 1.5109073563002820e-02 
9.4396567731941017e-01 0.0000000000000000e+00 1.5109073577796846e-02 
1.1184942156753770e+00 0.0000000000000000e+00 1.3471510547671572e-02 
1.1184942160151041e+00 0.0000000000000000e+00 1.3471510547919813e-02 
9.9867857570265173e-01 0.0000000000000000e+00 6.5418379591401310e-03 
9.9867857536286286e-01 0.0000000000000000e+00 6.5418379997718486e-03 
1.0066461627907244e+00 0.0000000000000000e+00 5.3183648938207075e-03 
1.0066461636404405e+00 0.0000000000000000e+00 5.3183648803256430e-03 
1.0051089071346349e+00 0.0000000000000000e+00 5.2554839119556065e-03 
1.0051089083246574e+00 0.0000000000000000e+00 5.2554837906098988e-03 
1.1181999866550014e+00 0.0000000000000000e+00 2.2857163903811104e-03 
1.1181999861460181e+00 0.0000000000000000e+00 2.2857163626915098e-03 
1.0287725879781064e+00 0.0000000000000000e+00 2.4054282719930160e-02 
1.0287725881468293e+00 0.0000000000000000e+00 2.4054282720137838e-02 
1.1549986965337601e-02 0.0000000000000000e+00 1.6403599559492157e+00 
3.5955406083346114e-01 0.0000000000000000e+00 4.0792166771198890e-01 
1.1549987475158860e-02 0.0000000000000000e+00 1.6403599559623687e+00 
3.5955406083344010e-01 0.0000000000000000e+00 4.0792166773938027e-01 
3.0445745849924766e-01 0.0000000000000000e+00 4.8304261419182225e-03 
9.6157595581513877e-01 0.0000000000000000e+00 -2.7894155310340341e-02 
3.0445745849847494e-01 0.0000000000000000e+00 4.8304261691843112e-03 
9.6157595547463171e-01 0.0000000000000000e+00 -2.7894155337303175e-02 
9.3410557742569278e-01 0.0000000000000000e+00 -3.0129025798190691e-02 
9.3410557776549807e-01 0.0000000000000000e+00 -3.0129025825174252e-02 
8.2496832584402102e-01 0.0000000000000000e+00 -3.2438973778743642e-02 
8.2496832618377569e-01 0.0000000000000000e+00 -3.2438973833699702e-02 
8.2336908719056279e-01 0.0000000000000000e+00 -3.2469308215632681e-02 
8.2336908770012585e-01 0.0000000000000000e+00 -3.2469308175771996e-02 
8.1001690991037045e-01 0.0000000000000000e+00 -3.1546848434181401e-02 
8.1001691025062483e-01 0.0000000000000000e+00 -3.1546848353488241e-02 
9.1271031376711820e-01 0.0000000000000000e+00 -3.1652824007086522e-02 
9.1271031376731593e-01 0.0000000000000000e+00 -3.1652823953804650e-02 
7.8690835393630032e-01 0.0000000000000000e+00 -2.0752100658199726e-02 
7.8690835393631631e-01 0.0000000000000000e+00 -2.0752100631293562e-02 
7.8628806350045788e-01 0.0000000000000000e+00 -1.5345452071336746e-02 
7.8628806299046061e-01 0.0000000000000000e+00 -1.5345452031839485e-02 
7.6881717975674835e-01 0.0000000000000000e+00 -9.5489946586878836e-03 
7.6881718026665036e-01 0.0000000000000000e+00 -9.5489946047641674e-03 
8.5713604338228144e-01 0.0000000000000000e+00 -2.2252881736240311e-03 
8.5713604372293339e-01 0.0000000000000000e+00 -2.2252882010770822e-03 
7.3262946482852698e-01 0.0000000000000000e+00 6.2969110442887511e-03 
7.3262946482857461e-01 0.0000000000000000e+00 6.2969110315197439e-03 
7.2637834071066942e-01 0.0000000000000000e+00 9.0108012111020687e-03 
7.2637834020075920e-01 0.0000000000000000e+00 9.0108012376816458e-03 
6.9964827971459187e-01 0.0000000000000000e+00 1.0991365235878368e-02 
6.9964827988458145e-01 0.0000000000000000e+00 1.0991365235924885e-02 
7.5430683561745016e-01 0.0000000000000000e+00 8.8874816785641832e-03 
7.5430683578744584e-01 0.0000000000000000e+00 8.8874816652509975e-03 
6.1195491545288261e-01 0.0000000000000000e+00 4.1736984241402845e-03 
6.1195491545285330e-01 0.0000000000000000e+00 4.1736984512869904e-03 
5.7113468993940053e-01 0.0000000000000000e+00 3.0386104960220795e-03 
5.7113469010931972e-01 0.0000000000000000e+00 3.0386104959543875e-03 
5.0191770870122043e-01 0.0000000000000000e+00 3.2357253070854275e-03 
5.0191770887109588e-01 0.0000000000000000e+00 3.2357252936850095e-03 
4.3454600495195661e-01 0.0000000000000000e+00 -5.5383841636664670e-03 
4.3454600478212058e-01 0.0000000000000000e+00 -5.5383841640017752e-03 
1.5210331325180731e-01 0.0000000000000000e+00 2.5590364220669595e-02 
1.5210331325165563e-01 0.0000000000000000e+00 2.5590364207319912e-02 
1.6829828089348946e-02 0.0000000000000000e+00 6.1964071518819308e-01 
1.6829828089346573e-02 0.0000000000000000e+00 6.1964071518825647e-01 

VECTORS Displacements0 float
6.9356603532943773e-310 0.0000000000000000e+00 0.0000000000000000e+00 
7.6148636227152053e-04 0.0000000000000000e+00 -7.0609880421062014e-04 
0.0000000000000000e+00 0.0000000000000000e+00 0.0000000000000000e+00 
7.6148636203347960e-04 0.0000000000000000e+00 -7.0609880416144463e-04 
2.1042932700968370e-03 0.0000000000000000e+00 -1.2100245083975190e-03 
2.1042932696934413e-03 0.0000000000000000e+00 -1.2100245084653138e-03 
3.8853598215492888e-03 0.0000000000000000e+00 -1.4666316834428244e-03 
3.8853598211894985e-03 0.0000000000000000e+00 -1.4666316837172756e-03 
5.8592443984944141e-03 0.0000000000000000e+00 -1.5302173373288848e-03 
5.8592443986796913e-03 0.0000000000000000e+00 -1.5302173376961043e-03 
7.8439138517454998e-03 0.0000000000000000e+00 -1.4436771722192514e-03 
7.8439138521751977e-03 0.0000000000000000e+00 -1.4436771725007736e-03 
9.6960845153837173e-03 0.0000000000000000e+00 -1.2341761157412714e-03 
9.6960845159876942e-03 0.0000000000000000e+00 -1.2341761159071279e-03 
1.1294333906130992e-02 0.0000000000000000e+00 -9.0989311316075946e-04 
1.1294333906988431e-02 0.0000000000000000e+00 -9.0989311319502990e-04 
1.2509356312676214e-02 0.0000000000000000e+00 -5.0255791647311478e-04 
1.2509356313543491e-02 0.0000000000000000e+00 -5.0255791627423210e-04 
1.3305943202523476e-02 0.0000000000000000e+00 -6.7089662185845824e-05 
1.3305943202762332e-02 0.0000000000000000e+00 -6.7089661863421960e-05 
1.3706859023777029e-02 0.0000000000000000e+00 3.7521571477173386e-04 
1.3706859023682157e-02 0.0000000000000000e+00 3.7521571494818283e-04 
1.3656157770344443e-02 0.0000000000000000e+00 7.9701917294811172e-04 
1.3656157770331655e-02 0.0000000000000000e+00 7.9701917297686010e-04 
1.3181066187345009e-02 0.0000000000000000e+00 1.1049767477667046e-03 
1.3181066187306918e-02 0.0000000000000000e+00 1.1049767477627093e-03 
1.2498157260024696e-02 0.0000000000000000e+00 1.2130786928400237e-03 
1.2498157259984738e-02 0.0000000000000000e+00 1.2130786927999483e-03 
1.1907702392872831e-02 0.0000000000000000e+00 1.1455660014980204e-03 
1.1907702392852600e-02 0.0000000000000000e+00 1.1455660013909091e-03 
1.1554996618120027e-02 0.0000000000000000e+00 1.0183461725457429e-03 
1.1554996618249384e-02 0.0000000000000000e+00 1.0183461724432583e-03 
1.1405587474656533e-02 0.0000000000000000e+00 9.3651328710749309e-04 
1.1405587474915340e-02 0.0000000000000000e+00 9.3651328709951521e-04 
1.1320883966056235e-02 0.0000000000000000e+00 9.3365677435050922e-04 
1.1320883966136576e-02 0.0000000000000000e+00 9.3365677450539129e-04 
1.1201975923935910e-02 0.0000000000000000e+00 9.7460727633779168e-04 
1.1201975923728846e-02 0.0000000000000000e+00 9.7460727663760481e-04 
1.1041203500321764e-02 0.0000000000000000e+00 1.0084099286653801e-03 
1.1041203499773391e-02 0.0000000000000000e+00 1.0084099290216472e-03 
1.0879727595147447e-02 0.0000000000000000e+00 8.7770616069291776e-04 
1.0876747473999061e-02 0.0000000000000000e+00 1.0208906392193753e-03 
1.0879727594286749e-02 0.0000000000000000e+00 8.7770616078851175e-04 
1.0876747473225956e-02 0.0000000000000000e+00 1.0208906395660815e-03 
0.0000000000000000e+00 0.0000000000000000e+00 0.0000000000000000e+00 
8.8945417056543062e-04 0.0000000000000000e+00 9.0393346637553096e-04 
0.0000000000000000e+00 0.0000000000000000e+00 0.0000000000000000e+00 
8.8945417017869668e-04 0.0000000000000000e+00 9.0393346627602278e-04 
2.2426072310445153e-03 0.0000000000000000e+00 1.5788236482321449e-03 
2.2426072305671346e-03 0.0000000000000000e+00 1.5788236482510323e-03 
4.0363788185363335e-03 0.0000000000000000e+00 1.9815924618333579e-03 
4.0363788183601411e-03 0.0000000000000000e+00 1.9815924620449031e-03 
6.0115018540803098e-03 0.0000000000000000e+00 2.1637504995213530e-03 
6.0115018542572351e-03 0.0000000000000000e+00 2.1637504997926806e-03 
7.9761420088901840e-03 0.0000000000000000e+00 2.1693972997799808e-03 
7.9761420093497123e-03 0.0000000000000000e+00 2.1693973000012239e-03 
9.8059582599388101e-03 0.0000000000000000e+00 2.0324447370988086e-03 
9.8059582606024476e-03 0.0000000000000000e+00 2.0324447372664835e-03 
1.1383146170744152e-02 0.0000000000000000e+00 1.7780643012980833e-03 
1.1383146171509022e-02 0.0000000000000000e+00 1.7780643013516934e-03 
1.2579346542745614e-02 0.0000000000000000e+00 1.4527856524986357e-03 
1.2579346543592881e-02 0.0000000000000000e+00 1.4527856523187043e-03 
1.3359381634901180e-02 0.0000000000000000e+00 1.1090970059928560e-03 
1.3359381635174489e-02 0.0000000000000000e+00 1.1090970057112124e-03 
1.3751655394876485e-02 0.0000000000000000e+00 7.5940718132287254e-04 
1.3751655394731556e-02 0.0000000000000000e+00 7.5940718119248672e-04 
1.3697849717623094e-02 0.0000000000000000e+00 4.2635313063429009e-04 
1.3697849717479662e-02 0.0000000000000000e+00 4.2635313062412141e-04 
1.3220994455771469e-02 0.0000000000000000e+00 1.9832734615356993e-04 
1.3220994455675629e-02 0.0000000000000000e+00 1.9832734611892902e-04 
1.2534529518404886e-02 0.0000000000000000e+00 1.5917678311801826e-04 
1.2534529518321848e-02 0.0000000000000000e+00 1.5917678306018546e-04 
1.1940146288821443e-02 0.0000000000000000e+00 2.8914741829158986e-04 
1.1940146288831848e-02 0.0000000000000000e+00 2.8914741827157689e-04 
1.1583720659274283e-02 0.0000000000000000e+00 4.7722972377692177e-04 
1.1583720659401314e-02 0.0000000000000000e+00 4.7722972376993154e-04 
1.1429023191620155e-02 0.0000000000000000e+00 6.1995805359421163e-04 
1.1429023191848629e-02 0.0000000000000000e+00 6.1995805352836034e-04 
1.1345262626191443e-02 0.0000000000000000e+00 6.8354865576557549e-04 
1.1345262626341585e-02 0.0000000000000000e+00 6.8354865559696948e-04 
1.1226209680983217e-02 0.0000000000000000e+00 6.9517434171174376e-04 
1.1226209680830870e-02 0.0000000000000000e+00 6.9517434147159125e-04 
1.1055307156147085e-02 0.0000000000000000e+00 6.9851187033639819e-04 
1.1055307155579671e-02 0.0000000000000000e+00 6.9851187004814298e-04 
1.0884979453900304e-02 0.0000000000000000e+00 7.1124115338044381e-04 
1.0884979452946251e-02 0.0000000000000000e+00 7.1124115304411237e-04 

