# vtk DataFile Version 2.0

ASCII

DATASET UNSTRUCTURED_GRID

POINTS 86 float 

5.0000000000000003e-02  0.0000000000000000e+00  0.0000000000000000e+00
5.0000000000000003e-02  0.0000000000000000e+00  5.0000000000000003e-02
5.0000000000000003e-02  2.9999999999999999e-01  0.0000000000000000e+00
5.0000000000000003e-02  2.9999999999999999e-01  5.0000000000000003e-02
5.0000000000000003e-02  0.0000000000000000e+00  1.0000000000000001e-01
5.0000000000000003e-02  2.9999999999999999e-01  1.0000000000000001e-01
5.0000000000000003e-02  0.0000000000000000e+00  1.4999999999999999e-01
5.0000000000000003e-02  2.9999999999999999e-01  1.4999999999999999e-01
5.0000000000000003e-02  0.0000000000000000e+00  2.0000000000000001e-01
5.0000000000000003e-02  2.9999999999999999e-01  2.0000000000000001e-01
5.0000000000000003e-02  0.0000000000000000e+00  2.5000000000000000e-01
5.0000000000000003e-02  2.9999999999999999e-01  2.5000000000000000e-01
5.0000000000000003e-02  0.0000000000000000e+00  2.9999999999999999e-01
5.0000000000000003e-02  2.9999999999999999e-01  2.9999999999999999e-01
5.0000000000000003e-02  0.0000000000000000e+00  3.4999999999999998e-01
5.0000000000000003e-02  2.9999999999999999e-01  3.4999999999999998e-01
5.0000000000000003e-02  0.0000000000000000e+00  4.0000000000000002e-01
5.0000000000000003e-02  2.9999999999999999e-01  4.0000000000000002e-01
5.0000000000000003e-02  0.0000000000000000e+00  4.5000000000000001e-01
5.0000000000000003e-02  2.9999999999999999e-01  4.5000000000000001e-01
5.0000000000000003e-02  0.0000000000000000e+00  5.0000000000000000e-01
5.0000000000000003e-02  2.9999999999999999e-01  5.0000000000000000e-01
5.0000000000000003e-02  0.0000000000000000e+00  5.5000000000000004e-01
5.0000000000000003e-02  2.9999999999999999e-01  5.5000000000000004e-01
5.0000000000000003e-02  0.0000000000000000e+00  5.9999999999999998e-01
5.0000000000000003e-02  2.9999999999999999e-01  5.9999999999999998e-01
5.0000000000000003e-02  0.0000000000000000e+00  6.5000000000000002e-01
5.0000000000000003e-02  2.9999999999999999e-01  6.5000000000000002e-01
5.0000000000000003e-02  0.0000000000000000e+00  6.9999999999999996e-01
5.0000000000000003e-02  2.9999999999999999e-01  6.9999999999999996e-01
5.0000000000000003e-02  0.0000000000000000e+00  7.5000000000000000e-01
5.0000000000000003e-02  2.9999999999999999e-01  7.5000000000000000e-01
5.0000000000000003e-02  0.0000000000000000e+00  8.0000000000000004e-01
5.0000000000000003e-02  2.9999999999999999e-01  8.0000000000000004e-01
5.0000000000000003e-02  0.0000000000000000e+00  8.4999999999999998e-01
5.0000000000000003e-02  2.9999999999999999e-01  8.4999999999999998e-01
5.0000000000000003e-02  0.0000000000000000e+00  9.0000000000000002e-01
5.0000000000000003e-02  2.9999999999999999e-01  9.0000000000000002e-01
5.0000000000000003e-02  0.0000000000000000e+00  9.4999999999999996e-01
5.0000000000000003e-02  2.9999999999999999e-01  9.4999999999999996e-01
0.0000000000000000e+00  0.0000000000000000e+00  1.0000000000000000e+00
5.0000000000000003e-02  0.0000000000000000e+00  1.0000000000000000e+00
0.0000000000000000e+00  2.9999999999999999e-01  1.0000000000000000e+00
5.0000000000000003e-02  2.9999999999999999e-01  1.0000000000000000e+00
-5.0000000000000003e-02  0.0000000000000000e+00  0.0000000000000000e+00
-5.0000000000000003e-02  0.0000000000000000e+00  5.0000000000000003e-02
-5.0000000000000003e-02  2.9999999999999999e-01  0.0000000000000000e+00
-5.0000000000000003e-02  2.9999999999999999e-01  5.0000000000000003e-02
-5.0000000000000003e-02  0.0000000000000000e+00  1.0000000000000001e-01
-5.0000000000000003e-02  2.9999999999999999e-01  1.0000000000000001e-01
-5.0000000000000003e-02  0.0000000000000000e+00  1.4999999999999999e-01
-5.0000000000000003e-02  2.9999999999999999e-01  1.4999999999999999e-01
-5.0000000000000003e-02  0.0000000000000000e+00  2.0000000000000001e-01
-5.0000000000000003e-02  2.9999999999999999e-01  2.0000000000000001e-01
-5.0000000000000003e-02  0.0000000000000000e+00  2.5000000000000000e-01
-5.0000000000000003e-02  2.9999999999999999e-01  2.5000000000000000e-01
-5.0000000000000003e-02  0.0000000000000000e+00  2.9999999999999999e-01
-5.0000000000000003e-02  2.9999999999999999e-01  2.9999999999999999e-01
-5.0000000000000003e-02  0.0000000000000000e+00  3.4999999999999998e-01
-5.0000000000000003e-02  2.9999999999999999e-01  3.4999999999999998e-01
-5.0000000000000003e-02  0.0000000000000000e+00  4.0000000000000002e-01
-5.0000000000000003e-02  2.9999999999999999e-01  4.0000000000000002e-01
-5.0000000000000003e-02  0.0000000000000000e+00  4.5000000000000001e-01
-5.0000000000000003e-02  2.9999999999999999e-01  4.5000000000000001e-01
-5.0000000000000003e-02  0.0000000000000000e+00  5.0000000000000000e-01
-5.0000000000000003e-02  2.9999999999999999e-01  5.0000000000000000e-01
-5.0000000000000003e-02  0.0000000000000000e+00  5.5000000000000004e-01
-5.0000000000000003e-02  2.9999999999999999e-01  5.5000000000000004e-01
-5.0000000000000003e-02  0.0000000000000000e+00  5.9999999999999998e-01
-5.0000000000000003e-02  2.9999999999999999e-01  5.9999999999999998e-01
-5.0000000000000003e-02  0.0000000000000000e+00  6.5000000000000002e-01
-5.0000000000000003e-02  2.9999999999999999e-01  6.5000000000000002e-01
-5.0000000000000003e-02  0.0000000000000000e+00  6.9999999999999996e-01
-5.0000000000000003e-02  2.9999999999999999e-01  6.9999999999999996e-01
-5.0000000000000003e-02  0.0000000000000000e+00  7.5000000000000000e-01
-5.0000000000000003e-02  2.9999999999999999e-01  7.5000000000000000e-01
-5.0000000000000003e-02  0.0000000000000000e+00  8.0000000000000004e-01
-5.0000000000000003e-02  2.9999999999999999e-01  8.0000000000000004e-01
-5.0000000000000003e-02  0.0000000000000000e+00  8.4999999999999998e-01
-5.0000000000000003e-02  2.9999999999999999e-01  8.4999999999999998e-01
-5.0000000000000003e-02  0.0000000000000000e+00  9.0000000000000002e-01
-5.0000000000000003e-02  2.9999999999999999e-01  9.0000000000000002e-01
-5.0000000000000003e-02  0.0000000000000000e+00  9.4999999999999996e-01
-5.0000000000000003e-02  2.9999999999999999e-01  9.4999999999999996e-01
-5.0000000000000003e-02  0.0000000000000000e+00  1.0000000000000000e+00
-5.0000000000000003e-02  2.9999999999999999e-01  1.0000000000000000e+00

CELLS 0 0


CELL_TYPES 0


POINT_DATA 86

VECTORS VertexNormals float

0.0000000000000000e+00 0.0000000000000000e+00 0.0000000000000000e+00 
0.0000000000000000e+00 0.0000000000000000e+00 0.0000000000000000e+00 
0.0000000000000000e+00 0.0000000000000000e+00 0.0000000000000000e+00 
0.0000000000000000e+00 0.0000000000000000e+00 0.0000000000000000e+00 
0.0000000000000000e+00 0.0000000000000000e+00 0.0000000000000000e+00 
0.0000000000000000e+00 0.0000000000000000e+00 0.0000000000000000e+00 
0.0000000000000000e+00 0.0000000000000000e+00 0.0000000000000000e+00 
0.0000000000000000e+00 0.0000000000000000e+00 0.0000000000000000e+00 
0.0000000000000000e+00 0.0000000000000000e+00 0.0000000000000000e+00 
0.0000000000000000e+00 0.0000000000000000e+00 0.0000000000000000e+00 
0.0000000000000000e+00 0.0000000000000000e+00 0.0000000000000000e+00 
0.0000000000000000e+00 0.0000000000000000e+00 0.0000000000000000e+00 
0.0000000000000000e+00 0.0000000000000000e+00 0.0000000000000000e+00 
0.0000000000000000e+00 0.0000000000000000e+00 0.0000000000000000e+00 
0.0000000000000000e+00 0.0000000000000000e+00 0.0000000000000000e+00 
0.0000000000000000e+00 0.0000000000000000e+00 0.0000000000000000e+00 
0.0000000000000000e+00 0.0000000000000000e+00 0.0000000000000000e+00 
0.0000000000000000e+00 0.0000000000000000e+00 0.0000000000000000e+00 
0.0000000000000000e+00 0.0000000000000000e+00 0.0000000000000000e+00 
0.0000000000000000e+00 0.0000000000000000e+00 0.0000000000000000e+00 
0.0000000000000000e+00 0.0000000000000000e+00 0.0000000000000000e+00 
0.0000000000000000e+00 0.0000000000000000e+00 0.0000000000000000e+00 
0.0000000000000000e+00 0.0000000000000000e+00 0.0000000000000000e+00 
0.0000000000000000e+00 0.0000000000000000e+00 0.0000000000000000e+00 
0.0000000000000000e+00 0.0000000000000000e+00 0.0000000000000000e+00 
0.0000000000000000e+00 0.0000000000000000e+00 0.0000000000000000e+00 
0.0000000000000000e+00 0.0000000000000000e+00 0.0000000000000000e+00 
0.0000000000000000e+00 0.0000000000000000e+00 0.0000000000000000e+00 
0.0000000000000000e+00 0.0000000000000000e+00 0.0000000000000000e+00 
0.0000000000000000e+00 0.0000000000000000e+00 0.0000000000000000e+00 
0.0000000000000000e+00 0.0000000000000000e+00 0.0000000000000000e+00 
0.0000000000000000e+00 0.0000000000000000e+00 0.0000000000000000e+00 
0.0000000000000000e+00 0.0000000000000000e+00 0.0000000000000000e+00 
0.0000000000000000e+00 0.0000000000000000e+00 0.0000000000000000e+00 
0.0000000000000000e+00 0.0000000000000000e+00 0.0000000000000000e+00 
0.0000000000000000e+00 0.0000000000000000e+00 0.0000000000000000e+00 
0.0000000000000000e+00 0.0000000000000000e+00 0.0000000000000000e+00 
0.0000000000000000e+00 0.0000000000000000e+00 0.0000000000000000e+00 
0.0000000000000000e+00 0.0000000000000000e+00 0.0000000000000000e+00 
0.0000000000000000e+00 0.0000000000000000e+00 0.0000000000000000e+00 
0.0000000000000000e+00 0.0000000000000000e+00 0.0000000000000000e+00 
0.0000000000000000e+00 0.0000000000000000e+00 0.0000000000000000e+00 
0.0000000000000000e+00 0.0000000000000000e+00 0.0000000000000000e+00 
0.0000000000000000e+00 0.0000000000000000e+00 0.0000000000000000e+00 
0.0000000000000000e+00 0.0000000000000000e+00 0.0000000000000000e+00 
0.0000000000000000e+00 0.0000000000000000e+00 0.0000000000000000e+00 
0.0000000000000000e+00 0.0000000000000000e+00 0.0000000000000000e+00 
0.0000000000000000e+00 0.0000000000000000e+00 0.0000000000000000e+00 
0.0000000000000000e+00 0.0000000000000000e+00 0.0000000000000000e+00 
0.0000000000000000e+00 0.0000000000000000e+00 0.0000000000000000e+00 
0.0000000000000000e+00 0.0000000000000000e+00 0.0000000000000000e+00 
0.0000000000000000e+00 0.0000000000000000e+00 0.0000000000000000e+00 
0.0000000000000000e+00 0.0000000000000000e+00 0.0000000000000000e+00 
0.0000000000000000e+00 0.0000000000000000e+00 0.0000000000000000e+00 
0.0000000000000000e+00 0.0000000000000000e+00 0.0000000000000000e+00 
0.0000000000000000e+00 0.0000000000000000e+00 0.0000000000000000e+00 
0.0000000000000000e+00 0.0000000000000000e+00 0.0000000000000000e+00 
0.0000000000000000e+00 0.0000000000000000e+00 0.0000000000000000e+00 
0.0000000000000000e+00 0.0000000000000000e+00 0.0000000000000000e+00 
0.0000000000000000e+00 0.0000000000000000e+00 0.0000000000000000e+00 
0.0000000000000000e+00 0.0000000000000000e+00 0.0000000000000000e+00 
0.0000000000000000e+00 0.0000000000000000e+00 0.0000000000000000e+00 
0.0000000000000000e+00 0.0000000000000000e+00 0.0000000000000000e+00 
0.0000000000000000e+00 0.0000000000000000e+00 0.0000000000000000e+00 
0.0000000000000000e+00 0.0000000000000000e+00 0.0000000000000000e+00 
0.0000000000000000e+00 0.0000000000000000e+00 0.0000000000000000e+00 
0.0000000000000000e+00 0.0000000000000000e+00 0.0000000000000000e+00 
0.0000000000000000e+00 0.0000000000000000e+00 0.0000000000000000e+00 
0.0000000000000000e+00 0.0000000000000000e+00 0.0000000000000000e+00 
0.0000000000000000e+00 0.0000000000000000e+00 0.0000000000000000e+00 
0.0000000000000000e+00 0.0000000000000000e+00 0.0000000000000000e+00 
0.0000000000000000e+00 0.0000000000000000e+00 0.0000000000000000e+00 
0.0000000000000000e+00 0.0000000000000000e+00 0.0000000000000000e+00 
0.0000000000000000e+00 0.0000000000000000e+00 0.0000000000000000e+00 
0.0000000000000000e+00 0.0000000000000000e+00 0.0000000000000000e+00 
0.0000000000000000e+00 0.0000000000000000e+00 0.0000000000000000e+00 
0.0000000000000000e+00 0.0000000000000000e+00 0.0000000000000000e+00 
0.0000000000000000e+00 0.0000000000000000e+00 0.0000000000000000e+00 
0.0000000000000000e+00 0.0000000000000000e+00 0.0000000000000000e+00 
0.0000000000000000e+00 0.0000000000000000e+00 0.0000000000000000e+00 
0.0000000000000000e+00 0.0000000000000000e+00 0.0000000000000000e+00 
0.0000000000000000e+00 0.0000000000000000e+00 0.0000000000000000e+00 
0.0000000000000000e+00 0.0000000000000000e+00 0.0000000000000000e+00 
0.0000000000000000e+00 0.0000000000000000e+00 0.0000000000000000e+00 
0.0000000000000000e+00 0.0000000000000000e+00 0.0000000000000000e+00 
0.0000000000000000e+00 0.0000000000000000e+00 0.0000000000000000e+00 

VECTORS Forces0 float
2.0119809615002238e-01 0.0000000000000000e+00 1.7840874950568086e-02 
6.4475986625917769e-01 0.0000000000000000e+00 -2.7040959668276847e-02 
2.0119809706634084e-01 0.0000000000000000e+00 1.7840875120294912e-02 
6.4475986644243100e-01 0.0000000000000000e+00 -2.7040959804206691e-02 
6.3120590239282837e-01 0.0000000000000000e+00 -6.4130287193029933e-03 
6.3120590184428371e-01 0.0000000000000000e+00 -6.4130283408268748e-03 
5.7853757992044974e-01 0.0000000000000000e+00 -3.2308692250353774e-03 
5.7853758010350798e-01 0.0000000000000000e+00 -3.2308691199361616e-03 
5.9731950844682169e-01 0.0000000000000000e+00 -1.5749040584078604e-03 
5.9731950844651571e-01 0.0000000000000000e+00 -1.5749039894963990e-03 
6.0015439033243656e-01 0.0000000000000000e+00 -4.0424076550834426e-04 
6.0015439161511019e-01 0.0000000000000000e+00 -4.0424086846933989e-04 
7.0938781526259431e-01 0.0000000000000000e+00 -2.6691616117605033e-05 
7.0938781709365861e-01 0.0000000000000000e+00 -2.6691649807502747e-05 
6.5748613842295733e-01 0.0000000000000000e+00 1.5248868429139232e-04 
6.5748613823904845e-01 0.0000000000000000e+00 1.5248871977065778e-04 
6.9512193446271509e-01 0.0000000000000000e+00 4.1591629532106026e-04 
6.9512193611067541e-01 0.0000000000000000e+00 4.1591629639723760e-04 
7.1642644631496510e-01 0.0000000000000000e+00 6.2161112599600247e-04 
7.1642644668141431e-01 0.0000000000000000e+00 6.2161112673861038e-04 
8.7569458038705572e-01 0.0000000000000000e+00 1.1556719770318105e-03 
8.7569458020350388e-01 0.0000000000000000e+00 1.1556720133478397e-03 
8.3781990216243230e-01 0.0000000000000000e+00 1.7124914051834716e-03 
8.3781990124672212e-01 0.0000000000000000e+00 1.7124915785875240e-03 
9.1154838441894448e-01 0.0000000000000000e+00 2.1196152423891435e-03 
9.1154838496626434e-01 0.0000000000000000e+00 2.1196152434560314e-03 
9.7554260867038411e-01 0.0000000000000000e+00 2.6188383703757605e-03 
9.7554260775520540e-01 0.0000000000000000e+00 2.6188383368316442e-03 
1.2829699519791369e+00 0.0000000000000000e+00 3.6999728575813694e-03 
1.2829699523447158e+00 0.0000000000000000e+00 3.6999727565243468e-03 
1.3216672003912953e+00 0.0000000000000000e+00 4.4646350818502954e-03 
1.3216671998434122e+00 0.0000000000000000e+00 4.4646352544562527e-03 
1.4711591806175401e+00 0.0000000000000000e+00 4.6005703983234897e-03 
1.4711591809831559e+00 0.0000000000000000e+00 4.6005703628571488e-03 
1.6171336914052439e+00 0.0000000000000000e+00 6.8969719396747182e-03 
1.6171336925031283e+00 0.0000000000000000e+00 6.8969719744643512e-03 
2.0152686693513839e+00 0.0000000000000000e+00 -3.8536206890132487e-03 
2.0152686691681736e+00 0.0000000000000000e+00 -3.8536207235768177e-03 
2.1102233829002328e+00 0.0000000000000000e+00 4.7448149174473903e-02 
2.1102233829002910e+00 0.0000000000000000e+00 4.7448149104881029e-02 
3.6036868936687977e-02 0.0000000000000000e+00 3.6449060703853404e+00 
7.2854101010697503e-01 0.0000000000000000e+00 9.6506692516135473e-01 
3.6036868570121394e-02 0.0000000000000000e+00 3.6449060703856233e+00 
7.2854101010721095e-01 0.0000000000000000e+00 9.6506692522995430e-01 
3.4118506326190418e-01 0.0000000000000000e+00 1.7864978041352328e-02 
1.0130521704487769e+00 0.0000000000000000e+00 -3.2510263008506277e-02 
3.4118506362632395e-01 0.0000000000000000e+00 1.7864977972829633e-02 
1.0130521713648339e+00 0.0000000000000000e+00 -3.2510262972777343e-02 
9.9886292988103542e-01 0.0000000000000000e+00 -1.0219842261498644e-02 
9.9886293006518956e-01 0.0000000000000000e+00 -1.0219842295928724e-02 
8.8131915978282116e-01 0.0000000000000000e+00 -4.2177510079448328e-03 
8.8131916051586767e-01 0.0000000000000000e+00 -4.2177511101692752e-03 
8.8050404650709557e-01 0.0000000000000000e+00 -1.9301503721867257e-03 
8.8050404650869118e-01 0.0000000000000000e+00 -1.9301503047415348e-03 
8.7248614909027622e-01 0.0000000000000000e+00 -2.3248789318095094e-04 
8.7248614872401520e-01 0.0000000000000000e+00 -2.3248785975796011e-04 
9.9090469033843998e-01 0.0000000000000000e+00 3.0555665188086549e-04 
9.9090469052073460e-01 0.0000000000000000e+00 3.0555665046004283e-04 
8.5466722817376262e-01 0.0000000000000000e+00 3.4030883402918176e-04 
8.5466722817327978e-01 0.0000000000000000e+00 3.4030900543484378e-04 
8.5253446852493664e-01 0.0000000000000000e+00 6.1072057614841439e-04 
8.5253446834139945e-01 0.0000000000000000e+00 6.1072061083794883e-04 
8.3721127708727716e-01 0.0000000000000000e+00 8.2050903244245419e-04 
8.3721127690474273e-01 0.0000000000000000e+00 8.2050903144293514e-04 
9.3594150084420624e-01 0.0000000000000000e+00 1.3664908804012228e-03 
9.3594150066113047e-01 0.0000000000000000e+00 1.3664907772567099e-03 
7.9589598942963802e-01 0.0000000000000000e+00 1.5653178176601380e-03 
7.9589598942956075e-01 0.0000000000000000e+00 1.5653177149650486e-03 
7.8513885431159103e-01 0.0000000000000000e+00 1.8071530007358913e-03 
7.8513885412800422e-01 0.0000000000000000e+00 1.8071530346142751e-03 
7.5467623727874222e-01 0.0000000000000000e+00 2.1150828373255087e-03 
7.5467623727876121e-01 0.0000000000000000e+00 2.1150828376850206e-03 
8.0608265116702393e-01 0.0000000000000000e+00 2.5581145412521601e-03 
8.0608265080106489e-01 0.0000000000000000e+00 2.5581145756054316e-03 
6.5089818023265777e-01 0.0000000000000000e+00 2.5988943036440670e-03 
6.5089818041515135e-01 0.0000000000000000e+00 2.5988943037946262e-03 
6.0672904704404662e-01 0.0000000000000000e+00 2.0505574919478533e-03 
6.0672904704412145e-01 0.0000000000000000e+00 2.0505574576689901e-03 
5.1989141668805017e-01 0.0000000000000000e+00 3.9850648980336431e-03 
5.1989141668815209e-01 0.0000000000000000e+00 3.9850648979810558e-03 
4.0362036386338263e-01 0.0000000000000000e+00 -1.4770842540585196e-02 
4.0362036386337480e-01 0.0000000000000000e+00 -1.4770842506592210e-02 
1.9617748536083675e-02 0.0000000000000000e+00 4.9368654785382070e-02 
1.9617748536023945e-02 0.0000000000000000e+00 4.9368654785426250e-02 
-9.1386266399183194e-02 0.0000000000000000e+00 1.2591225133242574e+00 
-9.1386266582229758e-02 0.0000000000000000e+00 1.2591225133242547e+00 

VECTORS Displacements0 float
6.9356603532943773e-310 0.0000000000000000e+00 0.0000000000000000e+00 
6.4159511183143041e-04 0.0000000000000000e+00 -3.3746580562128985e-04 
0.0000000000000000e+00 0.0000000000000000e+00 0.0000000000000000e+00 
6.4159511204473570e-04 0.0000000000000000e+00 -3.3746580587804448e-04 
1.2440005119595302e-03 0.0000000000000000e+00 -3.4979810475811133e-04 
1.2440005127897697e-03 0.0000000000000000e+00 -3.4979810501288691e-04 
1.5761196940605393e-03 0.0000000000000000e+00 -1.9743496500960062e-04 
1.5761196955401326e-03 0.0000000000000000e+00 -1.9743496502562519e-04 
1.6574324989858625e-03 0.0000000000000000e+00 -6.6423774806976645e-05 
1.6574324997666813e-03 0.0000000000000000e+00 -6.6423774609005110e-05 
1.6477021057664481e-03 0.0000000000000000e+00 -1.7307702275400179e-06 
1.6477021063037347e-03 0.0000000000000000e+00 -1.7307699182919042e-06 
1.6151693402533128e-03 0.0000000000000000e+00 2.1932458398867316e-05 
1.6151693404027135e-03 0.0000000000000000e+00 2.1932458740894205e-05 
1.5879745859806939e-03 0.0000000000000000e+00 2.9198750216952960e-05 
1.5879745857993392e-03 0.0000000000000000e+00 2.9198750410894536e-05 
1.5589231324475152e-03 0.0000000000000000e+00 3.0590762718382589e-05 
1.5589231323402447e-03 0.0000000000000000e+00 3.0590762691394866e-05 
1.5379677015150907e-03 0.0000000000000000e+00 3.2545045472579716e-05 
1.5379677016481839e-03 0.0000000000000000e+00 3.2545045323548572e-05 
1.5127763905055764e-03 0.0000000000000000e+00 3.8726050032517309e-05 
1.5127763906632840e-03 0.0000000000000000e+00 3.8726049865443400e-05 
1.4832284561381202e-03 0.0000000000000000e+00 4.6544168558625831e-05 
1.4832284566415124e-03 0.0000000000000000e+00 4.6544168479924328e-05 
1.4445323509608488e-03 0.0000000000000000e+00 5.2684510515733216e-05 
1.4445323513634367e-03 0.0000000000000000e+00 5.2684510572002339e-05 
1.4099867198594622e-03 0.0000000000000000e+00 5.9358885969751627e-05 
1.4099867202930591e-03 0.0000000000000000e+00 5.9358886115183322e-05 
1.3745005612594034e-03 0.0000000000000000e+00 7.0357141994771848e-05 
1.3745005614818030e-03 0.0000000000000000e+00 7.0357142187737134e-05 
1.3325493604870744e-03 0.0000000000000000e+00 8.4558997292109598e-05 
1.3325493604789691e-03 0.0000000000000000e+00 8.4558997428394922e-05 
1.2859190856190097e-03 0.0000000000000000e+00 1.0155752965787274e-04 
1.2859190855221757e-03 0.0000000000000000e+00 1.0155752971089638e-04 
1.2455637419239416e-03 0.0000000000000000e+00 1.2883661502578647e-04 
1.2455637417054192e-03 0.0000000000000000e+00 1.2883661498612074e-04 
1.1984084652923940e-03 0.0000000000000000e+00 1.7382976949924085e-04 
1.1984084650442802e-03 0.0000000000000000e+00 1.7382976937762969e-04 
1.1228046551783543e-03 0.0000000000000000e+00 2.2789782900430218e-04 
1.1228046553330734e-03 0.0000000000000000e+00 2.2789782889011458e-04 
1.0198725907527764e-03 0.0000000000000000e+00 2.0577387015782521e-04 
1.0291640323643499e-03 0.0000000000000000e+00 2.5978281245398491e-04 
1.0198725908347943e-03 0.0000000000000000e+00 2.0577387019216474e-04 
1.0291640326173068e-03 0.0000000000000000e+00 2.5978281231140430e-04 
0.0000000000000000e+00 0.0000000000000000e+00 0.0000000000000000e+00 
6.1684177155741553e-04 0.0000000000000000e+00 3.2799848355763390e-04 
0.0000000000000000e+00 0.0000000000000000e+00 0.0000000000000000e+00 
6.1684177201081945e-04 0.0000000000000000e+00 3.2799848378729514e-04 
1.2175835829632640e-03 0.0000000000000000e+00 3.3871575161454210e-04 
1.2175835840085145e-03 0.0000000000000000e+00 3.3871575180591837e-04 
1.5546096431633114e-03 0.0000000000000000e+00 1.8771563781846233e-04 
1.5546096443294609e-03 0.0000000000000000e+00 1.8771563774314600e-04 
1.6354350438368324e-03 0.0000000000000000e+00 6.0992069370046804e-05 
1.6354350445628189e-03 0.0000000000000000e+00 6.0992069078625159e-05 
1.6236444580009866e-03 0.0000000000000000e+00 5.8207323404814133e-07 
1.6236444585543974e-03 0.0000000000000000e+00 5.8207286477791965e-07 
1.5852833592174295e-03 0.0000000000000000e+00 -1.9669162433917172e-05 
1.5852833593089221e-03 0.0000000000000000e+00 -1.9669162765855411e-05 
1.5623680787479237e-03 0.0000000000000000e+00 -2.4016071359016737e-05 
1.5623680784693005e-03 0.0000000000000000e+00 -2.4016071469141696e-05 
1.5343052705512146e-03 0.0000000000000000e+00 -2.2505501741879142e-05 
1.5343052703609315e-03 0.0000000000000000e+00 -2.2505501593742316e-05 
1.5115380229102796e-03 0.0000000000000000e+00 -2.1348817347362700e-05 
1.5115380229678099e-03 0.0000000000000000e+00 -2.1348817079593105e-05 
1.4798581721380823e-03 0.0000000000000000e+00 -2.3894808675802427e-05 
1.4798581723963965e-03 0.0000000000000000e+00 -2.3894808414892888e-05 
1.4551126244228758e-03 0.0000000000000000e+00 -2.6862179932878870e-05 
1.4551126250295916e-03 0.0000000000000000e+00 -2.6862179787895964e-05 
1.4178434907041911e-03 0.0000000000000000e+00 -2.6016992640391724e-05 
1.4178434913126982e-03 0.0000000000000000e+00 -2.6016992668678684e-05 
1.3820214356945683e-03 0.0000000000000000e+00 -2.2766174548426184e-05 
1.3820214360961056e-03 0.0000000000000000e+00 -2.2766174710728810e-05 
1.3386595897913515e-03 0.0000000000000000e+00 -1.9526938549316918e-05 
1.3386595899945262e-03 0.0000000000000000e+00 -1.9526938759847224e-05 
1.3030692947592058e-03 0.0000000000000000e+00 -1.2773852888250850e-05 
1.3030692947679848e-03 0.0000000000000000e+00 -1.2773853080054120e-05 
1.2602523597898285e-03 0.0000000000000000e+00 1.2080745281618767e-06 
1.2602523596028465e-03 0.0000000000000000e+00 1.2080744210393076e-06 
1.2219613051027774e-03 0.0000000000000000e+00 1.8882820971220103e-05 
1.2219613048873937e-03 0.0000000000000000e+00 1.8882820990844860e-05 
1.1716680101864164e-03 0.0000000000000000e+00 3.6355591387644367e-05 
1.1716680101126972e-03 0.0000000000000000e+00 3.6355591514131940e-05 
1.1049644914966988e-03 0.0000000000000000e+00 6.1985047905565945e-05 
1.1049644915817223e-03 0.0000000000000000e+00 6.1985048028507370e-05 
1.0093019403111555e-03 0.0000000000000000e+00 8.6131122531536843e-05 
1.0093019402961877e-03 0.0000000000000000e+00 8.6131122601909411e-05 

