# vtk DataFile Version 2.0

ASCII

DATASET UNSTRUCTURED_GRID

POINTS 86 double 

5.0000000000000003e-02  0.0000000000000000e+00  0.0000000000000000e+00
5.0000000000000003e-02  0.0000000000000000e+00  5.0000000000000003e-02
5.0000000000000003e-02  2.9999999999999999e-01  0.0000000000000000e+00
5.0000000000000003e-02  2.9999999999999999e-01  5.0000000000000003e-02
5.0000000000000003e-02  0.0000000000000000e+00  1.0000000000000001e-01
5.0000000000000003e-02  2.9999999999999999e-01  1.0000000000000001e-01
5.0000000000000003e-02  0.0000000000000000e+00  1.4999999999999999e-01
5.0000000000000003e-02  2.9999999999999999e-01  1.4999999999999999e-01
5.0000000000000003e-02  0.0000000000000000e+00  2.0000000000000001e-01
5.0000000000000003e-02  2.9999999999999999e-01  2.0000000000000001e-01
5.0000000000000003e-02  0.0000000000000000e+00  2.5000000000000000e-01
5.0000000000000003e-02  2.9999999999999999e-01  2.5000000000000000e-01
5.0000000000000003e-02  0.0000000000000000e+00  2.9999999999999999e-01
5.0000000000000003e-02  2.9999999999999999e-01  2.9999999999999999e-01
5.0000000000000003e-02  0.0000000000000000e+00  3.4999999999999998e-01
5.0000000000000003e-02  2.9999999999999999e-01  3.4999999999999998e-01
5.0000000000000003e-02  0.0000000000000000e+00  4.0000000000000002e-01
5.0000000000000003e-02  2.9999999999999999e-01  4.0000000000000002e-01
5.0000000000000003e-02  0.0000000000000000e+00  4.5000000000000001e-01
5.0000000000000003e-02  2.9999999999999999e-01  4.5000000000000001e-01
5.0000000000000003e-02  0.0000000000000000e+00  5.0000000000000000e-01
5.0000000000000003e-02  2.9999999999999999e-01  5.0000000000000000e-01
5.0000000000000003e-02  0.0000000000000000e+00  5.5000000000000004e-01
5.0000000000000003e-02  2.9999999999999999e-01  5.5000000000000004e-01
5.0000000000000003e-02  0.0000000000000000e+00  5.9999999999999998e-01
5.0000000000000003e-02  2.9999999999999999e-01  5.9999999999999998e-01
5.0000000000000003e-02  0.0000000000000000e+00  6.5000000000000002e-01
5.0000000000000003e-02  2.9999999999999999e-01  6.5000000000000002e-01
5.0000000000000003e-02  0.0000000000000000e+00  6.9999999999999996e-01
5.0000000000000003e-02  2.9999999999999999e-01  6.9999999999999996e-01
5.0000000000000003e-02  0.0000000000000000e+00  7.5000000000000000e-01
5.0000000000000003e-02  2.9999999999999999e-01  7.5000000000000000e-01
5.0000000000000003e-02  0.0000000000000000e+00  8.0000000000000004e-01
5.0000000000000003e-02  2.9999999999999999e-01  8.0000000000000004e-01
5.0000000000000003e-02  0.0000000000000000e+00  8.4999999999999998e-01
5.0000000000000003e-02  2.9999999999999999e-01  8.4999999999999998e-01
5.0000000000000003e-02  0.0000000000000000e+00  9.0000000000000002e-01
5.0000000000000003e-02  2.9999999999999999e-01  9.0000000000000002e-01
5.0000000000000003e-02  0.0000000000000000e+00  9.4999999999999996e-01
5.0000000000000003e-02  2.9999999999999999e-01  9.4999999999999996e-01
0.0000000000000000e+00  0.0000000000000000e+00  1.0000000000000000e+00
5.0000000000000003e-02  0.0000000000000000e+00  1.0000000000000000e+00
0.0000000000000000e+00  2.9999999999999999e-01  1.0000000000000000e+00
5.0000000000000003e-02  2.9999999999999999e-01  1.0000000000000000e+00
-5.0000000000000003e-02  0.0000000000000000e+00  0.0000000000000000e+00
-5.0000000000000003e-02  0.0000000000000000e+00  5.0000000000000003e-02
-5.0000000000000003e-02  2.9999999999999999e-01  0.0000000000000000e+00
-5.0000000000000003e-02  2.9999999999999999e-01  5.0000000000000003e-02
-5.0000000000000003e-02  0.0000000000000000e+00  1.0000000000000001e-01
-5.0000000000000003e-02  2.9999999999999999e-01  1.0000000000000001e-01
-5.0000000000000003e-02  0.0000000000000000e+00  1.4999999999999999e-01
-5.0000000000000003e-02  2.9999999999999999e-01  1.4999999999999999e-01
-5.0000000000000003e-02  0.0000000000000000e+00  2.0000000000000001e-01
-5.0000000000000003e-02  2.9999999999999999e-01  2.0000000000000001e-01
-5.0000000000000003e-02  0.0000000000000000e+00  2.5000000000000000e-01
-5.0000000000000003e-02  2.9999999999999999e-01  2.5000000000000000e-01
-5.0000000000000003e-02  0.0000000000000000e+00  2.9999999999999999e-01
-5.0000000000000003e-02  2.9999999999999999e-01  2.9999999999999999e-01
-5.0000000000000003e-02  0.0000000000000000e+00  3.4999999999999998e-01
-5.0000000000000003e-02  2.9999999999999999e-01  3.4999999999999998e-01
-5.0000000000000003e-02  0.0000000000000000e+00  4.0000000000000002e-01
-5.0000000000000003e-02  2.9999999999999999e-01  4.0000000000000002e-01
-5.0000000000000003e-02  0.0000000000000000e+00  4.5000000000000001e-01
-5.0000000000000003e-02  2.9999999999999999e-01  4.5000000000000001e-01
-5.0000000000000003e-02  0.0000000000000000e+00  5.0000000000000000e-01
-5.0000000000000003e-02  2.9999999999999999e-01  5.0000000000000000e-01
-5.0000000000000003e-02  0.0000000000000000e+00  5.5000000000000004e-01
-5.0000000000000003e-02  2.9999999999999999e-01  5.5000000000000004e-01
-5.0000000000000003e-02  0.0000000000000000e+00  5.9999999999999998e-01
-5.0000000000000003e-02  2.9999999999999999e-01  5.9999999999999998e-01
-5.0000000000000003e-02  0.0000000000000000e+00  6.5000000000000002e-01
-5.0000000000000003e-02  2.9999999999999999e-01  6.5000000000000002e-01
-5.0000000000000003e-02  0.0000000000000000e+00  6.9999999999999996e-01
-5.0000000000000003e-02  2.9999999999999999e-01  6.9999999999999996e-01
-5.0000000000000003e-02  0.0000000000000000e+00  7.5000000000000000e-01
-5.0000000000000003e-02  2.9999999999999999e-01  7.5000000000000000e-01
-5.0000000000000003e-02  0.0000000000000000e+00  8.0000000000000004e-01
-5.0000000000000003e-02  2.9999999999999999e-01  8.0000000000000004e-01
-5.0000000000000003e-02  0.0000000000000000e+00  8.4999999999999998e-01
-5.0000000000000003e-02  2.9999999999999999e-01  8.4999999999999998e-01
-5.0000000000000003e-02  0.0000000000000000e+00  9.0000000000000002e-01
-5.0000000000000003e-02  2.9999999999999999e-01  9.0000000000000002e-01
-5.0000000000000003e-02  0.0000000000000000e+00  9.4999999999999996e-01
-5.0000000000000003e-02  2.9999999999999999e-01  9.4999999999999996e-01
-5.0000000000000003e-02  0.0000000000000000e+00  1.0000000000000000e+00
-5.0000000000000003e-02  2.9999999999999999e-01  1.0000000000000000e+00

CELLS 0 0


CELL_TYPES 0


POINT_DATA 86

VECTORS VertexNormals double

0.0000000000000000e+00 0.0000000000000000e+00 0.0000000000000000e+00 
0.0000000000000000e+00 0.0000000000000000e+00 0.0000000000000000e+00 
0.0000000000000000e+00 0.0000000000000000e+00 0.0000000000000000e+00 
0.0000000000000000e+00 0.0000000000000000e+00 0.0000000000000000e+00 
0.0000000000000000e+00 0.0000000000000000e+00 0.0000000000000000e+00 
0.0000000000000000e+00 0.0000000000000000e+00 0.0000000000000000e+00 
0.0000000000000000e+00 0.0000000000000000e+00 0.0000000000000000e+00 
0.0000000000000000e+00 0.0000000000000000e+00 0.0000000000000000e+00 
0.0000000000000000e+00 0.0000000000000000e+00 0.0000000000000000e+00 
0.0000000000000000e+00 0.0000000000000000e+00 0.0000000000000000e+00 
0.0000000000000000e+00 0.0000000000000000e+00 0.0000000000000000e+00 
0.0000000000000000e+00 0.0000000000000000e+00 0.0000000000000000e+00 
0.0000000000000000e+00 0.0000000000000000e+00 0.0000000000000000e+00 
0.0000000000000000e+00 0.0000000000000000e+00 0.0000000000000000e+00 
0.0000000000000000e+00 0.0000000000000000e+00 0.0000000000000000e+00 
0.0000000000000000e+00 0.0000000000000000e+00 0.0000000000000000e+00 
0.0000000000000000e+00 0.0000000000000000e+00 0.0000000000000000e+00 
0.0000000000000000e+00 0.0000000000000000e+00 0.0000000000000000e+00 
0.0000000000000000e+00 0.0000000000000000e+00 0.0000000000000000e+00 
0.0000000000000000e+00 0.0000000000000000e+00 0.0000000000000000e+00 
0.0000000000000000e+00 0.0000000000000000e+00 0.0000000000000000e+00 
0.0000000000000000e+00 0.0000000000000000e+00 0.0000000000000000e+00 
0.0000000000000000e+00 0.0000000000000000e+00 0.0000000000000000e+00 
0.0000000000000000e+00 0.0000000000000000e+00 0.0000000000000000e+00 
0.0000000000000000e+00 0.0000000000000000e+00 0.0000000000000000e+00 
0.0000000000000000e+00 0.0000000000000000e+00 0.0000000000000000e+00 
0.0000000000000000e+00 0.0000000000000000e+00 0.0000000000000000e+00 
0.0000000000000000e+00 0.0000000000000000e+00 0.0000000000000000e+00 
0.0000000000000000e+00 0.0000000000000000e+00 0.0000000000000000e+00 
0.0000000000000000e+00 0.0000000000000000e+00 0.0000000000000000e+00 
0.0000000000000000e+00 0.0000000000000000e+00 0.0000000000000000e+00 
0.0000000000000000e+00 0.0000000000000000e+00 0.0000000000000000e+00 
0.0000000000000000e+00 0.0000000000000000e+00 0.0000000000000000e+00 
0.0000000000000000e+00 0.0000000000000000e+00 0.0000000000000000e+00 
0.0000000000000000e+00 0.0000000000000000e+00 0.0000000000000000e+00 
0.0000000000000000e+00 0.0000000000000000e+00 0.0000000000000000e+00 
0.0000000000000000e+00 0.0000000000000000e+00 0.0000000000000000e+00 
0.0000000000000000e+00 0.0000000000000000e+00 0.0000000000000000e+00 
0.0000000000000000e+00 0.0000000000000000e+00 0.0000000000000000e+00 
0.0000000000000000e+00 0.0000000000000000e+00 0.0000000000000000e+00 
0.0000000000000000e+00 0.0000000000000000e+00 0.0000000000000000e+00 
0.0000000000000000e+00 0.0000000000000000e+00 0.0000000000000000e+00 
0.0000000000000000e+00 0.0000000000000000e+00 0.0000000000000000e+00 
0.0000000000000000e+00 0.0000000000000000e+00 0.0000000000000000e+00 
0.0000000000000000e+00 0.0000000000000000e+00 0.0000000000000000e+00 
0.0000000000000000e+00 0.0000000000000000e+00 0.0000000000000000e+00 
0.0000000000000000e+00 0.0000000000000000e+00 0.0000000000000000e+00 
0.0000000000000000e+00 0.0000000000000000e+00 0.0000000000000000e+00 
0.0000000000000000e+00 0.0000000000000000e+00 0.0000000000000000e+00 
0.0000000000000000e+00 0.0000000000000000e+00 0.0000000000000000e+00 
0.0000000000000000e+00 0.0000000000000000e+00 0.0000000000000000e+00 
0.0000000000000000e+00 0.0000000000000000e+00 0.0000000000000000e+00 
0.0000000000000000e+00 0.0000000000000000e+00 0.0000000000000000e+00 
0.0000000000000000e+00 0.0000000000000000e+00 0.0000000000000000e+00 
0.0000000000000000e+00 0.0000000000000000e+00 0.0000000000000000e+00 
0.0000000000000000e+00 0.0000000000000000e+00 0.0000000000000000e+00 
0.0000000000000000e+00 0.0000000000000000e+00 0.0000000000000000e+00 
0.0000000000000000e+00 0.0000000000000000e+00 0.0000000000000000e+00 
0.0000000000000000e+00 0.0000000000000000e+00 0.0000000000000000e+00 
0.0000000000000000e+00 0.0000000000000000e+00 0.0000000000000000e+00 
0.0000000000000000e+00 0.0000000000000000e+00 0.0000000000000000e+00 
0.0000000000000000e+00 0.0000000000000000e+00 0.0000000000000000e+00 
0.0000000000000000e+00 0.0000000000000000e+00 0.0000000000000000e+00 
0.0000000000000000e+00 0.0000000000000000e+00 0.0000000000000000e+00 
0.0000000000000000e+00 0.0000000000000000e+00 0.0000000000000000e+00 
0.0000000000000000e+00 0.0000000000000000e+00 0.0000000000000000e+00 
0.0000000000000000e+00 0.0000000000000000e+00 0.0000000000000000e+00 
0.0000000000000000e+00 0.0000000000000000e+00 0.0000000000000000e+00 
0.0000000000000000e+00 0.0000000000000000e+00 0.0000000000000000e+00 
0.0000000000000000e+00 0.0000000000000000e+00 0.0000000000000000e+00 
0.0000000000000000e+00 0.0000000000000000e+00 0.0000000000000000e+00 
0.0000000000000000e+00 0.0000000000000000e+00 0.0000000000000000e+00 
0.0000000000000000e+00 0.0000000000000000e+00 0.0000000000000000e+00 
0.0000000000000000e+00 0.0000000000000000e+00 0.0000000000000000e+00 
0.0000000000000000e+00 0.0000000000000000e+00 0.0000000000000000e+00 
0.0000000000000000e+00 0.0000000000000000e+00 0.0000000000000000e+00 
0.0000000000000000e+00 0.0000000000000000e+00 0.0000000000000000e+00 
0.0000000000000000e+00 0.0000000000000000e+00 0.0000000000000000e+00 
0.0000000000000000e+00 0.0000000000000000e+00 0.0000000000000000e+00 
0.0000000000000000e+00 0.0000000000000000e+00 0.0000000000000000e+00 
0.0000000000000000e+00 0.0000000000000000e+00 0.0000000000000000e+00 
0.0000000000000000e+00 0.0000000000000000e+00 0.0000000000000000e+00 
0.0000000000000000e+00 0.0000000000000000e+00 0.0000000000000000e+00 
0.0000000000000000e+00 0.0000000000000000e+00 0.0000000000000000e+00 
0.0000000000000000e+00 0.0000000000000000e+00 0.0000000000000000e+00 
0.0000000000000000e+00 0.0000000000000000e+00 0.0000000000000000e+00 

VECTORS Forces0 double
-6.7827390793080172e-02 0.0000000000000000e+00 3.0331780879609064e-03 
-6.2863778075607279e-02 0.0000000000000000e+00 1.2711529978776581e-03 
-6.7827390355242198e-02 0.0000000000000000e+00 3.0331781207994291e-03 
-6.2863777988349440e-02 0.0000000000000000e+00 1.2711529973191225e-03 
-1.1747401513393246e-01 0.0000000000000000e+00 8.6213168289912389e-03 
-1.1747401583351490e-01 0.0000000000000000e+00 8.6213166812516007e-03 
-8.7567433922400753e-02 0.0000000000000000e+00 9.9433069445194946e-03 
-8.7567433747749140e-02 0.0000000000000000e+00 9.9433069450079528e-03 
-7.3710179765698880e-02 0.0000000000000000e+00 1.0037147976473707e-02 
-7.3710179854564892e-02 0.0000000000000000e+00 1.0037148041899384e-02 
-8.4856796163565479e-02 0.0000000000000000e+00 1.3372338965836115e-02 
-8.4856796164454421e-02 0.0000000000000000e+00 1.3372338982018173e-02 
-1.0636972973518971e-01 0.0000000000000000e+00 2.0725301854340458e-02 
-1.0636972973605555e-01 0.0000000000000000e+00 2.0725301805042274e-02 
-7.0101224831712661e-02 0.0000000000000000e+00 1.6146874325191934e-02 
-7.0101225270455300e-02 0.0000000000000000e+00 1.6146874259669718e-02 
-4.9826888320993440e-02 0.0000000000000000e+00 1.2424503264940091e-02 
-4.9826888146258949e-02 0.0000000000000000e+00 1.2424503313808769e-02 
-5.3131885878166432e-02 0.0000000000000000e+00 1.3958869554882812e-02 
-5.3131886052302950e-02 0.0000000000000000e+00 1.3958869686056381e-02 
-5.6150331280428033e-02 0.0000000000000000e+00 1.6106389485584391e-02 
-5.6150330755110528e-02 0.0000000000000000e+00 1.6106389518322408e-02 
-2.0597000146986462e-02 0.0000000000000000e+00 7.1060109427544919e-03 
-2.0597000320823417e-02 0.0000000000000000e+00 7.1060109917762465e-03 
9.1345379565621284e-04 0.0000000000000000e+00 1.0757995960657908e-03 
9.1345440834756991e-04 0.0000000000000000e+00 1.0757996457240646e-03 
2.1111463387218140e-03 0.0000000000000000e+00 7.7508871449005409e-04 
2.1111458139140274e-03 0.0000000000000000e+00 7.7508868201053524e-04 
1.1771939261497043e-02 0.0000000000000000e+00 -1.7325045426592207e-03 
1.1771939086383215e-02 0.0000000000000000e+00 -1.7325045753958206e-03 
3.5141888744284679e-02 0.0000000000000000e+00 -9.1176495681372562e-03 
3.5141889356645854e-02 0.0000000000000000e+00 -9.1176494696358079e-03 
5.2064479194637810e-02 0.0000000000000000e+00 -1.4497438172058060e-02 
5.2064478844580563e-02 0.0000000000000000e+00 -1.4497438237669363e-02 
5.3686943739682844e-02 0.0000000000000000e+00 -1.4956849216947815e-02 
5.3686943567882582e-02 0.0000000000000000e+00 -1.4956849167824447e-02 
6.7702027706278076e-02 0.0000000000000000e+00 -1.9386666222723049e-02 
6.7702027705592624e-02 0.0000000000000000e+00 -1.9386666189505172e-02 
8.9330141478417419e-02 0.0000000000000000e+00 -2.4448369366994807e-02 
8.9330141739090443e-02 0.0000000000000000e+00 -2.4448369349898628e-02 
1.2443674831275316e-01 0.0000000000000000e+00 3.7688327650157072e-01 
4.3217081943188691e-02 0.0000000000000000e+00 5.8927860489853948e-02 
1.2443674822463677e-01 0.0000000000000000e+00 3.7688327655045800e-01 
4.3217082116095290e-02 0.0000000000000000e+00 5.8927860457042132e-02 
4.0723623842808432e-01 0.0000000000000000e+00 -1.1681646210868816e-02 
1.1597211508163863e+00 0.0000000000000000e+00 -4.0623471729267800e-02 
4.0723623851635204e-01 0.0000000000000000e+00 -1.1681646259978340e-02 
1.1597211504655562e+00 0.0000000000000000e+00 -4.0623471761949317e-02 
1.1753925615688707e+00 0.0000000000000000e+00 -8.4646789546538065e-02 
1.1753925616562357e+00 0.0000000000000000e+00 -8.4646789497861558e-02 
1.0280423849697173e+00 0.0000000000000000e+00 -1.0917058699137221e-01 
1.0280423849698039e+00 0.0000000000000000e+00 -1.0917058700762421e-01 
1.0143086200868230e+00 0.0000000000000000e+00 -1.3197347800550799e-01 
1.0143086201743325e+00 0.0000000000000000e+00 -1.3197347792367078e-01 
1.0101795318864171e+00 0.0000000000000000e+00 -1.5529986390157791e-01 
1.0101795317102977e+00 0.0000000000000000e+00 -1.5529986390155803e-01 
1.1458640059611034e+00 0.0000000000000000e+00 -2.1464525231752329e-01 
1.1458640062226961e+00 0.0000000000000000e+00 -2.1464525236678725e-01 
9.6226292996750662e-01 0.0000000000000000e+00 -2.0722583064293837e-01 
9.6226293022980525e-01 0.0000000000000000e+00 -2.0722583059388877e-01 
9.3779476135271722e-01 0.0000000000000000e+00 -2.1613909905204554e-01 
9.3779476108965709e-01 0.0000000000000000e+00 -2.1613909910107804e-01 
9.1862932927983243e-01 0.0000000000000000e+00 -2.2545653526084630e-01 
9.1862932936739861e-01 0.0000000000000000e+00 -2.2545653532640245e-01 
1.0214316082508552e+00 0.0000000000000000e+00 -2.6804662567092014e-01 
1.0214316087753572e+00 0.0000000000000000e+00 -2.6804662570381588e-01 
8.4343933031871010e-01 0.0000000000000000e+00 -2.3288996653310615e-01 
8.4343933040615893e-01 0.0000000000000000e+00 -2.3288996654947897e-01 
8.1100675903431485e-01 0.0000000000000000e+00 -2.3009366969655512e-01 
8.1100675885928930e-01 0.0000000000000000e+00 -2.3009366971292827e-01 
7.8200812212313919e-01 0.0000000000000000e+00 -2.2779712433321384e-01 
7.8200812221073013e-01 0.0000000000000000e+00 -2.2779712436592386e-01 
8.4603237149103983e-01 0.0000000000000000e+00 -2.5335135833319627e-01 
8.4603237166603429e-01 0.0000000000000000e+00 -2.5335135833319788e-01 
6.7390557736887158e-01 0.0000000000000000e+00 -2.0632405468981910e-01 
6.7390557728104661e-01 0.0000000000000000e+00 -2.0632405467347703e-01 
6.2517091693664850e-01 0.0000000000000000e+00 -1.9378224550379919e-01 
6.2517091702375538e-01 0.0000000000000000e+00 -1.9378224547102979e-01 
5.7664501189519191e-01 0.0000000000000000e+00 -1.8075829879490662e-01 
5.7664501198270146e-01 0.0000000000000000e+00 -1.8075829877849667e-01 
5.6196172680515533e-01 0.0000000000000000e+00 -1.8013978270693817e-01 
5.6196172671818456e-01 0.0000000000000000e+00 -1.8013978269059619e-01 
3.8715148003053895e-01 0.0000000000000000e+00 -1.1681027209458270e-01 
3.8715148003024402e-01 0.0000000000000000e+00 -1.1681027209451511e-01 
1.9836836843688968e-01 0.0000000000000000e+00 1.4724610093758209e-01 
1.9836836843688851e-01 0.0000000000000000e+00 1.4724610095389781e-01 

VECTORS Displacements0 double
6.9356603593235591e-310 0.0000000000000000e+00 0.0000000000000000e+00 
1.3572366653935048e-03 0.0000000000000000e+00 -1.8129828196553344e-03 
0.0000000000000000e+00 0.0000000000000000e+00 0.0000000000000000e+00 
1.3572366653485702e-03 0.0000000000000000e+00 -1.8129828195693439e-03 
4.0392741171843046e-03 0.0000000000000000e+00 -3.5772282057032955e-03 
4.0392741170205805e-03 0.0000000000000000e+00 -3.5772282055720256e-03 
8.2479491149494745e-03 0.0000000000000000e+00 -5.2725466311704956e-03 
8.2479491145477958e-03 0.0000000000000000e+00 -5.2725466311320888e-03 
1.3828568868499201e-02 0.0000000000000000e+00 -7.0467301422580302e-03 
1.3828568868085242e-02 0.0000000000000000e+00 -7.0467301424332477e-03 
2.0801748400297138e-02 0.0000000000000000e+00 -8.9581263146807730e-03 
2.0801748400098855e-02 0.0000000000000000e+00 -8.9581263150020265e-03 
2.9145316027420418e-02 0.0000000000000000e+00 -1.0997766177067859e-02 
2.9145316027427939e-02 0.0000000000000000e+00 -1.0997766177393547e-02 
3.8745307603536130e-02 0.0000000000000000e+00 -1.3116714615346241e-02 
3.8745307603705398e-02 0.0000000000000000e+00 -1.3116714615591028e-02 
4.9412084307905314e-02 0.0000000000000000e+00 -1.5273778429008639e-02 
4.9412084308038354e-02 0.0000000000000000e+00 -1.5273778429155024e-02 
6.0950233478917551e-02 0.0000000000000000e+00 -1.7458822523805550e-02 
6.0950233478962744e-02 0.0000000000000000e+00 -1.7458822523883269e-02 
7.3208694007308867e-02 0.0000000000000000e+00 -1.9683044754501437e-02 
7.3208694007185035e-02 0.0000000000000000e+00 -1.9683044754494020e-02 
8.6081725933614447e-02 0.0000000000000000e+00 -2.1956834427163032e-02 
8.6081725933389960e-02 0.0000000000000000e+00 -2.1956834427143787e-02 
9.9482722075942373e-02 0.0000000000000000e+00 -2.4277036455486168e-02 
9.9482722075704660e-02 0.0000000000000000e+00 -2.4277036455556959e-02 
1.1332331653879986e-01 0.0000000000000000e+00 -2.6631887645441270e-02 
1.1332331653878727e-01 0.0000000000000000e+00 -2.6631887645633789e-02 
1.2751911456075568e-01 0.0000000000000000e+00 -2.9016059277949917e-02 
1.2751911456093751e-01 0.0000000000000000e+00 -2.9016059278152984e-02 
1.4201187474072599e-01 0.0000000000000000e+00 -3.1435174254423298e-02 
1.4201187474104568e-01 0.0000000000000000e+00 -3.1435174254530400e-02 
1.5677535864379927e-01 0.0000000000000000e+00 -3.3888070873420641e-02 
1.5677535864411277e-01 0.0000000000000000e+00 -3.3888070873356393e-02 
1.7177459894598912e-01 0.0000000000000000e+00 -3.6346837306549085e-02 
1.7177459894612102e-01 0.0000000000000000e+00 -3.6346837306301859e-02 
1.8692568220046302e-01 0.0000000000000000e+00 -3.8771120215772586e-02 
1.8692568220023609e-01 0.0000000000000000e+00 -3.8771120215367709e-02 
2.0212074705478769e-01 0.0000000000000000e+00 -4.1147485752314854e-02 
2.0212074705420574e-01 0.0000000000000000e+00 -4.1147485751773696e-02 
2.1966021447302861e-01 0.0000000000000000e+00 -2.8330760632006076e-02 
2.1729996232774845e-01 0.0000000000000000e+00 -4.3502241562021503e-02 
2.1966021447200867e-01 0.0000000000000000e+00 -2.8330760631706791e-02 
2.1729996232685678e-01 0.0000000000000000e+00 -4.3502241561370759e-02 
0.0000000000000000e+00 0.0000000000000000e+00 0.0000000000000000e+00 
1.4696551400775334e-03 0.0000000000000000e+00 1.7558156116849865e-03 
0.0000000000000000e+00 0.0000000000000000e+00 0.0000000000000000e+00 
1.4696551400040514e-03 0.0000000000000000e+00 1.7558156115821543e-03 
4.3320465113420659e-03 0.0000000000000000e+00 3.3479756397210036e-03 
4.3320465111572701e-03 0.0000000000000000e+00 3.3479756395568484e-03 
8.7845670545376089e-03 0.0000000000000000e+00 4.6666185689728818e-03 
8.7845670540798119e-03 0.0000000000000000e+00 4.6666185688670637e-03 
1.4691002434177154e-02 0.0000000000000000e+00 5.7710530708526787e-03 
1.4691002433759575e-02 0.0000000000000000e+00 5.7710530708604399e-03 
2.2058568554444404e-02 0.0000000000000000e+00 6.6328907617424111e-03 
2.2058568554272722e-02 0.0000000000000000e+00 6.6328907617700088e-03 
3.0843795179462025e-02 0.0000000000000000e+00 7.1772237881974621e-03 
3.0843795179527719e-02 0.0000000000000000e+00 7.1772237881330631e-03 
4.0886505823757982e-02 0.0000000000000000e+00 7.3373707717071133e-03 
4.0886505823919998e-02 0.0000000000000000e+00 7.3373707715224893e-03 
5.1972106244140275e-02 0.0000000000000000e+00 7.0996718889467696e-03 
5.1972106244248473e-02 0.0000000000000000e+00 7.0996718886816397e-03 
6.3888615073096747e-02 0.0000000000000000e+00 6.5044642622252959e-03 
6.3888615073104726e-02 0.0000000000000000e+00 6.5044642619491921e-03 
7.6487953505408365e-02 0.0000000000000000e+00 5.6073714314106493e-03 
7.6487953505279260e-02 0.0000000000000000e+00 5.6073714311909656e-03 
8.9659661427367560e-02 0.0000000000000000e+00 4.4550492398450162e-03 
8.9659661427137313e-02 0.0000000000000000e+00 4.4550492397688922e-03 
1.0332397040053737e-01 0.0000000000000000e+00 3.0752433450502528e-03 
1.0332397040036508e-01 0.0000000000000000e+00 3.0752433451305531e-03 
1.1739020597966850e-01 0.0000000000000000e+00 1.4964557060593037e-03 
1.1739020597975577e-01 0.0000000000000000e+00 1.4964557061620271e-03 
1.3177936348463379e-01 0.0000000000000000e+00 -2.4632986681900307e-04 
1.3177936348488928e-01 0.0000000000000000e+00 -2.4632986680981695e-04 
1.4643477191351872e-01 0.0000000000000000e+00 -2.1197602949004973e-03 
1.4643477191384524e-01 0.0000000000000000e+00 -2.1197602950292476e-03 
1.6133757731818721e-01 0.0000000000000000e+00 -4.1176877517988932e-03 
1.6133757731840570e-01 0.0000000000000000e+00 -4.1176877520456732e-03 
1.7643782449583653e-01 0.0000000000000000e+00 -6.2477022046968341e-03 
1.7643782449574399e-01 0.0000000000000000e+00 -6.2477022049742615e-03 
1.9163995259457278e-01 0.0000000000000000e+00 -8.4983254497069723e-03 
1.9163995259413899e-01 0.0000000000000000e+00 -8.4983254499481804e-03 
2.0684406141546841e-01 0.0000000000000000e+00 -1.0820869995832002e-02 
2.0684406141467510e-01 0.0000000000000000e+00 -1.0820869995989121e-02 
2.2202036086352331e-01 0.0000000000000000e+00 -1.3166439939312472e-02 
2.2202036086237692e-01 0.0000000000000000e+00 -1.3166439939363585e-02 

