# vtk DataFile Version 2.0

ASCII

DATASET UNSTRUCTURED_GRID

POINTS 86 float 

5.0000000000000003e-02  0.0000000000000000e+00  0.0000000000000000e+00
5.0000000000000003e-02  0.0000000000000000e+00  5.0000000000000003e-02
5.0000000000000003e-02  2.9999999999999999e-01  0.0000000000000000e+00
5.0000000000000003e-02  2.9999999999999999e-01  5.0000000000000003e-02
5.0000000000000003e-02  0.0000000000000000e+00  1.0000000000000001e-01
5.0000000000000003e-02  2.9999999999999999e-01  1.0000000000000001e-01
5.0000000000000003e-02  0.0000000000000000e+00  1.4999999999999999e-01
5.0000000000000003e-02  2.9999999999999999e-01  1.4999999999999999e-01
5.0000000000000003e-02  0.0000000000000000e+00  2.0000000000000001e-01
5.0000000000000003e-02  2.9999999999999999e-01  2.0000000000000001e-01
5.0000000000000003e-02  0.0000000000000000e+00  2.5000000000000000e-01
5.0000000000000003e-02  2.9999999999999999e-01  2.5000000000000000e-01
5.0000000000000003e-02  0.0000000000000000e+00  2.9999999999999999e-01
5.0000000000000003e-02  2.9999999999999999e-01  2.9999999999999999e-01
5.0000000000000003e-02  0.0000000000000000e+00  3.4999999999999998e-01
5.0000000000000003e-02  2.9999999999999999e-01  3.4999999999999998e-01
5.0000000000000003e-02  0.0000000000000000e+00  4.0000000000000002e-01
5.0000000000000003e-02  2.9999999999999999e-01  4.0000000000000002e-01
5.0000000000000003e-02  0.0000000000000000e+00  4.5000000000000001e-01
5.0000000000000003e-02  2.9999999999999999e-01  4.5000000000000001e-01
5.0000000000000003e-02  0.0000000000000000e+00  5.0000000000000000e-01
5.0000000000000003e-02  2.9999999999999999e-01  5.0000000000000000e-01
5.0000000000000003e-02  0.0000000000000000e+00  5.5000000000000004e-01
5.0000000000000003e-02  2.9999999999999999e-01  5.5000000000000004e-01
5.0000000000000003e-02  0.0000000000000000e+00  5.9999999999999998e-01
5.0000000000000003e-02  2.9999999999999999e-01  5.9999999999999998e-01
5.0000000000000003e-02  0.0000000000000000e+00  6.5000000000000002e-01
5.0000000000000003e-02  2.9999999999999999e-01  6.5000000000000002e-01
5.0000000000000003e-02  0.0000000000000000e+00  6.9999999999999996e-01
5.0000000000000003e-02  2.9999999999999999e-01  6.9999999999999996e-01
5.0000000000000003e-02  0.0000000000000000e+00  7.5000000000000000e-01
5.0000000000000003e-02  2.9999999999999999e-01  7.5000000000000000e-01
5.0000000000000003e-02  0.0000000000000000e+00  8.0000000000000004e-01
5.0000000000000003e-02  2.9999999999999999e-01  8.0000000000000004e-01
5.0000000000000003e-02  0.0000000000000000e+00  8.4999999999999998e-01
5.0000000000000003e-02  2.9999999999999999e-01  8.4999999999999998e-01
5.0000000000000003e-02  0.0000000000000000e+00  9.0000000000000002e-01
5.0000000000000003e-02  2.9999999999999999e-01  9.0000000000000002e-01
5.0000000000000003e-02  0.0000000000000000e+00  9.4999999999999996e-01
5.0000000000000003e-02  2.9999999999999999e-01  9.4999999999999996e-01
0.0000000000000000e+00  0.0000000000000000e+00  1.0000000000000000e+00
5.0000000000000003e-02  0.0000000000000000e+00  1.0000000000000000e+00
0.0000000000000000e+00  2.9999999999999999e-01  1.0000000000000000e+00
5.0000000000000003e-02  2.9999999999999999e-01  1.0000000000000000e+00
-5.0000000000000003e-02  0.0000000000000000e+00  0.0000000000000000e+00
-5.0000000000000003e-02  0.0000000000000000e+00  5.0000000000000003e-02
-5.0000000000000003e-02  2.9999999999999999e-01  0.0000000000000000e+00
-5.0000000000000003e-02  2.9999999999999999e-01  5.0000000000000003e-02
-5.0000000000000003e-02  0.0000000000000000e+00  1.0000000000000001e-01
-5.0000000000000003e-02  2.9999999999999999e-01  1.0000000000000001e-01
-5.0000000000000003e-02  0.0000000000000000e+00  1.4999999999999999e-01
-5.0000000000000003e-02  2.9999999999999999e-01  1.4999999999999999e-01
-5.0000000000000003e-02  0.0000000000000000e+00  2.0000000000000001e-01
-5.0000000000000003e-02  2.9999999999999999e-01  2.0000000000000001e-01
-5.0000000000000003e-02  0.0000000000000000e+00  2.5000000000000000e-01
-5.0000000000000003e-02  2.9999999999999999e-01  2.5000000000000000e-01
-5.0000000000000003e-02  0.0000000000000000e+00  2.9999999999999999e-01
-5.0000000000000003e-02  2.9999999999999999e-01  2.9999999999999999e-01
-5.0000000000000003e-02  0.0000000000000000e+00  3.4999999999999998e-01
-5.0000000000000003e-02  2.9999999999999999e-01  3.4999999999999998e-01
-5.0000000000000003e-02  0.0000000000000000e+00  4.0000000000000002e-01
-5.0000000000000003e-02  2.9999999999999999e-01  4.0000000000000002e-01
-5.0000000000000003e-02  0.0000000000000000e+00  4.5000000000000001e-01
-5.0000000000000003e-02  2.9999999999999999e-01  4.5000000000000001e-01
-5.0000000000000003e-02  0.0000000000000000e+00  5.0000000000000000e-01
-5.0000000000000003e-02  2.9999999999999999e-01  5.0000000000000000e-01
-5.0000000000000003e-02  0.0000000000000000e+00  5.5000000000000004e-01
-5.0000000000000003e-02  2.9999999999999999e-01  5.5000000000000004e-01
-5.0000000000000003e-02  0.0000000000000000e+00  5.9999999999999998e-01
-5.0000000000000003e-02  2.9999999999999999e-01  5.9999999999999998e-01
-5.0000000000000003e-02  0.0000000000000000e+00  6.5000000000000002e-01
-5.0000000000000003e-02  2.9999999999999999e-01  6.5000000000000002e-01
-5.0000000000000003e-02  0.0000000000000000e+00  6.9999999999999996e-01
-5.0000000000000003e-02  2.9999999999999999e-01  6.9999999999999996e-01
-5.0000000000000003e-02  0.0000000000000000e+00  7.5000000000000000e-01
-5.0000000000000003e-02  2.9999999999999999e-01  7.5000000000000000e-01
-5.0000000000000003e-02  0.0000000000000000e+00  8.0000000000000004e-01
-5.0000000000000003e-02  2.9999999999999999e-01  8.0000000000000004e-01
-5.0000000000000003e-02  0.0000000000000000e+00  8.4999999999999998e-01
-5.0000000000000003e-02  2.9999999999999999e-01  8.4999999999999998e-01
-5.0000000000000003e-02  0.0000000000000000e+00  9.0000000000000002e-01
-5.0000000000000003e-02  2.9999999999999999e-01  9.0000000000000002e-01
-5.0000000000000003e-02  0.0000000000000000e+00  9.4999999999999996e-01
-5.0000000000000003e-02  2.9999999999999999e-01  9.4999999999999996e-01
-5.0000000000000003e-02  0.0000000000000000e+00  1.0000000000000000e+00
-5.0000000000000003e-02  2.9999999999999999e-01  1.0000000000000000e+00

CELLS 0 0


CELL_TYPES 0


POINT_DATA 86

VECTORS VertexNormals float

0.0000000000000000e+00 0.0000000000000000e+00 0.0000000000000000e+00 
0.0000000000000000e+00 0.0000000000000000e+00 0.0000000000000000e+00 
0.0000000000000000e+00 0.0000000000000000e+00 0.0000000000000000e+00 
0.0000000000000000e+00 0.0000000000000000e+00 0.0000000000000000e+00 
0.0000000000000000e+00 0.0000000000000000e+00 0.0000000000000000e+00 
0.0000000000000000e+00 0.0000000000000000e+00 0.0000000000000000e+00 
0.0000000000000000e+00 0.0000000000000000e+00 0.0000000000000000e+00 
0.0000000000000000e+00 0.0000000000000000e+00 0.0000000000000000e+00 
0.0000000000000000e+00 0.0000000000000000e+00 0.0000000000000000e+00 
0.0000000000000000e+00 0.0000000000000000e+00 0.0000000000000000e+00 
0.0000000000000000e+00 0.0000000000000000e+00 0.0000000000000000e+00 
0.0000000000000000e+00 0.0000000000000000e+00 0.0000000000000000e+00 
0.0000000000000000e+00 0.0000000000000000e+00 0.0000000000000000e+00 
0.0000000000000000e+00 0.0000000000000000e+00 0.0000000000000000e+00 
0.0000000000000000e+00 0.0000000000000000e+00 0.0000000000000000e+00 
0.0000000000000000e+00 0.0000000000000000e+00 0.0000000000000000e+00 
0.0000000000000000e+00 0.0000000000000000e+00 0.0000000000000000e+00 
0.0000000000000000e+00 0.0000000000000000e+00 0.0000000000000000e+00 
0.0000000000000000e+00 0.0000000000000000e+00 0.0000000000000000e+00 
0.0000000000000000e+00 0.0000000000000000e+00 0.0000000000000000e+00 
0.0000000000000000e+00 0.0000000000000000e+00 0.0000000000000000e+00 
0.0000000000000000e+00 0.0000000000000000e+00 0.0000000000000000e+00 
0.0000000000000000e+00 0.0000000000000000e+00 0.0000000000000000e+00 
0.0000000000000000e+00 0.0000000000000000e+00 0.0000000000000000e+00 
0.0000000000000000e+00 0.0000000000000000e+00 0.0000000000000000e+00 
0.0000000000000000e+00 0.0000000000000000e+00 0.0000000000000000e+00 
0.0000000000000000e+00 0.0000000000000000e+00 0.0000000000000000e+00 
0.0000000000000000e+00 0.0000000000000000e+00 0.0000000000000000e+00 
0.0000000000000000e+00 0.0000000000000000e+00 0.0000000000000000e+00 
0.0000000000000000e+00 0.0000000000000000e+00 0.0000000000000000e+00 
0.0000000000000000e+00 0.0000000000000000e+00 0.0000000000000000e+00 
0.0000000000000000e+00 0.0000000000000000e+00 0.0000000000000000e+00 
0.0000000000000000e+00 0.0000000000000000e+00 0.0000000000000000e+00 
0.0000000000000000e+00 0.0000000000000000e+00 0.0000000000000000e+00 
0.0000000000000000e+00 0.0000000000000000e+00 0.0000000000000000e+00 
0.0000000000000000e+00 0.0000000000000000e+00 0.0000000000000000e+00 
0.0000000000000000e+00 0.0000000000000000e+00 0.0000000000000000e+00 
0.0000000000000000e+00 0.0000000000000000e+00 0.0000000000000000e+00 
0.0000000000000000e+00 0.0000000000000000e+00 0.0000000000000000e+00 
0.0000000000000000e+00 0.0000000000000000e+00 0.0000000000000000e+00 
0.0000000000000000e+00 0.0000000000000000e+00 0.0000000000000000e+00 
0.0000000000000000e+00 0.0000000000000000e+00 0.0000000000000000e+00 
0.0000000000000000e+00 0.0000000000000000e+00 0.0000000000000000e+00 
0.0000000000000000e+00 0.0000000000000000e+00 0.0000000000000000e+00 
0.0000000000000000e+00 0.0000000000000000e+00 0.0000000000000000e+00 
0.0000000000000000e+00 0.0000000000000000e+00 0.0000000000000000e+00 
0.0000000000000000e+00 0.0000000000000000e+00 0.0000000000000000e+00 
0.0000000000000000e+00 0.0000000000000000e+00 0.0000000000000000e+00 
0.0000000000000000e+00 0.0000000000000000e+00 0.0000000000000000e+00 
0.0000000000000000e+00 0.0000000000000000e+00 0.0000000000000000e+00 
0.0000000000000000e+00 0.0000000000000000e+00 0.0000000000000000e+00 
0.0000000000000000e+00 0.0000000000000000e+00 0.0000000000000000e+00 
0.0000000000000000e+00 0.0000000000000000e+00 0.0000000000000000e+00 
0.0000000000000000e+00 0.0000000000000000e+00 0.0000000000000000e+00 
0.0000000000000000e+00 0.0000000000000000e+00 0.0000000000000000e+00 
0.0000000000000000e+00 0.0000000000000000e+00 0.0000000000000000e+00 
0.0000000000000000e+00 0.0000000000000000e+00 0.0000000000000000e+00 
0.0000000000000000e+00 0.0000000000000000e+00 0.0000000000000000e+00 
0.0000000000000000e+00 0.0000000000000000e+00 0.0000000000000000e+00 
0.0000000000000000e+00 0.0000000000000000e+00 0.0000000000000000e+00 
0.0000000000000000e+00 0.0000000000000000e+00 0.0000000000000000e+00 
0.0000000000000000e+00 0.0000000000000000e+00 0.0000000000000000e+00 
0.0000000000000000e+00 0.0000000000000000e+00 0.0000000000000000e+00 
0.0000000000000000e+00 0.0000000000000000e+00 0.0000000000000000e+00 
0.0000000000000000e+00 0.0000000000000000e+00 0.0000000000000000e+00 
0.0000000000000000e+00 0.0000000000000000e+00 0.0000000000000000e+00 
0.0000000000000000e+00 0.0000000000000000e+00 0.0000000000000000e+00 
0.0000000000000000e+00 0.0000000000000000e+00 0.0000000000000000e+00 
0.0000000000000000e+00 0.0000000000000000e+00 0.0000000000000000e+00 
0.0000000000000000e+00 0.0000000000000000e+00 0.0000000000000000e+00 
0.0000000000000000e+00 0.0000000000000000e+00 0.0000000000000000e+00 
0.0000000000000000e+00 0.0000000000000000e+00 0.0000000000000000e+00 
0.0000000000000000e+00 0.0000000000000000e+00 0.0000000000000000e+00 
0.0000000000000000e+00 0.0000000000000000e+00 0.0000000000000000e+00 
0.0000000000000000e+00 0.0000000000000000e+00 0.0000000000000000e+00 
0.0000000000000000e+00 0.0000000000000000e+00 0.0000000000000000e+00 
0.0000000000000000e+00 0.0000000000000000e+00 0.0000000000000000e+00 
0.0000000000000000e+00 0.0000000000000000e+00 0.0000000000000000e+00 
0.0000000000000000e+00 0.0000000000000000e+00 0.0000000000000000e+00 
0.0000000000000000e+00 0.0000000000000000e+00 0.0000000000000000e+00 
0.0000000000000000e+00 0.0000000000000000e+00 0.0000000000000000e+00 
0.0000000000000000e+00 0.0000000000000000e+00 0.0000000000000000e+00 
0.0000000000000000e+00 0.0000000000000000e+00 0.0000000000000000e+00 
0.0000000000000000e+00 0.0000000000000000e+00 0.0000000000000000e+00 
0.0000000000000000e+00 0.0000000000000000e+00 0.0000000000000000e+00 
0.0000000000000000e+00 0.0000000000000000e+00 0.0000000000000000e+00 

VECTORS Forces0 float
1.7381602929588078e-01 0.0000000000000000e+00 2.1557570335363663e-03 
5.9828683559487350e-01 0.0000000000000000e+00 -2.1987417653355448e-02 
1.7381602971590421e-01 0.0000000000000000e+00 2.1557570390670429e-03 
5.9828683573495112e-01 0.0000000000000000e+00 -2.1987417666617659e-02 
5.6620904525246329e-01 0.0000000000000000e+00 -3.5049851268783697e-02 
5.6620904539303574e-01 0.0000000000000000e+00 -3.5049851252890403e-02 
5.1314299741690605e-01 0.0000000000000000e+00 -4.7566860075579143e-02 
5.1314299685621023e-01 0.0000000000000000e+00 -4.7566860091444306e-02 
5.2549703831698047e-01 0.0000000000000000e+00 -5.5527661926984405e-02 
5.2549703803661973e-01 0.0000000000000000e+00 -5.5527661923336913e-02 
5.2344099533752875e-01 0.0000000000000000e+00 -6.1067488911107991e-02 
5.2344099547799761e-01 0.0000000000000000e+00 -6.1067488911059432e-02 
6.1081981540544483e-01 0.0000000000000000e+00 -7.2494276187825168e-02 
6.1081981596557944e-01 0.0000000000000000e+00 -7.2494276183789716e-02 
5.5750373293224564e-01 0.0000000000000000e+00 -6.2022192137733675e-02 
5.5750373321244040e-01 0.0000000000000000e+00 -6.2022192124640045e-02 
5.8110674453743050e-01 0.0000000000000000e+00 -5.9667710220068476e-02 
5.8110674425634601e-01 0.0000000000000000e+00 -5.9667710224503213e-02 
5.8892351486959704e-01 0.0000000000000000e+00 -5.5196700852787092e-02 
5.8892351458859615e-01 0.0000000000000000e+00 -5.5196700865028744e-02 
6.9957156727849945e-01 0.0000000000000000e+00 -5.3635570082967703e-02 
6.9957156798031239e-01 0.0000000000000000e+00 -5.3635570078341674e-02 
6.3725842762560514e-01 0.0000000000000000e+00 -3.6545237015520080e-02 
6.3725842720516235e-01 0.0000000000000000e+00 -3.6545237021350110e-02 
6.5573868210704012e-01 0.0000000000000000e+00 -2.9716219126318839e-02 
6.5573868196677465e-01 0.0000000000000000e+00 -2.9716219123861055e-02 
6.5927422369590283e-01 0.0000000000000000e+00 -2.2275375676578141e-02 
6.5927422439677996e-01 0.0000000000000000e+00 -2.2275375674569393e-02 
7.6399973416244715e-01 0.0000000000000000e+00 -1.4981653861739351e-02 
7.6399973416201616e-01 0.0000000000000000e+00 -1.4981653873745110e-02 
6.6964907670840068e-01 0.0000000000000000e+00 -5.5377928848953026e-03 
6.6964907684860708e-01 0.0000000000000000e+00 -5.5377928907896033e-03 
6.6945336586281257e-01 0.0000000000000000e+00 -2.3656517482777044e-03 
6.6945336642333275e-01 0.0000000000000000e+00 -2.3656517603670890e-03 
6.5975251575845550e-01 0.0000000000000000e+00 1.1635321217255980e-03 
6.5975251575776173e-01 0.0000000000000000e+00 1.1635321226719786e-03 
7.3191432351450991e-01 0.0000000000000000e+00 -4.5491466509883934e-05 
7.3191432351454355e-01 0.0000000000000000e+00 -4.5491459694105415e-05 
6.9843249714464883e-01 0.0000000000000000e+00 1.5139937663178176e-02 
6.9843249672257290e-01 0.0000000000000000e+00 1.5139937653212169e-02 
8.9679707975068093e-03 0.0000000000000000e+00 1.1204465258495311e+00 
2.4414613435927712e-01 0.0000000000000000e+00 2.8001250442682513e-01 
8.9679707982119345e-03 0.0000000000000000e+00 1.1204465258541239e+00 
2.4414613379909972e-01 0.0000000000000000e+00 2.8001250443515247e-01 
3.0153629984770919e-01 0.0000000000000000e+00 4.0809040765700435e-05 
9.2910496368450657e-01 0.0000000000000000e+00 -3.0726153983212448e-02 
3.0153630054842623e-01 0.0000000000000000e+00 4.0809044529859125e-05 
9.2910496312369917e-01 0.0000000000000000e+00 -3.0726153984062941e-02 
9.1578811070160815e-01 0.0000000000000000e+00 -5.6905115264117311e-02 
9.1578811126182402e-01 0.0000000000000000e+00 -5.6905115260177656e-02 
8.0503998996041859e-01 0.0000000000000000e+00 -7.4679858880307773e-02 
8.0503998996067117e-01 0.0000000000000000e+00 -7.4679858884209208e-02 
7.9874466007022293e-01 0.0000000000000000e+00 -8.4440428820310151e-02 
7.9874466035052338e-01 0.0000000000000000e+00 -8.4440428810222581e-02 
7.8603113052777729e-01 0.0000000000000000e+00 -9.2055382941421335e-02 
7.8603112996731406e-01 0.0000000000000000e+00 -9.2055382947118972e-02 
8.8575490273672564e-01 0.0000000000000000e+00 -1.0584531489533203e-01 
8.8575490273696111e-01 0.0000000000000000e+00 -1.0584531490064314e-01 
7.6024802089366539e-01 0.0000000000000000e+00 -8.5238347083442981e-02 
7.6024802131442315e-01 0.0000000000000000e+00 -8.5238347083386012e-02 
7.5608732879881646e-01 0.0000000000000000e+00 -7.8605123430710022e-02 
7.5608732837838843e-01 0.0000000000000000e+00 -7.8605123430708274e-02 
7.4091761286105340e-01 0.0000000000000000e+00 -7.0355969438724492e-02 
7.4091761328188777e-01 0.0000000000000000e+00 -7.0355969441246502e-02 
8.2897854317109809e-01 0.0000000000000000e+00 -6.4315495775376819e-02 
8.2897854317086273e-01 0.0000000000000000e+00 -6.4315495768950071e-02 
7.0584614885083341e-01 0.0000000000000000e+00 -4.1090998652013593e-02 
7.0584614927138556e-01 0.0000000000000000e+00 -4.1090998650331438e-02 
6.9544830593144025e-01 0.0000000000000000e+00 -3.2325427752163211e-02 
6.9544830551061643e-01 0.0000000000000000e+00 -3.2325427753258119e-02 
6.7129923469782693e-01 0.0000000000000000e+00 -2.3216716843514260e-02 
6.7129923483791953e-01 0.0000000000000000e+00 -2.3216716846251480e-02 
7.2732067678403944e-01 0.0000000000000000e+00 -1.4510753825784069e-02 
7.2732067692424551e-01 0.0000000000000000e+00 -1.4510753824903782e-02 
5.9124318963211608e-01 0.0000000000000000e+00 -4.9840057338681621e-03 
5.9124318977215207e-01 0.0000000000000000e+00 -4.9840057348418450e-03 
5.5211989474236289e-01 0.0000000000000000e+00 -2.1387395045819940e-03 
5.5211989488245194e-01 0.0000000000000000e+00 -2.1387395036882220e-03 
4.9400699976728246e-01 0.0000000000000000e+00 1.1882967540594841e-03 
4.9400699976733214e-01 0.0000000000000000e+00 1.1882967540400818e-03 
4.4289620707588123e-01 0.0000000000000000e+00 -3.6903051089857667e-03 
4.4289620707599614e-01 0.0000000000000000e+00 -3.6903051117509818e-03 
1.9572020059991194e-01 0.0000000000000000e+00 1.8533276284438835e-02 
1.9572020059991035e-01 0.0000000000000000e+00 1.8533276285323280e-02 
4.7941175725473767e-02 0.0000000000000000e+00 4.3153467353120223e-01 
4.7941175865527895e-02 0.0000000000000000e+00 4.3153467353312630e-01 

VECTORS Displacements0 float
6.9356603532943773e-310 0.0000000000000000e+00 0.0000000000000000e+00 
1.0496563851980312e-03 0.0000000000000000e+00 -1.5455448741619065e-03 
0.0000000000000000e+00 0.0000000000000000e+00 0.0000000000000000e+00 
1.0496563852730497e-03 0.0000000000000000e+00 -1.5455448741505280e-03 
3.2947231086888950e-03 0.0000000000000000e+00 -3.1021566650320828e-03 
3.2947231087177148e-03 0.0000000000000000e+00 -3.1021566649543763e-03 
6.9840903849165146e-03 0.0000000000000000e+00 -4.5101329023994911e-03 
6.9840903847361545e-03 0.0000000000000000e+00 -4.5101329022631843e-03 
1.1831366658589200e-02 0.0000000000000000e+00 -5.6894537023865722e-03 
1.1831366658170018e-02 0.0000000000000000e+00 -5.6894537022521025e-03 
1.7452688855148755e-02 0.0000000000000000e+00 -6.5378181292516293e-03 
1.7452688854680220e-02 0.0000000000000000e+00 -6.5378181291203463e-03 
2.3374623279336287e-02 0.0000000000000000e+00 -7.0219436583820226e-03 
2.3374623278702784e-02 0.0000000000000000e+00 -7.0219436582038275e-03 
2.9203088964088023e-02 0.0000000000000000e+00 -7.1881054889604851e-03 
2.9203088963308241e-02 0.0000000000000000e+00 -7.1881054887991810e-03 
3.4708234681570721e-02 0.0000000000000000e+00 -7.1025427793610287e-03 
3.4708234680882279e-02 0.0000000000000000e+00 -7.1025427793044195e-03 
3.9720569809088904e-02 0.0000000000000000e+00 -6.8013425035968857e-03 
3.9720569808534632e-02 0.0000000000000000e+00 -6.8013425036348310e-03 
4.4074912944714037e-02 0.0000000000000000e+00 -6.3164816678305839e-03 
4.4074912944284679e-02 0.0000000000000000e+00 -6.3164816679350429e-03 
4.7641169838659986e-02 0.0000000000000000e+00 -5.7142062846407002e-03 
4.7641169838408923e-02 0.0000000000000000e+00 -5.7142062847942805e-03 
5.0412632246523786e-02 0.0000000000000000e+00 -5.0825726780085439e-03 
5.0412632246527103e-02 0.0000000000000000e+00 -5.0825726781525780e-03 
5.2467838240819450e-02 0.0000000000000000e+00 -4.4799462131778290e-03 
5.2467838240998696e-02 0.0000000000000000e+00 -4.4799462132266484e-03 
5.3893392524053479e-02 0.0000000000000000e+00 -3.9300329673708735e-03 
5.3893392524079091e-02 0.0000000000000000e+00 -3.9300329673248209e-03 
5.4759537896156285e-02 0.0000000000000000e+00 -3.4600518511154039e-03 
5.4759537896003387e-02 0.0000000000000000e+00 -3.4600518510681947e-03 
5.5198905612468374e-02 0.0000000000000000e+00 -3.1020957319449261e-03 
5.5198905612236948e-02 0.0000000000000000e+00 -3.1020957319723378e-03 
5.5364696503219415e-02 0.0000000000000000e+00 -2.8595025670389105e-03 
5.5364696502980836e-02 0.0000000000000000e+00 -2.8595025671706549e-03 
5.5382464597506446e-02 0.0000000000000000e+00 -2.7104341298808420e-03 
5.5382464597316189e-02 0.0000000000000000e+00 -2.7104341301847673e-03 
5.5329946052517606e-02 0.0000000000000000e+00 -2.6331307841142878e-03 
5.5329946052493903e-02 0.0000000000000000e+00 -2.6331307846277551e-03 
5.5269340720010954e-02 0.0000000000000000e+00 -2.6498639654545897e-03 
5.5267007206403873e-02 0.0000000000000000e+00 -2.6083813035978733e-03 
5.5269340720468726e-02 0.0000000000000000e+00 -2.6498639655105146e-03 
5.5267007206857316e-02 0.0000000000000000e+00 -2.6083813042124299e-03 
0.0000000000000000e+00 0.0000000000000000e+00 0.0000000000000000e+00 
1.0736758419890157e-03 0.0000000000000000e+00 1.4031714878087861e-03 
0.0000000000000000e+00 0.0000000000000000e+00 0.0000000000000000e+00 
1.0736758420471725e-03 0.0000000000000000e+00 1.4031714877603206e-03 
3.4524301777360809e-03 0.0000000000000000e+00 2.7296377930815232e-03 
3.4524301777679521e-03 0.0000000000000000e+00 2.7296377929343012e-03 
7.3122622478277591e-03 0.0000000000000000e+00 3.7561903491483270e-03 
7.3122622475550493e-03 0.0000000000000000e+00 3.7561903489583912e-03 
1.2326997541302851e-02 0.0000000000000000e+00 4.3826612836376528e-03 
1.2326997540913315e-02 0.0000000000000000e+00 4.3826612834866920e-03 
1.8057245974548771e-02 0.0000000000000000e+00 4.5470191817202693e-03 
1.8057245974049480e-02 0.0000000000000000e+00 4.5470191816308642e-03 
2.4013040010307091e-02 0.0000000000000000e+00 4.3023000616431708e-03 
2.4013040009683104e-02 0.0000000000000000e+00 4.3023000616066107e-03 
2.9806457522655063e-02 0.0000000000000000e+00 3.7781232949156019e-03 
2.9806457521908913e-02 0.0000000000000000e+00 3.7781232949920121e-03 
3.5228899828854583e-02 0.0000000000000000e+00 3.0848468113416445e-03 
3.5228899828115480e-02 0.0000000000000000e+00 3.0848468115417839e-03 
4.0135482834213101e-02 0.0000000000000000e+00 2.2814451951020452e-03 
4.0135482833621609e-02 0.0000000000000000e+00 2.2814451953457027e-03 
4.4379538809590932e-02 0.0000000000000000e+00 1.4146725435376746e-03 
4.4379538809173807e-02 0.0000000000000000e+00 1.4146725437556972e-03 
4.7841457133350536e-02 0.0000000000000000e+00 5.5202723118479133e-04 
4.7841457133074174e-02 0.0000000000000000e+00 5.5202723137663678e-04 
5.0530092762398317e-02 0.0000000000000000e+00 -2.4058104945026484e-04 
5.0530092762422742e-02 0.0000000000000000e+00 -2.4058104933884087e-04 
5.2531944348639434e-02 0.0000000000000000e+00 -9.3360784426970637e-04 
5.2531944348751830e-02 0.0000000000000000e+00 -9.3360784430517735e-04 
5.3928833705445517e-02 0.0000000000000000e+00 -1.5243528579967738e-03 
5.3928833705452497e-02 0.0000000000000000e+00 -1.5243528581397763e-03 
5.4776463716183013e-02 0.0000000000000000e+00 -1.9985241039752397e-03 
5.4776463716049960e-02 0.0000000000000000e+00 -1.9985241041167836e-03 
5.5209702640871258e-02 0.0000000000000000e+00 -2.3380020609894449e-03 
5.5209702640638431e-02 0.0000000000000000e+00 -2.3380020610467198e-03 
5.5379500184663540e-02 0.0000000000000000e+00 -2.5498033294954312e-03 
5.5379500184435666e-02 0.0000000000000000e+00 -2.5498033294553968e-03 
5.5397761496083331e-02 0.0000000000000000e+00 -2.6623451972485335e-03 
5.5397761495879612e-02 0.0000000000000000e+00 -2.6623451970457066e-03 
5.5339990996107410e-02 0.0000000000000000e+00 -2.7050384487965142e-03 
5.5339990996118554e-02 0.0000000000000000e+00 -2.7050384483778235e-03 
5.5271349622963026e-02 0.0000000000000000e+00 -2.7079828141213318e-03 
5.5271349623491478e-02 0.0000000000000000e+00 -2.7079828135712432e-03 

