# vtk DataFile Version 2.0

ASCII

DATASET UNSTRUCTURED_GRID

POINTS 86 double 

5.0000000000000003e-02  0.0000000000000000e+00  0.0000000000000000e+00
5.0000000000000003e-02  0.0000000000000000e+00  5.0000000000000003e-02
5.0000000000000003e-02  2.9999999999999999e-01  0.0000000000000000e+00
5.0000000000000003e-02  2.9999999999999999e-01  5.0000000000000003e-02
5.0000000000000003e-02  0.0000000000000000e+00  1.0000000000000001e-01
5.0000000000000003e-02  2.9999999999999999e-01  1.0000000000000001e-01
5.0000000000000003e-02  0.0000000000000000e+00  1.4999999999999999e-01
5.0000000000000003e-02  2.9999999999999999e-01  1.4999999999999999e-01
5.0000000000000003e-02  0.0000000000000000e+00  2.0000000000000001e-01
5.0000000000000003e-02  2.9999999999999999e-01  2.0000000000000001e-01
5.0000000000000003e-02  0.0000000000000000e+00  2.5000000000000000e-01
5.0000000000000003e-02  2.9999999999999999e-01  2.5000000000000000e-01
5.0000000000000003e-02  0.0000000000000000e+00  2.9999999999999999e-01
5.0000000000000003e-02  2.9999999999999999e-01  2.9999999999999999e-01
5.0000000000000003e-02  0.0000000000000000e+00  3.4999999999999998e-01
5.0000000000000003e-02  2.9999999999999999e-01  3.4999999999999998e-01
5.0000000000000003e-02  0.0000000000000000e+00  4.0000000000000002e-01
5.0000000000000003e-02  2.9999999999999999e-01  4.0000000000000002e-01
5.0000000000000003e-02  0.0000000000000000e+00  4.5000000000000001e-01
5.0000000000000003e-02  2.9999999999999999e-01  4.5000000000000001e-01
5.0000000000000003e-02  0.0000000000000000e+00  5.0000000000000000e-01
5.0000000000000003e-02  2.9999999999999999e-01  5.0000000000000000e-01
5.0000000000000003e-02  0.0000000000000000e+00  5.5000000000000004e-01
5.0000000000000003e-02  2.9999999999999999e-01  5.5000000000000004e-01
5.0000000000000003e-02  0.0000000000000000e+00  5.9999999999999998e-01
5.0000000000000003e-02  2.9999999999999999e-01  5.9999999999999998e-01
5.0000000000000003e-02  0.0000000000000000e+00  6.5000000000000002e-01
5.0000000000000003e-02  2.9999999999999999e-01  6.5000000000000002e-01
5.0000000000000003e-02  0.0000000000000000e+00  6.9999999999999996e-01
5.0000000000000003e-02  2.9999999999999999e-01  6.9999999999999996e-01
5.0000000000000003e-02  0.0000000000000000e+00  7.5000000000000000e-01
5.0000000000000003e-02  2.9999999999999999e-01  7.5000000000000000e-01
5.0000000000000003e-02  0.0000000000000000e+00  8.0000000000000004e-01
5.0000000000000003e-02  2.9999999999999999e-01  8.0000000000000004e-01
5.0000000000000003e-02  0.0000000000000000e+00  8.4999999999999998e-01
5.0000000000000003e-02  2.9999999999999999e-01  8.4999999999999998e-01
5.0000000000000003e-02  0.0000000000000000e+00  9.0000000000000002e-01
5.0000000000000003e-02  2.9999999999999999e-01  9.0000000000000002e-01
5.0000000000000003e-02  0.0000000000000000e+00  9.4999999999999996e-01
5.0000000000000003e-02  2.9999999999999999e-01  9.4999999999999996e-01
0.0000000000000000e+00  0.0000000000000000e+00  1.0000000000000000e+00
5.0000000000000003e-02  0.0000000000000000e+00  1.0000000000000000e+00
0.0000000000000000e+00  2.9999999999999999e-01  1.0000000000000000e+00
5.0000000000000003e-02  2.9999999999999999e-01  1.0000000000000000e+00
-5.0000000000000003e-02  0.0000000000000000e+00  0.0000000000000000e+00
-5.0000000000000003e-02  0.0000000000000000e+00  5.0000000000000003e-02
-5.0000000000000003e-02  2.9999999999999999e-01  0.0000000000000000e+00
-5.0000000000000003e-02  2.9999999999999999e-01  5.0000000000000003e-02
-5.0000000000000003e-02  0.0000000000000000e+00  1.0000000000000001e-01
-5.0000000000000003e-02  2.9999999999999999e-01  1.0000000000000001e-01
-5.0000000000000003e-02  0.0000000000000000e+00  1.4999999999999999e-01
-5.0000000000000003e-02  2.9999999999999999e-01  1.4999999999999999e-01
-5.0000000000000003e-02  0.0000000000000000e+00  2.0000000000000001e-01
-5.0000000000000003e-02  2.9999999999999999e-01  2.0000000000000001e-01
-5.0000000000000003e-02  0.0000000000000000e+00  2.5000000000000000e-01
-5.0000000000000003e-02  2.9999999999999999e-01  2.5000000000000000e-01
-5.0000000000000003e-02  0.0000000000000000e+00  2.9999999999999999e-01
-5.0000000000000003e-02  2.9999999999999999e-01  2.9999999999999999e-01
-5.0000000000000003e-02  0.0000000000000000e+00  3.4999999999999998e-01
-5.0000000000000003e-02  2.9999999999999999e-01  3.4999999999999998e-01
-5.0000000000000003e-02  0.0000000000000000e+00  4.0000000000000002e-01
-5.0000000000000003e-02  2.9999999999999999e-01  4.0000000000000002e-01
-5.0000000000000003e-02  0.0000000000000000e+00  4.5000000000000001e-01
-5.0000000000000003e-02  2.9999999999999999e-01  4.5000000000000001e-01
-5.0000000000000003e-02  0.0000000000000000e+00  5.0000000000000000e-01
-5.0000000000000003e-02  2.9999999999999999e-01  5.0000000000000000e-01
-5.0000000000000003e-02  0.0000000000000000e+00  5.5000000000000004e-01
-5.0000000000000003e-02  2.9999999999999999e-01  5.5000000000000004e-01
-5.0000000000000003e-02  0.0000000000000000e+00  5.9999999999999998e-01
-5.0000000000000003e-02  2.9999999999999999e-01  5.9999999999999998e-01
-5.0000000000000003e-02  0.0000000000000000e+00  6.5000000000000002e-01
-5.0000000000000003e-02  2.9999999999999999e-01  6.5000000000000002e-01
-5.0000000000000003e-02  0.0000000000000000e+00  6.9999999999999996e-01
-5.0000000000000003e-02  2.9999999999999999e-01  6.9999999999999996e-01
-5.0000000000000003e-02  0.0000000000000000e+00  7.5000000000000000e-01
-5.0000000000000003e-02  2.9999999999999999e-01  7.5000000000000000e-01
-5.0000000000000003e-02  0.0000000000000000e+00  8.0000000000000004e-01
-5.0000000000000003e-02  2.9999999999999999e-01  8.0000000000000004e-01
-5.0000000000000003e-02  0.0000000000000000e+00  8.4999999999999998e-01
-5.0000000000000003e-02  2.9999999999999999e-01  8.4999999999999998e-01
-5.0000000000000003e-02  0.0000000000000000e+00  9.0000000000000002e-01
-5.0000000000000003e-02  2.9999999999999999e-01  9.0000000000000002e-01
-5.0000000000000003e-02  0.0000000000000000e+00  9.4999999999999996e-01
-5.0000000000000003e-02  2.9999999999999999e-01  9.4999999999999996e-01
-5.0000000000000003e-02  0.0000000000000000e+00  1.0000000000000000e+00
-5.0000000000000003e-02  2.9999999999999999e-01  1.0000000000000000e+00

CELLS 0 0


CELL_TYPES 0


POINT_DATA 86

VECTORS VertexNormals double

0.0000000000000000e+00 0.0000000000000000e+00 0.0000000000000000e+00 
0.0000000000000000e+00 0.0000000000000000e+00 0.0000000000000000e+00 
0.0000000000000000e+00 0.0000000000000000e+00 0.0000000000000000e+00 
0.0000000000000000e+00 0.0000000000000000e+00 0.0000000000000000e+00 
0.0000000000000000e+00 0.0000000000000000e+00 0.0000000000000000e+00 
0.0000000000000000e+00 0.0000000000000000e+00 0.0000000000000000e+00 
0.0000000000000000e+00 0.0000000000000000e+00 0.0000000000000000e+00 
0.0000000000000000e+00 0.0000000000000000e+00 0.0000000000000000e+00 
0.0000000000000000e+00 0.0000000000000000e+00 0.0000000000000000e+00 
0.0000000000000000e+00 0.0000000000000000e+00 0.0000000000000000e+00 
0.0000000000000000e+00 0.0000000000000000e+00 0.0000000000000000e+00 
0.0000000000000000e+00 0.0000000000000000e+00 0.0000000000000000e+00 
0.0000000000000000e+00 0.0000000000000000e+00 0.0000000000000000e+00 
0.0000000000000000e+00 0.0000000000000000e+00 0.0000000000000000e+00 
0.0000000000000000e+00 0.0000000000000000e+00 0.0000000000000000e+00 
0.0000000000000000e+00 0.0000000000000000e+00 0.0000000000000000e+00 
0.0000000000000000e+00 0.0000000000000000e+00 0.0000000000000000e+00 
0.0000000000000000e+00 0.0000000000000000e+00 0.0000000000000000e+00 
0.0000000000000000e+00 0.0000000000000000e+00 0.0000000000000000e+00 
0.0000000000000000e+00 0.0000000000000000e+00 0.0000000000000000e+00 
0.0000000000000000e+00 0.0000000000000000e+00 0.0000000000000000e+00 
0.0000000000000000e+00 0.0000000000000000e+00 0.0000000000000000e+00 
0.0000000000000000e+00 0.0000000000000000e+00 0.0000000000000000e+00 
0.0000000000000000e+00 0.0000000000000000e+00 0.0000000000000000e+00 
0.0000000000000000e+00 0.0000000000000000e+00 0.0000000000000000e+00 
0.0000000000000000e+00 0.0000000000000000e+00 0.0000000000000000e+00 
0.0000000000000000e+00 0.0000000000000000e+00 0.0000000000000000e+00 
0.0000000000000000e+00 0.0000000000000000e+00 0.0000000000000000e+00 
0.0000000000000000e+00 0.0000000000000000e+00 0.0000000000000000e+00 
0.0000000000000000e+00 0.0000000000000000e+00 0.0000000000000000e+00 
0.0000000000000000e+00 0.0000000000000000e+00 0.0000000000000000e+00 
0.0000000000000000e+00 0.0000000000000000e+00 0.0000000000000000e+00 
0.0000000000000000e+00 0.0000000000000000e+00 0.0000000000000000e+00 
0.0000000000000000e+00 0.0000000000000000e+00 0.0000000000000000e+00 
0.0000000000000000e+00 0.0000000000000000e+00 0.0000000000000000e+00 
0.0000000000000000e+00 0.0000000000000000e+00 0.0000000000000000e+00 
0.0000000000000000e+00 0.0000000000000000e+00 0.0000000000000000e+00 
0.0000000000000000e+00 0.0000000000000000e+00 0.0000000000000000e+00 
0.0000000000000000e+00 0.0000000000000000e+00 0.0000000000000000e+00 
0.0000000000000000e+00 0.0000000000000000e+00 0.0000000000000000e+00 
0.0000000000000000e+00 0.0000000000000000e+00 0.0000000000000000e+00 
0.0000000000000000e+00 0.0000000000000000e+00 0.0000000000000000e+00 
0.0000000000000000e+00 0.0000000000000000e+00 0.0000000000000000e+00 
0.0000000000000000e+00 0.0000000000000000e+00 0.0000000000000000e+00 
0.0000000000000000e+00 0.0000000000000000e+00 0.0000000000000000e+00 
0.0000000000000000e+00 0.0000000000000000e+00 0.0000000000000000e+00 
0.0000000000000000e+00 0.0000000000000000e+00 0.0000000000000000e+00 
0.0000000000000000e+00 0.0000000000000000e+00 0.0000000000000000e+00 
0.0000000000000000e+00 0.0000000000000000e+00 0.0000000000000000e+00 
0.0000000000000000e+00 0.0000000000000000e+00 0.0000000000000000e+00 
0.0000000000000000e+00 0.0000000000000000e+00 0.0000000000000000e+00 
0.0000000000000000e+00 0.0000000000000000e+00 0.0000000000000000e+00 
0.0000000000000000e+00 0.0000000000000000e+00 0.0000000000000000e+00 
0.0000000000000000e+00 0.0000000000000000e+00 0.0000000000000000e+00 
0.0000000000000000e+00 0.0000000000000000e+00 0.0000000000000000e+00 
0.0000000000000000e+00 0.0000000000000000e+00 0.0000000000000000e+00 
0.0000000000000000e+00 0.0000000000000000e+00 0.0000000000000000e+00 
0.0000000000000000e+00 0.0000000000000000e+00 0.0000000000000000e+00 
0.0000000000000000e+00 0.0000000000000000e+00 0.0000000000000000e+00 
0.0000000000000000e+00 0.0000000000000000e+00 0.0000000000000000e+00 
0.0000000000000000e+00 0.0000000000000000e+00 0.0000000000000000e+00 
0.0000000000000000e+00 0.0000000000000000e+00 0.0000000000000000e+00 
0.0000000000000000e+00 0.0000000000000000e+00 0.0000000000000000e+00 
0.0000000000000000e+00 0.0000000000000000e+00 0.0000000000000000e+00 
0.0000000000000000e+00 0.0000000000000000e+00 0.0000000000000000e+00 
0.0000000000000000e+00 0.0000000000000000e+00 0.0000000000000000e+00 
0.0000000000000000e+00 0.0000000000000000e+00 0.0000000000000000e+00 
0.0000000000000000e+00 0.0000000000000000e+00 0.0000000000000000e+00 
0.0000000000000000e+00 0.0000000000000000e+00 0.0000000000000000e+00 
0.0000000000000000e+00 0.0000000000000000e+00 0.0000000000000000e+00 
0.0000000000000000e+00 0.0000000000000000e+00 0.0000000000000000e+00 
0.0000000000000000e+00 0.0000000000000000e+00 0.0000000000000000e+00 
0.0000000000000000e+00 0.0000000000000000e+00 0.0000000000000000e+00 
0.0000000000000000e+00 0.0000000000000000e+00 0.0000000000000000e+00 
0.0000000000000000e+00 0.0000000000000000e+00 0.0000000000000000e+00 
0.0000000000000000e+00 0.0000000000000000e+00 0.0000000000000000e+00 
0.0000000000000000e+00 0.0000000000000000e+00 0.0000000000000000e+00 
0.0000000000000000e+00 0.0000000000000000e+00 0.0000000000000000e+00 
0.0000000000000000e+00 0.0000000000000000e+00 0.0000000000000000e+00 
0.0000000000000000e+00 0.0000000000000000e+00 0.0000000000000000e+00 
0.0000000000000000e+00 0.0000000000000000e+00 0.0000000000000000e+00 
0.0000000000000000e+00 0.0000000000000000e+00 0.0000000000000000e+00 
0.0000000000000000e+00 0.0000000000000000e+00 0.0000000000000000e+00 
0.0000000000000000e+00 0.0000000000000000e+00 0.0000000000000000e+00 
0.0000000000000000e+00 0.0000000000000000e+00 0.0000000000000000e+00 
0.0000000000000000e+00 0.0000000000000000e+00 0.0000000000000000e+00 

VECTORS Forces0 double
-7.9579633019340831e-02 0.0000000000000000e+00 2.9176919584447442e-03 
-9.4775840797864830e-02 0.0000000000000000e+00 2.2395851213667314e-03 
-7.9579632850299689e-02 0.0000000000000000e+00 2.9176919915986956e-03 
-9.4775839945335671e-02 0.0000000000000000e+00 2.2395851217962494e-03 
-1.5023977130679539e-01 0.0000000000000000e+00 1.0827423052500647e-02 
-1.5023977088026391e-01 0.0000000000000000e+00 1.0827423102778771e-02 
-1.1629304458414789e-01 0.0000000000000000e+00 1.3455068733689178e-02 
-1.1629304458232217e-01 0.0000000000000000e+00 1.3455068833842655e-02 
-1.0220918276629574e-01 0.0000000000000000e+00 1.4306866725413319e-02 
-1.0220918344847744e-01 0.0000000000000000e+00 1.4306866758990395e-02 
-1.1364381925294610e-01 0.0000000000000000e+00 1.8563823092018823e-02 
-1.1364381925390078e-01 0.0000000000000000e+00 1.8563823141904637e-02 
-1.3949575551265181e-01 0.0000000000000000e+00 2.7693779309268602e-02 
-1.3949575611149231e-01 0.0000000000000000e+00 2.7693779292488060e-02 
-9.8271185081782161e-02 0.0000000000000000e+00 2.2530761637010802e-02 
-9.8271184739572401e-02 0.0000000000000000e+00 2.2530761687473099e-02 
-7.7848809983552258e-02 0.0000000000000000e+00 1.9131705225375190e-02 
-7.7848810238213231e-02 0.0000000000000000e+00 1.9131705342629358e-02 
-8.1439746020628201e-02 0.0000000000000000e+00 2.1147080714314512e-02 
-8.1439745677604591e-02 0.0000000000000000e+00 2.1147080730802133e-02 
-8.9601834332098867e-02 0.0000000000000000e+00 2.5339480828734533e-02 
-8.9601834587711468e-02 0.0000000000000000e+00 2.5339480711926272e-02 
-4.9827154194511038e-02 0.0000000000000000e+00 1.5527926647375290e-02 
-4.9827153683415677e-02 0.0000000000000000e+00 1.5527926563236679e-02 
-2.8373464081312728e-02 0.0000000000000000e+00 9.6234266812510929e-03 
-2.8373463910203071e-02 0.0000000000000000e+00 9.6234265800671480e-03 
-2.7563387493512337e-02 0.0000000000000000e+00 9.6646881528595543e-03 
-2.7563387408513565e-02 0.0000000000000000e+00 9.6646881192768846e-03 
-2.3074584220545334e-02 0.0000000000000000e+00 9.0163418156216698e-03 
-2.3074584135718168e-02 0.0000000000000000e+00 9.0163417988850560e-03 
5.0744104924682768e-03 0.0000000000000000e+00 8.5165855030454833e-05 
5.0744104070301688e-03 0.0000000000000000e+00 8.5165921758051128e-05 
2.2710858170873271e-02 0.0000000000000000e+00 -5.6579918540739437e-03 
2.2710858510933081e-02 0.0000000000000000e+00 -5.6579918207157638e-03 
2.4780513669799626e-02 0.0000000000000000e+00 -6.2060170618758069e-03 
2.4780513583306667e-02 0.0000000000000000e+00 -6.2060170957006413e-03 
3.6093167011663006e-02 0.0000000000000000e+00 -9.7402749365650479e-03 
3.6093166926711266e-02 0.0000000000000000e+00 -9.7402748698727330e-03 
5.9912679660599134e-02 0.0000000000000000e+00 -1.6566182942837227e-02 
5.9912679745755246e-02 0.0000000000000000e+00 -1.6566182959792158e-02 
1.2022737544271297e-01 0.0000000000000000e+00 3.4562605556036374e-01 
3.0432972248510166e-02 0.0000000000000000e+00 5.2766080634628489e-02 
1.2022737544125972e-01 0.0000000000000000e+00 3.4562605552605796e-01 
3.0432971991873572e-02 0.0000000000000000e+00 5.2766080617834547e-02 
4.1245623593529529e-01 0.0000000000000000e+00 -1.0605418750899169e-02 
1.1714180714661009e+00 0.0000000000000000e+00 -3.6759263114923488e-02 
4.1245623636170436e-01 0.0000000000000000e+00 -1.0605418684301253e-02 
1.1714180717213165e+00 0.0000000000000000e+00 -3.6759263181985337e-02 
1.1916786873377048e+00 0.0000000000000000e+00 -8.4676599062100025e-02 
1.1916786869111258e+00 0.0000000000000000e+00 -8.4676599112625706e-02 
1.0413423081545596e+00 0.0000000000000000e+00 -1.1423504029786803e-01 
1.0413423081550397e+00 0.0000000000000000e+00 -1.1423504033092939e-01 
1.0258793185905148e+00 0.0000000000000000e+00 -1.3875126525652595e-01 
1.0258793183350039e+00 0.0000000000000000e+00 -1.3875126525668396e-01 
1.0207547274366642e+00 0.0000000000000000e+00 -1.6364992220540470e-01 
1.0207547271811304e+00 0.0000000000000000e+00 -1.6364992217165211e-01 
1.1572595446353613e+00 0.0000000000000000e+00 -2.2292439561167451e-01 
1.1572595444657037e+00 0.0000000000000000e+00 -2.2292439556130822e-01 
9.7252765020313625e-01 0.0000000000000000e+00 -2.1234512509521694e-01 
9.7252764994810248e-01 0.0000000000000000e+00 -2.1234512504503239e-01 
9.4803096708132173e-01 0.0000000000000000e+00 -2.2113874755414992e-01 
9.4803096708158974e-01 0.0000000000000000e+00 -2.2113874758764687e-01 
9.2954059778435549e-01 0.0000000000000000e+00 -2.3065521122709839e-01 
9.2954059769829855e-01 0.0000000000000000e+00 -2.3065521126062460e-01 
1.0333905018634448e+00 0.0000000000000000e+00 -2.7603926604817713e-01 
1.0333905019476151e+00 0.0000000000000000e+00 -2.7603926604812518e-01 
8.5206991875878590e-01 0.0000000000000000e+00 -2.4049332954913086e-01 
8.5206991858824765e-01 0.0000000000000000e+00 -2.4049332953237657e-01 
8.1863808298074903e-01 0.0000000000000000e+00 -2.3795509587274463e-01 
8.1863808298060359e-01 0.0000000000000000e+00 -2.3795509588927335e-01 
7.8938536300444284e-01 0.0000000000000000e+00 -2.3616834970672146e-01 
7.8938536317501307e-01 0.0000000000000000e+00 -2.3616834969009837e-01 
8.5335576468008711e-01 0.0000000000000000e+00 -2.6484893402719123e-01 
8.5335576476523667e-01 0.0000000000000000e+00 -2.6484893402736498e-01 
6.7817604766071027e-01 0.0000000000000000e+00 -2.1711363929536304e-01 
6.7817604774594420e-01 0.0000000000000000e+00 -2.1711363929536379e-01 
6.2917351089789930e-01 0.0000000000000000e+00 -2.0424905668710058e-01 
6.2917351089820317e-01 0.0000000000000000e+00 -2.0424905668714802e-01 
5.8133594608066164e-01 0.0000000000000000e+00 -1.9114080651440965e-01 
5.8133594599555161e-01 0.0000000000000000e+00 -1.9114080651449403e-01 
5.6950798516174128e-01 0.0000000000000000e+00 -1.9151063619119868e-01 
5.6950798541761505e-01 0.0000000000000000e+00 -1.9151063619139619e-01 
3.9730377891354918e-01 0.0000000000000000e+00 -1.2737003708440553e-01 
3.9730377899882896e-01 0.0000000000000000e+00 -1.2737003708442246e-01 
2.0282657861130493e-01 0.0000000000000000e+00 1.3312275769614623e-01 
2.0282657861130912e-01 0.0000000000000000e+00 1.3312275769613435e-01 

VECTORS Displacements0 double
6.9356603593235591e-310 0.0000000000000000e+00 0.0000000000000000e+00 
1.1882183206284227e-03 0.0000000000000000e+00 -1.7775937714396379e-03 
0.0000000000000000e+00 0.0000000000000000e+00 0.0000000000000000e+00 
1.1882183207160999e-03 0.0000000000000000e+00 -1.7775937715458141e-03 
3.7453950893624297e-03 0.0000000000000000e+00 -3.6237871472339818e-03 
3.7453950895534219e-03 0.0000000000000000e+00 -3.6237871473366163e-03 
7.9763938908999407e-03 0.0000000000000000e+00 -5.4742923748423000e-03 
7.9763938911616965e-03 0.0000000000000000e+00 -5.4742923748241339e-03 
1.3754943203965591e-02 0.0000000000000000e+00 -7.4031869281538671e-03 
1.3754943203981358e-02 0.0000000000000000e+00 -7.4031869280309377e-03 
2.1026297679686355e-02 0.0000000000000000e+00 -9.4137119348001921e-03 
2.1026297679442939e-02 0.0000000000000000e+00 -9.4137119346859397e-03 
2.9657434280374966e-02 0.0000000000000000e+00 -1.1484340503135602e-02 
2.9657434279954292e-02 0.0000000000000000e+00 -1.1484340503087442e-02 
3.9462342038182496e-02 0.0000000000000000e+00 -1.3596445872845043e-02 
3.9462342037624568e-02 0.0000000000000000e+00 -1.3596445872837952e-02 
5.0250660009775037e-02 0.0000000000000000e+00 -1.5757755134709624e-02 
5.0250660009148809e-02 0.0000000000000000e+00 -1.5757755134723352e-02 
6.1890541084521536e-02 0.0000000000000000e+00 -1.7994822125523228e-02 
6.1890541083817439e-02 0.0000000000000000e+00 -1.7994822125588034e-02 
7.4302809879421672e-02 0.0000000000000000e+00 -2.0321042672265602e-02 
7.4302809878850587e-02 0.0000000000000000e+00 -2.0321042672434259e-02 
8.7401694235275773e-02 0.0000000000000000e+00 -2.2722254554623310e-02 
8.7401694234787886e-02 0.0000000000000000e+00 -2.2722254554871993e-02 
1.0107023952500138e-01 0.0000000000000000e+00 -2.5181263237409410e-02 
1.0107023952474860e-01 0.0000000000000000e+00 -2.5181263237717383e-02 
1.1521094342923470e-01 0.0000000000000000e+00 -2.7705273978064018e-02 
1.1521094342917547e-01 0.0000000000000000e+00 -2.7705273978372819e-02 
1.2978543088980815e-01 0.0000000000000000e+00 -3.0312048139995395e-02 
1.2978543089000505e-01 0.0000000000000000e+00 -3.0312048140205862e-02 
1.4478103947082860e-01 0.0000000000000000e+00 -3.2993406983601613e-02 
1.4478103947105081e-01 0.0000000000000000e+00 -3.2993406983611598e-02 
1.6014755501044273e-01 0.0000000000000000e+00 -3.5707664324864906e-02 
1.6014755501044795e-01 0.0000000000000000e+00 -3.5707664324704756e-02 
1.7578459575149133e-01 0.0000000000000000e+00 -3.8410880508236878e-02 
1.7578459575125377e-01 0.0000000000000000e+00 -3.8410880508001080e-02 
1.9158937817130703e-01 0.0000000000000000e+00 -4.1083771188658795e-02 
1.9158937817091076e-01 0.0000000000000000e+00 -4.1083771188424469e-02 
2.0748501209493037e-01 0.0000000000000000e+00 -4.3724329052442341e-02 
2.0748501209445638e-01 0.0000000000000000e+00 -4.3724329052234792e-02 
2.2600521493471828e-01 0.0000000000000000e+00 -3.0423169601537139e-02 
2.2340458927942114e-01 0.0000000000000000e+00 -4.6336901533955401e-02 
2.2600521493418543e-01 0.0000000000000000e+00 -3.0423169601386930e-02 
2.2340458927889903e-01 0.0000000000000000e+00 -4.6336901533755831e-02 
0.0000000000000000e+00 0.0000000000000000e+00 0.0000000000000000e+00 
1.2735315721271437e-03 0.0000000000000000e+00 1.6825171483533076e-03 
0.0000000000000000e+00 0.0000000000000000e+00 0.0000000000000000e+00 
1.2735315722244699e-03 0.0000000000000000e+00 1.6825171483910958e-03 
4.0197693143676494e-03 0.0000000000000000e+00 3.3115481725775821e-03 
4.0197693145845688e-03 0.0000000000000000e+00 3.3115481725581450e-03 
8.5244635799443854e-03 0.0000000000000000e+00 4.7185337437412756e-03 
8.5244635801536173e-03 0.0000000000000000e+00 4.7185337435732997e-03 
1.4666228760870526e-02 0.0000000000000000e+00 5.8765319379604245e-03 
1.4666228760769631e-02 0.0000000000000000e+00 5.8765319377055763e-03 
2.2357682863615301e-02 0.0000000000000000e+00 6.7098140547638511e-03 
2.2357682863274903e-02 0.0000000000000000e+00 6.7098140545170841e-03 
3.1433668810564024e-02 0.0000000000000000e+00 7.1589812588310009e-03 
3.1433668810072556e-02 0.0000000000000000e+00 7.1589812586302015e-03 
4.1669350723549610e-02 0.0000000000000000e+00 7.2133522551886559e-03 
4.1669350722980267e-02 0.0000000000000000e+00 7.2133522550217617e-03 
5.2871713711395062e-02 0.0000000000000000e+00 6.9090206927538127e-03 
5.2871713710723682e-02 0.0000000000000000e+00 6.9090206926408970e-03 
6.4906449305063355e-02 0.0000000000000000e+00 6.2949643136703962e-03 
6.4906449304409156e-02 0.0000000000000000e+00 6.2949643136366697e-03 
7.7691430910741724e-02 0.0000000000000000e+00 5.3952877740385792e-03 
7.7691430910219142e-02 0.0000000000000000e+00 5.3952877740779002e-03 
9.1123002671961814e-02 0.0000000000000000e+00 4.2226711259354694e-03 
9.1123002671620740e-02 0.0000000000000000e+00 4.2226711260055375e-03 
1.0508966277750295e-01 0.0000000000000000e+00 2.8052164361357279e-03 
1.0508966277737684e-01 0.0000000000000000e+00 2.8052164361955941e-03 
1.1950219090909669e-01 0.0000000000000000e+00 1.1907606544463234e-03 
1.1950219090920024e-01 0.0000000000000000e+00 1.1907606544426827e-03 
1.3433326411885477e-01 0.0000000000000000e+00 -5.9247678891147834e-04 
1.3433326411909863e-01 0.0000000000000000e+00 -5.9247678904301060e-04 
1.4955737250427065e-01 0.0000000000000000e+00 -2.5479630503241679e-03 
1.4955737250443202e-01 0.0000000000000000e+00 -2.5479630505674008e-03 
1.6511022958368762e-01 0.0000000000000000e+00 -4.6879081763658058e-03 
1.6511022958357846e-01 0.0000000000000000e+00 -4.6879081765934310e-03 
1.8087696014879998e-01 0.0000000000000000e+00 -6.9940364223496183e-03 
1.8087696014847876e-01 0.0000000000000000e+00 -6.9940364224813324e-03 
1.9675844706648937e-01 0.0000000000000000e+00 -9.4267558691481842e-03 
1.9675844706600573e-01 0.0000000000000000e+00 -9.4267558691517248e-03 
2.1268529895418933e-01 0.0000000000000000e+00 -1.1946651929110454e-02 
2.1268529895367924e-01 0.0000000000000000e+00 -1.1946651929029212e-02 
2.2860995360702907e-01 0.0000000000000000e+00 -1.4519773458139996e-02 
2.2860995360650999e-01 0.0000000000000000e+00 -1.4519773458023610e-02 

