# vtk DataFile Version 2.0

ASCII

DATASET UNSTRUCTURED_GRID

POINTS 86 double 

5.0000000000000003e-02  0.0000000000000000e+00  0.0000000000000000e+00
5.0000000000000003e-02  0.0000000000000000e+00  5.0000000000000003e-02
5.0000000000000003e-02  2.9999999999999999e-01  0.0000000000000000e+00
5.0000000000000003e-02  2.9999999999999999e-01  5.0000000000000003e-02
5.0000000000000003e-02  0.0000000000000000e+00  1.0000000000000001e-01
5.0000000000000003e-02  2.9999999999999999e-01  1.0000000000000001e-01
5.0000000000000003e-02  0.0000000000000000e+00  1.4999999999999999e-01
5.0000000000000003e-02  2.9999999999999999e-01  1.4999999999999999e-01
5.0000000000000003e-02  0.0000000000000000e+00  2.0000000000000001e-01
5.0000000000000003e-02  2.9999999999999999e-01  2.0000000000000001e-01
5.0000000000000003e-02  0.0000000000000000e+00  2.5000000000000000e-01
5.0000000000000003e-02  2.9999999999999999e-01  2.5000000000000000e-01
5.0000000000000003e-02  0.0000000000000000e+00  2.9999999999999999e-01
5.0000000000000003e-02  2.9999999999999999e-01  2.9999999999999999e-01
5.0000000000000003e-02  0.0000000000000000e+00  3.4999999999999998e-01
5.0000000000000003e-02  2.9999999999999999e-01  3.4999999999999998e-01
5.0000000000000003e-02  0.0000000000000000e+00  4.0000000000000002e-01
5.0000000000000003e-02  2.9999999999999999e-01  4.0000000000000002e-01
5.0000000000000003e-02  0.0000000000000000e+00  4.5000000000000001e-01
5.0000000000000003e-02  2.9999999999999999e-01  4.5000000000000001e-01
5.0000000000000003e-02  0.0000000000000000e+00  5.0000000000000000e-01
5.0000000000000003e-02  2.9999999999999999e-01  5.0000000000000000e-01
5.0000000000000003e-02  0.0000000000000000e+00  5.5000000000000004e-01
5.0000000000000003e-02  2.9999999999999999e-01  5.5000000000000004e-01
5.0000000000000003e-02  0.0000000000000000e+00  5.9999999999999998e-01
5.0000000000000003e-02  2.9999999999999999e-01  5.9999999999999998e-01
5.0000000000000003e-02  0.0000000000000000e+00  6.5000000000000002e-01
5.0000000000000003e-02  2.9999999999999999e-01  6.5000000000000002e-01
5.0000000000000003e-02  0.0000000000000000e+00  6.9999999999999996e-01
5.0000000000000003e-02  2.9999999999999999e-01  6.9999999999999996e-01
5.0000000000000003e-02  0.0000000000000000e+00  7.5000000000000000e-01
5.0000000000000003e-02  2.9999999999999999e-01  7.5000000000000000e-01
5.0000000000000003e-02  0.0000000000000000e+00  8.0000000000000004e-01
5.0000000000000003e-02  2.9999999999999999e-01  8.0000000000000004e-01
5.0000000000000003e-02  0.0000000000000000e+00  8.4999999999999998e-01
5.0000000000000003e-02  2.9999999999999999e-01  8.4999999999999998e-01
5.0000000000000003e-02  0.0000000000000000e+00  9.0000000000000002e-01
5.0000000000000003e-02  2.9999999999999999e-01  9.0000000000000002e-01
5.0000000000000003e-02  0.0000000000000000e+00  9.4999999999999996e-01
5.0000000000000003e-02  2.9999999999999999e-01  9.4999999999999996e-01
0.0000000000000000e+00  0.0000000000000000e+00  1.0000000000000000e+00
5.0000000000000003e-02  0.0000000000000000e+00  1.0000000000000000e+00
0.0000000000000000e+00  2.9999999999999999e-01  1.0000000000000000e+00
5.0000000000000003e-02  2.9999999999999999e-01  1.0000000000000000e+00
-5.0000000000000003e-02  0.0000000000000000e+00  0.0000000000000000e+00
-5.0000000000000003e-02  0.0000000000000000e+00  5.0000000000000003e-02
-5.0000000000000003e-02  2.9999999999999999e-01  0.0000000000000000e+00
-5.0000000000000003e-02  2.9999999999999999e-01  5.0000000000000003e-02
-5.0000000000000003e-02  0.0000000000000000e+00  1.0000000000000001e-01
-5.0000000000000003e-02  2.9999999999999999e-01  1.0000000000000001e-01
-5.0000000000000003e-02  0.0000000000000000e+00  1.4999999999999999e-01
-5.0000000000000003e-02  2.9999999999999999e-01  1.4999999999999999e-01
-5.0000000000000003e-02  0.0000000000000000e+00  2.0000000000000001e-01
-5.0000000000000003e-02  2.9999999999999999e-01  2.0000000000000001e-01
-5.0000000000000003e-02  0.0000000000000000e+00  2.5000000000000000e-01
-5.0000000000000003e-02  2.9999999999999999e-01  2.5000000000000000e-01
-5.0000000000000003e-02  0.0000000000000000e+00  2.9999999999999999e-01
-5.0000000000000003e-02  2.9999999999999999e-01  2.9999999999999999e-01
-5.0000000000000003e-02  0.0000000000000000e+00  3.4999999999999998e-01
-5.0000000000000003e-02  2.9999999999999999e-01  3.4999999999999998e-01
-5.0000000000000003e-02  0.0000000000000000e+00  4.0000000000000002e-01
-5.0000000000000003e-02  2.9999999999999999e-01  4.0000000000000002e-01
-5.0000000000000003e-02  0.0000000000000000e+00  4.5000000000000001e-01
-5.0000000000000003e-02  2.9999999999999999e-01  4.5000000000000001e-01
-5.0000000000000003e-02  0.0000000000000000e+00  5.0000000000000000e-01
-5.0000000000000003e-02  2.9999999999999999e-01  5.0000000000000000e-01
-5.0000000000000003e-02  0.0000000000000000e+00  5.5000000000000004e-01
-5.0000000000000003e-02  2.9999999999999999e-01  5.5000000000000004e-01
-5.0000000000000003e-02  0.0000000000000000e+00  5.9999999999999998e-01
-5.0000000000000003e-02  2.9999999999999999e-01  5.9999999999999998e-01
-5.0000000000000003e-02  0.0000000000000000e+00  6.5000000000000002e-01
-5.0000000000000003e-02  2.9999999999999999e-01  6.5000000000000002e-01
-5.0000000000000003e-02  0.0000000000000000e+00  6.9999999999999996e-01
-5.0000000000000003e-02  2.9999999999999999e-01  6.9999999999999996e-01
-5.0000000000000003e-02  0.0000000000000000e+00  7.5000000000000000e-01
-5.0000000000000003e-02  2.9999999999999999e-01  7.5000000000000000e-01
-5.0000000000000003e-02  0.0000000000000000e+00  8.0000000000000004e-01
-5.0000000000000003e-02  2.9999999999999999e-01  8.0000000000000004e-01
-5.0000000000000003e-02  0.0000000000000000e+00  8.4999999999999998e-01
-5.0000000000000003e-02  2.9999999999999999e-01  8.4999999999999998e-01
-5.0000000000000003e-02  0.0000000000000000e+00  9.0000000000000002e-01
-5.0000000000000003e-02  2.9999999999999999e-01  9.0000000000000002e-01
-5.0000000000000003e-02  0.0000000000000000e+00  9.4999999999999996e-01
-5.0000000000000003e-02  2.9999999999999999e-01  9.4999999999999996e-01
-5.0000000000000003e-02  0.0000000000000000e+00  1.0000000000000000e+00
-5.0000000000000003e-02  2.9999999999999999e-01  1.0000000000000000e+00

CELLS 0 0


CELL_TYPES 0


POINT_DATA 86

VECTORS VertexNormals double

0.0000000000000000e+00 0.0000000000000000e+00 0.0000000000000000e+00 
0.0000000000000000e+00 0.0000000000000000e+00 0.0000000000000000e+00 
0.0000000000000000e+00 0.0000000000000000e+00 0.0000000000000000e+00 
0.0000000000000000e+00 0.0000000000000000e+00 0.0000000000000000e+00 
0.0000000000000000e+00 0.0000000000000000e+00 0.0000000000000000e+00 
0.0000000000000000e+00 0.0000000000000000e+00 0.0000000000000000e+00 
0.0000000000000000e+00 0.0000000000000000e+00 0.0000000000000000e+00 
0.0000000000000000e+00 0.0000000000000000e+00 0.0000000000000000e+00 
0.0000000000000000e+00 0.0000000000000000e+00 0.0000000000000000e+00 
0.0000000000000000e+00 0.0000000000000000e+00 0.0000000000000000e+00 
0.0000000000000000e+00 0.0000000000000000e+00 0.0000000000000000e+00 
0.0000000000000000e+00 0.0000000000000000e+00 0.0000000000000000e+00 
0.0000000000000000e+00 0.0000000000000000e+00 0.0000000000000000e+00 
0.0000000000000000e+00 0.0000000000000000e+00 0.0000000000000000e+00 
0.0000000000000000e+00 0.0000000000000000e+00 0.0000000000000000e+00 
0.0000000000000000e+00 0.0000000000000000e+00 0.0000000000000000e+00 
0.0000000000000000e+00 0.0000000000000000e+00 0.0000000000000000e+00 
0.0000000000000000e+00 0.0000000000000000e+00 0.0000000000000000e+00 
0.0000000000000000e+00 0.0000000000000000e+00 0.0000000000000000e+00 
0.0000000000000000e+00 0.0000000000000000e+00 0.0000000000000000e+00 
0.0000000000000000e+00 0.0000000000000000e+00 0.0000000000000000e+00 
0.0000000000000000e+00 0.0000000000000000e+00 0.0000000000000000e+00 
0.0000000000000000e+00 0.0000000000000000e+00 0.0000000000000000e+00 
0.0000000000000000e+00 0.0000000000000000e+00 0.0000000000000000e+00 
0.0000000000000000e+00 0.0000000000000000e+00 0.0000000000000000e+00 
0.0000000000000000e+00 0.0000000000000000e+00 0.0000000000000000e+00 
0.0000000000000000e+00 0.0000000000000000e+00 0.0000000000000000e+00 
0.0000000000000000e+00 0.0000000000000000e+00 0.0000000000000000e+00 
0.0000000000000000e+00 0.0000000000000000e+00 0.0000000000000000e+00 
0.0000000000000000e+00 0.0000000000000000e+00 0.0000000000000000e+00 
0.0000000000000000e+00 0.0000000000000000e+00 0.0000000000000000e+00 
0.0000000000000000e+00 0.0000000000000000e+00 0.0000000000000000e+00 
0.0000000000000000e+00 0.0000000000000000e+00 0.0000000000000000e+00 
0.0000000000000000e+00 0.0000000000000000e+00 0.0000000000000000e+00 
0.0000000000000000e+00 0.0000000000000000e+00 0.0000000000000000e+00 
0.0000000000000000e+00 0.0000000000000000e+00 0.0000000000000000e+00 
0.0000000000000000e+00 0.0000000000000000e+00 0.0000000000000000e+00 
0.0000000000000000e+00 0.0000000000000000e+00 0.0000000000000000e+00 
0.0000000000000000e+00 0.0000000000000000e+00 0.0000000000000000e+00 
0.0000000000000000e+00 0.0000000000000000e+00 0.0000000000000000e+00 
0.0000000000000000e+00 0.0000000000000000e+00 0.0000000000000000e+00 
0.0000000000000000e+00 0.0000000000000000e+00 0.0000000000000000e+00 
0.0000000000000000e+00 0.0000000000000000e+00 0.0000000000000000e+00 
0.0000000000000000e+00 0.0000000000000000e+00 0.0000000000000000e+00 
0.0000000000000000e+00 0.0000000000000000e+00 0.0000000000000000e+00 
0.0000000000000000e+00 0.0000000000000000e+00 0.0000000000000000e+00 
0.0000000000000000e+00 0.0000000000000000e+00 0.0000000000000000e+00 
0.0000000000000000e+00 0.0000000000000000e+00 0.0000000000000000e+00 
0.0000000000000000e+00 0.0000000000000000e+00 0.0000000000000000e+00 
0.0000000000000000e+00 0.0000000000000000e+00 0.0000000000000000e+00 
0.0000000000000000e+00 0.0000000000000000e+00 0.0000000000000000e+00 
0.0000000000000000e+00 0.0000000000000000e+00 0.0000000000000000e+00 
0.0000000000000000e+00 0.0000000000000000e+00 0.0000000000000000e+00 
0.0000000000000000e+00 0.0000000000000000e+00 0.0000000000000000e+00 
0.0000000000000000e+00 0.0000000000000000e+00 0.0000000000000000e+00 
0.0000000000000000e+00 0.0000000000000000e+00 0.0000000000000000e+00 
0.0000000000000000e+00 0.0000000000000000e+00 0.0000000000000000e+00 
0.0000000000000000e+00 0.0000000000000000e+00 0.0000000000000000e+00 
0.0000000000000000e+00 0.0000000000000000e+00 0.0000000000000000e+00 
0.0000000000000000e+00 0.0000000000000000e+00 0.0000000000000000e+00 
0.0000000000000000e+00 0.0000000000000000e+00 0.0000000000000000e+00 
0.0000000000000000e+00 0.0000000000000000e+00 0.0000000000000000e+00 
0.0000000000000000e+00 0.0000000000000000e+00 0.0000000000000000e+00 
0.0000000000000000e+00 0.0000000000000000e+00 0.0000000000000000e+00 
0.0000000000000000e+00 0.0000000000000000e+00 0.0000000000000000e+00 
0.0000000000000000e+00 0.0000000000000000e+00 0.0000000000000000e+00 
0.0000000000000000e+00 0.0000000000000000e+00 0.0000000000000000e+00 
0.0000000000000000e+00 0.0000000000000000e+00 0.0000000000000000e+00 
0.0000000000000000e+00 0.0000000000000000e+00 0.0000000000000000e+00 
0.0000000000000000e+00 0.0000000000000000e+00 0.0000000000000000e+00 
0.0000000000000000e+00 0.0000000000000000e+00 0.0000000000000000e+00 
0.0000000000000000e+00 0.0000000000000000e+00 0.0000000000000000e+00 
0.0000000000000000e+00 0.0000000000000000e+00 0.0000000000000000e+00 
0.0000000000000000e+00 0.0000000000000000e+00 0.0000000000000000e+00 
0.0000000000000000e+00 0.0000000000000000e+00 0.0000000000000000e+00 
0.0000000000000000e+00 0.0000000000000000e+00 0.0000000000000000e+00 
0.0000000000000000e+00 0.0000000000000000e+00 0.0000000000000000e+00 
0.0000000000000000e+00 0.0000000000000000e+00 0.0000000000000000e+00 
0.0000000000000000e+00 0.0000000000000000e+00 0.0000000000000000e+00 
0.0000000000000000e+00 0.0000000000000000e+00 0.0000000000000000e+00 
0.0000000000000000e+00 0.0000000000000000e+00 0.0000000000000000e+00 
0.0000000000000000e+00 0.0000000000000000e+00 0.0000000000000000e+00 
0.0000000000000000e+00 0.0000000000000000e+00 0.0000000000000000e+00 
0.0000000000000000e+00 0.0000000000000000e+00 0.0000000000000000e+00 
0.0000000000000000e+00 0.0000000000000000e+00 0.0000000000000000e+00 
0.0000000000000000e+00 0.0000000000000000e+00 0.0000000000000000e+00 

VECTORS Forces0 double
-1.1587158582598217e-01 0.0000000000000000e+00 3.0488390148372853e-03 
-1.9321424575952936e-01 0.0000000000000000e+00 5.3142851735117208e-03 
-1.1587158606264178e-01 0.0000000000000000e+00 3.0488391735295326e-03 
-1.9321424583799457e-01 0.0000000000000000e+00 5.3142851385183315e-03 
-2.5144183069946519e-01 0.0000000000000000e+00 1.8661510244151580e-02 
-2.5144183062053099e-01 0.0000000000000000e+00 1.8661510120237302e-02 
-2.0391208001937183e-01 0.0000000000000000e+00 2.4966722680472970e-02 
-2.0391207978228809e-01 0.0000000000000000e+00 2.4966722750752825e-02 
-1.8833509052479905e-01 0.0000000000000000e+00 2.7964703009648047e-02 
-1.8833508989350153e-01 0.0000000000000000e+00 2.7964703009622172e-02 
-1.9992628827072373e-01 0.0000000000000000e+00 3.4747730314455438e-02 
-1.9992628835052526e-01 0.0000000000000000e+00 3.4747730279063881e-02 
-2.3939284613702969e-01 0.0000000000000000e+00 4.9560148762930779e-02 
-2.3939284589837731e-01 0.0000000000000000e+00 4.9560148763139321e-02 
-1.8478531847524143e-01 0.0000000000000000e+00 4.3454938049987318e-02 
-1.8478531831912634e-01 0.0000000000000000e+00 4.3454938102719158e-02 
-1.6424810517472802e-01 0.0000000000000000e+00 4.1159566491870657e-02 
-1.6424810485826102e-01 0.0000000000000000e+00 4.1159566597824604e-02 
-1.6898808387089964e-01 0.0000000000000000e+00 4.4824640406699416e-02 
-1.6898808363419376e-01 0.0000000000000000e+00 4.4824640388849625e-02 
-1.9185777128366499e-01 0.0000000000000000e+00 5.5171715232496435e-02 
-1.9185777128417725e-01 0.0000000000000000e+00 5.5171715179583573e-02 
-1.3868278195755931e-01 0.0000000000000000e+00 4.3258300659594316e-02 
-1.3868278203701026e-01 0.0000000000000000e+00 4.3258300659552759e-02 
-1.1731992153610467e-01 0.0000000000000000e+00 3.8327847492345905e-02 
-1.1731992137814758e-01 0.0000000000000000e+00 3.8327847527398429e-02 
-1.1760044510642806e-01 0.0000000000000000e+00 4.0082635946664967e-02 
-1.1760044534375594e-01 0.0000000000000000e+00 4.0082635947208324e-02 
-1.2728475532533282e-01 0.0000000000000000e+00 4.5989123764997697e-02 
-1.2728475516830479e-01 0.0000000000000000e+00 4.5989123818303716e-02 
-8.3167499500239536e-02 0.0000000000000000e+00 3.1742560435103213e-02 
-8.3167499735965739e-02 0.0000000000000000e+00 3.1742560452785729e-02 
-6.3621070987210357e-02 0.0000000000000000e+00 2.5190541227068559e-02 
-6.3621071225964762e-02 0.0000000000000000e+00 2.5190541174005855e-02 
-6.0660996525867414e-02 0.0000000000000000e+00 2.4716871838015800e-02 
-6.0660996603468964e-02 0.0000000000000000e+00 2.4716871837990033e-02 
-5.8383523065519083e-02 0.0000000000000000e+00 2.4989504855035854e-02 
-5.8383523223008965e-02 0.0000000000000000e+00 2.4989504943101096e-02 
-2.7623227048864177e-02 0.0000000000000000e+00 1.2775303627379280e-02 
-2.7623227049505608e-02 0.0000000000000000e+00 1.2775303574194506e-02 
1.0006159942888920e-01 0.0000000000000000e+00 2.5347308551118364e-01 
-1.0327744628529449e-02 0.0000000000000000e+00 3.5802138980246721e-02 
1.0006159950910215e-01 0.0000000000000000e+00 2.5347308552879205e-01 
-1.0327744550801111e-02 0.0000000000000000e+00 3.5802139050623717e-02 
4.2927540445761081e-01 0.0000000000000000e+00 -1.0243774487044128e-02 
1.2093075225514156e+00 0.0000000000000000e+00 -3.3429683668342945e-02 
4.2927540406271653e-01 0.0000000000000000e+00 -1.0243774469537625e-02 
1.2093075227885854e+00 0.0000000000000000e+00 -3.3429683615347913e-02 
1.2371033782504670e+00 0.0000000000000000e+00 -9.1480712116959628e-02 
1.2371033784085708e+00 0.0000000000000000e+00 -9.1480712081296711e-02 
1.0790566928323972e+00 0.0000000000000000e+00 -1.2777739305807934e-01 
1.0790566926747220e+00 0.0000000000000000e+00 -1.2777739302335311e-01 
1.0614940980931680e+00 0.0000000000000000e+00 -1.5449340934688705e-01 
1.0614940978559364e+00 0.0000000000000000e+00 -1.5449340934623901e-01 
1.0565993162768514e+00 0.0000000000000000e+00 -1.8162313804389704e-01 
1.0565993160401399e+00 0.0000000000000000e+00 -1.8162313806167379e-01 
1.1991410229917743e+00 0.0000000000000000e+00 -2.4392683186361336e-01 
1.1991410230709310e+00 0.0000000000000000e+00 -2.4392683175757343e-01 
1.0065826245889009e+00 0.0000000000000000e+00 -2.3050512785894325e-01 
1.0065826245898024e+00 0.0000000000000000e+00 -2.3050512785893457e-01 
9.8009847322500987e-01 0.0000000000000000e+00 -2.3926709410371153e-01 
9.8009847290898544e-01 0.0000000000000000e+00 -2.3926709420962297e-01 
9.6189706163848321e-01 0.0000000000000000e+00 -2.4950162404784917e-01 
9.6189706163770750e-01 0.0000000000000000e+00 -2.4950162403019271e-01 
1.0710176364127402e+00 0.0000000000000000e+00 -2.9955519306350747e-01 
1.0710176361758303e+00 0.0000000000000000e+00 -2.9955519308105683e-01 
8.8096816723806981e-01 0.0000000000000000e+00 -2.6454381104022084e-01 
8.8096816739567640e-01 0.0000000000000000e+00 -2.6454381102252272e-01 
8.4315714442961476e-01 0.0000000000000000e+00 -2.6467779955482595e-01 
8.4315714442972745e-01 0.0000000000000000e+00 -2.6467779955496729e-01 
8.1184090568019118e-01 0.0000000000000000e+00 -2.6634345538346066e-01 
8.1184090560069022e-01 0.0000000000000000e+00 -2.6634345540109222e-01 
8.7609299743701563e-01 0.0000000000000000e+00 -3.0258381779876214e-01 
8.7609299743684954e-01 0.0000000000000000e+00 -3.0258381774563714e-01 
6.9632653645440035e-01 0.0000000000000000e+00 -2.4960249298059634e-01 
6.9632653645456599e-01 0.0000000000000000e+00 -2.4960249299829090e-01 
6.4703199693733682e-01 0.0000000000000000e+00 -2.3639948524940607e-01 
6.4703199693744395e-01 0.0000000000000000e+00 -2.3639948524935744e-01 
6.0167177738525590e-01 0.0000000000000000e+00 -2.2390468380520023e-01 
6.0167177746435541e-01 0.0000000000000000e+00 -2.2390468380520187e-01 
5.9807041184595511e-01 0.0000000000000000e+00 -2.2790486211715491e-01 
5.9807041184612453e-01 0.0000000000000000e+00 -2.2790486213492753e-01 
4.3504113908311781e-01 0.0000000000000000e+00 -1.6106017576940518e-01 
4.3504113924100740e-01 0.0000000000000000e+00 -1.6106017576930143e-01 
2.1589617363687316e-01 0.0000000000000000e+00 9.0523914190852595e-02 
2.1589617371549749e-01 0.0000000000000000e+00 9.0523914173232800e-02 

VECTORS Displacements0 double
6.9356603532943773e-310 0.0000000000000000e+00 0.0000000000000000e+00 
1.0401171606906879e-03 0.0000000000000000e+00 -1.8651957213660160e-03 
0.0000000000000000e+00 0.0000000000000000e+00 0.0000000000000000e+00 
1.0401171607131493e-03 0.0000000000000000e+00 -1.8651957213351535e-03 
3.5770161769720049e-03 0.0000000000000000e+00 -3.9422164526178001e-03 
3.5770161769354868e-03 0.0000000000000000e+00 -3.9422164525297291e-03 
8.0422592858025669e-03 0.0000000000000000e+00 -6.0792462138869515e-03 
8.0422592857298993e-03 0.0000000000000000e+00 -6.0792462137824752e-03 
1.4261825251333326e-02 0.0000000000000000e+00 -8.2572182902413329e-03 
1.4261825251259269e-02 0.0000000000000000e+00 -8.2572182901575562e-03 
2.2050481200085469e-02 0.0000000000000000e+00 -1.0445341305723449e-02 
2.2050481200155434e-02 0.0000000000000000e+00 -1.0445341305657484e-02 
3.1182105701850853e-02 0.0000000000000000e+00 -1.2646826462954945e-02 
3.1182105702057615e-02 0.0000000000000000e+00 -1.2646826462841147e-02 
4.1460170764504430e-02 0.0000000000000000e+00 -1.4885333319866790e-02 
4.1460170764630364e-02 0.0000000000000000e+00 -1.4885333319680151e-02 
5.2719520700283240e-02 0.0000000000000000e+00 -1.7191750911373073e-02 
5.2719520700382300e-02 0.0000000000000000e+00 -1.7191750911188495e-02 
6.4837176071809624e-02 0.0000000000000000e+00 -1.9604032491631354e-02 
6.4837176071882566e-02 0.0000000000000000e+00 -1.9604032491469327e-02 
7.7741998424191688e-02 0.0000000000000000e+00 -2.2167745459061583e-02 
7.7741998424389933e-02 0.0000000000000000e+00 -2.2167745458931454e-02 
9.1418852481028462e-02 0.0000000000000000e+00 -2.4923469447269090e-02 
9.1418852481132296e-02 0.0000000000000000e+00 -2.4923469447087628e-02 
1.0587670326514048e-01 0.0000000000000000e+00 -2.7882143596095279e-02 
1.0587670326514716e-01 0.0000000000000000e+00 -2.7882143595864464e-02 
1.2109914858564107e-01 0.0000000000000000e+00 -3.1015868476125683e-02 
1.2109914858548963e-01 0.0000000000000000e+00 -3.1015868475873520e-02 
1.3700853441930988e-01 0.0000000000000000e+00 -3.4276135092886538e-02 
1.3700853441905167e-01 0.0000000000000000e+00 -3.4276135092689730e-02 
1.5349586422238642e-01 0.0000000000000000e+00 -3.7625075794834720e-02 
1.5349586422209602e-01 0.0000000000000000e+00 -3.7625075794769432e-02 
1.7046666984877062e-01 0.0000000000000000e+00 -4.1037077892804023e-02 
1.7046666984862108e-01 0.0000000000000000e+00 -4.1037077892930950e-02 
1.8783471567608456e-01 0.0000000000000000e+00 -4.4474328986629369e-02 
1.8783471567619572e-01 0.0000000000000000e+00 -4.4474328986906862e-02 
2.0547980231880081e-01 0.0000000000000000e+00 -4.7882706963115890e-02 
2.0547980231917162e-01 0.0000000000000000e+00 -4.7882706963487009e-02 
2.2325562361279058e-01 0.0000000000000000e+00 -5.1225827533598854e-02 
2.2325562361330165e-01 0.0000000000000000e+00 -5.1225827534042867e-02 
2.4431418129998234e-01 0.0000000000000000e+00 -3.6733884604208164e-02 
2.4104603346582482e-01 0.0000000000000000e+00 -5.4512784031530551e-02 
2.4431418130077073e-01 0.0000000000000000e+00 -3.6733884604539399e-02 
2.4104603346656314e-01 0.0000000000000000e+00 -5.4512784032068232e-02 
0.0000000000000000e+00 0.0000000000000000e+00 0.0000000000000000e+00 
1.0621628869806725e-03 0.0000000000000000e+00 1.6282521626954502e-03 
0.0000000000000000e+00 0.0000000000000000e+00 0.0000000000000000e+00 
1.0621628870361283e-03 0.0000000000000000e+00 1.6282521627218121e-03 
3.8174635901771911e-03 0.0000000000000000e+00 3.3252214698250501e-03 
3.8174635901825483e-03 0.0000000000000000e+00 3.3252214698566984e-03 
8.6120567454383151e-03 0.0000000000000000e+00 4.8119904760572010e-03 
8.6120567453486160e-03 0.0000000000000000e+00 4.8119904761455990e-03 
1.5257754595335297e-02 0.0000000000000000e+00 5.9674800198600683e-03 
1.5257754595291072e-02 0.0000000000000000e+00 5.9674800200256598e-03 
2.3517561455443731e-02 0.0000000000000000e+00 6.7052555509965681e-03 
2.3517561455549441e-02 0.0000000000000000e+00 6.7052555511851134e-03 
3.3130262682683272e-02 0.0000000000000000e+00 7.0162202798854344e-03 
3.3130262682880100e-02 0.0000000000000000e+00 7.0162202800329544e-03 
4.3868547993558521e-02 0.0000000000000000e+00 6.9348502844426129e-03 
4.3868547993692893e-02 0.0000000000000000e+00 6.9348502845673595e-03 
5.5573603740232271e-02 0.0000000000000000e+00 6.5083348589254041e-03 
5.5573603740287962e-02 0.0000000000000000e+00 6.5083348590818874e-03 
6.8126959495225251e-02 0.0000000000000000e+00 5.7897877104862326e-03 
6.8126959495325115e-02 0.0000000000000000e+00 5.7897877106546144e-03 
8.1473055175706854e-02 0.0000000000000000e+00 4.8221272364483078e-03 
8.1473055175864506e-02 0.0000000000000000e+00 4.8221272365666029e-03 
9.5599680043740989e-02 0.0000000000000000e+00 3.6217822353451236e-03 
9.5599680043847626e-02 0.0000000000000000e+00 3.6217822353971545e-03 
1.1051965098942511e-01 0.0000000000000000e+00 2.1637082480511112e-03 
1.1051965098938002e-01 0.0000000000000000e+00 2.1637082480861747e-03 
1.2618913986296509e-01 0.0000000000000000e+00 4.1055386415259255e-04 
1.2618913986274355e-01 0.0000000000000000e+00 4.1055386423990016e-04 
1.4250520523026700e-01 0.0000000000000000e+00 -1.6521754389771477e-03 
1.4250520522998453e-01 0.0000000000000000e+00 -1.6521754388157618e-03 
1.5933975046634463e-01 0.0000000000000000e+00 -4.0016260424449801e-03 
1.5933975046608864e-01 0.0000000000000000e+00 -4.0016260422122791e-03 
1.7659876227689714e-01 0.0000000000000000e+00 -6.6115174523192159e-03 
1.7659876227686352e-01 0.0000000000000000e+00 -6.6115174520882496e-03 
1.9418151699723951e-01 0.0000000000000000e+00 -9.4615896616397060e-03 
1.9418151699749611e-01 0.0000000000000000e+00 -9.4615896615086251e-03 
2.1195757310020549e-01 0.0000000000000000e+00 -1.2518313176653499e-02 
2.1195757310067548e-01 0.0000000000000000e+00 -1.2518313176637675e-02 
2.2978584342677136e-01 0.0000000000000000e+00 -1.5712212877959542e-02 
2.2978584342744426e-01 0.0000000000000000e+00 -1.5712212878038357e-02 
2.4758567012518173e-01 0.0000000000000000e+00 -1.8962272644293864e-02 
2.4758567012603974e-01 0.0000000000000000e+00 -1.8962272644441988e-02 

