# vtk DataFile Version 2.0

ASCII

DATASET UNSTRUCTURED_GRID

POINTS 86 float 

5.0000000000000003e-02  0.0000000000000000e+00  0.0000000000000000e+00
5.0000000000000003e-02  0.0000000000000000e+00  5.0000000000000003e-02
5.0000000000000003e-02  2.9999999999999999e-01  0.0000000000000000e+00
5.0000000000000003e-02  2.9999999999999999e-01  5.0000000000000003e-02
5.0000000000000003e-02  0.0000000000000000e+00  1.0000000000000001e-01
5.0000000000000003e-02  2.9999999999999999e-01  1.0000000000000001e-01
5.0000000000000003e-02  0.0000000000000000e+00  1.4999999999999999e-01
5.0000000000000003e-02  2.9999999999999999e-01  1.4999999999999999e-01
5.0000000000000003e-02  0.0000000000000000e+00  2.0000000000000001e-01
5.0000000000000003e-02  2.9999999999999999e-01  2.0000000000000001e-01
5.0000000000000003e-02  0.0000000000000000e+00  2.5000000000000000e-01
5.0000000000000003e-02  2.9999999999999999e-01  2.5000000000000000e-01
5.0000000000000003e-02  0.0000000000000000e+00  2.9999999999999999e-01
5.0000000000000003e-02  2.9999999999999999e-01  2.9999999999999999e-01
5.0000000000000003e-02  0.0000000000000000e+00  3.4999999999999998e-01
5.0000000000000003e-02  2.9999999999999999e-01  3.4999999999999998e-01
5.0000000000000003e-02  0.0000000000000000e+00  4.0000000000000002e-01
5.0000000000000003e-02  2.9999999999999999e-01  4.0000000000000002e-01
5.0000000000000003e-02  0.0000000000000000e+00  4.5000000000000001e-01
5.0000000000000003e-02  2.9999999999999999e-01  4.5000000000000001e-01
5.0000000000000003e-02  0.0000000000000000e+00  5.0000000000000000e-01
5.0000000000000003e-02  2.9999999999999999e-01  5.0000000000000000e-01
5.0000000000000003e-02  0.0000000000000000e+00  5.5000000000000004e-01
5.0000000000000003e-02  2.9999999999999999e-01  5.5000000000000004e-01
5.0000000000000003e-02  0.0000000000000000e+00  5.9999999999999998e-01
5.0000000000000003e-02  2.9999999999999999e-01  5.9999999999999998e-01
5.0000000000000003e-02  0.0000000000000000e+00  6.5000000000000002e-01
5.0000000000000003e-02  2.9999999999999999e-01  6.5000000000000002e-01
5.0000000000000003e-02  0.0000000000000000e+00  6.9999999999999996e-01
5.0000000000000003e-02  2.9999999999999999e-01  6.9999999999999996e-01
5.0000000000000003e-02  0.0000000000000000e+00  7.5000000000000000e-01
5.0000000000000003e-02  2.9999999999999999e-01  7.5000000000000000e-01
5.0000000000000003e-02  0.0000000000000000e+00  8.0000000000000004e-01
5.0000000000000003e-02  2.9999999999999999e-01  8.0000000000000004e-01
5.0000000000000003e-02  0.0000000000000000e+00  8.4999999999999998e-01
5.0000000000000003e-02  2.9999999999999999e-01  8.4999999999999998e-01
5.0000000000000003e-02  0.0000000000000000e+00  9.0000000000000002e-01
5.0000000000000003e-02  2.9999999999999999e-01  9.0000000000000002e-01
5.0000000000000003e-02  0.0000000000000000e+00  9.4999999999999996e-01
5.0000000000000003e-02  2.9999999999999999e-01  9.4999999999999996e-01
0.0000000000000000e+00  0.0000000000000000e+00  1.0000000000000000e+00
5.0000000000000003e-02  0.0000000000000000e+00  1.0000000000000000e+00
0.0000000000000000e+00  2.9999999999999999e-01  1.0000000000000000e+00
5.0000000000000003e-02  2.9999999999999999e-01  1.0000000000000000e+00
-5.0000000000000003e-02  0.0000000000000000e+00  0.0000000000000000e+00
-5.0000000000000003e-02  0.0000000000000000e+00  5.0000000000000003e-02
-5.0000000000000003e-02  2.9999999999999999e-01  0.0000000000000000e+00
-5.0000000000000003e-02  2.9999999999999999e-01  5.0000000000000003e-02
-5.0000000000000003e-02  0.0000000000000000e+00  1.0000000000000001e-01
-5.0000000000000003e-02  2.9999999999999999e-01  1.0000000000000001e-01
-5.0000000000000003e-02  0.0000000000000000e+00  1.4999999999999999e-01
-5.0000000000000003e-02  2.9999999999999999e-01  1.4999999999999999e-01
-5.0000000000000003e-02  0.0000000000000000e+00  2.0000000000000001e-01
-5.0000000000000003e-02  2.9999999999999999e-01  2.0000000000000001e-01
-5.0000000000000003e-02  0.0000000000000000e+00  2.5000000000000000e-01
-5.0000000000000003e-02  2.9999999999999999e-01  2.5000000000000000e-01
-5.0000000000000003e-02  0.0000000000000000e+00  2.9999999999999999e-01
-5.0000000000000003e-02  2.9999999999999999e-01  2.9999999999999999e-01
-5.0000000000000003e-02  0.0000000000000000e+00  3.4999999999999998e-01
-5.0000000000000003e-02  2.9999999999999999e-01  3.4999999999999998e-01
-5.0000000000000003e-02  0.0000000000000000e+00  4.0000000000000002e-01
-5.0000000000000003e-02  2.9999999999999999e-01  4.0000000000000002e-01
-5.0000000000000003e-02  0.0000000000000000e+00  4.5000000000000001e-01
-5.0000000000000003e-02  2.9999999999999999e-01  4.5000000000000001e-01
-5.0000000000000003e-02  0.0000000000000000e+00  5.0000000000000000e-01
-5.0000000000000003e-02  2.9999999999999999e-01  5.0000000000000000e-01
-5.0000000000000003e-02  0.0000000000000000e+00  5.5000000000000004e-01
-5.0000000000000003e-02  2.9999999999999999e-01  5.5000000000000004e-01
-5.0000000000000003e-02  0.0000000000000000e+00  5.9999999999999998e-01
-5.0000000000000003e-02  2.9999999999999999e-01  5.9999999999999998e-01
-5.0000000000000003e-02  0.0000000000000000e+00  6.5000000000000002e-01
-5.0000000000000003e-02  2.9999999999999999e-01  6.5000000000000002e-01
-5.0000000000000003e-02  0.0000000000000000e+00  6.9999999999999996e-01
-5.0000000000000003e-02  2.9999999999999999e-01  6.9999999999999996e-01
-5.0000000000000003e-02  0.0000000000000000e+00  7.5000000000000000e-01
-5.0000000000000003e-02  2.9999999999999999e-01  7.5000000000000000e-01
-5.0000000000000003e-02  0.0000000000000000e+00  8.0000000000000004e-01
-5.0000000000000003e-02  2.9999999999999999e-01  8.0000000000000004e-01
-5.0000000000000003e-02  0.0000000000000000e+00  8.4999999999999998e-01
-5.0000000000000003e-02  2.9999999999999999e-01  8.4999999999999998e-01
-5.0000000000000003e-02  0.0000000000000000e+00  9.0000000000000002e-01
-5.0000000000000003e-02  2.9999999999999999e-01  9.0000000000000002e-01
-5.0000000000000003e-02  0.0000000000000000e+00  9.4999999999999996e-01
-5.0000000000000003e-02  2.9999999999999999e-01  9.4999999999999996e-01
-5.0000000000000003e-02  0.0000000000000000e+00  1.0000000000000000e+00
-5.0000000000000003e-02  2.9999999999999999e-01  1.0000000000000000e+00

CELLS 0 0


CELL_TYPES 0


POINT_DATA 86

VECTORS VertexNormals float

0.0000000000000000e+00 0.0000000000000000e+00 0.0000000000000000e+00 
0.0000000000000000e+00 0.0000000000000000e+00 0.0000000000000000e+00 
0.0000000000000000e+00 0.0000000000000000e+00 0.0000000000000000e+00 
0.0000000000000000e+00 0.0000000000000000e+00 0.0000000000000000e+00 
0.0000000000000000e+00 0.0000000000000000e+00 0.0000000000000000e+00 
0.0000000000000000e+00 0.0000000000000000e+00 0.0000000000000000e+00 
0.0000000000000000e+00 0.0000000000000000e+00 0.0000000000000000e+00 
0.0000000000000000e+00 0.0000000000000000e+00 0.0000000000000000e+00 
0.0000000000000000e+00 0.0000000000000000e+00 0.0000000000000000e+00 
0.0000000000000000e+00 0.0000000000000000e+00 0.0000000000000000e+00 
0.0000000000000000e+00 0.0000000000000000e+00 0.0000000000000000e+00 
0.0000000000000000e+00 0.0000000000000000e+00 0.0000000000000000e+00 
0.0000000000000000e+00 0.0000000000000000e+00 0.0000000000000000e+00 
0.0000000000000000e+00 0.0000000000000000e+00 0.0000000000000000e+00 
0.0000000000000000e+00 0.0000000000000000e+00 0.0000000000000000e+00 
0.0000000000000000e+00 0.0000000000000000e+00 0.0000000000000000e+00 
0.0000000000000000e+00 0.0000000000000000e+00 0.0000000000000000e+00 
0.0000000000000000e+00 0.0000000000000000e+00 0.0000000000000000e+00 
0.0000000000000000e+00 0.0000000000000000e+00 0.0000000000000000e+00 
0.0000000000000000e+00 0.0000000000000000e+00 0.0000000000000000e+00 
0.0000000000000000e+00 0.0000000000000000e+00 0.0000000000000000e+00 
0.0000000000000000e+00 0.0000000000000000e+00 0.0000000000000000e+00 
0.0000000000000000e+00 0.0000000000000000e+00 0.0000000000000000e+00 
0.0000000000000000e+00 0.0000000000000000e+00 0.0000000000000000e+00 
0.0000000000000000e+00 0.0000000000000000e+00 0.0000000000000000e+00 
0.0000000000000000e+00 0.0000000000000000e+00 0.0000000000000000e+00 
0.0000000000000000e+00 0.0000000000000000e+00 0.0000000000000000e+00 
0.0000000000000000e+00 0.0000000000000000e+00 0.0000000000000000e+00 
0.0000000000000000e+00 0.0000000000000000e+00 0.0000000000000000e+00 
0.0000000000000000e+00 0.0000000000000000e+00 0.0000000000000000e+00 
0.0000000000000000e+00 0.0000000000000000e+00 0.0000000000000000e+00 
0.0000000000000000e+00 0.0000000000000000e+00 0.0000000000000000e+00 
0.0000000000000000e+00 0.0000000000000000e+00 0.0000000000000000e+00 
0.0000000000000000e+00 0.0000000000000000e+00 0.0000000000000000e+00 
0.0000000000000000e+00 0.0000000000000000e+00 0.0000000000000000e+00 
0.0000000000000000e+00 0.0000000000000000e+00 0.0000000000000000e+00 
0.0000000000000000e+00 0.0000000000000000e+00 0.0000000000000000e+00 
0.0000000000000000e+00 0.0000000000000000e+00 0.0000000000000000e+00 
0.0000000000000000e+00 0.0000000000000000e+00 0.0000000000000000e+00 
0.0000000000000000e+00 0.0000000000000000e+00 0.0000000000000000e+00 
0.0000000000000000e+00 0.0000000000000000e+00 0.0000000000000000e+00 
0.0000000000000000e+00 0.0000000000000000e+00 0.0000000000000000e+00 
0.0000000000000000e+00 0.0000000000000000e+00 0.0000000000000000e+00 
0.0000000000000000e+00 0.0000000000000000e+00 0.0000000000000000e+00 
0.0000000000000000e+00 0.0000000000000000e+00 0.0000000000000000e+00 
0.0000000000000000e+00 0.0000000000000000e+00 0.0000000000000000e+00 
0.0000000000000000e+00 0.0000000000000000e+00 0.0000000000000000e+00 
0.0000000000000000e+00 0.0000000000000000e+00 0.0000000000000000e+00 
0.0000000000000000e+00 0.0000000000000000e+00 0.0000000000000000e+00 
0.0000000000000000e+00 0.0000000000000000e+00 0.0000000000000000e+00 
0.0000000000000000e+00 0.0000000000000000e+00 0.0000000000000000e+00 
0.0000000000000000e+00 0.0000000000000000e+00 0.0000000000000000e+00 
0.0000000000000000e+00 0.0000000000000000e+00 0.0000000000000000e+00 
0.0000000000000000e+00 0.0000000000000000e+00 0.0000000000000000e+00 
0.0000000000000000e+00 0.0000000000000000e+00 0.0000000000000000e+00 
0.0000000000000000e+00 0.0000000000000000e+00 0.0000000000000000e+00 
0.0000000000000000e+00 0.0000000000000000e+00 0.0000000000000000e+00 
0.0000000000000000e+00 0.0000000000000000e+00 0.0000000000000000e+00 
0.0000000000000000e+00 0.0000000000000000e+00 0.0000000000000000e+00 
0.0000000000000000e+00 0.0000000000000000e+00 0.0000000000000000e+00 
0.0000000000000000e+00 0.0000000000000000e+00 0.0000000000000000e+00 
0.0000000000000000e+00 0.0000000000000000e+00 0.0000000000000000e+00 
0.0000000000000000e+00 0.0000000000000000e+00 0.0000000000000000e+00 
0.0000000000000000e+00 0.0000000000000000e+00 0.0000000000000000e+00 
0.0000000000000000e+00 0.0000000000000000e+00 0.0000000000000000e+00 
0.0000000000000000e+00 0.0000000000000000e+00 0.0000000000000000e+00 
0.0000000000000000e+00 0.0000000000000000e+00 0.0000000000000000e+00 
0.0000000000000000e+00 0.0000000000000000e+00 0.0000000000000000e+00 
0.0000000000000000e+00 0.0000000000000000e+00 0.0000000000000000e+00 
0.0000000000000000e+00 0.0000000000000000e+00 0.0000000000000000e+00 
0.0000000000000000e+00 0.0000000000000000e+00 0.0000000000000000e+00 
0.0000000000000000e+00 0.0000000000000000e+00 0.0000000000000000e+00 
0.0000000000000000e+00 0.0000000000000000e+00 0.0000000000000000e+00 
0.0000000000000000e+00 0.0000000000000000e+00 0.0000000000000000e+00 
0.0000000000000000e+00 0.0000000000000000e+00 0.0000000000000000e+00 
0.0000000000000000e+00 0.0000000000000000e+00 0.0000000000000000e+00 
0.0000000000000000e+00 0.0000000000000000e+00 0.0000000000000000e+00 
0.0000000000000000e+00 0.0000000000000000e+00 0.0000000000000000e+00 
0.0000000000000000e+00 0.0000000000000000e+00 0.0000000000000000e+00 
0.0000000000000000e+00 0.0000000000000000e+00 0.0000000000000000e+00 
0.0000000000000000e+00 0.0000000000000000e+00 0.0000000000000000e+00 
0.0000000000000000e+00 0.0000000000000000e+00 0.0000000000000000e+00 
0.0000000000000000e+00 0.0000000000000000e+00 0.0000000000000000e+00 
0.0000000000000000e+00 0.0000000000000000e+00 0.0000000000000000e+00 
0.0000000000000000e+00 0.0000000000000000e+00 0.0000000000000000e+00 
0.0000000000000000e+00 0.0000000000000000e+00 0.0000000000000000e+00 

VECTORS Forces0 float
1.2901070685796817e-01 0.0000000000000000e+00 -6.3814458281593646e-04 
4.7387933537090160e-01 0.0000000000000000e+00 -2.7403732201141739e-02 
1.2901070672835371e-01 0.0000000000000000e+00 -6.3814459908054623e-04 
4.7387933550013156e-01 0.0000000000000000e+00 -2.7403732163682037e-02 
4.4324122396884807e-01 0.0000000000000000e+00 -3.9714779007208073e-02 
4.4324122396955945e-01 0.0000000000000000e+00 -3.9714778989955443e-02 
4.0729637983150013e-01 0.0000000000000000e+00 -4.7314104127746490e-02 
4.0729638008983937e-01 0.0000000000000000e+00 -4.7314104120919138e-02 
4.2023292109314425e-01 0.0000000000000000e+00 -5.2359500306883876e-02 
4.2023292070522283e-01 0.0000000000000000e+00 -5.2359500288855665e-02 
4.1712536930437438e-01 0.0000000000000000e+00 -5.4601665887084379e-02 
4.1712537059645655e-01 0.0000000000000000e+00 -5.4601665895581825e-02 
4.8441729113029275e-01 0.0000000000000000e+00 -6.1962774937538566e-02 
4.8441729061313316e-01 0.0000000000000000e+00 -6.1962774965521876e-02 
4.4470066342035280e-01 0.0000000000000000e+00 -5.3702938817297770e-02 
4.4470066316186746e-01 0.0000000000000000e+00 -5.3702938808102792e-02 
4.6568934109156845e-01 0.0000000000000000e+00 -5.4418018332184105e-02 
4.6568934147934560e-01 0.0000000000000000e+00 -5.4418018345470318e-02 
4.6972251698125250e-01 0.0000000000000000e+00 -5.3087807343480321e-02 
4.6972251711087892e-01 0.0000000000000000e+00 -5.3087807363035797e-02 
5.5584473186758632e-01 0.0000000000000000e+00 -5.9982576233813513e-02 
5.5584473238500565e-01 0.0000000000000000e+00 -5.9982576232500175e-02 
5.1028016277928134e-01 0.0000000000000000e+00 -5.0805235553595729e-02 
5.1028016200488779e-01 0.0000000000000000e+00 -5.0805235570607489e-02 
5.2914876485820905e-01 0.0000000000000000e+00 -4.8909423880856395e-02 
5.2914876511657072e-01 0.0000000000000000e+00 -4.8909423869962290e-02 
5.3260751483785851e-01 0.0000000000000000e+00 -4.5463757966727851e-02 
5.3260751445058785e-01 0.0000000000000000e+00 -4.5463757976438118e-02 
6.2082213413373233e-01 0.0000000000000000e+00 -4.6792095820516556e-02 
6.2082213322936974e-01 0.0000000000000000e+00 -4.6792095823765520e-02 
5.5093161758749876e-01 0.0000000000000000e+00 -3.7428563850545486e-02 
5.5093161720010431e-01 0.0000000000000000e+00 -3.7428563837771101e-02 
5.5557400783035571e-01 0.0000000000000000e+00 -3.6181092827381509e-02 
5.5557400821779612e-01 0.0000000000000000e+00 -3.6181092859321307e-02 
5.5015255103635563e-01 0.0000000000000000e+00 -3.3909767500415001e-02 
5.5015255103655969e-01 0.0000000000000000e+00 -3.3909767501490225e-02 
6.1519646613800083e-01 0.0000000000000000e+00 -3.9924505840560329e-02 
6.1519646613786871e-01 0.0000000000000000e+00 -3.9924505829761023e-02 
5.9533714907581303e-01 0.0000000000000000e+00 -2.6343161189928660e-02 
5.9533714946232130e-01 0.0000000000000000e+00 -2.6343161173591187e-02 
7.1508538710880420e-02 0.0000000000000000e+00 9.6376792635812103e-01 
2.2261055691850284e-01 0.0000000000000000e+00 2.2431115088020981e-01 
7.1508538451882195e-02 0.0000000000000000e+00 9.6376792636205422e-01 
2.2261055653162082e-01 0.0000000000000000e+00 2.2431115089727807e-01 
3.1801328743339513e-01 0.0000000000000000e+00 -7.9990173379326148e-03 
9.6161123181292452e-01 0.0000000000000000e+00 -4.9806782751239891e-02 
3.1801328717492106e-01 0.0000000000000000e+00 -7.9990173270965519e-03 
9.6161123207101640e-01 0.0000000000000000e+00 -4.9806782753225330e-02 
9.4492539001830167e-01 0.0000000000000000e+00 -8.4366728587034978e-02 
9.4492538988919517e-01 0.0000000000000000e+00 -8.4366728596456317e-02 
8.2627187746901565e-01 0.0000000000000000e+00 -9.5913270381679461e-02 
8.2627187798562529e-01 0.0000000000000000e+00 -9.5913270400058287e-02 
8.1840617212518940e-01 0.0000000000000000e+00 -1.0213974902508333e-01 
8.1840617147968220e-01 0.0000000000000000e+00 -1.0213974903511300e-01 
8.0720169162651811e-01 0.0000000000000000e+00 -1.0626489470638643e-01 
8.0720169162641209e-01 0.0000000000000000e+00 -1.0626489470138920e-01 
9.1342714003056635e-01 0.0000000000000000e+00 -1.1781636727761356e-01 
9.1342714003090020e-01 0.0000000000000000e+00 -1.1781636727642181e-01 
7.8431246799638710e-01 0.0000000000000000e+00 -9.5688348984026325e-02 
7.8431246838381241e-01 0.0000000000000000e+00 -9.5688349005466258e-02 
7.7868891168383703e-01 0.0000000000000000e+00 -9.2142987661359921e-02 
7.7868891168417187e-01 0.0000000000000000e+00 -9.2142987643080002e-02 
7.6475193585705903e-01 0.0000000000000000e+00 -8.7625736675790822e-02 
7.6475193559864818e-01 0.0000000000000000e+00 -8.7625736665015413e-02 
8.5418152376925316e-01 0.0000000000000000e+00 -9.3399368639487793e-02 
8.5418152389871627e-01 0.0000000000000000e+00 -9.3399368646676986e-02 
7.1983979793463992e-01 0.0000000000000000e+00 -7.2652909708065469e-02 
7.1983979767621931e-01 0.0000000000000000e+00 -7.2652909719244707e-02 
7.0394341404950878e-01 0.0000000000000000e+00 -6.6151955550878064e-02 
7.0394341417859763e-01 0.0000000000000000e+00 -6.6151955558120951e-02 
6.7755674997433657e-01 0.0000000000000000e+00 -5.8671774018366360e-02 
6.7755674984528758e-01 0.0000000000000000e+00 -5.8671774011535123e-02 
7.3191937002179097e-01 0.0000000000000000e+00 -5.5692539105846414e-02 
7.3191937015102504e-01 0.0000000000000000e+00 -5.5692539108815171e-02 
5.9087102111087453e-01 0.0000000000000000e+00 -4.0477573504910380e-02 
5.9087102124009527e-01 0.0000000000000000e+00 -4.0477573501306090e-02 
5.4956042706047215e-01 0.0000000000000000e+00 -3.6139031226906211e-02 
5.4956042693111629e-01 0.0000000000000000e+00 -3.6139031226843421e-02 
4.9276750087240523e-01 0.0000000000000000e+00 -3.0356635880520740e-02 
4.9276750074324205e-01 0.0000000000000000e+00 -3.0356635884820803e-02 
4.4477608395401230e-01 0.0000000000000000e+00 -3.2111311347363863e-02 
4.4477608395426971e-01 0.0000000000000000e+00 -3.2111311350990067e-02 
2.1482330863961069e-01 0.0000000000000000e+00 1.9112142031312671e-03 
2.1482330876870867e-01 0.0000000000000000e+00 1.9112141998737688e-03 
8.3415285815981732e-02 0.0000000000000000e+00 3.7668740337791118e-01 
8.3415285686773213e-02 0.0000000000000000e+00 3.7668740337829043e-01 

VECTORS Displacements0 float
6.9356603523157320e-310 0.0000000000000000e+00 0.0000000000000000e+00 
1.9722484702901456e-03 0.0000000000000000e+00 -2.2970540083125162e-03 
0.0000000000000000e+00 0.0000000000000000e+00 0.0000000000000000e+00 
1.9722484700757138e-03 0.0000000000000000e+00 -2.2970540081907040e-03 
5.4213113743656598e-03 0.0000000000000000e+00 -4.2470970870831116e-03 
5.4213113740129342e-03 0.0000000000000000e+00 -4.2470970869344839e-03 
1.0395912526056574e-02 0.0000000000000000e+00 -5.7451749434711142e-03 
1.0395912525582807e-02 0.0000000000000000e+00 -5.7451749433615465e-03 
1.6327820245903072e-02 0.0000000000000000e+00 -6.8559741481362254e-03 
1.6327820245421957e-02 0.0000000000000000e+00 -6.8559741480528720e-03 
2.2759142286059870e-02 0.0000000000000000e+00 -7.5895650837522859e-03 
2.2759142285591616e-02 0.0000000000000000e+00 -7.5895650837034265e-03 
2.9252856383520737e-02 0.0000000000000000e+00 -8.0079465534388834e-03 
2.9252856383150217e-02 0.0000000000000000e+00 -8.0079465534350983e-03 
3.5537003668706456e-02 0.0000000000000000e+00 -8.2319871917863278e-03 
3.5537003668376949e-02 0.0000000000000000e+00 -8.2319871917742159e-03 
4.1563699967053933e-02 0.0000000000000000e+00 -8.3808204881343096e-03 
4.1563699966721851e-02 0.0000000000000000e+00 -8.3808204880765191e-03 
4.7384891816484517e-02 0.0000000000000000e+00 -8.4965952867799097e-03 
4.7384891816074609e-02 0.0000000000000000e+00 -8.4965952866537294e-03 
5.3015494043420909e-02 0.0000000000000000e+00 -8.5520109392487297e-03 
5.3015494042865388e-02 0.0000000000000000e+00 -8.5520109391080869e-03 
5.8379389816561288e-02 0.0000000000000000e+00 -8.5100721424365092e-03 
5.8379389815870618e-02 0.0000000000000000e+00 -8.5100721423704735e-03 
6.3382246486089838e-02 0.0000000000000000e+00 -8.3705660595996198e-03 
6.3382246485360019e-02 0.0000000000000000e+00 -8.3705660596557294e-03 
6.7961658216729726e-02 0.0000000000000000e+00 -8.1683501625147287e-03 
6.7961658216056070e-02 0.0000000000000000e+00 -8.1683501627141282e-03 
7.2111120021166999e-02 0.0000000000000000e+00 -7.9541847176719006e-03 
7.2111120020764266e-02 0.0000000000000000e+00 -7.9541847180191905e-03 
7.5879922909242739e-02 0.0000000000000000e+00 -7.7789517727661446e-03 
7.5879922909291478e-02 0.0000000000000000e+00 -7.7789517731499279e-03 
7.9375161251453025e-02 0.0000000000000000e+00 -7.6748665790450001e-03 
7.9375161251897031e-02 0.0000000000000000e+00 -7.6748665792646456e-03 
8.2708089662037979e-02 0.0000000000000000e+00 -7.6437646402115209e-03 
8.2708089662517512e-02 0.0000000000000000e+00 -7.6437646401497179e-03 
8.5967423428474299e-02 0.0000000000000000e+00 -7.6696270578216277e-03 
8.5967423428646814e-02 0.0000000000000000e+00 -7.6696270575650613e-03 
8.9196862738909102e-02 0.0000000000000000e+00 -7.7346790463077211e-03 
8.9196862738680216e-02 0.0000000000000000e+00 -7.7346790459698299e-03 
9.2534604217673649e-02 0.0000000000000000e+00 -4.5769621223941031e-03 
9.2428793416262409e-02 0.0000000000000000e+00 -7.8270810106178586e-03 
9.2534604216994637e-02 0.0000000000000000e+00 -4.5769621224619663e-03 
9.2428793415621380e-02 0.0000000000000000e+00 -7.8270810102328611e-03 
0.0000000000000000e+00 0.0000000000000000e+00 0.0000000000000000e+00 
2.0805176432739094e-03 0.0000000000000000e+00 2.0920586500251348e-03 
0.0000000000000000e+00 0.0000000000000000e+00 0.0000000000000000e+00 
2.0805176430945143e-03 0.0000000000000000e+00 2.0920586499536646e-03 
5.7545901564795884e-03 0.0000000000000000e+00 3.6997844786476239e-03 
5.7545901561397916e-03 0.0000000000000000e+00 3.6997844785972124e-03 
1.0942986998025022e-02 0.0000000000000000e+00 4.6468682363548118e-03 
1.0942986997565572e-02 0.0000000000000000e+00 4.6468682363734887e-03 
1.7038356085482782e-02 0.0000000000000000e+00 5.0231233047498183e-03 
1.7038356085013896e-02 0.0000000000000000e+00 5.0231233048135572e-03 
2.3546982867674315e-02 0.0000000000000000e+00 4.9189602599109651e-03 
2.3546982867228037e-02 0.0000000000000000e+00 4.9189602600108141e-03 
3.0044173308179888e-02 0.0000000000000000e+00 4.4961596475008416e-03 
3.0044173307739487e-02 0.0000000000000000e+00 4.4961596475974934e-03 
3.6288578515101748e-02 0.0000000000000000e+00 3.9406628416945744e-03 
3.6288578514735936e-02 0.0000000000000000e+00 3.9406628417471366e-03 
4.2266367494886610e-02 0.0000000000000000e+00 3.3793752825972043e-03 
4.2266367494569079e-02 0.0000000000000000e+00 3.3793752826081231e-03 
4.8039901711273370e-02 0.0000000000000000e+00 2.8392258207999227e-03 
4.8039901710855586e-02 0.0000000000000000e+00 2.8392258207702876e-03 
5.3618974312999876e-02 0.0000000000000000e+00 2.2880363825314872e-03 
5.3618974312412152e-02 0.0000000000000000e+00 2.2880363824776184e-03 
5.8917629931536056e-02 0.0000000000000000e+00 1.7042204061446234e-03 
5.8917629930815750e-02 0.0000000000000000e+00 1.7042204061210285e-03 
6.3847344300368744e-02 0.0000000000000000e+00 1.1006870663959132e-03 
6.3847344299669331e-02 0.0000000000000000e+00 1.1006870664665653e-03 
6.8354577670595232e-02 0.0000000000000000e+00 5.1484254832743137e-04 
6.8354577669970690e-02 0.0000000000000000e+00 5.1484254855164394e-04 
7.2440842839655822e-02 0.0000000000000000e+00 -9.8175172661279962e-06 
7.2440842839318412e-02 0.0000000000000000e+00 -9.8175169174363565e-06 
7.6159468251163875e-02 0.0000000000000000e+00 -4.3703177083420159e-04 
7.6159468251250736e-02 0.0000000000000000e+00 -4.3703177049994206e-04 
7.9624576931255325e-02 0.0000000000000000e+00 -7.5374136915529535e-04 
7.9624576931732235e-02 0.0000000000000000e+00 -7.5374136904670644e-04 
8.2943068318944685e-02 0.0000000000000000e+00 -9.7377099629898894e-04 
8.2943068319421276e-02 0.0000000000000000e+00 -9.7377099648753647e-04 
8.6193245778257710e-02 0.0000000000000000e+00 -1.1274782054051533e-03 
8.6193245778347458e-02 0.0000000000000000e+00 -1.1274782057711255e-03 
8.9414493107056722e-02 0.0000000000000000e+00 -1.2417693012667559e-03 
8.9414493106766565e-02 0.0000000000000000e+00 -1.2417693017072661e-03 
9.2642002485757699e-02 0.0000000000000000e+00 -1.3404506461768689e-03 
9.2642002485056330e-02 0.0000000000000000e+00 -1.3404506466276576e-03 

