# vtk DataFile Version 2.0

ASCII

DATASET UNSTRUCTURED_GRID

POINTS 86 double 

5.0000000000000003e-02  0.0000000000000000e+00  0.0000000000000000e+00
5.0000000000000003e-02  0.0000000000000000e+00  5.0000000000000003e-02
5.0000000000000003e-02  2.9999999999999999e-01  0.0000000000000000e+00
5.0000000000000003e-02  2.9999999999999999e-01  5.0000000000000003e-02
5.0000000000000003e-02  0.0000000000000000e+00  1.0000000000000001e-01
5.0000000000000003e-02  2.9999999999999999e-01  1.0000000000000001e-01
5.0000000000000003e-02  0.0000000000000000e+00  1.4999999999999999e-01
5.0000000000000003e-02  2.9999999999999999e-01  1.4999999999999999e-01
5.0000000000000003e-02  0.0000000000000000e+00  2.0000000000000001e-01
5.0000000000000003e-02  2.9999999999999999e-01  2.0000000000000001e-01
5.0000000000000003e-02  0.0000000000000000e+00  2.5000000000000000e-01
5.0000000000000003e-02  2.9999999999999999e-01  2.5000000000000000e-01
5.0000000000000003e-02  0.0000000000000000e+00  2.9999999999999999e-01
5.0000000000000003e-02  2.9999999999999999e-01  2.9999999999999999e-01
5.0000000000000003e-02  0.0000000000000000e+00  3.4999999999999998e-01
5.0000000000000003e-02  2.9999999999999999e-01  3.4999999999999998e-01
5.0000000000000003e-02  0.0000000000000000e+00  4.0000000000000002e-01
5.0000000000000003e-02  2.9999999999999999e-01  4.0000000000000002e-01
5.0000000000000003e-02  0.0000000000000000e+00  4.5000000000000001e-01
5.0000000000000003e-02  2.9999999999999999e-01  4.5000000000000001e-01
5.0000000000000003e-02  0.0000000000000000e+00  5.0000000000000000e-01
5.0000000000000003e-02  2.9999999999999999e-01  5.0000000000000000e-01
5.0000000000000003e-02  0.0000000000000000e+00  5.5000000000000004e-01
5.0000000000000003e-02  2.9999999999999999e-01  5.5000000000000004e-01
5.0000000000000003e-02  0.0000000000000000e+00  5.9999999999999998e-01
5.0000000000000003e-02  2.9999999999999999e-01  5.9999999999999998e-01
5.0000000000000003e-02  0.0000000000000000e+00  6.5000000000000002e-01
5.0000000000000003e-02  2.9999999999999999e-01  6.5000000000000002e-01
5.0000000000000003e-02  0.0000000000000000e+00  6.9999999999999996e-01
5.0000000000000003e-02  2.9999999999999999e-01  6.9999999999999996e-01
5.0000000000000003e-02  0.0000000000000000e+00  7.5000000000000000e-01
5.0000000000000003e-02  2.9999999999999999e-01  7.5000000000000000e-01
5.0000000000000003e-02  0.0000000000000000e+00  8.0000000000000004e-01
5.0000000000000003e-02  2.9999999999999999e-01  8.0000000000000004e-01
5.0000000000000003e-02  0.0000000000000000e+00  8.4999999999999998e-01
5.0000000000000003e-02  2.9999999999999999e-01  8.4999999999999998e-01
5.0000000000000003e-02  0.0000000000000000e+00  9.0000000000000002e-01
5.0000000000000003e-02  2.9999999999999999e-01  9.0000000000000002e-01
5.0000000000000003e-02  0.0000000000000000e+00  9.4999999999999996e-01
5.0000000000000003e-02  2.9999999999999999e-01  9.4999999999999996e-01
0.0000000000000000e+00  0.0000000000000000e+00  1.0000000000000000e+00
5.0000000000000003e-02  0.0000000000000000e+00  1.0000000000000000e+00
0.0000000000000000e+00  2.9999999999999999e-01  1.0000000000000000e+00
5.0000000000000003e-02  2.9999999999999999e-01  1.0000000000000000e+00
-5.0000000000000003e-02  0.0000000000000000e+00  0.0000000000000000e+00
-5.0000000000000003e-02  0.0000000000000000e+00  5.0000000000000003e-02
-5.0000000000000003e-02  2.9999999999999999e-01  0.0000000000000000e+00
-5.0000000000000003e-02  2.9999999999999999e-01  5.0000000000000003e-02
-5.0000000000000003e-02  0.0000000000000000e+00  1.0000000000000001e-01
-5.0000000000000003e-02  2.9999999999999999e-01  1.0000000000000001e-01
-5.0000000000000003e-02  0.0000000000000000e+00  1.4999999999999999e-01
-5.0000000000000003e-02  2.9999999999999999e-01  1.4999999999999999e-01
-5.0000000000000003e-02  0.0000000000000000e+00  2.0000000000000001e-01
-5.0000000000000003e-02  2.9999999999999999e-01  2.0000000000000001e-01
-5.0000000000000003e-02  0.0000000000000000e+00  2.5000000000000000e-01
-5.0000000000000003e-02  2.9999999999999999e-01  2.5000000000000000e-01
-5.0000000000000003e-02  0.0000000000000000e+00  2.9999999999999999e-01
-5.0000000000000003e-02  2.9999999999999999e-01  2.9999999999999999e-01
-5.0000000000000003e-02  0.0000000000000000e+00  3.4999999999999998e-01
-5.0000000000000003e-02  2.9999999999999999e-01  3.4999999999999998e-01
-5.0000000000000003e-02  0.0000000000000000e+00  4.0000000000000002e-01
-5.0000000000000003e-02  2.9999999999999999e-01  4.0000000000000002e-01
-5.0000000000000003e-02  0.0000000000000000e+00  4.5000000000000001e-01
-5.0000000000000003e-02  2.9999999999999999e-01  4.5000000000000001e-01
-5.0000000000000003e-02  0.0000000000000000e+00  5.0000000000000000e-01
-5.0000000000000003e-02  2.9999999999999999e-01  5.0000000000000000e-01
-5.0000000000000003e-02  0.0000000000000000e+00  5.5000000000000004e-01
-5.0000000000000003e-02  2.9999999999999999e-01  5.5000000000000004e-01
-5.0000000000000003e-02  0.0000000000000000e+00  5.9999999999999998e-01
-5.0000000000000003e-02  2.9999999999999999e-01  5.9999999999999998e-01
-5.0000000000000003e-02  0.0000000000000000e+00  6.5000000000000002e-01
-5.0000000000000003e-02  2.9999999999999999e-01  6.5000000000000002e-01
-5.0000000000000003e-02  0.0000000000000000e+00  6.9999999999999996e-01
-5.0000000000000003e-02  2.9999999999999999e-01  6.9999999999999996e-01
-5.0000000000000003e-02  0.0000000000000000e+00  7.5000000000000000e-01
-5.0000000000000003e-02  2.9999999999999999e-01  7.5000000000000000e-01
-5.0000000000000003e-02  0.0000000000000000e+00  8.0000000000000004e-01
-5.0000000000000003e-02  2.9999999999999999e-01  8.0000000000000004e-01
-5.0000000000000003e-02  0.0000000000000000e+00  8.4999999999999998e-01
-5.0000000000000003e-02  2.9999999999999999e-01  8.4999999999999998e-01
-5.0000000000000003e-02  0.0000000000000000e+00  9.0000000000000002e-01
-5.0000000000000003e-02  2.9999999999999999e-01  9.0000000000000002e-01
-5.0000000000000003e-02  0.0000000000000000e+00  9.4999999999999996e-01
-5.0000000000000003e-02  2.9999999999999999e-01  9.4999999999999996e-01
-5.0000000000000003e-02  0.0000000000000000e+00  1.0000000000000000e+00
-5.0000000000000003e-02  2.9999999999999999e-01  1.0000000000000000e+00

CELLS 0 0


CELL_TYPES 0


POINT_DATA 86

VECTORS VertexNormals double

0.0000000000000000e+00 0.0000000000000000e+00 0.0000000000000000e+00 
0.0000000000000000e+00 0.0000000000000000e+00 0.0000000000000000e+00 
0.0000000000000000e+00 0.0000000000000000e+00 0.0000000000000000e+00 
0.0000000000000000e+00 0.0000000000000000e+00 0.0000000000000000e+00 
0.0000000000000000e+00 0.0000000000000000e+00 0.0000000000000000e+00 
0.0000000000000000e+00 0.0000000000000000e+00 0.0000000000000000e+00 
0.0000000000000000e+00 0.0000000000000000e+00 0.0000000000000000e+00 
0.0000000000000000e+00 0.0000000000000000e+00 0.0000000000000000e+00 
0.0000000000000000e+00 0.0000000000000000e+00 0.0000000000000000e+00 
0.0000000000000000e+00 0.0000000000000000e+00 0.0000000000000000e+00 
0.0000000000000000e+00 0.0000000000000000e+00 0.0000000000000000e+00 
0.0000000000000000e+00 0.0000000000000000e+00 0.0000000000000000e+00 
0.0000000000000000e+00 0.0000000000000000e+00 0.0000000000000000e+00 
0.0000000000000000e+00 0.0000000000000000e+00 0.0000000000000000e+00 
0.0000000000000000e+00 0.0000000000000000e+00 0.0000000000000000e+00 
0.0000000000000000e+00 0.0000000000000000e+00 0.0000000000000000e+00 
0.0000000000000000e+00 0.0000000000000000e+00 0.0000000000000000e+00 
0.0000000000000000e+00 0.0000000000000000e+00 0.0000000000000000e+00 
0.0000000000000000e+00 0.0000000000000000e+00 0.0000000000000000e+00 
0.0000000000000000e+00 0.0000000000000000e+00 0.0000000000000000e+00 
0.0000000000000000e+00 0.0000000000000000e+00 0.0000000000000000e+00 
0.0000000000000000e+00 0.0000000000000000e+00 0.0000000000000000e+00 
0.0000000000000000e+00 0.0000000000000000e+00 0.0000000000000000e+00 
0.0000000000000000e+00 0.0000000000000000e+00 0.0000000000000000e+00 
0.0000000000000000e+00 0.0000000000000000e+00 0.0000000000000000e+00 
0.0000000000000000e+00 0.0000000000000000e+00 0.0000000000000000e+00 
0.0000000000000000e+00 0.0000000000000000e+00 0.0000000000000000e+00 
0.0000000000000000e+00 0.0000000000000000e+00 0.0000000000000000e+00 
0.0000000000000000e+00 0.0000000000000000e+00 0.0000000000000000e+00 
0.0000000000000000e+00 0.0000000000000000e+00 0.0000000000000000e+00 
0.0000000000000000e+00 0.0000000000000000e+00 0.0000000000000000e+00 
0.0000000000000000e+00 0.0000000000000000e+00 0.0000000000000000e+00 
0.0000000000000000e+00 0.0000000000000000e+00 0.0000000000000000e+00 
0.0000000000000000e+00 0.0000000000000000e+00 0.0000000000000000e+00 
0.0000000000000000e+00 0.0000000000000000e+00 0.0000000000000000e+00 
0.0000000000000000e+00 0.0000000000000000e+00 0.0000000000000000e+00 
0.0000000000000000e+00 0.0000000000000000e+00 0.0000000000000000e+00 
0.0000000000000000e+00 0.0000000000000000e+00 0.0000000000000000e+00 
0.0000000000000000e+00 0.0000000000000000e+00 0.0000000000000000e+00 
0.0000000000000000e+00 0.0000000000000000e+00 0.0000000000000000e+00 
0.0000000000000000e+00 0.0000000000000000e+00 0.0000000000000000e+00 
0.0000000000000000e+00 0.0000000000000000e+00 0.0000000000000000e+00 
0.0000000000000000e+00 0.0000000000000000e+00 0.0000000000000000e+00 
0.0000000000000000e+00 0.0000000000000000e+00 0.0000000000000000e+00 
0.0000000000000000e+00 0.0000000000000000e+00 0.0000000000000000e+00 
0.0000000000000000e+00 0.0000000000000000e+00 0.0000000000000000e+00 
0.0000000000000000e+00 0.0000000000000000e+00 0.0000000000000000e+00 
0.0000000000000000e+00 0.0000000000000000e+00 0.0000000000000000e+00 
0.0000000000000000e+00 0.0000000000000000e+00 0.0000000000000000e+00 
0.0000000000000000e+00 0.0000000000000000e+00 0.0000000000000000e+00 
0.0000000000000000e+00 0.0000000000000000e+00 0.0000000000000000e+00 
0.0000000000000000e+00 0.0000000000000000e+00 0.0000000000000000e+00 
0.0000000000000000e+00 0.0000000000000000e+00 0.0000000000000000e+00 
0.0000000000000000e+00 0.0000000000000000e+00 0.0000000000000000e+00 
0.0000000000000000e+00 0.0000000000000000e+00 0.0000000000000000e+00 
0.0000000000000000e+00 0.0000000000000000e+00 0.0000000000000000e+00 
0.0000000000000000e+00 0.0000000000000000e+00 0.0000000000000000e+00 
0.0000000000000000e+00 0.0000000000000000e+00 0.0000000000000000e+00 
0.0000000000000000e+00 0.0000000000000000e+00 0.0000000000000000e+00 
0.0000000000000000e+00 0.0000000000000000e+00 0.0000000000000000e+00 
0.0000000000000000e+00 0.0000000000000000e+00 0.0000000000000000e+00 
0.0000000000000000e+00 0.0000000000000000e+00 0.0000000000000000e+00 
0.0000000000000000e+00 0.0000000000000000e+00 0.0000000000000000e+00 
0.0000000000000000e+00 0.0000000000000000e+00 0.0000000000000000e+00 
0.0000000000000000e+00 0.0000000000000000e+00 0.0000000000000000e+00 
0.0000000000000000e+00 0.0000000000000000e+00 0.0000000000000000e+00 
0.0000000000000000e+00 0.0000000000000000e+00 0.0000000000000000e+00 
0.0000000000000000e+00 0.0000000000000000e+00 0.0000000000000000e+00 
0.0000000000000000e+00 0.0000000000000000e+00 0.0000000000000000e+00 
0.0000000000000000e+00 0.0000000000000000e+00 0.0000000000000000e+00 
0.0000000000000000e+00 0.0000000000000000e+00 0.0000000000000000e+00 
0.0000000000000000e+00 0.0000000000000000e+00 0.0000000000000000e+00 
0.0000000000000000e+00 0.0000000000000000e+00 0.0000000000000000e+00 
0.0000000000000000e+00 0.0000000000000000e+00 0.0000000000000000e+00 
0.0000000000000000e+00 0.0000000000000000e+00 0.0000000000000000e+00 
0.0000000000000000e+00 0.0000000000000000e+00 0.0000000000000000e+00 
0.0000000000000000e+00 0.0000000000000000e+00 0.0000000000000000e+00 
0.0000000000000000e+00 0.0000000000000000e+00 0.0000000000000000e+00 
0.0000000000000000e+00 0.0000000000000000e+00 0.0000000000000000e+00 
0.0000000000000000e+00 0.0000000000000000e+00 0.0000000000000000e+00 
0.0000000000000000e+00 0.0000000000000000e+00 0.0000000000000000e+00 
0.0000000000000000e+00 0.0000000000000000e+00 0.0000000000000000e+00 
0.0000000000000000e+00 0.0000000000000000e+00 0.0000000000000000e+00 
0.0000000000000000e+00 0.0000000000000000e+00 0.0000000000000000e+00 
0.0000000000000000e+00 0.0000000000000000e+00 0.0000000000000000e+00 
0.0000000000000000e+00 0.0000000000000000e+00 0.0000000000000000e+00 

VECTORS Forces0 double
2.7944461750287791e-02 0.0000000000000000e+00 1.9875734949923833e-03 
1.9552593153507208e-01 0.0000000000000000e+00 -9.2313046428366911e-03 
2.7944461961458802e-02 0.0000000000000000e+00 1.9875735421156812e-03 
1.9552593185225201e-01 0.0000000000000000e+00 -9.2313045842842278e-03 
1.5139862208212171e-01 0.0000000000000000e+00 -1.0917317147340181e-02 
1.5139862155424383e-01 0.0000000000000000e+00 -1.0917317171225793e-02 
1.4807476677320147e-01 0.0000000000000000e+00 -1.5224000762789455e-02 
1.4807476635080474e-01 0.0000000000000000e+00 -1.5224000739900651e-02 
1.6048450869657629e-01 0.0000000000000000e+00 -1.9764749706508669e-02 
1.6048450954336066e-01 0.0000000000000000e+00 -1.9764749800964817e-02 
1.5233489014800106e-01 0.0000000000000000e+00 -2.1587711170314897e-02 
1.5233489046491924e-01 0.0000000000000000e+00 -2.1587711147172634e-02 
1.7163303725076412e-01 0.0000000000000000e+00 -2.7773672147566906e-02 
1.7163303693527424e-01 0.0000000000000000e+00 -2.7773672171108776e-02 
1.7114428548936225e-01 0.0000000000000000e+00 -3.0499597383391912e-02 
1.7114428527760847e-01 0.0000000000000000e+00 -3.0499597265828349e-02 
1.9126633159014036e-01 0.0000000000000000e+00 -3.5683816475894838e-02 
1.9126633232949863e-01 0.0000000000000000e+00 -3.5683816464412252e-02 
1.9110217364155838e-01 0.0000000000000000e+00 -3.6963957879262550e-02 
1.9110217353457207e-01 0.0000000000000000e+00 -3.6963957926451643e-02 
2.2960542600262210e-01 0.0000000000000000e+00 -4.5307752029129254e-02 
2.2960542579106344e-01 0.0000000000000000e+00 -4.5307752087990545e-02 
2.2706870449630256e-01 0.0000000000000000e+00 -4.5137571107894695e-02 
2.2706870460161829e-01 0.0000000000000000e+00 -4.5137571072748330e-02 
2.4728772432669771e-01 0.0000000000000000e+00 -4.9465989035929386e-02 
2.4728772422122575e-01 0.0000000000000000e+00 -4.9465989035697357e-02 
2.4986345048965605e-01 0.0000000000000000e+00 -5.0108467506345560e-02 
2.4986344974979907e-01 0.0000000000000000e+00 -5.0108467447623137e-02 
2.9817574505815680e-01 0.0000000000000000e+00 -5.9684151231492087e-02 
2.9817574516373468e-01 0.0000000000000000e+00 -5.9684151278591967e-02 
2.8260975358512241e-01 0.0000000000000000e+00 -5.5616521542809293e-02 
2.8260975326844939e-01 0.0000000000000000e+00 -5.5616521530814880e-02 
2.9743622893230798e-01 0.0000000000000000e+00 -5.7285732330807138e-02 
2.9743622840442352e-01 0.0000000000000000e+00 -5.7285732307299837e-02 
2.9947145832768701e-01 0.0000000000000000e+00 -5.6018058235474510e-02 
2.9947145779868622e-01 0.0000000000000000e+00 -5.6018058223929842e-02 
3.4210962552059460e-01 0.0000000000000000e+00 -6.2864607535393427e-02 
3.4210962509788490e-01 0.0000000000000000e+00 -6.2864607535723885e-02 
3.4168040568996288e-01 0.0000000000000000e+00 -5.5075714724688953e-02 
3.4168040547835210e-01 0.0000000000000000e+00 -5.5075714736328135e-02 
1.2967901270016713e-01 0.0000000000000000e+00 6.6551512309206040e-01 
1.4122008043503181e-01 0.0000000000000000e+00 1.2870113763342175e-01 
1.2967901270056123e-01 0.0000000000000000e+00 6.6551512306802041e-01 
1.4122008033036795e-01 0.0000000000000000e+00 1.2870113765692401e-01 
3.6034555296294135e-01 0.0000000000000000e+00 -8.3442699490122417e-03 
1.0518007170580372e+00 0.0000000000000000e+00 -3.9746898125025049e-02 
3.6034555285751824e-01 0.0000000000000000e+00 -8.3442699483673964e-03 
1.0518007172693205e+00 0.0000000000000000e+00 -3.9746898089996728e-02 
1.0556928902022875e+00 0.0000000000000000e+00 -7.6345168650017739e-02 
1.0556928899913762e+00 0.0000000000000000e+00 -7.6345168626111432e-02 
9.2511510047877066e-01 0.0000000000000000e+00 -9.7423849385726999e-02 
9.2511510005598885e-01 0.0000000000000000e+00 -9.7423849433293574e-02 
9.1542948419925751e-01 0.0000000000000000e+00 -1.1414822398987302e-01 
9.1542948451658657e-01 0.0000000000000000e+00 -1.1414822396637170e-01 
9.0904185116614833e-01 0.0000000000000000e+00 -1.3030543406463657e-01 
9.0904185116659142e-01 0.0000000000000000e+00 -1.3030543400549713e-01 
1.0312200583339970e+00 0.0000000000000000e+00 -1.7055398397521476e-01 
1.0312200581224304e+00 0.0000000000000000e+00 -1.7055398396344904e-01 
8.7294412189070580e-01 0.0000000000000000e+00 -1.5931988841473177e-01 
8.7294412167916058e-01 0.0000000000000000e+00 -1.5931988837951233e-01 
8.5605068890066438e-01 0.0000000000000000e+00 -1.6287224705228637e-01 
8.5605068900642334e-01 0.0000000000000000e+00 -1.6287224705239839e-01 
8.3807220214750255e-01 0.0000000000000000e+00 -1.6557358770023720e-01 
8.3807220214777045e-01 0.0000000000000000e+00 -1.6557358768855007e-01 
9.3260362969121413e-01 0.0000000000000000e+00 -1.8825880211213100e-01 
9.3260362990203216e-01 0.0000000000000000e+00 -1.8825880208865195e-01 
7.7718966973200598e-01 0.0000000000000000e+00 -1.5801792236842280e-01 
7.7718966983743765e-01 0.0000000000000000e+00 -1.5801792239213064e-01 
7.5229200260144158e-01 0.0000000000000000e+00 -1.5355617466432170e-01 
7.5229200302375276e-01 0.0000000000000000e+00 -1.5355617465241064e-01 
7.2431255479157697e-01 0.0000000000000000e+00 -1.4828941313930616e-01 
7.2431255510879078e-01 0.0000000000000000e+00 -1.4828941311587121e-01 
7.8136747228026870e-01 0.0000000000000000e+00 -1.5944081373513311e-01 
7.8136747206894297e-01 0.0000000000000000e+00 -1.5944081373516328e-01 
6.2734652608113806e-01 0.0000000000000000e+00 -1.2554379047069320e-01 
6.2734652597570484e-01 0.0000000000000000e+00 -1.2554379048253325e-01 
5.8582544325091546e-01 0.0000000000000000e+00 -1.1490216667845560e-01 
5.8582544293397121e-01 0.0000000000000000e+00 -1.1490216667852642e-01 
5.3705420834789463e-01 0.0000000000000000e+00 -1.0238913774679499e-01 
5.3705420834810313e-01 0.0000000000000000e+00 -1.0238913774672460e-01 
5.1333896454795891e-01 0.0000000000000000e+00 -9.7893389692980379e-02 
5.1333896454805394e-01 0.0000000000000000e+00 -9.7893389704937439e-02 
3.1274195287706857e-01 0.0000000000000000e+00 -4.6642319405251022e-02 
3.1274195287706119e-01 0.0000000000000000e+00 -4.6642319417087741e-02 
1.5484931450727216e-01 0.0000000000000000e+00 2.6768743473806561e-01 
1.5484931450727674e-01 0.0000000000000000e+00 2.6768743472637546e-01 

VECTORS Displacements0 double
6.9356603523157320e-310 0.0000000000000000e+00 0.0000000000000000e+00 
1.3259438000879145e-03 0.0000000000000000e+00 -1.7062970779083109e-03 
0.0000000000000000e+00 0.0000000000000000e+00 0.0000000000000000e+00 
1.3259437999472608e-03 0.0000000000000000e+00 -1.7062970778045318e-03 
4.0302241530568985e-03 0.0000000000000000e+00 -3.3395404388793996e-03 
4.0302241528516912e-03 0.0000000000000000e+00 -3.3395404387225962e-03 
8.2623472676721862e-03 0.0000000000000000e+00 -4.8311426525173961e-03 
8.2623472672902834e-03 0.0000000000000000e+00 -4.8311426523605858e-03 
1.3779871082453488e-02 0.0000000000000000e+00 -6.2644886812495727e-03 
1.3779871082124674e-02 0.0000000000000000e+00 -6.2644886811956081e-03 
2.0434650852799146e-02 0.0000000000000000e+00 -7.6574659104299871e-03 
2.0434650852577615e-02 0.0000000000000000e+00 -7.6574659105424327e-03 
2.8062669072009716e-02 0.0000000000000000e+00 -9.0182173733049688e-03 
2.8062669072057768e-02 0.0000000000000000e+00 -9.0182173735643394e-03 
3.6515001412925636e-02 0.0000000000000000e+00 -1.0342147984594525e-02 
3.6515001413370940e-02 0.0000000000000000e+00 -1.0342147984885827e-02 
4.5635891616236920e-02 0.0000000000000000e+00 -1.1603664461752974e-02 
4.5635891617018566e-02 0.0000000000000000e+00 -1.1603664461977152e-02 
5.5230870836535356e-02 0.0000000000000000e+00 -1.2770445643852326e-02 
5.5230870837378772e-02 0.0000000000000000e+00 -1.2770445643965091e-02 
6.5096891310991903e-02 0.0000000000000000e+00 -1.3837488807381179e-02 
6.5096891311749491e-02 0.0000000000000000e+00 -1.3837488807378994e-02 
7.5088633555371806e-02 0.0000000000000000e+00 -1.4836917136691510e-02 
7.5088633555849812e-02 0.0000000000000000e+00 -1.4836917136573907e-02 
8.5156648837247384e-02 0.0000000000000000e+00 -1.5806714185927283e-02 
8.5156648837474896e-02 0.0000000000000000e+00 -1.5806714185765208e-02 
9.5289205869499127e-02 0.0000000000000000e+00 -1.6751095963674009e-02 
9.5289205869590471e-02 0.0000000000000000e+00 -1.6751095963548280e-02 
1.0544489998991703e-01 0.0000000000000000e+00 -1.7642930070112858e-02 
1.0544489998988837e-01 0.0000000000000000e+00 -1.7642930070043170e-02 
1.1553893227506143e-01 0.0000000000000000e+00 -1.8452371732113528e-02 
1.1553893227503270e-01 0.0000000000000000e+00 -1.8452371732107287e-02 
1.2547961271918909e-01 0.0000000000000000e+00 -1.9167874669150233e-02 
1.2547961271922450e-01 0.0000000000000000e+00 -1.9167874669171438e-02 
1.3517558156174228e-01 0.0000000000000000e+00 -1.9803071747381690e-02 
1.3517558156168194e-01 0.0000000000000000e+00 -1.9803071747355037e-02 
1.4457172464358486e-01 0.0000000000000000e+00 -2.0409770241513116e-02 
1.4457172464346518e-01 0.0000000000000000e+00 -2.0409770241471836e-02 
1.5371690251496015e-01 0.0000000000000000e+00 -2.1070330162512835e-02 
1.5371690251471570e-01 0.0000000000000000e+00 -2.1070330162476905e-02 
1.6361686480234031e-01 0.0000000000000000e+00 -1.2755833813268381e-02 
1.6277630368638737e-01 0.0000000000000000e+00 -2.1837075018885665e-02 
1.6361686480203419e-01 0.0000000000000000e+00 -1.2755833813281943e-02 
1.6277630368606685e-01 0.0000000000000000e+00 -2.1837075018857920e-02 
0.0000000000000000e+00 0.0000000000000000e+00 0.0000000000000000e+00 
1.5247649367767227e-03 0.0000000000000000e+00 1.8467899394022042e-03 
0.0000000000000000e+00 0.0000000000000000e+00 0.0000000000000000e+00 
1.5247649366624367e-03 0.0000000000000000e+00 1.8467899393816410e-03 
4.4068003612862281e-03 0.0000000000000000e+00 3.5118298351700522e-03 
4.4068003610776780e-03 0.0000000000000000e+00 3.5118298351852401e-03 
8.8661513702406117e-03 0.0000000000000000e+00 4.8506821243564074e-03 
8.8661513699140049e-03 0.0000000000000000e+00 4.8506821244627763e-03 
1.4653812841559885e-02 0.0000000000000000e+00 5.8835339849298996e-03 
1.4653812841203852e-02 0.0000000000000000e+00 5.8835339851642573e-03 
2.1590929666408541e-02 0.0000000000000000e+00 6.6023179385987394e-03 
2.1590929666202963e-02 0.0000000000000000e+00 6.6023179389310604e-03 
2.9492894226137444e-02 0.0000000000000000e+00 7.0145764960951448e-03 
2.9492894226314292e-02 0.0000000000000000e+00 7.0145764964164546e-03 
3.8185324477319947e-02 0.0000000000000000e+00 7.1302878115118186e-03 
3.8185324477855553e-02 0.0000000000000000e+00 7.1302878117206047e-03 
4.7501379565795310e-02 0.0000000000000000e+00 6.9537830943910868e-03 
4.7501379566557138e-02 0.0000000000000000e+00 6.9537830944118705e-03 
5.7232050732050822e-02 0.0000000000000000e+00 6.5102134547267267e-03 
5.7232050732824467e-02 0.0000000000000000e+00 6.5102134545794738e-03 
6.7177805472869043e-02 0.0000000000000000e+00 5.8633900307202532e-03 
6.7177805473576005e-02 0.0000000000000000e+00 5.8633900304591981e-03 
7.7209239784013284e-02 0.0000000000000000e+00 5.0963984314171288e-03 
7.7209239784467601e-02 0.0000000000000000e+00 5.0963984311475094e-03 
8.7299589685217074e-02 0.0000000000000000e+00 4.2613556826270283e-03 
8.7299589685387535e-02 0.0000000000000000e+00 4.2613556824456240e-03 
9.7435772194190723e-02 0.0000000000000000e+00 3.3660671049398566e-03 
9.7435772194182604e-02 0.0000000000000000e+00 3.3660671048713069e-03 
1.0756855785545499e-01 0.0000000000000000e+00 2.3984729178467019e-03 
1.0756855785541340e-01 0.0000000000000000e+00 2.3984729178524746e-03 
1.1760463352350665e-01 0.0000000000000000e+00 1.3595140717832194e-03 
1.1760463352347006e-01 0.0000000000000000e+00 1.3595140718111627e-03 
1.2745603642686010e-01 0.0000000000000000e+00 2.6730524946888941e-04 
1.2745603642682143e-01 0.0000000000000000e+00 2.6730524943598859e-04 
1.3704394024147182e-01 0.0000000000000000e+00 -8.3739947511740154e-04 
1.3704394024140637e-01 0.0000000000000000e+00 -8.3739947523567000e-04 
1.4633937552024051e-01 0.0000000000000000e+00 -1.8908199024191572e-03 
1.4633937552006557e-01 0.0000000000000000e+00 -1.8908199025421718e-03 
1.5541435262198192e-01 0.0000000000000000e+00 -2.8356005826501683e-03 
1.5541435262173400e-01 0.0000000000000000e+00 -2.8356005827479647e-03 
1.6444527196087100e-01 0.0000000000000000e+00 -3.6876954227186161e-03 
1.6444527196055020e-01 0.0000000000000000e+00 -3.6876954227991646e-03 

