/*--------------------------------*- C++ -*----------------------------------*\
| =========                 |                                                 |
| \\      /  F ield         | OpenFOAM: The Open Source CFD Toolbox           |
|  \\    /   O peration     | Version:  4.1                                   |
|   \\  /    A nd           | Web:      www.OpenFOAM.org                      |
|    \\/     M anipulation  |                                                 |
\*---------------------------------------------------------------------------*/
FoamFile
{
    version     2.0;
    format      ascii;
    class       volVectorField;
    location    "4.6";
    object      Force;
}
// * * * * * * * * * * * * * * * * * * * * * * * * * * * * * * * * * * * * * //

dimensions      [1 1 -2 0 0 0 0];

internalField   uniform (0 0 0);

boundaryField
{
    inlet
    {
        type            calculated;
        value           uniform (0 0 0);
    }
    outlet
    {
        type            calculated;
        value           uniform (0 0 0);
    }
    flap
    {
        type            calculated;
        value           nonuniform List<vector> 
33
(
(3.76374 -0.217789 0)
(3.704 -0.419829 -6.62022e-18)
(3.66035 -0.56701 1.22825e-21)
(3.6203 -0.654219 -1.74553e-18)
(3.57383 -0.69891 1.69877e-18)
(3.5123 -0.703452 1.66499e-18)
(3.44513 -0.667694 -3.05445e-18)
(3.37653 -0.611184 1.61766e-18)
(3.30045 -0.543413 -7.93745e-23)
(3.21004 -0.474467 9.34932e-21)
(3.10204 -0.414114 -8.43756e-21)
(2.95419 -0.380094 3.99785e-18)
(2.7374 -0.347291 -3.70765e-18)
(2.41477 -0.299399 -4.70198e-38)
(1.87196 -0.226573 3.08462e-18)
(0.0665222 0.516284 -8.45394e-19)
(0.0370242 0.293388 1.96081e-19)
(0.0106158 0.0983561 -7.88853e-19)
(-0.00567012 0.000365366 -1.39015e-18)
(-0.00488148 0.000487477 2.42038e-23)
(-0.00370642 0.000394531 1.53577e-18)
(-0.002544 0.000173084 -1.5888e-18)
(-0.00152545 -8.68217e-05 2.08488e-21)
(-0.000942072 -0.000280396 4.32949e-23)
(-0.00152211 -0.000238183 -2.02757e-21)
(-0.00323447 2.17167e-05 3.39233e-18)
(-0.00706837 0.000612944 -9.31027e-21)
(-0.0141572 0.00159249 -9.1039e-23)
(-0.0220704 0.00258484 -1.67352e-18)
(-0.027981 0.00342442 -1.09106e-25)
(-0.0325385 0.004301 4.429e-24)
(-0.0323215 0.00443633 -1.69561e-18)
(-0.0234668 0.00378094 -1.76431e-18)
)
;
    }
    upperWall
    {
        type            calculated;
        value           uniform (0 0 0);
    }
    lowerWall
    {
        type            calculated;
        value           uniform (0 0 0);
    }
    frontAndBack
    {
        type            empty;
    }
}


// ************************************************************************* //
