/*--------------------------------*- C++ -*----------------------------------*\
| =========                 |                                                 |
| \\      /  F ield         | OpenFOAM: The Open Source CFD Toolbox           |
|  \\    /   O peration     | Version:  4.1                                   |
|   \\  /    A nd           | Web:      www.OpenFOAM.org                      |
|    \\/     M anipulation  |                                                 |
\*---------------------------------------------------------------------------*/
FoamFile
{
    version     2.0;
    format      ascii;
    class       surfaceScalarField;
    location    "2.1";
    object      phi;
}
// * * * * * * * * * * * * * * * * * * * * * * * * * * * * * * * * * * * * * //

dimensions      [0 3 -1 0 0 0 0];

internalField   nonuniform List<scalar> 
5457
(
0.19858
0.00150013
0.196948
0.00170078
0.195082
0.00192284
0.192935
0.00219212
0.190524
0.00244815
0.18787
0.00268847
0.184972
0.00292463
0.181827
0.00316346
0.178434
0.00340984
0.174782
0.00366786
0.170854
0.00394009
0.166631
0.00423045
0.162089
0.00454205
0.157207
0.00487846
0.151955
0.00524335
0.146303
0.00564041
0.140216
0.00607442
0.133658
0.00655045
0.126582
0.00706507
0.118937
0.00762107
0.110678
0.00822915
0.101753
0.00889248
0.092108
0.00961329
0.081681
0.0103956
0.0704072
0.0112446
0.0582163
0.0121667
0.0450314
0.0131694
0.0307611
0.0142707
0.0150758
0.0157306
0.0150802
0.200461
0.00111942
0.200225
0.00200576
0.199594
0.00261036
0.198625
0.00320593
0.197337
0.00377407
0.195746
0.00431332
0.193856
0.00484023
0.191665
0.00536809
0.189183
0.00590713
0.186402
0.00646642
0.183303
0.00705273
0.179867
0.00767308
0.176077
0.00833403
0.171907
0.00904344
0.167332
0.00980934
0.16232
0.0106397
0.156835
0.011544
0.150845
0.0125318
0.144296
0.0136057
0.137117
0.0147761
0.129254
0.0160607
0.120644
0.0174715
0.111203
0.0190248
0.100825
0.0207443
0.0893749
0.0226689
0.0766463
0.0248763
0.0622904
0.0275211
0.0456357
0.0309427
0.0250194
0.0364191
0.0401075
0.200311
0.000889487
0.200144
0.0022421
0.199579
0.00323229
0.198696
0.00413249
0.197522
0.00498411
0.196074
0.00579642
0.194349
0.00658726
0.19235
0.00737618
0.190095
0.0081787
0.187573
0.00900816
0.184763
0.00987673
0.181652
0.0107932
0.178221
0.0117673
0.174449
0.0128113
0.170312
0.0139384
0.165777
0.0151609
0.160809
0.0164925
0.15538
0.0179462
0.149435
0.0195444
0.142883
0.021311
0.135649
0.0232653
0.127656
0.0254388
0.118774
0.0278821
0.108837
0.0306606
0.0976041
0.0338855
0.0846916
0.037783
0.0694325
0.0428013
0.0507323
0.0497063
0.0275641
0.0597156
0.0677243
0.200216
0.000755513
0.200047
0.00248194
0.199491
0.00384457
0.198616
0.00504968
0.197456
0.00617824
0.19603
0.00725496
0.194338
0.00830141
0.192388
0.00934178
0.190191
0.0103972
0.187735
0.011485
0.185006
0.012621
0.181994
0.0138167
0.178681
0.0150842
0.17505
0.0164397
0.171079
0.0179016
0.166741
0.0194872
0.162002
0.0212152
0.156827
0.0231061
0.15117
0.0251989
0.144943
0.027532
0.138053
0.0301366
0.130398
0.0330759
0.121813
0.0364534
0.112063
0.0404028
0.100807
0.0451447
0.087543
0.0510659
0.0714615
0.058934
0.0510412
0.0702333
0.0267438
0.0841689
0.0945403
0.200162
0.000676994
0.199976
0.00273968
0.199425
0.00445262
0.198556
0.00595946
0.197405
0.00735988
0.195994
0.00869453
0.194329
0.00999167
0.192415
0.0112794
0.190253
0.0125834
0.187833
0.0139251
0.185149
0.0153225
0.182189
0.0167926
0.178932
0.0183475
0.175363
0.0200056
0.171466
0.0217928
0.167213
0.0237324
0.162571
0.0258478
0.157498
0.0281707
0.151944
0.0307521
0.145831
0.0336458
0.139052
0.0369097
0.131475
0.0406477
0.12291
0.0450201
0.113079
0.0502464
0.101558
0.0566947
0.0877146
0.0649613
0.0707908
0.0759358
0.0491032
0.0920305
0.0244796
0.108892
0.119065
0.200129
0.000632244
0.19993
0.00301441
0.199385
0.00505622
0.198524
0.0068575
0.197385
0.00852462
0.195993
0.0101116
0.194357
0.0116544
0.192478
0.013186
0.190351
0.0147357
0.18797
0.0163274
0.185327
0.0179827
0.182415
0.0197221
0.179208
0.0215614
0.175688
0.0235224
0.171843
0.0256358
0.167642
0.0279305
0.163049
0.0304379
0.158015
0.033203
0.152484
0.0362861
0.146373
0.039762
0.139566
0.043723
0.131909
0.0483159
0.12318
0.0537704
0.113053
0.0604098
0.101079
0.0687261
0.086549
0.0795724
0.0686863
0.0938932
0.046031
0.114769
0.0217535
0.133172
0.140867
0.20011
0.000608697
0.199901
0.00330179
0.199363
0.00565415
0.198511
0.0077384
0.197385
0.00966423
0.196018
0.0114977
0.194419
0.0132826
0.192583
0.0150554
0.190498
0.0168471
0.188162
0.0186856
0.185565
0.0205957
0.182699
0.0225991
0.179547
0.0247211
0.176086
0.02699
0.172291
0.029435
0.168133
0.0320907
0.163573
0.0350019
0.158553
0.0382284
0.15301
0.0418381
0.146855
0.0459315
0.139953
0.0506453
0.132125
0.056172
0.123123
0.0628135
0.112582
0.0710122
0.099983
0.0814059
0.0846667
0.0949836
0.0658846
0.112768
0.0426037
0.138102
0.0191916
0.156534
0.160152
0.200095
0.000599216
0.199881
0.00359624
0.19935
0.00624322
0.19851
0.00859773
0.197405
0.0107738
0.196071
0.0128483
0.194517
0.0148718
0.192729
0.0168818
0.190693
0.0189116
0.188408
0.0209935
0.185864
0.023156
0.183049
0.0254233
0.179955
0.0278288
0.176559
0.030406
0.17282
0.0331862
0.168708
0.0362118
0.164179
0.0395392
0.159174
0.0432454
0.153616
0.0474153
0.147397
0.0521754
0.14037
0.0577068
0.132334
0.0642539
0.122991
0.0722148
0.111964
0.082115
0.0987156
0.0947437
0.0825891
0.1112
0.0631019
0.132321
0.0397363
0.161487
0.0173216
0.178902
0.177472
0.200082
0.000600284
0.199861
0.00389257
0.199337
0.00682129
0.198521
0.00943682
0.19745
0.0118571
0.196157
0.0141664
0.194648
0.0164209
0.192907
0.0186611
0.190926
0.0209235
0.188699
0.0232446
0.186217
0.0256564
0.183467
0.0281875
0.18044
0.0308761
0.177111
0.0337601
0.173439
0.0368781
0.169382
0.0402841
0.16489
0.0440433
0.159907
0.0482492
0.154337
0.0530141
0.148059
0.0584911
0.140902
0.0649105
0.132643
0.07257
0.122972
0.081954
0.111451
0.0937139
0.0975905
0.108681
0.0807657
0.128084
0.0608953
0.152211
0.0379265
0.184428
0.0164193
0.200367
0.193775
0.20007
0.000609509
0.199845
0.00418752
0.199332
0.00738649
0.198546
0.010254
0.197517
0.0129116
0.196268
0.0154478
0.194804
0.0179244
0.193114
0.0203873
0.191192
0.0228763
0.189032
0.025431
0.186623
0.028087
0.183951
0.0308783
0.181002
0.0338481
0.177749
0.0370398
0.174158
0.0405001
0.170169
0.0442946
0.165726
0.0485007
0.160777
0.0532253
0.155215
0.0586142
0.1489
0.0648536
0.141642
0.0722238
0.13318
0.081095
0.123213
0.0919886
0.111301
0.10569
0.096956
0.123074
0.0796056
0.145447
0.0596533
0.17213
0.0373839
0.206626
0.0166601
0.221034
0.210319
0.20006
0.000624901
0.199835
0.00447843
0.199338
0.00793558
0.198585
0.0110443
0.197598
0.01393
0.196395
0.016685
0.194982
0.0193757
0.193352
0.0220535
0.191497
0.0247622
0.189411
0.0275442
0.187084
0.0304388
0.1845
0.0334866
0.181639
0.036734
0.178476
0.0402318
0.174975
0.0440375
0.17107
0.0482236
0.166701
0.0528864
0.161814
0.0581474
0.156296
0.0641804
0.149987
0.0712164
0.142686
0.0795843
0.134126
0.0897159
0.12396
0.102211
0.111805
0.117887
0.0972065
0.137686
0.079705
0.16292
0.0600197
0.191753
0.0386031
0.22797
0.0183702
0.24121
0.228687
0.200051
0.00064525
0.199831
0.00476247
0.199354
0.00846546
0.198635
0.0118044
0.197692
0.0149083
0.19654
0.0178729
0.195184
0.0207693
0.19362
0.0236531
0.191841
0.0265736
0.189839
0.0295756
0.187603
0.0327028
0.185115
0.0360012
0.182355
0.0395216
0.179291
0.0433223
0.175883
0.04747
0.172088
0.0520449
0.167841
0.0571657
0.163057
0.0629779
0.157621
0.0696735
0.151374
0.0775212
0.144118
0.0868981
0.135584
0.0983028
0.125439
0.112397
0.113318
0.130027
0.0987775
0.152214
0.0817119
0.179945
0.0627965
0.210617
0.0424747
0.248254
0.022228
0.261433
0.250879
0.200043
0.000669618
0.199832
0.00503619
0.199379
0.00897299
0.198695
0.0125314
0.197799
0.0158428
0.196703
0.0190072
0.195411
0.0220999
0.193919
0.0251805
0.192224
0.0283032
0.190315
0.0315167
0.188179
0.0348689
0.185799
0.0384104
0.183152
0.0421966
0.180205
0.0462943
0.176916
0.0507745
0.17326
0.0557323
0.169163
0.0613075
0.16453
0.0676658
0.159247
0.0750248
0.153145
0.0836812
0.146055
0.0940396
0.137728
0.106673
0.127898
0.122253
0.116206
0.141725
0.102346
0.166059
0.086561
0.195705
0.0691514
0.228011
0.0505975
0.266815
0.0300015
0.282056
0.280864
0.200038
0.000696237
0.199839
0.00529779
0.19941
0.00945619
0.198765
0.0132227
0.197918
0.0167305
0.196882
0.0200835
0.195659
0.0233615
0.194248
0.026629
0.192642
0.029944
0.190834
0.0333593
0.188808
0.0369265
0.186548
0.040702
0.184031
0.0447434
0.181231
0.0491241
0.178104
0.0539262
0.174615
0.0592588
0.170692
0.0652728
0.166269
0.0721481
0.161224
0.0801407
0.1554
0.0895563
0.148651
0.100832
0.140802
0.114553
0.131651
0.131423
0.120942
0.152441
0.108771
0.178228
0.0954434
0.209036
0.080897
0.242578
0.0658623
0.2819
0.0453074
0.302707
0.326161
0.200038
0.00072207
0.199851
0.00554685
0.199449
0.00991334
0.198844
0.0138746
0.19805
0.017567
0.197077
0.0210974
0.195929
0.02455
0.194601
0.0279943
0.193091
0.031492
0.191386
0.0350993
0.189477
0.0388701
0.187347
0.0428665
0.184972
0.0471514
0.18233
0.0518018
0.17938
0.0569138
0.176079
0.0626036
0.172378
0.0690284
0.168194
0.0763911
0.163429
0.0849545
0.157986
0.0950387
0.151758
0.107093
0.144656
0.12168
0.136553
0.139545
0.127566
0.161443
0.118137
0.187674
0.108717
0.218485
0.0994691
0.251876
0.0916989
0.289756
0.0780233
0.316533
0.404284
0.000669451
-0.000401564
0.00284663
-0.00212265
0.00636246
-0.00362423
0.0106112
-0.00435257
0.0148505
-0.0042266
0.0185644
-0.00364924
0.0216068
-0.00300094
0.0240542
-0.00244701
0.0260297
-0.00200659
0.0276648
-0.00168445
0.0290657
-0.00146093
0.0302415
-0.00124496
0.0311674
-0.00100583
0.0319037
-0.000826318
0.0325827
-0.000756651
0.03327
-0.000748209
0.0339128
-0.000695128
0.0344293
-0.000554374
0.0347658
-0.000407782
0.0349927
-0.000334067
0.0352418
-0.000350874
0.0355911
-0.000450129
0.0361087
-0.000618764
0.0368415
-0.000834884
0.037815
-0.00107667
0.0390353
-0.00132442
0.0405022
-0.0015718
0.0422293
-0.00183278
0.0442181
-0.00209534
-0.00227126
0.000541788
-0.000796001
0.00293808
-0.00444036
0.00654283
-0.00727975
0.0106658
-0.00851628
0.0146721
-0.00819431
0.0181575
-0.00706951
0.0210319
-0.00583773
0.0233637
-0.004779
0.0252448
-0.00391695
0.0267987
-0.00328591
0.028161
-0.00288128
0.0293298
-0.00248009
0.0302349
-0.00198908
0.0309142
-0.00159377
0.0315026
-0.00142934
0.032094
-0.00141434
0.0326761
-0.00134446
0.0331385
-0.0010762
0.0334261
-0.000772406
0.0335736
-0.000579975
0.03361
-0.000485891
0.0335801
-0.000519603
0.033529
-0.000667981
0.0335215
-0.000929004
0.0336269
-0.0012848
0.0339075
-0.00170893
0.0344181
-0.00218718
0.0352325
-0.00275266
0.0364682
-0.00343736
-0.00428102
0.00069096
-0.00136641
0.00317537
-0.00686358
0.00646883
-0.0105775
0.0098921
-0.0119099
0.0129658
-0.0112026
0.0154866
-0.00953091
0.0174667
-0.00778865
0.0189908
-0.00630408
0.0201082
-0.0050618
0.0209217
-0.00414614
0.0216131
-0.00362841
0.0221517
-0.00307888
0.0223924
-0.00230488
0.0223722
-0.00166141
0.0222174
-0.00135966
0.0220389
-0.00131581
0.0218988
-0.00127963
0.0214286
-0.000679435
0.0204959
7.9572e-05
0.0192239
0.000600804
0.0178789
0.000764112
0.0166285
0.00063343
0.0155675
0.00029392
0.0147097
-0.00017202
0.0140685
-0.000745894
0.0138928
-0.00163666
0.0143736
-0.00277246
0.0155993
-0.00408363
0.0175544
-0.00549868
-0.00695698
0.00112922
-0.00247856
0.00368959
-0.00941858
0.00657235
-0.0134403
0.00910934
-0.0143739
0.0110101
-0.0130277
0.0123059
-0.0107778
0.013121
-0.00858151
0.0135625
-0.00674409
0.013619
-0.00514485
0.0133399
-0.0039166
0.0130346
-0.00337821
0.0126197
-0.00271666
0.0117691
-0.0015193
0.0100177
8.4406e-06
0.00746878
0.00110865
0.00465912
0.0014166
0.00198398
0.00131994
0.000143196
0.00108507
-0.000990394
0.00113191
-0.0017438
0.0012663
-0.00227784
0.0012058
-0.00258721
0.000847333
-0.0026175
0.000226288
-0.00226246
-0.000627035
-0.00138574
-0.00172431
-0.000134036
-0.00299143
0.00142755
-0.00443819
0.00322856
-0.00598958
0.00516548
-0.00754146
-0.0089064
0.00159843
-0.00420825
0.0041765
-0.0120234
0.00644324
-0.0156594
0.00782976
-0.0156712
0.00829759
-0.0134243
0.00809672
-0.0105357
0.00743213
-0.00789537
0.00649166
-0.00579322
0.00528018
-0.0039612
0.00330851
-0.00200491
0.000137217
-0.000265662
-0.00334677
0.000709992
-0.0060048
0.00108365
-0.00768852
0.00162842
-0.00883197
0.00217919
-0.00988948
0.00240057
-0.0108861
0.00224205
-0.0118121
0.00193441
-0.0124527
0.00169164
-0.01274
0.00146759
-0.0127192
0.00109456
-0.0124592
0.000493489
-0.0119761
-0.000353604
-0.0112945
-0.00140781
-0.0104281
-0.0026919
-0.00941537
-0.00410684
-0.00834563
-0.00561169
-0.00732777
-0.00711196
-0.0065018
-0.00847284
-0.00959127
0.00202537
-0.00637088
0.0043245
-0.0143411
0.00558851
-0.0168575
0.00540758
-0.0154071
0.0040742
-0.0120285
0.00197725
-0.00840005
-0.000831414
-0.00506361
-0.00438397
-0.00222359
-0.0081146
-0.000255735
-0.0112167
0.00103519
-0.0133013
0.00175824
-0.0148211
0.00216189
-0.0162553
0.00245973
-0.0174499
0.00276976
-0.0183402
0.00300415
-0.0190139
0.00300457
-0.0195848
0.00274028
-0.0200647
0.00233842
-0.0203669
0.00191383
-0.020436
0.00145208
-0.0203033
0.000873058
-0.0200205
0.000118102
-0.0196199
-0.000849965
-0.0191147
-0.00201159
-0.018574
-0.00333338
-0.0180312
-0.00475197
-0.0175564
-0.00618983
-0.0172268
-0.0075456
-0.0170924
-0.00871196
-0.00963416
0.00228884
-0.00865371
0.00378289
-0.0158482
0.00340958
-0.0164332
0.000899426
-0.012829
-0.00287999
-0.00819416
-0.00735182
-0.00389244
-0.0116622
-0.000738319
-0.0150528
0.00116194
-0.017506
0.00217345
-0.0193553
0.00284524
-0.0209434
0.00329429
-0.0223544
0.00350956
-0.0235646
0.0036104
-0.0245162
0.00366661
-0.0252065
0.0036327
-0.0256992
0.00343059
-0.0260807
0.0030511
-0.0263787
0.00256182
-0.0265663
0.00202254
-0.0266262
0.00142878
-0.0265773
0.000736629
-0.0264479
-0.000102788
-0.0262716
-0.00112134
-0.0260707
-0.00231061
-0.025875
-0.00362956
-0.0257164
-0.0050127
-0.0256421
-0.00636706
-0.0256968
-0.00759426
-0.0259147
-0.00859792
-0.00932486
0.00216146
-0.0107727
0.00196823
-0.0156715
-0.000974912
-0.0134495
-0.00597556
-0.00776402
-0.0114209
-0.0027034
-0.0159603
0.000673331
-0.0192416
0.00254099
-0.0216783
0.00356086
-0.0237193
0.00418071
-0.0254219
0.00452438
-0.0268437
0.00467363
-0.0280517
0.00466525
-0.0290534
0.00455779
-0.0298291
0.00438723
-0.0303917
0.00413555
-0.0307955
0.00377
-0.0311055
0.0032923
-0.0313557
0.00273881
-0.031549
0.0021383
-0.031686
0.00148375
-0.0317773
0.000741628
-0.0318407
-0.000129911
-0.0318965
-0.00115998
-0.0319603
-0.00234478
-0.0320451
-0.0036453
-0.0321738
-0.00498613
-0.0323773
-0.00626621
-0.0326864
-0.00738765
-0.0331305
-0.00825643
-0.00883902
0.00150638
-0.0123743
-0.0015236
-0.012633
-0.00704793
-0.0078391
-0.0132669
-0.00146687
-0.0182237
0.00227856
-0.0217443
0.00420382
-0.0244424
0.00522351
-0.0266845
0.00575925
-0.0285333
0.00598949
-0.0300507
0.00601251
-0.0312994
0.00588343
-0.0323236
0.00564343
-0.0331482
0.00533217
-0.0337845
0.00497016
-0.0342585
0.00455181
-0.0346172
0.00406633
-0.0349117
0.00351971
-0.0351761
0.00293154
-0.0354262
0.00231212
-0.0356702
0.00164703
-0.0359151
0.000901356
-0.03617
3.52939e-05
-0.0364442
-0.00097976
-0.0367428
-0.00214426
-0.0370678
-0.00342144
-0.0374309
-0.00472557
-0.0378501
-0.00594937
-0.0383475
-0.00699159
-0.0389455
-0.00775916
-0.00824439
-0.000383276
-0.0120739
-0.0061081
-0.00683646
-0.0133152
-0.000484753
-0.0188982
0.00420816
-0.0229297
0.00632153
-0.0260284
0.00729709
-0.0284978
0.00767227
-0.0305027
0.00773001
-0.0321375
0.0075881
-0.0334607
0.00730254
-0.0345261
0.00691173
-0.0353787
0.00645383
-0.0360534
0.00596
-0.0365787
0.00544421
-0.0369881
0.00490545
-0.0373239
0.00434157
-0.0376286
0.00375897
-0.0379348
0.00316757
-0.0382636
0.00256605
-0.0386275
0.00193143
-0.0390316
0.00122141
-0.0394747
0.000389745
-0.0399557
-0.000592479
-0.04047
-0.00172871
-0.0410133
-0.00298069
-0.0415821
-0.00426033
-0.0421823
-0.00545139
-0.0428287
-0.00644477
-0.0435397
-0.00714632
-0.00756711
-0.00356709
-0.00845075
-0.0112045
0.000939655
-0.0180435
0.00649666
-0.022917
0.00916508
-0.0265669
0.0100029
-0.0293448
0.010074
-0.0315212
0.00983589
-0.0332667
0.00945141
-0.0346711
0.00896303
-0.0357878
0.00838804
-0.0366665
0.0077556
-0.0373555
0.00710344
-0.0378984
0.00645867
-0.0383325
0.00582927
-0.0386935
0.00521259
-0.0390188
0.00460802
-0.0393447
0.00402104
-0.0397021
0.00345623
-0.0401147
0.00290517
-0.0405986
0.00233717
-0.04116
0.00170014
-0.0417934
0.000935626
-0.042483
3.84059e-06
-0.0432133
-0.00109857
-0.0439676
-0.00233188
-0.0447284
-0.00360533
-0.04549
-0.00479193
-0.0462618
-0.00576996
-0.0470622
-0.00643981
-0.00682127
-0.00692816
-0.00135628
-0.0151529
0.00933821
-0.0215838
0.0130215
-0.026139
0.0137734
-0.0293727
0.0132824
-0.0317648
0.0124861
-0.0336015
0.0116767
-0.0350648
0.0108971
-0.0362274
0.0101007
-0.0371325
0.00926455
-0.0378233
0.00841392
-0.0383534
0.0075965
-0.038776
0.00683934
-0.039133
0.0061394
-0.0394575
0.00548498
-0.0397799
0.00487328
-0.0401312
0.00431003
-0.040541
0.00379874
-0.0410361
0.0033281
-0.0416376
0.00286182
-0.0423552
0.00233654
-0.0431811
0.00167583
-0.0440882
0.000818906
-0.0450423
-0.000247146
-0.0460095
-0.00147604
-0.0469586
-0.00276627
-0.0478726
-0.00398046
-0.0487558
-0.00497907
-0.0496313
-0.00565097
-0.00601531
-0.00933049
0.00809375
-0.0182852
0.0184646
-0.0245312
0.0193319
-0.0287036
0.017975
-0.0315084
0.016116
-0.0334109
0.0144196
-0.0348094
0.0130948
-0.0359486
0.0120223
-0.0368683
0.0109957
-0.037564
0.00993376
-0.0380643
0.00888416
-0.0384347
0.00793223
-0.0387446
0.00710951
-0.0390377
0.00638756
-0.0393371
0.00573415
-0.039663
0.00514357
-0.0400404
0.00462665
-0.0404985
0.00419101
-0.0410683
0.0038271
-0.0417784
0.00349644
-0.0426452
0.00312377
-0.0436617
0.00260919
-0.0447947
0.0018626
-0.0459931
0.000845949
-0.0471953
-0.00039441
-0.0483382
-0.00174066
-0.0494055
-0.00301868
-0.0503942
-0.00407535
-0.0513331
-0.00478403
-0.00515478
-0.0110524
0.0192874
-0.0211783
0.0287266
-0.0273572
0.0255602
-0.0311249
0.0217649
-0.0332056
0.0182078
-0.03432
0.0155519
-0.0351171
0.0139158
-0.0359093
0.0128141
-0.0366177
0.0116847
-0.0371206
0.0104144
-0.0374213
0.00915817
-0.0376198
0.00809889
-0.0378219
0.0072744
-0.0380689
0.00659169
-0.0383596
0.00597657
-0.0386967
0.00542692
-0.0391
0.00497074
-0.0396
0.00462661
-0.0402331
0.00439082
-0.0410391
0.00422836
-0.0420469
0.00405327
-0.0432538
0.00373494
-0.0446205
0.00314266
-0.0460811
0.00220076
-0.047538
0.000935988
-0.0488995
-0.000504777
-0.0501367
-0.00190269
-0.0512331
-0.00305556
-0.0522148
-0.00383818
-0.00424403
-0.0122498
0.0315959
-0.0257959
0.0423932
-0.0316594
0.0314687
-0.0340986
0.0242281
-0.0346246
0.0187437
-0.0343141
0.0152465
-0.034271
0.0138911
-0.0348462
0.0134028
-0.0354696
0.0123005
-0.0358107
0.0107399
-0.035871
0.00919631
-0.0358523
0.00805171
-0.0359486
0.00733621
-0.0361833
0.00678591
-0.0364943
0.00624128
-0.0368552
0.00573585
-0.0372852
0.00534326
-0.0378219
0.00510045
-0.0385074
0.00500831
-0.0393956
0.00504359
-0.0405355
0.00511591
-0.0419351
0.0050536
-0.0435476
0.00466842
-0.0452827
0.00383253
-0.0470141
0.00254468
-0.0486136
0.000966999
-0.0500414
-0.000611984
-0.0512551
-0.00191812
-0.0523001
-0.00280348
-0.00327403
0.207697
0.000751768
0.207513
0.00579423
0.207123
0.0103602
0.20654
0.0145071
0.205777
0.0183759
0.204842
0.0220766
0.203736
0.0256977
0.202459
0.0293128
0.201005
0.032986
0.199368
0.0367757
0.197536
0.0407409
0.195493
0.0449471
0.193221
0.0494626
0.190695
0.0543698
0.187882
0.0597713
0.184747
0.0657911
0.181254
0.072593
0.17731
0.0803894
0.172865
0.0894243
0.167896
0.100039
0.162374
0.112645
0.156286
0.127795
0.149759
0.146098
0.14335
0.16788
0.137769
0.193289
0.134162
0.222135
0.134159
0.251945
0.142664
0.281351
0.161126
0.29822
0.297519
0.267979
0.212722
0.000782021
0.21255
0.00603068
0.212184
0.0107838
0.211638
0.0151042
0.210923
0.0191386
0.210046
0.0229999
0.209008
0.0267809
0.207808
0.0305567
0.206443
0.0343936
0.204907
0.0383536
0.203188
0.0425016
0.201275
0.0469021
0.199154
0.0516269
0.196803
0.0567667
0.194193
0.0624284
0.191302
0.068736
0.188103
0.075858
0.184546
0.0839919
0.18062
0.0933759
0.176367
0.104322
0.171843
0.117199
0.167189
0.132481
0.162901
0.150419
0.159747
0.171069
0.158833
0.194245
0.162283
0.218738
0.17327
0.241028
0.198001
0.256712
0.236175
0.260149
0.261578
0.272178
0.217868
0.000812494
0.217712
0.00625264
0.217376
0.011179
0.216873
0.0156602
0.216213
0.0198483
0.215403
0.023859
0.214444
0.0277873
0.213338
0.0317101
0.212079
0.0356971
0.210664
0.0398138
0.209084
0.044126
0.207331
0.0486994
0.205394
0.0536105
0.203257
0.0589503
0.200909
0.0648244
0.198335
0.0713614
0.195532
0.0787141
0.192501
0.0870662
0.189278
0.0966319
0.18597
0.107663
0.182716
0.120489
0.179915
0.135318
0.178251
0.152122
0.178593
0.170769
0.182438
0.190446
0.192103
0.20913
0.209529
0.22367
0.234736
0.231578
0.26191
0.233037
0.231928
0.291581
0.22314
0.000842308
0.223003
0.00645699
0.222701
0.0115416
0.222247
0.0161692
0.22165
0.0204967
0.220917
0.024643
0.220051
0.0287039
0.219052
0.0327586
0.217917
0.03688
0.216643
0.0411347
0.215228
0.0455874
0.213664
0.0503099
0.211944
0.0553778
0.210066
0.0608752
0.208033
0.0669053
0.205849
0.0735936
0.203543
0.0810674
0.201152
0.0895001
0.198777
0.0990455
0.196574
0.109904
0.194811
0.122291
0.194058
0.136111
0.194994
0.151227
0.198588
0.16722
0.206308
0.182775
0.219477
0.196017
0.23796
0.205247
0.259806
0.209786
0.283072
0.20981
0.204953
0.310063
0.22854
0.000871294
0.228425
0.00664121
0.228162
0.0118665
0.227763
0.0166239
0.227238
0.0210751
0.226592
0.0253417
0.225832
0.0295184
0.224956
0.0336873
0.223961
0.0379247
0.222848
0.0422955
0.22162
0.0468637
0.220275
0.0517021
0.218816
0.0568845
0.21725
0.0624879
0.21559
0.0686113
0.213875
0.0753564
0.212147
0.0828421
0.210497
0.0911951
0.209074
0.100511
0.208071
0.110948
0.207906
0.122497
0.209129
0.134929
0.212369
0.148032
0.218568
0.161071
0.228638
0.172757
0.24275
0.181957
0.260049
0.187996
0.279194
0.19068
0.299243
0.189789
0.184008
0.320202
0.234071
0.000898684
0.233982
0.0068012
0.233764
0.012148
0.233427
0.0170183
0.232979
0.0215758
0.232432
0.0259439
0.231792
0.0302177
0.231053
0.034482
0.230215
0.0388135
0.229284
0.0432743
0.228267
0.0479289
0.227173
0.0528447
0.226013
0.058091
0.224803
0.0637445
0.223578
0.0698839
0.222389
0.0765918
0.221305
0.0839745
0.220468
0.0920789
0.220041
0.100983
0.220282
0.11075
0.221648
0.121172
0.224585
0.132037
0.229674
0.142991
0.237595
0.153203
0.248566
0.161837
0.262224
0.168344
0.277828
0.172428
0.294581
0.173957
0.311692
0.172703
0.166938
0.328779
0.239738
0.000922056
0.239679
0.00693366
0.23951
0.0123826
0.239239
0.0173469
0.238877
0.02199
0.238437
0.0264381
0.237933
0.0307891
0.237348
0.0351278
0.236683
0.0395276
0.235956
0.0440494
0.235178
0.0487545
0.234363
0.0537076
0.233534
0.0589675
0.232718
0.0646077
0.231968
0.0706822
0.231347
0.0772623
0.23096
0.0844097
0.230963
0.0921233
0.231525
0.100468
0.23297
0.109349
0.235667
0.11852
0.239987
0.127767
0.246397
0.136635
0.255144
0.144512
0.266071
0.150958
0.278789
0.155659
0.292792
0.158449
0.307557
0.159217
0.322495
0.157789
0.152333
0.337116
0.245543
0.000940823
0.245516
0.00703706
0.2454
0.0125653
0.245204
0.0176015
0.244933
0.0223083
0.244615
0.0268131
0.244264
0.03122
0.243845
0.0356109
0.243365
0.0400509
0.242862
0.0445988
0.242347
0.0493172
0.241841
0.0542619
0.241372
0.0594846
0.240984
0.0650454
0.240737
0.0709794
0.240708
0.0773404
0.241035
0.0841314
0.241855
0.0913519
0.243367
0.0990029
0.245882
0.106881
0.249668
0.114784
0.255019
0.12247
0.262167
0.129545
0.271075
0.135659
0.281557
0.140527
0.293284
0.143958
0.305898
0.145841
0.319084
0.146054
0.332359
0.144544
0.139576
0.345135
0.251488
0.000955599
0.251496
0.00710794
0.251441
0.0126899
0.251328
0.0177751
0.251161
0.0225228
0.250979
0.0270611
0.250786
0.0315006
0.250537
0.0359165
0.250259
0.0403649
0.25
0.0449039
0.249768
0.0495976
0.249592
0.0544873
0.249506
0.0596214
0.249563
0.0650384
0.249836
0.0707576
0.250413
0.0768124
0.251428
0.0831658
0.253016
0.0898133
0.255396
0.0966727
0.258799
0.103529
0.263415
0.110223
0.269407
0.116534
0.276815
0.122193
0.285563
0.126968
0.295489
0.130659
0.30631
0.133163
0.317773
0.134371
0.329652
0.134192
0.341549
0.13268
0.128242
0.352902
0.257579
0.000964015
0.257624
0.00714382
0.257634
0.0127519
0.257616
0.0178605
0.257572
0.0226266
0.257531
0.0271765
0.257481
0.0316203
0.257411
0.0360291
0.257365
0.0404525
0.257367
0.0449499
0.257436
0.0495796
0.257603
0.0543718
0.257909
0.0593666
0.258423
0.0645758
0.259214
0.0700173
0.260378
0.0756987
0.262036
0.0815589
0.264333
0.0875681
0.267458
0.0936008
0.271549
0.0994928
0.276712
0.105115
0.283011
0.110291
0.290431
0.114827
0.298895
0.118555
0.308242
0.121364
0.318266
0.123169
0.32878
0.123858
0.339552
0.123429
0.350287
0.12197
0.118023
0.360523
0.263817
0.000965857
0.263902
0.00714169
0.263983
0.0127468
0.264065
0.0178516
0.264158
0.0226123
0.264253
0.0271524
0.26434
0.03157
0.264471
0.035936
0.264678
0.0403018
0.264954
0.0447264
0.265331
0.0492552
0.265849
0.0539066
0.266558
0.0587095
0.267523
0.0636625
0.268812
0.0687807
0.270526
0.0740367
0.27278
0.0793582
0.275704
0.0846989
0.279414
0.089946
0.28398
0.094982
0.289458
0.0996925
0.295868
0.103933
0.30318
0.107567
0.311304
0.110477
0.320108
0.112601
0.329442
0.113866
0.339132
0.114183
0.348968
0.113606
0.35874
0.112217
0.108711
0.368067
0.270206
0.000960489
0.270333
0.00709934
0.270488
0.0126705
0.270672
0.017744
0.270899
0.0224732
0.271133
0.0269775
0.271382
0.0313386
0.271734
0.0356286
0.272193
0.0399092
0.272744
0.0442302
0.273434
0.04862
0.274306
0.0530885
0.275413
0.057656
0.276812
0.0623173
0.278578
0.0670684
0.28081
0.0718597
0.283594
0.0766297
0.287017
0.081332
0.291142
0.0858766
0.296012
0.0901668
0.301659
0.0940991
0.308077
0.097567
0.315217
0.100473
0.322989
0.102748
0.331292
0.104335
0.340018
0.10517
0.348993
0.105231
0.358038
0.104579
0.367006
0.103267
0.100153
0.375578
0.276751
0.000946224
0.276921
0.00701545
0.277149
0.0125213
0.277436
0.0175346
0.277787
0.0222039
0.278178
0.0266398
0.278628
0.030917
0.279202
0.0351068
0.279898
0.0392734
0.280724
0.0434579
0.281727
0.0476729
0.282949
0.0519228
0.28444
0.0562207
0.286258
0.0605551
0.288477
0.0649066
0.291165
0.069229
0.294375
0.0734759
0.298165
0.0775977
0.30258
0.0815175
0.307646
0.0851545
0.31337
0.0884269
0.319729
0.0912565
0.326663
0.0935834
0.334095
0.0953561
0.341953
0.0965127
0.350131
0.0970219
0.358477
0.0969094
0.366854
0.0962228
0.375147
0.094993
0.0922291
0.383085
0.283452
0.000924447
0.283669
0.00688602
0.283971
0.012297
0.28436
0.017221
0.284839
0.0218
0.285402
0.0261365
0.286065
0.0303041
0.286857
0.0343688
0.287782
0.0383923
0.288877
0.0424095
0.290192
0.0464171
0.291759
0.0504159
0.293623
0.0544156
0.295835
0.0584023
0.298446
0.0623536
0.301502
0.0662315
0.305041
0.0699935
0.309107
0.0735876
0.313726
0.0769524
0.318909
0.0800238
0.324647
0.0827394
0.330899
0.0850507
0.337611
0.0869145
0.344735
0.0882716
0.352199
0.0890842
0.359887
0.0893645
0.367683
0.0891394
0.375487
0.0884407
0.383206
0.0872942
0.0848424
0.390608
0.290318
0.000893587
0.290581
0.00671071
0.290956
0.0119958
0.291449
0.0168019
0.292065
0.0212593
0.292803
0.0254675
0.293678
0.0295001
0.294682
0.0334175
0.295823
0.0372708
0.29719
0.0410842
0.298824
0.0448537
0.300724
0.0485807
0.302931
0.0522708
0.305483
0.0559114
0.308416
0.0594794
0.311766
0.0629392
0.315565
0.0662511
0.319838
0.06937
0.324597
0.0722467
0.329839
0.0748321
0.335539
0.0770874
0.341657
0.0789777
0.348165
0.0804497
0.355011
0.0814642
0.362106
0.0820241
0.369356
0.082145
0.376677
0.0818447
0.38399
0.0811514
0.391217
0.0800878
0.0779146
0.39816
0.297355
0.00085208
0.29766
0.00649101
0.298105
0.0116181
0.298702
0.0162753
0.299458
0.020581
0.300369
0.0246323
0.301448
0.0285055
0.30266
0.0322534
0.304028
0.035906
0.305674
0.0394845
0.307609
0.0429997
0.309809
0.04645
0.312311
0.0498331
0.315147
0.0531366
0.318348
0.0563377
0.32194
0.0594055
0.325942
0.0623053
0.330366
0.0649998
0.335214
0.0674507
0.340467
0.0696276
0.346099
0.0715029
0.352091
0.0730304
0.358409
0.0741727
0.364984
0.0749276
0.371738
0.0753032
0.378605
0.0753085
0.385515
0.0749613
0.392403
0.0742867
0.399208
0.0733048
0.0713814
0.405757
0.304565
0.000801408
0.304912
0.00622798
0.305417
0.011163
0.306119
0.0156391
0.307018
0.0197642
0.308098
0.0236334
0.309362
0.0273206
0.310792
0.0308686
0.312418
0.0342983
0.314324
0.0376336
0.316511
0.0408895
0.318969
0.044061
0.321725
0.047141
0.324805
0.0501178
0.328231
0.0529715
0.332017
0.0556761
0.336175
0.0582025
0.340707
0.060521
0.3456
0.0626082
0.350833
0.0644427
0.356397
0.0659853
0.362269
0.0672021
0.368393
0.0680886
0.374709
0.0686482
0.381161
0.0688845
0.387692
0.0688079
0.394244
0.0684354
0.400765
0.0677893
0.407204
0.0668875
0.0651889
0.413413
0.31196
0.000741839
0.312342
0.00592668
0.312889
0.0106312
0.313699
0.0148887
0.314754
0.0188073
0.315998
0.0224729
0.317443
0.025949
0.31909
0.029274
0.32096
0.0324704
0.323092
0.0355592
0.325498
0.0385508
0.328183
0.0414423
0.331161
0.0442259
0.334449
0.0468902
0.338061
0.0494186
0.342003
0.05179
0.346279
0.0539808
0.350878
0.0559731
0.355786
0.0577506
0.360995
0.0592806
0.366492
0.0605338
0.372232
0.0615046
0.378166
0.0621939
0.384248
0.0626018
0.390431
0.062734
0.396666
0.0626017
0.402907
0.0622206
0.40911
0.0616103
0.415231
0.060787
0.0592913
0.421146
0.319524
0.000674332
0.319944
0.00558345
0.320545
0.0100202
0.321468
0.0140259
0.322672
0.0177145
0.324075
0.0211568
0.325694
0.0244034
0.327535
0.027492
0.329614
0.0304456
0.331952
0.0332809
0.33456
0.0360065
0.337445
0.0386211
0.340615
0.0411176
0.344079
0.0434856
0.347843
0.045712
0.351908
0.0477798
0.356266
0.0496751
0.360906
0.0513852
0.365822
0.0528834
0.371005
0.0541447
0.376419
0.0551641
0.382023
0.0559411
0.387781
0.0564737
0.393653
0.0567645
0.399597
0.0568207
0.405574
0.0566532
0.411544
0.0562764
0.41747
0.0557075
0.423317
0.0549609
0.0536491
0.428977
0.327238
0.000601429
0.327711
0.0051874
0.328417
0.00932688
0.329447
0.0130612
0.330767
0.0164969
0.332313
0.0196949
0.334093
0.0226972
0.336112
0.0255381
0.338378
0.0282401
0.340902
0.0308177
0.343693
0.0332784
0.346754
0.0356224
0.350089
0.0378435
0.3537
0.0399326