/*--------------------------------*- C++ -*----------------------------------*\
| =========                 |                                                 |
| \\      /  F ield         | OpenFOAM: The Open Source CFD Toolbox           |
|  \\    /   O peration     | Version:  5.x                                   |
|   \\  /    A nd           | Web:      www.OpenFOAM.org                      |
|    \\/     M anipulation  |                                                 |
\*---------------------------------------------------------------------------*/
FoamFile
{
    version     2.0;
    format      ascii;
    class       volVectorField;
    location    "2.1";
    object      U;
}
// * * * * * * * * * * * * * * * * * * * * * * * * * * * * * * * * * * * * * //

dimensions      [0 1 -1 0 0 0 0];

internalField   nonuniform List<vector> 
2790
(
(9.93475 0.0201703 1.88817e-19)
(9.86074 0.0267663 -1.94007e-19)
(9.76096 0.0309721 -5.02587e-20)
(9.64375 0.0355118 -5.20168e-20)
(9.51476 0.0402597 0)
(9.37504 0.0451148 -1.1198e-19)
(9.22415 0.0501933 1.15346e-19)
(9.06165 0.0556471 1.20138e-19)
(8.88715 0.061571 -2.50954e-19)
(8.70009 0.0680412 2.585e-19)
(8.49978 0.0751682 0)
(8.28543 0.0830738 -1.4087e-19)
(8.05606 0.0918844 1.47007e-19)
(7.81053 0.101744 0)
(7.54758 0.112811 -8.08638e-19)
(7.26582 0.125263 8.38675e-19)
(6.9637 0.139313 0)
(6.63961 0.15519 0)
(6.29164 0.173102 -3.93044e-19)
(5.9179 0.193307 -1.67599e-18)
(5.51661 0.216129 2.19078e-18)
(5.08575 0.241886 1.8885e-18)
(4.62331 0.270908 -1.48524e-18)
(4.12743 0.303563 0)
(3.5964 0.340249 3.4752e-18)
(3.02881 0.381283 -4.91948e-18)
(2.4235 0.426478 0)
(1.78022 0.473899 0)
(1.07327 0.520061 0)
(0.518449 0.508766 0)
(10.0018 0.0381128 -1.88517e-19)
(9.9901 0.0534359 -1.92689e-19)
(9.95403 0.0642539 -1.98683e-19)
(9.89776 0.0761302 3.07569e-19)
(9.82606 0.0888621 0)
(9.74036 0.102187 2.19551e-19)
(9.64051 0.116338 -2.25357e-19)
(9.52636 0.131636 3.52968e-19)
(9.39788 0.148311 -2.40225e-19)
(9.25459 0.166572 -2.50775e-19)
(9.09585 0.186692 2.60039e-19)
(8.92103 0.208961 -9.51797e-19)
(8.72925 0.233687 2.38617e-18)
(8.51947 0.261223 -2.33675e-18)
(8.2905 0.291947 1.66508e-18)
(8.04101 0.32627 -1.5872e-19)
(7.76942 0.364672 -2.67107e-18)
(7.47422 0.407674 5.55071e-18)
(7.1534 0.455715 -4.72835e-18)
(6.80473 0.509237 -4.53906e-20)
(6.42631 0.568805 -3.68746e-18)
(6.01571 0.634928 6.72733e-18)
(5.57015 0.70798 6.76573e-18)
(5.08669 0.788267 -7.53375e-18)
(4.56181 0.876052 1.00766e-18)
(3.99101 0.971688 0)
(3.3674 1.07584 0)
(2.67929 1.1908 -2.42967e-18)
(1.87726 1.33288 0)
(1.10481 1.52417 0)
(9.99888 0.03701 0)
(9.98452 0.0598629 4.81766e-19)
(9.95079 0.0785969 2.97083e-19)
(9.89911 0.0984214 4.0829e-19)
(9.83298 0.119578 -4.21604e-19)
(9.75398 0.141909 -4.35077e-19)
(9.66209 0.1657 0)
(9.55737 0.191349 4.64049e-19)
(9.43998 0.219245 -2.40147e-19)
(9.3094 0.249809 2.48427e-19)
(9.16506 0.283479 -7.70686e-19)
(9.00648 0.320702 -5.31887e-19)
(8.83294 0.361991 -2.76227e-19)
(8.64356 0.407945 0)
(8.43734 0.459212 2.09763e-18)
(8.21311 0.5165 -5.84295e-19)
(7.96947 0.580615 -2.55694e-18)
(7.70508 0.652492 -6.6896e-19)
(7.41825 0.733049 5.632e-18)
(7.10659 0.823125 8.12572e-19)
(6.768 0.923767 -6.06263e-18)
(6.39995 1.03615 -4.84528e-18)
(5.99904 1.16139 6.65212e-18)
(5.56129 1.30061 -1.24028e-17)
(5.08146 1.45521 2.95331e-17)
(4.55225 1.62757 -1.34984e-17)
(3.96285 1.82274 0)
(3.29722 2.05163 2.14552e-18)
(2.52691 2.32713 3.54662e-17)
(1.60377 2.78284 4.57519e-17)
(9.99701 0.0399285 -7.51305e-19)
(9.98023 0.0717778 0)
(9.94635 0.0995894 -3.9588e-19)
(9.89572 0.127568 8.48007e-22)
(9.83086 0.156737 1.24409e-21)
(9.7534 0.187331 4.33508e-19)
(9.66359 0.219746 -8.97468e-19)
(9.56161 0.254464 4.57533e-19)
(9.44753 0.292069 0)
(9.32099 0.333193 -1.48723e-18)
(9.18168 0.37842 4.88274e-19)
(9.02929 0.428335 1.0294e-18)
(8.86325 0.483628 2.16693e-18)
(8.68296 0.545118 -5.63185e-19)
(8.48775 0.613694 0)
(8.27675 0.690336 2.31248e-21)
(8.04895 0.776152 0)
(7.80332 0.872452 5.9169e-18)
(7.53872 0.980701 -6.07338e-18)
(7.25323 1.10232 6.98775e-19)
(6.94488 1.23896 1.46186e-18)
(6.61159 1.39264 -1.18189e-20)
(6.25018 1.56567 -1.43743e-17)
(5.85662 1.76072 1.31254e-17)
(5.42546 1.98135 0)
(4.94902 2.23282 -1.79468e-18)
(4.41706 2.52425 -3.65884e-18)
(3.81037 2.87616 -3.74542e-18)
(3.18098 3.25026 3.78812e-18)
(2.14397 3.96414 6.84199e-17)
(9.99601 0.0442502 -9.27215e-20)
(9.9777 0.083338 -9.62119e-20)
(9.94355 0.118816 -5.91498e-19)
(9.89374 0.154034 1.21887e-18)
(9.83014 0.190533 6.56573e-22)
(9.75422 0.228888 -4.30625e-19)
(9.6664 0.269579 0)
(9.56683 0.313169 0)
(9.45548 0.360367 0)
(9.33216 0.411915 -4.88182e-19)
(9.19673 0.468496 2.52732e-18)
(9.049 0.530824 -3.10957e-18)
(8.88843 0.599714 0)
(8.71461 0.676118 5.56493e-19)
(8.52722 0.761109 0)
(8.3256 0.855883 5.95761e-19)
(8.1091 0.961805 0)
(7.87698 1.08047 1.26992e-18)
(7.62849 1.21375 0)
(7.36242 1.36364 -1.37066e-18)
(7.07737 1.53241 -1.4196e-18)
(6.77178 1.72293 -1.4697e-18)
(6.44331 1.93872 1.52024e-18)
(6.08879 2.18413 -1.57033e-18)
(5.70398 2.46496 3.19113e-18)
(5.28307 2.78927 2.64672e-17)
(4.82054 3.16686 -2.00391e-17)
(4.28438 3.62902 7.95694e-20)
(3.85246 4.03994 -3.3852e-18)
(2.72408 4.94812 5.48548e-17)
(9.99549 0.049312 7.49309e-19)
(9.97633 0.0950031 -1.14767e-18)
(9.94216 0.137818 7.8582e-19)
(9.89332 0.180357 -4.05839e-19)
(9.83126 0.224301 -4.16616e-19)
(9.75725 0.270437 -4.27257e-19)
(9.67173 0.319345 0)
(9.57486 0.371682 2.73395e-18)
(9.46663 0.428251 -1.86622e-18)
(9.34696 0.489866 1.94055e-18)
(9.21578 0.557316 -3.47443e-18)
(9.07298 0.631473 4.64367e-18)
(8.91808 0.71327 -4.21544e-18)
(8.75085 0.803728 -4.39791e-18)
(8.57117 0.904088 4.48782e-18)
(8.37853 1.01576 4.68713e-18)
(8.17251 1.14033 4.89708e-18)
(7.9527 1.27965 -2.23419e-17)
(7.71864 1.43586 -1.2477e-19)
(7.46971 1.61143 2.11382e-17)
(7.20516 1.80927 -1.08281e-17)
(6.92404 2.03299 2.25455e-17)
(6.62508 2.28721 -2.29087e-17)
(6.30651 2.57775 0)
(5.96602 2.91203 -3.02973e-18)
(5.60035 3.2999 2.43812e-17)
(5.21221 3.74802 -2.7409e-17)
(4.74362 4.30252 3.02475e-18)
(4.51507 4.70449 0)
(3.31027 5.72817 -5.40144e-17)
(9.99524 0.0547514 1.86792e-19)
(9.97569 0.106747 1.9272e-19)
(9.94176 0.156508 -1.0249e-21)
(9.894 0.206101 1.20919e-18)
(9.83371 0.257202 9.53507e-22)
(9.76194 0.310786 8.52651e-19)
(9.67914 0.367568 -8.75134e-19)
(9.58544 0.428306 -1.80325e-18)
(9.48085 0.493869 0)
(9.36542 0.56515 0)
(9.23911 0.643036 3.62447e-21)
(9.10178 0.728525 4.07215e-18)
(8.95333 0.822668 -4.15166e-18)
(8.79357 0.926551 0)
(8.62226 1.04153 0)
(8.43924 1.1692 1.13555e-18)
(8.24425 1.31134 9.43865e-18)
(8.03711 1.47 -8.39215e-18)
(7.81768 1.64756 1.12242e-17)
(7.58579 1.84689 -1.01482e-17)
(7.34125 2.07142 0)
(7.08381 2.32542 -2.15297e-17)
(6.81323 2.61433 4.37246e-17)
(6.52929 2.94509 -1.93747e-17)
(6.23187 3.32607 0)
(5.91963 3.76785 0)
(5.60562 4.27039 -2.72279e-18)
(5.19614 4.90021 0)
(5.14915 5.27275 0)
(3.87677 6.34734 1.50513e-18)
(9.99512 0.0603574 -1.67337e-18)
(9.97555 0.118471 9.50683e-19)
(9.94214 0.174814 -7.80964e-19)
(9.89569 0.231151 0)
(9.8374 0.289131 -8.24251e-19)
(9.76822 0.349887 0)
(9.68852 0.414271 8.70718e-19)
(9.59841 0.483116 8.95094e-19)
(9.49799 0.557332 2.76235e-18)
(9.38735 0.637891 -2.82414e-18)
(9.26652 0.725777 9.72917e-19)
(9.13537 0.822046 -9.95781e-19)
(8.99414 0.927866 0)
(8.84261 1.04446 1.05159e-18)
(8.68046 1.17325 0)
(8.50787 1.31599 -1.00716e-17)
(8.32476 1.47462 1.04277e-18)
(8.13116 1.65138 9.33155e-18)
(7.92723 1.84886 -1.20714e-18)
(7.71313 2.07024 2.44353e-18)
(7.48918 2.3194 0)
(7.25582 2.60113 2.05062e-17)
(7.01373 2.92152 -1.80625e-17)
(6.76407 3.28814 -2.63058e-18)
(6.50885 3.70966 2.57499e-18)
(6.24756 4.19697 0)
(6.00438 4.74054 -3.71571e-17)
(5.64391 5.43221 5.57647e-19)
(5.74637 5.77622 7.32201e-17)
(4.41045 6.86498 -7.88498e-17)
(9.99505 0.065995 2.96712e-18)
(9.97583 0.130037 0)
(9.94333 0.192629 -7.75683e-19)
(9.89852 0.255395 0)
(9.84252 0.31997 -8.1719e-19)
(9.77617 0.387606 -8.38873e-19)
(9.69982 0.459274 -8.61144e-19)
(9.61366 0.535859 0)
(9.51781 0.618318 -5.46916e-18)
(9.41241 0.7077 4.6542e-18)
(9.29761 0.805066 3.84896e-18)
(9.17335 0.911512 -5.9007e-18)
(9.03988 1.02832 4.01728e-18)
(8.89713 1.15687 -6.60063e-21)
(8.745 1.29867 1.05679e-18)
(8.58367 1.45553 -1.08215e-18)
(8.41336 1.62958 7.82343e-18)
(8.23437 1.82322 -6.79182e-18)
(8.04697 2.03921 0)
(7.85169 2.28102 -2.37813e-18)
(7.64929 2.55293 0)
(7.44088 2.86013 0)
(7.22797 3.20913 -4.88489e-18)
(7.01284 3.60784 0)
(6.79928 4.06471 -2.44003e-18)
(6.58632 4.59116 0)
(6.40961 5.16688 0)
(6.08918 5.91214 0)
(6.31173 6.24138 3.00159e-17)
(4.9163 7.34748 -7.45091e-17)
(9.99504 0.0715642 -1.66463e-18)
(9.97644 0.141311 -1.31729e-18)
(9.94512 0.209829 4.33386e-21)
(9.90218 0.278714 1.69673e-22)
(9.84867 0.349597 8.14164e-19)
(9.78535 0.423807 2.50775e-18)
(9.71263 0.5024 -8.49122e-19)
(9.63077 0.586321 0)
(9.53987 0.676586 3.7052e-21)
(9.44016 0.774298 -9.19585e-19)
(9.33189 0.880575 -9.42163e-19)
(9.21508 0.996586 1.95226e-18)
(9.08995 1.12369 -3.94739e-18)
(8.95667 1.2634 -1.01752e-18)
(8.81541 1.41733 -2.07386e-18)
(8.66613 1.58731 1.06386e-18)
(8.50942 1.77558 -2.15123e-18)
(8.346 1.98478 6.6311e-18)
(8.17616 2.21786 9.05527e-18)
(8.00076 2.47852 -3.63032e-17)
(7.82101 2.77135 2.05532e-17)
(7.6386 3.10189 -2.07401e-17)
(7.45584 3.47689 2.06968e-17)
(7.27589 3.90443 0)
(7.10404 4.39249 2.19693e-18)
(6.93754 4.95382 0)
(6.82367 5.55757 2.00048e-18)
(6.53843 6.35314 -2.98834e-17)
(6.86273 6.68543 6.05663e-17)
(5.41411 7.84045 -3.40496e-17)
(9.99509 0.0769913 0)
(9.97726 0.152201 1.50259e-18)
(9.94731 0.226336 1.53971e-18)
(9.90638 0.301026 -1.57309e-18)
(9.85554 0.37791 -8.05977e-19)
(9.79551 0.458359 8.33416e-19)
(9.72672 0.543492 -1.69096e-18)
(9.64948 0.634327 -3.48443e-18)
(9.56388 0.731937 3.54879e-18)
(9.47032 0.837453 9.12116e-19)
(9.36907 0.952044 9.33431e-19)
(9.26022 1.07697 1.90373e-18)
(9.14409 1.21363 7.81363e-18)
(9.02094 1.36363 -1.58937e-17)
(8.89116 1.52872 1.72287e-17)
(8.75471 1.71075 -1.0279e-17)
(8.61238 1.91203 -6.31731e-18)
(8.46532 2.13542 1.06101e-17)
(8.31395 2.38409 0)
(8.15947 2.66192 2.15911e-18)
(8.0035 2.97375 -2.20183e-18)
(7.84829 3.32543 2.20034e-18)
(7.69689 3.72387 0)
(7.55321 4.17731 -3.16812e-17)
(7.42382 4.69333 2.88339e-17)
(7.30355 5.28689 0)
(7.25085 5.91835 -1.87549e-18)
(7.00177 6.76383 0)
(7.41886 7.11916 2.54086e-17)
(5.92565 8.36141 -2.95259e-17)
(9.99517 0.0822261 1.4634e-18)
(9.97825 0.162639 0)
(9.94985 0.242083 1.52688e-18)
(9.91112 0.322257 3.91685e-18)
(9.86314 0.404812 8.06947e-19)
(9.80659 0.49114 1.074e-20)
(9.74202 0.582412 -2.52222e-18)
(9.66967 0.679712 4.30405e-18)
(9.58977 0.784162 -6.14915e-18)
(9.50283 0.896913 2.68493e-18)
(9.40904 1.01918 9.14343e-19)
(9.30861 1.15231 -9.38981e-19)
(9.20196 1.29773 0)
(9.08941 1.4571 1.93669e-18)
(8.97145 1.63231 0)
(8.84867 1.82532 1.99582e-20)
(8.72172 2.03839 1.01957e-17)
(8.59164 2.27451 6.23141e-18)
(8.45955 2.53716 -1.65588e-17)
(8.32689 2.83034 -2.09841e-18)
(8.19582 3.15912 0)
(8.0691 3.52952 0)
(7.95049 3.94868 2.00095e-18)
(7.84461 4.42505 -1.9927e-18)
(7.75929 4.96629 3.17854e-17)
(7.68694 5.58997 -2.86797e-17)
(7.69588 6.2512 0)
(7.49007 7.1467 -2.36992e-17)
(7.99618 7.55166 2.41006e-17)
(6.46813 8.92822 2.51002e-17)
(9.99523 0.0872367 -1.82567e-18)
(9.97937 0.172552 3.71217e-19)
(9.9527 0.256994 -4.81186e-21)
(9.91633 0.342334 -5.19264e-21)
(9.87137 0.430223 0)
(9.81853 0.52205 8.15503e-19)
(9.75843 0.619029 -8.33757e-19)
(9.69129 0.722307 3.91771e-21)
(9.6175 0.833045 3.48257e-18)
(9.53752 0.952433 9.09439e-19)
(9.4515 1.08173 -4.50775e-18)
(9.35986 1.22233 7.38409e-18)
(9.26306 1.37573 -7.46646e-18)
(9.16152 1.54359 -9.54521e-18)
(9.0559 1.72781 7.69872e-18)
(8.94739 1.93051 -5.87559e-18)
(8.83636 2.15403 5.89221e-18)
(8.724 2.40144 1.97545e-18)
(8.61202 2.67635 0)
(8.50201 2.98289 0)
(8.39688 3.32628 -1.77508e-17)
(8.29995 3.71267 1.55785e-17)
(8.21573 4.14941 -1.91858e-18)
(8.14957 4.64533 0)
(8.11063 5.2087 0)
(8.08979 5.85937 -2.53371e-17)
(8.16283 6.55298 2.42523e-17)
(8.01542 7.49628 -2.09074e-17)
(8.61548 7.98513 1.95124e-18)
(7.07355 9.57761 1.31348e-18)
(9.99538 0.0919934 0)
(9.98064 0.181885 7.35668e-19)
(9.9558 0.271006 -7.58866e-19)
(9.9219 0.361186 -4.5942e-23)
(9.88013 0.454037 -3.16045e-18)
(9.83128 0.550944 3.22185e-18)
(9.77588 0.653159 3.30429e-18)
(9.71422 0.761893 -2.51292e-18)
(9.64675 0.87835 -3.43918e-18)
(9.5739 1.00376 -1.76092e-18)
(9.49595 1.13944 3.54729e-18)
(9.41341 1.28677 5.45149e-18)
(9.32683 1.44728 -1.46876e-17)
(9.23679 1.62264 7.42487e-18)
(9.14417 1.81473 7.55071e-18)
(9.05012 2.0258 -7.58735e-18)
(8.9552 2.25831 0)
(8.86127 2.51537 -1.73063e-17)
(8.77009 2.80065 1.53223e-17)
(8.68357 3.1183 1.52177e-17)
(8.60538 3.4736 -2.81279e-17)
(8.53948 3.87278 1.47205e-17)
(8.49122 4.32331 0)
(8.46682 4.83452 2.5114e-17)
(8.47688 5.41546 8.7215e-19)
(8.51271 6.0871 -2.23706e-17)
(8.65418 6.81298 2.05956e-17)
(8.5909 7.79376 -1.96523e-17)
(9.29901 8.40347 0)
(7.78018 10.3385 0)
(9.99575 0.0964559 1.44161e-18)
(9.98201 0.190622 -2.93871e-18)
(9.95899 0.284098 7.52003e-19)
(9.92772 0.378764 7.65562e-19)
(9.88936 0.476184 0)
(9.84468 0.577747 -1.60351e-18)
(9.79416 0.68475 1.64313e-18)
(9.73816 0.798452 -3.31967e-18)
(9.67715 0.920099 -5.08453e-18)
(9.61163 1.05096 5.16591e-18)
(9.54201 1.19233 -1.74459e-18)
(9.46886 1.34563 1.78304e-18)
(9.39283 1.51237 0)
(9.31469 1.69422 0)
(9.23537 1.89309 -7.36099e-18)
(9.15592 2.11127 1.81482e-18)
(9.0777 2.35135 7.4092e-18)
(9.00243 2.61625 0)
(8.93221 2.90969 0)
(8.87002 3.23594 1.45372e-17)
(8.81964 3.60003 -1.25488e-17)
(8.78576 4.00813 0)
(8.7747 4.46773 1.31891e-17)
(8.79375 4.98834 -1.26526e-17)
(8.85512 5.57917 -1.48908e-18)
(8.9531 6.26084 -1.36378e-18)
(9.16756 7.01063 1.80458e-17)
(9.22062 8.00425 -1.7478e-17)
(10.0385 8.78748 -1.75008e-18)
(8.59872 11.5105 -4.44412e-18)
(-0.0187256 -0.00867408 0)
(0.0379809 -0.0359312 0)
(0.212878 -0.0512593 -2.39767e-19)
(0.435103 -0.0564057 2.13578e-19)
(0.669788 -0.0534932 0)
(0.879045 -0.0468417 4.91104e-20)
(1.04967 -0.0396732 1.4445e-19)
(1.18419 -0.0332152 -1.48297e-19)
(1.2897 -0.0277241 -4.82566e-20)
(1.3736 -0.0235492 2.38931e-20)
(1.44281 -0.0205703 0)
(1.50119 -0.0174337 2.31933e-20)
(1.54865 -0.0137145 -2.25208e-20)
(1.58558 -0.0108724 2.26717e-20)
(1.61623 -0.0100748 0)
(1.64569 -0.0106324 -1.07989e-20)
(1.67517 -0.0109452 1.03856e-20)
(1.70128 -0.00987355 -1.03881e-20)
(1.72009 -0.00816096 9.76597e-21)
(1.73262 -0.00692133 -9.77036e-21)
(1.74357 -0.00656563 -4.64641e-21)
(1.75775 -0.00771752 0)
(1.77937 -0.0104794 1.50883e-22)
(1.81135 -0.0145605 4.0703e-21)
(1.85534 -0.0194895 0)
(1.91189 -0.0249185 3.16566e-21)
(1.9809 -0.0309538 2.65334e-21)
(2.06234 -0.0379209 -8.42746e-22)
(2.15606 -0.0451672 2.1881e-21)
(2.28668 -0.0497906 0)
(-0.0403391 -0.00829741 -1.25425e-18)
(0.00286983 -0.0965851 0)
(0.173974 -0.142456 -1.44327e-20)
(0.38908 -0.15592 0)
(0.617528 -0.149 0)
(0.822872 -0.132754 3.30134e-19)
(0.991621 -0.114872 -8.21403e-19)
(1.12567 -0.0983574 5.36176e-19)
(1.23133 -0.0838716 -5.24012e-20)
(1.31493 -0.0727562 -2.39031e-20)
(1.38369 -0.0650468 -1.85587e-19)
(1.44311 -0.0564113 2.11402e-19)
(1.49263 -0.0459707 -8.99956e-20)
(1.52987 -0.038082 1.13036e-19)
(1.55781 -0.0345495 0)
(1.58274 -0.0325021 -1.08611e-20)
(1.60846 -0.0279008 0)
(1.63332 -0.0193381 0)
(1.6516 -0.0127993 -1.96836e-20)
(1.66203 -0.0114949 1.97106e-20)
(1.66658 -0.0149909 2.30878e-20)
(1.66651 -0.0220219 -1.8424e-20)
(1.66439 -0.0315264 -4.28268e-21)
(1.66318 -0.0434947 8.0912e-21)
(1.66615 -0.0568 -6.93326e-21)
(1.67688 -0.0694608 3.69036e-21)
(1.69836 -0.0808517 -8.24679e-21)
(1.73325 -0.0922241 1.77628e-21)
(1.78487 -0.104619 -3.15854e-21)
(1.88155 -0.116541 -1.13188e-21)
(-0.0558509 -0.0230713 3.8394e-20)
(-0.0412765 -0.166839 1.29233e-19)
(0.102243 -0.237229 8.98506e-19)
(0.283604 -0.254565 -8.10248e-19)
(0.474242 -0.241111 7.60615e-19)
(0.642146 -0.214512 -3.24007e-20)
(0.775351 -0.185923 -4.12498e-19)
(0.876038 -0.159225 -2.99552e-19)
(0.950039 -0.134751 -3.83323e-19)
(1.00199 -0.116331 2.04101e-19)
(1.03846 -0.105684 9.96824e-20)
(1.06803 -0.090101 -2.35822e-19)
(1.09071 -0.0680554 2.37629e-19)
(1.0977 -0.0541659 -2.3291e-20)
(1.09059 -0.0552747 0)
(1.07707 -0.0639558 -6.72209e-20)
(1.06455 -0.0689112 9.042e-20)
(1.05732 -0.0579358 4.28795e-20)
(1.02573 -0.036698 -2.18406e-20)
(0.967387 -0.0170925 4.11055e-20)
(0.89938 -0.00541445 -4.14583e-20)
(0.833302 -0.00145977 0)
(0.776518 -0.00406902 0)
(0.734356 -0.0111662 -8.91835e-21)
(0.696106 -0.0239181 -1.55833e-20)
(0.675278 -0.0447361 2.23399e-20)
(0.685692 -0.0734079 -6.17104e-22)
(0.733515 -0.110791 0)
(0.817002 -0.156758 -3.09178e-21)
(0.961007 -0.208774 -1.1283e-21)
(-0.0685113 -0.0501073 2.36312e-18)
(-0.0831869 -0.238838 -2.07062e-18)
(0.034392 -0.323692 4.58904e-21)
(0.18012 -0.338134 1.49462e-18)
(0.325935 -0.314225 0)
(0.445872 -0.275527 1.92094e-19)
(0.530493 -0.235929 9.61906e-19)
(0.583198 -0.199506 -9.09793e-19)
(0.610946 -0.163357 -3.94723e-19)
(0.618223 -0.134434 1.12462e-19)
(0.601604 -0.126318 2.13488e-19)
(0.575192 -0.119454 5.0657e-19)
(0.561934 -0.0907875 -1.96037e-19)
(0.517398 -0.0477738 2.00275e-19)
(0.398251 -0.0120582 -9.95263e-20)
(0.254238 0.00111166 5.09972e-20)
(0.106388 0.00650896 0)
(-0.0215779 0.0277338 0)
(-0.0732934 0.050102 2.95329e-22)
(-0.112923 0.0623962 2.32664e-20)
(-0.143788 0.0620836 -4.38874e-20)
(-0.163441 0.0498941 2.22514e-20)
(-0.168962 0.0286762 2.06627e-20)
(-0.161042 0.0015272 -1.93489e-20)
(-0.12189 -0.0360869 0)
(-0.0628517 -0.0847074 0)
(0.0115861 -0.141177 0)
(0.102472 -0.20467 -1.40899e-20)
(0.203025 -0.270972 1.02279e-21)
(0.319216 -0.333611 2.49378e-21)
(-0.0860548 -0.104846 -2.31815e-18)
(-0.131436 -0.317107 1.81574e-18)
(-0.0368601 -0.40103 0)
(0.0700292 -0.40294 9.90553e-20)
(0.162362 -0.363415 -1.94182e-19)
(0.22227 -0.309605 -1.99576e-19)
(0.242953 -0.25593 5.91179e-19)
(0.227267 -0.210174 -8.46412e-19)
(0.186396 -0.168882 -1.73496e-22)
(0.145049 -0.121813 2.09777e-19)
(0.0381463 -0.0675357 -5.52831e-19)
(-0.178893 -0.0290304 -1.08488e-19)
(-0.331489 0.0100176 -5.23393e-20)
(-0.420729 0.0556826 5.14976e-20)
(-0.473586 0.0836197 1.99229e-19)
(-0.531877 0.0882256 -1.48912e-19)
(-0.58712 0.0763016 0)
(-0.637728 0.0588469 4.53355e-20)
(-0.67134 0.0520459 -2.04469e-19)
(-0.688617 0.0506534 -1.90147e-20)
(-0.690425 0.0426618 8.67678e-20)
(-0.678286 0.0235937 2.04964e-20)
(-0.654388 -0.00594895 -5.76296e-20)
(-0.622907 -0.0456903 2.13207e-20)
(-0.576171 -0.0928646 3.50335e-20)
(-0.522729 -0.147469 1.45502e-20)
(-0.463664 -0.208112 1.20994e-20)
(-0.403653 -0.270405 3.12339e-22)
(-0.350778 -0.330346 6.17769e-21)
(-0.318526 -0.378139 0)
(-0.112711 -0.188444 0)
(-0.1895 -0.39575 0)
(-0.117595 -0.460291 -5.11809e-20)
(-0.0586865 -0.437051 0)
(-0.034719 -0.373078 1.58468e-18)
(-0.0535055 -0.297982 -2.52128e-18)
(-0.118399 -0.218366 8.83347e-19)
(-0.244467 -0.13881 -1.74419e-22)
(-0.416632 -0.0666104 -1.09606e-19)
(-0.589961 0.000112516 -3.17771e-19)
(-0.703709 0.0465162 4.2795e-19)
(-0.783468 0.0593445 -3.04682e-19)
(-0.861822 0.0621894 4.07246e-19)
(-0.923943 0.0759724 -1.47701e-19)
(-0.970409 0.0929612 -1.91672e-19)
(-1.00672 0.0996216 1.9105e-19)
(-1.03697 0.0928552 -4.67785e-20)
(-1.06219 0.0792425 -4.43632e-20)
(-1.07831 0.0659455 8.95525e-20)
(-1.08267 0.0520097 -8.41207e-20)
(-1.07577 0.0329581 8.44091e-20)
(-1.05992 0.00600533 0)
(-1.039 -0.0298733 0)
(-1.00997 -0.0750962 -1.73928e-20)
(-0.977712 -0.127655 0)
(-0.944002 -0.184707 -1.28632e-20)
(-0.911296 -0.243978 1.01398e-21)
(-0.88457 -0.301381 8.72617e-21)
(-0.870057 -0.352351 5.13602e-21)
(-0.868305 -0.388929 0)
(-0.147785 -0.287769 -4.38782e-20)
(-0.256758 -0.459894 1.69304e-18)
(-0.212906 -0.484043 1.03522e-19)
(-0.221401 -0.418328 0)
(-0.292251 -0.311114 2.14311e-19)
(-0.428145 -0.197746 0)
(-0.601933 -0.0954402 0)
(-0.780056 -0.014543 2.19941e-19)
(-0.909462 0.0326585 0)
(-1.00461 0.0599913 0)
(-1.08905 0.0804133 -4.08223e-19)
(-1.16326 0.0952959 3.06985e-19)
(-1.22877 0.1042 -9.86304e-20)
(-1.28132 0.111249 9.55535e-20)
(-1.31982 0.115524 -2.3482e-19)
(-1.34718 0.112553 1.86953e-19)
(-1.36742 0.10117 4.53215e-20)
(-1.38247 0.0845948 0)
(-1.39143 0.066052 -4.16882e-20)
(-1.39339 0.0454387 4.32329e-20)
(-1.38887 0.0205375 -4.06481e-20)
(-1.37948 -0.0107394 0)
(-1.36718 -0.0497445 0)
(-1.35179 -0.0960879 1.67175e-21)
(-1.3359 -0.14846 3.15586e-20)
(-1.32037 -0.204379 -2.57408e-20)
(-1.30761 -0.260489 9.152e-21)
(-1.30166 -0.312876 -9.10495e-21)
(-1.30536 -0.357687 -1.39874e-20)
(-1.31245 -0.387834 3.38574e-21)
(-0.187846 -0.380453 4.3199e-20)
(-0.332238 -0.482439 -3.46289e-18)
(-0.330799 -0.44693 -2.9344e-20)
(-0.446662 -0.311114 1.66101e-18)
(-0.615765 -0.175776 0)
(-0.80977 -0.0551001 -8.8629e-19)
(-0.972798 0.0257186 -7.9525e-20)
(-1.09399 0.0714356 -8.0191e-20)
(-1.2026 0.101477 9.78872e-19)
(-1.29652 0.12226 -3.08107e-19)
(-1.37652 0.13451 8.13895e-19)
(-1.44453 0.139703 -4.99983e-19)
(-1.50146 0.1407 -7.31128e-22)
(-1.54631 0.139198 -9.52287e-20)
(-1.5791 0.134261 -1.38703e-19)
(-1.60218 0.123961 1.84675e-19)
(-1.61872 0.108092 0)
(-1.63085 0.0884539 8.6773e-20)
(-1.63915 0.0666669 -1.29461e-19)
(-1.64378 0.042589 1.22399e-19)
(-1.64536 0.0147593 -4.16712e-20)
(-1.64486 -0.0185803 0)
(-1.6428 -0.0587637 0)
(-1.64042 -0.105588 -1.6139e-20)
(-1.63819 -0.157551 0)
(-1.63687 -0.211975 1.23148e-20)
(-1.63862 -0.26511 0)
(-1.64673 -0.313108 0)
(-1.66153 -0.352461 8.78103e-21)
(-1.67308 -0.37723 -3.40283e-21)
(-0.22377 -0.451986 2.19822e-18)
(-0.414516 -0.433033 0)
(-0.489524 -0.321762 0)
(-0.686458 -0.151733 -1.69667e-18)
(-0.891012 -0.0067751 7.34882e-20)
(-1.05622 0.076666 1.89039e-18)
(-1.19545 0.126085 -7.76224e-19)
(-1.31829 0.157395 8.96505e-19)
(-1.4247 0.175419 7.35733e-19)
(-1.51488 0.183876 -9.43359e-19)
(-1.58996 0.18505 0)
(-1.65182 0.180652 9.79076e-20)
(-1.70183 0.172867 1.91842e-19)
(-1.74065 0.162857 9.38082e-20)
(-1.76941 0.15024 1.37529e-19)
(-1.79032 0.134206 -2.29457e-19)
(-1.806 0.114835 -4.50215e-20)
(-1.81853 0.0930972 0)
(-1.82909 0.0696925 0)
(-1.83839 0.0442138 0)
(-1.84708 0.0153384 0)
(-1.85572 -0.0185372 0)
(-1.86406 -0.0586474 3.42696e-20)
(-1.87337 -0.105093 0)
(-1.88314 -0.156386 2.69565e-20)
(-1.89382 -0.20945 2.2652e-20)
(-1.90724 -0.260267 0)
(-1.92602 -0.304921 1.26274e-20)
(-1.94863 -0.34005 0)
(-1.96308 -0.360878 2.78498e-21)
(-0.247163 -0.47575 -2.29381e-18)
(-0.50025 -0.298828 1.8814e-18)
(-0.644014 -0.14125 1.20856e-19)
(-0.872345 0.0520935 1.89275e-18)
(-1.05462 0.144928 -1.96185e-18)
(-1.22067 0.200717 9.19656e-19)
(-1.36428 0.231712 -9.30336e-19)
(-1.48635 0.245969 1.0941e-19)
(-1.58865 0.248689 -4.19105e-19)
(-1.67326 0.243363 4.16562e-19)
(-1.74222 0.232515 -9.9568e-20)
(-1.7977 0.218088 3.87053e-19)
(-1.8416 0.201689 -5.74512e-19)
(-1.87554 0.184104 3.7591e-19)
(-1.9013 0.165247 -2.77671e-19)
(-1.92106 0.144834 1.83113e-19)
(-1.93713 0.123012 4.45776e-20)
(-1.95148 0.100238 -8.64535e-20)
(-1.96555 0.0766023 8.642e-20)
(-1.98034 0.051333 0)
(-1.99652 0.0229036 3.64225e-20)
(-2.01439 -0.0103932 -7.58386e-20)
(-2.03316 -0.0497739 -6.75675e-20)
(-2.05306 -0.0954296 -3.00826e-20)
(-2.07398 -0.145954 -5.10827e-22)
(-2.09546 -0.198034 -3.21135e-20)
(-2.11898 -0.247352 -7.09876e-21)
(-2.14654 -0.289792 -1.24168e-20)
(-2.17525 -0.322021 5.93136e-21)
(-2.19186 -0.340219 -2.10778e-21)
(-0.271725 -0.396774 2.00629e-20)
(-0.549673 -0.098947 0)
(-0.741447 0.111446 -2.09479e-18)
(-0.969544 0.235993 2.04747e-18)
(-1.17335 0.302528 -1.07506e-18)
(-1.347 0.332212 9.70221e-19)
(-1.4901 0.339245 0)
(-1.60718 0.333162 -1.0981e-19)
(-1.70272 0.318836 0)
(-1.78006 0.299074 0)
(-1.84181 0.276074 -1.95419e-19)
(-1.89047 0.251741 2.93827e-19)
(-1.9285 0.227378 -2.85072e-19)
(-1.95812 0.203448 1.41776e-19)
(-1.98144 0.179843 -9.29508e-20)
(-2.00054 0.156416 -1.82852e-19)
(-2.01747 0.133265 1.36372e-19)
(-2.03411 0.110526 0)
(-2.05199 0.0878829 4.33512e-20)
(-2.07231 0.0641931 -4.16484e-20)
(-2.09586 0.0375578 7.67374e-20)
(-2.12283 0.00591149 -1.08054e-21)
(-2.15242 -0.0321277 3.34421e-20)
(-2.18306 -0.0768123 2.98319e-20)
(-2.21486 -0.126611 -3.75136e-20)
(-2.2466 -0.178326 -9.21559e-21)
(-2.27938 -0.227166 1.66649e-20)
(-2.31466 -0.268627 0)
(-2.34854 -0.299236 -6.91873e-21)
(-2.36695 -0.31584 6.37534e-22)
(-0.262422 -0.226859 1.92722e-21)
(-0.524671 0.18761 0)
(-0.779753 0.353917 0)
(-1.04861 0.445368 1.97432e-18)
(-1.27001 0.4722 -9.42445e-19)
(-1.44416 0.465068 -9.64001e-19)
(-1.57977 0.44313 0)
(-1.68698 0.415123 -5.29695e-19)
(-1.77294 0.383538 4.19955e-19)
(-1.84137 0.349486 2.99133e-19)
(-1.89481 0.314702 -8.84306e-19)
(-1.93602 0.281151 6.76824e-19)
(-1.96802 0.249956 -9.25366e-22)
(-1.99352 0.221141 -1.42174e-19)
(-2.01468 0.194283 2.33626e-19)
(-2.03335 0.169144 -1.86908e-19)
(-2.05128 0.145758 4.54725e-20)
(-2.07019 0.124097 4.54621e-20)
(-2.09174 0.103598 -8.74042e-20)
(-2.11739 0.0828185 4.14556e-20)
(-2.14817 0.0594236 0)
(-2.18427 0.0307524 -7.35277e-20)
(-2.22474 -0.00516166 0)
(-2.2672 -0.0488124 -2.94669e-20)
(-2.30965 -0.0984672 -2.49197e-20)
(-2.35155 -0.150561 2.07212e-20)
(-2.39319 -0.200115 0)
(-2.4357 -0.241938 8.12905e-21)
(-2.47431 -0.272185 1.99642e-21)
(-2.49435 -0.288078 2.06734e-21)
(-0.126216 0.155969 2.70035e-18)
(-0.466368 0.514475 0)
(-0.819101 0.650323 0)
(-1.13002 0.678819 9.74504e-19)
(-1.35804 0.644183 -9.85745e-19)
(-1.52019 0.589664 0)
(-1.63813 0.536364 3.22916e-19)
(-1.72948 0.487943 -3.19199e-19)
(-1.80312 0.440839 -3.51741e-19)
(-1.86133 0.393401 4.97733e-19)
(-1.90539 0.347428 -1.9383e-19)
(-1.93823 0.305672 3.8487e-19)
(-1.96374 0.269225 -3.82602e-19)
(-1.98515 0.237266 1.90405e-19)
(-2.0044 0.208666 1.90071e-19)
(-2.0228 0.182998 -2.84417e-19)
(-2.04167 0.16035 4.65205e-20)
(-2.0626 0.140714 -4.55284e-20)
(-2.08735 0.123458 1.32047e-19)
(-2.11777 0.106928 -4.38609e-20)
(-2.1553 0.0883076 0)
(-2.20033 0.0641137 7.23015e-20)
(-2.25166 0.031416 -3.53443e-20)
(-2.30669 -0.0108072 2.93517e-20)
(-2.36138 -0.0611274 2.49391e-20)
(-2.41351 -0.114725 -1.96461e-20)
(-2.46399 -0.166304 0)
(-2.51367 -0.209926 -1.01112e-20)
(-2.55693 -0.241099 0)
(-2.57854 -0.257137 -3.91075e-21)
(0.0143411 0.585211 0)
(-0.42737 0.967654 -2.46024e-19)
(-0.902708 1.00467 0)
(-1.24297 0.924062 9.07601e-19)
(-1.45409 0.80363 -9.10709e-19)
(-1.58095 0.692971 5.21945e-20)
(-1.6652 0.610954 1.07225e-19)
(-1.73397 0.548801 0)
(-1.79412 0.48982 -5.0063e-20)
(-1.842 0.42979 -4.75471e-20)
(-1.87569 0.372823 -4.75225e-20)
(-1.89868 0.324108 0)
(-1.91689 0.284771 1.93444e-19)
(-1.93432 0.252046 -2.40842e-19)
(-1.95215 0.223383 0)
(-1.97061 0.198266 4.80936e-20)
(-1.99042 0.177187 9.68591e-20)
(-2.01299 0.160412 0)
(-2.04031 0.147394 0)
(-2.07472 0.136429 -8.92242e-20)
(-2.11838 0.124228 0)
(-2.1721 0.106272 0)
(-2.23453 0.0782759 1.58819e-20)
(-2.30239 0.0380288 -1.58479e-20)
(-2.37049 -0.0132389 0)
(-2.43436 -0.0705731 1.97249e-20)
(-2.49395 -0.125667 0)
(-2.55105 -0.172593 0)
(-2.59928 -0.206056 4.22997e-21)
(-2.62228 -0.22313 1.84195e-21)
(0.0370461 1.51855 -2.87726e-18)
(-0.426415 1.85069 2.25206e-18)
(-1.10683 1.53148 3.51043e-19)
(-1.42811 1.21933 -5.51233e-21)
(-1.57427 0.941603 -4.37387e-19)
(-1.62624 0.741547 -1.01587e-19)
(-1.65163 0.640931 4.98871e-20)
(-1.69239 0.588167 4.79611e-20)
(-1.74311 0.527678 -4.6533e-20)
(-1.78277 0.457822 1.6983e-21)
(-1.80439 0.390203 -1.43911e-19)
(-1.81452 0.335914 2.39122e-19)
(-1.824 0.297092 0)
(-1.83822 0.26651 -4.2671e-22)
(-1.85605 0.238933 1.00372e-19)
(-1.87543 0.214523 -9.97744e-20)
(-1.89638 0.195014 -1.00943e-19)
(-1.92038 0.181306 0)
(-1.94967 0.173063 0)
(-1.98729 0.168775 -2.29795e-21)
(-2.03641 0.164851 -2.0934e-20)
(-2.09863 0.155429 2.07903e-20)
(-2.17258 0.134333 -1.6198e-20)
(-2.25389 0.0975676 4.61146e-20)
(-2.33594 0.0455019 -5.40458e-21)
(-2.41287 -0.0161753 5.40241e-21)
(-2.48312 -0.0778746 0)
(-2.54769 -0.129509 7.98093e-21)
(-2.60138 -0.166627 -4.25121e-21)
(-2.62633 -0.18588 1.26577e-21)
(9.99619 0.100655 -4.14786e-18)
(9.98347 0.198885 3.51976e-18)
(9.96238 0.296442 -1.43895e-18)
(9.93393 0.395268 7.28114e-19)
(9.89919 0.496914 -1.50263e-18)
(9.85894 0.60278 1.52772e-18)
(9.81359 0.714199 7.84288e-21)
(9.76355 0.832463 0)
(9.70936 0.958833 4.85601e-18)
(9.65158 1.09457 -6.5625e-18)
(9.59077 1.241 3.33454e-18)
(9.52754 1.39952 0)
(9.46264 1.57166 -1.69779e-18)
(9.39704 1.7591 6.89606e-18)
(9.33162 1.96371 -6.92163e-18)
(9.26765 2.18778 -1.7503e-18)
(9.20717 2.43396 0)
(9.15148 2.70494 0)
(9.10336 3.00432 1.70184e-18)
(9.06685 3.33638 0)
(9.04574 3.70581 -3.29684e-18)
(9.04551 4.11849 -1.57251e-18)
(9.07341 4.58158 1.05105e-17)
(9.13798 5.10377 -1.00955e-17)
(9.25313 5.69348 -2.05705e-17)
(9.41886 6.36825 1.95393e-17)
(9.71253 7.11836 -2.41236e-19)
(9.93326 8.06609 -6.63761e-18)
(11.0457 8.92277 6.61489e-18)
(11.8742 11.7696 5.17592e-18)
(9.99661 0.104608 1.02328e-20)
(9.98505 0.206692 -3.41661e-18)
(9.96607 0.308058 6.97521e-19)
(9.94062 0.410722 -1.42834e-18)
(9.90972 0.516254 0)
(9.8741 0.626067 0)
(9.83413 0.741519 1.51268e-18)
(9.79029 0.863901 1.52988e-18)
(9.74318 0.994462 -3.12319e-18)
(9.69349 1.13446 1.58164e-18)
(9.64176 1.28523 1.60832e-18)
(9.58875 1.44819 0)
(9.53533 1.6248 1.55126e-20)
(9.48254 1.81673 -1.63849e-18)
(9.43142 2.02585 0)
(9.38347 2.25432 0)
(9.34093 2.50471 1.63993e-18)
(9.30555 2.77962 0)
(9.28047 3.08225 -2.89739e-20)
(9.26997 3.41657 0)
(9.27845 3.78691 -1.06834e-17)
(9.31206 4.19852 1.343e-17)
(9.37876 4.6575 1.42632e-18)
(9.48819 5.17049 0)
(9.65529 5.74363 -2.96382e-19)
(9.88608 6.38776 0)
(10.2494 7.0956 -7.63622e-18)
(10.6133 7.9146 6.87338e-18)
(11.4504 8.69169 1.36138e-18)
(12.3469 9.87975 0)
(9.99702 0.108252 1.05299e-20)
(9.98674 0.213899 6.6525e-19)
(9.97003 0.318752 2.02811e-18)
(9.94775 0.424901 0)
(9.92086 0.533948 1.41071e-18)
(9.89 0.647318 -1.43303e-18)
(9.85562 0.766368 0)
(9.81825 0.892369 2.9607e-18)
(9.77856 1.02655 -6.01777e-18)
(9.73722 1.17019 4.57396e-18)
(9.69481 1.32459 -6.17468e-18)
(9.65229 1.49114 4.66914e-18)
(9.61061 1.67126 3.13645e-18)
(9.57087 1.86659 1.58469e-18)
(9.53436 2.0789 0)
(9.50276 2.31019 -1.26066e-17)
(9.47836 2.56283 -1.5512e-18)
(9.46358 2.83925 1.24336e-17)
(9.46171 3.14222 1.06205e-17)