/*--------------------------------*- C++ -*----------------------------------*\
| =========                 |                                                 |
| \\      /  F ield         | OpenFOAM: The Open Source CFD Toolbox           |
|  \\    /   O peration     | Version:  2006                                  |
|   \\  /    A nd           | Website:  www.openfoam.com                      |
|    \\/     M anipulation  |                                                 |
\*---------------------------------------------------------------------------*/
FoamFile
{
    version     2.0;
    format      ascii;
    class       volVectorField;
    location    "0.3";
    object      U;
}
// * * * * * * * * * * * * * * * * * * * * * * * * * * * * * * * * * * * * * //

dimensions      [0 1 -1 0 0 0 0];


internalField   nonuniform List<vector> 
2790
(
(9.94475 1.16424e-22 0.0199696)
(9.87975 -1.18297e-22 0.0284555)
(9.78482 0 0.0342663)
(9.66675 1.99416e-21 0.04022)
(9.53112 2.27997e-23 0.046397)
(9.37887 -2.09658e-21 0.0527323)
(9.20921 0 0.0593398)
(9.02133 0 0.0663629)
(8.8145 1.07293e-20 0.0739165)
(8.58786 -1.22459e-20 0.0820951)
(8.34039 0 0.0909849)
(8.07095 0 0.100664)
(7.77831 0 0.111198)
(7.46128 -6.03791e-21 0.122636)
(7.11874 -6.39568e-21 0.134998)
(6.74977 0 0.148268)
(6.3538 1.448e-20 0.16238)
(5.93076 3.92458e-21 0.177199)
(5.48127 2.90863e-20 0.192498)
(5.00692 0 0.20794)
(4.51042 -9.72697e-22 0.223053)
(3.99586 8.24308e-20 0.23722)
(3.46882 0 0.249662)
(2.93643 -1.96567e-19 0.25946)
(2.40726 -8.62762e-19 0.265595)
(1.891 9.27432e-19 0.267014)
(1.39781 5.08472e-19 0.262819)
(0.94186 2.2136e-18 0.251046)
(0.492061 1.07429e-20 0.23733)
(0.247157 -2.54834e-18 0.210672)
(9.99928 -1.16199e-22 0.0389942)
(9.98551 3.52446e-22 0.0589695)
(9.94543 7.21575e-22 0.0740095)
(9.88158 1.48108e-21 0.0897309)
(9.79816 -1.99825e-21 0.10638)
(9.69616 -4.16277e-21 0.123771)
(9.57498 3.16994e-21 0.142125)
(9.43384 0 0.16176)
(9.272 5.81833e-21 0.182945)
(9.08859 -2.2956e-21 0.205906)
(8.88252 0 0.230851)
(8.65256 5.18904e-21 0.257966)
(8.39735 -1.08798e-20 0.287404)
(8.11548 -5.70211e-21 0.319266)
(7.80554 1.21616e-20 0.353578)
(7.46627 -6.29998e-21 0.39026)
(7.09657 -1.35367e-20 0.429089)
(6.69578 -2.95904e-20 0.46966)
(6.26373 -1.55447e-19 0.511331)
(5.80106 1.29368e-19 0.553172)
(5.30933 -7.02898e-20 0.593932)
(4.79126 0 0.632017)
(4.25081 6.58458e-19 0.665488)
(3.69322 9.00951e-19 0.692132)
(3.12477 -3.06228e-18 0.709608)
(2.55239 1.65575e-18 0.715679)
(1.98221 -6.06578e-22 0.708688)
(1.42337 9.9194e-19 0.687351)
(0.841018 -5.40947e-19 0.658649)
(0.406447 0 0.605926)
(9.99635 -1.15752e-22 0.0403233)
(9.97951 -8.20448e-22 0.0695625)
(9.9412 4.7657e-22 0.0947913)
(9.88175 4.85409e-22 0.120886)
(9.80401 9.96753e-22 0.148501)
(9.70905 1.03301e-21 0.177569)
(9.59657 8.37301e-24 0.208387)
(9.46598 -2.1799e-21 0.241408)
(9.31663 2.26413e-21 0.277058)
(9.14776 -4.70155e-21 0.315722)
(8.95842 0 0.357765)
(8.74746 -6.3929e-21 0.403532)
(8.51356 1.1988e-20 0.453324)
(8.25527 2.2486e-20 0.507374)
(7.9711 -1.19542e-20 0.565803)
(7.65948 2.4356e-20 0.628583)
(7.31895 -1.0548e-19 0.695472)
(6.94821 1.35901e-19 0.765955)
(6.54626 5.8497e-20 0.839154)
(6.11262 0 0.913747)
(5.64745 0 0.987921)
(5.15172 1.40805e-19 1.05932)
(4.6274 1.22572e-18 1.12507)
(4.0774 -1.2937e-18 1.18184)
(3.50555 2.84373e-18 1.22617)
(2.91628 -3.03846e-18 1.25484)
(2.31324 5.44649e-18 1.26588)
(1.7045 -1.54493e-17 1.25902)
(1.05699 9.41352e-18 1.24466)
(0.516283 9.31193e-18 1.21148)
(9.99477 0 0.0455028)
(9.97569 4.67628e-22 0.0853071)
(9.9371 0 0.121758)
(9.87877 -9.70057e-22 0.158379)
(9.80262 -9.85358e-22 0.196408)
(9.70965 -1.01205e-21 0.236191)
(9.59978 -2.11212e-21 0.278194)
(9.47257 4.31034e-21 0.32302)
(9.32751 0 0.371266)
(9.16402 1.04148e-20 0.423494)
(8.9813 2.5476e-23 0.480249)
(8.77842 3.68123e-21 0.542055)
(8.55426 5.16523e-21 0.609397)
(8.30759 2.2109e-20 0.682693)
(8.03704 -6.82772e-20 0.762241)
(7.74116 -4.94149e-20 0.848174)
(7.41843 4.75813e-20 0.940381)
(7.06735 5.15513e-20 1.03843)
(6.68653 -4.54028e-19 1.14143)
(6.27478 5.86363e-19 1.24797)
(5.83121 0 1.356)
(5.35541 1.31684e-19 1.46276)
(4.84762 -2.83885e-19 1.56476)
(4.30873 2.46858e-18 1.65789)
(3.74044 -1.95345e-18 1.7377)
(3.14534 0 1.79993)
(2.52592 6.55236e-21 1.84171)
(1.89189 -6.73371e-18 1.86214)
(1.21669 7.29987e-18 1.87149)
(0.609455 4.97187e-19 1.86344)
(9.99403 -1.14917e-22 0.0521219)
(9.97373 1.16125e-22 0.100896)
(9.93493 4.73951e-22 0.147064)
(9.87759 3.99943e-24 0.193212)
(9.80305 -4.94156e-22 0.240914)
(9.71211 3.01843e-21 0.290872)
(9.60473 3.09499e-21 0.343687)
(9.48056 1.06112e-21 0.400052)
(9.33914 0 0.460672)
(9.17994 -9.16236e-21 0.526231)
(9.00228 0 0.597398)
(8.80531 -1.96771e-20 0.674829)
(8.58805 -2.03992e-20 0.759148)
(8.34941 -2.16119e-20 0.850922)
(8.08815 -7.36577e-22 0.950611)
(7.80292 -7.58958e-22 1.05852)
(7.49226 -4.90647e-20 1.1747)
(7.15461 -5.09482e-20 1.2989)
(6.78842 5.43627e-19 1.43038)
(6.39207 -5.62871e-19 1.56785)
(5.96392 8.5136e-19 1.70927)
(5.50262 -2.03401e-18 1.8518)
(5.00704 1.33798e-18 1.99167)
(4.47653 2.60428e-18 2.12422)
(3.91119 -3.05534e-18 2.24409)
(3.3123 5.3213e-18 2.3456)
(2.68187 -4.95712e-18 2.42396)
(2.03212 0 2.4755)
(1.34683 -8.50586e-19 2.50559)
(0.694038 -4.73679e-19 2.50676)
(9.99371 0 0.0593796)
(9.9729 -4.6134e-22 0.116535)
(9.93431 -4.71089e-22 0.171941)
(9.8782 4.76497e-22 0.227536)
(9.80562 0 0.2849)
(9.71713 -2.00541e-21 0.344942)
(9.61273 -8.21434e-21 0.408386)
(9.49208 0 0.476007)
(9.3548 1.09949e-21 0.548615)
(9.20035 -1.11534e-21 0.627014)
(9.02812 6.92536e-21 0.712)
(8.83731 -7.14684e-21 0.804363)
(8.62701 2.01338e-20 0.90487)
(8.39616 -2.07414e-20 1.01424)
(8.14358 0 1.1331)
(7.86796 9.16678e-20 1.26194)
(7.56782 -9.34305e-20 1.40103)
(7.24156 -1.50453e-19 1.55032)
(6.88744 5.19678e-19 1.70935)
(6.50343 -4.2946e-19 1.87707)
(6.08739 1.15012e-19 2.05168)
(5.6372 -1.09628e-18 2.23047)
(5.15055 1.00652e-18 2.40959)
(4.62553 -2.71673e-19 2.58401)
(4.06089 0 2.74744)
(3.45679 3.04049e-19 2.89236)
(2.81463 -5.31424e-18 3.01086)
(2.14785 5.69785e-18 3.09465)
(1.45097 0 3.14044)
(0.764571 -6.46161e-19 3.12819)
(9.99363 -1.13774e-22 0.0668819)
(9.97281 1.49245e-21 0.132108)
(9.93482 4.62173e-22 0.196275)
(9.88021 4.72899e-22 0.260943)
(9.80991 1.9311e-21 0.327607)
(9.72431 4.94702e-21 0.397322)
(9.62338 -9.83875e-22 0.470949)
(9.50685 0 0.549369)
(9.37436 0 0.633494)
(9.22541 0 0.724242)
(9.0594 -9.18703e-21 0.822528)
(8.8756 1.90125e-20 0.929269)
(8.6731 -3.25085e-22 1.04537)
(8.45087 1.96375e-20 1.17169)
(8.20775 4.17644e-20 1.30904)
(7.9424 0 1.4581)
(7.65326 0 1.61935)
(7.33862 1.92634e-19 1.79305)
(6.99649 -1.96341e-19 1.97904)
(6.62447 -5.22396e-19 2.17667)
(6.21998 4.29392e-19 2.38452)
(5.78005 -1.14836e-19 2.60021)
(5.3013 0 2.82006)
(4.78053 2.03628e-18 3.03883)
(4.21497 -1.85453e-18 3.24936)
(3.60332 -2.87155e-19 3.44205)
(2.94566 3.00726e-19 3.60517)
(2.25457 0 3.72462)
(1.53234 0 3.7876)
(0.817314 2.00283e-19 3.7516)
(9.9937 9.01348e-22 0.0743995)
(9.97321 2.23685e-22 0.147437)
(9.93618 -1.62355e-21 0.21992)
(9.88337 9.41672e-22 0.293242)
(9.81567 -1.45395e-21 0.368824)
(9.73336 -2.95754e-21 0.447818)
(9.6364 5.03771e-21 0.531211)
(9.52456 7.17914e-21 0.619981)
(9.39751 0 0.715137)
(9.2548 -8.66831e-21 0.817701)
(9.09587 2.26626e-21 0.928706)
(8.92 -2.29473e-21 1.04919)
(8.72634 -2.24275e-22 1.1802)
(8.51388 9.61625e-23 1.32276)
(8.28144 -2.02898e-20 1.47784)
(8.02764 0 1.64635)
(7.75087 4.36825e-20 1.82905)
(7.44924 0 2.02649)
(7.1205 3.84264e-19 2.23894)
(6.76194 -2.91273e-19 2.46621)
(6.3704 5.08277e-20 2.70744)
(5.94204 -8.66726e-19 2.96079)
(5.47243 7.77799e-19 3.22304)
(4.95681 -1.89639e-18 3.48905)
(4.39039 -1.60287e-19 3.75103)
(3.76963 -2.9696e-20 3.99751)
(3.09231 2.00385e-18 4.21272)
(2.36836 -1.84833e-20 4.37623)
(1.60347 -5.2306e-18 4.46603)
(0.856527 5.81946e-18 4.40988)
(9.99386 -1.01314e-21 0.0817868)
(9.97396 -1.02332e-21 0.16236)
(9.9382 2.29107e-22 0.242739)
(9.88748 0 0.324282)
(9.82269 -1.9056e-21 0.408365)
(9.74406 0 0.496205)
(9.65153 0 0.588891)
(9.54492 -8.151e-21 0.687498)
(9.42393 2.09903e-21 0.793126)
(9.28817 6.47453e-21 0.906897)
(9.13713 -1.74986e-20 1.02996)
(8.97013 0 1.16347)
(8.78637 -9.36244e-21 1.30862)
(8.58487 -2.86619e-20 1.46659)
(8.36447 0 1.63855)
(8.12378 0 1.82565)
(7.86113 -2.17982e-20 2.02893)
(7.5745 1.55576e-19 2.24933)
(7.26143 -3.62929e-19 2.48758)
(6.91888 1.85912e-19 2.74409)
(6.54312 -3.72075e-20 3.0187)
(6.1295 -8.13433e-19 3.3104)
(5.67237 9.29536e-19 3.61678)
(5.16513 -1.75642e-18 3.93334)
(4.60038 1.67801e-18 4.2523)
(3.97125 -1.92605e-18 4.56097)
(3.27168 3.9293e-18 4.84005)
(2.50727 -2.14823e-18 5.06226)
(1.68028 -3.77726e-20 5.19575)
(0.888724 -1.62443e-19 5.13009)
(9.99408 0 0.088944)
(9.97498 8.96476e-22 0.176741)
(9.94074 0 0.264603)
(9.8924 4.63811e-22 0.353916)
(9.83081 1.40374e-21 0.446043)
(9.75621 3.81381e-21 0.54225)
(9.66854 0 0.643712)
(9.56764 7.95806e-21 0.75159)
(9.4533 -2.0633e-21 0.867071)
(9.32516 1.0432e-20 0.991373)
(9.18276 1.2958e-21 1.12575)
(9.02551 -2.21415e-21 1.27147)
(8.85267 1.45999e-20 1.42988)
(8.66331 3.29508e-20 1.60231)
(8.45634 9.54569e-21 1.79015)
(8.23039 0 1.99477)
(7.98378 -1.0512e-20 2.21756)
(7.71446 1.16375e-19 2.45986)
(7.41982 -8.56586e-20 2.72294)
(7.09658 -1.09642e-20 3.0079)
(6.74054 -1.16079e-20 3.3155)
(6.34631 4.63558e-20 3.64584)
(5.90701 6.17636e-21 3.99781)
(5.41402 7.09953e-19 4.3683)
(4.8568 -7.12031e-19 4.75065)
(4.22388 0 5.13235)
(3.50309 1.89041e-18 5.49196)
(2.69297 -1.93632e-18 5.79541)
(1.78199 1.28571e-19 5.99948)
(0.922374 1.51555e-19 5.94853)
(9.99436 8.81621e-22 0.0957986)
(9.9762 -8.95397e-22 0.19047)
(9.94372 1.35102e-21 0.28539)
(9.89798 -4.55934e-22 0.382005)
(9.83988 -2.79901e-21 0.481688)
(9.76963 -7.57288e-21 0.585746)
(9.6872 -9.80877e-22 0.695423)
(9.59248 -3.97415e-21 0.81196)
(9.4853 6.003e-21 0.936623)
(9.36538 -1.24336e-20 1.07072)
(9.23234 2.11624e-20 1.21559)
(9.08565 0 1.37263)
(8.92468 -3.51559e-20 1.5433)
(8.7486 1.77293e-20 1.72911)
(8.55639 -1.88069e-20 1.93163)
(8.34678 0 2.15249)
(8.11819 2.96071e-20 2.39342)
(7.86859 -5.49156e-20 2.65619)
(7.59539 2.02583e-20 2.94267)
(7.29521 2.21536e-19 3.25474)
(6.9636 -1.28579e-19 3.59422)
(6.59467 -3.12345e-19 3.96265)
(6.18049 2.69556e-19 4.36081)
(5.71055 9.39224e-20 4.78794)
(5.17094 6.6029e-19 5.24008)
(4.5445 -9.62517e-19 5.70725)
(3.81009 0 6.16887)
(2.95508 0 6.58617)
(1.94118 8.09932e-19 6.9034)
(0.97623 -1.03081e-18 6.9137)
(9.99468 -9.36025e-22 0.102296)
(9.97757 5.52297e-23 0.203454)
(9.94704 -8.97013e-22 0.304992)
(9.90414 4.54079e-22 0.408423)
(9.84976 -1.37969e-21 0.515147)
(9.78416 3.74174e-21 0.626505)
(9.70731 2.85642e-21 0.743801)
(9.61917 -1.92607e-21 0.868344)
(9.51961 -7.95092e-21 1.00147)
(9.40845 3.95314e-21 1.14455)
(9.28539 -5.9118e-23 1.29903)
(9.15001 4.18572e-21 1.4664)
(9.00177 1.73845e-20 1.64823)
(8.83999 -2.65154e-20 1.84619)
(8.66379 -4.53879e-21 2.06202)
(8.47206 4.63848e-21 2.29762)
(8.26337 -7.28363e-23 2.555)
(8.03589 4.45205e-21 2.8364)
(7.78717 -3.8828e-20 3.14427)
(7.51401 -4.03282e-20 3.48133)
(7.21202 3.80232e-20 3.8506)
(6.8752 -3.41123e-21 4.25531)
(6.49515 8.45942e-20 4.69866)
(6.06005 0 5.18328)
(5.55314 0 5.70989)
(4.95129 1.77421e-19 6.27449)
(4.22186 -1.7529e-19 6.86282)
(3.33496 1.82478e-19 7.43827)
(2.20779 -1.81893e-19 7.93544)
(1.08309 0 8.08507)
(9.99502 9.20811e-22 0.108392)
(9.97908 -5.4718e-23 0.215618)
(9.95064 1.76089e-21 0.323313)
(9.91076 0 0.433058)
(9.86034 0 0.546283)
(9.79963 0 0.664364)
(9.72866 0 0.788649)
(9.64744 7.57269e-21 0.920505)
(9.55591 0 1.06132)
(9.45398 -7.96196e-21 1.21255)
(9.34144 -1.61163e-20 1.37568)
(9.21799 8.04062e-21 1.5523)
(9.08325 2.23981e-23 1.74409)
(8.93667 1.70806e-20 1.95283)
(8.77759 4.30134e-21 2.18044)
(8.6051 0 2.429)
(8.41804 0 2.70084)
(8.21489 -1.85246e-20 2.99858)
(7.99357 3.75828e-20 3.32523)
(7.75129 0 3.68432)
(7.48417 -3.09659e-21 4.08007)
(7.1867 -7.74134e-20 4.51749)
(6.85092 7.56798e-20 5.00256)
(6.46502 -7.57623e-20 5.54215)
(6.0111 0 6.14361)
(5.46189 0 6.81305)
(4.77306 0 7.55106)
(3.89105 -1.00527e-20 8.33896)
(2.66036 3.90506e-19 9.12268)
(1.3019 7.44764e-20 9.57057)
(9.99539 -1.72419e-21 0.114055)
(9.98069 8.092e-22 0.226902)
(9.95447 -1.70353e-21 0.340274)
(9.91778 0 0.455814)
(9.87148 -4.49465e-22 0.574984)
(9.81588 -4.5958e-22 0.699187)
(9.75104 9.17654e-22 0.829809)
(9.67702 -7.53568e-21 0.968258)
(9.59386 3.82824e-21 1.11597)
(9.50153 -1.16395e-20 1.27444)
(9.39996 1.57709e-20 1.44523)
(9.28898 -8.08038e-21 1.62998)
(9.16835 8.22195e-21 1.83044)
(9.03773 -8.36111e-21 2.04849)
(8.89668 2.74576e-20 2.28617)
(8.74458 -6.80931e-20 2.54574)
(8.58062 -3.49267e-20 2.82974)
(8.4037 6.92785e-20 3.1411)
(8.21231 -1.39035e-19 3.48331)
(8.00438 1.2474e-21 3.86057)
(7.77696 -7.18486e-20 4.27813)
(7.52579 1.39419e-19 4.74267)
(7.24453 -2.73076e-19 5.2628)
(6.9234 2.68996e-19 5.84986)
(6.5467 -3.94405e-19 6.51882)
(6.0885 2.49669e-19 7.28935)
(5.50005 -2.49917e-19 8.18652)
(4.70788 -2.38449e-20 9.23643)
(3.45042 -1.72574e-20 10.4652)
(1.77003 -6.54324e-20 11.6206)
(9.99578 8.57865e-22 0.119258)
(9.98237 -1.71722e-21 0.237257)
(9.95848 1.08432e-22 0.355808)
(9.9251 1.41074e-21 0.476605)
(9.88308 -2.23122e-22 0.601137)
(9.83275 -3.11299e-21 0.73083)
(9.77424 0 0.867099)
(9.70765 0 1.01138)
(9.63311 0 1.16514)
(9.5507 0 1.32991)
(9.46044 0 1.50728)
(9.36232 0 1.69894)
(9.25628 7.82967e-21 1.90669)
(9.1422 3.22012e-20 2.13246)
(9.01988 -3.02176e-20 2.37837)
(8.88905 0 2.64678)
(8.7493 -6.61179e-20 2.94038)
(8.60007 -9.9183e-20 3.26229)
(8.44057 1.34887e-19 3.61629)
(8.26968 2.78298e-21 4.00704)
(8.08581 0 4.44049)
(7.88663 0 4.92446)
(7.66863 1.30081e-19 5.46954)
(7.4264 0 6.09049)
(7.15106 1.21242e-19 6.80877)
(6.82766 4.1043e-19 7.65688)
(6.42411 -7.62941e-19 8.6872)
(5.89246 4.76456e-19 9.99155)
(4.91702 -3.23366e-19 11.796)
(2.87646 0 14.8568)
(-0.178845 -1.77945e-18 0.272209)
(-0.748034 1.39052e-18 0.384811)
(-1.48795 0 0.451673)
(-2.35875 0 0.485478)
(-3.30106 3.1167e-19 0.49711)
(-4.2856 -2.97537e-19 0.491816)
(-5.28586 0 0.473478)
(-6.27839 0 0.444396)
(-7.24036 1.40588e-19 0.405955)
(-8.14817 -7.01704e-20 0.359038)
(-8.97674 0 0.304332)
(-9.69935 7.0281e-20 0.242476)
(-10.2881 0 0.174279)
(-10.7149 -3.46795e-20 0.10063)
(-10.9531 0 0.0224321)
(-10.9799 0 -0.0596414)
(-10.7783 -2.24224e-20 -0.144574)
(-10.3421 1.48015e-20 -0.227039)
(-9.67934 -1.61737e-21 -0.302014)
(-8.81028 -1.04091e-20 -0.365676)
(-7.76533 1.52184e-20 -0.415418)
(-6.58216 -8.22294e-21 -0.449853)
(-5.3027 3.81235e-21 -0.468607)
(-3.96884 0 -0.471958)
(-2.61779 0 -0.460993)
(-1.25858 0 -0.439766)
(0.107056 0 -0.405333)
(1.33103 0 -0.369006)
(2.53724 -8.65903e-24 -0.342032)
(4.03438 4.56163e-24 -0.357953)
(-0.285935 0 0.717811)
(-0.944747 5.40122e-19 0.927779)
(-1.74038 3.27315e-18 1.0699)
(-2.62998 -2.35509e-18 1.16678)
(-3.57432 -1.4363e-18 1.22483)
(-4.55248 1.32833e-18 1.24809)
(-5.5417 0 1.23966)
(-6.52032 0 1.20124)
(-7.46612 -1.31167e-19 1.13361)
(-8.35551 3.39027e-19 1.03711)
(-9.16309 -5.33634e-19 0.912105)
(-9.8616 3.39928e-19 0.759501)
(-10.4225 -6.53833e-20 0.581156)
(-10.8172 6.82369e-20 0.380268)
(-11.0184 -3.40637e-20 0.161543)
(-11.003 -3.31306e-20 -0.0690164)
(-10.7619 7.69935e-21 -0.301709)
(-10.292 7.07303e-21 -0.522054)
(-9.60187 1.56028e-21 -0.718459)
(-8.71187 0 -0.882361)
(-7.65172 0 -1.00845)
(-6.45796 0 -1.09472)
(-5.17101 0 -1.14199)
(-3.83139 -1.02009e-21 -1.15342)
(-2.47488 1.80535e-21 -1.13447)
(-1.09691 -3.92679e-22 -1.09422)
(0.259172 -2.18047e-22 -1.02648)
(1.49036 0 -0.952343)
(2.69153 3.43341e-24 -0.899497)
(4.16792 0 -0.920607)
(-0.297244 1.8802e-19 1.36002)
(-0.984084 -5.64916e-18 1.64408)
(-1.81278 4.12688e-18 1.83781)
(-2.70082 0 1.97311)
(-3.62609 0 2.05213)
(-4.57492 2.10938e-18 2.07784)
(-5.52951 -1.96314e-18 2.05293)
(-6.47161 -1.04448e-18 1.979)
(-7.38119 1.25699e-18 1.85676)
(-8.2361 -5.03297e-19 1.68658)
(-9.0117 1.31266e-19 1.46908)
(-9.68095 -1.33973e-19 1.20585)
(-10.215 -2.08049e-19 0.90037)
(-10.5843 0 0.558639)
(-10.7607 6.92297e-20 0.190012)
(-10.721 -6.87555e-20 -0.193148)
(-10.4592 -1.57335e-20 -0.575752)
(-9.97202 -2.02846e-20 -0.935992)
(-9.2702 1.06503e-20 -1.25504)
(-8.37562 4.79252e-21 -1.51884)
(-7.31865 2.2686e-21 -1.71876)
(-6.13565 0 -1.85181)
(-4.86628 8.35363e-23 -1.92002)
(-3.55038 6.46766e-22 -1.93009)
(-2.22327 -1.33208e-22 -1.89339)
(-0.86807 3.79763e-23 -1.81848)
(0.421048 -2.69491e-23 -1.70618)
(1.62868 0 -1.58918)
(2.78381 0 -1.50355)
(4.20852 0 -1.50048)
(-0.249668 -1.72186e-19 2.08913)
(-0.928538 -4.34346e-18 2.41459)
(-1.77549 4.43997e-18 2.62994)
(-2.64719 0 2.78073)
(-3.54121 -2.08139e-18 2.86578)
(-4.45062 1.93285e-18 2.88618)
(-5.36296 0 2.84295)
(-6.26371 0 2.73628)
(-7.13523 -1.05286e-18 2.56565)
(-7.9566 1.00509e-18 2.33034)
(-8.70342 0 2.03009)
(-9.34783 0 1.66603)
(-9.85934 2.83334e-19 1.24191)
(-10.2063 1.44623e-19 0.76525)
(-10.3587 -1.4754e-19 0.248876)
(-10.292 3.43292e-20 -0.289228)
(-10.0064 -1.68541e-20 -0.823356)
(-9.50053 0 -1.32296)
(-8.78759 -1.5003e-20 -1.76299)
(-7.89101 9.14408e-21 -2.12489)
(-6.8417 2.86705e-22 -2.39731)
(-5.67574 0 -2.57671)
(-4.43204 -8.38151e-23 -2.66654)
(-3.14947 -1.10539e-21 -2.67701)
(-1.8586 0 -2.62353)
(-0.54751 -1.39979e-22 -2.51061)
(0.66813 6.37767e-24 -2.35333)
(1.8378 -5.28578e-24 -2.19445)
(2.93589 -6.4459e-25 -2.07289)
(4.29031 0 -2.03326)
(-0.167518 5.50476e-18 2.88355)
(-0.814404 -5.75443e-19 3.21049)
(-1.6606 4.4006e-18 3.42166)
(-2.49727 -4.03383e-18 3.57073)
(-3.34618 2.04417e-18 3.65137)
(-4.20547 -1.91005e-18 3.66121)
(-5.06718 -5.00261e-19 3.59804)
(-5.91996 0 3.45924)
(-6.74812 -2.69303e-19 3.24179)
(-7.53148 2.68755e-19 2.94276)
(-8.24546 -2.78825e-19 2.56019)
(-8.8612 0 2.09433)
(-9.3464 -1.44794e-19 1.54937)
(-9.66696 0 0.935287)
(-9.79056 1.55565e-19 0.270411)
(-9.69287 -7.74895e-20 -0.418229)
(-9.38335 -7.00609e-20 -1.09779)
(-8.86057 -1.52588e-20 -1.72906)
(-8.14101 6.69969e-21 -2.28151)
(-7.24926 1.38222e-21 -2.73292)
(-6.21629 1.21912e-21 -3.06978)
(-5.07736 0 -3.28858)
(-3.87041 0 -3.39444)
(-2.63312 -6.66897e-22 -3.40121)
(-1.38843 0 -3.32624)
(-0.141212 0 -3.17057)
(0.99986 -1.66785e-22 -2.96972)
(2.11725 0 -2.77173)
(3.15048 0 -2.61278)
(4.41954 0 -2.52963)
(-0.0731061 1.06894e-20 3.7112)
(-0.669098 0 4.00474)
(-1.48544 -5.40567e-19 4.19353)
(-2.26335 5.18778e-19 4.32992)
(-3.04985 0 4.39994)
(-3.84503 0 4.39672)
(-4.64427 -1.83501e-20 4.3139)
(-5.43857 0 4.14533)
(-6.21389 5.13848e-19 3.88479)
(-6.95079 -8.27319e-19 3.52643)
(-7.6246 5.39688e-19 3.06595)
(-8.20564 -6.06626e-19 2.50208)
(-8.65977 2.98051e-19 1.83895)
(-8.94991 3.24628e-19 1.08869)
(-9.0404 0 0.275356)
(-8.90806 4.03938e-20 -0.563778)
(-8.57547 -1.59901e-21 -1.38482)
(-8.04026 -7.09512e-22 -2.14107)
(-7.3221 -6.67998e-21 -2.79812)
(-6.44577 -1.8727e-22 -3.33143)
(-5.44133 1.02552e-21 -3.72576)
(-4.34263 -1.08516e-21 -3.97832)
(-3.18584 9.25008e-22 -4.0959)
(-2.00596 -8.30373e-23 -4.09526)
(-0.814925 9.67683e-22 -3.99098)
(0.335208 0 -3.79323)
(1.41106 1.55185e-22 -3.55132)
(2.4633 0 -3.31517)
(3.42552 0 -3.11689)
(4.59704 -7.98341e-24 -2.98557)
(0.0168631 -2.94619e-19 4.51141)
(-0.510134 4.51921e-18 4.7565)
(-1.25913 6.54972e-19 4.91625)
(-1.95142 -8.7591e-18 5.0364)
(-2.65556 3.95388e-18 5.09453)
(-3.36968 0 5.07909)
(-4.09158 -1.09401e-18 4.97928)
(-4.81394 9.43678e-19 4.78492)
(-5.52409 2.17781e-18 4.48614)
(-6.20356 -1.1009e-18 4.0736)
(-6.82794 -3.21513e-19 3.53996)
(-7.36681 2.9455e-19 2.88182)
(-7.78386 1.57837e-19 2.10269)
(-8.03824 0 1.21775)
(-8.08966 0 0.258308)
(-7.92113 -4.18121e-20 -0.730097)
(-7.56883 3.71196e-20 -1.68447)
(-7.02934 1.62723e-20 -2.55522)
(-6.32464 0 -3.30641)
(-5.47802 1.87007e-22 -3.91267)
(-4.51758 -2.62934e-21 -4.35681)
(-3.47487 -2.0482e-21 -4.63763)
(-2.38371 0 -4.76295)
(-1.27285 1.13306e-21 -4.74995)
(-0.156998 -8.00645e-22 -4.60882)
(0.883776 -6.10691e-22 -4.37395)
(1.89511 -3.15198e-26 -4.09552)
(2.8715 3.03417e-26 -3.82095)
(3.75717 -2.88859e-23 -3.58165)
(4.82178 7.65327e-24 -3.3996)
(0.0964235 -4.00143e-20 5.21806)
(-0.341782 -9.16594e-20 5.41968)
(-0.98533 3.7177e-18 5.55571)
(-1.56562 0 5.66351)
(-2.16634 2.67525e-18 5.71358)
(-2.78062 -1.50399e-18 5.69035)
(-3.40807 -5.23271e-19 5.57882)
(-4.04266 1.13875e-18 5.36481)
(-4.673 -1.10673e-18 5.03445)
(-5.28185 0 4.57459)
(-5.84549 -3.26463e-19 3.97422)
(-6.33302 0 3.22688)
(-6.70504 3.67091e-19 2.33492)
(-6.91486 0 1.31669)
(-6.91845 1.08535e-19 0.212863)
(-6.72163 -9.14699e-20 -0.916177)
(-6.35456 1.05623e-19 -1.99187)
(-5.82295 0 -2.96342)
(-5.14767 1.44443e-20 -3.79632)
(-4.34805 -7.9802e-21 -4.46621)
(-3.44979 -3.27887e-21 -4.95282)
(-2.48013 4.53282e-21 -5.25697)
(-1.47012 3.89954e-22 -5.38567)
(-0.437887 1.003e-21 -5.35151)
(0.556139 0 -5.1775)
(1.51414 5.91425e-22 -4.90925)
(2.44564 1.93019e-22 -4.59832)
(3.33709 -2.09543e-24 -4.28516)
(4.14063 2.75449e-23 -4.00388)
(5.09121 6.11493e-24 -3.77039)
(0.164995 -2.39773e-18 5.77965)
(-0.16325 2.40501e-18 5.95369)
(-0.666647 5.447e-19 6.0794)
(-1.11131 0 6.18427)
(-1.58801 -5.3408e-19 6.23414)
(-2.08307 5.93069e-19 6.21065)
(-2.59771 -1.08669e-18 6.09507)
(-3.12691 -1.2058e-18 5.86955)
(-3.66069 1.17725e-18 5.51628)
(-4.1835 0 5.01802)
(-4.67319 3.39048e-19 4.35946)
(-5.09918 5.71253e-19 3.53029)
(-5.41889 -3.90061e-19 2.53072)
(-5.57805 0 1.3821)
(-5.52631 -1.17261e-19 0.137029)
(-5.30056 1.01467e-19 -1.11948)
(-4.9314 -1.14634e-19 -2.29942)
(-4.42425 0 -3.35498)
(-3.79764 -1.25599e-22 -4.25597)
(-3.06417 6.36616e-21 -4.98014)
(-2.24826 -3.01467e-21 -5.50281)
(-1.36724 -7.78102e-21 -5.82583)
(-0.45127 1.04518e-21 -5.95055)
(0.460481 -4.1878e-21 -5.89306)
(1.34529 1.04224e-21 -5.69304)
(2.21604 -1.58273e-23 -5.39761)
(3.05609 -1.69284e-22 -5.05494)
(3.85428 4.47907e-24 -4.70391)
(4.57011 -2.8984e-25 -4.38086)
(5.40137 -5.61804e-24 -4.09699)
(0.224088 -2.42195e-18 6.15399)
(0.0268083 -1.43403e-19 6.32643)
(-0.30733 2.88344e-19 6.45998)
(-0.597075 -2.86346e-19 6.57425)
(-0.93114 2.87319e-19 6.63411)
(-1.28826 0 6.61978)
(-1.67162 0 6.50947)
(-2.07688 6.44426e-19 6.28215)
(-2.49546 -3.00562e-19 5.91619)
(-2.91407 0 5.39052)
(-3.31312 0 4.68478)
(-3.66375 -2.0297e-19 3.78386)
(-3.92059 6.93137e-21 2.68464)
(-4.01998 -1.23442e-19 1.41122)
(-3.90642 -1.35606e-19 0.0360074)
(-3.66354 9.12711e-20 -1.33298)
(-3.30964 5.11677e-20 -2.59415)
(-2.8478 0 -3.71586)
(-2.29098 8.30886e-21 -4.67301)
(-1.64184 -1.13651e-20 -5.44358)
(-0.928328 -2.63775e-21 -5.99539)
(-0.147093 5.27773e-21 -6.33221)
(0.636503 -5.16994e-22 -6.44558)
(1.42504 2.66299e-21 -6.37321)
(2.21099 -9.78342e-22 -6.15347)
(2.98044 0 -5.83395)
(3.71896 -9.63519e-24 -5.4606)
(4.41607 9.47921e-24 -5.07349)
(5.03886 0 -4.71024)
(5.74711 0 -4.37874)
(0.28041 6.26827e-19 6.31377)
(0.234097 0 6.51799)
(0.0866617 -1.50032e-18 6.67859)
(-0.0355462 2.67691e-18 6.81481)
(-0.212032 -5.50702e-19 6.89544)
(-0.414822 -5.96952e-19 6.90005)
(-0.649975 0 6.80433)
(-0.913556 0 6.58464)
(-1.19778 -7.21074e-19 6.21625)
(-1.49221 -2.72562e-20 5.67467)
(-1.78133 6.1598e-19 4.93212)
(-2.04078 -2.37412e-19 3.96688)
(-2.2238 2.56207e-19 2.77294)
(-2.25033 -1.488e-19 1.38472)
(-2.05924 0 -0.092155)
(-1.82726 -3.27471e-20 -1.54476)
(-1.51412 -1.336e-20 -2.86119)
(-1.12237 2.38398e-20 -4.03171)
(-0.655264 0 -5.03442)
(-0.104968 1.677e-20 -5.84877)
(0.492713 -6.6034e-22 -6.41986)
(1.12856 9.37526e-21 -6.75676)
(1.79131 -6.83514e-24 -6.87079)
(2.46712 -2.12283e-23 -6.78998)
(3.1403 -1.89215e-21 -6.55465)
(3.79706 0 -6.21256)
(4.4249 0 -5.81078)
(5.01402 0 -5.39059)
(5.53912 0 -4.99011)
(6.1222 0 -4.61526)
(0.343205 0 6.26123)
(0.462246 -1.50498e-19 6.52301)
(0.506331 1.46647e-19 6.72491)
(0.554714 -2.99219e-19 6.8923)
(0.546524 -6.11078e-19 7.00385)
(0.509926 0 7.03858)
(0.436426 0 6.97039)
(0.329493 0 6.77339)
(0.196443 0 6.41642)
(0.0444036 0 5.87451)
(-0.116594 2.83614e-21 5.11739)
(-0.271838 6.52401e-20 4.1221)
(-0.36991 2.29265e-19 2.87721)
(-0.286502 -1.15844e-19 1.39675)
(-0.0205905 7.24974e-20 -0.213978)
(0.1688 -2.87074e-22 -1.73791)
(0.411767 3.80676e-21 -3.09576)
(0.710396 -1.1895e-20 -4.29972)
(1.07216 -2.4663e-21 -5.33152)
(1.49107 -1.28493e-20 -6.15834)
(1.96264 -2.89345e-21 -6.75444)
(2.4768 -8.06937e-21 -7.10832)
(3.01734 7.17485e-21 -7.22653)
(3.56925 1.82371e-22 -7.13946)
(4.11852 3.64622e-21 -6.89031)
(4.6531 0 -6.52824)
(5.16266 0 -6.10153)
(5.63834 0 -5.65246)
(6.06216 2.15877e-24 -5.21907)
(6.51953 -2.15322e-24 -4.80653)
(0.424083 0 6.00872)
(0.716906 -1.8078e-20 6.34905)
(0.944469 -1.42788e-19 6.59862)
(1.15853 2.88298e-19 6.80031)
(1.3226 -8.68777e-21 6.94833)
(1.45521 -7.41761e-21 7.01903)
(1.54824 1.48337e-19 6.98344)
(1.6056 1.59065e-19 6.81334)
(1.63439 7.49953e-21 6.47818)
(1.64032 1.07917e-19 5.94831)
(1.63053 -3.20533e-19 5.19156)
(1.621 1.25728e-19 4.17715)
(1.67243 -1.36147e-19 2.87847)
(1.88281 4.18433e-20 1.3422)
(2.10216 -1.21397e-19 -0.270846)
(2.22709 0 -1.80698)
(2.37704 2.63072e-20 -3.21663)
(2.57782 0 -4.46475)
(2.83199 -1.72483e-20 -5.53561)
(3.13818 -1.3826e-20 -6.3986)
(3.49103 2.49093e-21 -7.01975)
(3.87998 -1.09399e-20 -7.38634)
(4.29094 -6.83663e-21 -7.50796)
(4.71074 3.54124e-22 -7.41597)
(5.12804 -1.76866e-21 -7.15542)
(5.53349 -3.30346e-23 -6.77693)
(5.91933 3.29588e-23 -6.32987)
(6.27804 -2.51811e-22 -5.85718)
(6.59848 -9.63475e-24 -5.39638)
(6.93136 -2.43124e-24 -4.9529)
(0.5389 0 5.55802)
(1.00381 6.36997e-19 6.01804)
(1.39232 -5.48999e-19 6.30475)
(1.76669 2.73014e-19 6.53742)
(2.10254 0 6.7278)
(2.40144 4.12433e-21 6.84167)
(2.65795 -2.92337e-19 6.84454)
(2.87778 3.18784e-19 6.70589)
(3.06815 1.19693e-20 6.39491)
(3.23517 -5.4626e-19 5.87988)
(3.38696 5.78439e-19 5.12727)
(3.53895 -2.05598e-19 4.10224)
(3.7279 -3.03319e-19 2.79231)
(3.97285 3.54448e-20 1.26828)
(4.16497 0 -0.341245)
(4.25423 5.53745e-20 -1.8905)
(4.33452 -9.51475e-20 -3.3114)
(4.44742 0 -4.58264)
(4.6041 1.58416e-20 -5.68141)
(4.80485 2.56642e-20 -6.56971)
(5.0427 0 -7.21031)
(5.30673 -9.63743e-22 -7.58759)
(5.58528 -5.42145e-21 -7.71188)
(5.8686 0 -7.61603)
(6.14926 4.73657e-23 -7.3468)
(6.42155 -4.72603e-23 -6.95614)
(6.68083 -4.32615e-22 -6.49411)
(6.92134 2.31254e-22 -6.00394)
(7.13816 -1.15858e-22 -5.52219)
(7.34961 0 -5.05533)
(0.720391 0 4.89152)
(1.33052 -1.18484e-18 5.58757)
(1.83051 1.0826e-18 5.87054)
(2.36818 -5.32133e-19 6.12043)
(2.87519 0 6.35615)
(3.33136 5.69013e-21 6.51838)
(3.73992 0 6.56439)
(4.11109 5.95204e-19 6.46157)
(4.45284 -7.35511e-19 6.17849)
(4.77159 -3.38424e-19 5.68265)
(5.07428 4.31117e-19 4.93926)
(5.36867 9.89851e-20 3.91694)
(5.65835 1.35721e-20 2.62049)
(5.92922 2.40084e-19 1.12943)
(6.11299 -2.36919e-19 -0.430635)
(6.17791 0 -1.94401)
(6.20943 2.12839e-20 -3.35753)
(6.25789 -1.35426e-21 -4.64418)
(6.33867 -3.09186e-20 -5.76641)
(6.44991 1.18159e-20 -6.67537)
(6.5824 0 -7.32976)
(6.72602 7.71036e-21 -7.71326)
(6.87303 3.94642e-24 -7.83791)
(7.0189 0 -7.73849)
(7.16152 9.29626e-23 -7.46334)
(7.29976 -1.5878e-22 -7.06518)
(7.43256 9.77844e-23 -6.59421)
(7.55623 -4.39529e-23 -6.09334)
(7.67124 1.38146e-22 -5.59774)
(7.76633 0 -5.11549)
(9.99619 -2.54647e-23 0.124063)
(9.98414 8.48583e-22 0.246818)
(9.96271 0 0.370133)
(9.93281 -1.86074e-23 0.495745)
(9.89528 3.34532e-21 0.625164)
(9.85049 4.27942e-21 0.759831)
(9.79862 -2.55186e-21 0.901176)
(9.73985 -5.24435e-21 1.05065)
(9.67438 -3.49523e-21 1.20974)
(9.6024 0 1.37999)
(9.52407 0 1.56301)
(9.43954 -1.47603e-20 1.7605)
(9.34893 7.29048e-21 1.97427)
(9.25235 0 2.20627)
(9.14992 -1.86694e-21 2.45866)
(9.04171 0 2.7338)
(8.92781 0 3.03443)
(8.80826 3.11186e-20 3.36374)
(8.6831 -1.18952e-19 3.72556)
(8.55237 3.63545e-19 4.12469)
(8.41611 -3.13374e-21 4.56728)
(8.27444 -4.9151e-21 5.06152)
(8.12763 -2.25873e-19 5.61859)
(7.97644 4.10442e-19 6.25432)
(7.8229 -7.77421e-19 6.99228)
(7.67321 3.66106e-19 7.86926)
(7.54239 0 8.94629)
(7.53078 3.56262e-19 10.3285)
(8.0613 4.72328e-20 12.1844)
(8.39205 -2.45645e-19 15.0768)
(9.99662 0 0.12848)
(9.98602 -7.92418e-22 0.255588)
(9.96715 6.21375e-24 0.383235)
(9.9409 -1.61556e-21 0.513186)
(9.90807 -4.087e-23 0.646966)
(9.86903 0 0.78602)
(9.82403 4.74211e-23 0.931783)
(9.77334 -3.28728e-21 1.08571)
(9.71724 -3.2654e-21 1.24929)
(9.65602 -1.37616e-20 1.42407)
(9.58998 1.38119e-20 1.61163)
(9.51944 2.80847e-20 1.81368)
(9.44471 -5.6468e-20 2.032)
(9.36617 2.83606e-20 2.26852)
(9.28422 1.81154e-21 2.52533)
(9.19933 0 2.80476)
(9.11208 0 3.10946)
(9.02314 2.79276e-20 3.4425)
(8.93343 2.446e-21 3.80755)
(8.84413 1.10967e-19 4.20915)
(8.75696 -3.74987e-19 4.65304)
(8.67444 5.24465e-19 5.14675)
(8.60058 0 5.70035)
(8.54193 0 6.32747)
(8.51028 -5.48572e-19 7.04721)
(8.529 1.6582e-19 7.88649)
(8.63852 4.97202e-19 8.88129)
(8.90127 -3.97548e-20 10.0716)
(9.59544 0 11.4048)
(10.2006 3.08716e-21 12.5243)
(9.99706 0 0.132426)
(9.98797 7.43708e-22 0.263416)
(9.97178 2.39781e-23 0.394906)
(9.94931 0 0.528676)
(9.92133 -3.14398e-21 0.666255)
(9.88823 4.71016e-21 0.809085)
(9.85033 4.7786e-21 0.958591)
(9.80794 6.48233e-21 1.11622)
(9.76145 6.55022e-21 1.28343)
(9.71125 -6.49075e-21 1.46175)
(9.65777 1.32544e-20 1.65273)
(9.60149 -4.65699e-20 1.85803)
(9.54294 2.67456e-20 2.07938)
(9.48272 0 2.31861)
(9.42153 -3.31858e-21 2.57772)
(9.36023 0 2.85889)
(9.29986 0 3.16457)
(9.24172 -2.38087e-19 3.49754)
(9.18747 4.19444e-19 3.86106)
(9.13935 -2.5804e-19 4.25905)
(9.1004 -5.08599e-20 4.69631)
(9.07502 -9.76903e-20 5.17884)
(9.06969 3.43344e-19 5.71419)
(9.09409 -3.37462e-19 6.31155)
(9.16293 -7.63575e-20 6.98167)
(9.29931 -6.45877e-20 7.73574)
(9.53503 0 8.57941)
(9.88194 0 9.50429)
(10.4667 -8.54555e-20 10.4613)
(11.2179 7.61478e-20 11.2191)
(9.99753 0 0.135855)
(9.98997 0 0.270204)
(9.97655 -1.47098e-21 0.404992)
(9.95796 -2.2279e-21 0.542003)
(9.93495 2.2561e-21 0.682758)
(9.90793 -4.56633e-21 0.828682)
(9.87727 -3.11263e-21 0.98118)
(9.84335 3.07608e-21 1.14167)
(9.80663 6.1566e-21 1.31158)
(9.76761 -6.22147e-21 1.49237)
(9.72685 1.88134e-20 1.68557)
(9.68496 6.41018e-21 1.89273)
(9.64267 5.08594e-20 2.11549)
(9.60082 -5.08811e-20 2.35556)
(9.56036 1.04675e-19 2.61476)
(9.52248 -1.01273e-19 2.89503)
(9.48865 0 3.19853)
(9.46068 0 3.52761)
(9.44084 -1.65325e-19 3.88493)
(9.43211 5.59575e-19 4.27354)
(9.43842 -3.66252e-19 4.69695)