/*--------------------------------*- C++ -*----------------------------------*\
| =========                 |                                                 |
| \\      /  F ield         | OpenFOAM: The Open Source CFD Toolbox           |
|  \\    /   O peration     | Version:  4.1                                   |
|   \\  /    A nd           | Web:      www.OpenFOAM.org                      |
|    \\/     M anipulation  |                                                 |
\*---------------------------------------------------------------------------*/
FoamFile
{
    version     2.0;
    format      ascii;
    class       volScalarField;
    location    "4.6";
    object      p;
}
// * * * * * * * * * * * * * * * * * * * * * * * * * * * * * * * * * * * * * //

dimensions      [0 2 -2 0 0 0 0];

internalField   nonuniform List<scalar> 
2790
(
126.622
126.292
126.305
126.649
127.204
127.918
128.785
129.803
130.97
132.28
133.728
135.309
137.017
138.844
140.781
142.817
144.936
147.12
149.344
151.579
153.788
155.93
157.958
159.821
161.467
162.846
163.917
164.656
165.029
165.197
126.448
126.224
126.259
126.598
127.15
127.862
128.725
129.738
130.899
132.202
133.642
135.214
136.912
138.728
140.655
142.68
144.788
146.962
149.178
151.408
153.616
155.762
157.8
159.68
161.348
162.755
163.853
164.61
165.021
165.411
126.289
126.136
126.187
126.516
127.057
127.758
128.609
129.607
130.751
132.034
133.45
134.996
136.665
138.448
140.337
142.321
144.385
146.512
148.679
150.86
153.022
155.127
157.132
158.992
160.659
162.088
163.246
164.128
164.774
165.433
126.119
125.999
126.062
126.383
126.911
127.6
128.435
129.414
130.534
131.789
133.175
134.685
136.312
138.049
139.886
141.811
143.81
145.866
147.958
150.06
152.142
154.169
156.105
157.908
159.538
160.962
162.156
163.122
163.85
164.425
125.929
125.826
125.898
126.212
126.727
127.398
128.212
129.166
130.256
131.477
132.823
134.287
135.862
137.54
139.311
141.161
143.078
145.044
147.039
149.038
151.013
152.935
154.769
156.479
158.032
159.398
160.551
161.466
162.07
162.263
125.716
125.62
125.695
126.002
126.5
127.15
127.939
128.862
129.916
131.096
132.394
133.804
135.318
136.926
138.618
140.381
142.201
144.061
145.94
147.816
149.661
151.448
153.147
154.724
156.148
157.385
158.395
159.125
159.472
159.095
125.477
125.383
125.457
125.753
126.232
126.859
127.618
128.505
129.518
130.649
131.892
133.24
134.683
136.213
137.815
139.479
141.188
142.926
144.674
146.407
148.099
149.724
151.252
152.652
153.889
154.92
155.693
156.127
156.155
155.137
125.212
125.116
125.185
125.467
125.926
126.525
127.25
128.098
129.063
130.14
131.322
132.6
133.964
135.405
136.908
138.46
140.046
141.648
143.248
144.819
146.335
147.768
149.09
150.266
151.253
152.004
152.454
152.506
152.179
150.521
124.921
124.821
124.88
125.146
125.582
126.15
126.838
127.642
128.555
129.573
130.686
131.887
133.165
134.508
135.903
137.332
138.782
140.235
141.669
143.058
144.373
145.585
146.662
147.562
148.237
148.63
148.678
148.261
147.534
145.221
124.604
124.499
124.546
124.792
125.202
125.738
126.385
127.14
127.997
128.95
129.99
131.107
132.291
133.529
134.805
136.103
137.405
138.694
139.946
141.131
142.22
143.179
143.968
144.538
144.832
144.788
144.339
143.346
142.126
139.062
124.261
124.15
124.182
124.408
124.79
125.29
125.893
126.595
127.392
128.276
129.237
130.265
131.349
132.475
133.623
134.779
135.923
137.035
138.088
139.05
139.887
140.558
141.014
141.196
141.036
140.457
139.392
137.671
135.788
131.75
123.895
123.776
123.792
123.994
124.346
124.808
125.364
126.01
126.744
127.555
128.433
129.367
130.345
131.351
132.365
133.37
134.346
135.269
136.107
136.827
137.386
137.736
137.814
137.549
136.853
135.624
133.784
131.112
128.269
122.844
123.506
123.378
123.376
123.554
123.875
124.295
124.8
125.389
126.056
126.791
127.583
128.419
129.286
130.167
131.04
131.886
132.685
133.409
134.021
134.481
134.74
134.738
134.399
133.628
132.309
130.299
127.476
123.52
119.211
111.611
123.096
122.958
122.937
123.09
123.376
123.752
124.206
124.734
125.333
125.989
126.691
127.426
128.179
128.931
129.657
130.339
130.954
131.47
131.846
132.034
131.975
131.6
130.813
129.49
127.471
124.55
120.501
114.799
108.13
96.6016
122.665
122.516
122.478
122.604
122.852
123.183
123.583
124.051
124.579
125.154
125.764
126.395
127.032
127.65
128.225
128.739
129.167
129.471
129.606
129.515
129.131
128.373
127.124
125.227
122.472
118.562
113.091
105.145
94.6956
74.5234
4.74736
4.78425
4.76211
4.68073
4.55682
4.40807
4.24735
4.08005
3.90807
3.73467
3.56192
3.38998
3.21942
3.05102
2.8855
2.72373
2.56649
2.41314
2.26088
2.1066
1.94732
1.78119
1.60689
1.42383
1.23012
1.02604
0.810856
0.584985
0.352622
0.120032
4.70341
4.74656
4.72373
4.64477
4.52592
4.38295
4.22751
4.06471
3.89649
3.72587
3.55489
3.38409
3.21427
3.04642
2.88159
2.72102
2.56502
2.4128
2.26144
2.10811
1.94947
1.78365
1.60961
1.42625
1.23372
1.02992
0.814443
0.58764
0.353965
0.119877
4.65565
4.70359
4.67609
4.59809
4.48458
4.34858
4.19993
4.04322
3.88039
3.71391
3.54565
3.37657
3.20786
3.04066
2.87607
2.71544
2.56027
2.40992
2.2618
2.11143
1.95573
1.79225
1.61929
1.43652
1.24318
1.03817
0.82115
0.59253
0.356602
0.118464
4.6124
4.66014
4.62428
4.54686
4.43901
4.31065
4.16972
4.02008
3.86353
3.702
3.5372
3.37041
3.20306
3.03673
2.87288
2.71308
2.55858
2.4094
2.26349
2.11607
1.96309
1.80189
1.63059
1.44839
1.25466
1.04861
0.830032
0.599702
0.361508
0.118739
4.57177
4.62083
4.57682
4.50135
4.39952
4.27879
4.14553
4.00287
3.85242
3.69572
3.53436
3.36994
3.204
3.0383
2.87476
2.71522
2.56134
2.41317
2.26869
2.12365
1.9734
1.81483
1.64568
1.46452
1.27057
1.06329
0.842621
0.60965
0.367867
0.120937
4.53312
4.59071
4.54232
4.47085
4.37503
4.26127
4.13472
3.99794
3.85251
3.69972
3.54105
3.3783
3.21334
3.04813
2.88485
2.72552
2.57174
2.42361
2.27922
2.13519
1.98716
1.83121
1.66458
1.48516
1.29165
1.08337
0.860329
0.623523
0.376408
0.124397
4.50869
4.58021
4.53193
4.46562
4.37433
4.26518
4.14284
4.00981
3.8673
3.71657
3.55905
3.39655
3.23124
3.06541
2.90144
2.74157
2.58737
2.43899
2.29476
2.15177
2.00596
1.85285
1.68895
1.51147
1.31845
1.10882
0.882838
0.642081
0.39021
0.128363
4.51927
4.60511
4.55838
4.49538
4.40397
4.29433
4.17176
4.03894
3.89657
3.74576
3.58754
3.42363
3.2564
3.08847
2.92241
2.76084
2.60556
2.45683
2.31337
2.17233
2.02956
1.88023
1.71986
1.54483
1.35242
1.14138
0.911482
0.663925
0.40212
0.132099
4.58401
4.68327
4.63263
4.5633
4.46334
4.34694
4.21966
4.08357
3.93898
3.78599
3.62516
3.45808
3.28727
3.11555
2.94586
2.78139
2.6245
2.47575
2.33403
2.19644
2.05848
1.91459
1.75902
1.58705
1.39556
1.18259
0.947456
0.690652
0.416258
0.136689
4.72257
4.82735
4.75494
4.66314
4.54548
4.41685
4.28167
4.14049
3.99227
3.8358
3.6707
3.49846
3.32195
3.14446
2.96954
2.80103
2.64216
2.49409
2.35558
2.22373
2.09336
1.95726
1.80824
1.64043
1.4499
1.2342
0.99197
0.723176
0.434009
0.142695
4.96379
5.03501
4.91433
4.78285
4.63934
4.49554
4.35208
4.2061
4.05424
3.89376
3.72303
3.54345
3.35863
3.17292
2.99095
2.81737
2.65616
2.5095
2.37673
2.25419
2.13497
2.00984
1.86947
1.70687
1.51715
1.29745
1.04593
0.762597
0.456502
0.150452
5.32511
5.27808
5.09122
4.90368
4.72867
4.57037
4.42255
4.2756
4.12184
3.95783
3.78094
3.59204
3.39576
3.19897
3.00798
2.82827
2.66457
2.52047
2.3962
2.28722
2.18399
2.07407
1.94498
1.78848
1.59902
1.37363
1.11042
0.810129
0.484699
0.160213
5.76027
5.51072
5.22489
4.98181
4.7907
4.63416
4.49273
4.35088
4.19725
4.03078
3.84637
3.64481
3.43196
3.21979
3.01711
2.83022
2.66388
2.52361
2.41134
2.32154
2.24072
2.1514
2.03691
1.88743
1.69731
1.46413
1.18666
0.866882
0.519304
0.172146
6.1809
5.65507
5.24659
4.9903
4.81044
4.67361
4.55486
4.42977
4.27916
4.11454
3.92177
3.7029
3.46472
3.23104
3.01363
2.81924
2.6499
2.51448
2.41845
2.35541
2.30571
2.24413
2.14816
2.00644
1.81416
1.57055
1.27592
0.933807
0.560738
0.186319
6.84597
5.51556
5.00834
4.83057
4.72922
4.66397
4.62076
4.54218
4.39805
4.21627
4.00406
3.75396
3.48512
3.22498
2.99171
2.79171
2.61788
2.48712
2.41205
2.38609
2.37968
2.35601
2.28257
2.14887
1.95199
1.69458
1.37948
1.01162
0.60903
0.202665
122.208
122.047
121.991
122.088
122.296
122.579
122.925
123.328
123.783
124.274
124.788
125.312
125.828
126.306
126.727
127.07
127.306
127.394
127.282
126.906
126.195
125.054
123.347
120.888
117.424
112.567
105.71
95.4324
79.8809
36.5552
121.72
121.544
121.468
121.535
121.701
121.935
122.223
122.56
122.938
123.342
123.757
124.169
124.556
124.893
125.156
125.324
125.365
125.235
124.874
124.215
123.185
121.68
119.55
116.598
112.563
107.037
99.4073
88.4146
74.1651
55.7898
121.203
121.013
120.914
120.949
121.073
121.255
121.483
121.751
122.051
122.365
122.678
122.974
123.231
123.424
123.53
123.523
123.37
123.023
122.418
121.492
120.169
118.34
115.859
112.545
108.172
102.43
94.9892
85.3985
74.4957
63.7531
120.658
120.454
120.331
120.332
120.412
120.542
120.709
120.907
121.125
121.348
121.556
121.735
121.861
121.911
121.861
121.683
121.34
120.782
119.95
118.782
117.202
115.107
112.367
108.837
104.348
98.7053
91.7637
83.3298
73.4504
62.333
120.087
119.869
119.718
119.684
119.721
119.798
119.903
120.029
120.164
120.293
120.397
120.457
120.455
120.365
120.163
119.818
119.294
118.54
117.504
116.125
114.332
112.035
109.129
105.501
101.033
95.5984
89.1014
81.4118
72.425
62.5756
119.49
119.257
119.08
119.009
119.001
119.025
119.067
119.12
119.172
119.206
119.205
119.151
119.023
118.797
118.448
117.945
117.252
116.323
115.107
113.552
111.593
109.157
106.16
102.519
98.1534
92.983
86.9537
80.032
72.2306
64.007
118.869
118.622
118.416
118.308
118.256
118.226
118.205
118.184
118.153
118.094
117.99
117.824
117.574
117.218
116.731
116.081
115.235
114.151
112.785
111.088
109.009
106.488
103.461
99.8701
95.6654
90.8058
85.2769
79.0985
72.3147
65.2473
118.226
117.963
117.73
117.585
117.488
117.403
117.319
117.226
117.113
116.963
116.759
116.485
116.119
115.641
115.024
114.242
113.261
112.045
110.555
108.751
106.593
104.032
101.022
97.5279
93.5224
88.9907
83.9398
78.4038
72.4267
66.2532
117.562
117.284
117.024
116.842
116.699
116.561
116.415
116.251
116.057
115.818
115.519
115.142
114.668
114.075
113.341
112.441
111.343
110.018
108.431
106.552
104.348
101.784
98.8287
95.462
91.6731
87.4626
82.848
77.8676
72.5673
67.1447
116.881
116.588
116.3
116.083
115.895
115.703
115.496
115.263
114.993
114.668
114.277
113.804
113.229
112.532
111.694
110.691
109.495
108.081
106.424
104.497
102.276
99.737
96.8616
93.6401
90.0717
86.1663
81.9469
77.4521
72.7267
67.9286
116.185
115.877
115.563
115.309
115.077
114.834
114.567
114.269
113.925
113.519
113.042
112.48
111.813
111.022
110.092
109.002
107.725
106.244
104.537
102.585
100.371
97.8792
95.1002
92.0318
88.6796
85.0587
81.1939
77.1216
72.8817
68.6006
115.478
115.155
114.815
114.527
114.252
113.957
113.634
113.274
112.86
112.378
111.82
111.177
110.428
109.555
108.545
107.38
106.04
104.509
102.773
100.815
98.6264
96.1969
93.5236
90.6094
87.464
84.1043
80.555
76.8486
73.0198
69.1703
114.761
114.425
114.06
113.739
113.422
113.079
112.702
112.282
111.803
111.251
110.621
109.903
109.08
108.136
107.058
105.834
104.446
102.882
101.131
99.1838
97.0331
94.6755
92.112
89.3486
86.3972
83.2749
80.0049
76.6155
73.1363
69.6499
114.04
113.691
113.302
112.949
112.594
112.206
111.777
111.3
110.759
110.144
109.449
108.665
107.777
106.772
105.639
104.367
102.944
101.361
99.6094
97.6838
95.5809
93.3008
90.8472
88.2283
85.4563
82.5482
79.5246
76.41
73.2295
70.0504
113.318
112.957
112.546
112.162
111.771
111.341
110.864
110.332
109.736
109.065
108.312
107.469
106.525
105.468
104.291
102.984
101.538
99.9459
98.204
96.3087
94.2596
92.0592
89.713
87.2301
84.6228
81.9066
79.1001
76.2241
73.2997
70.382
112.6
112.228
111.796
111.384
110.959
110.49
109.968
109.387
108.74
108.017
107.213
106.32
105.328
104.23
103.018
101.685
100.226
98.6348
96.9102
95.0512
93.0592
90.9383
88.6951
86.3387
83.8811
81.3365
78.7209
76.0522
73.3481
70.6539
111.89
111.508
111.057
110.619
110.162
109.657
109.094
108.469
107.776
107.008
106.16
105.223
104.192
103.061
101.822
100.472
99.0074
97.4246
95.7232
93.9042
91.9705
89.9271
87.781
85.5412
83.219
80.8269
78.3792
75.8908
73.3767
70.8743
111.194
110.802
110.334
109.872
109.386
108.848
108.248
107.584
106.85
106.043
105.156
104.183
103.12
101.962
100.705
99.3457
97.8816
96.3122
94.6378
92.8609
90.985
89.0157
86.9601
84.827
82.6264
80.3698
78.0693
75.7379
73.388
71.0507
110.516
110.116
109.632
109.148
108.637
108.069
107.435
106.736
105.968
105.126
104.206
103.204
102.115
100.938
99.668
98.3046
96.8465
95.2942
93.6494
91.9149
90.095
88.1956
86.2236
84.1871
82.0954
79.9586
77.7873
75.5924
73.3846
71.1898
109.862
109.455
108.957
108.454
107.919
107.324
106.662
105.932
105.133
104.262
103.314
102.288
101.18
99.9881
98.7112
97.3484
95.9001
94.3676
92.7532
91.0605
89.2941
87.4597
85.564
83.6147
81.6199
79.5887
77.5303
75.4541
73.3693
71.2973
109.237
108.825
108.315
107.794
107.238
106.619
105.932
105.176
104.351
103.455
102.485
101.439
100.316
99.1152
97.8351
96.4765
95.0406
93.5292
91.9454
90.293
88.5767
86.8021
84.9755
83.104
81.1951
79.2566
77.2966
75.3234
73.3446
71.3785
108.649
108.232
107.711
107.174
106.6
105.96
105.251
104.472
103.626
102.709
101.721
100.661
99.5272
98.3202
97.0402
95.6883
94.2663
92.7766
91.2225
89.6081
87.9381
86.2178
84.4533
82.651
80.8175
78.96
77.0856
75.2013
73.3139
71.4387
108.102
107.681
107.15
106.601
106.01
105.353
104.624
103.827
102.962
102.029
101.027
99.9551
98.8141
97.6043
96.3269
94.9833
93.5759
92.1075
90.5817
89.0025
87.3746
85.7031
83.9937
82.2521
80.4846
78.6974
76.8968
75.0889
73.2797
71.4821
107.604
107.179
106.641
106.079
105.474
104.802
104.057
103.245
102.365
101.418
100.405
99.3253
98.1796
96.9693
95.696
94.3616
92.9689
91.5209
90.0212
88.474
86.8838
85.2556
83.5944
81.9058
80.1953
78.4686
76.7311
74.9884
73.2457
71.5137
107.161
106.734
106.187
105.615
104.998
104.312
103.555
102.73
101.838
100.881
99.8591
98.7735
97.6253
96.416
95.1477
93.8228
92.444
91.0148
89.5388
88.02
86.4629
84.8722
83.2527
81.6094
79.9474
78.2718
76.5876
74.8997
73.2126
71.5353
106.78
106.35
105.797
105.215
104.587
103.891
103.124
102.288
101.387
100.422
99.3941
98.3048
97.1556
95.9483
94.6854
93.3696
92.0037
90.5913
89.136
87.6418
86.1131
84.5542
82.9698
81.3645
79.743
78.11
76.4699
74.8273
73.1863
71.5545
106.471
106.037
105.475
104.883
104.246
103.542
102.766
101.921
101.013
100.042
99.0105
97.9189
96.7697
95.565
94.3074
92.9997
91.6452
90.2471
88.8092
87.3356
85.8301
84.2973
82.7413
81.1666
79.5776
77.9785
76.3736
74.7669
73.1621
71.5656
106.242
105.801
105.229
104.629
103.986
103.275
102.492
101.642
100.729
99.7538
98.7191
97.6262
96.4775
95.2754
94.0225
92.7218
91.3765
89.9901
88.5663
87.1089
85.622
84.1096
82.576
81.0253
79.4616
77.889
76.3115
74.7329
73.1569
71.5889
106.108
105.641
105.051
104.446
103.8
103.085
102.298
101.444
100.528
99.5507
98.5147
97.4218
96.2741
95.0743
93.8251
92.5297
91.1911
89.813
88.3989
86.9527
85.4783
83.9797
82.4609
80.9261
79.3791
77.8239
76.2641
74.7035
73.1455
71.5946
106.114
105.588
104.973
104.362
103.712
102.993
102.203
101.347
100.428
99.4502
98.4139
97.3214
96.175
94.9774
93.7314
92.4401
91.1066
89.7345
88.3273
86.8888
85.423
83.9336
82.4247
80.9002
79.364
77.8199
76.2715
74.7223
73.1758
71.6357
-48.565
-24.1929
-3.87035
40.2025
34.276
23.7091
50.2099
39.6953
30.0688
49.2272
40.7899
34.4521
52.6531
46.0647
40.7294
56.0623
50.5433
45.85
58.4941
53.7858
49.7619
60.4469
56.4142
52.9696
62.1081
58.6124
55.6293
63.506
60.4363
57.8221
64.6756
61.9515
59.6363
65.6555
63.2155
61.1451
66.4764
64.2727
62.4048
67.1636
65.1582
63.4597
67.7381
65.9009
64.3455
68.2172
66.5236
65.09
68.6154
67.045
65.7156
68.945
67.4808
66.2408
69.2163
67.8442
66.6812
69.4384
68.146
67.0496
69.6186
68.3953
67.3564
69.7643
68.6007
67.6109
69.8806
68.768
67.82
69.9743
68.9049
67.992
70.0476
69.0145
68.1313
70.1108
69.108
68.2488
70.1558
69.1776
68.3385
70.2079
69.2487
68.4236
70.2307
69.2853
68.4719
70.2902
69.3574
68.5496
5.59602
2.51876
3.29601
4.36507
4.74992
4.81217
4.80785
4.66821
4.4623
4.28588
4.10826
3.83764
3.51042
3.20438
2.95727
2.74242
2.56089
2.43289
2.38418
2.41042
2.46592
2.49473
2.44841
2.32235
2.11682
1.84069
1.50089
1.10279
0.665033
0.221323
7.91284
3.92521
5.82361
6.25468
4.72167
4.04972
4.47437
4.81477
4.69313
4.57137
4.3387
3.92681
3.47853
3.10207
2.8565
2.67307
2.48332
2.34581
2.32183
2.42057
2.56727
2.66105
2.65692
2.53747
2.3164
2.01402
1.64422
1.21058
0.72961
0.242204
17.3932
9.97452
7.69809
5.41229
4.51826
5.47231
6.5981
5.82178
4.55954
4.19484
4.29752
4.05827
3.49935
3.03405
2.8102
2.59845
2.33329
2.14553
2.17306
2.40084
2.69399
2.89303
2.92635
2.80559
2.55669
2.21601
1.81043
1.33747
0.802858
0.264496
25.8511
17.5792
12.5056
9.031
7.28997
6.75902
6.10033
5.20346
4.83408
5.39978
5.6943
4.65736
3.29246
2.45046
2.21271
2.34682
2.19609
2.03452
2.10399
2.38774
2.8567
3.19971
3.26082
3.12929
2.83806
2.44385
1.99907
1.48939
0.88791
0.286966
33.3229
25.3176
19.1583
14.6307
11.4887
9.31787
7.65601
6.51566
5.8956
5.66343
5.0763
4.13008
3.02515
2.36288
2.74657
2.88547
2.11244
1.53792
1.44483
2.00973
3.02308
3.62838
3.69011
3.54725
3.20094
2.72524
2.22388
1.67848
0.995516
0.307342
39.5446
32.3726
25.8863
20.5318
16.3749
13.2252
10.8419
9.04615
7.66845
6.55714
5.48005
4.41815
3.37474
2.6514
2.43508
2.0227
1.50377
1.17328
1.45938
2.45353
3.60441
4.13653
4.16014
4.03646
3.60885
2.96975
2.36809
1.8534
1.14456
0.321389
44.5537
38.3481
32.0296
26.36
21.6717
17.8852
14.818
12.3097
10.2441
8.5275
7.04006
5.68661
4.45727
3.4808
2.81055
2.26828
1.84238
1.63041
1.88783
2.5955
3.46866
4.2802
4.6786
4.61659
4.06655
3.26574
2.66067
2.34584
1.47003
0.322589
48.6129
43.2633
37.3954
31.8129
26.9507
22.7989
19.2444
16.2008
13.6048
11.3893
9.46512
7.7569
6.25542
5.0179
4.08067
3.38509
2.8761
2.61632
2.73931
3.23872
3.95216
4.61578
4.92529
4.80357
4.27613
3.52789
2.87068
2.3041
1.45197
0.223912
51.9048
47.2595
41.939
36.6612
31.8717
27.6076
23.8092
20.4393
17.4698
14.8607
12.5596
10.5245
8.74663
7.24839
6.04698
5.11521
4.42654
4.01631
3.94189
4.18264
4.60142
4.97342
5.09046
4.87253
4.3417
3.62311
2.89047
2.1461
1.22076
-0.0502187
54.5805
50.505
45.7224
40.8387
36.2696
32.0748
28.2234
24.7051
21.5177
18.6483
16.0744
13.7763
11.748
9.99764
8.53319
7.34656
6.42927
5.79226
5.44745
5.36001
5.42193
5.47365
5.36461
5.01353
4.42211
3.66696
2.85031
1.98792
0.999688
-0.234445
56.7742
53.1595
48.8599
44.3834
40.1022
36.0806
32.3015
28.7685
25.4955
22.4881
19.743
17.2548
15.0231
13.0535
11.3525
9.92022
8.7529
7.84851
7.19871
6.76629
6.47052
6.19812
5.83653
5.3135
4.61664
3.7873
2.88606
1.93403
0.910452
-0.253653
58.5891
55.3503
51.468
47.3734
43.3951
39.5938
35.9583
32.498
29.2341
26.1824
23.3505
20.7427
18.3639
16.2213
14.3215
12.6673
11.2566
10.0833
9.13285
8.3715
7.73875
7.15302
6.53131
5.81466
4.98369
4.05628
3.06749
2.04021
0.986811
-0.126419
60.1003
57.1726
53.6466
49.8941
46.2057
42.6365
39.1776
35.8385
32.6428
29.6106
26.7554
24.0869
21.6139
19.3452
17.288
15.4463
13.8195
12.4013
11.1773
10.1192
9.18213
8.30757
7.43528
6.51891
5.53699
4.49375
3.40917
2.30492
1.20613
0.101963
61.365
58.6981
55.4757
52.0228
48.5996
45.2561
41.9825
38.7864
35.6908
32.7172
29.8814
27.1959
24.6715
22.3179
20.1431
18.1519
16.3449
14.7172
13.2569
11.942
10.7397
9.60831
8.50449
7.39251
6.2521
5.08058
3.88891
2.69505
1.52525
0.383549
62.4276
59.9809
57.0175
53.8251
50.6397
47.5064
44.4132
41.3654
38.384
35.4901
32.7
30.0271
27.4829
25.0776
22.8195
20.7141
18.763
16.9633
15.3061
13.7752
12.3473
10.9928
9.68054
8.38352
7.08419
5.77689
4.46684
3.16721
1.89981
0.677924
63.3219
61.0624
58.321
55.3552
52.3809
49.4385
46.5142
43.6108
40.747
37.9424
35.2128
32.5711
30.0291
27.597
25.2831
23.0933
21.0303
19.0928
17.2751
15.5659
13.9486
12.4027
10.9057
9.43755
7.98367
6.53739
5.1001
3.68009
2.29272
0.95633
64.0752
61.9753
59.4251
56.6568
53.8688
51.0973
48.3276
45.5603
42.8115
40.0987
37.4366
34.8374
32.3123
29.8713
27.5225
25.2723
23.124
21.0781
19.131
17.2756
15.5004
13.7911
12.1318
10.5074
8.90621
7.32138
5.75163
4.20083
2.67775
1.20254
64.7095
62.7459
60.3607
57.7649
55.1408
52.5212
49.8911
47.2495
44.6097
41.9872
39.3949
36.8443
34.3456
31.9083
29.5406
27.2485
25.0364
22.9057
20.855
18.88
16.9731
15.1245
13.3229
11.5571
9.81745
8.09743
6.39385
4.70685
3.03942
1.41112
65.2432
63.396
61.1533
58.7079
56.2276
53.742
51.237
48.7103
46.1721
43.6358
41.1127
38.6132
36.1467
33.722
31.3468
29.0273
26.7682
24.5718
22.4383
20.3655
18.3486
16.3811
14.4549
12.5616
10.6934
8.84388
7.00859
5.18477
3.37073
1.58405
65.6918
63.9442
61.8242
59.509
57.1538
54.7865
52.3936
49.9709
47.526
45.0702
42.6138
40.1656
37.7343
35.3279
32.9538
30.6179
28.325
26.0782
23.8788
21.7259
19.6171
17.548
15.5128
13.5052
11.5187
9.54715
7.58521
5.62793
3.67024
1.72702
66.0674
64.4048
62.3907
60.188
57.9416
55.6783
53.3851
51.0556
48.6952
46.3135
43.9196
41.5214
39.1264
36.7419
34.3747
32.0306
29.7142
27.4292
25.1774
22.9593
20.7736
18.6177
16.4874
14.378
12.2838
10.1991
8.1178
6.03357
3.93903
1.84622
66.3801
64.7899
62.8671
60.7622
58.6104
56.4381
54.2323
51.9852
49.7003
47.3859
45.0498
42.6989
40.3398
37.979
35.6226
33.2762
30.9443
28.6307
26.3377
24.0664
21.8167
19.5869
17.3742
15.1747
12.9836
10.7954
8.60375
6.40134
4.17937
1.94711
66.6381
65.1099
63.2659
61.2453
59.1756
57.0821
54.9522
52.7771
50.5589
48.3046
46.021
43.7138
41.389
39.0521
36.7089
34.3644
32.0229
29.6883
27.363
25.0487
22.7458
20.4534
18.1697
15.8913
13.6142
11.3329
9.04097
6.73067
4.39236
2.03279
66.8512
65.3754
63.5986
61.6501
59.6507
57.6248
55.5602
53.4473
51.2871
49.0857
46.8487
44.5812
42.2881
39.9745
37.6454
35.3054
32.9588
30.609
28.2587
25.9098
23.5631
21.2184
18.874
16.5275
14.175
11.8113
9.43011
7.02322
4.58069
2.10658
67.0252
65.5928
63.872
61.9841
60.044
58.0753
56.066
54.006
51.8955
49.7397
47.5433
45.3106
43.0461
40.754
38.4389
36.105
33.7561
31.3955
29.0261
26.6497
24.2673
21.8791
19.4838
17.0792
14.6618
12.2267
9.76746
7.2759
4.74198
2.16742
67.1702
65.7729
64.0981
62.26
60.3688
58.4476
56.4841
54.4682
52.3992
50.2816
48.1196
45.9169
43.6772
41.4044
39.1023
36.7749
34.4257
32.0579
29.6741
27.2761
24.8653
22.4416
20.0044
17.5516
15.0798
12.5843
10.0586
7.49474
4.88244
2.22043
67.2829
65.9131
64.2742
62.4757
60.6235
58.7402
56.8135
54.8327
52.7969
50.7101
48.576
46.3977
44.1785
41.9218
39.631
37.3097
34.9612
32.5884
30.1938
27.7793
25.3461
22.8946
20.4238
17.9321
15.4161
12.8712
10.291
7.66757
4.99089
2.25776
67.3829
66.0329
64.4214
62.6527
60.8302
58.9759
57.077
55.1228
53.1123
51.0491
48.9365
46.7773
44.5742
42.3302
40.0486
37.7326
35.3852
33.0092
30.607
28.1804
25.7306
23.2579
20.7617
18.2402
15.6902
13.107
10.4843
7.8139
5.08573
2.29296
67.4445
66.1066
64.5127
62.7642
60.9619
59.127
57.2462
55.3092
53.3155
51.2681
49.17
47.0236
44.8314
42.5961
40.3207
38.0083
35.6618
33.2837
30.8764
28.4417
25.9807
23.4938
20.9804
18.4386
15.8652
13.2556
10.6033
7.89986
5.13553
2.30284
67.5207
66.1824
64.5983
62.8625
61.0722
59.248
57.377
55.4493
53.4645
51.4255
49.335
47.1952
45.0084
42.7773
40.5048
38.1938
35.8471
33.4672
31.0565
28.6168
26.1491
23.6539
21.1305
18.5771
15.9905
13.3658
10.6962
7.97226
5.18134
2.30507
)
;

boundaryField
{
    inlet
    {
        type            zeroGradient;
    }
    outlet
    {
        type            fixedValue;
        value           uniform 0;
    }
    flap
    {
        type            zeroGradient;
    }
    upperWall
    {
        type            zeroGradient;
    }
    lowerWall
    {
        type            zeroGradient;
    }
    frontAndBack
    {
        type            empty;
    }
}


// ************************************************************************* //
