# vtk DataFile Version 2.0

ASCII

DATASET UNSTRUCTURED_GRID

POINTS 68 float 

-5.0000000000000003e-02  0.0000000000000000e+00  0.0000000000000000e+00
-5.0000000000000003e-02  6.6666666669999999e-02  0.0000000000000000e+00
-5.0000000000000003e-02  6.6666666669999999e-02  0.0000000000000000e+00
-5.0000000000000003e-02  0.0000000000000000e+00  0.0000000000000000e+00
-5.0000000000000003e-02  1.3333333330000000e-01  0.0000000000000000e+00
-5.0000000000000003e-02  1.3333333330000000e-01  0.0000000000000000e+00
-5.0000000000000003e-02  2.0000000000000001e-01  0.0000000000000000e+00
-5.0000000000000003e-02  2.0000000000000001e-01  0.0000000000000000e+00
-5.0000000000000003e-02  2.6666666670000000e-01  0.0000000000000000e+00
-5.0000000000000003e-02  2.6666666670000000e-01  0.0000000000000000e+00
-5.0000000000000003e-02  3.3333333329999998e-01  0.0000000000000000e+00
-5.0000000000000003e-02  3.3333333329999998e-01  0.0000000000000000e+00
-5.0000000000000003e-02  4.0000000000000002e-01  0.0000000000000000e+00
-5.0000000000000003e-02  4.0000000000000002e-01  0.0000000000000000e+00
-5.0000000000000003e-02  4.6666666670000001e-01  0.0000000000000000e+00
-5.0000000000000003e-02  4.6666666670000001e-01  0.0000000000000000e+00
-5.0000000000000003e-02  5.3333333329999999e-01  0.0000000000000000e+00
-5.0000000000000003e-02  5.3333333329999999e-01  0.0000000000000000e+00
-5.0000000000000003e-02  5.9999999999999998e-01  0.0000000000000000e+00
-5.0000000000000003e-02  5.9999999999999998e-01  0.0000000000000000e+00
-5.0000000000000003e-02  6.6666666669999997e-01  0.0000000000000000e+00
-5.0000000000000003e-02  6.6666666669999997e-01  0.0000000000000000e+00
-5.0000000000000003e-02  7.3333333329999995e-01  0.0000000000000000e+00
-5.0000000000000003e-02  7.3333333329999995e-01  0.0000000000000000e+00
-5.0000000000000003e-02  8.0000000000000004e-01  0.0000000000000000e+00
-5.0000000000000003e-02  8.0000000000000004e-01  0.0000000000000000e+00
-5.0000000000000003e-02  8.6666666670000003e-01  0.0000000000000000e+00
-5.0000000000000003e-02  8.6666666670000003e-01  0.0000000000000000e+00
-5.0000000000000003e-02  9.3333333330000001e-01  0.0000000000000000e+00
-5.0000000000000003e-02  9.3333333330000001e-01  0.0000000000000000e+00
-5.0000000000000003e-02  1.0000000000000000e+00  0.0000000000000000e+00
-5.0000000000000003e-02  1.0000000000000000e+00  0.0000000000000000e+00
-1.6666666670000000e-02  1.0000000000000000e+00  0.0000000000000000e+00
-1.6666666670000000e-02  1.0000000000000000e+00  0.0000000000000000e+00
1.6666666670000000e-02  1.0000000000000000e+00  0.0000000000000000e+00
1.6666666670000000e-02  1.0000000000000000e+00  0.0000000000000000e+00
5.0000000000000003e-02  1.0000000000000000e+00  0.0000000000000000e+00
5.0000000000000003e-02  1.0000000000000000e+00  0.0000000000000000e+00
5.0000000000000003e-02  0.0000000000000000e+00  0.0000000000000000e+00
5.0000000000000003e-02  0.0000000000000000e+00  0.0000000000000000e+00
5.0000000000000003e-02  6.6666666669999999e-02  0.0000000000000000e+00
5.0000000000000003e-02  6.6666666669999999e-02  0.0000000000000000e+00
5.0000000000000003e-02  1.3333333330000000e-01  0.0000000000000000e+00
5.0000000000000003e-02  1.3333333330000000e-01  0.0000000000000000e+00
5.0000000000000003e-02  2.0000000000000001e-01  0.0000000000000000e+00
5.0000000000000003e-02  2.0000000000000001e-01  0.0000000000000000e+00
5.0000000000000003e-02  2.6666666670000000e-01  0.0000000000000000e+00
5.0000000000000003e-02  2.6666666670000000e-01  0.0000000000000000e+00
5.0000000000000003e-02  3.3333333329999998e-01  0.0000000000000000e+00
5.0000000000000003e-02  3.3333333329999998e-01  0.0000000000000000e+00
5.0000000000000003e-02  4.0000000000000002e-01  0.0000000000000000e+00
5.0000000000000003e-02  4.0000000000000002e-01  0.0000000000000000e+00
5.0000000000000003e-02  4.6666666670000001e-01  0.0000000000000000e+00
5.0000000000000003e-02  4.6666666670000001e-01  0.0000000000000000e+00
5.0000000000000003e-02  5.3333333329999999e-01  0.0000000000000000e+00
5.0000000000000003e-02  5.3333333329999999e-01  0.0000000000000000e+00
5.0000000000000003e-02  5.9999999999999998e-01  0.0000000000000000e+00
5.0000000000000003e-02  5.9999999999999998e-01  0.0000000000000000e+00
5.0000000000000003e-02  6.6666666669999997e-01  0.0000000000000000e+00
5.0000000000000003e-02  6.6666666669999997e-01  0.0000000000000000e+00
5.0000000000000003e-02  7.3333333329999995e-01  0.0000000000000000e+00
5.0000000000000003e-02  7.3333333329999995e-01  0.0000000000000000e+00
5.0000000000000003e-02  8.0000000000000004e-01  0.0000000000000000e+00
5.0000000000000003e-02  8.0000000000000004e-01  0.0000000000000000e+00
5.0000000000000003e-02  8.6666666670000003e-01  0.0000000000000000e+00
5.0000000000000003e-02  8.6666666670000003e-01  0.0000000000000000e+00
5.0000000000000003e-02  9.3333333330000001e-01  0.0000000000000000e+00
5.0000000000000003e-02  9.3333333330000001e-01  0.0000000000000000e+00

CELLS 0 0


CELL_TYPES 0


POINT_DATA 68

VECTORS VertexNormals float

0.0000000000000000e+00 0.0000000000000000e+00 0
0.0000000000000000e+00 0.0000000000000000e+00 0
0.0000000000000000e+00 0.0000000000000000e+00 0
0.0000000000000000e+00 0.0000000000000000e+00 0
0.0000000000000000e+00 0.0000000000000000e+00 0
0.0000000000000000e+00 0.0000000000000000e+00 0
0.0000000000000000e+00 0.0000000000000000e+00 0
0.0000000000000000e+00 0.0000000000000000e+00 0
0.0000000000000000e+00 0.0000000000000000e+00 0
0.0000000000000000e+00 0.0000000000000000e+00 0
0.0000000000000000e+00 0.0000000000000000e+00 0
0.0000000000000000e+00 0.0000000000000000e+00 0
0.0000000000000000e+00 0.0000000000000000e+00 0
0.0000000000000000e+00 0.0000000000000000e+00 0
0.0000000000000000e+00 0.0000000000000000e+00 0
0.0000000000000000e+00 0.0000000000000000e+00 0
0.0000000000000000e+00 0.0000000000000000e+00 0
0.0000000000000000e+00 0.0000000000000000e+00 0
0.0000000000000000e+00 0.0000000000000000e+00 0
0.0000000000000000e+00 0.0000000000000000e+00 0
0.0000000000000000e+00 0.0000000000000000e+00 0
0.0000000000000000e+00 0.0000000000000000e+00 0
0.0000000000000000e+00 0.0000000000000000e+00 0
0.0000000000000000e+00 0.0000000000000000e+00 0
0.0000000000000000e+00 0.0000000000000000e+00 0
0.0000000000000000e+00 0.0000000000000000e+00 0
0.0000000000000000e+00 0.0000000000000000e+00 0
0.0000000000000000e+00 0.0000000000000000e+00 0
0.0000000000000000e+00 0.0000000000000000e+00 0
0.0000000000000000e+00 0.0000000000000000e+00 0
0.0000000000000000e+00 0.0000000000000000e+00 0
0.0000000000000000e+00 0.0000000000000000e+00 0
0.0000000000000000e+00 0.0000000000000000e+00 0
0.0000000000000000e+00 0.0000000000000000e+00 0
0.0000000000000000e+00 0.0000000000000000e+00 0
0.0000000000000000e+00 0.0000000000000000e+00 0
0.0000000000000000e+00 0.0000000000000000e+00 0
0.0000000000000000e+00 0.0000000000000000e+00 0
0.0000000000000000e+00 0.0000000000000000e+00 0
0.0000000000000000e+00 0.0000000000000000e+00 0
0.0000000000000000e+00 0.0000000000000000e+00 0
0.0000000000000000e+00 0.0000000000000000e+00 0
0.0000000000000000e+00 0.0000000000000000e+00 0
0.0000000000000000e+00 0.0000000000000000e+00 0
0.0000000000000000e+00 0.0000000000000000e+00 0
0.0000000000000000e+00 0.0000000000000000e+00 0
0.0000000000000000e+00 0.0000000000000000e+00 0
0.0000000000000000e+00 0.0000000000000000e+00 0
0.0000000000000000e+00 0.0000000000000000e+00 0
0.0000000000000000e+00 0.0000000000000000e+00 0
0.0000000000000000e+00 0.0000000000000000e+00 0
0.0000000000000000e+00 0.0000000000000000e+00 0
0.0000000000000000e+00 0.0000000000000000e+00 0
0.0000000000000000e+00 0.0000000000000000e+00 0
0.0000000000000000e+00 0.0000000000000000e+00 0
0.0000000000000000e+00 0.0000000000000000e+00 0
0.0000000000000000e+00 0.0000000000000000e+00 0
0.0000000000000000e+00 0.0000000000000000e+00 0
0.0000000000000000e+00 0.0000000000000000e+00 0
0.0000000000000000e+00 0.0000000000000000e+00 0
0.0000000000000000e+00 0.0000000000000000e+00 0
0.0000000000000000e+00 0.0000000000000000e+00 0
0.0000000000000000e+00 0.0000000000000000e+00 0
0.0000000000000000e+00 0.0000000000000000e+00 0
0.0000000000000000e+00 0.0000000000000000e+00 0
0.0000000000000000e+00 0.0000000000000000e+00 0
0.0000000000000000e+00 0.0000000000000000e+00 0
0.0000000000000000e+00 0.0000000000000000e+00 0

VECTORS Displacement float
2.5104701303901855e-16 -1.1449174941446927e-16 0
2.6739631036851418e-03 3.5474643206604411e-03 0
2.6739631036851418e-03 3.5474643206604411e-03 0
2.5104701303901855e-16 -1.1449174941446927e-16 0
1.0027512492235865e-02 7.0698431224470379e-03 0
1.0027512492235865e-02 7.0698431224470379e-03 0
2.1857184263596771e-02 1.0426091006805107e-02 0
2.1857184263596771e-02 1.0426091006805107e-02 0
3.8059887464099364e-02 1.3629265340882064e-02 0
3.8059887464099364e-02 1.3629265340882064e-02 0
5.8473105871861164e-02 1.6533985261583565e-02 0
5.8473105871861164e-02 1.6533985261583565e-02 0
8.2765113132855950e-02 1.9189496776451983e-02 0
8.2765113132855950e-02 1.9189496776451983e-02 0
1.1035898912191378e-01 2.1299829935887759e-02 0
1.1035898912191378e-01 2.1299829935887759e-02 0
1.4043933125176600e-01 2.2908512126375961e-02 0
1.4043933125176600e-01 2.2908512126375961e-02 0
1.7256254046049219e-01 2.4117189904661124e-02 0
1.7256254046049219e-01 2.4117189904661124e-02 0
2.0607679118643071e-01 2.5011648787084353e-02 0
2.0607679118643071e-01 2.5011648787084353e-02 0
2.4065214183709405e-01 2.5496482887472444e-02 0
2.4065214183709405e-01 2.5496482887472444e-02 0
2.7561425688108898e-01 2.5938425882301077e-02 0
2.7561425688108898e-01 2.5938425882301077e-02 0
3.1125620484671557e-01 2.6635760700116664e-02 0
3.1125620484671557e-01 2.6635760700116664e-02 0
3.4806958138943628e-01 2.7182949289147443e-02 0
3.4806958138943628e-01 2.7182949289147443e-02 0
3.8497429533263139e-01 2.7134882572551897e-02 0
3.8497429533263139e-01 2.7134882572551897e-02 0
3.8501087889333169e-01 8.8290448561489134e-03 0
3.8501087889333169e-01 8.8290448561489134e-03 0
3.8508222110722468e-01 -9.5980642671643496e-03 0
3.8508222110722468e-01 -9.5980642671643496e-03 0
3.8513942639340104e-01 -2.8080124181876751e-02 0
3.8513942639340104e-01 -2.8080124181876751e-02 0
-1.1226913496087398e-16 -4.1633363423443370e-17 0
-1.1226913496087398e-16 -4.1633363423443370e-17 0
2.6817935430708227e-03 -3.5421881114330849e-03 0
2.6817935430708227e-03 -3.5421881114330849e-03 0
1.0036131595671849e-02 -7.1278682713969838e-03 0
1.0036131595671849e-02 -7.1278682713969838e-03 0
2.1872671859523470e-02 -1.0443230574154579e-02 0
2.1872671859523470e-02 -1.0443230574154579e-02 0
3.8116927180270536e-02 -1.3740190160763718e-02 0
3.8116927180270536e-02 -1.3740190160763718e-02 0
5.8485778089314613e-02 -1.6761370271476266e-02 0
5.8485778089314613e-02 -1.6761370271476266e-02 0
8.2898380902617391e-02 -1.9490346391098309e-02 0
8.2898380902617391e-02 -1.9490346391098309e-02 0
1.1039654402465121e-01 -2.1684495128924900e-02 0
1.1039654402465121e-01 -2.1684495128924900e-02 0
1.4056878234523545e-01 -2.3497686241554089e-02 0
1.4056878234523545e-01 -2.3497686241554089e-02 0
1.7263270979683970e-01 -2.4848763417704828e-02 0
1.7263270979683970e-01 -2.4848763417704828e-02 0
2.0621893782827472e-01 -2.5778938719898052e-02 0
2.0621893782827472e-01 -2.5778938719898052e-02 0
2.4067848121939933e-01 -2.6412636333689149e-02 0
2.4067848121939933e-01 -2.6412636333689149e-02 0
2.7563573966148303e-01 -2.6863518892952593e-02 0
2.7563573966148303e-01 -2.6863518892952593e-02 0
3.1131713419146556e-01 -2.7523176897145837e-02 0
3.1131713419146556e-01 -2.7523176897145837e-02 0
3.4805291141109479e-01 -2.7946354515783634e-02 0
3.4805291141109479e-01 -2.7946354515783634e-02 0

