# vtk DataFile Version 2.0

ASCII

DATASET UNSTRUCTURED_GRID

POINTS 68 float 

-5.0000000000000003e-02  0.0000000000000000e+00  0.0000000000000000e+00
-5.0000000000000003e-02  6.6666666669999999e-02  0.0000000000000000e+00
-5.0000000000000003e-02  6.6666666669999999e-02  0.0000000000000000e+00
-5.0000000000000003e-02  0.0000000000000000e+00  0.0000000000000000e+00
-5.0000000000000003e-02  1.3333333330000000e-01  0.0000000000000000e+00
-5.0000000000000003e-02  1.3333333330000000e-01  0.0000000000000000e+00
-5.0000000000000003e-02  2.0000000000000001e-01  0.0000000000000000e+00
-5.0000000000000003e-02  2.0000000000000001e-01  0.0000000000000000e+00
-5.0000000000000003e-02  2.6666666670000000e-01  0.0000000000000000e+00
-5.0000000000000003e-02  2.6666666670000000e-01  0.0000000000000000e+00
-5.0000000000000003e-02  3.3333333329999998e-01  0.0000000000000000e+00
-5.0000000000000003e-02  3.3333333329999998e-01  0.0000000000000000e+00
-5.0000000000000003e-02  4.0000000000000002e-01  0.0000000000000000e+00
-5.0000000000000003e-02  4.0000000000000002e-01  0.0000000000000000e+00
-5.0000000000000003e-02  4.6666666670000001e-01  0.0000000000000000e+00
-5.0000000000000003e-02  4.6666666670000001e-01  0.0000000000000000e+00
-5.0000000000000003e-02  5.3333333329999999e-01  0.0000000000000000e+00
-5.0000000000000003e-02  5.3333333329999999e-01  0.0000000000000000e+00
-5.0000000000000003e-02  5.9999999999999998e-01  0.0000000000000000e+00
-5.0000000000000003e-02  5.9999999999999998e-01  0.0000000000000000e+00
-5.0000000000000003e-02  6.6666666669999997e-01  0.0000000000000000e+00
-5.0000000000000003e-02  6.6666666669999997e-01  0.0000000000000000e+00
-5.0000000000000003e-02  7.3333333329999995e-01  0.0000000000000000e+00
-5.0000000000000003e-02  7.3333333329999995e-01  0.0000000000000000e+00
-5.0000000000000003e-02  8.0000000000000004e-01  0.0000000000000000e+00
-5.0000000000000003e-02  8.0000000000000004e-01  0.0000000000000000e+00
-5.0000000000000003e-02  8.6666666670000003e-01  0.0000000000000000e+00
-5.0000000000000003e-02  8.6666666670000003e-01  0.0000000000000000e+00
-5.0000000000000003e-02  9.3333333330000001e-01  0.0000000000000000e+00
-5.0000000000000003e-02  9.3333333330000001e-01  0.0000000000000000e+00
-5.0000000000000003e-02  1.0000000000000000e+00  0.0000000000000000e+00
-5.0000000000000003e-02  1.0000000000000000e+00  0.0000000000000000e+00
-1.6666666670000000e-02  1.0000000000000000e+00  0.0000000000000000e+00
-1.6666666670000000e-02  1.0000000000000000e+00  0.0000000000000000e+00
1.6666666670000000e-02  1.0000000000000000e+00  0.0000000000000000e+00
1.6666666670000000e-02  1.0000000000000000e+00  0.0000000000000000e+00
5.0000000000000003e-02  1.0000000000000000e+00  0.0000000000000000e+00
5.0000000000000003e-02  1.0000000000000000e+00  0.0000000000000000e+00
5.0000000000000003e-02  0.0000000000000000e+00  0.0000000000000000e+00
5.0000000000000003e-02  0.0000000000000000e+00  0.0000000000000000e+00
5.0000000000000003e-02  6.6666666669999999e-02  0.0000000000000000e+00
5.0000000000000003e-02  6.6666666669999999e-02  0.0000000000000000e+00
5.0000000000000003e-02  1.3333333330000000e-01  0.0000000000000000e+00
5.0000000000000003e-02  1.3333333330000000e-01  0.0000000000000000e+00
5.0000000000000003e-02  2.0000000000000001e-01  0.0000000000000000e+00
5.0000000000000003e-02  2.0000000000000001e-01  0.0000000000000000e+00
5.0000000000000003e-02  2.6666666670000000e-01  0.0000000000000000e+00
5.0000000000000003e-02  2.6666666670000000e-01  0.0000000000000000e+00
5.0000000000000003e-02  3.3333333329999998e-01  0.0000000000000000e+00
5.0000000000000003e-02  3.3333333329999998e-01  0.0000000000000000e+00
5.0000000000000003e-02  4.0000000000000002e-01  0.0000000000000000e+00
5.0000000000000003e-02  4.0000000000000002e-01  0.0000000000000000e+00
5.0000000000000003e-02  4.6666666670000001e-01  0.0000000000000000e+00
5.0000000000000003e-02  4.6666666670000001e-01  0.0000000000000000e+00
5.0000000000000003e-02  5.3333333329999999e-01  0.0000000000000000e+00
5.0000000000000003e-02  5.3333333329999999e-01  0.0000000000000000e+00
5.0000000000000003e-02  5.9999999999999998e-01  0.0000000000000000e+00
5.0000000000000003e-02  5.9999999999999998e-01  0.0000000000000000e+00
5.0000000000000003e-02  6.6666666669999997e-01  0.0000000000000000e+00
5.0000000000000003e-02  6.6666666669999997e-01  0.0000000000000000e+00
5.0000000000000003e-02  7.3333333329999995e-01  0.0000000000000000e+00
5.0000000000000003e-02  7.3333333329999995e-01  0.0000000000000000e+00
5.0000000000000003e-02  8.0000000000000004e-01  0.0000000000000000e+00
5.0000000000000003e-02  8.0000000000000004e-01  0.0000000000000000e+00
5.0000000000000003e-02  8.6666666670000003e-01  0.0000000000000000e+00
5.0000000000000003e-02  8.6666666670000003e-01  0.0000000000000000e+00
5.0000000000000003e-02  9.3333333330000001e-01  0.0000000000000000e+00
5.0000000000000003e-02  9.3333333330000001e-01  0.0000000000000000e+00

CELLS 0 0


CELL_TYPES 0


POINT_DATA 68

VECTORS VertexNormals float

0.0000000000000000e+00 0.0000000000000000e+00 0
0.0000000000000000e+00 0.0000000000000000e+00 0
0.0000000000000000e+00 0.0000000000000000e+00 0
0.0000000000000000e+00 0.0000000000000000e+00 0
0.0000000000000000e+00 0.0000000000000000e+00 0
0.0000000000000000e+00 0.0000000000000000e+00 0
0.0000000000000000e+00 0.0000000000000000e+00 0
0.0000000000000000e+00 0.0000000000000000e+00 0
0.0000000000000000e+00 0.0000000000000000e+00 0
0.0000000000000000e+00 0.0000000000000000e+00 0
0.0000000000000000e+00 0.0000000000000000e+00 0
0.0000000000000000e+00 0.0000000000000000e+00 0
0.0000000000000000e+00 0.0000000000000000e+00 0
0.0000000000000000e+00 0.0000000000000000e+00 0
0.0000000000000000e+00 0.0000000000000000e+00 0
0.0000000000000000e+00 0.0000000000000000e+00 0
0.0000000000000000e+00 0.0000000000000000e+00 0
0.0000000000000000e+00 0.0000000000000000e+00 0
0.0000000000000000e+00 0.0000000000000000e+00 0
0.0000000000000000e+00 0.0000000000000000e+00 0
0.0000000000000000e+00 0.0000000000000000e+00 0
0.0000000000000000e+00 0.0000000000000000e+00 0
0.0000000000000000e+00 0.0000000000000000e+00 0
0.0000000000000000e+00 0.0000000000000000e+00 0
0.0000000000000000e+00 0.0000000000000000e+00 0
0.0000000000000000e+00 0.0000000000000000e+00 0
0.0000000000000000e+00 0.0000000000000000e+00 0
0.0000000000000000e+00 0.0000000000000000e+00 0
0.0000000000000000e+00 0.0000000000000000e+00 0
0.0000000000000000e+00 0.0000000000000000e+00 0
0.0000000000000000e+00 0.0000000000000000e+00 0
0.0000000000000000e+00 0.0000000000000000e+00 0
0.0000000000000000e+00 0.0000000000000000e+00 0
0.0000000000000000e+00 0.0000000000000000e+00 0
0.0000000000000000e+00 0.0000000000000000e+00 0
0.0000000000000000e+00 0.0000000000000000e+00 0
0.0000000000000000e+00 0.0000000000000000e+00 0
0.0000000000000000e+00 0.0000000000000000e+00 0
0.0000000000000000e+00 0.0000000000000000e+00 0
0.0000000000000000e+00 0.0000000000000000e+00 0
0.0000000000000000e+00 0.0000000000000000e+00 0
0.0000000000000000e+00 0.0000000000000000e+00 0
0.0000000000000000e+00 0.0000000000000000e+00 0
0.0000000000000000e+00 0.0000000000000000e+00 0
0.0000000000000000e+00 0.0000000000000000e+00 0
0.0000000000000000e+00 0.0000000000000000e+00 0
0.0000000000000000e+00 0.0000000000000000e+00 0
0.0000000000000000e+00 0.0000000000000000e+00 0
0.0000000000000000e+00 0.0000000000000000e+00 0
0.0000000000000000e+00 0.0000000000000000e+00 0
0.0000000000000000e+00 0.0000000000000000e+00 0
0.0000000000000000e+00 0.0000000000000000e+00 0
0.0000000000000000e+00 0.0000000000000000e+00 0
0.0000000000000000e+00 0.0000000000000000e+00 0
0.0000000000000000e+00 0.0000000000000000e+00 0
0.0000000000000000e+00 0.0000000000000000e+00 0
0.0000000000000000e+00 0.0000000000000000e+00 0
0.0000000000000000e+00 0.0000000000000000e+00 0
0.0000000000000000e+00 0.0000000000000000e+00 0
0.0000000000000000e+00 0.0000000000000000e+00 0
0.0000000000000000e+00 0.0000000000000000e+00 0
0.0000000000000000e+00 0.0000000000000000e+00 0
0.0000000000000000e+00 0.0000000000000000e+00 0
0.0000000000000000e+00 0.0000000000000000e+00 0
0.0000000000000000e+00 0.0000000000000000e+00 0
0.0000000000000000e+00 0.0000000000000000e+00 0
0.0000000000000000e+00 0.0000000000000000e+00 0
0.0000000000000000e+00 0.0000000000000000e+00 0

VECTORS Displacement float
-2.2439596838660925e-17 -6.6461593173361422e-17 0
2.4191885953948455e-03 2.2542512500036056e-03 0
2.4191885953948455e-03 2.2542512500036056e-03 0
-2.2439596838660925e-17 -6.6461593173361422e-17 0
7.0943465530343029e-03 3.6944631573064489e-03 0
7.0943465530343029e-03 3.6944631573064489e-03 0
1.3352237011575271e-02 4.6166073417127692e-03 0
1.3352237011575271e-02 4.6166073417127692e-03 0
2.0523539324512799e-02 5.1963264217439707e-03 0
2.0523539324512799e-02 5.1963264217439707e-03 0
2.8489079775782036e-02 5.4213860518055497e-03 0
2.8489079775782036e-02 5.4213860518055497e-03 0
3.6622160826524572e-02 5.1559885518688772e-03 0
3.6622160826524572e-02 5.1559885518688772e-03 0
4.3832277968841954e-02 4.1304307925271594e-03 0
4.3832277968841954e-02 4.1304307925271594e-03 0
4.9163803290599745e-02 2.8558989868780957e-03 0
4.9163803290599745e-02 2.8558989868780957e-03 0
5.2612020769501500e-02 1.6631537116635446e-03 0
5.2612020769501500e-02 1.6631537116635446e-03 0
5.4758066191475441e-02 5.3211857682328178e-04 0
5.4758066191475441e-02 5.3211857682328178e-04 0
5.5351287311839817e-02 -5.3846067923166228e-04 0
5.5351287311839817e-02 -5.3846067923166228e-04 0
5.4689949775127630e-02 -1.2583179286292923e-03 0
5.4689949775127630e-02 -1.2583179286292923e-03 0
5.3298211275066787e-02 -1.6468614051555967e-03 0
5.3298211275066787e-02 -1.6468614051555967e-03 0
5.1703549768179903e-02 -1.7905078805013428e-03 0
5.1703549768179903e-02 -1.7905078805013428e-03 0
4.9843565637251980e-02 -1.8753496126924707e-03 0
4.9843565637251980e-02 -1.8753496126924707e-03 0
4.9802682304952328e-02 -9.0603070076252358e-04 0
4.9802682304952328e-02 -9.0603070076252358e-04 0
4.9769686102802163e-02 5.5920069082776168e-05 0
4.9769686102802163e-02 5.5920069082776168e-05 0
4.9766309889390341e-02 1.0650580636619466e-03 0
4.9766309889390341e-02 1.0650580636619466e-03 0
-2.2663213536736060e-17 1.3010426069826053e-17 0
-2.2663213536736060e-17 1.3010426069826053e-17 0
2.4961402873594652e-03 -2.4331865343973783e-03 0
2.4961402873594652e-03 -2.4331865343973783e-03 0
7.1422415936666954e-03 -4.0910020961827352e-03 0
7.1422415936666954e-03 -4.0910020961827352e-03 0
1.3315640009759402e-02 -5.1983877382835563e-03 0
1.3315640009759402e-02 -5.1983877382835563e-03 0
2.0607621826458263e-02 -5.9492458458695659e-03 0
2.0607621826458263e-02 -5.9492458458695659e-03 0
2.8462531008781863e-02 -6.2623962570705054e-03 0
2.8462531008781863e-02 -6.2623962570705054e-03 0
3.6615123876648281e-02 -6.0426397893526568e-03 0
3.6615123876648281e-02 -6.0426397893526568e-03 0
4.3815006728599649e-02 -5.0506040800847446e-03 0
4.3815006728599649e-02 -5.0506040800847446e-03 0
4.9161447892352647e-02 -3.7772948100980039e-03 0
4.9161447892352647e-02 -3.7772948100980039e-03 0
5.2630278923209622e-02 -2.6269087862709093e-03 0
5.2630278923209622e-02 -2.6269087862709093e-03 0
5.4788607672743059e-02 -1.6248521610829555e-03 0
5.4788607672743059e-02 -1.6248521610829555e-03 0
5.5345113204139706e-02 -5.5280972151339886e-04 0
5.5345113204139706e-02 -5.5280972151339886e-04 0
5.4671100239986059e-02 1.8193879622343672e-04 0
5.4671100239986059e-02 1.8193879622343672e-04 0
5.3280297825920239e-02 5.4060593966460935e-04 0
5.3280297825920239e-02 5.4060593966460935e-04 0
5.1732754652766694e-02 8.6351481007930129e-04 0
5.1732754652766694e-02 8.6351481007930129e-04 0

