# vtk DataFile Version 2.0

ASCII

DATASET UNSTRUCTURED_GRID

POINTS 68 float 

-5.0000000000000003e-02  0.0000000000000000e+00  0.0000000000000000e+00
-5.0000000000000003e-02  6.6666666669999999e-02  0.0000000000000000e+00
-5.0000000000000003e-02  6.6666666669999999e-02  0.0000000000000000e+00
-5.0000000000000003e-02  0.0000000000000000e+00  0.0000000000000000e+00
-5.0000000000000003e-02  1.3333333330000000e-01  0.0000000000000000e+00
-5.0000000000000003e-02  1.3333333330000000e-01  0.0000000000000000e+00
-5.0000000000000003e-02  2.0000000000000001e-01  0.0000000000000000e+00
-5.0000000000000003e-02  2.0000000000000001e-01  0.0000000000000000e+00
-5.0000000000000003e-02  2.6666666670000000e-01  0.0000000000000000e+00
-5.0000000000000003e-02  2.6666666670000000e-01  0.0000000000000000e+00
-5.0000000000000003e-02  3.3333333329999998e-01  0.0000000000000000e+00
-5.0000000000000003e-02  3.3333333329999998e-01  0.0000000000000000e+00
-5.0000000000000003e-02  4.0000000000000002e-01  0.0000000000000000e+00
-5.0000000000000003e-02  4.0000000000000002e-01  0.0000000000000000e+00
-5.0000000000000003e-02  4.6666666670000001e-01  0.0000000000000000e+00
-5.0000000000000003e-02  4.6666666670000001e-01  0.0000000000000000e+00
-5.0000000000000003e-02  5.3333333329999999e-01  0.0000000000000000e+00
-5.0000000000000003e-02  5.3333333329999999e-01  0.0000000000000000e+00
-5.0000000000000003e-02  5.9999999999999998e-01  0.0000000000000000e+00
-5.0000000000000003e-02  5.9999999999999998e-01  0.0000000000000000e+00
-5.0000000000000003e-02  6.6666666669999997e-01  0.0000000000000000e+00
-5.0000000000000003e-02  6.6666666669999997e-01  0.0000000000000000e+00
-5.0000000000000003e-02  7.3333333329999995e-01  0.0000000000000000e+00
-5.0000000000000003e-02  7.3333333329999995e-01  0.0000000000000000e+00
-5.0000000000000003e-02  8.0000000000000004e-01  0.0000000000000000e+00
-5.0000000000000003e-02  8.0000000000000004e-01  0.0000000000000000e+00
-5.0000000000000003e-02  8.6666666670000003e-01  0.0000000000000000e+00
-5.0000000000000003e-02  8.6666666670000003e-01  0.0000000000000000e+00
-5.0000000000000003e-02  9.3333333330000001e-01  0.0000000000000000e+00
-5.0000000000000003e-02  9.3333333330000001e-01  0.0000000000000000e+00
-5.0000000000000003e-02  1.0000000000000000e+00  0.0000000000000000e+00
-5.0000000000000003e-02  1.0000000000000000e+00  0.0000000000000000e+00
-1.6666666670000000e-02  1.0000000000000000e+00  0.0000000000000000e+00
-1.6666666670000000e-02  1.0000000000000000e+00  0.0000000000000000e+00
1.6666666670000000e-02  1.0000000000000000e+00  0.0000000000000000e+00
1.6666666670000000e-02  1.0000000000000000e+00  0.0000000000000000e+00
5.0000000000000003e-02  1.0000000000000000e+00  0.0000000000000000e+00
5.0000000000000003e-02  1.0000000000000000e+00  0.0000000000000000e+00
5.0000000000000003e-02  0.0000000000000000e+00  0.0000000000000000e+00
5.0000000000000003e-02  0.0000000000000000e+00  0.0000000000000000e+00
5.0000000000000003e-02  6.6666666669999999e-02  0.0000000000000000e+00
5.0000000000000003e-02  6.6666666669999999e-02  0.0000000000000000e+00
5.0000000000000003e-02  1.3333333330000000e-01  0.0000000000000000e+00
5.0000000000000003e-02  1.3333333330000000e-01  0.0000000000000000e+00
5.0000000000000003e-02  2.0000000000000001e-01  0.0000000000000000e+00
5.0000000000000003e-02  2.0000000000000001e-01  0.0000000000000000e+00
5.0000000000000003e-02  2.6666666670000000e-01  0.0000000000000000e+00
5.0000000000000003e-02  2.6666666670000000e-01  0.0000000000000000e+00
5.0000000000000003e-02  3.3333333329999998e-01  0.0000000000000000e+00
5.0000000000000003e-02  3.3333333329999998e-01  0.0000000000000000e+00
5.0000000000000003e-02  4.0000000000000002e-01  0.0000000000000000e+00
5.0000000000000003e-02  4.0000000000000002e-01  0.0000000000000000e+00
5.0000000000000003e-02  4.6666666670000001e-01  0.0000000000000000e+00
5.0000000000000003e-02  4.6666666670000001e-01  0.0000000000000000e+00
5.0000000000000003e-02  5.3333333329999999e-01  0.0000000000000000e+00
5.0000000000000003e-02  5.3333333329999999e-01  0.0000000000000000e+00
5.0000000000000003e-02  5.9999999999999998e-01  0.0000000000000000e+00
5.0000000000000003e-02  5.9999999999999998e-01  0.0000000000000000e+00
5.0000000000000003e-02  6.6666666669999997e-01  0.0000000000000000e+00
5.0000000000000003e-02  6.6666666669999997e-01  0.0000000000000000e+00
5.0000000000000003e-02  7.3333333329999995e-01  0.0000000000000000e+00
5.0000000000000003e-02  7.3333333329999995e-01  0.0000000000000000e+00
5.0000000000000003e-02  8.0000000000000004e-01  0.0000000000000000e+00
5.0000000000000003e-02  8.0000000000000004e-01  0.0000000000000000e+00
5.0000000000000003e-02  8.6666666670000003e-01  0.0000000000000000e+00
5.0000000000000003e-02  8.6666666670000003e-01  0.0000000000000000e+00
5.0000000000000003e-02  9.3333333330000001e-01  0.0000000000000000e+00
5.0000000000000003e-02  9.3333333330000001e-01  0.0000000000000000e+00

CELLS 0 0


CELL_TYPES 0


POINT_DATA 68

VECTORS VertexNormals float

0.0000000000000000e+00 0.0000000000000000e+00 0
0.0000000000000000e+00 0.0000000000000000e+00 0
0.0000000000000000e+00 0.0000000000000000e+00 0
0.0000000000000000e+00 0.0000000000000000e+00 0
0.0000000000000000e+00 0.0000000000000000e+00 0
0.0000000000000000e+00 0.0000000000000000e+00 0
0.0000000000000000e+00 0.0000000000000000e+00 0
0.0000000000000000e+00 0.0000000000000000e+00 0
0.0000000000000000e+00 0.0000000000000000e+00 0
0.0000000000000000e+00 0.0000000000000000e+00 0
0.0000000000000000e+00 0.0000000000000000e+00 0
0.0000000000000000e+00 0.0000000000000000e+00 0
0.0000000000000000e+00 0.0000000000000000e+00 0
0.0000000000000000e+00 0.0000000000000000e+00 0
0.0000000000000000e+00 0.0000000000000000e+00 0
0.0000000000000000e+00 0.0000000000000000e+00 0
0.0000000000000000e+00 0.0000000000000000e+00 0
0.0000000000000000e+00 0.0000000000000000e+00 0
0.0000000000000000e+00 0.0000000000000000e+00 0
0.0000000000000000e+00 0.0000000000000000e+00 0
0.0000000000000000e+00 0.0000000000000000e+00 0
0.0000000000000000e+00 0.0000000000000000e+00 0
0.0000000000000000e+00 0.0000000000000000e+00 0
0.0000000000000000e+00 0.0000000000000000e+00 0
0.0000000000000000e+00 0.0000000000000000e+00 0
0.0000000000000000e+00 0.0000000000000000e+00 0
0.0000000000000000e+00 0.0000000000000000e+00 0
0.0000000000000000e+00 0.0000000000000000e+00 0
0.0000000000000000e+00 0.0000000000000000e+00 0
0.0000000000000000e+00 0.0000000000000000e+00 0
0.0000000000000000e+00 0.0000000000000000e+00 0
0.0000000000000000e+00 0.0000000000000000e+00 0
0.0000000000000000e+00 0.0000000000000000e+00 0
0.0000000000000000e+00 0.0000000000000000e+00 0
0.0000000000000000e+00 0.0000000000000000e+00 0
0.0000000000000000e+00 0.0000000000000000e+00 0
0.0000000000000000e+00 0.0000000000000000e+00 0
0.0000000000000000e+00 0.0000000000000000e+00 0
0.0000000000000000e+00 0.0000000000000000e+00 0
0.0000000000000000e+00 0.0000000000000000e+00 0
0.0000000000000000e+00 0.0000000000000000e+00 0
0.0000000000000000e+00 0.0000000000000000e+00 0
0.0000000000000000e+00 0.0000000000000000e+00 0
0.0000000000000000e+00 0.0000000000000000e+00 0
0.0000000000000000e+00 0.0000000000000000e+00 0
0.0000000000000000e+00 0.0000000000000000e+00 0
0.0000000000000000e+00 0.0000000000000000e+00 0
0.0000000000000000e+00 0.0000000000000000e+00 0
0.0000000000000000e+00 0.0000000000000000e+00 0
0.0000000000000000e+00 0.0000000000000000e+00 0
0.0000000000000000e+00 0.0000000000000000e+00 0
0.0000000000000000e+00 0.0000000000000000e+00 0
0.0000000000000000e+00 0.0000000000000000e+00 0
0.0000000000000000e+00 0.0000000000000000e+00 0
0.0000000000000000e+00 0.0000000000000000e+00 0
0.0000000000000000e+00 0.0000000000000000e+00 0
0.0000000000000000e+00 0.0000000000000000e+00 0
0.0000000000000000e+00 0.0000000000000000e+00 0
0.0000000000000000e+00 0.0000000000000000e+00 0
0.0000000000000000e+00 0.0000000000000000e+00 0
0.0000000000000000e+00 0.0000000000000000e+00 0
0.0000000000000000e+00 0.0000000000000000e+00 0
0.0000000000000000e+00 0.0000000000000000e+00 0
0.0000000000000000e+00 0.0000000000000000e+00 0
0.0000000000000000e+00 0.0000000000000000e+00 0
0.0000000000000000e+00 0.0000000000000000e+00 0
0.0000000000000000e+00 0.0000000000000000e+00 0
0.0000000000000000e+00 0.0000000000000000e+00 0

VECTORS Displacement float
4.1680797268489611e-16 -1.5265566588595902e-16 0
3.9681094736774836e-03 4.7332399612259142e-03 0
3.9681094736774836e-03 4.7332399612259142e-03 0
4.1680797268489611e-16 -1.5265566588595902e-16 0
1.3691717004181939e-02 8.8297007629662624e-03 0
1.3691717004181939e-02 8.8297007629662624e-03 0
2.8703769286571895e-02 1.2395768203583851e-02 0
2.8703769286571895e-02 1.2395768203583851e-02 0
4.8198718655685945e-02 1.5490556316013055e-02 0
4.8198718655685945e-02 1.5490556316013055e-02 0
7.1971955414519839e-02 1.8096676120638734e-02 0
7.1971955414519839e-02 1.8096676120638734e-02 0
9.8670537908432526e-02 2.0216060099469940e-02 0
9.8670537908432526e-02 2.0216060099469940e-02 0
1.2849115596898028e-01 2.2382658957538153e-02 0
1.2849115596898028e-01 2.2382658957538153e-02 0
1.6110713989757974e-01 2.4207508056423861e-02 0
1.6110713989757974e-01 2.4207508056423861e-02 0
1.9617672112950965e-01 2.5403483594490989e-02 0
1.9617672112950965e-01 2.5403483594490989e-02 0
2.3215057975778408e-01 2.6006289121045467e-02 0
2.3215057975778408e-01 2.6006289121045467e-02 0
2.6870455695296724e-01 2.6184808622305104e-02 0
2.6870455695296724e-01 2.6184808622305104e-02 0
3.0515341630857723e-01 2.6103033990430569e-02 0
3.0515341630857723e-01 2.6103033990430569e-02 0
3.4132874583052142e-01 2.6000943006120613e-02 0
3.4132874583052142e-01 2.6000943006120613e-02 0
3.7749626995714303e-01 2.6029149095795370e-02 0
3.7749626995714303e-01 2.6029149095795370e-02 0
4.1357400118812560e-01 2.5965838076620795e-02 0
4.1357400118812560e-01 2.5965838076620795e-02 0
4.1360538766574734e-01 7.9831934636120164e-03 0
4.1360538766574734e-01 7.9831934636120164e-03 0
4.1360874326548197e-01 -1.0002744137908141e-02 0
4.1360874326548197e-01 -1.0002744137908141e-02 0
4.1359923194534653e-01 -2.8063009880477292e-02 0
4.1359923194534653e-01 -2.8063009880477292e-02 0
6.8914600588609876e-17 -1.7347234759768071e-17 0
6.8914600588609876e-17 -1.7347234759768071e-17 0
4.0490322202374300e-03 -4.8806957139439179e-03 0
4.0490322202374300e-03 -4.8806957139439179e-03 0
1.3753038598418525e-02 -9.3559722058121943e-03 0
1.3753038598418525e-02 -9.3559722058121943e-03 0
2.8793586425329816e-02 -1.3170985284575698e-02 0
2.8793586425329816e-02 -1.3170985284575698e-02 0
4.8306457811556187e-02 -1.6603247313448130e-02 0
4.8306457811556187e-02 -1.6603247313448130e-02 0
7.1974004853791518e-02 -1.9484193467299418e-02 0
7.1974004853791518e-02 -1.9484193467299418e-02 0
9.8785095270962936e-02 -2.1922202320002436e-02 0
9.8785095270962936e-02 -2.1922202320002436e-02 0
1.2842698031652933e-01 -2.4242069072242915e-02 0
1.2842698031652933e-01 -2.4242069072242915e-02 0
1.6120765145371790e-01 -2.6204180261874009e-02 0
1.6120765145371790e-01 -2.6204180261874009e-02 0
1.9611238587758134e-01 -2.7509127419174325e-02 0
1.9611238587758134e-01 -2.7509127419174325e-02 0
2.3220049501593332e-01 -2.8115065019530035e-02 0
2.3220049501593332e-01 -2.8115065019530035e-02 0
2.6869490381029765e-01 -2.8363327814603313e-02 0
2.6869490381029765e-01 -2.8363327814603313e-02 0
3.0516768350069767e-01 -2.8240858956173745e-02 0
3.0516768350069767e-01 -2.8240858956173745e-02 0
3.4136029132675066e-01 -2.8216993874998340e-02 0
3.4136029132675066e-01 -2.8216993874998340e-02 0
3.7751563354512341e-01 -2.8084034169788503e-02 0
3.7751563354512341e-01 -2.8084034169788503e-02 0

