# vtk DataFile Version 2.0

ASCII

DATASET UNSTRUCTURED_GRID

POINTS 79 float 

-5.0000000000000003e-02  0.0000000000000000e+00  0.0000000000000000e+00
-5.0000000000000003e-02  5.5555555555555552e-02  0.0000000000000000e+00
-5.0000000000000003e-02  2.7777777777777776e-02  0.0000000000000000e+00
5.0000000000000003e-02  0.0000000000000000e+00  0.0000000000000000e+00
5.0000000000000003e-02  5.5555555555555552e-02  0.0000000000000000e+00
5.0000000000000003e-02  2.7777777777777776e-02  0.0000000000000000e+00
-5.0000000000000003e-02  1.1111111111111110e-01  0.0000000000000000e+00
-5.0000000000000003e-02  8.3333333333333329e-02  0.0000000000000000e+00
5.0000000000000003e-02  1.1111111111111110e-01  0.0000000000000000e+00
5.0000000000000003e-02  8.3333333333333329e-02  0.0000000000000000e+00
-5.0000000000000003e-02  1.6666666666666666e-01  0.0000000000000000e+00
-5.0000000000000003e-02  1.3888888888888890e-01  0.0000000000000000e+00
5.0000000000000003e-02  1.6666666666666666e-01  0.0000000000000000e+00
5.0000000000000003e-02  1.3888888888888890e-01  0.0000000000000000e+00
-5.0000000000000003e-02  2.2222222222222221e-01  0.0000000000000000e+00
-5.0000000000000003e-02  1.9444444444444442e-01  0.0000000000000000e+00
5.0000000000000003e-02  2.2222222222222221e-01  0.0000000000000000e+00
5.0000000000000003e-02  1.9444444444444442e-01  0.0000000000000000e+00
-5.0000000000000003e-02  2.7777777777777779e-01  0.0000000000000000e+00
-5.0000000000000003e-02  2.5000000000000000e-01  0.0000000000000000e+00
5.0000000000000003e-02  2.7777777777777779e-01  0.0000000000000000e+00
5.0000000000000003e-02  2.5000000000000000e-01  0.0000000000000000e+00
-5.0000000000000003e-02  3.3333333333333331e-01  0.0000000000000000e+00
-5.0000000000000003e-02  3.0555555555555558e-01  0.0000000000000000e+00
5.0000000000000003e-02  3.3333333333333331e-01  0.0000000000000000e+00
5.0000000000000003e-02  3.0555555555555558e-01  0.0000000000000000e+00
-5.0000000000000003e-02  3.8888888888888884e-01  0.0000000000000000e+00
-5.0000000000000003e-02  3.6111111111111105e-01  0.0000000000000000e+00
5.0000000000000003e-02  3.8888888888888884e-01  0.0000000000000000e+00
5.0000000000000003e-02  3.6111111111111105e-01  0.0000000000000000e+00
-5.0000000000000003e-02  4.4444444444444442e-01  0.0000000000000000e+00
-5.0000000000000003e-02  4.1666666666666663e-01  0.0000000000000000e+00
5.0000000000000003e-02  4.4444444444444442e-01  0.0000000000000000e+00
5.0000000000000003e-02  4.1666666666666663e-01  0.0000000000000000e+00
-5.0000000000000003e-02  5.0000000000000000e-01  0.0000000000000000e+00
-5.0000000000000003e-02  4.7222222222222221e-01  0.0000000000000000e+00
5.0000000000000003e-02  5.0000000000000000e-01  0.0000000000000000e+00
5.0000000000000003e-02  4.7222222222222221e-01  0.0000000000000000e+00
-5.0000000000000003e-02  5.5555555555555558e-01  0.0000000000000000e+00
-5.0000000000000003e-02  5.2777777777777779e-01  0.0000000000000000e+00
5.0000000000000003e-02  5.5555555555555558e-01  0.0000000000000000e+00
5.0000000000000003e-02  5.2777777777777779e-01  0.0000000000000000e+00
-5.0000000000000003e-02  6.1111111111111105e-01  0.0000000000000000e+00
-5.0000000000000003e-02  5.8333333333333326e-01  0.0000000000000000e+00
5.0000000000000003e-02  6.1111111111111105e-01  0.0000000000000000e+00
5.0000000000000003e-02  5.8333333333333326e-01  0.0000000000000000e+00
-5.0000000000000003e-02  6.6666666666666663e-01  0.0000000000000000e+00
-5.0000000000000003e-02  6.3888888888888884e-01  0.0000000000000000e+00
5.0000000000000003e-02  6.6666666666666663e-01  0.0000000000000000e+00
5.0000000000000003e-02  6.3888888888888884e-01  0.0000000000000000e+00
-5.0000000000000003e-02  7.2222222222222221e-01  0.0000000000000000e+00
-5.0000000000000003e-02  6.9444444444444442e-01  0.0000000000000000e+00
5.0000000000000003e-02  7.2222222222222221e-01  0.0000000000000000e+00
5.0000000000000003e-02  6.9444444444444442e-01  0.0000000000000000e+00
-5.0000000000000003e-02  7.7777777777777768e-01  0.0000000000000000e+00
-5.0000000000000003e-02  7.5000000000000000e-01  0.0000000000000000e+00
5.0000000000000003e-02  7.7777777777777768e-01  0.0000000000000000e+00
5.0000000000000003e-02  7.5000000000000000e-01  0.0000000000000000e+00
-5.0000000000000003e-02  8.3333333333333326e-01  0.0000000000000000e+00
-5.0000000000000003e-02  8.0555555555555547e-01  0.0000000000000000e+00
5.0000000000000003e-02  8.3333333333333326e-01  0.0000000000000000e+00
5.0000000000000003e-02  8.0555555555555547e-01  0.0000000000000000e+00
-5.0000000000000003e-02  8.8888888888888884e-01  0.0000000000000000e+00
-5.0000000000000003e-02  8.6111111111111105e-01  0.0000000000000000e+00
5.0000000000000003e-02  8.8888888888888884e-01  0.0000000000000000e+00
5.0000000000000003e-02  8.6111111111111105e-01  0.0000000000000000e+00
-5.0000000000000003e-02  9.4444444444444442e-01  0.0000000000000000e+00
-5.0000000000000003e-02  9.1666666666666663e-01  0.0000000000000000e+00
5.0000000000000003e-02  9.4444444444444442e-01  0.0000000000000000e+00
5.0000000000000003e-02  9.1666666666666663e-01  0.0000000000000000e+00
-5.0000000000000003e-02  1.0000000000000000e+00  0.0000000000000000e+00
-1.6666666666666670e-02  1.0000000000000000e+00  0.0000000000000000e+00
-5.0000000000000003e-02  9.7222222222222221e-01  0.0000000000000000e+00
-3.3333333333333340e-02  1.0000000000000000e+00  0.0000000000000000e+00
1.6666666666666663e-02  1.0000000000000000e+00  0.0000000000000000e+00
-3.4694469519536142e-18  1.0000000000000000e+00  0.0000000000000000e+00
5.0000000000000003e-02  1.0000000000000000e+00  0.0000000000000000e+00
5.0000000000000003e-02  9.7222222222222221e-01  0.0000000000000000e+00
3.3333333333333333e-02  1.0000000000000000e+00  0.0000000000000000e+00

CELLS 0 0


CELL_TYPES 0


POINT_DATA 79

VECTORS VertexNormals float

0.0000000000000000e+00 0.0000000000000000e+00 0
0.0000000000000000e+00 0.0000000000000000e+00 0
0.0000000000000000e+00 0.0000000000000000e+00 0
0.0000000000000000e+00 0.0000000000000000e+00 0
0.0000000000000000e+00 0.0000000000000000e+00 0
0.0000000000000000e+00 0.0000000000000000e+00 0
0.0000000000000000e+00 0.0000000000000000e+00 0
0.0000000000000000e+00 0.0000000000000000e+00 0
0.0000000000000000e+00 0.0000000000000000e+00 0
0.0000000000000000e+00 0.0000000000000000e+00 0
0.0000000000000000e+00 0.0000000000000000e+00 0
0.0000000000000000e+00 0.0000000000000000e+00 0
0.0000000000000000e+00 0.0000000000000000e+00 0
0.0000000000000000e+00 0.0000000000000000e+00 0
0.0000000000000000e+00 0.0000000000000000e+00 0
0.0000000000000000e+00 0.0000000000000000e+00 0
0.0000000000000000e+00 0.0000000000000000e+00 0
0.0000000000000000e+00 0.0000000000000000e+00 0
0.0000000000000000e+00 0.0000000000000000e+00 0
0.0000000000000000e+00 0.0000000000000000e+00 0
0.0000000000000000e+00 0.0000000000000000e+00 0
0.0000000000000000e+00 0.0000000000000000e+00 0
0.0000000000000000e+00 0.0000000000000000e+00 0
0.0000000000000000e+00 0.0000000000000000e+00 0
0.0000000000000000e+00 0.0000000000000000e+00 0
0.0000000000000000e+00 0.0000000000000000e+00 0
0.0000000000000000e+00 0.0000000000000000e+00 0
0.0000000000000000e+00 0.0000000000000000e+00 0
0.0000000000000000e+00 0.0000000000000000e+00 0
0.0000000000000000e+00 0.0000000000000000e+00 0
0.0000000000000000e+00 0.0000000000000000e+00 0
0.0000000000000000e+00 0.0000000000000000e+00 0
0.0000000000000000e+00 0.0000000000000000e+00 0
0.0000000000000000e+00 0.0000000000000000e+00 0
0.0000000000000000e+00 0.0000000000000000e+00 0
0.0000000000000000e+00 0.0000000000000000e+00 0
0.0000000000000000e+00 0.0000000000000000e+00 0
0.0000000000000000e+00 0.0000000000000000e+00 0
0.0000000000000000e+00 0.0000000000000000e+00 0
0.0000000000000000e+00 0.0000000000000000e+00 0
0.0000000000000000e+00 0.0000000000000000e+00 0
0.0000000000000000e+00 0.0000000000000000e+00 0
0.0000000000000000e+00 0.0000000000000000e+00 0
0.0000000000000000e+00 0.0000000000000000e+00 0
0.0000000000000000e+00 0.0000000000000000e+00 0
0.0000000000000000e+00 0.0000000000000000e+00 0
0.0000000000000000e+00 0.0000000000000000e+00 0
0.0000000000000000e+00 0.0000000000000000e+00 0
0.0000000000000000e+00 0.0000000000000000e+00 0
0.0000000000000000e+00 0.0000000000000000e+00 0
0.0000000000000000e+00 0.0000000000000000e+00 0
0.0000000000000000e+00 0.0000000000000000e+00 0
0.0000000000000000e+00 0.0000000000000000e+00 0
0.0000000000000000e+00 0.0000000000000000e+00 0
0.0000000000000000e+00 0.0000000000000000e+00 0
0.0000000000000000e+00 0.0000000000000000e+00 0
0.0000000000000000e+00 0.0000000000000000e+00 0
0.0000000000000000e+00 0.0000000000000000e+00 0
0.0000000000000000e+00 0.0000000000000000e+00 0
0.0000000000000000e+00 0.0000000000000000e+00 0
0.0000000000000000e+00 0.0000000000000000e+00 0
0.0000000000000000e+00 0.0000000000000000e+00 0
0.0000000000000000e+00 0.0000000000000000e+00 0
0.0000000000000000e+00 0.0000000000000000e+00 0
0.0000000000000000e+00 0.0000000000000000e+00 0
0.0000000000000000e+00 0.0000000000000000e+00 0
0.0000000000000000e+00 0.0000000000000000e+00 0
0.0000000000000000e+00 0.0000000000000000e+00 0
0.0000000000000000e+00 0.0000000000000000e+00 0
0.0000000000000000e+00 0.0000000000000000e+00 0
0.0000000000000000e+00 0.0000000000000000e+00 0
0.0000000000000000e+00 0.0000000000000000e+00 0
0.0000000000000000e+00 0.0000000000000000e+00 0
0.0000000000000000e+00 0.0000000000000000e+00 0
0.0000000000000000e+00 0.0000000000000000e+00 0
0.0000000000000000e+00 0.0000000000000000e+00 0
0.0000000000000000e+00 0.0000000000000000e+00 0
0.0000000000000000e+00 0.0000000000000000e+00 0
0.0000000000000000e+00 0.0000000000000000e+00 0

VECTORS Displacement float
0.0000000000000000e+00 0.0000000000000000e+00 0
1.9825384232719017e-03 2.8772962294865952e-03 0
8.0495910039948121e-04 1.4361552823195069e-03 0
0.0000000000000000e+00 0.0000000000000000e+00 0
2.0068778994514896e-03 -2.8256349643461074e-03 0
7.7221997969862950e-04 -1.3973177098981536e-03 0
6.9192559930342790e-03 5.5210260842610479e-03 0
4.0817942250058730e-03 4.2716461336238000e-03 0
6.8850459698208246e-03 -5.4315003128245568e-03 0
4.0975797457446774e-03 -4.1968120052407404e-03 0
1.4436254109932210e-02 7.6894442758034219e-03 0
1.0407093053238232e-02 6.6332102290666837e-03 0
1.4422724776057216e-02 -7.4514290906494522e-03 0
1.0362387279108373e-02 -6.4995570820273550e-03 0
2.4060589435207939e-02 9.6149924567985601e-03 0
1.8988818764807628e-02 8.7028462217135817e-03 0
2.4003723983709924e-02 -9.1679989510065549e-03 0
1.8971049337388669e-02 -8.3414070071319950e-03 0
3.5412224730933528e-02 1.1212684806055952e-02 0
2.9569994510147815e-02 1.0416476533921398e-02 0
3.5390489922430282e-02 -1.0679591439425151e-02 0
2.9519035708030841e-02 -9.9282565188200736e-03 0
4.8493044356086368e-02 1.3059878583844723e-02 0
4.1686708797040346e-02 1.2109002382067748e-02 0
4.8484642574431976e-02 -1.2428892609511390e-02 0
4.1678706700825699e-02 -1.1525060549630772e-02 0
6.3647453864736109e-02 1.5045010721488811e-02 0
5.5786742949907736e-02 1.4038238286906708e-02 0
6.3734626277988496e-02 -1.4266003222013683e-02 0
5.5812609312902176e-02 -1.3346506423873652e-02 0
8.1051495267041154e-02 1.7013056474157368e-02 0
7.2071487138052281e-02 1.6047805444120662e-02 0
8.1097980442791401e-02 -1.6072073440064890e-02 0
7.2172137388791580e-02 -1.5165811510303277e-02 0
1.0050781444110965e-01 1.8735879187641948e-02 0
9.0567231335875992e-02 1.7893797773990291e-02 0
1.0055151233262601e-01 -1.7839405283108546e-02 0
9.0578605893315317e-02 -1.6968071605847228e-02 0
1.2192803704566946e-01 2.0466723111505915e-02 0
1.1092979522644197e-01 1.9607788034707897e-02 0
1.2200284980958165e-01 -1.9557482875965759e-02 0
1.1100470495821284e-01 -1.8711482774577706e-02 0
1.4529368392381359e-01 2.1895085112302613e-02 0
1.3343175531528520e-01 2.1227900227561158e-02 0
1.4539640398606618e-01 -2.0966181289872102e-02 0
1.3349842338091955e-01 -2.0313541902320521e-02 0
1.6989127154447992e-01 2.3015850705003144e-02 0
1.5744510860642774e-01 2.2482668867997099e-02 0
1.6998751707924808e-01 -2.1991719712940467e-02 0
1.5758555721787848e-01 -2.1502913478196162e-02 0
1.9559989773142508e-01 2.3908630813393901e-02 0
1.8263234671080530e-01 2.3487863191991060e-02 0
1.9562482271611825e-01 -2.2988092314554537e-02 0
1.8266266309523355e-01 -2.2490153165236296e-02 0
2.2225548616687676e-01 2.4671215365922330e-02 0
2.0877631338693392e-01 2.4314195848931748e-02 0
2.2239146319431372e-01 -2.3819880077523455e-02 0
2.0886418904132370e-01 -2.3446606783492939e-02 0
2.4974624920137845e-01 2.5091275667664281e-02 0
2.3596532783468954e-01 2.4918084882725407e-02 0
2.4977641279644211e-01 -2.4279958625115863e-02 0
2.3604480550631185e-01 -2.4077349096374358e-02 0
2.7740816624002196e-01 2.5372817070276915e-02 0
2.6354933030961103e-01 2.5233649993328128e-02 0
2.7750687866641777e-01 -2.4507437158046846e-02 0
2.6362989692296412e-01 -2.4418992892977921e-02 0
3.0540563881086880e-01 2.5571458465114917e-02 0
2.9136835412483564e-01 2.5492433338266108e-02 0
3.0542129013317276e-01 -2.4753173271049766e-02 0
2.9140914565092207e-01 -2.4626280489093648e-02 0
3.3342976678920522e-01 2.5590470858310791e-02 0
3.3347653394625854e-01 8.7849524300718310e-03 0
3.1943362495655714e-01 2.5594028578309877e-02 0
3.3344678999317634e-01 1.7189727844741251e-02 0
3.3353288965241906e-01 -8.0067639834077980e-03 0
3.3350697673605167e-01 3.9139471146768158e-04 0
3.3355376038741391e-01 -2.4830674219735248e-02 0
3.1950702423795474e-01 -2.4819089616872500e-02 0
3.3354939749991541e-01 -1.6414588712038852e-02 0

VECTORS Stress float
0.0000000000000000e+00 0.0000000000000000e+00 0
0.0000000000000000e+00 0.0000000000000000e+00 0
0.0000000000000000e+00 0.0000000000000000e+00 0
0.0000000000000000e+00 0.0000000000000000e+00 0
0.0000000000000000e+00 0.0000000000000000e+00 0
0.0000000000000000e+00 0.0000000000000000e+00 0
0.0000000000000000e+00 0.0000000000000000e+00 0
0.0000000000000000e+00 0.0000000000000000e+00 0
0.0000000000000000e+00 0.0000000000000000e+00 0
0.0000000000000000e+00 0.0000000000000000e+00 0
0.0000000000000000e+00 0.0000000000000000e+00 0
0.0000000000000000e+00 0.0000000000000000e+00 0
0.0000000000000000e+00 0.0000000000000000e+00 0
0.0000000000000000e+00 0.0000000000000000e+00 0
0.0000000000000000e+00 0.0000000000000000e+00 0
0.0000000000000000e+00 0.0000000000000000e+00 0
0.0000000000000000e+00 0.0000000000000000e+00 0
0.0000000000000000e+00 0.0000000000000000e+00 0
0.0000000000000000e+00 0.0000000000000000e+00 0
0.0000000000000000e+00 0.0000000000000000e+00 0
0.0000000000000000e+00 0.0000000000000000e+00 0
0.0000000000000000e+00 0.0000000000000000e+00 0
0.0000000000000000e+00 0.0000000000000000e+00 0
0.0000000000000000e+00 0.0000000000000000e+00 0
0.0000000000000000e+00 0.0000000000000000e+00 0
0.0000000000000000e+00 0.0000000000000000e+00 0
0.0000000000000000e+00 0.0000000000000000e+00 0
0.0000000000000000e+00 0.0000000000000000e+00 0
0.0000000000000000e+00 0.0000000000000000e+00 0
0.0000000000000000e+00 0.0000000000000000e+00 0
0.0000000000000000e+00 0.0000000000000000e+00 0
0.0000000000000000e+00 0.0000000000000000e+00 0
0.0000000000000000e+00 0.0000000000000000e+00 0
0.0000000000000000e+00 0.0000000000000000e+00 0
0.0000000000000000e+00 0.0000000000000000e+00 0
0.0000000000000000e+00 0.0000000000000000e+00 0
0.0000000000000000e+00 0.0000000000000000e+00 0
0.0000000000000000e+00 0.0000000000000000e+00 0
0.0000000000000000e+00 0.0000000000000000e+00 0
0.0000000000000000e+00 0.0000000000000000e+00 0
0.0000000000000000e+00 0.0000000000000000e+00 0
0.0000000000000000e+00 0.0000000000000000e+00 0
0.0000000000000000e+00 0.0000000000000000e+00 0
0.0000000000000000e+00 0.0000000000000000e+00 0
0.0000000000000000e+00 0.0000000000000000e+00 0
0.0000000000000000e+00 0.0000000000000000e+00 0
0.0000000000000000e+00 0.0000000000000000e+00 0
0.0000000000000000e+00 0.0000000000000000e+00 0
0.0000000000000000e+00 0.0000000000000000e+00 0
0.0000000000000000e+00 0.0000000000000000e+00 0
0.0000000000000000e+00 0.0000000000000000e+00 0
0.0000000000000000e+00 0.0000000000000000e+00 0
0.0000000000000000e+00 0.0000000000000000e+00 0
0.0000000000000000e+00 0.0000000000000000e+00 0
0.0000000000000000e+00 0.0000000000000000e+00 0
0.0000000000000000e+00 0.0000000000000000e+00 0
0.0000000000000000e+00 0.0000000000000000e+00 0
0.0000000000000000e+00 0.0000000000000000e+00 0
0.0000000000000000e+00 0.0000000000000000e+00 0
0.0000000000000000e+00 0.0000000000000000e+00 0
0.0000000000000000e+00 0.0000000000000000e+00 0
0.0000000000000000e+00 0.0000000000000000e+00 0
0.0000000000000000e+00 0.0000000000000000e+00 0
0.0000000000000000e+00 0.0000000000000000e+00 0
0.0000000000000000e+00 0.0000000000000000e+00 0
0.0000000000000000e+00 0.0000000000000000e+00 0
0.0000000000000000e+00 0.0000000000000000e+00 0
0.0000000000000000e+00 0.0000000000000000e+00 0
0.0000000000000000e+00 0.0000000000000000e+00 0
0.0000000000000000e+00 0.0000000000000000e+00 0
0.0000000000000000e+00 0.0000000000000000e+00 0
0.0000000000000000e+00 0.0000000000000000e+00 0
0.0000000000000000e+00 0.0000000000000000e+00 0
0.0000000000000000e+00 0.0000000000000000e+00 0
0.0000000000000000e+00 0.0000000000000000e+00 0
0.0000000000000000e+00 0.0000000000000000e+00 0
0.0000000000000000e+00 0.0000000000000000e+00 0
0.0000000000000000e+00 0.0000000000000000e+00 0
0.0000000000000000e+00 0.0000000000000000e+00 0

