# vtk DataFile Version 2.0

ASCII

DATASET UNSTRUCTURED_GRID

POINTS 79 float 

-5.0000000000000003e-02  0.0000000000000000e+00  0.0000000000000000e+00
-5.0000000000000003e-02  5.5555555555555552e-02  0.0000000000000000e+00
-5.0000000000000003e-02  2.7777777777777776e-02  0.0000000000000000e+00
5.0000000000000003e-02  0.0000000000000000e+00  0.0000000000000000e+00
5.0000000000000003e-02  5.5555555555555552e-02  0.0000000000000000e+00
5.0000000000000003e-02  2.7777777777777776e-02  0.0000000000000000e+00
-5.0000000000000003e-02  1.1111111111111110e-01  0.0000000000000000e+00
-5.0000000000000003e-02  8.3333333333333329e-02  0.0000000000000000e+00
5.0000000000000003e-02  1.1111111111111110e-01  0.0000000000000000e+00
5.0000000000000003e-02  8.3333333333333329e-02  0.0000000000000000e+00
-5.0000000000000003e-02  1.6666666666666666e-01  0.0000000000000000e+00
-5.0000000000000003e-02  1.3888888888888890e-01  0.0000000000000000e+00
5.0000000000000003e-02  1.6666666666666666e-01  0.0000000000000000e+00
5.0000000000000003e-02  1.3888888888888890e-01  0.0000000000000000e+00
-5.0000000000000003e-02  2.2222222222222221e-01  0.0000000000000000e+00
-5.0000000000000003e-02  1.9444444444444442e-01  0.0000000000000000e+00
5.0000000000000003e-02  2.2222222222222221e-01  0.0000000000000000e+00
5.0000000000000003e-02  1.9444444444444442e-01  0.0000000000000000e+00
-5.0000000000000003e-02  2.7777777777777779e-01  0.0000000000000000e+00
-5.0000000000000003e-02  2.5000000000000000e-01  0.0000000000000000e+00
5.0000000000000003e-02  2.7777777777777779e-01  0.0000000000000000e+00
5.0000000000000003e-02  2.5000000000000000e-01  0.0000000000000000e+00
-5.0000000000000003e-02  3.3333333333333331e-01  0.0000000000000000e+00
-5.0000000000000003e-02  3.0555555555555558e-01  0.0000000000000000e+00
5.0000000000000003e-02  3.3333333333333331e-01  0.0000000000000000e+00
5.0000000000000003e-02  3.0555555555555558e-01  0.0000000000000000e+00
-5.0000000000000003e-02  3.8888888888888884e-01  0.0000000000000000e+00
-5.0000000000000003e-02  3.6111111111111105e-01  0.0000000000000000e+00
5.0000000000000003e-02  3.8888888888888884e-01  0.0000000000000000e+00
5.0000000000000003e-02  3.6111111111111105e-01  0.0000000000000000e+00
-5.0000000000000003e-02  4.4444444444444442e-01  0.0000000000000000e+00
-5.0000000000000003e-02  4.1666666666666663e-01  0.0000000000000000e+00
5.0000000000000003e-02  4.4444444444444442e-01  0.0000000000000000e+00
5.0000000000000003e-02  4.1666666666666663e-01  0.0000000000000000e+00
-5.0000000000000003e-02  5.0000000000000000e-01  0.0000000000000000e+00
-5.0000000000000003e-02  4.7222222222222221e-01  0.0000000000000000e+00
5.0000000000000003e-02  5.0000000000000000e-01  0.0000000000000000e+00
5.0000000000000003e-02  4.7222222222222221e-01  0.0000000000000000e+00
-5.0000000000000003e-02  5.5555555555555558e-01  0.0000000000000000e+00
-5.0000000000000003e-02  5.2777777777777779e-01  0.0000000000000000e+00
5.0000000000000003e-02  5.5555555555555558e-01  0.0000000000000000e+00
5.0000000000000003e-02  5.2777777777777779e-01  0.0000000000000000e+00
-5.0000000000000003e-02  6.1111111111111105e-01  0.0000000000000000e+00
-5.0000000000000003e-02  5.8333333333333326e-01  0.0000000000000000e+00
5.0000000000000003e-02  6.1111111111111105e-01  0.0000000000000000e+00
5.0000000000000003e-02  5.8333333333333326e-01  0.0000000000000000e+00
-5.0000000000000003e-02  6.6666666666666663e-01  0.0000000000000000e+00
-5.0000000000000003e-02  6.3888888888888884e-01  0.0000000000000000e+00
5.0000000000000003e-02  6.6666666666666663e-01  0.0000000000000000e+00
5.0000000000000003e-02  6.3888888888888884e-01  0.0000000000000000e+00
-5.0000000000000003e-02  7.2222222222222221e-01  0.0000000000000000e+00
-5.0000000000000003e-02  6.9444444444444442e-01  0.0000000000000000e+00
5.0000000000000003e-02  7.2222222222222221e-01  0.0000000000000000e+00
5.0000000000000003e-02  6.9444444444444442e-01  0.0000000000000000e+00
-5.0000000000000003e-02  7.7777777777777768e-01  0.0000000000000000e+00
-5.0000000000000003e-02  7.5000000000000000e-01  0.0000000000000000e+00
5.0000000000000003e-02  7.7777777777777768e-01  0.0000000000000000e+00
5.0000000000000003e-02  7.5000000000000000e-01  0.0000000000000000e+00
-5.0000000000000003e-02  8.3333333333333326e-01  0.0000000000000000e+00
-5.0000000000000003e-02  8.0555555555555547e-01  0.0000000000000000e+00
5.0000000000000003e-02  8.3333333333333326e-01  0.0000000000000000e+00
5.0000000000000003e-02  8.0555555555555547e-01  0.0000000000000000e+00
-5.0000000000000003e-02  8.8888888888888884e-01  0.0000000000000000e+00
-5.0000000000000003e-02  8.6111111111111105e-01  0.0000000000000000e+00
5.0000000000000003e-02  8.8888888888888884e-01  0.0000000000000000e+00
5.0000000000000003e-02  8.6111111111111105e-01  0.0000000000000000e+00
-5.0000000000000003e-02  9.4444444444444442e-01  0.0000000000000000e+00
-5.0000000000000003e-02  9.1666666666666663e-01  0.0000000000000000e+00
5.0000000000000003e-02  9.4444444444444442e-01  0.0000000000000000e+00
5.0000000000000003e-02  9.1666666666666663e-01  0.0000000000000000e+00
-5.0000000000000003e-02  1.0000000000000000e+00  0.0000000000000000e+00
-1.6666666666666670e-02  1.0000000000000000e+00  0.0000000000000000e+00
-5.0000000000000003e-02  9.7222222222222221e-01  0.0000000000000000e+00
-3.3333333333333340e-02  1.0000000000000000e+00  0.0000000000000000e+00
1.6666666666666663e-02  1.0000000000000000e+00  0.0000000000000000e+00
-3.4694469519536142e-18  1.0000000000000000e+00  0.0000000000000000e+00
5.0000000000000003e-02  1.0000000000000000e+00  0.0000000000000000e+00
5.0000000000000003e-02  9.7222222222222221e-01  0.0000000000000000e+00
3.3333333333333333e-02  1.0000000000000000e+00  0.0000000000000000e+00

CELLS 0 0


CELL_TYPES 0


POINT_DATA 79

VECTORS VertexNormals float

0.0000000000000000e+00 0.0000000000000000e+00 0
0.0000000000000000e+00 0.0000000000000000e+00 0
0.0000000000000000e+00 0.0000000000000000e+00 0
0.0000000000000000e+00 0.0000000000000000e+00 0
0.0000000000000000e+00 0.0000000000000000e+00 0
0.0000000000000000e+00 0.0000000000000000e+00 0
0.0000000000000000e+00 0.0000000000000000e+00 0
0.0000000000000000e+00 0.0000000000000000e+00 0
0.0000000000000000e+00 0.0000000000000000e+00 0
0.0000000000000000e+00 0.0000000000000000e+00 0
0.0000000000000000e+00 0.0000000000000000e+00 0
0.0000000000000000e+00 0.0000000000000000e+00 0
0.0000000000000000e+00 0.0000000000000000e+00 0
0.0000000000000000e+00 0.0000000000000000e+00 0
0.0000000000000000e+00 0.0000000000000000e+00 0
0.0000000000000000e+00 0.0000000000000000e+00 0
0.0000000000000000e+00 0.0000000000000000e+00 0
0.0000000000000000e+00 0.0000000000000000e+00 0
0.0000000000000000e+00 0.0000000000000000e+00 0
0.0000000000000000e+00 0.0000000000000000e+00 0
0.0000000000000000e+00 0.0000000000000000e+00 0
0.0000000000000000e+00 0.0000000000000000e+00 0
0.0000000000000000e+00 0.0000000000000000e+00 0
0.0000000000000000e+00 0.0000000000000000e+00 0
0.0000000000000000e+00 0.0000000000000000e+00 0
0.0000000000000000e+00 0.0000000000000000e+00 0
0.0000000000000000e+00 0.0000000000000000e+00 0
0.0000000000000000e+00 0.0000000000000000e+00 0
0.0000000000000000e+00 0.0000000000000000e+00 0
0.0000000000000000e+00 0.0000000000000000e+00 0
0.0000000000000000e+00 0.0000000000000000e+00 0
0.0000000000000000e+00 0.0000000000000000e+00 0
0.0000000000000000e+00 0.0000000000000000e+00 0
0.0000000000000000e+00 0.0000000000000000e+00 0
0.0000000000000000e+00 0.0000000000000000e+00 0
0.0000000000000000e+00 0.0000000000000000e+00 0
0.0000000000000000e+00 0.0000000000000000e+00 0
0.0000000000000000e+00 0.0000000000000000e+00 0
0.0000000000000000e+00 0.0000000000000000e+00 0
0.0000000000000000e+00 0.0000000000000000e+00 0
0.0000000000000000e+00 0.0000000000000000e+00 0
0.0000000000000000e+00 0.0000000000000000e+00 0
0.0000000000000000e+00 0.0000000000000000e+00 0
0.0000000000000000e+00 0.0000000000000000e+00 0
0.0000000000000000e+00 0.0000000000000000e+00 0
0.0000000000000000e+00 0.0000000000000000e+00 0
0.0000000000000000e+00 0.0000000000000000e+00 0
0.0000000000000000e+00 0.0000000000000000e+00 0
0.0000000000000000e+00 0.0000000000000000e+00 0
0.0000000000000000e+00 0.0000000000000000e+00 0
0.0000000000000000e+00 0.0000000000000000e+00 0
0.0000000000000000e+00 0.0000000000000000e+00 0
0.0000000000000000e+00 0.0000000000000000e+00 0
0.0000000000000000e+00 0.0000000000000000e+00 0
0.0000000000000000e+00 0.0000000000000000e+00 0
0.0000000000000000e+00 0.0000000000000000e+00 0
0.0000000000000000e+00 0.0000000000000000e+00 0
0.0000000000000000e+00 0.0000000000000000e+00 0
0.0000000000000000e+00 0.0000000000000000e+00 0
0.0000000000000000e+00 0.0000000000000000e+00 0
0.0000000000000000e+00 0.0000000000000000e+00 0
0.0000000000000000e+00 0.0000000000000000e+00 0
0.0000000000000000e+00 0.0000000000000000e+00 0
0.0000000000000000e+00 0.0000000000000000e+00 0
0.0000000000000000e+00 0.0000000000000000e+00 0
0.0000000000000000e+00 0.0000000000000000e+00 0
0.0000000000000000e+00 0.0000000000000000e+00 0
0.0000000000000000e+00 0.0000000000000000e+00 0
0.0000000000000000e+00 0.0000000000000000e+00 0
0.0000000000000000e+00 0.0000000000000000e+00 0
0.0000000000000000e+00 0.0000000000000000e+00 0
0.0000000000000000e+00 0.0000000000000000e+00 0
0.0000000000000000e+00 0.0000000000000000e+00 0
0.0000000000000000e+00 0.0000000000000000e+00 0
0.0000000000000000e+00 0.0000000000000000e+00 0
0.0000000000000000e+00 0.0000000000000000e+00 0
0.0000000000000000e+00 0.0000000000000000e+00 0
0.0000000000000000e+00 0.0000000000000000e+00 0
0.0000000000000000e+00 0.0000000000000000e+00 0

VECTORS Displacement float
0.0000000000000000e+00 0.0000000000000000e+00 0
1.6223237550354310e-03 2.0811180953816018e-03 0
6.7963705710449092e-04 1.0786533679463229e-03 0
0.0000000000000000e+00 0.0000000000000000e+00 0
1.5410284538154866e-03 -2.1328097940350394e-03 0
6.3161110759797699e-04 -1.0814764496567581e-03 0
5.0527202595916868e-03 4.0326961645214925e-03 0
3.0827132186161659e-03 3.0564707826743935e-03 0
5.0586297618641501e-03 -4.1801636290802581e-03 0
3.0356952538699482e-03 -3.1728989233864233e-03 0
1.0785330441659892e-02 6.0659239379141552e-03 0
7.6280766819319243e-03 5.0463599014087465e-03 0
1.0736477531421498e-02 -6.2547398957195008e-03 0
7.6319360969092399e-03 -5.2038305227594273e-03 0
1.8810725339425148e-02 7.9895874683861019e-03 0
1.4519237742477948e-02 7.0423359275891446e-03 0
1.8811028576705739e-02 -8.2841113876082981e-03 0
1.4471605328615782e-02 -7.2945366735544734e-03 0
2.9094046250701222e-02 9.8947027504995653e-03 0
2.3654743657920266e-02 8.9469690704388379e-03 0
2.9025230394907373e-02 -1.0191833216029558e-02 0
2.3645304320910790e-02 -9.2348229627601600e-03 0
4.1416302933798228e-02 1.1457950557881302e-02 0
3.5070473696404800e-02 1.0723137438946876e-02 0
4.1429923496796001e-02 -1.1869880120752088e-02 0
3.5005445521873693e-02 -1.1078017101500337e-02 0
5.5400351115786749e-02 1.2704220272639573e-02 0
4.8210158302310790e-02 1.2129947445410644e-02 0
5.5332258798438644e-02 -1.3224032211243276e-02 0
4.8225599772355597e-02 -1.2575360805631080e-02 0
7.0407954593333738e-02 1.3717814258181716e-02 0
6.2787232540878868e-02 1.3201738750084333e-02 0
7.0456257609681522e-02 -1.4508760288412151e-02 0
6.2728390851153004e-02 -1.3863865676003208e-02 0
8.6806036902894790e-02 1.4883426689843899e-02 0
7.8384901925613579e-02 1.4306111809308346e-02 0
8.6826012603043567e-02 -1.5797840565456592e-02 0
7.8482930039723356e-02 -1.5157030066719149e-02 0
1.0452451176536209e-01 1.5720556762110274e-02 0
9.5576119405766435e-02 1.5333811655190183e-02 0
1.0451397602936072e-01 -1.6918300942098945e-02 0
9.5515640973520249e-02 -1.6391574080111486e-02 0
1.2315406653922578e-01 1.6566208651793229e-02 0
1.1367859754302677e-01 1.6141246961031416e-02 0
1.2314779988878449e-01 -1.7842223455330677e-02 0
1.1373145906372072e-01 -1.7386001031474231e-02 0
1.4287094027235855e-01 1.7210067810991523e-02 0
1.3293484030442604e-01 1.6918027274891258e-02 0
1.4275189761499704e-01 -1.8710248865392298e-02 0
1.3281408394159228e-01 -1.8296049296356233e-02 0
1.6320961502100917e-01 1.7856496010425094e-02 0
1.5292028651377493e-01 1.7518680763359377e-02 0
1.6321164211413547e-01 -1.9329478167927253e-02 0
1.5292243891871357e-01 -1.9042177816140538e-02 0
1.8428443238883346e-01 1.8392184884415019e-02 0
1.7370495156016705e-01 1.8142412739271890e-02 0
1.8417233008904607e-01 -1.9951956087368820e-02 0
1.7359201296095222e-01 -1.9640963155105572e-02 0
2.0592988145404795e-01 1.8907554001517838e-02 0
1.9499350657671605e-01 1.8660338277277113e-02 0
2.0591600461193965e-01 -2.0416121270579853e-02 0
1.9497428144979556e-01 -2.0208440853918021e-02 0
2.2819958572026322e-01 1.9062755071096778e-02 0
2.1706226450862395e-01 1.9039526461069951e-02 0
2.2805850684547196e-01 -2.0633640262815427e-02 0
2.1696259206860949e-01 -2.0553689044207082e-02 0
2.5031207760088814e-01 1.9022191926506601e-02 0
2.3926497445980366e-01 1.9049180875975524e-02 0
2.5025424250092965e-01 -2.0638706618170799e-02 0
2.3916183670176003e-01 -2.0655934830893265e-02 0
2.7229944573682496e-01 1.8955517803558416e-02 0
2.7229379853376623e-01 5.8382620387702564e-03 0
2.6134041075806369e-01 1.8979659931863360e-02 0
2.7229608540146832e-01 1.2401848050907788e-02 0
2.7229621191423792e-01 -7.3851514622304913e-03 0
2.7229875588963504e-01 -7.6449028429186115e-04 0
2.7228025061910943e-01 -2.0598049364341786e-02 0
2.6128547491056325e-01 -2.0612943114890810e-02 0
2.7228614232678272e-01 -1.3998212830832456e-02 0

VECTORS Stress float
0.0000000000000000e+00 0.0000000000000000e+00 0
0.0000000000000000e+00 0.0000000000000000e+00 0
0.0000000000000000e+00 0.0000000000000000e+00 0
0.0000000000000000e+00 0.0000000000000000e+00 0
0.0000000000000000e+00 0.0000000000000000e+00 0
0.0000000000000000e+00 0.0000000000000000e+00 0
0.0000000000000000e+00 0.0000000000000000e+00 0
0.0000000000000000e+00 0.0000000000000000e+00 0
0.0000000000000000e+00 0.0000000000000000e+00 0
0.0000000000000000e+00 0.0000000000000000e+00 0
0.0000000000000000e+00 0.0000000000000000e+00 0
0.0000000000000000e+00 0.0000000000000000e+00 0
0.0000000000000000e+00 0.0000000000000000e+00 0
0.0000000000000000e+00 0.0000000000000000e+00 0
0.0000000000000000e+00 0.0000000000000000e+00 0
0.0000000000000000e+00 0.0000000000000000e+00 0
0.0000000000000000e+00 0.0000000000000000e+00 0
0.0000000000000000e+00 0.0000000000000000e+00 0
0.0000000000000000e+00 0.0000000000000000e+00 0
0.0000000000000000e+00 0.0000000000000000e+00 0
0.0000000000000000e+00 0.0000000000000000e+00 0
0.0000000000000000e+00 0.0000000000000000e+00 0
0.0000000000000000e+00 0.0000000000000000e+00 0
0.0000000000000000e+00 0.0000000000000000e+00 0
0.0000000000000000e+00 0.0000000000000000e+00 0
0.0000000000000000e+00 0.0000000000000000e+00 0
0.0000000000000000e+00 0.0000000000000000e+00 0
0.0000000000000000e+00 0.0000000000000000e+00 0
0.0000000000000000e+00 0.0000000000000000e+00 0
0.0000000000000000e+00 0.0000000000000000e+00 0
0.0000000000000000e+00 0.0000000000000000e+00 0
0.0000000000000000e+00 0.0000000000000000e+00 0
0.0000000000000000e+00 0.0000000000000000e+00 0
0.0000000000000000e+00 0.0000000000000000e+00 0
0.0000000000000000e+00 0.0000000000000000e+00 0
0.0000000000000000e+00 0.0000000000000000e+00 0
0.0000000000000000e+00 0.0000000000000000e+00 0
0.0000000000000000e+00 0.0000000000000000e+00 0
0.0000000000000000e+00 0.0000000000000000e+00 0
0.0000000000000000e+00 0.0000000000000000e+00 0
0.0000000000000000e+00 0.0000000000000000e+00 0
0.0000000000000000e+00 0.0000000000000000e+00 0
0.0000000000000000e+00 0.0000000000000000e+00 0
0.0000000000000000e+00 0.0000000000000000e+00 0
0.0000000000000000e+00 0.0000000000000000e+00 0
0.0000000000000000e+00 0.0000000000000000e+00 0
0.0000000000000000e+00 0.0000000000000000e+00 0
0.0000000000000000e+00 0.0000000000000000e+00 0
0.0000000000000000e+00 0.0000000000000000e+00 0
0.0000000000000000e+00 0.0000000000000000e+00 0
0.0000000000000000e+00 0.0000000000000000e+00 0
0.0000000000000000e+00 0.0000000000000000e+00 0
0.0000000000000000e+00 0.0000000000000000e+00 0
0.0000000000000000e+00 0.0000000000000000e+00 0
0.0000000000000000e+00 0.0000000000000000e+00 0
0.0000000000000000e+00 0.0000000000000000e+00 0
0.0000000000000000e+00 0.0000000000000000e+00 0
0.0000000000000000e+00 0.0000000000000000e+00 0
0.0000000000000000e+00 0.0000000000000000e+00 0
0.0000000000000000e+00 0.0000000000000000e+00 0
0.0000000000000000e+00 0.0000000000000000e+00 0
0.0000000000000000e+00 0.0000000000000000e+00 0
0.0000000000000000e+00 0.0000000000000000e+00 0
0.0000000000000000e+00 0.0000000000000000e+00 0
0.0000000000000000e+00 0.0000000000000000e+00 0
0.0000000000000000e+00 0.0000000000000000e+00 0
0.0000000000000000e+00 0.0000000000000000e+00 0
0.0000000000000000e+00 0.0000000000000000e+00 0
0.0000000000000000e+00 0.0000000000000000e+00 0
0.0000000000000000e+00 0.0000000000000000e+00 0
0.0000000000000000e+00 0.0000000000000000e+00 0
0.0000000000000000e+00 0.0000000000000000e+00 0
0.0000000000000000e+00 0.0000000000000000e+00 0
0.0000000000000000e+00 0.0000000000000000e+00 0
0.0000000000000000e+00 0.0000000000000000e+00 0
0.0000000000000000e+00 0.0000000000000000e+00 0
0.0000000000000000e+00 0.0000000000000000e+00 0
0.0000000000000000e+00 0.0000000000000000e+00 0
0.0000000000000000e+00 0.0000000000000000e+00 0

