/*--------------------------------*- C++ -*----------------------------------*\
| =========                 |                                                 |
| \\      /  F ield         | OpenFOAM: The Open Source CFD Toolbox           |
|  \\    /   O peration     | Version:  2006                                  |
|   \\  /    A nd           | Website:  www.openfoam.com                      |
|    \\/     M anipulation  |                                                 |
\*---------------------------------------------------------------------------*/
FoamFile
{
    version     2.0;
    format      ascii;
    class       surfaceVectorField;
    location    "9.1";
    object      Uf;
}
// * * * * * * * * * * * * * * * * * * * * * * * * * * * * * * * * * * * * * //

dimensions      [0 1 -1 0 0 0 0];


internalField   nonuniform List<vector> 
5457
(
(9.92088 0.02511 0)
(9.97124 0.0387464 0)
(9.82401 0.0328276 0)
(9.92859 0.0485864 0)
(9.7096 0.0393132 0)
(9.85547 0.0587701 0)
(9.57542 0.0460131 0)
(9.75679 0.070596 0)
(9.42136 0.0529509 0)
(9.63752 0.0830168 0)
(9.24752 0.0601687 0)
(9.49859 0.0959408 0)
(9.05359 0.0678139 0)
(9.33927 0.109618 0)
(8.83888 0.0760381 0)
(9.1587 0.124295 0)
(8.60246 0.0849744 0)
(8.95604 0.140175 0)
(8.34319 0.0947498 0)
(8.73032 0.157442 0)
(8.05976 0.105493 0)
(8.48033 0.17628 0)
(7.7507 0.117334 0)
(8.20468 0.196868 0)
(7.41444 0.130403 0)
(7.90184 0.219374 0)
(7.04936 0.144818 0)
(7.57017 0.243937 0)
(6.65387 0.160681 0)
(7.20804 0.270648 0)
(6.22654 0.178054 0)
(6.81383 0.299516 0)
(5.76623 0.196938 0)
(6.38614 0.33043 0)
(5.27236 0.217243 0)
(5.92396 0.3631 0)
(4.74515 0.238745 0)
(5.42688 0.39699 0)
(4.18596 0.26104 0)
(4.89542 0.431249 0)
(3.59773 0.283494 0)
(4.3314 0.464628 0)
(2.98531 0.305205 0)
(3.73836 0.495429 0)
(2.35588 0.325069 0)
(3.12203 0.521511 0)
(1.71888 0.342544 0)
(2.49083 0.540549 0)
(1.08414 0.361877 0)
(1.85563 0.55166 0)
(0.45164 0.34863 0)
(1.24529 0.563008 0)
(-0.145959 0.102391 0)
(0.608694 0.544811 0)
(-0.423663 -0.2071 0)
(0.094598 0.259298 0)
(-0.402169 -0.361234 0)
(-0.133779 -0.020554 0)
(-0.119681 -0.3939 0)
(9.99641 0.0516738 0)
(9.99705 0.0405059 0)
(9.95878 0.0708639 0)
(9.9785 0.0674569 0)
(9.89824 0.0879902 0)
(9.93377 0.0898738 0)
(9.81657 0.105989 0)
(9.86452 0.11356 0)
(9.71357 0.124927 0)
(9.77436 0.138522 0)
(9.58906 0.144861 0)
(9.66433 0.164655 0)
(9.44271 0.166099 0)
(9.53394 0.192342 0)
(9.27386 0.188977 0)
(9.38246 0.222043 0)
(9.0816 0.213795 0)
(9.20914 0.254163 0)
(8.86483 0.240829 0)
(9.0131 0.289081 0)
(8.62221 0.270353 0)
(8.79324 0.327173 0)
(8.35228 0.302625 0)
(8.54826 0.368809 0)
(8.05343 0.337877 0)
(8.27672 0.414342 0)
(7.72397 0.376284 0)
(7.97704 0.464075 0)
(7.36221 0.417925 0)
(7.64757 0.518219 0)
(6.96654 0.462732 0)
(7.28666 0.576838 0)
(6.53563 0.51041 0)
(6.89276 0.639758 0)
(6.06861 0.560355 0)
(6.4646 0.706459 0)
(5.56536 0.61154 0)
(6.00137 0.775938 0)
(5.02685 0.6624 0)
(5.50302 0.846548 0)
(4.45562 0.710717 0)
(4.97064 0.915824 0)
(3.85624 0.753541 0)
(4.40693 0.980315 0)
(3.23594 0.787188 0)
(3.81679 1.03545 0)
(2.60558 0.807483 0)
(3.20821 1.07547 0)
(1.98258 0.810439 0)
(2.59316 1.09312 0)
(1.40511 0.776849 0)
(1.996 1.07703 0)
(0.929587 0.646331 0)
(1.41932 0.978327 0)
(0.439702 0.384244 0)
(0.937447 0.716713 0)
(0.0590973 -0.118694 0)
(0.443651 0.34342 0)
(0.174893 -0.336018 0)
(9.98903 0.0594332 0)
(9.99481 0.0458793 0)
(9.95433 0.0894804 0)
(9.97368 0.0848579 0)
(9.89729 0.118037 0)
(9.92984 0.119179 0)
(9.82045 0.147906 0)
(9.86356 0.153984 0)
(9.72414 0.179431 0)
(9.77734 0.190418 0)
(9.60819 0.212787 0)
(9.67225 0.228649 0)
(9.47231 0.248407 0)
(9.54807 0.269144 0)
(9.31603 0.286791 0)
(9.40428 0.312515 0)
(9.13863 0.328417 0)
(9.24029 0.359347 0)
(8.93918 0.373744 0)
(9.05543 0.410199 0)
(8.71656 0.423232 0)
(8.84882 0.465627 0)
(8.4695 0.477324 0)
(8.61942 0.526185 0)
(8.19656 0.53643 0)
(8.36605 0.592408 0)
(7.89619 0.600875 0)
(8.08739 0.664776 0)
(7.56676 0.670845 0)
(7.78205 0.743658 0)
(7.20666 0.746291 0)
(7.44857 0.829231 0)
(6.81437 0.826817 0)
(7.0855 0.921361 0)
(6.38866 0.911515 0)
(6.6915 1.01945 0)
(5.92881 0.998786 0)
(6.2655 1.12221 0)
(5.4349 1.08611 0)
(5.80689 1.22745 0)
(4.9083 1.16984 0)
(5.31584 1.33177 0)
(4.35218 1.24489 0)
(4.79373 1.4302 0)
(3.77235 1.30453 0)
(4.24373 1.51587 0)
(3.1785 1.33981 0)
(3.67157 1.5794 0)
(2.58642 1.33807 0)
(3.0861 1.6077 0)
(2.01968 1.2729 0)
(2.50273 1.58151 0)
(1.48679 1.09531 0)
(1.92857 1.46415 0)
(0.95819 0.769059 0)
(1.38512 1.21028 0)
(0.479813 0.202313 0)
(0.829458 0.800895 0)
(0.43369 0.13393 0)
(9.98515 0.0716171 0)
(9.99367 0.0531503 0)
(9.95039 0.113636 0)
(9.97087 0.102296 0)
(9.89436 0.154141 0)
(9.9269 0.147961 0)
(9.81881 0.195583 0)
(9.86184 0.193731 0)
(9.7244 0.238824 0)
(9.77745 0.24129 0)
(9.6111 0.28434 0)
(9.67465 0.29118 0)
(9.47871 0.33274 0)
(9.5534 0.343975 0)
(9.3269 0.384697 0)
(9.41332 0.400396 0)
(9.15517 0.440873 0)
(9.25395 0.461167 0)
(8.96284 0.501914 0)
(9.07478 0.526994 0)
(8.74908 0.568462 0)
(8.87513 0.598573 0)
(8.51294 0.641151 0)
(8.65421 0.676604 0)
(8.25335 0.720572 0)
(8.41112 0.761767 0)
(7.96913 0.807235 0)
(8.14487 0.854686 0)
(7.65903 0.901485 0)
(7.8544 0.955872 0)
(7.32175 1.0034 0)
(7.53859 1.06562 0)
(6.95602 1.11262 0)
(7.19628 1.1839 0)
(6.56064 1.22818 0)
(6.82633 1.31013 0)
(6.13467 1.34821 0)
(6.42768 1.44297 0)
(5.67761 1.46963 0)
(5.99944 1.57994 0)
(5.18975 1.58779 0)
(5.5411 1.71711 0)
(4.67262 1.69603 0)
(5.05281 1.84855 0)
(4.12956 1.78513 0)
(4.53571 1.96582 0)
(3.56642 1.84248 0)
(3.99249 2.05727 0)
(2.99184 1.85065 0)
(3.42737 2.10707 0)
(2.41566 1.78238 0)
(2.84743 2.09438 0)
(1.8404 1.60032 0)
(2.25606 1.9886 0)
(1.25929 1.27827 0)
(1.66018 1.75287 0)
(0.666723 0.789369 0)
(1.02388 1.36757 0)
(0.523004 0.786944 0)
(9.98337 0.0844114 0)
(9.99316 0.0612943 0)
(9.94821 0.136844 0)
(9.96958 0.119933 0)
(9.89314 0.188042 0)
(9.92574 0.176249 0)
(9.81905 0.240181 0)
(9.86198 0.23271 0)
(9.72661 0.294483 0)
(9.77962 0.291103 0)
(9.61587 0.351679 0)
(9.67938 0.352293 0)
(9.48668 0.412494 0)
(9.56125 0.417001 0)
(9.33874 0.477704 0)
(9.42493 0.486037 0)
(9.17165 0.548083 0)
(9.27005 0.560237 0)
(8.98486 0.624391 0)
(9.09614 0.640425 0)
(8.7777 0.707386 0)
(8.90267 0.727411 0)
(8.54944 0.797811 0)
(8.68898 0.822006 0)
(8.29924 0.896377 0)
(8.45434 0.924996 0)
(8.02622 1.00371 0)
(8.19795 1.03711 0)
(7.72942 1.12026 0)
(7.91898 1.15898 0)
(7.40788 1.24622 0)
(7.61653 1.29099 0)
(7.06058 1.38133 0)
(7.28967 1.43321 0)
(6.68649 1.52464 0)
(6.93743 1.58517 0)
(6.28463 1.67424 0)
(6.55877 1.74556 0)
(5.85414 1.82683 0)
(6.15264 1.91194 0)
(5.39446 1.97728 0)
(5.71797 2.0802 0)
(4.9055 2.11805 0)
(5.25382 2.2441 0)
(4.388 2.23858 0)
(4.75947 2.39459 0)
(3.8437 2.32448 0)
(4.23469 2.51915 0)
(3.27521 2.35685 0)
(3.67964 2.60115 0)
(2.6852 2.31046 0)
(3.0955 2.61957 0)
(2.07253 2.15483 0)
(2.4815 2.54714 0)
(1.42927 1.86719 0)
(1.83977 2.3535 0)
(0.742554 1.41934 0)
(1.13127 2.02427 0)
(0.543266 1.51423 0)
(9.98264 0.0975023 0)
(9.99299 0.0697962 0)
(9.94744 0.159783 0)
(9.96924 0.13759 0)
(9.89354 0.221359 0)
(9.92596 0.203937 0)
(9.82133 0.284107 0)
(9.8638 0.270702 0)
(9.73132 0.349367 0)
(9.78384 0.339601 0)
(9.62364 0.418042 0)
(9.68663 0.41172 0)
(9.49816 0.490966 0)
(9.57215 0.48793 0)
(9.35461 0.569007 0)
(9.44018 0.569137 0)
(9.19264 0.653043 0)
(9.29038 0.656272 0)
(9.01177 0.743942 0)
(9.12237 0.750259 0)
(8.81143 0.842567 0)
(8.93565 0.852008 0)
(8.59099 0.949766 0)
(8.72964 0.962425 0)
(8.34974 1.06635 0)
(8.50372 1.08239 0)
(8.08693 1.19303 0)
(8.25716 1.21272 0)
(7.80177 1.33038 0)
(7.98924 1.35412 0)
(7.49343 1.47867 0)
(7.69914 1.50711 0)
(7.161 1.63776 0)
(7.38599 1.67185 0)
(6.80351 1.80682 0)
(7.04883 1.848 0)
(6.41988 1.98404 0)
(6.68653 2.03444 0)
(6.00888 2.16619 0)
(6.29777 2.2289 0)
(5.56915 2.34814 0)
(5.88093 2.42753 0)
(5.09919 2.52221 0)
(5.43406 2.62429 0)
(4.59747 2.67754 0)
(4.95483 2.81029 0)
(4.06243 2.79942 0)
(4.44056 2.97318 0)
(3.49245 2.86899 0)
(3.88824 3.09653 0)
(2.88561 2.86275 0)
(3.29498 3.15975 0)
(2.23784 2.75371 0)
(2.65668 3.1377 0)
(1.54231 2.52077 0)
(1.97467 3.00293 0)
(0.793581 2.13105 0)
(1.20713 2.74029 0)
(0.556688 2.29149 0)
(9.9825 0.110632 0)
(9.99302 0.0783652 0)
(9.9477 0.182333 0)
(9.96954 0.155045 0)
(9.89522 0.25383 0)
(9.92722 0.230897 0)
(9.82523 0.326784 0)
(9.86696 0.307524 0)
(9.73812 0.402576 0)
(9.78976 0.386542 0)
(9.63401 0.48226 0)
(9.69604 0.469173 0)
(9.51283 0.566789 0)
(9.58577 0.556428 0)
(9.37434 0.65713 0)
(9.45877 0.649308 0)
(9.21823 0.754258 0)
(9.31476 0.748831 0)
(9.04408 0.859136 0)
(9.15341 0.856014 0)
(8.85137 0.972722 0)
(8.97427 0.97186 0)
(8.63953 1.09595 0)
(8.77683 1.09736 0)
(8.40792 1.22972 0)
(8.56049 1.23349 0)
(8.15583 1.37483 0)
(8.32458 1.38116 0)
(7.8825 1.53195 0)
(8.06839 1.54117 0)
(7.5871 1.70148 0)
(7.7911 1.71415 0)
(7.26871 1.88339 0)
(7.49178 1.90041 0)
(6.92621 2.07707 0)
(7.16934 2.09981 0)
(6.55828 2.28094 0)
(6.82243 2.31149 0)
(6.16321 2.49213 0)
(6.44934 2.53358 0)
(5.73885 2.70589 0)
(6.04782 2.76272 0)
(5.28244 2.91501 0)
(5.61495 2.99351 0)
(4.79054 3.10913 0)
(5.14693 3.21785 0)
(4.259 3.27413 0)
(4.63907 3.42423 0)
(3.68311 3.39173 0)
(4.08574 3.59704 0)
(3.05779 3.43949 0)
(3.48102 3.71636 0)
(2.37752 3.39153 0)
(2.8181 3.75788 0)
(1.63776 3.22585 0)
(2.09895 3.69366 0)
(0.839051 2.90049 0)
(1.27879 3.5041 0)
(0.5733 3.11329 0)
(9.98273 0.123587 0)
(9.99316 0.0868216 0)
(9.94873 0.204319 0)
(9.97026 0.172101 0)
(9.89794 0.285266 0)
(9.92926 0.256988 0)
(9.8305 0.367984 0)
(9.87123 0.343005 0)
(9.74669 0.453875 0)
(9.79714 0.431701 0)
(9.64666 0.544107 0)
(9.70733 0.524379 0)
(9.53035 0.639743 0)
(9.60178 0.62217 0)
(9.39759 0.741843 0)
(9.48035 0.726167 0)
(9.24808 0.851465 0)
(9.34282 0.837474 0)
(9.08147 0.969665 0)
(9.18889 0.95719 0)
(8.89729 1.09749 0)
(9.01818 1.08641 0)
(8.69502 1.23596 0)
(8.83022 1.22621 0)
(8.47403 1.38607 0)
(8.62446 1.37766 0)
(8.23364 1.54872 0)
(8.40026 1.54178 0)
(7.97308 1.7247 0)
(8.15689 1.71948 0)
(7.69145 1.91455 0)
(7.89349 1.91154 0)
(7.38767 2.11846 0)
(7.60903 2.11848 0)
(7.06041 2.33607 0)
(7.30222 2.34041 0)
(6.70797 2.56622 0)
(6.97142 2.57688 0)
(6.3281 2.80657 0)
(6.61446 2.82654 0)
(5.91781 3.05311 0)
(6.22843 3.08679 0)
(5.47314 3.29956 0)
(5.80943 3.35323 0)
(4.98898 3.53664 0)
(5.35232 3.619 0)
(4.45901 3.75134 0)
(4.85052 3.87396 0)
(3.8759 3.92632 0)
(4.29606 4.10383 0)
(3.23203 4.03963 0)
(3.6802 4.28949 0)
(2.52058 4.06467 0)
(2.99319 4.40648 0)
(1.73819 3.97574 0)
(2.23712 4.42419 0)
(0.889371 3.71831 0)
(1.36319 4.31582 0)
(0.598675 3.98438 0)
(9.98321 0.13621 0)
(9.99339 0.0950449 0)
(9.95032 0.225583 0)
(9.97131 0.188598 0)
(9.9015 0.315512 0)
(9.93193 0.282063 0)
(9.83693 0.407524 0)
(9.87643 0.376979 0)
(9.75683 0.503039 0)
(9.80578 0.474865 0)
(9.66133 0.603309 0)
(9.72029 0.57708 0)
(9.55044 0.709498 0)
(9.61994 0.684852 0)
(9.424 0.822748 0)
(9.50462 0.799361 0)
(9.2818 0.944201 0)
(9.37419 0.921788 0)
(9.12351 1.075 0)
(9.22839 1.05331 0)
(8.94873 1.21627 0)
(9.0669 1.19511 0)
(8.75697 1.36913 0)
(8.88931 1.34836 0)
(8.54767 1.53468 0)
(8.69512 1.51421 0)
(8.32014 1.71395 0)
(8.48372 1.69381 0)
(8.07357 1.90786 0)
(8.25439 1.88822 0)
(7.80698 2.11715 0)
(8.00622 2.09839 0)
(7.51914 2.34228 0)
(7.73809 2.3251 0)
(7.20847 2.58328 0)
(7.44853 2.56882 0)
(6.87286 2.83951 0)
(7.13562 2.82959 0)
(6.5095 3.10938 0)
(6.79675 3.10677 0)
(6.11458 3.38989 0)
(6.42838 3.39873 0)
(5.68298 3.67607 0)
(6.02571 3.70238 0)
(5.20802 3.96021 0)
(5.58231 4.01253 0)
(4.68127 4.23092 0)
(5.08982 4.32095 0)
(4.0928 4.47215 0)
(4.53774 4.61528 0)
(3.43205 4.66228 0)
(3.91416 4.87765 0)
(2.68972 4.77277 0)
(3.20518 5.08324 0)
(1.86154 4.77191 0)
(2.41085 5.19748 0)
(0.95401 4.58915 0)
(1.47599 5.1837 0)
(0.639058 4.91877 0)
(9.98386 0.148376 0)
(9.99368 0.102949 0)
(9.95235 0.245983 0)
(9.9726 0.204404 0)
(9.90578 0.344416 0)
(9.9351 0.305984 0)
(9.84437 0.445221 0)
(9.88241 0.409291 0)
(9.76832 0.54984 0)
(9.81551 0.515843 0)
(9.67779 0.659595 0)
(9.7347 0.627044 0)
(9.57279 0.775731 0)
(9.63997 0.744198 0)
(9.45325 0.899469 0)
(9.53128 0.868565 0)
(9.31898 1.03203 0)
(9.4085 1.0014 0)
(9.16974 1.17463 0)
(9.27148 1.14394 0)
(9.00517 1.32848 0)
(9.11994 1.29746 0)
(8.82485 1.49481 0)
(8.95355 1.46322 0)
(8.62826 1.67481 0)
(8.77187 1.64247 0)
(8.41474 1.86966 0)
(8.57434 1.83648 0)
(8.18348 2.08046 0)
(8.36026 2.04648 0)
(7.93345 2.30819 0)
(8.12876 2.27364 0)
(7.66329 2.55365 0)
(7.87864 2.51903 0)
(7.37122 2.81733 0)
(7.60834 2.78356 0)
(7.0548 3.09926 0)
(7.31574 3.06785 0)
(6.71072 3.39879 0)
(6.99792 3.37212 0)
(6.33446 3.71419 0)
(6.65086 3.69593 0)
(5.91986 4.04217 0)
(6.26902 4.03778 0)
(5.45873 4.37709 0)
(5.84486 4.39459 0)
(4.94047 4.70983 0)
(5.36828 4.76073 0)
(4.35209 5.02637 0)
(4.82613 5.12665 0)
(3.67896 5.30587 0)
(4.20247 5.47683 0)
(2.90693 5.51771 0)
(3.4772 5.78707 0)
(2.0272 5.62238 0)
(2.64441 6.0189 0)
(1.04485 5.52869 0)
(1.63727 6.12313 0)
(0.704261 5.94213 0)
(9.98465 0.159989 0)
(9.99402 0.110468 0)
(9.95473 0.265395 0)
(9.97409 0.219411 0)
(9.91065 0.371839 0)
(9.93867 0.328628 0)
(9.85266 0.480909 0)
(9.88904 0.439798 0)
(9.78099 0.594076 0)
(9.82618 0.554462 0)
(9.6958 0.71272 0)
(9.75037 0.674061 0)
(9.59714 0.838155 0)
(9.66165 0.799961 0)
(9.485 0.971672 0)
(9.56001 0.933488 0)
(9.35924 1.11456 0)
(9.44541 1.07596 0)
(9.21969 1.2681 0)
(9.31773 1.22869 0)
(9.06608 1.43361 0)
(9.1768 1.393 0)
(8.89804 1.61238 0)
(9.02235 1.57025 0)
(8.71513 1.80575 0)
(8.85403 1.7618 0)
(8.51676 2.01502 0)
(8.67137 1.96903 0)
(8.30214 2.24151 0)
(8.47374 2.19335 0)
(8.07025 2.48646 0)
(8.26032 2.43617 0)
(7.8197 2.75107 0)
(8.02996 2.69888 0)
(7.54862 3.03636 0)
(7.7811 2.98287 0)
(7.25438 3.34316 0)
(7.51159 3.28941 0)
(6.93337 3.67188 0)
(7.2184 3.61969 0)
(6.58057 4.02233 0)
(6.89728 3.97459 0)
(6.18904 4.39327 0)
(6.54232 4.35452 0)
(5.74927 4.7817 0)
(6.14522 4.75896 0)
(5.24854 5.18173 0)
(5.69449 5.18564 0)
(4.6703 5.58268 0)
(5.1744 5.62921 0)
(3.99422 5.96625 0)
(4.56432 6.07863 0)
(3.19774 6.30119 0)
(3.83551 6.51319 0)
(2.26119 6.53991 0)
(2.97003 6.89337 0)
(1.18026 6.5641 0)
(1.87852 7.15683 0)
(0.812494 7.09813 0)
(9.98553 0.170971 0)
(9.9944 0.117552 0)
(9.95738 0.283712 0)
(9.97572 0.23353 0)
(9.916 0.397654 0)
(9.94258 0.349886 0)
(9.86169 0.514437 0)
(9.89623 0.468374 0)
(9.79468 0.635568 0)
(9.83764 0.59057 0)
(9.71516 0.762469 0)
(9.76712 0.717947 0)
(9.62323 0.896517 0)
(9.68474 0.851921 0)
(9.51892 1.03906 0)
(9.59054 0.993874 0)
(9.40218 1.19145 0)
(9.48454 1.14517 0)
(9.2729 1.35503 0)
(9.36671 1.30719 0)
(9.1309 1.53118 0)
(9.23695 1.48132 0)
(8.9759 1.7213 0)
(9.0951 1.66898 0)
(8.80756 1.92683 0)
(8.9409 1.87163 0)
(8.62537 2.14922 0)
(8.77401 2.09077 0)
(8.42865 2.39 0)
(8.59391 2.32797 0)
(8.21647 2.6507 0)
(8.3999 2.58489 0)
(7.98752 2.93291 0)
(8.19099 2.86324 0)
(7.73996 3.23826 0)
(7.96576 3.16487 0)
(7.47123 3.56838 0)
(7.7222 3.49177 0)
(7.17767 3.92491 0)
(7.45746 3.84608 0)
(6.85417 4.30934 0)
(7.16748 4.23012 0)
(6.49343 4.72283 0)
(6.84644 4.64635 0)
(6.0852 5.16566 0)
(6.48598 5.09719 0)
(5.61504 5.63635 0)
(6.07409 5.58462 0)
(5.06286 6.12972 0)
(5.59328 6.10911 0)
(4.40139 6.63346 0)
(5.01872 6.66743 0)
(3.59526 7.1206 0)
(4.31154 7.24812 0)
(2.60352 7.53964 0)
(3.43461 7.81938 0)
(1.39378 7.73908 0)
(2.25554 8.31372 0)
(1.00211 8.46324 0)
(9.9865 0.181261 0)
(9.9948 0.124161 0)
(9.96026 0.300846 0)
(9.97747 0.246691 0)
(9.92176 0.421753 0)
(9.94676 0.369663 0)
(9.87133 0.545676 0)
(9.90387 0.494908 0)
(9.80923 0.674156 0)
(9.84977 0.624034 0)
(9.73567 0.808655 0)
(9.78478 0.758544 0)
(9.6508 0.950595 0)
(9.70902 0.899893 0)
(9.5547 1.10137 0)
(9.62257 1.0495 0)
(9.44741 1.26238 0)
(9.52554 1.20879 0)
(9.32888 1.43504 0)
(9.41797 1.37917 0)
(9.19905 1.62077 0)
(9.29986 1.56207 0)
(9.05775 1.82106 0)
(9.17115 1.75899 0)
(8.90474 2.03743 0)
(9.03172 1.97145 0)
(8.73967 2.2715 0)
(8.88136 2.20107 0)
(8.562 2.52496 0)
(8.71972 2.44956 0)
(8.37098 2.79964 0)
(8.54632 2.71878 0)
(8.16549 3.09752 0)
(8.36037 3.01075 0)
(7.94394 3.42078 0)
(8.16077 3.32776 0)
(7.70406 3.77189 0)
(7.94588 3.67241 0)
(7.44253 4.15367 0)
(7.71332 4.04777 0)
(7.15463 4.56938 0)
(7.45966 4.45752 0)
(6.83347 5.02274 0)
(7.17987 4.90616 0)
(6.46898 5.51786 0)
(6.86655 5.39919 0)
(6.0463 6.05886 0)
(6.50864 5.9433 0)
(5.54319 6.64875 0)
(6.08919 6.54637 0)
(4.92603 7.28676 0)
(5.58205 7.21678 0)
(4.14382 7.9608 0)
(4.94119 7.96123 0)
(3.12058 8.63239 0)
(4.10778 8.7748 0)
(1.75539 9.12597 0)
(2.87697 9.61926 0)
(1.36382 10.1825 0)
(9.98754 0.190807 0)
(9.99523 0.130266 0)
(9.96332 0.316721 0)
(9.97932 0.258835 0)
(9.92785 0.444042 0)
(9.95115 0.387885 0)
(9.88148 0.574516 0)
(9.91188 0.519308 0)
(9.82448 0.709713 0)
(9.86243 0.654744 0)
(9.75712 0.851128 0)
(9.80317 0.795722 0)
(9.67957 1.00022 0)
(9.73425 0.943723 0)
(9.592 1.15841 0)
(9.65582 1.1002 0)
(9.4945 1.32715 0)
(9.56804 1.2666 0)
(9.38713 1.50787 0)
(9.47106 1.44436 0)
(9.26993 1.70207 0)
(9.36497 1.63497 0)
(9.14286 1.91127 0)
(9.24984 1.83993 0)
(9.00582 2.13709 0)
(9.12568 2.06085 0)
(8.85864 2.38126 0)
(8.99246 2.29941 0)
(8.70099 2.64562 0)
(8.85004 2.55744 0)
(8.53236 2.93224 0)
(8.69819 2.83696 0)
(8.35198 3.24343 0)
(8.53646 3.14024 0)
(8.15866 3.58188 0)
(8.36416 3.46988 0)
(7.95068 3.95076 0)
(8.18024 3.82902 0)
(7.72547 4.35396 0)
(7.98308 4.22145 0)
(7.4793 4.79634 0)
(7.77034 4.65197 0)
(7.20658 5.28407 0)
(7.53851 5.12678 0)
(6.89893 5.82513 0)
(7.28234 5.65409 0)
(6.54338 6.42986 0)
(6.99385 6.24501 0)
(6.11917 7.11163 0)
(6.66028 6.91505 0)
(5.59159 7.88754 0)
(6.26105 7.6864 0)
(4.89915 8.77736 0)
(5.75573 8.5925 0)
(3.92496 9.80018 0)
(5.08502 9.68442 0)
(2.43161 10.854 0)
(3.97687 11.0474 0)
(2.14434 12.5641 0)
(9.98862 0.199571 0)
(9.99567 0.135841 0)
(9.96652 0.331276 0)
(9.98124 0.269917 0)
(9.9342 0.464439 0)
(9.9557 0.404489 0)
(9.89202 0.600848 0)
(9.92016 0.541499 0)
(9.8403 0.742101 0)
(9.87552 0.682613 0)
(9.77932 0.889714 0)
(9.82216 0.829377 0)
(9.70931 1.04517 0)
(9.76028 0.983292 0)
(9.6305 1.20992 0)
(9.6901 1.14583 0)
(9.54306 1.38542 0)
(9.61185 1.31844 0)
(9.44716 1.57315 0)
(9.52576 1.5026 0)
(9.34293 1.77462 0)
(9.43205 1.69979 0)
(9.23049 1.99141 0)
(9.3309 1.91155 0)
(9.1099 2.22517 0)
(9.2225 2.13952 0)
(8.9812 2.47772 0)
(9.107 2.38541 0)
(8.8443 2.75101 0)
(8.98451 2.65113 0)
(8.69903 3.04728 0)
(8.85508 2.93878 0)
(8.54503 3.36908 0)
(8.71868 3.25079 0)
(8.38169 3.71944 0)
(8.57516 3.58997 0)
(8.20805 4.10207 0)
(8.42416 3.95976 0)
(8.02266 4.52163 0)
(8.2651 4.36442 0)
(7.82333 4.98416 0)
(8.09709 4.80942 0)
(7.60674 5.4977 0)
(7.91874 5.302 0)
(7.36786 6.07328 0)
(7.72807 5.85201 0)
(7.09876 6.72656 0)
(7.52218 6.47337 0)
(6.78625 7.4807 0)
(7.29682 7.18665 0)
(6.40676 8.37236 0)
(7.04646 8.0242 0)
(5.91323 9.46587 0)
(6.76082 9.04243 0)
(5.19312 10.9072 0)
(6.45876 10.3568 0)
(3.88115 13.1747 0)
(6.18469 12.302 0)
(5.25117 16.3655 0)
(0.192308 -0.11462 0)
(0.113205 -0.188354 0)
(0.375764 -0.0975599 0)
(0.27497 -0.175439 0)
(0.526956 -0.0744858 0)
(0.43656 -0.141171 0)
(0.644709 -0.053474 0)
(0.572655 -0.107352 0)
(0.732645 -0.0358248 0)
(0.678547 -0.0782745 0)
(0.794657 -0.0212154 0)
(0.757843 -0.0538959 0)
(0.83404 -0.00910121 0)
(0.814955 -0.0334193 0)
(0.853567 0.000873991 0)
(0.853237 -0.0161792 0)
(0.85618 0.00847736 0)
(0.875073 -0.00211409 0)
(0.843606 0.0137893 0)
(0.882592 0.00993208 0)
(0.819215 0.0174317 0)
(0.876358 0.0188106 0)
(0.785716 0.019675 0)
(0.858954 0.0252244 0)
(0.745795 0.0206352 0)
(0.833177 0.0293509 0)
(0.702211 0.0204067 0)
(0.801791 0.0312864 0)
(0.657703 0.0191385 0)
(0.767582 0.0311956 0)
(0.614753 0.0170625 0)
(0.73324 0.0293921 0)
(0.57538 0.0144888 0)
(0.701107 0.0263087 0)
(0.540962 0.0117699 0)
(0.672935 0.0224539 0)
(0.512131 0.0092407 0)
(0.649729 0.018365 0)
(0.488726 0.00715046 0)
(0.631669 0.0145567 0)
(0.469929 0.00560244 0)
(0.618172 0.0114145 0)
(0.454617 0.00454285 0)
(0.608164 0.00907862 0)
(0.441776 0.00382261 0)
(0.600515 0.00743395 0)
(0.430728 0.00328495 0)
(0.594381 0.00624433 0)
(0.42115 0.00282627 0)
(0.589325 0.00528606 0)
(0.412923 0.00241736 0)
(0.585211 0.0044331 0)
(0.405938 0.00208227 0)
(0.582002 0.00367515 0)
(0.39996 0.0018406 0)
(0.579567 0.00307081 0)
(0.394679 0.00156303 0)
(0.57759 0.00264883 0)
(0.575435 0.00206161 0)
(0.178643 -0.274114 0)
(0.0950925 -0.363324 0)
(0.350222 -0.240259 0)
(0.245493 -0.339522 0)
(0.49481 -0.190383 0)
(0.387529 -0.276175 0)
(0.611865 -0.144226 0)
(0.508553 -0.214067 0)
(0.705006 -0.10514 0)
(0.60523 -0.161182 0)
(0.777837 -0.0724867 0)
(0.681178 -0.117195 0)
(0.833319 -0.0450551 0)
(0.740064 -0.0805006 0)
(0.873711 -0.0218291 0)
(0.784571 -0.0496456 0)
(0.900003 -0.00218498 0)
(0.816574 -0.0233833 0)
(0.913911 0.0138411 0)
(0.837519 -0.00105295 0)
(0.914629 0.026121 0)
(0.848147 0.0182566 0)
(0.905146 0.034852 0)
(0.848428 0.0323646 0)
(0.888111 0.0401794 0)
(0.840811 0.0418758 0)
(0.866329 0.0422924 0)
(0.827721 0.0469221 0)
(0.842589 0.0415518 0)
(0.811659 0.0478351 0)
(0.8194 0.0385089 0)
(0.795028 0.0452611 0)
(0.798778 0.0338565 0)
(0.779868 0.0400879 0)
(0.782056 0.0283752 0)
(0.767661 0.0333633 0)
(0.76979 0.0228586 0)
(0.759202 0.0261784 0)
(0.761731 0.0179802 0)
(0.754527 0.0195691 0)
(0.757005 0.0141312 0)
(0.752963 0.014284 0)
(0.754521 0.011336 0)
(0.753417 0.0105515 0)
(0.753383 0.00934645 0)
(0.754835 0.00809268 0)
(0.753064 0.00783465 0)
(0.756534 0.00642492 0)
(0.753369 0.00654984 0)
(0.758238 0.00511759 0)
(0.754257 0.00539605 0)
(0.759946 0.00395458 0)
(0.755641 0.00441065 0)
(0.761715 0.00294694 0)
(0.757291 0.00366914 0)
(0.763499 0.00222326 0)
(0.758832 0.00313555 0)
(0.765061 0.00187575 0)
(0.766127 0.00192632 0)
(0.152084 -0.435153 0)
(0.0750163 -0.512281 0)
(0.293652 -0.382323 0)
(0.202438 -0.474903 0)
(0.411138 -0.306254 0)
(0.311565 -0.385874 0)
(0.506184 -0.23649 0)
(0.404928 -0.300717 0)
(0.582553 -0.177718 0)
(0.479104 -0.229161 0)
(0.643249 -0.128788 0)
(0.53819 -0.169947 0)
(0.690622 -0.0878786 0)
(0.584881 -0.1207 0)
(0.726517 -0.0533839 0)
(0.621043 -0.0793858 0)
(0.752581 -0.0237931 0)
(0.648123 -0.0444682 0)
(0.770061 0.0015301 0)
(0.666964 -0.0148598 0)
(0.780229 0.0220229 0)
(0.6809 0.0104143 0)
(0.782623 0.0371677 0)
(0.686803 0.0305625 0)
(0.779139 0.0468581 0)
(0.686906 0.0444374 0)
(0.772014 0.0512888 0)
(0.683209 0.0520362 0)
(0.763403 0.0510473 0)
(0.677708 0.0538705 0)
(0.755162 0.0470344 0)
(0.672164 0.050901 0)
(0.748727 0.0403678 0)
(0.667922 0.0443874 0)
(0.745029 0.0323184 0)
(0.665848 0.0357763 0)
(0.744347 0.0242019 0)
(0.666282 0.0266125 0)
(0.746278 0.0171558 0)
(0.668964 0.0183685 0)
(0.749864 0.0118334 0)
(0.673029 0.0121059 0)
(0.754051 0.0082365 0)
(0.677262 0.00806943 0)
(0.758099 0.00590894 0)
(0.680671 0.00574885 0)
(0.761656 0.00429757 0)
(0.6828 0.00441443 0)
(0.764697 0.00300987 0)
(0.683642 0.00343963 0)
(0.76731 0.00192037 0)
(0.683455 0.00254623 0)
(0.769553 0.00111596 0)
(0.682543 0.00176713 0)
(0.771363 0.000744874 0)
(0.681109 0.00129333 0)
(0.772521 0.000937462 0)
(0.679206 0.00129482 0)
(0.676307 0.00198257 0)
(0.122853 -0.561582 0)
(0.0548483 -0.632608 0)
(0.229037 -0.488405 0)
(0.153793 -0.576448 0)
(0.313492 -0.390082 0)
(0.223888 -0.464731 0)
(0.381233 -0.302277 0)
(0.286054 -0.362474 0)
(0.435993 -0.229139 0)
(0.333564 -0.277905 0)
(0.479984 -0.168439 0)
(0.371946 -0.20818 0)
(0.514825 -0.117688 0)
(0.402648 -0.150266 0)
(0.54169 -0.074897 0)
(0.426779 -0.101645 0)
(0.561601 -0.0387222 0)
(0.445202 -0.0605758 0)
(0.575833 -0.00822896 0)
(0.458127 -0.0261012 0)
(0.585255 0.0169147 0)
(0.468228 0.00314801 0)
(0.589148 0.0360354 0)
(0.473457 0.0276307 0)
(0.589183 0.0483543 0)
(0.474522 0.0444117 0)
(0.58743 0.0539559 0)
(0.473364 0.0532948 0)
(0.585456 0.0536773 0)
(0.471762 0.0552542 0)
(0.584367 0.0487474 0)
(0.470794 0.0516462 0)
(0.584882 0.0406546 0)
(0.470946 0.0440432 0)
(0.587294 0.0310795 0)
(0.472283 0.034203 0)
(0.591407 0.0217382 0)
(0.474523 0.0239921 0)
(0.596449 0.0140818 0)
(0.47706 0.0152327 0)
(0.601123 0.00884865 0)
(0.478861 0.0092676 0)
(0.604294 0.00584884 0)
(0.478648 0.00618972 0)
(0.605463 0.00432718 0)
(0.475761 0.00507208 0)
(0.604644 0.00350243 0)
(0.470333 0.00487698 0)
(0.602201 0.00285838 0)
(0.462837 0.00478785 0)
(0.598575 0.00223728 0)
(0.4539 0.00450034 0)
(0.594127 0.00175746 0)
(0.444095 0.00410718 0)
(0.589105 0.00160388 0)
(0.433814 0.00387345 0)
(0.583669 0.00199471 0)
(0.423397 0.00402118 0)
(0.41167 0.00448285 0)
(0.0889699 -0.655309 0)
(0.0337133 -0.719749 0)
(0.155783 -0.560969 0)
(0.0989874 -0.640342 0)
(0.203706 -0.445185 0)
(0.125292 -0.509478 0)
(0.241081 -0.345529 0)
(0.154252 -0.396547 0)
(0.271089 -0.263557 0)
(0.171899 -0.304617 0)
(0.295197 -0.19577 0)
(0.186393 -0.229133 0)
(0.314448 -0.139138 0)
(0.197614 -0.166602 0)
(0.329497 -0.0913478 0)
(0.206396 -0.114113 0)
(0.340698 -0.0508113 0)
(0.213357 -0.0696373 0)
(0.348296 -0.0161296 0)
(0.21818 -0.0321026 0)
(0.353981 0.0127086 0)
(0.222404 -0.00123648 0)
(0.355983 0.0343749 0)
(0.222805 0.0261235 0)
(0.355938 0.048039 0)
(0.221711 0.0444444 0)
(0.355528 0.0538977 0)
(0.219421 0.0535891 0)
(0.355622 0.0531441 0)
(0.217346 0.0551889 0)
(0.356514 0.047326 0)
(0.21529 0.0510353 0)
(0.358072 0.0382128 0)
(0.212463 0.0430026 0)
(0.35982 0.0277239 0)
(0.207911 0.0330625 0)
(0.361074 0.0178535 0)
(0.200877 0.0231934 0)
(0.360848 0.0104978 0)
(0.191519 0.0153733 0)
(0.35768 0.0064891 0)
(0.180018 0.0111913 0)
(0.350886 0.00518335 0)
(0.166953 0.010218 0)
(0.340795 0.00540216 0)
(0.15296 0.0109133 0)
(0.328275 0.00610033 0)
(0.138316 0.0119538 0)
(0.314192 0.00659255 0)
(0.123104 0.01256 0)
(0.299275 0.00668298 0)
(0.107669 0.0125387 0)
(0.283939 0.00660252 0)
(0.0922886 0.0121756 0)
(0.268379 0.00674134 0)
(0.0770912 0.0118665 0)
(0.253207 0.00697385 0)
(0.0621045 0.011631 0)
(0.047019 0.0102964 0)
(0.0504427 -0.711713 0)
(0.0106425 -0.769154 0)
(0.0735989 -0.595997 0)
(0.0370689 -0.662486 0)
(0.0827559 -0.467469 0)
(0.0169328 -0.518028 0)
(0.087426 -0.361412 0)
(0.0101243 -0.400804 0)
(0.0894195 -0.27514 0)
(-0.00495363 -0.306391 0)
(0.0900003 -0.204278 0)
(-0.0181026 -0.229637 0)
(0.089819 -0.145386 0)
(-0.0305181 -0.166448 0)
(0.089366 -0.0959444 0)
(-0.0413525 -0.113738 0)
(0.0893374 -0.0545565 0)
(-0.0503306 -0.0696141 0)
(0.0904599 -0.0197737 0)
(-0.0588578 -0.0329892 0)
(0.0877443 0.0105067 0)
(-0.0694413 0.000857817 0)
(0.0847092 0.0347149 0)
(-0.076206 0.0284089 0)
(0.0813593 0.0494679 0)
(-0.0811301 0.0469073 0)
(0.0783027 0.0550886 0)
(-0.0870934 0.0557833 0)
(0.0749328 0.0537894 0)
(-0.0936535 0.0575508 0)
(0.0699467 0.0478062 0)
(-0.101976 0.0544475 0)
(0.061861 0.0392269 0)
(-0.113076 0.0484053 0)
(0.0495386 0.0300664 0)
(-0.127623 0.0411016 0)
(0.0326644 0.0222163 0)
(-0.14571 0.033942 0)
(0.0122808 0.0172061 0)
(-0.166295 0.0280507 0)
(-0.00904166 0.0154938 0)
(-0.188174 0.0241394 0)
(-0.0297029 0.0160555 0)
(-0.209486 0.0224683 0)
(-0.0491548 0.0172901 0)
(-0.229119 0.0221742 0)
(-0.0673011 0.0180978 0)
(-0.246848 0.0222108 0)
(-0.084064 0.018123 0)
(-0.262976 0.0218111 0)
(-0.0996584 0.0176058 0)
(-0.277593 0.0209418 0)
(-0.1144 0.0170414 0)
(-0.290907 0.0199316 0)
(-0.128507 0.0164267 0)
(-0.30326 0.019113 0)
(-0.141427 0.014722 0)
(-0.315077 0.0181114 0)
(-0.325072 0.0157194 0)
(0.00320145 -0.72513 0)
(-0.0166085 -0.77229 0)
(-0.0179617 -0.589134 0)
(-0.033985 -0.642248 0)
(-0.0487144 -0.453076 0)
(-0.0998964 -0.489314 0)
(-0.0796755 -0.346004 0)
(-0.146965 -0.372578 0)
(-0.109586 -0.260236 0)
(-0.19718 -0.279766 0)
(-0.136932 -0.191015 0)
(-0.241704 -0.205871 0)
(-0.16106 -0.134416 0)
(-0.28146 -0.145974 0)
(-0.181889 -0.0872632 0)
(-0.31597 -0.0964797 0)
(-0.200724 -0.0468405 0)
(-0.34541 -0.0543773 0)
(-0.220235 -0.01118 0)
(-0.371708 -0.0175776 0)
(-0.23615 0.0190766 0)
(-0.396795 0.0131315 0)
(-0.246551 0.0408555 0)
(-0.40932 0.0362405 0)
(-0.25394 0.0535224 0)
(-0.419201 0.0523402 0)
(-0.262142 0.0589839 0)
(-0.429006 0.0616705 0)
(-0.272681 0.0590588 0)
(-0.43981 0.0649375 0)
(-0.286242 0.0555735 0)
(-0.452743 0.0637282 0)
(-0.30288 0.0500942 0)
(-0.468158 0.0595226 0)
(-0.322111 0.0439684 0)
(-0.485857 0.0536475 0)
(-0.343148 0.0382336 0)
(-0.505288 0.0473422 0)
(-0.365055 0.0335748 0)
(-0.525745 0.0416761 0)
(-0.386938 0.0304564 0)
(-0.546466 0.0374274 0)
(-0.407647 0.0287993 0)
(-0.56641 0.0347473 0)
(-0.42645 0.0278492 0)
(-0.58488 0.0330592 0)
(-0.442923 0.0268446 0)
(-0.601268 0.031522 0)
(-0.457088 0.0254999 0)
(-0.615345 0.0296283 0)
(-0.469188 0.0239803 0)
(-0.62711 0.0274623 0)
(-0.479657 0.0225464 0)
(-0.636926 0.0254395 0)
(-0.48877 0.0210648 0)
(-0.645451 0.023794 0)
(-0.49663 0.0191424 0)
(-0.653137 0.0220539 0)
(-0.658463 0.0199652 0)
(-0.0449993 -0.689781 0)
(-0.0500009 -0.728216 0)
(-0.116356 -0.539522 0)
(-0.114158 -0.574009 0)
(-0.189773 -0.403443 0)
(-0.226617 -0.420763 0)
(-0.26096 -0.299848 0)
(-0.317727 -0.30768 0)
(-0.32623 -0.219099 0)
(-0.404555 -0.221667 0)
(-0.384561 -0.155096 0)
(-0.48077 -0.155174 0)
(-0.435769 -0.103106 0)
(-0.546743 -0.102519 0)
(-0.480101 -0.0595385 0)
(-0.602966 -0.059749 0)
(-0.518343 -0.0222764 0)
(-0.650405 -0.0234404 0)
(-0.549307 0.00837128 0)
(-0.687851 0.00688001 0)
(-0.570907 0.0318059 0)
(-0.714638 0.0297893 0)
(-0.585834 0.0491789 0)
(-0.73248 0.0474805 0)
(-0.597766 0.0610667 0)
(-0.7468 0.0611132 0)
(-0.609011 0.0673527 0)
(-0.758936 0.0697426 0)
(-0.621305 0.0688766 0)
(-0.77082 0.0735543 0)
(-0.635361 0.0668091 0)
(-0.783635 0.0733471 0)
(-0.651177 0.0623096 0)
(-0.797817 0.0700909 0)
(-0.668415 0.0565734 0)
(-0.813292 0.0648932 0)
(-0.686667 0.050771 0)
(-0.82979 0.0589684 0)
(-0.705548 0.0458248 0)
(-0.847041 0.053419 0)
(-0.724516 0.0421484 0)
(-0.864689 0.0489457 0)
(-0.742772 0.0395091 0)
(-0.882144 0.045572 0)
(-0.759447 0.037233 0)
(-0.898644 0.0427122 0)
(-0.77384 0.0347292 0)
(-0.913342 0.0396573 0)
(-0.785649 0.0319037 0)
(-0.925609 0.0361458 0)
(-0.795049 0.0291081 0)
(-0.935271 0.0325275 0)
(-0.802552 0.0266925 0)
(-0.942761 0.0293872 0)
(-0.808698 0.0245915 0)
(-0.948942 0.0269508 0)
(-0.814303 0.02266 0)
(-0.954297 0.0248654 0)
(-0.957513 0.0232442 0)
(-0.100956 -0.604708 0)
(-0.0916926 -0.629336 0)
(-0.223293 -0.445133 0)