# vtk DataFile Version 2.0

ASCII

DATASET UNSTRUCTURED_GRID

POINTS 33 float 

-5.0000000000000003e-02  3.3333333335000000e-02  0.0000000000000000e+00
-5.0000000000000003e-02  9.9999999985000018e-02  0.0000000000000000e+00
-5.0000000000000003e-02  1.6666666665000002e-01  0.0000000000000000e+00
-5.0000000000000003e-02  2.3333333334999998e-01  0.0000000000000000e+00
-5.0000000000000003e-02  2.9999999999999993e-01  0.0000000000000000e+00
-5.0000000000000003e-02  3.6666666665000003e-01  0.0000000000000000e+00
-5.0000000000000003e-02  4.3333333335000002e-01  0.0000000000000000e+00
-5.0000000000000003e-02  5.0000000000000000e-01  0.0000000000000000e+00
-5.0000000000000003e-02  5.6666666664999987e-01  0.0000000000000000e+00
-5.0000000000000003e-02  6.3333333334999986e-01  0.0000000000000000e+00
-5.0000000000000003e-02  6.9999999999999984e-01  0.0000000000000000e+00
-5.0000000000000003e-02  7.6666666664999994e-01  0.0000000000000000e+00
-4.9999999999999996e-02  8.3333333334999982e-01  0.0000000000000000e+00
-5.0000000000000003e-02  8.9999999999999991e-01  0.0000000000000000e+00
-5.0000000000000003e-02  9.6666666664999990e-01  0.0000000000000000e+00
-3.3333333335000000e-02  9.9999999999999978e-01  0.0000000000000000e+00
0.0000000000000000e+00  1.0000000000000000e+00  0.0000000000000000e+00
3.3333333335000007e-02  1.0000000000000000e+00  0.0000000000000000e+00
5.0000000000000003e-02  3.3333333335000000e-02  0.0000000000000000e+00
5.0000000000000003e-02  9.9999999985000004e-02  0.0000000000000000e+00
5.0000000000000003e-02  1.6666666664999999e-01  0.0000000000000000e+00
5.0000000000000003e-02  2.3333333334999998e-01  0.0000000000000000e+00
5.0000000000000003e-02  2.9999999999999993e-01  0.0000000000000000e+00
5.0000000000000003e-02  3.6666666665000003e-01  0.0000000000000000e+00
5.0000000000000003e-02  4.3333333334999991e-01  0.0000000000000000e+00
5.0000000000000003e-02  5.0000000000000000e-01  0.0000000000000000e+00
5.0000000000000003e-02  5.6666666664999987e-01  0.0000000000000000e+00
5.0000000000000003e-02  6.3333333334999997e-01  0.0000000000000000e+00
5.0000000000000003e-02  6.9999999999999984e-01  0.0000000000000000e+00
5.0000000000000003e-02  7.6666666664999994e-01  0.0000000000000000e+00
5.0000000000000003e-02  8.3333333334999993e-01  0.0000000000000000e+00
5.0000000000000010e-02  8.9999999999999991e-01  0.0000000000000000e+00
5.0000000000000003e-02  9.6666666664999990e-01  0.0000000000000000e+00

CELLS 0 0


CELL_TYPES 0


POINT_DATA 33

VECTORS VertexNormals float

0.0000000000000000e+00 0.0000000000000000e+00 0
0.0000000000000000e+00 0.0000000000000000e+00 0
0.0000000000000000e+00 0.0000000000000000e+00 0
0.0000000000000000e+00 0.0000000000000000e+00 0
0.0000000000000000e+00 0.0000000000000000e+00 0
0.0000000000000000e+00 0.0000000000000000e+00 0
0.0000000000000000e+00 0.0000000000000000e+00 0
0.0000000000000000e+00 0.0000000000000000e+00 0
0.0000000000000000e+00 0.0000000000000000e+00 0
0.0000000000000000e+00 0.0000000000000000e+00 0
0.0000000000000000e+00 0.0000000000000000e+00 0
0.0000000000000000e+00 0.0000000000000000e+00 0
0.0000000000000000e+00 0.0000000000000000e+00 0
0.0000000000000000e+00 0.0000000000000000e+00 0
0.0000000000000000e+00 0.0000000000000000e+00 0
0.0000000000000000e+00 0.0000000000000000e+00 0
0.0000000000000000e+00 0.0000000000000000e+00 0
0.0000000000000000e+00 0.0000000000000000e+00 0
0.0000000000000000e+00 0.0000000000000000e+00 0
0.0000000000000000e+00 0.0000000000000000e+00 0
0.0000000000000000e+00 0.0000000000000000e+00 0
0.0000000000000000e+00 0.0000000000000000e+00 0
0.0000000000000000e+00 0.0000000000000000e+00 0
0.0000000000000000e+00 0.0000000000000000e+00 0
0.0000000000000000e+00 0.0000000000000000e+00 0
0.0000000000000000e+00 0.0000000000000000e+00 0
0.0000000000000000e+00 0.0000000000000000e+00 0
0.0000000000000000e+00 0.0000000000000000e+00 0
0.0000000000000000e+00 0.0000000000000000e+00 0
0.0000000000000000e+00 0.0000000000000000e+00 0
0.0000000000000000e+00 0.0000000000000000e+00 0
0.0000000000000000e+00 0.0000000000000000e+00 0
0.0000000000000000e+00 0.0000000000000000e+00 0

VECTORS Stress float
1.4384404024609427e+02 -4.6258927675168682e+00 0
1.4377242560514699e+02 -1.0777485046947678e+01 0
1.4335078273822842e+02 -1.6843546376198468e+01 0
1.4203661451286166e+02 -2.2149997215742115e+01 0
1.3973166633571446e+02 -2.5905696363735824e+01 0
1.3616873111851726e+02 -2.9222610387400984e+01 0
1.3131574650029384e+02 -3.2075343220480924e+01 0
1.2539516280517137e+02 -3.4427812124253428e+01 0
1.1924536332546546e+02 -3.5014581492111283e+01 0
1.1276914435496684e+02 -3.4559763461002781e+01 0
1.0637235220336548e+02 -3.1812454697980133e+01 0
9.8057969454937933e+01 -2.9139754310353840e+01 0
8.7005744152352250e+01 -2.6175697210279267e+01 0
7.2945903394764343e+01 -2.1646624802122226e+01 0
5.2239182803310335e+01 -1.5026422034057919e+01 0
1.8654247228691435e+01 6.2823227936390673e+01 0
1.2547953842051536e+01 4.2747086688377358e+01 0
7.7407495391602499e+00 2.6632838919508156e+01 0
-1.4612907979200767e+01 5.1977249033922412e-01 0
-1.4771120171867832e+01 1.2074179195620258e+00 0
-1.4621082892933583e+01 1.8721634486376251e+00 0
-1.4015120036377470e+01 2.3464279471351972e+00 0
-1.2885356840133323e+01 2.6030134038040158e+00 0
-1.1247075915846020e+01 2.6166817274940755e+00 0
-9.2290100897641523e+00 2.4962383672884112e+00 0
-6.7372874480117346e+00 2.0464222513296870e+00 0
-3.7444221028848701e+00 1.2978840407243459e+00 0
-2.4127966227504952e-01 2.5440303137408338e-01 0
3.3691986360948318e+00 -8.1700840017029885e-01 0
6.4442664185980441e+00 -1.7253412481219004e+00 0
8.8764111974058171e+00 -2.4805310165018373e+00 0
1.0910987676608471e+01 -3.0332383742982150e+00 0
1.2316377772665071e+01 -3.4011754285758857e+00 0

