# vtk DataFile Version 2.0

ASCII

DATASET UNSTRUCTURED_GRID

POINTS 79 float 

-5.0000000000000003e-02  0.0000000000000000e+00  0.0000000000000000e+00
-5.0000000000000003e-02  5.5555555555555552e-02  0.0000000000000000e+00
-5.0000000000000003e-02  2.7777777777777776e-02  0.0000000000000000e+00
5.0000000000000003e-02  0.0000000000000000e+00  0.0000000000000000e+00
5.0000000000000003e-02  5.5555555555555552e-02  0.0000000000000000e+00
5.0000000000000003e-02  2.7777777777777776e-02  0.0000000000000000e+00
-5.0000000000000003e-02  1.1111111111111110e-01  0.0000000000000000e+00
-5.0000000000000003e-02  8.3333333333333329e-02  0.0000000000000000e+00
5.0000000000000003e-02  1.1111111111111110e-01  0.0000000000000000e+00
5.0000000000000003e-02  8.3333333333333329e-02  0.0000000000000000e+00
-5.0000000000000003e-02  1.6666666666666666e-01  0.0000000000000000e+00
-5.0000000000000003e-02  1.3888888888888890e-01  0.0000000000000000e+00
5.0000000000000003e-02  1.6666666666666666e-01  0.0000000000000000e+00
5.0000000000000003e-02  1.3888888888888890e-01  0.0000000000000000e+00
-5.0000000000000003e-02  2.2222222222222221e-01  0.0000000000000000e+00
-5.0000000000000003e-02  1.9444444444444442e-01  0.0000000000000000e+00
5.0000000000000003e-02  2.2222222222222221e-01  0.0000000000000000e+00
5.0000000000000003e-02  1.9444444444444442e-01  0.0000000000000000e+00
-5.0000000000000003e-02  2.7777777777777779e-01  0.0000000000000000e+00
-5.0000000000000003e-02  2.5000000000000000e-01  0.0000000000000000e+00
5.0000000000000003e-02  2.7777777777777779e-01  0.0000000000000000e+00
5.0000000000000003e-02  2.5000000000000000e-01  0.0000000000000000e+00
-5.0000000000000003e-02  3.3333333333333331e-01  0.0000000000000000e+00
-5.0000000000000003e-02  3.0555555555555558e-01  0.0000000000000000e+00
5.0000000000000003e-02  3.3333333333333331e-01  0.0000000000000000e+00
5.0000000000000003e-02  3.0555555555555558e-01  0.0000000000000000e+00
-5.0000000000000003e-02  3.8888888888888884e-01  0.0000000000000000e+00
-5.0000000000000003e-02  3.6111111111111105e-01  0.0000000000000000e+00
5.0000000000000003e-02  3.8888888888888884e-01  0.0000000000000000e+00
5.0000000000000003e-02  3.6111111111111105e-01  0.0000000000000000e+00
-5.0000000000000003e-02  4.4444444444444442e-01  0.0000000000000000e+00
-5.0000000000000003e-02  4.1666666666666663e-01  0.0000000000000000e+00
5.0000000000000003e-02  4.4444444444444442e-01  0.0000000000000000e+00
5.0000000000000003e-02  4.1666666666666663e-01  0.0000000000000000e+00
-5.0000000000000003e-02  5.0000000000000000e-01  0.0000000000000000e+00
-5.0000000000000003e-02  4.7222222222222221e-01  0.0000000000000000e+00
5.0000000000000003e-02  5.0000000000000000e-01  0.0000000000000000e+00
5.0000000000000003e-02  4.7222222222222221e-01  0.0000000000000000e+00
-5.0000000000000003e-02  5.5555555555555558e-01  0.0000000000000000e+00
-5.0000000000000003e-02  5.2777777777777779e-01  0.0000000000000000e+00
5.0000000000000003e-02  5.5555555555555558e-01  0.0000000000000000e+00
5.0000000000000003e-02  5.2777777777777779e-01  0.0000000000000000e+00
-5.0000000000000003e-02  6.1111111111111105e-01  0.0000000000000000e+00
-5.0000000000000003e-02  5.8333333333333326e-01  0.0000000000000000e+00
5.0000000000000003e-02  6.1111111111111105e-01  0.0000000000000000e+00
5.0000000000000003e-02  5.8333333333333326e-01  0.0000000000000000e+00
-5.0000000000000003e-02  6.6666666666666663e-01  0.0000000000000000e+00
-5.0000000000000003e-02  6.3888888888888884e-01  0.0000000000000000e+00
5.0000000000000003e-02  6.6666666666666663e-01  0.0000000000000000e+00
5.0000000000000003e-02  6.3888888888888884e-01  0.0000000000000000e+00
-5.0000000000000003e-02  7.2222222222222221e-01  0.0000000000000000e+00
-5.0000000000000003e-02  6.9444444444444442e-01  0.0000000000000000e+00
5.0000000000000003e-02  7.2222222222222221e-01  0.0000000000000000e+00
5.0000000000000003e-02  6.9444444444444442e-01  0.0000000000000000e+00
-5.0000000000000003e-02  7.7777777777777768e-01  0.0000000000000000e+00
-5.0000000000000003e-02  7.5000000000000000e-01  0.0000000000000000e+00
5.0000000000000003e-02  7.7777777777777768e-01  0.0000000000000000e+00
5.0000000000000003e-02  7.5000000000000000e-01  0.0000000000000000e+00
-5.0000000000000003e-02  8.3333333333333326e-01  0.0000000000000000e+00
-5.0000000000000003e-02  8.0555555555555547e-01  0.0000000000000000e+00
5.0000000000000003e-02  8.3333333333333326e-01  0.0000000000000000e+00
5.0000000000000003e-02  8.0555555555555547e-01  0.0000000000000000e+00
-5.0000000000000003e-02  8.8888888888888884e-01  0.0000000000000000e+00
-5.0000000000000003e-02  8.6111111111111105e-01  0.0000000000000000e+00
5.0000000000000003e-02  8.8888888888888884e-01  0.0000000000000000e+00
5.0000000000000003e-02  8.6111111111111105e-01  0.0000000000000000e+00
-5.0000000000000003e-02  9.4444444444444442e-01  0.0000000000000000e+00
-5.0000000000000003e-02  9.1666666666666663e-01  0.0000000000000000e+00
5.0000000000000003e-02  9.4444444444444442e-01  0.0000000000000000e+00
5.0000000000000003e-02  9.1666666666666663e-01  0.0000000000000000e+00
-5.0000000000000003e-02  1.0000000000000000e+00  0.0000000000000000e+00
-1.6666666666666670e-02  1.0000000000000000e+00  0.0000000000000000e+00
-5.0000000000000003e-02  9.7222222222222221e-01  0.0000000000000000e+00
-3.3333333333333340e-02  1.0000000000000000e+00  0.0000000000000000e+00
1.6666666666666663e-02  1.0000000000000000e+00  0.0000000000000000e+00
-3.4694469519536142e-18  1.0000000000000000e+00  0.0000000000000000e+00
5.0000000000000003e-02  1.0000000000000000e+00  0.0000000000000000e+00
5.0000000000000003e-02  9.7222222222222221e-01  0.0000000000000000e+00
3.3333333333333333e-02  1.0000000000000000e+00  0.0000000000000000e+00

CELLS 0 0


CELL_TYPES 0


POINT_DATA 79

VECTORS VertexNormals float

0.0000000000000000e+00 0.0000000000000000e+00 0
0.0000000000000000e+00 0.0000000000000000e+00 0
0.0000000000000000e+00 0.0000000000000000e+00 0
0.0000000000000000e+00 0.0000000000000000e+00 0
0.0000000000000000e+00 0.0000000000000000e+00 0
0.0000000000000000e+00 0.0000000000000000e+00 0
0.0000000000000000e+00 0.0000000000000000e+00 0
0.0000000000000000e+00 0.0000000000000000e+00 0
0.0000000000000000e+00 0.0000000000000000e+00 0
0.0000000000000000e+00 0.0000000000000000e+00 0
0.0000000000000000e+00 0.0000000000000000e+00 0
0.0000000000000000e+00 0.0000000000000000e+00 0
0.0000000000000000e+00 0.0000000000000000e+00 0
0.0000000000000000e+00 0.0000000000000000e+00 0
0.0000000000000000e+00 0.0000000000000000e+00 0
0.0000000000000000e+00 0.0000000000000000e+00 0
0.0000000000000000e+00 0.0000000000000000e+00 0
0.0000000000000000e+00 0.0000000000000000e+00 0
0.0000000000000000e+00 0.0000000000000000e+00 0
0.0000000000000000e+00 0.0000000000000000e+00 0
0.0000000000000000e+00 0.0000000000000000e+00 0
0.0000000000000000e+00 0.0000000000000000e+00 0
0.0000000000000000e+00 0.0000000000000000e+00 0
0.0000000000000000e+00 0.0000000000000000e+00 0
0.0000000000000000e+00 0.0000000000000000e+00 0
0.0000000000000000e+00 0.0000000000000000e+00 0
0.0000000000000000e+00 0.0000000000000000e+00 0
0.0000000000000000e+00 0.0000000000000000e+00 0
0.0000000000000000e+00 0.0000000000000000e+00 0
0.0000000000000000e+00 0.0000000000000000e+00 0
0.0000000000000000e+00 0.0000000000000000e+00 0
0.0000000000000000e+00 0.0000000000000000e+00 0
0.0000000000000000e+00 0.0000000000000000e+00 0
0.0000000000000000e+00 0.0000000000000000e+00 0
0.0000000000000000e+00 0.0000000000000000e+00 0
0.0000000000000000e+00 0.0000000000000000e+00 0
0.0000000000000000e+00 0.0000000000000000e+00 0
0.0000000000000000e+00 0.0000000000000000e+00 0
0.0000000000000000e+00 0.0000000000000000e+00 0
0.0000000000000000e+00 0.0000000000000000e+00 0
0.0000000000000000e+00 0.0000000000000000e+00 0
0.0000000000000000e+00 0.0000000000000000e+00 0
0.0000000000000000e+00 0.0000000000000000e+00 0
0.0000000000000000e+00 0.0000000000000000e+00 0
0.0000000000000000e+00 0.0000000000000000e+00 0
0.0000000000000000e+00 0.0000000000000000e+00 0
0.0000000000000000e+00 0.0000000000000000e+00 0
0.0000000000000000e+00 0.0000000000000000e+00 0
0.0000000000000000e+00 0.0000000000000000e+00 0
0.0000000000000000e+00 0.0000000000000000e+00 0
0.0000000000000000e+00 0.0000000000000000e+00 0
0.0000000000000000e+00 0.0000000000000000e+00 0
0.0000000000000000e+00 0.0000000000000000e+00 0
0.0000000000000000e+00 0.0000000000000000e+00 0
0.0000000000000000e+00 0.0000000000000000e+00 0
0.0000000000000000e+00 0.0000000000000000e+00 0
0.0000000000000000e+00 0.0000000000000000e+00 0
0.0000000000000000e+00 0.0000000000000000e+00 0
0.0000000000000000e+00 0.0000000000000000e+00 0
0.0000000000000000e+00 0.0000000000000000e+00 0
0.0000000000000000e+00 0.0000000000000000e+00 0
0.0000000000000000e+00 0.0000000000000000e+00 0
0.0000000000000000e+00 0.0000000000000000e+00 0
0.0000000000000000e+00 0.0000000000000000e+00 0
0.0000000000000000e+00 0.0000000000000000e+00 0
0.0000000000000000e+00 0.0000000000000000e+00 0
0.0000000000000000e+00 0.0000000000000000e+00 0
0.0000000000000000e+00 0.0000000000000000e+00 0
0.0000000000000000e+00 0.0000000000000000e+00 0
0.0000000000000000e+00 0.0000000000000000e+00 0
0.0000000000000000e+00 0.0000000000000000e+00 0
0.0000000000000000e+00 0.0000000000000000e+00 0
0.0000000000000000e+00 0.0000000000000000e+00 0
0.0000000000000000e+00 0.0000000000000000e+00 0
0.0000000000000000e+00 0.0000000000000000e+00 0
0.0000000000000000e+00 0.0000000000000000e+00 0
0.0000000000000000e+00 0.0000000000000000e+00 0
0.0000000000000000e+00 0.0000000000000000e+00 0
0.0000000000000000e+00 0.0000000000000000e+00 0

VECTORS Displacement float
0.0000000000000000e+00 0.0000000000000000e+00 0
2.5788248521165539e-03 2.8337637135107657e-03 0
1.1429200301307206e-03 1.5297578154570026e-03 0
0.0000000000000000e+00 0.0000000000000000e+00 0
2.5184160425810328e-03 -2.7293818644716023e-03 0
1.0473355039171245e-03 -1.4617572254431647e-03 0
7.3250981930672180e-03 5.0274169179066290e-03 0
4.6853464831991265e-03 4.0055527886896586e-03 0
7.3242086876748307e-03 -4.7196323121242861e-03 0
4.6858494377689658e-03 -3.8084347828994751e-03 0
1.4052767260378463e-02 6.6096308225425081e-03 0
1.0494437460002750e-02 5.8770395060387566e-03 0
1.4048699117240524e-02 -6.1325067353755966e-03 0
1.0456154826119834e-02 -5.4832206296133333e-03 0
2.2084869055044996e-02 7.7427446597947980e-03 0
1.7902174708847002e-02 7.2333124630986831e-03 0
2.2121733001690503e-02 -7.0236130316778094e-03 0
1.7953536602587014e-02 -6.6370239609573629e-03 0
3.0969464271856768e-02 8.2900589927076673e-03 0
2.6492691451813207e-02 8.0842870131610269e-03 0
3.0950959829713635e-02 -7.4814238858461769e-03 0
2.6470619213398709e-02 -7.3012337251420981e-03 0
4.0046716361350085e-02 8.4040357241934715e-03 0
3.5501900809951900e-02 8.3897856623161432e-03 0
4.0118406708366042e-02 -7.4764592279500715e-03 0
3.5550651786607587e-02 -7.5314969970688497e-03 0
4.8951281426863669e-02 8.1327740822122133e-03 0
4.4565578884951329e-02 8.3121770691159547e-03 0
4.8953231734234035e-02 -7.1259919385394405e-03 0
4.4585759742028296e-02 -7.3357431638822919e-03 0
5.7115895639746055e-02 7.7424385260594069e-03 0
5.3118540875828735e-02 7.9248333590740336e-03 0
5.7222754500517295e-02 -6.5489876357694033e-03 0
5.3198592557131760e-02 -6.8452334519556405e-03 0
6.4779919125042634e-02 7.4827036491798594e-03 0
6.0989657532293906e-02 7.5964811341300703e-03 0
6.4770084274804837e-02 -6.2639048101299187e-03 0
6.1018021765161752e-02 -6.3506031112508816e-03 0
7.2307215606277758e-02 7.3315076953459658e-03 0
6.8551995135358479e-02 7.4016966670653935e-03 0
7.2361001879032938e-02 -6.1275927668651455e-03 0
6.8572310462328562e-02 -6.2083697174048985e-03 0
7.9695423069336635e-02 7.1584486686022937e-03 0
7.6024887860574319e-02 7.2558100625252156e-03 0
7.9830733054681635e-02 -5.8532075908387052e-03 0
7.6126249989945938e-02 -6.0131853268673378e-03 0
8.6838617671694374e-02 6.8854096761953257e-03 0
8.3304324592929913e-02 7.0325531328128445e-03 0
8.6833583681463475e-02 -5.5173966012612924e-03 0
8.3378918788561934e-02 -5.6719076976011933e-03 0
9.3573126471747481e-02 6.5376583118029940e-03 0
9.0263595407036115e-02 6.7128277296922036e-03 0
9.3660472745490636e-02 -5.1983277994901373e-03 0
9.0287410876033314e-02 -5.3687109466058064e-03 0
9.9994442432847011e-02 6.2447173164572826e-03 0
9.6813908268681970e-02 6.3893988947221307e-03 0
1.0001196633837098e-01 -4.8625354596938493e-03 0
9.6887976784632276e-02 -5.0214427775336287e-03 0
1.0593779780552752e-01 6.0193610663164688e-03 0
1.0303676164980381e-01 6.0975944707770445e-03 0
1.0603983487312515e-01 -4.6307181704571890e-03 0
1.0306244447557900e-01 -4.7318701363953906e-03 0
1.1183904566030317e-01 6.0058825322982894e-03 0
1.0886430076516676e-01 6.0194692728941755e-03 0
1.1189485731116947e-01 -4.5241179091442523e-03 0
1.0897737619907245e-01 -4.5686614156123578e-03 0
1.1763367783521904e-01 5.8946796721544639e-03 0
1.1476863850489613e-01 5.9424974827702350e-03 0
1.1766703460691608e-01 -4.4851938480068394e-03 0
1.1478794360101915e-01 -4.4979830968692267e-03 0
1.2338971483112518e-01 5.9362336949234538e-03 0
1.2340336670968241e-01 2.3984637237295155e-03 0
1.2048450236843594e-01 5.9112776533281836e-03 0
1.2339408182819744e-01 4.1697257986424638e-03 0
1.2337028245232640e-01 -1.0715281807945757e-03 0
1.2339570212798859e-01 6.4774337308364600e-04 0
1.2333198695927478e-01 -4.4429692639882000e-03 0
1.2051832329666647e-01 -4.4618254545541114e-03 0
1.2334384970494261e-01 -2.7657204919839559e-03 0

VECTORS Stress float
1.2883035894075647e+02 -3.2294220443964505e+01 0
1.1609141911302376e+02 -2.4767952907426465e+00 0
1.1919675674680080e+02 -8.4111651354798358e+00 0
5.5304632552552405e+01 -2.8343783915588752e+01 0
4.1089538367320266e+01 1.7827635840736034e+00 0
4.4550627171002326e+01 -5.0373094355274208e+00 0
1.1816930482887643e+02 -1.2499474213107824e+01 0
1.1698162380205902e+02 -7.1473704465772361e+00 0
4.3112722551786540e+01 -5.2082757243908704e+00 0
4.1907256204180356e+01 -1.3101514438003021e+00 0
1.1758601019749776e+02 -1.5276168515019400e+01 0
1.1798444686781694e+02 -1.4277763350771160e+01 0
4.2827705692061841e+01 -5.8546496847972991e+00 0
4.3075467420765825e+01 -5.8547475969887222e+00 0
1.1688083265634197e+02 -1.7639771006822720e+01 0
1.1718128420889548e+02 -1.6456394979084337e+01 0
4.3264121279286229e+01 -6.6056273579744396e+00 0
4.2974514820726704e+01 -6.1699588735252977e+00 0
1.1590142356819773e+02 -1.8635396899469434e+01 0
1.1644413713547068e+02 -1.8357602244187927e+01 0
4.4245729347442044e+01 -7.1835362509933542e+00 0
4.3705130941479140e+01 -6.9615706818294107e+00 0
1.1454407078856570e+02 -1.8533108778028407e+01 0
1.1531756150010980e+02 -1.8700432541893299e+01 0
4.5777756434491678e+01 -7.3453822160199760e+00 0
4.4890761079661061e+01 -7.3056013061451583e+00 0
1.1293452381354722e+02 -1.7426375652696269e+01 0
1.1379467620628439e+02 -1.8173274465237625e+01 0
4.7923680128102561e+01 -7.1848374176933412e+00 0
4.6735856867918258e+01 -7.2907866896537001e+00 0
1.1100237464660975e+02 -1.5722772965589922e+01 0
1.1203415636240995e+02 -1.6514949444452249e+01 0
5.0502806402341150e+01 -6.9713756077263049e+00 0
4.9187507289596226e+01 -7.0552735939434363e+00 0
1.0839769432151203e+02 -1.4679585038122028e+01 0
1.0975864798041817e+02 -1.5141826016255958e+01 0
5.3159173612845109e+01 -7.0563531642982014e+00 0
5.1868281385588702e+01 -6.9777218029278174e+00 0
1.0503938110445087e+02 -1.3993521953778430e+01 0
1.0678942003175700e+02 -1.4334335140449280e+01 0
5.5666171988675245e+01 -7.3722394909805153e+00 0
5.4454835667048449e+01 -7.2238023006167644e+00 0
1.0097509333254902e+02 -1.3122437869866356e+01 0
1.0310187184540891e+02 -1.3602140890367632e+01 0
5.8072398930718933e+01 -7.3398297637506396e+00 0
5.6885532098619471e+01 -7.4125643197920930e+00 0
9.6150393079636416e+01 -1.1915358070820577e+01 0
9.8673288918712984e+01 -1.2551610059444364e+01 0
6.0101071630481989e+01 -7.2874993915185335e+00 0
5.9140535572256979e+01 -7.2621774560086436e+00 0
9.0300144785533405e+01 -1.0499450794502849e+01 0
9.3379740822017368e+01 -1.1187134862974560e+01 0
6.1670560870289250e+01 -7.0999814083077268e+00 0
6.0914798306267315e+01 -7.2398600851960069e+00 0
8.3053250159164151e+01 -9.2663966136872205e+00 0
8.6866050006322098e+01 -9.7915103118911020e+00 0
6.2881867900303277e+01 -6.8842533252866929e+00 0
6.2306097121373320e+01 -6.8864301246974335e+00 0
7.3685419825413874e+01 -7.4844412476499613e+00 0
7.8746729329369600e+01 -8.8097754653555000e+00 0
6.3265014134039042e+01 -6.5312112028164719e+00 0
6.3337745077308746e+01 -7.0349822786256127e+00 0
6.0517994137575364e+01 -3.6460081195761092e+00 0
6.7629235032858901e+01 -4.5132528015922517e+00 0
6.2097299856887027e+01 -4.6502250322542267e+00 0
6.2356709697802245e+01 -4.7915810463244242e+00 0
4.1377516748229539e+01 -2.3314233962622232e+01 0
5.2282472817369957e+01 -1.4931524954438224e+01 0
7.0671649052210554e+01 -1.9759154054830432e+01 0
6.6859713669318609e+01 -1.3411492327495182e+01 0
9.9358477698010219e+00 1.0734406875003071e+02 0
1.1578860468841100e+01 1.0568699730558903e+02 0
2.7231923106509214e+01 1.1604900584335937e+01 0
1.2209049789100781e+01 1.1339846520129187e+02 0
7.8346653282983851e+00 8.3100816822507710e+01 0
9.8017816865187939e+00 9.3783915829024181e+01 0
1.2256840178742443e+01 6.8295625217115287e+01 0
5.5466843550446043e+01 2.8032136496259241e+00 0
7.4077938334843978e+00 7.4357012936256922e+01 0

