# vtk DataFile Version 2.0

ASCII

DATASET UNSTRUCTURED_GRID

POINTS 79 float 

-5.0000000000000003e-02  0.0000000000000000e+00  0.0000000000000000e+00
-5.0000000000000003e-02  5.5555555555555552e-02  0.0000000000000000e+00
-5.0000000000000003e-02  2.7777777777777776e-02  0.0000000000000000e+00
5.0000000000000003e-02  0.0000000000000000e+00  0.0000000000000000e+00
5.0000000000000003e-02  5.5555555555555552e-02  0.0000000000000000e+00
5.0000000000000003e-02  2.7777777777777776e-02  0.0000000000000000e+00
-5.0000000000000003e-02  1.1111111111111110e-01  0.0000000000000000e+00
-5.0000000000000003e-02  8.3333333333333329e-02  0.0000000000000000e+00
5.0000000000000003e-02  1.1111111111111110e-01  0.0000000000000000e+00
5.0000000000000003e-02  8.3333333333333329e-02  0.0000000000000000e+00
-5.0000000000000003e-02  1.6666666666666666e-01  0.0000000000000000e+00
-5.0000000000000003e-02  1.3888888888888890e-01  0.0000000000000000e+00
5.0000000000000003e-02  1.6666666666666666e-01  0.0000000000000000e+00
5.0000000000000003e-02  1.3888888888888890e-01  0.0000000000000000e+00
-5.0000000000000003e-02  2.2222222222222221e-01  0.0000000000000000e+00
-5.0000000000000003e-02  1.9444444444444442e-01  0.0000000000000000e+00
5.0000000000000003e-02  2.2222222222222221e-01  0.0000000000000000e+00
5.0000000000000003e-02  1.9444444444444442e-01  0.0000000000000000e+00
-5.0000000000000003e-02  2.7777777777777779e-01  0.0000000000000000e+00
-5.0000000000000003e-02  2.5000000000000000e-01  0.0000000000000000e+00
5.0000000000000003e-02  2.7777777777777779e-01  0.0000000000000000e+00
5.0000000000000003e-02  2.5000000000000000e-01  0.0000000000000000e+00
-5.0000000000000003e-02  3.3333333333333331e-01  0.0000000000000000e+00
-5.0000000000000003e-02  3.0555555555555558e-01  0.0000000000000000e+00
5.0000000000000003e-02  3.3333333333333331e-01  0.0000000000000000e+00
5.0000000000000003e-02  3.0555555555555558e-01  0.0000000000000000e+00
-5.0000000000000003e-02  3.8888888888888884e-01  0.0000000000000000e+00
-5.0000000000000003e-02  3.6111111111111105e-01  0.0000000000000000e+00
5.0000000000000003e-02  3.8888888888888884e-01  0.0000000000000000e+00
5.0000000000000003e-02  3.6111111111111105e-01  0.0000000000000000e+00
-5.0000000000000003e-02  4.4444444444444442e-01  0.0000000000000000e+00
-5.0000000000000003e-02  4.1666666666666663e-01  0.0000000000000000e+00
5.0000000000000003e-02  4.4444444444444442e-01  0.0000000000000000e+00
5.0000000000000003e-02  4.1666666666666663e-01  0.0000000000000000e+00
-5.0000000000000003e-02  5.0000000000000000e-01  0.0000000000000000e+00
-5.0000000000000003e-02  4.7222222222222221e-01  0.0000000000000000e+00
5.0000000000000003e-02  5.0000000000000000e-01  0.0000000000000000e+00
5.0000000000000003e-02  4.7222222222222221e-01  0.0000000000000000e+00
-5.0000000000000003e-02  5.5555555555555558e-01  0.0000000000000000e+00
-5.0000000000000003e-02  5.2777777777777779e-01  0.0000000000000000e+00
5.0000000000000003e-02  5.5555555555555558e-01  0.0000000000000000e+00
5.0000000000000003e-02  5.2777777777777779e-01  0.0000000000000000e+00
-5.0000000000000003e-02  6.1111111111111105e-01  0.0000000000000000e+00
-5.0000000000000003e-02  5.8333333333333326e-01  0.0000000000000000e+00
5.0000000000000003e-02  6.1111111111111105e-01  0.0000000000000000e+00
5.0000000000000003e-02  5.8333333333333326e-01  0.0000000000000000e+00
-5.0000000000000003e-02  6.6666666666666663e-01  0.0000000000000000e+00
-5.0000000000000003e-02  6.3888888888888884e-01  0.0000000000000000e+00
5.0000000000000003e-02  6.6666666666666663e-01  0.0000000000000000e+00
5.0000000000000003e-02  6.3888888888888884e-01  0.0000000000000000e+00
-5.0000000000000003e-02  7.2222222222222221e-01  0.0000000000000000e+00
-5.0000000000000003e-02  6.9444444444444442e-01  0.0000000000000000e+00
5.0000000000000003e-02  7.2222222222222221e-01  0.0000000000000000e+00
5.0000000000000003e-02  6.9444444444444442e-01  0.0000000000000000e+00
-5.0000000000000003e-02  7.7777777777777768e-01  0.0000000000000000e+00
-5.0000000000000003e-02  7.5000000000000000e-01  0.0000000000000000e+00
5.0000000000000003e-02  7.7777777777777768e-01  0.0000000000000000e+00
5.0000000000000003e-02  7.5000000000000000e-01  0.0000000000000000e+00
-5.0000000000000003e-02  8.3333333333333326e-01  0.0000000000000000e+00
-5.0000000000000003e-02  8.0555555555555547e-01  0.0000000000000000e+00
5.0000000000000003e-02  8.3333333333333326e-01  0.0000000000000000e+00
5.0000000000000003e-02  8.0555555555555547e-01  0.0000000000000000e+00
-5.0000000000000003e-02  8.8888888888888884e-01  0.0000000000000000e+00
-5.0000000000000003e-02  8.6111111111111105e-01  0.0000000000000000e+00
5.0000000000000003e-02  8.8888888888888884e-01  0.0000000000000000e+00
5.0000000000000003e-02  8.6111111111111105e-01  0.0000000000000000e+00
-5.0000000000000003e-02  9.4444444444444442e-01  0.0000000000000000e+00
-5.0000000000000003e-02  9.1666666666666663e-01  0.0000000000000000e+00
5.0000000000000003e-02  9.4444444444444442e-01  0.0000000000000000e+00
5.0000000000000003e-02  9.1666666666666663e-01  0.0000000000000000e+00
-5.0000000000000003e-02  1.0000000000000000e+00  0.0000000000000000e+00
-1.6666666666666670e-02  1.0000000000000000e+00  0.0000000000000000e+00
-5.0000000000000003e-02  9.7222222222222221e-01  0.0000000000000000e+00
-3.3333333333333340e-02  1.0000000000000000e+00  0.0000000000000000e+00
1.6666666666666663e-02  1.0000000000000000e+00  0.0000000000000000e+00
-3.4694469519536142e-18  1.0000000000000000e+00  0.0000000000000000e+00
5.0000000000000003e-02  1.0000000000000000e+00  0.0000000000000000e+00
5.0000000000000003e-02  9.7222222222222221e-01  0.0000000000000000e+00
3.3333333333333333e-02  1.0000000000000000e+00  0.0000000000000000e+00

CELLS 0 0


CELL_TYPES 0


POINT_DATA 79

VECTORS VertexNormals float

0.0000000000000000e+00 0.0000000000000000e+00 0
0.0000000000000000e+00 0.0000000000000000e+00 0
0.0000000000000000e+00 0.0000000000000000e+00 0
0.0000000000000000e+00 0.0000000000000000e+00 0
0.0000000000000000e+00 0.0000000000000000e+00 0
0.0000000000000000e+00 0.0000000000000000e+00 0
0.0000000000000000e+00 0.0000000000000000e+00 0
0.0000000000000000e+00 0.0000000000000000e+00 0
0.0000000000000000e+00 0.0000000000000000e+00 0
0.0000000000000000e+00 0.0000000000000000e+00 0
0.0000000000000000e+00 0.0000000000000000e+00 0
0.0000000000000000e+00 0.0000000000000000e+00 0
0.0000000000000000e+00 0.0000000000000000e+00 0
0.0000000000000000e+00 0.0000000000000000e+00 0
0.0000000000000000e+00 0.0000000000000000e+00 0
0.0000000000000000e+00 0.0000000000000000e+00 0
0.0000000000000000e+00 0.0000000000000000e+00 0
0.0000000000000000e+00 0.0000000000000000e+00 0
0.0000000000000000e+00 0.0000000000000000e+00 0
0.0000000000000000e+00 0.0000000000000000e+00 0
0.0000000000000000e+00 0.0000000000000000e+00 0
0.0000000000000000e+00 0.0000000000000000e+00 0
0.0000000000000000e+00 0.0000000000000000e+00 0
0.0000000000000000e+00 0.0000000000000000e+00 0
0.0000000000000000e+00 0.0000000000000000e+00 0
0.0000000000000000e+00 0.0000000000000000e+00 0
0.0000000000000000e+00 0.0000000000000000e+00 0
0.0000000000000000e+00 0.0000000000000000e+00 0
0.0000000000000000e+00 0.0000000000000000e+00 0
0.0000000000000000e+00 0.0000000000000000e+00 0
0.0000000000000000e+00 0.0000000000000000e+00 0
0.0000000000000000e+00 0.0000000000000000e+00 0
0.0000000000000000e+00 0.0000000000000000e+00 0
0.0000000000000000e+00 0.0000000000000000e+00 0
0.0000000000000000e+00 0.0000000000000000e+00 0
0.0000000000000000e+00 0.0000000000000000e+00 0
0.0000000000000000e+00 0.0000000000000000e+00 0
0.0000000000000000e+00 0.0000000000000000e+00 0
0.0000000000000000e+00 0.0000000000000000e+00 0
0.0000000000000000e+00 0.0000000000000000e+00 0
0.0000000000000000e+00 0.0000000000000000e+00 0
0.0000000000000000e+00 0.0000000000000000e+00 0
0.0000000000000000e+00 0.0000000000000000e+00 0
0.0000000000000000e+00 0.0000000000000000e+00 0
0.0000000000000000e+00 0.0000000000000000e+00 0
0.0000000000000000e+00 0.0000000000000000e+00 0
0.0000000000000000e+00 0.0000000000000000e+00 0
0.0000000000000000e+00 0.0000000000000000e+00 0
0.0000000000000000e+00 0.0000000000000000e+00 0
0.0000000000000000e+00 0.0000000000000000e+00 0
0.0000000000000000e+00 0.0000000000000000e+00 0
0.0000000000000000e+00 0.0000000000000000e+00 0
0.0000000000000000e+00 0.0000000000000000e+00 0
0.0000000000000000e+00 0.0000000000000000e+00 0
0.0000000000000000e+00 0.0000000000000000e+00 0
0.0000000000000000e+00 0.0000000000000000e+00 0
0.0000000000000000e+00 0.0000000000000000e+00 0
0.0000000000000000e+00 0.0000000000000000e+00 0
0.0000000000000000e+00 0.0000000000000000e+00 0
0.0000000000000000e+00 0.0000000000000000e+00 0
0.0000000000000000e+00 0.0000000000000000e+00 0
0.0000000000000000e+00 0.0000000000000000e+00 0
0.0000000000000000e+00 0.0000000000000000e+00 0
0.0000000000000000e+00 0.0000000000000000e+00 0
0.0000000000000000e+00 0.0000000000000000e+00 0
0.0000000000000000e+00 0.0000000000000000e+00 0
0.0000000000000000e+00 0.0000000000000000e+00 0
0.0000000000000000e+00 0.0000000000000000e+00 0
0.0000000000000000e+00 0.0000000000000000e+00 0
0.0000000000000000e+00 0.0000000000000000e+00 0
0.0000000000000000e+00 0.0000000000000000e+00 0
0.0000000000000000e+00 0.0000000000000000e+00 0
0.0000000000000000e+00 0.0000000000000000e+00 0
0.0000000000000000e+00 0.0000000000000000e+00 0
0.0000000000000000e+00 0.0000000000000000e+00 0
0.0000000000000000e+00 0.0000000000000000e+00 0
0.0000000000000000e+00 0.0000000000000000e+00 0
0.0000000000000000e+00 0.0000000000000000e+00 0
0.0000000000000000e+00 0.0000000000000000e+00 0

VECTORS Displacement float
0.0000000000000000e+00 0.0000000000000000e+00 0
1.1098671784302567e-03 1.1739132178829642e-03 0
4.9216990486510037e-04 6.3582885663741569e-04 0
0.0000000000000000e+00 0.0000000000000000e+00 0
1.2043817407345939e-03 -1.1052649329326512e-03 0
5.2632721551242219e-04 -6.2963827025686839e-04 0
3.1141315556779425e-03 2.0156386653798191e-03 0
2.0091053185217148e-03 1.6443550849918891e-03 0
3.1106905949424071e-03 -1.7856056851999623e-03 0
2.0581187782252640e-03 -1.4794494459879084e-03 0
5.6705621628552558e-03 2.5095592886103888e-03 0
4.3427426453186407e-03 2.2898695595567516e-03 0
5.7581190721521687e-03 -2.0957375101494898e-03 0
4.3896813558832798e-03 -1.9873270456006731e-03 0
8.4910238869406601e-03 2.7873217399113906e-03 0
7.0541962307097425e-03 2.6689573963836768e-03 0
8.5241240315633883e-03 -2.1684828946601973e-03 0
7.1166580774628205e-03 -2.1470741922191743e-03 0
1.1424805348634900e-02 2.7862750076332390e-03 0
9.9861196745968661e-03 2.8276449337186825e-03 0
1.1438493394766956e-02 -1.9389462129734689e-03 0
1.0005765044404789e-02 -2.1018514849203080e-03 0
1.3972524491888400e-02 2.6405385787353192e-03 0
1.2737107899358845e-02 2.7122655574389177e-03 0
1.3997144046090978e-02 -1.5380599555079237e-03 0
1.2753550803674359e-02 -1.7365468271980174e-03 0
1.6277454343771161e-02 2.3528635992835500e-03 0
1.5171644489596917e-02 2.5354044314839647e-03 0
1.6329928409348139e-02 -1.0257477821060527e-03 0
1.5209851801121561e-02 -1.3142710683358406e-03 0
1.7839188963124808e-02 1.8047748792569080e-03 0
1.7183979234543997e-02 2.0841984197255909e-03 0
1.7914735347964159e-02 -3.0567208127624327e-04 0
1.7249220109304270e-02 -6.6497027504925786e-04 0
1.8659809932538445e-02 1.4034718680708083e-03 0
1.8302143762222160e-02 1.5822494062304663e-03 0
1.8742303163272758e-02 2.3410853810959726e-04 0
1.8383004118289942e-02 -1.1754175210858405e-05 0
1.9147334664685111e-02 1.0268555164326802e-03 0
1.8951217198886056e-02 1.2315224039172172e-03 0
1.9222390482652906e-02 7.4314597803752267e-04 0
1.9030831884354674e-02 4.7209342681789877e-04 0
1.8990264579769441e-02 5.0465109818731825e-04 0
1.9178178921664436e-02 7.7019984157464336e-04 0
1.9062535182900749e-02 1.3936053093477380e-03 0
1.9250081186358025e-02 1.0653688422837836e-03 0
1.8037738877275042e-02 1.2832317683219633e-04 0
1.8594579402821155e-02 2.8041940403257905e-04 0
1.8127609695489995e-02 1.8801615249816907e-03 0
1.8673542785787301e-02 1.6753859304541748e-03 0
1.6770159740726875e-02 1.4992579002220258e-04 0
1.7398616313924534e-02 8.8759770233762670e-05 0
1.6874471895934759e-02 1.9624247287629792e-03 0
1.7498910008647475e-02 1.9713373354497328e-03 0
1.5878359849504291e-02 4.6842221785150644e-04 0
1.6246167909149720e-02 3.0114381020147077e-04 0
1.5968742870270121e-02 1.7278975393292487e-03 0
1.6344884983656025e-02 1.8601967223803731e-03 0
1.5400729319990914e-02 6.8530368290899851e-04 0
1.5615880872900965e-02 5.9158009416792863e-04 0
1.5505624863292766e-02 1.5245430392149938e-03 0
1.5708652411724575e-02 1.6164848734910755e-03 0
1.5121829255341338e-02 8.5849404160848988e-04 0
1.5235490124408254e-02 7.7518503329715872e-04 0
1.5198350005364996e-02 1.4537042579722689e-03 0
1.5338501064284124e-02 1.4641442431190851e-03 0
1.4866565174253988e-02 9.1146296236740531e-04 0
1.5006322593574218e-02 9.0345030628484534e-04 0
1.4913854972683500e-02 1.4694542512984549e-03 0
1.5051871964260204e-02 1.4719233727938457e-03 0
1.4553015731487798e-02 9.4082305126435705e-04 0
1.4580602097927976e-02 1.1102551624753232e-03 0
1.4707201449447465e-02 9.2300699874158388e-04 0
1.4555406985448886e-02 1.0215760533085856e-03 0
1.4656028623920559e-02 1.2732925077900664e-03 0
1.4619191156459762e-02 1.1922001086175148e-03 0
1.4698600098556037e-02 1.4808152848306811e-03 0
1.4821470809903254e-02 1.4704818674333635e-03 0
1.4686987130680288e-02 1.3805874322411140e-03 0

VECTORS Stress float
1.3426501522475567e+02 -4.8252918434089587e+01 0
1.0975270444571274e+02 4.9528603356699055e+00 0
1.1570827083755766e+02 -7.3501909147157871e+00 0
1.2241530116806855e+02 -4.7464092805128494e+01 0
9.5717550267789505e+01 5.0916620323607624e+00 0
1.0206962914566478e+02 -7.1943028482465277e+00 0
1.1379056233258743e+02 -5.6949496652490090e+00 0
1.1146896158485116e+02 2.5002838084230206e-01 0
1.0024357921173294e+02 -5.1339412754407050e+00 0
9.7611335118096932e+01 6.4263107052222068e-01 0
1.1290699118150452e+02 -5.4219818425262680e+00 0
1.1354788207536595e+02 -6.0701835720816053e+00 0
1.0020512996491192e+02 -4.8880949750053588e+00 0
1.0044088806231480e+02 -5.5040165715314995e+00 0
1.1210534701376208e+02 -5.7714518871844689e+00 0
1.1239761512888253e+02 -5.4557141983110871e+00 0
1.0105866233223520e+02 -5.1402278274212634e+00 0
1.0052008869525757e+02 -4.8679284329588075e+00 0
1.1116693011236912e+02 -5.3932240410678887e+00 0
1.1168719182888491e+02 -5.7474732373715689e+00 0
1.0250309034367760e+02 -4.8982734507767987e+00 0
1.0174223322571190e+02 -5.1494931159550212e+00 0
1.0994584342447305e+02 -4.7890180281704424e+00 0
1.1064144994777200e+02 -5.0470962460190307e+00 0
1.0442297735324144e+02 -4.5035423216940806e+00 0
1.0335464598839643e+02 -4.6704586412865439e+00 0
1.0853259929781737e+02 -3.7625716627534338e+00 0
1.0930430492175978e+02 -4.4459594164380007e+00 0
1.0700320812138560e+02 -3.6536050691194113e+00 0
1.0557257872708777e+02 -4.2594270960403762e+00 0
1.0687729181469498e+02 -2.1438784329703111e+00 0
1.0774512704253821e+02 -2.9020746664649977e+00 0
1.1027393466384476e+02 -2.1631265550311554e+00 0
1.0856547043498169e+02 -2.8684578179672613e+00 0
1.0477815965280182e+02 -1.1019902358007911e+00 0
1.0585352140976298e+02 -1.5836718866411488e+00 0
1.1406110509625115e+02 -1.1525433990176239e+00 0
1.1215215168670457e+02 -1.6201766220108240e+00 0
1.0212740895646886e+02 -2.2135592565506101e-01 0
1.0349620203221457e+02 -6.9966638306837581e-01 0
1.1822489164111252e+02 -2.1379068413189373e-01 0
1.1613915838201393e+02 -7.2804889194317468e-01 0
9.9004386216774719e+01 1.1727815046741412e+00 0
1.0064360696219451e+02 4.1754683570805184e-01 0
1.2259755290726849e+02 1.4342001959099946e+00 0
1.2040567926887273e+02 5.2523557796691733e-01 0
9.5095535496211184e+01 2.1392729540248254e+00 0
9.7178975071360014e+01 1.8257197315717235e+00 0
1.2654656377202058e+02 2.7759346539989309e+00 0
1.2465621103322178e+02 2.2625874543739855e+00 0
8.9714700065708286e+01 2.0636940668017232e+00 0
9.2624973923874506e+01 2.2738867259214217e+00 0
1.2919668026889062e+02 2.8421904177121746e+00 0
1.2809284830388106e+02 3.0693783182020624e+00 0
8.2232321270450370e+01 9.2447925405753040e-01 0
8.6246840587005764e+01 1.6858826540527048e+00 0
1.3026568307399896e+02 1.5664373468838164e+00 0
1.2985670041509184e+02 2.3695530722114952e+00 0
7.1820956400969635e+01 7.7260948759203529e-01 0
7.7551428947138533e+01 7.6528682498320677e-02 0
1.2918618103987390e+02 1.1027252283910798e+00 0
1.3030861529176536e+02 7.0469976575232351e-01 0
5.6564250515733107e+01 4.5968368279871896e+00 0
6.4880080880264387e+01 4.4294541169831163e+00 0
1.2419777019200943e+02 3.8221115137955195e+00 0
1.2613428695036265e+02 3.7390852359581785e+00 0
3.2942805480175721e+01 -3.1578784038332287e+01 0
4.6921880809365199e+01 -1.5686256360825027e+01 0
1.3758662275774381e+02 -2.1885634041882696e+01 0
1.3203865792512283e+02 -1.1016238303409068e+01 0
-1.3454254344387685e+01 1.7982184984627585e+02 0
1.4310857445350820e+00 1.8612163088465724e+02 0
1.3405840624053724e+01 2.3696037966402990e+01 0
-7.1380863646247406e-01 1.9283058537869124e+02 0
-3.2844267540834480e+00 1.5365504167698853e+02 0
-6.8592462847467317e-01 1.7151918170559759e+02 0
1.7074681895679269e+01 1.2490326627971933e+02 0
1.0464102747512818e+02 1.5653999747636512e+01 0
-8.4696290954241249e-01 1.3693364992004160e+02 0

