# vtk DataFile Version 2.0

ASCII

DATASET UNSTRUCTURED_GRID

POINTS 157 double 

-5.00000000000000028e-02  0.00000000000000000e+00  0.00000000000000000e+00
-5.00000000000000028e-02  5.55555555555555525e-02  0.00000000000000000e+00
-5.00000000000000028e-02  9.59295359144507823e-03  0.00000000000000000e+00
-5.00000000000000028e-02  2.77777777777777762e-02  0.00000000000000000e+00
-5.00000000000000028e-02  4.59626019641104708e-02  0.00000000000000000e+00
4.99999999999999958e-02  0.00000000000000000e+00  0.00000000000000000e+00
4.99999999999999958e-02  5.55555555555555525e-02  0.00000000000000000e+00
4.99999999999999958e-02  9.59295359144507823e-03  0.00000000000000000e+00
4.99999999999999958e-02  2.77777777777777762e-02  0.00000000000000000e+00
4.99999999999999958e-02  4.59626019641104708e-02  0.00000000000000000e+00
-5.00000000000000028e-02  1.11111111111111105e-01  0.00000000000000000e+00
-5.00000000000000028e-02  6.51485091470006272e-02  0.00000000000000000e+00
-5.00000000000000028e-02  8.33333333333333287e-02  0.00000000000000000e+00
-5.00000000000000028e-02  1.01518157519666030e-01  0.00000000000000000e+00
4.99999999999999958e-02  1.11111111111111105e-01  0.00000000000000000e+00
4.99999999999999958e-02  6.51485091470006272e-02  0.00000000000000000e+00
4.99999999999999958e-02  8.33333333333333287e-02  0.00000000000000000e+00
4.99999999999999958e-02  1.01518157519666030e-01  0.00000000000000000e+00
-5.00000000000000028e-02  1.66666666666666657e-01  0.00000000000000000e+00
-5.00000000000000028e-02  1.20704064702556180e-01  0.00000000000000000e+00
-5.00000000000000028e-02  1.38888888888888895e-01  0.00000000000000000e+00
-5.00000000000000028e-02  1.57073713075221583e-01  0.00000000000000000e+00
4.99999999999999958e-02  1.66666666666666657e-01  0.00000000000000000e+00
4.99999999999999958e-02  1.20704064702556180e-01  0.00000000000000000e+00
4.99999999999999958e-02  1.38888888888888895e-01  0.00000000000000000e+00
4.99999999999999958e-02  1.57073713075221583e-01  0.00000000000000000e+00
-5.00000000000000028e-02  2.22222222222222210e-01  0.00000000000000000e+00
-5.00000000000000028e-02  1.76259620258111732e-01  0.00000000000000000e+00
-5.00000000000000028e-02  1.94444444444444420e-01  0.00000000000000000e+00
-5.00000000000000028e-02  2.12629268630777135e-01  0.00000000000000000e+00
4.99999999999999958e-02  2.22222222222222210e-01  0.00000000000000000e+00
4.99999999999999958e-02  1.76259620258111732e-01  0.00000000000000000e+00
4.99999999999999958e-02  1.94444444444444420e-01  0.00000000000000000e+00
4.99999999999999958e-02  2.12629268630777135e-01  0.00000000000000000e+00
-5.00000000000000028e-02  2.77777777777777790e-01  0.00000000000000000e+00
-5.00000000000000028e-02  2.31815175813667285e-01  0.00000000000000000e+00
-5.00000000000000028e-02  2.50000000000000000e-01  0.00000000000000000e+00
-5.00000000000000028e-02  2.68184824186332715e-01  0.00000000000000000e+00
4.99999999999999958e-02  2.77777777777777790e-01  0.00000000000000000e+00
4.99999999999999958e-02  2.31815175813667285e-01  0.00000000000000000e+00
4.99999999999999958e-02  2.50000000000000000e-01  0.00000000000000000e+00
4.99999999999999958e-02  2.68184824186332715e-01  0.00000000000000000e+00
-5.00000000000000028e-02  3.33333333333333315e-01  0.00000000000000000e+00
-5.00000000000000028e-02  2.87370731369222865e-01  0.00000000000000000e+00
-5.00000000000000028e-02  3.05555555555555580e-01  0.00000000000000000e+00
-5.00000000000000028e-02  3.23740379741888240e-01  0.00000000000000000e+00
4.99999999999999958e-02  3.33333333333333315e-01  0.00000000000000000e+00
4.99999999999999958e-02  2.87370731369222865e-01  0.00000000000000000e+00
4.99999999999999958e-02  3.05555555555555580e-01  0.00000000000000000e+00
4.99999999999999958e-02  3.23740379741888240e-01  0.00000000000000000e+00
-5.00000000000000028e-02  3.88888888888888840e-01  0.00000000000000000e+00
-5.00000000000000028e-02  3.42926286924778334e-01  0.00000000000000000e+00
-5.00000000000000028e-02  3.61111111111111049e-01  0.00000000000000000e+00
-5.00000000000000028e-02  3.79295935297443765e-01  0.00000000000000000e+00
4.99999999999999958e-02  3.88888888888888840e-01  0.00000000000000000e+00
4.99999999999999958e-02  3.42926286924778334e-01  0.00000000000000000e+00
4.99999999999999958e-02  3.61111111111111049e-01  0.00000000000000000e+00
4.99999999999999958e-02  3.79295935297443765e-01  0.00000000000000000e+00
-5.00000000000000028e-02  4.44444444444444420e-01  0.00000000000000000e+00
-5.00000000000000028e-02  3.98481842480333914e-01  0.00000000000000000e+00
-5.00000000000000028e-02  4.16666666666666630e-01  0.00000000000000000e+00
-5.00000000000000028e-02  4.34851490852999345e-01  0.00000000000000000e+00
4.99999999999999958e-02  4.44444444444444420e-01  0.00000000000000000e+00
4.99999999999999958e-02  3.98481842480333914e-01  0.00000000000000000e+00
4.99999999999999958e-02  4.16666666666666630e-01  0.00000000000000000e+00
4.99999999999999958e-02  4.34851490852999345e-01  0.00000000000000000e+00
-5.00000000000000028e-02  5.00000000000000000e-01  0.00000000000000000e+00
-5.00000000000000028e-02  4.54037398035889495e-01  0.00000000000000000e+00
-5.00000000000000028e-02  4.72222222222222210e-01  0.00000000000000000e+00
-5.00000000000000028e-02  4.90407046408554925e-01  0.00000000000000000e+00
4.99999999999999958e-02  5.00000000000000000e-01  0.00000000000000000e+00
4.99999999999999958e-02  4.54037398035889495e-01  0.00000000000000000e+00
4.99999999999999958e-02  4.72222222222222210e-01  0.00000000000000000e+00
4.99999999999999958e-02  4.90407046408554925e-01  0.00000000000000000e+00
-5.00000000000000028e-02  5.55555555555555580e-01  0.00000000000000000e+00
-5.00000000000000028e-02  5.09592953591445075e-01  0.00000000000000000e+00
-5.00000000000000028e-02  5.27777777777777790e-01  0.00000000000000000e+00
-5.00000000000000028e-02  5.45962601964110505e-01  0.00000000000000000e+00
4.99999999999999958e-02  5.55555555555555580e-01  0.00000000000000000e+00
4.99999999999999958e-02  5.09592953591445075e-01  0.00000000000000000e+00
4.99999999999999958e-02  5.27777777777777790e-01  0.00000000000000000e+00
4.99999999999999958e-02  5.45962601964110505e-01  0.00000000000000000e+00
-5.00000000000000028e-02  6.11111111111111049e-01  0.00000000000000000e+00
-5.00000000000000028e-02  5.65148509147000655e-01  0.00000000000000000e+00
-5.00000000000000028e-02  5.83333333333333259e-01  0.00000000000000000e+00
-5.00000000000000028e-02  6.01518157519665975e-01  0.00000000000000000e+00
4.99999999999999958e-02  6.11111111111111049e-01  0.00000000000000000e+00
4.99999999999999958e-02  5.65148509147000655e-01  0.00000000000000000e+00
4.99999999999999958e-02  5.83333333333333259e-01  0.00000000000000000e+00
4.99999999999999958e-02  6.01518157519665975e-01  0.00000000000000000e+00
-5.00000000000000028e-02  6.66666666666666630e-01  0.00000000000000000e+00
-5.00000000000000028e-02  6.20704064702556013e-01  0.00000000000000000e+00
-5.00000000000000028e-02  6.38888888888888840e-01  0.00000000000000000e+00
-5.00000000000000028e-02  6.57073713075221555e-01  0.00000000000000000e+00
4.99999999999999958e-02  6.66666666666666630e-01  0.00000000000000000e+00
4.99999999999999958e-02  6.20704064702556013e-01  0.00000000000000000e+00
4.99999999999999958e-02  6.38888888888888840e-01  0.00000000000000000e+00
4.99999999999999958e-02  6.57073713075221555e-01  0.00000000000000000e+00
-5.00000000000000028e-02  7.22222222222222210e-01  0.00000000000000000e+00
-5.00000000000000028e-02  6.76259620258111704e-01  0.00000000000000000e+00
-5.00000000000000028e-02  6.94444444444444420e-01  0.00000000000000000e+00
-5.00000000000000028e-02  7.12629268630777135e-01  0.00000000000000000e+00
4.99999999999999958e-02  7.22222222222222210e-01  0.00000000000000000e+00
4.99999999999999958e-02  6.76259620258111704e-01  0.00000000000000000e+00
4.99999999999999958e-02  6.94444444444444420e-01  0.00000000000000000e+00
4.99999999999999958e-02  7.12629268630777135e-01  0.00000000000000000e+00
-5.00000000000000028e-02  7.77777777777777679e-01  0.00000000000000000e+00
-5.00000000000000028e-02  7.31815175813667174e-01  0.00000000000000000e+00
-5.00000000000000028e-02  7.50000000000000000e-01  0.00000000000000000e+00
-5.00000000000000028e-02  7.68184824186332604e-01  0.00000000000000000e+00
4.99999999999999958e-02  7.77777777777777679e-01  0.00000000000000000e+00
4.99999999999999958e-02  7.31815175813667174e-01  0.00000000000000000e+00
4.99999999999999958e-02  7.50000000000000000e-01  0.00000000000000000e+00
4.99999999999999958e-02  7.68184824186332604e-01  0.00000000000000000e+00
-5.00000000000000028e-02  8.33333333333333259e-01  0.00000000000000000e+00
-5.00000000000000028e-02  7.87370731369222754e-01  0.00000000000000000e+00
-5.00000000000000028e-02  8.05555555555555469e-01  0.00000000000000000e+00
-5.00000000000000028e-02  8.23740379741888185e-01  0.00000000000000000e+00
4.99999999999999958e-02  8.33333333333333259e-01  0.00000000000000000e+00
4.99999999999999958e-02  7.87370731369222754e-01  0.00000000000000000e+00
4.99999999999999958e-02  8.05555555555555469e-01  0.00000000000000000e+00
4.99999999999999958e-02  8.23740379741888185e-01  0.00000000000000000e+00
-5.00000000000000028e-02  8.88888888888888840e-01  0.00000000000000000e+00
-5.00000000000000028e-02  8.42926286924778334e-01  0.00000000000000000e+00
-5.00000000000000028e-02  8.61111111111111049e-01  0.00000000000000000e+00
-5.00000000000000028e-02  8.79295935297443765e-01  0.00000000000000000e+00
4.99999999999999958e-02  8.88888888888888840e-01  0.00000000000000000e+00
4.99999999999999958e-02  8.42926286924778334e-01  0.00000000000000000e+00
4.99999999999999958e-02  8.61111111111111049e-01  0.00000000000000000e+00
4.99999999999999958e-02  8.79295935297443765e-01  0.00000000000000000e+00
-5.00000000000000028e-02  9.44444444444444420e-01  0.00000000000000000e+00
-5.00000000000000028e-02  8.98481842480333914e-01  0.00000000000000000e+00
-5.00000000000000028e-02  9.16666666666666630e-01  0.00000000000000000e+00
-5.00000000000000028e-02  9.34851490852999345e-01  0.00000000000000000e+00
4.99999999999999958e-02  9.44444444444444420e-01  0.00000000000000000e+00
4.99999999999999958e-02  8.98481842480333914e-01  0.00000000000000000e+00
4.99999999999999958e-02  9.16666666666666630e-01  0.00000000000000000e+00
4.99999999999999958e-02  9.34851490852999345e-01  0.00000000000000000e+00
-5.00000000000000028e-02  1.00000000000000000e+00  0.00000000000000000e+00
-1.66666666666666699e-02  1.00000000000000000e+00  0.00000000000000000e+00
-5.00000000000000028e-02  9.54037398035889495e-01  0.00000000000000000e+00
-5.00000000000000028e-02  9.72222222222222210e-01  0.00000000000000000e+00
-5.00000000000000028e-02  9.90407046408554925e-01  0.00000000000000000e+00
-4.42442278451329538e-02  1.00000000000000000e+00  0.00000000000000000e+00
-3.33333333333333398e-02  1.00000000000000000e+00  0.00000000000000000e+00
-2.24224388215337189e-02  1.00000000000000000e+00  0.00000000000000000e+00
1.66666666666666630e-02  1.00000000000000000e+00  0.00000000000000000e+00
-1.09108945117996226e-02  1.00000000000000000e+00  0.00000000000000000e+00
-3.46944695195361419e-18  1.00000000000000000e+00  0.00000000000000000e+00
1.09108945117996139e-02  1.00000000000000000e+00  0.00000000000000000e+00
4.99999999999999958e-02  1.00000000000000000e+00  0.00000000000000000e+00
4.99999999999999958e-02  9.54037398035889495e-01  0.00000000000000000e+00
4.99999999999999958e-02  9.72222222222222210e-01  0.00000000000000000e+00
4.99999999999999958e-02  9.90407046408554925e-01  0.00000000000000000e+00
2.24224388215337120e-02  1.00000000000000000e+00  0.00000000000000000e+00
3.33333333333333259e-02  1.00000000000000000e+00  0.00000000000000000e+00
4.42442278451329468e-02  1.00000000000000000e+00  0.00000000000000000e+00

CELLS 0 0


CELL_TYPES 0


POINT_DATA 157

VECTORS VertexNormals double

0.00000000000000000e+00 0.00000000000000000e+00 0
0.00000000000000000e+00 0.00000000000000000e+00 0
0.00000000000000000e+00 0.00000000000000000e+00 0
0.00000000000000000e+00 0.00000000000000000e+00 0
0.00000000000000000e+00 0.00000000000000000e+00 0
0.00000000000000000e+00 0.00000000000000000e+00 0
0.00000000000000000e+00 0.00000000000000000e+00 0
0.00000000000000000e+00 0.00000000000000000e+00 0
0.00000000000000000e+00 0.00000000000000000e+00 0
0.00000000000000000e+00 0.00000000000000000e+00 0
0.00000000000000000e+00 0.00000000000000000e+00 0
0.00000000000000000e+00 0.00000000000000000e+00 0
0.00000000000000000e+00 0.00000000000000000e+00 0
0.00000000000000000e+00 0.00000000000000000e+00 0
0.00000000000000000e+00 0.00000000000000000e+00 0
0.00000000000000000e+00 0.00000000000000000e+00 0
0.00000000000000000e+00 0.00000000000000000e+00 0
0.00000000000000000e+00 0.00000000000000000e+00 0
0.00000000000000000e+00 0.00000000000000000e+00 0
0.00000000000000000e+00 0.00000000000000000e+00 0
0.00000000000000000e+00 0.00000000000000000e+00 0
0.00000000000000000e+00 0.00000000000000000e+00 0
0.00000000000000000e+00 0.00000000000000000e+00 0
0.00000000000000000e+00 0.00000000000000000e+00 0
0.00000000000000000e+00 0.00000000000000000e+00 0
0.00000000000000000e+00 0.00000000000000000e+00 0
0.00000000000000000e+00 0.00000000000000000e+00 0
0.00000000000000000e+00 0.00000000000000000e+00 0
0.00000000000000000e+00 0.00000000000000000e+00 0
0.00000000000000000e+00 0.00000000000000000e+00 0
0.00000000000000000e+00 0.00000000000000000e+00 0
0.00000000000000000e+00 0.00000000000000000e+00 0
0.00000000000000000e+00 0.00000000000000000e+00 0
0.00000000000000000e+00 0.00000000000000000e+00 0
0.00000000000000000e+00 0.00000000000000000e+00 0
0.00000000000000000e+00 0.00000000000000000e+00 0
0.00000000000000000e+00 0.00000000000000000e+00 0
0.00000000000000000e+00 0.00000000000000000e+00 0
0.00000000000000000e+00 0.00000000000000000e+00 0
0.00000000000000000e+00 0.00000000000000000e+00 0
0.00000000000000000e+00 0.00000000000000000e+00 0
0.00000000000000000e+00 0.00000000000000000e+00 0
0.00000000000000000e+00 0.00000000000000000e+00 0
0.00000000000000000e+00 0.00000000000000000e+00 0
0.00000000000000000e+00 0.00000000000000000e+00 0
0.00000000000000000e+00 0.00000000000000000e+00 0
0.00000000000000000e+00 0.00000000000000000e+00 0
0.00000000000000000e+00 0.00000000000000000e+00 0
0.00000000000000000e+00 0.00000000000000000e+00 0
0.00000000000000000e+00 0.00000000000000000e+00 0
0.00000000000000000e+00 0.00000000000000000e+00 0
0.00000000000000000e+00 0.00000000000000000e+00 0
0.00000000000000000e+00 0.00000000000000000e+00 0
0.00000000000000000e+00 0.00000000000000000e+00 0
0.00000000000000000e+00 0.00000000000000000e+00 0
0.00000000000000000e+00 0.00000000000000000e+00 0
0.00000000000000000e+00 0.00000000000000000e+00 0
0.00000000000000000e+00 0.00000000000000000e+00 0
0.00000000000000000e+00 0.00000000000000000e+00 0
0.00000000000000000e+00 0.00000000000000000e+00 0
0.00000000000000000e+00 0.00000000000000000e+00 0
0.00000000000000000e+00 0.00000000000000000e+00 0
0.00000000000000000e+00 0.00000000000000000e+00 0
0.00000000000000000e+00 0.00000000000000000e+00 0
0.00000000000000000e+00 0.00000000000000000e+00 0
0.00000000000000000e+00 0.00000000000000000e+00 0
0.00000000000000000e+00 0.00000000000000000e+00 0
0.00000000000000000e+00 0.00000000000000000e+00 0
0.00000000000000000e+00 0.00000000000000000e+00 0
0.00000000000000000e+00 0.00000000000000000e+00 0
0.00000000000000000e+00 0.00000000000000000e+00 0
0.00000000000000000e+00 0.00000000000000000e+00 0
0.00000000000000000e+00 0.00000000000000000e+00 0
0.00000000000000000e+00 0.00000000000000000e+00 0
0.00000000000000000e+00 0.00000000000000000e+00 0
0.00000000000000000e+00 0.00000000000000000e+00 0
0.00000000000000000e+00 0.00000000000000000e+00 0
0.00000000000000000e+00 0.00000000000000000e+00 0
0.00000000000000000e+00 0.00000000000000000e+00 0
0.00000000000000000e+00 0.00000000000000000e+00 0
0.00000000000000000e+00 0.00000000000000000e+00 0
0.00000000000000000e+00 0.00000000000000000e+00 0
0.00000000000000000e+00 0.00000000000000000e+00 0
0.00000000000000000e+00 0.00000000000000000e+00 0
0.00000000000000000e+00 0.00000000000000000e+00 0
0.00000000000000000e+00 0.00000000000000000e+00 0
0.00000000000000000e+00 0.00000000000000000e+00 0
0.00000000000000000e+00 0.00000000000000000e+00 0
0.00000000000000000e+00 0.00000000000000000e+00 0
0.00000000000000000e+00 0.00000000000000000e+00 0
0.00000000000000000e+00 0.00000000000000000e+00 0
0.00000000000000000e+00 0.00000000000000000e+00 0
0.00000000000000000e+00 0.00000000000000000e+00 0
0.00000000000000000e+00 0.00000000000000000e+00 0
0.00000000000000000e+00 0.00000000000000000e+00 0
0.00000000000000000e+00 0.00000000000000000e+00 0
0.00000000000000000e+00 0.00000000000000000e+00 0
0.00000000000000000e+00 0.00000000000000000e+00 0
0.00000000000000000e+00 0.00000000000000000e+00 0
0.00000000000000000e+00 0.00000000000000000e+00 0
0.00000000000000000e+00 0.00000000000000000e+00 0
0.00000000000000000e+00 0.00000000000000000e+00 0
0.00000000000000000e+00 0.00000000000000000e+00 0
0.00000000000000000e+00 0.00000000000000000e+00 0
0.00000000000000000e+00 0.00000000000000000e+00 0
0.00000000000000000e+00 0.00000000000000000e+00 0
0.00000000000000000e+00 0.00000000000000000e+00 0
0.00000000000000000e+00 0.00000000000000000e+00 0
0.00000000000000000e+00 0.00000000000000000e+00 0
0.00000000000000000e+00 0.00000000000000000e+00 0
0.00000000000000000e+00 0.00000000000000000e+00 0
0.00000000000000000e+00 0.00000000000000000e+00 0
0.00000000000000000e+00 0.00000000000000000e+00 0
0.00000000000000000e+00 0.00000000000000000e+00 0
0.00000000000000000e+00 0.00000000000000000e+00 0
0.00000000000000000e+00 0.00000000000000000e+00 0
0.00000000000000000e+00 0.00000000000000000e+00 0
0.00000000000000000e+00 0.00000000000000000e+00 0
0.00000000000000000e+00 0.00000000000000000e+00 0
0.00000000000000000e+00 0.00000000000000000e+00 0
0.00000000000000000e+00 0.00000000000000000e+00 0
0.00000000000000000e+00 0.00000000000000000e+00 0
0.00000000000000000e+00 0.00000000000000000e+00 0
0.00000000000000000e+00 0.00000000000000000e+00 0
0.00000000000000000e+00 0.00000000000000000e+00 0
0.00000000000000000e+00 0.00000000000000000e+00 0
0.00000000000000000e+00 0.00000000000000000e+00 0
0.00000000000000000e+00 0.00000000000000000e+00 0
0.00000000000000000e+00 0.00000000000000000e+00 0
0.00000000000000000e+00 0.00000000000000000e+00 0
0.00000000000000000e+00 0.00000000000000000e+00 0
0.00000000000000000e+00 0.00000000000000000e+00 0
0.00000000000000000e+00 0.00000000000000000e+00 0
0.00000000000000000e+00 0.00000000000000000e+00 0
0.00000000000000000e+00 0.00000000000000000e+00 0
0.00000000000000000e+00 0.00000000000000000e+00 0
0.00000000000000000e+00 0.00000000000000000e+00 0
0.00000000000000000e+00 0.00000000000000000e+00 0
0.00000000000000000e+00 0.00000000000000000e+00 0
0.00000000000000000e+00 0.00000000000000000e+00 0
0.00000000000000000e+00 0.00000000000000000e+00 0
0.00000000000000000e+00 0.00000000000000000e+00 0
0.00000000000000000e+00 0.00000000000000000e+00 0
0.00000000000000000e+00 0.00000000000000000e+00 0
0.00000000000000000e+00 0.00000000000000000e+00 0
0.00000000000000000e+00 0.00000000000000000e+00 0
0.00000000000000000e+00 0.00000000000000000e+00 0
0.00000000000000000e+00 0.00000000000000000e+00 0
0.00000000000000000e+00 0.00000000000000000e+00 0
0.00000000000000000e+00 0.00000000000000000e+00 0
0.00000000000000000e+00 0.00000000000000000e+00 0
0.00000000000000000e+00 0.00000000000000000e+00 0
0.00000000000000000e+00 0.00000000000000000e+00 0
0.00000000000000000e+00 0.00000000000000000e+00 0
0.00000000000000000e+00 0.00000000000000000e+00 0
0.00000000000000000e+00 0.00000000000000000e+00 0
0.00000000000000000e+00 0.00000000000000000e+00 0

VECTORS Displacement double
0.00000000000000000e+00 0.00000000000000000e+00 0
1.83132404636982925e-05 2.33975350332905869e-05 0
3.19406384452219599e-06 4.65489108118877595e-06 0
7.60082601543789333e-06 1.21203748407008666e-05 0
1.40057303236411239e-05 1.95728635439178998e-05 0
0.00000000000000000e+00 0.00000000000000000e+00 0
1.80996486070400631e-05 -2.29261132323806900e-05 0
3.10365059267960964e-06 -4.53927085619742141e-06 0
7.41931040621246816e-06 -1.18506542884168758e-05 0
1.37871601765856880e-05 -1.91695580209470116e-05 0
5.76580189483377406e-05 4.46089501793407096e-05 0
2.34333602644716439e-05 2.72263745560151199e-05 0
3.50769923395709832e-05 3.43125566864562430e-05 0
4.92527511783985046e-05 4.11216318823607612e-05 0
5.74561858831560559e-05 -4.36784626223761958e-05 0
2.32257673333072718e-05 -2.66790798616554152e-05 0
3.48746398975986524e-05 -3.36129339081839369e-05 0
4.90401385923402592e-05 -4.02707447663737411e-05 0
1.18839353808808401e-04 6.35331461416255511e-05 0
6.67325350741853962e-05 4.80303651841517231e-05 0
8.56663908477091942e-05 5.43387199976993874e-05 0
1.06811852637232592e-04 6.04176899892038013e-05 0
1.18602626520780216e-04 -6.21383232048351898e-05 0
6.65297594375026705e-05 -4.70164178795428976e-05 0
8.54535760208486781e-05 -5.31685965190804995e-05 0
1.06585585939498537e-04 -5.90984160104150700e-05 0
1.99357701993813904e-04 8.05077694371173939e-05 0
1.31410102916155081e-04 6.65888883583266725e-05 0
1.56803295016738397e-04 7.22329350259139362e-05 0
1.84158092071755704e-04 7.76948412437080001e-05 0
1.99145137872904355e-04 -7.86370031494188762e-05 0
1.31186932223046547e-04 -6.51174058642991393e-05 0
1.56594251745092815e-04 -7.06058665319714681e-05 0
1.83950453413788881e-04 -7.59065238067659483e-05 0
2.97318349682055422e-04 9.59930839135134404e-05 0
2.15090469893101780e-04 8.32693102531049234e-05 0
2.46241354682992628e-04 8.83955902455727378e-05 0
2.79201905777755669e-04 9.34020864420621785e-05 0
2.97133687904063779e-04 -9.36835897999911042e-05 0
2.14864075730294670e-04 -8.13238438716399318e-05 0
2.46037351125570083e-04 -8.63128078283005194e-05 0
2.79018538042063232e-04 -9.11725803449465788e-05 0
4.11494466754567547e-04 1.10203956807696334e-04 0
3.15936429150521277e-04 9.85402293695957469e-05 0
3.52504629640542895e-04 1.03246660243956723e-04 0
3.90682680750897924e-04 1.07829623409324990e-04 0
4.11302301725474141e-04 -1.07510328950485916e-04 0
3.15736793202492459e-04 -9.61557493666816528e-05 0
3.52288336014271121e-04 -1.00739300452352937e-04 0
3.90486308876924365e-04 -1.05202941474447556e-04 0
5.40594157308130533e-04 1.23165650729631832e-04 0
4.32759724758832818e-04 1.12541708161461077e-04 0
4.74300811678584299e-04 1.16853000610562586e-04 0
5.17317033180815186e-04 1.21016671697008705e-04 0
5.40438139077048128e-04 -1.20121551158364103e-04 0
4.32569207846655195e-04 -1.09781667435198511e-04 0
4.74099930570239046e-04 -1.13978951873109656e-04 0
5.17141431430703162e-04 -1.18035486992884282e-04 0
6.83215831195124377e-04 1.34812544443787494e-04 0
5.64292340112959698e-04 1.25280219234782502e-04 0
6.10322476606556578e-04 1.29169528954665926e-04 0
6.57720752562814242e-04 1.32900319631807490e-04 0
6.83052006444630926e-04 -1.31436315312974183e-04 0
5.64141932721144994e-04 -1.22169750804040076e-04 0
6.10158285709862204e-04 -1.25942224011675591e-04 0
6.57539053756515252e-04 -1.29573332082632159e-04 0
8.37850112150700520e-04 1.45177476588730716e-04 0
7.09085654697979998e-04 1.36696551123238497e-04 0
7.59098327651469692e-04 1.40164073455250043e-04 0
8.10337576215310225e-04 1.43485684945667756e-04 0
8.37686825615453312e-04 -1.41485422721181252e-04 0
7.08931121619509378e-04 -1.33264238323719500e-04 0
7.58951558844443925e-04 -1.36623146832854384e-04 0
8.10185329177382993e-04 -1.39842697169767494e-04 0
1.00301142914407189e-03 1.54288546597778877e-04 0
8.65638761505238595e-04 1.46830670386003385e-04 0
9.19177659992633433e-04 1.49874249016584515e-04 0
9.73786936259923787e-04 1.52796838779678979e-04 0
1.00286672809179718e-03 -1.50303813146280169e-04 0
8.65488822919346251e-04 -1.43093034357657162e-04 0
9.19039811262825006e-04 -1.46041399151191774e-04 0
9.73648218766860881e-04 -1.48863481024859729e-04 0
1.17740310383365244e-03 1.62282771562737558e-04 0
1.03252686399763990e-03 1.55738379225852047e-04 0
1.08913117389752151e-03 1.58396466702817389e-04 0
1.14667049168295327e-03 1.60964852467126470e-04 0
1.17728401961410419e-03 -1.58034326561175113e-04 0
1.03236630386688592e-03 -1.51708823404202099e-04 0
1.08899259320930459e-03 -1.54292443576848747e-04 0
1.14655356709034238e-03 -1.56770587783915295e-04 0
1.35998463078809023e-03 1.69292106251564680e-04 0
1.20839794119321489e-03 1.63567160430280918e-04 0
1.26777680354518783e-03 1.65903061916813379e-04 0
1.32792074420220812e-03 1.68142042031074290e-04 0
1.35984006542610612e-03 -1.64803517030110363e-04 0
1.20826166503828613e-03 -1.59266897193594838e-04 0
1.26761664652162470e-03 -1.61525816520654295e-04 0
1.32777439169354272e-03 -1.63696471296374905e-04 0
1.54975263557934366e-03 1.75295604896845620e-04 0
1.39227218907883848e-03 1.70413447399892561e-04 0
1.45407997667539252e-03 1.72439238492605744e-04 0
1.51654324345561653e-03 1.74335036720921189e-04 0
1.54963113789501734e-03 -1.70582548157486620e-04 0
1.39212722003832431e-03 -1.65879822560385923e-04 0
1.45391957185910773e-03 -1.67826772820796035e-04 0
1.51640280556246377e-03 -1.69659735541930135e-04 0
1.74556428673838977e-03 1.80142488526274444e-04 0
1.58316077145356933e-03 1.76228191132963305e-04 0
1.64699363959747657e-03 1.77893186513449771e-04 0
1.71141075656126352e-03 1.79407620517604637e-04 0
1.74544583480008451e-03 -1.75208867876744504e-04 0
1.58304516141918872e-03 -1.71471469424457204e-04 0
1.64686891576385939e-03 -1.73054999555533815e-04 0
1.71127354900854406e-03 -1.74499494910600726e-04 0
1.94595562112981303e-03 1.83634696998605869e-04 0
1.77987197656079657e-03 1.80849080848335259e-04 0
1.84527031025992537e-03 1.82074039038902596e-04 0
1.91108457246791461e-03 1.83138022648818538e-04 0
1.94585224779030182e-03 -1.78480285508517502e-04 0
1.77976607263548932e-03 -1.75879990983196017e-04 0
1.84517837419223389e-03 -1.77030351092913752e-04 0
1.91099174289529293e-03 -1.78020855764704440e-04 0
2.14917210250711995e-03 1.85758181693049446e-04 0
1.98087024348518647e-03 1.84082080618637895e-04 0
2.04728310531339169e-03 1.84838423639254097e-04 0
2.11393271534203887e-03 1.85471542467571175e-04 0
2.14907703759749423e-03 -1.80447755178898231e-04 0
1.98077535744746154e-03 -1.78904872939893188e-04 0
2.04719247966063085e-03 -1.79608802391054254e-04 0
2.11383874010753325e-03 -1.80188509072678235e-04 0
2.35383086395445171e-03 1.86786310969868708e-04 0
2.18447195383312826e-03 1.86006571402481165e-04 0
2.25139273906625964e-03 1.86373820859987092e-04 0
2.31842327139977506e-03 1.86664755208285543e-04 0
2.35377941363743882e-03 -1.81353360794391687e-04 0
2.18436945378103512e-03 -1.80668660273078385e-04 0
2.25131915479348521e-03 -1.81017830789026365e-04 0
2.31837473233626303e-03 -1.81265840659228353e-04 0
2.55879972952746280e-03 1.86998723504668517e-04 0
2.55874085007445039e-03 6.41266753245988975e-05 0
2.38926586303033883e-03 1.86879163191775723e-04 0
2.45640450661806188e-03 1.86975621113926030e-04 0
2.52344439124019184e-03 1.86996390974824114e-04 0
2.55880030793794334e-03 1.65789742985507517e-04 0
2.55879695482661785e-03 1.25583775473236698e-04 0
2.55876414077663020e-03 8.53443309490090979e-05 0
2.55869020316906899e-03 -5.86472977439833273e-05 0
2.55872212901069214e-03 4.29247124364348022e-05 0
2.55870336946182990e-03 2.75125021328095442e-06 0
2.55869195983347494e-03 -3.74433991392625082e-05 0
2.55872060127949582e-03 -1.81490937094987002e-04 0
2.38920259590068166e-03 -1.81411441805354510e-04 0
2.45631668503966914e-03 -1.81460341132029919e-04 0
2.52335094394379525e-03 -1.81482769343735835e-04 0
2.55869520249058955e-03 -7.98466150784511920e-05 0
2.55871360411348949e-03 -1.20040658046386447e-04 0
2.55872013655089646e-03 -1.60265475811808259e-04 0

VECTORS Force double
1.92028247696173049e-01 7.99328156741230863e-04 0
-9.08203719573408841e-01 5.57517004264926515e-04 0
-9.22883717975708118e-01 -2.17463493487462863e-05 0
7.23617503574472121e+00 -5.06590686132432026e-03 0
3.48955398912152148e+00 -2.41561053139091424e-03 0
7.57253389417070211e-02 8.60655470043033568e-04 0
-3.80912950120509908e-01 4.34277215155568982e-04 0
-3.84279886093339629e-01 -2.42713663725083092e-04 0
3.03795696066642806e+00 -3.29995105304007816e-03 0
1.46530678825071692e+00 -1.58961337280220786e-03 0
-8.12527628161164972e-01 3.34055228515209171e-03 0
-5.08023096512857930e-02 4.59940629585289221e-04 0
5.86619450456616898e-01 -2.41321432777785293e-03 0
9.36319192721696680e+00 -3.75180854593949800e-02 0
-3.36639741631460210e-01 -1.44586999914895554e-04 0
-1.99216812617243541e-02 -3.70346294654490350e-05 0
2.42915945587812820e-01 4.60216620964629339e-05 0
3.87837982551042693e+00 1.41020831794529317e-03 0
9.15927947295277001e+00 -5.14339480515381836e-02 0
9.39504337983163712e-02 -4.62980829503098306e-04 0
-1.78573180104993345e-02 6.08376634590853191e-05 0
2.63342548998250978e-02 3.13146404995760574e-05 0
3.72200230916472563e+00 3.56555864682773227e-02 0
3.86871825132646327e-02 -6.93428150938973128e-06 0
-7.82023382685174788e-03 -2.32831642738377347e-06 0
1.03291333468917834e-02 2.32741704609314803e-05 0
-8.26865050379645194e-01 3.99410117737824567e-03 0
2.80184105473853390e-02 -2.25965829612986750e-05 0
-1.72716419814988413e-02 -4.11936704871619664e-06 0
9.30237840299606572e-02 -5.36306874201159336e-04 0
-3.29902817802870840e-01 -8.69209503913849144e-03 0
1.12656765075675493e-02 -9.45763838202327518e-06 0
-7.34391258009944262e-03 -1.60682718355274236e-04 0
3.69203149614408879e-02 1.08178565272527881e-03 0
-9.40246423768465234e-01 3.65756792832559437e-04 0
9.52939813157846416e+00 -4.44287386915861171e-02 0
5.96681363208692583e-01 -2.80627781783370249e-03 0
-5.38906032096300516e-02 5.28963049470898322e-04 0
-3.69199710064068209e-01 -1.75966643543252477e-02 0
3.80033607269335150e+00 9.65649586400992438e-02 0
2.37939443318514410e-01 5.79507885514834054e-03 0
-2.17041626490507567e-02 2.01077241057380464e-04 0
4.71835090943303337e-01 1.64253398882900658e-03 0
3.60965083673007614e+00 -1.88203249269432442e-03 0
7.47013176017070446e+00 -3.86138048451728803e-03 0