# vtk DataFile Version 2.0

ASCII

DATASET UNSTRUCTURED_GRID

POINTS 79 float 

-5.0000000000000003e-02  0.0000000000000000e+00  0.0000000000000000e+00
-5.0000000000000003e-02  5.5555555555555552e-02  0.0000000000000000e+00
-5.0000000000000003e-02  2.7777777777777776e-02  0.0000000000000000e+00
5.0000000000000003e-02  0.0000000000000000e+00  0.0000000000000000e+00
5.0000000000000003e-02  5.5555555555555552e-02  0.0000000000000000e+00
5.0000000000000003e-02  2.7777777777777776e-02  0.0000000000000000e+00
-5.0000000000000003e-02  1.1111111111111110e-01  0.0000000000000000e+00
-5.0000000000000003e-02  8.3333333333333329e-02  0.0000000000000000e+00
5.0000000000000003e-02  1.1111111111111110e-01  0.0000000000000000e+00
5.0000000000000003e-02  8.3333333333333329e-02  0.0000000000000000e+00
-5.0000000000000003e-02  1.6666666666666666e-01  0.0000000000000000e+00
-5.0000000000000003e-02  1.3888888888888890e-01  0.0000000000000000e+00
5.0000000000000003e-02  1.6666666666666666e-01  0.0000000000000000e+00
5.0000000000000003e-02  1.3888888888888890e-01  0.0000000000000000e+00
-5.0000000000000003e-02  2.2222222222222221e-01  0.0000000000000000e+00
-5.0000000000000003e-02  1.9444444444444442e-01  0.0000000000000000e+00
5.0000000000000003e-02  2.2222222222222221e-01  0.0000000000000000e+00
5.0000000000000003e-02  1.9444444444444442e-01  0.0000000000000000e+00
-5.0000000000000003e-02  2.7777777777777779e-01  0.0000000000000000e+00
-5.0000000000000003e-02  2.5000000000000000e-01  0.0000000000000000e+00
5.0000000000000003e-02  2.7777777777777779e-01  0.0000000000000000e+00
5.0000000000000003e-02  2.5000000000000000e-01  0.0000000000000000e+00
-5.0000000000000003e-02  3.3333333333333331e-01  0.0000000000000000e+00
-5.0000000000000003e-02  3.0555555555555558e-01  0.0000000000000000e+00
5.0000000000000003e-02  3.3333333333333331e-01  0.0000000000000000e+00
5.0000000000000003e-02  3.0555555555555558e-01  0.0000000000000000e+00
-5.0000000000000003e-02  3.8888888888888884e-01  0.0000000000000000e+00
-5.0000000000000003e-02  3.6111111111111105e-01  0.0000000000000000e+00
5.0000000000000003e-02  3.8888888888888884e-01  0.0000000000000000e+00
5.0000000000000003e-02  3.6111111111111105e-01  0.0000000000000000e+00
-5.0000000000000003e-02  4.4444444444444442e-01  0.0000000000000000e+00
-5.0000000000000003e-02  4.1666666666666663e-01  0.0000000000000000e+00
5.0000000000000003e-02  4.4444444444444442e-01  0.0000000000000000e+00
5.0000000000000003e-02  4.1666666666666663e-01  0.0000000000000000e+00
-5.0000000000000003e-02  5.0000000000000000e-01  0.0000000000000000e+00
-5.0000000000000003e-02  4.7222222222222221e-01  0.0000000000000000e+00
5.0000000000000003e-02  5.0000000000000000e-01  0.0000000000000000e+00
5.0000000000000003e-02  4.7222222222222221e-01  0.0000000000000000e+00
-5.0000000000000003e-02  5.5555555555555558e-01  0.0000000000000000e+00
-5.0000000000000003e-02  5.2777777777777779e-01  0.0000000000000000e+00
5.0000000000000003e-02  5.5555555555555558e-01  0.0000000000000000e+00
5.0000000000000003e-02  5.2777777777777779e-01  0.0000000000000000e+00
-5.0000000000000003e-02  6.1111111111111105e-01  0.0000000000000000e+00
-5.0000000000000003e-02  5.8333333333333326e-01  0.0000000000000000e+00
5.0000000000000003e-02  6.1111111111111105e-01  0.0000000000000000e+00
5.0000000000000003e-02  5.8333333333333326e-01  0.0000000000000000e+00
-5.0000000000000003e-02  6.6666666666666663e-01  0.0000000000000000e+00
-5.0000000000000003e-02  6.3888888888888884e-01  0.0000000000000000e+00
5.0000000000000003e-02  6.6666666666666663e-01  0.0000000000000000e+00
5.0000000000000003e-02  6.3888888888888884e-01  0.0000000000000000e+00
-5.0000000000000003e-02  7.2222222222222221e-01  0.0000000000000000e+00
-5.0000000000000003e-02  6.9444444444444442e-01  0.0000000000000000e+00
5.0000000000000003e-02  7.2222222222222221e-01  0.0000000000000000e+00
5.0000000000000003e-02  6.9444444444444442e-01  0.0000000000000000e+00
-5.0000000000000003e-02  7.7777777777777768e-01  0.0000000000000000e+00
-5.0000000000000003e-02  7.5000000000000000e-01  0.0000000000000000e+00
5.0000000000000003e-02  7.7777777777777768e-01  0.0000000000000000e+00
5.0000000000000003e-02  7.5000000000000000e-01  0.0000000000000000e+00
-5.0000000000000003e-02  8.3333333333333326e-01  0.0000000000000000e+00
-5.0000000000000003e-02  8.0555555555555547e-01  0.0000000000000000e+00
5.0000000000000003e-02  8.3333333333333326e-01  0.0000000000000000e+00
5.0000000000000003e-02  8.0555555555555547e-01  0.0000000000000000e+00
-5.0000000000000003e-02  8.8888888888888884e-01  0.0000000000000000e+00
-5.0000000000000003e-02  8.6111111111111105e-01  0.0000000000000000e+00
5.0000000000000003e-02  8.8888888888888884e-01  0.0000000000000000e+00
5.0000000000000003e-02  8.6111111111111105e-01  0.0000000000000000e+00
-5.0000000000000003e-02  9.4444444444444442e-01  0.0000000000000000e+00
-5.0000000000000003e-02  9.1666666666666663e-01  0.0000000000000000e+00
5.0000000000000003e-02  9.4444444444444442e-01  0.0000000000000000e+00
5.0000000000000003e-02  9.1666666666666663e-01  0.0000000000000000e+00
-5.0000000000000003e-02  1.0000000000000000e+00  0.0000000000000000e+00
-1.6666666666666670e-02  1.0000000000000000e+00  0.0000000000000000e+00
-5.0000000000000003e-02  9.7222222222222221e-01  0.0000000000000000e+00
-3.3333333333333340e-02  1.0000000000000000e+00  0.0000000000000000e+00
1.6666666666666663e-02  1.0000000000000000e+00  0.0000000000000000e+00
-3.4694469519536142e-18  1.0000000000000000e+00  0.0000000000000000e+00
5.0000000000000003e-02  1.0000000000000000e+00  0.0000000000000000e+00
5.0000000000000003e-02  9.7222222222222221e-01  0.0000000000000000e+00
3.3333333333333333e-02  1.0000000000000000e+00  0.0000000000000000e+00

CELLS 0 0


CELL_TYPES 0


POINT_DATA 79

VECTORS VertexNormals float

0.0000000000000000e+00 0.0000000000000000e+00 0
0.0000000000000000e+00 0.0000000000000000e+00 0
0.0000000000000000e+00 0.0000000000000000e+00 0
0.0000000000000000e+00 0.0000000000000000e+00 0
0.0000000000000000e+00 0.0000000000000000e+00 0
0.0000000000000000e+00 0.0000000000000000e+00 0
0.0000000000000000e+00 0.0000000000000000e+00 0
0.0000000000000000e+00 0.0000000000000000e+00 0
0.0000000000000000e+00 0.0000000000000000e+00 0
0.0000000000000000e+00 0.0000000000000000e+00 0
0.0000000000000000e+00 0.0000000000000000e+00 0
0.0000000000000000e+00 0.0000000000000000e+00 0
0.0000000000000000e+00 0.0000000000000000e+00 0
0.0000000000000000e+00 0.0000000000000000e+00 0
0.0000000000000000e+00 0.0000000000000000e+00 0
0.0000000000000000e+00 0.0000000000000000e+00 0
0.0000000000000000e+00 0.0000000000000000e+00 0
0.0000000000000000e+00 0.0000000000000000e+00 0
0.0000000000000000e+00 0.0000000000000000e+00 0
0.0000000000000000e+00 0.0000000000000000e+00 0
0.0000000000000000e+00 0.0000000000000000e+00 0
0.0000000000000000e+00 0.0000000000000000e+00 0
0.0000000000000000e+00 0.0000000000000000e+00 0
0.0000000000000000e+00 0.0000000000000000e+00 0
0.0000000000000000e+00 0.0000000000000000e+00 0
0.0000000000000000e+00 0.0000000000000000e+00 0
0.0000000000000000e+00 0.0000000000000000e+00 0
0.0000000000000000e+00 0.0000000000000000e+00 0
0.0000000000000000e+00 0.0000000000000000e+00 0
0.0000000000000000e+00 0.0000000000000000e+00 0
0.0000000000000000e+00 0.0000000000000000e+00 0
0.0000000000000000e+00 0.0000000000000000e+00 0
0.0000000000000000e+00 0.0000000000000000e+00 0
0.0000000000000000e+00 0.0000000000000000e+00 0
0.0000000000000000e+00 0.0000000000000000e+00 0
0.0000000000000000e+00 0.0000000000000000e+00 0
0.0000000000000000e+00 0.0000000000000000e+00 0
0.0000000000000000e+00 0.0000000000000000e+00 0
0.0000000000000000e+00 0.0000000000000000e+00 0
0.0000000000000000e+00 0.0000000000000000e+00 0
0.0000000000000000e+00 0.0000000000000000e+00 0
0.0000000000000000e+00 0.0000000000000000e+00 0
0.0000000000000000e+00 0.0000000000000000e+00 0
0.0000000000000000e+00 0.0000000000000000e+00 0
0.0000000000000000e+00 0.0000000000000000e+00 0
0.0000000000000000e+00 0.0000000000000000e+00 0
0.0000000000000000e+00 0.0000000000000000e+00 0
0.0000000000000000e+00 0.0000000000000000e+00 0
0.0000000000000000e+00 0.0000000000000000e+00 0
0.0000000000000000e+00 0.0000000000000000e+00 0
0.0000000000000000e+00 0.0000000000000000e+00 0
0.0000000000000000e+00 0.0000000000000000e+00 0
0.0000000000000000e+00 0.0000000000000000e+00 0
0.0000000000000000e+00 0.0000000000000000e+00 0
0.0000000000000000e+00 0.0000000000000000e+00 0
0.0000000000000000e+00 0.0000000000000000e+00 0
0.0000000000000000e+00 0.0000000000000000e+00 0
0.0000000000000000e+00 0.0000000000000000e+00 0
0.0000000000000000e+00 0.0000000000000000e+00 0
0.0000000000000000e+00 0.0000000000000000e+00 0
0.0000000000000000e+00 0.0000000000000000e+00 0
0.0000000000000000e+00 0.0000000000000000e+00 0
0.0000000000000000e+00 0.0000000000000000e+00 0
0.0000000000000000e+00 0.0000000000000000e+00 0
0.0000000000000000e+00 0.0000000000000000e+00 0
0.0000000000000000e+00 0.0000000000000000e+00 0
0.0000000000000000e+00 0.0000000000000000e+00 0
0.0000000000000000e+00 0.0000000000000000e+00 0
0.0000000000000000e+00 0.0000000000000000e+00 0
0.0000000000000000e+00 0.0000000000000000e+00 0
0.0000000000000000e+00 0.0000000000000000e+00 0
0.0000000000000000e+00 0.0000000000000000e+00 0
0.0000000000000000e+00 0.0000000000000000e+00 0
0.0000000000000000e+00 0.0000000000000000e+00 0
0.0000000000000000e+00 0.0000000000000000e+00 0
0.0000000000000000e+00 0.0000000000000000e+00 0
0.0000000000000000e+00 0.0000000000000000e+00 0
0.0000000000000000e+00 0.0000000000000000e+00 0
0.0000000000000000e+00 0.0000000000000000e+00 0

VECTORS Displacement float
0.0000000000000000e+00 0.0000000000000000e+00 0
1.0564415610277698e-03 1.1261307948934288e-03 0
4.9894726939919329e-04 6.2438224299857475e-04 0
0.0000000000000000e+00 0.0000000000000000e+00 0
1.0769451407599243e-03 -8.5307195601759078e-04 0
5.0039418530899160e-04 -5.1228869777890829e-04 0
2.8028299656418640e-03 1.8839145034750416e-03 0
1.8533464187236010e-03 1.5491548141785077e-03 0
2.7612504265677328e-03 -1.3468462395638718e-03 0
1.8159309770976345e-03 -1.1274934677898416e-03 0
4.9811204891300059e-03 2.2892586032311722e-03 0
3.8685155673818228e-03 2.1329572161795842e-03 0
5.0226168929369003e-03 -1.4828263948029037e-03 0
3.8840480666289708e-03 -1.4613721176452866e-03 0
7.2133178685270076e-03 2.4575762630030997e-03 0
6.0748292987403531e-03 2.3888815753003146e-03 0
7.2546366878911209e-03 -1.4553702119464605e-03 0
6.1152350623433155e-03 -1.4757205859053345e-03 0
9.4957424632059178e-03 2.3073696674519618e-03 0
8.3970566596126006e-03 2.4328206549129052e-03 0
9.5500067282582330e-03 -1.1511857059775458e-03 0
8.4435281345389083e-03 -1.3498356500087970e-03 0
1.1177654920875787e-02 1.9645905268614247e-03 0
1.0416889008533173e-02 2.1271087231716007e-03 0
1.1254564523850513e-02 -6.9027342533929757e-04 0
1.0481849436507491e-02 -9.0671059740889581e-04 0
1.2539597492697421e-02 1.7203031012223179e-03 0
1.1867831445927908e-02 1.8477557125747934e-03 0
1.2636193920508090e-02 -3.6723570291097643e-04 0
1.1955761035118887e-02 -5.2969646448340407e-04 0
1.3612875329519065e-02 1.2473036563631263e-03 0
1.3151761955260183e-02 1.5197482476210929e-03 0
1.3712384122233929e-02 1.6380768398307382e-04 0
1.3251744668833509e-02 -1.3708257397827058e-04 0
1.3823218429569437e-02 6.1410780202845235e-04 0
1.3847721712013504e-02 9.2284051306331348e-04 0
1.3909392438209199e-02 8.6611595107820229e-04 0
1.3941671182625397e-02 5.1975677518763773e-04 0
1.3213763801137748e-02 2.5914575826862314e-04 0
1.3586257906052513e-02 3.8737131287566815e-04 0
1.3285164607724546e-02 1.3162106163856940e-03 0
1.3664189239144392e-02 1.1374962075965753e-03 0
1.2419620864248622e-02 3.0736425673178375e-04 0
1.2798447081693341e-02 2.4684258792220229e-04 0
1.2493877411690026e-02 1.3716412376614338e-03 0
1.2868803602921003e-02 1.3812870703792377e-03 0
1.1888242611519162e-02 5.0990019657277442e-04 0
1.2112732898464911e-02 4.0787789499095300e-04 0
1.1985874093193882e-02 1.2524907628066468e-03 0
1.2197288882079152e-02 1.3163897727887267e-03 0
1.1596092186353034e-02 6.5014353560598551e-04 0
1.1722325640788730e-02 5.8991573796111528e-04 0
1.1710679613244221e-02 1.1771757261668596e-03 0
1.1831252861684122e-02 1.2056990200008659e-03 0
1.1420761985111848e-02 7.0153340324965606e-04 0
1.1500772395140840e-02 6.8870660352222599e-04 0
1.1520427724993627e-02 1.1894607412535410e-03 0
1.1610561480438179e-02 1.1713773300097369e-03 0
1.1159874099000109e-02 6.5556640796354056e-04 0
1.1317066234095067e-02 6.8092043062882774e-04 0
1.1262197176505642e-02 1.2654555560764503e-03 0
1.1413156215695674e-02 1.2311956896842811e-03 0
1.0829404264843847e-02 6.7726555419346274e-04 0
1.0982295220546218e-02 6.5809143102244525e-04 0
1.0934677411319010e-02 1.2758880298851937e-03 0
1.1091578336042299e-02 1.2694724600005067e-03 0
1.0497744016903933e-02 7.0411548378204627e-04 0
1.0681910099323032e-02 6.9295785939066737e-04 0
1.0568104439411991e-02 1.3604558444275763e-03 0
1.0764320686320321e-02 1.3171928940200147e-03 0
1.0099643836745999e-02 7.3237998913406373e-04 0
1.0121774697970378e-02 9.3267588221325741e-04 0
1.0292188208764146e-02 7.1452221453103897e-04 0
1.0106084102686048e-02 8.3018753199929967e-04 0
1.0182514343207301e-02 1.1617612661978186e-03 0
1.0143817537866948e-02 1.0403584900326554e-03 0
1.0249058166914822e-02 1.3747037210170947e-03 0
1.0397851157261264e-02 1.3718394105412788e-03 0
1.0227749134756004e-02 1.2720257692488638e-03 0

VECTORS Stress float
1.3883643060011204e+02 -5.3608169169353019e+01 0
1.1172484423256908e+02 6.0874649357688035e+00 0
1.1831993991641659e+02 -7.8598384916021606e+00 0
1.2689102926925364e+02 -5.2578037814839654e+01 0
9.7287490403521886e+01 6.2740075620966920e+00 0
1.0429618225422968e+02 -7.5451902641516488e+00 0
1.1619077533338394e+02 -5.2368056572007617e+00 0
1.1361621083407196e+02 1.1228672658375514e+00 0
1.0244364511841751e+02 -4.8061039704869817e+00 0
9.9454339527010902e+01 1.4461071037981936e+00 0
1.1526613582126072e+02 -4.5158377429018923e+00 0
1.1594172377276274e+02 -5.4275104030197738e+00 0
1.0253342806446585e+02 -4.0926120992061623e+00 0
1.0273132352498098e+02 -4.9809609872228080e+00 0
1.1447964827559636e+02 -4.6633718447655852e+00 0
1.1474731031896053e+02 -4.4225815187548498e+00 0
1.0357923509460372e+02 -4.2151514029146711e+00 0
1.0293593803459265e+02 -3.9759976036489952e+00 0
1.1357767793282925e+02 -3.9589586897485916e+00 0
1.1408085458273904e+02 -4.5049505825313254e+00 0
1.0525951315337035e+02 -3.6395335585496227e+00 0
1.0437887476836850e+02 -4.0998161278085625e+00 0
1.1239725991297462e+02 -3.0200433193553700e+00 0
1.1307859508196108e+02 -3.4230006452109656e+00 0
1.0744986538093792e+02 -2.8658319622229378e+00 0
1.0623668330561745e+02 -3.2009970451465257e+00 0
1.1093651181105429e+02 -2.3703762781802737e+00 0
1.1176460293583651e+02 -2.6914538648252950e+00 0
1.1026827031428829e+02 -2.3255978878949435e+00 0
1.0872765720456087e+02 -2.6111128918627422e+00 0
1.0919912285757907e+02 -1.2641348503726775e+00 0
1.1008827894738563e+02 -1.9491954324146405e+00 0
1.1388952981138119e+02 -1.2454073544915261e+00 0
1.1195219792672607e+02 -1.9296663080963512e+00 0
1.0721109663393426e+02 6.2077077447592899e-01 0
1.0820494486569859e+02 -3.1104630592817983e-01 0
1.1852897559201887e+02 7.2792102842186779e-01 0
1.1614687864662147e+02 -2.5414800941673121e-01 0
1.0470008762688397e+02 1.5857637391244452e+00 0
1.0600697648415999e+02 1.2246685567740059e+00 0
1.2395452430694468e+02 1.8990005265935963e+00 0
1.2122156963108515e+02 1.4378268388269575e+00 0
1.0136337686624789e+02 1.3978727687887798e+00 0
1.0316182338906427e+02 1.6075361520172464e+00 0
1.2959453405418884e+02 1.7423119835080882e+00 0
1.2677258879957114e+02 1.9622262603903451e+00 0
9.6981936111745256e+01 8.3722515032822997e-01 0
9.9327083342804727e+01 1.1268594701958321e+00 0
1.3505128731670314e+02 1.1125737133288069e+00 0
1.3233687822099955e+02 1.4409672776639226e+00 0
9.1283367839289497e+01 6.0065432971987320e-01 0
9.4291750304245141e+01 6.9563467640107746e-01 0
1.3977647430831297e+02 8.0152269250139341e-01 0
1.3753903525287305e+02 9.2908814771217862e-01 0
8.3840221131774769e+01 2.2560265350412578e-01 0
8.7793468342764044e+01 6.0124799400371387e-01 0
1.4330677092407154e+02 5.4250658025280529e-01 0
1.4167832660155639e+02 7.9860831096060281e-01 0
7.3549331877929774e+01 7.2111464561029948e-01 0
7.9265720049968920e+01 -3.3562684610947713e-01 0
1.4415232508137913e+02 1.0863858317960933e+00 0
1.4444113990790203e+02 1.7975703153447853e-01 0
5.8012850113927158e+01 5.1347139992083441e+00 0
6.6567570190268640e+01 4.9149659271848520e+00 0
1.3961025365206808e+02 4.3790560447766751e+00 0
1.4138707416019804e+02 4.2090793239549242e+00 0
3.3169901608703967e+01 -3.5145652294186561e+01 0
4.7958699719530607e+01 -1.7438615901538938e+01 0
1.5404978658049430e+02 -2.3981262715135045e+01 0
1.4825988460951044e+02 -1.2003906549384581e+01 0
-1.5721009583524676e+01 2.0014869819015928e+02 0
1.3554902829045758e+00 2.0816364727954797e+02 0
1.2590406296889384e+01 2.6351739652345088e+01 0
-1.0066991116742727e+00 2.1502738648532608e+02 0
-3.9428483563395318e+00 1.7172509256990389e+02 0
-1.1444831497608092e+00 1.9221962746195172e+02 0
1.9573758180470982e+01 1.3860513326560741e+02 0
1.1704529829652380e+02 1.7598048866742701e+01 0
-9.3621150005579068e-01 1.5231054322021436e+02 0

