# vtk DataFile Version 2.0

ASCII

DATASET UNSTRUCTURED_GRID

POINTS 79 float 

-5.0000000000000003e-02  0.0000000000000000e+00  0.0000000000000000e+00
-5.0000000000000003e-02  5.5555555555555552e-02  0.0000000000000000e+00
-5.0000000000000003e-02  2.7777777777777776e-02  0.0000000000000000e+00
5.0000000000000003e-02  0.0000000000000000e+00  0.0000000000000000e+00
5.0000000000000003e-02  5.5555555555555552e-02  0.0000000000000000e+00
5.0000000000000003e-02  2.7777777777777776e-02  0.0000000000000000e+00
-5.0000000000000003e-02  1.1111111111111110e-01  0.0000000000000000e+00
-5.0000000000000003e-02  8.3333333333333329e-02  0.0000000000000000e+00
5.0000000000000003e-02  1.1111111111111110e-01  0.0000000000000000e+00
5.0000000000000003e-02  8.3333333333333329e-02  0.0000000000000000e+00
-5.0000000000000003e-02  1.6666666666666666e-01  0.0000000000000000e+00
-5.0000000000000003e-02  1.3888888888888890e-01  0.0000000000000000e+00
5.0000000000000003e-02  1.6666666666666666e-01  0.0000000000000000e+00
5.0000000000000003e-02  1.3888888888888890e-01  0.0000000000000000e+00
-5.0000000000000003e-02  2.2222222222222221e-01  0.0000000000000000e+00
-5.0000000000000003e-02  1.9444444444444442e-01  0.0000000000000000e+00
5.0000000000000003e-02  2.2222222222222221e-01  0.0000000000000000e+00
5.0000000000000003e-02  1.9444444444444442e-01  0.0000000000000000e+00
-5.0000000000000003e-02  2.7777777777777779e-01  0.0000000000000000e+00
-5.0000000000000003e-02  2.5000000000000000e-01  0.0000000000000000e+00
5.0000000000000003e-02  2.7777777777777779e-01  0.0000000000000000e+00
5.0000000000000003e-02  2.5000000000000000e-01  0.0000000000000000e+00
-5.0000000000000003e-02  3.3333333333333331e-01  0.0000000000000000e+00
-5.0000000000000003e-02  3.0555555555555558e-01  0.0000000000000000e+00
5.0000000000000003e-02  3.3333333333333331e-01  0.0000000000000000e+00
5.0000000000000003e-02  3.0555555555555558e-01  0.0000000000000000e+00
-5.0000000000000003e-02  3.8888888888888884e-01  0.0000000000000000e+00
-5.0000000000000003e-02  3.6111111111111105e-01  0.0000000000000000e+00
5.0000000000000003e-02  3.8888888888888884e-01  0.0000000000000000e+00
5.0000000000000003e-02  3.6111111111111105e-01  0.0000000000000000e+00
-5.0000000000000003e-02  4.4444444444444442e-01  0.0000000000000000e+00
-5.0000000000000003e-02  4.1666666666666663e-01  0.0000000000000000e+00
5.0000000000000003e-02  4.4444444444444442e-01  0.0000000000000000e+00
5.0000000000000003e-02  4.1666666666666663e-01  0.0000000000000000e+00
-5.0000000000000003e-02  5.0000000000000000e-01  0.0000000000000000e+00
-5.0000000000000003e-02  4.7222222222222221e-01  0.0000000000000000e+00
5.0000000000000003e-02  5.0000000000000000e-01  0.0000000000000000e+00
5.0000000000000003e-02  4.7222222222222221e-01  0.0000000000000000e+00
-5.0000000000000003e-02  5.5555555555555558e-01  0.0000000000000000e+00
-5.0000000000000003e-02  5.2777777777777779e-01  0.0000000000000000e+00
5.0000000000000003e-02  5.5555555555555558e-01  0.0000000000000000e+00
5.0000000000000003e-02  5.2777777777777779e-01  0.0000000000000000e+00
-5.0000000000000003e-02  6.1111111111111105e-01  0.0000000000000000e+00
-5.0000000000000003e-02  5.8333333333333326e-01  0.0000000000000000e+00
5.0000000000000003e-02  6.1111111111111105e-01  0.0000000000000000e+00
5.0000000000000003e-02  5.8333333333333326e-01  0.0000000000000000e+00
-5.0000000000000003e-02  6.6666666666666663e-01  0.0000000000000000e+00
-5.0000000000000003e-02  6.3888888888888884e-01  0.0000000000000000e+00
5.0000000000000003e-02  6.6666666666666663e-01  0.0000000000000000e+00
5.0000000000000003e-02  6.3888888888888884e-01  0.0000000000000000e+00
-5.0000000000000003e-02  7.2222222222222221e-01  0.0000000000000000e+00
-5.0000000000000003e-02  6.9444444444444442e-01  0.0000000000000000e+00
5.0000000000000003e-02  7.2222222222222221e-01  0.0000000000000000e+00
5.0000000000000003e-02  6.9444444444444442e-01  0.0000000000000000e+00
-5.0000000000000003e-02  7.7777777777777768e-01  0.0000000000000000e+00
-5.0000000000000003e-02  7.5000000000000000e-01  0.0000000000000000e+00
5.0000000000000003e-02  7.7777777777777768e-01  0.0000000000000000e+00
5.0000000000000003e-02  7.5000000000000000e-01  0.0000000000000000e+00
-5.0000000000000003e-02  8.3333333333333326e-01  0.0000000000000000e+00
-5.0000000000000003e-02  8.0555555555555547e-01  0.0000000000000000e+00
5.0000000000000003e-02  8.3333333333333326e-01  0.0000000000000000e+00
5.0000000000000003e-02  8.0555555555555547e-01  0.0000000000000000e+00
-5.0000000000000003e-02  8.8888888888888884e-01  0.0000000000000000e+00
-5.0000000000000003e-02  8.6111111111111105e-01  0.0000000000000000e+00
5.0000000000000003e-02  8.8888888888888884e-01  0.0000000000000000e+00
5.0000000000000003e-02  8.6111111111111105e-01  0.0000000000000000e+00
-5.0000000000000003e-02  9.4444444444444442e-01  0.0000000000000000e+00
-5.0000000000000003e-02  9.1666666666666663e-01  0.0000000000000000e+00
5.0000000000000003e-02  9.4444444444444442e-01  0.0000000000000000e+00
5.0000000000000003e-02  9.1666666666666663e-01  0.0000000000000000e+00
-5.0000000000000003e-02  1.0000000000000000e+00  0.0000000000000000e+00
-1.6666666666666670e-02  1.0000000000000000e+00  0.0000000000000000e+00
-5.0000000000000003e-02  9.7222222222222221e-01  0.0000000000000000e+00
-3.3333333333333340e-02  1.0000000000000000e+00  0.0000000000000000e+00
1.6666666666666663e-02  1.0000000000000000e+00  0.0000000000000000e+00
-3.4694469519536142e-18  1.0000000000000000e+00  0.0000000000000000e+00
5.0000000000000003e-02  1.0000000000000000e+00  0.0000000000000000e+00
5.0000000000000003e-02  9.7222222222222221e-01  0.0000000000000000e+00
3.3333333333333333e-02  1.0000000000000000e+00  0.0000000000000000e+00

CELLS 0 0


CELL_TYPES 0


POINT_DATA 79

VECTORS VertexNormals float

0.0000000000000000e+00 0.0000000000000000e+00 0
0.0000000000000000e+00 0.0000000000000000e+00 0
0.0000000000000000e+00 0.0000000000000000e+00 0
0.0000000000000000e+00 0.0000000000000000e+00 0
0.0000000000000000e+00 0.0000000000000000e+00 0
0.0000000000000000e+00 0.0000000000000000e+00 0
0.0000000000000000e+00 0.0000000000000000e+00 0
0.0000000000000000e+00 0.0000000000000000e+00 0
0.0000000000000000e+00 0.0000000000000000e+00 0
0.0000000000000000e+00 0.0000000000000000e+00 0
0.0000000000000000e+00 0.0000000000000000e+00 0
0.0000000000000000e+00 0.0000000000000000e+00 0
0.0000000000000000e+00 0.0000000000000000e+00 0
0.0000000000000000e+00 0.0000000000000000e+00 0
0.0000000000000000e+00 0.0000000000000000e+00 0
0.0000000000000000e+00 0.0000000000000000e+00 0
0.0000000000000000e+00 0.0000000000000000e+00 0
0.0000000000000000e+00 0.0000000000000000e+00 0
0.0000000000000000e+00 0.0000000000000000e+00 0
0.0000000000000000e+00 0.0000000000000000e+00 0
0.0000000000000000e+00 0.0000000000000000e+00 0
0.0000000000000000e+00 0.0000000000000000e+00 0
0.0000000000000000e+00 0.0000000000000000e+00 0
0.0000000000000000e+00 0.0000000000000000e+00 0
0.0000000000000000e+00 0.0000000000000000e+00 0
0.0000000000000000e+00 0.0000000000000000e+00 0
0.0000000000000000e+00 0.0000000000000000e+00 0
0.0000000000000000e+00 0.0000000000000000e+00 0
0.0000000000000000e+00 0.0000000000000000e+00 0
0.0000000000000000e+00 0.0000000000000000e+00 0
0.0000000000000000e+00 0.0000000000000000e+00 0
0.0000000000000000e+00 0.0000000000000000e+00 0
0.0000000000000000e+00 0.0000000000000000e+00 0
0.0000000000000000e+00 0.0000000000000000e+00 0
0.0000000000000000e+00 0.0000000000000000e+00 0
0.0000000000000000e+00 0.0000000000000000e+00 0
0.0000000000000000e+00 0.0000000000000000e+00 0
0.0000000000000000e+00 0.0000000000000000e+00 0
0.0000000000000000e+00 0.0000000000000000e+00 0
0.0000000000000000e+00 0.0000000000000000e+00 0
0.0000000000000000e+00 0.0000000000000000e+00 0
0.0000000000000000e+00 0.0000000000000000e+00 0
0.0000000000000000e+00 0.0000000000000000e+00 0
0.0000000000000000e+00 0.0000000000000000e+00 0
0.0000000000000000e+00 0.0000000000000000e+00 0
0.0000000000000000e+00 0.0000000000000000e+00 0
0.0000000000000000e+00 0.0000000000000000e+00 0
0.0000000000000000e+00 0.0000000000000000e+00 0
0.0000000000000000e+00 0.0000000000000000e+00 0
0.0000000000000000e+00 0.0000000000000000e+00 0
0.0000000000000000e+00 0.0000000000000000e+00 0
0.0000000000000000e+00 0.0000000000000000e+00 0
0.0000000000000000e+00 0.0000000000000000e+00 0
0.0000000000000000e+00 0.0000000000000000e+00 0
0.0000000000000000e+00 0.0000000000000000e+00 0
0.0000000000000000e+00 0.0000000000000000e+00 0
0.0000000000000000e+00 0.0000000000000000e+00 0
0.0000000000000000e+00 0.0000000000000000e+00 0
0.0000000000000000e+00 0.0000000000000000e+00 0
0.0000000000000000e+00 0.0000000000000000e+00 0
0.0000000000000000e+00 0.0000000000000000e+00 0
0.0000000000000000e+00 0.0000000000000000e+00 0
0.0000000000000000e+00 0.0000000000000000e+00 0
0.0000000000000000e+00 0.0000000000000000e+00 0
0.0000000000000000e+00 0.0000000000000000e+00 0
0.0000000000000000e+00 0.0000000000000000e+00 0
0.0000000000000000e+00 0.0000000000000000e+00 0
0.0000000000000000e+00 0.0000000000000000e+00 0
0.0000000000000000e+00 0.0000000000000000e+00 0
0.0000000000000000e+00 0.0000000000000000e+00 0
0.0000000000000000e+00 0.0000000000000000e+00 0
0.0000000000000000e+00 0.0000000000000000e+00 0
0.0000000000000000e+00 0.0000000000000000e+00 0
0.0000000000000000e+00 0.0000000000000000e+00 0
0.0000000000000000e+00 0.0000000000000000e+00 0
0.0000000000000000e+00 0.0000000000000000e+00 0
0.0000000000000000e+00 0.0000000000000000e+00 0
0.0000000000000000e+00 0.0000000000000000e+00 0
0.0000000000000000e+00 0.0000000000000000e+00 0

VECTORS Displacement float
0.0000000000000000e+00 0.0000000000000000e+00 0
1.8380353634651373e-03 2.0894549070366187e-03 0
8.0972003349873427e-04 1.1277966491802822e-03 0
0.0000000000000000e+00 0.0000000000000000e+00 0
1.8010659079497364e-03 -2.2577605318152717e-03 0
7.7985910143945399e-04 -1.1840482637211105e-03 0
5.4776765283355540e-03 3.8912859207271347e-03 0
3.3864815288184398e-03 2.9895862904000328e-03 0
5.5550962287005063e-03 -4.3011681768994866e-03 0
3.4074573926267076e-03 -3.2876995777632468e-03 0
1.1254166225746702e-02 5.6366927226783690e-03 0
8.1063573048800082e-03 4.7901568477554026e-03 0
1.1277611660006218e-02 -6.2095721953575427e-03 0
8.1601861893370719e-03 -5.2852105198401807e-03 0
1.8856756924578187e-02 7.1113996028783289e-03 0
1.4872829710434290e-02 6.3917741520566063e-03 0
1.8942524301099876e-02 -7.8361013057263919e-03 0
1.4926902708406284e-02 -7.0456852285904854e-03 0
2.8097747663073692e-02 8.6824403454146843e-03 0
2.3223846347222063e-02 7.8833119592524939e-03 0
2.8073853359248460e-02 -9.5869417308930213e-03 0
2.3272345537962355e-02 -8.6852414863277261e-03 0
3.9215651812783928e-02 1.0353155334345884e-02 0
3.3415308567549748e-02 9.4970249402540965e-03 0
3.9286692262358182e-02 -1.1446345443781585e-02 0
3.3402785122379722e-02 -1.0517335756141293e-02 0
5.2515587279573506e-02 1.1931379362251115e-02 0
4.5617365142866989e-02 1.1192965325508134e-02 0
5.2479941949246572e-02 -1.3081593262325724e-02 0
4.5684294419115298e-02 -1.2300522713114166e-02 0
6.7266225956382222e-02 1.3074896287998052e-02 0
5.9769267721894830e-02 1.2528757467027328e-02 0
6.7320326658834584e-02 -1.4396084368141594e-02 0
5.9712174090400999e-02 -1.3782775224565310e-02 0
8.3261337267711427e-02 1.4093967361792008e-02 0
7.5068883086964855e-02 1.3623851984322474e-02 0
8.3246928473035248e-02 -1.5440164376731437e-02 0
7.5163358126170365e-02 -1.4940329881613382e-02 0
1.0019329224263404e-01 1.4648148353156254e-02 0
9.1697187517140621e-02 1.4404607178917119e-02 0
1.0016891538950901e-01 -1.6189004480944867e-02 0
9.1606735703140527e-02 -1.5857748127021370e-02 0
1.1759312494162844e-01 1.5225192028981873e-02 0
1.0877887340086313e-01 1.4930123231770573e-02 0
1.1760518823676216e-01 -1.6698831384438808e-02 0
1.0885191278805173e-01 -1.6451069806105983e-02 0
1.3569713849589432e-01 1.5676354580105249e-02 0
1.2659860865931738e-01 1.5461095630738456e-02 0
1.3563510025535644e-01 -1.7319856842308638e-02 0
1.2649225092282534e-01 -1.6999795540191771e-02 0
1.5436863296200271e-01 1.6158542004386971e-02 0
1.4492278439547579e-01 1.5922696231458026e-02 0
1.5440506519698777e-01 -1.7836838778738012e-02 0
1.4496841153883389e-01 -1.7593698815986838e-02 0
1.7362643251545884e-01 1.6323038457159746e-02 0
1.6401156385271931e-01 1.6287408140247209e-02 0
1.7357207236579475e-01 -1.8161688680178513e-02 0
1.6395974804626851e-01 -1.8032095069423520e-02 0
1.9278469073535970e-01 1.6386812701123382e-02 0
1.8317969798399142e-01 1.6354575930855951e-02 0
1.9283825254655668e-01 -1.8241853484196879e-02 0
1.8320493438344798e-01 -1.8222455734305323e-02 0
2.1203503701660553e-01 1.6444841047221569e-02 0
2.0241346889782494e-01 1.6402302266149693e-02 0
2.1193459901484915e-01 -1.8384220171746180e-02 0
2.0239017789674810e-01 -1.8277358966890707e-02 0
2.3147996072317109e-01 1.6631069382592317e-02 0
2.2170512072615611e-01 1.6534886231414844e-02 0
2.3143443854819015e-01 -1.8716106055246321e-02 0
2.2161257331874290e-01 -1.8563904730025928e-02 0
2.5122247005104092e-01 1.6709049192863180e-02 0
2.5118761709899246e-01 4.8834243016482332e-03 0
2.4133706730561033e-01 1.6683439551658658e-02 0
2.5120831812235245e-01 1.0784447243621573e-02 0
2.5119940917926820e-01 -6.9528360081113271e-03 0
2.5118288245487203e-01 -1.0240892823963053e-03 0
2.5123099864192633e-01 -1.8835762113409361e-02 0
2.4132222818082927e-01 -1.8801161599195100e-02 0
2.5122044890280609e-01 -1.2891335988924398e-02 0

VECTORS Stress float
1.5400917679795543e+02 -1.8870974495903639e+01 0
1.4927363717473904e+02 -4.4629223693795419e+00 0
1.5046482008560719e+02 -6.5531045938181753e+00 0
-2.1188174430165070e+01 -1.0417419203886100e+01 0
-2.7189087864245771e+01 3.4089692570456243e+00 0
-2.5752212675134530e+01 -2.7866691118968251e-01 0
1.5000763851496828e+02 -1.2652916346189263e+01 0
1.4959448195927274e+02 -8.2824227307490386e+00 0
-2.6318319574805884e+01 2.1133835572833535e+00 0
-2.6846461816261211e+01 2.9757072225665464e+00 0
1.4951401811854944e+02 -1.7630293282849685e+01 0
1.4981669180065037e+02 -1.5392689846984540e+01 0
-2.6274647560533715e+01 3.3294563596767546e+00 0
-2.6240282060220352e+01 2.6486092337904399e+00 0
1.4846855582467191e+02 -2.1736267872445769e+01 0
1.4901505652364165e+02 -1.9709823658523987e+01 0
-2.5798647484206398e+01 4.0624113352715341e+00 0
-2.6045296663844226e+01 3.7698813691599171e+00 0
1.4646650386197192e+02 -2.5925436846536538e+01 0
1.4760856277835117e+02 -2.3795917238351741e+01 0
-2.4964880700582398e+01 4.8232070402137044e+00 0
-2.5414314450286327e+01 4.4163854155278841e+00 0
1.4323839869054888e+02 -3.0544374672869935e+01 0
1.4507855770251754e+02 -2.8169898391605024e+01 0
-2.3854312779102198e+01 5.4839070595493329e+00 0
-2.4502016324574520e+01 5.1771199169840738e+00 0
1.3925557764653777e+02 -3.4264348707594614e+01 0
1.4131483459065944e+02 -3.2759497521122995e+01 0
-2.2396130668673909e+01 5.8872329213335659e+00 0
-2.3218321865457540e+01 5.7658331582521916e+00 0
1.3492060114566186e+02 -3.6417390996494909e+01 0
1.3715712094459440e+02 -3.5380580145834337e+01 0
-2.0514035220545718e+01 5.9322357057052626e+00 0
-2.1506628822827576e+01 5.9601833457161231e+00 0
1.3009692041286885e+02 -3.8141005922819147e+01 0
1.3249696480024571e+02 -3.7403627975271817e+01 0
-1.8201877562463931e+01 5.6135713152900246e+00 0
-1.9371883492028086e+01 5.7713891800505834e+00 0
1.2532040835273875e+02 -3.8001441506705326e+01 0
1.2772261331579831e+02 -3.8188620872386394e+01 0
-1.5611652112906850e+01 5.0244584151358280e+00 0
-1.6907608886350882e+01 5.3056872475334931e+00 0
1.1979137427400880e+02 -3.7718292176449751e+01 0
1.2267945035575789e+02 -3.7839066266952855e+01 0
-1.2943195807715220e+01 4.3306915654623817e+00 0
-1.4277853359072616e+01 4.6902865805544085e+00 0
1.1347567510203857e+02 -3.7065296713472257e+01 0
1.1673282126538390e+02 -3.7503106171517416e+01 0
-1.0364523561761921e+01 3.6134559161561617e+00 0
-1.1651797480173862e+01 3.9927194926610241e+00 0
1.0637431126051320e+02 -3.5754912455339323e+01 0
1.1003382102334805e+02 -3.6494384591495958e+01 0
-7.8417350856281089e+00 2.8785462150438157e+00 0
-9.1104653200474601e+00 3.2925845819230215e+00 0
9.8488465893918487e+01 -3.3834855723998565e+01 0
1.0249928677355075e+02 -3.4860468093872001e+01 0
-5.2476129381007226e+00 1.9845674106512590e+00 0
-6.5592741810067352e+00 2.4710653077408402e+00 0
8.9572387284961167e+01 -3.0646508686960473e+01 0
9.4282638975989272e+01 -3.2562658118742164e+01 0
-2.6992913857734138e+00 1.1568212081177105e+00 0
-3.9248759301625356e+00 1.4289494339317415e+00 0
7.8231102599936094e+01 -2.5518818028846596e+01 0
8.4167026845863575e+01 -2.7588381293336280e+01 0
-7.1315475203055456e-01 9.5770971966046048e-01 0
-1.7169414063154491e+00 1.2823050848822266e+00 0
6.5714760208018475e+01 -3.2913770009302709e+01 0
7.2754317923665297e+01 -3.0055731336571625e+01 0
2.0032087227243736e+00 -3.8769878124430459e+00 0
7.9183435677270353e-01 -1.9629005659818333e+00 0
3.0844178749004620e+01 4.6488715661219416e+01 0
1.3537510973147462e+01 4.4223103284075385e+01 0
5.1829993064091362e+01 -1.0393734201924236e+01 0
1.8662807556567152e+01 5.2228365376704083e+01 0
9.8555688551079257e+00 2.2627418581414474e+01 0
1.1380703527823414e+01 3.2240683388620241e+01 0
-4.4432936874270084e+00 1.9600949235175960e+01 0
1.2652766651158700e+00 1.5995947309397334e+00 0
5.9506103371287580e+00 1.7155482976438897e+01 0

