# vtk DataFile Version 2.0

ASCII

DATASET UNSTRUCTURED_GRID

POINTS 157 double 

-5.00000000000000028e-02  0.00000000000000000e+00  0.00000000000000000e+00
-5.00000000000000028e-02  5.55555555555555525e-02  0.00000000000000000e+00
-5.00000000000000028e-02  9.59295359144507823e-03  0.00000000000000000e+00
-5.00000000000000028e-02  2.77777777777777762e-02  0.00000000000000000e+00
-5.00000000000000028e-02  4.59626019641104708e-02  0.00000000000000000e+00
4.99999999999999958e-02  0.00000000000000000e+00  0.00000000000000000e+00
4.99999999999999958e-02  5.55555555555555525e-02  0.00000000000000000e+00
4.99999999999999958e-02  9.59295359144507823e-03  0.00000000000000000e+00
4.99999999999999958e-02  2.77777777777777762e-02  0.00000000000000000e+00
4.99999999999999958e-02  4.59626019641104708e-02  0.00000000000000000e+00
-5.00000000000000028e-02  1.11111111111111105e-01  0.00000000000000000e+00
-5.00000000000000028e-02  6.51485091470006272e-02  0.00000000000000000e+00
-5.00000000000000028e-02  8.33333333333333287e-02  0.00000000000000000e+00
-5.00000000000000028e-02  1.01518157519666030e-01  0.00000000000000000e+00
4.99999999999999958e-02  1.11111111111111105e-01  0.00000000000000000e+00
4.99999999999999958e-02  6.51485091470006272e-02  0.00000000000000000e+00
4.99999999999999958e-02  8.33333333333333287e-02  0.00000000000000000e+00
4.99999999999999958e-02  1.01518157519666030e-01  0.00000000000000000e+00
-5.00000000000000028e-02  1.66666666666666657e-01  0.00000000000000000e+00
-5.00000000000000028e-02  1.20704064702556180e-01  0.00000000000000000e+00
-5.00000000000000028e-02  1.38888888888888895e-01  0.00000000000000000e+00
-5.00000000000000028e-02  1.57073713075221583e-01  0.00000000000000000e+00
4.99999999999999958e-02  1.66666666666666657e-01  0.00000000000000000e+00
4.99999999999999958e-02  1.20704064702556180e-01  0.00000000000000000e+00
4.99999999999999958e-02  1.38888888888888895e-01  0.00000000000000000e+00
4.99999999999999958e-02  1.57073713075221583e-01  0.00000000000000000e+00
-5.00000000000000028e-02  2.22222222222222210e-01  0.00000000000000000e+00
-5.00000000000000028e-02  1.76259620258111732e-01  0.00000000000000000e+00
-5.00000000000000028e-02  1.94444444444444420e-01  0.00000000000000000e+00
-5.00000000000000028e-02  2.12629268630777135e-01  0.00000000000000000e+00
4.99999999999999958e-02  2.22222222222222210e-01  0.00000000000000000e+00
4.99999999999999958e-02  1.76259620258111732e-01  0.00000000000000000e+00
4.99999999999999958e-02  1.94444444444444420e-01  0.00000000000000000e+00
4.99999999999999958e-02  2.12629268630777135e-01  0.00000000000000000e+00
-5.00000000000000028e-02  2.77777777777777790e-01  0.00000000000000000e+00
-5.00000000000000028e-02  2.31815175813667285e-01  0.00000000000000000e+00
-5.00000000000000028e-02  2.50000000000000000e-01  0.00000000000000000e+00
-5.00000000000000028e-02  2.68184824186332715e-01  0.00000000000000000e+00
4.99999999999999958e-02  2.77777777777777790e-01  0.00000000000000000e+00
4.99999999999999958e-02  2.31815175813667285e-01  0.00000000000000000e+00
4.99999999999999958e-02  2.50000000000000000e-01  0.00000000000000000e+00
4.99999999999999958e-02  2.68184824186332715e-01  0.00000000000000000e+00
-5.00000000000000028e-02  3.33333333333333315e-01  0.00000000000000000e+00
-5.00000000000000028e-02  2.87370731369222865e-01  0.00000000000000000e+00
-5.00000000000000028e-02  3.05555555555555580e-01  0.00000000000000000e+00
-5.00000000000000028e-02  3.23740379741888240e-01  0.00000000000000000e+00
4.99999999999999958e-02  3.33333333333333315e-01  0.00000000000000000e+00
4.99999999999999958e-02  2.87370731369222865e-01  0.00000000000000000e+00
4.99999999999999958e-02  3.05555555555555580e-01  0.00000000000000000e+00
4.99999999999999958e-02  3.23740379741888240e-01  0.00000000000000000e+00
-5.00000000000000028e-02  3.88888888888888840e-01  0.00000000000000000e+00
-5.00000000000000028e-02  3.42926286924778334e-01  0.00000000000000000e+00
-5.00000000000000028e-02  3.61111111111111049e-01  0.00000000000000000e+00
-5.00000000000000028e-02  3.79295935297443765e-01  0.00000000000000000e+00
4.99999999999999958e-02  3.88888888888888840e-01  0.00000000000000000e+00
4.99999999999999958e-02  3.42926286924778334e-01  0.00000000000000000e+00
4.99999999999999958e-02  3.61111111111111049e-01  0.00000000000000000e+00
4.99999999999999958e-02  3.79295935297443765e-01  0.00000000000000000e+00
-5.00000000000000028e-02  4.44444444444444420e-01  0.00000000000000000e+00
-5.00000000000000028e-02  3.98481842480333914e-01  0.00000000000000000e+00
-5.00000000000000028e-02  4.16666666666666630e-01  0.00000000000000000e+00
-5.00000000000000028e-02  4.34851490852999345e-01  0.00000000000000000e+00
4.99999999999999958e-02  4.44444444444444420e-01  0.00000000000000000e+00
4.99999999999999958e-02  3.98481842480333914e-01  0.00000000000000000e+00
4.99999999999999958e-02  4.16666666666666630e-01  0.00000000000000000e+00
4.99999999999999958e-02  4.34851490852999345e-01  0.00000000000000000e+00
-5.00000000000000028e-02  5.00000000000000000e-01  0.00000000000000000e+00
-5.00000000000000028e-02  4.54037398035889495e-01  0.00000000000000000e+00
-5.00000000000000028e-02  4.72222222222222210e-01  0.00000000000000000e+00
-5.00000000000000028e-02  4.90407046408554925e-01  0.00000000000000000e+00
4.99999999999999958e-02  5.00000000000000000e-01  0.00000000000000000e+00
4.99999999999999958e-02  4.54037398035889495e-01  0.00000000000000000e+00
4.99999999999999958e-02  4.72222222222222210e-01  0.00000000000000000e+00
4.99999999999999958e-02  4.90407046408554925e-01  0.00000000000000000e+00
-5.00000000000000028e-02  5.55555555555555580e-01  0.00000000000000000e+00
-5.00000000000000028e-02  5.09592953591445075e-01  0.00000000000000000e+00
-5.00000000000000028e-02  5.27777777777777790e-01  0.00000000000000000e+00
-5.00000000000000028e-02  5.45962601964110505e-01  0.00000000000000000e+00
4.99999999999999958e-02  5.55555555555555580e-01  0.00000000000000000e+00
4.99999999999999958e-02  5.09592953591445075e-01  0.00000000000000000e+00
4.99999999999999958e-02  5.27777777777777790e-01  0.00000000000000000e+00
4.99999999999999958e-02  5.45962601964110505e-01  0.00000000000000000e+00
-5.00000000000000028e-02  6.11111111111111049e-01  0.00000000000000000e+00
-5.00000000000000028e-02  5.65148509147000655e-01  0.00000000000000000e+00
-5.00000000000000028e-02  5.83333333333333259e-01  0.00000000000000000e+00
-5.00000000000000028e-02  6.01518157519665975e-01  0.00000000000000000e+00
4.99999999999999958e-02  6.11111111111111049e-01  0.00000000000000000e+00
4.99999999999999958e-02  5.65148509147000655e-01  0.00000000000000000e+00
4.99999999999999958e-02  5.83333333333333259e-01  0.00000000000000000e+00
4.99999999999999958e-02  6.01518157519665975e-01  0.00000000000000000e+00
-5.00000000000000028e-02  6.66666666666666630e-01  0.00000000000000000e+00
-5.00000000000000028e-02  6.20704064702556013e-01  0.00000000000000000e+00
-5.00000000000000028e-02  6.38888888888888840e-01  0.00000000000000000e+00
-5.00000000000000028e-02  6.57073713075221555e-01  0.00000000000000000e+00
4.99999999999999958e-02  6.66666666666666630e-01  0.00000000000000000e+00
4.99999999999999958e-02  6.20704064702556013e-01  0.00000000000000000e+00
4.99999999999999958e-02  6.38888888888888840e-01  0.00000000000000000e+00
4.99999999999999958e-02  6.57073713075221555e-01  0.00000000000000000e+00
-5.00000000000000028e-02  7.22222222222222210e-01  0.00000000000000000e+00
-5.00000000000000028e-02  6.76259620258111704e-01  0.00000000000000000e+00
-5.00000000000000028e-02  6.94444444444444420e-01  0.00000000000000000e+00
-5.00000000000000028e-02  7.12629268630777135e-01  0.00000000000000000e+00
4.99999999999999958e-02  7.22222222222222210e-01  0.00000000000000000e+00
4.99999999999999958e-02  6.76259620258111704e-01  0.00000000000000000e+00
4.99999999999999958e-02  6.94444444444444420e-01  0.00000000000000000e+00
4.99999999999999958e-02  7.12629268630777135e-01  0.00000000000000000e+00
-5.00000000000000028e-02  7.77777777777777679e-01  0.00000000000000000e+00
-5.00000000000000028e-02  7.31815175813667174e-01  0.00000000000000000e+00
-5.00000000000000028e-02  7.50000000000000000e-01  0.00000000000000000e+00
-5.00000000000000028e-02  7.68184824186332604e-01  0.00000000000000000e+00
4.99999999999999958e-02  7.77777777777777679e-01  0.00000000000000000e+00
4.99999999999999958e-02  7.31815175813667174e-01  0.00000000000000000e+00
4.99999999999999958e-02  7.50000000000000000e-01  0.00000000000000000e+00
4.99999999999999958e-02  7.68184824186332604e-01  0.00000000000000000e+00
-5.00000000000000028e-02  8.33333333333333259e-01  0.00000000000000000e+00
-5.00000000000000028e-02  7.87370731369222754e-01  0.00000000000000000e+00
-5.00000000000000028e-02  8.05555555555555469e-01  0.00000000000000000e+00
-5.00000000000000028e-02  8.23740379741888185e-01  0.00000000000000000e+00
4.99999999999999958e-02  8.33333333333333259e-01  0.00000000000000000e+00
4.99999999999999958e-02  7.87370731369222754e-01  0.00000000000000000e+00
4.99999999999999958e-02  8.05555555555555469e-01  0.00000000000000000e+00
4.99999999999999958e-02  8.23740379741888185e-01  0.00000000000000000e+00
-5.00000000000000028e-02  8.88888888888888840e-01  0.00000000000000000e+00
-5.00000000000000028e-02  8.42926286924778334e-01  0.00000000000000000e+00
-5.00000000000000028e-02  8.61111111111111049e-01  0.00000000000000000e+00
-5.00000000000000028e-02  8.79295935297443765e-01  0.00000000000000000e+00
4.99999999999999958e-02  8.88888888888888840e-01  0.00000000000000000e+00
4.99999999999999958e-02  8.42926286924778334e-01  0.00000000000000000e+00
4.99999999999999958e-02  8.61111111111111049e-01  0.00000000000000000e+00
4.99999999999999958e-02  8.79295935297443765e-01  0.00000000000000000e+00
-5.00000000000000028e-02  9.44444444444444420e-01  0.00000000000000000e+00
-5.00000000000000028e-02  8.98481842480333914e-01  0.00000000000000000e+00
-5.00000000000000028e-02  9.16666666666666630e-01  0.00000000000000000e+00
-5.00000000000000028e-02  9.34851490852999345e-01  0.00000000000000000e+00
4.99999999999999958e-02  9.44444444444444420e-01  0.00000000000000000e+00
4.99999999999999958e-02  8.98481842480333914e-01  0.00000000000000000e+00
4.99999999999999958e-02  9.16666666666666630e-01  0.00000000000000000e+00
4.99999999999999958e-02  9.34851490852999345e-01  0.00000000000000000e+00
-5.00000000000000028e-02  1.00000000000000000e+00  0.00000000000000000e+00
-1.66666666666666699e-02  1.00000000000000000e+00  0.00000000000000000e+00
-5.00000000000000028e-02  9.54037398035889495e-01  0.00000000000000000e+00
-5.00000000000000028e-02  9.72222222222222210e-01  0.00000000000000000e+00
-5.00000000000000028e-02  9.90407046408554925e-01  0.00000000000000000e+00
-4.42442278451329538e-02  1.00000000000000000e+00  0.00000000000000000e+00
-3.33333333333333398e-02  1.00000000000000000e+00  0.00000000000000000e+00
-2.24224388215337189e-02  1.00000000000000000e+00  0.00000000000000000e+00
1.66666666666666630e-02  1.00000000000000000e+00  0.00000000000000000e+00
-1.09108945117996226e-02  1.00000000000000000e+00  0.00000000000000000e+00
-3.46944695195361419e-18  1.00000000000000000e+00  0.00000000000000000e+00
1.09108945117996139e-02  1.00000000000000000e+00  0.00000000000000000e+00
4.99999999999999958e-02  1.00000000000000000e+00  0.00000000000000000e+00
4.99999999999999958e-02  9.54037398035889495e-01  0.00000000000000000e+00
4.99999999999999958e-02  9.72222222222222210e-01  0.00000000000000000e+00
4.99999999999999958e-02  9.90407046408554925e-01  0.00000000000000000e+00
2.24224388215337120e-02  1.00000000000000000e+00  0.00000000000000000e+00
3.33333333333333259e-02  1.00000000000000000e+00  0.00000000000000000e+00
4.42442278451329468e-02  1.00000000000000000e+00  0.00000000000000000e+00

CELLS 0 0


CELL_TYPES 0


POINT_DATA 157

VECTORS VertexNormals double

0.00000000000000000e+00 0.00000000000000000e+00 0
0.00000000000000000e+00 0.00000000000000000e+00 0
0.00000000000000000e+00 0.00000000000000000e+00 0
0.00000000000000000e+00 0.00000000000000000e+00 0
0.00000000000000000e+00 0.00000000000000000e+00 0
0.00000000000000000e+00 0.00000000000000000e+00 0
0.00000000000000000e+00 0.00000000000000000e+00 0
0.00000000000000000e+00 0.00000000000000000e+00 0
0.00000000000000000e+00 0.00000000000000000e+00 0
0.00000000000000000e+00 0.00000000000000000e+00 0
0.00000000000000000e+00 0.00000000000000000e+00 0
0.00000000000000000e+00 0.00000000000000000e+00 0
0.00000000000000000e+00 0.00000000000000000e+00 0
0.00000000000000000e+00 0.00000000000000000e+00 0
0.00000000000000000e+00 0.00000000000000000e+00 0
0.00000000000000000e+00 0.00000000000000000e+00 0
0.00000000000000000e+00 0.00000000000000000e+00 0
0.00000000000000000e+00 0.00000000000000000e+00 0
0.00000000000000000e+00 0.00000000000000000e+00 0
0.00000000000000000e+00 0.00000000000000000e+00 0
0.00000000000000000e+00 0.00000000000000000e+00 0
0.00000000000000000e+00 0.00000000000000000e+00 0
0.00000000000000000e+00 0.00000000000000000e+00 0
0.00000000000000000e+00 0.00000000000000000e+00 0
0.00000000000000000e+00 0.00000000000000000e+00 0
0.00000000000000000e+00 0.00000000000000000e+00 0
0.00000000000000000e+00 0.00000000000000000e+00 0
0.00000000000000000e+00 0.00000000000000000e+00 0
0.00000000000000000e+00 0.00000000000000000e+00 0
0.00000000000000000e+00 0.00000000000000000e+00 0
0.00000000000000000e+00 0.00000000000000000e+00 0
0.00000000000000000e+00 0.00000000000000000e+00 0
0.00000000000000000e+00 0.00000000000000000e+00 0
0.00000000000000000e+00 0.00000000000000000e+00 0
0.00000000000000000e+00 0.00000000000000000e+00 0
0.00000000000000000e+00 0.00000000000000000e+00 0
0.00000000000000000e+00 0.00000000000000000e+00 0
0.00000000000000000e+00 0.00000000000000000e+00 0
0.00000000000000000e+00 0.00000000000000000e+00 0
0.00000000000000000e+00 0.00000000000000000e+00 0
0.00000000000000000e+00 0.00000000000000000e+00 0
0.00000000000000000e+00 0.00000000000000000e+00 0
0.00000000000000000e+00 0.00000000000000000e+00 0
0.00000000000000000e+00 0.00000000000000000e+00 0
0.00000000000000000e+00 0.00000000000000000e+00 0
0.00000000000000000e+00 0.00000000000000000e+00 0
0.00000000000000000e+00 0.00000000000000000e+00 0
0.00000000000000000e+00 0.00000000000000000e+00 0
0.00000000000000000e+00 0.00000000000000000e+00 0
0.00000000000000000e+00 0.00000000000000000e+00 0
0.00000000000000000e+00 0.00000000000000000e+00 0
0.00000000000000000e+00 0.00000000000000000e+00 0
0.00000000000000000e+00 0.00000000000000000e+00 0
0.00000000000000000e+00 0.00000000000000000e+00 0
0.00000000000000000e+00 0.00000000000000000e+00 0
0.00000000000000000e+00 0.00000000000000000e+00 0
0.00000000000000000e+00 0.00000000000000000e+00 0
0.00000000000000000e+00 0.00000000000000000e+00 0
0.00000000000000000e+00 0.00000000000000000e+00 0
0.00000000000000000e+00 0.00000000000000000e+00 0
0.00000000000000000e+00 0.00000000000000000e+00 0
0.00000000000000000e+00 0.00000000000000000e+00 0
0.00000000000000000e+00 0.00000000000000000e+00 0
0.00000000000000000e+00 0.00000000000000000e+00 0
0.00000000000000000e+00 0.00000000000000000e+00 0
0.00000000000000000e+00 0.00000000000000000e+00 0
0.00000000000000000e+00 0.00000000000000000e+00 0
0.00000000000000000e+00 0.00000000000000000e+00 0
0.00000000000000000e+00 0.00000000000000000e+00 0
0.00000000000000000e+00 0.00000000000000000e+00 0
0.00000000000000000e+00 0.00000000000000000e+00 0
0.00000000000000000e+00 0.00000000000000000e+00 0
0.00000000000000000e+00 0.00000000000000000e+00 0
0.00000000000000000e+00 0.00000000000000000e+00 0
0.00000000000000000e+00 0.00000000000000000e+00 0
0.00000000000000000e+00 0.00000000000000000e+00 0
0.00000000000000000e+00 0.00000000000000000e+00 0
0.00000000000000000e+00 0.00000000000000000e+00 0
0.00000000000000000e+00 0.00000000000000000e+00 0
0.00000000000000000e+00 0.00000000000000000e+00 0
0.00000000000000000e+00 0.00000000000000000e+00 0
0.00000000000000000e+00 0.00000000000000000e+00 0
0.00000000000000000e+00 0.00000000000000000e+00 0
0.00000000000000000e+00 0.00000000000000000e+00 0
0.00000000000000000e+00 0.00000000000000000e+00 0
0.00000000000000000e+00 0.00000000000000000e+00 0
0.00000000000000000e+00 0.00000000000000000e+00 0
0.00000000000000000e+00 0.00000000000000000e+00 0
0.00000000000000000e+00 0.00000000000000000e+00 0
0.00000000000000000e+00 0.00000000000000000e+00 0
0.00000000000000000e+00 0.00000000000000000e+00 0
0.00000000000000000e+00 0.00000000000000000e+00 0
0.00000000000000000e+00 0.00000000000000000e+00 0
0.00000000000000000e+00 0.00000000000000000e+00 0
0.00000000000000000e+00 0.00000000000000000e+00 0
0.00000000000000000e+00 0.00000000000000000e+00 0
0.00000000000000000e+00 0.00000000000000000e+00 0
0.00000000000000000e+00 0.00000000000000000e+00 0
0.00000000000000000e+00 0.00000000000000000e+00 0
0.00000000000000000e+00 0.00000000000000000e+00 0
0.00000000000000000e+00 0.00000000000000000e+00 0
0.00000000000000000e+00 0.00000000000000000e+00 0
0.00000000000000000e+00 0.00000000000000000e+00 0
0.00000000000000000e+00 0.00000000000000000e+00 0
0.00000000000000000e+00 0.00000000000000000e+00 0
0.00000000000000000e+00 0.00000000000000000e+00 0
0.00000000000000000e+00 0.00000000000000000e+00 0
0.00000000000000000e+00 0.00000000000000000e+00 0
0.00000000000000000e+00 0.00000000000000000e+00 0
0.00000000000000000e+00 0.00000000000000000e+00 0
0.00000000000000000e+00 0.00000000000000000e+00 0
0.00000000000000000e+00 0.00000000000000000e+00 0
0.00000000000000000e+00 0.00000000000000000e+00 0
0.00000000000000000e+00 0.00000000000000000e+00 0
0.00000000000000000e+00 0.00000000000000000e+00 0
0.00000000000000000e+00 0.00000000000000000e+00 0
0.00000000000000000e+00 0.00000000000000000e+00 0
0.00000000000000000e+00 0.00000000000000000e+00 0
0.00000000000000000e+00 0.00000000000000000e+00 0
0.00000000000000000e+00 0.00000000000000000e+00 0
0.00000000000000000e+00 0.00000000000000000e+00 0
0.00000000000000000e+00 0.00000000000000000e+00 0
0.00000000000000000e+00 0.00000000000000000e+00 0
0.00000000000000000e+00 0.00000000000000000e+00 0
0.00000000000000000e+00 0.00000000000000000e+00 0
0.00000000000000000e+00 0.00000000000000000e+00 0
0.00000000000000000e+00 0.00000000000000000e+00 0
0.00000000000000000e+00 0.00000000000000000e+00 0
0.00000000000000000e+00 0.00000000000000000e+00 0
0.00000000000000000e+00 0.00000000000000000e+00 0
0.00000000000000000e+00 0.00000000000000000e+00 0
0.00000000000000000e+00 0.00000000000000000e+00 0
0.00000000000000000e+00 0.00000000000000000e+00 0
0.00000000000000000e+00 0.00000000000000000e+00 0
0.00000000000000000e+00 0.00000000000000000e+00 0
0.00000000000000000e+00 0.00000000000000000e+00 0
0.00000000000000000e+00 0.00000000000000000e+00 0
0.00000000000000000e+00 0.00000000000000000e+00 0
0.00000000000000000e+00 0.00000000000000000e+00 0
0.00000000000000000e+00 0.00000000000000000e+00 0
0.00000000000000000e+00 0.00000000000000000e+00 0
0.00000000000000000e+00 0.00000000000000000e+00 0
0.00000000000000000e+00 0.00000000000000000e+00 0
0.00000000000000000e+00 0.00000000000000000e+00 0
0.00000000000000000e+00 0.00000000000000000e+00 0
0.00000000000000000e+00 0.00000000000000000e+00 0
0.00000000000000000e+00 0.00000000000000000e+00 0
0.00000000000000000e+00 0.00000000000000000e+00 0
0.00000000000000000e+00 0.00000000000000000e+00 0
0.00000000000000000e+00 0.00000000000000000e+00 0
0.00000000000000000e+00 0.00000000000000000e+00 0
0.00000000000000000e+00 0.00000000000000000e+00 0
0.00000000000000000e+00 0.00000000000000000e+00 0
0.00000000000000000e+00 0.00000000000000000e+00 0
0.00000000000000000e+00 0.00000000000000000e+00 0
0.00000000000000000e+00 0.00000000000000000e+00 0
0.00000000000000000e+00 0.00000000000000000e+00 0

VECTORS Displacement double
0.00000000000000000e+00 0.00000000000000000e+00 0
4.62576957765145717e-06 6.32908243593801786e-06 0
7.83416050839765697e-07 1.20063285804300150e-06 0
1.87413050270191956e-06 3.20136651741211197e-06 0
3.50460946479014230e-06 5.25617054871020246e-06 0
0.00000000000000000e+00 0.00000000000000000e+00 0
4.66389289264153723e-06 -6.46049048977240080e-06 0
8.26240553361032507e-07 -1.23946657114601484e-06 0
1.92892389776173508e-06 -3.27432060799166556e-06 0
3.55003717458213891e-06 -5.36385965476038230e-06 0
1.52847683654202648e-05 1.26139119151023154e-05 0
5.97664790840338697e-06 7.40705867470267948e-06 0
9.08665198177489110e-06 9.46286413126495537e-06 0
1.29681015306993246e-05 1.15264594882927152e-05 0
1.53293055660957469e-05 -1.28917584594843700e-05 0
6.00834342925787963e-06 -7.56967885486893582e-06 0
9.11827066754094998e-06 -9.67870046428965410e-06 0
1.29980615128426710e-05 -1.17840258303334481e-05 0
3.29695656488774238e-05 1.89219378727643822e-05 0
1.78371569142211140e-05 1.37037854265017953e-05 0
2.32454276606385834e-05 1.57521729845694289e-05 0
2.93952374757294282e-05 1.78201197254134708e-05 0
3.30138251642660014e-05 -1.93197421034863441e-05 0
1.78821920076623255e-05 -1.39997966675854904e-05 0
2.32907589449418202e-05 -1.60938411832259697e-05 0
2.94477273608006124e-05 -1.82011043808273025e-05 0
5.78323481633953761e-05 2.52667751063852359e-05 0
3.67290781581173888e-05 2.00259900916546810e-05 0
4.44925665395232755e-05 2.21077743919425828e-05 0
5.30218089753806747e-05 2.41721152395586539e-05 0
5.78710966452886978e-05 -2.57826695941692398e-05 0
3.67798751145214717e-05 -2.04405525128144723e-05 0
4.45335305607759589e-05 -2.25612442672128745e-05 0
5.30612005769225830e-05 -2.46704492863109877e-05 0
8.98525794793958980e-05 3.14822433622668631e-05 0
6.28814054551189114e-05 2.63532261443691576e-05 0
7.29689113637033187e-05 2.84021554629736069e-05 0
8.38251411126945050e-05 3.04256183404006285e-05 0
8.98904717024887230e-05 -3.21359667496215213e-05 0
6.29056128357230812e-05 -2.68888598114300185e-05 0
7.29984282130161202e-05 -2.89780140156988216e-05 0
8.38573160669458297e-05 -3.10508147042673084e-05 0
1.28852639724461303e-04 3.75046149055049919e-05 0
9.60948533542681541e-05 3.25442005279875243e-05 0
1.08502713105628501e-04 3.45442165686879097e-05 0
1.21629073651632696e-04 3.64981899345455849e-05 0
1.28900445383296395e-04 -3.82921133278240253e-05 0
9.61361945216236376e-05 -3.32194568979419811e-05 0
1.08545129347816907e-04 -3.52560733362988486e-05 0
1.21677676719640930e-04 -3.72560840269093492e-05 0
1.74462544700285376e-04 4.31319775028667405e-05 0
1.36269061224865759e-04 3.84988757986735628e-05 0
1.50874454814251018e-04 4.03635839007406580e-05 0
1.66140245861730096e-04 4.21913990087730806e-05 0
1.74503641893112833e-04 -4.40560414630771256e-05 0
1.36319111080641844e-04 -3.93155850675177407e-05 0
1.50919270576705365e-04 -4.12246044389042392e-05 0
1.66184193552588934e-04 -4.30915130574130599e-05 0
2.26122496483270417e-04 4.82992553960272497e-05 0
1.82971317471190077e-04 4.40479372062319331e-05 0
1.99579965578556342e-04 4.57559427541807839e-05 0
2.16819414566597589e-04 4.74313515295928157e-05 0
2.26164184413400916e-04 -4.93661817694020420e-05 0
1.83007578514724384e-04 -4.50023544490964236e-05 0
1.99614461376482351e-04 -4.67606068102771830e-05 0
2.16846733393758162e-04 -4.84759398364986436e-05 0
2.83439762262068266e-04 5.31556867964625579e-05 0
2.35618703067491236e-04 4.91632804873779494e-05 0
2.54079591185976846e-04 5.07590087908374560e-05 0
2.73128221281837124e-04 5.23340150659418318e-05 0
2.83479512451025083e-04 -5.43349671208979176e-05 0
2.35660559243817166e-04 -5.02489904994694764e-05 0
2.54121781466189395e-04 -5.18899551965907327e-05 0
2.73177614461871836e-04 -5.35003807985836780e-05 0
3.46199493674389180e-04 5.75343283212707393e-05 0
2.93883232455795598e-04 5.39625993657195206e-05 0
3.14165978513377732e-04 5.54363556953412729e-05 0
3.34996915459574143e-04 5.68258088637013791e-05 0
3.46229650646722299e-04 -5.88071377849436867e-05 0
2.93929508987322461e-04 -5.51573150248539819e-05 0
3.14201356401632933e-04 -5.66639717499805345e-05 0
3.35029161854588360e-04 -5.80885224976468030e-05 0
4.13609833666369448e-04 6.10401085180429116e-05 0
3.57567548159734821e-04 5.82121508912279429e-05 0
3.79407840132002549e-04 5.94167404025959178e-05 0
4.01694955778976112e-04 6.05094511643996624e-05 0
4.13626125210664265e-04 -6.24049153177722948e-05 0
3.57579821009464420e-04 -5.94954204570433668e-05 0
3.79420550514123812e-04 -6.07299175894741915e-05 0
4.01707140889039267e-04 -6.18571318784433743e-05 0
4.84396558618895826e-04 6.35946730023668360e-05 0
4.25631935400953680e-04 6.15523014189323309e-05 0
4.48674754907092926e-04 6.24462136497251407e-05 0
4.71985807969167606e-04 6.32256634617282701e-05 0
4.84404621840134363e-04 -6.50105024083337562e-05 0
4.25649743764168909e-04 -6.29237018711862863e-05 0
4.48686532669646733e-04 -6.38259263760981795e-05 0
4.71996805411796418e-04 -6.46276836287789551e-05 0
5.57451941419559861e-04 6.53386158896547228e-05 0
4.96870635647519814e-04 6.39413495599975418e-05 0
5.20702932980453910e-04 6.45529041339990478e-05 0
5.44712563562706632e-04 6.50903536473684038e-05 0
5.57436127650979868e-04 -6.67649762594110801e-05 0
4.96879660957806916e-04 -6.53671452166265242e-05 0
5.20702878556837147e-04 -6.59768418605714954e-05 0
5.44703330595246280e-04 -6.65126393628501147e-05 0
6.32001943812060714e-04 6.63021350804978023e-05 0
5.70245111522466649e-04 6.55560286415810440e-05 0
5.94605071495813396e-04 6.59153124085211530e-05 0
6.19091619428636854e-04 6.61967638954492167e-05 0
6.31979271150239484e-04 -6.77166448172504711e-05 0
5.70222067985529861e-04 -6.69906356192975186e-05 0
5.94580673846490260e-04 -6.73484683791609426e-05 0
6.19058487223881921e-04 -6.76108924474144425e-05 0
7.07063565457582955e-04 6.65646257637728659e-05 0
6.44950417806080785e-04 6.63933967460839293e-05 0
6.69521064118169503e-04 6.64955896911681080e-05 0
6.94087479390001678e-04 6.65489295612525978e-05 0
7.07046156293196938e-04 -6.79381748716205739e-05 0
6.44926473303692664e-04 -6.78026390449107782e-05 0
6.69497413204447672e-04 -6.79027622667778438e-05 0
6.94076182143313737e-04 -6.79402734311058585e-05 0
7.81916193682019112e-04 6.64404457760427685e-05 0
7.19997363196536646e-04 6.65598232254473757e-05 0
7.44529603125890986e-04 6.65247923006968269e-05 0
7.69015658510498472e-04 6.64644525333901747e-05 0
7.81909983877346684e-04 -6.77744289076961622e-05 0
7.19986037071527422e-04 -6.79290608728175895e-05 0
7.44512923299275268e-04 -6.78854861869831609e-05 0
7.69005377138605949e-04 -6.78154719935682669e-05 0
8.56384674149279876e-04 6.62833251435070641e-05 0
7.94830742542048307e-04 6.64136177224197949e-05 0
8.19196487974218116e-04 6.63436788037951946e-05 0
8.43542721326650722e-04 6.62958328060630315e-05 0
8.56354032342449500e-04 -6.75775107529937930e-05 0
7.94811692741618277e-04 -6.77247038941172189e-05 0
8.19170822515695018e-04 -6.76522272831529597e-05 0
8.43511305559985539e-04 -6.76005209736156505e-05 0
9.30710225425268036e-04 6.62894129141776509e-05 0
9.30706114918825760e-04 2.16764736093914006e-05 0
8.69237350670880381e-04 6.62873551211396183e-05 0
8.93584615109159139e-04 6.62952890378051390e-05 0
9.17878310180131373e-04 6.62874199231448379e-05 0
9.30712820777237506e-04 5.85909244271767341e-05 0
9.30723487266231757e-04 4.40012526023913570e-05 0
9.30713620144792185e-04 2.93812951429368631e-05 0
9.30694121175916879e-04 -2.29201880548513990e-05 0
9.30704051702814202e-04 1.39810671897631159e-05 0
9.30707117424825199e-04 -6.03824740925425852e-07 0
9.30699497595651425e-04 -1.52149766045263914e-05 0
9.30682113787938440e-04 -6.75287556337848946e-05 0
8.69207647451840826e-04 -6.75563556134998306e-05 0
8.93545822377990830e-04 -6.75242040268500472e-05 0
9.17841171038226954e-04 -6.75224102956383475e-05 0
9.30692779239197581e-04 -3.06189718714424650e-05 0
9.30692925888020441e-04 -4.52113646615164488e-05 0
9.30683991920206637e-04 -5.98193867610392760e-05 0

VECTORS Force double
1.79284156797038269e-01 8.86759958870766518e-04 0
-8.49039471042112859e-01 3.95112156133306080e-04 0
-8.63079022150322617e-01 -2.16489689474808728e-04 0
6.76555812715140448e+00 -3.78906963397230559e-03 0
3.26406732956873258e+00 -1.79094246214616466e-03 0
9.29345881435627297e-02 9.04990427006583244e-04 0
-4.58264209357696406e-01 4.34996858640197294e-04 0
-4.63484676427968978e-01 -2.95661670415352262e-04 0
3.65276459357429273e+00 -3.21384079264668780e-03 0
1.76256964210762224e+00 -1.53067013876937059e-03 0
-7.60132632185598456e-01 2.94145197438977230e-03 0
-4.87843474444815892e-02 4.03902872204054569e-04 0
5.48342398258532149e-01 -2.12832964044965900e-03 0
8.75851103519877583e+00 -3.30191311529751466e-02 0
-4.04342329740745854e-01 -5.38237204810805905e-04 0
-2.49664514548100132e-02 -1.04568995905963944e-04 0
2.91621693322999087e-01 3.39556527731622697e-04 0
4.65941056802077380e+00 5.91893329822921772e-03 0
8.57201762936167100e+00 -4.44376489509926351e-02 0
8.67335885403897888e-02 -4.08976690712037718e-04 0
-1.59130196636015492e-02 5.00415774672745032e-05 0
2.42016979199320935e-02 3.12379338504627783e-05 0
4.46476631891976439e+00 5.30168241341757787e-02 0
4.59377353663738275e-02 4.42608576049534558e-05 0
-8.82150298358059734e-03 -1.88311188654573768e-05 0
1.22129616843316621e-02 1.70832126971945253e-05 0
-7.75309057146250313e-01 3.06336104761980622e-03 0
2.59430008051881149e-02 -1.97265966562995632e-05 0
-1.46921161222820212e-02 -2.60391828665961257e-05 0
8.64020264010796069e-02 -4.29216500108071063e-04 0
-3.95888764722141739e-01 -1.20896974750932026e-02 0
1.34365931323567039e-02 -8.98404878642780969e-06 0
-7.82964742228169086e-03 -2.13277954670786622e-04 0
4.40144590864512478e-02 1.51109135564084836e-03 0
-8.81933987973681832e-01 -1.02703430203218531e-03 0
8.92915732895303194e+00 -3.41865945458713558e-02 0
5.58819122570750393e-01 -2.18602008238766472e-03 0
-5.04010391565126864e-02 5.24668168659730982e-04 0
-4.43069966444508578e-01 -2.36883356021533216e-02 0
4.55765126033589052e+00 1.34359463299194459e-01 0
2.85275582504762204e-01 8.06707838515086095e-03 0
-2.60425880981336282e-02 2.26105663098896014e-04 0
4.43044532287778181e-01 2.48056481256970010e-03 0
3.38663784565729831e+00 3.41193520867110302e-03 0
7.00761799876393177e+00 7.03881162948001137e-03 0