# vtk DataFile Version 2.0

ASCII

DATASET UNSTRUCTURED_GRID

POINTS 79 float 

-5.0000000000000003e-02  0.0000000000000000e+00  0.0000000000000000e+00
-5.0000000000000003e-02  5.5555555555555552e-02  0.0000000000000000e+00
-5.0000000000000003e-02  2.7777777777777776e-02  0.0000000000000000e+00
5.0000000000000003e-02  0.0000000000000000e+00  0.0000000000000000e+00
5.0000000000000003e-02  5.5555555555555552e-02  0.0000000000000000e+00
5.0000000000000003e-02  2.7777777777777776e-02  0.0000000000000000e+00
-5.0000000000000003e-02  1.1111111111111110e-01  0.0000000000000000e+00
-5.0000000000000003e-02  8.3333333333333329e-02  0.0000000000000000e+00
5.0000000000000003e-02  1.1111111111111110e-01  0.0000000000000000e+00
5.0000000000000003e-02  8.3333333333333329e-02  0.0000000000000000e+00
-5.0000000000000003e-02  1.6666666666666666e-01  0.0000000000000000e+00
-5.0000000000000003e-02  1.3888888888888890e-01  0.0000000000000000e+00
5.0000000000000003e-02  1.6666666666666666e-01  0.0000000000000000e+00
5.0000000000000003e-02  1.3888888888888890e-01  0.0000000000000000e+00
-5.0000000000000003e-02  2.2222222222222221e-01  0.0000000000000000e+00
-5.0000000000000003e-02  1.9444444444444442e-01  0.0000000000000000e+00
5.0000000000000003e-02  2.2222222222222221e-01  0.0000000000000000e+00
5.0000000000000003e-02  1.9444444444444442e-01  0.0000000000000000e+00
-5.0000000000000003e-02  2.7777777777777779e-01  0.0000000000000000e+00
-5.0000000000000003e-02  2.5000000000000000e-01  0.0000000000000000e+00
5.0000000000000003e-02  2.7777777777777779e-01  0.0000000000000000e+00
5.0000000000000003e-02  2.5000000000000000e-01  0.0000000000000000e+00
-5.0000000000000003e-02  3.3333333333333331e-01  0.0000000000000000e+00
-5.0000000000000003e-02  3.0555555555555558e-01  0.0000000000000000e+00
5.0000000000000003e-02  3.3333333333333331e-01  0.0000000000000000e+00
5.0000000000000003e-02  3.0555555555555558e-01  0.0000000000000000e+00
-5.0000000000000003e-02  3.8888888888888884e-01  0.0000000000000000e+00
-5.0000000000000003e-02  3.6111111111111105e-01  0.0000000000000000e+00
5.0000000000000003e-02  3.8888888888888884e-01  0.0000000000000000e+00
5.0000000000000003e-02  3.6111111111111105e-01  0.0000000000000000e+00
-5.0000000000000003e-02  4.4444444444444442e-01  0.0000000000000000e+00
-5.0000000000000003e-02  4.1666666666666663e-01  0.0000000000000000e+00
5.0000000000000003e-02  4.4444444444444442e-01  0.0000000000000000e+00
5.0000000000000003e-02  4.1666666666666663e-01  0.0000000000000000e+00
-5.0000000000000003e-02  5.0000000000000000e-01  0.0000000000000000e+00
-5.0000000000000003e-02  4.7222222222222221e-01  0.0000000000000000e+00
5.0000000000000003e-02  5.0000000000000000e-01  0.0000000000000000e+00
5.0000000000000003e-02  4.7222222222222221e-01  0.0000000000000000e+00
-5.0000000000000003e-02  5.5555555555555558e-01  0.0000000000000000e+00
-5.0000000000000003e-02  5.2777777777777779e-01  0.0000000000000000e+00
5.0000000000000003e-02  5.5555555555555558e-01  0.0000000000000000e+00
5.0000000000000003e-02  5.2777777777777779e-01  0.0000000000000000e+00
-5.0000000000000003e-02  6.1111111111111105e-01  0.0000000000000000e+00
-5.0000000000000003e-02  5.8333333333333326e-01  0.0000000000000000e+00
5.0000000000000003e-02  6.1111111111111105e-01  0.0000000000000000e+00
5.0000000000000003e-02  5.8333333333333326e-01  0.0000000000000000e+00
-5.0000000000000003e-02  6.6666666666666663e-01  0.0000000000000000e+00
-5.0000000000000003e-02  6.3888888888888884e-01  0.0000000000000000e+00
5.0000000000000003e-02  6.6666666666666663e-01  0.0000000000000000e+00
5.0000000000000003e-02  6.3888888888888884e-01  0.0000000000000000e+00
-5.0000000000000003e-02  7.2222222222222221e-01  0.0000000000000000e+00
-5.0000000000000003e-02  6.9444444444444442e-01  0.0000000000000000e+00
5.0000000000000003e-02  7.2222222222222221e-01  0.0000000000000000e+00
5.0000000000000003e-02  6.9444444444444442e-01  0.0000000000000000e+00
-5.0000000000000003e-02  7.7777777777777768e-01  0.0000000000000000e+00
-5.0000000000000003e-02  7.5000000000000000e-01  0.0000000000000000e+00
5.0000000000000003e-02  7.7777777777777768e-01  0.0000000000000000e+00
5.0000000000000003e-02  7.5000000000000000e-01  0.0000000000000000e+00
-5.0000000000000003e-02  8.3333333333333326e-01  0.0000000000000000e+00
-5.0000000000000003e-02  8.0555555555555547e-01  0.0000000000000000e+00
5.0000000000000003e-02  8.3333333333333326e-01  0.0000000000000000e+00
5.0000000000000003e-02  8.0555555555555547e-01  0.0000000000000000e+00
-5.0000000000000003e-02  8.8888888888888884e-01  0.0000000000000000e+00
-5.0000000000000003e-02  8.6111111111111105e-01  0.0000000000000000e+00
5.0000000000000003e-02  8.8888888888888884e-01  0.0000000000000000e+00
5.0000000000000003e-02  8.6111111111111105e-01  0.0000000000000000e+00
-5.0000000000000003e-02  9.4444444444444442e-01  0.0000000000000000e+00
-5.0000000000000003e-02  9.1666666666666663e-01  0.0000000000000000e+00
5.0000000000000003e-02  9.4444444444444442e-01  0.0000000000000000e+00
5.0000000000000003e-02  9.1666666666666663e-01  0.0000000000000000e+00
-5.0000000000000003e-02  1.0000000000000000e+00  0.0000000000000000e+00
-1.6666666666666670e-02  1.0000000000000000e+00  0.0000000000000000e+00
-5.0000000000000003e-02  9.7222222222222221e-01  0.0000000000000000e+00
-3.3333333333333340e-02  1.0000000000000000e+00  0.0000000000000000e+00
1.6666666666666663e-02  1.0000000000000000e+00  0.0000000000000000e+00
-3.4694469519536142e-18  1.0000000000000000e+00  0.0000000000000000e+00
5.0000000000000003e-02  1.0000000000000000e+00  0.0000000000000000e+00
5.0000000000000003e-02  9.7222222222222221e-01  0.0000000000000000e+00
3.3333333333333333e-02  1.0000000000000000e+00  0.0000000000000000e+00

CELLS 0 0


CELL_TYPES 0


POINT_DATA 79

VECTORS VertexNormals float

0.0000000000000000e+00 0.0000000000000000e+00 0
0.0000000000000000e+00 0.0000000000000000e+00 0
0.0000000000000000e+00 0.0000000000000000e+00 0
0.0000000000000000e+00 0.0000000000000000e+00 0
0.0000000000000000e+00 0.0000000000000000e+00 0
0.0000000000000000e+00 0.0000000000000000e+00 0
0.0000000000000000e+00 0.0000000000000000e+00 0
0.0000000000000000e+00 0.0000000000000000e+00 0
0.0000000000000000e+00 0.0000000000000000e+00 0
0.0000000000000000e+00 0.0000000000000000e+00 0
0.0000000000000000e+00 0.0000000000000000e+00 0
0.0000000000000000e+00 0.0000000000000000e+00 0
0.0000000000000000e+00 0.0000000000000000e+00 0
0.0000000000000000e+00 0.0000000000000000e+00 0
0.0000000000000000e+00 0.0000000000000000e+00 0
0.0000000000000000e+00 0.0000000000000000e+00 0
0.0000000000000000e+00 0.0000000000000000e+00 0
0.0000000000000000e+00 0.0000000000000000e+00 0
0.0000000000000000e+00 0.0000000000000000e+00 0
0.0000000000000000e+00 0.0000000000000000e+00 0
0.0000000000000000e+00 0.0000000000000000e+00 0
0.0000000000000000e+00 0.0000000000000000e+00 0
0.0000000000000000e+00 0.0000000000000000e+00 0
0.0000000000000000e+00 0.0000000000000000e+00 0
0.0000000000000000e+00 0.0000000000000000e+00 0
0.0000000000000000e+00 0.0000000000000000e+00 0
0.0000000000000000e+00 0.0000000000000000e+00 0
0.0000000000000000e+00 0.0000000000000000e+00 0
0.0000000000000000e+00 0.0000000000000000e+00 0
0.0000000000000000e+00 0.0000000000000000e+00 0
0.0000000000000000e+00 0.0000000000000000e+00 0
0.0000000000000000e+00 0.0000000000000000e+00 0
0.0000000000000000e+00 0.0000000000000000e+00 0
0.0000000000000000e+00 0.0000000000000000e+00 0
0.0000000000000000e+00 0.0000000000000000e+00 0
0.0000000000000000e+00 0.0000000000000000e+00 0
0.0000000000000000e+00 0.0000000000000000e+00 0
0.0000000000000000e+00 0.0000000000000000e+00 0
0.0000000000000000e+00 0.0000000000000000e+00 0
0.0000000000000000e+00 0.0000000000000000e+00 0
0.0000000000000000e+00 0.0000000000000000e+00 0
0.0000000000000000e+00 0.0000000000000000e+00 0
0.0000000000000000e+00 0.0000000000000000e+00 0
0.0000000000000000e+00 0.0000000000000000e+00 0
0.0000000000000000e+00 0.0000000000000000e+00 0
0.0000000000000000e+00 0.0000000000000000e+00 0
0.0000000000000000e+00 0.0000000000000000e+00 0
0.0000000000000000e+00 0.0000000000000000e+00 0
0.0000000000000000e+00 0.0000000000000000e+00 0
0.0000000000000000e+00 0.0000000000000000e+00 0
0.0000000000000000e+00 0.0000000000000000e+00 0
0.0000000000000000e+00 0.0000000000000000e+00 0
0.0000000000000000e+00 0.0000000000000000e+00 0
0.0000000000000000e+00 0.0000000000000000e+00 0
0.0000000000000000e+00 0.0000000000000000e+00 0
0.0000000000000000e+00 0.0000000000000000e+00 0
0.0000000000000000e+00 0.0000000000000000e+00 0
0.0000000000000000e+00 0.0000000000000000e+00 0
0.0000000000000000e+00 0.0000000000000000e+00 0
0.0000000000000000e+00 0.0000000000000000e+00 0
0.0000000000000000e+00 0.0000000000000000e+00 0
0.0000000000000000e+00 0.0000000000000000e+00 0
0.0000000000000000e+00 0.0000000000000000e+00 0
0.0000000000000000e+00 0.0000000000000000e+00 0
0.0000000000000000e+00 0.0000000000000000e+00 0
0.0000000000000000e+00 0.0000000000000000e+00 0
0.0000000000000000e+00 0.0000000000000000e+00 0
0.0000000000000000e+00 0.0000000000000000e+00 0
0.0000000000000000e+00 0.0000000000000000e+00 0
0.0000000000000000e+00 0.0000000000000000e+00 0
0.0000000000000000e+00 0.0000000000000000e+00 0
0.0000000000000000e+00 0.0000000000000000e+00 0
0.0000000000000000e+00 0.0000000000000000e+00 0
0.0000000000000000e+00 0.0000000000000000e+00 0
0.0000000000000000e+00 0.0000000000000000e+00 0
0.0000000000000000e+00 0.0000000000000000e+00 0
0.0000000000000000e+00 0.0000000000000000e+00 0
0.0000000000000000e+00 0.0000000000000000e+00 0
0.0000000000000000e+00 0.0000000000000000e+00 0

VECTORS Displacement float
0.0000000000000000e+00 0.0000000000000000e+00 0
2.2094093264363856e-03 2.7570394397275328e-03 0
9.4353054992919619e-04 1.4248210929855951e-03 0
0.0000000000000000e+00 0.0000000000000000e+00 0
2.0635560862822490e-03 -2.6977833798225853e-03 0
8.4050490902365165e-04 -1.3830744671387359e-03 0
6.9839572685457887e-03 5.3966619439513629e-03 0
4.2323336992368087e-03 4.0956725046305559e-03 0
6.9367766970142974e-03 -5.1658836319684485e-03 0
4.1427492719451628e-03 -3.9726084366186422e-03 0
1.4453912434037035e-02 7.6964561228315192e-03 0
1.0409234707729861e-02 6.5967841639364214e-03 0
1.4317369884444464e-02 -7.3820139070598714e-03 0
1.0320840979892226e-02 -6.2935053032069452e-03 0
2.4133467194308405e-02 9.7346073448863063e-03 0
1.9044684544944835e-02 8.7120557560662649e-03 0
2.4124451601289579e-02 -9.3093158327388643e-03 0
1.8962597581127030e-02 -8.3783118153070713e-03 0
3.5970328529208916e-02 1.1722642357005656e-02 0
2.9775425504215792e-02 1.0759671766524979e-02 0
3.5794365525361374e-02 -1.1106226387054625e-02 0
2.9704438354749525e-02 -1.0207285118316631e-02 0
4.9569148388643069e-02 1.3476734236376582e-02 0
4.2568260024887339e-02 1.2598046728517968e-02 0
4.9530186184940206e-02 -1.2758026364742811e-02 0
4.2417256455102956e-02 -1.1957425576244685e-02 0
6.5024401886780117e-02 1.5277514214727585e-02 0
5.7075572431604327e-02 1.4376055456476817e-02 0
6.4890429539643746e-02 -1.4347718633679563e-02 0
5.7043028513991852e-02 -1.3529726333581613e-02 0
8.2393098944103293e-02 1.7178584376843588e-02 0
7.3460263246300506e-02 1.6208924821546150e-02 0
8.2329205003652026e-02 -1.6234665050367511e-02 0
7.3291939844305168e-02 -1.5279107253078718e-02 0
1.0207877217325118e-01 1.9236115458874506e-02 0
9.1889009171718300e-02 1.8215151027805642e-02 0
1.0200906105736283e-01 -1.8127706059313228e-02 0
9.1896697370696723e-02 -1.7178059209526121e-02 0
1.2402512558572121e-01 2.0973043414906561e-02 0
1.1283427520247025e-01 2.0147337637654684e-02 0
1.2395606926813832e-01 -1.9921960139364817e-02 0
1.1270105007169458e-01 -1.9060514142733950e-02 0
1.4774321651277827e-01 2.2409838302688834e-02 0
1.3565721298336858e-01 2.1731153557324918e-02 0
1.4771668653342684e-01 -2.1283483379049964e-02 0
1.3567728623908970e-01 -2.0647191819928658e-02 0
1.7286697619150171e-01 2.3450379082807081e-02 0
1.6018459213413430e-01 2.2970623730665305e-02 0
1.7279224397150666e-01 -2.2461302929747295e-02 0
1.6006314704739494e-01 -2.1891232734198622e-02 0
1.9894595673872711e-01 2.4332107455741665e-02 0
1.8576186622620564e-01 2.3897593140117301e-02 0
1.9900074502740983e-01 -2.3350099063757623e-02 0
1.8580603204846263e-01 -2.2937164737906909e-02 0
2.2610915980546567e-01 2.4979515064667460e-02 0
2.1245477688226810e-01 2.4692719617996718e-02 0
2.2598013024804714e-01 -2.4116366434024296e-02 0
2.1238402908054552e-01 -2.3745577860606396e-02 0
2.5375490134967310e-01 2.5444175755023883e-02 0
2.3984820935712167e-01 2.5229855697670629e-02 0
2.5378581561532321e-01 -2.4544697221915275e-02 0
2.3982819659908541e-01 -2.4390460223006494e-02 0
2.8182217790542008e-01 2.5681719131585970e-02 0
2.6778922004048955e-01 2.5582784997628148e-02 0
2.8168304432297853e-01 -2.4798250149273157e-02 0
2.6770767038218596e-01 -2.4653953179929237e-02 0
3.0995959519431671e-01 2.5932023656648331e-02 0
2.9584722932991869e-01 2.5807012531400719e-02 0
3.0994175943779612e-01 -2.5016050124838870e-02 0
2.9578050666305244e-01 -2.4933660139150556e-02 0
3.3842502034543104e-01 2.6041587937264972e-02 0
3.3835180294552525e-01 8.9622459126121323e-03 0
3.2417421507785460e-01 2.6009664170100342e-02 0
3.3839944126774946e-01 1.7497172833920653e-02 0
3.3824868642668121e-01 -8.0725846944334888e-03 0
3.3829814170404099e-01 4.3331163488930278e-04 0
3.3819897738940408e-01 -2.5031069601961768e-02 0
3.2407971826186255e-01 -2.5034368552877384e-02 0
3.3821420893341547e-01 -1.6558317115942897e-02 0

VECTORS Stress float
1.9043990290146650e+02 -9.7260741256464698e+00 0
1.8323043733412086e+02 -1.0201100074479596e+01 0
1.8509582984899075e+02 -7.7098261597797739e+00 0
-6.7271793750935586e+01 5.4216640583985871e+00 0
-7.5433798751866846e+01 4.3957480484416935e+00 0
-7.3524741522787636e+01 3.4216941993329670e+00 0
1.8398234858942789e+02 -1.9574284423374642e+01 0
1.8354900776848288e+02 -1.4897366826304133e+01 0
-7.4040050680753055e+01 8.7103495114319625e+00 0
-7.4854074952594630e+01 6.6279024742579935e+00 0
1.8287278027342410e+02 -2.7299910559757990e+01 0
1.8353425556625896e+02 -2.3643693390261472e+01 0
-7.3983305695297133e+01 1.1964747601782616e+01 0
-7.3913511723649989e+01 1.0461932531561528e+01 0
1.8089822607426839e+02 -3.3782774918097132e+01 0
1.8192771078290480e+02 -3.0678783795367693e+01 0
-7.3635560744247144e+01 1.4724489540181319e+01 0
-7.3805175597190399e+01 1.3387080936212913e+01 0
1.7788948337649990e+02 -3.9294090462680330e+01 0
1.7953140431336197e+02 -3.6642022903307847e+01 0
-7.3026131976620164e+01 1.7363944161191757e+01 0
-7.3354771500098650e+01 1.6054290395593103e+01 0
1.7392835876027365e+02 -4.4011217322495384e+01 0
1.7607620750826922e+02 -4.1752645863306640e+01 0
-7.2209259343058335e+01 1.9515838334538063e+01 0
-7.2698842871357115e+01 1.8540573351727396e+01 0
1.6912044777655251e+02 -4.8124147531616465e+01 0
1.7168160950468345e+02 -4.6136493993624597e+01 0
-7.1008865746079749e+01 2.1659051361952578e+01 0
-7.1732548450653098e+01 2.0495708970961498e+01 0
1.6324252850651609e+02 -5.2202089443176995e+01 0
1.6635730223937247e+02 -5.0087186054442057e+01 0
-6.9375928726145062e+01 2.4119054418240147e+01 0
-7.0224541846392839e+01 2.2920426167733513e+01 0
1.5609406162564341e+02 -5.6595092145809637e+01 0
1.5971033281466174e+02 -5.4479690995695286e+01 0
-6.7446598513770553e+01 2.6254304439430165e+01 0
-6.8410054193796171e+01 2.5212829656227072e+01 0
1.4878372566400463e+02 -5.9204630522412806e+01 0
1.5243354738015358e+02 -5.8038649869721162e+01 0
-6.5210484259698163e+01 2.7794647238595115e+01 0
-6.6346657853553808e+01 2.7054765331189358e+01 0
1.4145929205548069e+02 -6.0623091099982858e+01 0
1.4512094119738737e+02 -6.0044663066112840e+01 0
-6.2784054572967676e+01 2.8379137688452094e+01 0
-6.4027179436765280e+01 2.8206500652604806e+01 0
1.3444631317471010e+02 -6.0680030575004395e+01 0
1.3788183124308563e+02 -6.0912792472826425e+01 0
-6.0075994477449711e+01 2.8358142058585173e+01 0
-6.1473179728019403e+01 2.8472672749499253e+01 0
1.2737709848032176e+02 -5.9781321518160297e+01 0
1.3097113402292015e+02 -6.0312850086258706e+01 0
-5.7080761460903972e+01 2.7922432695474622e+01 0
-5.8605415509489710e+01 2.8241811815179851e+01 0
1.1992881649751567e+02 -5.8341110996040747e+01 0
1.2364131648031685e+02 -5.9161503474120963e+01 0
-5.3891953955157199e+01 2.7093860101258738e+01 0
-5.5498080901123622e+01 2.7542929359065202e+01 0
1.1193590712323530e+02 -5.5555553814936950e+01 0
1.1619561379548907e+02 -5.7179746696837590e+01 0
-5.0614074784713999e+01 2.5754541088406768e+01 0
-5.2279985889411876e+01 2.6510048257287849e+01 0
1.0206095497699897e+02 -5.0664317996515777e+01 0
1.0684726249460614e+02 -5.2935631205873030e+01 0
-4.7284906886495698e+01 2.3655426021489987e+01 0
-4.8929333083009467e+01 2.4409546578053597e+01 0
9.9239068938378878e+01 -5.2374907013075074e+01 0
1.0148077167395303e+02 -5.1870942761563839e+01 0
-4.5681905631225959e+01 2.8859419053225626e+01 0
-4.6294562822688526e+01 2.6372722855355907e+01 0
3.0930934573247669e+01 -1.5513388882948114e+00 0
-4.0684532339436785e+00 1.6694102812731000e+00 0
7.7288807513288731e+01 -3.6866109273919555e+01 0
4.8418505334604873e+00 9.2461451579239871e+00 0
-6.9383485853700009e+00 -2.2418227482550769e+01 0
-6.0891704016171602e+00 -1.1687986371235390e+01 0
-3.5354762917282017e+01 -1.2683489011869053e+01 0
-4.1403241335842914e+01 1.6999073913853209e+01 0
-1.3346893611922468e+01 -2.5867299146339612e+01 0

