# vtk DataFile Version 2.0

ASCII

DATASET UNSTRUCTURED_GRID

POINTS 79 float 

-5.0000000000000003e-02  0.0000000000000000e+00  0.0000000000000000e+00
-5.0000000000000003e-02  5.5555555555555552e-02  0.0000000000000000e+00
-5.0000000000000003e-02  2.7777777777777776e-02  0.0000000000000000e+00
5.0000000000000003e-02  0.0000000000000000e+00  0.0000000000000000e+00
5.0000000000000003e-02  5.5555555555555552e-02  0.0000000000000000e+00
5.0000000000000003e-02  2.7777777777777776e-02  0.0000000000000000e+00
-5.0000000000000003e-02  1.1111111111111110e-01  0.0000000000000000e+00
-5.0000000000000003e-02  8.3333333333333329e-02  0.0000000000000000e+00
5.0000000000000003e-02  1.1111111111111110e-01  0.0000000000000000e+00
5.0000000000000003e-02  8.3333333333333329e-02  0.0000000000000000e+00
-5.0000000000000003e-02  1.6666666666666666e-01  0.0000000000000000e+00
-5.0000000000000003e-02  1.3888888888888890e-01  0.0000000000000000e+00
5.0000000000000003e-02  1.6666666666666666e-01  0.0000000000000000e+00
5.0000000000000003e-02  1.3888888888888890e-01  0.0000000000000000e+00
-5.0000000000000003e-02  2.2222222222222221e-01  0.0000000000000000e+00
-5.0000000000000003e-02  1.9444444444444442e-01  0.0000000000000000e+00
5.0000000000000003e-02  2.2222222222222221e-01  0.0000000000000000e+00
5.0000000000000003e-02  1.9444444444444442e-01  0.0000000000000000e+00
-5.0000000000000003e-02  2.7777777777777779e-01  0.0000000000000000e+00
-5.0000000000000003e-02  2.5000000000000000e-01  0.0000000000000000e+00
5.0000000000000003e-02  2.7777777777777779e-01  0.0000000000000000e+00
5.0000000000000003e-02  2.5000000000000000e-01  0.0000000000000000e+00
-5.0000000000000003e-02  3.3333333333333331e-01  0.0000000000000000e+00
-5.0000000000000003e-02  3.0555555555555558e-01  0.0000000000000000e+00
5.0000000000000003e-02  3.3333333333333331e-01  0.0000000000000000e+00
5.0000000000000003e-02  3.0555555555555558e-01  0.0000000000000000e+00
-5.0000000000000003e-02  3.8888888888888884e-01  0.0000000000000000e+00
-5.0000000000000003e-02  3.6111111111111105e-01  0.0000000000000000e+00
5.0000000000000003e-02  3.8888888888888884e-01  0.0000000000000000e+00
5.0000000000000003e-02  3.6111111111111105e-01  0.0000000000000000e+00
-5.0000000000000003e-02  4.4444444444444442e-01  0.0000000000000000e+00
-5.0000000000000003e-02  4.1666666666666663e-01  0.0000000000000000e+00
5.0000000000000003e-02  4.4444444444444442e-01  0.0000000000000000e+00
5.0000000000000003e-02  4.1666666666666663e-01  0.0000000000000000e+00
-5.0000000000000003e-02  5.0000000000000000e-01  0.0000000000000000e+00
-5.0000000000000003e-02  4.7222222222222221e-01  0.0000000000000000e+00
5.0000000000000003e-02  5.0000000000000000e-01  0.0000000000000000e+00
5.0000000000000003e-02  4.7222222222222221e-01  0.0000000000000000e+00
-5.0000000000000003e-02  5.5555555555555558e-01  0.0000000000000000e+00
-5.0000000000000003e-02  5.2777777777777779e-01  0.0000000000000000e+00
5.0000000000000003e-02  5.5555555555555558e-01  0.0000000000000000e+00
5.0000000000000003e-02  5.2777777777777779e-01  0.0000000000000000e+00
-5.0000000000000003e-02  6.1111111111111105e-01  0.0000000000000000e+00
-5.0000000000000003e-02  5.8333333333333326e-01  0.0000000000000000e+00
5.0000000000000003e-02  6.1111111111111105e-01  0.0000000000000000e+00
5.0000000000000003e-02  5.8333333333333326e-01  0.0000000000000000e+00
-5.0000000000000003e-02  6.6666666666666663e-01  0.0000000000000000e+00
-5.0000000000000003e-02  6.3888888888888884e-01  0.0000000000000000e+00
5.0000000000000003e-02  6.6666666666666663e-01  0.0000000000000000e+00
5.0000000000000003e-02  6.3888888888888884e-01  0.0000000000000000e+00
-5.0000000000000003e-02  7.2222222222222221e-01  0.0000000000000000e+00
-5.0000000000000003e-02  6.9444444444444442e-01  0.0000000000000000e+00
5.0000000000000003e-02  7.2222222222222221e-01  0.0000000000000000e+00
5.0000000000000003e-02  6.9444444444444442e-01  0.0000000000000000e+00
-5.0000000000000003e-02  7.7777777777777768e-01  0.0000000000000000e+00
-5.0000000000000003e-02  7.5000000000000000e-01  0.0000000000000000e+00
5.0000000000000003e-02  7.7777777777777768e-01  0.0000000000000000e+00
5.0000000000000003e-02  7.5000000000000000e-01  0.0000000000000000e+00
-5.0000000000000003e-02  8.3333333333333326e-01  0.0000000000000000e+00
-5.0000000000000003e-02  8.0555555555555547e-01  0.0000000000000000e+00
5.0000000000000003e-02  8.3333333333333326e-01  0.0000000000000000e+00
5.0000000000000003e-02  8.0555555555555547e-01  0.0000000000000000e+00
-5.0000000000000003e-02  8.8888888888888884e-01  0.0000000000000000e+00
-5.0000000000000003e-02  8.6111111111111105e-01  0.0000000000000000e+00
5.0000000000000003e-02  8.8888888888888884e-01  0.0000000000000000e+00
5.0000000000000003e-02  8.6111111111111105e-01  0.0000000000000000e+00
-5.0000000000000003e-02  9.4444444444444442e-01  0.0000000000000000e+00
-5.0000000000000003e-02  9.1666666666666663e-01  0.0000000000000000e+00
5.0000000000000003e-02  9.4444444444444442e-01  0.0000000000000000e+00
5.0000000000000003e-02  9.1666666666666663e-01  0.0000000000000000e+00
-5.0000000000000003e-02  1.0000000000000000e+00  0.0000000000000000e+00
-1.6666666666666670e-02  1.0000000000000000e+00  0.0000000000000000e+00
-5.0000000000000003e-02  9.7222222222222221e-01  0.0000000000000000e+00
-3.3333333333333340e-02  1.0000000000000000e+00  0.0000000000000000e+00
1.6666666666666663e-02  1.0000000000000000e+00  0.0000000000000000e+00
-3.4694469519536142e-18  1.0000000000000000e+00  0.0000000000000000e+00
5.0000000000000003e-02  1.0000000000000000e+00  0.0000000000000000e+00
5.0000000000000003e-02  9.7222222222222221e-01  0.0000000000000000e+00
3.3333333333333333e-02  1.0000000000000000e+00  0.0000000000000000e+00

CELLS 0 0


CELL_TYPES 0


POINT_DATA 79

VECTORS VertexNormals float

0.0000000000000000e+00 0.0000000000000000e+00 0
0.0000000000000000e+00 0.0000000000000000e+00 0
0.0000000000000000e+00 0.0000000000000000e+00 0
0.0000000000000000e+00 0.0000000000000000e+00 0
0.0000000000000000e+00 0.0000000000000000e+00 0
0.0000000000000000e+00 0.0000000000000000e+00 0
0.0000000000000000e+00 0.0000000000000000e+00 0
0.0000000000000000e+00 0.0000000000000000e+00 0
0.0000000000000000e+00 0.0000000000000000e+00 0
0.0000000000000000e+00 0.0000000000000000e+00 0
0.0000000000000000e+00 0.0000000000000000e+00 0
0.0000000000000000e+00 0.0000000000000000e+00 0
0.0000000000000000e+00 0.0000000000000000e+00 0
0.0000000000000000e+00 0.0000000000000000e+00 0
0.0000000000000000e+00 0.0000000000000000e+00 0
0.0000000000000000e+00 0.0000000000000000e+00 0
0.0000000000000000e+00 0.0000000000000000e+00 0
0.0000000000000000e+00 0.0000000000000000e+00 0
0.0000000000000000e+00 0.0000000000000000e+00 0
0.0000000000000000e+00 0.0000000000000000e+00 0
0.0000000000000000e+00 0.0000000000000000e+00 0
0.0000000000000000e+00 0.0000000000000000e+00 0
0.0000000000000000e+00 0.0000000000000000e+00 0
0.0000000000000000e+00 0.0000000000000000e+00 0
0.0000000000000000e+00 0.0000000000000000e+00 0
0.0000000000000000e+00 0.0000000000000000e+00 0
0.0000000000000000e+00 0.0000000000000000e+00 0
0.0000000000000000e+00 0.0000000000000000e+00 0
0.0000000000000000e+00 0.0000000000000000e+00 0
0.0000000000000000e+00 0.0000000000000000e+00 0
0.0000000000000000e+00 0.0000000000000000e+00 0
0.0000000000000000e+00 0.0000000000000000e+00 0
0.0000000000000000e+00 0.0000000000000000e+00 0
0.0000000000000000e+00 0.0000000000000000e+00 0
0.0000000000000000e+00 0.0000000000000000e+00 0
0.0000000000000000e+00 0.0000000000000000e+00 0
0.0000000000000000e+00 0.0000000000000000e+00 0
0.0000000000000000e+00 0.0000000000000000e+00 0
0.0000000000000000e+00 0.0000000000000000e+00 0
0.0000000000000000e+00 0.0000000000000000e+00 0
0.0000000000000000e+00 0.0000000000000000e+00 0
0.0000000000000000e+00 0.0000000000000000e+00 0
0.0000000000000000e+00 0.0000000000000000e+00 0
0.0000000000000000e+00 0.0000000000000000e+00 0
0.0000000000000000e+00 0.0000000000000000e+00 0
0.0000000000000000e+00 0.0000000000000000e+00 0
0.0000000000000000e+00 0.0000000000000000e+00 0
0.0000000000000000e+00 0.0000000000000000e+00 0
0.0000000000000000e+00 0.0000000000000000e+00 0
0.0000000000000000e+00 0.0000000000000000e+00 0
0.0000000000000000e+00 0.0000000000000000e+00 0
0.0000000000000000e+00 0.0000000000000000e+00 0
0.0000000000000000e+00 0.0000000000000000e+00 0
0.0000000000000000e+00 0.0000000000000000e+00 0
0.0000000000000000e+00 0.0000000000000000e+00 0
0.0000000000000000e+00 0.0000000000000000e+00 0
0.0000000000000000e+00 0.0000000000000000e+00 0
0.0000000000000000e+00 0.0000000000000000e+00 0
0.0000000000000000e+00 0.0000000000000000e+00 0
0.0000000000000000e+00 0.0000000000000000e+00 0
0.0000000000000000e+00 0.0000000000000000e+00 0
0.0000000000000000e+00 0.0000000000000000e+00 0
0.0000000000000000e+00 0.0000000000000000e+00 0
0.0000000000000000e+00 0.0000000000000000e+00 0
0.0000000000000000e+00 0.0000000000000000e+00 0
0.0000000000000000e+00 0.0000000000000000e+00 0
0.0000000000000000e+00 0.0000000000000000e+00 0
0.0000000000000000e+00 0.0000000000000000e+00 0
0.0000000000000000e+00 0.0000000000000000e+00 0
0.0000000000000000e+00 0.0000000000000000e+00 0
0.0000000000000000e+00 0.0000000000000000e+00 0
0.0000000000000000e+00 0.0000000000000000e+00 0
0.0000000000000000e+00 0.0000000000000000e+00 0
0.0000000000000000e+00 0.0000000000000000e+00 0
0.0000000000000000e+00 0.0000000000000000e+00 0
0.0000000000000000e+00 0.0000000000000000e+00 0
0.0000000000000000e+00 0.0000000000000000e+00 0
0.0000000000000000e+00 0.0000000000000000e+00 0
0.0000000000000000e+00 0.0000000000000000e+00 0

VECTORS Displacement float
0.0000000000000000e+00 0.0000000000000000e+00 0
2.2163781132429191e-03 2.8510011660158666e-03 0
9.1268625592125197e-04 1.4717363528627295e-03 0
0.0000000000000000e+00 0.0000000000000000e+00 0
2.1534303589830993e-03 -2.7291557107738170e-03 0
9.1160047516281126e-04 -1.4293871384383390e-03 0
6.9872153240084466e-03 5.4381485965258047e-03 0
4.2603763471153709e-03 4.1696043706032507e-03 0
6.8729624416747374e-03 -5.2168240890746419e-03 0
4.1388342322517518e-03 -3.9927736453091479e-03 0
1.4386377277857394e-02 7.6314932081553433e-03 0
1.0385153467845397e-02 6.6025755159259767e-03 0
1.4295571915582568e-02 -7.3241568294664643e-03 0
1.0306678015898123e-02 -6.3338260900665348e-03 0
2.3823103546279100e-02 9.2923390625791503e-03 0
1.8912201640918745e-02 8.4938424201853654e-03 0
2.3654345971901448e-02 -8.9428860677622374e-03 0
1.8763819389822078e-02 -8.1597511254575816e-03 0
3.4704458956701628e-02 1.0963102822975308e-02 0
2.9054893499442361e-02 1.0102993492654682e-02 0
3.4669044206514600e-02 -1.0488487090700990e-02 0
2.8943419985788942e-02 -9.7155359851795395e-03 0
4.7483632191723586e-02 1.2779133259882482e-02 0
4.0854724797191336e-02 1.1853787351401151e-02 0
4.7319091102187072e-02 -1.2141484975626449e-02 0
4.0787114613276970e-02 -1.1267674660488444e-02 0
6.2498921753940263e-02 1.4742648711972003e-02 0
5.4698056864868679e-02 1.3763184588570843e-02 0
6.2344153134999900e-02 -1.4183145984824255e-02 0
5.4503314512838380e-02 -1.3161085686333486e-02 0
7.9803726061623365e-02 1.6588214998624631e-02 0
7.0872992332899398e-02 1.5687292380935500e-02 0
7.9654880694252528e-02 -1.5996851586376176e-02 0
7.0746030395226311e-02 -1.5124689555450606e-02 0
9.8966147763752663e-02 1.8314948064243851e-02 0
8.9165702214873493e-02 1.7455081819927585e-02 0
9.8850871313922242e-02 -1.7649676446314946e-02 0
8.9002052820213284e-02 -1.6835613154026513e-02 0
1.1994460529799256e-01 1.9916498358282284e-02 0
1.0923591665971868e-01 1.9140860911013149e-02 0
1.1982786021343111e-01 -1.9104184602697867e-02 0
1.0916596209392568e-01 -1.8391788261038565e-02 0
1.4256386277244204e-01 2.1297690122449607e-02 0
1.3105677495456639e-01 2.0635463347027632e-02 0
1.4240404368820986e-01 -2.0549314474430140e-02 0
1.3088023860087025e-01 -1.9837064736771114e-02 0
1.6667308816072929e-01 2.2477117148486214e-02 0
1.5444733379519818e-01 2.1906778534833526e-02 0
1.6659019720141965e-01 -2.1735246817348147e-02 0
1.5434563109617933e-01 -2.1179232786491704e-02 0
1.9197319223505332e-01 2.3485808455252877e-02 0
1.7918785845840796e-01 2.3002978955943332e-02 0
1.9186769313233287e-01 -2.2676470977720659e-02 0
1.7907348325887507e-01 -2.2231728732136205e-02 0
2.1820442766707887e-01 2.4258182060603768e-02 0
2.0499792653945303e-01 2.3898743160534343e-02 0
2.1815335099894217e-01 -2.3342096627942434e-02 0
2.0495033233869342e-01 -2.3035989320866875e-02 0
2.4512992027525882e-01 2.4768476385303974e-02 0
2.3159855848392100e-01 2.4547832559277880e-02 0
2.4505168032762914e-01 -2.3925646699761435e-02 0
2.3150981042916946e-01 -2.3644701428558852e-02 0
2.7254585965404471e-01 2.5050642951202177e-02 0
2.5877058168141620e-01 2.4938370053572134e-02 0
2.7252484038225544e-01 -2.4332111701302762e-02 0
2.5872392793371507e-01 -2.4163056648647433e-02 0
3.0016220952040740e-01 2.5045280794655414e-02 0
2.8638155262852638e-01 2.5071430501825066e-02 0
3.0013136205516294e-01 -2.4329442216100373e-02 0
2.8636341082116468e-01 -2.4361634458005318e-02 0
3.2762135465005304e-01 2.5023723702434910e-02 0
3.2758939140752596e-01 8.6185290443607388e-03 0
3.1390733838276308e-01 2.5025578216875021e-02 0
3.2760579816430224e-01 1.6814640631325713e-02 0
3.2761578701430161e-01 -7.8160332957481760e-03 0
3.2759312785352673e-01 4.0955552528792343e-04 0
3.2766126448970323e-01 -2.4331074642946766e-02 0
3.1388114738739542e-01 -2.4318979144326187e-02 0
3.2764549181438607e-01 -1.6063115942941079e-02 0

VECTORS Stress float
1.8488273871292745e+02 -1.1067283031083811e+01 0
1.7846178983047321e+02 -9.6497716206239996e+00 0
1.8012583676005636e+02 -7.7192043652303068e+00 0
-6.2258134709636494e+01 3.3718091685042495e+00 0
-6.9681431630925530e+01 4.3861777382308444e+00 0
-6.7943302657870163e+01 3.0449110742316683e+00 0
1.7909763057057506e+02 -1.9021390006266056e+01 0
1.7874366555261895e+02 -1.4295241550604450e+01 0
-6.8451306399534872e+01 7.8965262680745818e+00 0
-6.9169606982056536e+01 6.2425204042541438e+00 0
1.7801189110667738e+02 -2.6325717037470913e+01 0
1.7863006298252185e+02 -2.2981329819883960e+01 0
-6.8426619886285494e+01 1.0782832573949324e+01 0
-6.8351327415575696e+01 9.4425739202919576e+00 0
1.7642834597101046e+02 -3.1176109648417739e+01 0
1.7723450014332775e+02 -2.8931294649604535e+01 0
-6.8097344436256307e+01 1.2906912971229046e+01 0
-6.8262301439626967e+01 1.1913882630636380e+01 0
1.7388219726388530e+02 -3.5802058568516266e+01 0
1.7530072822658565e+02 -3.3442497550482855e+01 0
-6.7450039837001711e+01 1.4805033874764174e+01 0
-6.7804898816915710e+01 1.3860322893094420e+01 0
1.7004212702001462e+02 -4.0964957520779791e+01 0
1.7220845591795833e+02 -3.8268673154742231e+01 0
-6.6406142292473589e+01 1.7203527618569321e+01 0
-6.7051557022763973e+01 1.5859279177903128e+01 0
1.6495046810555820e+02 -4.6203154175645743e+01 0
1.6769463529849926e+02 -4.3663057843343054e+01 0
-6.5053524074613065e+01 1.9692581372802614e+01 0
-6.5799326159361186e+01 1.8554214201576762e+01 0
1.5899972191558476e+02 -5.0527134154806753e+01 0
1.6202644373747219e+02 -4.8568262735495502e+01 0
-6.3479663713017572e+01 2.1632035432060071e+01 0
-6.4295529693175325e+01 2.0725700057892148e+01 0
1.5263956177768887e+02 -5.3322486697434016e+01 0
1.5585394068507642e+02 -5.2007868585902180e+01 0
-6.1612923476412178e+01 2.3102742959626536e+01 0
-6.2547665925340041e+01 2.2389461558588707e+01 0
1.4566494768894265e+02 -5.5442731722062092e+01 0
1.4919184701504622e+02 -5.4430136601706025e+01 0
-5.9461367269857561e+01 2.4022084940018985e+01 0
-6.0551679210109043e+01 2.3573042152269071e+01 0
1.3841636068935415e+02 -5.6672578384320808e+01 0
1.4206613091389437e+02 -5.6176801030110219e+01 0
-5.6974597989436589e+01 2.4697148093946517e+01 0
-5.8267481158998130e+01 2.4386470894864765e+01 0
1.3113311618466818e+02 -5.6909333716895837e+01 0
1.3476713101807817e+02 -5.6969720864292455e+01 0
-5.4215898366924286e+01 2.4775604595484467e+01 0
-5.5628713141296799e+01 2.4898545928059093e+01 0
1.2374322179422968e+02 -5.6188559133890891e+01 0
1.2745089001901705e+02 -5.6710465881115184e+01 0
-5.1219254195719145e+01 2.4257153393879690e+01 0
-5.2743466083699929e+01 2.4612497229755490e+01 0
1.1611371649273715e+02 -5.4620846669049563e+01 0
1.1993946046073509e+02 -5.5484491468224910e+01 0
-4.8014764807215407e+01 2.3461643659108713e+01 0
-4.9633351728549648e+01 2.3870413363578763e+01 0
1.0771459554178978e+02 -5.1966973852015379e+01 0
1.1219143754190407e+02 -5.3507661963014975e+01 0
-4.4714997872975133e+01 2.2337333876635942e+01 0
-4.6384518833480513e+01 2.2968616598440228e+01 0
9.7313592032184999e+01 -4.7406035664779353e+01 0
1.0238953105030177e+02 -4.9488367011131203e+01 0
-4.1421878011782546e+01 2.0406399639704880e+01 0
-4.3058092437632702e+01 2.1165087092176350e+01 0
9.3642622726747618e+01 -4.9479221339516158e+01 0
9.6162440407395266e+01 -4.8949710576258227e+01 0
-3.9652568994948247e+01 2.3990513616596228e+01 0
-4.0368635417530740e+01 2.2233189739108454e+01 0
3.1598709963659175e+01 5.0040062710140614e+00 0
-9.3955101124760887e-01 7.2472832605082012e+00 0
7.3482224899272211e+01 -3.2936369796034846e+01 0
7.4507796928498493e+00 1.4926444265294942e+01 0
-3.9820384686762438e+00 -1.6383857193399596e+01 0
-2.9953429193821108e+00 -5.8922347835522153e+00 0
-3.0513709793891849e+01 -8.4253164587014826e+00 0
-3.5729220451883670e+01 1.4520893014474595e+01 0
-1.0086665548728490e+01 -2.0052797321799403e+01 0

