# vtk DataFile Version 2.0

ASCII

DATASET UNSTRUCTURED_GRID

POINTS 157 double 

-5.00000000000000028e-02  0.00000000000000000e+00  0.00000000000000000e+00
-5.00000000000000028e-02  5.55555555555555525e-02  0.00000000000000000e+00
-5.00000000000000028e-02  9.59295359144507823e-03  0.00000000000000000e+00
-5.00000000000000028e-02  2.77777777777777762e-02  0.00000000000000000e+00
-5.00000000000000028e-02  4.59626019641104708e-02  0.00000000000000000e+00
4.99999999999999958e-02  0.00000000000000000e+00  0.00000000000000000e+00
4.99999999999999958e-02  5.55555555555555525e-02  0.00000000000000000e+00
4.99999999999999958e-02  9.59295359144507823e-03  0.00000000000000000e+00
4.99999999999999958e-02  2.77777777777777762e-02  0.00000000000000000e+00
4.99999999999999958e-02  4.59626019641104708e-02  0.00000000000000000e+00
-5.00000000000000028e-02  1.11111111111111105e-01  0.00000000000000000e+00
-5.00000000000000028e-02  6.51485091470006272e-02  0.00000000000000000e+00
-5.00000000000000028e-02  8.33333333333333287e-02  0.00000000000000000e+00
-5.00000000000000028e-02  1.01518157519666030e-01  0.00000000000000000e+00
4.99999999999999958e-02  1.11111111111111105e-01  0.00000000000000000e+00
4.99999999999999958e-02  6.51485091470006272e-02  0.00000000000000000e+00
4.99999999999999958e-02  8.33333333333333287e-02  0.00000000000000000e+00
4.99999999999999958e-02  1.01518157519666030e-01  0.00000000000000000e+00
-5.00000000000000028e-02  1.66666666666666657e-01  0.00000000000000000e+00
-5.00000000000000028e-02  1.20704064702556180e-01  0.00000000000000000e+00
-5.00000000000000028e-02  1.38888888888888895e-01  0.00000000000000000e+00
-5.00000000000000028e-02  1.57073713075221583e-01  0.00000000000000000e+00
4.99999999999999958e-02  1.66666666666666657e-01  0.00000000000000000e+00
4.99999999999999958e-02  1.20704064702556180e-01  0.00000000000000000e+00
4.99999999999999958e-02  1.38888888888888895e-01  0.00000000000000000e+00
4.99999999999999958e-02  1.57073713075221583e-01  0.00000000000000000e+00
-5.00000000000000028e-02  2.22222222222222210e-01  0.00000000000000000e+00
-5.00000000000000028e-02  1.76259620258111732e-01  0.00000000000000000e+00
-5.00000000000000028e-02  1.94444444444444420e-01  0.00000000000000000e+00
-5.00000000000000028e-02  2.12629268630777135e-01  0.00000000000000000e+00
4.99999999999999958e-02  2.22222222222222210e-01  0.00000000000000000e+00
4.99999999999999958e-02  1.76259620258111732e-01  0.00000000000000000e+00
4.99999999999999958e-02  1.94444444444444420e-01  0.00000000000000000e+00
4.99999999999999958e-02  2.12629268630777135e-01  0.00000000000000000e+00
-5.00000000000000028e-02  2.77777777777777790e-01  0.00000000000000000e+00
-5.00000000000000028e-02  2.31815175813667285e-01  0.00000000000000000e+00
-5.00000000000000028e-02  2.50000000000000000e-01  0.00000000000000000e+00
-5.00000000000000028e-02  2.68184824186332715e-01  0.00000000000000000e+00
4.99999999999999958e-02  2.77777777777777790e-01  0.00000000000000000e+00
4.99999999999999958e-02  2.31815175813667285e-01  0.00000000000000000e+00
4.99999999999999958e-02  2.50000000000000000e-01  0.00000000000000000e+00
4.99999999999999958e-02  2.68184824186332715e-01  0.00000000000000000e+00
-5.00000000000000028e-02  3.33333333333333315e-01  0.00000000000000000e+00
-5.00000000000000028e-02  2.87370731369222865e-01  0.00000000000000000e+00
-5.00000000000000028e-02  3.05555555555555580e-01  0.00000000000000000e+00
-5.00000000000000028e-02  3.23740379741888240e-01  0.00000000000000000e+00
4.99999999999999958e-02  3.33333333333333315e-01  0.00000000000000000e+00
4.99999999999999958e-02  2.87370731369222865e-01  0.00000000000000000e+00
4.99999999999999958e-02  3.05555555555555580e-01  0.00000000000000000e+00
4.99999999999999958e-02  3.23740379741888240e-01  0.00000000000000000e+00
-5.00000000000000028e-02  3.88888888888888840e-01  0.00000000000000000e+00
-5.00000000000000028e-02  3.42926286924778334e-01  0.00000000000000000e+00
-5.00000000000000028e-02  3.61111111111111049e-01  0.00000000000000000e+00
-5.00000000000000028e-02  3.79295935297443765e-01  0.00000000000000000e+00
4.99999999999999958e-02  3.88888888888888840e-01  0.00000000000000000e+00
4.99999999999999958e-02  3.42926286924778334e-01  0.00000000000000000e+00
4.99999999999999958e-02  3.61111111111111049e-01  0.00000000000000000e+00
4.99999999999999958e-02  3.79295935297443765e-01  0.00000000000000000e+00
-5.00000000000000028e-02  4.44444444444444420e-01  0.00000000000000000e+00
-5.00000000000000028e-02  3.98481842480333914e-01  0.00000000000000000e+00
-5.00000000000000028e-02  4.16666666666666630e-01  0.00000000000000000e+00
-5.00000000000000028e-02  4.34851490852999345e-01  0.00000000000000000e+00
4.99999999999999958e-02  4.44444444444444420e-01  0.00000000000000000e+00
4.99999999999999958e-02  3.98481842480333914e-01  0.00000000000000000e+00
4.99999999999999958e-02  4.16666666666666630e-01  0.00000000000000000e+00
4.99999999999999958e-02  4.34851490852999345e-01  0.00000000000000000e+00
-5.00000000000000028e-02  5.00000000000000000e-01  0.00000000000000000e+00
-5.00000000000000028e-02  4.54037398035889495e-01  0.00000000000000000e+00
-5.00000000000000028e-02  4.72222222222222210e-01  0.00000000000000000e+00
-5.00000000000000028e-02  4.90407046408554925e-01  0.00000000000000000e+00
4.99999999999999958e-02  5.00000000000000000e-01  0.00000000000000000e+00
4.99999999999999958e-02  4.54037398035889495e-01  0.00000000000000000e+00
4.99999999999999958e-02  4.72222222222222210e-01  0.00000000000000000e+00
4.99999999999999958e-02  4.90407046408554925e-01  0.00000000000000000e+00
-5.00000000000000028e-02  5.55555555555555580e-01  0.00000000000000000e+00
-5.00000000000000028e-02  5.09592953591445075e-01  0.00000000000000000e+00
-5.00000000000000028e-02  5.27777777777777790e-01  0.00000000000000000e+00
-5.00000000000000028e-02  5.45962601964110505e-01  0.00000000000000000e+00
4.99999999999999958e-02  5.55555555555555580e-01  0.00000000000000000e+00
4.99999999999999958e-02  5.09592953591445075e-01  0.00000000000000000e+00
4.99999999999999958e-02  5.27777777777777790e-01  0.00000000000000000e+00
4.99999999999999958e-02  5.45962601964110505e-01  0.00000000000000000e+00
-5.00000000000000028e-02  6.11111111111111049e-01  0.00000000000000000e+00
-5.00000000000000028e-02  5.65148509147000655e-01  0.00000000000000000e+00
-5.00000000000000028e-02  5.83333333333333259e-01  0.00000000000000000e+00
-5.00000000000000028e-02  6.01518157519665975e-01  0.00000000000000000e+00
4.99999999999999958e-02  6.11111111111111049e-01  0.00000000000000000e+00
4.99999999999999958e-02  5.65148509147000655e-01  0.00000000000000000e+00
4.99999999999999958e-02  5.83333333333333259e-01  0.00000000000000000e+00
4.99999999999999958e-02  6.01518157519665975e-01  0.00000000000000000e+00
-5.00000000000000028e-02  6.66666666666666630e-01  0.00000000000000000e+00
-5.00000000000000028e-02  6.20704064702556013e-01  0.00000000000000000e+00
-5.00000000000000028e-02  6.38888888888888840e-01  0.00000000000000000e+00
-5.00000000000000028e-02  6.57073713075221555e-01  0.00000000000000000e+00
4.99999999999999958e-02  6.66666666666666630e-01  0.00000000000000000e+00
4.99999999999999958e-02  6.20704064702556013e-01  0.00000000000000000e+00
4.99999999999999958e-02  6.38888888888888840e-01  0.00000000000000000e+00
4.99999999999999958e-02  6.57073713075221555e-01  0.00000000000000000e+00
-5.00000000000000028e-02  7.22222222222222210e-01  0.00000000000000000e+00
-5.00000000000000028e-02  6.76259620258111704e-01  0.00000000000000000e+00
-5.00000000000000028e-02  6.94444444444444420e-01  0.00000000000000000e+00
-5.00000000000000028e-02  7.12629268630777135e-01  0.00000000000000000e+00
4.99999999999999958e-02  7.22222222222222210e-01  0.00000000000000000e+00
4.99999999999999958e-02  6.76259620258111704e-01  0.00000000000000000e+00
4.99999999999999958e-02  6.94444444444444420e-01  0.00000000000000000e+00
4.99999999999999958e-02  7.12629268630777135e-01  0.00000000000000000e+00
-5.00000000000000028e-02  7.77777777777777679e-01  0.00000000000000000e+00
-5.00000000000000028e-02  7.31815175813667174e-01  0.00000000000000000e+00
-5.00000000000000028e-02  7.50000000000000000e-01  0.00000000000000000e+00
-5.00000000000000028e-02  7.68184824186332604e-01  0.00000000000000000e+00
4.99999999999999958e-02  7.77777777777777679e-01  0.00000000000000000e+00
4.99999999999999958e-02  7.31815175813667174e-01  0.00000000000000000e+00
4.99999999999999958e-02  7.50000000000000000e-01  0.00000000000000000e+00
4.99999999999999958e-02  7.68184824186332604e-01  0.00000000000000000e+00
-5.00000000000000028e-02  8.33333333333333259e-01  0.00000000000000000e+00
-5.00000000000000028e-02  7.87370731369222754e-01  0.00000000000000000e+00
-5.00000000000000028e-02  8.05555555555555469e-01  0.00000000000000000e+00
-5.00000000000000028e-02  8.23740379741888185e-01  0.00000000000000000e+00
4.99999999999999958e-02  8.33333333333333259e-01  0.00000000000000000e+00
4.99999999999999958e-02  7.87370731369222754e-01  0.00000000000000000e+00
4.99999999999999958e-02  8.05555555555555469e-01  0.00000000000000000e+00
4.99999999999999958e-02  8.23740379741888185e-01  0.00000000000000000e+00
-5.00000000000000028e-02  8.88888888888888840e-01  0.00000000000000000e+00
-5.00000000000000028e-02  8.42926286924778334e-01  0.00000000000000000e+00
-5.00000000000000028e-02  8.61111111111111049e-01  0.00000000000000000e+00
-5.00000000000000028e-02  8.79295935297443765e-01  0.00000000000000000e+00
4.99999999999999958e-02  8.88888888888888840e-01  0.00000000000000000e+00
4.99999999999999958e-02  8.42926286924778334e-01  0.00000000000000000e+00
4.99999999999999958e-02  8.61111111111111049e-01  0.00000000000000000e+00
4.99999999999999958e-02  8.79295935297443765e-01  0.00000000000000000e+00
-5.00000000000000028e-02  9.44444444444444420e-01  0.00000000000000000e+00
-5.00000000000000028e-02  8.98481842480333914e-01  0.00000000000000000e+00
-5.00000000000000028e-02  9.16666666666666630e-01  0.00000000000000000e+00
-5.00000000000000028e-02  9.34851490852999345e-01  0.00000000000000000e+00
4.99999999999999958e-02  9.44444444444444420e-01  0.00000000000000000e+00
4.99999999999999958e-02  8.98481842480333914e-01  0.00000000000000000e+00
4.99999999999999958e-02  9.16666666666666630e-01  0.00000000000000000e+00
4.99999999999999958e-02  9.34851490852999345e-01  0.00000000000000000e+00
-5.00000000000000028e-02  1.00000000000000000e+00  0.00000000000000000e+00
-1.66666666666666699e-02  1.00000000000000000e+00  0.00000000000000000e+00
-5.00000000000000028e-02  9.54037398035889495e-01  0.00000000000000000e+00
-5.00000000000000028e-02  9.72222222222222210e-01  0.00000000000000000e+00
-5.00000000000000028e-02  9.90407046408554925e-01  0.00000000000000000e+00
-4.42442278451329538e-02  1.00000000000000000e+00  0.00000000000000000e+00
-3.33333333333333398e-02  1.00000000000000000e+00  0.00000000000000000e+00
-2.24224388215337189e-02  1.00000000000000000e+00  0.00000000000000000e+00
1.66666666666666630e-02  1.00000000000000000e+00  0.00000000000000000e+00
-1.09108945117996226e-02  1.00000000000000000e+00  0.00000000000000000e+00
-3.46944695195361419e-18  1.00000000000000000e+00  0.00000000000000000e+00
1.09108945117996139e-02  1.00000000000000000e+00  0.00000000000000000e+00
4.99999999999999958e-02  1.00000000000000000e+00  0.00000000000000000e+00
4.99999999999999958e-02  9.54037398035889495e-01  0.00000000000000000e+00
4.99999999999999958e-02  9.72222222222222210e-01  0.00000000000000000e+00
4.99999999999999958e-02  9.90407046408554925e-01  0.00000000000000000e+00
2.24224388215337120e-02  1.00000000000000000e+00  0.00000000000000000e+00
3.33333333333333259e-02  1.00000000000000000e+00  0.00000000000000000e+00
4.42442278451329468e-02  1.00000000000000000e+00  0.00000000000000000e+00

CELLS 0 0


CELL_TYPES 0


POINT_DATA 157

VECTORS VertexNormals double

0.00000000000000000e+00 0.00000000000000000e+00 0
0.00000000000000000e+00 0.00000000000000000e+00 0
0.00000000000000000e+00 0.00000000000000000e+00 0
0.00000000000000000e+00 0.00000000000000000e+00 0
0.00000000000000000e+00 0.00000000000000000e+00 0
0.00000000000000000e+00 0.00000000000000000e+00 0
0.00000000000000000e+00 0.00000000000000000e+00 0
0.00000000000000000e+00 0.00000000000000000e+00 0
0.00000000000000000e+00 0.00000000000000000e+00 0
0.00000000000000000e+00 0.00000000000000000e+00 0
0.00000000000000000e+00 0.00000000000000000e+00 0
0.00000000000000000e+00 0.00000000000000000e+00 0
0.00000000000000000e+00 0.00000000000000000e+00 0
0.00000000000000000e+00 0.00000000000000000e+00 0
0.00000000000000000e+00 0.00000000000000000e+00 0
0.00000000000000000e+00 0.00000000000000000e+00 0
0.00000000000000000e+00 0.00000000000000000e+00 0
0.00000000000000000e+00 0.00000000000000000e+00 0
0.00000000000000000e+00 0.00000000000000000e+00 0
0.00000000000000000e+00 0.00000000000000000e+00 0
0.00000000000000000e+00 0.00000000000000000e+00 0
0.00000000000000000e+00 0.00000000000000000e+00 0
0.00000000000000000e+00 0.00000000000000000e+00 0
0.00000000000000000e+00 0.00000000000000000e+00 0
0.00000000000000000e+00 0.00000000000000000e+00 0
0.00000000000000000e+00 0.00000000000000000e+00 0
0.00000000000000000e+00 0.00000000000000000e+00 0
0.00000000000000000e+00 0.00000000000000000e+00 0
0.00000000000000000e+00 0.00000000000000000e+00 0
0.00000000000000000e+00 0.00000000000000000e+00 0
0.00000000000000000e+00 0.00000000000000000e+00 0
0.00000000000000000e+00 0.00000000000000000e+00 0
0.00000000000000000e+00 0.00000000000000000e+00 0
0.00000000000000000e+00 0.00000000000000000e+00 0
0.00000000000000000e+00 0.00000000000000000e+00 0
0.00000000000000000e+00 0.00000000000000000e+00 0
0.00000000000000000e+00 0.00000000000000000e+00 0
0.00000000000000000e+00 0.00000000000000000e+00 0
0.00000000000000000e+00 0.00000000000000000e+00 0
0.00000000000000000e+00 0.00000000000000000e+00 0
0.00000000000000000e+00 0.00000000000000000e+00 0
0.00000000000000000e+00 0.00000000000000000e+00 0
0.00000000000000000e+00 0.00000000000000000e+00 0
0.00000000000000000e+00 0.00000000000000000e+00 0
0.00000000000000000e+00 0.00000000000000000e+00 0
0.00000000000000000e+00 0.00000000000000000e+00 0
0.00000000000000000e+00 0.00000000000000000e+00 0
0.00000000000000000e+00 0.00000000000000000e+00 0
0.00000000000000000e+00 0.00000000000000000e+00 0
0.00000000000000000e+00 0.00000000000000000e+00 0
0.00000000000000000e+00 0.00000000000000000e+00 0
0.00000000000000000e+00 0.00000000000000000e+00 0
0.00000000000000000e+00 0.00000000000000000e+00 0
0.00000000000000000e+00 0.00000000000000000e+00 0
0.00000000000000000e+00 0.00000000000000000e+00 0
0.00000000000000000e+00 0.00000000000000000e+00 0
0.00000000000000000e+00 0.00000000000000000e+00 0
0.00000000000000000e+00 0.00000000000000000e+00 0
0.00000000000000000e+00 0.00000000000000000e+00 0
0.00000000000000000e+00 0.00000000000000000e+00 0
0.00000000000000000e+00 0.00000000000000000e+00 0
0.00000000000000000e+00 0.00000000000000000e+00 0
0.00000000000000000e+00 0.00000000000000000e+00 0
0.00000000000000000e+00 0.00000000000000000e+00 0
0.00000000000000000e+00 0.00000000000000000e+00 0
0.00000000000000000e+00 0.00000000000000000e+00 0
0.00000000000000000e+00 0.00000000000000000e+00 0
0.00000000000000000e+00 0.00000000000000000e+00 0
0.00000000000000000e+00 0.00000000000000000e+00 0
0.00000000000000000e+00 0.00000000000000000e+00 0
0.00000000000000000e+00 0.00000000000000000e+00 0
0.00000000000000000e+00 0.00000000000000000e+00 0
0.00000000000000000e+00 0.00000000000000000e+00 0
0.00000000000000000e+00 0.00000000000000000e+00 0
0.00000000000000000e+00 0.00000000000000000e+00 0
0.00000000000000000e+00 0.00000000000000000e+00 0
0.00000000000000000e+00 0.00000000000000000e+00 0
0.00000000000000000e+00 0.00000000000000000e+00 0
0.00000000000000000e+00 0.00000000000000000e+00 0
0.00000000000000000e+00 0.00000000000000000e+00 0
0.00000000000000000e+00 0.00000000000000000e+00 0
0.00000000000000000e+00 0.00000000000000000e+00 0
0.00000000000000000e+00 0.00000000000000000e+00 0
0.00000000000000000e+00 0.00000000000000000e+00 0
0.00000000000000000e+00 0.00000000000000000e+00 0
0.00000000000000000e+00 0.00000000000000000e+00 0
0.00000000000000000e+00 0.00000000000000000e+00 0
0.00000000000000000e+00 0.00000000000000000e+00 0
0.00000000000000000e+00 0.00000000000000000e+00 0
0.00000000000000000e+00 0.00000000000000000e+00 0
0.00000000000000000e+00 0.00000000000000000e+00 0
0.00000000000000000e+00 0.00000000000000000e+00 0
0.00000000000000000e+00 0.00000000000000000e+00 0
0.00000000000000000e+00 0.00000000000000000e+00 0
0.00000000000000000e+00 0.00000000000000000e+00 0
0.00000000000000000e+00 0.00000000000000000e+00 0
0.00000000000000000e+00 0.00000000000000000e+00 0
0.00000000000000000e+00 0.00000000000000000e+00 0
0.00000000000000000e+00 0.00000000000000000e+00 0
0.00000000000000000e+00 0.00000000000000000e+00 0
0.00000000000000000e+00 0.00000000000000000e+00 0
0.00000000000000000e+00 0.00000000000000000e+00 0
0.00000000000000000e+00 0.00000000000000000e+00 0
0.00000000000000000e+00 0.00000000000000000e+00 0
0.00000000000000000e+00 0.00000000000000000e+00 0
0.00000000000000000e+00 0.00000000000000000e+00 0
0.00000000000000000e+00 0.00000000000000000e+00 0
0.00000000000000000e+00 0.00000000000000000e+00 0
0.00000000000000000e+00 0.00000000000000000e+00 0
0.00000000000000000e+00 0.00000000000000000e+00 0
0.00000000000000000e+00 0.00000000000000000e+00 0
0.00000000000000000e+00 0.00000000000000000e+00 0
0.00000000000000000e+00 0.00000000000000000e+00 0
0.00000000000000000e+00 0.00000000000000000e+00 0
0.00000000000000000e+00 0.00000000000000000e+00 0
0.00000000000000000e+00 0.00000000000000000e+00 0
0.00000000000000000e+00 0.00000000000000000e+00 0
0.00000000000000000e+00 0.00000000000000000e+00 0
0.00000000000000000e+00 0.00000000000000000e+00 0
0.00000000000000000e+00 0.00000000000000000e+00 0
0.00000000000000000e+00 0.00000000000000000e+00 0
0.00000000000000000e+00 0.00000000000000000e+00 0
0.00000000000000000e+00 0.00000000000000000e+00 0
0.00000000000000000e+00 0.00000000000000000e+00 0
0.00000000000000000e+00 0.00000000000000000e+00 0
0.00000000000000000e+00 0.00000000000000000e+00 0
0.00000000000000000e+00 0.00000000000000000e+00 0
0.00000000000000000e+00 0.00000000000000000e+00 0
0.00000000000000000e+00 0.00000000000000000e+00 0
0.00000000000000000e+00 0.00000000000000000e+00 0
0.00000000000000000e+00 0.00000000000000000e+00 0
0.00000000000000000e+00 0.00000000000000000e+00 0
0.00000000000000000e+00 0.00000000000000000e+00 0
0.00000000000000000e+00 0.00000000000000000e+00 0
0.00000000000000000e+00 0.00000000000000000e+00 0
0.00000000000000000e+00 0.00000000000000000e+00 0
0.00000000000000000e+00 0.00000000000000000e+00 0
0.00000000000000000e+00 0.00000000000000000e+00 0
0.00000000000000000e+00 0.00000000000000000e+00 0
0.00000000000000000e+00 0.00000000000000000e+00 0
0.00000000000000000e+00 0.00000000000000000e+00 0
0.00000000000000000e+00 0.00000000000000000e+00 0
0.00000000000000000e+00 0.00000000000000000e+00 0
0.00000000000000000e+00 0.00000000000000000e+00 0
0.00000000000000000e+00 0.00000000000000000e+00 0
0.00000000000000000e+00 0.00000000000000000e+00 0
0.00000000000000000e+00 0.00000000000000000e+00 0
0.00000000000000000e+00 0.00000000000000000e+00 0
0.00000000000000000e+00 0.00000000000000000e+00 0
0.00000000000000000e+00 0.00000000000000000e+00 0
0.00000000000000000e+00 0.00000000000000000e+00 0
0.00000000000000000e+00 0.00000000000000000e+00 0
0.00000000000000000e+00 0.00000000000000000e+00 0
0.00000000000000000e+00 0.00000000000000000e+00 0
0.00000000000000000e+00 0.00000000000000000e+00 0
0.00000000000000000e+00 0.00000000000000000e+00 0
0.00000000000000000e+00 0.00000000000000000e+00 0

VECTORS Displacement double
0.00000000000000000e+00 0.00000000000000000e+00 0
3.88106314504555727e-06 4.37112792101234923e-06 0
6.71463428988767023e-07 9.25084273999412121e-07 0
1.64689082870283875e-06 2.34236687797093378e-06 0
2.99781399567090257e-06 3.69878756587703248e-06 0
0.00000000000000000e+00 0.00000000000000000e+00 0
3.92110265449645631e-06 -4.50025318268102267e-06 0
7.01748650707319700e-07 -9.57801129406329678e-07 0
1.69472119139452947e-06 -2.41229226666297933e-06 0
3.04352655990531692e-06 -3.80512934073242211e-06 0
1.13555640964652976e-05 7.88862434930458826e-06 0
4.90492094244172110e-06 5.02547717038931199e-06 0
7.14380233953775096e-06 6.21039214086184305e-06 0
9.80416649438292315e-06 7.32727764421078323e-06 0
1.14075656021992105e-05 -8.15940623159895353e-06 0
4.94032295565220721e-06 -5.18172201715212840e-06 0
7.18547258950893091e-06 -6.41642390323879138e-06 0
9.85015964890354730e-06 -7.57621810302097985e-06 0
2.22831249717522934e-05 1.08195781993224146e-05 0
1.30251086449797093e-05 8.42703647500772772e-06 0
1.64389714104096250e-05 9.39840621241883383e-06 0
2.01705882518610423e-05 1.03341041493330868e-05 0
2.23378145790442180e-05 -1.12244566744957532e-05 0
1.30742221826749094e-05 -8.72168282647496867e-06 0
1.64904130321346236e-05 -9.74131502039515620e-06 0
2.02302899054363281e-05 -1.07195038698943033e-05 0
3.62509751922263895e-05 1.35215036784598898e-05 0
2.44708701112400554e-05 1.12993211436333381e-05 0
2.88915525233539618e-05 1.21900366823147414e-05 0
3.36265576503961831e-05 1.30622598433869225e-05 0
3.62904200746740811e-05 -1.40440467259018628e-05 0
2.45283152817966312e-05 -1.17234010351488210e-05 0
2.89366399321422385e-05 -1.26531807664772642e-05 0
3.36653506088206055e-05 -1.35664029686424313e-05 0
5.33506825081233571e-05 1.60534962552208971e-05 0
3.89844835223812980e-05 1.39805797483488677e-05 0
4.44117400905822825e-05 1.48348945166926469e-05 0
5.01843508695286550e-05 1.56465421946177000e-05 0
5.33661683641883106e-05 -1.66687139557267230e-05 0
3.90151916469999715e-05 -1.45185326024212815e-05 0
4.44349520762747199e-05 -1.54022125765229289e-05 0
5.01976179066126571e-05 -1.62458015452157270e-05 0
7.32974266032565991e-05 1.80231310723983642e-05 0
5.66057803793149246e-05 1.64488545744947858e-05 0
6.30101842513936916e-05 1.71481801977327754e-05 0
6.96842474628590886e-05 1.77517601874244699e-05 0
7.32993732825512763e-05 -1.86923472591986777e-05 0
5.66230476693962723e-05 -1.70749507471175760e-05 0
6.30248213790932115e-05 -1.77885033183960518e-05 0
6.96913266823718082e-05 -1.84092594361029847e-05 0
9.50052269933927129e-05 1.90661676117652570e-05 0
7.69505628436608524e-05 1.82657951285418036e-05 0
8.40014635225239364e-05 1.86590777585233264e-05 0
9.11797700835030985e-05 1.89546402775284673e-05 0
9.50028517964860298e-05 -1.97674218983807458e-05 0
7.69553718819258452e-05 -1.89453104045367222e-05 0
8.40078440179402926e-05 -1.93468378985076650e-05 0
9.11818974626987409e-05 -1.96491896839778561e-05 0
1.17274406898405082e-04 1.92091575889532209e-05 0
9.88479100184024955e-05 1.91453588293816004e-05 0
1.06137248307970421e-04 1.92291420000752878e-05 0
1.13439641833749881e-04 1.92371621031120706e-05 0
1.17282397326095818e-04 -1.99427630595431944e-05 0
9.88410660456388586e-05 -1.98560402122356453e-05 0
1.06136970468058848e-04 -1.99523504659301497e-05 0
1.13441571437688699e-04 -1.99649439512694284e-05 0
1.39249193229372452e-04 1.86441567720749764e-05 0
1.21115107394352819e-04 1.91581127493297143e-05 0
1.28344618832712222e-04 1.90017245240161403e-05 0
1.35496059910789767e-04 1.87837414391472841e-05 0
1.39264457131176988e-04 -1.94072635727595472e-05 0
1.21120544579174255e-04 -1.98984705378841062e-05 0
1.28353744059971021e-04 -1.97571352907189768e-05 0
1.35515769743689909e-04 -1.95468904995010991e-05 0
1.60206698348301662e-04 1.74078746684171737e-05 0
1.42956044408868962e-04 1.84827495757707568e-05 0
1.49914611986893550e-04 1.81145951596888318e-05 0
1.56705875049200591e-04 1.76671481069571138e-05 0
1.60217265614833284e-04 -1.81966105454348405e-05 0
1.42974848042100549e-04 -1.92500353545410724e-05 0
1.49923781944932003e-04 -1.88909973152345881e-05 0
1.56712951862565344e-04 -1.84541596371162632e-05 0
1.79274358799733487e-04 1.56620819047500146e-05 0
1.63665500195422258e-04 1.71356322359736653e-05 0
1.70026026566141825e-04 1.65785776293654541e-05 0
1.76152334078044827e-04 1.59832433478698422e-05 0
1.79270028889642370e-04 -1.64740061670884652e-05 0
1.63669146782812136e-04 -1.79215182142770624e-05 0
1.70022365446745733e-04 -1.73734759026333052e-05 0
1.76142476794485358e-04 -1.67910945930403088e-05 0
1.96025137622872118e-04 1.38756005412019588e-05 0
1.82328583810869460e-04 1.53459731335589367e-05 0
1.87932340992374232e-04 1.47551066060017991e-05 0
1.93290182034727882e-04 1.41736478724638117e-05 0
1.96012306693085688e-04 -1.46898177617385482e-05 0
1.82330151573527056e-04 -1.61545979682399955e-05 0
1.87933376907919064e-04 -1.55557517804711911e-05 0
1.93281195042249395e-04 -1.49820392791792709e-05 0
2.10708556835741378e-04 1.24540017631845213e-05 0
1.98687116684048861e-04 1.35903739191338391e-05 0
2.03582687640306353e-04 1.31004386445189550e-05 0
2.08289960739402216e-04 1.26638764221142514e-05 0
2.10692593161807630e-04 -1.32532606703432310e-05 0
1.98680422230248257e-04 -1.44066222069883101e-05 0
2.03583981042275810e-04 -1.39011662350575927e-05 0
2.08281975062087868e-04 -1.34589563973048805e-05 0
2.24041607610553958e-04 1.15973731699966305e-05 0
2.13089689745832355e-04 1.22586678177327679e-05 0
2.17494275640251714e-04 1.19463419527621933e-05 0
2.21810327532243805e-04 1.17070363873665898e-05 0
2.24033713219525568e-04 -1.23764336336573545e-05 0
2.13067875282325539e-04 -1.30628980601304635e-05 0
2.17483999637605038e-04 -1.27453577059877880e-05 0
2.21804533491184530e-04 -1.24843112409481172e-05 0
2.36836607959955606e-04 1.12787732415233378e-05 0
2.26271986515016896e-04 1.15059970666225546e-05 0
2.30461025974839441e-04 1.13725309723882266e-05 0
2.34624680035139211e-04 1.12973576859090613e-05 0
2.36830214514111519e-04 -1.20236024411748016e-05 0
2.26257216870509912e-04 -1.22863096779605403e-05 0
2.30445517833771841e-04 -1.21525865157000412e-05 0
2.34620647168291287e-04 -1.20611869092337367e-05 0
2.49617990998177175e-04 1.12363568775738122e-05 0
2.39028902733422292e-04 1.12584489693166850e-05 0
2.43218280662066248e-04 1.12384166232361762e-05 0
2.47408931073121448e-04 1.12307273645332865e-05 0
2.49603877427281211e-04 -1.19228965331081066e-05 0
2.39019190075876110e-04 -1.19991534088087308e-05 0
2.43195561349646052e-04 -1.19649445716170385e-05 0
2.47387152021174086e-04 -1.19366024276655636e-05 0
2.62437621802224315e-04 1.12830205418336321e-05 0
2.51846384590032415e-04 1.12481524051951583e-05 0
2.56028559687362532e-04 1.12488034289946792e-05 0
2.60221907199940049e-04 1.12646687626110351e-05 0
2.62396570106740055e-04 -1.18949090716240132e-05 0
2.51830692933721016e-04 -1.19023136632969084e-05 0
2.55989822230298148e-04 -1.18902190403928671e-05 0
2.60173036654669091e-04 -1.18942367740970939e-05 0
2.75328631232422320e-04 1.13489401706089003e-05 0
2.75324095052836176e-04 3.60298462771090786e-06 0
2.64667865910579898e-04 1.13106488222201922e-05 0
2.68902466073411698e-04 1.13509723523797434e-05 0
2.73109213607635706e-04 1.13513972241043328e-05 0
2.75331149478439633e-04 1.00222222014041541e-05 0
2.75340743458083945e-04 7.50636124560053848e-06 0
2.75332057522466973e-04 4.94734426655988317e-06 0
2.75305603772076708e-04 -4.15077378877990339e-06 0
2.75320676779908062e-04 2.27094027099579174e-06 0
2.75322691137638051e-04 -2.50211523676779094e-07 0
2.75313438340277661e-04 -2.80633835968792421e-06 0
2.75293442641405919e-04 -1.18959442224778905e-05 0
2.64639159421826595e-04 -1.18912165202013994e-05 0
2.68870536464681372e-04 -1.18787800737008644e-05 0
2.73058746930931995e-04 -1.18875444915813982e-05 0
2.75301600955384996e-04 -5.48407234100724814e-06 0
2.75300893478672311e-04 -8.00520693113965866e-06 0
2.75294699149997916e-04 -1.05493753689126295e-05 0

VECTORS Force double
1.95727930528582589e-01 9.33521283981325416e-04 0
-9.16965690730892957e-01 5.12634875939641226e-04 0
-9.35094704256620113e-01 -1.72390866009564374e-04 0
7.31569619019390771e+00 -4.62805279140000077e-03 0
3.53154123877527137e+00 -2.18724147915971010e-03 0
7.92044506054776776e-02 1.00992678949188459e-03 0
-3.93171563471909624e-01 4.75337265185294343e-04 0
-3.98245929938421950e-01 -3.33538187027115776e-04 0
3.13759529297531303e+00 -3.17502960152641137e-03 0
1.51508531292836968e+00 -1.54724779151688098e-03 0
-8.21595705813628063e-01 3.30553159669028747e-03 0
-5.60023558825431256e-02 4.78516891362676768e-04 0
5.93292954597538169e-01 -2.40480598692572288e-03 0
9.48216282457820370e+00 -3.73391352945519617e-02 0
-3.44347868900451048e-01 -2.32172171642393895e-03 0
-2.23940922641879363e-02 -3.62274137810904826e-04 0
2.48714652761067134e-01 1.57957486394662175e-03 0
3.97575718803230638e+00 2.57279421167319437e-02 0
9.28882605431970099e+00 -4.42226378042843982e-02 0
9.01138097553949718e-02 -4.82231259649236639e-04 0
-1.50856303735367060e-02 5.25260429550440677e-05 0
2.74931270853126485e-02 4.08100236188611569e-05 0
3.79665344796889093e+00 1.03881510108339972e-01 0
3.75687608030845638e-02 2.78396061722328565e-04 0
-6.78590462473250937e-03 -2.87535087765254744e-05 0
1.07825248998881067e-02 3.33093450595818894e-05 0
-8.40796257740295983e-01 1.90231895139603103e-03 0
2.93847486243635561e-02 -1.62626763862027109e-05 0
-1.35242287702644227e-02 -4.11070476034052922e-05 0
9.02996386211331881e-02 -2.81717382025593031e-04 0
-3.38278153240133772e-01 -2.02200564734748220e-02 0
1.18956692161480051e-02 -2.59984874592851008e-06 0
-5.82227367421346217e-03 -3.32403287301482134e-04 0
3.59645599618126227e-02 2.52412099212630118e-03 0
-9.57189998298078160e-01 -4.41716873468662747e-03 0
9.69458680383965543e+00 -2.12515560598520378e-02 0
6.06642793979876416e-01 -1.42729149648828779e-03 0
-5.51112721122766977e-02 6.26188851489753342e-04 0
-3.83171473364820603e-01 -3.64017203101245149e-02 0
3.89669292532704015e+00 2.24493404844871736e-01 0
2.43955462848868848e-01 1.35539878354576527e-02 0
-2.18283494269971637e-02 1.13255166817016918e-04 0
4.80932183293476034e-01 4.87868040225873309e-03 0
3.68034151667140952e+00 1.59520447236675411e-02 0
7.61505049330460970e+00 3.29433928184381872e-02 0