# vtk DataFile Version 2.0

ASCII

DATASET UNSTRUCTURED_GRID

POINTS 79 float 

-5.0000000000000003e-02  0.0000000000000000e+00  0.0000000000000000e+00
-5.0000000000000003e-02  5.5555555555555552e-02  0.0000000000000000e+00
-5.0000000000000003e-02  2.7777777777777776e-02  0.0000000000000000e+00
5.0000000000000003e-02  0.0000000000000000e+00  0.0000000000000000e+00
5.0000000000000003e-02  5.5555555555555552e-02  0.0000000000000000e+00
5.0000000000000003e-02  2.7777777777777776e-02  0.0000000000000000e+00
-5.0000000000000003e-02  1.1111111111111110e-01  0.0000000000000000e+00
-5.0000000000000003e-02  8.3333333333333329e-02  0.0000000000000000e+00
5.0000000000000003e-02  1.1111111111111110e-01  0.0000000000000000e+00
5.0000000000000003e-02  8.3333333333333329e-02  0.0000000000000000e+00
-5.0000000000000003e-02  1.6666666666666666e-01  0.0000000000000000e+00
-5.0000000000000003e-02  1.3888888888888890e-01  0.0000000000000000e+00
5.0000000000000003e-02  1.6666666666666666e-01  0.0000000000000000e+00
5.0000000000000003e-02  1.3888888888888890e-01  0.0000000000000000e+00
-5.0000000000000003e-02  2.2222222222222221e-01  0.0000000000000000e+00
-5.0000000000000003e-02  1.9444444444444442e-01  0.0000000000000000e+00
5.0000000000000003e-02  2.2222222222222221e-01  0.0000000000000000e+00
5.0000000000000003e-02  1.9444444444444442e-01  0.0000000000000000e+00
-5.0000000000000003e-02  2.7777777777777779e-01  0.0000000000000000e+00
-5.0000000000000003e-02  2.5000000000000000e-01  0.0000000000000000e+00
5.0000000000000003e-02  2.7777777777777779e-01  0.0000000000000000e+00
5.0000000000000003e-02  2.5000000000000000e-01  0.0000000000000000e+00
-5.0000000000000003e-02  3.3333333333333331e-01  0.0000000000000000e+00
-5.0000000000000003e-02  3.0555555555555558e-01  0.0000000000000000e+00
5.0000000000000003e-02  3.3333333333333331e-01  0.0000000000000000e+00
5.0000000000000003e-02  3.0555555555555558e-01  0.0000000000000000e+00
-5.0000000000000003e-02  3.8888888888888884e-01  0.0000000000000000e+00
-5.0000000000000003e-02  3.6111111111111105e-01  0.0000000000000000e+00
5.0000000000000003e-02  3.8888888888888884e-01  0.0000000000000000e+00
5.0000000000000003e-02  3.6111111111111105e-01  0.0000000000000000e+00
-5.0000000000000003e-02  4.4444444444444442e-01  0.0000000000000000e+00
-5.0000000000000003e-02  4.1666666666666663e-01  0.0000000000000000e+00
5.0000000000000003e-02  4.4444444444444442e-01  0.0000000000000000e+00
5.0000000000000003e-02  4.1666666666666663e-01  0.0000000000000000e+00
-5.0000000000000003e-02  5.0000000000000000e-01  0.0000000000000000e+00
-5.0000000000000003e-02  4.7222222222222221e-01  0.0000000000000000e+00
5.0000000000000003e-02  5.0000000000000000e-01  0.0000000000000000e+00
5.0000000000000003e-02  4.7222222222222221e-01  0.0000000000000000e+00
-5.0000000000000003e-02  5.5555555555555558e-01  0.0000000000000000e+00
-5.0000000000000003e-02  5.2777777777777779e-01  0.0000000000000000e+00
5.0000000000000003e-02  5.5555555555555558e-01  0.0000000000000000e+00
5.0000000000000003e-02  5.2777777777777779e-01  0.0000000000000000e+00
-5.0000000000000003e-02  6.1111111111111105e-01  0.0000000000000000e+00
-5.0000000000000003e-02  5.8333333333333326e-01  0.0000000000000000e+00
5.0000000000000003e-02  6.1111111111111105e-01  0.0000000000000000e+00
5.0000000000000003e-02  5.8333333333333326e-01  0.0000000000000000e+00
-5.0000000000000003e-02  6.6666666666666663e-01  0.0000000000000000e+00
-5.0000000000000003e-02  6.3888888888888884e-01  0.0000000000000000e+00
5.0000000000000003e-02  6.6666666666666663e-01  0.0000000000000000e+00
5.0000000000000003e-02  6.3888888888888884e-01  0.0000000000000000e+00
-5.0000000000000003e-02  7.2222222222222221e-01  0.0000000000000000e+00
-5.0000000000000003e-02  6.9444444444444442e-01  0.0000000000000000e+00
5.0000000000000003e-02  7.2222222222222221e-01  0.0000000000000000e+00
5.0000000000000003e-02  6.9444444444444442e-01  0.0000000000000000e+00
-5.0000000000000003e-02  7.7777777777777768e-01  0.0000000000000000e+00
-5.0000000000000003e-02  7.5000000000000000e-01  0.0000000000000000e+00
5.0000000000000003e-02  7.7777777777777768e-01  0.0000000000000000e+00
5.0000000000000003e-02  7.5000000000000000e-01  0.0000000000000000e+00
-5.0000000000000003e-02  8.3333333333333326e-01  0.0000000000000000e+00
-5.0000000000000003e-02  8.0555555555555547e-01  0.0000000000000000e+00
5.0000000000000003e-02  8.3333333333333326e-01  0.0000000000000000e+00
5.0000000000000003e-02  8.0555555555555547e-01  0.0000000000000000e+00
-5.0000000000000003e-02  8.8888888888888884e-01  0.0000000000000000e+00
-5.0000000000000003e-02  8.6111111111111105e-01  0.0000000000000000e+00
5.0000000000000003e-02  8.8888888888888884e-01  0.0000000000000000e+00
5.0000000000000003e-02  8.6111111111111105e-01  0.0000000000000000e+00
-5.0000000000000003e-02  9.4444444444444442e-01  0.0000000000000000e+00
-5.0000000000000003e-02  9.1666666666666663e-01  0.0000000000000000e+00
5.0000000000000003e-02  9.4444444444444442e-01  0.0000000000000000e+00
5.0000000000000003e-02  9.1666666666666663e-01  0.0000000000000000e+00
-5.0000000000000003e-02  1.0000000000000000e+00  0.0000000000000000e+00
-1.6666666666666670e-02  1.0000000000000000e+00  0.0000000000000000e+00
-5.0000000000000003e-02  9.7222222222222221e-01  0.0000000000000000e+00
-3.3333333333333340e-02  1.0000000000000000e+00  0.0000000000000000e+00
1.6666666666666663e-02  1.0000000000000000e+00  0.0000000000000000e+00
-3.4694469519536142e-18  1.0000000000000000e+00  0.0000000000000000e+00
5.0000000000000003e-02  1.0000000000000000e+00  0.0000000000000000e+00
5.0000000000000003e-02  9.7222222222222221e-01  0.0000000000000000e+00
3.3333333333333333e-02  1.0000000000000000e+00  0.0000000000000000e+00

CELLS 0 0


CELL_TYPES 0


POINT_DATA 79

VECTORS VertexNormals float

0.0000000000000000e+00 0.0000000000000000e+00 0
0.0000000000000000e+00 0.0000000000000000e+00 0
0.0000000000000000e+00 0.0000000000000000e+00 0
0.0000000000000000e+00 0.0000000000000000e+00 0
0.0000000000000000e+00 0.0000000000000000e+00 0
0.0000000000000000e+00 0.0000000000000000e+00 0
0.0000000000000000e+00 0.0000000000000000e+00 0
0.0000000000000000e+00 0.0000000000000000e+00 0
0.0000000000000000e+00 0.0000000000000000e+00 0
0.0000000000000000e+00 0.0000000000000000e+00 0
0.0000000000000000e+00 0.0000000000000000e+00 0
0.0000000000000000e+00 0.0000000000000000e+00 0
0.0000000000000000e+00 0.0000000000000000e+00 0
0.0000000000000000e+00 0.0000000000000000e+00 0
0.0000000000000000e+00 0.0000000000000000e+00 0
0.0000000000000000e+00 0.0000000000000000e+00 0
0.0000000000000000e+00 0.0000000000000000e+00 0
0.0000000000000000e+00 0.0000000000000000e+00 0
0.0000000000000000e+00 0.0000000000000000e+00 0
0.0000000000000000e+00 0.0000000000000000e+00 0
0.0000000000000000e+00 0.0000000000000000e+00 0
0.0000000000000000e+00 0.0000000000000000e+00 0
0.0000000000000000e+00 0.0000000000000000e+00 0
0.0000000000000000e+00 0.0000000000000000e+00 0
0.0000000000000000e+00 0.0000000000000000e+00 0
0.0000000000000000e+00 0.0000000000000000e+00 0
0.0000000000000000e+00 0.0000000000000000e+00 0
0.0000000000000000e+00 0.0000000000000000e+00 0
0.0000000000000000e+00 0.0000000000000000e+00 0
0.0000000000000000e+00 0.0000000000000000e+00 0
0.0000000000000000e+00 0.0000000000000000e+00 0
0.0000000000000000e+00 0.0000000000000000e+00 0
0.0000000000000000e+00 0.0000000000000000e+00 0
0.0000000000000000e+00 0.0000000000000000e+00 0
0.0000000000000000e+00 0.0000000000000000e+00 0
0.0000000000000000e+00 0.0000000000000000e+00 0
0.0000000000000000e+00 0.0000000000000000e+00 0
0.0000000000000000e+00 0.0000000000000000e+00 0
0.0000000000000000e+00 0.0000000000000000e+00 0
0.0000000000000000e+00 0.0000000000000000e+00 0
0.0000000000000000e+00 0.0000000000000000e+00 0
0.0000000000000000e+00 0.0000000000000000e+00 0
0.0000000000000000e+00 0.0000000000000000e+00 0
0.0000000000000000e+00 0.0000000000000000e+00 0
0.0000000000000000e+00 0.0000000000000000e+00 0
0.0000000000000000e+00 0.0000000000000000e+00 0
0.0000000000000000e+00 0.0000000000000000e+00 0
0.0000000000000000e+00 0.0000000000000000e+00 0
0.0000000000000000e+00 0.0000000000000000e+00 0
0.0000000000000000e+00 0.0000000000000000e+00 0
0.0000000000000000e+00 0.0000000000000000e+00 0
0.0000000000000000e+00 0.0000000000000000e+00 0
0.0000000000000000e+00 0.0000000000000000e+00 0
0.0000000000000000e+00 0.0000000000000000e+00 0
0.0000000000000000e+00 0.0000000000000000e+00 0
0.0000000000000000e+00 0.0000000000000000e+00 0
0.0000000000000000e+00 0.0000000000000000e+00 0
0.0000000000000000e+00 0.0000000000000000e+00 0
0.0000000000000000e+00 0.0000000000000000e+00 0
0.0000000000000000e+00 0.0000000000000000e+00 0
0.0000000000000000e+00 0.0000000000000000e+00 0
0.0000000000000000e+00 0.0000000000000000e+00 0
0.0000000000000000e+00 0.0000000000000000e+00 0
0.0000000000000000e+00 0.0000000000000000e+00 0
0.0000000000000000e+00 0.0000000000000000e+00 0
0.0000000000000000e+00 0.0000000000000000e+00 0
0.0000000000000000e+00 0.0000000000000000e+00 0
0.0000000000000000e+00 0.0000000000000000e+00 0
0.0000000000000000e+00 0.0000000000000000e+00 0
0.0000000000000000e+00 0.0000000000000000e+00 0
0.0000000000000000e+00 0.0000000000000000e+00 0
0.0000000000000000e+00 0.0000000000000000e+00 0
0.0000000000000000e+00 0.0000000000000000e+00 0
0.0000000000000000e+00 0.0000000000000000e+00 0
0.0000000000000000e+00 0.0000000000000000e+00 0
0.0000000000000000e+00 0.0000000000000000e+00 0
0.0000000000000000e+00 0.0000000000000000e+00 0
0.0000000000000000e+00 0.0000000000000000e+00 0
0.0000000000000000e+00 0.0000000000000000e+00 0

VECTORS Displacement float
0.0000000000000000e+00 0.0000000000000000e+00 0
9.2864776804631264e-04 3.5483879692281355e-04 0
4.6481261250521440e-04 3.1363579436138948e-04 0
0.0000000000000000e+00 0.0000000000000000e+00 0
9.3088021143294269e-04 -3.4924931892812777e-04 0
4.8799158749328016e-04 -3.1972835022814810e-04 0
1.3862459300782717e-03 1.7810102565514666e-04 0
1.2229919321598615e-03 2.7412189385784354e-04 0
1.3872938104525087e-03 -1.8580445376878581e-04 0
1.2230280508661417e-03 -2.7619086240534033e-04 0
1.5001832223946539e-03 5.1505379458781334e-05 0
1.4687711650605559e-03 1.0402920917179461e-04 0
1.5039537294808886e-03 -5.5836462980543381e-05 0
1.4716635296572163e-03 -1.1117595087682490e-04 0
1.5028025358737186e-03 3.1708740861381843e-06 0
1.5069560125314961e-03 2.1068805971027252e-05 0
1.5077233322370507e-03 -3.7524246073717597e-06 0
1.5113197358608361e-03 -2.3113073827091434e-05 0
1.4839640368161321e-03 -1.0861652609523808e-05 0
1.4940053443664560e-03 -6.0339556719642072e-06 0
1.4903336267737110e-03 1.2477989172443212e-05 0
1.4996276736084714e-03 6.5947851037342368e-06 0
1.4620330190206598e-03 -1.5032751619443209e-05 0
1.4731541444160188e-03 -1.3442829610683283e-05 0
1.4699982266403160e-03 1.8436335076895827e-05 0
1.4802723010317815e-03 1.5997789591943061e-05 0
1.4379239470287037e-03 -1.7441599000154780e-05 0
1.4503213425676954e-03 -1.6294053559627132e-05 0
1.4477799632722206e-03 2.2407055841067594e-05 0
1.4591666482338369e-03 2.0481487039613479e-05 0
1.4104666292978146e-03 -1.9797110735732955e-05 0
1.4246702132812105e-03 -1.8608413857906186e-05 0
1.4226006588659171e-03 2.6446048250646013e-05 0
1.4356076484562733e-03 2.4387119867212339e-05 0
1.3789087420775607e-03 -2.2221451570435822e-05 0
1.3952251178809536e-03 -2.1011351801139543e-05 0
1.3938105098711636e-03 3.0954463483470586e-05 0
1.4086858777308711e-03 2.8633221048169154e-05 0
1.3427918733671385e-03 -2.4551496830265635e-05 0
1.3614384643941394e-03 -2.3418213599165321e-05 0
1.3611003216889635e-03 3.6130851033484374e-05 0
1.3779736383926330e-03 3.3443018456729822e-05 0
1.3017288296133577e-03 -2.6485060249671234e-05 0
1.3229134499185956e-03 -2.5602692152804753e-05 0
1.3240792269406450e-03 4.2255894289965778e-05 0
1.3431527389253027e-03 3.9055768856325277e-05 0
1.2553599381717919e-03 -2.7326636147275352e-05 0
1.2792349139057115e-03 -2.7111685995224169e-05 0
1.2823303985844733e-03 4.9594408971739246e-05 0
1.3037873492047695e-03 4.5763455605705346e-05 0
1.2042107313952229e-03 -2.5601328085913937e-05 0
1.2302897117755761e-03 -2.6867166100083559e-05 0
1.2365835055553952e-03 5.8314409730693937e-05 0
1.2597761716131857e-03 5.3749797988771324e-05 0
1.1506378313354796e-03 -2.0747136507172665e-05 0
1.1775880657408136e-03 -2.3447526453791352e-05 0
1.1902089839699241e-03 6.9287455510797568e-05 0
1.2131367545556724e-03 6.3320762488444098e-05 0
1.0950612128386549e-03 -1.3551510493811868e-05 0
1.1231351379869937e-03 -1.7562398168196645e-05 0
1.1450251413322645e-03 8.9535672645212969e-05 0
1.1676881393895440e-03 7.7395085087589007e-05 0
1.0326032135811126e-03 -1.3460518308725906e-05 0
1.0665412521664547e-03 -1.0539142393400199e-05 0
1.0917576620624149e-03 1.3065071649586609e-04 0
1.1203293391029655e-03 1.0757371237111562e-04 0
8.9878389079752830e-04 -2.0239205381413984e-05 0
9.8026908612951344e-04 -2.6084464373394697e-05 0
9.8090799154731782e-04 2.1248480028692156e-04 0
1.0518350047710298e-03 1.6269573172585675e-04 0
7.9550218443476565e-04 1.6507994269596629e-04 0
7.7065095598422559e-04 1.5662886381708648e-04 0
8.1561751319825964e-04 5.7241945613874980e-05 0
7.8045188279236865e-04 1.3472030761787682e-04 0
7.4325519514870737e-04 2.0559788457064903e-04 0
7.6005811092003583e-04 1.7673124895579195e-04 0
6.9999372258118390e-04 3.9039641396543246e-04 0
8.6336950875968532e-04 2.9673468846206567e-04 0
7.2020030489461373e-04 2.6209143609891571e-04 0

VECTORS Stress float
1.9346198243210145e+02 -1.2454701078914852e+02 0
1.2951142180539924e+02 1.9250840622601203e+01 0
1.4507441535543066e+02 -1.5650317656487472e+01 0
1.3806484237961743e+02 -1.2294521725562188e+02 0
6.9188185740841973e+01 1.9993201572009106e+01 0
8.5424107864300396e+01 -1.4553525810924098e+01 0
1.4000330303466129e+02 -3.3175261945581980e+00 0
1.3391478323582550e+02 9.8880307307124529e+00 0
8.1420642846120458e+01 -3.0750875959301212e+00 0
7.4366191509390049e+01 1.0347561391095075e+01 0
1.3828486334159766e+02 -5.8550189915393958e-02 0
1.3960013466389157e+02 -2.8033769458198279e+00 0
8.1695559869516771e+01 -7.7904099604580779e-02 0
8.2121072636898063e+01 -2.7020410599916502e+00 0
1.3734311616530624e+02 3.1292014369025622e-01 0
1.3749238344609410e+02 7.0290608172248881e-01 0
8.4043297305790063e+01 2.2544114597294396e-01 0
8.2606341874402673e+01 6.4555398617803661e-01 0
1.3632790021004831e+02 1.3458332353620506e-01 0
1.3693801251487835e+02 7.3881389915371187e-02 0
8.7449441124066368e+01 2.5847637217502495e-02 0
8.5712940927511525e+01 -2.6858244481367421e-02 0
1.3488107078897306e+02 1.9263975959651702e-01 0
1.3577022966218476e+02 1.4559117420930079e-01 0
9.1640434397269019e+01 6.8244440917226257e-02 0
8.9327124830004735e+01 2.2065346291832100e-02 0
1.3314927730501475e+02 1.7127298564264493e-01 0
1.3417552369616055e+02 1.6755276823478482e-01 0
9.6888247812608753e+01 3.1925555768310687e-02 0
9.4022608714566758e+01 2.9972384794689333e-02 0
1.3108252899823398e+02 1.8811258058796909e-01 0
1.3216151505111068e+02 1.8773591432230319e-01 0
1.0336735485801212e+02 3.7271990116039433e-02 0
9.9941282531949568e+01 4.2331580831714177e-02 0
1.2859408119868499e+02 2.2529929124524983e-01 0
1.2978012356087507e+02 1.9444106405084938e-01 0
1.1159190758139411e+02 7.1357957832503871e-02 0
1.0733242488764928e+02 4.5410699756899930e-02 0
1.2543771209696436e+02 2.4099936690194568e-01 0
1.2697092989884720e+02 1.9788266058741044e-01 0
1.2258244855235448e+02 9.6533716806050052e-02 0
1.1687880067309905e+02 5.0630547273428306e-02 0
1.2150750389318196e+02 2.3787506289571070e-01 0
1.2357281782758136e+02 2.2748448085148709e-01 0
1.3687904944985098e+02 1.1990905252406492e-01 0
1.2926773085662330e+02 9.3348418293970781e-02 0
1.1656914028766191e+02 1.6674337583413035e-01 0
1.1933520214255589e+02 2.7891988043664639e-01 0
1.5625466297002089e+02 9.9645629094823107e-02 0
1.4557175385868931e+02 1.8009962968103821e-01 0
1.1017233957633050e+02 3.8633925805751801e-01 0
1.1374686994910233e+02 3.0403327847682249e-01 0
1.8284686008074510e+02 3.6433663202049615e-01 0
1.6820001525362215e+02 2.6502409107439462e-01 0
1.0143279693897445e+02 -3.1556943491116840e-01 0
1.0608268958106086e+02 5.4021081658245862e-01 0
2.1780886217943601e+02 -2.1331844236362940e-01 0
1.9926761651889669e+02 5.4311556092599744e-01 0
8.8096940949321038e+01 4.2064554491346939e-01 0
9.5649930821406002e+01 -1.7269874684423598e+00 0
2.5600727421704198e+02 5.2509464981696397e-01 0
2.3799785733168676e+02 -1.4868240681200007e+00 0
6.6464779750967509e+01 1.0007819447254576e+01 0
7.8422427097580865e+01 9.3824430101471705e+00 0
2.8718956407459802e+02 9.2588176947933789e+00 0
2.6846877446605367e+02 8.6478983451912086e+00 0
2.8667070942953586e+01 -7.5098992598387298e+01 0
5.2479222647360906e+01 -3.8088670559950032e+01 0
3.9503747203182184e+02 -6.6123911240152466e+01 0
3.4283793118001859e+02 -3.3903308479765855e+01 0
-4.2582253877347426e+01 4.2226706482822249e+02 0
7.3460303352787921e+00 4.8032383632339037e+02 0
-2.3842099382847968e+00 5.4040836732691332e+01 0
5.6974651610206095e-01 4.6356788615027170e+02 0
-1.0062688551139882e+01 4.5348592690534019e+02 0
-3.2433520040989272e-01 4.7963167412724266e+02 0
6.0578123104555132e+01 3.7727305327056877e+02 0
3.1959450387349955e+02 4.8497831667893081e+01 0
-2.0559104933263583e+00 4.1744164007508721e+02 0

