# vtk DataFile Version 2.0

ASCII

DATASET UNSTRUCTURED_GRID

POINTS 79 float 

-5.0000000000000003e-02  0.0000000000000000e+00  0.0000000000000000e+00
-5.0000000000000003e-02  5.5555555555555552e-02  0.0000000000000000e+00
-5.0000000000000003e-02  2.7777777777777776e-02  0.0000000000000000e+00
5.0000000000000003e-02  0.0000000000000000e+00  0.0000000000000000e+00
5.0000000000000003e-02  5.5555555555555552e-02  0.0000000000000000e+00
5.0000000000000003e-02  2.7777777777777776e-02  0.0000000000000000e+00
-5.0000000000000003e-02  1.1111111111111110e-01  0.0000000000000000e+00
-5.0000000000000003e-02  8.3333333333333329e-02  0.0000000000000000e+00
5.0000000000000003e-02  1.1111111111111110e-01  0.0000000000000000e+00
5.0000000000000003e-02  8.3333333333333329e-02  0.0000000000000000e+00
-5.0000000000000003e-02  1.6666666666666666e-01  0.0000000000000000e+00
-5.0000000000000003e-02  1.3888888888888890e-01  0.0000000000000000e+00
5.0000000000000003e-02  1.6666666666666666e-01  0.0000000000000000e+00
5.0000000000000003e-02  1.3888888888888890e-01  0.0000000000000000e+00
-5.0000000000000003e-02  2.2222222222222221e-01  0.0000000000000000e+00
-5.0000000000000003e-02  1.9444444444444442e-01  0.0000000000000000e+00
5.0000000000000003e-02  2.2222222222222221e-01  0.0000000000000000e+00
5.0000000000000003e-02  1.9444444444444442e-01  0.0000000000000000e+00
-5.0000000000000003e-02  2.7777777777777779e-01  0.0000000000000000e+00
-5.0000000000000003e-02  2.5000000000000000e-01  0.0000000000000000e+00
5.0000000000000003e-02  2.7777777777777779e-01  0.0000000000000000e+00
5.0000000000000003e-02  2.5000000000000000e-01  0.0000000000000000e+00
-5.0000000000000003e-02  3.3333333333333331e-01  0.0000000000000000e+00
-5.0000000000000003e-02  3.0555555555555558e-01  0.0000000000000000e+00
5.0000000000000003e-02  3.3333333333333331e-01  0.0000000000000000e+00
5.0000000000000003e-02  3.0555555555555558e-01  0.0000000000000000e+00
-5.0000000000000003e-02  3.8888888888888884e-01  0.0000000000000000e+00
-5.0000000000000003e-02  3.6111111111111105e-01  0.0000000000000000e+00
5.0000000000000003e-02  3.8888888888888884e-01  0.0000000000000000e+00
5.0000000000000003e-02  3.6111111111111105e-01  0.0000000000000000e+00
-5.0000000000000003e-02  4.4444444444444442e-01  0.0000000000000000e+00
-5.0000000000000003e-02  4.1666666666666663e-01  0.0000000000000000e+00
5.0000000000000003e-02  4.4444444444444442e-01  0.0000000000000000e+00
5.0000000000000003e-02  4.1666666666666663e-01  0.0000000000000000e+00
-5.0000000000000003e-02  5.0000000000000000e-01  0.0000000000000000e+00
-5.0000000000000003e-02  4.7222222222222221e-01  0.0000000000000000e+00
5.0000000000000003e-02  5.0000000000000000e-01  0.0000000000000000e+00
5.0000000000000003e-02  4.7222222222222221e-01  0.0000000000000000e+00
-5.0000000000000003e-02  5.5555555555555558e-01  0.0000000000000000e+00
-5.0000000000000003e-02  5.2777777777777779e-01  0.0000000000000000e+00
5.0000000000000003e-02  5.5555555555555558e-01  0.0000000000000000e+00
5.0000000000000003e-02  5.2777777777777779e-01  0.0000000000000000e+00
-5.0000000000000003e-02  6.1111111111111105e-01  0.0000000000000000e+00
-5.0000000000000003e-02  5.8333333333333326e-01  0.0000000000000000e+00
5.0000000000000003e-02  6.1111111111111105e-01  0.0000000000000000e+00
5.0000000000000003e-02  5.8333333333333326e-01  0.0000000000000000e+00
-5.0000000000000003e-02  6.6666666666666663e-01  0.0000000000000000e+00
-5.0000000000000003e-02  6.3888888888888884e-01  0.0000000000000000e+00
5.0000000000000003e-02  6.6666666666666663e-01  0.0000000000000000e+00
5.0000000000000003e-02  6.3888888888888884e-01  0.0000000000000000e+00
-5.0000000000000003e-02  7.2222222222222221e-01  0.0000000000000000e+00
-5.0000000000000003e-02  6.9444444444444442e-01  0.0000000000000000e+00
5.0000000000000003e-02  7.2222222222222221e-01  0.0000000000000000e+00
5.0000000000000003e-02  6.9444444444444442e-01  0.0000000000000000e+00
-5.0000000000000003e-02  7.7777777777777768e-01  0.0000000000000000e+00
-5.0000000000000003e-02  7.5000000000000000e-01  0.0000000000000000e+00
5.0000000000000003e-02  7.7777777777777768e-01  0.0000000000000000e+00
5.0000000000000003e-02  7.5000000000000000e-01  0.0000000000000000e+00
-5.0000000000000003e-02  8.3333333333333326e-01  0.0000000000000000e+00
-5.0000000000000003e-02  8.0555555555555547e-01  0.0000000000000000e+00
5.0000000000000003e-02  8.3333333333333326e-01  0.0000000000000000e+00
5.0000000000000003e-02  8.0555555555555547e-01  0.0000000000000000e+00
-5.0000000000000003e-02  8.8888888888888884e-01  0.0000000000000000e+00
-5.0000000000000003e-02  8.6111111111111105e-01  0.0000000000000000e+00
5.0000000000000003e-02  8.8888888888888884e-01  0.0000000000000000e+00
5.0000000000000003e-02  8.6111111111111105e-01  0.0000000000000000e+00
-5.0000000000000003e-02  9.4444444444444442e-01  0.0000000000000000e+00
-5.0000000000000003e-02  9.1666666666666663e-01  0.0000000000000000e+00
5.0000000000000003e-02  9.4444444444444442e-01  0.0000000000000000e+00
5.0000000000000003e-02  9.1666666666666663e-01  0.0000000000000000e+00
-5.0000000000000003e-02  1.0000000000000000e+00  0.0000000000000000e+00
-1.6666666666666670e-02  1.0000000000000000e+00  0.0000000000000000e+00
-5.0000000000000003e-02  9.7222222222222221e-01  0.0000000000000000e+00
-3.3333333333333340e-02  1.0000000000000000e+00  0.0000000000000000e+00
1.6666666666666663e-02  1.0000000000000000e+00  0.0000000000000000e+00
-3.4694469519536142e-18  1.0000000000000000e+00  0.0000000000000000e+00
5.0000000000000003e-02  1.0000000000000000e+00  0.0000000000000000e+00
5.0000000000000003e-02  9.7222222222222221e-01  0.0000000000000000e+00
3.3333333333333333e-02  1.0000000000000000e+00  0.0000000000000000e+00

CELLS 0 0


CELL_TYPES 0


POINT_DATA 79

VECTORS VertexNormals float

0.0000000000000000e+00 0.0000000000000000e+00 0
0.0000000000000000e+00 0.0000000000000000e+00 0
0.0000000000000000e+00 0.0000000000000000e+00 0
0.0000000000000000e+00 0.0000000000000000e+00 0
0.0000000000000000e+00 0.0000000000000000e+00 0
0.0000000000000000e+00 0.0000000000000000e+00 0
0.0000000000000000e+00 0.0000000000000000e+00 0
0.0000000000000000e+00 0.0000000000000000e+00 0
0.0000000000000000e+00 0.0000000000000000e+00 0
0.0000000000000000e+00 0.0000000000000000e+00 0
0.0000000000000000e+00 0.0000000000000000e+00 0
0.0000000000000000e+00 0.0000000000000000e+00 0
0.0000000000000000e+00 0.0000000000000000e+00 0
0.0000000000000000e+00 0.0000000000000000e+00 0
0.0000000000000000e+00 0.0000000000000000e+00 0
0.0000000000000000e+00 0.0000000000000000e+00 0
0.0000000000000000e+00 0.0000000000000000e+00 0
0.0000000000000000e+00 0.0000000000000000e+00 0
0.0000000000000000e+00 0.0000000000000000e+00 0
0.0000000000000000e+00 0.0000000000000000e+00 0
0.0000000000000000e+00 0.0000000000000000e+00 0
0.0000000000000000e+00 0.0000000000000000e+00 0
0.0000000000000000e+00 0.0000000000000000e+00 0
0.0000000000000000e+00 0.0000000000000000e+00 0
0.0000000000000000e+00 0.0000000000000000e+00 0
0.0000000000000000e+00 0.0000000000000000e+00 0
0.0000000000000000e+00 0.0000000000000000e+00 0
0.0000000000000000e+00 0.0000000000000000e+00 0
0.0000000000000000e+00 0.0000000000000000e+00 0
0.0000000000000000e+00 0.0000000000000000e+00 0
0.0000000000000000e+00 0.0000000000000000e+00 0
0.0000000000000000e+00 0.0000000000000000e+00 0
0.0000000000000000e+00 0.0000000000000000e+00 0
0.0000000000000000e+00 0.0000000000000000e+00 0
0.0000000000000000e+00 0.0000000000000000e+00 0
0.0000000000000000e+00 0.0000000000000000e+00 0
0.0000000000000000e+00 0.0000000000000000e+00 0
0.0000000000000000e+00 0.0000000000000000e+00 0
0.0000000000000000e+00 0.0000000000000000e+00 0
0.0000000000000000e+00 0.0000000000000000e+00 0
0.0000000000000000e+00 0.0000000000000000e+00 0
0.0000000000000000e+00 0.0000000000000000e+00 0
0.0000000000000000e+00 0.0000000000000000e+00 0
0.0000000000000000e+00 0.0000000000000000e+00 0
0.0000000000000000e+00 0.0000000000000000e+00 0
0.0000000000000000e+00 0.0000000000000000e+00 0
0.0000000000000000e+00 0.0000000000000000e+00 0
0.0000000000000000e+00 0.0000000000000000e+00 0
0.0000000000000000e+00 0.0000000000000000e+00 0
0.0000000000000000e+00 0.0000000000000000e+00 0
0.0000000000000000e+00 0.0000000000000000e+00 0
0.0000000000000000e+00 0.0000000000000000e+00 0
0.0000000000000000e+00 0.0000000000000000e+00 0
0.0000000000000000e+00 0.0000000000000000e+00 0
0.0000000000000000e+00 0.0000000000000000e+00 0
0.0000000000000000e+00 0.0000000000000000e+00 0
0.0000000000000000e+00 0.0000000000000000e+00 0
0.0000000000000000e+00 0.0000000000000000e+00 0
0.0000000000000000e+00 0.0000000000000000e+00 0
0.0000000000000000e+00 0.0000000000000000e+00 0
0.0000000000000000e+00 0.0000000000000000e+00 0
0.0000000000000000e+00 0.0000000000000000e+00 0
0.0000000000000000e+00 0.0000000000000000e+00 0
0.0000000000000000e+00 0.0000000000000000e+00 0
0.0000000000000000e+00 0.0000000000000000e+00 0
0.0000000000000000e+00 0.0000000000000000e+00 0
0.0000000000000000e+00 0.0000000000000000e+00 0
0.0000000000000000e+00 0.0000000000000000e+00 0
0.0000000000000000e+00 0.0000000000000000e+00 0
0.0000000000000000e+00 0.0000000000000000e+00 0
0.0000000000000000e+00 0.0000000000000000e+00 0
0.0000000000000000e+00 0.0000000000000000e+00 0
0.0000000000000000e+00 0.0000000000000000e+00 0
0.0000000000000000e+00 0.0000000000000000e+00 0
0.0000000000000000e+00 0.0000000000000000e+00 0
0.0000000000000000e+00 0.0000000000000000e+00 0
0.0000000000000000e+00 0.0000000000000000e+00 0
0.0000000000000000e+00 0.0000000000000000e+00 0
0.0000000000000000e+00 0.0000000000000000e+00 0

VECTORS Displacement float
0.0000000000000000e+00 0.0000000000000000e+00 0
1.8506191700281107e-03 1.8588874327662148e-03 0
8.1783728880446892e-04 1.0140601780096777e-03 0
0.0000000000000000e+00 0.0000000000000000e+00 0
1.8254976093568498e-03 -2.0389358348205282e-03 0
8.1509878584284012e-04 -1.0873570348734786e-03 0
5.2406175515639147e-03 3.2222217708871813e-03 0
3.3704708094574542e-03 2.6019903451691491e-03 0
5.3003244992833043e-03 -3.6294395109950492e-03 0
3.3961893041080022e-03 -2.9071111063113846e-03 0
1.0005025004373457e-02 4.0698160617050998e-03 0
7.4912806068383195e-03 3.7074611703559737e-03 0
9.9763785781110288e-03 -4.6947124007095178e-03 0
7.5033608529994659e-03 -4.2137370282009420e-03 0
1.5366260450455764e-02 4.5812365760443639e-03 0
1.2622522332120533e-02 4.3403047973261649e-03 0
1.5417784958068600e-02 -5.3413790224965622e-03 0
1.2628122000982123e-02 -5.0647251394971820e-03 0
2.1336570095072109e-02 4.8926180338525038e-03 0
1.8305183470481483e-02 4.7681573488711961e-03 0
2.1227553863403571e-02 -5.7263178076710072e-03 0
1.8288523422379709e-02 -5.5419612341361460e-03 0
2.7500933228380584e-02 5.0124498352242686e-03 0
2.4393476836824610e-02 4.9746656097148269e-03 0
2.7456070131915894e-02 -5.9407286650079646e-03 0
2.4306179511339916e-02 -5.8777907089221614e-03 0
3.3778036577814127e-02 4.9151765621098962e-03 0
3.0631197935645942e-02 4.9929431370078891e-03 0
3.3694555128843263e-02 -5.8609535416604599e-03 0
3.0570491218994009e-02 -5.9284075708946312e-03 0
3.9865651289389820e-02 4.4151392605519171e-03 0
3.6895762687761312e-02 4.7246093723790636e-03 0
3.9774161798301171e-02 -5.3515419759811930e-03 0
3.6807693997396820e-02 -5.6704589363292040e-03 0
4.5040717222234385e-02 3.4572336428423485e-03 0
4.2601756599825943e-02 3.9833974890321495e-03 0
4.4951319943497443e-02 -4.3937140527188440e-03 0
4.2508638610961838e-02 -4.9147217292499056e-03 0
4.8791290316096081e-02 2.2677810331403940e-03 0
4.7113521864110615e-02 2.8602086392268194e-03 0
4.8715176175194511e-02 -3.2231026457914059e-03 0
4.7031695598308360e-02 -3.8083130752802454e-03 0
5.1223979431256374e-02 1.2560741634077932e-03 0
5.0142916982560001e-02 1.7392854119274196e-03 0
5.1129264997140780e-02 -2.1728215587187728e-03 0
5.0060694266972829e-02 -2.6843978328836516e-03 0
5.2556463069500951e-02 3.5734264226560726e-04 0
5.2030154062734008e-02 7.9393125590820088e-04 0
5.2459894061561575e-02 -1.2392967204760282e-03 0
5.1930356088098380e-02 -1.6821475944180941e-03 0
5.3023508616077492e-02 -4.1113094534517443e-04 0
5.2868917096828026e-02 -3.1638024973880126e-05 0
5.2934691876084558e-02 -4.9806255072970822e-04 0
5.2780660537888706e-02 -8.6656779852661869e-04 0
5.2549066994491203e-02 -1.2184452025332017e-03 0
5.2949997905313441e-02 -8.2221604016363692e-04 0
5.2466476648747033e-02 3.3008000549126961e-04 0
5.2845680940600465e-02 -7.8818255060051723e-05 0
5.1072927678836193e-02 -1.6957331609515640e-03 0
5.1864148220421860e-02 -1.5157015981671178e-03 0
5.1061982947844989e-02 8.6930357066699986e-04 0
5.1855109052616893e-02 6.5126531271519764e-04 0
4.9548041922104741e-02 -1.8889699648385171e-03 0
5.0311639176571041e-02 -1.7913576543064740e-03 0
4.9387649209501755e-02 1.0022104555657452e-03 0
5.0198081421122163e-02 9.6065375437630308e-04 0
4.7790581983398417e-02 -2.1116528443308772e-03 0
4.8713121746036633e-02 -2.0063924081519646e-03 0
4.7752956326063419e-02 1.1625316793593102e-03 0
4.8603381201722695e-02 1.0728334129891199e-03 0
4.5829292952804704e-02 -2.1806385637791132e-03 0
4.5845084792355217e-02 -1.0179657021081993e-03 0
4.6812522887990773e-02 -2.1671892773404834e-03 0
4.5834609521481384e-02 -1.6006121612945616e-03 0
4.5825363922914475e-02 1.3628814402258193e-04 0
4.5842808824934120e-02 -4.3337324998854530e-04 0
4.5776394976543677e-02 1.2821777523703707e-03 0
4.6781626574856988e-02 1.2385908978150167e-03 0
4.5797352322128011e-02 6.9569786018075063e-04 0

VECTORS Stress float
1.2813275045541462e+02 -3.7540045986893432e+01 0
1.0634704647650496e+02 1.0454120751229943e+00 0
1.1161320073180080e+02 -7.4121662554362793e+00 0
9.6715549411039930e+01 -3.6023508607592184e+01 0
7.3290676381424731e+01 2.2202262485149191e+00 0
7.8960579644778178e+01 -6.4029475625905050e+00 0
1.0998852140841228e+02 -8.6933297122242870e+00 0
1.0790282741013270e+02 -3.3663483624167467e+00 0
7.6885715222222260e+01 -6.5672452206453960e+00 0
7.4766502624627151e+01 -1.7073818892125345e+00 0
1.0926152541945331e+02 -9.9166088815793163e+00 0
1.0980555318280143e+02 -9.7546120734185902e+00 0
7.6523128441901576e+01 -7.1151775873168734e+00 0
7.6882545126260709e+01 -7.2581529651925489e+00 0
1.0858687084584977e+02 -1.0972181816834182e+01 0
1.0883871076261686e+02 -1.0369450020326427e+01 0
7.7029430061488739e+01 -7.7672581064977901e+00 0
7.6672005294301655e+01 -7.3339563992952410e+00 0
1.0763068166484173e+02 -1.1623878161356600e+01 0
1.0817614645900626e+02 -1.1393316020158135e+01 0
7.8052868337593665e+01 -8.4751193530682265e+00 0
7.7508579632792888e+01 -8.1625547148355437e+00 0
1.0631227202721215e+02 -1.1874322239949695e+01 0
1.0705467124977974e+02 -1.1792241425446385e+01 0
7.9557934720734266e+01 -8.8660266360063460e+00 0
7.8694296018971343e+01 -8.7303403540498188e+00 0
1.0479112431570459e+02 -1.1700417386697378e+01 0
1.0560727749928550e+02 -1.1870531660711201e+01 0
8.1684354903214427e+01 -8.9396573301615625e+00 0
8.0506327564846984e+01 -8.9348960749734871e+00 0
1.0321117007842280e+02 -1.0616413205376769e+01 0
1.0398831213011944e+02 -1.1319597254508732e+01 0
8.4498657994949355e+01 -8.4112612879045265e+00 0
8.2998243107963205e+01 -8.8027974250039343e+00 0
1.0162207317205923e+02 -8.2761624066043353e+00 0
1.0241368237403660e+02 -9.5539739253422482e+00 0
8.7943916377090673e+01 -6.8472942329863784e+00 0
8.6204897766458970e+01 -7.7299917604397095e+00 0
9.9689071896751656e+01 -5.4686884984449335e+00 0
1.0071569836096955e+02 -6.8890440754445095e+00 0
9.1441863826015691e+01 -4.7558443384619906e+00 0
8.9747446759530590e+01 -5.8267152572888676e+00 0
9.6980187571173872e+01 -3.1406421102333439e+00 0
9.8458400436951507e+01 -4.2200313182611495e+00 0
9.4250873115899509e+01 -2.8876408604990615e+00 0
9.2960199254897560e+01 -3.7717351278694693e+00 0
9.3247983098210298e+01 -1.4325435317758206e+00 0
9.5250208091192604e+01 -2.1915692941179401e+00 0
9.6092753632133892e+01 -1.3960676478748937e+00 0
9.5290907128997077e+01 -2.0885546916340729e+00 0
8.8341248901148219e+01 2.5035344757642264e-01 0
9.0935875648257593e+01 -6.2361854046393006e-01 0
9.6928045303591347e+01 1.9464118946363129e-01 0
9.6617250227534015e+01 -6.4423621909769935e-01 0
8.1880951561352134e+01 1.5130014390745927e+00 0
8.5348685294210199e+01 1.1327658586618128e+00 0
9.6961162118841358e+01 1.6772682075929595e+00 0
9.6985203190952788e+01 1.0836412802156303e+00 0
7.2640931258889736e+01 2.2991724063281893e+00 0
7.7772547244816280e+01 1.4477191481750964e+00 0
9.5704477157656726e+01 2.9813848648437045e+00 0
9.6769714327904154e+01 2.0201751759212030e+00 0
5.8505820335422762e+01 5.1780396881589041e+00 0
6.6103035578148436e+01 5.1771704082374939e+00 0
9.1958448091454784e+01 5.0945709849163805e+00 0
9.3271558891976255e+01 5.1136654662963821e+00 0
3.8988992516918458e+01 -2.3303258384056520e+01 0
5.0671404265393534e+01 -1.0714795367483255e+01 0
1.0472117529144877e+02 -1.3994244904114069e+01 0
9.9137159948083507e+01 -6.0511976086507602e+00 0
-1.2002281984523435e+01 1.3929093458002865e+02 0
-3.5070663941536537e+00 1.4231540471315094e+02 0
1.8930375934458247e+01 1.9095478533093228e+01 0
-4.9562425401346388e+00 1.4890636623945474e+02 0
-5.6135329072954505e+00 1.1692637134044520e+02 0
-4.3865844049694687e+00 1.2998121294606912e+02 0
8.3717396592085151e+00 9.7123615510089138e+01 0
7.9077346734788222e+01 1.4588548209366138e+01 0
-3.6832944474460589e+00 1.0535554443764389e+02 0

