# vtk DataFile Version 2.0

ASCII

DATASET UNSTRUCTURED_GRID

POINTS 157 double 

-5.00000000000000028e-02  0.00000000000000000e+00  0.00000000000000000e+00
-5.00000000000000028e-02  5.55555555555555525e-02  0.00000000000000000e+00
-5.00000000000000028e-02  9.59295359144507823e-03  0.00000000000000000e+00
-5.00000000000000028e-02  2.77777777777777762e-02  0.00000000000000000e+00
-5.00000000000000028e-02  4.59626019641104708e-02  0.00000000000000000e+00
4.99999999999999958e-02  0.00000000000000000e+00  0.00000000000000000e+00
4.99999999999999958e-02  5.55555555555555525e-02  0.00000000000000000e+00
4.99999999999999958e-02  9.59295359144507823e-03  0.00000000000000000e+00
4.99999999999999958e-02  2.77777777777777762e-02  0.00000000000000000e+00
4.99999999999999958e-02  4.59626019641104708e-02  0.00000000000000000e+00
-5.00000000000000028e-02  1.11111111111111105e-01  0.00000000000000000e+00
-5.00000000000000028e-02  6.51485091470006272e-02  0.00000000000000000e+00
-5.00000000000000028e-02  8.33333333333333287e-02  0.00000000000000000e+00
-5.00000000000000028e-02  1.01518157519666030e-01  0.00000000000000000e+00
4.99999999999999958e-02  1.11111111111111105e-01  0.00000000000000000e+00
4.99999999999999958e-02  6.51485091470006272e-02  0.00000000000000000e+00
4.99999999999999958e-02  8.33333333333333287e-02  0.00000000000000000e+00
4.99999999999999958e-02  1.01518157519666030e-01  0.00000000000000000e+00
-5.00000000000000028e-02  1.66666666666666657e-01  0.00000000000000000e+00
-5.00000000000000028e-02  1.20704064702556180e-01  0.00000000000000000e+00
-5.00000000000000028e-02  1.38888888888888895e-01  0.00000000000000000e+00
-5.00000000000000028e-02  1.57073713075221583e-01  0.00000000000000000e+00
4.99999999999999958e-02  1.66666666666666657e-01  0.00000000000000000e+00
4.99999999999999958e-02  1.20704064702556180e-01  0.00000000000000000e+00
4.99999999999999958e-02  1.38888888888888895e-01  0.00000000000000000e+00
4.99999999999999958e-02  1.57073713075221583e-01  0.00000000000000000e+00
-5.00000000000000028e-02  2.22222222222222210e-01  0.00000000000000000e+00
-5.00000000000000028e-02  1.76259620258111732e-01  0.00000000000000000e+00
-5.00000000000000028e-02  1.94444444444444420e-01  0.00000000000000000e+00
-5.00000000000000028e-02  2.12629268630777135e-01  0.00000000000000000e+00
4.99999999999999958e-02  2.22222222222222210e-01  0.00000000000000000e+00
4.99999999999999958e-02  1.76259620258111732e-01  0.00000000000000000e+00
4.99999999999999958e-02  1.94444444444444420e-01  0.00000000000000000e+00
4.99999999999999958e-02  2.12629268630777135e-01  0.00000000000000000e+00
-5.00000000000000028e-02  2.77777777777777790e-01  0.00000000000000000e+00
-5.00000000000000028e-02  2.31815175813667285e-01  0.00000000000000000e+00
-5.00000000000000028e-02  2.50000000000000000e-01  0.00000000000000000e+00
-5.00000000000000028e-02  2.68184824186332715e-01  0.00000000000000000e+00
4.99999999999999958e-02  2.77777777777777790e-01  0.00000000000000000e+00
4.99999999999999958e-02  2.31815175813667285e-01  0.00000000000000000e+00
4.99999999999999958e-02  2.50000000000000000e-01  0.00000000000000000e+00
4.99999999999999958e-02  2.68184824186332715e-01  0.00000000000000000e+00
-5.00000000000000028e-02  3.33333333333333315e-01  0.00000000000000000e+00
-5.00000000000000028e-02  2.87370731369222865e-01  0.00000000000000000e+00
-5.00000000000000028e-02  3.05555555555555580e-01  0.00000000000000000e+00
-5.00000000000000028e-02  3.23740379741888240e-01  0.00000000000000000e+00
4.99999999999999958e-02  3.33333333333333315e-01  0.00000000000000000e+00
4.99999999999999958e-02  2.87370731369222865e-01  0.00000000000000000e+00
4.99999999999999958e-02  3.05555555555555580e-01  0.00000000000000000e+00
4.99999999999999958e-02  3.23740379741888240e-01  0.00000000000000000e+00
-5.00000000000000028e-02  3.88888888888888840e-01  0.00000000000000000e+00
-5.00000000000000028e-02  3.42926286924778334e-01  0.00000000000000000e+00
-5.00000000000000028e-02  3.61111111111111049e-01  0.00000000000000000e+00
-5.00000000000000028e-02  3.79295935297443765e-01  0.00000000000000000e+00
4.99999999999999958e-02  3.88888888888888840e-01  0.00000000000000000e+00
4.99999999999999958e-02  3.42926286924778334e-01  0.00000000000000000e+00
4.99999999999999958e-02  3.61111111111111049e-01  0.00000000000000000e+00
4.99999999999999958e-02  3.79295935297443765e-01  0.00000000000000000e+00
-5.00000000000000028e-02  4.44444444444444420e-01  0.00000000000000000e+00
-5.00000000000000028e-02  3.98481842480333914e-01  0.00000000000000000e+00
-5.00000000000000028e-02  4.16666666666666630e-01  0.00000000000000000e+00
-5.00000000000000028e-02  4.34851490852999345e-01  0.00000000000000000e+00
4.99999999999999958e-02  4.44444444444444420e-01  0.00000000000000000e+00
4.99999999999999958e-02  3.98481842480333914e-01  0.00000000000000000e+00
4.99999999999999958e-02  4.16666666666666630e-01  0.00000000000000000e+00
4.99999999999999958e-02  4.34851490852999345e-01  0.00000000000000000e+00
-5.00000000000000028e-02  5.00000000000000000e-01  0.00000000000000000e+00
-5.00000000000000028e-02  4.54037398035889495e-01  0.00000000000000000e+00
-5.00000000000000028e-02  4.72222222222222210e-01  0.00000000000000000e+00
-5.00000000000000028e-02  4.90407046408554925e-01  0.00000000000000000e+00
4.99999999999999958e-02  5.00000000000000000e-01  0.00000000000000000e+00
4.99999999999999958e-02  4.54037398035889495e-01  0.00000000000000000e+00
4.99999999999999958e-02  4.72222222222222210e-01  0.00000000000000000e+00
4.99999999999999958e-02  4.90407046408554925e-01  0.00000000000000000e+00
-5.00000000000000028e-02  5.55555555555555580e-01  0.00000000000000000e+00
-5.00000000000000028e-02  5.09592953591445075e-01  0.00000000000000000e+00
-5.00000000000000028e-02  5.27777777777777790e-01  0.00000000000000000e+00
-5.00000000000000028e-02  5.45962601964110505e-01  0.00000000000000000e+00
4.99999999999999958e-02  5.55555555555555580e-01  0.00000000000000000e+00
4.99999999999999958e-02  5.09592953591445075e-01  0.00000000000000000e+00
4.99999999999999958e-02  5.27777777777777790e-01  0.00000000000000000e+00
4.99999999999999958e-02  5.45962601964110505e-01  0.00000000000000000e+00
-5.00000000000000028e-02  6.11111111111111049e-01  0.00000000000000000e+00
-5.00000000000000028e-02  5.65148509147000655e-01  0.00000000000000000e+00
-5.00000000000000028e-02  5.83333333333333259e-01  0.00000000000000000e+00
-5.00000000000000028e-02  6.01518157519665975e-01  0.00000000000000000e+00
4.99999999999999958e-02  6.11111111111111049e-01  0.00000000000000000e+00
4.99999999999999958e-02  5.65148509147000655e-01  0.00000000000000000e+00
4.99999999999999958e-02  5.83333333333333259e-01  0.00000000000000000e+00
4.99999999999999958e-02  6.01518157519665975e-01  0.00000000000000000e+00
-5.00000000000000028e-02  6.66666666666666630e-01  0.00000000000000000e+00
-5.00000000000000028e-02  6.20704064702556013e-01  0.00000000000000000e+00
-5.00000000000000028e-02  6.38888888888888840e-01  0.00000000000000000e+00
-5.00000000000000028e-02  6.57073713075221555e-01  0.00000000000000000e+00
4.99999999999999958e-02  6.66666666666666630e-01  0.00000000000000000e+00
4.99999999999999958e-02  6.20704064702556013e-01  0.00000000000000000e+00
4.99999999999999958e-02  6.38888888888888840e-01  0.00000000000000000e+00
4.99999999999999958e-02  6.57073713075221555e-01  0.00000000000000000e+00
-5.00000000000000028e-02  7.22222222222222210e-01  0.00000000000000000e+00
-5.00000000000000028e-02  6.76259620258111704e-01  0.00000000000000000e+00
-5.00000000000000028e-02  6.94444444444444420e-01  0.00000000000000000e+00
-5.00000000000000028e-02  7.12629268630777135e-01  0.00000000000000000e+00
4.99999999999999958e-02  7.22222222222222210e-01  0.00000000000000000e+00
4.99999999999999958e-02  6.76259620258111704e-01  0.00000000000000000e+00
4.99999999999999958e-02  6.94444444444444420e-01  0.00000000000000000e+00
4.99999999999999958e-02  7.12629268630777135e-01  0.00000000000000000e+00
-5.00000000000000028e-02  7.77777777777777679e-01  0.00000000000000000e+00
-5.00000000000000028e-02  7.31815175813667174e-01  0.00000000000000000e+00
-5.00000000000000028e-02  7.50000000000000000e-01  0.00000000000000000e+00
-5.00000000000000028e-02  7.68184824186332604e-01  0.00000000000000000e+00
4.99999999999999958e-02  7.77777777777777679e-01  0.00000000000000000e+00
4.99999999999999958e-02  7.31815175813667174e-01  0.00000000000000000e+00
4.99999999999999958e-02  7.50000000000000000e-01  0.00000000000000000e+00
4.99999999999999958e-02  7.68184824186332604e-01  0.00000000000000000e+00
-5.00000000000000028e-02  8.33333333333333259e-01  0.00000000000000000e+00
-5.00000000000000028e-02  7.87370731369222754e-01  0.00000000000000000e+00
-5.00000000000000028e-02  8.05555555555555469e-01  0.00000000000000000e+00
-5.00000000000000028e-02  8.23740379741888185e-01  0.00000000000000000e+00
4.99999999999999958e-02  8.33333333333333259e-01  0.00000000000000000e+00
4.99999999999999958e-02  7.87370731369222754e-01  0.00000000000000000e+00
4.99999999999999958e-02  8.05555555555555469e-01  0.00000000000000000e+00
4.99999999999999958e-02  8.23740379741888185e-01  0.00000000000000000e+00
-5.00000000000000028e-02  8.88888888888888840e-01  0.00000000000000000e+00
-5.00000000000000028e-02  8.42926286924778334e-01  0.00000000000000000e+00
-5.00000000000000028e-02  8.61111111111111049e-01  0.00000000000000000e+00
-5.00000000000000028e-02  8.79295935297443765e-01  0.00000000000000000e+00
4.99999999999999958e-02  8.88888888888888840e-01  0.00000000000000000e+00
4.99999999999999958e-02  8.42926286924778334e-01  0.00000000000000000e+00
4.99999999999999958e-02  8.61111111111111049e-01  0.00000000000000000e+00
4.99999999999999958e-02  8.79295935297443765e-01  0.00000000000000000e+00
-5.00000000000000028e-02  9.44444444444444420e-01  0.00000000000000000e+00
-5.00000000000000028e-02  8.98481842480333914e-01  0.00000000000000000e+00
-5.00000000000000028e-02  9.16666666666666630e-01  0.00000000000000000e+00
-5.00000000000000028e-02  9.34851490852999345e-01  0.00000000000000000e+00
4.99999999999999958e-02  9.44444444444444420e-01  0.00000000000000000e+00
4.99999999999999958e-02  8.98481842480333914e-01  0.00000000000000000e+00
4.99999999999999958e-02  9.16666666666666630e-01  0.00000000000000000e+00
4.99999999999999958e-02  9.34851490852999345e-01  0.00000000000000000e+00
-5.00000000000000028e-02  1.00000000000000000e+00  0.00000000000000000e+00
-1.66666666666666699e-02  1.00000000000000000e+00  0.00000000000000000e+00
-5.00000000000000028e-02  9.54037398035889495e-01  0.00000000000000000e+00
-5.00000000000000028e-02  9.72222222222222210e-01  0.00000000000000000e+00
-5.00000000000000028e-02  9.90407046408554925e-01  0.00000000000000000e+00
-4.42442278451329538e-02  1.00000000000000000e+00  0.00000000000000000e+00
-3.33333333333333398e-02  1.00000000000000000e+00  0.00000000000000000e+00
-2.24224388215337189e-02  1.00000000000000000e+00  0.00000000000000000e+00
1.66666666666666630e-02  1.00000000000000000e+00  0.00000000000000000e+00
-1.09108945117996226e-02  1.00000000000000000e+00  0.00000000000000000e+00
-3.46944695195361419e-18  1.00000000000000000e+00  0.00000000000000000e+00
1.09108945117996139e-02  1.00000000000000000e+00  0.00000000000000000e+00
4.99999999999999958e-02  1.00000000000000000e+00  0.00000000000000000e+00
4.99999999999999958e-02  9.54037398035889495e-01  0.00000000000000000e+00
4.99999999999999958e-02  9.72222222222222210e-01  0.00000000000000000e+00
4.99999999999999958e-02  9.90407046408554925e-01  0.00000000000000000e+00
2.24224388215337120e-02  1.00000000000000000e+00  0.00000000000000000e+00
3.33333333333333259e-02  1.00000000000000000e+00  0.00000000000000000e+00
4.42442278451329468e-02  1.00000000000000000e+00  0.00000000000000000e+00

CELLS 0 0


CELL_TYPES 0


POINT_DATA 157

VECTORS VertexNormals double

0.00000000000000000e+00 0.00000000000000000e+00 0
0.00000000000000000e+00 0.00000000000000000e+00 0
0.00000000000000000e+00 0.00000000000000000e+00 0
0.00000000000000000e+00 0.00000000000000000e+00 0
0.00000000000000000e+00 0.00000000000000000e+00 0
0.00000000000000000e+00 0.00000000000000000e+00 0
0.00000000000000000e+00 0.00000000000000000e+00 0
0.00000000000000000e+00 0.00000000000000000e+00 0
0.00000000000000000e+00 0.00000000000000000e+00 0
0.00000000000000000e+00 0.00000000000000000e+00 0
0.00000000000000000e+00 0.00000000000000000e+00 0
0.00000000000000000e+00 0.00000000000000000e+00 0
0.00000000000000000e+00 0.00000000000000000e+00 0
0.00000000000000000e+00 0.00000000000000000e+00 0
0.00000000000000000e+00 0.00000000000000000e+00 0
0.00000000000000000e+00 0.00000000000000000e+00 0
0.00000000000000000e+00 0.00000000000000000e+00 0
0.00000000000000000e+00 0.00000000000000000e+00 0
0.00000000000000000e+00 0.00000000000000000e+00 0
0.00000000000000000e+00 0.00000000000000000e+00 0
0.00000000000000000e+00 0.00000000000000000e+00 0
0.00000000000000000e+00 0.00000000000000000e+00 0
0.00000000000000000e+00 0.00000000000000000e+00 0
0.00000000000000000e+00 0.00000000000000000e+00 0
0.00000000000000000e+00 0.00000000000000000e+00 0
0.00000000000000000e+00 0.00000000000000000e+00 0
0.00000000000000000e+00 0.00000000000000000e+00 0
0.00000000000000000e+00 0.00000000000000000e+00 0
0.00000000000000000e+00 0.00000000000000000e+00 0
0.00000000000000000e+00 0.00000000000000000e+00 0
0.00000000000000000e+00 0.00000000000000000e+00 0
0.00000000000000000e+00 0.00000000000000000e+00 0
0.00000000000000000e+00 0.00000000000000000e+00 0
0.00000000000000000e+00 0.00000000000000000e+00 0
0.00000000000000000e+00 0.00000000000000000e+00 0
0.00000000000000000e+00 0.00000000000000000e+00 0
0.00000000000000000e+00 0.00000000000000000e+00 0
0.00000000000000000e+00 0.00000000000000000e+00 0
0.00000000000000000e+00 0.00000000000000000e+00 0
0.00000000000000000e+00 0.00000000000000000e+00 0
0.00000000000000000e+00 0.00000000000000000e+00 0
0.00000000000000000e+00 0.00000000000000000e+00 0
0.00000000000000000e+00 0.00000000000000000e+00 0
0.00000000000000000e+00 0.00000000000000000e+00 0
0.00000000000000000e+00 0.00000000000000000e+00 0
0.00000000000000000e+00 0.00000000000000000e+00 0
0.00000000000000000e+00 0.00000000000000000e+00 0
0.00000000000000000e+00 0.00000000000000000e+00 0
0.00000000000000000e+00 0.00000000000000000e+00 0
0.00000000000000000e+00 0.00000000000000000e+00 0
0.00000000000000000e+00 0.00000000000000000e+00 0
0.00000000000000000e+00 0.00000000000000000e+00 0
0.00000000000000000e+00 0.00000000000000000e+00 0
0.00000000000000000e+00 0.00000000000000000e+00 0
0.00000000000000000e+00 0.00000000000000000e+00 0
0.00000000000000000e+00 0.00000000000000000e+00 0
0.00000000000000000e+00 0.00000000000000000e+00 0
0.00000000000000000e+00 0.00000000000000000e+00 0
0.00000000000000000e+00 0.00000000000000000e+00 0
0.00000000000000000e+00 0.00000000000000000e+00 0
0.00000000000000000e+00 0.00000000000000000e+00 0
0.00000000000000000e+00 0.00000000000000000e+00 0
0.00000000000000000e+00 0.00000000000000000e+00 0
0.00000000000000000e+00 0.00000000000000000e+00 0
0.00000000000000000e+00 0.00000000000000000e+00 0
0.00000000000000000e+00 0.00000000000000000e+00 0
0.00000000000000000e+00 0.00000000000000000e+00 0
0.00000000000000000e+00 0.00000000000000000e+00 0
0.00000000000000000e+00 0.00000000000000000e+00 0
0.00000000000000000e+00 0.00000000000000000e+00 0
0.00000000000000000e+00 0.00000000000000000e+00 0
0.00000000000000000e+00 0.00000000000000000e+00 0
0.00000000000000000e+00 0.00000000000000000e+00 0
0.00000000000000000e+00 0.00000000000000000e+00 0
0.00000000000000000e+00 0.00000000000000000e+00 0
0.00000000000000000e+00 0.00000000000000000e+00 0
0.00000000000000000e+00 0.00000000000000000e+00 0
0.00000000000000000e+00 0.00000000000000000e+00 0
0.00000000000000000e+00 0.00000000000000000e+00 0
0.00000000000000000e+00 0.00000000000000000e+00 0
0.00000000000000000e+00 0.00000000000000000e+00 0
0.00000000000000000e+00 0.00000000000000000e+00 0
0.00000000000000000e+00 0.00000000000000000e+00 0
0.00000000000000000e+00 0.00000000000000000e+00 0
0.00000000000000000e+00 0.00000000000000000e+00 0
0.00000000000000000e+00 0.00000000000000000e+00 0
0.00000000000000000e+00 0.00000000000000000e+00 0
0.00000000000000000e+00 0.00000000000000000e+00 0
0.00000000000000000e+00 0.00000000000000000e+00 0
0.00000000000000000e+00 0.00000000000000000e+00 0
0.00000000000000000e+00 0.00000000000000000e+00 0
0.00000000000000000e+00 0.00000000000000000e+00 0
0.00000000000000000e+00 0.00000000000000000e+00 0
0.00000000000000000e+00 0.00000000000000000e+00 0
0.00000000000000000e+00 0.00000000000000000e+00 0
0.00000000000000000e+00 0.00000000000000000e+00 0
0.00000000000000000e+00 0.00000000000000000e+00 0
0.00000000000000000e+00 0.00000000000000000e+00 0
0.00000000000000000e+00 0.00000000000000000e+00 0
0.00000000000000000e+00 0.00000000000000000e+00 0
0.00000000000000000e+00 0.00000000000000000e+00 0
0.00000000000000000e+00 0.00000000000000000e+00 0
0.00000000000000000e+00 0.00000000000000000e+00 0
0.00000000000000000e+00 0.00000000000000000e+00 0
0.00000000000000000e+00 0.00000000000000000e+00 0
0.00000000000000000e+00 0.00000000000000000e+00 0
0.00000000000000000e+00 0.00000000000000000e+00 0
0.00000000000000000e+00 0.00000000000000000e+00 0
0.00000000000000000e+00 0.00000000000000000e+00 0
0.00000000000000000e+00 0.00000000000000000e+00 0
0.00000000000000000e+00 0.00000000000000000e+00 0
0.00000000000000000e+00 0.00000000000000000e+00 0
0.00000000000000000e+00 0.00000000000000000e+00 0
0.00000000000000000e+00 0.00000000000000000e+00 0
0.00000000000000000e+00 0.00000000000000000e+00 0
0.00000000000000000e+00 0.00000000000000000e+00 0
0.00000000000000000e+00 0.00000000000000000e+00 0
0.00000000000000000e+00 0.00000000000000000e+00 0
0.00000000000000000e+00 0.00000000000000000e+00 0
0.00000000000000000e+00 0.00000000000000000e+00 0
0.00000000000000000e+00 0.00000000000000000e+00 0
0.00000000000000000e+00 0.00000000000000000e+00 0
0.00000000000000000e+00 0.00000000000000000e+00 0
0.00000000000000000e+00 0.00000000000000000e+00 0
0.00000000000000000e+00 0.00000000000000000e+00 0
0.00000000000000000e+00 0.00000000000000000e+00 0
0.00000000000000000e+00 0.00000000000000000e+00 0
0.00000000000000000e+00 0.00000000000000000e+00 0
0.00000000000000000e+00 0.00000000000000000e+00 0
0.00000000000000000e+00 0.00000000000000000e+00 0
0.00000000000000000e+00 0.00000000000000000e+00 0
0.00000000000000000e+00 0.00000000000000000e+00 0
0.00000000000000000e+00 0.00000000000000000e+00 0
0.00000000000000000e+00 0.00000000000000000e+00 0
0.00000000000000000e+00 0.00000000000000000e+00 0
0.00000000000000000e+00 0.00000000000000000e+00 0
0.00000000000000000e+00 0.00000000000000000e+00 0
0.00000000000000000e+00 0.00000000000000000e+00 0
0.00000000000000000e+00 0.00000000000000000e+00 0
0.00000000000000000e+00 0.00000000000000000e+00 0
0.00000000000000000e+00 0.00000000000000000e+00 0
0.00000000000000000e+00 0.00000000000000000e+00 0
0.00000000000000000e+00 0.00000000000000000e+00 0
0.00000000000000000e+00 0.00000000000000000e+00 0
0.00000000000000000e+00 0.00000000000000000e+00 0
0.00000000000000000e+00 0.00000000000000000e+00 0
0.00000000000000000e+00 0.00000000000000000e+00 0
0.00000000000000000e+00 0.00000000000000000e+00 0
0.00000000000000000e+00 0.00000000000000000e+00 0
0.00000000000000000e+00 0.00000000000000000e+00 0
0.00000000000000000e+00 0.00000000000000000e+00 0
0.00000000000000000e+00 0.00000000000000000e+00 0
0.00000000000000000e+00 0.00000000000000000e+00 0
0.00000000000000000e+00 0.00000000000000000e+00 0
0.00000000000000000e+00 0.00000000000000000e+00 0
0.00000000000000000e+00 0.00000000000000000e+00 0
0.00000000000000000e+00 0.00000000000000000e+00 0

VECTORS Displacement double
0.00000000000000000e+00 0.00000000000000000e+00 0
2.15043103769276464e-05 2.83098520894167622e-05 0
3.76738742078478050e-06 5.53982780840973859e-06 0
8.86070966999763621e-06 1.45121642686788064e-05 0
1.63692415548071340e-05 2.36022253044981132e-05 0
0.00000000000000000e+00 0.00000000000000000e+00 0
2.12877082392026207e-05 -2.78067511765113413e-05 0
3.65224904831766149e-06 -5.41201378368572203e-06 0
8.63916526241709660e-06 -1.42350493584739647e-05 0
1.61387330155535870e-05 -2.31825591225894641e-05 0
6.90538425848861444e-05 5.46521853236600074e-05 0
2.76516477414169951e-05 3.30246648673553859e-05 0
4.16899402534137839e-05 4.17769820405320452e-05 0
5.88366443943335853e-05 5.02634714750729210e-05 0
6.88603528131628552e-05 -5.36933641651082138e-05 0
2.74378612381203792e-05 -3.24346843173372066e-05 0
4.14666035173439143e-05 -4.10334584332041973e-05 0
5.86147844956487181e-05 -4.93806000403247241e-05 0
1.44359413309783443e-04 7.87750538332663940e-05 0
8.01294234480745695e-05 5.89843847298827614e-05 0
1.03371862291169698e-04 6.70083445555320748e-05 0
1.29470326081698310e-04 7.47782263885137514e-05 0
1.44166604251183474e-04 -7.73979027979582353e-05 0
7.99473840699142714e-05 -5.79414343315264393e-05 0
1.03185814443015140e-04 -6.58198754090293927e-05 0
1.29277765982405667e-04 -7.34634610907925660e-05 0
2.44922658113763149e-04 1.00730164094063810e-04 0
1.59959971387711307e-04 8.27095835854196507e-05 0
1.91590093356947553e-04 9.00129625814524850e-05 0
2.25837791451297728e-04 9.70915375277754737e-05 0
2.44739920095595907e-04 -9.89083555241519296e-05 0
1.59797153487175215e-04 -8.12648731652610963e-05 0
1.91455208516832479e-04 -8.84181837648761792e-05 0
2.25680797561122364e-04 -9.53432756318051253e-05 0
3.68343797046872818e-04 1.20666713523108138e-04 0
2.64695263811465578e-04 1.04292725805751557e-04 0
3.03904651340729693e-04 1.10904514943260308e-04 0
3.45472095967198586e-04 1.17346946666640109e-04 0
3.68168899589102581e-04 -1.18468918972077612e-04 0
2.64481989464656210e-04 -1.02411375306921357e-04 0
3.03708446821749170e-04 -1.08908798889460724e-04 0
3.45297567353833670e-04 -1.15220443580756122e-04 0
5.12685629283310927e-04 1.38784021651929630e-04 0
3.91854201205066300e-04 1.23925148733141543e-04 0
4.38058359159610811e-04 1.29935136196132248e-04 0
4.86345530407519507e-04 1.35772349676157672e-04 0
5.12533406837753177e-04 -1.36208721911356426e-04 0
3.91668200630153839e-04 -1.21658665829550396e-04 0
4.37870317330964600e-04 -1.27550823614354679e-04 0
4.86189270027045527e-04 -1.33265899513304939e-04 0
6.76144848054455920e-04 1.54900357612534879e-04 0
5.39610674494962099e-04 1.41736836315697711e-04 0
5.92220151621899245e-04 1.47137894118885143e-04 0
6.46689559828268366e-04 1.52278969732782160e-04 0
6.75990993016543679e-04 -1.51961394747262998e-04 0
5.39456222710236652e-04 -1.39092924062610775e-04 0
5.92038874059633725e-04 -1.44373923335139434e-04 0
6.46519181504310735e-04 -1.49404046872476313e-04 0
8.56124144497537841e-04 1.68645347860728133e-04 0
7.06109499583509989e-04 1.57456994204770016e-04 0
7.64255679821983246e-04 1.62102577307797962e-04 0
8.24031072911956229e-04 1.66458069375982956e-04 0
8.55955082935439264e-04 -1.65376065369766874e-04 0
7.05960617063106175e-04 -1.54451327244142837e-04 0
7.64087959117705712e-04 -1.58975376952762409e-04 0
8.23837902812464226e-04 -1.63232540902197542e-04 0
1.04977886968628665e-03 1.80090159746723735e-04 0
8.88633281828766922e-04 1.70781217863701855e-04 0
9.51355108517600153e-04 1.74654052438513735e-04 0
1.01544741185527671e-03 1.78281343355036809e-04 0
1.04962992245426602e-03 -1.76520346893923496e-04 0
8.88483067534184107e-04 -1.67457613930852857e-04 0
9.51224056331936157e-04 -1.71225440771113864e-04 0
1.01531044227972278e-03 -1.74755426987403676e-04 0
1.25477402079497290e-03 1.89390693669195192e-04 0
1.08439932665680295e-03 1.81835836427655175e-04 0
1.15094262265873410e-03 1.84999631903863255e-04 0
1.21863423945805377e-03 1.87941757355530214e-04 0
1.25463290846721952e-03 -1.85549603524920247e-04 0
1.08426871361160405e-03 -1.78225451755539724e-04 0
1.15082856901834395e-03 -1.81299101395301498e-04 0
1.21850829293413906e-03 -1.84147601668927148e-04 0
1.46868791315137785e-03 1.96394603811845349e-04 0
1.29119172420800858e-03 1.90751832243614915e-04 0
1.36079674704602969e-03 1.93148976640413047e-04 0
1.43121983953193666e-03 1.95334399810331350e-04 0
1.46857244063643274e-03 -1.92295370904600478e-04 0
1.29102946379489048e-03 -1.86873513387859403e-04 0
1.36066427065797057e-03 -1.89198856678015080e-04 0
1.43110907635193721e-03 -1.91289287371571341e-04 0
1.68883441756133659e-03 2.01210031385274025e-04 0
1.50636035247613486e-03 1.97383902412801823e-04 0
1.57820075007912000e-03 1.99056444946028968e-04 0
1.65049744000609938e-03 2.00513779192431588e-04 0
1.68872495455575124e-03 -1.96859118330826820e-04 0
1.50622827863986907e-03 -1.93232111761319325e-04 0
1.57805689615574877e-03 -1.94823571400202356e-04 0
1.65038245682884227e-03 -1.96206642842339241e-04 0
1.91275242378706012e-03 2.04243764767044562e-04 0
1.72729152561256990e-03 2.01853683426318704e-04 0
1.80049481288419217e-03 2.02921020536660511e-04 0
1.87392971539755227e-03 2.03814616306403370e-04 0
1.91266280188600018e-03 -1.99680937776184681e-04 0
1.72718317107307734e-03 -1.97458487988671572e-04 0
1.80036730443041207e-03 -1.98449481612995344e-04 0
1.87381991285121897e-03 -1.99286125847379354e-04 0
2.13890179826964604e-03 2.06184286535587293e-04 0
1.95165735887835442e-03 2.04649036631574698e-04 0
2.02561444085983238e-03 2.05342917471894234e-04 0
2.09977429204261622e-03 2.05922016142457581e-04 0
2.13878241357889909e-03 -2.01423181601839278e-04 0
1.95157493086320485e-03 -2.00046065998884338e-04 0
2.02551254474705100e-03 -2.00659052478068960e-04 0
2.09963732709690177e-03 -2.01175923170630161e-04 0
2.36643290516148127e-03 2.07594224707551386e-04 0
2.17807642204491218e-03 2.06449854818841893e-04 0
2.25246289620088498e-03 2.06932402159988257e-04 0
2.32702606107617824e-03 2.07379090143330674e-04 0
2.36634162115669780e-03 -2.02634296668976587e-04 0
2.17797441849301764e-03 -2.01660445256164638e-04 0
2.25238548894014920e-03 -2.02078842655909987e-04 0
2.32694868318711508e-03 -2.02454954818980415e-04 0
2.59521575132340594e-03 2.08686835334695025e-04 0
2.40583054853606235e-03 2.07791903338621492e-04 0
2.48063883320759739e-03 2.08166424743425489e-04 0
2.55560605960528878e-03 2.08517839399591443e-04 0
2.59512328590105236e-03 -2.03560385072323484e-04 0
2.40574893714148733e-03 -2.02810799809104001e-04 0
2.48056459026148269e-03 -2.03132379617115865e-04 0
2.55552487889441644e-03 -2.03424854537268891e-04 0
2.82488229131237735e-03 2.09293024560813686e-04 0
2.63487324333678587e-03 2.08827028441862389e-04 0
2.70999681573765028e-03 2.09026928062405829e-04 0
2.78517808018395206e-03 2.09208027686372760e-04 0
2.82483188093743008e-03 -2.04061497467535654e-04 0
2.63475801320341629e-03 -2.03672503275698877e-04 0
2.70990004318696649e-03 -2.03862099215864386e-04 0
2.78512126780033377e-03 -2.04008348756514976e-04 0
3.05476948315131641e-03 2.09417689237428515e-04 0
3.05475618811495032e-03 7.15601175801618199e-05 0
2.86461722485195115e-03 2.09359880987507093e-04 0
2.93991316684496509e-03 2.09417295924972099e-04 0
3.01510707418390766e-03 2.09416627697758709e-04 0
3.05477165075418791e-03 1.85622837381140725e-04 0
3.05478119123996821e-03 1.40516799530916552e-04 0
3.05476842617894090e-03 9.53706882712423168e-05 0
3.05472743572257881e-03 -6.62721192936972537e-05 0
3.05474736997393128e-03 4.77616622747350990e-05 0
3.05474097100966483e-03 2.65979041676075703e-06 0
3.05473187094719911e-03 -4.24672068772006240e-05 0
3.05473320552033687e-03 -2.04137079960654621e-04 0
2.86456152580489079e-03 -2.04094537977751581e-04 0
2.93984049776172419e-03 -2.04115716980662307e-04 0
3.01504737457003805e-03 -2.04129315825876895e-04 0
3.05472770785562755e-03 -9.00709821743400646e-05 0
3.05473468041154213e-03 -1.35185180521835802e-04 0
3.05473359405792960e-03 -1.80321470904010552e-04 0

VECTORS Force double
1.96522874626229332e-01 7.85498609614033116e-04 0
-9.29014840744574411e-01 6.20913649869256454e-04 0
-9.43650530769809315e-01 4.33874407663673028e-05 0
7.39924771059489839e+00 -5.59641828463173282e-03 0
3.56790989301814321e+00 -2.67277625479348359e-03 0
6.91317174604510615e-02 8.62509343285246277e-04 0
-3.50930775368500703e-01 4.21582210514832173e-04 0
-3.53504657055465243e-01 -2.57232726400194749e-04 0
2.79843144851356485e+00 -3.23709945176007012e-03 0
1.34968344206714952e+00 -1.56114166275715021e-03 0
-8.31521599237155185e-01 3.51325706074306432e-03 0
-5.11567994382375185e-02 4.76514126286100594e-04 0
5.99785620820780685e-01 -2.53915699283573191e-03 0
9.57352849552921370e+00 -3.94073399254124546e-02 0
-3.10169459739540965e-01 -1.04472042443328053e-04 0
-1.78705081761690969e-02 -3.40187393050386550e-05 0
2.23607874094848530e-01 2.68775399995825322e-05 0
3.57004939883995842e+00 1.10914094012526409e-03 0
9.36477757683105416e+00 -5.43858760397811156e-02 0
9.68306255855850007e-02 -4.79117680502889811e-04 0
-1.85118789835347804e-02 6.33140806530886700e-05 0
2.65510175858035269e-02 3.15514547007604863e-05 0
3.42415193760994763e+00 3.40833957766090226e-02 0
3.58960026345873998e-02 -5.01581439067650511e-07 0
-7.32037229145174589e-03 -3.08907448600766796e-06 0
9.34419669489088174e-03 2.01044119443145392e-05 0
-8.45623130450769200e-01 4.36477777122193464e-03 0
2.81434039866223298e-02 -2.16938919967597472e-05 0
-1.81921701930754486e-02 1.56805946789875860e-06 0
9.57926622977393616e-02 -5.80497776763523534e-04 0
-3.03553123328057950e-01 -8.36560261227725123e-03 0
1.01167754543038287e-02 -1.68559465889777139e-05 0
-7.08016695042060305e-03 -1.64144075366404760e-04 0
3.41273442624484349e-02 1.04222640233445074e-03 0
-9.61155828757915165e-01 8.84270442975050022e-04 0
9.73983888514584528e+00 -4.85399409739111498e-02 0
6.09847530244505109e-01 -3.06579701179746870e-03 0
-5.48399431772516252e-02 5.36897174762171036e-04 0
-3.39594815962248830e-01 -1.70072040474220296e-02 0
3.49444923499466098e+00 9.29925068569887325e-02 0
2.18776566104133874e-01 5.57422563013548322e-03 0
-1.98240022208387608e-02 1.98139082760641447e-04 0
4.82350419051006452e-01 1.34497489792433978e-03 0
3.68829123043775553e+00 -3.80095592629597651e-03 0
7.63298893635656572e+00 -7.83425057273092786e-03 0