# vtk DataFile Version 2.0

ASCII

DATASET UNSTRUCTURED_GRID

POINTS 79 float 

-5.0000000000000003e-02  0.0000000000000000e+00  0.0000000000000000e+00
-5.0000000000000003e-02  5.5555555555555552e-02  0.0000000000000000e+00
-5.0000000000000003e-02  2.7777777777777776e-02  0.0000000000000000e+00
5.0000000000000003e-02  0.0000000000000000e+00  0.0000000000000000e+00
5.0000000000000003e-02  5.5555555555555552e-02  0.0000000000000000e+00
5.0000000000000003e-02  2.7777777777777776e-02  0.0000000000000000e+00
-5.0000000000000003e-02  1.1111111111111110e-01  0.0000000000000000e+00
-5.0000000000000003e-02  8.3333333333333329e-02  0.0000000000000000e+00
5.0000000000000003e-02  1.1111111111111110e-01  0.0000000000000000e+00
5.0000000000000003e-02  8.3333333333333329e-02  0.0000000000000000e+00
-5.0000000000000003e-02  1.6666666666666666e-01  0.0000000000000000e+00
-5.0000000000000003e-02  1.3888888888888890e-01  0.0000000000000000e+00
5.0000000000000003e-02  1.6666666666666666e-01  0.0000000000000000e+00
5.0000000000000003e-02  1.3888888888888890e-01  0.0000000000000000e+00
-5.0000000000000003e-02  2.2222222222222221e-01  0.0000000000000000e+00
-5.0000000000000003e-02  1.9444444444444442e-01  0.0000000000000000e+00
5.0000000000000003e-02  2.2222222222222221e-01  0.0000000000000000e+00
5.0000000000000003e-02  1.9444444444444442e-01  0.0000000000000000e+00
-5.0000000000000003e-02  2.7777777777777779e-01  0.0000000000000000e+00
-5.0000000000000003e-02  2.5000000000000000e-01  0.0000000000000000e+00
5.0000000000000003e-02  2.7777777777777779e-01  0.0000000000000000e+00
5.0000000000000003e-02  2.5000000000000000e-01  0.0000000000000000e+00
-5.0000000000000003e-02  3.3333333333333331e-01  0.0000000000000000e+00
-5.0000000000000003e-02  3.0555555555555558e-01  0.0000000000000000e+00
5.0000000000000003e-02  3.3333333333333331e-01  0.0000000000000000e+00
5.0000000000000003e-02  3.0555555555555558e-01  0.0000000000000000e+00
-5.0000000000000003e-02  3.8888888888888884e-01  0.0000000000000000e+00
-5.0000000000000003e-02  3.6111111111111105e-01  0.0000000000000000e+00
5.0000000000000003e-02  3.8888888888888884e-01  0.0000000000000000e+00
5.0000000000000003e-02  3.6111111111111105e-01  0.0000000000000000e+00
-5.0000000000000003e-02  4.4444444444444442e-01  0.0000000000000000e+00
-5.0000000000000003e-02  4.1666666666666663e-01  0.0000000000000000e+00
5.0000000000000003e-02  4.4444444444444442e-01  0.0000000000000000e+00
5.0000000000000003e-02  4.1666666666666663e-01  0.0000000000000000e+00
-5.0000000000000003e-02  5.0000000000000000e-01  0.0000000000000000e+00
-5.0000000000000003e-02  4.7222222222222221e-01  0.0000000000000000e+00
5.0000000000000003e-02  5.0000000000000000e-01  0.0000000000000000e+00
5.0000000000000003e-02  4.7222222222222221e-01  0.0000000000000000e+00
-5.0000000000000003e-02  5.5555555555555558e-01  0.0000000000000000e+00
-5.0000000000000003e-02  5.2777777777777779e-01  0.0000000000000000e+00
5.0000000000000003e-02  5.5555555555555558e-01  0.0000000000000000e+00
5.0000000000000003e-02  5.2777777777777779e-01  0.0000000000000000e+00
-5.0000000000000003e-02  6.1111111111111105e-01  0.0000000000000000e+00
-5.0000000000000003e-02  5.8333333333333326e-01  0.0000000000000000e+00
5.0000000000000003e-02  6.1111111111111105e-01  0.0000000000000000e+00
5.0000000000000003e-02  5.8333333333333326e-01  0.0000000000000000e+00
-5.0000000000000003e-02  6.6666666666666663e-01  0.0000000000000000e+00
-5.0000000000000003e-02  6.3888888888888884e-01  0.0000000000000000e+00
5.0000000000000003e-02  6.6666666666666663e-01  0.0000000000000000e+00
5.0000000000000003e-02  6.3888888888888884e-01  0.0000000000000000e+00
-5.0000000000000003e-02  7.2222222222222221e-01  0.0000000000000000e+00
-5.0000000000000003e-02  6.9444444444444442e-01  0.0000000000000000e+00
5.0000000000000003e-02  7.2222222222222221e-01  0.0000000000000000e+00
5.0000000000000003e-02  6.9444444444444442e-01  0.0000000000000000e+00
-5.0000000000000003e-02  7.7777777777777768e-01  0.0000000000000000e+00
-5.0000000000000003e-02  7.5000000000000000e-01  0.0000000000000000e+00
5.0000000000000003e-02  7.7777777777777768e-01  0.0000000000000000e+00
5.0000000000000003e-02  7.5000000000000000e-01  0.0000000000000000e+00
-5.0000000000000003e-02  8.3333333333333326e-01  0.0000000000000000e+00
-5.0000000000000003e-02  8.0555555555555547e-01  0.0000000000000000e+00
5.0000000000000003e-02  8.3333333333333326e-01  0.0000000000000000e+00
5.0000000000000003e-02  8.0555555555555547e-01  0.0000000000000000e+00
-5.0000000000000003e-02  8.8888888888888884e-01  0.0000000000000000e+00
-5.0000000000000003e-02  8.6111111111111105e-01  0.0000000000000000e+00
5.0000000000000003e-02  8.8888888888888884e-01  0.0000000000000000e+00
5.0000000000000003e-02  8.6111111111111105e-01  0.0000000000000000e+00
-5.0000000000000003e-02  9.4444444444444442e-01  0.0000000000000000e+00
-5.0000000000000003e-02  9.1666666666666663e-01  0.0000000000000000e+00
5.0000000000000003e-02  9.4444444444444442e-01  0.0000000000000000e+00
5.0000000000000003e-02  9.1666666666666663e-01  0.0000000000000000e+00
-5.0000000000000003e-02  1.0000000000000000e+00  0.0000000000000000e+00
-1.6666666666666670e-02  1.0000000000000000e+00  0.0000000000000000e+00
-5.0000000000000003e-02  9.7222222222222221e-01  0.0000000000000000e+00
-3.3333333333333340e-02  1.0000000000000000e+00  0.0000000000000000e+00
1.6666666666666663e-02  1.0000000000000000e+00  0.0000000000000000e+00
-3.4694469519536142e-18  1.0000000000000000e+00  0.0000000000000000e+00
5.0000000000000003e-02  1.0000000000000000e+00  0.0000000000000000e+00
5.0000000000000003e-02  9.7222222222222221e-01  0.0000000000000000e+00
3.3333333333333333e-02  1.0000000000000000e+00  0.0000000000000000e+00

CELLS 0 0


CELL_TYPES 0


POINT_DATA 79

VECTORS VertexNormals float

0.0000000000000000e+00 0.0000000000000000e+00 0
0.0000000000000000e+00 0.0000000000000000e+00 0
0.0000000000000000e+00 0.0000000000000000e+00 0
0.0000000000000000e+00 0.0000000000000000e+00 0
0.0000000000000000e+00 0.0000000000000000e+00 0
0.0000000000000000e+00 0.0000000000000000e+00 0
0.0000000000000000e+00 0.0000000000000000e+00 0
0.0000000000000000e+00 0.0000000000000000e+00 0
0.0000000000000000e+00 0.0000000000000000e+00 0
0.0000000000000000e+00 0.0000000000000000e+00 0
0.0000000000000000e+00 0.0000000000000000e+00 0
0.0000000000000000e+00 0.0000000000000000e+00 0
0.0000000000000000e+00 0.0000000000000000e+00 0
0.0000000000000000e+00 0.0000000000000000e+00 0
0.0000000000000000e+00 0.0000000000000000e+00 0
0.0000000000000000e+00 0.0000000000000000e+00 0
0.0000000000000000e+00 0.0000000000000000e+00 0
0.0000000000000000e+00 0.0000000000000000e+00 0
0.0000000000000000e+00 0.0000000000000000e+00 0
0.0000000000000000e+00 0.0000000000000000e+00 0
0.0000000000000000e+00 0.0000000000000000e+00 0
0.0000000000000000e+00 0.0000000000000000e+00 0
0.0000000000000000e+00 0.0000000000000000e+00 0
0.0000000000000000e+00 0.0000000000000000e+00 0
0.0000000000000000e+00 0.0000000000000000e+00 0
0.0000000000000000e+00 0.0000000000000000e+00 0
0.0000000000000000e+00 0.0000000000000000e+00 0
0.0000000000000000e+00 0.0000000000000000e+00 0
0.0000000000000000e+00 0.0000000000000000e+00 0
0.0000000000000000e+00 0.0000000000000000e+00 0
0.0000000000000000e+00 0.0000000000000000e+00 0
0.0000000000000000e+00 0.0000000000000000e+00 0
0.0000000000000000e+00 0.0000000000000000e+00 0
0.0000000000000000e+00 0.0000000000000000e+00 0
0.0000000000000000e+00 0.0000000000000000e+00 0
0.0000000000000000e+00 0.0000000000000000e+00 0
0.0000000000000000e+00 0.0000000000000000e+00 0
0.0000000000000000e+00 0.0000000000000000e+00 0
0.0000000000000000e+00 0.0000000000000000e+00 0
0.0000000000000000e+00 0.0000000000000000e+00 0
0.0000000000000000e+00 0.0000000000000000e+00 0
0.0000000000000000e+00 0.0000000000000000e+00 0
0.0000000000000000e+00 0.0000000000000000e+00 0
0.0000000000000000e+00 0.0000000000000000e+00 0
0.0000000000000000e+00 0.0000000000000000e+00 0
0.0000000000000000e+00 0.0000000000000000e+00 0
0.0000000000000000e+00 0.0000000000000000e+00 0
0.0000000000000000e+00 0.0000000000000000e+00 0
0.0000000000000000e+00 0.0000000000000000e+00 0
0.0000000000000000e+00 0.0000000000000000e+00 0
0.0000000000000000e+00 0.0000000000000000e+00 0
0.0000000000000000e+00 0.0000000000000000e+00 0
0.0000000000000000e+00 0.0000000000000000e+00 0
0.0000000000000000e+00 0.0000000000000000e+00 0
0.0000000000000000e+00 0.0000000000000000e+00 0
0.0000000000000000e+00 0.0000000000000000e+00 0
0.0000000000000000e+00 0.0000000000000000e+00 0
0.0000000000000000e+00 0.0000000000000000e+00 0
0.0000000000000000e+00 0.0000000000000000e+00 0
0.0000000000000000e+00 0.0000000000000000e+00 0
0.0000000000000000e+00 0.0000000000000000e+00 0
0.0000000000000000e+00 0.0000000000000000e+00 0
0.0000000000000000e+00 0.0000000000000000e+00 0
0.0000000000000000e+00 0.0000000000000000e+00 0
0.0000000000000000e+00 0.0000000000000000e+00 0
0.0000000000000000e+00 0.0000000000000000e+00 0
0.0000000000000000e+00 0.0000000000000000e+00 0
0.0000000000000000e+00 0.0000000000000000e+00 0
0.0000000000000000e+00 0.0000000000000000e+00 0
0.0000000000000000e+00 0.0000000000000000e+00 0
0.0000000000000000e+00 0.0000000000000000e+00 0
0.0000000000000000e+00 0.0000000000000000e+00 0
0.0000000000000000e+00 0.0000000000000000e+00 0
0.0000000000000000e+00 0.0000000000000000e+00 0
0.0000000000000000e+00 0.0000000000000000e+00 0
0.0000000000000000e+00 0.0000000000000000e+00 0
0.0000000000000000e+00 0.0000000000000000e+00 0
0.0000000000000000e+00 0.0000000000000000e+00 0
0.0000000000000000e+00 0.0000000000000000e+00 0

VECTORS Displacement float
0.0000000000000000e+00 0.0000000000000000e+00 0
1.5926362853660573e-03 1.7602569391644979e-03 0
6.5579228076843258e-04 9.3570048268880042e-04 0
0.0000000000000000e+00 0.0000000000000000e+00 0
1.5026515444462190e-03 -1.6682624391328072e-03 0
6.3187864304906863e-04 -8.8237423084787077e-04 0
4.5459543324516500e-03 2.9999342429458875e-03 0
2.9468736452326980e-03 2.4378887156300245e-03 0
4.4637677292483947e-03 -2.9290966164157136e-03 0
2.8318982566531590e-03 -2.3574821649888209e-03 0
8.7085012819957033e-03 3.8502401792725157e-03 0
6.4839366383486439e-03 3.4818401959009460e-03 0
8.5683943839689764e-03 -3.7519018134781028e-03 0
6.4104623724282545e-03 -3.3895268713301885e-03 0
1.3410992684998718e-02 4.2502216905663829e-03 0
1.1039865728120910e-02 4.0841230409465971e-03 0
1.3310544548805460e-02 -4.1953347722085456e-03 0
1.0868601729776772e-02 -4.0224482403758421e-03 0
1.8402858098458104e-02 4.3971459482265796e-03 0
1.5881859362176863e-02 4.3606371859512116e-03 0
1.8291782437080871e-02 -4.2538317476080939e-03 0
1.5813635025173155e-02 -4.2525573750186235e-03 0
2.3328005131823183e-02 4.2331928223916767e-03 0
2.0901042567819487e-02 4.3488201503738815e-03 0
2.3202914687663966e-02 -4.1022543849503915e-03 0
2.0766991265975289e-02 -4.2107794431811155e-03 0
2.7874362708163659e-02 3.8744500376685104e-03 0
2.5645361896564793e-02 4.0701225105764750e-03 0
2.7772907501423281e-02 -3.7562817070455443e-03 0
2.5532138839754082e-02 -3.9423175300551568e-03 0
3.1921692341828144e-02 3.3219291838215270e-03 0
2.9996300433664094e-02 3.6157286434963841e-03 0
3.1844929318624392e-02 -3.2430309497514130e-03 0
2.9908782643701309e-02 -3.5138008334468750e-03 0
3.5303233904511594e-02 2.7983659138823957e-03 0
3.3662581630730534e-02 3.0543821506559795e-03 0
3.5228390510745833e-02 -2.7865247916839466e-03 0
3.3589123962329812e-02 -3.0062774437755423e-03 0
3.8150621506390689e-02 2.1389032087743491e-03 0
3.6831326590874930e-02 2.4914981699675522e-03 0
3.8063607022978119e-02 -2.1898778842929811e-03 0
3.6750601133618534e-02 -2.5153435739810868e-03 0
4.0153008568263079e-02 1.4513512756728101e-03 0
3.9235414995629950e-02 1.7895218518417439e-03 0
4.0055795543395917e-02 -1.5200912363665311e-03 0
3.9142585547370101e-02 -1.8544337438632934e-03 0
4.1512035547220397e-02 6.1254783247010236e-04 0
4.0932790413141046e-02 1.0737723789809293e-03 0
4.1414175009458806e-02 -7.0277043993995927e-04 0
4.0835273858565016e-02 -1.1472118815546439e-03 0
4.1670442270582447e-02 -5.3022530221202933e-04 0
4.1787412400618222e-02 5.2169125587534670e-05 0
4.1574824557080843e-02 3.9823130613690682e-04 0
4.1688050505708868e-02 -1.6926334066282353e-04 0
4.0349323457896775e-02 -1.4568377191654868e-03 0
4.1160935552423387e-02 -1.0446642222992366e-03 0
4.0281998179546682e-02 1.3815131353863744e-03 0
4.1076192040110052e-02 9.3017885556138794e-04 0
3.8230389120893542e-02 -2.0670765921650350e-03 0
3.9358428872406606e-02 -1.7802110716112749e-03 0
3.8134098813285729e-02 2.0020673211319923e-03 0
3.9298977567767873e-02 1.7310129835205875e-03 0
3.5519207474474755e-02 -2.4485792987651049e-03 0
3.6951261503953184e-02 -2.3004088234532365e-03 0
3.5455979937299500e-02 2.2995067908936507e-03 0
3.6822055657562636e-02 2.1834931300249976e-03 0
3.2649142869482957e-02 -2.4214163650827410e-03 0
3.4040773547543160e-02 -2.4731822373264632e-03 0
3.2625969597286371e-02 2.3951924060060560e-03 0
3.4050054734148537e-02 2.3654923077138460e-03 0
3.0043061581080222e-02 -2.3213326908422260e-03 0
3.0016176160524842e-02 -7.8008068469132669e-04 0
3.1332956548519510e-02 -2.3607865933639120e-03 0
3.0035553682673806e-02 -1.5539393614829686e-03 0
2.9909182031955403e-02 7.9558994914513974e-04 0
2.9970516733287392e-02 -2.1184437830278318e-06 0
2.9820001136832721e-02 2.4236133250860443e-03 0
3.1213669577734991e-02 2.4045770515448883e-03 0
2.9850455186466791e-02 1.5951153241323273e-03 0

VECTORS Stress float
1.3058260942970381e+02 -3.9616758540891880e+01 0
1.0679359570064122e+02 2.1009099506641871e+00 0
1.1254571011513414e+02 -7.2352813141669685e+00 0
1.0701865749437096e+02 -3.8272051549856293e+01 0
8.1528484613374744e+01 2.8928532174611243e+00 0
8.7675875002757266e+01 -6.4314554874159420e+00 0
1.1073954203698229e+02 -7.7471307223285271e+00 0
1.0848164556258327e+02 -2.2839751657808636e+00 0
8.5539007463827545e+01 -6.3807164428174703e+00 0
8.3184872401075708e+01 -1.2410985199715521e+00 0
1.0990335303249027e+02 -8.8301325725628654e+00 0
1.1051643999949610e+02 -8.7758724242647634e+00 0
8.5201200079116433e+01 -6.8713809682830789e+00 0
8.5567090507503167e+01 -7.0648310500313070e+00 0
1.0920910991264867e+02 -9.4143098560108438e+00 0
1.0945492734318080e+02 -9.0686209326275762e+00 0
8.5764045262690871e+01 -7.4991679413696115e+00 0
8.5365676777751304e+01 -7.0914306316311393e+00 0
1.0830949091387410e+02 -9.6321116534470121e+00 0
1.0881932593699180e+02 -9.6128019372045195e+00 0
8.6941784891099616e+01 -7.6984385688692250e+00 0
8.6309935690420872e+01 -7.7075133315062061e+00 0
1.0715160177478100e+02 -9.1626711982345164e+00 0
1.0779724161694352e+02 -9.5069530320964439e+00 0
8.8627544127275513e+01 -7.4572291421948300e+00 0
8.7678370180710260e+01 -7.6167593368695137e+00 0
1.0579196216603279e+02 -8.1428784176748259e+00 0
1.0654055510144555e+02 -8.7087980334529043e+00 0
9.0858858209325803e+01 -6.8835405341151024e+00 0
8.9645568588930459e+01 -7.2332056445234265e+00 0
1.0412092408192815e+02 -6.9201717013886288e+00 0
1.0499844044495427e+02 -7.5178989453017095e+00 0
9.3499970792381774e+01 -6.0757983102116633e+00 0
9.2144895094003147e+01 -6.4712047953041605e+00 0
1.0204812597878163e+02 -5.7290701316124526e+00 0
1.0310658048307189e+02 -6.3574245413581068e+00 0
9.6365531159957072e+01 -5.2572689874008276e+00 0
9.4937200027356852e+01 -5.6994263082229537e+00 0
9.9600297318493034e+01 -4.1980032602288304e+00 0
1.0086548487160702e+02 -4.9919502344612852e+00 0
9.9346164332002104e+01 -4.0299605346090388e+00 0
9.7881260641399351e+01 -4.6730251268701082e+00 0
9.6691063432503483e+01 -2.9087557688708543e+00 0
9.8214528908510445e+01 -3.5305630654329079e+00 0
1.0209503364074735e+02 -2.9533427696709538e+00 0
1.0076228284174444e+02 -3.4820739122407431e+00 0
9.3319517606337158e+01 -1.1979737032666407e+00 0
9.5058002451240469e+01 -2.1453186497508199e+00 0
1.0447372202716777e+02 -1.2733409279221988e+00 0
1.0332449573532108e+02 -2.2476069932342355e+00 0
8.9133967437680269e+01 1.1456635164658309e+00 0
9.1346755678101516e+01 -4.3012305484836588e-02 0
1.0604896936422395e+02 1.2537541171933100e+00 0
1.0539614988761130e+02 -6.4900601808574265e-02 0
8.3303516473160698e+01 2.7380335972363667e+00 0
8.6495996197515367e+01 2.2660718233552544e+00 0
1.0644977207436983e+02 3.3806601991939047e+00 0
1.0636006005635379e+02 2.5652777983842370e+00 0
7.4337359748721568e+01 3.5247510661876120e+00 0
7.9373136660703238e+01 2.6335337513854071e+00 0
1.0491837728916666e+02 4.8063964068542120e+00 0
1.0619848508992871e+02 3.7426213956187908e+00 0
6.0208370995364270e+01 6.7656009795457450e+00 0
6.7856537523052538e+01 6.7111147218489791e+00 0
1.0042940944973074e+02 7.6198171986272101e+00 0
1.0209599599738763e+02 7.3622453230821279e+00 0
3.9749329644907270e+01 -2.4453340973571272e+01 0
5.2139397754402736e+01 -1.0500170468589587e+01 0
1.1368696751576024e+02 -1.3071244244763164e+01 0
1.0795915249389641e+02 -4.3026616724360878e+00 0
-1.5295610972174757e+01 1.4938949158717338e+02 0
-5.5260582402119525e+00 1.5385676835871578e+02 0
1.8212458597603977e+01 2.0621927554129726e+01 0
-7.1665989498054756e+00 1.6024386481908425e+02 0
-7.8819693887348024e+00 1.2673805572032384e+02 0
-6.5529771291342129e+00 1.4105921058096408e+02 0
8.0351882042595122e+00 1.0480608239619467e+02 0
8.5345184747638115e+01 1.7053252943413298e+01 0
-5.6050519382009867e+00 1.1381880951064231e+02 0

