# vtk DataFile Version 2.0

ASCII

DATASET UNSTRUCTURED_GRID

POINTS 79 float 

-5.0000000000000003e-02  0.0000000000000000e+00  0.0000000000000000e+00
-5.0000000000000003e-02  5.5555555555555552e-02  0.0000000000000000e+00
-5.0000000000000003e-02  2.7777777777777776e-02  0.0000000000000000e+00
5.0000000000000003e-02  0.0000000000000000e+00  0.0000000000000000e+00
5.0000000000000003e-02  5.5555555555555552e-02  0.0000000000000000e+00
5.0000000000000003e-02  2.7777777777777776e-02  0.0000000000000000e+00
-5.0000000000000003e-02  1.1111111111111110e-01  0.0000000000000000e+00
-5.0000000000000003e-02  8.3333333333333329e-02  0.0000000000000000e+00
5.0000000000000003e-02  1.1111111111111110e-01  0.0000000000000000e+00
5.0000000000000003e-02  8.3333333333333329e-02  0.0000000000000000e+00
-5.0000000000000003e-02  1.6666666666666666e-01  0.0000000000000000e+00
-5.0000000000000003e-02  1.3888888888888890e-01  0.0000000000000000e+00
5.0000000000000003e-02  1.6666666666666666e-01  0.0000000000000000e+00
5.0000000000000003e-02  1.3888888888888890e-01  0.0000000000000000e+00
-5.0000000000000003e-02  2.2222222222222221e-01  0.0000000000000000e+00
-5.0000000000000003e-02  1.9444444444444442e-01  0.0000000000000000e+00
5.0000000000000003e-02  2.2222222222222221e-01  0.0000000000000000e+00
5.0000000000000003e-02  1.9444444444444442e-01  0.0000000000000000e+00
-5.0000000000000003e-02  2.7777777777777779e-01  0.0000000000000000e+00
-5.0000000000000003e-02  2.5000000000000000e-01  0.0000000000000000e+00
5.0000000000000003e-02  2.7777777777777779e-01  0.0000000000000000e+00
5.0000000000000003e-02  2.5000000000000000e-01  0.0000000000000000e+00
-5.0000000000000003e-02  3.3333333333333331e-01  0.0000000000000000e+00
-5.0000000000000003e-02  3.0555555555555558e-01  0.0000000000000000e+00
5.0000000000000003e-02  3.3333333333333331e-01  0.0000000000000000e+00
5.0000000000000003e-02  3.0555555555555558e-01  0.0000000000000000e+00
-5.0000000000000003e-02  3.8888888888888884e-01  0.0000000000000000e+00
-5.0000000000000003e-02  3.6111111111111105e-01  0.0000000000000000e+00
5.0000000000000003e-02  3.8888888888888884e-01  0.0000000000000000e+00
5.0000000000000003e-02  3.6111111111111105e-01  0.0000000000000000e+00
-5.0000000000000003e-02  4.4444444444444442e-01  0.0000000000000000e+00
-5.0000000000000003e-02  4.1666666666666663e-01  0.0000000000000000e+00
5.0000000000000003e-02  4.4444444444444442e-01  0.0000000000000000e+00
5.0000000000000003e-02  4.1666666666666663e-01  0.0000000000000000e+00
-5.0000000000000003e-02  5.0000000000000000e-01  0.0000000000000000e+00
-5.0000000000000003e-02  4.7222222222222221e-01  0.0000000000000000e+00
5.0000000000000003e-02  5.0000000000000000e-01  0.0000000000000000e+00
5.0000000000000003e-02  4.7222222222222221e-01  0.0000000000000000e+00
-5.0000000000000003e-02  5.5555555555555558e-01  0.0000000000000000e+00
-5.0000000000000003e-02  5.2777777777777779e-01  0.0000000000000000e+00
5.0000000000000003e-02  5.5555555555555558e-01  0.0000000000000000e+00
5.0000000000000003e-02  5.2777777777777779e-01  0.0000000000000000e+00
-5.0000000000000003e-02  6.1111111111111105e-01  0.0000000000000000e+00
-5.0000000000000003e-02  5.8333333333333326e-01  0.0000000000000000e+00
5.0000000000000003e-02  6.1111111111111105e-01  0.0000000000000000e+00
5.0000000000000003e-02  5.8333333333333326e-01  0.0000000000000000e+00
-5.0000000000000003e-02  6.6666666666666663e-01  0.0000000000000000e+00
-5.0000000000000003e-02  6.3888888888888884e-01  0.0000000000000000e+00
5.0000000000000003e-02  6.6666666666666663e-01  0.0000000000000000e+00
5.0000000000000003e-02  6.3888888888888884e-01  0.0000000000000000e+00
-5.0000000000000003e-02  7.2222222222222221e-01  0.0000000000000000e+00
-5.0000000000000003e-02  6.9444444444444442e-01  0.0000000000000000e+00
5.0000000000000003e-02  7.2222222222222221e-01  0.0000000000000000e+00
5.0000000000000003e-02  6.9444444444444442e-01  0.0000000000000000e+00
-5.0000000000000003e-02  7.7777777777777768e-01  0.0000000000000000e+00
-5.0000000000000003e-02  7.5000000000000000e-01  0.0000000000000000e+00
5.0000000000000003e-02  7.7777777777777768e-01  0.0000000000000000e+00
5.0000000000000003e-02  7.5000000000000000e-01  0.0000000000000000e+00
-5.0000000000000003e-02  8.3333333333333326e-01  0.0000000000000000e+00
-5.0000000000000003e-02  8.0555555555555547e-01  0.0000000000000000e+00
5.0000000000000003e-02  8.3333333333333326e-01  0.0000000000000000e+00
5.0000000000000003e-02  8.0555555555555547e-01  0.0000000000000000e+00
-5.0000000000000003e-02  8.8888888888888884e-01  0.0000000000000000e+00
-5.0000000000000003e-02  8.6111111111111105e-01  0.0000000000000000e+00
5.0000000000000003e-02  8.8888888888888884e-01  0.0000000000000000e+00
5.0000000000000003e-02  8.6111111111111105e-01  0.0000000000000000e+00
-5.0000000000000003e-02  9.4444444444444442e-01  0.0000000000000000e+00
-5.0000000000000003e-02  9.1666666666666663e-01  0.0000000000000000e+00
5.0000000000000003e-02  9.4444444444444442e-01  0.0000000000000000e+00
5.0000000000000003e-02  9.1666666666666663e-01  0.0000000000000000e+00
-5.0000000000000003e-02  1.0000000000000000e+00  0.0000000000000000e+00
-1.6666666666666670e-02  1.0000000000000000e+00  0.0000000000000000e+00
-5.0000000000000003e-02  9.7222222222222221e-01  0.0000000000000000e+00
-3.3333333333333340e-02  1.0000000000000000e+00  0.0000000000000000e+00
1.6666666666666663e-02  1.0000000000000000e+00  0.0000000000000000e+00
-3.4694469519536142e-18  1.0000000000000000e+00  0.0000000000000000e+00
5.0000000000000003e-02  1.0000000000000000e+00  0.0000000000000000e+00
5.0000000000000003e-02  9.7222222222222221e-01  0.0000000000000000e+00
3.3333333333333333e-02  1.0000000000000000e+00  0.0000000000000000e+00

CELLS 0 0


CELL_TYPES 0


POINT_DATA 79

VECTORS VertexNormals float

0.0000000000000000e+00 0.0000000000000000e+00 0
0.0000000000000000e+00 0.0000000000000000e+00 0
0.0000000000000000e+00 0.0000000000000000e+00 0
0.0000000000000000e+00 0.0000000000000000e+00 0
0.0000000000000000e+00 0.0000000000000000e+00 0
0.0000000000000000e+00 0.0000000000000000e+00 0
0.0000000000000000e+00 0.0000000000000000e+00 0
0.0000000000000000e+00 0.0000000000000000e+00 0
0.0000000000000000e+00 0.0000000000000000e+00 0
0.0000000000000000e+00 0.0000000000000000e+00 0
0.0000000000000000e+00 0.0000000000000000e+00 0
0.0000000000000000e+00 0.0000000000000000e+00 0
0.0000000000000000e+00 0.0000000000000000e+00 0
0.0000000000000000e+00 0.0000000000000000e+00 0
0.0000000000000000e+00 0.0000000000000000e+00 0
0.0000000000000000e+00 0.0000000000000000e+00 0
0.0000000000000000e+00 0.0000000000000000e+00 0
0.0000000000000000e+00 0.0000000000000000e+00 0
0.0000000000000000e+00 0.0000000000000000e+00 0
0.0000000000000000e+00 0.0000000000000000e+00 0
0.0000000000000000e+00 0.0000000000000000e+00 0
0.0000000000000000e+00 0.0000000000000000e+00 0
0.0000000000000000e+00 0.0000000000000000e+00 0
0.0000000000000000e+00 0.0000000000000000e+00 0
0.0000000000000000e+00 0.0000000000000000e+00 0
0.0000000000000000e+00 0.0000000000000000e+00 0
0.0000000000000000e+00 0.0000000000000000e+00 0
0.0000000000000000e+00 0.0000000000000000e+00 0
0.0000000000000000e+00 0.0000000000000000e+00 0
0.0000000000000000e+00 0.0000000000000000e+00 0
0.0000000000000000e+00 0.0000000000000000e+00 0
0.0000000000000000e+00 0.0000000000000000e+00 0
0.0000000000000000e+00 0.0000000000000000e+00 0
0.0000000000000000e+00 0.0000000000000000e+00 0
0.0000000000000000e+00 0.0000000000000000e+00 0
0.0000000000000000e+00 0.0000000000000000e+00 0
0.0000000000000000e+00 0.0000000000000000e+00 0
0.0000000000000000e+00 0.0000000000000000e+00 0
0.0000000000000000e+00 0.0000000000000000e+00 0
0.0000000000000000e+00 0.0000000000000000e+00 0
0.0000000000000000e+00 0.0000000000000000e+00 0
0.0000000000000000e+00 0.0000000000000000e+00 0
0.0000000000000000e+00 0.0000000000000000e+00 0
0.0000000000000000e+00 0.0000000000000000e+00 0
0.0000000000000000e+00 0.0000000000000000e+00 0
0.0000000000000000e+00 0.0000000000000000e+00 0
0.0000000000000000e+00 0.0000000000000000e+00 0
0.0000000000000000e+00 0.0000000000000000e+00 0
0.0000000000000000e+00 0.0000000000000000e+00 0
0.0000000000000000e+00 0.0000000000000000e+00 0
0.0000000000000000e+00 0.0000000000000000e+00 0
0.0000000000000000e+00 0.0000000000000000e+00 0
0.0000000000000000e+00 0.0000000000000000e+00 0
0.0000000000000000e+00 0.0000000000000000e+00 0
0.0000000000000000e+00 0.0000000000000000e+00 0
0.0000000000000000e+00 0.0000000000000000e+00 0
0.0000000000000000e+00 0.0000000000000000e+00 0
0.0000000000000000e+00 0.0000000000000000e+00 0
0.0000000000000000e+00 0.0000000000000000e+00 0
0.0000000000000000e+00 0.0000000000000000e+00 0
0.0000000000000000e+00 0.0000000000000000e+00 0
0.0000000000000000e+00 0.0000000000000000e+00 0
0.0000000000000000e+00 0.0000000000000000e+00 0
0.0000000000000000e+00 0.0000000000000000e+00 0
0.0000000000000000e+00 0.0000000000000000e+00 0
0.0000000000000000e+00 0.0000000000000000e+00 0
0.0000000000000000e+00 0.0000000000000000e+00 0
0.0000000000000000e+00 0.0000000000000000e+00 0
0.0000000000000000e+00 0.0000000000000000e+00 0
0.0000000000000000e+00 0.0000000000000000e+00 0
0.0000000000000000e+00 0.0000000000000000e+00 0
0.0000000000000000e+00 0.0000000000000000e+00 0
0.0000000000000000e+00 0.0000000000000000e+00 0
0.0000000000000000e+00 0.0000000000000000e+00 0
0.0000000000000000e+00 0.0000000000000000e+00 0
0.0000000000000000e+00 0.0000000000000000e+00 0
0.0000000000000000e+00 0.0000000000000000e+00 0
0.0000000000000000e+00 0.0000000000000000e+00 0
0.0000000000000000e+00 0.0000000000000000e+00 0

VECTORS Displacement float
0.0000000000000000e+00 0.0000000000000000e+00 0
4.0352941165488002e-04 4.7114788668990774e-05 0
3.1945204336830647e-04 7.6815083742773284e-05 0
0.0000000000000000e+00 0.0000000000000000e+00 0
3.1239636856839200e-04 -5.0282528098454117e-05 0
2.3672452929340609e-04 -6.9941313445831749e-05 0
4.7104016050219003e-04 1.7799957739264804e-05 0
4.5256677188359616e-04 3.1565957886656693e-05 0
3.7838042155168401e-04 -2.0006507779781318e-05 0
3.5890529564670538e-04 -3.4772898450556877e-05 0
4.7927127305849376e-04 3.3873756467160494e-06 0
4.7873688492762657e-04 8.7513145643132924e-06 0
3.8719804866891346e-04 -4.1453563419205335e-06 0
3.8630071351273442e-04 -1.0126811824414670e-05 0
4.7589111004834477e-04 -6.6244995263824149e-07 0
4.7796112235761205e-04 7.0785988018613292e-07 0
3.8438420985229904e-04 5.5926590458662767e-07 0
3.8616189614242854e-04 -1.0819229485759269e-06 0
4.7050107723920224e-04 -1.8005125388541761e-06 0
4.7337120790513592e-04 -1.3897489169497300e-06 0
3.7962750085874196e-04 2.0218275315281707e-06 0
3.8216557666026062e-04 1.4725345947842036e-06 0
4.6384348364884918e-04 -2.2966470005775380e-06 0
4.6732387759273645e-04 -2.0779417956827108e-06 0
3.7373287517510317e-04 2.7152786725622514e-06 0
3.7680247326373888e-04 2.4057911421731519e-06 0
4.5592184821374135e-04 -2.7112469883159020e-06 0
4.6005896631832376e-04 -2.5049283427297473e-06 0
3.6675152477693064e-04 3.2909638425944374e-06 0
3.7038266689803370e-04 3.0054697652286555e-06 0
4.4656512955410280e-04 -3.1392122977402382e-06 0
4.5143006235052026e-04 -2.9229091525455427e-06 0
3.5855194509266377e-04 3.8886590906557401e-06 0
3.6280706475032233e-04 3.5851891791285629e-06 0
4.3564474091693697e-04 -3.5838483115845107e-06 0
4.4130325161116017e-04 -3.3602043753611002e-06 0
3.4905683013824638e-04 4.5403965416871900e-06 0
3.5397502530327393e-04 4.2071885576320391e-06 0
4.2301274667090236e-04 -4.0352228052490603e-06 0
4.2954730503112168e-04 -3.8105979739191330e-06 0
3.3821584358119237e-04 5.2683814945751542e-06 0
3.4381768328531028e-04 4.8931600748662596e-06 0
4.0849847674666621e-04 -4.4760995803951544e-06 0
4.1600494121155421e-04 -4.2606647276356976e-06 0
3.2596367229689645e-04 6.1070536606582763e-06 0
3.3227384927476527e-04 5.6709288957143305e-06 0
3.9187481989071523e-04 -4.8545191513861127e-06 0
4.0047448331961762e-04 -4.6811343998382915e-06 0
3.1220001215593744e-04 7.1068809820211982e-06 0
3.1926712027091977e-04 6.5826322653432126e-06 0
3.7282721754358563e-04 -5.0062150857945211e-06 0
3.8267344280732356e-04 -4.9761787095410597e-06 0
2.9668589878296774e-04 8.3011883965061853e-06 0
3.0464873742506039e-04 7.6846997263094257e-06 0
3.5158399110369048e-04 -4.6901962141025804e-06 0
3.6243825003804298e-04 -4.8974171898043682e-06 0
2.8047649272269976e-04 9.5194933361689319e-06 0
2.8847692893746370e-04 8.8900041864398364e-06 0
3.2716211868997190e-04 -4.5752719714987535e-06 0
3.4002792459043033e-04 -4.5543847812192144e-06 0
2.6521073991812372e-04 1.1344798089383617e-05 0
2.7278554628177258e-04 1.0300074831404909e-05 0
2.9936403775528690e-04 -4.3234071559234317e-06 0
3.1268448844868566e-04 -4.4878158278576822e-06 0
2.5340848502863412e-04 1.3982420671902411e-05 0
2.5818842301987349e-04 1.2522040079763720e-05 0
2.6751299410847482e-04 -1.1719544039302021e-05 0
2.8901239425032494e-04 -6.3592231536268320e-06 0
2.3832045780817094e-04 2.6673305795816092e-05 0
2.5152566962309970e-04 1.8138929479170397e-05 0
1.3957005626725539e-04 -2.3984454665407106e-05 0
1.3636082204384521e-04 1.6793133940975010e-05 0
2.1204925641836618e-04 -1.7986545749103370e-05 0
1.3726531868319235e-04 9.0410908273491601e-06 0
1.3119596502588764e-04 1.4662281442982382e-05 0
1.3447362630118645e-04 1.6420394478560998e-05 0
1.1860293063969585e-04 5.3801557775248259e-05 0
1.9090295377411612e-04 3.9240055690918189e-05 0
1.2454894293242050e-04 1.9896144342496154e-05 0

VECTORS Stress float
3.5151557859179559e+02 -1.2522963397307123e+02 0
2.2500874727463400e+02 2.0175854217942792e+01 0
2.5564303892228770e+02 -1.5148076092265736e+01 0
2.5474958078827660e+02 -1.2467550994007449e+02 0
1.2096282863120375e+02 2.0890765507066739e+01 0
1.5257481179526638e+02 -1.4227720276258882e+01 0
2.4615575612048443e+02 -2.7918019354075234e+00 0
2.3389408745267534e+02 1.0698082625389510e+01 0
1.4472657852162789e+02 -2.8246534089881230e+00 0
1.3101469220818876e+02 1.0963616736807218e+01 0
2.4351895047352994e+02 4.5123712978217156e-02 0
2.4574625418734249e+02 -2.5038521353021146e+00 0
1.4509173282289066e+02 -2.6391498600347063e-02 0
1.4597942568228711e+02 -2.5885087994029199e+00 0
2.4275941622532778e+02 3.0572130815283316e-01 0
2.4251355174150322e+02 7.3266759042620322e-01 0
1.4928547240950641e+02 2.0286454296260104e-01 0
1.4664975378172846e+02 6.4492392380002173e-01 0
2.4217675233324337e+02 1.1657906600787271e-01 0
2.4262647386777869e+02 5.6727249725327056e-02 0
1.5543863661517213e+02 -1.5675459547658477e-02 0
1.5230491969357286e+02 -6.2380623050870554e-02 0
2.4118819745989359e+02 1.7605162087113513e-01 0
2.4189413440782565e+02 1.2260337027453971e-01 0
1.6307846670465108e+02 2.0651226601643202e-02 0
1.5888262348403563e+02 -1.7695543665233515e-02 0
2.4006007099408907e+02 1.5274843383198800e-01 0
2.4084965541115074e+02 1.4581362311767521e-01 0
1.7278348889086737e+02 -2.3177305624159317e-02 0
1.6749842790299772e+02 -1.7495910237386170e-02 0
2.3860127694202191e+02 1.6569923223971728e-01 0
2.3937567270407007e+02 1.6787787570972057e-01 0
1.8484921541359162e+02 -2.7033014444754144e-02 0
1.7847006050485501e+02 -1.7278133915567651e-02 0
2.3664050394643752e+02 2.0017055345900303e-01 0
2.3751797129217533e+02 1.7380703035851752e-01 0
1.9991264980439522e+02 -5.4734033450216657e-03 0
1.9215215986128146e+02 -2.7981413078535411e-02 0
2.3384217699402154e+02 2.1623390930292885e-01 0
2.3517270766088035e+02 1.7495713981578831e-01 0
2.1893607563178492e+02 3.0909586702421166e-03 0
2.0914893869747098e+02 -3.6570814246147165e-02 0
2.3009604986186133e+02 2.1273128985653500e-01 0
2.3211367383059044e+02 2.0195347973337618e-01 0
2.4236014956057815e+02 3.3548778971947968e-03 0
2.3009302728507163e+02 -1.0564185262907699e-02 0
2.2494186188138497e+02 1.4507051217120193e-01 0
2.2789636473599381e+02 2.5375988276354633e-01 0
2.7051259453830977e+02 -4.4257479529534294e-02 0
2.5553013993707151e+02 5.2152253476933197e-02 0
2.1751511664341891e+02 3.5820602992282602e-01 0
2.2177953120127384e+02 2.8445977940796752e-01 0
3.0537400824116378e+02 2.1468474863070242e-01 0
2.8651215477546685e+02 1.1269961249624316e-01 0
2.0741626684084341e+02 -2.8621172108259429e-01 0
2.1277381115027342e+02 5.1170981429706330e-01 0
3.5420950242997571e+02 -4.4155022052439108e-01 0
3.2695317631839771e+02 3.9039102481237364e-01 0
1.9171699404121921e+02 4.3698060883838252e-01 0
2.0069874424285385e+02 -1.6078383475365854e+00 0
4.2374322919340528e+02 2.7175348273544842e-01 0
3.8805189263559197e+02 -1.8382757713556259e+00 0
1.6335487676956981e+02 9.3351664787489881e+00 0
1.7801879941787632e+02 8.7894161943417828e+00 0
5.1057892016907988e+02 9.5873262025998827e+00 0
4.6083990231493243e+02 9.0627407043901655e+00 0
1.3799480427133318e+02 -6.9260601868251797e+01 0
1.5852017605356062e+02 -3.5464642280099127e+01 0
7.0231746796759285e+02 -7.4169084861577574e+01 0
6.1506044958011375e+02 -3.7995225868479679e+01 0
-5.9793882287411243e+01 3.8889247115670645e+02 0
1.0491407564581166e+01 4.5878862480133768e+02 0
7.1315749479095032e+01 4.9140964930756240e+01 0
-1.8668097170099429e-02 4.2822209109291390e+02 0
-1.3612170180697063e+01 4.7668441142624016e+02 0
4.7733973559761722e-01 4.7897443669259496e+02 0
1.0002827617591529e+02 4.1938470034901030e+02 0
5.6246593255690652e+02 5.4136723794211036e+01 0
-1.8821155310528326e-01 4.5907706389234204e+02 0

