# vtk DataFile Version 2.0

ASCII

DATASET UNSTRUCTURED_GRID

POINTS 79 float 

-5.0000000000000003e-02  0.0000000000000000e+00  0.0000000000000000e+00
-5.0000000000000003e-02  5.5555555555555552e-02  0.0000000000000000e+00
-5.0000000000000003e-02  2.7777777777777776e-02  0.0000000000000000e+00
5.0000000000000003e-02  0.0000000000000000e+00  0.0000000000000000e+00
5.0000000000000003e-02  5.5555555555555552e-02  0.0000000000000000e+00
5.0000000000000003e-02  2.7777777777777776e-02  0.0000000000000000e+00
-5.0000000000000003e-02  1.1111111111111110e-01  0.0000000000000000e+00
-5.0000000000000003e-02  8.3333333333333329e-02  0.0000000000000000e+00
5.0000000000000003e-02  1.1111111111111110e-01  0.0000000000000000e+00
5.0000000000000003e-02  8.3333333333333329e-02  0.0000000000000000e+00
-5.0000000000000003e-02  1.6666666666666666e-01  0.0000000000000000e+00
-5.0000000000000003e-02  1.3888888888888890e-01  0.0000000000000000e+00
5.0000000000000003e-02  1.6666666666666666e-01  0.0000000000000000e+00
5.0000000000000003e-02  1.3888888888888890e-01  0.0000000000000000e+00
-5.0000000000000003e-02  2.2222222222222221e-01  0.0000000000000000e+00
-5.0000000000000003e-02  1.9444444444444442e-01  0.0000000000000000e+00
5.0000000000000003e-02  2.2222222222222221e-01  0.0000000000000000e+00
5.0000000000000003e-02  1.9444444444444442e-01  0.0000000000000000e+00
-5.0000000000000003e-02  2.7777777777777779e-01  0.0000000000000000e+00
-5.0000000000000003e-02  2.5000000000000000e-01  0.0000000000000000e+00
5.0000000000000003e-02  2.7777777777777779e-01  0.0000000000000000e+00
5.0000000000000003e-02  2.5000000000000000e-01  0.0000000000000000e+00
-5.0000000000000003e-02  3.3333333333333331e-01  0.0000000000000000e+00
-5.0000000000000003e-02  3.0555555555555558e-01  0.0000000000000000e+00
5.0000000000000003e-02  3.3333333333333331e-01  0.0000000000000000e+00
5.0000000000000003e-02  3.0555555555555558e-01  0.0000000000000000e+00
-5.0000000000000003e-02  3.8888888888888884e-01  0.0000000000000000e+00
-5.0000000000000003e-02  3.6111111111111105e-01  0.0000000000000000e+00
5.0000000000000003e-02  3.8888888888888884e-01  0.0000000000000000e+00
5.0000000000000003e-02  3.6111111111111105e-01  0.0000000000000000e+00
-5.0000000000000003e-02  4.4444444444444442e-01  0.0000000000000000e+00
-5.0000000000000003e-02  4.1666666666666663e-01  0.0000000000000000e+00
5.0000000000000003e-02  4.4444444444444442e-01  0.0000000000000000e+00
5.0000000000000003e-02  4.1666666666666663e-01  0.0000000000000000e+00
-5.0000000000000003e-02  5.0000000000000000e-01  0.0000000000000000e+00
-5.0000000000000003e-02  4.7222222222222221e-01  0.0000000000000000e+00
5.0000000000000003e-02  5.0000000000000000e-01  0.0000000000000000e+00
5.0000000000000003e-02  4.7222222222222221e-01  0.0000000000000000e+00
-5.0000000000000003e-02  5.5555555555555558e-01  0.0000000000000000e+00
-5.0000000000000003e-02  5.2777777777777779e-01  0.0000000000000000e+00
5.0000000000000003e-02  5.5555555555555558e-01  0.0000000000000000e+00
5.0000000000000003e-02  5.2777777777777779e-01  0.0000000000000000e+00
-5.0000000000000003e-02  6.1111111111111105e-01  0.0000000000000000e+00
-5.0000000000000003e-02  5.8333333333333326e-01  0.0000000000000000e+00
5.0000000000000003e-02  6.1111111111111105e-01  0.0000000000000000e+00
5.0000000000000003e-02  5.8333333333333326e-01  0.0000000000000000e+00
-5.0000000000000003e-02  6.6666666666666663e-01  0.0000000000000000e+00
-5.0000000000000003e-02  6.3888888888888884e-01  0.0000000000000000e+00
5.0000000000000003e-02  6.6666666666666663e-01  0.0000000000000000e+00
5.0000000000000003e-02  6.3888888888888884e-01  0.0000000000000000e+00
-5.0000000000000003e-02  7.2222222222222221e-01  0.0000000000000000e+00
-5.0000000000000003e-02  6.9444444444444442e-01  0.0000000000000000e+00
5.0000000000000003e-02  7.2222222222222221e-01  0.0000000000000000e+00
5.0000000000000003e-02  6.9444444444444442e-01  0.0000000000000000e+00
-5.0000000000000003e-02  7.7777777777777768e-01  0.0000000000000000e+00
-5.0000000000000003e-02  7.5000000000000000e-01  0.0000000000000000e+00
5.0000000000000003e-02  7.7777777777777768e-01  0.0000000000000000e+00
5.0000000000000003e-02  7.5000000000000000e-01  0.0000000000000000e+00
-5.0000000000000003e-02  8.3333333333333326e-01  0.0000000000000000e+00
-5.0000000000000003e-02  8.0555555555555547e-01  0.0000000000000000e+00
5.0000000000000003e-02  8.3333333333333326e-01  0.0000000000000000e+00
5.0000000000000003e-02  8.0555555555555547e-01  0.0000000000000000e+00
-5.0000000000000003e-02  8.8888888888888884e-01  0.0000000000000000e+00
-5.0000000000000003e-02  8.6111111111111105e-01  0.0000000000000000e+00
5.0000000000000003e-02  8.8888888888888884e-01  0.0000000000000000e+00
5.0000000000000003e-02  8.6111111111111105e-01  0.0000000000000000e+00
-5.0000000000000003e-02  9.4444444444444442e-01  0.0000000000000000e+00
-5.0000000000000003e-02  9.1666666666666663e-01  0.0000000000000000e+00
5.0000000000000003e-02  9.4444444444444442e-01  0.0000000000000000e+00
5.0000000000000003e-02  9.1666666666666663e-01  0.0000000000000000e+00
-5.0000000000000003e-02  1.0000000000000000e+00  0.0000000000000000e+00
-1.6666666666666670e-02  1.0000000000000000e+00  0.0000000000000000e+00
-5.0000000000000003e-02  9.7222222222222221e-01  0.0000000000000000e+00
-3.3333333333333340e-02  1.0000000000000000e+00  0.0000000000000000e+00
1.6666666666666663e-02  1.0000000000000000e+00  0.0000000000000000e+00
-3.4694469519536142e-18  1.0000000000000000e+00  0.0000000000000000e+00
5.0000000000000003e-02  1.0000000000000000e+00  0.0000000000000000e+00
5.0000000000000003e-02  9.7222222222222221e-01  0.0000000000000000e+00
3.3333333333333333e-02  1.0000000000000000e+00  0.0000000000000000e+00

CELLS 0 0


CELL_TYPES 0


POINT_DATA 79

VECTORS VertexNormals float

0.0000000000000000e+00 0.0000000000000000e+00 0
0.0000000000000000e+00 0.0000000000000000e+00 0
0.0000000000000000e+00 0.0000000000000000e+00 0
0.0000000000000000e+00 0.0000000000000000e+00 0
0.0000000000000000e+00 0.0000000000000000e+00 0
0.0000000000000000e+00 0.0000000000000000e+00 0
0.0000000000000000e+00 0.0000000000000000e+00 0
0.0000000000000000e+00 0.0000000000000000e+00 0
0.0000000000000000e+00 0.0000000000000000e+00 0
0.0000000000000000e+00 0.0000000000000000e+00 0
0.0000000000000000e+00 0.0000000000000000e+00 0
0.0000000000000000e+00 0.0000000000000000e+00 0
0.0000000000000000e+00 0.0000000000000000e+00 0
0.0000000000000000e+00 0.0000000000000000e+00 0
0.0000000000000000e+00 0.0000000000000000e+00 0
0.0000000000000000e+00 0.0000000000000000e+00 0
0.0000000000000000e+00 0.0000000000000000e+00 0
0.0000000000000000e+00 0.0000000000000000e+00 0
0.0000000000000000e+00 0.0000000000000000e+00 0
0.0000000000000000e+00 0.0000000000000000e+00 0
0.0000000000000000e+00 0.0000000000000000e+00 0
0.0000000000000000e+00 0.0000000000000000e+00 0
0.0000000000000000e+00 0.0000000000000000e+00 0
0.0000000000000000e+00 0.0000000000000000e+00 0
0.0000000000000000e+00 0.0000000000000000e+00 0
0.0000000000000000e+00 0.0000000000000000e+00 0
0.0000000000000000e+00 0.0000000000000000e+00 0
0.0000000000000000e+00 0.0000000000000000e+00 0
0.0000000000000000e+00 0.0000000000000000e+00 0
0.0000000000000000e+00 0.0000000000000000e+00 0
0.0000000000000000e+00 0.0000000000000000e+00 0
0.0000000000000000e+00 0.0000000000000000e+00 0
0.0000000000000000e+00 0.0000000000000000e+00 0
0.0000000000000000e+00 0.0000000000000000e+00 0
0.0000000000000000e+00 0.0000000000000000e+00 0
0.0000000000000000e+00 0.0000000000000000e+00 0
0.0000000000000000e+00 0.0000000000000000e+00 0
0.0000000000000000e+00 0.0000000000000000e+00 0
0.0000000000000000e+00 0.0000000000000000e+00 0
0.0000000000000000e+00 0.0000000000000000e+00 0
0.0000000000000000e+00 0.0000000000000000e+00 0
0.0000000000000000e+00 0.0000000000000000e+00 0
0.0000000000000000e+00 0.0000000000000000e+00 0
0.0000000000000000e+00 0.0000000000000000e+00 0
0.0000000000000000e+00 0.0000000000000000e+00 0
0.0000000000000000e+00 0.0000000000000000e+00 0
0.0000000000000000e+00 0.0000000000000000e+00 0
0.0000000000000000e+00 0.0000000000000000e+00 0
0.0000000000000000e+00 0.0000000000000000e+00 0
0.0000000000000000e+00 0.0000000000000000e+00 0
0.0000000000000000e+00 0.0000000000000000e+00 0
0.0000000000000000e+00 0.0000000000000000e+00 0
0.0000000000000000e+00 0.0000000000000000e+00 0
0.0000000000000000e+00 0.0000000000000000e+00 0
0.0000000000000000e+00 0.0000000000000000e+00 0
0.0000000000000000e+00 0.0000000000000000e+00 0
0.0000000000000000e+00 0.0000000000000000e+00 0
0.0000000000000000e+00 0.0000000000000000e+00 0
0.0000000000000000e+00 0.0000000000000000e+00 0
0.0000000000000000e+00 0.0000000000000000e+00 0
0.0000000000000000e+00 0.0000000000000000e+00 0
0.0000000000000000e+00 0.0000000000000000e+00 0
0.0000000000000000e+00 0.0000000000000000e+00 0
0.0000000000000000e+00 0.0000000000000000e+00 0
0.0000000000000000e+00 0.0000000000000000e+00 0
0.0000000000000000e+00 0.0000000000000000e+00 0
0.0000000000000000e+00 0.0000000000000000e+00 0
0.0000000000000000e+00 0.0000000000000000e+00 0
0.0000000000000000e+00 0.0000000000000000e+00 0
0.0000000000000000e+00 0.0000000000000000e+00 0
0.0000000000000000e+00 0.0000000000000000e+00 0
0.0000000000000000e+00 0.0000000000000000e+00 0
0.0000000000000000e+00 0.0000000000000000e+00 0
0.0000000000000000e+00 0.0000000000000000e+00 0
0.0000000000000000e+00 0.0000000000000000e+00 0
0.0000000000000000e+00 0.0000000000000000e+00 0
0.0000000000000000e+00 0.0000000000000000e+00 0
0.0000000000000000e+00 0.0000000000000000e+00 0
0.0000000000000000e+00 0.0000000000000000e+00 0

VECTORS Displacement float
0.0000000000000000e+00 0.0000000000000000e+00 0
1.6323215769856476e-03 2.1669717924528448e-03 0
6.4432378182568994e-04 1.1058371815818534e-03 0
0.0000000000000000e+00 0.0000000000000000e+00 0
1.5626062244816475e-03 -2.1462094931570569e-03 0
6.3367030742419734e-04 -1.0859045614770679e-03 0
5.3433639941565273e-03 4.0906826862768218e-03 0
3.2000736916128541e-03 3.1577703347787471e-03 0
5.2899700382120860e-03 -4.1730747202041816e-03 0
3.1138038440177234e-03 -3.1885885220239562e-03 0
1.1300222369866272e-02 5.6310730277103482e-03 0
8.0797263999356460e-03 4.9352924254837576e-03 0
1.1192749247822204e-02 -5.7843535020384957e-03 0
8.0300501434512703e-03 -5.0478604359305065e-03 0
1.8673413923252793e-02 6.4128103822506232e-03 0
1.4897279891934238e-02 6.1086903558730202e-03 0
1.8590438471337730e-02 -6.6647419187430557e-03 0
1.4767488700255071e-02 -6.3241632166914016e-03 0
2.6420393707636793e-02 6.6613531366443209e-03 0
2.2510846903480423e-02 6.5880176173419534e-03 0
2.6316563576719073e-02 -6.8583769531318454e-03 0
2.2460521486254933e-02 -6.8146845512245171e-03 0
3.4104980004194416e-02 6.4900546474827500e-03 0
3.0320254396001237e-02 6.6076740670074682e-03 0
3.3990084179409248e-02 -6.7806253016613072e-03 0
3.0157751370418526e-02 -6.8444284950873614e-03 0
4.1449036281740723e-02 6.1262557560736418e-03 0
3.7812779076194146e-02 6.3380124265608063e-03 0
4.1345074076838906e-02 -6.4100286397750141e-03 0
3.7746251549373180e-02 -6.6268965891029905e-03 0
4.8285713461185327e-02 5.4296467272015054e-03 0
4.4967860014598265e-02 5.8227413704841028e-03 0
4.8155743241226782e-02 -5.7639804502834747e-03 0
4.4828366805694006e-02 -6.1332193615525402e-03 0
5.4046512629887938e-02 4.4816699229619540e-03 0
5.1312320514502158e-02 4.9655306616318111e-03 0
5.3950371753566644e-02 -4.8617563304424773e-03 0
5.1202000306197967e-02 -5.3175955071663519e-03 0
5.8640708499861582e-02 3.5280643393785270e-03 0
5.6499955403210150e-02 3.9903917142129763e-03 0
5.8554366856975654e-02 -3.9431436365121551e-03 0
5.6412802288329358e-02 -4.3957017690960162e-03 0
6.2317066475049088e-02 2.7586909609170498e-03 0
6.0549155842401767e-02 3.1404205156020893e-03 0
6.2221457750514825e-02 -3.2312944589223316e-03 0
6.0457116189160408e-02 -3.5668269281234821e-03 0
6.5185957038920633e-02 1.8929902539845567e-03 0
6.3882984594112860e-02 2.3242642638993151e-03 0
6.5149436439183125e-02 -2.5546494996774843e-03 0
6.3807269303908370e-02 -2.8895244727239278e-03 0
6.7197568573131514e-02 1.1816216584362681e-03 0
6.6283667034037513e-02 1.5193976082160160e-03 0
6.7124512383907514e-02 -1.9260904084767000e-03 0
6.6251231122567131e-02 -2.2311857782727623e-03 0
6.8395300365440670e-02 6.5188997716219372e-04 0
6.7889069088024126e-02 8.7529618288302601e-04 0
6.8357976649487034e-02 -1.4975750577342259e-03 0
6.7806938596404132e-02 -1.6809587995757522e-03 0
6.9378519918368686e-02 4.5656589556321661e-04 0
6.8868194750330153e-02 5.4462556446535279e-04 0
6.9270629991827551e-02 -1.2939527461222193e-03 0
6.8829708079625407e-02 -1.3786760336787294e-03 0
7.0167664036000804e-02 1.9888836440063980e-04 0
6.9841295152093918e-02 3.2698565578723822e-04 0
7.0011287092102692e-02 -1.1305172935435696e-03 0
6.9672072606117158e-02 -1.2075221364176499e-03 0
7.0610731536606353e-02 1.9960276405224541e-04 0
7.0373579532103714e-02 1.5501848316804045e-04 0
7.0549305134234255e-02 -1.0930590790145973e-03 0
7.0289698843626972e-02 -1.0881490168522154e-03 0
7.1325077339974938e-02 3.2479475134046401e-04 0
7.1304943483777083e-02 -1.0936860400882596e-04 0
7.0948253615221502e-02 2.7422612559181833e-04 0
7.1311925996616926e-02 1.0444218301877028e-04 0
7.1310626538078709e-02 -6.4296430563526860e-04 0
7.1305021573860858e-02 -3.6601817457419924e-04 0
7.1316631372218081e-02 -1.1912178987398803e-03 0
7.0885967304908384e-02 -1.1544415185578939e-03 0
7.1315174130763576e-02 -9.2092106048678106e-04 0

VECTORS Stress float
1.2586781637321029e+02 -3.4227182087703653e+01 0
1.0761404900422419e+02 5.5636994147553009e-01 0
1.1203324254504967e+02 -6.7139134525915649e+00 0
8.2640885397140778e+01 -3.2356080112290719e+01 0
6.2786294918687560e+01 2.2777792110449897e+00 0
6.7613443639703206e+01 -5.3613328278730767e+00 0
1.1059554055673476e+02 -1.0067478471405551e+01 0
1.0890417205857403e+02 -4.2396379658312764e+00 0
6.5676533673669056e+01 -6.6295771969379702e+00 0
6.3970372447709444e+01 -1.7017087956640875e+00 0
1.0978356646622889e+02 -1.3114066827114684e+01 0
1.1033257800960941e+02 -1.2080472415185044e+01 0
6.5214125523850129e+01 -8.0466071734283027e+00 0
6.5588245779662614e+01 -7.7580629831463543e+00 0
1.0915413351446163e+02 -1.4699462625507591e+01 0
1.0937132231013439e+02 -1.3974029271881824e+01 0
6.5699687200320454e+01 -9.0034588606993129e+00 0
6.5341357290690212e+01 -8.5176968007407385e+00 0
1.0842135462690138e+02 -1.5068259117807024e+01 0
1.0883171159082140e+02 -1.5048344648361228e+01 0
6.6965249932853027e+01 -9.2823996610561039e+00 0
6.6264286508749933e+01 -9.2542669768340904e+00 0
1.0742058582115104e+02 -1.4576711241004830e+01 0
1.0800117385385094e+02 -1.4916351072701922e+01 0
6.8817302571263610e+01 -9.1775436909514774e+00 0
6.7782469267503771e+01 -9.2382063028092105e+00 0
1.0614248410554872e+02 -1.3609736272991160e+01 0
1.0685858329251754e+02 -1.4147495333870005e+01 0
7.1210434067999941e+01 -8.9083909212299908e+00 0
6.9915666601671575e+01 -9.0724897181268531e+00 0
1.0459558809082272e+02 -1.2028693986703356e+01 0
1.0538822162494247e+02 -1.2936129498189750e+01 0
7.4078725466110441e+01 -8.2186235688042935e+00 0
7.2590092581572620e+01 -8.6420373926697920e+00 0
1.0276998743798251e+02 -9.6320593856331875e+00 0
1.0371246542708177e+02 -1.0870143728722653e+01 0
7.7257266888870603e+01 -6.9657468986621787e+00 0
7.5686253709029856e+01 -7.6344505804250176e+00 0
1.0035045798500845e+02 -7.3610812255652078e+00 0
1.0163566044572718e+02 -8.4660469431790020e+00 0
8.0263939076511789e+01 -5.6387456987667974e+00 0
7.8827197058891286e+01 -6.2874891274593736e+00 0
9.7128061259135592e+01 -5.6510630431385280e+00 0
9.8852055148726663e+01 -6.4451121257584063e+00 0
8.2662999581165749e+01 -4.6828890957522873e+00 0
8.1549979854472554e+01 -5.1230888919355237e+00 0
9.3062958504948554e+01 -4.0315553935144806e+00 0
9.5204214726046160e+01 -4.8481499921906632e+00 0
8.4462846717833173e+01 -3.5323358452833631e+00 0
8.3617105235238398e+01 -4.1734045389368148e+00 0
8.7887004875580644e+01 -2.3205338410411969e+00 0
9.0638530922064547e+01 -3.1433133234098563e+00 0
8.5504046686608703e+01 -2.1971050010602937e+00 0
8.5087128120886206e+01 -2.8156654891703354e+00 0
8.0995762991264144e+01 -1.4422901840164002e+00 0
8.4707923044995425e+01 -1.6023118617945826e+00 0
8.5763137268612553e+01 -1.5607829178013759e+00 0
8.5675318446900206e+01 -1.6811786104008064e+00 0
7.1403279503531479e+01 -9.5943443437456466e-01 0
7.6619909266663853e+01 -1.7156996920041294e+00 0
8.4982060189951000e+01 -1.0979988690075686e+00 0
8.5720856288843351e+01 -1.7159652324071999e+00 0
5.7883786442144860e+01 2.5859279019570636e+00 0
6.5166532752015883e+01 2.0646410715342469e+00 0
8.2327299709625322e+01 1.3470350605043961e+00 0
8.3165023467854311e+01 1.0798514238449712e+00 0
3.7961818195201182e+01 -2.2854411320518821e+01 0
4.9688131948307074e+01 -1.1626212589717802e+01 0
9.3678292640165864e+01 -1.6893036577908745e+01 0
8.8686873481217276e+01 -9.1249637468053280e+00 0
-4.0391897201580278e+00 1.2781943170095133e+02 0
3.0220144439725658e+00 1.2900372722518298e+02 0
2.0455746017125975e+01 1.6634820983874334e+01 0
1.9845337227822597e+00 1.3600910378603717e+02 0
3.9873305304075046e-01 1.0515133419117541e+02 0
1.9511186310520898e+00 1.1696202555762457e+02 0
1.1247259494250279e+01 8.7207679915178488e+01 0
7.1869369573160640e+01 9.7187534959892403e+00 0
1.4687192209266087e+00 9.4892940784977682e+01 0

