# vtk DataFile Version 2.0

ASCII

DATASET UNSTRUCTURED_GRID

POINTS 79 float 

-5.0000000000000003e-02  0.0000000000000000e+00  0.0000000000000000e+00
-5.0000000000000003e-02  5.5555555555555552e-02  0.0000000000000000e+00
-5.0000000000000003e-02  2.7777777777777776e-02  0.0000000000000000e+00
5.0000000000000003e-02  0.0000000000000000e+00  0.0000000000000000e+00
5.0000000000000003e-02  5.5555555555555552e-02  0.0000000000000000e+00
5.0000000000000003e-02  2.7777777777777776e-02  0.0000000000000000e+00
-5.0000000000000003e-02  1.1111111111111110e-01  0.0000000000000000e+00
-5.0000000000000003e-02  8.3333333333333329e-02  0.0000000000000000e+00
5.0000000000000003e-02  1.1111111111111110e-01  0.0000000000000000e+00
5.0000000000000003e-02  8.3333333333333329e-02  0.0000000000000000e+00
-5.0000000000000003e-02  1.6666666666666666e-01  0.0000000000000000e+00
-5.0000000000000003e-02  1.3888888888888890e-01  0.0000000000000000e+00
5.0000000000000003e-02  1.6666666666666666e-01  0.0000000000000000e+00
5.0000000000000003e-02  1.3888888888888890e-01  0.0000000000000000e+00
-5.0000000000000003e-02  2.2222222222222221e-01  0.0000000000000000e+00
-5.0000000000000003e-02  1.9444444444444442e-01  0.0000000000000000e+00
5.0000000000000003e-02  2.2222222222222221e-01  0.0000000000000000e+00
5.0000000000000003e-02  1.9444444444444442e-01  0.0000000000000000e+00
-5.0000000000000003e-02  2.7777777777777779e-01  0.0000000000000000e+00
-5.0000000000000003e-02  2.5000000000000000e-01  0.0000000000000000e+00
5.0000000000000003e-02  2.7777777777777779e-01  0.0000000000000000e+00
5.0000000000000003e-02  2.5000000000000000e-01  0.0000000000000000e+00
-5.0000000000000003e-02  3.3333333333333331e-01  0.0000000000000000e+00
-5.0000000000000003e-02  3.0555555555555558e-01  0.0000000000000000e+00
5.0000000000000003e-02  3.3333333333333331e-01  0.0000000000000000e+00
5.0000000000000003e-02  3.0555555555555558e-01  0.0000000000000000e+00
-5.0000000000000003e-02  3.8888888888888884e-01  0.0000000000000000e+00
-5.0000000000000003e-02  3.6111111111111105e-01  0.0000000000000000e+00
5.0000000000000003e-02  3.8888888888888884e-01  0.0000000000000000e+00
5.0000000000000003e-02  3.6111111111111105e-01  0.0000000000000000e+00
-5.0000000000000003e-02  4.4444444444444442e-01  0.0000000000000000e+00
-5.0000000000000003e-02  4.1666666666666663e-01  0.0000000000000000e+00
5.0000000000000003e-02  4.4444444444444442e-01  0.0000000000000000e+00
5.0000000000000003e-02  4.1666666666666663e-01  0.0000000000000000e+00
-5.0000000000000003e-02  5.0000000000000000e-01  0.0000000000000000e+00
-5.0000000000000003e-02  4.7222222222222221e-01  0.0000000000000000e+00
5.0000000000000003e-02  5.0000000000000000e-01  0.0000000000000000e+00
5.0000000000000003e-02  4.7222222222222221e-01  0.0000000000000000e+00
-5.0000000000000003e-02  5.5555555555555558e-01  0.0000000000000000e+00
-5.0000000000000003e-02  5.2777777777777779e-01  0.0000000000000000e+00
5.0000000000000003e-02  5.5555555555555558e-01  0.0000000000000000e+00
5.0000000000000003e-02  5.2777777777777779e-01  0.0000000000000000e+00
-5.0000000000000003e-02  6.1111111111111105e-01  0.0000000000000000e+00
-5.0000000000000003e-02  5.8333333333333326e-01  0.0000000000000000e+00
5.0000000000000003e-02  6.1111111111111105e-01  0.0000000000000000e+00
5.0000000000000003e-02  5.8333333333333326e-01  0.0000000000000000e+00
-5.0000000000000003e-02  6.6666666666666663e-01  0.0000000000000000e+00
-5.0000000000000003e-02  6.3888888888888884e-01  0.0000000000000000e+00
5.0000000000000003e-02  6.6666666666666663e-01  0.0000000000000000e+00
5.0000000000000003e-02  6.3888888888888884e-01  0.0000000000000000e+00
-5.0000000000000003e-02  7.2222222222222221e-01  0.0000000000000000e+00
-5.0000000000000003e-02  6.9444444444444442e-01  0.0000000000000000e+00
5.0000000000000003e-02  7.2222222222222221e-01  0.0000000000000000e+00
5.0000000000000003e-02  6.9444444444444442e-01  0.0000000000000000e+00
-5.0000000000000003e-02  7.7777777777777768e-01  0.0000000000000000e+00
-5.0000000000000003e-02  7.5000000000000000e-01  0.0000000000000000e+00
5.0000000000000003e-02  7.7777777777777768e-01  0.0000000000000000e+00
5.0000000000000003e-02  7.5000000000000000e-01  0.0000000000000000e+00
-5.0000000000000003e-02  8.3333333333333326e-01  0.0000000000000000e+00
-5.0000000000000003e-02  8.0555555555555547e-01  0.0000000000000000e+00
5.0000000000000003e-02  8.3333333333333326e-01  0.0000000000000000e+00
5.0000000000000003e-02  8.0555555555555547e-01  0.0000000000000000e+00
-5.0000000000000003e-02  8.8888888888888884e-01  0.0000000000000000e+00
-5.0000000000000003e-02  8.6111111111111105e-01  0.0000000000000000e+00
5.0000000000000003e-02  8.8888888888888884e-01  0.0000000000000000e+00
5.0000000000000003e-02  8.6111111111111105e-01  0.0000000000000000e+00
-5.0000000000000003e-02  9.4444444444444442e-01  0.0000000000000000e+00
-5.0000000000000003e-02  9.1666666666666663e-01  0.0000000000000000e+00
5.0000000000000003e-02  9.4444444444444442e-01  0.0000000000000000e+00
5.0000000000000003e-02  9.1666666666666663e-01  0.0000000000000000e+00
-5.0000000000000003e-02  1.0000000000000000e+00  0.0000000000000000e+00
-1.6666666666666670e-02  1.0000000000000000e+00  0.0000000000000000e+00
-5.0000000000000003e-02  9.7222222222222221e-01  0.0000000000000000e+00
-3.3333333333333340e-02  1.0000000000000000e+00  0.0000000000000000e+00
1.6666666666666663e-02  1.0000000000000000e+00  0.0000000000000000e+00
-3.4694469519536142e-18  1.0000000000000000e+00  0.0000000000000000e+00
5.0000000000000003e-02  1.0000000000000000e+00  0.0000000000000000e+00
5.0000000000000003e-02  9.7222222222222221e-01  0.0000000000000000e+00
3.3333333333333333e-02  1.0000000000000000e+00  0.0000000000000000e+00

CELLS 0 0


CELL_TYPES 0


POINT_DATA 79

VECTORS VertexNormals float

0.0000000000000000e+00 0.0000000000000000e+00 0
0.0000000000000000e+00 0.0000000000000000e+00 0
0.0000000000000000e+00 0.0000000000000000e+00 0
0.0000000000000000e+00 0.0000000000000000e+00 0
0.0000000000000000e+00 0.0000000000000000e+00 0
0.0000000000000000e+00 0.0000000000000000e+00 0
0.0000000000000000e+00 0.0000000000000000e+00 0
0.0000000000000000e+00 0.0000000000000000e+00 0
0.0000000000000000e+00 0.0000000000000000e+00 0
0.0000000000000000e+00 0.0000000000000000e+00 0
0.0000000000000000e+00 0.0000000000000000e+00 0
0.0000000000000000e+00 0.0000000000000000e+00 0
0.0000000000000000e+00 0.0000000000000000e+00 0
0.0000000000000000e+00 0.0000000000000000e+00 0
0.0000000000000000e+00 0.0000000000000000e+00 0
0.0000000000000000e+00 0.0000000000000000e+00 0
0.0000000000000000e+00 0.0000000000000000e+00 0
0.0000000000000000e+00 0.0000000000000000e+00 0
0.0000000000000000e+00 0.0000000000000000e+00 0
0.0000000000000000e+00 0.0000000000000000e+00 0
0.0000000000000000e+00 0.0000000000000000e+00 0
0.0000000000000000e+00 0.0000000000000000e+00 0
0.0000000000000000e+00 0.0000000000000000e+00 0
0.0000000000000000e+00 0.0000000000000000e+00 0
0.0000000000000000e+00 0.0000000000000000e+00 0
0.0000000000000000e+00 0.0000000000000000e+00 0
0.0000000000000000e+00 0.0000000000000000e+00 0
0.0000000000000000e+00 0.0000000000000000e+00 0
0.0000000000000000e+00 0.0000000000000000e+00 0
0.0000000000000000e+00 0.0000000000000000e+00 0
0.0000000000000000e+00 0.0000000000000000e+00 0
0.0000000000000000e+00 0.0000000000000000e+00 0
0.0000000000000000e+00 0.0000000000000000e+00 0
0.0000000000000000e+00 0.0000000000000000e+00 0
0.0000000000000000e+00 0.0000000000000000e+00 0
0.0000000000000000e+00 0.0000000000000000e+00 0
0.0000000000000000e+00 0.0000000000000000e+00 0
0.0000000000000000e+00 0.0000000000000000e+00 0
0.0000000000000000e+00 0.0000000000000000e+00 0
0.0000000000000000e+00 0.0000000000000000e+00 0
0.0000000000000000e+00 0.0000000000000000e+00 0
0.0000000000000000e+00 0.0000000000000000e+00 0
0.0000000000000000e+00 0.0000000000000000e+00 0
0.0000000000000000e+00 0.0000000000000000e+00 0
0.0000000000000000e+00 0.0000000000000000e+00 0
0.0000000000000000e+00 0.0000000000000000e+00 0
0.0000000000000000e+00 0.0000000000000000e+00 0
0.0000000000000000e+00 0.0000000000000000e+00 0
0.0000000000000000e+00 0.0000000000000000e+00 0
0.0000000000000000e+00 0.0000000000000000e+00 0
0.0000000000000000e+00 0.0000000000000000e+00 0
0.0000000000000000e+00 0.0000000000000000e+00 0
0.0000000000000000e+00 0.0000000000000000e+00 0
0.0000000000000000e+00 0.0000000000000000e+00 0
0.0000000000000000e+00 0.0000000000000000e+00 0
0.0000000000000000e+00 0.0000000000000000e+00 0
0.0000000000000000e+00 0.0000000000000000e+00 0
0.0000000000000000e+00 0.0000000000000000e+00 0
0.0000000000000000e+00 0.0000000000000000e+00 0
0.0000000000000000e+00 0.0000000000000000e+00 0
0.0000000000000000e+00 0.0000000000000000e+00 0
0.0000000000000000e+00 0.0000000000000000e+00 0
0.0000000000000000e+00 0.0000000000000000e+00 0
0.0000000000000000e+00 0.0000000000000000e+00 0
0.0000000000000000e+00 0.0000000000000000e+00 0
0.0000000000000000e+00 0.0000000000000000e+00 0
0.0000000000000000e+00 0.0000000000000000e+00 0
0.0000000000000000e+00 0.0000000000000000e+00 0
0.0000000000000000e+00 0.0000000000000000e+00 0
0.0000000000000000e+00 0.0000000000000000e+00 0
0.0000000000000000e+00 0.0000000000000000e+00 0
0.0000000000000000e+00 0.0000000000000000e+00 0
0.0000000000000000e+00 0.0000000000000000e+00 0
0.0000000000000000e+00 0.0000000000000000e+00 0
0.0000000000000000e+00 0.0000000000000000e+00 0
0.0000000000000000e+00 0.0000000000000000e+00 0
0.0000000000000000e+00 0.0000000000000000e+00 0
0.0000000000000000e+00 0.0000000000000000e+00 0
0.0000000000000000e+00 0.0000000000000000e+00 0

VECTORS Displacement float
0.0000000000000000e+00 0.0000000000000000e+00 0
1.9274905234893938e-03 2.3250234007168224e-03 0
8.2231309966136041e-04 1.2146005911025494e-03 0
0.0000000000000000e+00 0.0000000000000000e+00 0
1.9439964580701603e-03 -2.5013747576727195e-03 0
8.0416389362785974e-04 -1.2840922770956604e-03 0
5.9950368088373535e-03 4.4673668021381827e-03 0
3.6609363849629899e-03 3.4052042274235008e-03 0
6.0460619250860149e-03 -4.7732890147510441e-03 0
3.7259344434056232e-03 -3.6671211239133203e-03 0
1.2472112527059574e-02 6.5333682007164828e-03 0
8.9656444554586830e-03 5.4999196830570248e-03 0
1.2469541149538053e-02 -6.8623844827007778e-03 0
8.9649839973868790e-03 -5.8228420675759569e-03 0
2.1027568454574416e-02 8.5198984513418612e-03 0
1.6476071901611267e-02 7.5443349158575181e-03 0
2.1117552879578727e-02 -8.7908993528908047e-03 0
1.6533130881344275e-02 -7.8508938009473287e-03 0
3.1786396925416148e-02 1.0393768217520676e-02 0
2.6145924331332518e-02 9.4639476715021459e-03 0
3.1720771475021108e-02 -1.0686214307667504e-02 0
2.6161372437794459e-02 -9.7216101302412348e-03 0
4.4565405645238171e-02 1.2132921307985801e-02 0
3.7946909585755986e-02 1.1289310657122423e-02 0
4.4666759960941091e-02 -1.2494593927322151e-02 0
3.7926862404437565e-02 -1.1645790581802753e-02 0
5.9289015722437263e-02 1.3704649721081263e-02 0
5.1672476750274532e-02 1.2950422777769085e-02 0
5.9318762093258676e-02 -1.3912997862357199e-02 0
5.1796876260946562e-02 -1.3231334495985665e-02 0
7.5418035118045512e-02 1.5027129766182848e-02 0
6.7206839748230024e-02 1.4372616333974353e-02 0
7.5489008669944929e-02 -1.5233623512557703e-02 0
6.7210694400894999e-02 -1.4573430615026584e-02 0
9.2977896718120207e-02 1.6394266754060232e-02 0
8.4001536111895703e-02 1.5701505304950337e-02 0
9.3031766458432197e-02 -1.6574502124572427e-02 0
8.4111180577581712e-02 -1.5885456167491149e-02 0
1.1218625226309811e-01 1.7780847188230850e-02 0
1.0238270493619488e-01 1.7088523080288624e-02 0
1.1221501957091085e-01 -1.8067871961472047e-02 0
1.0236486149312746e-01 -1.7332938529823802e-02 0
1.3294628391576352e-01 1.9136938917457408e-02 0
1.2237295461113942e-01 1.8471935412577099e-02 0
1.3301064265997448e-01 -1.9259363006436051e-02 0
1.2246969192822410e-01 -1.8695031688254499e-02 0
1.5505701514735581e-01 2.0271841139337762e-02 0
1.4386873976562525e-01 1.9733992475512715e-02 0
1.5502747958970142e-01 -2.0345467865063888e-02 0
1.4384894133701059e-01 -1.9808782491419295e-02 0
1.7831569625334220e-01 2.1306681442491340e-02 0
1.6651428741878341e-01 2.0800605394085427e-02 0
1.7834298801540671e-01 -2.1281377143576342e-02 0
1.6656142335102575e-01 -2.0833514844268312e-02 0
2.0266002840064726e-01 2.2099096615479770e-02 0
1.9039215157169759e-01 2.1734837800612351e-02 0
2.0258890708223670e-01 -2.2086681360353761e-02 0
1.9031917381130978e-01 -2.1713531872270438e-02 0
2.2764406136192714e-01 2.2724559209668652e-02 0
2.1507179794284720e-01 2.2420088535516129e-02 0
2.2769351811671967e-01 -2.2565382660403095e-02 0
2.1508483925413874e-01 -2.2355784947474640e-02 0
2.5324085635466814e-01 2.3106461527303813e-02 0
2.4039939947319416e-01 2.2958994275594429e-02 0
2.5322942473237053e-01 -2.2840769380398855e-02 0
2.4042867096927906e-01 -2.2726019148782091e-02 0
2.7894403798821171e-01 2.3202622609507353e-02 0
2.6609208993692390e-01 2.3175779826299973e-02 0
2.7895601800449799e-01 -2.2957267146320869e-02 0
2.6608036189588175e-01 -2.2918419134233196e-02 0
3.0464346422914279e-01 2.3222090725580576e-02 0
3.0464177114389374e-01 7.7887295270637862e-03 0
2.9179949690844831e-01 2.3215991118658484e-02 0
3.0464502022881335e-01 1.5513755662014329e-02 0
3.0456671951533854e-01 -7.6277412126696201e-03 0
3.0461189888109541e-01 6.4374956511990345e-05 0
3.0451044391480631e-01 -2.2919458472846425e-02 0
2.9177142296834779e-01 -2.2940138173989995e-02 0
3.0452908455770644e-01 -1.5285958454214044e-02 0

VECTORS Stress float
1.7346910176915117e+02 -1.3199823377564478e+01 0
1.6836730441380047e+02 -7.2107591651199963e+00 0
1.6968181376644756e+02 -6.7932899828765061e+00 0
-5.1272134189807787e+01 -1.3000766860205246e+00 0
-5.7521103874231471e+01 3.8575492660023181e+00 0
-5.6035979509796803e+01 1.8615125481536225e+00 0
1.6902491535939177e+02 -1.5657151799261895e+01 0
1.6864478721358665e+02 -1.1336500257784911e+01 0
-5.6551623927389812e+01 5.5276902086089565e+00 0
-5.7139354416092701e+01 4.7815316122803946e+00 0
1.6835482311272006e+02 -2.1926018186099597e+01 0
1.6876617318548909e+02 -1.8951465576710181e+01 0
-5.6420557172613265e+01 7.9983564671378922e+00 0
-5.6423596276453239e+01 6.7937033358784520e+00 0
1.6685965524917472e+02 -2.8040309277093673e+01 0
1.6765088826699917e+02 -2.5012020718254064e+01 0
-5.5862953079129738e+01 1.0051231028772889e+01 0
-5.6145809920324190e+01 9.0791009871272088e+00 0
1.6432471593409502e+02 -3.3624186715421423e+01 0
1.6573333107374592e+02 -3.0909576310844294e+01 0
-5.4943416333228612e+01 1.2176277144800595e+01 0
-5.5437575375852774e+01 1.1088680489192472e+01 0
1.6071510956101113e+02 -3.8587631136782868e+01 0
1.6271121404110315e+02 -3.6199514029761147e+01 0
-5.3803391782798101e+01 1.3830783322548671e+01 0
-5.4451143717718530e+01 1.3127709553701409e+01 0
1.5640544255299415e+02 -4.2278860158996565e+01 0
1.5864577461757943e+02 -4.0735611891519220e+01 0
-5.2400887008260852e+01 1.4984155546988379e+01 0
-5.3187179183417555e+01 1.4469972605831883e+01 0
1.5156219601198634e+02 -4.4640314563224585e+01 0
1.5408323909039120e+02 -4.3495516128680471e+01 0
-5.0697324050255098e+01 1.5891302646179829e+01 0
-5.1580466878413020e+01 1.5469634148469371e+01 0
1.4582994199464503e+02 -4.6883183268125222e+01 0
1.4876222317266468e+02 -4.5778738976941256e+01 0
-4.8729051647809470e+01 1.6585042377578031e+01 0
-4.9708432370050602e+01 1.6223070182105911e+01 0
1.3928494723291399e+02 -4.8663692013366983e+01 0
1.4261420797591384e+02 -4.7816558942351790e+01 0
-4.6453431731046365e+01 1.7313358318123722e+01 0
-4.7597369656259168e+01 1.6942170048269773e+01 0
1.3225719460581388e+02 -4.9682840784694477e+01 0
1.3582421273141156e+02 -4.9276926818666915e+01 0
-4.3952927236591265e+01 1.7431285245278840e+01 0
-4.5236960211024638e+01 1.7454061661864202e+01 0
1.2495570930451797e+02 -4.9799642201910615e+01 0
1.2863812479923916e+02 -4.9902174103062094e+01 0
-4.1204261092612327e+01 1.7242032135721665e+01 0
-4.2623803788321887e+01 1.7385734858737745e+01 0
1.1724594087295213e+02 -4.9068400440083273e+01 0
1.2116799134276508e+02 -4.9557669805856094e+01 0
-3.8266208355363908e+01 1.6820474782215488e+01 0
-3.9748054906777682e+01 1.7124402932308122e+01 0
1.0904943412694254e+02 -4.7601790827977197e+01 0
1.1316982574630835e+02 -4.8420125420701552e+01 0
-3.5176503158301166e+01 1.6029688802866044e+01 0
-3.6741279432303770e+01 1.6467944246144789e+01 0
1.0015975007563060e+02 -4.4874593808327162e+01 0
1.0483901587751612e+02 -4.6499373510365331e+01 0
-3.1927444315306737e+01 1.4893474416360108e+01 0
-3.3575727012076953e+01 1.5465861273444954e+01 0
8.9474574196536921e+01 -4.0080126658141737e+01 0
9.4807706092083237e+01 -4.2197191987808793e+01 0
-2.8672122839954042e+01 1.3387681452459663e+01 0
-3.0304129901935859e+01 1.4082884185217541e+01 0
8.2798407762897284e+01 -4.3700601485096875e+01 0
8.6793217137341799e+01 -4.2509082594522454e+01 0
-2.6430171916639296e+01 1.3900372040599278e+01 0
-2.7404843439933536e+01 1.3499282789169447e+01 0
3.2558807648549369e+01 1.8475717786762331e+01 0
5.0553024281070620e+00 1.8924276894553991e+01 0
6.5551642341487991e+01 -2.5299563531508038e+01 0
1.2494255357527251e+01 2.6769049262112624e+01 0
1.5642571803045016e+00 -3.7992335561638511e+00 0
2.7968332111375389e+00 6.2259712185010567e+00 0
-2.0841006762622321e+01 5.4463213760445228e-01 0
-2.3544455221293845e+01 9.4880146924192523e+00 0
-3.8075820106697620e+00 -7.9311270604878334e+00 0

