# vtk DataFile Version 2.0

ASCII

DATASET UNSTRUCTURED_GRID

POINTS 79 float 

-5.0000000000000003e-02  0.0000000000000000e+00  0.0000000000000000e+00
-5.0000000000000003e-02  5.5555555555555552e-02  0.0000000000000000e+00
-5.0000000000000003e-02  2.7777777777777776e-02  0.0000000000000000e+00
5.0000000000000003e-02  0.0000000000000000e+00  0.0000000000000000e+00
5.0000000000000003e-02  5.5555555555555552e-02  0.0000000000000000e+00
5.0000000000000003e-02  2.7777777777777776e-02  0.0000000000000000e+00
-5.0000000000000003e-02  1.1111111111111110e-01  0.0000000000000000e+00
-5.0000000000000003e-02  8.3333333333333329e-02  0.0000000000000000e+00
5.0000000000000003e-02  1.1111111111111110e-01  0.0000000000000000e+00
5.0000000000000003e-02  8.3333333333333329e-02  0.0000000000000000e+00
-5.0000000000000003e-02  1.6666666666666666e-01  0.0000000000000000e+00
-5.0000000000000003e-02  1.3888888888888890e-01  0.0000000000000000e+00
5.0000000000000003e-02  1.6666666666666666e-01  0.0000000000000000e+00
5.0000000000000003e-02  1.3888888888888890e-01  0.0000000000000000e+00
-5.0000000000000003e-02  2.2222222222222221e-01  0.0000000000000000e+00
-5.0000000000000003e-02  1.9444444444444442e-01  0.0000000000000000e+00
5.0000000000000003e-02  2.2222222222222221e-01  0.0000000000000000e+00
5.0000000000000003e-02  1.9444444444444442e-01  0.0000000000000000e+00
-5.0000000000000003e-02  2.7777777777777779e-01  0.0000000000000000e+00
-5.0000000000000003e-02  2.5000000000000000e-01  0.0000000000000000e+00
5.0000000000000003e-02  2.7777777777777779e-01  0.0000000000000000e+00
5.0000000000000003e-02  2.5000000000000000e-01  0.0000000000000000e+00
-5.0000000000000003e-02  3.3333333333333331e-01  0.0000000000000000e+00
-5.0000000000000003e-02  3.0555555555555558e-01  0.0000000000000000e+00
5.0000000000000003e-02  3.3333333333333331e-01  0.0000000000000000e+00
5.0000000000000003e-02  3.0555555555555558e-01  0.0000000000000000e+00
-5.0000000000000003e-02  3.8888888888888884e-01  0.0000000000000000e+00
-5.0000000000000003e-02  3.6111111111111105e-01  0.0000000000000000e+00
5.0000000000000003e-02  3.8888888888888884e-01  0.0000000000000000e+00
5.0000000000000003e-02  3.6111111111111105e-01  0.0000000000000000e+00
-5.0000000000000003e-02  4.4444444444444442e-01  0.0000000000000000e+00
-5.0000000000000003e-02  4.1666666666666663e-01  0.0000000000000000e+00
5.0000000000000003e-02  4.4444444444444442e-01  0.0000000000000000e+00
5.0000000000000003e-02  4.1666666666666663e-01  0.0000000000000000e+00
-5.0000000000000003e-02  5.0000000000000000e-01  0.0000000000000000e+00
-5.0000000000000003e-02  4.7222222222222221e-01  0.0000000000000000e+00
5.0000000000000003e-02  5.0000000000000000e-01  0.0000000000000000e+00
5.0000000000000003e-02  4.7222222222222221e-01  0.0000000000000000e+00
-5.0000000000000003e-02  5.5555555555555558e-01  0.0000000000000000e+00
-5.0000000000000003e-02  5.2777777777777779e-01  0.0000000000000000e+00
5.0000000000000003e-02  5.5555555555555558e-01  0.0000000000000000e+00
5.0000000000000003e-02  5.2777777777777779e-01  0.0000000000000000e+00
-5.0000000000000003e-02  6.1111111111111105e-01  0.0000000000000000e+00
-5.0000000000000003e-02  5.8333333333333326e-01  0.0000000000000000e+00
5.0000000000000003e-02  6.1111111111111105e-01  0.0000000000000000e+00
5.0000000000000003e-02  5.8333333333333326e-01  0.0000000000000000e+00
-5.0000000000000003e-02  6.6666666666666663e-01  0.0000000000000000e+00
-5.0000000000000003e-02  6.3888888888888884e-01  0.0000000000000000e+00
5.0000000000000003e-02  6.6666666666666663e-01  0.0000000000000000e+00
5.0000000000000003e-02  6.3888888888888884e-01  0.0000000000000000e+00
-5.0000000000000003e-02  7.2222222222222221e-01  0.0000000000000000e+00
-5.0000000000000003e-02  6.9444444444444442e-01  0.0000000000000000e+00
5.0000000000000003e-02  7.2222222222222221e-01  0.0000000000000000e+00
5.0000000000000003e-02  6.9444444444444442e-01  0.0000000000000000e+00
-5.0000000000000003e-02  7.7777777777777768e-01  0.0000000000000000e+00
-5.0000000000000003e-02  7.5000000000000000e-01  0.0000000000000000e+00
5.0000000000000003e-02  7.7777777777777768e-01  0.0000000000000000e+00
5.0000000000000003e-02  7.5000000000000000e-01  0.0000000000000000e+00
-5.0000000000000003e-02  8.3333333333333326e-01  0.0000000000000000e+00
-5.0000000000000003e-02  8.0555555555555547e-01  0.0000000000000000e+00
5.0000000000000003e-02  8.3333333333333326e-01  0.0000000000000000e+00
5.0000000000000003e-02  8.0555555555555547e-01  0.0000000000000000e+00
-5.0000000000000003e-02  8.8888888888888884e-01  0.0000000000000000e+00
-5.0000000000000003e-02  8.6111111111111105e-01  0.0000000000000000e+00
5.0000000000000003e-02  8.8888888888888884e-01  0.0000000000000000e+00
5.0000000000000003e-02  8.6111111111111105e-01  0.0000000000000000e+00
-5.0000000000000003e-02  9.4444444444444442e-01  0.0000000000000000e+00
-5.0000000000000003e-02  9.1666666666666663e-01  0.0000000000000000e+00
5.0000000000000003e-02  9.4444444444444442e-01  0.0000000000000000e+00
5.0000000000000003e-02  9.1666666666666663e-01  0.0000000000000000e+00
-5.0000000000000003e-02  1.0000000000000000e+00  0.0000000000000000e+00
-1.6666666666666670e-02  1.0000000000000000e+00  0.0000000000000000e+00
-5.0000000000000003e-02  9.7222222222222221e-01  0.0000000000000000e+00
-3.3333333333333340e-02  1.0000000000000000e+00  0.0000000000000000e+00
1.6666666666666663e-02  1.0000000000000000e+00  0.0000000000000000e+00
-3.4694469519536142e-18  1.0000000000000000e+00  0.0000000000000000e+00
5.0000000000000003e-02  1.0000000000000000e+00  0.0000000000000000e+00
5.0000000000000003e-02  9.7222222222222221e-01  0.0000000000000000e+00
3.3333333333333333e-02  1.0000000000000000e+00  0.0000000000000000e+00

CELLS 0 0


CELL_TYPES 0


POINT_DATA 79

VECTORS VertexNormals float

0.0000000000000000e+00 0.0000000000000000e+00 0
0.0000000000000000e+00 0.0000000000000000e+00 0
0.0000000000000000e+00 0.0000000000000000e+00 0
0.0000000000000000e+00 0.0000000000000000e+00 0
0.0000000000000000e+00 0.0000000000000000e+00 0
0.0000000000000000e+00 0.0000000000000000e+00 0
0.0000000000000000e+00 0.0000000000000000e+00 0
0.0000000000000000e+00 0.0000000000000000e+00 0
0.0000000000000000e+00 0.0000000000000000e+00 0
0.0000000000000000e+00 0.0000000000000000e+00 0
0.0000000000000000e+00 0.0000000000000000e+00 0
0.0000000000000000e+00 0.0000000000000000e+00 0
0.0000000000000000e+00 0.0000000000000000e+00 0
0.0000000000000000e+00 0.0000000000000000e+00 0
0.0000000000000000e+00 0.0000000000000000e+00 0
0.0000000000000000e+00 0.0000000000000000e+00 0
0.0000000000000000e+00 0.0000000000000000e+00 0
0.0000000000000000e+00 0.0000000000000000e+00 0
0.0000000000000000e+00 0.0000000000000000e+00 0
0.0000000000000000e+00 0.0000000000000000e+00 0
0.0000000000000000e+00 0.0000000000000000e+00 0
0.0000000000000000e+00 0.0000000000000000e+00 0
0.0000000000000000e+00 0.0000000000000000e+00 0
0.0000000000000000e+00 0.0000000000000000e+00 0
0.0000000000000000e+00 0.0000000000000000e+00 0
0.0000000000000000e+00 0.0000000000000000e+00 0
0.0000000000000000e+00 0.0000000000000000e+00 0
0.0000000000000000e+00 0.0000000000000000e+00 0
0.0000000000000000e+00 0.0000000000000000e+00 0
0.0000000000000000e+00 0.0000000000000000e+00 0
0.0000000000000000e+00 0.0000000000000000e+00 0
0.0000000000000000e+00 0.0000000000000000e+00 0
0.0000000000000000e+00 0.0000000000000000e+00 0
0.0000000000000000e+00 0.0000000000000000e+00 0
0.0000000000000000e+00 0.0000000000000000e+00 0
0.0000000000000000e+00 0.0000000000000000e+00 0
0.0000000000000000e+00 0.0000000000000000e+00 0
0.0000000000000000e+00 0.0000000000000000e+00 0
0.0000000000000000e+00 0.0000000000000000e+00 0
0.0000000000000000e+00 0.0000000000000000e+00 0
0.0000000000000000e+00 0.0000000000000000e+00 0
0.0000000000000000e+00 0.0000000000000000e+00 0
0.0000000000000000e+00 0.0000000000000000e+00 0
0.0000000000000000e+00 0.0000000000000000e+00 0
0.0000000000000000e+00 0.0000000000000000e+00 0
0.0000000000000000e+00 0.0000000000000000e+00 0
0.0000000000000000e+00 0.0000000000000000e+00 0
0.0000000000000000e+00 0.0000000000000000e+00 0
0.0000000000000000e+00 0.0000000000000000e+00 0
0.0000000000000000e+00 0.0000000000000000e+00 0
0.0000000000000000e+00 0.0000000000000000e+00 0
0.0000000000000000e+00 0.0000000000000000e+00 0
0.0000000000000000e+00 0.0000000000000000e+00 0
0.0000000000000000e+00 0.0000000000000000e+00 0
0.0000000000000000e+00 0.0000000000000000e+00 0
0.0000000000000000e+00 0.0000000000000000e+00 0
0.0000000000000000e+00 0.0000000000000000e+00 0
0.0000000000000000e+00 0.0000000000000000e+00 0
0.0000000000000000e+00 0.0000000000000000e+00 0
0.0000000000000000e+00 0.0000000000000000e+00 0
0.0000000000000000e+00 0.0000000000000000e+00 0
0.0000000000000000e+00 0.0000000000000000e+00 0
0.0000000000000000e+00 0.0000000000000000e+00 0
0.0000000000000000e+00 0.0000000000000000e+00 0
0.0000000000000000e+00 0.0000000000000000e+00 0
0.0000000000000000e+00 0.0000000000000000e+00 0
0.0000000000000000e+00 0.0000000000000000e+00 0
0.0000000000000000e+00 0.0000000000000000e+00 0
0.0000000000000000e+00 0.0000000000000000e+00 0
0.0000000000000000e+00 0.0000000000000000e+00 0
0.0000000000000000e+00 0.0000000000000000e+00 0
0.0000000000000000e+00 0.0000000000000000e+00 0
0.0000000000000000e+00 0.0000000000000000e+00 0
0.0000000000000000e+00 0.0000000000000000e+00 0
0.0000000000000000e+00 0.0000000000000000e+00 0
0.0000000000000000e+00 0.0000000000000000e+00 0
0.0000000000000000e+00 0.0000000000000000e+00 0
0.0000000000000000e+00 0.0000000000000000e+00 0
0.0000000000000000e+00 0.0000000000000000e+00 0

VECTORS Displacement float
0.0000000000000000e+00 0.0000000000000000e+00 0
1.5556876691836421e-03 2.0117544322627544e-03 0
6.1620763676369724e-04 1.0238103682105194e-03 0
0.0000000000000000e+00 0.0000000000000000e+00 0
1.6313627992085502e-03 -1.9935705859416017e-03 0
6.7886186710729255e-04 -1.0392358466222856e-03 0
4.9908952946140324e-03 3.7244408239619593e-03 0
3.0574719635779665e-03 2.9135556711477337e-03 0
4.9898045484431802e-03 -3.7073179659408706e-03 0
3.0825850764971134e-03 -2.8797768040835438e-03 0
1.0186426456274048e-02 5.1460814077850994e-03 0
7.3831715076444968e-03 4.4730818451287910e-03 0
1.0263587697790760e-02 -5.1519274372134553e-03 0
7.4365055496042462e-03 -4.4717245742715668e-03 0
1.6911312757778997e-02 6.1242043005045235e-03 0
1.3390567485108987e-02 5.7016319323184312e-03 0
1.6910472484170699e-02 -6.2580105016647753e-03 0
1.3415304690499688e-02 -5.7467832108333058e-03 0
2.4475745451893530e-02 6.5522068354882043e-03 0
2.0613749836995307e-02 6.4053124588350548e-03 0
2.4625723260614810e-02 -6.8064324466249023e-03 0
2.0684279526735093e-02 -6.6267405508695721e-03 0
3.2235190705221087e-02 6.2815840085746113e-03 0
2.8420939998192105e-02 6.4909534117583087e-03 0
3.2280779263872190e-02 -6.6258204281956848e-03 0
2.8526311433937912e-02 -6.7653607153619344e-03 0
3.9311333658945014e-02 5.6542130382622562e-03 0
3.5860026456713420e-02 5.9961271711729044e-03 0
3.9434736011608580e-02 -6.1417709315769401e-03 0
3.5944622419121233e-02 -6.4217630089795554e-03 0
4.5582749974765871e-02 4.8519824905613696e-03 0
4.2555010046316774e-02 5.2608302279313459e-03 0
4.5679938181939703e-02 -5.5083216094225949e-03 0
4.2663954214501115e-02 -5.8243536483150102e-03 0
5.1044413717507300e-02 4.0156308980552361e-03 0
4.8414245855628896e-02 4.4407117664078278e-03 0
5.1144852696265834e-02 -4.8019447993372811e-03 0
4.8514666508058607e-02 -5.1754257529957794e-03 0
5.5555557337470841e-02 3.0209473526326934e-03 0
5.3446380506954716e-02 3.5443013551938827e-03 0
5.5636409745469573e-02 -3.8782845074780440e-03 0
5.3538425356906158e-02 -4.3647793096503636e-03 0
5.8753946880571402e-02 1.9209783006254523e-03 0
5.7321666934371823e-02 2.4629630868609155e-03 0
5.8838537831930063e-02 -2.9082419645657968e-03 0
5.7400712124759556e-02 -3.3782823543502287e-03 0
6.0845964852017001e-02 1.0440805123498255e-03 0
5.9914980280672381e-02 1.4462320742925122e-03 0
6.0907241876051413e-02 -2.0807122654034685e-03 0
5.9995430343377350e-02 -2.4828400292834689e-03 0
6.2119007368679383e-02 4.1882948962277083e-04 0
6.1568161011088751e-02 7.1161903882367087e-04 0
6.2147037224329446e-02 -1.4378793490370683e-03 0
6.1600359525445944e-02 -1.7263695328192646e-03 0
6.2838077347209087e-02 -1.2511523813517344e-04 0
6.2539411550988827e-02 1.4581927826018480e-04 0
6.2925853552474972e-02 -9.0597024970629847e-04 0
6.2615455346006502e-02 -1.1798664238355011e-03 0
6.2891148772565186e-02 -6.2588733592321177e-04 0
6.2968450304740839e-02 -4.0178182688337550e-04 0
6.2911230349658259e-02 -5.1755015228207115e-04 0
6.2995799486097348e-02 -6.6375250426595775e-04 0
6.2606753761499781e-02 -7.3399709325912819e-04 0
6.2720689692184861e-02 -7.1314261522824622e-04 0
6.2765133202629969e-02 -4.4312062665117314e-04 0
6.2812564788906414e-02 -4.7142660757200236e-04 0
6.2512782491391389e-02 -8.3923698507073585e-04 0
6.2562789810919589e-02 -7.7054475609103718e-04 0
6.2564085218637697e-02 -2.6739301897673006e-04 0
6.2701421000857405e-02 -3.6594729706821306e-04 0
6.2151745593864383e-02 -9.1046008006763490e-04 0
6.2171486400042150e-02 -6.8038580418745105e-04 0
6.2361890960763722e-02 -8.9793397382109392e-04 0
6.2157549486784425e-02 -7.8911469552035848e-04 0
6.2151991918490523e-02 -4.5579008665231409e-04 0
6.2167673053782888e-02 -5.8003108742055143e-04 0
6.2124912900525159e-02 -1.4989378047255839e-04 0
6.2370122600267572e-02 -1.9218453413160388e-04 0
6.2137308302347635e-02 -3.0929688323669827e-04 0

VECTORS Stress float
1.2773879109137783e+02 -3.5085338785804048e+01 0
1.0812741116345667e+02 9.9398863182356534e-01 0
1.1286212846288738e+02 -6.7167137041069767e+00 0
8.7266544898671057e+01 -3.3491147833751043e+01 0
6.6048649273981596e+01 2.4227472112349715e+00 0
7.1190604632522167e+01 -5.6397723089433374e+00 0
1.1139593208970120e+02 -9.1704820551662785e+00 0
1.0953817060841294e+02 -3.5967275171690876e+00 0
6.9222884696793187e+01 -6.2188039961004060e+00 0
6.7356103598013235e+01 -1.3988284863112161e+00 0
1.1058383274415732e+02 -1.1656338172815612e+01 0
1.1116361603386667e+02 -1.0815619035430105e+01 0
6.8728762145769920e+01 -7.5362403046076416e+00 0
6.9148574155455080e+01 -7.2320406862237210e+00 0
1.0974238831841551e+02 -1.3930370689713319e+01 0
1.1007913853153308e+02 -1.2765592242209967e+01 0
6.9006079360050890e+01 -9.0828484641876361e+00 0
6.8761268862147105e+01 -8.2534555986143250e+00 0
1.0876884198135798e+02 -1.5103942357250819e+01 0
1.0929044952984992e+02 -1.4730417964724891e+01 0
7.0084790227400418e+01 -9.7229151461248406e+00 0
6.9463338081268660e+01 -9.5864563860949641e+00 0
1.0777367500670135e+02 -1.4510422162247835e+01 0
1.0830280039813897e+02 -1.5073231174370026e+01 0
7.1947841856500304e+01 -9.4974072048188063e+00 0
7.0874233469339885e+01 -9.6713280125012702e+00 0
1.0668457021504724e+02 -1.2896543043143819e+01 0
1.0730450621297955e+02 -1.3739796270801467e+01 0
7.4503425224564438e+01 -8.8018435720568498e+00 0
7.3121432220113689e+01 -9.2040502349575704e+00 0
1.0522375074803119e+02 -1.1173631703372802e+01 0
1.0600388425894181e+02 -1.2027463695879216e+01 0
7.7447394790702361e+01 -7.9146689371212950e+00 0
7.5952985667474735e+01 -8.3459422537103798e+00 0
1.0330357358836754e+02 -9.3684249638531263e+00 0
1.0429084386245425e+02 -1.0320652130201221e+01 0
8.0508080767635462e+01 -7.0072984254702924e+00 0
7.8993147841605918e+01 -7.5074973139738397e+00 0
1.0097103906922119e+02 -7.0017181774248129e+00 0
1.0218820110340634e+02 -8.2439111003604637e+00 0
8.3584381762908180e+01 -5.5198581144045065e+00 0
8.2087681799969999e+01 -6.3252174562489856e+00 0
9.8021787977511224e+01 -4.5839129371522631e+00 0
9.9597548039121421e+01 -5.7698659348511754e+00 0
8.6225801428560800e+01 -3.8146143397943320e+00 0
8.4983308660751106e+01 -4.6684535750424629e+00 0
9.4096449363035262e+01 -2.6972019071125857e+00 0
9.6206420472255687e+01 -3.5150660652346062e+00 0
8.8052954266644008e+01 -2.3964588829530697e+00 0
8.7250147958493898e+01 -3.0292367330639109e+00 0
8.8844778263028715e+01 -1.3667535343628288e+00 0
9.1652410371962489e+01 -1.9485627869439099e+00 0
8.8892344167358587e+01 -1.3409805978258902e+00 0
8.8581515058347492e+01 -1.8116681668941794e+00 0
8.1991840793042726e+01 -5.8501553442724941e-01 0
8.5623517775405546e+01 -8.4220766292932581e-01 0
8.9010416099810058e+01 -6.2878024673794641e-01 0
8.8969043574801830e+01 -8.9656041210930937e-01 0
7.2678579348319971e+01 5.6336259668123745e-01 0
7.7812926154473473e+01 -4.6681753294358685e-01 0
8.8133543541752189e+01 4.3911566156422310e-01 0
8.8955167922716029e+01 -4.3326321065460860e-01 0
5.8593701001646011e+01 3.4186546636280042e+00 0
6.6180851756369066e+01 3.3570264883079659e+00 0
8.5072165735148630e+01 2.5187742463207741e+00 0
8.6090460367108321e+01 2.4961321235458058e+00 0
3.8845018640729798e+01 -2.2963959398279052e+01 0
5.0496595301872560e+01 -1.1405810713136169e+01 0
9.7035308981870713e+01 -1.5679943980685529e+01 0
9.1767537902838214e+01 -8.0891505610314951e+00 0
-6.9226432710385026e+00 1.3139612888641770e+02 0
3.4306414704525423e-01 1.3317582469338694e+02 0
2.0297848567146922e+01 1.7488663853393653e+01 0
-7.4556795397524667e-01 1.4004175291900864e+02 0
-2.2411859860046022e+00 1.0878893946722266e+02 0
-7.2121354672079008e-01 1.2103694198349331e+02 0
9.4470562262866125e+00 9.0312469880593341e+01 0
7.3840936239930443e+01 1.1581426934667270e+01 0
-9.7810513466310312e-01 9.8092613117897912e+01 0

