# vtk DataFile Version 2.0

ASCII

DATASET UNSTRUCTURED_GRID

POINTS 79 float 

-5.0000000000000003e-02  0.0000000000000000e+00  0.0000000000000000e+00
-5.0000000000000003e-02  5.5555555555555552e-02  0.0000000000000000e+00
-5.0000000000000003e-02  2.7777777777777776e-02  0.0000000000000000e+00
5.0000000000000003e-02  0.0000000000000000e+00  0.0000000000000000e+00
5.0000000000000003e-02  5.5555555555555552e-02  0.0000000000000000e+00
5.0000000000000003e-02  2.7777777777777776e-02  0.0000000000000000e+00
-5.0000000000000003e-02  1.1111111111111110e-01  0.0000000000000000e+00
-5.0000000000000003e-02  8.3333333333333329e-02  0.0000000000000000e+00
5.0000000000000003e-02  1.1111111111111110e-01  0.0000000000000000e+00
5.0000000000000003e-02  8.3333333333333329e-02  0.0000000000000000e+00
-5.0000000000000003e-02  1.6666666666666666e-01  0.0000000000000000e+00
-5.0000000000000003e-02  1.3888888888888890e-01  0.0000000000000000e+00
5.0000000000000003e-02  1.6666666666666666e-01  0.0000000000000000e+00
5.0000000000000003e-02  1.3888888888888890e-01  0.0000000000000000e+00
-5.0000000000000003e-02  2.2222222222222221e-01  0.0000000000000000e+00
-5.0000000000000003e-02  1.9444444444444442e-01  0.0000000000000000e+00
5.0000000000000003e-02  2.2222222222222221e-01  0.0000000000000000e+00
5.0000000000000003e-02  1.9444444444444442e-01  0.0000000000000000e+00
-5.0000000000000003e-02  2.7777777777777779e-01  0.0000000000000000e+00
-5.0000000000000003e-02  2.5000000000000000e-01  0.0000000000000000e+00
5.0000000000000003e-02  2.7777777777777779e-01  0.0000000000000000e+00
5.0000000000000003e-02  2.5000000000000000e-01  0.0000000000000000e+00
-5.0000000000000003e-02  3.3333333333333331e-01  0.0000000000000000e+00
-5.0000000000000003e-02  3.0555555555555558e-01  0.0000000000000000e+00
5.0000000000000003e-02  3.3333333333333331e-01  0.0000000000000000e+00
5.0000000000000003e-02  3.0555555555555558e-01  0.0000000000000000e+00
-5.0000000000000003e-02  3.8888888888888884e-01  0.0000000000000000e+00
-5.0000000000000003e-02  3.6111111111111105e-01  0.0000000000000000e+00
5.0000000000000003e-02  3.8888888888888884e-01  0.0000000000000000e+00
5.0000000000000003e-02  3.6111111111111105e-01  0.0000000000000000e+00
-5.0000000000000003e-02  4.4444444444444442e-01  0.0000000000000000e+00
-5.0000000000000003e-02  4.1666666666666663e-01  0.0000000000000000e+00
5.0000000000000003e-02  4.4444444444444442e-01  0.0000000000000000e+00
5.0000000000000003e-02  4.1666666666666663e-01  0.0000000000000000e+00
-5.0000000000000003e-02  5.0000000000000000e-01  0.0000000000000000e+00
-5.0000000000000003e-02  4.7222222222222221e-01  0.0000000000000000e+00
5.0000000000000003e-02  5.0000000000000000e-01  0.0000000000000000e+00
5.0000000000000003e-02  4.7222222222222221e-01  0.0000000000000000e+00
-5.0000000000000003e-02  5.5555555555555558e-01  0.0000000000000000e+00
-5.0000000000000003e-02  5.2777777777777779e-01  0.0000000000000000e+00
5.0000000000000003e-02  5.5555555555555558e-01  0.0000000000000000e+00
5.0000000000000003e-02  5.2777777777777779e-01  0.0000000000000000e+00
-5.0000000000000003e-02  6.1111111111111105e-01  0.0000000000000000e+00
-5.0000000000000003e-02  5.8333333333333326e-01  0.0000000000000000e+00
5.0000000000000003e-02  6.1111111111111105e-01  0.0000000000000000e+00
5.0000000000000003e-02  5.8333333333333326e-01  0.0000000000000000e+00
-5.0000000000000003e-02  6.6666666666666663e-01  0.0000000000000000e+00
-5.0000000000000003e-02  6.3888888888888884e-01  0.0000000000000000e+00
5.0000000000000003e-02  6.6666666666666663e-01  0.0000000000000000e+00
5.0000000000000003e-02  6.3888888888888884e-01  0.0000000000000000e+00
-5.0000000000000003e-02  7.2222222222222221e-01  0.0000000000000000e+00
-5.0000000000000003e-02  6.9444444444444442e-01  0.0000000000000000e+00
5.0000000000000003e-02  7.2222222222222221e-01  0.0000000000000000e+00
5.0000000000000003e-02  6.9444444444444442e-01  0.0000000000000000e+00
-5.0000000000000003e-02  7.7777777777777768e-01  0.0000000000000000e+00
-5.0000000000000003e-02  7.5000000000000000e-01  0.0000000000000000e+00
5.0000000000000003e-02  7.7777777777777768e-01  0.0000000000000000e+00
5.0000000000000003e-02  7.5000000000000000e-01  0.0000000000000000e+00
-5.0000000000000003e-02  8.3333333333333326e-01  0.0000000000000000e+00
-5.0000000000000003e-02  8.0555555555555547e-01  0.0000000000000000e+00
5.0000000000000003e-02  8.3333333333333326e-01  0.0000000000000000e+00
5.0000000000000003e-02  8.0555555555555547e-01  0.0000000000000000e+00
-5.0000000000000003e-02  8.8888888888888884e-01  0.0000000000000000e+00
-5.0000000000000003e-02  8.6111111111111105e-01  0.0000000000000000e+00
5.0000000000000003e-02  8.8888888888888884e-01  0.0000000000000000e+00
5.0000000000000003e-02  8.6111111111111105e-01  0.0000000000000000e+00
-5.0000000000000003e-02  9.4444444444444442e-01  0.0000000000000000e+00
-5.0000000000000003e-02  9.1666666666666663e-01  0.0000000000000000e+00
5.0000000000000003e-02  9.4444444444444442e-01  0.0000000000000000e+00
5.0000000000000003e-02  9.1666666666666663e-01  0.0000000000000000e+00
-5.0000000000000003e-02  1.0000000000000000e+00  0.0000000000000000e+00
-1.6666666666666670e-02  1.0000000000000000e+00  0.0000000000000000e+00
-5.0000000000000003e-02  9.7222222222222221e-01  0.0000000000000000e+00
-3.3333333333333340e-02  1.0000000000000000e+00  0.0000000000000000e+00
1.6666666666666663e-02  1.0000000000000000e+00  0.0000000000000000e+00
-3.4694469519536142e-18  1.0000000000000000e+00  0.0000000000000000e+00
5.0000000000000003e-02  1.0000000000000000e+00  0.0000000000000000e+00
5.0000000000000003e-02  9.7222222222222221e-01  0.0000000000000000e+00
3.3333333333333333e-02  1.0000000000000000e+00  0.0000000000000000e+00

CELLS 0 0


CELL_TYPES 0


POINT_DATA 79

VECTORS VertexNormals float

0.0000000000000000e+00 0.0000000000000000e+00 0
0.0000000000000000e+00 0.0000000000000000e+00 0
0.0000000000000000e+00 0.0000000000000000e+00 0
0.0000000000000000e+00 0.0000000000000000e+00 0
0.0000000000000000e+00 0.0000000000000000e+00 0
0.0000000000000000e+00 0.0000000000000000e+00 0
0.0000000000000000e+00 0.0000000000000000e+00 0
0.0000000000000000e+00 0.0000000000000000e+00 0
0.0000000000000000e+00 0.0000000000000000e+00 0
0.0000000000000000e+00 0.0000000000000000e+00 0
0.0000000000000000e+00 0.0000000000000000e+00 0
0.0000000000000000e+00 0.0000000000000000e+00 0
0.0000000000000000e+00 0.0000000000000000e+00 0
0.0000000000000000e+00 0.0000000000000000e+00 0
0.0000000000000000e+00 0.0000000000000000e+00 0
0.0000000000000000e+00 0.0000000000000000e+00 0
0.0000000000000000e+00 0.0000000000000000e+00 0
0.0000000000000000e+00 0.0000000000000000e+00 0
0.0000000000000000e+00 0.0000000000000000e+00 0
0.0000000000000000e+00 0.0000000000000000e+00 0
0.0000000000000000e+00 0.0000000000000000e+00 0
0.0000000000000000e+00 0.0000000000000000e+00 0
0.0000000000000000e+00 0.0000000000000000e+00 0
0.0000000000000000e+00 0.0000000000000000e+00 0
0.0000000000000000e+00 0.0000000000000000e+00 0
0.0000000000000000e+00 0.0000000000000000e+00 0
0.0000000000000000e+00 0.0000000000000000e+00 0
0.0000000000000000e+00 0.0000000000000000e+00 0
0.0000000000000000e+00 0.0000000000000000e+00 0
0.0000000000000000e+00 0.0000000000000000e+00 0
0.0000000000000000e+00 0.0000000000000000e+00 0
0.0000000000000000e+00 0.0000000000000000e+00 0
0.0000000000000000e+00 0.0000000000000000e+00 0
0.0000000000000000e+00 0.0000000000000000e+00 0
0.0000000000000000e+00 0.0000000000000000e+00 0
0.0000000000000000e+00 0.0000000000000000e+00 0
0.0000000000000000e+00 0.0000000000000000e+00 0
0.0000000000000000e+00 0.0000000000000000e+00 0
0.0000000000000000e+00 0.0000000000000000e+00 0
0.0000000000000000e+00 0.0000000000000000e+00 0
0.0000000000000000e+00 0.0000000000000000e+00 0
0.0000000000000000e+00 0.0000000000000000e+00 0
0.0000000000000000e+00 0.0000000000000000e+00 0
0.0000000000000000e+00 0.0000000000000000e+00 0
0.0000000000000000e+00 0.0000000000000000e+00 0
0.0000000000000000e+00 0.0000000000000000e+00 0
0.0000000000000000e+00 0.0000000000000000e+00 0
0.0000000000000000e+00 0.0000000000000000e+00 0
0.0000000000000000e+00 0.0000000000000000e+00 0
0.0000000000000000e+00 0.0000000000000000e+00 0
0.0000000000000000e+00 0.0000000000000000e+00 0
0.0000000000000000e+00 0.0000000000000000e+00 0
0.0000000000000000e+00 0.0000000000000000e+00 0
0.0000000000000000e+00 0.0000000000000000e+00 0
0.0000000000000000e+00 0.0000000000000000e+00 0
0.0000000000000000e+00 0.0000000000000000e+00 0
0.0000000000000000e+00 0.0000000000000000e+00 0
0.0000000000000000e+00 0.0000000000000000e+00 0
0.0000000000000000e+00 0.0000000000000000e+00 0
0.0000000000000000e+00 0.0000000000000000e+00 0
0.0000000000000000e+00 0.0000000000000000e+00 0
0.0000000000000000e+00 0.0000000000000000e+00 0
0.0000000000000000e+00 0.0000000000000000e+00 0
0.0000000000000000e+00 0.0000000000000000e+00 0
0.0000000000000000e+00 0.0000000000000000e+00 0
0.0000000000000000e+00 0.0000000000000000e+00 0
0.0000000000000000e+00 0.0000000000000000e+00 0
0.0000000000000000e+00 0.0000000000000000e+00 0
0.0000000000000000e+00 0.0000000000000000e+00 0
0.0000000000000000e+00 0.0000000000000000e+00 0
0.0000000000000000e+00 0.0000000000000000e+00 0
0.0000000000000000e+00 0.0000000000000000e+00 0
0.0000000000000000e+00 0.0000000000000000e+00 0
0.0000000000000000e+00 0.0000000000000000e+00 0
0.0000000000000000e+00 0.0000000000000000e+00 0
0.0000000000000000e+00 0.0000000000000000e+00 0
0.0000000000000000e+00 0.0000000000000000e+00 0
0.0000000000000000e+00 0.0000000000000000e+00 0
0.0000000000000000e+00 0.0000000000000000e+00 0

VECTORS Displacement float
0.0000000000000000e+00 0.0000000000000000e+00 0
1.5802226164468047e-03 1.6446740345876687e-03 0
7.2064400075184433e-04 9.1086880859076738e-04 0
0.0000000000000000e+00 0.0000000000000000e+00 0
1.5604796715993161e-03 -1.6802998433888159e-03 0
6.7477487918953102e-04 -9.1924552646036560e-04 0
4.4660898335256351e-03 2.8952628730974411e-03 0
2.8211651537241285e-03 2.3082143851981115e-03 0
4.4701719900148602e-03 -2.8523359674511597e-03 0
2.8459853654373749e-03 -2.3193770703032260e-03 0
8.4158012950299784e-03 3.6845125014372529e-03 0
6.3800430043262826e-03 3.3358381977430717e-03 0
8.3697101197624264e-03 -3.5856899713719455e-03 0
6.3179600992941233e-03 -3.2630483023289086e-03 0
1.2935899746118282e-02 4.1658496819235577e-03 0
1.0594542699297299e-02 3.9671776230063571e-03 0
1.2963190008376464e-02 -3.8994566793703177e-03 0
1.0631749207038865e-02 -3.7885507772966740e-03 0
1.7707338155860126e-02 4.2681744135896239e-03 0
1.5327448976133733e-02 4.2532150446506732e-03 0
1.7692077000350005e-02 -3.9943421738652032e-03 0
1.5300872310656494e-02 -3.9682216459778277e-03 0
2.2362190311364914e-02 4.1153950704060907e-03 0
2.0064371747705520e-02 4.2155055966576014e-03 0
2.2397348639039805e-02 -3.8259244462666769e-03 0
2.0085183528362114e-02 -3.9348948176378858e-03 0
2.6781446893322326e-02 3.7709204138068123e-03 0
2.4613330367925068e-02 3.9733403766008084e-03 0
2.6811053757909830e-02 -3.4819622013949102e-03 0
2.4647988721383865e-02 -3.6833024830802055e-03 0
3.0589342664042989e-02 3.2321133733809954e-03 0
2.8779623369926587e-02 3.5077442967589604e-03 0
3.0597411007781974e-02 -2.9389886719274924e-03 0
2.8798620036002982e-02 -3.2182119770915911e-03 0
3.3739063106436172e-02 2.6429463111501891e-03 0
3.2247080735849677e-02 2.9506825170905384e-03 0
3.3741265556971670e-02 -2.3333828237254951e-03 0
3.2249466482579411e-02 -2.6504633730758389e-03 0
3.6103183054763704e-02 1.9899364003211832e-03 0
3.5023992412957221e-02 2.3123684844060678e-03 0
3.6117917569460936e-02 -1.6713244871493123e-03 0
3.5031852391939400e-02 -1.9952331223923045e-03 0
3.7809421069934908e-02 1.3893933092125840e-03 0
3.7021438495192481e-02 1.6918207967321285e-03 0
3.7830648125743466e-02 -1.0808088771132966e-03 0
3.7040669688297813e-02 -1.3778561202839790e-03 0
3.8861753498129294e-02 6.5488985247302302e-04 0
3.8443669468738229e-02 1.0442722341437647e-03 0
3.8878617843851798e-02 -3.3262099700903880e-04 0
3.8463528442212735e-02 -7.3338122921184955e-04 0
3.8933199335145829e-02 -1.8445202177210429e-04 0
3.9016824804075173e-02 2.3863231699112523e-04 0
3.8943494095576230e-02 4.9567305051799373e-04 0
3.9031663810683001e-02 9.0621120423832837e-05 0
3.8098746110948989e-02 -1.1129578039920617e-03 0
3.8646587764184406e-02 -6.3300175718356781e-04 0
3.8109321476163645e-02 1.3279804683933225e-03 0
3.8651977609572688e-02 8.9653321481043965e-04 0
3.6007691851599952e-02 -1.9817536409406514e-03 0
3.7217748737145596e-02 -1.5849992625524873e-03 0
3.6076761047760857e-02 2.2069162491490414e-03 0
3.7252943373037348e-02 1.7871767515644445e-03 0
3.3072517537791134e-02 -2.3837595893381283e-03 0
3.4580220177640827e-02 -2.2443194054753788e-03 0
3.3033816681700273e-02 2.5930606488451954e-03 0
3.4627783679784099e-02 2.4880617979988625e-03 0
3.0105782909375316e-02 -2.3515950479396511e-03 0
3.1557045465641323e-02 -2.4028205874710427e-03 0
3.0116389441460438e-02 2.4096970420329758e-03 0
3.1502699712021041e-02 2.5247638113419226e-03 0
2.7542470216889384e-02 -2.2165584896546553e-03 0
2.7506666715339273e-02 -7.3111908705805891e-04 0
2.8778650408049840e-02 -2.2695843479115449e-03 0
2.7524645656572474e-02 -1.4842208010737482e-03 0
2.7527193928216603e-02 7.6903908163926274e-04 0
2.7510027752105481e-02 2.0989745760940915e-05 0
2.7565663888981948e-02 2.3016829688611686e-03 0
2.8824617968327630e-02 2.3339226685811223e-03 0
2.7549924963692057e-02 1.5387394908214303e-03 0

VECTORS Stress float
1.3085106094267442e+02 -4.0123967127867139e+01 0
1.0684699377654636e+02 2.2509590482987862e+00 0
1.1265943039224094e+02 -7.1999441032315614e+00 0
1.0855446956429401e+02 -3.8995527698088431e+01 0
8.2837683023473886e+01 2.9477483485799487e+00 0
8.9035974093062578e+01 -6.6004276156025332e+00 0
1.1081540956935756e+02 -7.6481665426821372e+00 0
1.0853690336028160e+02 -2.2289265210095799e+00 0
8.6900534727044914e+01 -6.3046508010602693e+00 0
8.4516909733991184e+01 -1.1582223304216717e+00 0
1.1000039617485007e+02 -8.2300756541968099e+00 0
1.1060713226649023e+02 -8.3955471525772332e+00 0
8.6578209364084387e+01 -6.7279902585397018e+00 0
8.6936932314226951e+01 -6.9616854517377114e+00 0
1.0926737348611078e+02 -9.0873125040627478e+00 0
1.0953405691687838e+02 -8.5643398154658819e+00 0
8.7180054651202653e+01 -7.2173837657331248e+00 0
8.6761574463051886e+01 -6.8714402513310162e+00 0
1.0838039002077690e+02 -9.1764943932209562e+00 0
1.0887651698743177e+02 -9.2918248374943957e+00 0
8.8367256684740369e+01 -7.4683555064672795e+00 0
8.7735538783902285e+01 -7.4276758481715994e+00 0
1.0721067236348685e+02 -8.7474099046471423e+00 0
1.0787313317620232e+02 -8.9832465883127099e+00 0
9.0046948576257307e+01 -7.2908318024599339e+00 0
8.9100625662646706e+01 -7.4343134906688029e+00 0
1.0583369859992291e+02 -7.8677834289446622e+00 0
1.0658302118879550e+02 -8.4182588756093040e+00 0
9.2296599983833730e+01 -6.6799638381565103e+00 0
9.1066956298861996e+01 -7.0644117903812145e+00 0
1.0420012005539186e+02 -6.4619761501457873e+00 0
1.0505352812898147e+02 -7.1758715576148795e+00 0
9.5008074751793544e+01 -5.7011542552088272e+00 0
9.3611654284349981e+01 -6.1982476780464815e+00 0
1.0217907424758978e+02 -5.0282231715412067e+00 0
1.0321515163820943e+02 -5.7606273709812186e+00 0
9.7964669837939240e+01 -4.6818440050656918e+00 0
9.6494493882484093e+01 -5.2091443408539462e+00 0
9.9718052155423365e+01 -3.5254289156653940e+00 0
1.0099905919313916e+02 -4.2827564220054981e+00 0
1.0096899758878051e+02 -3.4724523377971295e+00 0
9.9501074267279151e+01 -4.0893917568333151e+00 0
9.6714058181558897e+01 -2.3177069252018256e+00 0
9.8294947847735386e+01 -2.8951414235284219e+00 0
1.0367760402420836e+02 -2.4038786256423421e+00 0
1.0237221742648688e+02 -2.9317696144146481e+00 0
9.3176392665369349e+01 -8.6554531954330827e-01 0
9.5006010042229661e+01 -1.6452191781855490e+00 0
1.0596424711033512e+02 -9.1915920451885569e-01 0
1.0486631427051356e+02 -1.7496832419075545e+00 0
8.8797558226868006e+01 8.5199100348567924e-01 0
9.1107767213071810e+01 4.0619394306787626e-02 0
1.0744828064532317e+02 9.4829132025751051e-01 0
1.0683690271466077e+02 4.7653994810012534e-02 0
8.3024774262400797e+01 2.1602514293975261e+00 0
8.6110915936993791e+01 1.6506746386571365e+00 0
1.0794262722695362e+02 2.7150730710866426e+00 0
1.0776038275110517e+02 1.8811859316665434e+00 0
7.4599661117447852e+01 3.8210899232963840e+00 0
7.9364668882127020e+01 2.4907726248910080e+00 0
1.0674420633975230e+02 5.1510011315087354e+00 0
1.0786674565165107e+02 3.5531258144526774e+00 0
6.0669562955199353e+01 7.0167532795155623e+00 0
6.8272497198890477e+01 7.1013849688524857e+00 0
1.0225206469555290e+02 8.2980371046145009e+00 0
1.0396086951400893e+02 8.0024783967414947e+00 0
3.9906749651026537e+01 -2.4837836752933555e+01 0
5.2501148424938577e+01 -1.0627370876706507e+01 0
1.1530809347761604e+02 -1.3455829449478657e+01 0
1.0971817860381240e+02 -4.0973113283780549e+00 0
-1.5389875259099234e+01 1.5163221110803170e+02 0
-5.2899569993321407e+00 1.5634803016330704e+02 0
1.8204484276897254e+01 2.0902409522152340e+01 0
-7.0084091295653508e+00 1.6270731683777154e+02 0
-7.6560274099991830e+00 1.2882842478516096e+02 0
-6.3139593865715327e+00 1.4344084487130559e+02 0
8.5219356445275523e+00 1.0623543879126984e+02 0
8.6559370322835804e+01 1.6911383215991343e+01 0
-5.3364965505555091e+00 1.1556519666445902e+02 0

