# vtk DataFile Version 2.0

ASCII

DATASET UNSTRUCTURED_GRID

POINTS 79 float 

-5.0000000000000003e-02  0.0000000000000000e+00  0.0000000000000000e+00
-5.0000000000000003e-02  5.5555555555555552e-02  0.0000000000000000e+00
-5.0000000000000003e-02  2.7777777777777776e-02  0.0000000000000000e+00
5.0000000000000003e-02  0.0000000000000000e+00  0.0000000000000000e+00
5.0000000000000003e-02  5.5555555555555552e-02  0.0000000000000000e+00
5.0000000000000003e-02  2.7777777777777776e-02  0.0000000000000000e+00
-5.0000000000000003e-02  1.1111111111111110e-01  0.0000000000000000e+00
-5.0000000000000003e-02  8.3333333333333329e-02  0.0000000000000000e+00
5.0000000000000003e-02  1.1111111111111110e-01  0.0000000000000000e+00
5.0000000000000003e-02  8.3333333333333329e-02  0.0000000000000000e+00
-5.0000000000000003e-02  1.6666666666666666e-01  0.0000000000000000e+00
-5.0000000000000003e-02  1.3888888888888890e-01  0.0000000000000000e+00
5.0000000000000003e-02  1.6666666666666666e-01  0.0000000000000000e+00
5.0000000000000003e-02  1.3888888888888890e-01  0.0000000000000000e+00
-5.0000000000000003e-02  2.2222222222222221e-01  0.0000000000000000e+00
-5.0000000000000003e-02  1.9444444444444442e-01  0.0000000000000000e+00
5.0000000000000003e-02  2.2222222222222221e-01  0.0000000000000000e+00
5.0000000000000003e-02  1.9444444444444442e-01  0.0000000000000000e+00
-5.0000000000000003e-02  2.7777777777777779e-01  0.0000000000000000e+00
-5.0000000000000003e-02  2.5000000000000000e-01  0.0000000000000000e+00
5.0000000000000003e-02  2.7777777777777779e-01  0.0000000000000000e+00
5.0000000000000003e-02  2.5000000000000000e-01  0.0000000000000000e+00
-5.0000000000000003e-02  3.3333333333333331e-01  0.0000000000000000e+00
-5.0000000000000003e-02  3.0555555555555558e-01  0.0000000000000000e+00
5.0000000000000003e-02  3.3333333333333331e-01  0.0000000000000000e+00
5.0000000000000003e-02  3.0555555555555558e-01  0.0000000000000000e+00
-5.0000000000000003e-02  3.8888888888888884e-01  0.0000000000000000e+00
-5.0000000000000003e-02  3.6111111111111105e-01  0.0000000000000000e+00
5.0000000000000003e-02  3.8888888888888884e-01  0.0000000000000000e+00
5.0000000000000003e-02  3.6111111111111105e-01  0.0000000000000000e+00
-5.0000000000000003e-02  4.4444444444444442e-01  0.0000000000000000e+00
-5.0000000000000003e-02  4.1666666666666663e-01  0.0000000000000000e+00
5.0000000000000003e-02  4.4444444444444442e-01  0.0000000000000000e+00
5.0000000000000003e-02  4.1666666666666663e-01  0.0000000000000000e+00
-5.0000000000000003e-02  5.0000000000000000e-01  0.0000000000000000e+00
-5.0000000000000003e-02  4.7222222222222221e-01  0.0000000000000000e+00
5.0000000000000003e-02  5.0000000000000000e-01  0.0000000000000000e+00
5.0000000000000003e-02  4.7222222222222221e-01  0.0000000000000000e+00
-5.0000000000000003e-02  5.5555555555555558e-01  0.0000000000000000e+00
-5.0000000000000003e-02  5.2777777777777779e-01  0.0000000000000000e+00
5.0000000000000003e-02  5.5555555555555558e-01  0.0000000000000000e+00
5.0000000000000003e-02  5.2777777777777779e-01  0.0000000000000000e+00
-5.0000000000000003e-02  6.1111111111111105e-01  0.0000000000000000e+00
-5.0000000000000003e-02  5.8333333333333326e-01  0.0000000000000000e+00
5.0000000000000003e-02  6.1111111111111105e-01  0.0000000000000000e+00
5.0000000000000003e-02  5.8333333333333326e-01  0.0000000000000000e+00
-5.0000000000000003e-02  6.6666666666666663e-01  0.0000000000000000e+00
-5.0000000000000003e-02  6.3888888888888884e-01  0.0000000000000000e+00
5.0000000000000003e-02  6.6666666666666663e-01  0.0000000000000000e+00
5.0000000000000003e-02  6.3888888888888884e-01  0.0000000000000000e+00
-5.0000000000000003e-02  7.2222222222222221e-01  0.0000000000000000e+00
-5.0000000000000003e-02  6.9444444444444442e-01  0.0000000000000000e+00
5.0000000000000003e-02  7.2222222222222221e-01  0.0000000000000000e+00
5.0000000000000003e-02  6.9444444444444442e-01  0.0000000000000000e+00
-5.0000000000000003e-02  7.7777777777777768e-01  0.0000000000000000e+00
-5.0000000000000003e-02  7.5000000000000000e-01  0.0000000000000000e+00
5.0000000000000003e-02  7.7777777777777768e-01  0.0000000000000000e+00
5.0000000000000003e-02  7.5000000000000000e-01  0.0000000000000000e+00
-5.0000000000000003e-02  8.3333333333333326e-01  0.0000000000000000e+00
-5.0000000000000003e-02  8.0555555555555547e-01  0.0000000000000000e+00
5.0000000000000003e-02  8.3333333333333326e-01  0.0000000000000000e+00
5.0000000000000003e-02  8.0555555555555547e-01  0.0000000000000000e+00
-5.0000000000000003e-02  8.8888888888888884e-01  0.0000000000000000e+00
-5.0000000000000003e-02  8.6111111111111105e-01  0.0000000000000000e+00
5.0000000000000003e-02  8.8888888888888884e-01  0.0000000000000000e+00
5.0000000000000003e-02  8.6111111111111105e-01  0.0000000000000000e+00
-5.0000000000000003e-02  9.4444444444444442e-01  0.0000000000000000e+00
-5.0000000000000003e-02  9.1666666666666663e-01  0.0000000000000000e+00
5.0000000000000003e-02  9.4444444444444442e-01  0.0000000000000000e+00
5.0000000000000003e-02  9.1666666666666663e-01  0.0000000000000000e+00
-5.0000000000000003e-02  1.0000000000000000e+00  0.0000000000000000e+00
-1.6666666666666670e-02  1.0000000000000000e+00  0.0000000000000000e+00
-5.0000000000000003e-02  9.7222222222222221e-01  0.0000000000000000e+00
-3.3333333333333340e-02  1.0000000000000000e+00  0.0000000000000000e+00
1.6666666666666663e-02  1.0000000000000000e+00  0.0000000000000000e+00
-3.4694469519536142e-18  1.0000000000000000e+00  0.0000000000000000e+00
5.0000000000000003e-02  1.0000000000000000e+00  0.0000000000000000e+00
5.0000000000000003e-02  9.7222222222222221e-01  0.0000000000000000e+00
3.3333333333333333e-02  1.0000000000000000e+00  0.0000000000000000e+00

CELLS 0 0


CELL_TYPES 0


POINT_DATA 79

VECTORS VertexNormals float

0.0000000000000000e+00 0.0000000000000000e+00 0
0.0000000000000000e+00 0.0000000000000000e+00 0
0.0000000000000000e+00 0.0000000000000000e+00 0
0.0000000000000000e+00 0.0000000000000000e+00 0
0.0000000000000000e+00 0.0000000000000000e+00 0
0.0000000000000000e+00 0.0000000000000000e+00 0
0.0000000000000000e+00 0.0000000000000000e+00 0
0.0000000000000000e+00 0.0000000000000000e+00 0
0.0000000000000000e+00 0.0000000000000000e+00 0
0.0000000000000000e+00 0.0000000000000000e+00 0
0.0000000000000000e+00 0.0000000000000000e+00 0
0.0000000000000000e+00 0.0000000000000000e+00 0
0.0000000000000000e+00 0.0000000000000000e+00 0
0.0000000000000000e+00 0.0000000000000000e+00 0
0.0000000000000000e+00 0.0000000000000000e+00 0
0.0000000000000000e+00 0.0000000000000000e+00 0
0.0000000000000000e+00 0.0000000000000000e+00 0
0.0000000000000000e+00 0.0000000000000000e+00 0
0.0000000000000000e+00 0.0000000000000000e+00 0
0.0000000000000000e+00 0.0000000000000000e+00 0
0.0000000000000000e+00 0.0000000000000000e+00 0
0.0000000000000000e+00 0.0000000000000000e+00 0
0.0000000000000000e+00 0.0000000000000000e+00 0
0.0000000000000000e+00 0.0000000000000000e+00 0
0.0000000000000000e+00 0.0000000000000000e+00 0
0.0000000000000000e+00 0.0000000000000000e+00 0
0.0000000000000000e+00 0.0000000000000000e+00 0
0.0000000000000000e+00 0.0000000000000000e+00 0
0.0000000000000000e+00 0.0000000000000000e+00 0
0.0000000000000000e+00 0.0000000000000000e+00 0
0.0000000000000000e+00 0.0000000000000000e+00 0
0.0000000000000000e+00 0.0000000000000000e+00 0
0.0000000000000000e+00 0.0000000000000000e+00 0
0.0000000000000000e+00 0.0000000000000000e+00 0
0.0000000000000000e+00 0.0000000000000000e+00 0
0.0000000000000000e+00 0.0000000000000000e+00 0
0.0000000000000000e+00 0.0000000000000000e+00 0
0.0000000000000000e+00 0.0000000000000000e+00 0
0.0000000000000000e+00 0.0000000000000000e+00 0
0.0000000000000000e+00 0.0000000000000000e+00 0
0.0000000000000000e+00 0.0000000000000000e+00 0
0.0000000000000000e+00 0.0000000000000000e+00 0
0.0000000000000000e+00 0.0000000000000000e+00 0
0.0000000000000000e+00 0.0000000000000000e+00 0
0.0000000000000000e+00 0.0000000000000000e+00 0
0.0000000000000000e+00 0.0000000000000000e+00 0
0.0000000000000000e+00 0.0000000000000000e+00 0
0.0000000000000000e+00 0.0000000000000000e+00 0
0.0000000000000000e+00 0.0000000000000000e+00 0
0.0000000000000000e+00 0.0000000000000000e+00 0
0.0000000000000000e+00 0.0000000000000000e+00 0
0.0000000000000000e+00 0.0000000000000000e+00 0
0.0000000000000000e+00 0.0000000000000000e+00 0
0.0000000000000000e+00 0.0000000000000000e+00 0
0.0000000000000000e+00 0.0000000000000000e+00 0
0.0000000000000000e+00 0.0000000000000000e+00 0
0.0000000000000000e+00 0.0000000000000000e+00 0
0.0000000000000000e+00 0.0000000000000000e+00 0
0.0000000000000000e+00 0.0000000000000000e+00 0
0.0000000000000000e+00 0.0000000000000000e+00 0
0.0000000000000000e+00 0.0000000000000000e+00 0
0.0000000000000000e+00 0.0000000000000000e+00 0
0.0000000000000000e+00 0.0000000000000000e+00 0
0.0000000000000000e+00 0.0000000000000000e+00 0
0.0000000000000000e+00 0.0000000000000000e+00 0
0.0000000000000000e+00 0.0000000000000000e+00 0
0.0000000000000000e+00 0.0000000000000000e+00 0
0.0000000000000000e+00 0.0000000000000000e+00 0
0.0000000000000000e+00 0.0000000000000000e+00 0
0.0000000000000000e+00 0.0000000000000000e+00 0
0.0000000000000000e+00 0.0000000000000000e+00 0
0.0000000000000000e+00 0.0000000000000000e+00 0
0.0000000000000000e+00 0.0000000000000000e+00 0
0.0000000000000000e+00 0.0000000000000000e+00 0
0.0000000000000000e+00 0.0000000000000000e+00 0
0.0000000000000000e+00 0.0000000000000000e+00 0
0.0000000000000000e+00 0.0000000000000000e+00 0
0.0000000000000000e+00 0.0000000000000000e+00 0
0.0000000000000000e+00 0.0000000000000000e+00 0

VECTORS Displacement float
0.0000000000000000e+00 0.0000000000000000e+00 0
2.1079372661141254e-03 2.7542416993760256e-03 0
9.1497905628457152e-04 1.4020978327189317e-03 0
0.0000000000000000e+00 0.0000000000000000e+00 0
2.0367926432226322e-03 -2.8691833418133363e-03 0
8.4690278344709720e-04 -1.4455951141544958e-03 0
6.6842927690751912e-03 5.6160797957784878e-03 0
4.0047512634670528e-03 4.1780549173590139e-03 0
6.7743594055877567e-03 -5.7003496478161518e-03 0
4.0380649743399144e-03 -4.3050538246380519e-03 0
1.4641330643007090e-02 8.3732708819490038e-03 0
1.0288985840610328e-02 7.0259392924868335e-03 0
1.4554978546494696e-02 -8.4927663457140933e-03 0
1.0279432444471163e-02 -7.0964302828265356e-03 0
2.5467820710306663e-02 1.1008030453278934e-02 0
1.9666144184603690e-02 9.6972926438386904e-03 0
2.5561754682084117e-02 -1.1158481643747588e-02 0
1.9669601554980293e-02 -9.8641480889266435e-03 0
3.9381804053282080e-02 1.3555470092805989e-02 0
3.2058777896302376e-02 1.2290005710976406e-02 0
3.9327670954769300e-02 -1.3724960516636346e-02 0
3.2103374867714654e-02 -1.2417825934251898e-02 0
5.6106388861784595e-02 1.5930703724352849e-02 0
4.7418348167701199e-02 1.4776572155312702e-02 0
5.6205738880582445e-02 -1.6225511610245665e-02 0
4.7394391724084751e-02 -1.5032602298537185e-02 0
7.5424663259605174e-02 1.8045598187454999e-02 0
6.5441964909882896e-02 1.7020340299183201e-02 0
7.5443466645502999e-02 -1.8242074903054902e-02 0
6.5567188896814774e-02 -1.7260711632031217e-02 0
9.6741818376186450e-02 1.9906662255085153e-02 0
8.5846984282742705e-02 1.8990396669842265e-02 0
9.6782999228245931e-02 -2.0125174482408054e-02 0
8.5819558572154203e-02 -1.9207797445228686e-02 0
1.2011429676135413e-01 2.1573789054945596e-02 0
1.0819680026439737e-01 2.0774796265296016e-02 0
1.2011572398377851e-01 -2.1713440786390488e-02 0
1.0827200220259800e-01 -2.0942727017627068e-02 0
1.4522768811890491e-01 2.2946360302413035e-02 0
1.3248185816070762e-01 2.2293880345381534e-02 0
1.4520608605632956e-01 -2.3200193461742256e-02 0
1.3239511580994748e-01 -2.2492704802928018e-02 0
1.7166719166951760e-01 2.4102767510784703e-02 0
1.5827211951256426e-01 2.3553843698221125e-02 0
1.7173940714038696e-01 -2.4162473859815424e-02 0
1.5836895899275996e-01 -2.3732969706753690e-02 0
1.9916339621283974e-01 2.4851349543240836e-02 0
1.8536449997822924e-01 2.4519816309166827e-02 0
1.9910104664356598e-01 -2.4888302590535216e-02 0
1.8532338122185521e-01 -2.4546275205539293e-02 0
2.2708965331144326e-01 2.5512679063615189e-02 0
2.1303066656759292e-01 2.5175841293202529e-02 0
2.2711523740040329e-01 -2.5503284084154147e-02 0
2.1305262720027074e-01 -2.5190840043164287e-02 0
2.5581920260320612e-01 2.6163626253478036e-02 0
2.4135961333395473e-01 2.5845018167660948e-02 0
2.5577739538127742e-01 -2.6266122467205902e-02 0
2.4130937304020117e-01 -2.5874122528442376e-02 0
2.8535552060379632e-01 2.6785148956973454e-02 0
2.7047576375617155e-01 2.6487020329168491e-02 0
2.8545701685483454e-01 -2.6832021218126417e-02 0
2.7053780194817684e-01 -2.6593171295469675e-02 0
3.1555223502085095e-01 2.7132123155556468e-02 0
3.0042250172653173e-01 2.6997920862937046e-02 0
3.1544800542263240e-01 -2.7185789477859032e-02 0
3.0041254590466104e-01 -2.7007669065206699e-02 0
3.4585411121442466e-01 2.7299536935525434e-02 0
3.3067659160947410e-01 2.7226505026827150e-02 0
3.4586759960413260e-01 -2.7452904988463010e-02 0
3.3063120258469025e-01 -2.7344392263841548e-02 0
3.7632943883950343e-01 2.7327270293044291e-02 0
3.7634218567403926e-01 9.0647572666080426e-03 0
3.6109748038847400e-01 2.7330049472992009e-02 0
3.7633329038490460e-01 1.8200337875858966e-02 0
3.7634948459235856e-01 -9.2642467000071237e-03 0
3.7635104920218471e-01 -9.4788643635350801e-05 0
3.7634028756923549e-01 -2.7565894284057438e-02 0
3.6110290370950576e-01 -2.7531853321831161e-02 0
3.7634260082738269e-01 -1.8418778097824912e-02 0

VECTORS Stress float
2.1295922223931143e+02 -4.3606220893753118e+00 0
2.0227634673447037e+02 -1.1917484460257592e+01 0
2.0498797180981398e+02 -7.4404317333529884e+00 0
-7.9978884632603808e+01 1.3412365439077075e+01 0
-9.1534335439502755e+01 4.0668197583419685e+00 0
-8.8843043090625642e+01 4.8329467133910660e+00 0
2.0343925305927485e+02 -2.1639364338562508e+01 0
2.0279723861907817e+02 -1.6696009997836615e+01 0
-8.9433182803365213e+01 1.0890108960734599e+01 0
-9.0653307931148262e+01 7.3441412943406412e+00 0
2.0169191800796457e+02 -3.2453471868268799e+01 0
2.0274514088750880e+02 -2.7135749417286306e+01 0
-8.9261806593300292e+01 1.5887501653266543e+01 0
-8.9219449104706882e+01 1.3578363165580530e+01 0
1.9866492923440427e+02 -4.2353458866887088e+01 0
2.0025297676481338e+02 -3.7561491245524039e+01 0
-8.8650614251513062e+01 2.0709167962303827e+01 0
-8.8966564589697896e+01 1.8309742470817032e+01 0
1.9422704211295505e+02 -5.1195246624711821e+01 0
1.9663332681649126e+02 -4.6890242258185353e+01 0
-8.7719376637624947e+01 2.5524913494295284e+01 0
-8.8207001138875256e+01 2.3126179284986431e+01 0
1.8859084289847726e+02 -5.8740120246402469e+01 0
1.9159075502997641e+02 -5.5182531374615621e+01 0
-8.6814018720324881e+01 2.9411854966588336e+01 0
-8.7293796513802633e+01 2.7685080809606632e+01 0
1.8240720598133669e+02 -6.4393395961797836e+01 0
1.8553290081824667e+02 -6.1933979542451247e+01 0
-8.5824945557543217e+01 3.2539445903627012e+01 0
-8.6383599876721348e+01 3.1049099729231713e+01 0
1.7597771955217408e+02 -6.8361957247633981e+01 0
1.7925740089156122e+02 -6.6456266433829029e+01 0
-8.4619220142146204e+01 3.5264393914519083e+01 0
-8.5232478959541652e+01 3.3990870533064189e+01 0
1.6909507374719306e+02 -7.1720007245263389e+01 0
1.7252736373050357e+02 -7.0140914277112643e+01 0
-8.3260066134914041e+01 3.7311446601859302e+01 0
-8.3952945145315212e+01 3.6294455744320182e+01 0
1.6244832828826819e+02 -7.3440858666014449e+01 0
1.6574830616622123e+02 -7.2682849455810384e+01 0
-8.1596954290504755e+01 3.8978391755801212e+01 0
-8.2449025974056212e+01 3.8168642063283450e+01 0
1.5589942460595944e+02 -7.4278476732368063e+01 0
1.5915863684048253e+02 -7.3961568982043289e+01 0
-7.9903674944930486e+01 3.9487116532073500e+01 0
-8.0757319232508820e+01 3.9385212576393613e+01 0
1.4999740767079450e+02 -7.3620014171935978e+01 0
1.5280558908085803e+02 -7.4268414729803197e+01 0
-7.7943110442962521e+01 3.9377955383268542e+01 0
-7.8973422920627968e+01 3.9513761650556603e+01 0
1.4401857384948877e+02 -7.2129513735829903e+01 0
1.4714330592659070e+02 -7.2864106325082446e+01 0
-7.5591408222674460e+01 3.9190244169788066e+01 0
-7.6826175312999496e+01 3.9294213523971436e+01 0
1.3707740576889969e+02 -7.0695876675196075e+01 0
1.4061586577770629e+02 -7.1453864871109616e+01 0
-7.3015202269677957e+01 3.9058217619641411e+01 0
-7.4307217248911826e+01 3.9111193811699181e+01 0
1.2884847206889114e+02 -6.8437557590301068e+01 0
1.3332821330118577e+02 -6.9729934772766285e+01 0
-7.0423990217904645e+01 3.8360989274074065e+01 0
-7.1725416430329389e+01 3.8924986223428540e+01 0
1.1836714884535556e+02 -6.4066225884749642e+01 0
1.2320440232944171e+02 -6.6245592117424366e+01 0
-6.7714402114874900e+01 3.6054875820765268e+01 0
-6.9065351271476430e+01 3.6655043694841105e+01 0
1.2048347981046044e+02 -6.3138196619620189e+01 0
1.2034391225315372e+02 -6.3744115414632859e+01 0
-6.6823577561915329e+01 4.7192022827769080e+01 0
-6.7022389218873428e+01 4.2079069382889614e+01 0
2.6751757921178893e+01 -2.6051903854614068e+01 0
-1.6974431889159717e+01 -1.9281610116679573e+01 0
9.1968965724585104e+01 -5.0979419247094128e+01 0
-6.5623088155404901e+00 -1.2146327533926467e+01 0
-1.8630799360711762e+01 -4.4753976639803263e+01 0
-1.8414292411973072e+01 -3.3305124304362224e+01 0
-5.3838448392764349e+01 -2.8260947613835448e+01 0
-6.1733276851846853e+01 2.6417311340069176e+01 0
-2.6126914320194601e+01 -4.7248498984510924e+01 0

