# vtk DataFile Version 2.0

ASCII

DATASET UNSTRUCTURED_GRID

POINTS 79 float 

-5.0000000000000003e-02  0.0000000000000000e+00  0.0000000000000000e+00
-5.0000000000000003e-02  5.5555555555555552e-02  0.0000000000000000e+00
-5.0000000000000003e-02  2.7777777777777776e-02  0.0000000000000000e+00
5.0000000000000003e-02  0.0000000000000000e+00  0.0000000000000000e+00
5.0000000000000003e-02  5.5555555555555552e-02  0.0000000000000000e+00
5.0000000000000003e-02  2.7777777777777776e-02  0.0000000000000000e+00
-5.0000000000000003e-02  1.1111111111111110e-01  0.0000000000000000e+00
-5.0000000000000003e-02  8.3333333333333329e-02  0.0000000000000000e+00
5.0000000000000003e-02  1.1111111111111110e-01  0.0000000000000000e+00
5.0000000000000003e-02  8.3333333333333329e-02  0.0000000000000000e+00
-5.0000000000000003e-02  1.6666666666666666e-01  0.0000000000000000e+00
-5.0000000000000003e-02  1.3888888888888890e-01  0.0000000000000000e+00
5.0000000000000003e-02  1.6666666666666666e-01  0.0000000000000000e+00
5.0000000000000003e-02  1.3888888888888890e-01  0.0000000000000000e+00
-5.0000000000000003e-02  2.2222222222222221e-01  0.0000000000000000e+00
-5.0000000000000003e-02  1.9444444444444442e-01  0.0000000000000000e+00
5.0000000000000003e-02  2.2222222222222221e-01  0.0000000000000000e+00
5.0000000000000003e-02  1.9444444444444442e-01  0.0000000000000000e+00
-5.0000000000000003e-02  2.7777777777777779e-01  0.0000000000000000e+00
-5.0000000000000003e-02  2.5000000000000000e-01  0.0000000000000000e+00
5.0000000000000003e-02  2.7777777777777779e-01  0.0000000000000000e+00
5.0000000000000003e-02  2.5000000000000000e-01  0.0000000000000000e+00
-5.0000000000000003e-02  3.3333333333333331e-01  0.0000000000000000e+00
-5.0000000000000003e-02  3.0555555555555558e-01  0.0000000000000000e+00
5.0000000000000003e-02  3.3333333333333331e-01  0.0000000000000000e+00
5.0000000000000003e-02  3.0555555555555558e-01  0.0000000000000000e+00
-5.0000000000000003e-02  3.8888888888888884e-01  0.0000000000000000e+00
-5.0000000000000003e-02  3.6111111111111105e-01  0.0000000000000000e+00
5.0000000000000003e-02  3.8888888888888884e-01  0.0000000000000000e+00
5.0000000000000003e-02  3.6111111111111105e-01  0.0000000000000000e+00
-5.0000000000000003e-02  4.4444444444444442e-01  0.0000000000000000e+00
-5.0000000000000003e-02  4.1666666666666663e-01  0.0000000000000000e+00
5.0000000000000003e-02  4.4444444444444442e-01  0.0000000000000000e+00
5.0000000000000003e-02  4.1666666666666663e-01  0.0000000000000000e+00
-5.0000000000000003e-02  5.0000000000000000e-01  0.0000000000000000e+00
-5.0000000000000003e-02  4.7222222222222221e-01  0.0000000000000000e+00
5.0000000000000003e-02  5.0000000000000000e-01  0.0000000000000000e+00
5.0000000000000003e-02  4.7222222222222221e-01  0.0000000000000000e+00
-5.0000000000000003e-02  5.5555555555555558e-01  0.0000000000000000e+00
-5.0000000000000003e-02  5.2777777777777779e-01  0.0000000000000000e+00
5.0000000000000003e-02  5.5555555555555558e-01  0.0000000000000000e+00
5.0000000000000003e-02  5.2777777777777779e-01  0.0000000000000000e+00
-5.0000000000000003e-02  6.1111111111111105e-01  0.0000000000000000e+00
-5.0000000000000003e-02  5.8333333333333326e-01  0.0000000000000000e+00
5.0000000000000003e-02  6.1111111111111105e-01  0.0000000000000000e+00
5.0000000000000003e-02  5.8333333333333326e-01  0.0000000000000000e+00
-5.0000000000000003e-02  6.6666666666666663e-01  0.0000000000000000e+00
-5.0000000000000003e-02  6.3888888888888884e-01  0.0000000000000000e+00
5.0000000000000003e-02  6.6666666666666663e-01  0.0000000000000000e+00
5.0000000000000003e-02  6.3888888888888884e-01  0.0000000000000000e+00
-5.0000000000000003e-02  7.2222222222222221e-01  0.0000000000000000e+00
-5.0000000000000003e-02  6.9444444444444442e-01  0.0000000000000000e+00
5.0000000000000003e-02  7.2222222222222221e-01  0.0000000000000000e+00
5.0000000000000003e-02  6.9444444444444442e-01  0.0000000000000000e+00
-5.0000000000000003e-02  7.7777777777777768e-01  0.0000000000000000e+00
-5.0000000000000003e-02  7.5000000000000000e-01  0.0000000000000000e+00
5.0000000000000003e-02  7.7777777777777768e-01  0.0000000000000000e+00
5.0000000000000003e-02  7.5000000000000000e-01  0.0000000000000000e+00
-5.0000000000000003e-02  8.3333333333333326e-01  0.0000000000000000e+00
-5.0000000000000003e-02  8.0555555555555547e-01  0.0000000000000000e+00
5.0000000000000003e-02  8.3333333333333326e-01  0.0000000000000000e+00
5.0000000000000003e-02  8.0555555555555547e-01  0.0000000000000000e+00
-5.0000000000000003e-02  8.8888888888888884e-01  0.0000000000000000e+00
-5.0000000000000003e-02  8.6111111111111105e-01  0.0000000000000000e+00
5.0000000000000003e-02  8.8888888888888884e-01  0.0000000000000000e+00
5.0000000000000003e-02  8.6111111111111105e-01  0.0000000000000000e+00
-5.0000000000000003e-02  9.4444444444444442e-01  0.0000000000000000e+00
-5.0000000000000003e-02  9.1666666666666663e-01  0.0000000000000000e+00
5.0000000000000003e-02  9.4444444444444442e-01  0.0000000000000000e+00
5.0000000000000003e-02  9.1666666666666663e-01  0.0000000000000000e+00
-5.0000000000000003e-02  1.0000000000000000e+00  0.0000000000000000e+00
-1.6666666666666670e-02  1.0000000000000000e+00  0.0000000000000000e+00
-5.0000000000000003e-02  9.7222222222222221e-01  0.0000000000000000e+00
-3.3333333333333340e-02  1.0000000000000000e+00  0.0000000000000000e+00
1.6666666666666663e-02  1.0000000000000000e+00  0.0000000000000000e+00
-3.4694469519536142e-18  1.0000000000000000e+00  0.0000000000000000e+00
5.0000000000000003e-02  1.0000000000000000e+00  0.0000000000000000e+00
5.0000000000000003e-02  9.7222222222222221e-01  0.0000000000000000e+00
3.3333333333333333e-02  1.0000000000000000e+00  0.0000000000000000e+00

CELLS 0 0


CELL_TYPES 0


POINT_DATA 79

VECTORS VertexNormals float

0.0000000000000000e+00 0.0000000000000000e+00 0
0.0000000000000000e+00 0.0000000000000000e+00 0
0.0000000000000000e+00 0.0000000000000000e+00 0
0.0000000000000000e+00 0.0000000000000000e+00 0
0.0000000000000000e+00 0.0000000000000000e+00 0
0.0000000000000000e+00 0.0000000000000000e+00 0
0.0000000000000000e+00 0.0000000000000000e+00 0
0.0000000000000000e+00 0.0000000000000000e+00 0
0.0000000000000000e+00 0.0000000000000000e+00 0
0.0000000000000000e+00 0.0000000000000000e+00 0
0.0000000000000000e+00 0.0000000000000000e+00 0
0.0000000000000000e+00 0.0000000000000000e+00 0
0.0000000000000000e+00 0.0000000000000000e+00 0
0.0000000000000000e+00 0.0000000000000000e+00 0
0.0000000000000000e+00 0.0000000000000000e+00 0
0.0000000000000000e+00 0.0000000000000000e+00 0
0.0000000000000000e+00 0.0000000000000000e+00 0
0.0000000000000000e+00 0.0000000000000000e+00 0
0.0000000000000000e+00 0.0000000000000000e+00 0
0.0000000000000000e+00 0.0000000000000000e+00 0
0.0000000000000000e+00 0.0000000000000000e+00 0
0.0000000000000000e+00 0.0000000000000000e+00 0
0.0000000000000000e+00 0.0000000000000000e+00 0
0.0000000000000000e+00 0.0000000000000000e+00 0
0.0000000000000000e+00 0.0000000000000000e+00 0
0.0000000000000000e+00 0.0000000000000000e+00 0
0.0000000000000000e+00 0.0000000000000000e+00 0
0.0000000000000000e+00 0.0000000000000000e+00 0
0.0000000000000000e+00 0.0000000000000000e+00 0
0.0000000000000000e+00 0.0000000000000000e+00 0
0.0000000000000000e+00 0.0000000000000000e+00 0
0.0000000000000000e+00 0.0000000000000000e+00 0
0.0000000000000000e+00 0.0000000000000000e+00 0
0.0000000000000000e+00 0.0000000000000000e+00 0
0.0000000000000000e+00 0.0000000000000000e+00 0
0.0000000000000000e+00 0.0000000000000000e+00 0
0.0000000000000000e+00 0.0000000000000000e+00 0
0.0000000000000000e+00 0.0000000000000000e+00 0
0.0000000000000000e+00 0.0000000000000000e+00 0
0.0000000000000000e+00 0.0000000000000000e+00 0
0.0000000000000000e+00 0.0000000000000000e+00 0
0.0000000000000000e+00 0.0000000000000000e+00 0
0.0000000000000000e+00 0.0000000000000000e+00 0
0.0000000000000000e+00 0.0000000000000000e+00 0
0.0000000000000000e+00 0.0000000000000000e+00 0
0.0000000000000000e+00 0.0000000000000000e+00 0
0.0000000000000000e+00 0.0000000000000000e+00 0
0.0000000000000000e+00 0.0000000000000000e+00 0
0.0000000000000000e+00 0.0000000000000000e+00 0
0.0000000000000000e+00 0.0000000000000000e+00 0
0.0000000000000000e+00 0.0000000000000000e+00 0
0.0000000000000000e+00 0.0000000000000000e+00 0
0.0000000000000000e+00 0.0000000000000000e+00 0
0.0000000000000000e+00 0.0000000000000000e+00 0
0.0000000000000000e+00 0.0000000000000000e+00 0
0.0000000000000000e+00 0.0000000000000000e+00 0
0.0000000000000000e+00 0.0000000000000000e+00 0
0.0000000000000000e+00 0.0000000000000000e+00 0
0.0000000000000000e+00 0.0000000000000000e+00 0
0.0000000000000000e+00 0.0000000000000000e+00 0
0.0000000000000000e+00 0.0000000000000000e+00 0
0.0000000000000000e+00 0.0000000000000000e+00 0
0.0000000000000000e+00 0.0000000000000000e+00 0
0.0000000000000000e+00 0.0000000000000000e+00 0
0.0000000000000000e+00 0.0000000000000000e+00 0
0.0000000000000000e+00 0.0000000000000000e+00 0
0.0000000000000000e+00 0.0000000000000000e+00 0
0.0000000000000000e+00 0.0000000000000000e+00 0
0.0000000000000000e+00 0.0000000000000000e+00 0
0.0000000000000000e+00 0.0000000000000000e+00 0
0.0000000000000000e+00 0.0000000000000000e+00 0
0.0000000000000000e+00 0.0000000000000000e+00 0
0.0000000000000000e+00 0.0000000000000000e+00 0
0.0000000000000000e+00 0.0000000000000000e+00 0
0.0000000000000000e+00 0.0000000000000000e+00 0
0.0000000000000000e+00 0.0000000000000000e+00 0
0.0000000000000000e+00 0.0000000000000000e+00 0
0.0000000000000000e+00 0.0000000000000000e+00 0
0.0000000000000000e+00 0.0000000000000000e+00 0

VECTORS Displacement float
0.0000000000000000e+00 0.0000000000000000e+00 0
2.7507026890639169e-03 2.8782288565825068e-03 0
1.2418717122606451e-03 1.5729858394027416e-03 0
0.0000000000000000e+00 0.0000000000000000e+00 0
2.5951148862665254e-03 -2.7446343541817960e-03 0
1.1418729523004238e-03 -1.4818393226228342e-03 0
7.6283729716767699e-03 5.0728981960399093e-03 0
4.9276066685382432e-03 4.0520165947179488e-03 0
7.5447666173379078e-03 -4.8810976287209503e-03 0
4.7905555294988061e-03 -3.8946907872824993e-03 0
1.4481700822841762e-02 6.5755404110099842e-03 0
1.0842174190713327e-02 5.8996959625148161e-03 0
1.4343671244815757e-02 -6.3023544670862486e-03 0
1.0740171836993584e-02 -5.6608017488106160e-03 0
2.2575967859582092e-02 7.5192423479785780e-03 0
1.8398800101853782e-02 7.1122342415892593e-03 0
2.2506313760928466e-02 -7.1409185357906718e-03 0
1.8280792117997095e-02 -6.8064212217166537e-03 0
3.1319089494965799e-02 7.7847253881846417e-03 0
2.6948611969707471e-02 7.7360290115978253e-03 0
3.1169072458454905e-02 -7.2507881946551698e-03 0
2.6867336522059377e-02 -7.2593797095890783e-03 0
3.9776724029119186e-02 7.5453873851491354e-03 0
3.5618221426212363e-02 7.6987725017362294e-03 0
3.9652428244157434e-02 -6.9884341177559204e-03 0
3.5448236108330533e-02 -7.1591361252472917e-03 0
4.7625804455232422e-02 7.2876253075157193e-03 0
4.3761679108675983e-02 7.3952771817561427e-03 0
4.7450115646325924e-02 -6.5606326229992254e-03 0
4.3653453239998891e-02 -6.7603405247531560e-03 0
5.5193645954766238e-02 7.1739063166824067e-03 0
5.1419094626259654e-02 7.2276644313862904e-03 0
5.5052047929181627e-02 -6.3418918726401690e-03 0
5.1214590272425725e-02 -6.4498946754363478e-03 0
6.2655207197119311e-02 6.9765488063703264e-03 0
5.8951315823898717e-02 7.0890635817904332e-03 0
6.2503525645839705e-02 -6.0189157815558735e-03 0
5.8836168620762380e-02 -6.1808439610793030e-03 0
6.9753992025862049e-02 6.6864210037176006e-03 0
6.6274205190957142e-02 6.8358824677801563e-03 0
6.9618148258615065e-02 -5.6200195570892657e-03 0
6.6110088267002293e-02 -5.8420792499491673e-03 0
7.6419094794941050e-02 6.3911925579333145e-03 0
7.3114961947446308e-02 6.5498482352553738e-03 0
7.6267414594956034e-02 -5.1716112078015455e-03 0
7.2994985593866094e-02 -5.3875389606085240e-03 0
8.2623976831391027e-02 5.9362094781989262e-03 0
7.9612547235317577e-02 6.1741836871299994e-03 0
8.2526923030934674e-02 -4.7478439371312006e-03 0
7.9445638973066057e-02 -4.9638597959398099e-03 0
8.8204018718834376e-02 5.4772329699497909e-03 0
8.5479998016056935e-02 5.7018369984870240e-03 0
8.8149799063401091e-02 -4.2769328410159424e-03 0
8.5452511358052097e-02 -4.5048078193630318e-03 0
9.3312183106758970e-02 5.1756858055639092e-03 0
9.0800787213669798e-02 5.3019669898852848e-03 0
9.3210980657386575e-02 -4.0147504987514456e-03 0
9.0691399676779375e-02 -4.1214379940038336e-03 0
9.8178569140492805e-02 5.0024281191760637e-03 0
9.5762572628093706e-02 5.0815580183857303e-03 0
9.8142214542308842e-02 -3.7963635497237462e-03 0
9.5722117554313396e-02 -3.9085865736397159e-03 0
1.0289947676118075e-01 4.8480290316584556e-03 0
1.0057487959513858e-01 4.9180860538262528e-03 0
1.0275074026573380e-01 -3.6998461229913564e-03 0
1.0045544312506369e-01 -3.7243726442033774e-03 0
1.0750451266222777e-01 4.8271998047286682e-03 0
1.0519296796092775e-01 4.8187006029555262e-03 0
1.0743453408110648e-01 -3.6705364730603672e-03 0
1.0509346462679954e-01 -3.6964459014292295e-03 0
1.1218520394132206e-01 4.8765514551620042e-03 0
1.1216924157985733e-01 2.0275353192151326e-03 0
1.0983313345198828e-01 4.8558644852065673e-03 0
1.1218128883011191e-01 3.4530236617673067e-03 0
1.1208896253688479e-01 -8.0477028605834900e-04 0
1.1213787778162765e-01 6.0939816549865659e-04 0
1.1200647496104923e-01 -3.6035361617354012e-03 0
1.0972019851825227e-01 -3.6291085622295084e-03 0
1.1203444923803998e-01 -2.2191130922151357e-03 0

VECTORS Stress float
1.2684261208598451e+02 -3.3528350231863413e+01 0
1.1308684326156292e+02 -2.4113550047914019e+00 0
1.1643298263245777e+02 -8.7199929522622206e+00 0
6.1727543321957576e+01 -2.9776250960148587e+01 0
4.6463518436613576e+01 1.5117040342775419e+00 0
5.0180714176600191e+01 -5.4963133122549968e+00 0
1.1534549220154022e+02 -1.2478450841093320e+01 0
1.1405537768885266e+02 -7.0606944854831246e+00 0
4.8654720529582519e+01 -5.9796951747281435e+00 0
4.7348092886531290e+01 -1.8395927419514653e+00 0
1.1474090207467168e+02 -1.5217796985546547e+01 0
1.1515917161438031e+02 -1.4263729767312302e+01 0
4.8360449985900189e+01 -6.6598100542422110e+00 0
4.8624490495991644e+01 -6.6649677679609960e+00 0
1.1404715429896508e+02 -1.7227305363191000e+01 0
1.1433112957082012e+02 -1.6257721053918242e+01 0
4.8762462434461398e+01 -7.4393044187830295e+00 0
4.8481292512971798e+01 -7.0064505154774537e+00 0
1.1319838931804998e+02 -1.7542533662910103e+01 0
1.1365759038498516e+02 -1.7645130663001851e+01 0
4.9858782026842121e+01 -7.6900020564430296e+00 0
4.9238061326476334e+01 -7.6796034194056535e+00 0
1.1215824991061835e+02 -1.6448456947458265e+01 0
1.1274713205311069e+02 -1.7143895488631269e+01 0
5.1652168723712819e+01 -7.3834550169560380e+00 0
5.0621930721117238e+01 -7.5675594945474991e+00 0
1.1072921107015347e+02 -1.5268016580286314e+01 0
1.1156200279864473e+02 -1.5756950294842458e+01 0
5.3913978288779333e+01 -7.2672846393615558e+00 0
5.2721835149566807e+01 -7.2360893973098186e+00 0
1.0868784537590177e+02 -1.4626669166381991e+01 0
1.0977750347162319e+02 -1.4923961693216203e+01 0
5.6364650417694051e+01 -7.5199417749437316e+00 0
5.5115624066974163e+01 -7.4038973849908629e+00 0
1.0606956122403261e+02 -1.3892886554053096e+01 0
1.0741677227822838e+02 -1.4305663895704278e+01 0
5.8981024161779374e+01 -7.5265023678931122e+00 0
5.7692676202182312e+01 -7.5521356532062640e+00 0
1.0291201754472353e+02 -1.2629331182701382e+01 0
1.0454854672727197e+02 -1.3303953659899349e+01 0
6.1584930357686190e+01 -7.3943023051942198e+00 0
6.0321446612567598e+01 -7.4812120768580286e+00 0
9.9058796686495967e+01 -1.1414150301175990e+01 0
1.0108301620169142e+02 -1.2011674087030649e+01 0
6.3930392290782876e+01 -7.2340997862821688e+00 0
6.2796421265721548e+01 -7.3226583928300641e+00 0
9.4501911633574707e+01 -9.9656099690244844e+00 0
9.6875377757772270e+01 -1.0734822250303452e+01 0
6.5981424236231874e+01 -6.8198337255601302e+00 0
6.4975504237495983e+01 -7.0659287807627678e+00 0
8.8933481311641188e+01 -8.3514904392782867e+00 0
9.1880119613102124e+01 -9.1127760596177936e+00 0
6.7527869863396361e+01 -6.2528328439671270e+00 0
6.6828848512556931e+01 -6.5006513217142299e+00 0
8.1787910232793962e+01 -7.2722719154347573e+00 0
8.5592497613180683e+01 -7.6456868561942883e+00 0
6.8486325100155767e+01 -6.0570790074110903e+00 0
6.8040586822069884e+01 -6.0413334762175452e+00 0
7.2277188847234356e+01 -5.9915854662858408e+00 0
7.7406163036433242e+01 -7.1022329663042143e+00 0
6.8599051226888264e+01 -5.6469649419745522e+00 0
6.8823537632654535e+01 -6.1945750339369425e+00 0
5.9160913270649793e+01 -2.1086484463361117e+00 0
6.6243842928629064e+01 -2.9702719522672609e+00 0
6.7083704611949969e+01 -3.6979838498166444e+00 0
6.7481502061975178e+01 -3.8313241333384909e+00 0
3.9664583171495359e+01 -2.3084137508622248e+01 0
5.0854236449521011e+01 -1.4038125774258731e+01 0
7.6250920195337699e+01 -1.9581062377814618e+01 0
7.2179383152125212e+01 -1.2898202666255017e+01 0
6.9554167501199231e+00 1.1214699951154394e+02 0
1.0115691998937457e+01 1.1097432751100089e+02 0
2.5045871949831493e+01 1.2864007279995000e+01 0
1.0324206284994325e+01 1.1857093863685046e+02 0
6.5906261704321381e+00 8.8200712498731662e+01 0
8.4751660540138829e+00 9.9052243532817329e+01 0
1.2689195951056988e+01 7.2702832856431613e+01 0
5.9624875579720040e+01 4.0732849998549838e+00 0
6.5477729545208021e+00 7.9185878288754850e+01 0

